/*--------------------------------*- C++ -*----------------------------------*\
  =========                 |
  \\      /  F ield         | OpenFOAM: The Open Source CFD Toolbox
   \\    /   O peration     | Website:  https://openfoam.org
    \\  /    A nd           | Version:  11
     \\/     M anipulation  |
\*---------------------------------------------------------------------------*/
FoamFile
{
    format      ascii;
    class       surfaceScalarField;
    location    "16.444867";
    object      phi_0;
}
// * * * * * * * * * * * * * * * * * * * * * * * * * * * * * * * * * * * * * //

dimensions      [0 3 -1 0 0 0 0];

internalField   nonuniform List<scalar> 
14638
(
0.00250272
-2.72071e-06
0.00251091
-8.18944e-06
0.00252462
-1.37091e-05
0.00254376
-1.91454e-05
0.00256805
-2.42834e-05
0.00259678
-2.87334e-05
0.00262872
-3.19347e-05
0.00266182
-3.31018e-05
0.00269324
-3.14194e-05
0.00271971
-2.64754e-05
0.00273803
-1.83181e-05
0.00274703
-9.00193e-06
0.0027475
-4.71183e-07
0.00274227
5.23883e-06
0.00273574
6.53013e-06
0.00273223
3.50673e-06
0.00273431
-2.08472e-06
0.00274163
-7.32036e-06
0.00275052
-8.88694e-06
0.002755
-4.47494e-06
0.00274923
5.76911e-06
0.00273003
1.91964e-05
0.0026979
3.21344e-05
0.00265641
4.14834e-05
0.00261105
4.53607e-05
0.00256809
4.29624e-05
0.00253388
3.42094e-05
0.00251429
1.95903e-05
0.00251393
3.56127e-07
0.0025349
-2.09682e-05
0.00257495
-4.00474e-05
0.00262625
-5.12977e-05
0.00267643
-5.01852e-05
0.00271248
-3.60477e-05
0.00272548
-1.29977e-05
0.0027133
1.21761e-05
0.00268001
3.32873e-05
0.00263321
4.68061e-05
0.00258146
5.17518e-05
0.00253297
4.84851e-05
0.00249533
3.76365e-05
0.00247552
1.98147e-05
0.00247932
-3.80293e-06
0.00250957
-3.02476e-05
0.00256345
-5.38838e-05
0.00263091
-6.74595e-05
0.00269626
-6.53512e-05
0.00274327
-4.70068e-05
0.00276107
-1.78011e-05
0.00274749
1.35817e-05
0.00270828
3.92112e-05
0.00265357
5.47144e-05
0.00259418
5.93873e-05
0.00253966
5.45204e-05
0.00249803
4.16261e-05
0.00247629
2.17436e-05
0.00248014
-3.85619e-06
0.00251226
-3.21161e-05
0.00256953
-5.72706e-05
0.00264154
-7.2007e-05
0.00271215
-7.06074e-05
0.00276432
-5.21773e-05
0.00278598
-2.16555e-05
0.00277375
1.2224e-05
0.00273309
4.06625e-05
0.00267504
5.80489e-05
0.00261206
6.29826e-05
0.00255503
5.70316e-05
0.00251242
4.26108e-05
0.00249077
2.16457e-05
0.00249485
-4.07944e-06
0.00252629
-3.14382e-05
0.00258142
-5.51331e-05
0.00265025
-6.88266e-05
0.00271805
-6.77982e-05
0.00276943
-5.13783e-05
0.002793
-2.35778e-05
0.00278464
8.3603e-06
0.00274808
3.65628e-05
0.00269298
5.50995e-05
0.00263157
6.14081e-05
0.00257549
5.60856e-05
0.00253403
4.14533e-05
0.00251389
2.0142e-05
0.002519
-5.11029e-06
0.00254961
-3.06042e-05
0.00260092
-5.13169e-05
0.002663
-6.20726e-05
0.00272267
-5.96725e-05
0.00276712
-4.44489e-05
0.00278733
-2.02175e-05
0.00278018
7.15215e-06
0.00274857
3.16083e-05
0.00270011
4.84618e-05
0.00264493
5.51784e-05
0.00259353
5.1405e-05
0.0025551
3.84262e-05
0.00253657
1.85352e-05
0.00254169
-5.12291e-06
0.00257004
-2.83533e-05
0.00261628
-4.62397e-05
0.00267073
-5.44465e-05
0.00272162
-5.08885e-05
0.00275826
-3.66384e-05
0.00277373
-1.54724e-05
0.00276616
7.56973e-06
0.00273841
2.77546e-05
0.00269673
4.16775e-05
0.00264922
4.75062e-05
0.00260448
4.47385e-05
0.00257058
3.39052e-05
0.00255405
1.65269e-05
0.0025587
-4.64651e-06
0.00258425
-2.55478e-05
0.0026257
-4.1456e-05
0.00267413
-4.84271e-05
0.00271891
-4.4783e-05
0.00275067
-3.17611e-05
0.00276363
-1.29539e-05
0.00275656
7.07016e-06
0.00273233
2.42247e-05
0.00269653
3.58016e-05
0.00265599
4.0537e-05
0.00261784
3.81504e-05
0.00258891
2.89346e-05
0.00257508
1.38297e-05
0.00258017
-5.09425e-06
0.00260453
-2.436e-05
0.00264417
-3.96348e-05
0.00269124
-4.70726e-05
0.002736
-4.47561e-05
0.00276942
-3.34255e-05
0.00278557
-1.61462e-05
0.00278274
2.83161e-06
0.00276329
1.94436e-05
0.00273243
3.08599e-05
0.00269661
3.58245e-05
0.00266231
3.42998e-05
0.00263548
2.68242e-05
0.00262133
1.41525e-05
0.00262385
-2.51581e-06
0.00264488
-2.10282e-05
0.00268307
-3.81922e-05
0.00273354
-5.04733e-05
0.00278872
-5.5181e-05
0.00284018
-5.14537e-05
0.0028807
-4.0523e-05
0.0029059
-2.5206e-05
0.00291487
-8.96233e-06
0.00290978
5.09021e-06
0.00289493
1.48436e-05
0.00287539
1.95398e-05
0.00285587
1.95237e-05
0.00283974
1.6125e-05
0.00282908
1.06603e-05
0.00282397
5.11097e-06
0.00282407
-9.36703e-08
0.00282669
-2.62513e-06
0.00283103
-4.33436e-06
-1.24452e-06
0.00250271
-5.43148e-06
0.00251088
-1.63566e-05
0.00252457
-2.74041e-05
0.00254375
-3.83248e-05
0.00256817
-4.86987e-05
0.00259719
-5.7753e-05
0.00262961
-6.43585e-05
0.0026634
-6.68892e-05
0.00269562
-6.36416e-05
0.00272281
-5.36655e-05
0.00274146
-3.69709e-05
0.00275032
-1.78631e-05
0.00275017
-3.17976e-07
0.00274397
1.14376e-05
0.00273648
1.40195e-05
0.00273239
7.60027e-06
0.00273454
-4.23319e-06
0.00274265
-1.54276e-05
0.00275281
-1.90507e-05
0.00275855
-1.02162e-05
0.00275353
1.07939e-05
0.0027343
3.84211e-05
0.00270143
6.50073e-05
0.00265872
8.41888e-05
0.00261189
9.21938e-05
0.00256738
8.74681e-05
0.00253172
6.98742e-05
0.00251098
4.03301e-05
0.00251012
1.21665e-06
0.00253163
-4.24822e-05
0.00257349
-8.19028e-05
0.00262757
-0.000105375
0.00268068
-0.000103295
0.00271882
-7.41953e-05
0.00273252
-2.66936e-05
0.00271968
2.50122e-05
0.00268484
6.81254e-05
0.00263611
9.55415e-05
0.00258236
0.000105497
0.00253194
9.89108e-05
0.00249249
7.70874e-05
0.00247122
4.1086e-05
0.00247442
-7.0024e-06
0.00250551
-6.13384e-05
0.00256191
-0.000110288
0.00263304
-0.000138591
0.00270205
-0.000134356
0.00275148
-9.64421e-05
0.00276987
-3.6185e-05
0.00275517
2.82772e-05
0.00271381
8.05712e-05
0.00265663
0.000111893
0.00259491
0.000121114
0.00253828
0.000111144
0.00249476
8.51498e-05
0.00247141
4.50949e-05
0.0024743
-6.74415e-06
0.0025066
-6.44242e-05
0.0025656
-0.000116263
0.00264071
-0.000147126
0.00271504
-0.000144931
0.00277037
-0.000107511
0.00279365
-4.49354e-05
0.00278119
2.46816e-05
0.00273881
8.30455e-05
0.0026783
0.000118563
0.00261277
0.000128512
0.00255342
0.000116381
0.00250874
8.72874e-05
0.00248532
4.50667e-05
0.00248821
-6.97405e-06
0.00251953
-6.27564e-05
0.00257589
-0.000111486
0.00264705
-0.000139988
0.00271763
-0.000138379
0.00277146
-0.000105213
0.00279661
-4.87251e-05
0.0027887
1.62694e-05
0.00275154
7.37203e-05
0.00269508
0.000111565
0.00263187
0.000124619
0.00257383
0.000114119
0.00253054
8.47427e-05
0.00250902
4.16702e-05
0.00251364
-9.73166e-06
0.00254499
-6.19591e-05
0.00259821
-0.000104539
0.00266275
-0.000126607
0.00272461
-0.000121539
0.00277037
-9.02071e-05
0.00279085
-4.06946e-05
0.00278312
1.48848e-05
0.00275044
6.42882e-05
0.0027007
9.81961e-05
0.00264421
0.000111673
0.00259153
0.000104084
0.00255203
7.79278e-05
0.00253294
3.76264e-05
0.00253842
-1.06055e-05
0.00256824
-5.81765e-05
0.0026168
-9.4799e-05
0.00267373
-0.000111377
0.00272648
-0.000103635
0.00276383
-7.39925e-05
0.00277883
-3.04654e-05
0.00276991
1.64866e-05
0.00274042
5.72445e-05
0.00269703
8.50627e-05
0.00264809
9.64466e-05
0.00260231
9.05191e-05
0.00256788
6.83339e-05
0.00255157
3.28424e-05
0.00255738
-1.04608e-05
0.00258505
-5.32187e-05
0.0026292
-8.56001e-05
0.00268018
-9.94098e-05
0.00272667
-9.12754e-05
0.00275887
-6.39553e-05
0.00277097
-2.5054e-05
0.00276209
1.59466e-05
0.0027356
5.07111e-05
0.00269756
7.38411e-05
0.00265516
8.2937e-05
0.00261575
7.75616e-05
0.00258635
5.83426e-05
0.00257302
2.71526e-05
0.00257973
-1.18025e-05
0.0026067
-5.13262e-05
0.00264946
-8.2402e-05
0.00269948
-9.70855e-05
0.00274627
-9.15493e-05
0.00278038
-6.75405e-05
0.00279581
-3.15755e-05
0.00279113
7.51222e-06
0.00276917
4.14101e-05
0.0027356
6.4426e-05
0.0026973
7.41267e-05
0.00266105
7.05493e-05
0.00263304
5.48373e-05
0.00261868
2.85093e-05
0.00262217
-6.00361e-06
0.00264537
-4.42276e-05
0.00268664
-7.94625e-05
0.00274049
-0.000104324
0.00279861
-0.0001133
0.00285194
-0.000104791
0.00289299
-8.15674e-05
0.00291739
-4.96126e-05
0.00292455
-1.61147e-05
0.00291707
1.25669e-05
0.00289969
3.2221e-05
0.00287782
4.14125e-05
0.0028564
4.09411e-05
0.00283897
3.35625e-05
0.00282766
2.19674e-05
0.00282259
1.01768e-05
0.00282347
-9.68546e-07
0.00282733
-6.48627e-06
0.00283366
-1.06627e-05
-3.78767e-06
0.00250269
-8.12146e-06
0.0025108
-2.44709e-05
0.00252446
-4.10604e-05
0.00254369
-5.75531e-05
0.00256834
-7.3354e-05
0.00259791
-8.73209e-05
0.0026313
-9.77463e-05
0.00266646
-0.000102054
0.00270033
-9.75066e-05
0.002729
-8.23367e-05
0.00274836
-5.6333e-05
0.00275697
-2.64678e-05
0.00275558
1.07384e-06
0.00274746
1.95556e-05
0.00273807
2.34064e-05
0.00273287
1.28047e-05
0.00273524
-6.6066e-06
0.00274503
-2.52137e-05
0.00275781
-3.1834e-05
0.00276604
-1.84494e-05
0.00276232
1.45159e-05
0.00274274
5.79984e-05
0.00270808
9.96727e-05
0.00266269
0.000129581
0.00261279
0.000142085
0.00256524
0.000135024
0.00252684
0.000108269
0.00250411
6.30671e-05
0.00250262
2.70355e-06
0.00252564
-6.55033e-05
0.00257151
-0.000127774
0.00263145
-0.000165318
0.00269051
-0.000162347
0.00273262
-0.000116309
0.00274716
-4.12319e-05
0.00273229
3.9884e-05
0.00269369
0.00010672
0.00264067
0.000148567
0.00258279
0.000163375
0.0025286
0.000153096
0.00248587
0.000119819
0.0024622
6.4758e-05
0.00246476
-9.56776e-06
0.00249804
-9.46154e-05
0.00255986
-0.000172108
0.00263865
-0.000217376
0.00271517
-0.000210876
0.00276935
-0.000150623
0.00278832
-5.5157e-05
0.0027705
4.60983e-05
0.00272395
0.000127121
0.00266124
0.000174604
0.00259463
0.000187721
0.00253395
0.000171818
0.00248698
0.000132123
0.00246069
7.13827e-05
0.0024616
-7.6531e-06
0.00249385
-9.66738e-05
0.00255561
-0.000178023
0.00263633
-0.000227846
0.00271778
-0.000226378
0.00277955
-0.000169279
0.00280648
-7.18642e-05
0.00279394
3.72175e-05
0.00274832
0.000128663
0.00268293
0.000183953
0.00261236
0.00019909
0.00254855
0.000180191
0.00250013
0.000135704
0.00247383
7.13621e-05
0.00247537
-8.51234e-06
0.00250772
-9.5109e-05
0.00256772
-0.00017148
0.00264417
-0.000216442
0.00272002
-0.000214222
0.00277762
-0.000162815
0.00280436
-7.54688e-05
0.00279594
2.46938e-05
0.00275663
0.000113025
0.00269702
0.000171179
0.00263025
0.000191388
0.00256873
0.000175643
0.00252251
0.00013096
0.00249932
6.48537e-05
0.00250442
-1.48228e-05
0.0025388
-9.63452e-05
0.00259705
-0.000162782
0.00266705
-0.00019661
0.00273305
-0.000187541
0.00278047
-0.000137624
0.00280004
-6.02678e-05
0.0027896
2.53269e-05
0.00275344
0.000100448
0.00270027
0.000151367
0.00264079
0.000171153
0.00258575
0.000159126
0.00254478
0.000118898
0.00252566
5.67403e-05
0.00253316
-1.8099e-05
0.00256708
-9.21017e-05
0.002621
-0.000148713
0.00268302
-0.000173405
0.0027391
-0.00015971
0.00277714
-0.000112034
0.00279023
-4.35546e-05
0.00277762
2.90976e-05
0.00274376
9.11048e-05
0.0026963
0.000132523
0.00264417
0.000148573
0.00259639
0.0001383
0.00256141
0.000103317
0.00254634
4.79133e-05
0.00255542
-1.95431e-05
0.00258807
-8.58685e-05
0.00263788
-0.000135415
0.0026938
-0.000155329
0.00274322
-0.000140693
0.00277566
-9.63977e-05
0.00278544
-3.48276e-05
0.00277239
2.89939e-05
0.00274093
8.21726e-05
0.00269811
0.000116657
0.00265188
0.000129169
0.00261008
0.000119363
0.00258011
8.83111e-05
0.00256839
3.88782e-05
0.00257892
-2.23383e-05
0.00261146
-8.3867e-05
0.00266045
-0.000131386
0.00271591
-0.000152544
0.00276615
-0.000141792
0.00280105
-0.000102441
0.0028146
-4.51308e-05
0.00280595
1.61624e-05
0.00277882
6.85463e-05
0.00273984
0.000103402
0.0026967
0.000117265
0.0026568
0.000110453
0.00262679
8.48408e-05
0.00261255
4.27582e-05
0.00261852
-1.19754e-05
0.00264641
-7.21221e-05
0.00269378
-0.000126835
0.00275385
-0.000164386
0.00281694
-0.000176391
0.00287306
-0.000160908
0.00291435
-0.00012286
0.0029367
-7.19667e-05
0.00294012
-1.953e-05
0.002928
2.46795e-05
0.00290586
5.43609e-05
0.00287974
6.75405e-05
0.002855
6.56764e-05
0.00283545
5.31157e-05
0.00282337
3.40495e-05
0.00281891
1.46353e-05
0.00282176
-3.82108e-06
0.00282841
-1.31328e-05
0.00283872
-2.09789e-05
-8.73915e-06
0.00250265
-1.07755e-05
0.00251067
-3.24913e-05
0.00252425
-5.46336e-05
0.00254352
-7.68212e-05
0.00256849
-9.83314e-05
0.00259885
-0.000117683
0.00263369
-0.000132582
0.00267098
-0.000139339
0.00270743
-0.00013396
0.00273847
-0.000113374
0.00275898
-7.68432e-05
0.00276722
-3.471e-05
0.0027639
4.39209e-06
0.00275275
3.07115e-05
0.00274031
3.58369e-05
0.00273328
1.98433e-05
0.00273593
-9.26299e-06
0.00274836
-3.76371e-05
0.00276532
-4.88006e-05
0.00277754
-3.0671e-05
0.00277588
1.61767e-05
0.0027557
7.81783e-05
0.00271816
0.000137214
0.00266854
0.000179205
0.00261391
0.000196716
0.00256168
0.000187248
0.00251913
0.000150825
0.00249331
8.88799e-05
0.00249081
5.20542e-06
0.00251614
-9.08299e-05
0.00256833
-0.000179965
0.00263759
-0.000234578
0.00270606
-0.00023082
0.00275436
-0.000164607
0.00277
-5.68749e-05
0.00275163
5.82588e-05
0.00270689
0.000151459
0.00264705
0.000208402
0.0025828
0.000227625
0.00252297
0.000212927
0.00247537
0.000167426
0.00244797
9.2155e-05
0.0024489
-1.04995e-05
0.00248396
-0.000129677
0.0025521
-0.000240242
0.00264147
-0.000306752
0.00273013
-0.000299533
0.00279349
-0.000213977
0.00281519
-7.68588e-05
0.00279347
6.78197e-05
0.00273901
0.00018158
0.00266757
0.000246037
0.00259338
0.00026191
0.00252658
0.000238622
0.0024743
0.000184408
0.00244309
0.000102593
0.00244022
-4.7832e-06
0.00247171
-0.000128172
0.00253729
-0.000243596
0.002626
-0.000316564
0.00271737
-0.000317744
0.0027881
-0.000240008
0.00282062
-0.000104382
0.00280899
4.88479e-05
0.00275987
0.000177783
0.00268823
0.000255586
0.00261067
0.000276653
0.00254041
0.000250447
0.00248661
0.000189505
0.00245663
0.000101342
0.00245748
-9.3589e-06
0.00249327
-0.000130903
0.00256042
-0.000238629
0.00264549
-0.000301511
0.00272856
-0.000297286
0.00279007
-0.000224324
0.00281707
-0.000102474
0.00280607
3.56929e-05
0.0027625
0.000156595
0.00269789
0.000235785
0.00262606
0.000263221
0.0025599
0.000241802
0.00251017
0.000180687
0.00248574
8.92856e-05
0.00249302
-2.21045e-05
0.00253326
-0.000136583
0.00259966
-0.000229178
0.00267765
-0.000274602
0.00274907
-0.000258962
0.00279797
-0.000186528
0.00281516
-7.74499e-05
0.00279964
4.084e-05
0.00275739
0.000142707
0.00269846
0.000210296
0.00263429
0.000235317
0.00257595
0.000217464
0.00253348
0.000161371
0.00251536
7.48558e-05
0.00252692
-2.96508e-05
0.00256759
-0.000132774
0.00262939
-0.000210513
0.00269831
-0.000242323
0.00275844
-0.000219849
0.00279682
-0.000150405
0.00280667
-5.34111e-05
0.00278834
4.74325e-05
0.00274779
0.000131654
0.0026941
0.000186212
0.00263717
0.000205505
0.00258656
0.000188905
0.00255119
0.000138692
0.00253858
6.05201e-05
0.00255302
-3.39867e-05
0.00259311
-0.000125951
0.00265075
-0.000193061
0.00271298
-0.000217562
0.00276575
-0.000193458
0.00279796
-0.00012861
0.00280418
-4.10479e-05
0.00278519
4.79845e-05
0.00274672
0.000120644
0.00269717
0.00016621
0.00264555
0.00018078
0.00260052
0.000164397
0.00257008
0.000118749
0.00256106
4.78963e-05
0.00257736
-3.86358e-05
0.00261773
-0.000124237
0.00267489
-0.000188544
0.00273702
-0.000214674
0.00279109
-0.000195856
0.0028264
-0.00013775
0.00283711
-5.58469e-05
0.00282308
3.01922e-05
0.00278908
0.000102546
0.00274293
0.000149552
0.00269338
0.00016682
0.00264869
0.000155139
0.00261629
0.000117241
0.00260266
5.63854e-05
0.00261254
-2.18517e-05
0.0026471
-0.000106686
0.00270249
-0.00018222
0.00277002
-0.000231915
0.00283839
-0.000244767
0.00289674
-0.000219261
0.00293719
-0.000163302
0.00295616
-9.09374e-05
0.00295449
-1.78616e-05
0.0029365
4.26675e-05
0.00290855
8.23122e-05
0.00287739
9.87021e-05
0.00284891
9.41528e-05
0.00282727
7.47552e-05
0.00281497
4.63523e-05
0.00281223
1.7376e-05
0.0028186
-1.01903e-05
0.00282972
-2.42561e-05
0.00284569
-3.69493e-05
-1.67106e-05
0.0025026
-1.33725e-05
0.00251047
-4.03593e-05
0.00252388
-6.80491e-05
0.00254314
-9.60776e-05
0.00256847
-0.000123664
0.00259983
-0.000149044
0.0026366
-0.000169347
0.00267681
-0.000179551
0.00271695
-0.000174106
0.00275141
-0.000147835
0.00277358
-9.90073e-05
0.0027813
-4.24352e-05
0.0027752
1.05e-05
0.0027596
4.63032e-05
0.00274272
5.27205e-05
0.002733
2.95619e-05
0.00273607
-1.23333e-05
0.00275237
-5.39315e-05
0.0027755
-7.19303e-05
0.00279358
-4.87512e-05
0.00279489
1.48667e-05
0.00277377
9.92992e-05
0.00273206
0.000178914
0.00267648
0.000234794
0.00261529
0.000257905
0.00255665
0.000245889
0.00250831
0.000199164
0.00247806
0.00011913
0.00247388
9.38585e-06
0.00250235
-0.000119304
0.00256378
-0.000241391
0.00264674
-0.000317536
0.00272878
-0.000312859
0.00278557
-0.0002214
0.00280225
-7.35542e-05
0.00277842
8.2083e-05
0.00272474
0.000205145
0.00265532
0.000277817
0.00258237
0.000300575
0.00251499
0.000280309
0.00246073
0.000221684
0.00242739
0.000125501
0.00242344
-6.55223e-06
0.00245641
-0.000162648
0.0025282
-0.000312028
0.00262883
-0.000407384
0.00273431
-0.000405013
0.00281393
-0.000293593
0.00284458
-0.000107511
0.00282173
9.06692e-05
0.00275859
0.000244722
0.00267582
0.000328803
0.00259129
0.000346435
0.00251603
0.000313891
0.00245624
0.000244196
0.00241811
0.000140718
0.00241074
2.58805e-06
0.00244317
-0.0001606
0.00251618
-0.000316604
0.00261645
-0.000416836
0.00271945
-0.000420748
0.00279887
-0.000319421
0.00283588
-0.000141398
0.00282433
6.03983e-05
0.00277122
0.000230891
0.00269271
0.000334099
0.00260707
0.000362295
0.00252897
0.000328546
0.00246868
0.000249791
0.00243512
0.000134908
0.0024372
-1.14374e-05
0.00247977
-0.000173475
0.0025575
-0.000316361
0.0026535
-0.000397507
0.00274453
-0.000388314
0.0028092
-0.000289003
0.00283457
-0.000127839
0.00281849
5.17711e-05
0.00276823
0.000206857
0.00269674
0.000307274
0.00261858
0.000341382
0.00254712
0.000313266
0.00249397
0.000233834
0.00246943
0.000113827
0.00248103
-3.37071e-05
0.00252956
-0.00018511
0.00260596
-0.00030558
0.00269279
-0.000361427
0.00276961
-0.000335791
0.00281943
-0.000236345
0.00283317
-9.11866e-05
0.00281105
6.29624e-05
0.00276085
0.000192901
0.0026944
0.000276749
0.00262423
0.000305489
0.002562
0.00027969
0.00251838
0.000204992
0.00250261
9.06239e-05
0.00252022
-4.72587e-05
0.00256957
-0.000182124
0.00264046
-0.000281399
0.00271654
-0.000318406
0.00278036
-0.000283668
0.00281837
-0.00018841
0.00282412
-5.9165e-05
0.00279898
7.2571e-05
0.00275047
0.000180167
0.00268926
0.000247424
0.0026265
0.000268258
0.00257266
0.000242748
0.00253732
0.00017403
0.00252846
6.93822e-05
0.00255001
-5.55381e-05
0.00259908
-0.000175017
0.00266537
-0.00025935
0.00273388
-0.000286072
0.00278938
-0.00024896
0.00282054
-0.000159774
0.00282237
-4.28711e-05
0.00279656
7.37859e-05
0.00275016
0.000167052
0.00269294
0.000223425
0.00263521
0.000238513
0.00258665
0.000212951
0.00255615
0.00014925
0.00255096
5.30925e-05
0.0025745
-6.21766e-05
0.00262395
-0.000173687
0.00268981
-0.000254407
0.00275833
-0.000283192
0.0028154
-0.000252931
0.00285019
-0.000172533
0.00285726
-6.29162e-05
0.0028372
5.0249e-05
0.00279576
0.000143984
0.00274187
0.000203448
0.00268537
0.000223314
0.00263561
0.000204901
0.002601
0.000151853
0.00258882
6.85647e-05
0.00260392
-3.69485e-05
0.00264642
-0.000149193
0.00271039
-0.000246188
0.00278488
-0.000306401
0.00285707
-0.000316961
0.00291572
-0.000277908
0.00295344
-0.000201027
0.00296761
-0.000105109
0.00296003
-1.02786e-05
0.00293588
6.68225e-05
0.00290224
0.000115949
0.00286648
0.000134461
0.00283497
0.000125661
0.00281228
9.74484e-05
0.00280116
5.74684e-05
0.00280192
1.66149e-05
0.00281369
-2.19533e-05
0.00283098
-4.15532e-05
0.00285358
-5.9545e-05
-2.75185e-05
0.00250251
-1.58838e-05
0.00251015
-4.79932e-05
0.00252329
-8.11913e-05
0.00254242
-0.000115212
0.00256807
-0.000149316
0.00260058
-0.000181551
0.00263974
-0.000208508
0.00268378
-0.000223585
0.00272896
-0.000219288
0.00276819
-0.000187063
0.00279269
-0.000123513
0.00279984
-4.95784e-05
0.00278998
2.03525e-05
0.00276825
6.80348e-05
0.00274508
7.58922e-05
0.00273141
4.32298e-05
0.0027348
-1.57234e-05
0.00275636
-7.54884e-05
0.00278812
-0.000103696
0.00281448
-7.51064e-05
0.00281998
9.36519e-06
0.00279757
0.000121709
0.00275021
0.000226274
0.00268667
0.000298339
0.00261689
0.000327686
0.0025499
0.000312871
0.00249393
0.000255138
0.00245754
0.000155519
0.00245074
1.61849e-05
0.00248335
-0.000151913
0.00255772
-0.000315762
0.00266011
-0.000419925
0.00276113
-0.00041388
0.00282906
-0.000289333
0.00284602
-9.05107e-05
0.00281375
0.000114356
0.00274748
0.000271411
0.00266532
0.000359978
0.0025813
0.000384596
0.00250453
0.000357081
0.00244147
0.000284744
0.00239854
0.000168431
0.00238448
7.50102e-06
0.00241067
-0.000188838
0.00248429
-0.000385649
0.00259719
-0.000520277
0.00272225
-0.000530071
0.00282272
-0.000394063
0.00286845
-0.000153243
0.00284981
0.00010931
0.00278027
0.000314263
0.00268545
0.000423621
0.00258841
0.000443473
0.00250226
0.000400043
0.0024329
0.000313552
0.00238717
0.000186454
0.00237733
1.24221e-05
0.0024153
-0.000198571
0.00250066
-0.000401958
0.00261533
-0.000531505
0.00272997
-0.000535393
0.00281578
-0.000405233
0.00285395
-0.000179564
0.00283954
7.48131e-05
0.00278075
0.000289681
0.00269466
0.000420184
0.0026005
0.000456456
0.00251405
0.000414993
0.00244722
0.00031662
0.00241128
0.000170849
0.00241708
-1.72328e-05
0.00246896
-0.000225358
0.00255849
-0.000405887
0.00266507
-0.000504094
0.00276301
-0.000486251
0.00282986
-0.00035585
0.00285266
-0.000150646
0.00283035
7.40818e-05
0.00277203
0.00026518
0.00269242
0.000386883
0.00260714
0.000426662
0.00253024
0.000390171
0.00247438
0.000289689
0.00245129
0.00013692
0.00246904
-5.14633e-05
0.00252699
-0.000243054
0.00261321
-0.000391806
0.00270764
-0.000455857
0.00278846
-0.000416605
0.00283829
-0.000286174
0.00284829
-0.00010119
0.00281948
9.1777e-05
0.00276107
0.000251309
0.00268657
0.000351243
0.00260992
0.000382139
0.00254379
0.000345822
0.00249975
0.000249031
0.00248771
0.00010266
0.00251281
-7.23536e-05
0.00257151
-0.000240827
0.00265102
-0.000360908
0.00273297
-0.000400353
0.00279904
-0.000349735
0.00283571
-0.000225089
0.00283704
-6.0487e-05
0.00280515
0.000104459
0.00274876
0.00023656
0.00267997
0.000316213
0.00261132
0.000336907
0.00255445
0.000299617
0.0025199
0.000208583
0.00251596
7.33185e-05
0.0025457
-8.52785e-05
0.00260408
-0.000233401
0.00267834
-0.000333603
0.00275173
-0.00035947
0.00280849
-0.000305714
0.00283755
-0.000188834
0.00283454
-3.98652e-05
0.00280198
0.000106349
0.00274788
0.000221149
0.00268324
0.000288063
0.00261963
0.00030213
0.00256798
0.000264599
0.00253821
0.000179021
0.0025379
5.3404e-05
0.00256954
-9.38166e-05
0.00262814
-0.000232292
0.00270178
-0.000328043
0.00277505
-0.000356459
0.00283339
-0.000311271
0.00286634
-0.000205482
0.00286915
-6.57311e-05
0.0028431
7.62987e-05
0.00279465
0.000192437
0.00273355
0.000264544
0.00267065
0.000286214
0.00261641
0.000259144
0.00258043
0.000187831
0.00257084
7.81564e-05
0.00259224
-5.83541e-05
0.00264306
-0.000200006
0.0027147
-0.000317834
0.00279399
-0.000385683
0.00286713
-0.000390106
0.00292325
-0.000334027
0.00295608
-0.000233856
0.0029642
-0.000113233
0.0029504
3.52112e-06
0.00292057
9.66581e-05
0.00288229
0.000154226
0.00284334
0.000173409
0.00281048
0.00015853
0.00278868
0.000119245
0.00278096
6.51821e-05
0.00278758
9.99499e-06
0.00280671
-4.10816e-05
0.00283149
-6.63265e-05
0.00286046
-8.85162e-05
-3.99053e-05
0.00250239
-1.82714e-05
0.00250968
-5.52823e-05
0.00252238
-9.38916e-05
0.0025412
-0.000134037
0.00256703
-0.000175149
0.00260074
-0.000215255
0.00264273
-0.000250497
0.00269157
-0.000272434
0.00274346
-0.000271175
0.00278916
-0.000232759
0.0028168
-0.000151156
0.00282318
-5.59595e-05
0.00280829
3.52453e-05
0.00277819
9.81293e-05
0.00274642
0.000107665
0.00272734
6.23158e-05
0.00273113
-1.95183e-05
0.00275991
-0.000104273
0.00280365
-0.000147426
0.00284143
-0.000112889
0.00285254
-1.74843e-06
0.00282816
0.000146093
0.00277311
0.000281325
0.0026992
0.000372248
0.00261858
0.000408308
0.00254118
0.000390262
0.0024755
0.000320825
0.00243091
0.000200101
0.00241983
2.72743e-05
0.00245536
-0.000187444
0.00254258
-0.000402984
0.00266791
-0.000545256
0.00279574
-0.00054171
0.00288247
-0.000376061
0.00290224
-0.000110285
0.00285893
0.000157667
0.00277557
0.000354775
0.00267681
0.000458731
0.00257927
0.000482142
0.0024913
0.000445051
0.00241675
0.000359291
0.00236006
0.000225126
0.00233274
3.48188e-05
0.00235376
-0.000209854
0.00243497
-0.000466861
0.00256473
-0.000650039
0.00270904
-0.000674378
0.00282686
-0.000511892
0.00288577
-0.000212146
0.00287297
0.000122111
0.00279991
0.00038732
0.00269444
0.000529094
0.00258422
0.000553688
0.00248548
0.000498789
0.00240546
0.000393572
0.0023534
0.000238515
0.00234508
2.07417e-05
0.00239297
-0.000246468
0.00249259
-0.000501577
0.0026206
-0.000659516
0.00274453
-0.000659324
0.00283454
-0.000495235
0.00287189
-0.000216916
0.00285273
9.39713e-05
0.00278688
0.000355532
0.00269266
0.000514405
0.00258999
0.000559122
0.00249557
0.000509418
0.00242321
0.000388976
0.00238676
0.000207298
0.00239819
-2.86552e-05
0.00245988
-0.000287052
0.00255964
-0.000505645
0.00267397
-0.00061843
0.00277621
-0.000588492
0.002844
-0.000423637
0.00286446
-0.000171105
0.00283674
0.000101803
0.00277096
0.000330956
0.00268343
0.000474415
0.00259115
0.000518948
0.00250929
0.00047203
0.00245186
0.000347118
0.00243171
0.000157068
0.00245659
-7.63397e-05
0.0025235
-0.000309972
0.00261761
-0.000485909
0.00271696
-0.000555213
0.00279943
-0.000499077
0.00284812
-0.000334856
0.00285458
-0.000107652
0.00282014
0.000126213
0.00275474
0.000316711
0.0026731
0.000432879
0.00259059
0.000464656
0.00252124
0.000415172
0.00247781
0.000292457
0.00247064
0.000109827
0.00250376
-0.000105467
0.00257112
-0.000308188
0.00265737
-0.000447155
0.00274279
-0.000485777
0.00280908
-0.000416026
0.00284338
-0.000259391
0.00284035
-5.74555e-05
0.00280262
0.000142188
0.00273956
0.000299618
0.0026643
0.000391477
0.00259066
0.000410544
0.00253167
0.000358612
0.00249893
0.000241319
0.00250084
7.14079e-05
0.00253899
-0.000123426
0.00260576
-0.00030017
0.00268603
-0.00041387
0.00276199
-0.000435431
0.00281805
-0.000361777
0.00284395
-0.000214735
0.00283608
-3.19889e-05
0.00279751
0.000144914
0.00273689
0.000281768
0.00266604
0.000358909
0.00259767
0.000370505
0.00254404
0.000318233
0.00251613
0.00020693
0.00252158
4.79485e-05
0.0025614
-0.000133632
0.00262803
-0.000298927
0.00270728
-0.000407292
0.00278275
-0.000431931
0.00284018
-0.000368695
0.00286998
-0.00023528
0.00286824
-6.39918e-05
0.00283678
0.000107758
0.00278246
0.000246756
0.00271552
0.000331481
0.00264757
0.000354166
0.00259018
0.000316531
0.00255423
0.000223782
0.00254852
8.38656e-05
0.00257686
-8.66879e-05
0.00263523
-0.000258377
0.00271223
-0.000394833
0.0027929
-0.000466358
0.00286341
-0.000460619
0.00291404
-0.00038465
0.00294005
-0.000259874
0.00294136
-0.000114541
0.0029216
2.32844e-05
0.00288714
0.000131112
0.00284586
0.000195509
0.00280575
0.000213524
0.00277385
0.000190426
0.00275558
0.000137513
0.00275405
6.67149e-05
0.00276906
-5.02022e-06
0.00279704
-6.90572e-05
0.00282948
-9.87708e-05
0.00286279
-0.000121823
-5.14109e-05
0.00250221
-2.04864e-05
0.00250901
-6.20821e-05
0.00252104
-0.000105919
0.00253927
-0.000152264
0.00256501
-0.000200892
0.00259983
-0.000250069
0.002645
-0.000295667
0.00269978
-0.000327214
0.00276052
-0.000331917
0.00281496
-0.000287202
0.00284693
-0.000183126
0.00285264
-6.16672e-05
0.00283128
5.66097e-05
0.00278995
0.000139458
0.00274636
0.000151256
0.00271946
8.92136e-05
0.00272319
-2.32523e-05
0.00276144
-0.000142518
0.00282148
-0.000207468
0.00287498
-0.000166385
0.00289375
-2.05185e-05
0.00286666
0.000173179
0.00280145
0.000346533
0.00271431
0.000459391
0.00262027
0.000502347
0.00253018
0.000480354
0.00245256
0.000398444
0.00239737
0.00025529
0.00237747
4.7175e-05
0.00240617
-0.000216147
0.00249329
-0.000490097
0.00263506
-0.000687034
0.00279788
-0.000704526
0.00292228
-0.000500458
0.00296116
-0.000149172
0.00291245
0.000206378
0.00280959
0.000457644
0.00268996
0.000578356
0.00257599
0.000596115
0.0024748
0.000546239
0.00238611
0.000447978
0.00231375
0.000297485
0.0022764
7.2166e-05
0.00230142
-0.000234873
0.00239939
-0.000564826
0.00254919
-0.000799839
0.00270914
-0.000834326
0.0028366
-0.000639353
0.00290094
-0.000276493
0.00289011
0.000132941
0.002814
0.000463435
0.00269986
0.00064323
0.00257746
0.000676093
0.00246599
0.000610259
0.00237585
0.000483708
0.00232012
0.00029425
0.00231683
2.40252e-05
0.00237594
-0.000305579
0.00248736
-0.000612995
0.00262397
-0.000796129
0.00275293
-0.000788281
0.00284519
-0.000587498
0.00288201
-0.00025373
0.00285916
0.000116818
0.00278709
0.000427599
0.00268537
0.00061613
0.00257493
0.000669556
0.00247366
0.000610693
0.00239747
0.000465159
0.00236235
0.000242423
0.00238012
-4.64269e-05
0.00245022
-0.00035715
0.00255692
-0.000612344
0.00267507
-0.000736587
0.00277841
-0.000691831
0.00284563
-0.00049085
0.0028642
-0.000189682
0.00283292
0.000133083
0.00276185
0.000402029
0.0026681
0.000568165
0.00257004
0.000617006
0.00248442
0.000557655
0.00242678
0.000404758
0.00241067
0.00017318
0.00244258
-0.000108256
0.00251673
-0.000384125
0.00261574
-0.000584917
0.00271681
-0.000656278
0.00279842
-0.000580692
0.00284476
-0.000381193
0.002848
-0.000110891
0.00280948
0.000164729
0.00273916
0.000387031
0.00265233
0.000519708
0.00256553
0.000551459
0.00249432
0.00048638
0.00245274
0.000334045
0.00245115
0.00011141
0.00249183
-0.000146149
0.00256599
-0.000382345
0.00265619
-0.000537358
0.00274227
-0.000571855
0.0028067
-0.000480455
0.00283772
-0.00029041
0.00283069
-5.04198e-05
0.00278847
0.000184402
0.00272062
0.000367473
0.00264077
0.000471323
0.00256382
0.000487494
0.00250417
0.000418266
0.00247444
0.000271044
0.00248271
6.31403e-05
0.00252856
-0.000169275
0.00260169
-0.000373299
0.00268518
-0.000497362
0.002761
-0.000511256
0.00281446
-0.000415229
0.00283639
-0.00023667
0.00282396
-1.95621e-05
0.00278061
0.000188269
0.00271519
0.00034719
0.00263998
0.000434115
0.00256861
0.000441878
0.0025146
0.000372244
0.00248984
0.000231685
0.00250158
3.62144e-05
0.00254877
-0.000180822
0.00262126
-0.000371417
0.00270316
-0.000489201
0.00277798
-0.00050675
0.00283241
-0.000423117
0.00285805
-0.000260921
0.00285183
-5.77762e-05
0.00281594
0.000143651
0.00275732
0.000305372
0.00268638
0.000402426
0.00261524
0.000425302
0.00255655
0.000375223
0.00252235
0.000257985
0.00252169
8.45232e-05
0.00255682
-0.000121818