/*--------------------------------*- C++ -*----------------------------------*\
  =========                 |
  \\      /  F ield         | OpenFOAM: The Open Source CFD Toolbox
   \\    /   O peration     | Website:  https://openfoam.org
    \\  /    A nd           | Version:  11
     \\/     M anipulation  |
\*---------------------------------------------------------------------------*/
FoamFile
{
    format      ascii;
    class       volVectorField;
    location    "5.859337";
    object      U;
}
// * * * * * * * * * * * * * * * * * * * * * * * * * * * * * * * * * * * * * //

dimensions      [0 1 -1 0 0 0 0];

internalField   nonuniform List<vector> 
7132
(
(1.00014 -0.000288753 2.12172e-18)
(1.00224 -0.000871279 7.58659e-18)
(1.00698 -0.00148955 7.65247e-18)
(1.0142 -0.0021554 8.69121e-18)
(1.02419 -0.0028721 1.10614e-17)
(1.03716 -0.00361974 1.15241e-17)
(1.05316 -0.00435915 1.10685e-17)
(1.07206 -0.00501309 1.03465e-17)
(1.09334 -0.00549883 9.72398e-18)
(1.11616 -0.00572894 9.35746e-18)
(1.13929 -0.00565489 9.02842e-18)
(1.16155 -0.00534407 8.91019e-18)
(1.18214 -0.0048591 7.66881e-18)
(1.2005 -0.00426353 8.03965e-18)
(1.2163 -0.00361377 -1.39503e-18)
(1.22943 -0.00294536 -1.24942e-17)
(1.23988 -0.00227758 -1.94291e-17)
(1.24766 -0.0016154 -1.17368e-17)
(1.25281 -0.000954387 -1.57385e-17)
(1.25531 -0.000287053 -2.85857e-17)
(1.25512 0.000390217 -3.19202e-17)
(1.25219 0.00107127 -3.69576e-17)
(1.24653 0.001737 -4.52268e-17)
(1.23826 0.00235698 -5.9691e-17)
(1.22762 0.00289547 -5.94453e-17)
(1.21501 0.00331989 -7.07931e-17)
(1.20096 0.00360876 -8.50084e-17)
(1.18604 0.00375633 -9.80446e-17)
(1.17081 0.00377262 -1.09591e-16)
(1.15577 0.00367967 -1.09948e-16)
(1.1413 0.00350579 -1.06397e-16)
(1.12766 0.00327988 -9.9732e-17)
(1.11502 0.00302712 -9.82891e-17)
(1.10342 0.00276667 -8.703e-17)
(1.09287 0.00251116 -7.16215e-17)
(1.08333 0.00226751 -5.26047e-17)
(1.07473 0.00203851 -2.9221e-17)
(1.06702 0.00182441 -6.16155e-18)
(1.06014 0.00162434 2.33546e-17)
(1.05403 0.00143736 5.49961e-17)
(1.04865 0.00126293 8.97618e-17)
(1.04393 0.00110116 1.27436e-16)
(1.03984 0.000952679 1.66363e-16)
(1.03631 0.000818442 2.09328e-16)
(1.0333 0.000699408 2.53452e-16)
(1.03072 0.000596282 2.98753e-16)
(1.02853 0.000509298 3.43566e-16)
(1.02665 0.000438103 3.86617e-16)
(1.02503 0.000381731 4.29124e-16)
(1.0236 0.000338666 4.67665e-16)
(1.02232 0.000306975 5.00127e-16)
(1.02115 0.000284478 5.27043e-16)
(1.02005 0.000268933 5.48921e-16)
(1.019 0.000258208 5.63422e-16)
(1.01798 0.000250425 5.70508e-16)
(1.01699 0.000244054 5.69544e-16)
(1.01603 0.000237959 5.61043e-16)
(1.01509 0.000231407 5.46259e-16)
(1.01418 0.000224028 5.23553e-16)
(1.0133 0.000215757 4.92979e-16)
(1.01245 0.000206754 4.53412e-16)
(1.01164 0.000197326 4.0498e-16)
(1.01087 0.000187849 3.47611e-16)
(1.01014 0.000178704 2.7953e-16)
(1.00944 0.000170227 2.03228e-16)
(1.00877 0.000162673 1.18464e-16)
(1.00814 0.0001562 2.60213e-17)
(1.00752 0.00015086 -7.19784e-17)
(1.00693 0.00014661 -1.75535e-16)
(1.00635 0.000143329 -2.81598e-16)
(1.00578 0.000140841 -3.90679e-16)
(1.00522 0.00013894 -5.02697e-16)
(1.00467 0.000137417 -6.16769e-16)
(1.00412 0.000136084 -7.3363e-16)
(1.00358 0.000134782 -8.50414e-16)
(1.00304 0.000133399 -9.67267e-16)
(1.00251 0.000131864 -1.0833e-15)
(1.00198 0.000130146 -1.19721e-15)
(1.00147 0.000128243 -1.30991e-15)
(1.00096 0.000126174 -1.41941e-15)
(1.00045 0.000123968 -1.52705e-15)
(0.999962 0.000121655 -1.63233e-15)
(0.999479 0.000119259 -1.73293e-15)
(0.999006 0.000116795 -1.82641e-15)
(0.998543 0.000114261 -1.90512e-15)
(0.998089 0.000111635 -1.96314e-15)
(0.997647 0.000108873 -1.99211e-15)
(0.997216 0.000105907 -1.98335e-15)
(0.996797 0.000102662 -1.93136e-15)
(0.996391 9.90623e-05 -1.8315e-15)
(0.996001 9.50448e-05 -1.68913e-15)
(0.995627 9.05507e-05 -1.51739e-15)
(0.995272 8.54782e-05 -1.33897e-15)
(0.994939 7.95876e-05 -1.19017e-15)
(0.994631 7.23725e-05 -1.11146e-15)
(0.994354 6.29418e-05 -1.14769e-15)
(0.994121 4.99924e-05 -1.34113e-15)
(0.993947 3.19557e-05 -1.72532e-15)
(0.993856 7.37216e-06 -2.32719e-15)
(0.993877 -2.4535e-05 -3.15828e-15)
(0.994039 -6.3216e-05 -4.2157e-15)
(0.994366 -0.000106301 -5.47278e-15)
(0.99487 -0.0001495 -6.86642e-15)
(0.995542 -0.000187074 -8.29237e-15)
(0.996346 -0.000212879 -9.59993e-15)
(0.997225 -0.000221789 -1.06182e-14)
(0.998103 -0.000211106 -1.11979e-14)
(0.9989 -0.000181518 -1.12685e-14)
(0.999545 -0.000137249 -1.08986e-14)
(0.999991 -8.52761e-05 -1.03176e-14)
(1.00022 -3.38104e-05 -9.89883e-15)
(1.00026 9.53877e-06 -1.00763e-14)
(1.00015 3.93851e-05 -1.12134e-14)
(0.999943 5.35245e-05 -1.34635e-14)
(0.999716 5.30202e-05 -1.66519e-14)
(0.999517 4.14853e-05 -2.02507e-14)
(0.999382 2.3863e-05 -2.34629e-14)
(0.999325 5.10702e-06 -2.54151e-14)
(0.99934 -1.08743e-05 -2.54145e-14)
(0.999411 -2.17919e-05 -2.31668e-14)
(0.999515 -2.70307e-05 -1.88903e-14)
(0.999628 -2.73003e-05 -1.32733e-14)
(0.999734 -2.40782e-05 -7.28683e-15)
(0.999822 -1.9044e-05 -1.92484e-15)
(0.999888 -1.36503e-05 2.05217e-15)
(0.999932 -8.89113e-06 4.2815e-15)
(0.999959 -5.25919e-06 4.83212e-15)
(0.999974 -2.83469e-06 4.11747e-15)
(0.999981 -1.43449e-06 2.72118e-15)
(0.999985 -7.61892e-07 1.21409e-15)
(0.999987 -5.19915e-07 1.09881e-17)
(0.999989 -4.75884e-07 -6.93963e-16)
(0.999991 -4.82284e-07 -9.07516e-16)
(0.999993 -4.68033e-07 -7.70725e-16)
(0.999995 -4.15544e-07 -4.68952e-16)
(0.999996 -3.35783e-07 -1.6207e-16)
(0.999998 -2.4852e-07 5.29328e-17)
(0.999998 -1.70439e-07 1.49935e-16)
(0.999999 -1.10444e-07 1.50957e-16)
(0.999999 -6.99419e-08 1.00929e-16)
(0.999999 -4.55034e-08 4.16504e-17)
(1 -3.19013e-08 -2.60159e-18)
(1 -2.43231e-08 -2.32273e-17)
(1 -1.94424e-08 -2.51997e-17)
(1 -1.55151e-08 -1.67732e-17)
(1 -1.19563e-08 -5.82942e-18)
(1 -8.77193e-09 1.46809e-18)
(1 -6.12856e-09 4.49827e-18)
(1 -4.11516e-09 3.68464e-18)
(1 -2.69625e-09 1.82314e-18)
(1 -1.74532e-09 8.46512e-19)
(1 -1.11827e-09 3.56794e-20)
(1 -6.90259e-10 -7.73813e-20)
(1 -3.84461e-10 -4.80869e-19)
(1 -1.50816e-10 -4.69187e-19)
(1 2.07608e-11 3.20416e-19)
(1 1.62506e-10 5.02746e-19)
(1 2.37702e-10 5.81525e-19)
(1 3.45896e-10 1.2714e-19)
(1 3.32321e-10 -8.87222e-19)
(1.00014 -0.000863403 3.61172e-20)
(1.00222 -0.00260656 3.58998e-19)
(1.00692 -0.00445817 6.85723e-19)
(1.01409 -0.00645627 1.00976e-18)
(1.02405 -0.00861171 1.40208e-18)
(1.03701 -0.0108658 1.82014e-18)
(1.05307 -0.0131017 2.22596e-18)
(1.07211 -0.0150838 2.15013e-18)
(1.09361 -0.0165599 5.42997e-18)
(1.11672 -0.0172572 6.8952e-18)
(1.14014 -0.017025 4.18237e-18)
(1.16262 -0.0160778 4.33702e-18)
(1.18336 -0.0146075 -1.25059e-19)
(1.20181 -0.0128077 1.26748e-17)
(1.21766 -0.0108498 4.90789e-17)
(1.2308 -0.00884046 9.7274e-17)
(1.24125 -0.00683659 1.33135e-16)
(1.24904 -0.00485138 1.34757e-16)
(1.25419 -0.00286944 9.16562e-17)
(1.2567 -0.000866137 1.0643e-17)
(1.25651 0.00117085 -8.61081e-17)
(1.25358 0.00322329 -1.8143e-16)
(1.24789 0.00523261 -2.65087e-16)
(1.23955 0.00710524 -3.31282e-16)
(1.22881 0.00873136 -3.75963e-16)
(1.21607 0.0100112 -3.9894e-16)
(1.20187 0.0108794 -4.01278e-16)
(1.18681 0.011319 -3.84426e-16)
(1.17145 0.0113611 -3.49795e-16)
(1.1563 0.0110736 -2.99635e-16)
(1.14176 0.0105427 -2.25813e-16)
(1.12808 0.00985652 -1.52453e-16)
(1.11541 0.00909127 -6.88455e-17)
(1.10381 0.00830468 3.04003e-17)
(1.09326 0.00753459 1.32114e-16)
(1.08373 0.00680157 2.4584e-16)
(1.07514 0.00611357 3.5892e-16)
(1.06745 0.005471 4.69187e-16)
(1.06057 0.00487099 5.81122e-16)
(1.05447 0.00431039 6.88878e-16)
(1.0491 0.00378746 7.98052e-16)
(1.04439 0.00330242 9.00821e-16)
(1.04031 0.00285714 9.97429e-16)
(1.03679 0.00245446 1.08944e-15)
(1.03378 0.00209729 1.17271e-15)
(1.03122 0.00178778 1.2482e-15)
(1.02904 0.00152668 1.30856e-15)
(1.02717 0.00131298 1.35309e-15)
(1.02556 0.0011438 1.38036e-15)
(1.02414 0.00101463 1.38558e-15)
(1.02287 0.00091967 1.36943e-15)
(1.0217 0.000852369 1.33054e-15)
(1.02061 0.000805986 1.26803e-15)
(1.01956 0.000774104 1.18401e-15)
(1.01854 0.000751058 1.07823e-15)
(1.01756 0.000732229 9.54604e-16)
(1.01659 0.000714194 8.13907e-16)
(1.01565 0.000694736 6.56893e-16)
(1.01473 0.000672742 4.85135e-16)
(1.01385 0.000648012 2.96968e-16)
(1.013 0.000621037 9.41727e-17)
(1.01219 0.000592743 -1.24716e-16)
(1.01141 0.000564273 -3.59638e-16)
(1.01068 0.000536782 -6.0954e-16)
(1.00998 0.000511288 -8.71029e-16)
(1.00931 0.00048857 -1.13901e-15)
(1.00867 0.000469104 -1.41378e-15)
(1.00806 0.000453055 -1.6884e-15)
(1.00746 0.000440297 -1.96094e-15)
(1.00688 0.000430466 -2.2288e-15)
(1.00631 0.00042303 -2.48961e-15)
(1.00575 0.000417368 -2.74704e-15)
(1.00519 0.000412852 -2.9972e-15)
(1.00464 0.000408904 -3.23976e-15)
(1.0041 0.000405054 -3.47169e-15)
(1.00356 0.000400956 -3.68974e-15)
(1.00302 0.0003964 -3.89644e-15)
(1.0025 0.00039129 -4.08818e-15)
(1.00198 0.000385624 -4.26686e-15)
(1.00146 0.00037946 -4.43241e-15)
(1.00096 0.000372885 -4.58401e-15)
(1.00046 0.000365991 -4.72292e-15)
(0.999973 0.000358855 -4.83934e-15)
(0.999496 0.000351521 -4.92353e-15)
(0.999028 0.000343987 -4.95915e-15)
(0.99857 0.00033619 -4.92756e-15)
(0.998123 0.000327996 -4.81399e-15)
(0.997686 0.000319212 -4.59866e-15)
(0.997261 0.000309605 -4.27233e-15)
(0.996849 0.000298946 -3.83362e-15)
(0.996452 0.000287044 -3.29775e-15)
(0.99607 0.000273719 -2.70364e-15)
(0.995707 0.00025867 -2.10648e-15)
(0.995365 0.000241197 -1.58538e-15)
(0.995048 0.000219821 -1.22975e-15)
(0.994761 0.000191929 -1.12948e-15)
(0.994516 0.000153676 -1.36524e-15)
(0.994328 0.000100407 -1.99788e-15)
(0.994221 2.77512e-05 -3.0739e-15)
(0.994221 -6.66881e-05 -4.61742e-15)
(0.994358 -0.000181405 -6.61761e-15)
(0.994656 -0.000309497 -9.00673e-15)
(0.995127 -0.000438325 -1.16275e-14)
(0.995761 -0.000550864 -1.42218e-14)
(0.996528 -0.000628781 -1.64421e-14)
(0.997369 -0.000656663 -1.79236e-14)
(0.998212 -0.00062625 -1.8406e-14)
(0.998978 -0.000539344 -1.78715e-14)
(0.999598 -0.000408313 -1.66612e-14)
(1.00002 -0.000253835 -1.54896e-14)
(1.00024 -0.000100394 -1.53389e-14)
(1.00027 2.92009e-05 -1.72225e-14)
(1.00015 0.000118687 -2.18604e-14)
(0.99994 0.000161271 -2.93766e-14)
(0.99971 0.000159952 -3.90838e-14)
(0.999509 0.000125423 -4.94679e-14)
(0.999373 7.24472e-05 -5.84351e-14)
(0.999316 1.59019e-05 -6.38012e-14)
(0.999333 -3.2412e-05 -6.39153e-14)
(0.999406 -6.55283e-05 -5.81862e-14)
(0.999511 -8.15167e-05 -4.73114e-14)
(0.999627 -8.246e-05 -3.31283e-14)
(0.999735 -7.2789e-05 -1.81218e-14)
(0.999824 -5.7578e-05 -4.77099e-15)
(0.99989 -4.12371e-05 5.06687e-15)
(0.999935 -2.67993e-05 1.05431e-14)
(0.999961 -1.57789e-05 1.18735e-14)
(0.999976 -8.43196e-06 1.01037e-14)
(0.999982 -4.20664e-06 6.67814e-15)
(0.999986 -2.19885e-06 2.99054e-15)
(0.999988 -1.50024e-06 4.83866e-17)
(0.999989 -1.39789e-06 -1.67819e-15)
(0.999991 -1.44008e-06 -2.20731e-15)
(0.999993 -1.41034e-06 -1.88042e-15)
(0.999995 -1.25702e-06 -1.14999e-15)
(0.999996 -1.01623e-06 -4.04693e-16)
(0.999998 -7.50679e-07 1.20145e-16)
(0.999998 -5.12821e-07 3.59636e-16)
(0.999999 -3.30527e-07 3.67087e-16)
(0.999999 -2.08142e-07 2.48026e-16)
(0.999999 -1.34953e-07 1.0362e-16)
(1 -9.47154e-08 -5.303e-18)
(1 -7.25698e-08 -5.68564e-17)
(1 -5.8323e-08 -6.11273e-17)
(1 -4.67152e-08 -4.06183e-17)
(1 -3.60542e-08 -1.48316e-17)
(1 -2.64477e-08 2.38207e-18)
(1 -1.84563e-08 9.59365e-18)
(1 -1.23796e-08 9.15602e-18)
(1 -8.11117e-09 5.14916e-18)
(1 -5.26477e-09 1.98557e-18)
(1 -3.39372e-09 -7.32404e-19)
(1 -2.11943e-09 -1.41684e-18)
(1 -1.20576e-09 -1.02366e-18)
(1 -5.06634e-10 -5.30614e-19)
(1 1.05435e-11 6.26423e-19)
(1 4.35445e-10 3.64116e-19)
(1 6.66464e-10 2.4317e-19)
(1 9.83165e-10 2.96803e-19)
(1 9.59483e-10 -5.94204e-19)
(1.00014 -0.00143011 7.81142e-22)
(1.00217 -0.00431935 5.31486e-21)
(1.0068 -0.00739501 1.21306e-21)
(1.01388 -0.0107263 1.95122e-21)
(1.02376 -0.0143361 -1.67314e-19)
(1.03671 -0.0181308 2.37897e-19)
(1.05287 -0.0219173 -8.2636e-19)
(1.07218 -0.0252905 -1.48475e-18)
(1.09414 -0.0278167 6.53013e-18)
(1.11785 -0.0290031 -1.14486e-18)
(1.14184 -0.0285815 -3.87392e-17)
(1.16476 -0.026952 -3.05575e-17)
(1.18581 -0.0244482 1.11023e-16)
(1.20444 -0.0214031 3.53421e-16)
(1.22037 -0.0181079 5.32574e-16)
(1.23354 -0.0147401 4.67097e-16)
(1.24399 -0.011393 7.79559e-17)
(1.25178 -0.00808512 -5.66419e-16)
(1.25694 -0.00478614 -1.29537e-15)
(1.25947 -0.00144979 -1.88332e-15)
(1.2593 0.00194913 -2.23542e-15)
(1.25636 0.00538301 -2.37021e-15)
(1.2506 0.00875372 -2.31375e-15)
(1.24212 0.0119013 -2.10307e-15)
(1.23117 0.0146366 -1.77886e-15)
(1.21816 0.0167871 -1.37837e-15)
(1.20366 0.0182401 -9.31342e-16)
(1.1883 0.0189667 -4.5905e-16)
(1.17268 0.0190214 2.45051e-17)
(1.15733 0.0185211 5.09435e-16)
(1.14263 0.0176145 9.89309e-16)
(1.12886 0.0164513 1.45537e-15)
(1.11614 0.0151608 1.89957e-15)
(1.10452 0.0138397 2.3155e-15)
(1.09398 0.0125506 2.69663e-15)
(1.08446 0.0113266 3.03979e-15)
(1.0759 0.0101797 3.34285e-15)
(1.06822 0.00910946 3.60507e-15)
(1.06136 0.00811025 3.82741e-15)
(1.05528 0.00717637 4.01049e-15)
(1.04992 0.00630476 4.15502e-15)
(1.04523 0.00549579 4.25963e-15)
(1.04117 0.0047528 4.32136e-15)
(1.03768 0.00408075 4.33627e-15)
(1.0347 0.00348473 4.2992e-15)
(1.03216 0.00296851 4.20488e-15)
(1.03001 0.00253347 4.04754e-15)
(1.02817 0.00217795 3.82227e-15)
(1.02658 0.00189712 3.52629e-15)
(1.02519 0.00168335 3.15921e-15)
(1.02393 0.00152684 2.72482e-15)
(1.02278 0.00141651 2.22906e-15)
(1.02169 0.00134098 1.67847e-15)
(1.02065 0.00128942 1.08396e-15)
(1.01963 0.00125232 4.54037e-16)
(1.01864 0.00122192 -2.02726e-16)
(1.01767 0.00119251 -8.80791e-16)
(1.01672 0.00116042 -1.5779e-15)
(1.0158 0.00112384 -2.29114e-15)
(1.01491 0.0010825 -3.02132e-15)
(1.01406 0.00103729 -3.7682e-15)
(1.01324 0.000989814 -4.53139e-15)
(1.01246 0.000942036 -5.30709e-15)
(1.01173 0.000895926 -6.08685e-15)
(1.01103 0.000853216 -6.86143e-15)
(1.01036 0.000815219 -7.61647e-15)
(1.00972 0.000782738 -8.34232e-15)
(1.0091 0.000756043 -9.03097e-15)
(1.0085 0.000734911 -9.67734e-15)
(1.00792 0.000718715 -1.02818e-14)
(1.00735 0.000706546 -1.08432e-14)
(1.00678 0.000697351 -1.13638e-14)
(1.00622 0.000690059 -1.18425e-14)
(1.00567 0.000683696 -1.22753e-14)
(1.00512 0.000677468 -1.26584e-14)
(1.00457 0.000670799 -1.29854e-14)
(1.00403 0.00066334 -1.32571e-14)
(1.0035 0.000654941 -1.3477e-14)
(1.00297 0.000645607 -1.36506e-14)
(1.00245 0.000635443 -1.3784e-14)
(1.00194 0.000624603 -1.38744e-14)
(1.00143 0.000613247 -1.39123e-14)
(1.00094 0.000601509 -1.38739e-14)
(1.00045 0.000589469 -1.37227e-14)
(0.999975 0.000577128 -1.34145e-14)
(0.999508 0.000564385 -1.28982e-14)
(0.999051 0.000551026 -1.2129e-14)
(0.998604 0.000536729 -1.107e-14)
(0.998167 0.000521106 -9.70316e-15)
(0.997743 0.000503767 -8.04068e-15)
(0.997332 0.000484377 -6.13259e-15)
(0.996937 0.000462623 -4.07991e-15)
(0.996559 0.000438004 -2.03394e-15)
(0.9962 0.000409388 -1.86835e-16)
(0.995865 0.000374391 1.25125e-15)
(0.99556 0.000328792 2.08228e-15)
(0.995293 0.000266356 2.14527e-15)
(0.995082 0.000179487 1.32493e-15)
(0.994945 6.09857e-05 -4.57225e-16)
(0.99491 -9.31867e-05 -3.2433e-15)
(0.995004 -0.000280749 -6.99115e-15)
(0.995251 -0.000490595 -1.15006e-14)
(0.995662 -0.000702173 -1.63376e-14)
(0.99623 -0.000887619 -2.08051e-14)
(0.996924 -0.00101677 -2.4027e-14)
(0.997692 -0.00106413 -2.51881e-14)
(0.998464 -0.00101582 -2.38966e-14)
(0.999164 -0.000874523 -2.05565e-14)
(0.999726 -0.000660359 -1.65921e-14)
(1.0001 -0.000407259 -1.43801e-14)
(1.00028 -0.00015557 -1.68251e-14)
(1.00028 5.6987e-05 -2.66198e-14)
(1.00014 0.000203408 -4.53478e-14)
(0.999923 0.000272311 -7.2716e-14)
(0.999686 0.000268541 -1.06096e-13)
(0.999484 0.000209756 -1.40585e-13)
(0.99935 0.000120453 -1.6979e-13)
(0.999296 2.53942e-05 -1.8728e-13)
(0.999319 -5.57196e-05 -1.88373e-13)
(0.999398 -0.000111223 -1.71631e-13)
(0.999509 -0.000137868 -1.39446e-13)
(0.99963 -0.00013915 -9.75017e-14)
(0.999741 -0.000122537 -5.32755e-14)
(0.999832 -9.66066e-05 -1.40904e-14)
(0.999898 -6.88331e-05 1.46624e-14)
(0.999942 -4.43647e-05 3.05931e-14)
(0.999967 -2.57695e-05 3.4429e-14)
(0.999979 -1.34681e-05 2.92705e-14)
(0.999985 -6.49709e-06 1.93381e-14)
(0.999987 -3.28999e-06 8.67092e-15)
(0.999988 -2.27707e-06 1.68361e-16)
(0.999989 -2.23139e-06 -4.81833e-15)
(0.999991 -2.38274e-06 -6.35281e-15)
(0.999993 -2.37116e-06 -5.42014e-15)
(0.999995 -2.12228e-06 -3.32202e-15)
(0.999997 -1.71114e-06 -1.1794e-15)
(0.999998 -1.25465e-06 3.3544e-16)
(0.999999 -8.47664e-07 1.02965e-15)
(0.999999 -5.39091e-07 1.05552e-15)
(0.999999 -3.35329e-07 7.16095e-16)
(1 -2.16297e-07 2.99455e-16)
(1 -1.52779e-07 -1.3249e-17)
(1 -1.18685e-07 -1.62551e-16)
(1 -9.65891e-08 -1.75918e-16)
(1 -7.78963e-08 -1.17055e-16)
(1 -6.01921e-08 -4.48553e-17)
(1 -4.40375e-08 6.20118e-18)
(1 -3.05933e-08 2.74132e-17)
(1 -2.04399e-08 2.62717e-17)
(1 -1.33816e-08 1.52003e-17)
(1 -8.72871e-09 4.16542e-18)
(1 -5.69341e-09 -2.35644e-18)
(1 -3.62823e-09 -4.1393e-18)
(1 -2.13576e-09 -3.07093e-18)
(1 -9.84717e-10 -1.2534e-18)
(1 -1.24329e-10 1.72285e-19)
(1 5.78036e-10 7.5617e-19)
(1 9.72077e-10 7.15021e-19)
(1 1.47429e-09 4.73014e-19)
(1 1.47331e-09 8.01737e-20)
(1.00014 -0.00198336 -2.75634e-20)
(1.00211 -0.00599297 -4.75181e-19)
(1.00661 -0.0102765 -8.36888e-19)
(1.01353 -0.0149413 -1.6498e-18)
(1.02329 -0.0200307 -1.78611e-18)
(1.03619 -0.0254229 -1.69725e-18)
(1.05251 -0.0308522 -1.1307e-17)
(1.07222 -0.0357257 1.84785e-17)
(1.09488 -0.0394078 3.67932e-18)
(1.11953 -0.0411207 -1.43407e-16)
(1.14441 -0.040452 -2.54987e-17)
(1.16799 -0.0380593 6.92193e-16)
(1.18949 -0.0344396 1.36597e-15)
(1.20838 -0.0300803 7.95286e-16)
(1.22443 -0.0254018 -1.72948e-15)
(1.23764 -0.0206516 -5.82945e-15)
(1.24808 -0.0159548 -1.02807e-14)
(1.25586 -0.011328 -1.3665e-14)
(1.26104 -0.00671712 -1.49727e-14)
(1.2636 -0.00204537 -1.37827e-14)
(1.26346 0.0027322 -1.09095e-14)
(1.2605 0.00758078 -7.31841e-15)
(1.25465 0.0123588 -3.54261e-15)
(1.24596 0.0168312 7.45097e-17)
(1.23469 0.0207186 3.33079e-15)
(1.22127 0.0237666 6.13961e-15)
(1.20632 0.0258101 8.49873e-15)
(1.19051 0.026809 1.04514e-14)
(1.17449 0.0268461 1.20549e-14)
(1.15882 0.0260951 1.33587e-14)
(1.1439 0.0247737 1.44074e-14)
(1.12999 0.0230994 1.52006e-14)
(1.11721 0.021257 1.57626e-14)
(1.10557 0.0193832 1.61111e-14)
(1.09503 0.0175641 1.62495e-14)
(1.08554 0.0158437 1.62073e-14)
(1.077 0.014236 1.59942e-14)
(1.06934 0.0127378 1.56311e-14)
(1.06251 0.0113396 1.51388e-14)
(1.05645 0.0100322 1.45219e-14)
(1.05112 0.00881112 1.37861e-14)
(1.04646 0.00767688 1.29181e-14)
(1.04243 0.00663454 1.1907e-14)
(1.03897 0.00569153 1.07412e-14)
(1.03603 0.00485545 9.4055e-15)
(1.03354 0.00413194 7.89491e-15)
(1.03143 0.00352315 6.20275e-15)
(1.02963 0.00302678 4.3378e-15)
(1.02808 0.00263601 2.31853e-15)
(1.02672 0.00233991 1.69899e-16)
(1.02549 0.00212446 -2.07017e-15)
(1.02436 0.00197384 -4.36276e-15)
(1.02328 0.0018718 -6.67062e-15)
(1.02224 0.00180293 -8.95957e-15)
(1.02123 0.00175372 -1.12069e-14)
(1.02024 0.0017132 -1.33957e-14)
(1.01926 0.00167337 -1.55219e-14)
(1.0183 0.00162915 -1.75895e-14)
(1.01737 0.00157809 -1.96054e-14)
(1.01648 0.00151997 -2.15796e-14)
(1.01561 0.00145615 -2.3513e-14)
(1.01479 0.00138905 -2.54003e-14)
(1.01401 0.00132151 -2.72231e-14)
(1.01327 0.0012564 -2.89532e-14)
(1.01257 0.0011962 -3.05567e-14)
(1.0119 0.00114279 -3.20011e-14)
(1.01125 0.0010973 -3.32697e-14)
(1.01064 0.0010601 -3.43522e-14)
(1.01004 0.00103085 -3.52561e-14)
(1.00945 0.00100862 -3.5996e-14)
(1.00887 0.000992089 -3.65876e-14)
(1.0083 0.000979742 -3.70461e-14)
(1.00774 0.000970036 -3.73687e-14)
(1.00717 0.000961582 -3.75478e-14)
(1.00662 0.000953252 -3.75713e-14)
(1.00606 0.000944239 -3.74326e-14)
(1.00551 0.000934063 -3.7143e-14)
(1.00497 0.000922534 -3.67197e-14)
(1.00443 0.000909679 -3.61896e-14)
(1.0039 0.000895665 -3.55697e-14)
(1.00338 0.000880724 -3.48537e-14)
(1.00286 0.000865097 -3.4006e-14)
(1.00236 0.000848981 -3.29476e-14)
(1.00186 0.000832497 -3.15735e-14)
(1.00137 0.000815657 -2.97604e-14)
(1.00089 0.000798332 -2.73854e-14)
(1.00042 0.000780231 -2.43471e-14)
(0.999959 0.000760909 -2.05691e-14)
(0.999507 0.000739817 -1.60279e-14)
(0.999065 0.000716395 -1.07643e-14)
(0.998635 0.000690143 -4.90685e-15)
(0.998219 0.000660593 1.3098e-15)
(0.997818 0.000627036 7.5555e-15)
(0.997436 0.000587936 1.3423e-14)
(0.997075 0.000540093 1.84914e-14)
(0.996742 0.00047784 2.23962e-14)
(0.996446 0.000392769 2.48813e-14)
(0.996199 0.000274581 2.58076e-14)
(0.996022 0.000113425 2.51e-14)
(0.995938 -9.63514e-05 2.27253e-14)
(0.995972 -0.000351873 1.88219e-14)
(0.996146 -0.000638253 1.39171e-14)
(0.996472 -0.000927633 9.0991e-15)
(0.996943 -0.00118201 6.02157e-15)
(0.997532 -0.00136003 6.5862e-15)
(0.998191 -0.0014265 1.22218e-14)
(0.998854 -0.00136212 2.2914e-14)
(0.999453 -0.00117023 3.63394e-14)
(0.999923 -0.000878233 4.75088e-14)
(1.00022 -0.0005327 4.92478e-14)
(1.00034 -0.000189185 3.35672e-14)
(1.0003 0.000100243 -6.25637e-15)
(1.00012 0.000298231 -7.33289e-14)
(0.999887 0.000389003 -1.65324e-13)
(0.999642 0.000379284 -2.73462e-13)
(0.999439 0.00029363 -3.82853e-13)
(0.99931 0.000166167 -4.74769e-13)
(0.999265 3.14532e-05 -5.30752e-13)
(0.999297 -8.29762e-05 -5.37653e-13)
(0.999387 -0.00016082 -4.91813e-13)
(0.999508 -0.000197603 -4.00621e-13)
(0.999636 -0.000198366 -2.80859e-13)
(0.999752 -0.000173791 -1.54308e-13)
(0.999845 -0.000136144 -4.21173e-14)
(0.999911 -9.61208e-05 4.02534e-14)
(0.999953 -6.10844e-05 8.60143e-14)
(0.999975 -3.46796e-05 9.72875e-14)
(0.999985 -1.74473e-05 8.29305e-14)
(0.999988 -7.92612e-06 5.49478e-14)
(0.999988 -3.78877e-06 2.48038e-14)
(0.999988 -2.72131e-06 7.242e-16)
(0.999989 -2.93119e-06 -1.34487e-14)
(0.999991 -3.31195e-06 -1.78698e-14)
(0.999993 -3.36877e-06 -1.53038e-14)
(0.999995 -3.02731e-06 -9.41801e-15)
(0.999997 -2.42644e-06 -3.3783e-15)
(0.999998 -1.75648e-06 9.06986e-16)
(0.999999 -1.16509e-06 2.88392e-15)
(0.999999 -7.24881e-07 2.97305e-15)
(0.999999 -4.42031e-07 2.02501e-15)
(1 -2.83141e-07 8.53037e-16)
(1 -2.02611e-07 -3.11908e-17)
(1 -1.61206e-07 -4.55618e-16)
(1 -1.33813e-07 -4.96047e-16)
(1 -1.08953e-07 -3.31495e-16)
(1 -8.42328e-08 -1.27561e-16)
(1 -6.12895e-08 1.62977e-17)
(1 -4.22305e-08 7.65363e-17)
(1 -2.80115e-08 7.36803e-17)
(1 -1.83003e-08 4.2572e-17)
(1 -1.2017e-08 1.20203e-17)
(1 -7.96838e-09 -6.94121e-18)
(1 -5.21203e-09 -1.21118e-17)
(1 -3.19355e-09 -9.11146e-18)
(1 -1.61407e-09 -4.00744e-18)
(1 -4.17504e-10 6.05758e-19)
(1 5.52383e-10 1.76512e-18)
(1 1.11551e-09 1.57096e-18)
(1 1.77116e-09 9.72543e-19)
(1 1.83012e-09 -5.70958e-19)
(1.00013 -0.00251637 -2.22258e-18)
(1.00201 -0.00760812 -7.31676e-18)
(1.00633 -0.013074 -6.11523e-18)
(1.01303 -0.0190699 -9.10786e-18)
(1.02259 -0.0256719 6.32944e-19)
(1.03541 -0.0327419 -3.02832e-17)
(1.0519 -0.0399482 2.23331e-17)
(1.07215 -0.0464849 8.33899e-17)
(1.09576 -0.0514864 -4.48697e-16)
(1.12173 -0.0537818 4.62474e-17)
(1.14786 -0.0527731 2.50131e-15)
(1.17233 -0.049495 2.58809e-15)
(1.19443 -0.044638 -5.26708e-15)
(1.21366 -0.0388638 -2.105e-14)
(1.22984 -0.032733 -3.83395e-14)
(1.24307 -0.0265614 -4.8766e-14)
(1.25349 -0.0205032 -4.67746e-14)
(1.26126 -0.0145648 -3.17697e-14)
(1.26646 -0.00865842 -7.30685e-15)
(1.26907 -0.00266361 2.0109e-14)
(1.26899 0.00349615 4.48925e-14)
(1.26602 0.00978671 6.48291e-14)
(1.26005 0.0160222 7.91889e-14)
(1.25109 0.0218826 8.8185e-14)
(1.23937 0.0269825 9.26172e-14)
(1.22539 0.0309703 9.35309e-14)
(1.20981 0.0336191 9.20197e-14)
(1.19339 0.0348767 8.89527e-14)
(1.17683 0.0348606 8.495e-14)
(1.16074 0.0338114 8.03918e-14)
(1.14552 0.0320264 7.54751e-14)
(1.13143 0.0297983 7.03102e-14)
(1.11856 0.0273721 6.49703e-14)
(1.1069 0.024925 5.94998e-14)
(1.09638 0.0225653 5.39624e-14)
(1.08692 0.0203447 4.84146e-14)
(1.07842 0.0182763 4.28976e-14)
(1.0708 0.0163517 3.74272e-14)
(1.06401 0.0145557 3.19773e-14)
(1.05798 0.0128748 2.6497e-14)
(1.05267 0.0113029 2.09112e-14)
(1.04805 0.00984089 1.51352e-14)
(1.04406 0.0084962 9.09291e-15)
(1.04065 0.00727935 2.72736e-15)
(1.03777 0.00620101 -3.98146e-15)
(1.03533 0.00526913 -1.10174e-14)
(1.03328 0.00448682 -1.83231e-14)
(1.03154 0.00385124 -2.58028e-14)
(1.03005 0.00335334 -3.33298e-14)
(1.02873 0.00297862 -4.07534e-14)
(1.02754 0.00270848 -4.79218e-14)
(1.02643 0.00252192 -5.47043e-14)
(1.02537 0.00239749 -6.10045e-14)
(1.02434 0.00231489 -6.67637e-14)
(1.02333 0.00225642 -7.19721e-14)
(1.02233 0.00220784 -7.66531e-14)
(1.02134 0.00215884 -8.08623e-14)
(1.02037 0.00210301 -8.46704e-14)
(1.01943 0.00203742 -8.81419e-14)
(1.01852 0.00196204 -9.13276e-14)
(1.01765 0.0018789 -9.42397e-14)
(1.01682 0.00179134 -9.68534e-14)
(1.01604 0.00170325 -9.91046e-14)
(1.01529 0.00161848 -1.00904e-13)
(1.01458 0.00154034 -1.02167e-13)
(1.01391 0.0014713 -1.02829e-13)
(1.01327 0.00141281 -1.0288e-13)
(1.01265 0.00136533 -1.02355e-13)
(1.01204 0.00132834 -1.01328e-13)
(1.01145 0.00130058 -9.98954e-14)
(1.01087 0.00128026 -9.81327e-14)
(1.01029 0.00126533 -9.60897e-14)
(1.00972 0.00125375 -9.37683e-14)
(1.00915 0.00124368 -9.11405e-14)
(1.00858 0.00123364 -8.81753e-14)
(1.00802 0.0012226 -8.48613e-14)
(1.00746 0.00120996 -8.12367e-14)
(1.0069 0.00119552 -7.73737e-14)
(1.00635 0.00117933 -7.33559e-14)
(1.00581 0.00116166 -6.92367e-14)
(1.00527 0.00114284 -6.49905e-14)
(1.00475 0.00112319 -6.05012e-14)
(1.00423 0.001103 -5.55552e-14)
(1.00371 0.00108243 -4.98788e-14)
(1.00321 0.00106152 -4.31831e-14)
(1.00271 0.00104011 -3.52024e-14)
(1.00222 0.00101785 -2.57381e-14)
(1.00174 0.000994177 -1.46657e-14)
(1.00127 0.000968377 -1.95532e-15)
(1.0008 0.000939702 1.23118e-14)
(1.00035 0.000907462 2.79217e-14)
(0.999904 0.000871004 4.45012e-14)
(0.999474 0.000829393 6.15302e-14)
(0.999061 0.000780721 7.83965e-14)
(0.998668 0.000721079 9.45159e-14)
(0.998299 0.000643556 1.0947e-13)
(0.997963 0.000537866 1.23104e-13)
(0.997672 0.00039133 1.35499e-13)
(0.997443 0.000191722 1.4682e-13)
(0.997295 -6.81294e-05 1.57173e-13)
(0.997253 -0.00038494 1.66882e-13)
(0.997334 -0.000740549 1.77097e-13)
(0.99755 -0.00110059 1.90098e-13)
(0.997895 -0.00141789 2.09119e-13)
(0.998346 -0.00164083 2.37328e-13)
(0.99886 -0.00172525 2.7591e-13)
(0.999378 -0.00164668 3.21785e-13)
(0.999838 -0.00140901 3.6588e-13)
(1.00019 -0.00104638 3.92909e-13)
(1.00038 -0.000617135 3.83221e-13)
(1.00042 -0.000191099 3.16624e-13)
(1.00031 0.000166175 1.77698e-13)
(1.00009 0.000407635 -3.85932e-14)
(0.99983 0.00051349 -3.22822e-13)
(0.999575 0.000492472 -6.48782e-13)
(0.999373 0.000375991 -9.74521e-13)
(0.999252 0.000207673 -1.24834e-12)
(0.99922 3.17339e-05 -1.41975e-12)
(0.999267 -0.000116588 -1.453e-12)
(0.999372 -0.000216491 -1.33838e-12)
(0.999507 -0.000262443 -1.09647e-12)
(0.999646 -0.000261263 -7.73652e-13)
(0.999768 -0.000227119 -4.3e-13)
(0.999864 -0.000176242 -1.23848e-13)
(0.99993 -0.000122775 1.02082e-13)
(0.999969 -7.64195e-05 2.2879e-13)
(0.999987 -4.19141e-05 2.61651e-13)
(0.999993 -1.98387e-05 2.24454e-13)
(0.999992 -8.09528e-06 1.49665e-13)
(0.99999 -3.44692e-06 6.84079e-14)
(0.999989 -2.71462e-06 3.11843e-15)
(0.999989 -3.46865e-06 -3.55926e-14)
(0.999991 -4.24578e-06 -4.79613e-14)
(0.999993 -4.43394e-06 -4.13418e-14)
(0.999995 -3.9954e-06 -2.5603e-14)
(0.999997 -3.17085e-06 -9.32214e-15)
(0.999998 -2.25207e-06 2.29957e-15)
(0.999999 -1.45392e-06 7.71078e-15)
(0.999999 -8.75321e-07 8.01171e-15)
(1 -5.18017e-07 5.48634e-15)
(1 -3.28958e-07 2.32922e-15)
(1 -2.41007e-07 -6.33021e-17)
(1 -1.99086e-07 -1.21946e-15)
(1 -1.69927e-07 -1.33731e-15)
(1 -1.39998e-07 -8.96663e-16)
(1 -1.08119e-07 -3.48696e-16)
(1 -7.79426e-08 4.13123e-17)
(1 -5.301e-08 2.05462e-16)
(1 -3.47571e-08 1.98556e-16)
(1 -2.26173e-08 1.15792e-16)
(1 -1.4978e-08 3.16559e-17)
(1 -1.01426e-08 -1.89381e-17)
(1 -6.84005e-09 -3.27866e-17)
(1 -4.36848e-09 -2.48615e-17)
(1 -2.39162e-09 -1.02667e-17)
(1 -8.67963e-10 5.18043e-19)
(1 3.56387e-10 4.36887e-18)
(1 1.09213e-09 4.1301e-18)
(1 1.86485e-09 2.20017e-18)
(1 2.01862e-09 -6.32936e-20)
(1.00012 -0.0030215 2.20445e-18)
(1.00189 -0.00914238 8.10874e-18)
(1.00595 -0.0157531 5.70351e-18)
(1.01234 -0.0230723 9.9243e-18)
(1.02161 -0.0312254 2.24086e-17)
(1.03427 -0.0400766 -9.86704e-17)
(1.05092 -0.0492408 4.72401e-16)
(1.07183 -0.057669 -1.00864e-15)
(1.0967 -0.0642292 -4.50623e-16)
(1.12445 -0.0671842 7.07461e-15)
(1.15222 -0.0656922 2.38191e-15)
(1.17781 -0.0613543 -3.2066e-14)
(1.20066 -0.0550934 -7.75091e-14)
(1.22026 -0.0477736 -9.05451e-14)
(1.23657 -0.0401096 -3.86808e-14)
(1.2498 -0.0324784 7.97756e-14)
(1.26016 -0.0250527 2.39523e-13)
(1.2679 -0.0178146 4.02714e-13)
(1.27312 -0.0106259 5.34467e-13)
(1.27581 -0.00330603 6.05747e-13)
(1.27581 0.00426618 6.22109e-13)
(1.27286 0.012061 6.03965e-13)
(1.26676 0.0198409 5.63259e-13)
(1.25746 0.0271835 5.09549e-13)
(1.24519 0.0335767 4.50463e-13)
(1.23048 0.0385531 3.91363e-13)
(1.2141 0.0418147 3.35492e-13)
(1.19688 0.0432986 2.84322e-13)
(1.17964 0.0431683 2.38113e-13)
(1.16301 0.0417461 1.96486e-13)
(1.14743 0.0394232 1.58854e-13)
(1.13313 0.0365779 1.24719e-13)
(1.12016 0.0335205 9.37407e-14)
(1.10849 0.0304692 6.57104e-14)
(1.09801 0.027552 4.04289e-14)
(1.0886 0.0248246 1.76456e-14)
(1.08015 0.0222947 -2.98574e-15)
(1.07258 0.0199454 -2.19185e-14)
(1.06582 0.0177531 -3.96724e-14)
(1.05983 0.0156992 -5.68006e-14)
(1.05456 0.0137752 -7.38126e-14)
(1.04998 0.0119829 -9.11163e-14)
(1.04605 0.0103326 -1.08969e-13)
(1.0427 0.00883872 -1.2745e-13)
(1.03988 0.00751563 -1.46464e-13)
(1.03753 0.00637411 -1.65756e-13)
(1.03555 0.00541858 -1.84936e-13)
(1.03388 0.00464563 -2.03525e-13)
(1.03245 0.00404387 -2.20997e-13)
(1.03119 0.0035949 -2.36855e-13)
(1.03004 0.00327508 -2.50691e-13)
(1.02897 0.00305783 -2.62237e-13)
(1.02793 0.00291601 -2.71396e-13)
(1.02691 0.0028241 -2.78239e-13)
(1.0259 0.00275997 -2.82966e-13)
(1.02489 0.00270596 -2.85865e-13)
(1.02389 0.00264946 -2.87265e-13)
(1.02291 0.00258279 -2.87479e-13)
(1.02196 0.00250271 -2.86765e-13)
(1.02103 0.00240957 -2.85274e-13)
(1.02015 0.00230627 -2.83028e-13)
(1.01931 0.00219729 -2.79914e-13)
(1.01852 0.00208771 -2.75722e-13)
(1.01777 0.0019825 -2.70212e-13)
(1.01706 0.00188586 -2.63187e-13)
(1.01638 0.00180091 -2.54574e-13)
(1.01574 0.00172944 -2.44457e-13)
(1.01512 0.00167195 -2.33074e-13)
(1.01451 0.00162772 -2.20758e-13)
(1.01392 0.00159506 -2.07846e-13)