/*--------------------------------*- C++ -*----------------------------------*\
  =========                 |
  \\      /  F ield         | OpenFOAM: The Open Source CFD Toolbox
   \\    /   O peration     | Website:  https://openfoam.org
    \\  /    A nd           | Version:  11
     \\/     M anipulation  |
\*---------------------------------------------------------------------------*/
FoamFile
{
    format      ascii;
    class       volVectorField;
    location    "5.690024";
    object      U_0;
}
// * * * * * * * * * * * * * * * * * * * * * * * * * * * * * * * * * * * * * //

dimensions      [0 1 -1 0 0 0 0];

internalField   nonuniform List<vector> 
7132
(
(1.00014 -0.000288939 1.57562e-18)
(1.00224 -0.00087185 6.67642e-18)
(1.00699 -0.00149056 7.44188e-18)
(1.01421 -0.00215693 8.9869e-18)
(1.02421 -0.00287428 1.11063e-17)
(1.03718 -0.00362273 1.16024e-17)
(1.0532 -0.00436317 1.11362e-17)
(1.07212 -0.00501836 1.03765e-17)
(1.09342 -0.00550556 9.70928e-18)
(1.11627 -0.0057372 9.29898e-18)
(1.13944 -0.00566447 8.96452e-18)
(1.16174 -0.00535415 8.87702e-18)
(1.18237 -0.00486788 7.7304e-18)
(1.20076 -0.00426777 8.01152e-18)
(1.21657 -0.00360833 -8.84811e-19)
(1.22965 -0.00292309 -9.08807e-18)
(1.23997 -0.00223014 -1.91073e-17)
(1.24751 -0.00153518 -1.07532e-17)
(1.25226 -0.000837345 -1.70188e-17)
(1.25422 -0.000135626 -3.02917e-17)
(1.25335 0.0005655 -3.4896e-17)
(1.24969 0.00125258 -4.02296e-17)
(1.24331 0.00190313 -4.77595e-17)
(1.23442 0.00248915 -5.99093e-17)
(1.22333 0.00298271 -5.87821e-17)
(1.21047 0.00336204 -7.0836e-17)
(1.19634 0.00361588 -8.36014e-17)
(1.18144 0.00374497 -9.52098e-17)
(1.16628 0.00376053 -1.06714e-16)
(1.15127 0.00368086 -1.08165e-16)
(1.13676 0.00352738 -1.05814e-16)
(1.123 0.00332121 -9.91838e-17)
(1.11016 0.00308095 -9.70256e-17)
(1.09833 0.00282174 -8.66743e-17)
(1.08757 0.00255517 -7.26618e-17)
(1.07788 0.00228982 -5.57526e-17)
(1.06924 0.00203196 -3.59097e-17)
(1.06162 0.00178624 -1.53487e-17)
(1.05495 0.00155614 1.18226e-17)
(1.04917 0.00134434 4.24205e-17)
(1.0442 0.00115279 7.64549e-17)
(1.03996 0.000982814 1.132e-16)
(1.03635 0.000835011 1.51029e-16)
(1.03328 0.000709277 1.92662e-16)
(1.03068 0.000604789 2.35301e-16)
(1.02845 0.000520059 2.78622e-16)
(1.02652 0.000453045 3.20688e-16)
(1.02483 0.000401303 3.60565e-16)
(1.02331 0.000362171 3.99155e-16)
(1.02193 0.000332956 4.33228e-16)
(1.02065 0.000311107 4.61185e-16)
(1.01945 0.000294356 4.8416e-16)
(1.0183 0.000280815 5.03011e-16)
(1.0172 0.000269027 5.15847e-16)
(1.01615 0.00025797 5.22732e-16)
(1.01514 0.000247022 5.22809e-16)
(1.01417 0.000235905 5.16166e-16)
(1.01325 0.000224602 5.03448e-16)
(1.01237 0.000213279 4.82429e-16)
(1.01154 0.000202204 4.52792e-16)
(1.01075 0.000191679 4.1345e-16)
(1.01001 0.000181983 3.65162e-16)
(1.0093 0.000173338 3.08764e-16)
(1.00862 0.000165876 2.43524e-16)
(1.00797 0.00015964 1.72552e-16)
(1.00734 0.000154578 9.58593e-17)
(1.00673 0.000150566 1.39961e-17)
(1.00613 0.000147424 -7.19352e-17)
(1.00555 0.000144943 -1.62994e-16)
(1.00497 0.00014291 -2.56955e-16)
(1.00441 0.000141131 -3.54634e-16)
(1.00384 0.000139442 -4.55578e-16)
(1.00329 0.000137724 -5.58297e-16)
(1.00274 0.0001359 -6.62975e-16)
(1.0022 0.000133932 -7.66659e-16)
(1.00167 0.000131811 -8.70166e-16)
(1.00114 0.000129551 -9.73575e-16)
(1.00063 0.000127175 -1.07656e-15)
(1.00012 0.000124709 -1.18014e-15)
(0.999629 0.000122173 -1.2812e-15)
(0.999144 0.000119582 -1.37854e-15)
(0.99867 0.000116933 -1.46801e-15)
(0.998206 0.000114204 -1.54335e-15)
(0.997754 0.000111351 -1.59863e-15)
(0.997313 0.000108306 -1.62436e-15)
(0.996884 0.000104988 -1.61543e-15)
(0.99647 0.000101319 -1.5682e-15)
(0.99607 9.72339e-05 -1.48388e-15)
(0.995688 9.26785e-05 -1.37271e-15)
(0.995325 8.75642e-05 -1.25132e-15)
(0.994983 8.16733e-05 -1.14947e-15)
(0.994666 7.45215e-05 -1.10339e-15)
(0.994381 6.5226e-05 -1.15157e-15)
(0.994138 5.24596e-05 -1.33392e-15)
(0.993954 3.4587e-05 -1.68047e-15)
(0.993853 1.00428e-05 -2.21388e-15)
(0.993863 -2.20689e-05 -2.94668e-15)
(0.994015 -6.12875e-05 -3.87739e-15)
(0.994337 -0.000105254 -4.98983e-15)
(0.994839 -0.000149583 -6.23709e-15)
(0.995513 -0.000188333 -7.53668e-15)
(0.996324 -0.000215103 -8.76542e-15)
(0.997214 -0.00022453 -9.77028e-15)
(0.998103 -0.000213781 -1.04062e-14)
(0.99891 -0.000183568 -1.05805e-14)
(0.999561 -0.000138292 -1.03116e-14)
(1.00001 -8.52147e-05 -9.76243e-15)
(1.00024 -3.28399e-05 -9.2319e-15)
(1.00027 1.10123e-05 -9.09803e-15)
(1.00015 4.08872e-05 -9.70226e-15)
(0.999942 5.466e-05 -1.12254e-14)
(0.999711 5.35761e-05 -1.35776e-14)
(0.999511 4.14594e-05 -1.63572e-14)
(0.999377 2.34209e-05 -1.89162e-14)
(0.999322 4.49463e-06 -2.05166e-14)
(0.99934 -1.14246e-05 -2.05545e-14)
(0.999413 -2.21283e-05 -1.87573e-14)
(0.999518 -2.7107e-05 -1.52839e-14)
(0.999631 -2.71604e-05 -1.06977e-14)
(0.999736 -2.3817e-05 -5.80467e-15)
(0.999823 -1.87637e-05 -1.4332e-15)
(0.999887 -1.3428e-05 1.78253e-15)
(0.999931 -8.7642e-06 3.54795e-15)
(0.999957 -5.22803e-06 3.93294e-15)
(0.999972 -2.87518e-06 3.29404e-15)
(0.99998 -1.51338e-06 2.12417e-15)
(0.999984 -8.48994e-07 8.93303e-16)
(0.999987 -5.94794e-07 -6.45708e-17)
(0.999989 -5.2916e-07 -6.02887e-16)
(0.999991 -5.1343e-07 -7.40868e-16)
(0.999993 -4.81739e-07 -6.03271e-16)
(0.999995 -4.1829e-07 -3.47727e-16)
(0.999996 -3.33442e-07 -1.0238e-16)
(0.999998 -2.45191e-07 6.01629e-17)
(0.999998 -1.68253e-07 1.25879e-16)
(0.999999 -1.09977e-07 1.18558e-16)
(0.999999 -7.08379e-08 7.43506e-17)
(0.999999 -4.70696e-08 2.65105e-17)
(1 -3.35023e-08 -6.9875e-18)
(1 -2.55772e-08 -2.07456e-17)
(1 -2.023e-08 -1.9045e-17)
(1 -1.59052e-08 -1.11061e-17)
(1 -1.2092e-08 -2.88258e-18)
(1 -8.79457e-09 1.63743e-18)
(1 -6.12804e-09 3.0489e-18)
(1 -4.13271e-09 3.06083e-18)
(1 -2.73272e-09 1.78334e-18)
(1 -1.78992e-09 7.38712e-19)
(1 -1.15557e-09 -4.10391e-19)
(1 -7.16091e-10 -7.42923e-19)
(1 -3.95299e-10 2.93012e-20)
(1 -1.55246e-10 3.34729e-19)
(1 2.71982e-11 5.82741e-19)
(1 1.59741e-10 5.23733e-20)
(1 2.57595e-10 -2.20791e-19)
(1 3.18436e-10 3.40352e-19)
(1 3.71977e-10 4.19024e-19)
(1 3.79943e-10 4.92658e-19)
(1 4.41869e-10 7.56712e-20)
(1 3.81954e-10 -8.92813e-19)
(1.00014 -0.000863956 1.43856e-20)
(1.00222 -0.00260825 3.20147e-19)
(1.00693 -0.00446118 6.80427e-19)
(1.0141 -0.00646084 1.05221e-18)
(1.02407 -0.00861821 1.46034e-18)
(1.03704 -0.0108748 1.87174e-18)
(1.05311 -0.0131137 2.26469e-18)
(1.07217 -0.0150995 2.09702e-18)
(1.09369 -0.0165801 5.57923e-18)
(1.11684 -0.0172821 7.09271e-18)
(1.14029 -0.017054 4.24388e-18)
(1.16281 -0.0161086 4.37933e-18)
(1.1836 -0.0146347 -1.28751e-19)
(1.20208 -0.0128218 1.27473e-17)
(1.21794 -0.0108353 4.92411e-17)
(1.23105 -0.0087756 9.71611e-17)
(1.24137 -0.00669594 1.31992e-16)
(1.24892 -0.00461142 1.32339e-16)
(1.25368 -0.00251732 8.86095e-17)
(1.25564 -0.000408757 9.22963e-18)
(1.25477 0.00170171 -8.32885e-17)
(1.25107 0.00377321 -1.74221e-16)
(1.24464 0.00573658 -2.54431e-16)
(1.23567 0.00750549 -3.18619e-16)
(1.22447 0.00899419 -3.63035e-16)
(1.21148 0.0101362 -3.87019e-16)
(1.19722 0.0108974 -3.90917e-16)
(1.1822 0.0112808 -3.7593e-16)
(1.16692 0.0113211 -3.43631e-16)
(1.15183 0.0110745 -2.96675e-16)
(1.13725 0.0106064 -2.27383e-16)
(1.12343 0.00998093 -1.59242e-16)
(1.11056 0.00925436 -8.23315e-17)
(1.09871 0.00847221 8.25129e-18)
(1.08794 0.00766921 1.01155e-16)
(1.07825 0.00687089 2.05659e-16)
(1.06962 0.00609584 3.09023e-16)
(1.06201 0.00535776 4.11373e-16)
(1.05536 0.00466693 5.17626e-16)
(1.04959 0.0040312 6.22527e-16)
(1.04464 0.00345637 7.30513e-16)
(1.04041 0.0029463 8.33376e-16)
(1.03681 0.0025028 9.31318e-16)
(1.03376 0.00212555 1.02439e-15)
(1.03118 0.00181209 1.10809e-15)
(1.02896 0.00155796 1.18214e-15)
(1.02705 0.00135705 1.23894e-15)
(1.02537 0.00120203 1.27835e-15)
(1.02386 0.00108491 1.29973e-15)
(1.02249 0.00099759 1.29967e-15)
(1.02121 0.000932398 1.28015e-15)
(1.02001 0.000882505 1.24083e-15)
(1.01886 0.000842224 1.18185e-15)
(1.01776 0.000807163 1.10553e-15)
(1.0167 0.000774238 1.01116e-15)
(1.01569 0.000741583 9.01407e-16)
(1.01472 0.000708356 7.75238e-16)
(1.0138 0.000674516 6.31679e-16)
(1.01292 0.000640567 4.70873e-16)
(1.01209 0.000607327 2.9092e-16)
(1.0113 0.000575711 9.45748e-17)
(1.01055 0.000546575 -1.17577e-16)
(1.00984 0.000520587 -3.42789e-16)
(1.00916 0.000498161 -5.7788e-16)
(1.00851 0.000479422 -8.18558e-16)
(1.00788 0.000464227 -1.06029e-15)
(1.00727 0.000452199 -1.30528e-15)
(1.00667 0.000442798 -1.54914e-15)
(1.00608 0.000435394 -1.79226e-15)
(1.0055 0.000429344 -2.03306e-15)
(1.00493 0.000424057 -2.26897e-15)
(1.00437 0.000419043 -2.50217e-15)
(1.00381 0.00041394 -2.72718e-15)
(1.00326 0.000408515 -2.94323e-15)
(1.00271 0.000402655 -3.14822e-15)
(1.00218 0.000396337 -3.34135e-15)
(1.00165 0.000389599 -3.52742e-15)
(1.00113 0.000382515 -3.70358e-15)
(1.00062 0.000375161 -3.86958e-15)
(1.00013 0.000367607 -4.01954e-15)
(0.999636 0.000359891 -4.1441e-15)
(0.999157 0.000352011 -4.2347e-15)
(0.998689 0.000343904 -4.2727e-15)
(0.998231 0.000335438 -4.24271e-15)
(0.997785 0.000326413 -4.12784e-15)
(0.99735 0.000316588 -3.9162e-15)
(0.996929 0.000305723 -3.60897e-15)
(0.996523 0.00029362 -3.21384e-15)
(0.996133 0.000280112 -2.76127e-15)
(0.995762 0.000264937 -2.29971e-15)
(0.995411 0.000247459 -1.89828e-15)
(0.995085 0.000226267 -1.64269e-15)
(0.99479 0.00019877 -1.61511e-15)
(0.994535 0.000161059 -1.89325e-15)
(0.994337 0.000108281 -2.53725e-15)
(0.994219 3.5751e-05 -3.58967e-15)
(0.994209 -5.92813e-05 -5.07616e-15)
(0.994337 -0.000175581 -6.99197e-15)
(0.994628 -0.000306286 -9.28981e-15)
(0.995097 -0.000438477 -1.18476e-14)
(0.995734 -0.000554536 -1.44469e-14)
(0.996507 -0.000635361 -1.67781e-14)
(0.997358 -0.000664826 -1.8487e-14)
(0.998213 -0.00063426 -1.92841e-14)
(0.998989 -0.000545516 -1.90715e-14)
(0.999615 -0.000411492 -1.80595e-14)
(1.00004 -0.000253708 -1.68099e-14)
(1.00026 -9.75241e-05 -1.6159e-14)
(1.00028 3.36104e-05 -1.70276e-14)
(1.00015 0.000123215 -2.01314e-14)
(0.999939 0.000164726 -2.56953e-14)
(0.999705 0.000161678 -3.32428e-14)
(0.999504 0.000125399 -4.15502e-14)
(0.999369 7.11587e-05 -4.88505e-14)
(0.999314 1.40819e-05 -5.32563e-14)
(0.999333 -3.40634e-05 -5.33095e-14)
(0.999408 -6.65483e-05 -4.84611e-14)
(0.999514 -8.17578e-05 -3.92768e-14)
(0.99963 -8.20476e-05 -2.73159e-14)
(0.999737 -7.20051e-05 -1.47014e-14)
(0.999825 -5.67303e-05 -3.54517e-15)
(0.99989 -4.05598e-05 4.58395e-15)
(0.999933 -2.64087e-05 8.99679e-15)
(0.99996 -1.56786e-05 9.92118e-15)
(0.999974 -8.55074e-06 8.28317e-15)
(0.999981 -4.44417e-06 5.33165e-15)
(0.999985 -2.46313e-06 2.24337e-15)
(0.999987 -1.72832e-06 -1.53778e-16)
(0.999989 -1.56042e-06 -1.49918e-15)
(0.999991 -1.53495e-06 -1.84697e-15)
(0.999993 -1.45168e-06 -1.50881e-15)
(0.999995 -1.26469e-06 -8.7508e-16)
(0.999996 -1.00835e-06 -2.64056e-16)
(0.999998 -7.39923e-07 1.44526e-16)
(0.999998 -5.05779e-07 3.1182e-16)
(0.999999 -3.28939e-07 2.95462e-16)
(0.999999 -2.10856e-07 1.86109e-16)
(0.999999 -1.3977e-07 6.67612e-17)
(1 -9.96419e-08 -1.58878e-17)
(1 -7.64105e-08 -5.05475e-17)
(1 -6.07157e-08 -4.77857e-17)
(1 -4.78787e-08 -2.90124e-17)
(1 -3.64419e-08 -8.88493e-18)
(1 -2.64959e-08 3.97697e-18)
(1 -1.84449e-08 8.1561e-18)
(1 -1.24294e-08 7.48509e-18)
(1 -8.22471e-09 3.61857e-18)
(1 -5.40305e-09 6.11331e-19)
(1 -3.51126e-09 -8.63805e-19)
(1 -2.19977e-09 -1.23909e-18)
(1 -1.24172e-09 -1.3544e-19)
(1 -5.21091e-10 -8.27252e-20)
(1 2.66285e-11 1.6343e-19)
(1 4.26667e-10 2.77807e-19)
(1 7.20577e-10 8.64412e-20)
(1 9.05443e-10 6.84587e-19)
(1 1.06498e-09 1.64376e-19)
(1 1.09366e-09 2.72368e-20)
(1 1.27176e-09 1.70774e-19)
(1 1.10946e-09 -6.07399e-19)
(1.00014 -0.00143102 -9.26844e-23)
(1.00218 -0.00432213 2.52877e-21)
(1.0068 -0.00739993 1.19588e-21)
(1.01389 -0.0107338 1.30865e-20)
(1.02378 -0.0143468 -1.41566e-19)
(1.03673 -0.0181455 2.74245e-19)
(1.05291 -0.0219371 -7.95434e-19)
(1.07224 -0.0253166 -1.47864e-18)
(1.09422 -0.0278503 6.53665e-18)
(1.11796 -0.0290448 -1.18469e-18)
(1.14199 -0.0286306 -3.88214e-17)
(1.16495 -0.0270048 -3.03497e-17)
(1.18605 -0.0244964 1.11537e-16)
(1.20472 -0.0214309 3.53299e-16)
(1.22067 -0.0180895 5.2986e-16)
(1.23383 -0.0146386 4.60974e-16)
(1.24417 -0.0111645 7.28689e-17)
(1.25173 -0.00768807 -5.57624e-16)
(1.2565 -0.00419698 -1.25645e-15)
(1.25847 -0.000678961 -1.79584e-15)
(1.25758 0.00284786 -2.12712e-15)
(1.25384 0.00631597 -2.25922e-15)
(1.2473 0.00960818 -2.21395e-15)
(1.23815 0.0125769 -2.02359e-15)
(1.22673 0.0150748 -1.72343e-15)
(1.21349 0.0169876 -1.34611e-15)
(1.19895 0.0182571 -9.19161e-16)
(1.18367 0.0188888 -4.64852e-16)
(1.16817 0.0189431 -5.7053e-19)
(1.15288 0.0185165 4.599e-16)
(1.13816 0.0177206 9.07743e-16)
(1.12424 0.0166639 1.33433e-15)
(1.11129 0.0154413 1.73423e-15)
(1.09941 0.0141287 2.10541e-15)
(1.08862 0.0127836 2.44619e-15)
(1.07893 0.0114481 2.7575e-15)
(1.07031 0.0101526 3.03991e-15)
(1.06271 0.00891966 3.29371e-15)
(1.05608 0.00776606 3.51903e-15)
(1.05035 0.00670481 3.71419e-15)
(1.04543 0.00574558 3.87692e-15)
(1.04124 0.00489481 4.00297e-15)
(1.03768 0.00415557 4.08682e-15)
(1.03467 0.00352734 4.12204e-15)
(1.03212 0.00300598 4.10137e-15)
(1.02994 0.002584 4.01854e-15)
(1.02806 0.00225108 3.86868e-15)
(1.0264 0.00199485 3.64989e-15)
(1.02491 0.00180185 3.36361e-15)
(1.02355 0.00165841 3.01363e-15)
(1.02228 0.00155164 2.60672e-15)
(1.02108 0.00147007 2.14994e-15)
(1.01994 0.00140417 1.64914e-15)
(1.01884 0.0013466 1.11255e-15)
(1.01778 0.00129226 5.44459e-16)
(1.01676 0.00123807 -5.18001e-17)
(1.01579 0.00118271 -6.76018e-16)
(1.01486 0.00112617 -1.32979e-15)
(1.01398 0.00106935 -2.01123e-15)
(1.01314 0.00101368 -2.71841e-15)
(1.01235 0.000960741 -3.44485e-15)
(1.0116 0.000911987 -4.18252e-15)
(1.01089 0.000868557 -4.92078e-15)
(1.0102 0.000831149 -5.64779e-15)
(1.00955 0.000799975 -6.35568e-15)
(1.00892 0.00077478 -7.03576e-15)
(1.00831 0.000754923 -7.6866e-15)
(1.00771 0.00073948 -8.30748e-15)
(1.00712 0.00072738 -8.89744e-15)
(1.00653 0.000717533 -9.45616e-15)
(1.00596 0.00070894 -9.97747e-15)
(1.00539 0.000700776 -1.04577e-14)
(1.00482 0.000692435 -1.0892e-14)
(1.00427 0.000683533 -1.12775e-14)
(1.00372 0.000673887 -1.16169e-14)
(1.00317 0.00066347 -1.19122e-14)
(1.00264 0.000652354 -1.217e-14)
(1.00211 0.000640667 -1.23905e-14)
(1.0016 0.000628548 -1.25658e-14)
(1.00109 0.000616113 -1.26778e-14)
(1.00059 0.000603436 -1.2694e-14)
(1.00011 0.000590517 -1.25764e-14)
(0.99963 0.000577257 -1.22802e-14)
(0.999163 0.000563442 -1.1761e-14)
(0.998706 0.000548744 -1.09836e-14)
(0.99826 0.00053276 -9.92507e-15)
(0.997827 0.000515081 -8.59294e-15)
(0.997407 0.000495362 -7.0302e-15)
(0.997003 0.000473309 -5.32729e-15)
(0.996616 0.000448482 -3.62685e-15)
(0.996249 0.000419855 -2.11293e-15)
(0.995906 0.00038515 -9.94236e-16)
(0.995591 0.000340191 -4.71733e-16)
(0.995316 0.000278633 -7.1191e-16)
(0.995094 0.000192563 -1.83511e-15)
(0.994947 7.42715e-05 -3.92255e-15)
(0.994901 -8.08667e-05 -7.02269e-15)
(0.994986 -0.000271019 -1.11164e-14)
(0.995227 -0.00048516 -1.60509e-14)
(0.995635 -0.000702282 -2.14603e-14)
(0.996205 -0.000893553 -2.67141e-14)
(0.996906 -0.00102755 -3.09634e-14)
(0.997684 -0.00107756 -3.33362e-14)
(0.998466 -0.00102905 -3.32698e-14)
(0.999176 -0.000884751 -3.08829e-14)
(0.999744 -0.000665653 -2.72369e-14)
(1.00012 -0.000407069 -2.43359e-14)
(1.0003 -0.000150808 -2.47858e-14)
(1.00029 6.43407e-05 -3.1139e-14)
(1.00015 0.000210998 -4.5064e-14)
(0.999923 0.000278145 -6.66071e-14)
(0.999682 0.000271514 -9.37156e-14)
(0.999479 0.000209811 -1.22241e-13)
(0.999345 0.000118379 -1.46611e-13)
(0.999294 2.24058e-05 -1.61132e-13)
(0.999319 -5.84538e-05 -1.61618e-13)
(0.9994 -0.000112922 -1.4675e-13)
(0.999512 -0.000138273 -1.18606e-13)
(0.999633 -0.00013846 -8.2176e-14)
(0.999743 -0.000121218 -4.40133e-14)
(0.999832 -9.51738e-05 -1.04904e-14)
(0.999898 -6.76825e-05 1.37734e-14)
(0.99994 -4.36964e-05 2.68335e-14)
(0.999965 -2.55938e-05 2.94828e-14)
(0.999978 -1.36668e-05 2.45501e-14)
(0.999983 -6.90056e-06 1.57684e-14)
(0.999986 -3.7408e-06 6.62577e-15)
(0.999987 -2.66643e-06 -4.52356e-16)
(0.999989 -2.50795e-06 -4.41846e-15)
(0.999991 -2.54235e-06 -5.44276e-15)
(0.999993 -2.43827e-06 -4.4504e-15)
(0.999995 -2.1316e-06 -2.58479e-15)
(0.999997 -1.69444e-06 -7.85848e-16)
(0.999998 -1.23408e-06 4.1885e-16)
(0.999999 -8.34538e-07 9.14965e-16)
(0.999999 -5.36127e-07 8.67965e-16)
(0.999999 -3.4017e-07 5.49362e-16)
(0.999999 -2.24836e-07 1.98721e-16)
(1 -1.61404e-07 -4.52241e-17)
(1 -1.2529e-07 -1.47822e-16)
(1 -1.00596e-07 -1.4245e-16)
(1 -7.97493e-08 -8.61901e-17)
(1 -6.07314e-08 -2.6713e-17)
(1 -4.40377e-08 1.12924e-17)
(1 -3.0538e-08 2.42089e-17)
(1 -2.05195e-08 2.03962e-17)
(1 -1.3586e-08 1.04181e-17)
(1 -8.9766e-09 1.76742e-18)
(1 -5.90426e-09 -2.66393e-18)
(1 -3.7705e-09 -3.38963e-18)
(1 -2.20219e-09 -2.11305e-18)
(1 -1.01221e-09 -5.81308e-19)
(1 -1.04309e-10 3.82265e-19)
(1 5.61476e-10 6.83502e-19)
(1 1.04857e-09 5.38908e-19)
(1 1.35767e-09 3.50509e-19)
(1 1.61831e-09 1.84931e-19)
(1 1.67619e-09 9.33829e-20)
(1 1.95016e-09 1.09583e-19)
(1 1.72179e-09 4.34263e-20)
(1.00014 -0.00198459 -3.44168e-20)
(1.00211 -0.00599676 -4.94766e-19)
(1.00661 -0.0102832 -8.41573e-19)
(1.01354 -0.0149515 -1.60501e-18)
(1.0233 -0.0200453 -1.65453e-18)
(1.03622 -0.0254431 -1.50721e-18)
(1.05254 -0.0308795 -1.11694e-17)
(1.07228 -0.0357618 1.85922e-17)
(1.09495 -0.0394547 3.52846e-18)
(1.11963 -0.0411795 -1.43705e-16)
(1.14455 -0.0405222 -2.56141e-17)
(1.16818 -0.0381365 6.9384e-16)
(1.18974 -0.0345129 1.36092e-15)
(1.20869 -0.0301283 7.72945e-16)
(1.22478 -0.0253884 -1.76689e-15)
(1.23799 -0.0205235 -5.85109e-15)
(1.24835 -0.0156472 -1.02223e-14)
(1.25592 -0.0107779 -1.34501e-14)
(1.26072 -0.00588677 -1.45685e-14)
(1.26269 -0.000946741 -1.32091e-14)
(1.26179 0.00402207 -1.04602e-14)
(1.25797 0.00892395 -7.08605e-15)
(1.25126 0.0135877 -3.53339e-15)
(1.24186 0.0177962 -9.7591e-17)
(1.2301 0.021333 3.03979e-15)
(1.21647 0.0240309 5.78722e-15)
(1.20152 0.0258066 8.11846e-15)
(1.18584 0.0266705 1.00453e-14)
(1.17 0.0267132 1.15984e-14)
(1.15443 0.0260769 1.2814e-14)
(1.13949 0.0249236 1.37399e-14)
(1.12542 0.0234095 1.43938e-14)
(1.11237 0.0216691 1.48235e-14)
(1.10042 0.019809 1.50688e-14)
(1.0896 0.0179088 1.515e-14)
(1.0799 0.0160264 1.51026e-14)
(1.07129 0.0142032 1.49318e-14)
(1.06372 0.0124696 1.46483e-14)
(1.05713 0.0108489 1.42585e-14)
(1.05144 0.00935875 1.37521e-14)
(1.04658 0.00801275 1.31239e-14)
(1.04244 0.0068199 1.23535e-14)
(1.03895 0.00578453 1.14286e-14)
(1.036 0.00490589 1.03385e-14)
(1.0335 0.0041781 9.07207e-15)
(1.03137 0.0035905 7.631e-15)
(1.02953 0.00312835 6.01956e-15)
(1.02791 0.00277404 4.25931e-15)
(1.02646 0.00250837 2.37911e-15)
(1.02512 0.00231194 4.085e-16)
(1.02386 0.0021664 -1.61857e-15)
(1.02267 0.00205551 -3.6744e-15)
(1.02152 0.00196583 -5.73782e-15)
(1.02042 0.00188708 -7.79321e-15)
(1.01935 0.00181214 -9.83593e-15)
(1.01833 0.00173682 -1.18639e-14)
(1.01735 0.00165937 -1.38814e-14)
(1.01642 0.00157995 -1.58913e-14)
(1.01553 0.00149997 -1.78881e-14)
(1.01469 0.00142153 -1.98594e-14)
(1.01389 0.00134695 -2.17789e-14)
(1.01314 0.00127835 -2.36177e-14)
(1.01243 0.00121737 -2.53455e-14)
(1.01174 0.00116501 -2.69379e-14)
(1.01109 0.00112154 -2.83805e-14)
(1.01046 0.0010866 -2.96698e-14)
(1.00984 0.00105924 -3.08175e-14)
(1.00924 0.00103813 -3.18307e-14)
(1.00864 0.00102171 -3.27173e-14)
(1.00805 0.00100844 -3.34755e-14)
(1.00747 0.000996867 -3.4095e-14)
(1.00689 0.000985836 -3.45679e-14)
(1.00632 0.000974492 -3.48839e-14)
(1.00575 0.000962308 -3.50481e-14)
(1.00519 0.000949045 -3.50759e-14)
(1.00464 0.000934684 -3.49894e-14)
(1.0041 0.000919348 -3.48104e-14)
(1.00356 0.00090323 -3.45341e-14)
(1.00304 0.000886538 -3.41296e-14)
(1.00252 0.00086945 -3.35296e-14)
(1.00201 0.000852075 -3.26376e-14)
(1.00151 0.000834425 -3.13433e-14)
(1.00102 0.000816374 -2.95264e-14)
(1.00054 0.000797633 -2.70834e-14)
(1.00007 0.00077775 -2.3937e-14)
(0.999604 0.000756157 -2.00559e-14)
(0.999153 0.000732267 -1.54802e-14)
(0.998714 0.000705567 -1.03322e-14)
(0.998289 0.000675611 -4.8475e-15)
(0.997879 0.000641773 6.29539e-16)
(0.997489 0.000602654 5.66742e-15)
(0.99712 0.000555202 9.80256e-15)
(0.996778 0.000493808 1.26251e-14)
(0.996472 0.00040992 1.38316e-14)
(0.996215 0.000292808 1.32447e-14)
(0.996027 0.000131928 1.07682e-14)
(0.995933 -7.91771e-05 6.34441e-15)
(0.995958 -0.000338257 5.95394e-17)
(0.996126 -0.000630545 -7.65003e-15)
(0.996449 -0.000927573 -1.57937e-14)
(0.996922 -0.00119001 -2.27467e-14)
(0.997517 -0.00137475 -2.64772e-14)
(0.998185 -0.00144496 -2.51813e-14)
(0.998859 -0.00138036 -1.82377e-14)
(0.999466 -0.00118435 -7.13666e-15)
(0.999943 -0.000885546 4.02922e-15)
(1.00025 -0.000532403 8.86588e-15)
(1.00036 -0.000182512 -1.13469e-16)
(1.00031 0.000110559 -2.95448e-14)
(1.00013 0.000308919 -8.29541e-14)
(0.999888 0.000397279 -1.5896e-13)
(0.999639 0.000383583 -2.50206e-13)
(0.999435 0.000293845 -3.43581e-13)
(0.999306 0.000163378 -4.22277e-13)
(0.999263 2.73451e-05 -4.69597e-13)
(0.999298 -8.67667e-05 -4.73625e-13)
(0.999389 -0.000163186 -4.31095e-13)
(0.999511 -0.000198164 -3.48765e-13)
(0.999639 -0.000197386 -2.41837e-13)
(0.999754 -0.000171917 -1.29884e-13)
(0.999846 -0.0001341 -3.16954e-14)
(0.999911 -9.44727e-05 3.9265e-14)
(0.999952 -6.01223e-05 7.74497e-14)
(0.999974 -3.44243e-05 8.52932e-14)
(0.999984 -1.77333e-05 7.11017e-14)
(0.999987 -8.51013e-06 4.57411e-14)
(0.999987 -4.44239e-06 1.93175e-14)
(0.999988 -3.28489e-06 -1.15606e-15)
(0.999989 -3.32857e-06 -1.26541e-14)
(0.999991 -3.53677e-06 -1.56624e-14)
(0.999993 -3.45758e-06 -1.28412e-14)
(0.999995 -3.03224e-06 -7.48473e-15)
(0.999997 -2.39524e-06 -2.30223e-15)
(0.999998 -1.72215e-06 1.17946e-15)
(0.999999 -1.14402e-06 2.62306e-15)
(0.999999 -7.20324e-07 2.49993e-15)
(0.999999 -4.49669e-07 1.58784e-15)
(1 -2.96268e-07 5.78778e-16)
(1 -2.15568e-07 -1.25889e-16)
(1 -1.70846e-07 -4.24228e-16)
(1 -1.39409e-07 -4.10281e-16)
(1 -1.11324e-07 -2.49669e-16)
(1 -8.4736e-08 -7.84446e-17)
(1 -6.11129e-08 3.14641e-17)
(1 -4.20757e-08 6.90916e-17)
(1 -2.81195e-08 5.89481e-17)
(1 -1.86189e-08 2.97734e-17)
(1 -1.24006e-08 4.72923e-18)
(1 -8.29026e-09 -8.09044e-18)
(1 -5.42545e-09 -1.02487e-17)
(1 -3.29442e-09 -6.01117e-18)
(1 -1.65684e-09 -2.09625e-18)
(1 -3.98597e-10 6.10411e-19)
(1 5.266e-10 1.50832e-18)
(1 1.2005e-09 1.08552e-18)
(1 1.63065e-09 1.13052e-18)
(1 1.98401e-09 1.59951e-19)
(1 2.08018e-09 -1.84236e-19)
(1 2.42286e-09 -5.53335e-20)
(1 2.17226e-09 -6.73833e-19)
(1.00013 -0.00251789 -2.2867e-18)
(1.00202 -0.00761282 -7.09786e-18)
(1.00633 -0.0130823 -6.10726e-18)
(1.01304 -0.0190826 -9.16703e-18)
(1.0226 -0.0256901 9.18459e-19)
(1.03543 -0.0327671 -2.98656e-17)
(1.05193 -0.0399825 2.2652e-17)
(1.0722 -0.0465307 8.37252e-17)
(1.09583 -0.0515464 -4.48935e-16)
(1.12183 -0.0538579 4.52956e-17)
(1.148 -0.0528657 2.49883e-15)
(1.17252 -0.0495997 2.574e-15)
(1.19469 -0.0447421 -5.3074e-15)
(1.21398 -0.0389413 -2.10988e-14)
(1.23023 -0.0327374 -3.83059e-14)
(1.2435 -0.0264221 -4.85168e-14)
(1.25388 -0.0201307 -4.62791e-14)
(1.26147 -0.0138696 -3.12854e-14)
(1.26629 -0.00758312 -7.38221e-15)
(1.26829 -0.00121895 1.86579e-14)
(1.26738 0.00520841 4.20251e-14)
(1.26346 0.0115775 6.08416e-14)
(1.25655 0.0176588 7.45848e-14)
(1.2468 0.0231562 8.35194e-14)
(1.23458 0.0277727 8.83355e-14)
(1.2204 0.0312796 8.98627e-14)
(1.20488 0.0335646 8.8955e-14)
(1.18868 0.0346452 8.63235e-14)
(1.17236 0.034648 8.25352e-14)
(1.15641 0.0337676 7.80123e-14)
(1.14119 0.0322226 7.30491e-14)
(1.12692 0.0302207 6.78649e-14)
(1.11374 0.0279378 6.26124e-14)
(1.10171 0.025511 5.73787e-14)
(1.09086 0.0230415 5.22166e-14)
(1.08116 0.0206011 4.7136e-14)
(1.07257 0.0182415 4.21099e-14)
(1.06503 0.0160004 3.70847e-14)
(1.05849 0.0139068 3.19843e-14)
(1.05286 0.0119832 2.67347e-14)
(1.04807 0.010247 2.12648e-14)
(1.04401 0.00871 1.55207e-14)
(1.0406 0.00737794 9.4711e-15)
(1.03773 0.00624987 3.11037e-15)
(1.03531 0.00531806 -3.52763e-15)
(1.03325 0.00456843 -1.03748e-14)
(1.03147 0.00398155 -1.73309e-14)
(1.0299 0.00353413 -2.42757e-14)
(1.02848 0.00320086 -3.10881e-14)
(1.02716 0.00295619 -3.7658e-14)
(1.02593 0.00277609 -4.3903e-14)
(1.02474 0.00263933 -4.97771e-14)
(1.0236 0.00252847 -5.52678e-14)
(1.02249 0.00243026 -6.03877e-14)
(1.02142 0.00233567 -6.51757e-14)
(1.02039 0.00223952 -6.96748e-14)
(1.0194 0.00213982 -7.39251e-14)
(1.01846 0.00203703 -7.79441e-14)
(1.01756 0.00193323 -8.17112e-14)
(1.01672 0.00183136 -8.51754e-14)
(1.01592 0.00173458 -8.82565e-14)
(1.01516 0.00164574 -9.08738e-14)
(1.01445 0.00156701 -9.2963e-14)
(1.01376 0.0014997 -9.44942e-14)
(1.01311 0.00144417 -9.54842e-14)
(1.01247 0.00139986 -9.59815e-14)
(1.01185 0.00136551 -9.60602e-14)
(1.01124 0.00133929 -9.57835e-14)
(1.01064 0.00131915 -9.51887e-14)
(1.01004 0.00130299 -9.42797e-14)
(1.00945 0.00128892 -9.30284e-14)
(1.00886 0.00127543 -9.14089e-14)
(1.00828 0.00126142 -8.94127e-14)
(1.0077 0.00124622 -8.70727e-14)
(1.00713 0.00122956 -8.44607e-14)
(1.00657 0.00121146 -8.16552e-14)
(1.00601 0.00119211 -7.87124e-14)
(1.00546 0.00117179 -7.56137e-14)
(1.00492 0.00115078 -7.22482e-14)
(1.00439 0.00112934 -6.84151e-14)
(1.00387 0.00110763 -6.38447e-14)
(1.00335 0.00108568 -5.82515e-14)
(1.00284 0.00106333 -5.13654e-14)
(1.00234 0.00104025 -4.29735e-14)
(1.00185 0.00101585 -3.29444e-14)
(1.00137 0.000989417 -2.12444e-14)
(1.0009 0.000960155 -7.97677e-15)
(1.00043 0.00092736 6.59557e-15)
(0.999979 0.000890403 2.20122e-14)
(0.999541 0.000848449 3.76177e-14)
(0.999119 0.000799754 5.26263e-14)
(0.998717 0.000740589 6.62477e-14)
(0.998339 0.000664114 7.78577e-14)
(0.997994 0.000559869 8.71203e-14)
(0.997693 0.000414647 9.39895e-14)
(0.997453 0.000215356 9.85551e-14)
(0.997296 -4.61819e-05 1.0088e-13)
(0.997244 -0.00036747 1.0121e-13)
(0.997319 -0.000730515 1.00602e-13)
(0.997532 -0.00110021 1.01351e-13)
(0.997878 -0.0014277 1.07008e-13)
(0.998335 -0.00165918 1.21555e-13)
(0.998857 -0.00174839 1.47584e-13)
(0.999385 -0.00166961 1.83904e-13)
(0.999853 -0.0014268 2.23521e-13)
(1.00021 -0.00105556 2.53021e-13)
(1.0004 -0.000616654 2.54054e-13)
(1.00043 -0.000182486 2.06935e-13)
(1.00032 0.00017947 9.58335e-14)
(1.0001 0.000421452 -8.56355e-14)
(0.999832 0.000524265 -3.30305e-13)
(0.999573 0.000498178 -6.15038e-13)
(0.999369 0.000376452 -9.0158e-13)
(0.999248 0.000204242 -1.14224e-12)
(0.999218 2.65542e-05 -1.29036e-12)
(0.999268 -0.000121413 -1.31309e-12)
(0.999375 -0.000219517 -1.202e-12)
(0.99951 -0.000263156 -9.76795e-13)
(0.999649 -0.000259981 -6.80748e-13)
(0.99977 -0.000224664 -3.69205e-13)
(0.999865 -0.000173555 -9.51067e-14)
(0.999929 -0.000120598 1.03674e-13)
(0.999967 -7.51447e-05 2.11453e-13)
(0.999985 -4.15772e-05 2.34822e-13)
(0.999991 -2.02256e-05 1.96723e-13)
(0.999991 -8.88314e-06 1.27233e-13)
(0.999989 -4.32799e-06 5.43796e-14)
(0.999988 -3.47131e-06 -2.32868e-15)
(0.999989 -3.99624e-06 -3.43868e-14)
(0.999991 -4.53577e-06 -4.30061e-14)
(0.999993 -4.53784e-06 -3.54528e-14)
(0.999995 -3.98675e-06 -2.07869e-14)
(0.999997 -3.11678e-06 -6.50511e-15)
(0.999998 -2.19839e-06 3.14053e-15)
(0.999999 -1.42246e-06 7.18083e-15)
(0.999999 -8.69122e-07 6.88571e-15)
(0.999999 -5.29628e-07 4.39543e-15)
(1 -3.48036e-07 1.61803e-15)
(1 -2.59243e-07 -3.31158e-16)
(1 -2.1213e-07 -1.16171e-15)
(1 -1.77035e-07 -1.13162e-15)
(1 -1.42602e-07 -6.91131e-16)
(1 -1.08295e-07 -2.19138e-16)
(1 -7.73969e-08 8.47459e-17)
(1 -5.26782e-08 1.90426e-16)
(1 -3.48957e-08 1.61432e-16)
(1 -2.30857e-08 8.19764e-17)
(1 -1.5533e-08 1.31256e-17)
(1 -1.05974e-08 -2.24517e-17)
(1 -7.13213e-09 -2.7661e-17)
(1 -4.50433e-09 -1.77425e-17)
(1 -2.44762e-09 -6.21137e-18)
(1 -8.52881e-10 1.49791e-18)
(1 3.22162e-10 3.87885e-18)
(1 1.17191e-09 3.56557e-18)
(1 1.71649e-09 1.98239e-18)
(1 2.15042e-09 4.87168e-20)
(1 2.29266e-09 -6.11795e-19)
(1 2.6751e-09 -5.80678e-19)
(1 2.44719e-09 -3.41295e-19)
(1.00012 -0.00302328 2.27421e-18)
(1.00189 -0.00914786 8.08342e-18)
(1.00596 -0.0157629 5.61734e-18)
(1.01235 -0.0230871 9.82217e-18)
(1.02162 -0.0312467 2.26207e-17)
(1.03429 -0.0401064 -9.85146e-17)
(1.05095 -0.0492814 4.7274e-16)
(1.07187 -0.0577237 -1.00879e-15)
(1.09676 -0.0643017 -4.44768e-16)
(1.12454 -0.0672778 7.06915e-15)
(1.15235 -0.0658086 2.30956e-15)
(1.178 -0.0614899 -3.21288e-14)
(1.20092 -0.0552351 -7.71869e-14)
(1.22062 -0.0478923 -8.93386e-14)
(1.23703 -0.0401488 -3.63868e-14)
(1.25033 -0.0323482 8.25274e-14)
(1.26071 -0.0246344 2.40751e-13)
(1.2683 -0.0169845 3.98962e-13)
(1.27316 -0.0092993 5.22332e-13)
(1.27521 -0.00148746 5.81803e-13)
(1.2743 0.00644787 5.94906e-13)
(1.27028 0.014355 5.77463e-13)
(1.2631 0.0219339 5.3987e-13)
(1.25292 0.0287938 4.90589e-13)
(1.24011 0.0345429 4.36208e-13)
(1.22524 0.0388818 3.81257e-13)
(1.20901 0.0416678 3.28562e-13)
(1.19212 0.0429306 2.79657e-13)
(1.17522 0.0428424 2.35205e-13)
(1.1588 0.0416608 1.95332e-13)
(1.14322 0.0396693 1.59821e-13)
(1.1287 0.0371322 1.28295e-13)
(1.11537 0.0342688 1.0029e-13)
(1.10326 0.0312467 7.52986e-14)
(1.09236 0.0281864 5.27574e-14)
(1.08266 0.0251726 3.20746e-14)
(1.07409 0.0222649 1.26582e-14)
(1.06661 0.0195071 -6.04803e-15)
(1.06013 0.0169333 -2.45121e-14)
(1.05458 0.0145705 -4.30954e-14)
(1.04988 0.01244 -6.20215e-14)
(1.04592 0.0105565 -8.13721e-14)
(1.04261 0.00892711 -1.01089e-13)
(1.03984 0.00755076 -1.20973e-13)
(1.03752 0.00641776 -1.40709e-13)
(1.03554 0.00551038 -1.59886e-13)
(1.03384 0.00480409 -1.78055e-13)
(1.03233 0.00426951 -1.94795e-13)
(1.03096 0.00387476 -2.09774e-13)
(1.02968 0.00358772 -2.22795e-13)
(1.02846 0.00337828 -2.33804e-13)
(1.02729 0.00322001 -2.42877e-13)
(1.02614 0.00309132 -2.50193e-13)
(1.02503 0.00297597 -2.55999e-13)
(1.02395 0.0028631 -2.60559e-13)
(1.02291 0.00274666 -2.64113e-13)
(1.02191 0.00262463 -2.66819e-13)
(1.02096 0.00249797 -2.68722e-13)
(1.02005 0.00236965 -2.69746e-13)
(1.0192 0.00224359 -2.69711e-13)
(1.0184 0.00212393 -2.68393e-13)
(1.01764 0.00201436 -2.65596e-13)
(1.01692 0.00191765 -2.61226e-13)
(1.01624 0.00183543 -2.55333e-13)
(1.01558 0.0017681 -2.481e-13)
(1.01494 0.00171492 -2.39811e-13)
(1.01432 0.00167419 -2.30765e-13)
(1.0137 0.00164358 -2.21197e-13)
(1.01309 0.00162043 -2.11222e-13)
(1.01249 0.00160206 -2.00824e-13)
(1.01188 0.00158611 -1.89907e-13)
(1.01129 0.00157066 -1.78368e-13)