/*--------------------------------*- C++ -*----------------------------------*\
  =========                 |
  \\      /  F ield         | OpenFOAM: The Open Source CFD Toolbox
   \\    /   O peration     | Website:  https://openfoam.org
    \\  /    A nd           | Version:  11
     \\/     M anipulation  |
\*---------------------------------------------------------------------------*/
FoamFile
{
    format      ascii;
    class       volVectorField;
    location    "7.213226";
    object      U_0;
}
// * * * * * * * * * * * * * * * * * * * * * * * * * * * * * * * * * * * * * //

dimensions      [0 1 -1 0 0 0 0];

internalField   nonuniform List<vector> 
7132
(
(1.00014 -0.000287276 2.3805e-18)
(1.00222 -0.000866893 7.98627e-18)
(1.00695 -0.00148195 7.97997e-18)
(1.01413 -0.00214398 9.03211e-18)
(1.02407 -0.00285585 1.10355e-17)
(1.03696 -0.00359717 1.17793e-17)
(1.05285 -0.00432817 1.14813e-17)
(1.07161 -0.004971 1.06302e-17)
(1.09269 -0.00544229 9.75659e-18)
(1.11526 -0.00565427 9.18954e-18)
(1.13805 -0.00555854 8.81191e-18)
(1.15988 -0.00522385 8.76735e-18)
(1.17994 -0.00471601 7.7085e-18)
(1.19768 -0.00410449 8.11528e-18)
(1.21282 -0.00345596 -1.27012e-18)
(1.22534 -0.00282068 -1.18925e-17)
(1.23538 -0.00223509 -2.00496e-17)
(1.2432 -0.00171812 -1.18604e-17)
(1.24911 -0.00126766 -1.52149e-17)
(1.25333 -0.000858457 -2.73019e-17)
(1.25598 -0.000445478 -3.04127e-17)
(1.25692 2.48267e-05 -3.69741e-17)
(1.25582 0.000595412 -4.67342e-17)
(1.25219 0.00127645 -6.18e-17)
(1.24562 0.00202938 -6.13098e-17)
(1.23594 0.00276831 -7.39935e-17)
(1.22341 0.00338253 -8.79516e-17)
(1.20875 0.00377116 -1.00521e-16)
(1.19307 0.00387374 -1.12462e-16)
(1.17759 0.00368602 -1.12258e-16)
(1.16343 0.0032589 -1.08004e-16)
(1.1514 0.00268497 -9.84205e-17)
(1.14188 0.00207797 -9.28085e-17)
(1.13476 0.00154935 -7.36516e-17)
(1.12952 0.00118588 -4.40242e-17)
(1.12534 0.00103235 -6.65198e-18)
(1.12135 0.00108424 3.64958e-17)
(1.11675 0.00129356 7.80539e-17)
(1.11106 0.00158629 1.25734e-16)
(1.10409 0.00188372 1.72131e-16)
(1.09599 0.00212033 2.16546e-16)
(1.0871 0.00225355 2.57884e-16)
(1.07792 0.00226572 2.94958e-16)
(1.06893 0.00216039 3.3611e-16)
(1.06059 0.00195624 3.80092e-16)
(1.05324 0.00168087 4.2932e-16)
(1.0471 0.00136547 4.83393e-16)
(1.04229 0.00104095 5.41076e-16)
(1.03876 0.000734993 6.03725e-16)
(1.03641 0.000470035 6.65271e-16)
(1.03501 0.000261804 7.19828e-16)
(1.03433 0.000118545 7.64531e-16)
(1.03409 4.08904e-05 7.97968e-16)
(1.03403 2.25104e-05 8.16705e-16)
(1.03393 5.15912e-05 8.21204e-16)
(1.03363 0.00011297 8.12695e-16)
(1.03304 0.000190542 7.93706e-16)
(1.03212 0.000269514 7.68351e-16)
(1.03089 0.000338077 7.36449e-16)
(1.02941 0.000388296 6.98655e-16)
(1.02778 0.000416244 6.53379e-16)
(1.02607 0.000421557 5.98826e-16)
(1.02439 0.000406643 5.33026e-16)
(1.02281 0.000375758 4.50638e-16)
(1.02138 0.000334115 3.50822e-16)
(1.02013 0.000287112 2.30355e-16)
(1.01908 0.000239736 8.71502e-17)
(1.01821 0.000196137 -7.75739e-17)
(1.01751 0.000159377 -2.63761e-16)
(1.01694 0.000131332 -4.66339e-16)
(1.01646 0.000112712 -6.82149e-16)
(1.01604 0.000103199 -9.07224e-16)
(1.01564 0.000101648 -1.13605e-15)
(1.01523 0.000106349 -1.36592e-15)
(1.01479 0.000115293 -1.59114e-15)
(1.0143 0.000126434 -1.8102e-15)
(1.01378 0.000137903 -2.02222e-15)
(1.0132 0.000148175 -2.22601e-15)
(1.01259 0.000156158 -2.42351e-15)
(1.01195 0.000161224 -2.6139e-15)
(1.0113 0.000163185 -2.79991e-15)
(1.01064 0.000162218 -2.98348e-15)
(1.01 0.000158776 -3.16517e-15)
(1.00937 0.000153481 -3.34669e-15)
(1.00877 0.000147026 -3.52501e-15)
(1.00819 0.000140094 -3.69912e-15)
(1.00765 0.000133283 -3.86591e-15)
(1.00713 0.000127072 -4.02087e-15)
(1.00663 0.000121794 -4.1613e-15)
(1.00615 0.000117631 -4.28205e-15)
(1.00569 0.000114629 -4.38266e-15)
(1.00523 0.000112717 -4.46336e-15)
(1.00479 0.000111736 -4.52411e-15)
(1.00434 0.000111472 -4.56889e-15)
(1.00389 0.000111685 -4.59808e-15)
(1.00344 0.000112138 -4.61261e-15)
(1.00299 0.00011262 -4.61277e-15)
(1.00254 0.000112961 -4.59637e-15)
(1.00209 0.000113039 -4.56431e-15)
(1.00164 0.000112787 -4.51463e-15)
(1.00119 0.000112183 -4.44783e-15)
(1.00074 0.00011124 -4.36553e-15)
(1.00029 0.000109999 -4.26751e-15)
(0.999856 0.000108513 -4.15509e-15)
(0.999424 0.000106836 -4.023e-15)
(0.999 0.000105014 -3.86338e-15)
(0.998582 0.000103076 -3.66437e-15)
(0.998173 0.000101032 -3.40901e-15)
(0.997772 9.88706e-05 -3.08157e-15)
(0.99738 9.65576e-05 -2.66311e-15)
(0.996997 9.40428e-05 -2.13924e-15)
(0.996624 9.1266e-05 -1.50163e-15)
(0.996264 8.81633e-05 -7.49159e-16)
(0.995916 8.46674e-05 1.04889e-16)
(0.995583 8.0691e-05 1.03799e-15)
(0.995266 7.6088e-05 2.0134e-15)
(0.99497 7.05891e-05 2.98426e-15)
(0.994697 6.37269e-05 3.89981e-15)
(0.994455 5.47792e-05 4.70646e-15)
(0.994253 4.27743e-05 5.3592e-15)
(0.994106 2.66057e-05 5.8215e-15)
(0.994032 5.27893e-06 6.06869e-15)
(0.994053 -2.17236e-05 6.10119e-15)
(0.994193 -5.4032e-05 5.95637e-15)
(0.994471 -9.00525e-05 5.72358e-15)
(0.994897 -0.000126849 5.54391e-15)
(0.995467 -0.000160359 5.5909e-15)
(0.996161 -0.000185973 6.02922e-15)
(0.996936 -0.000199426 6.93949e-15)
(0.997738 -0.000197778 8.23488e-15)
(0.998503 -0.000180254 9.58248e-15)
(0.999168 -0.000148658 1.03667e-14)
(0.999683 -0.00010722 9.72991e-15)
(1.00002 -6.18488e-05 6.69682e-15)
(1.00017 -1.89608e-05 3.94973e-16)
(1.00017 1.58073e-05 -9.6729e-15)
(1.00005 3.8683e-05 -2.33625e-14)
(0.999859 4.83598e-05 -3.97107e-14)
(0.999659 4.59987e-05 -5.69317e-14)
(0.99949 3.4679e-05 -7.26233e-14)
(0.99938 1.84947e-05 -8.41983e-14)
(0.999341 1.56254e-06 -8.94552e-14)
(0.999367 -1.28048e-05 -8.71387e-14)
(0.999443 -2.25906e-05 -7.73248e-14)
(0.999548 -2.7177e-05 -6.14759e-14)
(0.999661 -2.71173e-05 -4.21465e-14)
(0.999766 -2.37058e-05 -2.24069e-14)
(0.999852 -1.8498e-05 -5.1454e-15)
(0.999915 -1.29084e-05 7.54229e-15)
(0.999956 -7.95971e-06 1.47237e-14)
(0.999979 -4.19851e-06 1.66702e-14)
(0.99999 -1.74624e-06 1.45955e-14)
(0.999993 -4.28804e-07 1.02089e-14)
(0.999993 7.50746e-08 5.22128e-15)
(0.999992 1.03691e-07 9.57458e-16)
(0.999992 -6.21636e-08 -1.85013e-15)
(0.999992 -2.48002e-07 -3.06591e-15)
(0.999994 -3.52453e-07 -2.98766e-15)
(0.999995 -3.88158e-07 -2.21583e-15)
(0.999997 -2.86985e-07 -7.32511e-16)
(1.00014 -0.000859011 3.89474e-20)
(1.0022 -0.00259351 3.84093e-19)
(1.00689 -0.00443558 7.12627e-19)
(1.01402 -0.00642231 1.04243e-18)
(1.02393 -0.00856338 1.45563e-18)
(1.03682 -0.0107987 1.90837e-18)
(1.05277 -0.0130094 2.31739e-18)
(1.07167 -0.0149583 2.20366e-18)
(1.09298 -0.0163911 5.45772e-18)
(1.11584 -0.0170339 6.86417e-18)
(1.13892 -0.0167362 4.24918e-18)
(1.16097 -0.0157165 4.6549e-18)
(1.18118 -0.0141758 -6.84644e-20)
(1.19899 -0.0123256 1.11632e-17)
(1.21415 -0.0103678 4.46508e-17)
(1.22665 -0.00845405 9.05908e-17)
(1.23663 -0.00669406 1.28033e-16)
(1.24439 -0.00514488 1.36428e-16)
(1.25024 -0.00379988 1.02326e-16)
(1.25445 -0.00258182 2.34796e-17)
(1.25713 -0.0013527 -8.75946e-17)
(1.25815 5.25366e-05 -2.04929e-16)
(1.25715 0.00176695 -3.06701e-16)
(1.25362 0.00382363 -3.81686e-16)
(1.24708 0.00610568 -4.25798e-16)
(1.23733 0.00835009 -4.41932e-16)
(1.22462 0.0102174 -4.35128e-16)
(1.20971 0.0113985 -4.09892e-16)
(1.19373 0.0117085 -3.68333e-16)
(1.17797 0.0111347 -3.10927e-16)
(1.1636 0.00983249 -2.21952e-16)
(1.15146 0.00808382 -1.20286e-16)
(1.14195 0.00623505 1.12836e-17)
(1.13494 0.00462552 1.85419e-16)
(1.12987 0.00351957 3.80268e-16)
(1.1259 0.00305379 5.96721e-16)
(1.12208 0.00321408 8.0216e-16)
(1.11762 0.00385373 9.79144e-16)
(1.11198 0.00474667 1.12773e-15)
(1.10499 0.0056532 1.2382e-15)
(1.09682 0.00637424 1.32563e-15)
(1.08783 0.00678111 1.38801e-15)
(1.07853 0.00682086 1.43605e-15)
(1.06943 0.0065048 1.48549e-15)
(1.061 0.0058898 1.539e-15)
(1.05358 0.0050594 1.60491e-15)
(1.04741 0.00410794 1.67402e-15)
(1.04259 0.00312869 1.73969e-15)
(1.03908 0.00220528 1.79081e-15)
(1.03676 0.00140548 1.80758e-15)
(1.03542 0.000776885 1.77719e-15)
(1.0348 0.000344552 1.69049e-15)
(1.03461 0.000110547 1.54541e-15)
(1.0346 5.58602e-05 1.35275e-15)
(1.03455 0.000144823 1.12593e-15)
(1.03428 0.000331555 8.84801e-16)
(1.0337 0.000567266 6.44163e-16)
(1.03277 0.000807132 4.11765e-16)
(1.03153 0.00101537 1.91365e-16)
(1.03003 0.00116795 -2.34536e-17)
(1.02838 0.00125301 -2.39879e-16)
(1.02665 0.00126948 -4.70847e-16)
(1.02495 0.00122469 -7.297e-16)
(1.02335 0.00113153 -1.02747e-15)
(1.02191 0.00100579 -1.37264e-15)
(1.02065 0.000863817 -1.76651e-15)
(1.0196 0.00072069 -2.21295e-15)
(1.01873 0.000588962 -2.70274e-15)
(1.01803 0.000477901 -3.22573e-15)
(1.01747 0.000393178 -3.76763e-15)
(1.017 0.00033695 -4.31069e-15)
(1.01658 0.00030826 -4.84448e-15)
(1.01619 0.000303658 -5.35267e-15)
(1.01578 0.000317972 -5.82573e-15)
(1.01535 0.000345128 -6.2566e-15)
(1.01487 0.00037893 -6.64078e-15)
(1.01433 0.000413725 -6.98334e-15)
(1.01376 0.000444891 -7.28462e-15)
(1.01314 0.000469124 -7.5509e-15)
(1.0125 0.000484527 -7.78773e-15)
(1.01184 0.000490528 -7.99977e-15)
(1.01118 0.000487666 -8.19647e-15)
(1.01053 0.000477312 -8.37776e-15)
(1.0099 0.000461349 -8.5448e-15)
(1.0093 0.000441879 -8.6936e-15)
(1.00872 0.00042096 -8.81692e-15)
(1.00817 0.000400409 -8.91084e-15)
(1.00765 0.000381671 -8.96358e-15)
(1.00715 0.000365753 -8.96917e-15)
(1.00667 0.00035321 -8.92265e-15)
(1.00621 0.000344179 -8.82329e-15)
(1.00575 0.000338445 -8.67875e-15)
(1.0053 0.00033553 -8.49311e-15)
(1.00486 0.000334785 -8.27516e-15)
(1.00441 0.000335484 -8.03079e-15)
(1.00396 0.000336912 -7.76245e-15)
(1.00351 0.000338427 -7.47075e-15)
(1.00305 0.000339514 -7.15088e-15)
(1.0026 0.000339811 -6.80124e-15)
(1.00214 0.000339109 -6.42029e-15)
(1.00169 0.000337342 -6.00887e-15)
(1.00123 0.000334555 -5.57146e-15)
(1.00079 0.000330872 -5.10944e-15)
(1.00035 0.000326453 -4.62465e-15)
(0.999911 0.000321463 -4.11133e-15)
(0.999482 0.000316043 -3.55571e-15)
(0.999061 0.000310283 -2.93769e-15)
(0.998647 0.000304217 -2.22824e-15)
(0.998242 0.000297809 -1.39908e-15)
(0.997845 0.00029096 -4.2108e-16)
(0.997457 0.000283519 7.30653e-16)
(0.997079 0.000275306 2.07209e-15)
(0.996712 0.000266126 3.61185e-15)
(0.996358 0.000255776 5.3423e-15)
(0.996018 0.000243995 7.2439e-15)
(0.995694 0.00023035 9.28461e-15)
(0.995389 0.000214052 1.14226e-14)
(0.995108 0.00019373 1.36169e-14)
(0.994856 0.000167262 1.58282e-14)
(0.994643 0.000131777 1.80285e-14)
(0.994483 8.39941e-05 2.0202e-14)
(0.994393 2.09347e-05 2.23414e-14)
(0.994396 -5.89932e-05 2.44645e-14)
(0.994514 -0.000154773 2.66376e-14)
(0.994765 -0.000261769 2.89921e-14)
(0.995161 -0.00037134 3.17184e-14)
(0.995697 -0.000471457 3.50151e-14)
(0.996355 -0.000548411 3.89998e-14)
(0.997094 -0.000589433 4.35674e-14)
(0.997861 -0.00058564 4.82444e-14)
(0.998594 -0.00053455 5.20824e-14)
(0.999231 -0.00044137 5.36389e-14)
(0.999724 -0.000318568 5.11073e-14)
(1.00004 -0.000183684 4.25923e-14)
(1.00018 -5.58662e-05 2.65337e-14)
(1.00017 4.79845e-05 2.21567e-15)
(1.00004 0.000116474 -2.97578e-14)
(0.999851 0.000145553 -6.71681e-14)
(0.999649 0.000138566 -1.06191e-13)
(0.99948 0.000104641 -1.41797e-13)
(0.99937 5.60046e-05 -1.68587e-13)
(0.999332 5.0082e-06 -1.8194e-13)
(0.99936 -3.83619e-05 -1.79176e-13)
(0.999438 -6.79866e-05 -1.60389e-13)
(0.999546 -8.19492e-05 -1.28587e-13)
(0.999661 -8.18706e-05 -8.9089e-14)
(0.999767 -7.16277e-05 -4.83323e-14)
(0.999854 -5.59096e-05 -1.24044e-14)
(0.999918 -3.89989e-05 1.42402e-14)
(0.999959 -2.40052e-05 2.95611e-14)
(0.999981 -1.26011e-05 3.40307e-14)
(0.999991 -5.16787e-06 3.0098e-14)
(0.999994 -1.18492e-06 2.12655e-14)
(0.999993 3.2142e-07 1.10682e-14)
(0.999992 3.81308e-07 2.26304e-15)
(0.999992 -1.48309e-07 -3.60097e-15)
(0.999992 -7.33111e-07 -6.20407e-15)
(0.999994 -1.06395e-06 -6.12815e-15)
(0.999995 -1.17946e-06 -4.59505e-15)
(0.999997 -8.71581e-07 -1.55893e-15)
(1.00014 -0.00142292 9.35337e-22)
(1.00216 -0.00429798 6.03223e-21)
(1.00677 -0.00735802 1.31524e-21)
(1.01381 -0.0106707 2.80578e-21)
(1.02364 -0.014257 -1.60056e-19)
(1.03652 -0.0180207 2.36511e-19)
(1.05259 -0.0217658 -8.20279e-19)
(1.07177 -0.025084 -1.50195e-18)
(1.09354 -0.0275383 6.27866e-18)
(1.117 -0.0286335 -9.98708e-19)
(1.14067 -0.0281014 -3.7488e-17)
(1.16315 -0.0263481 -3.14659e-17)
(1.18366 -0.0237218 1.00633e-16)
(1.20163 -0.0205838 3.3131e-16)
(1.21683 -0.0172767 5.12466e-16)
(1.22927 -0.0140547 4.77062e-16)
(1.23914 -0.0111038 1.39158e-16)
(1.24677 -0.00852217 -4.75503e-16)
(1.25252 -0.00630021 -1.25147e-15)
(1.25669 -0.00430621 -2.02692e-15)
(1.25943 -0.0023007 -2.61056e-15)
(1.26062 6.52613e-06 -2.83238e-15)
(1.25984 0.00285516 -2.75559e-15)
(1.25649 0.00631205 -2.45025e-15)
(1.25 0.0101812 -2.00263e-15)
(1.2401 0.0140075 -1.49206e-15)
(1.22701 0.0171995 -9.70081e-16)
(1.21156 0.0192181 -4.54685e-16)
(1.19498 0.0197419 6.4025e-17)
(1.17866 0.0187489 6.13206e-16)
(1.16388 0.0165079 1.22853e-15)
(1.15155 0.0135046 1.93512e-15)
(1.14208 0.0103349 2.73332e-15)
(1.13532 0.00758243 3.58508e-15)
(1.13063 0.00570153 4.41258e-15)
(1.12708 0.00492587 5.12576e-15)
(1.12363 0.00522786 5.65373e-15)
(1.1194 0.00635041 5.96869e-15)
(1.11383 0.00790054 6.08832e-15)
(1.10677 0.00946477 6.05775e-15)
(1.09841 0.0107029 5.9322e-15)
(1.08917 0.0113983 5.76078e-15)
(1.07961 0.0114647 5.58035e-15)
(1.07028 0.0109254 5.4136e-15)
(1.06167 0.00988005 5.26589e-15)
(1.05413 0.00847187 5.12414e-15)
(1.04791 0.00686139 4.95366e-15)
(1.04309 0.00520647 4.70077e-15)
(1.03964 0.00364836 4.30179e-15)
(1.03742 0.00230133 3.69856e-15)
(1.0362 0.00124559 2.85981e-15)
(1.03571 0.000523153 1.7962e-15)
(1.03566 0.000137082 5.6092e-16)
(1.03576 5.45924e-05 -7.55169e-16)
(1.03578 0.000214552 -2.05354e-15)
(1.03556 0.000538588 -3.2497e-15)
(1.03499 0.000943549 -4.29294e-15)
(1.03405 0.00135331 -5.17432e-15)
(1.03277 0.00170741 -5.91634e-15)
(1.03123 0.00196557 -6.56843e-15)
(1.02952 0.00210827 -7.19041e-15)
(1.02774 0.0021343 -7.84307e-15)
(1.026 0.00205653 -8.57898e-15)
(1.02437 0.00189719 -9.43381e-15)
(1.02291 0.00168323 -1.04278e-14)
(1.02165 0.00144239 -1.1557e-14)
(1.02059 0.0012002 -1.28014e-14)
(1.01974 0.000977842 -1.41239e-14)
(1.01905 0.000790888 -1.54746e-14)
(1.0185 0.000648808 -1.6801e-14)
(1.01805 0.000555122 -1.80488e-14)
(1.01765 0.000508078 -1.91754e-14)
(1.01727 0.000501723 -2.01498e-14)
(1.01688 0.000527209 -2.09535e-14)
(1.01644 0.00057419 -2.15837e-14)
(1.01596 0.000632149 -2.20451e-14)
(1.01543 0.000691514 -2.23542e-14)
(1.01484 0.000744488 -2.25318e-14)
(1.01422 0.000785524 -2.25994e-14)
(1.01357 0.00081147 -2.25797e-14)
(1.0129 0.000821416 -2.24887e-14)
(1.01223 0.000816338 -2.23405e-14)
(1.01157 0.000798602 -2.21405e-14)
(1.01094 0.000771436 -2.18852e-14)
(1.01033 0.000738418 -2.15645e-14)
(1.00975 0.000703039 -2.11584e-14)
(1.00919 0.000668374 -2.06472e-14)
(1.00867 0.000636857 -2.0012e-14)
(1.00817 0.000610172 -1.92397e-14)
(1.00769 0.00058924 -1.83301e-14)
(1.00723 0.000574273 -1.72924e-14)
(1.00677 0.00056489 -1.61487e-14)
(1.00632 0.000560266 -1.49259e-14)
(1.00587 0.000559293 -1.36497e-14)
(1.00542 0.000560736 -1.23382e-14)
(1.00496 0.00056338 -1.0998e-14)
(1.00451 0.000566142 -9.62492e-15)
(1.00405 0.000568155 -8.20729e-15)
(1.00358 0.000568813 -6.73299e-15)
(1.00312 0.000567773 -5.19549e-15)
(1.00266 0.00056493 -3.59708e-15)
(1.0022 0.000560374 -1.94796e-15)
(1.00175 0.000554321 -2.60639e-16)
(1.0013 0.000547049 1.45746e-15)
(1.00086 0.000538844 3.21111e-15)
(1.00042 0.000529945 5.02137e-15)
(0.999995 0.000520512 6.92484e-15)
(0.999574 0.000510603 8.96973e-15)
(0.99916 0.000500163 1.12094e-14)
(0.998754 0.000489028 1.36969e-14)
(0.998356 0.000476947 1.64819e-14)
(0.997967 0.000463614 1.96097e-14)
(0.997589 0.000448699 2.31223e-14)
(0.997222 0.000431853 2.70592e-14)
(0.996869 0.000412633 3.14594e-14)
(0.996531 0.000390331 3.63631e-14)
(0.996211 0.000363663 4.18165e-14)
(0.995913 0.000330415 4.78786e-14)
(0.995643 0.000287152 5.46262e-14)
(0.995411 0.000229222 6.21532e-14)
(0.995228 0.000151277 7.05588e-14)
(0.995112 4.84284e-05 7.99305e-14)
(0.995082 -8.19948e-05 9.03454e-14)
(0.995161 -0.000238442 1.01922e-13)
(0.995366 -0.000413459 1.1484e-13)
(0.995707 -0.000593024 1.29284e-13)
(0.996183 -0.000757504 1.45307e-13)
(0.996773 -0.000884427 1.62595e-13)
(0.997443 -0.000952762 1.80177e-13)
(0.99814 -0.000947775 1.96161e-13)
(0.998805 -0.0008652 2.07613e-13)
(0.999382 -0.000713411 2.10658e-13)
(0.999821 -0.000512777 2.00887e-13)
(1.0001 -0.000292095 1.74045e-13)
(1.00021 -8.29067e-05 1.26967e-13)
(1.00017 8.68761e-05 5.86538e-14)
(1.00002 0.00019837 -2.87245e-14)
(0.999825 0.00024481 -1.29257e-13)
(0.99962 0.00023167 -2.33302e-13)
(0.999452 0.00017404 -3.28387e-13)
(0.999347 9.21966e-05 -4.01126e-13)
(0.999314 6.66894e-06 -4.39972e-13)
(0.999348 -6.59156e-05 -4.38115e-13)
(0.999432 -0.000115355 -3.9558e-13)
(0.999545 -0.00013846 -3.19692e-13)
(0.999665 -0.000137967 -2.23627e-13)
(0.999774 -0.000120406 -1.23447e-13)
(0.999862 -9.36813e-05 -3.44444e-14)
(0.999925 -6.50218e-05 3.20972e-14)
(0.999965 -3.96786e-05 7.08787e-14)
(0.999986 -2.04732e-05 8.28524e-14)
(0.999995 -8.03645e-06 7.39239e-14)
(0.999996 -1.46596e-06 5.26587e-14)
(0.999994 9.10631e-07 2.77706e-14)
(0.999992 8.60055e-07 6.1038e-15)
(0.999992 -1.52444e-07 -8.45197e-15)
(0.999992 -1.21603e-06 -1.50266e-14)
(0.999994 -1.812e-06 -1.49944e-14)
(0.999995 -2.01797e-06 -1.13317e-14)
(0.999997 -1.4795e-06 -3.90968e-15)
(1.00014 -0.00197355 -2.811e-20)
(1.0021 -0.00596384 -4.67643e-19)
(1.00658 -0.0102261 -8.29543e-19)
(1.01347 -0.0148655 -1.682e-18)
(1.02318 -0.0199228 -1.85696e-18)
(1.03602 -0.0252726 -1.79906e-18)
(1.05225 -0.0306451 -1.12363e-17)
(1.07184 -0.0354425 1.78693e-17)
(1.09432 -0.0390243 3.60872e-18)
(1.11873 -0.040609 -1.39799e-16)
(1.1433 -0.0397831 -3.07325e-17)
(1.16645 -0.0372112 6.57658e-16)
(1.1874 -0.0334091 1.32784e-15)
(1.20561 -0.0289017 8.69017e-16)
(1.22085 -0.0241813 -1.38674e-15)
(1.2332 -0.0196067 -5.15903e-15)
(1.24289 -0.015443 -9.46678e-15)
(1.2503 -0.0118321 -1.31623e-14)
(1.25588 -0.00876298 -1.53114e-14)
(1.25999 -0.00604398 -1.5345e-14)
(1.26283 -0.00331993 -1.30648e-14)
(1.26427 -0.00015182 -8.80885e-15)
(1.26383 0.0038312 -3.89783e-15)
(1.26079 0.00874634 8.16696e-16)
(1.25441 0.0143141 4.818e-15)
(1.24428 0.019859 7.90733e-15)
(1.23062 0.0244967 1.01681e-14)
(1.21432 0.0274223 1.18595e-14)
(1.1968 0.0281597 1.32964e-14)
(1.17962 0.0266792 1.47534e-14)
(1.16421 0.0233799 1.64127e-14)
(1.1516 0.0189774 1.82607e-14)
(1.1422 0.0143468 2.01301e-14)
(1.13583 0.0103437 2.16861e-14)
(1.13176 0.00763349 2.2541e-14)
(1.12887 0.00655497 2.24982e-14)
(1.12598 0.00705909 2.15988e-14)
(1.12211 0.00875694 2.01242e-14)
(1.11664 0.0110623 1.84301e-14)
(1.10945 0.0133659 1.67763e-14)
(1.10079 0.015174 1.53028e-14)
(1.09116 0.0161792 1.40154e-14)
(1.08119 0.0162665 1.28649e-14)
(1.07149 0.0154786 1.17727e-14)
(1.06259 0.0139659 1.06245e-14)
(1.05487 0.0119383 9.28294e-15)
(1.04857 0.00962777 7.55613e-15)
(1.04377 0.00726057 5.23503e-15)
(1.04042 0.00503833 2.13077e-15)
(1.03836 0.00312375 -1.86052e-15)
(1.03735 0.00163053 -6.67701e-15)
(1.03707 0.000617705 -1.2071e-14)
(1.03721 8.8346e-05 -1.76459e-14)
(1.03748 -6.1339e-06 -2.2945e-14)
(1.03762 0.000244988 -2.75764e-14)
(1.03747 0.000727567 -3.12905e-14)
(1.03692 0.0013212 -3.40288e-14)
(1.03595 0.0019163 -3.59021e-14)
(1.03461 0.00242654 -3.71336e-14)
(1.03299 0.00279524 -3.80009e-14)
(1.0312 0.00299578 -3.87717e-14)
(1.02935 0.00302783 -3.96726e-14)
(1.02754 0.00291112 -4.08632e-14)
(1.02586 0.00267839 -4.24261e-14)
(1.02437 0.00236879 -4.43682e-14)
(1.0231 0.00202229 -4.66236e-14)
(1.02205 0.00167545 -4.90775e-14)
(1.02121 0.00135841 -5.157e-14)
(1.02055 0.00109317 -5.39306e-14)
(1.02003 0.000892938 -5.59997e-14)
(1.01961 0.000762404 -5.76479e-14)
(1.01923 0.000698724 -5.87985e-14)
(1.01887 0.000693083 -5.94169e-14)
(1.01849 0.000732584 -5.95159e-14)
(1.01806 0.000802255 -5.91394e-14)
(1.01758 0.000886954 -5.83491e-14)
(1.01704 0.000972975 -5.72191e-14)
(1.01644 0.00104922 -5.58131e-14)
(1.0158 0.00110787 -5.41891e-14)
(1.01514 0.00114456 -5.23906e-14)
(1.01445 0.00115815 -5.04457e-14)
(1.01377 0.00115019 -4.83712e-14)
(1.0131 0.00112419 -4.61595e-14)
(1.01246 0.00108486 -4.37896e-14)
(1.01184 0.00103737 -4.12243e-14)
(1.01126 0.000986744 -3.84167e-14)
(1.0107 0.000937364 -3.53258e-14)
(1.01018 0.000892684 -3.19155e-14)
(1.00968 0.000855071 -2.81776e-14)
(1.0092 0.00082579 -2.4133e-14)
(1.00873 0.000805094 -1.98341e-14)
(1.00827 0.000792395 -1.53604e-14)
(1.00782 0.000786475 -1.0792e-14)
(1.00736 0.000785719 -6.20105e-15)
(1.00691 0.000788347 -1.6297e-15)
(1.00645 0.000792612 2.91692e-15)
(1.00598 0.00079697 7.46581e-15)
(1.00551 0.000800193 1.2067e-14)
(1.00504 0.00080143 1.6767e-14)
(1.00457 0.000800214 2.15954e-14)
(1.0041 0.000796421 2.65528e-14)
(1.00364 0.000790199 3.16101e-14)
(1.00317 0.000781877 3.67251e-14)
(1.00272 0.000771871 4.1855e-14)
(1.00226 0.000760597 4.6978e-14)
(1.00182 0.000748407 5.21021e-14)
(1.00138 0.000735535 5.72639e-14)
(1.00094 0.000722069 6.25254e-14)
(1.00052 0.000707937 6.79595e-14)
(1.0001 0.000692914 7.36523e-14)
(0.999686 0.000676645 7.9708e-14)
(0.999282 0.000658694 8.6263e-14)
(0.998887 0.000638582 9.35097e-14)
(0.998502 0.0006158 1.01706e-13)
(0.998129 0.000589717 1.11189e-13)
(0.99777 0.000559346 1.22375e-13)
(0.997428 0.000522945 1.35744e-13)
(0.997107 0.000477534 1.51841e-13)
(0.996811 0.000418496 1.7124e-13)
(0.99655 0.000339569 1.94524e-13)
(0.996335 0.000233517 2.22226e-13)
(0.99618 9.36876e-05 2.54751e-13)
(0.996106 -8.36253e-05 2.92328e-13)
(0.996129 -0.000296442 3.3507e-13)
(0.996268 -0.000534773 3.82992e-13)
(0.996532 -0.000779662 4.35801e-13)
(0.996919 -0.00100442 4.92512e-13)
(0.997412 -0.00117838 5.50912e-13)
(0.997978 -0.0012727 6.07002e-13)
(0.99857 -0.00126708 6.54623e-13)
(0.999134 -0.00115549 6.85496e-13)
(0.999616 -0.000949242 6.89779e-13)
(0.999973 -0.000676171 6.57185e-13)
(1.00018 -0.000375775 5.78554e-13)
(1.00024 -9.14146e-05 4.4779e-13)
(1.00016 0.000138481 2.64061e-13)
(0.999992 0.000287899 3.38232e-14)
(0.999779 0.000347549 -2.27961e-13)
(0.999571 0.000325086 -4.97748e-13)
(0.999406 0.000241514 -7.45263e-13)
(0.999308 0.000125051 -9.37854e-13)
(0.999286 4.28779e-06 -1.04698e-12)
(0.999331 -9.76242e-05 -1.0553e-12)
(0.999425 -0.000166514 -9.62093e-13)
(0.999547 -0.000198046 -7.84589e-13)
(0.999673 -0.000196211 -5.54739e-13)
(0.999786 -0.000170343 -3.11983e-13)
(0.999876 -0.000131706 -9.42529e-14)
(0.999938 -9.05872e-05 7.01258e-14)
(0.999976 -5.44451e-05 1.67415e-13)
(0.999994 -2.72577e-05 1.99263e-13)
(1 -9.8636e-06 1.79611e-13)
(0.999999 -9.03884e-07 1.29132e-13)
(0.999995 2.07698e-06 6.90734e-14)
(0.999992 1.65637e-06 1.62814e-14)
(0.999991 -4.36685e-08 -1.9529e-14)
(0.999992 -1.7148e-06 -3.60107e-14)
(0.999993 -2.6321e-06 -3.63406e-14)
(0.999995 -2.93744e-06 -2.7693e-14)
(0.999997 -2.12396e-06 -9.72217e-15)
(1.00013 -0.00250418 -2.20836e-18)
(1.00201 -0.00757199 -7.19929e-18)
(1.0063 -0.0130115 -5.95909e-18)
(1.01298 -0.018976 -9.50269e-18)
(1.02249 -0.0255381 1.54051e-19)
(1.03526 -0.0325552 -3.02227e-17)
(1.05167 -0.0396903 2.18332e-17)
(1.07181 -0.046131 8.21512e-17)
(1.09527 -0.0510046 -4.4028e-16)
(1.12102 -0.0531346 3.25633e-17)
(1.14684 -0.0519197 2.42946e-15)
(1.17089 -0.0484018 2.62908e-15)
(1.19243 -0.043292 -4.67782e-15)
(1.21093 -0.0372957 -1.95572e-14)
(1.22621 -0.0310654 -3.62036e-14)
(1.23842 -0.0250671 -4.71076e-14)
(1.24784 -0.0196518 -4.71523e-14)
(1.25495 -0.0150136 -3.49184e-14)
(1.26027 -0.0111446 -1.19844e-14)
(1.26429 -0.00778753 1.82186e-14)
(1.26726 -0.00445002 5.06801e-14)
(1.26907 -0.00050836 7.83791e-14)
(1.26915 0.00458302 9.84567e-14)
(1.26656 0.0110224 1.09968e-13)
(1.26035 0.0184443 1.1361e-13)
(1.24992 0.0259116 1.11377e-13)
(1.23546 0.0321831 1.05756e-13)
(1.21799 0.0361309 9.89323e-14)
(1.19914 0.0370937 9.24611e-14)
(1.18076 0.0350358 8.71137e-14)
(1.16449 0.0305111 8.28033e-14)
(1.15148 0.0245033 7.86092e-14)
(1.1422 0.0182099 7.29816e-14)
(1.1364 0.0128002 6.43498e-14)
(1.13319 0.00918194 5.21348e-14)
(1.13123 0.0078125 3.73985e-14)
(1.12915 0.00861017 2.25434e-14)
(1.12577 0.0110225 1.01269e-14)
(1.12044 0.0142303 1.64945e-15)
(1.11305 0.0173955 -2.84833e-15)
(1.10395 0.019852 -4.42084e-15)
(1.09377 0.0211982 -4.51909e-15)
(1.08323 0.0212974 -4.45813e-15)
(1.07303 0.0202235 -5.22564e-15)
(1.06374 0.0181895 -7.52063e-15)
(1.05578 0.015482 -1.19072e-14)
(1.04937 0.012412 -1.8906e-14)
(1.0446 0.0092796 -2.89561e-14)
(1.0414 0.00635078 -4.22441e-14)
(1.03956 0.00383928 -5.84628e-14)
(1.03882 0.00189383 -7.66717e-14)
(1.03884 0.000590631 -9.5375e-14)
(1.03926 -6.87084e-05 -1.1282e-13)
(1.03975 -0.000151536 -1.27452e-13)
(1.04006 0.000220428 -1.38263e-13)
(1.04 0.000892672 -1.44976e-13)
(1.03946 0.00170323 -1.47992e-13)
(1.03845 0.00250586 -1.4817e-13)
(1.03703 0.00318679 -1.46558e-13)
(1.0353 0.00367269 -1.44181e-13)
(1.03339 0.00393083 -1.41878e-13)
(1.03144 0.00396337 -1.40239e-13)
(1.02954 0.0037987 -1.39578e-13)
(1.0278 0.00348183 -1.39941e-13)
(1.02627 0.00306564 -1.41152e-13)
(1.02498 0.00260352 -1.4285e-13)
(1.02394 0.00214386 -1.44568e-13)
(1.02313 0.00172625 -1.45805e-13)
(1.02251 0.00137928 -1.46109e-13)
(1.02203 0.00111983 -1.45152e-13)
(1.02165 0.000953463 -1.42771e-13)
(1.02131 0.000875785 -1.38979e-13)
(1.02097 0.000874581 -1.33932e-13)
(1.02061 0.000932335 -1.27874e-13)
(1.02019 0.00102892 -1.21081e-13)
(1.01971 0.00114415 -1.13796e-13)
(1.01915 0.00125986 -1.06209e-13)
(1.01854 0.00136149 -9.8435e-14)
(1.01789 0.0014389 -9.05226e-14)
(1.0172 0.00148659 -8.24678e-14)
(1.01649 0.00150334 -7.42233e-14)
(1.01579 0.00149147 -6.57225e-14)
(1.01511 0.00145587 -5.68772e-14)
(1.01445 0.00140292 -4.75894e-14)
(1.01383 0.00133958 -3.77609e-14)
(1.01324 0.00127252 -2.72976e-14)
(1.01268 0.00120754 -1.61395e-14)
(1.01215 0.00114914 -4.26961e-15)
(1.01165 0.00110037 8.26225e-15)
(1.01117 0.00106281 2.13305e-14)
(1.0107 0.00103671 3.47485e-14)
(1.01024 0.00102119 4.82907e-14)
(1.00978 0.00101459 6.17423e-14)
(1.00933 0.00101472 7.49422e-14)
(1.00886 0.00101918 8.78232e-14)
(1.00839 0.00102565 1.00424e-13)
(1.00792 0.00103211 1.12873e-13)
(1.00744 0.00103694 1.25353e-13)
(1.00696 0.00103906 1.38034e-13)
(1.00648 0.00103789 1.5103e-13)
(1.006 0.0010333 1.64359e-13)
(1.00552 0.00102554 1.77942e-13)
(1.00504 0.00101508 1.91633e-13)
(1.00457 0.00100249 2.05252e-13)
(1.00411 0.000988344 2.18636e-13)
(1.00365 0.000973115 2.31657e-13)
(1.00319 0.000957124 2.44242e-13)
(1.00274 0.000940494 2.56364e-13)
(1.0023 0.000923141 2.68048e-13)
(1.00186 0.000904778 2.79393e-13)
(1.00143 0.000884947 2.90626e-13)
(1.00101 0.00086307 3.02175e-13)
(1.00059 0.00083851 3.14758e-13)
(1.00018 0.000810576 3.29439e-13)
(0.999786 0.000778429 3.47654e-13)
(0.9994 0.000740806 3.71182e-13)
(0.999029 0.000695546 4.02068e-13)
(0.998676 0.000638995 4.42516e-13)
(0.998347 0.000565523 4.94747e-13)
(0.998049 0.000467482 5.60853e-13)
(0.997792 0.000336007 6.42611e-13)
(0.997589 0.000162896 7.41255e-13)
(0.997456 -5.64878e-05 8.5724e-13)
(0.99741 -0.000319829 9.90205e-13)
(0.997464 -0.000614936 1.13898e-12)
(0.997629 -0.000918492 1.30098e-12)
(0.997901 -0.0011975 1.47125e-12)
(0.998266 -0.00141391 1.6414e-12)
(0.998696 -0.00153178 1.79865e-12)
(0.999148 -0.00152571 1.92563e-12)
(0.999575 -0.00138805 2.00114e-12)
(0.999929 -0.00113282 2.00204e-12)
(1.00017 -0.000794758 1.90593e-12)
(1.00029 -0.000423292 1.69437e-12)
(1.00027 -7.27623e-05 1.35657e-12)
(1.00014 0.000208648 8.93583e-13)
(0.99994 0.000388378 3.22189e-13)
(0.999712 0.000454969 -3.22442e-13)
(0.9995 0.000418391 -9.86045e-13)
(0.99934 0.000305522 -1.59872e-12)
(0.999254 0.00015239 -2.08425e-12)
(0.999247 -4.53927e-06 -2.37476e-12)
(0.999308 -0.000135784 -2.42753e-12)
(0.999417 -0.000223411 -2.23809e-12)
(0.999551 -0.000262152 -1.84449e-12)
(0.999686 -0.000257487 -1.3203e-12)
(0.999804 -0.000221786 -7.57987e-13)
(0.999895 -0.000169885 -2.47712e-13)
(0.999956 -0.000115288 1.42103e-13)
(0.999991 -6.77371e-05 3.76987e-13)
(1.00001 -3.2362e-05 4.5876e-13)
(1.00001 -1.0133e-05 4.18628e-13)
(1 8.84763e-07 3.04275e-13)
(0.999996 4.05693e-06 1.65406e-13)
(0.999992 2.87871e-06 4.18938e-14)
(0.99999 1.95453e-07 -4.28556e-14)
(0.999991 -2.26132e-06 -8.26913e-14)
(0.999993 -3.5714e-06 -8.45692e-14)
(0.999995 -3.97887e-06 -6.50672e-14)
(0.999998 -2.82035e-06 -2.32822e-14)
(1.00012 -0.00300726 2.17356e-18)
(1.00188 -0.00910022 8.17592e-18)
(1.00593 -0.0156803 5.63754e-18)
(1.0123 -0.0229628 9.78959e-18)
(1.02153 -0.0310693 2.1728e-17)
(1.03414 -0.0398585 -9.68858e-17)
(1.05073 -0.0489385 4.66024e-16)
(1.07154 -0.0572522 -9.92476e-16)
(1.09627 -0.0636581 -4.53279e-16)
(1.12383 -0.0664108 6.92797e-15)
(1.15131 -0.0646613 2.55513e-15)
(1.17651 -0.060017 -3.05819e-14)
(1.19879 -0.0534202 -7.50351e-14)
(1.21762 -0.0457813 -9.06308e-14)
(1.23293 -0.0379247 -4.76934e-14)
(1.24492 -0.0304209 5.62373e-14)
(1.25397 -0.0237104 2.02012e-13)
(1.26064 -0.018047 3.63025e-13)
(1.2656 -0.0134332 5.14599e-13)
(1.26946 -0.00954066 6.36738e-13)
(1.2726 -0.00571405 7.11216e-13)
(1.27491 -0.00109673 7.16767e-13)
(1.27571 0.00508714 6.72559e-13)
(1.2738 0.0131562 6.00855e-13)
(1.26787 0.0226541 5.18181e-13)
(1.2571 0.0323228 4.37356e-13)
(1.2416 0.0404767 3.65548e-13)
(1.22257 0.0455891 3.04388e-13)
(1.20196 0.0467767 2.52045e-13)
(1.18198 0.0440033 2.04843e-13)
(1.16456 0.0380136 1.57612e-13)
(1.15104 0.0301119 1.03954e-13)
(1.14194 0.0218766 3.78638e-14)
(1.13692 0.0148463 -4.26267e-14)
(1.13486 0.0102145 -1.3186e-13)
(1.13418 0.0085746 -2.16639e-13)
(1.13315 0.00979513 -2.81582e-13)
(1.13043 0.0131141 -3.16431e-13)
(1.12526 0.0174238 -3.20183e-13)
(1.1176 0.0216121 -3.00056e-13)
(1.10791 0.0248173 -2.67127e-13)
(1.09699 0.0265408 -2.31954e-13)
(1.08571 0.026635 -2.02163e-13)
(1.07486 0.0252216 -1.82135e-13)
(1.06507 0.0225923 -1.73911e-13)
(1.0568 0.0191236 -1.78257e-13)
(1.05026 0.0152151 -1.9529e-13)
(1.04554 0.0112478 -2.24441e-13)
(1.04252 0.00755692 -2.63939e-13)
(1.04099 0.00441062 -3.10313e-13)
(1.04061 0.00199432 -3.58453e-13)
(1.041 0.000401386 -4.02549e-13)
(1.04178 -0.000369713 -4.37511e-13)
(1.04257 -0.000409033 -4.59884e-13)
(1.04309 0.000123618 -4.68991e-13)
(1.04314 0.0010272 -4.6666e-13)
(1.04262 0.00209234 -4.55824e-13)
(1.04155 0.00313192 -4.39791e-13)
(1.04002 0.00400252 -4.21579e-13)