/*--------------------------------*- C++ -*----------------------------------*\
  =========                 |
  \\      /  F ield         | OpenFOAM: The Open Source CFD Toolbox
   \\    /   O peration     | Website:  https://openfoam.org
    \\  /    A nd           | Version:  11
     \\/     M anipulation  |
\*---------------------------------------------------------------------------*/
FoamFile
{
    format      ascii;
    class       volVectorField;
    location    "11.157404";
    object      vorticity;
}
// * * * * * * * * * * * * * * * * * * * * * * * * * * * * * * * * * * * * * //

dimensions      [0 0 -1 0 0 0 0];

internalField   nonuniform List<vector> 
7132
(
(-6.0566e-17 -1.87128e-15 -0.00913768)
(-2.03181e-16 -1.81181e-15 -0.00931759)
(-1.95711e-16 -2.38824e-17 -0.00962732)
(-2.30837e-16 -1.79965e-15 -0.0100251)
(-3.08236e-16 -1.77664e-15 -0.0104507)
(-2.92637e-16 1.89132e-17 -0.0108433)
(-2.5144e-16 3.7737e-17 -0.0111557)
(-2.01565e-16 3.62901e-17 -0.0113595)
(-1.6779e-16 2.88135e-17 -0.0114515)
(-1.41137e-16 2.05719e-17 -0.0114479)
(-1.203e-16 1.16349e-17 -0.0113769)
(-5.74845e-17 5.09671e-18 -0.0112941)
(-7.12091e-17 -1.937e-18 -0.0112412)
(-7.57802e-17 3.75278e-17 -0.0112614)
(2.17323e-17 -1.6475e-15 -0.0113772)
(1.27017e-16 -1.63706e-15 -0.0115701)
(2.30568e-16 -3.41861e-15 -0.0117902)
(2.36435e-16 2.73878e-17 -0.0119585)
(3.19553e-16 -1.68769e-15 -0.0119883)
(3.539e-16 -1.72698e-15 -0.0118085)
(2.85875e-16 -1.95392e-17 -0.0113814)
(1.90408e-16 -5.91443e-18 -0.0107269)
(-4.6754e-17 -3.89697e-18 -0.00998234)
(-1.96127e-15 -1.90339e-17 -0.00935003)
(-6.50494e-15 1.75017e-15 -0.00898398)
(-8.83422e-15 7.74344e-17 -0.00898451)
(-6.03586e-15 4.32549e-17 -0.00943613)
(-2.09117e-15 -5.80935e-17 -0.0103701)
(-1.63008e-16 -9.28428e-18 -0.0116204)
(-2.68708e-17 1.92938e-15 -0.0128692)
(6.83298e-16 1.31563e-15 -0.0138189)
(3.5646e-15 1.05808e-15 -0.0142658)
(-9.57997e-15 3.02319e-15 -0.0141016)
(-4.27409e-14 3.55139e-14 -0.0133081)
(1.36293e-13 3.46466e-14 -0.0119851)
(8.35667e-13 -3.61915e-13 -0.0104342)
(-1.09599e-13 -1.67475e-12 -0.00912186)
(-9.59641e-12 -3.29445e-12 -0.00835329)
(-2.7203e-11 -3.06156e-12 -0.00811392)
(-3.63152e-11 -2.29558e-13 -0.00823877)
(-2.84593e-11 2.6554e-12 -0.00874533)
(-1.46515e-11 3.16243e-12 -0.00989916)
(-4.81339e-12 1.9726e-12 -0.0117807)
(-5.51502e-13 8.02925e-13 -0.0139599)
(2.89556e-13 2.02783e-13 -0.0158277)
(2.17704e-13 -7.92031e-14 -0.016926)
(5.73538e-13 -4.59217e-13 -0.0170327)
(1.48443e-13 -7.50029e-13 -0.016167)
(-5.60739e-12 8.02335e-13 -0.0146029)
(-1.34912e-11 7.90316e-12 -0.0128469)
(2.18187e-11 2.4124e-11 -0.011495)
(2.25605e-10 4.5999e-11 -0.0107004)
(7.24144e-10 5.92137e-11 -0.00984889)
(1.40046e-09 4.75689e-11 -0.00878349)
(1.84297e-09 9.09452e-12 -0.00848833)
(1.74001e-09 -3.48901e-11 -0.00958187)
(1.21561e-09 -5.44511e-11 -0.0115812)
(6.22312e-10 -4.67286e-11 -0.0140989)
(2.03985e-10 -3.24138e-11 -0.0165881)
(1.19065e-11 -2.03477e-11 -0.0183752)
(-3.21183e-11 -6.52536e-12 -0.0192674)
(-2.95269e-11 9.43506e-12 -0.0193515)
(-3.5527e-11 8.85689e-12 -0.0186754)
(-6.77404e-12 -5.88103e-11 -0.0167636)
(2.47321e-10 -2.58952e-10 -0.0121462)
(1.03751e-09 -6.1873e-10 -0.00276315)
(2.60582e-09 -1.07449e-09 0.0123813)
(4.84911e-09 -1.46251e-09 0.0318254)
(7.27883e-09 -1.58085e-09 0.052749)
(9.30455e-09 -1.29791e-09 0.0731306)
(1.04749e-08 -6.34872e-10 0.0910969)
(1.04768e-08 2.28991e-10 0.102209)
(9.18865e-09 1.03331e-09 0.100132)
(6.90497e-09 1.55434e-09 0.0819211)
(4.29944e-09 1.67178e-09 0.0517752)
(2.06407e-09 1.39828e-09 0.0191602)
(5.88255e-10 8.94016e-10 -0.00633463)
(-1.19969e-10 3.69958e-10 -0.0197186)
(-2.53715e-10 -6.71229e-11 -0.0219203)
(2.42926e-11 -4.50975e-10 -0.0180855)
(6.60183e-10 -8.4938e-10 -0.0151835)
(1.60645e-09 -1.25643e-09 -0.0197549)
(2.69997e-09 -1.58971e-09 -0.0347968)
(3.68655e-09 -1.76396e-09 -0.057484)
(4.35785e-09 -1.75334e-09 -0.0803947)
(4.6488e-09 -1.59619e-09 -0.0957881)
(4.62647e-09 -1.36097e-09 -0.0992531)
(4.41191e-09 -1.11573e-09 -0.090493)
(4.09506e-09 -8.95499e-10 -0.0723307)
(3.7195e-09 -6.41695e-10 -0.0482689)
(3.32414e-09 -1.92669e-10 -0.0206812)
(2.90319e-09 6.14624e-10 0.0067842)
(2.41092e-09 1.74477e-09 0.0282009)
(1.81876e-09 2.81851e-09 0.037445)
(1.16725e-09 3.29259e-09 0.0323291)
(5.56292e-10 2.89883e-09 0.0169316)
(9.23809e-11 1.88489e-09 -0.000509704)
(-1.50783e-10 7.86158e-10 -0.012407)
(-1.43239e-10 1.10393e-11 -0.0153549)
(9.59541e-11 -3.43449e-10 -0.0101664)
(4.82905e-10 -3.91589e-10 -9.69634e-05)
(8.74269e-10 -2.89346e-10 0.0106142)
(1.12165e-09 -1.45728e-10 0.0180157)
(1.1462e-09 -1.57396e-11 0.0196232)
(9.70851e-10 7.6352e-11 0.0150766)
(6.87903e-10 1.21059e-10 0.00628338)
(4.01179e-10 1.22127e-10 -0.00357249)
(1.80554e-10 9.45094e-11 -0.0116641)
(4.76338e-11 5.70104e-11 -0.0164921)
(-1.16572e-11 2.47126e-11 -0.0180143)
(-2.5428e-11 4.61989e-12 -0.0171634)
(-1.92603e-11 -3.81025e-12 -0.0151687)
(-9.19454e-12 -4.91821e-12 -0.0130352)
(-2.02838e-12 -3.15463e-12 -0.0113311)
(1.2367e-12 -1.2414e-12 -0.0102318)
(1.94297e-12 -1.39345e-13 -0.00967856)
(1.64915e-12 1.91011e-13 -0.0095279)
(1.32367e-12 1.16501e-13 -0.0096344)
(1.31004e-12 -6.2593e-14 -0.00988003)
(1.57018e-12 -1.90012e-13 -0.0101824)
(1.92591e-12 -2.19147e-13 -0.0104898)
(2.20636e-12 -1.7067e-13 -0.0107713)
(2.30896e-12 -7.65467e-14 -0.0110066)
(2.2107e-12 2.86084e-14 -0.0111785)
(1.95397e-12 1.15926e-13 -0.011273)
(1.61105e-12 1.75025e-13 -0.0112838)
(1.25374e-12 1.96134e-13 -0.011215)
(9.35852e-13 1.84962e-13 -0.0110805)
(6.88036e-13 1.50522e-13 -0.0109016)
(5.20722e-13 1.0152e-13 -0.0107028)
(4.30776e-13 5.23226e-14 -0.0105075)
(4.08011e-13 4.18255e-15 -0.0103348)
(4.39884e-13 -3.74783e-14 -0.0101971)
(5.13835e-13 -7.09936e-14 -0.0100999)
(6.17899e-13 -9.75517e-14 -0.0100424)
(7.40598e-13 -1.11842e-13 -0.0100193)
(8.70804e-13 -1.19229e-13 -0.0100224)
(9.98149e-13 -1.18341e-13 -0.0100426)
(1.11325e-12 -1.09801e-13 -0.010071)
(1.20825e-12 -9.64401e-14 -0.0101004)
(1.27751e-12 -7.4729e-14 -0.010125)
(1.31831e-12 -5.21861e-14 -0.0101413)
(1.33132e-12 -2.97176e-14 -0.0101471)
(1.32027e-12 -9.79074e-15 -0.0101416)
(1.29095e-12 3.95197e-15 -0.0101254)
(1.25023e-12 1.56392e-14 -0.0100998)
(1.20495e-12 1.98208e-14 -0.0100665)
(1.16109e-12 1.87298e-14 -0.010028)
(1.12325e-12 1.34143e-14 -0.00998629)
(1.09436e-12 3.48038e-15 -0.00994361)
(1.0758e-12 -4.42781e-15 -0.0099016)
(1.06755e-12 -1.4222e-14 -0.00986154)
(1.06853e-12 -2.31363e-14 -0.00982401)
(1.07697e-12 -3.04434e-14 -0.00978939)
(1.09064e-12 -3.75181e-14 -0.00975706)
(1.10737e-12 -3.88925e-14 -0.00972719)
(1.12502e-12 -4.05257e-14 -0.00969729)
(1.14226e-12 -3.81145e-14 -0.00967108)
(1.15643e-12 -4.59438e-14 -0.00963474)
(1.1747e-12 -3.01671e-14 -0.00961248)
(-6.11848e-17 -5.74621e-18 -0.0273258)
(-2.11808e-16 -9.29759e-18 -0.0278652)
(-2.15177e-16 -9.20743e-18 -0.0288015)
(-2.5961e-16 -1.036e-17 -0.030017)
(-3.46816e-16 -1.10193e-17 -0.0313367)
(-3.41784e-16 -7.79044e-18 -0.0325774)
(-3.15506e-16 -7.79893e-18 -0.0335904)
(-2.9588e-16 -5.53485e-18 -0.0342761)
(-1.68199e-16 1.73332e-15 -0.0346081)
(-1.32017e-16 -3.17307e-18 -0.0346149)
(-3.16523e-16 -3.01914e-17 -0.0343568)
(-5.02987e-16 1.71527e-15 -0.0339793)
(-3.99426e-16 7.21083e-18 -0.0335871)
(-1.28747e-16 -8.51941e-18 -0.03329)
(1.43931e-16 -1.24814e-17 -0.0331552)
(3.2683e-16 -7.17657e-18 -0.0331952)
(4.85854e-16 -5.56117e-18 -0.0333858)
(5.55123e-16 -1.03284e-17 -0.0336596)
(6.57211e-16 -8.30874e-18 -0.0339338)
(4.92574e-16 1.7811e-17 -0.0341338)
(-2.6248e-16 5.88183e-17 -0.0342057)
(-8.10804e-16 1.604e-16 -0.0341383)
(-2.2613e-15 1.07194e-15 -0.034035)
(-3.756e-14 3.21176e-15 -0.0340225)
(-1.31884e-13 3.45192e-15 -0.034067)
(-1.73066e-13 -1.58802e-16 -0.0340238)
(-1.01421e-13 -3.32827e-15 -0.0338594)
(-2.52102e-14 -2.99452e-15 -0.0337246)
(6.47535e-16 -1.04482e-15 -0.0337301)
(2.55577e-15 -2.31884e-16 -0.0338549)
(1.68741e-14 -4.80105e-16 -0.033991)
(1.26639e-14 -7.45789e-16 -0.0340005)
(-2.40992e-13 2.44412e-14 -0.0337778)
(-2.26553e-13 -3.91592e-14 -0.0333508)
(3.70427e-12 -4.08023e-13 -0.0329775)
(9.1851e-12 -2.38964e-13 -0.0331724)
(-3.62735e-11 3.53955e-12 -0.0345906)
(-2.36581e-10 1.02505e-11 -0.0375075)
(-5.62872e-10 1.02961e-11 -0.0409105)
(-7.51551e-10 3.9335e-13 -0.042626)
(-6.22382e-10 -8.17642e-12 -0.0416645)
(-3.29234e-10 -8.66225e-12 -0.0393757)
(-1.06987e-10 -5.07915e-12 -0.0374926)
(-9.98177e-12 -1.75029e-12 -0.036589)
(1.12814e-11 -1.85293e-13 -0.0363994)
(8.53171e-12 -2.21194e-13 -0.0363336)
(5.61751e-12 -4.26314e-13 -0.0358497)
(-6.34779e-12 2.3387e-12 -0.0349288)
(-5.17331e-11 7.62042e-12 -0.0344335)
(-5.12286e-11 -5.81332e-12 -0.03529)
(4.2337e-10 -9.54257e-11 -0.0358157)
(2.20465e-09 -3.05162e-10 -0.0296724)
(5.78756e-09 -5.28217e-10 -0.0108912)
(1.0195e-08 -5.11842e-10 0.0154038)
(1.30858e-08 -1.60682e-10 0.0325167)
(1.26042e-08 2.78784e-10 0.027751)
(9.1563e-09 5.04403e-10 0.00555223)
(4.93157e-09 4.59083e-10 -0.0191489)
(1.78259e-09 2.72789e-10 -0.0354888)
(2.14922e-10 9.77023e-11 -0.0415729)
(-2.25783e-10 1.41896e-11 -0.0414163)
(-2.18318e-10 1.11411e-11 -0.0396437)
(-1.60434e-10 -2.52128e-12 -0.0381513)
(5.7439e-11 -2.00233e-10 -0.0349367)
(1.062e-09 -7.81096e-10 -0.0248779)
(3.61808e-09 -1.79798e-09 -0.00378253)
(7.84908e-09 -2.98029e-09 0.0260921)
(1.27698e-08 -3.79902e-09 0.0570743)
(1.69878e-08 -3.80857e-09 0.0870386)
(1.98411e-08 -2.89597e-09 0.124309)
(2.15218e-08 -1.22098e-09 0.175844)
(2.21054e-08 8.72138e-10 0.231416)
(2.09225e-08 2.81922e-09 0.26342)
(1.73327e-08 3.99895e-09 0.246937)
(1.19332e-08 4.09222e-09 0.181755)
(6.37205e-09 3.25387e-09 0.0931777)
(2.16425e-09 1.98604e-09 0.0144785)
(-1.06815e-10 7.90941e-10 -0.0328152)
(-6.4366e-10 -1.39252e-10 -0.0478545)
(1.42531e-10 -9.07927e-10 -0.0472821)
(1.89879e-09 -1.64046e-09 -0.0555751)
(4.17961e-09 -2.27632e-09 -0.0921449)
(6.36002e-09 -2.62976e-09 -0.158152)
(7.88363e-09 -2.5929e-09 -0.233874)
(8.54532e-09 -2.23447e-09 -0.292006)
(8.49681e-09 -1.7305e-09 -0.315238)
(8.05494e-09 -1.24252e-09 -0.302649)
(7.52692e-09 -8.50017e-10 -0.263147)
(7.0913e-09 -5.49294e-10 -0.206265)
(6.78069e-09 -2.56239e-10 -0.137145)
(6.55872e-09 2.1549e-10 -0.0581875)
(6.26024e-09 1.07124e-09 0.0230669)
(5.63434e-09 2.28699e-09 0.0900569)
(4.52489e-09 3.44035e-09 0.12322)
(3.0347e-09 3.92382e-09 0.113174)
(1.49251e-09 3.43627e-09 0.0692219)
(2.77651e-10 2.23843e-09 0.0147171)
(-3.1227e-10 9.03967e-10 -0.0260917)
(-1.12045e-10 -1.12328e-10 -0.0386616)
(8.52004e-10 -6.5652e-10 -0.0210853)
(2.28749e-09 -7.80745e-10 0.017547)
(3.67927e-09 -6.08718e-10 0.0608858)
(4.50278e-09 -2.81696e-10 0.0916946)
(4.48883e-09 5.96637e-11 0.0992011)
(3.74491e-09 3.05504e-10 0.0830146)
(2.62766e-09 4.05897e-10 0.0513691)
(1.52115e-09 3.75803e-10 0.0160306)
(6.79671e-10 2.71282e-10 -0.0131244)
(1.76912e-10 1.53118e-10 -0.0312641)
(-4.56858e-11 6.12452e-11 -0.0386335)
(-9.67513e-11 8.42317e-12 -0.0385581)
(-7.31893e-11 -1.19252e-11 -0.0350569)
(-3.50983e-11 -1.35342e-11 -0.0312084)
(-7.82826e-12 -8.36678e-12 -0.0286029)
(4.83623e-12 -3.22534e-12 -0.0275958)
(7.84457e-12 -3.43841e-13 -0.027861)
(7.01689e-12 5.02395e-13 -0.0288694)
(6.01671e-12 2.86058e-13 -0.0301473)
(6.1652e-12 -1.84116e-13 -0.0313612)
(7.31013e-12 -4.9621e-13 -0.0323201)
(8.73654e-12 -5.35501e-13 -0.0329447)
(9.75845e-12 -3.60461e-13 -0.0332325)
(9.98255e-12 -7.87158e-14 -0.033226)
(9.35911e-12 2.0784e-13 -0.0329862)
(8.10879e-12 4.17484e-13 -0.0325772)
(6.56002e-12 5.28608e-13 -0.032062)
(5.01708e-12 5.35468e-13 -0.0315005)
(3.69126e-12 4.67812e-13 -0.0309478)
(2.68872e-12 3.59822e-13 -0.0304513)
(2.03194e-12 2.31884e-13 -0.0300475)
(1.69234e-12 1.10412e-13 -0.0297586)
(1.61893e-12 1.36337e-15 -0.0295914)
(1.75633e-12 -9.03901e-14 -0.0295376)
(2.05263e-12 -1.58266e-13 -0.0295772)
(2.4602e-12 -2.09199e-13 -0.0296822)
(2.93399e-12 -2.3656e-13 -0.0298225)
(3.43086e-12 -2.46269e-13 -0.0299693)
(3.91057e-12 -2.39566e-13 -0.0300986)
(4.33708e-12 -2.13115e-13 -0.0301934)
(4.68091e-12 -1.76834e-13 -0.0302437)
(4.92194e-12 -1.28027e-13 -0.0302465)
(5.05175e-12 -7.73571e-14 -0.0302044)
(5.07494e-12 -3.06953e-14 -0.0301235)
(5.00753e-12 1.38663e-14 -0.0300124)
(4.87311e-12 4.07023e-14 -0.0298808)
(4.69852e-12 6.03729e-14 -0.029738)
(4.50989e-12 6.61286e-14 -0.0295927)
(4.32955e-12 5.95815e-14 -0.0294518)
(4.1742e-12 4.85143e-14 -0.0293205)
(4.0542e-12 2.89368e-14 -0.0292019)
(3.97392e-12 1.07107e-14 -0.029097)
(3.93265e-12 -8.85331e-15 -0.0290052)
(3.9258e-12 -2.78441e-14 -0.028924)
(3.94632e-12 -3.97636e-14 -0.0288509)
(3.98592e-12 -5.0985e-14 -0.0287813)
(4.03631e-12 -5.4345e-14 -0.0287136)
(4.08983e-12 -5.62365e-14 -0.0286398)
(4.14117e-12 -5.38192e-14 -0.0285702)
(4.18275e-12 -6.04263e-14 -0.0284651)
(4.23139e-12 -3.75658e-14 -0.0283917)
(-1.92004e-18 -6.48564e-20 -0.0452622)
(-2.24221e-17 -8.56706e-20 -0.0461593)
(-4.15491e-17 1.86395e-20 -0.0477295)
(-6.72826e-17 8.91033e-19 -0.0497833)
(-8.94165e-17 -8.31895e-19 -0.0520313)
(-1.03674e-16 3.25832e-18 -0.0541654)
(-2.3788e-16 1.4785e-17 -0.0559283)
(-2.84861e-17 -2.38108e-17 -0.0571388)
(2.92944e-16 -5.31182e-17 -0.0577362)
(-7.49178e-16 8.11811e-17 -0.0577462)
(-2.26589e-15 2.03896e-16 -0.0572443)
(-1.98866e-15 4.65482e-17 -0.0564662)
(2.0761e-17 -1.95833e-16 -0.0555582)
(1.91643e-15 -2.34151e-16 -0.0546961)
(2.36575e-15 -1.40565e-16 -0.0540164)
(1.84352e-15 -7.32968e-17 -0.0535897)
(1.08357e-15 -6.33048e-17 -0.0534846)
(3.40557e-16 -5.82906e-17 -0.0537467)
(-9.38324e-16 7.83097e-17 -0.0544127)
(-4.1278e-15 4.67594e-16 -0.0554978)
(-9.24297e-15 6.3215e-16 -0.0569645)
(-1.42599e-14 9.93496e-16 -0.0587248)
(-3.96475e-14 1.83707e-14 -0.0606394)
(-1.17028e-13 6.47923e-14 -0.0624083)
(-1.46372e-13 6.77685e-14 -0.0635049)
(-8.29229e-14 -1.51542e-14 -0.0633173)
(3.54916e-14 -7.38847e-14 -0.0615573)
(9.10725e-14 -5.10922e-14 -0.0585345)
(4.8649e-14 -1.38923e-14 -0.0548987)
(2.54233e-14 -7.93217e-15 -0.0513688)
(1.11437e-13 -5.4596e-15 -0.0485731)
(-1.41887e-13 1.26549e-13 -0.0469619)
(-1.46571e-12 1.22618e-13 -0.0468085)
(1.61422e-12 -1.93886e-12 -0.0483177)
(2.1235e-11 -4.67291e-12 -0.0516736)
(1.02499e-11 1.96252e-11 -0.0571706)
(-2.45769e-10 1.21206e-10 -0.0659285)
(-9.45539e-10 2.60005e-10 -0.0790332)
(-1.89449e-09 2.54422e-10 -0.0933485)
(-2.52936e-09 2.95241e-11 -0.100667)
(-2.33233e-09 -2.08505e-10 -0.0955738)
(-1.44512e-09 -2.54537e-10 -0.081927)
(-5.8461e-10 -1.57654e-10 -0.0674802)
(-1.0921e-10 -5.83328e-11 -0.0560868)
(4.4276e-11 -9.05571e-12 -0.0482994)
(5.2271e-11 2.75096e-12 -0.0435604)
(2.64979e-11 6.97883e-12 -0.0413292)
(-5.24172e-11 2.79253e-11 -0.0421517)
(-1.95986e-10 2.3241e-11 -0.047455)
(1.12254e-10 -2.2965e-10 -0.0546276)
(2.43397e-09 -1.10381e-09 -0.049204)
(8.58985e-09 -2.63609e-09 -0.00845373)
(1.84114e-08 -3.93596e-09 0.075607)
(2.88817e-08 -3.60155e-09 0.178496)
(3.58144e-08 -1.19553e-09 0.25273)
(3.58749e-08 1.92985e-09 0.256222)
(2.85475e-08 3.78189e-09 0.185224)
(1.74002e-08 3.64013e-09 0.0822427)
(7.50189e-09 2.32591e-09 -0.00153735)
(1.61576e-09 9.8384e-10 -0.0434457)
(-5.56041e-10 2.10095e-10 -0.0519059)
(-7.90612e-10 -2.32361e-11 -0.0471947)
(-4.61415e-10 -1.29022e-10 -0.0421886)
(3.62077e-10 -6.70021e-10 -0.036272)
(2.57982e-09 -2.03927e-09 -0.0235182)
(6.68455e-09 -4.01227e-09 -0.00780288)
(1.14773e-08 -5.65037e-09 -0.0063143)
(1.46699e-08 -6.03186e-09 -0.0268663)
(1.50921e-08 -5.11646e-09 -0.044308)
(1.37912e-08 -3.56489e-09 -0.0167379)
(1.30302e-08 -1.76704e-09 0.0761147)
(1.43436e-08 5.28645e-10 0.213439)
(1.69193e-08 3.41965e-09 0.339574)
(1.79188e-08 6.04898e-09 0.391581)
(1.53399e-08 7.15212e-09 0.342208)
(9.98277e-09 6.28274e-09 0.219802)
(4.3663e-09 4.13346e-09 0.0854026)
(5.93458e-10 1.77392e-09 -0.00994345)
(-6.09613e-10 -1.91792e-10 -0.0548948)
(4.15535e-10 -1.7222e-09 -0.0792253)
(2.73571e-09 -2.86792e-09 -0.129375)
(5.13641e-09 -3.48704e-09 -0.230077)
(6.61064e-09 -3.44172e-09 -0.358858)
(6.84224e-09 -2.85661e-09 -0.46115)
(6.18511e-09 -2.05993e-09 -0.493376)
(5.212e-09 -1.35099e-09 -0.451794)
(4.32841e-09 -8.76023e-10 -0.36656)
(3.7269e-09 -6.33904e-10 -0.274354)
(3.53474e-09 -5.22379e-10 -0.19323)
(3.85019e-09 -3.75404e-10 -0.117134)
(4.60955e-09 6.75579e-11 -0.0314514)
(5.46854e-09 1.07682e-09 0.0674606)
(5.85896e-09 2.61245e-09 0.160205)
(5.32336e-09 4.11833e-09 0.212882)
(3.87553e-09 4.80878e-09 0.202044)
(2.0231e-09 4.27735e-09 0.134511)
(4.92156e-10 2.78728e-09 0.0451311)
(-4.84764e-11 9.81006e-10 -0.0225451)
(8.00785e-10 -5.71098e-10 -0.0363685)
(2.94829e-09 -1.54321e-09 0.0123345)
(5.75598e-09 -1.80522e-09 0.106336)
(8.29435e-09 -1.39699e-09 0.210037)
(9.72402e-09 -5.50511e-10 0.2841)
(9.60806e-09 3.63196e-10 0.302251)
(8.08604e-09 1.00694e-09 0.262554)
(5.77242e-09 1.23294e-09 0.184675)
(3.41542e-09 1.09612e-09 0.0971856)
(1.56976e-09 7.66628e-10 0.0242341)
(4.34944e-10 4.19689e-10 -0.0226643)
(-8.51518e-11 1.61546e-10 -0.0444883)
(-2.15866e-10 1.83716e-11 -0.049312)
(-1.70184e-10 -3.4635e-11 -0.0463578)
(-8.50786e-11 -3.75988e-11 -0.0423344)
(-2.10428e-11 -2.31219e-11 -0.0404813)
(1.07068e-11 -9.07608e-12 -0.0413548)
(2.00456e-11 -1.22967e-12 -0.0441395)
(1.9941e-11 1.10668e-12 -0.0476924)
(1.89827e-11 5.42345e-13 -0.0510807)
(2.0426e-11 -7.09304e-13 -0.0537371)
(2.39238e-11 -1.47395e-12 -0.0554196)
(2.7651e-11 -1.44331e-12 -0.0561153)
(2.98498e-11 -7.93675e-13 -0.0559527)
(2.95965e-11 1.23122e-13 -0.0551349)
(2.69529e-11 9.6549e-13 -0.0538895)
(2.27106e-11 1.5172e-12 -0.0524327)
(1.78864e-11 1.72088e-12 -0.0509542)
(1.33405e-11 1.63052e-12 -0.0496079)
(9.60683e-12 1.34914e-12 -0.048506)
(6.89719e-12 9.80183e-13 -0.0477157)
(5.19486e-12 6.01445e-13 -0.0472601)
(4.36358e-12 2.58825e-13 -0.0471225)
(4.23032e-12 -2.78124e-14 -0.0472552)
(4.63006e-12 -2.54326e-13 -0.0475889)
(5.41946e-12 -4.22928e-13 -0.0480448)
(6.47278e-12 -5.36501e-13 -0.0485454)
(7.67352e-12 -5.97174e-13 -0.0490226)
(8.91136e-12 -6.07517e-13 -0.0494236)
(1.0084e-11 -5.71451e-13 -0.0497135)
(1.11009e-11 -4.94973e-13 -0.049875)
(1.18907e-11 -3.87136e-13 -0.0499072)
(1.24083e-11 -2.60146e-13 -0.0498222)
(1.26397e-11 -1.28683e-13 -0.0496406)
(1.26041e-11 -7.60981e-15 -0.049388)
(1.23479e-11 9.11222e-14 -0.0490911)
(1.19345e-11 1.60194e-13 -0.0487751)
(1.1433e-11 1.97249e-13 -0.0484617)
(1.09084e-11 2.04304e-13 -0.0481681)
(1.04145e-11 1.86577e-13 -0.047906)
(9.98987e-12 1.51089e-13 -0.0476814)
(9.6572e-12 1.05354e-13 -0.0474957)
(9.42443e-12 5.63481e-14 -0.0473454)
(9.28753e-12 9.83917e-15 -0.0472244)
(9.23364e-12 -2.99734e-14 -0.0471238)
(9.24464e-12 -6.05053e-14 -0.0470349)
(9.30002e-12 -8.07746e-14 -0.0469473)
(9.37978e-12 -9.08452e-14 -0.046856)
(9.46611e-12 -9.29553e-14 -0.0467471)
(9.54541e-12 -8.45745e-14 -0.0466375)
(9.60733e-12 -9.10556e-14 -0.0464615)
(9.65904e-12 -5.27537e-14 -0.0463342)
(-5.6445e-17 6.42487e-18 -0.0627639)
(-1.87661e-16 1.0517e-17 -0.0640147)
(-1.68013e-16 1.32228e-17 -0.0662187)
(-2.30392e-16 1.35737e-17 -0.06911)
(-1.43086e-16 7.1764e-18 -0.0722792)
(-4.60981e-16 6.64411e-17 -0.0752888)
(-3.29339e-16 -4.53929e-17 -0.0777736)
(1.98071e-15 -2.70947e-16 -0.0794736)
(-2.56627e-15 2.09367e-15 -0.080305)
(-9.65674e-15 1.27624e-15 -0.0802962)
(-5.6833e-16 -1.14517e-15 -0.0795423)
(1.46611e-14 5.71951e-16 -0.0784066)
(1.06645e-14 -1.94534e-15 -0.0770867)
(-3.83587e-15 -1.18101e-15 -0.0758213)
(-1.38814e-14 2.39732e-17 -0.0747584)
(-1.97233e-14 6.33912e-16 -0.0740134)
(-2.32577e-14 7.4592e-16 -0.0737359)
(-2.7165e-14 1.00062e-15 -0.0740339)
(-3.53242e-14 2.22587e-15 -0.074998)
(-4.85175e-14 4.17013e-15 -0.0766827)
(-4.71317e-14 5.12486e-15 -0.0790287)
(-1.27093e-13 1.53627e-14 -0.0818265)
(-3.88481e-13 5.24559e-14 -0.0847894)
(2.72637e-12 5.65743e-14 -0.0875217)
(1.32939e-11 -1.36005e-14 -0.0892973)
(1.98869e-11 -9.10908e-14 -0.0891594)
(1.35804e-11 -9.0326e-14 -0.0865743)
(4.73598e-12 -9.57324e-15 -0.0819139)
(6.84768e-13 3.17798e-14 -0.076069)
(-9.18566e-14 -3.16259e-14 -0.0701051)
(7.65675e-14 8.49095e-14 -0.0651242)
(-1.5398e-12 7.87825e-13 -0.0621316)
(-1.67493e-12 -8.53613e-13 -0.0618431)
(1.75692e-11 -1.13895e-11 -0.0645708)
(1.6879e-11 -4.72589e-12 -0.0704388)
(-1.79423e-10 1.33263e-10 -0.0804043)
(-3.19964e-10 4.81434e-10 -0.0960965)
(9.70782e-10 8.34611e-10 -0.115125)
(3.94508e-09 8.02206e-10 -0.131792)
(5.60463e-09 2.19316e-10 -0.142652)
(3.93272e-09 -5.50297e-10 -0.142161)
(1.17067e-09 -8.82523e-10 -0.126191)
(-2.87441e-10 -6.73033e-10 -0.102221)
(-4.13788e-10 -3.16193e-10 -0.079728)
(-1.16156e-10 -8.09276e-11 -0.0632543)
(6.71769e-11 8.66785e-12 -0.0532607)
(5.00797e-11 5.19178e-11 -0.0493347)
(-1.9059e-10 1.1358e-10 -0.0529384)
(-3.25946e-10 -7.47151e-11 -0.0634984)
(1.32907e-09 -1.32079e-09 -0.0657908)
(7.50419e-09 -4.33422e-09 -0.026441)
(1.86876e-08 -8.29389e-09 0.0774682)
(3.10563e-08 -1.06742e-08 0.229684)
(4.0486e-08 -9.21332e-09 0.394811)
(4.65174e-08 -3.65724e-09 0.538258)
(4.92619e-08 3.91222e-09 0.606387)
(4.568e-08 9.74175e-09 0.541833)
(3.39077e-08 1.09819e-08 0.357004)
(1.84566e-08 8.16499e-09 0.146068)
(6.13197e-09 4.12666e-09 -0.000496487)
(-8.71789e-11 1.21737e-09 -0.0602431)
(-1.63801e-09 -3.61716e-11 -0.0652758)
(-1.00334e-09 -5.78866e-10 -0.0521347)
(9.32584e-10 -1.72085e-09 -0.0359932)
(4.45065e-09 -3.94233e-09 -0.0270274)
(8.71278e-09 -6.24673e-09 -0.0536561)
(1.10983e-08 -6.97299e-09 -0.14118)
(9.67326e-09 -5.6064e-09 -0.257217)
(5.25207e-09 -3.36919e-09 -0.314886)
(3.39024e-10 -1.86501e-09 -0.249786)
(-2.66028e-09 -1.49721e-09 -0.070168)
(-1.95547e-09 -1.07242e-09 0.165289)
(2.79417e-09 1.03163e-09 0.38413)
(9.00032e-09 4.78863e-09 0.513376)
(1.23694e-08 8.06025e-09 0.503832)
(1.08677e-08 8.74069e-09 0.369205)
(6.26079e-09 6.6807e-09 0.184872)
(1.90369e-09 3.2789e-09 0.0325382)
(4.57248e-11 -5.02908e-11 -0.0605535)
(8.54693e-10 -2.58059e-09 -0.135614)
(2.9144e-09 -4.00089e-09 -0.253381)
(4.46978e-09 -4.21379e-09 -0.42038)
(4.64699e-09 -3.48268e-09 -0.567069)
(3.73746e-09 -2.38013e-09 -0.606839)
(2.54871e-09 -1.41935e-09 -0.508543)
(1.66275e-09 -8.02147e-10 -0.313378)
(1.16405e-09 -4.99973e-10 -0.1007)
(8.38845e-10 -4.53181e-10 0.0585049)
(6.19848e-10 -6.10939e-10 0.136653)
(7.80568e-10 -7.93643e-10 0.156596)
(1.60805e-09 -5.93686e-10 0.166687)
(2.98642e-09 4.4653e-10 0.203565)
(4.2414e-09 2.35958e-09 0.262261)
(4.55913e-09 4.43206e-09 0.300622)
(3.651e-09 5.57395e-09 0.276586)
(2.03032e-09 5.12796e-09 0.186152)
(7.4717e-10 3.27422e-09 0.0709806)
(8.50534e-10 7.49652e-10 -0.00595357)
(2.78283e-09 -1.61071e-09 0.00386189)
(6.03794e-09 -3.13412e-09 0.109183)
(9.53387e-09 -3.45378e-09 0.278591)
(1.23257e-08 -2.59274e-09 0.458578)
(1.38816e-08 -9.38549e-10 0.592319)
(1.38934e-08 8.78657e-10 0.635541)
(1.22425e-08 2.22333e-09 0.573968)
(9.29271e-09 2.7412e-09 0.432081)
(5.89233e-09 2.47713e-09 0.260086)
(2.94075e-09 1.76152e-09 0.10801)
(9.51915e-10 9.80574e-10 0.00431846)
(-5.40986e-11 3.8665e-10 -0.0485464)
(-3.63922e-10 5.09395e-11 -0.0648419)
(-3.2118e-10 -7.7319e-11 -0.0628957)
(-1.75953e-10 -8.8105e-11 -0.0567082)
(-5.26292e-11 -5.62612e-11 -0.0534193)
(1.63306e-11 -2.37695e-11 -0.054662)
(4.30814e-11 -4.96094e-12 -0.0591671)
(5.0133e-11 1.03384e-12 -0.0648998)
(5.39583e-11 4.35784e-14 -0.0701995)
(6.12031e-11 -2.65468e-12 -0.0741305)
(7.1104e-11 -4.10871e-12 -0.0763936)
(7.96462e-11 -3.49847e-12 -0.0771013)
(8.30621e-11 -1.33325e-12 -0.0765694)
(7.97144e-11 1.3697e-12 -0.0751734)
(7.04142e-11 3.65083e-12 -0.0732639)
(5.76281e-11 4.95078e-12 -0.0711331)
(4.41282e-11 5.21191e-12 -0.0690252)
(3.20479e-11 4.67523e-12 -0.0671437)
(2.25459e-11 3.68946e-12 -0.0656443)
(1.59228e-11 2.56581e-12 -0.0646235)
(1.1936e-11 1.49869e-12 -0.0641109)
(1.01084e-11 5.92682e-13 -0.0640726)
(9.93602e-12 -1.31876e-13 -0.0644238)
(1.09827e-11 -6.8496e-13 -0.0650475)
(1.28928e-11 -1.07963e-12 -0.0658159)
(1.53662e-11 -1.33623e-12 -0.0666084)
(1.813e-11 -1.45585e-12 -0.0673253)
(2.09283e-11 -1.45149e-12 -0.0678943)
(2.35249e-11 -1.33431e-12 -0.0682731)
(2.57143e-11 -1.11647e-12 -0.0684477)
(2.73411e-11 -8.30542e-13 -0.0684275)
(2.83162e-11 -5.02556e-13 -0.0682397)
(2.86259e-11 -1.75274e-13 -0.0679218)
(2.83314e-11 1.15226e-13 -0.0675154)
(2.75531e-11 3.46943e-13 -0.0670605)
(2.64443e-11 4.98138e-13 -0.0665931)
(2.51654e-11 5.73393e-13 -0.0661425)
(2.38622e-11 5.7538e-13 -0.0657305)
(2.26511e-11 5.18867e-13 -0.0653704)
(2.16124e-11 4.27173e-13 -0.065068)
(2.07899e-11 3.11658e-13 -0.0648218)
(2.01949e-11 1.95546e-13 -0.0646247)
(1.98134e-11 8.65407e-14 -0.0644657)
(1.96135e-11 -6.4026e-15 -0.064331)
(1.95532e-11 -7.29509e-14 -0.064208)
(1.95867e-11 -1.18553e-13 -0.0640816)
(1.96705e-11 -1.37391e-13 -0.0639458)
(1.97673e-11 -1.39053e-13 -0.0637817)
(1.9846e-11 -1.24431e-13 -0.0636153)
(1.99003e-11 -1.1724e-13 -0.0633506)
(1.9878e-11 -6.34176e-14 -0.0631724)
(6.88967e-17 1.85671e-15 -0.0796067)
(2.32231e-16 1.79042e-15 -0.0812056)
(1.78847e-16 2.13841e-17 -0.0840473)
(3.0652e-16 1.72315e-15 -0.0877878)
(6.53493e-16 1.84919e-15 -0.0918917)
(-1.49131e-15 1.83111e-15 -0.0957865)
(5.63118e-15 -1.20606e-15 -0.0989944)
(1.56426e-17 1.12176e-15 -0.101173)
(-3.32834e-14 5.76561e-15 -0.102219)
(2.35402e-15 -2.70672e-15 -0.102157)
(1.21385e-13 -1.19279e-14 -0.101087)
(2.04313e-13 -5.54277e-15 -0.0995478)
(1.44757e-13 9.02556e-15 -0.0977424)
(-1.75433e-14 1.20388e-14 -0.0959963)
(-1.36949e-13 7.80316e-15 -0.0945528)
(-1.81229e-13 6.34957e-15 -0.0935334)
(-1.85142e-13 5.39224e-15 -0.0931275)
(-1.83761e-13 5.97496e-15 -0.0934648)
(-1.93913e-13 1.24893e-14 -0.0946564)
(-1.55965e-13 8.10606e-15 -0.0967785)
(5.72228e-15 3.99202e-14 -0.0997749)
(-5.24374e-13 1.71668e-13 -0.103463)
(6.87362e-13 -1.40836e-12 -0.107494)
(2.41883e-11 -6.77641e-12 -0.111179)
(7.74438e-11 -8.51249e-12 -0.113444)
(1.11084e-10 -1.60121e-13 -0.113205)
(8.15337e-11 7.50157e-12 -0.109913)
(3.02678e-11 6.39672e-12 -0.103957)
(4.48763e-12 2.40003e-12 -0.0963979)
(-1.48567e-12 2.96141e-13 -0.0885473)
(-2.53987e-12 7.15068e-13 -0.0818357)
(-4.71756e-12 1.00061e-12 -0.0777101)
(1.92878e-11 -9.43193e-12 -0.0771267)
(3.57531e-11 -1.12176e-11 -0.0805494)
(-2.94261e-10 9.38215e-11 -0.0898017)
(-6.57603e-10 1.88045e-10 -0.106543)
(3.06318e-09 -4.53898e-10 -0.11646)
(1.72974e-08 -1.87252e-09 -0.0858886)
(3.95353e-08 -2.06251e-09 -0.017208)
(5.4272e-08 3.56976e-11 0.0222574)
(4.85773e-08 2.00848e-09 -0.0121786)
(2.83342e-08 1.85554e-09 -0.0765064)
(9.88328e-09 6.34574e-10 -0.110464)
(8.69434e-10 -1.43977e-10 -0.105351)
(-1.06983e-09 -2.4954e-10 -0.0839359)
(-5.55203e-10 -8.03685e-11 -0.0660118)
(-1.66798e-10 1.35861e-10 -0.0597038)
(-4.04659e-10 2.15938e-10 -0.066694)
(1.18367e-10 -7.36591e-10 -0.0758881)
(4.59172e-09 -4.14472e-09 -0.054014)
(1.45156e-08 -9.78309e-09 0.0263799)
(2.50133e-08 -1.44121e-08 0.139967)
(2.85805e-08 -1.48352e-08 0.243482)
(2.48635e-08 -1.13321e-08 0.359719)
(2.17976e-08 -5.58346e-09 0.542084)
(2.63941e-08 2.34856e-09 0.754249)
(3.54532e-08 1.1459e-08 0.851518)
(3.7737e-08 1.72519e-08 0.721741)
(2.82306e-08 1.62138e-08 0.425353)
(1.36346e-08 1.02557e-08 0.133859)
(2.64753e-09 4.09508e-09 -0.0366992)
(-1.84774e-09 4.34845e-10 -0.0857844)
(-1.54478e-09 -1.41432e-09 -0.0697989)
(1.5172e-09 -3.39702e-09 -0.0435993)
(5.73321e-09 -5.92937e-09 -0.0628951)
(8.53352e-09 -7.33612e-09 -0.183405)
(7.45579e-09 -6.13061e-09 -0.394429)
(2.89162e-09 -3.10872e-09 -0.573339)
(-2.4214e-09 -4.49341e-10 -0.576075)
(-6.41684e-09 3.91281e-10 -0.366909)
(-8.76852e-09 -6.19795e-10 -0.0327718)
(-9.23983e-09 -2.19858e-09 0.303829)
(-6.52211e-09 -2.05825e-09 0.560896)
(-3.25117e-10 1.26134e-09 0.697376)
(6.12366e-09 6.21843e-09 0.684488)
(8.67949e-09 9.33707e-09 0.528037)
(6.69369e-09 8.61546e-09 0.297719)
(3.10586e-09 4.88145e-09 0.0862112)
(1.08401e-09 3.32709e-10 -0.0720147)
(1.40434e-09 -3.15654e-09 -0.224706)
(2.62265e-09 -4.67546e-09 -0.422654)
(3.08495e-09 -4.35334e-09 -0.623179)
(2.43227e-09 -3.07556e-09 -0.705548)
(1.39135e-09 -1.80747e-09 -0.582504)
(7.61524e-10 -1.02258e-09 -0.272408)
(7.99793e-10 -6.5866e-10 0.123186)
(1.2133e-09 -4.64067e-10 0.482163)
(1.4609e-09 -3.61802e-10 0.711028)
(1.20578e-09 -4.93237e-10 0.77385)
(6.89891e-10 -8.69506e-10 0.702118)
(5.86073e-10 -1.03536e-09 0.576431)
(1.30959e-09 -2.39857e-10 0.477423)
(2.46063e-09 1.82609e-09 0.432646)
(3.09505e-09 4.41353e-09 0.4058)
(2.6388e-09 6.07318e-09 0.340459)
(1.54643e-09 5.72927e-09 0.21974)
(1.08647e-09 3.37717e-09 0.0889335)
(2.34613e-09 -3.68239e-11 0.0235795)
(5.20417e-09 -3.1648e-09 0.0734712)
(8.37941e-09 -4.91874e-09 0.232585)
(1.06706e-08 -4.94908e-09 0.455762)
(1.19143e-08 -3.57086e-09 0.689388)
(1.26626e-08 -1.33436e-09 0.881007)
(1.31418e-08 1.18276e-09 0.976418)
(1.27832e-08 3.30726e-09 0.93402)
(1.09545e-08 4.40801e-09 0.757093)
(7.8712e-09 4.27211e-09 0.503069)
(4.4891e-09 3.23683e-09 0.251953)
(1.77942e-09 1.91711e-09 0.0636633)
(1.73235e-10 8.19464e-10 -0.0431115)
(-4.57369e-10 1.51916e-10 -0.083605)
(-4.98757e-10 -1.28619e-10 -0.0865025)
(-3.13021e-10 -1.71874e-10 -0.0769267)
(-1.16077e-10 -1.19264e-10 -0.0693411)
(1.45909e-11 -5.69314e-11 -0.0683585)
(8.19435e-11 -1.81291e-11 -0.0728096)
(1.15631e-10 -4.33177e-12 -0.079588)
(1.40891e-10 -4.99274e-12 -0.085961)
(1.68015e-10 -9.28216e-12 -0.0904277)
(1.94459e-10 -1.06955e-11 -0.0926458)
(2.12084e-10 -7.42064e-12 -0.0929895)
(2.14139e-10 -8.2779e-13 -0.0920876)
(1.99051e-10 6.4471e-12 -0.0905123)
(1.70619e-10 1.20086e-11 -0.0886437)
(1.35713e-10 1.46602e-11 -0.0866806)
(1.01121e-10 1.45127e-11 -0.0847556)
(7.15635e-11 1.24217e-11 -0.083008)
(4.92057e-11 9.41167e-12 -0.0815898)
(3.41873e-11 6.2851e-12 -0.0806302)
(2.55055e-11 3.50868e-12 -0.0801971)
(2.17792e-11 1.26057e-12 -0.080278)
(2.17085e-11 -4.64964e-13 -0.0807852)
(2.42441e-11 -1.7327e-12 -0.08158)
(2.85714e-11 -2.61469e-12 -0.0825043)
(3.40222e-11 -3.15509e-12 -0.0834098)
(3.99977e-11 -3.37651e-12 -0.0841785)
(4.59408e-11 -3.305e-12 -0.0847316)
(5.13387e-11 -2.96444e-12 -0.0850321)
(5.57555e-11 -2.40308e-12 -0.0850803)
(5.8877e-11 -1.68809e-12 -0.0849051)
(6.05449e-11 -9.00792e-13 -0.0845532)
(6.07694e-11 -1.36276e-13 -0.0840788)
(5.97195e-11 5.28796e-13 -0.0835346)
(5.76803e-11 1.03469e-12 -0.0829658)
(5.49958e-11 1.35402e-12 -0.0824087)
(5.20124e-11 1.49002e-12 -0.0818895)
(4.90345e-11 1.46146e-12 -0.0814254)
(4.62976e-11 1.31147e-12 -0.0810244)
(4.3957e-11 1.08171e-12 -0.0806867)