/*--------------------------------*- C++ -*----------------------------------*\
  =========                 |
  \\      /  F ield         | OpenFOAM: The Open Source CFD Toolbox
   \\    /   O peration     | Website:  https://openfoam.org
    \\  /    A nd           | Version:  11
     \\/     M anipulation  |
\*---------------------------------------------------------------------------*/
FoamFile
{
    format      ascii;
    class       volVectorField;
    location    "18.890229";
    object      U_0;
}
// * * * * * * * * * * * * * * * * * * * * * * * * * * * * * * * * * * * * * //

dimensions      [0 1 -1 0 0 0 0];

internalField   nonuniform List<vector> 
7132
(
(1.00013 -0.0002712 2.44189e-18)
(1.00211 -0.000818488 8.44383e-18)
(1.00656 -0.00137347 8.60764e-18)
(1.01315 -0.00192145 1.11436e-17)
(1.02192 -0.00243931 1.48479e-17)
(1.03269 -0.00288636 1.62105e-17)
(1.04506 -0.00320502 1.65747e-17)
(1.05841 -0.00331629 1.68497e-17)
(1.0717 -0.00313894 1.71154e-17)
(1.08368 -0.00263264 1.70927e-17)
(1.09289 -0.00180377 1.6539e-17)
(1.09825 -0.000851746 1.57286e-17)
(1.09971 2.92066e-05 1.46865e-17)
(1.09795 0.000634617 1.37046e-17)
(1.09451 0.00079734 9.2329e-18)
(1.09144 0.000510943 4.30332e-18)
(1.0904 -6.79095e-05 6.29033e-19)
(1.0921 -0.000658221 -9.47755e-19)
(1.09593 -0.000926618 -3.27186e-18)
(1.09989 -0.000615182 -3.17139e-18)
(1.10125 0.000307766 -1.60856e-18)
(1.09776 0.00161449 -1.33969e-20)
(1.08852 0.00294407 1.41032e-18)
(1.07422 0.00396809 3.16659e-18)
(1.05665 0.00447387 2.96664e-18)
(1.0382 0.00436206 8.46277e-18)
(1.02147 0.00361272 9.05812e-18)
(1.00899 0.00226398 -5.10557e-17)
(1.00306 0.000425165 -1.69868e-16)
(1.00539 -0.00167986 6.02462e-16)
(1.01648 -0.00365627 5.58198e-15)
(1.03486 -0.00496547 1.51265e-14)
(1.05665 -0.00511866 2.04421e-14)
(1.07638 -0.00395852 1.52366e-14)
(1.08885 -0.00180217 6.31829e-15)
(1.09114 0.000709309 1.03604e-15)
(1.08327 0.00292877 -9.01379e-16)
(1.06758 0.00444521 1.1083e-15)
(1.04743 0.00511407 7.55094e-15)
(1.0263 0.00495123 -4.97562e-15)
(1.0074 0.00401875 -9.10401e-14)
(0.99371 0.00237852 -1.779e-13)
(0.987958 0.000133701 3.62523e-13)
(0.992345 -0.002463 2.96517e-12)
(1.00762 -0.00490889 8.67056e-12)
(1.03191 -0.0065076 1.56171e-11)
(1.06026 -0.00664644 1.92985e-11)
(1.08579 -0.00514805 1.71514e-11)
(1.10208 -0.00242535 1.12092e-11)
(1.10559 0.000706003 5.29071e-12)
(1.09652 0.00341793 1.44468e-12)
(1.07805 0.00519153 -2.52142e-13)
(1.05462 0.00588489 -4.55957e-13)
(1.03053 0.00559472 2.8421e-13)
(1.0094 0.00447418 8.74977e-13)
(0.994269 0.00263729 -2.43982e-12)
(0.987854 0.000200003 -1.67753e-11)
(0.99233 -0.00257959 -4.88792e-11)
(1.00839 -0.00518826 -9.89109e-11)
(1.03406 -0.00692208 -1.54784e-10)
(1.0643 -0.00715907 -1.95317e-10)
(1.09205 -0.00568979 -2.02974e-10)
(1.11052 -0.0028775 -1.74385e-10)
(1.11558 0.000475569 -1.20668e-10)
(1.10692 0.00347294 -6.29728e-11)
(1.08767 0.00547345 -1.95137e-11)
(1.06276 0.00624667 4.88629e-12)
(1.03721 0.00589304 1.22401e-11)
(1.01511 0.00464285 -4.60615e-12)
(0.999564 0.00269885 -7.12225e-11)
(0.993031 0.00023254 -2.21871e-10)
(0.99729 -0.00248602 -4.75203e-10)
(1.01268 -0.00497955 -8.11466e-10)
(1.03716 -0.00662725 -1.16548e-09)
(1.06602 -0.00690077 -1.44461e-09)
(1.09289 -0.00562382 -1.56562e-09)
(1.11162 -0.00308528 -1.48953e-09)
(1.11813 5.67224e-05 -1.23541e-09)
(1.11155 0.00301385 -8.70722e-10)
(1.09415 0.00513472 -4.89343e-10)
(1.07035 0.0060802 -1.82244e-10)
(1.04519 0.00584072 -1.09182e-11)
(1.02319 0.00461544 -9.28535e-13)
(1.0078 0.00265979 -1.53109e-10)
(1.00146 0.000231132 -4.53503e-10)
(1.00561 -0.00234244 -8.7207e-10)
(1.02008 -0.00459803 -1.35736e-09)
(1.04253 -0.00600897 -1.83887e-09)
(1.0685 -0.00617921 -2.23899e-09)
(1.09241 -0.00502735 -2.48815e-09)
(1.10914 -0.00283505 -2.53653e-09)
(1.11541 -0.000142655 -2.36134e-09)
(1.11046 0.00243211 -1.97317e-09)
(1.09598 0.00436835 -1.42978e-09)
(1.07542 0.00534736 -8.46662e-10)
(1.053 0.00527626 -3.71517e-10)
(1.03293 0.00424504 -1.25952e-10)
(1.01873 0.00245864 -1.54112e-10)
(1.01297 0.000203406 -4.16677e-10)
(1.01694 -0.00213948 -8.26413e-10)
(1.03013 -0.00410445 -1.29041e-09)
(1.05003 -0.00523927 -1.73426e-09)
(1.07244 -0.00526253 -2.10677e-09)
(1.09254 -0.00418159 -2.37431e-09)
(1.1062 -0.00229164 -2.5119e-09)
(1.11101 -6.19241e-05 -2.49543e-09)
(1.10667 0.00201947 -2.30134e-09)
(1.09471 0.00357041 -1.92479e-09)
(1.07789 0.00436498 -1.41205e-09)
(1.05954 0.00432414 -8.73195e-10)
(1.04305 0.00348655 -4.47934e-10)
(1.03144 0.00199225 -2.39868e-10)
(1.02699 8.94416e-05 -2.70275e-10)
(1.03074 -0.00186237 -4.84836e-10)
(1.04207 -0.00344156 -7.96684e-10)
(1.0586 -0.00427629 -1.12737e-09)
(1.07668 -0.00417384 -1.42488e-09)
(1.09234 -0.00319306 -1.66156e-09)
(1.10243 -0.0016168 -1.82305e-09)
(1.10531 0.000156185 -1.89629e-09)
(1.10106 0.00174136 -1.86231e-09)
(1.09113 0.00286239 -1.70211e-09)
(1.07785 0.00337658 -1.41678e-09)
(1.06382 0.00325064 -1.04722e-09)
(1.0516 0.00252933 -6.71915e-10)
(1.04343 0.00132913 -3.76399e-10)
(1.04093 -0.000145797 -2.15084e-10)
(1.0447 -0.00160322 -1.93682e-10)
(1.05401 -0.00271483 -2.79898e-10)
(1.06678 -0.00321293 -4.27383e-10)
(1.0801 -0.00298614 -5.94939e-10)
(1.09098 -0.00211997 -7.53951e-10)
(1.09721 -0.000860488 -8.86662e-10)
(1.09784 0.000476129 -9.80419e-10)
(1.09323 0.00160365 -1.02243e-09)
(1.08473 0.00233158 -9.99436e-10)
(1.07425 0.00257706 -9.0396e-10)
(1.0638 0.00234069 -7.43458e-10)
(1.05527 0.00167985 -5.44167e-10)
(1.05021 0.000703478 -3.44048e-10)
(1.04963 -0.000417562 -1.78281e-10)
(1.05369 -0.00145627 -6.71643e-11)
(1.06156 -0.00217465 -1.32525e-11)
(1.07145 -0.00239723 -6.58559e-12)
(1.0811 -0.00207592 -3.2299e-11)
(1.08834 -0.00130932 -7.60777e-11)
(1.09171 -0.000305819 -1.26263e-10)
(1.09075 0.00068885 -1.73626e-10)
(1.08603 0.00146594 -2.10405e-10)
(1.07874 0.00189805 -2.29978e-10)
(1.07054 0.00194177 -2.27783e-10)
(1.06286 0.00161924 -2.02943e-10)
(1.0574 0.000990137 -1.59197e-10)
(1.05471 0.000165172 -1.03978e-10)
(1.05622 -0.000730927 -4.58815e-11)
(1.06045 -0.00147312 7.97705e-12)
(1.06867 -0.00199352 5.34323e-11)
(1.07616 -0.0019465 8.92018e-11)
(1.08542 -0.00186289 1.1483e-10)
(1.09021 -0.000472809 1.39402e-10)
(1.00013 -0.000812391 3.58499e-20)
(1.0021 -0.00245327 3.97607e-19)
(1.00654 -0.00411918 7.92834e-19)
(1.01313 -0.00576845 1.26742e-18)
(1.02193 -0.00733249 1.92812e-18)
(1.03278 -0.00868959 2.70103e-18)
(1.0453 -0.00966607 3.37421e-18)
(1.05889 -0.0100193 4.37378e-18)
(1.0725 -0.00949833 6.33335e-18)
(1.08482 -0.00797029 6.35118e-18)
(1.09427 -0.0054465 5.75676e-18)
(1.09967 -0.00254498 8.94417e-18)
(1.10098 0.00013889 9.28753e-18)
(1.09887 0.00197904 9.50942e-18)
(1.095 0.00245292 7.61623e-18)
(1.09155 0.00153878 2.85426e-18)
(1.09034 -0.00027534 -3.09417e-18)
(1.09218 -0.00212464 -6.79482e-18)
(1.09643 -0.0029845 -5.23854e-18)
(1.10098 -0.00205629 7.60899e-19)
(1.10284 0.000761555 6.06366e-18)
(1.09957 0.00476364 8.24876e-18)
(1.09022 0.00883506 6.93174e-18)
(1.07553 0.0119716 5.09464e-18)
(1.05742 0.013533 2.4363e-17)
(1.03836 0.0132261 -6.00263e-18)
(1.021 0.0109927 -3.24491e-16)
(1.00795 0.00694049 5.49328e-16)
(1.0016 0.00138279 6.53291e-15)
(1.0038 -0.00502241 -5.23377e-15)
(1.01526 -0.0110811 -1.2818e-13)
(1.03452 -0.0151332 -3.64808e-13)
(1.05754 -0.0156536 -4.73029e-13)
(1.07843 -0.0121404 -3.36161e-13)
(1.09162 -0.00556587 -1.37971e-13)
(1.09401 0.00209655 -2.77232e-14)
(1.08572 0.00886132 3.68672e-15)
(1.06931 0.0134783 1.46312e-14)
(1.04836 0.0155221 3.37935e-14)
(1.02643 0.015056 -3.25284e-14)
(1.00677 0.0122728 -4.05667e-13)
(0.99236 0.00734628 -7.63759e-13)
(0.986066 0.00055732 1.87021e-12)
(0.990323 -0.00735834 1.51068e-11)
(1.00613 -0.0148721 4.48015e-11)
(1.03163 -0.0198268 8.13773e-11)
(1.06158 -0.0203099 1.00591e-10)
(1.08853 -0.0157622 8.76785e-11)
(1.10562 -0.00745662 5.44218e-11)
(1.10913 0.00209784 2.39431e-11)
(1.09943 0.0103634 5.97572e-12)
(1.08 0.0157591 -1.35063e-12)
(1.05556 0.0178688 -1.95381e-12)
(1.03057 0.0170082 1.78002e-12)
(1.00862 0.0136531 4.96721e-12)
(0.99275 0.00813751 -1.25673e-11)
(0.985716 0.000778242 -9.68914e-11)
(0.989873 -0.00767767 -3.05876e-10)
(1.00614 -0.0156759 -6.55279e-10)
(1.03268 -0.0210456 -1.05283e-09)
(1.06431 -0.0218497 -1.31761e-09)
(1.09359 -0.0174225 -1.31067e-09)
(1.11324 -0.0088707 -1.04693e-09)
(1.11877 0.00135013 -6.66313e-10)
(1.10981 0.0104973 -3.20419e-10)
(1.08973 0.0166053 -9.21629e-11)
(1.06379 0.0189734 1.73394e-11)
(1.03723 0.0179247 4.45092e-11)
(1.01424 0.0141773 1.62559e-12)
(0.997883 0.00834368 -1.5807e-10)
(0.990659 0.000913566 -5.20554e-10)
(0.994507 -0.007331 -1.14248e-09)
(1.00998 -0.0149532 -1.97457e-09)
(1.03511 -0.0200483 -2.83785e-09)
(1.06502 -0.0209777 -3.48243e-09)
(1.09305 -0.0171798 -3.69673e-09)
(1.11271 -0.00952212 -3.4068e-09)
(1.11974 -1.16199e-06 -2.7111e-09)
(1.11322 0.00898943 -1.82401e-09)
(1.09548 0.0154655 -9.77988e-10)
(1.07106 0.0183894 -3.46524e-10)
(1.04515 0.0177272 -9.69956e-12)
(1.02236 0.0140791 2.39683e-11)
(1.00624 0.00820725 -2.26652e-10)
(0.999392 0.000868611 -7.34355e-10)
(1.00343 -0.00695925 -1.44616e-09)
(1.01833 -0.0138614 -2.26108e-09)
(1.04167 -0.018207 -3.04061e-09)
(1.06869 -0.0187667 -3.64531e-09)
(1.09345 -0.0152915 -3.96626e-09)
(1.11063 -0.00865329 -3.94055e-09)
(1.1169 -0.000503717 -3.56131e-09)
(1.11164 0.00728775 -2.88388e-09)
(1.09669 0.0131528 -2.02745e-09)
(1.07559 0.0161366 -1.16758e-09)
(1.05263 0.015961 -4.95619e-10)
(1.03205 0.0128895 -1.55274e-10)
(1.01743 0.00752071 -1.93172e-10)
(1.0115 0.00069691 -5.55175e-10)
(1.0157 -0.00643533 -1.12279e-09)
(1.02959 -0.0124441 -1.76008e-09)
(1.05049 -0.0159226 -2.35081e-09)
(1.0739 -0.0159958 -2.81651e-09)
(1.09468 -0.0126929 -3.11433e-09)
(1.10851 -0.00693413 -3.22263e-09)
(1.11303 -0.000162732 -3.12736e-09)
(1.10807 0.0061389 -2.81928e-09)
(1.09538 0.010821 -2.31097e-09)
(1.07787 0.013213 -1.66767e-09)
(1.05897 0.0130865 -1.01813e-09)
(1.04209 0.0105586 -5.17808e-10)
(1.03031 0.00604056 -2.79612e-10)
(1.02599 0.00026767 -3.24427e-10)
(1.03024 -0.00567513 -5.86915e-10)
(1.04242 -0.0104926 -9.61721e-10)
(1.05995 -0.0130326 -1.35133e-09)
(1.07891 -0.0126994 -1.69036e-09)
(1.09509 -0.00968172 -1.94561e-09)
(1.1052 -0.00485927 -2.10328e-09)
(1.10766 0.000542147 -2.15433e-09)
(1.10267 0.00535247 -2.0852e-09)
(1.09192 0.00873803 -1.88236e-09)
(1.07787 0.0102753 -1.55203e-09)
(1.06323 0.00987204 -1.14019e-09)
(1.05064 0.00766672 -7.30241e-10)
(1.0424 0.00400824 -4.11437e-10)
(1.04018 -0.000489996 -2.39415e-10)
(1.04459 -0.00493919 -2.18154e-10)
(1.05479 -0.00832925 -3.11545e-10)
(1.06852 -0.00983332 -4.69042e-10)
(1.08261 -0.00911076 -6.4622e-10)
(1.09388 -0.00643316 -8.12573e-10)
(1.10006 -0.00256526 -9.4945e-10)
(1.10024 0.0015212 -1.04392e-09)
(1.09491 0.00495405 -1.08328e-09)
(1.0856 0.00715747 -1.05459e-09)
(1.07435 0.00788559 -9.50961e-10)
(1.0633 0.00714546 -7.80761e-10)
(1.05441 0.00511305 -5.71389e-10)
(1.04931 0.0021179 -3.61811e-10)
(1.04902 -0.00132113 -1.87683e-10)
(1.05371 -0.00450786 -6.9282e-11)
(1.06242 -0.00670663 -9.03335e-12)
(1.07319 -0.0073743 2.86404e-12)
(1.08353 -0.00636533 -1.92435e-11)
(1.09111 -0.00399034 -6.16069e-11)
(1.09442 -0.000896918 -1.12767e-10)
(1.09305 0.00215843 -1.63123e-10)
(1.08768 0.00453729 -2.04064e-10)
(1.07964 0.00585315 -2.27916e-10)
(1.07073 0.00597687 -2.29181e-10)
(1.06248 0.00497876 -2.06386e-10)
(1.05667 0.00304048 -1.63053e-10)
(1.05393 0.000498844 -1.06671e-10)
(1.05574 -0.00226425 -4.60274e-11)
(1.06054 -0.00455714 1.14481e-11)
(1.06958 -0.00615734 6.11674e-11)
(1.0778 -0.00601444 1.01133e-10)
(1.08783 -0.00573694 1.30466e-10)
(1.09282 -0.00145757 1.57409e-10)
(1.00013 -0.00135053 1.1299e-22)
(1.00208 -0.0040808 6.76674e-21)
(1.0065 -0.00686013 2.98624e-21)
(1.01309 -0.00962461 -5.54108e-21)
(1.02193 -0.0122641 -5.4633e-20)
(1.03292 -0.0145777 -6.20633e-20)
(1.04574 -0.0162737 -4.61714e-19)
(1.05982 -0.0169294 -1.34671e-19)
(1.07405 -0.0161022 9.48367e-19)
(1.08707 -0.0135274 -1.78017e-18)
(1.09702 -0.00919416 -5.60177e-18)
(1.10254 -0.00419557 -1.5334e-18)
(1.10355 0.000451251 7.12966e-18)
(1.10076 0.00365156 7.5858e-18)
(1.096 0.00446828 -8.6624e-18)
(1.09181 0.00284643 -2.9085e-17)
(1.0903 -0.000380697 -1.83768e-17)
(1.09245 -0.0037118 5.1616e-17)
(1.09761 -0.00533691 1.44159e-16)
(1.10334 -0.00382392 1.80593e-16)
(1.10617 0.00101867 1.54312e-16)
(1.10324 0.00793838 1.03243e-16)
(1.09353 0.0149679 3.79499e-17)
(1.07795 0.0203663 2.95912e-17)
(1.05867 0.0230566 2.47588e-16)
(1.03835 0.0225677 -5.36073e-16)
(1.01978 0.018815 -3.88775e-15)
(1.00568 0.0119653 1.12327e-14)
(0.998612 0.002504 7.47471e-14)
(1.00074 -0.00850117 -1.39767e-13)
(1.01308 -0.0190158 -1.64091e-12)
(1.03428 -0.026121 -4.38859e-12)
(1.05987 -0.0270868 -5.89369e-12)
(1.08309 -0.0209956 -4.51017e-12)
(1.09757 -0.0095729 -1.98776e-12)
(1.09989 0.00367986 -4.29486e-13)
(1.09045 0.0152859 7.01687e-14)
(1.07237 0.0231248 1.37144e-13)
(1.04967 0.0265492 9.42836e-14)
(1.02613 0.0257414 -2.34963e-13)
(1.005 0.0210516 -8.47963e-13)
(0.989333 0.0127299 -1.78292e-15)
(0.982181 0.00115991 5.51512e-12)
(0.986406 -0.0124826 1.34765e-11)
(1.00344 -0.0255618 8.57709e-12)
(1.0315 -0.0342469 -1.0751e-11)
(1.06474 -0.0351114 -1.66196e-11)
(1.09462 -0.0271663 3.31332e-13)
(1.11323 -0.0127029 1.58501e-11)
(1.11646 0.00382848 1.8745e-11)
(1.1051 0.0179971 1.14057e-11)
(1.08341 0.0271209 1.48727e-12)
(1.05678 0.0305924 -9.63555e-13)
(1.02993 0.029058 9.6341e-12)
(1.00646 0.0233786 1.63644e-11)
(0.989261 0.0140923 -6.40668e-11)
(0.981087 0.00164785 -4.11719e-10)
(0.984551 -0.0127805 -1.22863e-09)
(1.00103 -0.0265863 -2.52416e-09)
(1.02902 -0.0360171 -3.93997e-09)
(1.06321 -0.0376333 -4.86968e-09)
(1.09548 -0.0301593 -4.8489e-09)
(1.11757 -0.0154479 -3.89905e-09)
(1.12419 0.00221433 -2.50197e-09)
(1.11478 0.0180037 -1.2192e-09)
(1.0931 0.0284845 -3.66289e-10)
(1.06509 0.0324869 4.08865e-11)
(1.03655 0.0306598 1.39629e-10)
(1.01185 0.0243132 2.01412e-11)
(0.994065 0.0144893 -3.77543e-10)
(0.985771 0.00192908 -1.19973e-09)
(0.989253 -0.0121377 -2.50019e-09)
(1.00544 -0.025277 -4.10384e-09)
(1.03234 -0.0341574 -5.65289e-09)
(1.06455 -0.0358849 -6.76406e-09)
(1.09466 -0.0294685 -7.14211e-09)
(1.11563 -0.0164177 -6.64706e-09)
(1.12305 -0.000175417 -5.37623e-09)
(1.11609 0.0151611 -3.6771e-09)
(1.09732 0.0262148 -2.00696e-09)
(1.07155 0.0312342 -7.38133e-10)
(1.04419 0.0301788 -4.76645e-11)
(1.02002 0.0240659 5.12298e-11)
(1.00278 0.0141466 -3.81178e-10)
(0.995386 0.00164142 -1.24977e-09)
(0.999828 -0.0118072 -2.40026e-09)
(1.0162 -0.023718 -3.61426e-09)
(1.04175 -0.0311941 -4.67495e-09)
(1.071 -0.0320784 -5.43616e-09)
(1.09729 -0.025995 -5.81957e-09)
(1.11491 -0.0145454 -5.76816e-09)
(1.1206 -0.000633494 -5.24116e-09)
(1.1141 0.0125504 -4.27178e-09)
(1.09768 0.0223987 -3.01815e-09)
(1.0752 0.0273688 -1.74621e-09)
(1.05108 0.0270381 -7.48572e-10)
(1.02959 0.0218411 -2.4023e-10)
(1.01446 0.0127298 -2.86915e-10)
(1.00865 0.00107204 -7.98205e-10)
(1.01384 -0.0111786 -1.57949e-09)
(1.02955 -0.0215013 -2.4137e-09)
(1.05269 -0.0274019 -3.13618e-09)
(1.07808 -0.0273582 -3.66565e-09)
(1.1 -0.0214824 -3.98223e-09)
(1.11387 -0.0114559 -4.08104e-09)
(1.11741 0.000171788 -3.94291e-09)
(1.11084 0.0108528 -3.54426e-09)
(1.09635 0.0186728 -2.89593e-09)
(1.07724 0.0225663 -2.08259e-09)
(1.05713 0.0222071 -1.26951e-09)
(1.03955 0.0178088 -6.50921e-10)
(1.02766 0.0100423 -3.63115e-10)
(1.02395 0.000127538 -4.24471e-10)
(1.02959 -0.0100747 -7.44386e-10)
(1.04374 -0.0182989 -1.18512e-09)
(1.06339 -0.0225265 -1.62677e-09)
(1.08404 -0.0217429 -1.99805e-09)
(1.10105 -0.0163338 -2.2704e-09)
(1.11096 -0.00789024 -2.43463e-09)
(1.1123 0.00142944 -2.4804e-09)
(1.10563 0.00961234 -2.38981e-09)
(1.09304 0.0152653 -2.14731e-09)
(1.07732 0.0177178 -1.76252e-09)
(1.06145 0.0168582 -1.29085e-09)
(1.04821 0.0129416 -8.28066e-10)
(1.04001 0.00656041 -4.72984e-10)
(1.0386 -0.00123743 -2.8364e-10)
(1.04452 -0.00890767 -2.59399e-10)
(1.05668 -0.0146817 -3.56767e-10)
(1.07236 -0.0171217 -5.19787e-10)
(1.08791 -0.0156668 -7.02455e-10)
(1.09982 -0.0108435 -8.75048e-10)
(1.10569 -0.00403178 -1.01931e-09)
(1.10477 0.00305857 -1.12077e-09)
(1.09785 0.00892659 -1.16402e-09)
(1.08681 0.0126095 -1.13365e-09)
(1.07399 0.0137224 -1.02185e-09)
(1.06176 0.0123064 -8.38244e-10)
(1.05225 0.00867557 -6.13123e-10)
(1.04721 0.00339916 -3.88323e-10)
(1.04771 -0.00261993 -2.0097e-10)
(1.05384 -0.00815692 -7.12574e-11)
(1.06435 -0.0119149 -9.71362e-13)
(1.07686 -0.0129488 1.97757e-11)
(1.08848 -0.0110325 4.49763e-12)
(1.0966 -0.00675143 -3.4332e-11)
(1.09963 -0.00127331 -8.6112e-11)
(1.09729 0.00406753 -1.41041e-10)
(1.0905 0.00816785 -1.8919e-10)
(1.08091 0.0103788 -2.20892e-10)
(1.07057 0.0105015 -2.28692e-10)
(1.06123 0.00867349 -2.09802e-10)
(1.05484 0.00521583 -1.67282e-10)
(1.05215 0.00071063 -1.0882e-10)
(1.0547 -0.00415931 -4.37536e-11)
(1.06076 -0.00819055 1.97655e-11)
(1.0715 -0.010931 7.63543e-11)
(1.08114 -0.0106361 1.22908e-10)
(1.09263 -0.00998603 1.58004e-10)
(1.09776 -0.00246708 1.88779e-10)
(1.00013 -0.00188317 -3.80718e-20)
(1.00205 -0.00569414 -5.13613e-19)
(1.00642 -0.00959008 -9.97801e-19)
(1.01299 -0.0134916 -1.66455e-18)
(1.02189 -0.0172545 -2.4002e-18)
(1.03308 -0.020603 -3.74467e-18)
(1.04634 -0.0231252 -5.30611e-18)
(1.06115 -0.0241909 2.0327e-18)
(1.07636 -0.0231293 -8.81415e-18)
(1.09049 -0.0194711 -3.49515e-17)
(1.10126 -0.0131372 -1.72847e-17)
(1.10696 -0.00580331 4.80715e-17)
(1.10752 0.00104393 6.90022e-17)
(1.10365 0.00576415 7.60587e-18)
(1.0975 0.00690697 -1.01784e-16)
(1.09212 0.00436535 -9.74864e-17)
(1.09009 -0.000621947 2.59037e-16)
(1.0927 -0.00581002 1.08702e-15)
(1.09929 -0.00845682 1.90081e-15)
(1.10692 -0.00634942 1.89748e-15)
(1.11129 0.000816974 1.29799e-15)
(1.1089 0.0110998 6.98013e-16)
(1.0986 0.0214898 1.84816e-16)
(1.08161 0.029406 3.44882e-16)
(1.06049 0.0333354 7.94017e-16)
(1.03823 0.0326722 -5.56106e-15)
(1.0178 0.0273326 -5.03441e-15)
(1.00209 0.0175266 6.81201e-14)
(0.993925 0.00385674 1.86598e-14)
(0.99591 -0.0122469 -6.75362e-13)
(1.00961 -0.0278497 -4.93502e-13)
(1.03388 -0.0385394 1.85331e-12)
(1.06355 -0.0400767 1.72767e-12)
(1.09048 -0.0309936 -1.50889e-12)
(1.10694 -0.0139457 -2.61727e-12)
(1.10904 0.00567712 -1.42359e-12)
(1.09767 0.0226285 -1.63043e-13)
(1.07688 0.0338672 3.24174e-13)
(1.05143 0.0386409 -1.31128e-13)
(1.02541 0.0373871 -7.96923e-13)
(1.00211 0.0306688 3.47566e-12)
(0.984571 0.0187601 1.4226e-11)
(0.976053 0.00203135 -2.10977e-11)
(0.979857 -0.0179723 -2.69879e-10)
(0.99798 -0.0374127 -8.98187e-10)
(1.02908 -0.0504925 -1.71714e-09)
(1.06705 -0.0518934 -2.15806e-09)
(1.10192 -0.0400061 -1.87136e-09)
(1.12376 -0.0183561 -1.13197e-09)
(1.12729 0.00618443 -4.51448e-10)
(1.11365 0.0269015 -7.91556e-11)
(1.08844 0.0399199 3.26537e-11)
(1.05832 0.0446027 3.86199e-11)
(1.02863 0.0421598 4.5942e-11)
(1.00287 0.0339862 2.65345e-11)
(0.983603 0.0208295 -2.6078e-10)
(0.973467 0.00314573 -1.24301e-09)
(0.975564 -0.0176336 -3.23498e-09)
(0.992174 -0.0379043 -6.01821e-09)
(1.0223 -0.0521507 -8.80351e-09)
(1.06018 -0.0550998 -1.0627e-08)
(1.09654 -0.0446033 -1.07664e-08)
(1.12199 -0.0232093 -9.08151e-09)
(1.13038 0.00276487 -6.22052e-09)
(1.12076 0.0260547 -3.28629e-09)
(1.09721 0.0414512 -1.13696e-09)
(1.06647 0.0472406 -1.05415e-11)
(1.03513 0.0445353 3.07421e-10)
(1.00795 0.035414 5.17895e-11)
(0.98813 0.0213857 -7.71555e-10)
(0.978548 0.00332953 -2.25523e-09)
(0.982121 -0.0171562 -4.28164e-09)
(1.00019 -0.0364951 -6.43488e-09)
(1.03037 -0.0496156 -8.25678e-09)
(1.06614 -0.0521494 -9.48683e-09)
(1.09893 -0.0427199 -9.99624e-09)
(1.12109 -0.0237051 -9.61393e-09)
(1.12823 -0.000207714 -8.20825e-09)
(1.11995 0.0218691 -5.9749e-09)
(1.09931 0.0377347 -3.49227e-09)
(1.07148 0.0449449 -1.42499e-09)
(1.0421 0.0434829 -2.1006e-10)
(1.01611 0.0347823 2.69776e-11)
(0.997568 0.0205275 -6.13758e-10)
(0.989893 0.00235155 -1.88226e-09)
(0.995551 -0.0173615 -3.41657e-09)
(1.01461 -0.0348243 -4.84017e-09)
(1.0436 -0.0456136 -5.91368e-09)
(1.07598 -0.0465472 -6.59652e-09)
(1.10419 -0.037245 -6.94846e-09)
(1.12205 -0.0202927 -6.96866e-09)
(1.12648 -8.40677e-05 -6.53936e-09)
(1.11776 0.0187555 -5.55236e-09)
(1.09884 0.0326037 -4.0896e-09)
(1.0741 0.0394317 -2.46951e-09)
(1.0482 0.0387583 -1.12686e-09)
(1.02549 0.0311955 -4.13237e-10)
(1.0099 0.0179905 -4.46099e-10)
(1.00471 0.00101145 -1.08249e-09)
(1.01178 -0.0168801 -2.01697e-09)
(1.03039 -0.0318672 -2.94089e-09)
(1.05671 -0.0401921 -3.66766e-09)
(1.0847 -0.039658 -4.15687e-09)
(1.10795 -0.0305874 -4.44906e-09)
(1.12161 -0.01563 -4.57354e-09)
(1.12358 0.00136504 -4.49461e-09)
(1.11455 0.0166756 -4.13519e-09)
(1.09734 0.0276212 -3.45721e-09)
(1.07581 0.0328171 -2.53757e-09)
(1.05392 0.0319244 -1.58108e-09)
(1.03538 0.0252907 -8.41055e-10)
(1.02352 0.0138428 -4.92881e-10)
(1.02097 -0.000690356 -5.52787e-10)
(1.02889 -0.0155664 -8.97521e-10)
(1.04601 -0.0273947 -1.35589e-09)
(1.0686 -0.0331881 -1.7957e-09)
(1.09142 -0.0315318 -2.15547e-09)
(1.10933 -0.0231363 -2.42505e-09)
(1.11873 -0.0104758 -2.60651e-09)
(1.11836 0.00321139 -2.68456e-09)
(1.10925 0.0149876 -2.62326e-09)
(1.09398 0.0228943 -2.38782e-09)
(1.07589 0.0260633 -1.97978e-09)
(1.05828 0.0244232 -1.4626e-09)
(1.04419 0.0183855 -9.50063e-10)
(1.03622 0.00881561 -5.56725e-10)
(1.03618 -0.00274357 -3.45332e-10)
(1.04447 -0.0139821 -3.09829e-10)
(1.05951 -0.0222532 -3.98678e-10)
(1.07788 -0.0254512 -5.51936e-10)
(1.0953 -0.0228379 -7.25373e-10)
(1.10787 -0.0153184 -8.94195e-10)
(1.11312 -0.00503466 -1.04386e-09)
(1.11052 0.00544809 -1.15904e-09)
(1.10129 0.0139397 -1.21879e-09)
(1.08777 0.0190887 -1.20033e-09)
(1.07274 0.0204066 -1.09072e-09)
(1.05889 0.0180109 -8.99207e-10)
(1.04862 0.0123879 -6.59788e-10)
(1.04383 0.00438562 -4.19074e-10)
(1.04567 -0.0046378 -2.1716e-10)
(1.05399 -0.0128248 -7.47801e-11)
(1.06711 -0.0182208 6.98036e-12)
(1.08203 -0.0194431 3.84504e-11)
(1.09529 -0.016233 3.25536e-11)
(1.10396 -0.00955991 2.18543e-13)
(1.10642 -0.00123526 -4.96829e-11)
(1.10257 0.00673175 -1.08145e-10)
(1.09373 0.0127239 -1.64318e-10)
(1.08192 0.0158266 -2.06093e-10)
(1.06958 0.0157967 -2.23055e-10)
(1.05877 0.0128678 -2.10111e-10)
(1.05168 0.00753185 -1.69313e-10)
(1.04922 0.000652868 -1.08566e-10)
(1.053 -0.00670254 -3.81696e-11)
(1.061 -0.0127467 3.24304e-11)
(1.07418 -0.0166748 9.6616e-11)
(1.08573 -0.0161013 1.5006e-10)
(1.09913 -0.0147375 1.9094e-10)
(1.10415 -0.00345651 2.25849e-10)
(1.00012 -0.00240659 -2.55997e-18)
(1.00201 -0.00728347 -8.11856e-18)
(1.0063 -0.0122974 -7.02832e-18)
(1.01282 -0.0173638 -9.23072e-18)
(1.02176 -0.0223164 -7.28182e-18)
(1.0332 -0.0268119 -2.102e-17)
(1.04702 -0.0303179 1.43381e-17)
(1.06281 -0.0319584 4.969e-18)
(1.07941 -0.030782 -1.82115e-16)
(1.09514 -0.0259904 -2.70503e-17)
(1.10707 -0.0173601 4.93497e-16)
(1.11304 -0.00731529 6.61991e-16)
(1.11296 0.00214535 2.18184e-16)
(1.10753 0.00871819 -4.36567e-16)
(1.09934 0.0102607 -7.32705e-16)
(1.09222 0.00656933 -1.84645e-16)
(1.08944 -0.000664135 8.3041e-16)
(1.09274 -0.00831638 6.32401e-16)
(1.10143 -0.0124573 -8.51774e-16)
(1.11185 -0.00982985 -9.72526e-16)
(1.11848 3.67517e-05 -3.5177e-16)
(1.11684 0.0143022 -9.77609e-17)
(1.10565 0.0286242 1.18707e-16)
(1.08661 0.0394213 1.92419e-15)
(1.06292 0.04474 -7.269e-15)
(1.03799 0.043905 -1.04489e-14)
(1.01502 0.0368813 1.48999e-13)
(0.997069 0.0239041 -1.97994e-13)
(0.987281 0.00560145 -2.93427e-12)
(0.988948 -0.0163358 4.02035e-12)
(1.00458 -0.0379977 6.31587e-11)
(1.03337 -0.0531005 1.75368e-10)
(1.06906 -0.0554034 2.37172e-10)
(1.10126 -0.0426881 1.79839e-10)
(1.12035 -0.0188275 7.68003e-11)
(1.12189 0.00834189 1.44468e-11)
(1.10759 0.0313764 -3.29815e-12)
(1.08289 0.046243 -3.3618e-12)
(1.05362 0.0522775 -3.13627e-12)
(1.02425 0.0503948 1.06786e-12)
(0.998072 0.0414694 3.22588e-11)
(0.977957 0.0257623 4.80839e-11)
(0.967096 0.00353054 -2.78276e-10)
(0.968999 -0.0234269 -1.60691e-09)
(0.986581 -0.0501639 -4.27764e-09)
(1.01987 -0.0687941 -7.42458e-09)
(1.06328 -0.0715558 -9.24531e-09)
(1.10547 -0.05553 -8.50772e-09)
(1.1336 -0.025374 -5.75474e-09)
(1.13972 0.00890624 -2.74163e-09)
(1.12447 0.0374346 -7.55109e-10)
(1.09506 0.0547795 5.79037e-11)
(1.06029 0.0604887 2.06543e-10)
(1.02669 0.0567756 1.71636e-10)
(0.997774 0.045889 1.98422e-14)
(0.975555 0.0288 -7.73912e-10)
(0.962693 0.00567964 -2.78021e-09)
(0.963365 -0.022121 -6.10515e-09)
(0.981156 -0.0499523 -9.95741e-09)
(1.0151 -0.0700329 -1.32782e-08)
(1.058 -0.0747714 -1.54097e-08)
(1.09887 -0.0610644 -1.59383e-08)
(1.12732 -0.0323417 -1.44224e-08)
(1.13696 0.0028556 -1.09138e-08)
(1.12684 0.0346003 -6.49724e-09)
(1.10122 0.0556267 -2.68011e-09)
(1.06746 0.0635141 -3.53135e-10)
(1.03283 0.0599082 4.57926e-10)
(1.00258 0.0478094 6.79438e-11)
(0.980334 0.0291945 -1.31852e-09)
(0.969667 0.00494303 -3.50207e-09)
(0.974321 -0.0229504 -6.00025e-09)
(0.995727 -0.0494003 -8.16686e-09)
(1.03048 -0.0671461 -9.6345e-09)
(1.07055 -0.0701807 -1.0487e-08)
(1.10613 -0.0569405 -1.0949e-08)
(1.12904 -0.0310501 -1.09405e-08)
(1.13507 0.000414976 -1.00294e-08)
(1.12447 0.0296321 -7.95273e-09)
(1.10105 0.0504483 -5.10153e-09)
(1.07047 0.0598317 -2.36066e-09)
(1.03862 0.0578526 -5.65451e-10)
(1.0106 0.0463255 -1.15673e-10)
(0.990857 0.0272581 -9.16569e-10)
(0.983455 0.00265767 -2.49991e-09)
(0.991257 -0.0241604 -4.23721e-09)
(1.01396 -0.0477467 -5.61967e-09)
(1.04701 -0.0618902 -6.46179e-09)
(1.08271 -0.0623789 -6.8823e-09)
(1.11271 -0.0490267 -7.10439e-09)
(1.13056 -0.0256787 -7.21818e-09)
(1.1333 0.00152684 -7.05992e-09)
(1.12175 0.0263743 -6.34125e-09)
(1.09963 0.044226 -4.95714e-09)
(1.07196 0.052686 -3.18466e-09)
(1.0438 0.0513349 -1.5839e-09)
(1.01972 0.0409837 -6.79574e-10)
(1.00388 0.0231235 -6.69888e-10)
(0.999917 0.000138888 -1.35941e-09)
(1.00971 -0.0240167 -2.33256e-09)
(1.03195 -0.0439714 -3.21507e-09)
(1.06184 -0.054564 -3.83358e-09)
(1.09241 -0.05298 -4.20667e-09)
(1.11675 -0.0399362 -4.43764e-09)
(1.12989 -0.0192606 -4.5953e-09)
(1.12991 0.00371574 -4.63789e-09)
(1.11798 0.023973 -4.42849e-09)
(1.09757 0.0380376 -3.8475e-09)
(1.07313 0.0442729 -2.92733e-09)
(1.0491 0.0424186 -1.89476e-09)
(1.0295 0.0330071 -1.06492e-09)
(1.01793 0.0172438 -6.59633e-10)
(1.01716 -0.00255506 -6.96108e-10)
(1.02812 -0.0225891 -1.02326e-09)
(1.04885 -0.0381567 -1.4479e-09)
(1.0747 -0.0452373 -1.83803e-09)
(1.09965 -0.0421077 -2.14883e-09)
(1.11818 -0.0299828 -2.39151e-09)
(1.12669 -0.0124015 -2.58399e-09)
(1.12421 0.00617673 -2.71135e-09)
(1.11221 0.0218041 -2.71767e-09)
(1.09385 0.0319413 -2.53726e-09)
(1.07299 0.0355644 -2.14966e-09)
(1.0534 0.0327025 -1.61838e-09)
(1.03846 0.0239715 -1.07484e-09)
(1.03102 0.0105665 -6.52198e-10)
(1.03296 -0.00536214 -4.20159e-10)
(1.04433 -0.0205697 -3.68842e-10)
(1.06284 -0.0313894 -4.40479e-10)
(1.08422 -0.0350225 -5.7276e-10)
(1.10349 -0.0306567 -7.24219e-10)
(1.11644 -0.0197445 -8.76475e-10)
(1.12068 -0.00535378 -1.02192e-09)
(1.11597 0.00897542 -1.14815e-09)
(1.10397 0.020302 -1.22972e-09)
(1.08756 0.0268818 -1.23388e-09)
(1.06997 0.0281572 -1.13811e-09)
(1.05432 0.0243655 -9.47925e-10)
(1.04331 0.0162071 -7.00131e-10)
(1.03911 0.00487444 -4.46993e-10)
(1.04285 -0.00770138 -2.32902e-10)
(1.05404 -0.018879 -8.00783e-11)
(1.07032 -0.0259342 1.0857e-11)
(1.08793 -0.0270384 5.12286e-11)
(1.10282 -0.0219959 5.43999e-11)
(1.11181 -0.012309 3.04372e-11)
(1.11331 -0.000575428 -1.39626e-11)
(1.10753 0.0104181 -7.20514e-11)
(1.09617 0.0184899 -1.33559e-10)
(1.08174 0.0224567 -1.8455e-10)
(1.0671 0.0220566 -2.11191e-10)
(1.05464 0.0176502 -2.05095e-10)
(1.04693 0.00994078 -1.6652e-10)
(1.04501 0.000135925 -1.03393e-10)
(1.05057 -0.010188 -2.73525e-11)
(1.06108 -0.0185521 5.02395e-11)
(1.07722 -0.0236545 1.21093e-10)
(1.09087 -0.02257 1.79767e-10)
(1.10626 -0.0199961 2.24475e-10)
(1.11066 -0.00431287 2.62096e-10)
(1.00012 -0.00291593 3.12033e-18)
(1.00194 -0.00883506 9.04358e-18)
(1.00612 -0.0149636 8.83824e-18)
(1.01253 -0.0212263 9.5443e-18)
(1.02148 -0.027451 1.50088e-17)
(1.03317 -0.0332418 -1.90217e-17)
(1.04767 -0.0379495 2.21543e-16)
(1.06471 -0.0404046 -5.59795e-16)
(1.08314 -0.0393069 -2.17686e-16)
(1.10109 -0.0333326 2.60041e-15)
(1.11465 -0.0220044 3.29657e-15)
(1.12102 -0.00876551 -3.93002e-16)
(1.12013 0.00380106 -5.23873e-15)
(1.11259 0.0125822 -8.21877e-15)
(1.10155 0.0145187 -7.2563e-15)
(1.09197 0.00926153 -4.43269e-15)
(1.08805 -0.00093303 -1.31164e-14)
(1.09219 -0.0118501 -6.04796e-14)
(1.10377 -0.0180552 -1.2927e-13)
(1.11813 -0.0148949 -1.36829e-13)
(1.12795 -0.00166736 -8.69692e-14)
(1.12736 0.0175473 -4.27357e-14)
(1.11492 0.0366281 -1.05143e-14)
(1.09311 0.0507795 -4.36478e-15)
(1.06601 0.0576487 -6.37739e-14)
(1.0376 0.0566215 1.84738e-13)
(1.01133 0.0477952 7.02011e-13)
(0.990401 0.0314004 -3.88041e-12)
(0.978316 0.00792615 -1.09386e-11)
(0.97939 -0.0208823 4.62415e-11)
(0.997605 -0.050058 2.61203e-10)
(1.03274 -0.0707927 5.8072e-10)
(1.07696 -0.0740388 8.00308e-10)
(1.11652 -0.0566324 7.2313e-10)
(1.13891 -0.0242241 4.08609e-10)
(1.13918 0.0120909 1.30676e-10)
(1.12053 0.0421389 4.03861e-12)
(1.09043 0.0608523 -2.18166e-11)
(1.05614 0.0679532 -1.69509e-11)
(1.02259 0.0651538 1.79162e-11)
(0.99285 0.0538171 1.11186e-10)
(0.969236 0.0342532 1.00587e-12)
(0.954339 0.00652769 -1.25834e-09)
(0.952076 -0.0276916 -4.82583e-09)
(0.967521 -0.0628381 -1.05509e-08)
(1.00285 -0.0888574 -1.64688e-08)
(1.05245 -0.0947189 -2.00498e-08)
(1.10312 -0.0751679 -1.94817e-08)
(1.13946 -0.0354575 -1.47717e-08)
(1.15069 0.0107756 -8.29523e-09)
(1.13574 0.0492376 -3.0348e-09)
(1.10264 0.0719973 -2.84913e-10)
(1.06263 0.0787773 5.22256e-10)
(1.02416 0.0734119 4.64167e-10)
(0.991126 0.0595516 -1.00184e-10)
(0.965182 0.0383736 -1.69981e-09)
(0.949528 0.0092525 -4.83553e-09)
(0.949998 -0.0268537 -8.94562e-09)
(0.971105 -0.0637733 -1.26683e-08)
(1.01073 -0.0905923 -1.51669e-08)
(1.05943 -0.0970092 -1.66474e-08)
(1.10447 -0.0792679 -1.74621e-08)
(1.1348 -0.0422288 -1.70857e-08)
(1.14429 0.00304001 -1.45272e-08)
(1.13258 0.0439386 -9.91036e-09)
(1.10439 0.0711362 -4.86787e-09)
(1.0674 0.0814259 -1.16854e-09)
(1.0293 0.0769598 4.15829e-10)
(0.995777 0.0616546 2.12623e-13)
(0.971148 0.0378468 -1.93786e-09)
(0.960052 0.00634683 -4.68323e-09)
(0.966909 -0.0301763 -7.31428e-09)
(0.99259 -0.0645739 -9.10078e-09)