/*--------------------------------*- C++ -*----------------------------------*\
  =========                 |
  \\      /  F ield         | OpenFOAM: The Open Source CFD Toolbox
   \\    /   O peration     | Website:  https://openfoam.org
    \\  /    A nd           | Version:  11
     \\/     M anipulation  |
\*---------------------------------------------------------------------------*/
FoamFile
{
    format      ascii;
    class       surfaceScalarField;
    location    "19.635279";
    object      phi_0;
}
// * * * * * * * * * * * * * * * * * * * * * * * * * * * * * * * * * * * * * //

dimensions      [0 3 -1 0 0 0 0];

internalField   nonuniform List<scalar> 
14638
(
0.00250274
-2.7354e-06
0.00251085
-8.11911e-06
0.00252429
-1.34365e-05
0.00254289
-1.85993e-05
0.00256635
-2.34607e-05
0.00259406
-2.77047e-05
0.0026249
-3.08444e-05
0.00265706
-3.21647e-05
0.00268798
-3.09121e-05
0.00271471
-2.67373e-05
0.00273441
-1.9692e-05
0.00274625
-1.1843e-05
0.00275118
-4.92768e-06
0.00275191
-7.37029e-07
0.00275214
-2.28538e-07
0.00275469
-2.54672e-06
0.00276021
-5.52286e-06
0.00276642
-6.20825e-06
0.00276854
-2.11937e-06
0.00276134
7.20404e-06
0.00274158
1.97546e-05
0.00270937
3.22107e-05
0.00266786
4.15111e-05
0.0026222
4.56543e-05
0.0025785
4.37015e-05
0.00254302
3.5486e-05
0.00252157
2.14459e-05
0.0025188
2.77208e-06
0.00253695
-1.81551e-05
0.0025742
-3.72408e-05
0.00262329
-4.90917e-05
0.0026724
-4.91083e-05
0.00270867
-3.62699e-05
0.00272291
-1.42496e-05
0.00271249
1.04282e-05
0.0026809
3.15828e-05
0.00263538
4.55242e-05
0.00258429
5.10869e-05
0.00253579
4.85048e-05
0.00249744
3.83525e-05
0.00247623
2.12094e-05
0.00247805
-1.82611e-06
0.00250603
-2.79785e-05
0.00255788
-5.18515e-05
0.00262417
-6.62838e-05
0.00268961
-6.54451e-05
0.00273796
-4.83461e-05
0.0027579
-1.9942e-05
0.00274663
1.12728e-05
0.00270933
3.7295e-05
0.0026558
5.35318e-05
0.00259674
5.90628e-05
0.00254169
5.50446e-05
0.00249876
4.29356e-05
0.00247502
2.37356e-05
0.00247642
-1.39759e-06
0.00250604
-2.9623e-05
0.00256141
-5.53686e-05
0.00263271
-7.13014e-05
0.0027041
-7.13863e-05
0.00275834
-5.42441e-05
0.00278275
-2.44128e-05
0.00277324
9.51481e-06
0.00273462
3.8618e-05
0.0026776
5.70221e-05
0.00261453
6.30725e-05
0.00255635
5.81785e-05
0.00251166
4.46876e-05
0.00248719
2.44662e-05
0.00248805
-8.59491e-07
0.00251648
-2.84227e-05
0.00256958
-5.31068e-05
0.00263805
-6.84633e-05
0.00270737
-6.93227e-05
0.00276179
-5.44188e-05
0.0027891
-2.73106e-05
0.00278421
4.88743e-06
0.00275009
3.41197e-05
0.00269598
5.41075e-05
0.00263403
6.19558e-05
0.00257598
5.80528e-05
0.00253135
4.46253e-05
0.00250715
2.42e-05
0.00250788
-7.25429e-07
0.00253465
-2.67765e-05
0.00258373
-4.90787e-05
0.00264593
-6.21999e-05
0.00270824
-6.23042e-05
0.00275723
-4.89899e-05
0.0027828
-2.55779e-05
0.00278065
2.15406e-06
0.00275276
2.78927e-05
0.00270624
4.65203e-05
0.00265113
5.51069e-05
0.00259809
5.30409e-05
0.00255662
4.14709e-05
0.00253405
2.25651e-05
0.0025348
-7.508e-07
0.00255935
-2.45426e-05
0.00260332
-4.39792e-05
0.00265778
-5.44592e-05
0.0027111
-5.33209e-05
0.0027521
-4.09952e-05
0.00277293
-2.08297e-05
0.00277071
2.21736e-06
0.00274752
2.31903e-05
0.00270919
3.83311e-05
0.00266368
4.55127e-05
0.00261958
4.40947e-05
0.00258498
3.46035e-05
0.00256641
1.85683e-05
0.0025678
-1.38343e-06
0.00258927
-2.14731e-05
0.00262657
-3.73057e-05
0.00267167
-4.50994e-05
0.00271473
-4.30539e-05
0.00274677
-3.20382e-05
0.00276195
-1.51888e-05
0.00275866
3.2947e-06
0.00273917
1.94932e-05
0.0027085
3.0669e-05
0.00267303
3.54629e-05
0.00263942
3.3612e-05
0.00261379
2.56298e-05
0.00260103
1.27659e-05
0.00260384
-2.8087e-06
0.00262184
-1.80022e-05
0.00265121
-2.93742e-05
0.0026854
-3.41871e-05
0.0027168
-3.1406e-05
0.00273888
-2.20717e-05
0.00274773
-8.85048e-06
0.00274278
4.9521e-06
0.00272636
1.64186e-05
0.0027027
2.36588e-05
0.0026768
2.59013e-05
0.00265357
2.32297e-05
0.00263726
1.63078e-05
0.00263093
6.32541e-06
0.00263585
-4.91556e-06
0.00265094
-1.50934e-05
0.0026728
-2.18541e-05
0.00269636
-2.35591e-05
0.00271625
-1.98991e-05
0.00272827
-1.20158e-05
0.00273034
-2.0694e-06
0.00272283
7.51125e-06
0.00270809
1.47414e-05
0.00268962
1.84719e-05
0.00267123
1.83904e-05
0.00265642
1.48054e-05
0.00264797
8.45208e-06
0.00264755
4.20947e-07
0.0026553
-7.753e-06
0.00266978
-1.4482e-05
0.00268767
-1.78914e-05
0.00270563
-1.79541e-05
0.0027185
-1.28771e-05
0.00272713
-8.62283e-06
5.56646e-06
0.00250273
-5.46182e-06
0.00251082
-1.62174e-05
0.00252425
-2.68589e-05
0.00254288
-3.72286e-05
0.00256646
-4.70431e-05
0.00259443
-5.56761e-05
0.00262573
-6.21465e-05
0.00265854
-6.49701e-05
0.00269019
-6.25674e-05
0.00271758
-5.41199e-05
0.00273753
-3.96504e-05
0.0027492
-2.351e-05
0.00275354
-9.26826e-06
0.00275349
-6.89149e-07
0.00275309
1.70396e-07
0.00275549
-4.94137e-06
0.0027615
-1.15297e-05
0.00276871
-1.34188e-05
0.00277194
-5.34825e-06
0.00276545
1.36873e-05
0.00274573
3.94759e-05
0.00271287
6.50748e-05
0.00267021
8.41727e-05
0.00262313
9.27322e-05
0.00257791
8.89144e-05
0.00254099
7.24081e-05
0.0025184
4.40425e-05
0.00251508
6.09049e-06
0.00253368
-3.67589e-05
0.0025726
-7.61558e-05
0.00262435
-0.000100847
0.00267634
-0.0001011
0.00271476
-7.46882e-05
0.00272982
-2.9305e-05
0.00271885
2.13994e-05
0.0026858
6.46254e-05
0.0026384
9.29223e-05
0.00258535
0.000104138
0.00253492
9.89368e-05
0.00249475
7.85205e-05
0.00247205
4.39082e-05
0.00247319
-2.95994e-06
0.00250187
-5.66553e-05
0.00255608
-0.000106068
0.00262594
-0.000136143
0.00269505
-0.000134552
0.00274593
-9.92242e-05
0.0027666
-4.06153e-05
0.00275435
2.35213e-05
0.002715
7.66444e-05
0.00265905
0.000109481
0.00259766
0.000120453
0.00254051
0.000112197
0.00249566
8.77814e-05
0.0024703
4.91018e-05
0.00247069
-1.78746e-06
0.00250045
-5.93862e-05
0.0025575
-0.000112414
0.0026319
-0.000145705
0.00270704
-0.000146529
0.00276452
-0.000111721
0.00279063
-5.05278e-05
0.00278094
1.9212e-05
0.00274061
7.89408e-05
0.00268112
0.000116518
0.00261548
0.000128708
0.00255497
0.000118686
0.0025082
9.14573e-05
0.00248191
5.07597e-05
0.00248147
-4.17643e-07
0.0025096
-5.65573e-05
0.00256378
-0.00010728
0.00263452
-0.000139204
0.0027067
-0.000141501
0.00276375
-0.000111469
0.00279283
-5.63932e-05
0.00278855
9.16185e-06
0.00275393
6.87476e-05
0.00269847
0.000109565
0.00263468
0.00012574
0.00257463
0.000118103
0.00252809
9.11674e-05
0.00250236
4.99295e-05
0.00250238
-7.44842e-07
0.00252967
-5.40636e-05
0.00258049
-9.98985e-05
0.00264514
-0.000126854
0.0027098
-0.000126958
0.00276035
-9.95393e-05
0.00278644
-5.16661e-05
0.00278389
4.70431e-06
0.00275501
5.6763e-05
0.00270724
9.4296e-05
0.00265078
0.000111562
0.0025964
0.00010742
0.00255375
8.41226e-05
0.00253046
4.58536e-05
0.00253135
-1.63844e-06
0.00255715
-5.03365e-05
0.00260332
-9.01521e-05
0.00266029
-0.000111429
0.00271564
-0.00010867
0.00275759
-8.29492e-05
0.00277817
-4.14081e-05
0.00277476
5.63027e-06
0.00274989
4.80607e-05
0.00270982
7.83931e-05
0.00266281
9.25276e-05
0.00261758
8.93259e-05
0.00258231
6.9868e-05
0.00256374
3.71434e-05
0.00256597
-3.61809e-06
0.0025892
-4.46949e-05
0.00262885
-7.69585e-05
0.00267629
-9.25411e-05
0.00272102
-8.77815e-05
0.00275362
-6.46429e-05
0.00276821
-2.97754e-05
0.00276341
8.08998e-06
0.00274196
4.09467e-05
0.00270931
6.33192e-05
0.00267218
7.25968e-05
0.00263742
6.83721e-05
0.00261131
5.17331e-05
0.00259888
2.51985e-05
0.00260289
-6.82268e-06
0.00262285
-3.79603e-05
0.00265455
-6.10729e-05
0.00269087
-7.05024e-05
0.00272366
-6.42008e-05
0.00274606
-4.44754e-05
0.00275419
-1.69729e-05
0.0027477
1.14356e-05
0.00272934
3.4784e-05
0.00270371
4.92869e-05
0.00267614
5.34737e-05
0.00265177
4.75958e-05
0.00263504
3.30423e-05
0.00262911
1.22525e-05
0.00263525
-1.10571e-05
0.00265221
-3.20546e-05
0.00267619
-4.58283e-05
0.00270162
-4.89907e-05
0.0027227
-4.09796e-05
0.00273496
-2.4281e-05
0.00273636
-3.46945e-06
0.00272748
1.63924e-05
0.002711
3.12292e-05
0.00269074
3.87321e-05
0.0026708
3.83236e-05
0.00265493
3.06787e-05
0.00264606
1.73221e-05
0.00264597
5.05622e-07
0.0026548
-1.6581e-05
0.0026709
-3.0583e-05
0.00269063
-3.76145e-05
0.00271016
-3.74913e-05
0.00272411
-2.68195e-05
0.00273298
-1.75005e-05
1.17106e-05
0.00250271
-8.16914e-06
0.00251075
-2.42647e-05
0.00252414
-4.0241e-05
0.00254281
-5.58977e-05
0.00256661
-7.08442e-05
0.00259509
-8.41582e-05
0.0026273
-9.43541e-05
0.0026614
-9.90699e-05
0.00269459
-9.57564e-05
0.00272332
-8.28565e-05
0.00274386
-6.01926e-05
0.00275521
-3.48576e-05
0.00275839
-1.24445e-05
0.00275677
9.2773e-07
0.00275514
1.80478e-06
0.00275728
-7.08023e-06
0.00276432
-1.85751e-05
0.00277359
-2.2691e-05
0.00277902
-1.07782e-05
0.00277384
1.88701e-05
0.00275394
5.93781e-05
0.00271949
9.95252e-05
0.0026743
0.000129362
0.00262426
0.000142773
0.00257604
0.000137129
0.00253641
0.000112045
0.00251178
6.86637e-05
0.00250773
1.01411e-05
0.00252763
-5.66586e-05
0.00257029
-0.000118808
0.00262768
-0.000158236
0.00268554
-0.000158964
0.00272805
-0.000117199
0.0027442
-4.54515e-05
0.00273145
3.41477e-05
0.00269484
0.000101235
0.00264325
0.000144508
0.00258611
0.000161283
0.00253192
0.000153124
0.00248845
0.000121995
0.00246327
6.90876e-05
0.00246361
-3.30542e-06
0.00249428
-8.73179e-05
0.00255373
-0.000165521
0.00263114
-0.000213558
0.00270778
-0.00021119
0.00276354
-0.000154983
0.00278501
-6.20887e-05
0.00276986
3.86806e-05
0.00272547
0.000121032
0.00266405
0.000170896
0.00259778
0.000186722
0.00253655
0.000173427
0.00248823
0.000136102
0.00245991
7.74288e-05
0.00245826
-1.3867e-07
0.00248783
-8.89627e-05
0.00254749
-0.000172068
0.00262741
-0.00022563
0.00270977
-0.000228881
0.0027739
-0.000175856
0.00280391
-8.05368e-05
0.00279429
2.88325e-05
0.00275076
0.000122468
0.00268633
0.000180946
0.00261557
0.000199468
0.00255054
0.000183716
0.00249996
0.000142038
0.00247064
8.00864e-05
0.00246853
1.69034e-06
0.00249729
-8.53165e-05
0.00255477
-0.000164759
0.00263072
-0.000215154
0.00270838
-0.000219167
0.00276963
-0.000172717
0.00280078
-8.75416e-05
0.00279635
1.35881e-05
0.00275977
0.000105333
0.00270119
0.000168143
0.00263377
0.000193159
0.00257009
0.00018178
0.00252041
0.000140853
0.00249268
7.7659e-05
0.0024927
-7.66705e-07
0.00252256
-8.39221e-05
0.00257815
-0.000155485
0.00264835
-0.000197059
0.00271754
-0.000196144
0.0027703
-0.000152305
0.00279601
-7.73776e-05
0.00279111
9.60485e-06
0.00275891
8.89633e-05
0.00270768
0.000145528
0.00264812
0.000171123
0.00259119
0.00016435
0.00254679
0.000128517
0.0025231
6.95532e-05
0.00252553
-4.07353e-06
0.00255502
-7.98296e-05
0.00260637
-0.000141499
0.00266856
-0.000173622
0.00272763
-0.000167738
0.00277079
-0.000126111
0.00278995
-6.05631e-05
0.00278316
1.24223e-05
0.00275402
7.71964e-05
0.00270981
0.0001226
0.00265944
0.000142905
0.00261196
0.000136804
0.0025758
0.000106029
0.00255798
5.49648e-05
0.00256285
-8.48847e-06
0.00259039
-7.22348e-05
0.00263519
-0.000121762
0.00268731
-0.000144666
0.00273502
-0.000135483
0.00276817
-9.7798e-05
0.0027809
-4.25051e-05
0.00277248
1.65144e-05
0.00274657
6.68486e-05
0.0027096
0.000100298
0.00266897
0.000113228
0.002632
0.000105338
0.0026053
7.84353e-05
0.00259409
3.64019e-05
0.00260116
-1.3893e-05
0.00262557
-6.23625e-05
0.00266217
-9.76719e-05
0.00270266
-0.000110994
0.00273789
-9.94342e-05
0.00276049
-6.70715e-05
0.00276666
-2.31471e-05
0.00275668
2.14152e-05
0.0027341
5.73636e-05
0.00270436
7.90278e-05
0.00267344
8.43969e-05
0.00264696
7.40694e-05
0.00262971
5.02989e-05
0.00262503
1.69324e-05
0.00263409
-2.01174e-05
0.00265513
-5.31e-05
0.00268347
-7.41675e-05
0.00271253
-7.80456e-05
0.00273566
-6.41136e-05
0.00274803
-3.66458e-05
0.00274769
-3.13449e-06
0.00273575
2.83364e-05
0.00271556
5.14158e-05
0.00269165
6.26379e-05
0.00266871
6.12689e-05
0.00265091
4.84795e-05
0.00264153
2.67036e-05
0.0026425
-4.66567e-07
0.00265384
-2.79243e-05
0.00267341
-5.0153e-05
0.00269685
-6.10556e-05
0.00271938
-6.00142e-05
0.00273518
-4.26258e-05
0.00274408
-2.64015e-05
1.92335e-05
0.00250267
-1.0843e-05
0.00251063
-3.22211e-05
0.00252393
-5.35379e-05
0.00254262
-7.45935e-05
0.00256672
-9.49369e-05
0.00259594
-0.00011338
0.00262951
-0.000127924
0.0026656
-0.000135167
0.00270122
-0.000131369
0.00273212
-0.000113761
0.00275361
-8.16763e-05
0.00276447
-4.57193e-05
0.0027658
-1.378e-05
0.00276166
5.07151e-06
0.002758
5.46687e-06
0.00275966
-8.74788e-06
0.00276833
-2.7239e-05
0.0027809
-3.52598e-05
0.00278986
-1.97457e-05
0.00278676
2.19746e-05
0.00276654
7.95946e-05
0.00272955
0.000136522
0.00268037
0.00017854
0.00262573
0.000197414
0.00257291
0.000189947
0.00252913
0.000155822
0.0025014
9.63989e-05
0.00249617
1.53669e-05
0.00251803
-7.85215e-05
0.00256654
-0.00016731
0.00263285
-0.000224548
0.00270003
-0.000226149
0.00274897
-0.00016613
0.00276664
-6.31297e-05
0.00275082
4.99742e-05
0.00270836
0.00014369
0.00265012
0.00020275
0.00258665
0.000224752
0.00252681
0.000212966
0.00247841
0.00017039
0.00244945
9.80536e-05
0.00244813
-1.9906e-06
0.00248063
-0.000119817
0.00254649
-0.000231377
0.00263453
-0.000301603
0.00272327
-0.000299928
0.00278814
-0.000219853
0.00281233
-8.628e-05
0.00279333
5.76843e-05
0.00274111
0.000173253
0.00267101
0.000240996
0.00259714
0.000260585
0.00252976
0.000240813
0.00247612
0.00018974
0.00244283
0.000110716
0.00243718
5.50925e-06
0.00246554
-0.000117316
0.00252846
-0.000234995
0.00261611
-0.000313277
0.00270856
-0.000321331
0.0027822
-0.00024949
0.00281841
-0.000116756
0.00281015
3.71012e-05
0.00276328
0.000169331
0.00269256
0.000251669
0.00261468
0.000277348
0.00254308
0.000255321
0.00248694
0.000198169
0.00245359
0.00011344
0.0024502
5.07696e-06
0.00248173
-0.000116841
0.00254591
-0.000228936
0.00263046
-0.00029971
0.00271578
-0.000304488
0.00278163
-0.000238563
0.00281374
-0.000119657
0.00280728
2.00504e-05
0.00276672
0.000145896
0.00270321
0.000231656
0.00263062
0.000265749
0.00256208
0.000250317
0.00250851
0.000194421
0.00247896
0.00010721
0.00248046
-2.26515e-06
0.00251554
-0.000119007
0.002579
-0.000218945
0.00265739
-0.000275441
0.00273258
-0.000271339
0.00278763
-0.000207353
0.00281171
-0.000101456
0.00280227
1.90454e-05
0.00276419
0.000127035
0.00270717
0.000202551
0.00264272
0.00023557
0.00258218
0.000224896
0.00253582
0.000174873
0.00251251
9.28701e-05
0.00251832
-9.88964e-06
0.00255404
-0.000115543
0.00261309
-0.00020055
0.00268239
-0.000242923
0.00274605
-0.000231405
0.00279023
-0.000170287
0.00280681
-7.71387e-05
0.00279475
2.4476e-05
0.00275912
0.000112832
0.00270862
0.000173102
0.00265319
0.000198334
0.0026025
0.000187487
0.00256541
0.000143122
0.00254933
7.10448e-05
0.00255873
-1.78931e-05
0.00259297
-0.00010647
0.00264515
-0.000173939
0.00270348
-0.000203
0.00275472
-0.000186723
0.00278804
-0.000131116
0.00279773
-5.21956e-05
0.00278394
3.03073e-05
0.0027516
9.91859e-05
0.0027084
0.000143496
0.00266279
0.000158834
0.00262282
0.000145309
0.0025956
0.000105658
0.00258666
4.53425e-05
0.00259862
-2.58565e-05
0.00262968
-9.34214e-05
0.0026732
-0.000141187
0.0027192
-0.000157001
0.00275731
-0.000137535
0.00277963
-8.93961e-05
0.00278267
-2.61893e-05
0.00276755
3.65406e-05
0.00273893
8.59771e-05
0.00270339
0.000114571
0.00266783
0.000119959
0.00263859
0.000103304
0.00262097
6.79249e-05
0.00261854
1.93598e-05
0.00263221
-3.37901e-05
0.00265933
-8.02217e-05
0.00269383
-0.000108667
0.0027277
-0.000111908
0.00275325
-8.96665e-05
0.00276527
-4.86643e-05
0.0027621
3.21643e-08
0.00274559
4.48471e-05
0.00272007
7.69365e-05
0.00269102
9.16892e-05
0.00266394
8.83523e-05
0.00264366
6.87585e-05
0.00263393
3.64298e-05
0.00263686
-3.39885e-06
0.0026522
-4.32635e-05
0.00267695
-7.4897e-05
0.00270564
-8.97507e-05
0.00273212
-8.64895e-05
0.00275014
-6.06448e-05
0.00275855
-3.48155e-05
2.90005e-05
0.00250262
-1.34629e-05
0.00251043
-4.00289e-05
0.00252356
-6.66748e-05
0.00254223
-9.32615e-05
0.00256664
-0.000119347
0.00259679
-0.000143532
0.00263218
-0.000163313
0.00267105
-0.00017403
0.00271013
-0.000170453
0.00274418
-0.000147813
0.00276702
-0.000104512
0.00277715
-5.58534e-05
0.00277575
-1.23738e-05
0.00276784
1.29751e-05
0.00276116
1.21469e-05
0.0027621
-9.68811e-06
0.00277314
-3.82794e-05
0.0027906
-5.27215e-05
0.00280483
-3.39673e-05
0.00280478
2.20192e-05
0.0027841
0.000100281
0.00274344
0.000177175
0.00268865
0.000233331
0.00262764
0.00025843
0.00256848
0.000249101
0.00251895
0.000205354
0.00248674
0.000128611
0.0024796
2.2502e-05
0.00250404
-0.000102957
0.00256094
-0.000224208
0.00264026
-0.000303867
0.00272088
-0.000306778
0.00277879
-0.000224035
0.00279826
-8.26014e-05
0.00277767
7.05671e-05
0.0027267
0.000194655
0.00265908
0.000270374
0.00258695
0.000296882
0.00251952
0.000280396
0.00246445
0.000225456
0.00242966
0.000132842
0.00242379
3.88401e-06
0.00245451
-0.000150536
0.00252408
-0.000300949
0.00262328
-0.000400797
0.00272879
-0.000405439
0.00280994
-0.000301003
0.00284303
-0.00011937
0.00282275
7.7966e-05
0.00276167
0.000234326
0.00268011
0.000322555
0.00259584
0.000344857
0.00251999
0.00031667
0.00245885
0.000250877
0.00241844
0.000151128
0.00240762
1.63252e-05
0.00243587
-0.000145568
0.00250535
-0.000304469
0.00260428
-0.000412209
0.0027088
-0.000425853
0.00279201
-0.0003327
0.00283372
-0.000158464
0.00282631
4.45134e-05
0.00277585
0.00021979
0.00269828
0.000329234
0.00261217
0.00036346
0.00253251
0.000334984
0.00246956
0.000261114
0.00243203
0.000150969
0.00242905
8.06431e-06
0.00246658
-0.000154371
0.00254098
-0.000303337
0.00263664
-0.000395376
0.00273054
-0.000398389
0.00280039
-0.000308412
0.00283169
-0.000150951
0.00282076
3.09723e-05
0.00277384
0.000192816
0.00270351
0.000301988
0.00262446
0.000344802
0.00255031
0.000324467
0.00249279
0.000251944
0.00246234
0.000137658
0.00246728
-7.20345e-06
0.00250998
-0.000161715
0.00258324
-0.000292205
0.00267074
-0.000362939
0.002752
-0.000352599
0.00280883
-0.000264176
0.00283033
-0.00012296
0.00281495
3.44257e-05
0.00276928
0.000172708
0.00270473
0.000267094
0.00263404
0.000306265
0.00256918
0.00028976
0.00252104
0.00022301
0.00249926
0.000114649
0.00251033
-2.09576e-05
0.00255419
-0.000159401
0.00262222
-0.000268585
0.00269898
-0.000319686
0.00276689
-0.00029931
0.00281138
-0.000214776
0.00282452
-9.0284e-05
0.00280619
4.28043e-05
0.00276287
0.000156157
0.00270484
0.000231135
0.00264333
0.000259838
0.00258894
0.000241875
0.00255121
0.000180859
0.00253802
8.423e-05
0.00255369
-3.3566e-05
0.00259633
-0.000149107
0.00265696
-0.000234571
0.00272173
-0.000267762
0.00277603
-0.000241031
0.00280868
-0.000163764
0.00281437
-5.78799e-05
0.00279418
5.04917e-05
0.00275436
0.000139007
0.00270396
0.000193898
0.00265264
0.000210157
0.0026094
0.000188542
0.00258211
0.000132957
0.00257662
5.0832e-05
0.00259513
-4.43744e-05
0.00263445
-0.000132737
0.0026859
-0.000192642
0.00273765
-0.000208746
0.00277815
-0.000178038
0.00279932
-0.000110565
0.00279816
-2.50296e-05
0.00277678
5.79259e-05
0.00274107
0.000121687
0.00269881
0.000156822
0.00265802
0.000160751
0.00262594
0.00013539
0.00260851
8.53533e-05
0.00260955
1.8316e-05
0.00262944
-5.36789e-05
0.00266416
-0.000114943
0.00270582
-0.00015033
0.00274477
-0.000150855
0.00277235
-0.000117249
0.00278318
-5.94898e-05
0.00277609
7.11703e-06
0.00275386
6.70781e-05
0.00272192
0.000108875
0.00268684
0.000126771
0.00265508
0.000120113
0.00263229
9.15501e-05
0.0026228
4.59215e-05
0.00262884
-9.44044e-06
0.00264964
-6.40617e-05
0.00268092
-0.000106181
0.00271578
-0.000124612
0.00274645
-0.000117157
0.00276637
-8.05671e-05
0.00277339
-4.18284e-05
4.19062e-05
0.00250254
-1.6001e-05
0.00251012
-4.76073e-05
0.00252298
-7.95358e-05
0.00254151
-0.000111789
0.00256619
-0.000144031
0.00259741
-0.000174748
0.00263506
-0.000200968
0.00267755
-0.000216519
0.00272139
-0.000214293
0.00275985
-0.000186268
0.00278459
-0.000129256
0.00279379
-6.5052e-05
0.0027886
-7.18338e-06
0.00277536
2.62106e-05
0.00276425
2.32545e-05
0.00276392
-9.35721e-06
0.00277813
-5.24885e-05
0.00280246
-7.70509e-05
0.00282416
-5.5668e-05
0.00282851
1.7675e-05
0.00280724
0.000121553
0.00276162
0.000222793
0.00269932
0.000295632
0.00262992
0.000327825
0.00256251
0.000316509
0.0025054
0.000262466
0.00246703
0.000166984
0.00245695
3.25797e-05
0.00248474
-0.000130747
0.00255357
-0.000293042
0.00265152
-0.000401812
0.00275089
-0.000406148
0.00282042
-0.000293568
0.00284115
-0.000103325
0.00281307
9.8644e-05
0.00275014
0.000257579
0.00267002
0.0003505
0.00258682
0.000380082
0.00250993
0.000357279
0.00244618
0.000289215
0.0024022
0.000176822
0.00238649
1.95954e-05
0.00240989
-0.000173943
0.00248007
-0.000371128
0.00259063
-0.000511354
0.00271593
-0.000530742
0.002819
-0.000404076
0.00286821
-0.000168576
0.00285255
9.36239e-05
0.00278494
0.000301943
0.00269099
0.000416498
0.00259398
0.000441865
0.00250719
0.000403468
0.00243637
0.000321695
0.00238778
0.00019972
0.00237334
3.07658e-05
0.00240587
-0.000178103
0.00248702
-0.00038562
0.00260051
-0.000525695
0.00271741
-0.000542761
0.00280801
-0.000423299
0.00285186
-0.000202309
0.00284239
5.3987e-05
0.00278672
0.000275457
0.0027017
0.000414255
0.00260693
0.000458225
0.00251863
0.000423291
0.00244863
0.000331114
0.00240792
0.000191673
0.00240774
8.24236e-06
0.00245396
-0.000200585
0.00254005
-0.000389426
0.00264666
-0.000501989
0.00274811
-0.000499841
0.00282091
-0.000381212
0.00285044
-0.000180477
0.00283392
4.7492e-05
0.00277929
0.000247441
0.00270091
0.000380369
0.00261458
0.000431136
0.00253459
0.000404454
0.00247368
0.000312857
0.00244375
0.000167585
0.00245393
-1.73815e-05
0.00250549
-0.00021328
0.00258851
-0.000375224
0.00268396
-0.000458387
0.0027698
-0.00043844
0.00282739
-0.000321761
0.00284597
-0.000141545
0.00282461
5.57822e-05
0.00277117
0.000226154
0.00269867
0.000339587
0.00262128
0.000383663
0.002552
0.000359035
0.00250268
0.000272334
0.00248371
0.000133617
0.00250146
-3.87067e-05
0.00255425
-0.000212197
0.00263095
-0.000345279
0.00271392
-0.000402659
0.00278455
-0.000369939
0.00282823
-0.000258453
0.00283747
-9.95223e-05
0.00281286
6.74112e-05
0.00276196
0.000207053
0.00269642
0.00029668
0.00262881
0.000327441
0.00257092
0.000299767
0.00253324
0.000218537
0.00252415
9.33211e-05
0.00254735
-5.67598e-05
0.00259903
-0.000200793
0.00266778
-0.000303317
0.00273781
-0.00033779
0.00279375
-0.000296969
0.00282455
-0.00019457
0.00282557
-5.89018e-05
0.00279879
7.7271e-05
0.00275153
0.000186274
0.00269403
0.000251391
0.00263719
0.000266995
0.00259116
0.000234576
0.00256469
0.00015943
0.00256393
5.15855e-05
0.00259026
-7.07028e-05
0.00263849
-0.000180969
0.00269763
-0.000251778
0.00275408
-0.000265197
0.00279564
-0.000219598
0.00281445
-0.000129373
0.00280826
-1.8842e-05
0.00278018
8.60094e-05
0.00273722
0.000164651
0.0026883
0.000205738
0.00264254
0.000206513
0.00260821
0.000169717
0.00259204
0.000101527
0.00259794
1.24138e-05
0.00262536
-8.11002e-05
0.00266843
-0.000158012
0.00271717
-0.00019907
0.00276039
-0.000194071
0.00278882
-0.000145684
0.00279729
-6.79572e-05
0.00278535
1.9051e-05
0.00275677
9.5664e-05
0.00271805
0.000147595
0.00267683
0.00016799
0.00264059
0.000156351
0.0026159
0.000116248
0.00260769
5.4122e-05
0.0026182
-1.99413e-05
0.00264572
-9.15836e-05
0.00268429
-0.000144757
0.00272534
-0.000165655
0.00275953
-0.000151353
0.00278034
-0.000101377
0.00278472
-4.62045e-05
5.87608e-05
0.00250242
-1.84194e-05
0.00250966
-5.48463e-05
0.00252207
-9.19532e-05
0.00254027
-0.000129989
0.00256509
-0.00016885
0.00259742
-0.000207073
0.00263775
-0.000241303
0.00268483
-0.000263597
0.00273504
-0.000264505
0.00277951
-0.00023073
0.0028068
-0.00015655
0.00281467
-7.29247e-05
0.0028042
3.29025e-06
0.00278351
4.69017e-05
0.00276623
4.05366e-05
0.0027641
-7.22811e-06
0.00278269
-7.10823e-05
0.00281663
-0.000110995
0.00284879
-8.7827e-05
0.00285915
7.31779e-06
0.00283695
0.000143751
0.00278461
0.000275134
0.00271253
0.000367717
0.00263253
0.000407826
0.0025548
0.00039424
0.00248803
0.000329227
0.00244142
0.000213596
0.00242687
4.71319e-05
0.00245777
-0.000161644
0.00254028
-0.000375551
0.00266169
-0.000523229
0.00278722
-0.00053168
0.00287435
-0.000380699
0.00289736
-0.000126327
0.00285857
0.000137429
0.00277911
0.000337036
0.00268269
0.000446925
0.00258594
0.000476828
0.00249784
0.000445386
0.00242287
0.00036418
0.00236538
0.000234316
0.00233552
4.9454e-05
0.00235134
-0.000189768
0.00242654
-0.00044632
0.00255288
-0.000637699
0.00269827
-0.000676134
0.00282082
-0.000526628
0.00288553
-0.000233285
0.00287727
0.000101886
0.00280658
0.000372634
0.00270171
0.00052137
0.00259114
0.000552432
0.00249151
0.000503098
0.00240964
0.000403566
0.00235378
0.000255575
0.00233957
4.49794e-05
0.00238115
-0.000219682
0.00247655
-0.000481017
0.002604
-0.000653147
0.00273102
-0.000669785
0.00282661
-0.000518891
0.00287036
-0.000246053
0.00285672
6.76287e-05
0.00279435
0.000337821
0.0027013
0.000507303
0.00259791
0.000561621
0.00250126
0.000519938
0.00242508
0.000407299
0.00238298
0.000233773
0.00238764
3.58501e-06
0.00244331
-0.000256262
0.00253977
-0.000485885
0.00265456
-0.000616773
0.00276084
-0.000606122
0.00283517
-0.000455543
0.002863
-0.000208306
0.00284167
6.88186e-05
0.00277999
0.000309122
0.0026938
0.000466559
0.0026003
0.000524639
0.0025149
0.000489852
0.00245164
0.000376121
0.00242369
0.00019553
0.00244018
-3.38683e-05
0.00250035
-0.000273456
0.00259136
-0.000466226
0.00269211
-0.000559142
0.00278009
-0.000526418
0.00283706
-0.000378731
0.00285271
-0.000157198
0.00282636
8.21342e-05
0.0027664
0.000286119
0.00268694
0.000419039
0.00260351
0.000467095
0.00253049
0.000432054
0.00248095
0.000321875
0.00246593
0.00014864
0.00249102
-6.37957e-05
0.00255226
-0.00027344
0.00263589
-0.000428907
0.0027227
-0.000489467
0.00279388
-0.000441119
0.00283544
-0.000300018
0.00284059
-0.000104674
0.00281044
9.75627e-05
0.00275314
0.000264353
0.00268124
0.000368584
0.00260851
0.000400166
0.00254806
0.000360216
0.00251154
0.000255061
0.00250763
9.7233e-05
0.00253887
-8.80006e-05
0.00259904
-0.000260961
0.00267422
-0.000378503
0.00274729
-0.000410857
0.00280284
-0.000352519
0.00283056
-0.000222285
0.00282662
-5.497e-05
0.00279375
0.00011014
0.00274
0.000240032
0.0026765
0.00031489
0.00261523
0.000328262
0.00256756
0.000282246
0.00254322
0.000183774
0.00254842
4.63855e-05
0.00258315
-0.000105434
0.0026398
-0.000237619
0.00270505
-0.000317035
0.00276412
-0.000324267
0.00280482
-0.000260296
0.00282002
-0.000144571
0.00280838
-7.1985e-06
0.00277386
0.000120525
0.00272435
0.000214162
0.00266969
0.000260395
0.00262004
0.000256165
0.00258476
0.000205003
0.00257131
0.000114978
0.00258343
2.89977e-07
0.00261911
-0.000116783
0.00267022
-0.00020912
0.00272473
-0.000253581
0.0027704
-0.000239741
0.00279796
-0.000173248
0.00280287
-7.28581e-05
0.00278553
3.63885e-05
0.00275061
0.000130585
0.00270553
0.000192672
0.00265887
0.000214651
0.0026191
0.000196121
0.00259373
0.000141618
0.00258827
5.95818e-05
0.00260457
-3.62472e-05
0.00263957
-0.000126583
0.00268527
-0.000190451
0.00273143
-0.00021182
0.00276762
-0.000187542
0.00278778
-0.000121534
0.00278825
-4.66716e-05
8.01014e-05
0.00250225
-2.06695e-05
0.00250901
-6.16017e-05
0.00252075
-0.000103696
0.00253833
-0.000147573
0.00256302
-0.000193533
0.00259636
-0.000240419
0.00263972
-0.000284666
0.00269249
-0.00031636
0.00275117
-0.000323188
0.00280381
-0.000283373
0.00283464
-0.000187379
0.00284098
-7.92662e-05
0.00282349
2.07875e-05
0.0027925
7.78868e-05
0.00276633
6.67098e-05
0.00276108
-1.98545e-06
0.00278522
-9.5215e-05
0.00283228
-0.000158059
0.00287897
-0.000134519
0.00289775
-1.14582e-05
0.00287442
0.000167081
0.00281323
0.000336325
0.00272858
0.000452367
0.00263537
0.000501037
0.00254499
0.000484618
0.00246629
0.000407926
0.00240911
0.000270779
0.00238685
6.93925e-05
0.00241411
-0.000188908
0.00250043
-0.000461872
0.00264039
-0.000663187
0.00280009
-0.000691384
0.00292177
-0.000502373
0.00296031
-0.000164872
0.00291393
0.000183811
0.00281435
0.000436619
0.00269709
0.000564179
0.00258397
0.000589954
0.00248277
0.000546588
0.00239389
0.000453062
0.00232008
0.000308124
0.00227772
9.18069e-05
0.0022944
-0.000206445
0.0023847
-0.000536623
0.00253149
-0.000784483
0.002694
-0.000838645
0.002828
-0.000660631
0.00290011
-0.000305397
0.00289554
0.000106464
0.00282268
0.000445486
0.00270917
0.000634886
0.00258603
0.000675573
0.00247321
0.000615918
0.0023805
0.000496272
0.00231988
0.0003162
0.00230972
5.51393e-05
0.00236227
-0.000272238
0.00246996
-0.000588706
0.00260675
-0.000789933
0.00273943
-0.000802462
0.00283778
-0.000617243
0.00288143
-0.000289708
0.00286449
8.45692e-05
0.00279616
0.000406149
0.00269568
0.000607784
0.00258438
0.000672924
0.00248047
0.000623846
0.00239975
0.000488023
0.00235814
0.000275375
0.00236859
-6.86037e-06
0.0024326
-0.000320271
0.0025363
-0.000589584
0.00265531
-0.000735783
0.00276305
-0.000713866
0.00283716
-0.000529654
0.00286355
-0.000234692
0.00283917
9.31999e-05
0.0027726
0.000375685
0.00268038
0.000558785
0.00258097
0.000624042
0.00249133
0.000579493
0.00242706
0.000440391
0.00240227
0.000220323
0.0024252
-5.67935e-05
0.00249249
-0.000340754
0.00258867
-0.000562403
0.00269153
-0.000661999
0.00277899
-0.000613881
0.00283391
-0.000433645
0.00284667
-0.000169964
0.00281666
0.000112144
0.00275219
0.000350595
0.00266776
0.000503465
0.00257993
0.000554927
0.00250454
0.000507438
0.00245604
0.000370384
0.00244579
0.000158885
0.002478
-9.60087e-05
0.00254608
-0.000341516
0.00263399
-0.000516813
0.00272176
-0.000577246
0.00279122
-0.00051058
0.0028295
-0.000338291
0.00283062
-0.000105795
0.00279604
0.00013214
0.00273408
0.000326311
0.0026577
0.000444966
0.00258159
0.00047628
0.00252014
0.000421664
0.00248612
0.000289084
0.00248817
9.5178e-05
0.00252712
-0.00012695
0.00259407
-0.000327906
0.00267304
-0.00045748
0.00274639
-0.000484208
0.00279946
-0.00040558
0.00282305
-0.00024588
0.00281426
-4.61832e-05
0.00277632
0.000148085
0.00271763
0.000298721
0.00264987
0.000382647
0.00258592
0.000392212
0.00253832
0.000329854
0.00251762
0.00020447
0.00252967
3.43369e-05
0.0025725
-0.000148263
0.00263587
-0.000300991
0.00270463
-0.000385796
0.00276363
-0.000383266
0.00280145
-0.000298115
0.00281206
-0.000155188
0.00279505
9.82017e-06
0.002755
0.000160574
0.00270032
0.000268835
0.00264154
0.000319182
0.00258971
0.000307988
0.00255526
0.00023946
0.00254618
0.000124053
0.00256554
-1.90661e-05
0.00260929
-0.000160534
0.0026669
-0.000266731
0.00272478
-0.000311467
0.00277045
-0.000285403