/*--------------------------------*- C++ -*----------------------------------*\
  =========                 |
  \\      /  F ield         | OpenFOAM: The Open Source CFD Toolbox
   \\    /   O peration     | Website:  https://openfoam.org
    \\  /    A nd           | Version:  11
     \\/     M anipulation  |
\*---------------------------------------------------------------------------*/
FoamFile
{
    format      ascii;
    class       volScalarField;
    location    "0.360397";
    object      p;
}
// * * * * * * * * * * * * * * * * * * * * * * * * * * * * * * * * * * * * * //

dimensions      [0 2 -2 0 0 0 0];

internalField   nonuniform List<scalar> 
7132
(
0.0733605
0.0722442
0.0684707
0.0630389
0.0555497
0.0459609
0.0343806
0.0212057
0.00713834
-0.00635014
-0.0180432
-0.0259468
-0.0302044
-0.0307466
-0.0287784
-0.0253745
-0.0213839
-0.0174427
-0.0138785
-0.0108379
-0.00834519
-0.00635683
-0.00480257
-0.00360547
-0.00269363
-0.0020049
-0.001488
-0.00110196
-0.000814729
-0.000601626
-0.000443865
-0.000327268
-0.000241204
-0.000177737
-0.000130967
-9.6519e-05
-7.1156e-05
-5.24861e-05
-3.87445e-05
-2.86305e-05
-2.11854e-05
-1.5704e-05
-1.16667e-05
-8.69172e-06
-6.49791e-06
-4.87873e-06
-3.68214e-06
-2.79653e-06
-2.13967e-06
-1.65129e-06
-1.28692e-06
-1.01401e-06
-8.08493e-07
-6.52806e-07
-5.33921e-07
-4.42346e-07
-3.71021e-07
-3.14814e-07
-2.6989e-07
-2.33468e-07
-2.0346e-07
-1.78348e-07
-1.56993e-07
-1.38558e-07
-1.22416e-07
-1.08099e-07
-9.52611e-08
-8.3627e-08
-7.30106e-08
-6.32379e-08
-5.42122e-08
-4.58133e-08
-3.7996e-08
-3.06686e-08
-2.38163e-08
-1.73622e-08
-1.13109e-08
-5.59282e-09
-2.2506e-10
4.85782e-09
9.63035e-09
1.41555e-08
1.84022e-08
2.24315e-08
2.62085e-08
2.97927e-08
3.31466e-08
3.6328e-08
3.92979e-08
4.21122e-08
4.47314e-08
4.72091e-08
4.95062e-08
5.16736e-08
5.36731e-08
5.55529e-08
5.72762e-08
5.8888e-08
6.03536e-08
6.17147e-08
6.29388e-08
6.40642e-08
6.5061e-08
6.5964e-08
6.67461e-08
6.74384e-08
6.8017e-08
6.8509e-08
6.8894e-08
6.91953e-08
6.93958e-08
6.95148e-08
6.95389e-08
6.94836e-08
6.93389e-08
6.91166e-08
6.88101e-08
6.84276e-08
6.79661e-08
6.743e-08
6.68198e-08
6.61364e-08
6.53836e-08
6.45591e-08
6.36699e-08
6.27102e-08
6.16906e-08
6.0602e-08
5.94579e-08
5.82464e-08
5.6984e-08
5.56558e-08
5.42814e-08
5.2843e-08
5.1363e-08
4.9821e-08
4.8242e-08
4.66033e-08
4.49323e-08
4.3204e-08
4.14481e-08
3.96375e-08
3.78039e-08
3.59183e-08
3.40144e-08
3.20609e-08
3.00938e-08
2.80792e-08
2.60563e-08
2.39877e-08
2.19179e-08
1.98052e-08
1.76976e-08
1.55549e-08
1.34166e-08
1.12416e-08
9.12735e-09
6.77732e-09
4.76376e-09
3.21904e-09
0.0738059
0.0726951
0.0689416
0.0635227
0.0560267
0.0463861
0.034685
0.0212989
0.00693421
-0.00688409
-0.0188785
-0.0268564
-0.0310703
-0.0314052
-0.0292023
-0.0255922
-0.0214446
-0.0174046
-0.0137876
-0.0107268
-0.00823413
-0.00625641
-0.00471716
-0.00353571
-0.00263823
-0.00196177
-0.00145491
-0.00107685
-0.000795817
-0.000587467
-0.000433311
-0.000319428
-0.000235394
-0.00017344
-0.000127794
-9.41784e-05
-6.94309e-05
-5.12156e-05
-3.78092e-05
-2.79422e-05
-2.06791e-05
-1.53316e-05
-1.13928e-05
-8.49035e-06
-6.34985e-06
-4.76988e-06
-3.60211e-06
-2.73769e-06
-2.09642e-06
-1.61949e-06
-1.26354e-06
-9.96815e-07
-7.95849e-07
-6.4351e-07
-5.27081e-07
-4.37317e-07
-3.67319e-07
-3.12092e-07
-2.67885e-07
-2.31995e-07
-2.02373e-07
-1.7755e-07
-1.56403e-07
-1.38125e-07
-1.22096e-07
-1.07864e-07
-9.5087e-08
-8.35001e-08
-7.29162e-08
-6.31698e-08
-5.41615e-08
-4.57776e-08
-3.79697e-08
-3.06508e-08
-2.38037e-08
-1.73547e-08
-1.13061e-08
-5.59109e-09
-2.24805e-10
4.85633e-09
9.62813e-09
1.41524e-08
1.83988e-08
2.24278e-08
2.62046e-08
2.97888e-08
3.31425e-08
3.6324e-08
3.92937e-08
4.21083e-08
4.47273e-08
4.72054e-08
4.95022e-08
5.16702e-08
5.36693e-08
5.55498e-08
5.72726e-08
5.88852e-08
6.03503e-08
6.17123e-08
6.29358e-08
6.40621e-08
6.50584e-08
6.59623e-08
6.67438e-08
6.74371e-08
6.8015e-08
6.85082e-08
6.88924e-08
6.91948e-08
6.93945e-08
6.95147e-08
6.95379e-08
6.94838e-08
6.93381e-08
6.9117e-08
6.88096e-08
6.84283e-08
6.79658e-08
6.74308e-08
6.68196e-08
6.61374e-08
6.53837e-08
6.45602e-08
6.367e-08
6.27115e-08
6.16909e-08
6.06033e-08
5.94582e-08
5.82478e-08
5.69844e-08
5.56573e-08
5.42818e-08
5.28445e-08
5.13633e-08
4.98224e-08
4.82423e-08
4.66047e-08
4.49325e-08
4.32053e-08
4.14482e-08
3.96386e-08
3.78039e-08
3.59194e-08
3.40143e-08
3.20618e-08
3.00936e-08
2.808e-08
2.60558e-08
2.39881e-08
2.1917e-08
1.98052e-08
1.76965e-08
1.5555e-08
1.34159e-08
1.12426e-08
9.12632e-09
6.77975e-09
4.75599e-09
3.23524e-09
0.074694
0.0735957
0.0698845
0.0644963
0.0569915
0.0472527
0.0353136
0.0215023
0.00653208
-0.00796662
-0.0205841
-0.0287001
-0.0328128
-0.0327032
-0.0300129
-0.0259858
-0.0215291
-0.017301
-0.0135883
-0.0104953
-0.00800818
-0.00605497
-0.00454727
-0.00339761
-0.00252881
-0.00187667
-0.00138963
-0.00102728
-0.000758476
-0.000559504
-0.000412466
-0.000303942
-0.000223919
-0.000164954
-0.000121528
-8.9557e-05
-6.60252e-05
-4.87073e-05
-3.59629e-05
-2.65835e-05
-1.96796e-05
-1.45964e-05
-1.08522e-05
-8.09283e-06
-6.05757e-06
-4.55499e-06
-3.44412e-06
-2.62154e-06
-2.01101e-06
-1.5567e-06
-1.21736e-06
-9.62859e-07
-7.70874e-07
-6.25137e-07
-5.13561e-07
-4.27365e-07
-3.59988e-07
-3.06691e-07
-2.63901e-07
-2.29054e-07
-2.00198e-07
-1.7594e-07
-1.55208e-07
-1.37236e-07
-1.21432e-07
-1.07367e-07
-9.47118e-08
-8.3216e-08
-7.26984e-08
-6.3002e-08
-5.40297e-08
-4.56733e-08
-3.7885e-08
-3.05814e-08
-2.37449e-08
-1.73045e-08
-1.12618e-08
-5.55166e-09
-1.88741e-10
4.88929e-09
9.65889e-09
1.4181e-08
1.84257e-08
2.2453e-08
2.62286e-08
2.98116e-08
3.31645e-08
3.63452e-08
3.93143e-08
4.21283e-08
4.47467e-08
4.72245e-08
4.95207e-08
5.16884e-08
5.3687e-08
5.55671e-08
5.72894e-08
5.89018e-08
6.03663e-08
6.17281e-08
6.29511e-08
6.40773e-08
6.50729e-08
6.59768e-08
6.67577e-08
6.74509e-08
6.80282e-08
6.85212e-08
6.89048e-08
6.92072e-08
6.94062e-08
6.95264e-08
6.9549e-08
6.94949e-08
6.93486e-08
6.91275e-08
6.88195e-08
6.84382e-08
6.79751e-08
6.74403e-08
6.68285e-08
6.61463e-08
6.5392e-08
6.45686e-08
6.36778e-08
6.27194e-08
6.16982e-08
6.06107e-08
5.9465e-08
5.82547e-08
5.69907e-08
5.56637e-08
5.42876e-08
5.28504e-08
5.13687e-08
4.98279e-08
4.82472e-08
4.66097e-08
4.49369e-08
4.32098e-08
4.14521e-08
3.96427e-08
3.78074e-08
3.5923e-08
3.40173e-08
3.20651e-08
3.00962e-08
2.80828e-08
2.6058e-08
2.39905e-08
2.19187e-08
1.98071e-08
1.76977e-08
1.55567e-08
1.34169e-08
1.12446e-08
9.12636e-09
6.78238e-09
4.75105e-09
3.24828e-09
0.0760203
0.074943
0.0713022
0.0659704
0.0584658
0.0485932
0.0363047
0.0218457
0.00593469
-0.00964914
-0.0232686
-0.0315978
-0.0355599
-0.0347411
-0.0312841
-0.0266059
-0.0216679
-0.0171484
-0.0132876
-0.0101444
-0.00766573
-0.00575011
-0.00429085
-0.00318989
-0.00236487
-0.00174967
-0.00129256
-0.000953812
-0.000703271
-0.000518244
-0.000381752
-0.000281148
-0.000207042
-0.00015248
-0.00011232
-8.27669e-05
-6.10221e-05
-4.50232e-05
-3.32512e-05
-2.45883e-05
-1.82119e-05
-1.3517e-05
-1.00585e-05
-7.50922e-06
-5.62849e-06
-4.23955e-06
-3.21224e-06
-2.45109e-06
-1.88572e-06
-1.46461e-06
-1.14968e-06
-9.13114e-07
-7.34315e-07
-5.98274e-07
-4.93823e-07
-4.12868e-07
-3.49342e-07
-2.98876e-07
-2.58166e-07
-2.2485e-07
-1.97118e-07
-1.73687e-07
-1.53562e-07
-1.36036e-07
-1.2056e-07
-1.06735e-07
-9.42557e-08
-8.28895e-08
-7.24665e-08
-6.28398e-08
-5.39183e-08
-4.55993e-08
-3.78383e-08
-3.05548e-08
-2.3733e-08
-1.73033e-08
-1.12684e-08
-5.5638e-09
-2.04886e-10
4.87069e-09
9.63859e-09
1.41601e-08
1.84044e-08
2.24322e-08
2.6208e-08
2.97916e-08
3.31447e-08
3.63261e-08
3.92953e-08
4.211e-08
4.47285e-08
4.72069e-08
4.95033e-08
5.16716e-08
5.36704e-08
5.55513e-08
5.72738e-08
5.88869e-08
6.03517e-08
6.17141e-08
6.29373e-08
6.40641e-08
6.50599e-08
6.59643e-08
6.67454e-08
6.74393e-08
6.80167e-08
6.85104e-08
6.88943e-08
6.91972e-08
6.93964e-08
6.95171e-08
6.95399e-08
6.94862e-08
6.93401e-08
6.91194e-08
6.88115e-08
6.84306e-08
6.79677e-08
6.74331e-08
6.68215e-08
6.61396e-08
6.53854e-08
6.45623e-08
6.36717e-08
6.27135e-08
6.16924e-08
6.06052e-08
5.94597e-08
5.82495e-08
5.69857e-08
5.56589e-08
5.4283e-08
5.28459e-08
5.13644e-08
4.98237e-08
4.82432e-08
4.66058e-08
4.49332e-08
4.32062e-08
4.14487e-08
3.96393e-08
3.78042e-08
3.59199e-08
3.40144e-08
3.20622e-08
3.00935e-08
2.80801e-08
2.60555e-08
2.39879e-08
2.19162e-08
1.98045e-08
1.76953e-08
1.55544e-08
1.34146e-08
1.12429e-08
9.12348e-09
6.78242e-09
4.74505e-09
3.25749e-09
0.0777766
0.0767312
0.0731977
0.067961
0.0604827
0.050459
0.0377229
0.0223857
0.0051638
-0.0119845
-0.0270516
-0.0356147
-0.0393299
-0.0374337
-0.0328767
-0.0273067
-0.0217366
-0.016857
-0.0128291
-0.00964452
-0.00719471
-0.00533985
-0.0039506
-0.00291671
-0.00215045
-0.00158409
-0.00116623
-0.00085829
-0.00063154
-0.00046466
-0.000341882
-0.000251572
-0.000185152
-0.000136306
-0.000100385
-7.39684e-05
-5.45406e-05
-4.02511e-05
-2.97391e-05
-2.20044e-05
-1.63113e-05
-1.21193e-05
-9.03074e-06
-6.75358e-06
-5.07295e-06
-3.83115e-06
-2.91201e-06
-2.23039e-06
-1.72349e-06
-1.34535e-06
-1.06201e-06
-8.48669e-07
-6.86939e-07
-5.63446e-07
-4.68217e-07
-3.94041e-07
-3.35497e-07
-2.88695e-07
-2.50676e-07
-2.1934e-07
-1.93062e-07
-1.70701e-07
-1.51362e-07
-1.34415e-07
-1.19364e-07
-1.05853e-07
-9.36036e-08
-8.24072e-08
-7.21085e-08
-6.25736e-08
-5.37191e-08
-4.54496e-08
-3.77244e-08
-3.04673e-08
-2.36645e-08
-1.72487e-08
-1.12238e-08
-5.52656e-09
-1.72927e-10
4.89853e-09
9.66331e-09
1.41822e-08
1.84243e-08
2.24502e-08
2.62246e-08
2.98072e-08
3.31595e-08
3.63404e-08
3.93093e-08
4.21239e-08
4.47423e-08
4.72207e-08
4.9517e-08
5.16852e-08
5.36838e-08
5.55646e-08
5.72868e-08
5.88998e-08
6.03642e-08
6.17265e-08
6.29494e-08
6.40761e-08
6.50717e-08
6.5976e-08
6.67568e-08
6.74504e-08
6.80275e-08
6.85209e-08
6.89044e-08
6.9207e-08
6.94059e-08
6.95263e-08
6.95488e-08
6.94949e-08
6.93486e-08
6.91276e-08
6.88195e-08
6.84383e-08
6.79751e-08
6.74403e-08
6.68285e-08
6.61463e-08
6.53919e-08
6.45686e-08
6.36778e-08
6.27194e-08
6.16981e-08
6.06106e-08
5.94649e-08
5.82546e-08
5.69905e-08
5.56635e-08
5.42874e-08
5.28501e-08
5.13683e-08
4.98274e-08
4.82467e-08
4.6609e-08
4.49363e-08
4.3209e-08
4.14513e-08
3.96417e-08
3.78065e-08
3.5922e-08
3.40164e-08
3.2064e-08
3.00952e-08
2.80816e-08
2.60569e-08
2.39891e-08
2.19172e-08
1.98053e-08
1.76959e-08
1.55549e-08
1.34149e-08
1.12439e-08
9.12313e-09
6.78464e-09
4.74188e-09
3.26501e-09
0.0799503
0.0789515
0.0755733
0.0704877
0.0630853
0.0529199
0.0396566
0.0231987
0.00423736
-0.0150952
-0.032203
-0.0410647
-0.0444587
-0.041037
-0.0349707
-0.0282063
-0.0218052
-0.0164644
-0.0122293
-0.00899896
-0.0065922
-0.00481932
-0.00352218
-0.00257529
-0.00188434
-0.00137992
-0.00101133
-0.000741726
-0.00054434
-0.000399709
-0.000293659
-0.000215854
-0.000158745
-0.00011681
-8.60066e-05
-6.33731e-05
-4.67378e-05
-3.45075e-05
-2.55128e-05
-1.88955e-05
-1.40248e-05
-1.04379e-05
-7.79439e-06
-5.84461e-06
-4.40471e-06
-3.33991e-06
-2.5509e-06
-1.96495e-06
-1.52837e-06
-1.20194e-06
-9.56599e-07
-7.71197e-07
-6.30002e-07
-5.21605e-07
-4.37473e-07
-3.71455e-07
-3.18907e-07
-2.76514e-07
-2.41736e-07
-2.12782e-07
-1.88255e-07
-1.67181e-07
-1.48787e-07
-1.32535e-07
-1.17993e-07
-1.04856e-07
-9.28817e-08
-8.18867e-08
-7.17357e-08
-6.23091e-08
-5.3534e-08
-4.53226e-08
-3.76401e-08
-3.04142e-08
-2.36344e-08
-1.72352e-08
-1.12226e-08
-5.53398e-09
-1.86728e-10
4.88076e-09
9.64273e-09
1.41605e-08
1.8402e-08
2.24283e-08
2.62028e-08
2.97862e-08
3.31387e-08
3.63203e-08
3.92893e-08
4.21043e-08
4.47228e-08
4.72017e-08
4.9498e-08
5.1667e-08
5.36658e-08
5.55473e-08
5.72699e-08
5.88836e-08
6.03484e-08
6.17114e-08
6.29346e-08
6.40619e-08
6.50577e-08
6.59626e-08
6.67436e-08
6.74378e-08
6.80152e-08
6.85093e-08
6.88931e-08
6.91963e-08
6.93955e-08
6.95164e-08
6.95391e-08
6.94856e-08
6.93395e-08
6.91189e-08
6.8811e-08
6.84302e-08
6.79672e-08
6.74327e-08
6.6821e-08
6.61391e-08
6.53849e-08
6.45618e-08
6.36712e-08
6.27129e-08
6.16919e-08
6.06046e-08
5.94591e-08
5.82488e-08
5.6985e-08
5.56581e-08
5.42822e-08
5.2845e-08
5.13636e-08
4.98227e-08
4.82423e-08
4.66047e-08
4.49322e-08
4.3205e-08
4.14476e-08
3.9638e-08
3.7803e-08
3.59185e-08
3.40132e-08
3.20607e-08
3.00922e-08
2.80785e-08
2.60541e-08
2.39861e-08
2.19144e-08
1.98024e-08
1.76931e-08
1.55521e-08
1.34122e-08
1.1242e-08
9.12036e-09
6.78441e-09
4.73758e-09
3.26974e-09
0.0825235
0.0815899
0.0784292
0.0735732
0.066329
0.0560706
0.0422346
0.0244106
0.00322261
-0.0190846
-0.0389655
-0.0480382
-0.050922
-0.045314
-0.0372526
-0.0290088
-0.0216369
-0.0158088
-0.0113925
-0.00816102
-0.0058424
-0.00418919
-0.00301317
-0.00217466
-0.00157458
-0.00114344
-0.000832464
-0.000607381
-0.000443969
-0.000325022
-0.000238254
-0.000174849
-0.000128449
-9.44559e-05
-6.95283e-05
-5.1235e-05
-3.78015e-05
-2.79312e-05
-2.06747e-05
-1.53369e-05
-1.14078e-05
-8.51363e-06
-6.37966e-06
-4.80453e-06
-3.64012e-06
-2.77785e-06
-2.13774e-06
-1.66125e-06
-1.30514e-06
-1.03785e-06
-8.35986e-07
-6.82541e-07
-5.64836e-07
-4.73705e-07
-4.02263e-07
-3.45573e-07
-2.99881e-07
-2.62528e-07
-2.31454e-07
-2.05223e-07
-1.82696e-07
-1.63094e-07
-1.45781e-07
-1.30324e-07
-1.16367e-07
-1.03661e-07
-9.20024e-08
-8.124e-08
-7.12597e-08
-6.19584e-08
-5.32752e-08
-4.51311e-08
-3.74979e-08
-3.03077e-08
-2.3554e-08
-1.71735e-08
-1.11746e-08
-5.49558e-09
-1.55562e-10
4.90679e-09
9.66453e-09
1.41791e-08
1.84177e-08
2.24419e-08
2.62145e-08
2.97968e-08
3.31484e-08
3.63298e-08
3.92986e-08
4.2114e-08
4.47325e-08
4.72119e-08
4.95082e-08
5.16774e-08
5.36761e-08
5.55577e-08
5.72799e-08
5.88936e-08
6.03581e-08
6.17211e-08
6.2944e-08
6.40713e-08
6.50669e-08
6.59718e-08
6.67526e-08
6.74467e-08
6.80238e-08
6.85176e-08
6.8901e-08
6.9204e-08
6.94028e-08
6.95236e-08
6.9546e-08
6.94923e-08
6.93459e-08
6.91252e-08
6.8817e-08
6.8436e-08
6.79727e-08
6.7438e-08
6.68261e-08
6.6144e-08
6.53897e-08
6.45664e-08
6.36756e-08
6.27172e-08
6.1696e-08
6.06084e-08
5.94628e-08
5.82523e-08
5.69884e-08
5.56612e-08
5.42853e-08
5.28478e-08
5.13662e-08
4.98251e-08
4.82446e-08
4.66066e-08
4.49341e-08
4.32065e-08
4.14491e-08
3.96392e-08
3.78042e-08
3.59194e-08
3.40142e-08
3.20615e-08
3.00931e-08
2.80792e-08
2.60547e-08
2.39865e-08
2.19148e-08
1.98025e-08
1.76931e-08
1.5552e-08
1.34119e-08
1.12424e-08
9.11985e-09
6.786e-09
4.73517e-09
3.27428e-09
0.0854704
0.0846257
0.0817607
0.0772397
0.0702759
0.0600261
0.0456175
0.0261828
0.00218111
-0.0242053
-0.047907
-0.0571985
-0.0594667
-0.0507786
-0.0400405
-0.029904
-0.021339
-0.014948
-0.0103439
-0.0071363
-0.00494098
-0.00344198
-0.00241677
-0.00171028
-0.00121902
-0.00087435
-0.000630458
-0.000456599
-0.000331874
-0.000241928
-0.000176786
-0.000129449
-9.49555e-05
-6.97677e-05
-5.1343e-05
-3.78467e-05
-2.79487e-05
-2.06825e-05
-1.53431e-05
-1.1416e-05
-8.52478e-06
-6.39392e-06
-4.82129e-06
-3.65892e-06
-2.79797e-06
-2.1588e-06
-1.68269e-06
-1.32677e-06
-1.05928e-06
-8.57136e-07
-7.03162e-07
-5.84919e-07
-4.93089e-07
-4.20981e-07
-3.63521e-07
-3.17111e-07
-2.78974e-07
-2.47175e-07
-2.20184e-07
-1.96954e-07
-1.76634e-07
-1.58653e-07
-1.42532e-07
-1.2795e-07
-1.14635e-07
-1.024e-07
-9.10878e-08
-8.05791e-08
-7.07851e-08
-6.16202e-08
-5.30371e-08
-4.4966e-08
-3.73864e-08
-3.02352e-08
-2.35102e-08
-1.71504e-08
-1.11668e-08
-5.49854e-09
-1.66461e-10
4.89093e-09
9.64517e-09
1.41583e-08
1.83961e-08
2.24207e-08
2.61936e-08
2.97768e-08
3.31286e-08
3.63107e-08
3.92793e-08
4.20951e-08
4.47134e-08
4.71932e-08
4.94895e-08
5.16593e-08
5.36582e-08
5.55406e-08
5.72632e-08
5.88778e-08
6.03426e-08
6.17064e-08
6.29295e-08
6.40575e-08
6.50532e-08
6.59587e-08
6.67396e-08
6.74343e-08
6.80117e-08
6.85061e-08
6.88899e-08
6.91935e-08
6.93926e-08
6.95138e-08
6.95364e-08
6.94831e-08
6.93369e-08
6.91164e-08
6.88085e-08
6.84277e-08
6.79647e-08
6.74302e-08
6.68185e-08
6.61366e-08
6.53825e-08
6.45593e-08
6.36687e-08
6.27104e-08
6.16894e-08
6.0602e-08
5.94566e-08
5.82462e-08
5.69825e-08
5.56554e-08
5.42797e-08
5.28423e-08
5.13611e-08
4.982e-08
4.82398e-08
4.66019e-08
4.49297e-08
4.32021e-08
4.1445e-08
3.96351e-08
3.78004e-08
3.59156e-08
3.40106e-08
3.20579e-08
3.00897e-08
2.80758e-08
2.60516e-08
2.39833e-08
2.19117e-08
1.97993e-08
1.769e-08
1.55491e-08
1.3409e-08
1.12403e-08
9.11722e-09
6.78545e-09
4.73155e-09
3.27703e-09
0.0887563
0.0880297
0.0855562
0.0815082
0.0749991
0.0649351
0.050035
0.0287794
0.00130136
-0.0306506
-0.059487
-0.0685913
-0.0699158
-0.0569051
-0.0427632
-0.0304062
-0.0205494
-0.0136516
-0.00895924
-0.0058729
-0.00387814
-0.00258802
-0.00174995
-0.00119882
-0.000831261
-0.000582713
-0.000412367
-0.000294202
-0.000211341
-0.000152689
-0.000110842
-8.07864e-05
-5.9084e-05
-4.33452e-05
-3.18916e-05
-2.3533e-05
-1.7419e-05
-1.2938e-05
-9.64811e-06
-7.22869e-06
-5.44624e-06
-4.13072e-06
-3.15758e-06
-2.43595e-06
-1.899e-06
-1.49801e-06
-1.19699e-06
-9.69757e-07
-7.9687e-07
-6.64262e-07
-5.61397e-07
-4.80722e-07
-4.16505e-07
-3.64692e-07
-3.2215e-07
-2.86704e-07
-2.56628e-07
-2.30753e-07
-2.08116e-07
-1.88086e-07
-1.70118e-07
-1.53866e-07
-1.39015e-07
-1.25367e-07
-1.12739e-07
-1.01009e-07
-9.00682e-08
-7.9832e-08
-7.0238e-08
-6.12198e-08
-5.27444e-08
-4.47519e-08
-3.72301e-08
-3.01207e-08
-2.34263e-08
-1.70883e-08
-1.11207e-08
-5.46352e-09
-1.39811e-10
4.91178e-09
9.66122e-09
1.41709e-08
1.84054e-08
2.24278e-08
2.61986e-08
2.97807e-08
3.31317e-08
3.63138e-08
3.92825e-08
4.20991e-08
4.47178e-08
4.71983e-08
4.94949e-08
5.16652e-08
5.36641e-08
5.55467e-08
5.7269e-08
5.88836e-08
6.03481e-08
6.1712e-08
6.29349e-08
6.4063e-08
6.50587e-08
6.59642e-08
6.67451e-08
6.74398e-08
6.80169e-08
6.85112e-08
6.88946e-08
6.9198e-08
6.93968e-08
6.95179e-08
6.95403e-08
6.94869e-08
6.93405e-08
6.91199e-08
6.88118e-08
6.84309e-08
6.79677e-08
6.7433e-08
6.68212e-08
6.61391e-08
6.53849e-08
6.45616e-08
6.36709e-08
6.27124e-08
6.16914e-08
6.06038e-08
5.94584e-08
5.82478e-08
5.69841e-08
5.56568e-08
5.42811e-08
5.28434e-08
5.13621e-08
4.98208e-08
4.82405e-08
4.66023e-08
4.493e-08
4.32022e-08
4.14451e-08
3.9635e-08
3.78003e-08
3.59153e-08
3.40104e-08
3.20575e-08
3.00895e-08
2.80754e-08
2.60513e-08
2.39828e-08
2.19112e-08
1.97986e-08
1.76893e-08
1.55484e-08
1.34082e-08
1.12401e-08
9.11646e-09
6.78644e-09
4.72935e-09
3.28017e-09
0.0923349
0.0917605
0.0897921
0.0863892
0.0805684
0.0709624
0.0557526
0.032531
0.00074925
-0.0389389
-0.0748826
-0.0836724
-0.0838583
-0.0645501
-0.0458177
-0.0307128
-0.0193717
-0.0119747
-0.00726165
-0.00437353
-0.00264622
-0.00161657
-0.00100325
-0.000633867
-0.000408077
-0.00026777
-0.000178964
-0.000121697
-8.40659e-05
-5.88872e-05
-4.17582e-05
-2.9932e-05
-2.16616e-05
-1.58144e-05
-1.16419e-05
-8.64136e-06
-6.469e-06
-4.88725e-06
-3.72936e-06
-2.87761e-06
-2.24775e-06
-1.77958e-06
-1.42934e-06
-1.1656e-06
-9.65239e-07
-8.11664e-07
-6.92501e-07
-5.98945e-07
-5.24315e-07
-4.63932e-07
-4.14155e-07
-3.72504e-07
-3.36972e-07
-3.06247e-07
-2.79205e-07
-2.55154e-07
-2.33452e-07
-2.13734e-07
-1.95622e-07
-1.78919e-07
-1.63396e-07
-1.48942e-07
-1.35412e-07
-1.22735e-07
-1.10819e-07
-9.96112e-08
-8.90536e-08
-7.90987e-08
-6.97114e-08
-6.08443e-08
-5.24797e-08
-4.4568e-08
-3.71053e-08
-3.00387e-08
-2.33758e-08
-1.70603e-08
-1.11094e-08
-5.46387e-09
-1.48687e-10
4.89755e-09
9.6433e-09
1.41515e-08
1.83852e-08
2.24081e-08
2.61793e-08
2.97624e-08
3.31137e-08
3.62964e-08
3.9265e-08
4.20817e-08
4.47e-08
4.71808e-08
4.94772e-08
5.1648e-08
5.36471e-08
5.55306e-08
5.72534e-08
5.88689e-08
6.03339e-08
6.16985e-08
6.29217e-08
6.40504e-08
6.50462e-08
6.59522e-08
6.67331e-08
6.74283e-08
6.80056e-08
6.85005e-08
6.88842e-08
6.91881e-08
6.93872e-08
6.95087e-08
6.95312e-08
6.94781e-08
6.93318e-08
6.91115e-08
6.88035e-08
6.84228e-08
6.79598e-08
6.74253e-08
6.68136e-08
6.61317e-08
6.53776e-08
6.45544e-08
6.36639e-08
6.27055e-08
6.16846e-08
6.05971e-08
5.94519e-08
5.82414e-08
5.69779e-08
5.56507e-08
5.42752e-08
5.28376e-08
5.13566e-08
4.98153e-08
4.82354e-08
4.65973e-08
4.49253e-08
4.31975e-08
4.14407e-08
3.96306e-08
3.77962e-08
3.59112e-08
3.40065e-08
3.20536e-08
3.00859e-08
2.80717e-08
2.60479e-08
2.39793e-08
2.1908e-08
1.97953e-08
1.76862e-08
1.55454e-08
1.34053e-08
1.1238e-08
9.11397e-09
6.78576e-09
4.72611e-09
3.28216e-09
0.0961463
0.0957636
0.0944305
0.0918835
0.087058
0.0783173
0.063159
0.0379905
0.0010252
-0.0495044
-0.0949762
-0.102126
-0.10083
-0.0728394
-0.0483783
-0.0301648
-0.0173511
-0.00966107
-0.00513665
-0.00260924
-0.00125932
-0.000557931
-0.000208552
-4.24375e-05
3.01203e-05
5.61161e-05
6.0082e-05
5.4543e-05
4.57587e-05
3.66814e-05
2.85564e-05
2.17822e-05
1.63627e-05
1.21392e-05
8.90614e-06
6.46218e-06
4.63225e-06
3.27215e-06
2.26776e-06
1.53022e-06
9.91971e-07
6.01597e-07
3.20816e-07
1.20757e-07
-1.97688e-08
-1.16744e-07
-1.81735e-07
-2.23533e-07
-2.48389e-07
-2.61129e-07
-2.65099e-07
-2.62953e-07
-2.56456e-07
-2.47073e-07
-2.35717e-07
-2.23197e-07
-2.09971e-07
-1.96484e-07
-1.82951e-07
-1.69614e-07
-1.56564e-07
-1.43926e-07
-1.31731e-07
-1.20035e-07
-1.08841e-07
-9.8164e-08
-8.7996e-08
-7.83268e-08
-6.91491e-08
-6.04354e-08
-5.21834e-08
-4.43539e-08
-3.69516e-08
-2.99287e-08
-2.32978e-08
-1.70051e-08
-1.10708e-08
-5.43675e-09
-1.30156e-10
4.91019e-09
9.65116e-09
1.41559e-08
1.83865e-08
2.24072e-08
2.61764e-08
2.97587e-08
3.31093e-08
3.62924e-08
3.92614e-08
4.20792e-08
4.46983e-08
4.71801e-08
4.94772e-08
5.16487e-08
5.3648e-08
5.55316e-08
5.72543e-08
5.88698e-08
6.03346e-08
6.16993e-08
6.29224e-08
6.40513e-08
6.50471e-08
6.59534e-08
6.67344e-08
6.74297e-08
6.80069e-08
6.85018e-08
6.88852e-08
6.9189e-08
6.93879e-08
6.95093e-08
6.95318e-08
6.94786e-08
6.93323e-08
6.91119e-08
6.88038e-08
6.8423e-08
6.79599e-08
6.74253e-08
6.68136e-08
6.61316e-08
6.53774e-08
6.45542e-08
6.36636e-08
6.27052e-08
6.16843e-08
6.05967e-08
5.94515e-08
5.82409e-08
5.69775e-08
5.56501e-08
5.42746e-08
5.28369e-08
5.13558e-08
4.98144e-08
4.82344e-08
4.65961e-08
4.4924e-08
4.31961e-08
4.14392e-08
3.9629e-08
3.77947e-08
3.59096e-08
3.40051e-08
3.20522e-08
3.00846e-08
2.80703e-08
2.60466e-08
2.39779e-08
2.19066e-08
1.97938e-08
1.76847e-08
1.55441e-08
1.3404e-08
1.12373e-08
9.11283e-09
6.78624e-09
4.72388e-09
3.28461e-09
0.100115
0.0999657
0.0994098
0.0979593
0.0945112
0.0871899
0.0726488
0.0458277
0.00246876
-0.0633692
-0.122316
-0.127424
-0.123961
-0.08269
-0.0505774
-0.0287801
-0.0144907
-0.00671205
-0.00258068
-0.000570217
0.000296358
0.00060187
0.000645565
0.000583168
0.000487399
0.000390179
0.000304186
0.000233021
0.000176361
0.000132333
9.86669e-05
7.32067e-05
5.41015e-05
3.98458e-05
2.92533e-05
2.1408e-05
1.56123e-05
1.13396e-05
8.19577e-06
5.88644e-06
4.19331e-06
2.95432e-06
2.04993e-06
1.39159e-06
9.14258e-07
5.69752e-07
3.22834e-07
1.47323e-07
2.41891e-08
-6.07879e-08
-1.17854e-07
-1.54736e-07
-1.76928e-07
-1.88632e-07
-1.92778e-07
-1.91652e-07
-1.868e-07
-1.79467e-07
-1.70459e-07
-1.60448e-07
-1.49843e-07
-1.39004e-07
-1.2813e-07
-1.17405e-07
-1.06923e-07
-9.67685e-08
-8.69843e-08
-7.75966e-08
-6.86257e-08
-6.00632e-08
-5.19221e-08
-4.41731e-08
-3.68295e-08
-2.9849e-08
-2.32491e-08
-1.69785e-08
-1.10604e-08
-5.43756e-09
-1.39107e-10
4.89614e-09
9.63371e-09
1.41371e-08
1.83672e-08
2.23886e-08
2.61584e-08
2.97417e-08
3.30928e-08
3.62764e-08
3.92453e-08
4.20631e-08
4.46819e-08
4.71638e-08
4.94607e-08
5.16327e-08
5.36322e-08
5.55167e-08
5.724e-08
5.88565e-08
6.03218e-08
6.16873e-08
6.29108e-08
6.40401e-08
6.5036e-08
6.59426e-08
6.67237e-08
6.74193e-08
6.79967e-08
6.8492e-08
6.88758e-08
6.918e-08
6.93791e-08
6.95008e-08
6.95234e-08
6.94704e-08
6.93241e-08
6.91038e-08
6.87958e-08
6.84152e-08
6.79522e-08
6.74178e-08
6.68061e-08
6.61242e-08
6.53702e-08
6.4547e-08
6.36566e-08
6.26982e-08
6.16775e-08
6.05899e-08
5.94449e-08
5.82343e-08
5.6971e-08
5.56437e-08
5.42685e-08
5.28308e-08
5.13501e-08
4.98087e-08
4.8229e-08
4.65908e-08
4.4919e-08
4.31911e-08
4.14346e-08
3.96244e-08
3.77904e-08
3.59052e-08
3.4001e-08
3.2048e-08
3.00807e-08
2.80665e-08
2.6043e-08
2.39743e-08
2.19032e-08
1.97905e-08
1.76816e-08
1.55411e-08
1.34011e-08
1.12353e-08
9.11047e-09
6.78559e-09
4.72092e-09
3.28639e-09
0.104148
0.104277
0.104643
0.104564
0.102956
0.0978369
0.0848493
0.0572585
0.00642867
-0.0820789
-0.158462
-0.157737
-0.153023
-0.0934399
-0.051534
-0.0257972
-0.0103437
-0.00294869
0.000433753
0.00170257
0.0019584
0.00180174
0.00150837
0.0012046
0.000936608
0.000716136
0.000541463
0.000406153
0.000302904
0.000224937
0.000166496
0.000122924
9.05626e-05
6.65974e-05
4.88883e-05
3.58239e-05
2.61989e-05
1.91157e-05
1.39083e-05
1.00835e-05
7.27724e-06
5.22051e-06
3.7153e-06
2.61549e-06
1.81375e-06
1.23083e-06
8.08707e-07
5.04427e-07
2.86652e-07
1.32115e-07
2.39233e-08
-5.05364e-08
-1.00348e-07
-1.32355e-07
-1.51423e-07
-1.61267e-07
-1.6448e-07
-1.63077e-07
-1.58427e-07
-1.51618e-07
-1.43366e-07
-1.34254e-07
-1.2465e-07
-1.14857e-07
-1.05061e-07
-9.54102e-08
-8.59956e-08
-7.68785e-08
-6.81058e-08
-5.96881e-08
-5.16532e-08
-4.39816e-08
-3.6695e-08
-2.97556e-08
-2.31858e-08
-1.69365e-08
-1.10339e-08
-5.42175e-09
-1.31128e-10
4.89882e-09
9.6322e-09
1.41326e-08
1.836e-08
2.23796e-08
2.61479e-08
2.97306e-08
3.30815e-08
3.62658e-08
3.92355e-08
4.20546e-08
4.46745e-08
4.71577e-08
4.94555e-08
5.16283e-08
5.36281e-08
5.55129e-08
5.72361e-08
5.88526e-08
6.03178e-08
6.16833e-08
6.29068e-08
6.40364e-08
6.50326e-08
6.59395e-08
6.67208e-08
6.74167e-08
6.79942e-08
6.84895e-08
6.88731e-08
6.91773e-08
6.93763e-08
6.9498e-08
6.95207e-08
6.94678e-08
6.93215e-08
6.91013e-08
6.87933e-08
6.84127e-08
6.79496e-08
6.74151e-08
6.68035e-08
6.61215e-08
6.53675e-08
6.45443e-08
6.3654e-08
6.26956e-08
6.16749e-08
6.05874e-08
5.94424e-08
5.82318e-08
5.69686e-08
5.56412e-08
5.4266e-08
5.28283e-08
5.13476e-08
4.98061e-08
4.82264e-08
4.6588e-08
4.49162e-08
4.31882e-08
4.14317e-08
3.96214e-08
3.77876e-08
3.59024e-08
3.39984e-08
3.20454e-08
3.00783e-08
2.80641e-08
2.60408e-08
2.39721e-08
2.19011e-08
1.97883e-08
1.76795e-08
1.55392e-08
1.33993e-08
1.12341e-08
9.10892e-09
6.78564e-09
4.71857e-09
3.28849e-09
0.108135
0.108579
0.110008
0.111563
0.112328
0.110327
0.10023
0.0734516
0.0130615
-0.106375
-0.210462
-0.202089
-0.192673
-0.104492
-0.0504356
-0.0208186
-0.00469884
0.0017375
0.00395689
0.00423508
0.00374428
0.0030551
0.00239025
0.00182911
0.00138187
0.00103545
0.00077155
0.000572599
0.000423716
0.000312875
0.000230653
0.000169816
0.000124885
9.17452e-05
6.73288e-05
4.93539e-05
3.61303e-05
2.6408e-05
1.92641e-05
1.40178e-05
1.01677e-05
7.34433e-06
5.27594e-06
3.76236e-06
2.65659e-06
1.85027e-06
1.26396e-06
8.39021e-07
5.32566e-07
3.12851e-07
1.56752e-07
4.70798e-08
-2.86156e-08
-7.96474e-08
-1.127e-07
-1.32822e-07
-1.43588e-07
-1.47735e-07
-1.47164e-07
-1.43355e-07
-1.37309e-07
-1.29819e-07
-1.21408e-07
-1.12491e-07
-1.03338e-07
-9.4158e-08
-8.50899e-08
-7.6227e-08
-6.76411e-08
-5.93601e-08
-5.14251e-08
-4.38259e-08
-3.65919e-08
-2.96902e-08
-2.31478e-08
-1.69179e-08
-1.10293e-08
-5.4268e-09
-1.43022e-10
4.88272e-09
9.61342e-09
1.41129e-08
1.83402e-08
2.23607e-08
2.61299e-08
2.97138e-08
3.30653e-08
3.62502e-08
3.922e-08
4.20392e-08
4.46587e-08
4.71419e-08
4.94396e-08
5.16128e-08
5.36131e-08
5.54988e-08
5.72227e-08
5.88402e-08
6.0306e-08
6.16723e-08
6.28962e-08
6.40263e-08
6.50225e-08
6.59297e-08
6.67109e-08
6.74071e-08
6.79847e-08
6.84803e-08
6.88643e-08
6.91688e-08
6.9368e-08
6.94899e-08
6.95125e-08
6.94597e-08
6.93134e-08
6.90932e-08
6.87853e-08
6.84047e-08
6.79417e-08
6.74073e-08
6.67958e-08
6.61139e-08
6.536e-08
6.45369e-08
6.36466e-08
6.26883e-08
6.16677e-08
6.05802e-08
5.94353e-08
5.82248e-08
5.69617e-08
5.56345e-08
5.42595e-08
5.28219e-08
5.13414e-08
4.98001e-08
4.82207e-08
4.65824e-08
4.49109e-08
4.3183e-08
4.14267e-08
3.96166e-08
3.77829e-08
3.58978e-08
3.39939e-08
3.2041e-08
3.00741e-08
2.806e-08
2.6037e-08
2.39684e-08
2.18976e-08
1.97849e-08
1.76762e-08
1.55363e-08
1.33965e-08
1.12321e-08
9.10663e-09
6.78507e-09
4.7158e-09
3.29029e-09
0.111951
0.112743
0.115339
0.118805
0.122493
0.124925
0.119706
0.0978075
0.0260597
-0.147709
-0.27587
-0.254147
-0.248163
-0.117296
-0.0462618
-0.0129338
0.00270475
0.00727408
0.00781902
0.0068622
0.00552337
0.00426616
0.00322331
0.00240985
0.00179178
0.00132773
0.00098156
0.00072435
0.000533823
0.00039301
0.000289106
0.000212527
0.000156133
0.000114631
8.41035e-05
6.1657e-05
4.51583e-05
3.30352e-05
2.41305e-05
1.7592e-05
1.27933e-05
9.27337e-06
6.69337e-06
4.80394e-06
3.42204e-06
2.41281e-06
1.6774e-06
1.14288e-06
7.55898e-07
4.76994e-07
2.77392e-07
1.35743e-07
3.6544e-08
-3.1765e-08
-7.75189e-08
-1.06979e-07
-1.24613e-07
-1.33809e-07
-1.36951e-07
-1.35868e-07
-1.31825e-07
-1.25805e-07
-1.18473e-07
-1.10348e-07
-1.01778e-07
-9.30255e-08
-8.42706e-08
-7.56364e-08
-6.72177e-08
-5.90584e-08
-5.12124e-08
-4.3678e-08
-3.64915e-08
-2.96242e-08
-2.31067e-08
-1.68944e-08
-1.10185e-08
-5.42457e-09
-1.46949e-10
4.87475e-09
9.60238e-09
1.40998e-08
1.83253e-08
2.23445e-08
2.61128e-08
2.96965e-08
3.30483e-08
3.62343e-08
3.92051e-08
4.20258e-08
4.46467e-08
4.71312e-08
4.94299e-08
5.16041e-08
5.36048e-08
5.54908e-08
5.72147e-08
5.88322e-08
6.0298e-08
6.16644e-08
6.28884e-08
6.40188e-08
6.50154e-08
6.5923e-08
6.67046e-08
6.74011e-08
6.79788e-08
6.84746e-08
6.88585e-08
6.91631e-08
6.93623e-08
6.94843e-08
6.95071e-08
6.94545e-08
6.93084e-08
6.90883e-08
6.87804e-08
6.83999e-08
6.79369e-08
6.74025e-08
6.6791e-08
6.61091e-08
6.53553e-08
6.45322e-08
6.3642e-08
6.26837e-08
6.16633e-08
6.05759e-08
5.94311e-08
5.82206e-08
5.69577e-08
5.56304e-08
5.42554e-08
5.28178e-08
5.13374e-08
4.97961e-08
4.82166e-08
4.65782e-08
4.49067e-08
4.31786e-08
4.14224e-08
3.96123e-08
3.77788e-08
3.58938e-08
3.39902e-08
3.20375e-08
3.00708e-08
2.80568e-08
2.60339e-08
2.39654e-08
2.18947e-08
1.97822e-08
1.76736e-08
1.5534e-08
1.33942e-08
1.12305e-08
9.10469e-09
6.78483e-09
4.7133e-09
3.29227e-09
0.115454
0.116604
0.120435
0.125949
0.133144
0.140964
0.143577
0.129746
0.04523
-0.179297
-0.393221
-0.330469
-0.318494
-0.126894
-0.0372876
-0.00136924
0.0122779
0.0138573
0.0120868
0.00959972
0.0072985
0.00543704
0.00401154
0.00295127
0.00216955
0.00159434
0.00117132
0.000860331
0.000631815
0.000463951
0.000340652
0.000250087
0.000183562
0.000134694
9.8796e-05
7.24266e-05
5.30578e-05
3.88324e-05
2.83864e-05
2.07174e-05
1.5089e-05
1.09598e-05
7.93247e-06
5.71443e-06
4.09111e-06
2.9045e-06
2.03875e-06
1.40845e-06
9.51068e-07
6.20425e-07
3.82796e-07
2.13196e-07