/*--------------------------------*- C++ -*----------------------------------*\
  =========                 |
  \\      /  F ield         | OpenFOAM: The Open Source CFD Toolbox
   \\    /   O peration     | Website:  https://openfoam.org
    \\  /    A nd           | Version:  11
     \\/     M anipulation  |
\*---------------------------------------------------------------------------*/
FoamFile
{
    format      ascii;
    class       surfaceScalarField;
    location    "0.360397";
    object      phi_0;
}
// * * * * * * * * * * * * * * * * * * * * * * * * * * * * * * * * * * * * * //

dimensions      [0 3 -1 0 0 0 0];

internalField   nonuniform List<scalar> 
14638
(
0.00250221
-2.20734e-06
0.00250873
-6.52646e-06
0.00251954
-1.08033e-05
0.00253475
-1.52099e-05
0.00255488
-2.01295e-05
0.00258033
-2.54526e-05
0.00261032
-2.99932e-05
0.00264215
-3.1824e-05
0.00267156
-2.94098e-05
0.00269414
-2.25846e-05
0.0027062
-1.2062e-05
0.00270677
-5.67572e-07
0.00269663
1.01434e-05
0.00267848
1.81456e-05
0.00265561
2.28747e-05
0.00263102
2.45862e-05
0.0026071
2.39158e-05
0.00258541
2.16901e-05
0.00256675
1.86615e-05
0.00255134
1.54145e-05
0.002539
1.23378e-05
0.00252936
9.64176e-06
0.00252196
7.40335e-06
0.00251634
5.61359e-06
0.00251212
4.21923e-06
0.00250897
3.15178e-06
0.00250663
2.34415e-06
0.00250489
1.73799e-06
0.0025036
1.28561e-06
0.00250265
9.49366e-07
0.00250195
7.00196e-07
0.00250144
5.1595e-07
0.00250106
3.79928e-07
0.00250078
2.79626e-07
0.00250057
2.05729e-07
0.00250042
1.51319e-07
0.00250031
1.11278e-07
0.00250023
8.18218e-08
0.00250017
6.01577e-08
0.00250012
4.42278e-08
0.00250009
3.25161e-08
0.00250007
2.39066e-08
0.00250005
1.7578e-08
0.00250004
1.29263e-08
0.00250003
9.50731e-09
0.00250002
6.99438e-09
0.00250002
5.14741e-09
0.00250001
3.78988e-09
0.00250001
2.79207e-09
0.00250001
2.05863e-09
0.00250001
1.51947e-09
0.0025
1.1231e-09
0.0025
8.31668e-10
0.0025
6.17347e-10
0.0025
4.59708e-10
0.0025
3.43712e-10
0.0025
2.58337e-10
0.0025
1.95449e-10
0.0025
1.49108e-10
0.0025
1.14908e-10
0.0025
8.96538e-11
0.0025
7.09529e-11
0.0025
5.70927e-11
0.0025
4.67675e-11
0.0025
3.90672e-11
0.0025
3.32724e-11
0.0025
2.89068e-11
0.0025
2.5567e-11
0.0025
2.30107e-11
0.0025
2.10048e-11
0.0025
1.94339e-11
0.0025
1.81568e-11
0.0025
1.71269e-11
0.0025
1.62523e-11
0.0025
1.55232e-11
0.0025
1.48749e-11
0.0025
1.43171e-11
0.0025
1.38001e-11
0.0025
1.33434e-11
0.0025
1.2906e-11
0.0025
1.25124e-11
0.0025
1.21264e-11
0.0025
1.1775e-11
0.0025
1.14253e-11
0.0025
1.11044e-11
0.0025
1.07822e-11
0.0025
1.04852e-11
0.0025
1.01854e-11
0.0025
9.90798e-12
0.0025
9.62728e-12
0.0025
9.36681e-12
0.0025
9.10297e-12
0.0025
8.85746e-12
0.0025
8.60883e-12
0.0025
8.37679e-12
0.0025
8.14207e-12
0.0025
7.92228e-12
0.0025
7.7004e-12
0.0025
7.49184e-12
0.0025
7.28185e-12
0.0025
7.08361e-12
0.0025
6.88466e-12
0.0025
6.69592e-12
0.0025
6.50723e-12
0.0025
6.32724e-12
0.0025
6.1481e-12
0.0025
5.9762e-12
0.0025
5.80598e-12
0.0025
5.64158e-12
0.0025
5.47972e-12
0.0025
5.32233e-12
0.0025
5.16831e-12
0.0025
5.01745e-12
0.0025
4.87082e-12
0.0025
4.72605e-12
0.0025
4.58635e-12
0.0025
4.4473e-12
0.0025
4.31414e-12
0.0025
4.18047e-12
0.0025
4.05347e-12
0.0025
3.92487e-12
0.0025
3.80373e-12
0.0025
3.67991e-12
0.0025
3.56429e-12
0.0025
3.445e-12
0.0025
3.33462e-12
0.0025
3.21961e-12
0.0025
3.11419e-12
0.0025
3.00326e-12
0.0025
2.90254e-12
0.0025
2.79548e-12
0.0025
2.69922e-12
0.0025
2.59585e-12
0.0025
2.50383e-12
0.0025
2.40396e-12
0.0025
2.31598e-12
0.0025
2.21947e-12
0.0025
2.13533e-12
0.0025
2.04206e-12
0.0025
1.96158e-12
0.0025
1.87142e-12
0.0025
1.79445e-12
0.0025
1.70728e-12
0.0025
1.63366e-12
0.0025
1.5494e-12
0.0025
1.479e-12
0.0025
1.3976e-12
0.0025
1.33037e-12
0.0025
1.25188e-12
0.0025
1.1878e-12
0.0025
1.11231e-12
0.0025
1.05133e-12
0.0025
9.79281e-13
0.0025
9.21787e-13
0.0025
8.55436e-13
0.0025
8.00601e-13
0.0025
7.47727e-13
0.0025
6.79178e-13
0.0025
6.92448e-13
5.12585e-13
0.0025022
-4.40245e-06
0.00250869
-1.30239e-05
0.00251947
-2.15818e-05
0.0025347
-3.04341e-05
0.00255492
-4.03501e-05
0.00258058
-5.11167e-05
0.00261095
-6.03671e-05
0.00264334
-6.42095e-05
0.00267344
-5.95069e-05
0.00269665
-4.58016e-05
0.00270901
-2.44222e-05
0.00270948
-1.03462e-06
0.00269884
2.07833e-05
0.00268
3.69825e-05
0.00265644
4.64418e-05
0.00263128
4.97458e-05
0.00260696
4.82357e-05
0.00258503
4.36199e-05
0.00256626
3.743e-05
0.00255083
3.08431e-05
0.00253853
2.46342e-05
0.00252896
1.92161e-05
0.00252163
1.47331e-05
0.00251608
1.11587e-05
0.00251192
8.38006e-06
0.00250882
6.25624e-06
0.00250651
4.65114e-06
0.0025048
3.44736e-06
0.00250354
2.54947e-06
0.00250261
1.88236e-06
0.00250192
1.38814e-06
0.00250141
1.02278e-06
0.00250104
7.5309e-07
0.00250076
5.54244e-07
0.00250056
4.07754e-07
0.00250041
2.99903e-07
0.0025003
2.20537e-07
0.00250022
1.62151e-07
0.00250016
1.19212e-07
0.00250012
8.76391e-08
0.00250009
6.44266e-08
0.00250007
4.73627e-08
0.00250005
3.48197e-08
0.00250004
2.56003e-08
0.00250003
1.88241e-08
0.00250002
1.38438e-08
0.00250001
1.01833e-08
0.00250001
7.49297e-09
0.00250001
5.51559e-09
0.00250001
4.06219e-09
0.0025
2.99388e-09
0.0025
2.20857e-09
0.0025
1.63125e-09
0.0025
1.20677e-09
0.0025
8.94637e-10
0.0025
6.65049e-10
0.0025
4.96143e-10
0.0025
3.71821e-10
0.0025
2.80283e-10
0.0025
2.12824e-10
0.0025
1.63082e-10
0.0025
1.26343e-10
0.0025
9.91847e-11
0.0025
7.90488e-11
0.0025
6.40979e-11
0.0025
5.29398e-11
0.0025
4.45938e-11
0.0025
3.8296e-11
0.0025
3.35288e-11
0.0025
2.98677e-11
0.0025
2.70452e-11
0.0025
2.482e-11
0.0025
2.30597e-11
0.0025
2.16219e-11
0.0025
2.04471e-11
0.0025
1.94467e-11
0.0025
1.85998e-11
0.0025
1.78473e-11
0.0025
1.7189e-11
0.0025
1.65821e-11
0.0025
1.60369e-11
0.0025
1.55197e-11
0.0025
1.50462e-11
0.0025
1.45883e-11
0.0025
1.41636e-11
0.0025
1.37477e-11
0.0025
1.33587e-11
0.0025
1.2975e-11
0.0025
1.26141e-11
0.0025
1.22567e-11
0.0025
1.19192e-11
0.0025
1.15844e-11
0.0025
1.12673e-11
0.0025
1.09525e-11
0.0025
1.06534e-11
0.0025
1.03566e-11
0.0025
1.00739e-11
0.0025
9.79348e-12
0.0025
9.52554e-12
0.0025
9.26017e-12
0.0025
9.00576e-12
0.0025
8.75427e-12
0.0025
8.51232e-12
0.0025
8.2737e-12
0.0025
8.04325e-12
0.0025
7.8166e-12
0.0025
7.59683e-12
0.0025
7.38133e-12
0.0025
7.17145e-12
0.0025
6.96637e-12
0.0025
6.76569e-12
0.0025
6.57033e-12
0.0025
6.37822e-12
0.0025
6.19198e-12
0.0025
6.00792e-12
0.0025
5.83028e-12
0.0025
5.65378e-12
0.0025
5.48423e-12
0.0025
5.31483e-12
0.0025
5.15289e-12
0.0025
4.99019e-12
0.0025
4.83547e-12
0.0025
4.6791e-12
0.0025
4.53119e-12
0.0025
4.38082e-12
0.0025
4.23937e-12
0.0025
4.09466e-12
0.0025
3.95935e-12
0.0025
3.82004e-12
0.0025
3.69056e-12
0.0025
3.55639e-12
0.0025
3.43245e-12
0.0025
3.30319e-12
0.0025
3.18453e-12
0.0025
3.05997e-12
0.0025
2.94635e-12
0.0025
2.82632e-12
0.0025
2.71756e-12
0.0025
2.6019e-12
0.0025
2.49781e-12
0.0025
2.38642e-12
0.0025
2.28686e-12
0.0025
2.17963e-12
0.0025
2.08451e-12
0.0025
1.98142e-12
0.0025
1.89069e-12
0.0025
1.79179e-12
0.0025
1.70552e-12
0.0025
1.61102e-12
0.0025
1.52939e-12
0.0025
1.43966e-12
0.0025
1.3629e-12
0.0025
1.27895e-12
0.0025
1.20776e-12
0.0025
1.13297e-12
0.0025
1.06604e-12
0.0025
1.00986e-12
0.0025
9.29326e-13
0.0025
9.48989e-13
7.59845e-13
0.00250217
-6.57209e-06
0.0025086
-1.94547e-05
0.00251932
-3.23002e-05
0.00253456
-4.56755e-05
0.00255496
-6.07504e-05
0.00258105
-7.72093e-05
0.00261219
-9.15043e-05
0.00264568
-9.77036e-05
0.00267713
-9.095e-05
0.00270156
-7.02309e-05
0.00271442
-3.72882e-05
0.00271457
-1.18348e-06
0.00270281
3.25482e-05
0.00268248
5.73124e-05
0.00265746
7.14591e-05
0.00263114
7.60674e-05
0.00260604
7.33361e-05
0.00258369
6.59722e-05
0.00256478
5.63399e-05
0.0025494
4.62225e-05
0.00253726
3.67724e-05
0.00252789
2.85864e-05
0.00252077
2.18555e-05
0.00251541
1.65169e-05
0.0025114
1.2384e-05
0.00250842
9.23492e-06
0.00250622
6.8601e-06
0.00250458
5.08171e-06
0.00250337
3.75657e-06
0.00250248
2.77276e-06
0.00250183
2.04432e-06
0.00250134
1.506e-06
0.00250099
1.10875e-06
0.00250073
8.15919e-07
0.00250053
6.00223e-07
0.00250039
4.41439e-07
0.00250029
3.246e-07
0.00250021
2.38654e-07
0.00250016
1.75449e-07
0.00250011
1.28975e-07
0.00250008
9.48089e-08
0.00250006
6.96931e-08
0.00250005
5.12317e-08
0.00250003
3.76624e-08
0.00250002
2.76891e-08
0.00250002
2.03591e-08
0.00250001
1.49718e-08
0.00250001
1.10123e-08
0.00250001
8.10217e-09
0.00250001
5.96327e-09
0.0025
4.39116e-09
0.0025
3.23558e-09
0.0025
2.38613e-09
0.0025
1.76164e-09
0.0025
1.3025e-09
0.0025
9.64855e-10
0.0025
7.16525e-10
0.0025
5.33821e-10
0.0025
3.99366e-10
0.0025
3.00356e-10
0.0025
2.2742e-10
0.0025
1.73628e-10
0.0025
1.33931e-10
0.0025
1.04575e-10
0.0025
8.28438e-11
0.0025
6.66986e-11
0.0025
5.46852e-11
0.0025
4.56894e-11
0.0025
3.89382e-11
0.0025
3.38171e-11
0.0025
2.9921e-11
0.0025
2.69056e-11
0.0025
2.45644e-11
0.0025
2.26991e-11
0.0025
2.12103e-11
0.0025
1.99787e-11
0.0025
1.89625e-11
0.0025
1.80854e-11
0.0025
1.73361e-11
0.0025
1.66622e-11
0.0025
1.60682e-11
0.0025
1.55153e-11
0.0025
1.50159e-11
0.0025
1.45391e-11
0.0025
1.41011e-11
0.0025
1.36758e-11
0.0025
1.32806e-11
0.0025
1.28929e-11
0.0025
1.25297e-11
0.0025
1.21712e-11
0.0025
1.18335e-11
0.0025
1.1499e-11
0.0025
1.11827e-11
0.0025
1.08689e-11
0.0025
1.05712e-11
0.0025
1.02757e-11
0.0025
9.99443e-12
0.0025
9.71555e-12
0.0025
9.44923e-12
0.0025
9.18555e-12
0.0025
8.93287e-12
0.0025
8.68316e-12
0.0025
8.44298e-12
0.0025
8.20616e-12
0.0025
7.97746e-12
0.0025
7.75257e-12
0.0025
7.53446e-12
0.0025
7.32064e-12
0.0025
7.11235e-12
0.0025
6.9089e-12
0.0025
6.70979e-12
0.0025
6.51606e-12
0.0025
6.32551e-12
0.0025
6.14089e-12
0.0025
5.95835e-12
0.0025
5.78225e-12
0.0025
5.6072e-12
0.0025
5.43915e-12
0.0025
5.27115e-12
0.0025
5.11068e-12
0.0025
4.94934e-12
0.0025
4.79605e-12
0.0025
4.64101e-12
0.0025
4.49451e-12
0.0025
4.34544e-12
0.0025
4.20537e-12
0.0025
4.06196e-12
0.0025
3.92801e-12
0.0025
3.78999e-12
0.0025
3.66186e-12
0.0025
3.52899e-12
0.0025
3.40641e-12
0.0025
3.27848e-12
0.0025
3.16122e-12
0.0025
3.03805e-12
0.0025
2.9259e-12
0.0025
2.80735e-12
0.0025
2.70018e-12
0.0025
2.58614e-12
0.0025
2.48382e-12
0.0025
2.37428e-12
0.0025
2.27676e-12
0.0025
2.17172e-12
0.0025
2.079e-12
0.0025
1.97854e-12
0.0025
1.89073e-12
0.0025
1.79506e-12
0.0025
1.71239e-12
0.0025
1.62195e-12
0.0025
1.54487e-12
0.0025
1.46042e-12
0.0025
1.38955e-12
0.0025
1.31262e-12
0.0025
1.24892e-12
0.0025
1.18369e-12
0.0025
1.12606e-12
0.0025
1.08144e-12
0.0025
1.01524e-12
0.0025
1.03379e-12
8.96178e-13
0.00250213
-8.69926e-06
0.00250845
-2.57732e-05
0.00251905
-4.2907e-05
0.00253429
-6.09146e-05
0.00255493
-8.13892e-05
0.00258164
-0.000103922
0.00261393
-0.00012379
0.00264913
-0.000132909
0.00268271
-0.000124523
0.00270907
-9.65997e-05
0.00272275
-5.09623e-05
0.00272239
-8.25336e-07
0.00270882
4.61189e-05
0.00268611
8.00249e-05
0.0026588
9.87697e-05
0.00263066
0.000104204
0.00260437
9.96291e-05
0.0025814
8.89384e-05
0.00256233
7.54158e-05
0.00254708
6.14717e-05
0.00253523
4.86203e-05
0.00252621
3.76092e-05
0.00251942
2.86385e-05
0.00251436
2.15771e-05
0.0025106
1.61425e-05
0.00250782
1.20189e-05
0.00250576
8.91827e-06
0.00250424
6.60101e-06
0.00250312
4.8768e-06
0.0025023
3.59803e-06
0.00250169
2.65191e-06
0.00250124
1.95312e-06
0.00250091
1.43768e-06
0.00250067
1.05784e-06
0.00250049
7.7811e-07
0.00250036
5.72223e-07
0.00250027
4.20743e-07
0.0025002
3.09326e-07
0.00250014
2.27394e-07
0.00250011
1.67154e-07
0.00250008
1.22869e-07
0.00250006
9.03155e-08
0.00250004
6.63877e-08
0.00250003
4.88007e-08
0.00250002
3.58748e-08
0.00250002
2.63747e-08
0.00250001
1.93925e-08
0.00250001
1.4261e-08
0.00250001
1.04895e-08
0.0025
7.71756e-09
0.0025
5.6802e-09
0.0025
4.1827e-09
0.0025
3.08195e-09
0.0025
2.27276e-09
0.0025
1.67788e-09
0.0025
1.24047e-09
0.0025
9.18812e-10
0.0025
6.82213e-10
0.0025
5.08147e-10
0.0025
3.80023e-10
0.0025
2.85689e-10
0.0025
2.16171e-10
0.0025
1.64917e-10
0.0025
1.2707e-10
0.0025
9.91019e-11
0.0025
7.83762e-11
0.0025
6.30002e-11
0.0025
5.15373e-11
0.0025
4.29773e-11
0.0025
3.65316e-11
0.0025
3.16671e-11
0.0025
2.79451e-11
0.0025
2.50899e-11
0.0025
2.28523e-11
0.0025
2.10951e-11
0.0025
1.96717e-11
0.0025
1.85197e-11
0.0025
1.75484e-11
0.0025
1.67349e-11
0.0025
1.60194e-11
0.0025
1.54e-11
0.0025
1.48338e-11
0.0025
1.43298e-11
0.0025
1.38548e-11
0.0025
1.34227e-11
0.0025
1.30066e-11
0.0025
1.26224e-11
0.0025
1.22471e-11
0.0025
1.18972e-11
0.0025
1.15525e-11
0.0025
1.1229e-11
0.0025
1.09091e-11
0.0025
1.06072e-11
0.0025
1.0308e-11
0.0025
1.00247e-11
0.0025
9.74366e-12
0.0025
9.4765e-12
0.0025
9.21161e-12
0.0025
8.95884e-12
0.0025
8.70852e-12
0.0025
8.46877e-12
0.0025
8.23177e-12
0.0025
8.00389e-12
0.0025
7.77919e-12
0.0025
7.56226e-12
0.0025
7.34897e-12
0.0025
7.14217e-12
0.0025
6.93951e-12
0.0025
6.74209e-12
0.0025
6.54931e-12
0.0025
6.36057e-12
0.0025
6.17697e-12
0.0025
5.9963e-12
0.0025
5.82134e-12
0.0025
5.64826e-12
0.0025
5.48143e-12
0.0025
5.31548e-12
0.0025
5.15632e-12
0.0025
4.99707e-12
0.0025
4.84512e-12
0.0025
4.69218e-12
0.0025
4.54705e-12
0.0025
4.40009e-12
0.0025
4.26142e-12
0.0025
4.12013e-12
0.0025
3.9876e-12
0.0025
3.8517e-12
0.0025
3.72501e-12
0.0025
3.59425e-12
0.0025
3.47314e-12
0.0025
3.34734e-12
0.0025
3.23157e-12
0.0025
3.11052e-12
0.0025
2.99991e-12
0.0025
2.88349e-12
0.0025
2.77788e-12
0.0025
2.66599e-12
0.0025
2.56527e-12
0.0025
2.45788e-12
0.0025
2.362e-12
0.0025
2.25914e-12
0.0025
2.16813e-12
0.0025
2.06989e-12
0.0025
1.98387e-12
0.0025
1.8905e-12
0.0025
1.80974e-12
0.0025
1.72163e-12
0.0025
1.64658e-12
0.0025
1.56443e-12
0.0025
1.49582e-12
0.0025
1.42072e-12
0.0025
1.35949e-12
0.0025
1.29342e-12
0.0025
1.24085e-12
0.0025
1.18856e-12
0.0025
1.14418e-12
0.0025
1.11378e-12
0.0025
1.06642e-12
0.0025
1.08813e-12
1.00544e-12
0.00250206
-1.07618e-05
0.00250821
-3.19179e-05
0.00251862
-5.33244e-05
0.0025338
-7.60946e-05
0.0025547
-0.000102282
0.00258219
-0.00013141
0.002616
-0.000157609
0.00265359
-0.000170495
0.00269023
-0.000161166
0.00271943
-0.0001258
0.00273427
-6.57941e-05
0.00273316
2.77119e-07
0.00271697
6.23145e-05
0.00269088
0.000106115
0.0026604
0.000129247
0.00262983
0.000134779
0.00260198
0.000127477
0.00257824
0.000112673
0.00255899
9.467e-05
0.00254394
7.65175e-05
0.0025325
6.00619e-05
0.00252396
4.61554e-05
0.00251763
3.49598e-05
0.00251298
2.62343e-05
0.00250955
1.95707e-05
0.00250702
1.45427e-05
0.00250517
1.07762e-05
0.0025038
7.96834e-06
0.00250279
5.88273e-06
0.00250205
4.33787e-06
0.00250151
3.19594e-06
0.00250111
2.35312e-06
0.00250082
1.73174e-06
0.0025006
1.274e-06
0.00250044
9.36996e-07
0.00250032
6.89004e-07
0.00250024
5.06573e-07
0.00250017
3.72407e-07
0.00250013
2.73754e-07
0.00250009
2.01225e-07
0.00250007
1.47908e-07
0.00250005
1.08717e-07
0.00250004
7.99106e-08
0.00250003
5.87386e-08
0.00250002
4.31779e-08
0.00250001
3.17416e-08
0.00250001
2.33365e-08
0.00250001
1.71592e-08
0.00250001
1.26192e-08
0.0025
9.28247e-09
0.0025
6.83002e-09
0.0025
5.02745e-09
0.0025
3.70249e-09
0.0025
2.72852e-09
0.0025
2.01252e-09
0.0025
1.4861e-09
0.0025
1.09902e-09
0.0025
8.14337e-10
0.0025
6.04929e-10
0.0025
4.50831e-10
0.0025
3.37407e-10
0.0025
2.53862e-10
0.0025
1.92301e-10
0.0025
1.46881e-10
0.0025
1.13351e-10
0.0025
8.85421e-11
0.0025
7.01699e-11
0.0025
5.65102e-11
0.0025
4.63414e-11
0.0025
3.87192e-11
0.0025
3.2996e-11
0.0025
2.86491e-11
0.0025
2.53409e-11
0.0025
2.27765e-11
0.0025
2.07855e-11
0.0025
1.91967e-11
0.0025
1.79293e-11
0.0025
1.68794e-11
0.0025
1.60142e-11
0.0025
1.52665e-11
0.0025
1.46289e-11
0.0025
1.4055e-11
0.0025
1.35504e-11
0.0025
1.30803e-11
0.0025
1.26571e-11
0.0025
1.22528e-11
0.0025
1.18824e-11
0.0025
1.15226e-11
0.0025
1.11889e-11
0.0025
1.08613e-11
0.0025
1.05549e-11
0.0025
1.02521e-11
0.0025
9.9672e-12
0.0025
9.68473e-12
0.0025
9.4177e-12
0.0025
9.15267e-12
0.0025
8.90113e-12
0.0025
8.65156e-12
0.0025
8.41381e-12
0.0025
8.17823e-12
0.0025
7.95293e-12
0.0025
7.73012e-12
0.0025
7.51614e-12
0.0025
7.30501e-12
0.0025
7.10135e-12
0.0025
6.90098e-12
0.0025
6.70679e-12
0.0025
6.51635e-12
0.0025
6.33092e-12
0.0025
6.1498e-12
0.0025
5.97257e-12
0.0025
5.80019e-12
0.0025
5.63062e-12
0.0025
5.46642e-12
0.0025
5.30397e-12
0.0025
5.14741e-12
0.0025
4.99162e-12
0.0025
4.84226e-12
0.0025
4.69275e-12
0.0025
4.55019e-12
0.0025
4.40662e-12
0.0025
4.27051e-12
0.0025
4.13256e-12
0.0025
4.00255e-12
0.0025
3.86994e-12
0.0025
3.74574e-12
0.0025
3.61822e-12
0.0025
3.49955e-12
0.0025
3.3769e-12
0.0025
3.26352e-12
0.0025
3.14556e-12
0.0025
3.03728e-12
0.0025
2.92386e-12
0.0025
2.82051e-12
0.0025
2.71154e-12
0.0025
2.61303e-12
0.0025
2.50845e-12
0.0025
2.41471e-12
0.0025
2.31457e-12
0.0025
2.22565e-12
0.0025
2.13006e-12
0.0025
2.04609e-12
0.0025
1.95528e-12
0.0025
1.8765e-12
0.0025
1.79083e-12
0.0025
1.71763e-12
0.0025
1.63765e-12
0.0025
1.57069e-12
0.0025
1.49732e-12
0.0025
1.43759e-12
0.0025
1.37228e-12
0.0025
1.32105e-12
0.0025
1.26614e-12
0.0025
1.22502e-12
0.0025
1.18573e-12
0.0025
1.15508e-12
0.0025
1.1387e-12
0.0025
1.11025e-12
0.0025
1.13781e-12
1.10383e-12
0.00250197
-1.27307e-05
0.00250786
-3.78074e-05
0.00251797
-6.34389e-05
0.00253299
-9.11077e-05
0.00255409
-0.000123381
0.00258245
-0.000159778
0.00261819
-0.000193343
0.00265892
-0.000211228
0.00269982
-0.000202066
0.00273303
-0.000159013
0.00274954
-8.23007e-05
0.00274746
2.35418e-06
0.00272763
8.21485e-05
0.00269689
0.000136852
0.00266214
0.000164
0.00262835
0.000168566
0.00259853
0.000157296
0.0025739
0.000137303
0.00255454
0.000114037
0.00253986
9.11925e-05
0.00252902
7.08998e-05
0.00252114
5.40427e-05
0.00251542
4.06713e-05
0.00251128
3.03767e-05
0.00250826
2.25871e-05
0.00250606
1.67468e-05
0.00250445
1.23901e-05
0.00250326
9.15125e-06
0.0025024
6.75024e-06
0.00250176
4.97439e-06
0.00250129
3.66317e-06
0.00250095
2.69619e-06
0.0025007
1.98371e-06
0.00250051
1.45908e-06
0.00250038
1.07297e-06
0.00250028
7.88903e-07
0.0025002
5.79974e-07
0.00250015
4.2634e-07
0.00250011
3.13384e-07
0.00250008
2.30346e-07
0.00250006
1.69307e-07
0.00250004
1.24442e-07
0.00250003
9.14666e-08
0.00250002
6.72307e-08
0.00250002
4.94185e-08
0.00250001
3.63275e-08
0.00250001
2.67065e-08
0.00250001
1.96356e-08
0.0025
1.44389e-08
0.0025
1.06195e-08
0.0025
7.81238e-09
0.0025
5.74913e-09
0.0025
4.23258e-09
0.0025
3.1178e-09
0.0025
2.29831e-09
0.0025
1.69582e-09
0.0025
1.25283e-09
0.0025
9.27057e-10
0.0025
6.87447e-10
0.0025
5.11152e-10
0.0025
3.81414e-10
0.0025
2.8588e-10
0.0025
2.1551e-10
0.0025
1.63621e-10
0.0025
1.25339e-10
0.0025
9.70429e-11
0.0025
7.6112e-11
0.0025
6.05779e-11
0.0025
4.9036e-11
0.0025
4.04114e-11
0.0025
3.39565e-11
0.0025
2.9079e-11
0.0025
2.53861e-11
0.0025
2.25462e-11
0.0025
2.0358e-11
0.0025
1.86313e-11
0.0025
1.72679e-11
0.0025
1.61543e-11
0.0025
1.52477e-11
0.0025
1.44764e-11
0.0025
1.3827e-11
0.0025
1.32511e-11
0.0025
1.27505e-11
0.0025
1.22898e-11
0.0025
1.18783e-11
0.0025
1.14886e-11
0.0025
1.11332e-11
0.0025
1.07899e-11
0.0025
1.04724e-11
0.0025
1.01618e-11
0.0025
9.87201e-12
0.0025
9.58639e-12
0.0025
9.31809e-12
0.0025
9.0527e-12
0.0025
8.80213e-12
0.0025
8.55384e-12
0.0025
8.31835e-12
0.0025
8.0849e-12
0.0025
7.86252e-12
0.0025
7.64224e-12
0.0025
7.43153e-12
0.0025
7.22317e-12
0.0025
7.02304e-12
0.0025
6.82561e-12
0.0025
6.6352e-12
0.0025
6.44791e-12
0.0025
6.26649e-12
0.0025
6.08863e-12
0.0025
5.9155e-12
0.0025
5.74637e-12
0.0025
5.58087e-12
0.0025
5.41983e-12
0.0025
5.26141e-12
0.0025
5.10796e-12
0.0025
4.95622e-12
0.0025
4.80995e-12
0.0025
4.66449e-12
0.0025
4.52498e-12
0.0025
4.38542e-12
0.0025
4.25226e-12
0.0025
4.11826e-12
0.0025
3.99113e-12
0.0025
3.86239e-12
0.0025
3.74097e-12
0.0025
3.61723e-12
0.0025
3.50125e-12
0.0025
3.38231e-12
0.0025
3.27153e-12
0.0025
3.15719e-12
0.0025
3.05143e-12
0.0025
2.94154e-12
0.0025
2.84062e-12
0.0025
2.7351e-12
0.0025
2.6389e-12
0.0025
2.53766e-12
0.0025
2.44613e-12
0.0025
2.34919e-12
0.0025
2.26232e-12
0.0025
2.16975e-12
0.0025
2.08764e-12
0.0025
1.99962e-12
0.0025
1.92247e-12
0.0025
1.83933e-12
0.0025
1.76749e-12
0.0025
1.68972e-12
0.0025
1.62379e-12
0.0025
1.55214e-12
0.0025
1.49297e-12
0.0025
1.42861e-12
0.0025
1.37745e-12
0.0025
1.32208e-12
0.0025
1.28047e-12
0.0025
1.23678e-12
0.0025
1.20666e-12
0.0025
1.18016e-12
0.0025
1.16279e-12
0.0025
1.16059e-12
0.0025
1.15011e-12
0.0025
1.18681e-12
1.19575e-12
0.00250184
-1.45687e-05
0.00250737
-4.33348e-05
0.00251702
-7.30908e-05
0.00253169
-0.000105777
0.00255286
-0.000144551
0.00258212
-0.000189047
0.00262013
-0.000231344
0.00266487
-0.000255974
0.00271153
-0.000248728
0.00275026
-0.000197739
0.00276899
-0.000101033
0.00276555
5.79979e-06
0.00274076
0.000106936
0.00270393
0.000173679
0.0026638
0.000204136
0.00262613
0.000206231
0.00259405
0.00018938
0.00256847
0.000162883
0.00254907
0.000133438
0.0025349
0.000105356
0.00252483
8.09713e-05
0.00251776
6.11115e-05
0.0025128
4.56337e-05
0.00250928
3.38928e-05
0.00250676
2.51078e-05
0.00250494
1.85705e-05
0.00250361
1.37165e-05
0.00250265
1.01186e-05
0.00250194
7.45692e-06
0.00250142
5.49136e-06
0.00250104
4.0418e-06
0.00250077
2.97376e-06
0.00250056
2.18732e-06
0.00250041
1.6085e-06
0.0025003
1.18266e-06
0.00250022
8.69452e-07
0.00250016
6.39133e-07
0.00250012
4.69796e-07
0.00250009
3.45308e-07
0.00250006
2.53801e-07
0.00250005
1.86541e-07
0.00250004
1.37105e-07
0.00250003
1.00771e-07
0.00250002
7.40679e-08
0.00250001
5.44427e-08
0.00250001
4.00195e-08
0.00250001
2.94195e-08
0.00250001
2.16292e-08
0.0025
1.59037e-08
0.0025
1.16958e-08
0.0025
8.60308e-09
0.0025
6.32995e-09
0.0025
4.65915e-09
0.0025
3.431e-09
0.0025
2.52818e-09
0.0025
1.86444e-09
0.0025
1.37644e-09
0.0025
1.01757e-09
0.0025
7.53642e-10
0.0025
5.59472e-10
0.0025
4.16598e-10
0.0025
3.11413e-10
0.0025
2.33951e-10
0.0025
1.76853e-10
0.0025
1.34747e-10
0.0025
1.03645e-10
0.0025
8.06562e-11
0.0025
6.3616e-11
0.0025
5.09726e-11
0.0025
4.15451e-11
0.0025
3.45057e-11
0.0025
2.92056e-11
0.0025
2.52077e-11
0.0025
2.21508e-11
0.0025
1.98089e-11
0.0025
1.79765e-11
0.0025
1.65411e-11
0.0025
1.53817e-11
0.0025
1.44467e-11
0.0025
1.36613e-11
0.0025
1.30064e-11
0.0025
1.24328e-11
0.0025
1.19383e-11
0.0025
1.14882e-11
0.0025
1.10891e-11
0.0025
1.07145e-11
0.0025
1.03751e-11
0.0025
1.00494e-11
0.0025
9.74964e-12
0.0025
9.45761e-12
0.0025
9.18575e-12
0.0025
8.91848e-12
0.0025
8.66767e-12
0.0025
8.41983e-12
0.0025
8.18586e-12
0.0025
7.95414e-12
0.0025
7.73441e-12
0.0025
7.51673e-12
0.0025
7.30949e-12
0.0025
7.10435e-12
0.0025
6.90827e-12
0.0025
6.71446e-12
0.0025
6.52843e-12
0.0025
6.34492e-12
0.0025
6.168e-12
0.0025
5.99391e-12
0.0025
5.82528e-12
0.0025
5.65984e-12
0.0025
5.49886e-12
0.0025
5.34152e-12
0.0025
5.18771e-12
0.0025
5.03802e-12
0.0025
4.89093e-12
0.0025
4.74835e-12
0.0025
4.60748e-12
0.0025
4.47154e-12
0.0025
4.33647e-12
0.0025
4.20678e-12
0.0025
4.0772e-12
0.0025
3.95343e-12
0.0025
3.82905e-12
0.0025
3.71089e-12
0.0025
3.59143e-12
0.0025
3.47861e-12
0.0025
3.36383e-12
0.0025
3.2561e-12
0.0025
3.14583e-12
0.0025
3.04297e-12
0.0025
2.93702e-12
0.0025
2.83886e-12
0.0025
2.73711e-12
0.0025
2.64352e-12
0.0025
2.54591e-12
0.0025
2.4568e-12
0.0025
2.3633e-12
0.0025
2.27865e-12
0.0025
2.18931e-12
0.0025
2.10919e-12
0.0025
2.02416e-12
0.0025
1.94873e-12
0.0025
1.86828e-12
0.0025
1.79788e-12
0.0025
1.72244e-12
0.0025
1.65754e-12
0.0025
1.58772e-12
0.0025
1.52902e-12
0.0025
1.46572e-12
0.0025
1.41423e-12
0.0025
1.35881e-12
0.0025
1.31606e-12
0.0025
1.27055e-12
0.0025
1.23837e-12
0.0025
1.20571e-12
0.0025
1.18632e-12
0.0025
1.17225e-12
0.0025
1.16781e-12
0.0025
1.17948e-12
0.0025
1.18618e-12
0.0025
1.23288e-12
1.27991e-12
0.00250166
-1.62292e-05
0.00250669
-4.83639e-05
0.00251566
-8.20652e-05
0.00252972
-0.000119837
0.00255071
-0.000165536
0.00258078
-0.000219116
0.00262134
-0.000271909
0.00267112
-0.00030575
0.00272556
-0.000303164
0.00277192
-0.000244097
0.00279382
-0.000122938
0.00278867
1.09516e-05
0.00275713
0.000138474
0.00271212
0.000218688
0.00266497
0.000251285
0.00262247
0.000248733
0.00258776
0.000224093
0.00256127
0.000189367
0.00254211
0.000152603
0.00252881
0.000118658
0.00251983
8.99443e-05
0.00251385
6.71002e-05
0.00250981
4.96649e-05
0.00250704
3.66654e-05
0.00250509
2.70588e-05
0.0025037
1.99655e-05
0.00250269
1.47221e-05
0.00250196
1.08464e-05
0.00250143
7.98522e-06
0.00250105
5.8759e-06
0.00250077
4.32239e-06
0.00250056
3.17889e-06
0.00250041
2.33749e-06
0.0025003
1.71854e-06
0.00250022
1.26335e-06
0.00250016
9.28652e-07
0.00250012
6.82585e-07
0.00250009
5.01698e-07
0.00250006
3.68737e-07
0.00250005
2.71009e-07
0.00250003
1.99181e-07
0.00250003
1.46392e-07
0.00250002
1.07594e-07
0.00250001
7.90814e-08
0.00250001
5.81266e-08
0.00250001
4.27264e-08
0.00250001
3.14085e-08
0.0025
2.30907e-08
0.0025
1.69776e-08
0.0025
1.24847e-08
0.0025
9.18261e-09
0.0025
6.75559e-09
0.0025
4.97167e-09
0.0025
3.66038e-09
0.0025
2.69645e-09
0.0025
1.9878e-09
0.0025
1.46677e-09
0.0025
1.08364e-09
0.0025
8.0187e-10
0.0025
5.94589e-10
0.0025
4.42078e-10
0.0025
3.29811e-10
0.0025
2.47147e-10
0.0025
1.8623e-10
0.0025
1.4132e-10
0.0025
1.08164e-10
0.0025
8.36692e-11
0.0025
6.55284e-11
0.0025
5.20803e-11
0.0025
4.20687e-11
0.0025
3.46047e-11
0.0025
2.90002e-11
0.0025
2.47837e-11
0.0025
2.15739e-11
0.0025
1.91245e-11
0.0025
1.72207e-11
0.0025
1.57377e-11
0.0025
1.45507e-11
0.0025
1.36004e-11
0.0025
1.28112e-11
0.0025
1.21586e-11
0.0025
1.1594e-11
0.0025
1.11113e-11
0.0025
1.06768e-11
0.0025
1.02938e-11
0.0025
9.93729e-12
0.0025
9.61522e-12
0.0025
9.30793e-12
0.0025
9.02544e-12
0.0025
8.75155e-12
0.0025
8.49676e-12
0.0025
8.24733e-12
0.0025
8.01341e-12
0.0025
7.78314e-12
0.0025
7.56588e-12
0.0025
7.35136e-12
0.0025
7.1479e-12
0.0025
6.94672e-12
0.0025
6.75502e-12
0.0025
6.56546e-12
0.0025
6.38405e-12
0.0025
6.20488e-12
0.0025
6.03274e-12
0.0025
5.86306e-12
0.0025
5.6994e-12
0.0025
5.5385e-12
0.0025
5.38268e-12
0.0025
5.22995e-12
0.0025
5.08136e-12
0.0025
4.93614e-12
0.0025
4.79414e-12
0.0025
4.65584e-12
0.0025
4.51995e-12
0.0025
4.38814e-12
0.0025
4.25804e-12
0.0025
4.1324e-12
0.0025
4.00775e-12
0.0025
3.88793e-12
0.0025
3.76838e-12
0.0025
3.65401e-12
0.0025
3.53928e-12
0.0025
3.43008e-12
0.0025
3.31992e-12
0.0025
3.21565e-12
0.0025
3.10986e-12
0.0025
3.01029e-12
0.0025
2.9087e-12
0.0025
2.81365e-12
0.0025
2.71612e-12
0.0025
2.62548e-12
0.0025
2.53194e-12
0.0025
2.4456e-12
0.0025
2.356e-12
0.0025
2.27394e-12
0.0025
2.1883e-12
0.0025
2.11051e-12
0.0025
2.02892e-12
0.0025
1.95553e-12
0.0025
1.87818e-12
0.0025
1.80941e-12
0.0025
1.73662e-12
0.0025
1.67285e-12
0.0025
1.60513e-12
0.0025
1.54694e-12
0.0025
1.48505e-12
0.0025
1.43333e-12
0.0025
1.37836e-12
0.0025
1.33435e-12
0.0025
1.28787e-12
0.0025
1.25329e-12
0.0025
1.21757e-12
0.0025
1.19453e-12
0.0025
1.17276e-12
0.0025
1.16376e-12
0.0025
1.16183e-12
0.0025
1.16979e-12
0.0025
1.19522e-12
0.0025
1.21828e-12
0.0025
1.2764e-12
1.358e-12
0.00250143
-1.76549e-05
0.00250579
-5.27257e-05
0.0025138
-9.0082e-05
0.00252688
-0.000132916
0.00254726
-0.000185917
0.00257785
-0.000249698
0.00262113
-0.000315197
0.00267708
-0.000361694
0.00274193
-0.000368018
0.00279864
-0.00030081
0.00282459
-0.00014889
0.00281702
1.85298e-05
0.00277643
0.000179057
0.00272101
0.000274115
0.0026654
0.000306893
0.0026174
0.000296728
0.00257994
0.00026156
0.00255268
0.000216623
0.00253397
0.000171313
0.00252177
0.000130862
0.00251412
9.75946e-05
0.00250941
7.18095e-05
0.00250647
5.2604e-05
0.00250456
3.85764e-05
0.00250326
2.83602e-05
0.00250234
2.08796e-05
0.00250169
1.53729e-05
0.00250122
1.1312e-05
0.00250089
8.31954e-06
0.00250065
6.11714e-06
0.00250047
4.49731e-06
0.00250035
3.30618e-06
0.00250025
2.43035e-06
0.00250019
1.7864e-06
0.00250014
1.313e-06
0.0025001
9.65021e-07
0.00250007
7.09245e-07
0.00250005
5.21254e-07
0.00250004
3.83088e-07
0.00250003
2.81544e-07
0.00250002
2.06918e-07
0.00250002
1.52074e-07
0.00250001
1.11768e-07
0.00250001
8.21477e-08
0.00250001
6.03793e-08
0.0025
4.43816e-08
0.0025
3.26246e-08
0.0025
2.39841e-08
0.0025
1.76339e-08
0.0025
1.29669e-08
0.0025
9.53668e-09
0.0025
7.01553e-09
0.0025
5.16242e-09
0.0025
3.80027e-09
0.0025
2.79895e-09
0.0025
2.06281e-09
0.0025
1.52157e-09
0.0025
1.12358e-09
0.0025
8.30891e-10
0.0025
6.15585e-10
0.0025
4.57176e-10
0.0025
3.40578e-10
0.0025
2.54732e-10
0.0025
1.91481e-10
0.0025
1.44859e-10
0.0025
1.10449e-10
0.0025
8.50378e-11
0.0025
6.62304e-11
0.0025
5.22975e-11
0.0025
4.19369e-11
0.0025
3.42217e-11
0.0025
2.844e-11
0.0025
2.40985e-11
0.0025
2.08043e-11
0.0025
1.82986e-11
0.0025
1.63609e-11
0.0025
1.48585e-11
0.0025
1.36647e-11
0.0025
1.27146e-11
0.0025
1.19325e-11
0.0025
1.12899e-11
0.0025
1.0739e-11
0.0025
1.02708e-11
0.0025
9.85308e-12
0.0025
9.4869e-12
0.0025
9.14905e-12
0.0025
8.84539e-12
0.0025
8.55789e-12
0.0025
8.29452e-12
0.0025
8.04054e-12
0.0025
7.80464e-12
0.0025
7.57444e-12
0.0025
7.35853e-12
0.0025
7.14634e-12
0.0025
6.94594e-12
0.0025
6.74828e-12
0.0025
6.56068e-12
0.0025
6.37544e-12
0.0025
6.19892e-12
0.0025
6.02467e-12
0.0025
5.85797e-12
0.0025
5.69353e-12
0.0025
5.53559e-12
0.0025
5.38001e-12
0.0025
5.22994e-12
0.0025
5.08238e-12
0.0025
4.9394e-12
0.0025
4.79917e-12
0.0025
4.66274e-12
0.0025
4.52937e-12
0.0025
4.39911e-12
0.0025
4.27222e-12
0.0025
4.14773e-12
0.0025
4.02688e-12
0.0025
3.90771e-12
0.0025
3.79246e-12
0.0025
3.67824e-12
0.0025
3.56826e-12
0.0025
3.45874e-12
0.0025
3.35378e-12
0.0025
3.24871e-12
0.0025
3.1485e-12
0.0025
3.04767e-12
0.0025
2.95199e-12
0.0025
2.85523e-12
0.0025
2.7639e-12
0.0025
2.67104e-12
0.0025
2.5839e-12
0.0025
2.49483e-12
0.0025
2.41176e-12
0.0025
2.32641e-12
0.0025
2.24736e-12
0.0025
2.16573e-12
0.0025
2.09069e-12
0.0025
2.01284e-12
0.0025
1.94187e-12
0.0025
1.86792e-12
0.0025
1.80118e-12
0.0025
1.73137e-12
0.0025
1.66918e-12
0.0025
1.60395e-12
0.0025
1.54679e-12
0.0025
1.48677e-12
0.0025
1.43536e-12
0.0025
1.38138e-12
0.0025
1.33669e-12
0.0025
1.28995e-12
0.0025
1.25335e-12
0.0025
1.21565e-12
0.0025
1.18912e-12
0.0025
1.16296e-12
0.0025
1.14891e-12
0.0025
1.13776e-12
0.0025
1.13895e-12
0.0025
1.14878e-12
0.0025
1.16873e-12
0.0025
1.20749e-12
0.0025
1.24618e-12
0.0025
1.31564e-12
1.42875e-12
0.00250112
-1.87786e-05
0.00250462
-5.62182e-05
0.00251133
-9.67913e-05
0.00252292
-0.000144508
0.00254207
-0.000205068
0.00257262
-0.00028025
0.00261857
-0.000361145
0.002682
-0.000425127
0.00276092
-0.000446934
0.002832
-0.000371896
0.00286384
-0.000180726
0.00285323
2.9142e-05
0.00280006
0.00023222
0.00273051
0.000343667
0.00266399
0.000373419
0.00260939