/*--------------------------------*- C++ -*----------------------------------*\
  =========                 |
  \\      /  F ield         | OpenFOAM: The Open Source CFD Toolbox
   \\    /   O peration     | Website:  https://openfoam.org
    \\  /    A nd           | Version:  11
     \\/     M anipulation  |
\*---------------------------------------------------------------------------*/
FoamFile
{
    format      ascii;
    class       surfaceScalarField;
    location    "1.572364";
    object      phi_0;
}
// * * * * * * * * * * * * * * * * * * * * * * * * * * * * * * * * * * * * * //

dimensions      [0 3 -1 0 0 0 0];

internalField   nonuniform List<scalar> 
14638
(
0.00250275
-2.75444e-06
0.00251104
-8.28939e-06
0.00252516
-1.4116e-05
0.00254548
-2.03189e-05
0.00257236
-2.68821e-05
0.0026059
-3.35395e-05
0.00264571
-3.98091e-05
0.0026905
-4.47901e-05
0.002738
-4.74965e-05
0.00278485
-4.68551e-05
0.00282705
-4.22e-05
0.00286114
-3.40938e-05
0.00288437
-2.32216e-05
0.0028948
-1.04311e-05
0.0028918
2.99336e-06
0.00287615
1.56543e-05
0.00284992
2.62285e-05
0.0028161
3.38206e-05
0.00277796
3.81452e-05
0.00273849
3.94634e-05
0.00270011
3.83809e-05
0.00266448
3.56361e-05
0.00263255
3.19257e-05
0.00260476
2.7792e-05
0.00258118
2.35732e-05
0.00256176
1.94222e-05
0.00254637
1.53925e-05
0.00253481
1.15549e-05
0.00252674
8.07773e-06
0.00252152
5.21235e-06
0.00251834
3.18691e-06
0.00251626
2.07764e-06
0.00251451
1.7477e-06
0.00251262
1.89569e-06
0.00251044
2.18104e-06
0.00250809
2.34891e-06
0.0025058
2.29028e-06
0.00250377
2.02432e-06
0.00250214
1.63628e-06
0.00250092
1.21654e-06
0.00250009
8.2811e-07
0.00249959
5.0282e-07
0.00249934
2.51263e-07
0.00249926
7.28193e-08
0.0024993
-3.94542e-08
0.0024994
-9.72142e-08
0.00249952
-1.15299e-07
0.00249963
-1.09077e-07
0.00249972
-9.15671e-08
0.00249979
-7.16773e-08
0.00249984
-5.40754e-08
0.00249988
-4.0262e-08
0.00249991
-3.00017e-08
0.00249994
-2.24677e-08
0.00249995
-1.68667e-08
0.00249996
-1.26366e-08
0.00249997
-9.4216e-09
0.00249998
-6.98828e-09
0.00249999
-5.16373e-09
0.00249999
-3.80762e-09
0.00249999
-2.80503e-09
0.00249999
-2.06512e-09
0.0025
-1.51901e-09
0.0025
-1.11579e-09
0.0025
-8.18135e-10
0.0025
-5.98572e-10
0.0025
-4.36769e-10
0.0025
-3.17621e-10
0.0025
-2.29945e-10
0.0025
-1.6546e-10
0.0025
-1.18067e-10
0.0025
-8.32587e-11
0.0025
-5.77233e-11
0.0025
-3.90122e-11
0.0025
-2.53272e-11
0.0025
-1.53388e-11
0.0025
-8.07139e-12
0.0025
-2.80429e-12
0.0025
9.92053e-13
0.0025
3.70713e-12
0.0025
5.62901e-12
0.0025
6.96723e-12
0.0025
7.87935e-12
0.0025
8.47697e-12
0.0025
8.8474e-12
0.0025
9.04891e-12
0.0025
9.13113e-12
0.0025
9.12321e-12
0.0025
9.05457e-12
0.0025
8.93836e-12
0.0025
8.79326e-12
0.0025
8.62354e-12
0.0025
8.44219e-12
0.0025
8.24857e-12
0.0025
8.05268e-12
0.0025
7.85117e-12
0.0025
7.65246e-12
0.0025
7.45167e-12
0.0025
7.25639e-12
0.0025
7.06088e-12
0.0025
6.87226e-12
0.0025
6.68436e-12
0.0025
6.50398e-12
0.0025
6.32476e-12
0.0025
6.15327e-12
0.0025
5.9831e-12
0.0025
5.82059e-12
0.0025
5.65942e-12
0.0025
5.50571e-12
0.0025
5.35327e-12
0.0025
5.20796e-12
0.0025
5.06381e-12
0.0025
4.92644e-12
0.0025
4.79012e-12
0.0025
4.66019e-12
0.0025
4.53121e-12
0.0025
4.40822e-12
0.0025
4.28609e-12
0.0025
4.16954e-12
0.0025
4.05378e-12
0.0025
3.9432e-12
0.0025
3.83336e-12
0.0025
3.72832e-12
0.0025
3.62398e-12
0.0025
3.52408e-12
0.0025
3.42485e-12
0.0025
3.32972e-12
0.0025
3.23525e-12
0.0025
3.14455e-12
0.0025
3.05452e-12
0.0025
2.96795e-12
0.0025
2.88208e-12
0.0025
2.79937e-12
0.0025
2.71738e-12
0.0025
2.63828e-12
0.0025
2.55994e-12
0.0025
2.48424e-12
0.0025
2.40933e-12
0.0025
2.33682e-12
0.0025
2.26514e-12
0.0025
2.19565e-12
0.0025
2.12701e-12
0.0025
2.06035e-12
0.0025
1.99458e-12
0.0025
1.93061e-12
0.0025
1.86757e-12
0.0025
1.8062e-12
0.0025
1.74578e-12
0.0025
1.68694e-12
0.0025
1.62904e-12
0.0025
1.57269e-12
0.0025
1.51687e-12
0.0025
1.46318e-12
0.0025
1.40824e-12
0.0025
1.36013e-12
0.0025
1.30011e-12
0.0025
1.2769e-12
0.0025
1.17285e-12
0.0025
1.28401e-12
9.70435e-13
0.00250273
-5.48589e-06
0.00251096
-1.65163e-05
0.00252499
-2.81474e-05
0.00254524
-4.05699e-05
0.00257212
-5.37656e-05
0.0026058
-6.72158e-05
0.00264595
-7.99633e-05
0.00269133
-9.01686e-05
0.00273965
-9.58174e-05
0.00278744
-9.46449e-05
0.0028305
-8.52539e-05
0.00286528
-6.88751e-05
0.00288896
-4.68975e-05
0.00289953
-2.10099e-05
0.00289635
6.17713e-06
0.00288019
3.18109e-05
0.00285325
5.31746e-05
0.00281863
6.84393e-05
0.00277973
7.70431e-05
0.00273965
7.95493e-05
0.00270081
7.72176e-05
0.00266488
7.15636e-05
0.0026328
6.40051e-05
0.00260496
5.56379e-05
0.00258139
4.71405e-05
0.002562
3.88149e-05
0.00254663
3.076e-05
0.00253508
2.31052e-05
0.00252698
1.61741e-05
0.00252174
1.0459e-05
0.00251851
6.41172e-06
0.0025164
4.18659e-06
0.00251463
3.51592e-06
0.00251273
3.80305e-06
0.00251054
4.37027e-06
0.00250818
4.70776e-06
0.00250587
4.5949e-06
0.00250383
4.06688e-06
0.00250217
3.2919e-06
0.00250094
2.4501e-06
0.0025001
1.66834e-06
0.00249959
1.01188e-06
0.00249934
5.03633e-07
0.00249927
1.43474e-07
0.00249931
-8.21872e-08
0.00249941
-1.97113e-07
0.00249953
-2.31811e-07
0.00249964
-2.1782e-07
0.00249973
-1.81696e-07
0.0024998
-1.41412e-07
0.00249985
-1.06202e-07
0.00249989
-7.88554e-08
0.00249992
-5.87055e-08
0.00249994
-4.39767e-08
0.00249995
-3.30367e-08
0.00249997
-2.47634e-08
0.00249997
-1.84646e-08
0.00249998
-1.36929e-08
0.00249999
-1.01153e-08
0.00249999
-7.45785e-09
0.00249999
-5.49449e-09
0.00249999
-4.04612e-09
0.0025
-2.97723e-09
0.0025
-2.18795e-09
0.0025
-1.60525e-09
0.0025
-1.17541e-09
0.0025
-8.58625e-10
0.0025
-6.25355e-10
0.0025
-4.53688e-10
0.0025
-3.27418e-10
0.0025
-2.34597e-10
0.0025
-1.66411e-10
0.0025
-1.16372e-10
0.0025
-7.96926e-11
0.0025
-5.28494e-11
0.0025
-3.32423e-11
0.0025
-1.89605e-11
0.0025
-8.59305e-12
0.0025
-1.105e-12
0.0025
4.26868e-12
0.0025
8.08814e-12
0.0025
1.07682e-11
0.0025
1.26115e-11
0.0025
1.3843e-11
0.0025
1.46262e-11
0.0025
1.5083e-11
0.0025
1.53019e-11
0.0025
1.53487e-11
0.0025
1.52716e-11
0.0025
1.5106e-11
0.0025
1.48781e-11
0.0025
1.46067e-11
0.0025
1.43063e-11
0.0025
1.39867e-11
0.0025
1.36562e-11
0.0025
1.33193e-11
0.0025
1.29813e-11
0.0025
1.26438e-11
0.0025
1.23104e-11
0.0025
1.19809e-11
0.0025
1.16584e-11
0.0025
1.13415e-11
0.0025
1.10329e-11
0.0025
1.07305e-11
0.0025
1.04371e-11
0.0025
1.015e-11
0.0025
9.87202e-12
0.0025
9.60015e-12
0.0025
9.3373e-12
0.0025
9.08017e-12
0.0025
8.83183e-12
0.0025
8.58869e-12
0.0025
8.35405e-12
0.0025
8.12411e-12
0.0025
7.90233e-12
0.0025
7.68472e-12
0.0025
7.47493e-12
0.0025
7.26882e-12
0.0025
7.07018e-12
0.0025
6.87473e-12
0.0025
6.68643e-12
0.0025
6.50087e-12
0.0025
6.32216e-12
0.0025
6.14578e-12
0.0025
5.97597e-12
0.0025
5.80812e-12
0.0025
5.64656e-12
0.0025
5.48664e-12
0.0025
5.33278e-12
0.0025
5.18023e-12
0.0025
5.03353e-12
0.0025
4.88787e-12
0.0025
4.74786e-12
0.0025
4.60865e-12
0.0025
4.47492e-12
0.0025
4.34177e-12
0.0025
4.21391e-12
0.0025
4.08645e-12
0.0025
3.96414e-12
0.0025
3.84204e-12
0.0025
3.72495e-12
0.0025
3.60792e-12
0.0025
3.49576e-12
0.0025
3.38351e-12
0.0025
3.27603e-12
0.0025
3.16832e-12
0.0025
3.06531e-12
0.0025
2.96195e-12
0.0025
2.86326e-12
0.0025
2.76401e-12
0.0025
2.66964e-12
0.0025
2.57391e-12
0.0025
2.48457e-12
0.0025
2.39037e-12
0.0025
2.31129e-12
0.0025
2.20795e-12
0.0025
2.17014e-12
0.0025
1.99499e-12
0.0025
2.16592e-12
1.67173e-12
0.00250268
-8.17068e-06
0.00251078
-2.46104e-05
0.00252463
-4.20015e-05
0.00254473
-6.06708e-05
0.0025716
-8.06339e-05
0.00260553
-0.000101148
0.00264637
-0.000120795
0.00269292
-0.000136725
0.00274292
-0.000145809
0.0027926
-0.000144332
0.00283738
-0.000130031
0.00287354
-0.000105037
0.00289812
-7.14774e-05
0.00290897
-3.18636e-05
0.00290537
9.78025e-06
0.00288816
4.9025e-05
0.00285972
8.16128e-05
0.00282345
0.000104704
0.00278302
0.000117482
0.00274166
0.000120902
0.00270191
0.000116975
0.00266539
0.000108076
0.00263301
9.63886e-05
0.00260506
8.35831e-05
0.00258152
7.06801e-05
0.00256222
5.81224e-05
0.00254694
4.60392e-05
0.00253544
3.46e-05
0.00252735
2.42627e-05
0.00252207
1.57422e-05
0.00251878
9.70163e-06
0.0025166
6.36986e-06
0.00251476
5.35219e-06
0.0025128
5.76449e-06
0.00251057
6.59943e-06
0.00250818
7.09653e-06
0.00250585
6.92395e-06
0.00250379
6.13041e-06
0.00250212
4.96407e-06
0.00250087
3.69304e-06
0.00250003
2.50849e-06
0.00249954
1.51134e-06
0.0024993
7.39452e-07
0.00249925
1.94944e-07
0.00249931
-1.42374e-07
0.00249942
-3.09752e-07
0.00249954
-3.55351e-07
0.00249966
-3.286e-07
0.00249974
-2.7051e-07
0.00249981
-2.0822e-07
0.00249986
-1.55097e-07
0.0024999
-1.14625e-07
0.00249992
-8.52217e-08
0.00249994
-6.38862e-08
0.00249996
-4.80509e-08
0.00249997
-3.60416e-08
0.00249998
-2.68714e-08
0.00249998
-1.9916e-08
0.00249999
-1.47036e-08
0.00249999
-1.08372e-08
0.00249999
-7.98428e-09
0.0025
-5.88122e-09
0.0025
-4.32938e-09
0.0025
-3.18334e-09
0.0025
-2.33713e-09
0.0025
-1.71286e-09
0.0025
-1.25281e-09
0.0025
-9.14046e-10
0.0025
-6.64736e-10
0.0025
-4.81336e-10
0.0025
-3.46491e-10
0.0025
-2.4741e-10
0.0025
-1.74673e-10
0.0025
-1.21329e-10
0.0025
-8.2264e-11
0.0025
-5.37033e-11
0.0025
-3.28719e-11
0.0025
-1.77226e-11
0.0025
-6.75212e-12
0.0025
1.14952e-12
0.0025
6.79597e-12
0.0025
1.07887e-11
0.0025
1.35676e-11
0.0025
1.54585e-11
0.0025
1.6699e-11
0.0025
1.74655e-11
0.0025
1.78865e-11
0.0025
1.80575e-11
0.0025
1.80477e-11
0.0025
1.79087e-11
0.0025
1.7678e-11
0.0025
1.73832e-11
0.0025
1.70448e-11
0.0025
1.66772e-11
0.0025
1.62919e-11
0.0025
1.58959e-11
0.0025
1.54962e-11
0.0025
1.50956e-11
0.0025
1.46988e-11
0.0025
1.43061e-11
0.0025
1.39211e-11
0.0025
1.35426e-11
0.0025
1.31736e-11
0.0025
1.28123e-11
0.0025
1.24613e-11
0.0025
1.21181e-11
0.0025
1.17856e-11
0.0025
1.14607e-11
0.0025
1.11463e-11
0.0025
1.08391e-11
0.0025
1.05421e-11
0.0025
1.02516e-11
0.0025
9.97107e-12
0.0025
9.69646e-12
0.0025
9.43134e-12
0.0025
9.17153e-12
0.0025
8.92079e-12
0.0025
8.67475e-12
0.0025
8.43738e-12
0.0025
8.20412e-12
0.0025
7.97913e-12
0.0025
7.75772e-12
0.0025
7.54421e-12
0.0025
7.33379e-12
0.0025
7.13094e-12
0.0025
6.93071e-12
0.0025
6.73774e-12
0.0025
6.54699e-12
0.0025
6.36322e-12
0.0025
6.1813e-12
0.0025
6.00609e-12
0.0025
5.8324e-12
0.0025
5.6652e-12
0.0025
5.49921e-12
0.0025
5.3395e-12
0.0025
5.18075e-12
0.0025
5.02809e-12
0.0025
4.87614e-12
0.0025
4.7301e-12
0.0025
4.58455e-12
0.0025
4.44476e-12
0.0025
4.30527e-12
0.0025
4.17138e-12
0.0025
4.03762e-12
0.0025
3.90933e-12
0.0025
3.781e-12
0.0025
3.65805e-12
0.0025
3.53491e-12
0.0025
3.41716e-12
0.0025
3.29893e-12
0.0025
3.18645e-12
0.0025
3.07243e-12
0.0025
2.96627e-12
0.0025
2.85397e-12
0.0025
2.76057e-12
0.0025
2.63727e-12
0.0025
2.59092e-12
0.0025
2.38964e-12
0.0025
2.55716e-12
2.02737e-12
0.00250261
-1.07812e-05
0.00251049
-3.24924e-05
0.00252406
-5.55664e-05
0.0025439
-8.05134e-05
0.0025707
-0.000107438
0.00260498
-0.000135424
0.00264681
-0.000162623
0.00269515
-0.000185065
0.00274772
-0.000198381
0.00280035
-0.00019696
0.00284777
-0.000177456
0.00288605
-0.000143317
0.00291203
-9.74572e-05
0.00292332
-4.31546e-05
0.00291908
1.40242e-05
0.00290022
6.78826e-05
0.00286946
0.000112378
0.00283063
0.00014353
0.0027878
0.000160308
0.00274451
0.000164199
0.00270335
0.000158133
0.00266596
0.000145463
0.00263314
0.000129216
0.00260506
0.00011166
0.00258158
9.41601e-05
0.00256242
7.7283e-05
0.00254729
6.11662e-05
0.0025359
4.59924e-05
0.00252784
3.23245e-05
0.00252251
2.10728e-05
0.00251912
1.30918e-05
0.00251681
8.6765e-06
0.00251485
7.30787e-06
0.00251279
7.82459e-06
0.00251049
8.90155e-06
0.00250805
9.53606e-06
0.00250569
9.28778e-06
0.0025036
8.21694e-06
0.00250192
6.64769e-06
0.00250068
4.93359e-06
0.00249985
3.33065e-06
0.00249939
1.97867e-06
0.00249919
9.34288e-07
0.00249918
2.0407e-07
0.00249928
-2.39198e-07
0.00249942
-4.48903e-07
0.00249956
-4.94305e-07
0.00249967
-4.45497e-07
0.00249976
-3.59299e-07
0.00249983
-2.71978e-07
0.00249987
-2.00166e-07
0.0024999
-1.46993e-07
0.00249993
-1.09141e-07
0.00249995
-8.19396e-08
0.00249996
-6.17446e-08
0.00249997
-4.63506e-08
0.00249998
-3.45433e-08
0.00249998
-2.55745e-08
0.00249999
-1.88615e-08
0.00249999
-1.38936e-08
0.00249999
-1.02354e-08
0.0025
-7.5414e-09
0.0025
-5.55375e-09
0.0025
-4.08549e-09
0.0025
-3.00112e-09
0.0025
-2.20115e-09
0.0025
-1.61167e-09
0.0025
-1.17765e-09
0.0025
-8.58243e-10
0.0025
-6.23259e-10
0.0025
-4.5046e-10
0.0025
-3.23464e-10
0.0025
-2.30205e-10
0.0025
-1.61785e-10
0.0025
-1.11649e-10
0.0025
-7.49654e-11
0.0025
-4.8179e-11
0.0025
-2.86681e-11
0.0025
-1.45073e-11
0.0025
-4.27535e-12
0.0025
3.06979e-12
0.0025
8.2981e-12
0.0025
1.19729e-11
0.0025
1.45111e-11
0.0025
1.62168e-11
0.0025
1.73159e-11
0.0025
1.79723e-11
0.0025
1.83081e-11
0.0025
1.84117e-11
0.0025
1.83491e-11
0.0025
1.81679e-11
0.0025
1.79033e-11
0.0025
1.75813e-11
0.0025
1.72203e-11
0.0025
1.68346e-11
0.0025
1.64337e-11
0.0025
1.60256e-11
0.0025
1.56147e-11
0.0025
1.52059e-11
0.0025
1.48007e-11
0.0025
1.44024e-11
0.0025
1.40108e-11
0.0025
1.36286e-11
0.0025
1.32543e-11
0.0025
1.28905e-11
0.0025
1.25349e-11
0.0025
1.21903e-11
0.0025
1.18536e-11
0.0025
1.15278e-11
0.0025
1.12095e-11
0.0025
1.09018e-11
0.0025
1.0601e-11
0.0025
1.03105e-11
0.0025
1.00262e-11
0.0025
9.75164e-12
0.0025
9.48274e-12
0.0025
9.22317e-12
0.0025
8.9686e-12
0.0025
8.72291e-12
0.0025
8.48162e-12
0.0025
8.24879e-12
0.0025
8.01979e-12
0.0025
7.79891e-12
0.0025
7.5813e-12
0.0025
7.37145e-12
0.0025
7.16443e-12
0.0025
6.96484e-12
0.0025
6.76762e-12
0.0025
6.57757e-12
0.0025
6.3895e-12
0.0025
6.20833e-12
0.0025
6.02878e-12
0.0025
5.8559e-12
0.0025
5.68433e-12
0.0025
5.51922e-12
0.0025
5.35514e-12
0.0025
5.19733e-12
0.0025
5.04029e-12
0.0025
4.88934e-12
0.0025
4.73894e-12
0.0025
4.59446e-12
0.0025
4.45033e-12
0.0025
4.31198e-12
0.0025
4.17378e-12
0.0025
4.04124e-12
0.0025
3.90869e-12
0.0025
3.7817e-12
0.0025
3.65453e-12
0.0025
3.53297e-12
0.0025
3.4109e-12
0.0025
3.29492e-12
0.0025
3.17722e-12
0.0025
3.06805e-12
0.0025
2.95205e-12
0.0025
2.85639e-12
0.0025
2.72943e-12
0.0025
2.67888e-12
0.0025
2.48179e-12
0.0025
2.61128e-12
2.13313e-12
0.0025025
-1.32845e-05
0.00251008
-4.00672e-05
0.00252321
-6.87023e-05
0.00254265
-9.99482e-05
0.00256929
-0.000134076
0.00260394
-0.000170079
0.00264705
-0.000205731
0.00269779
-0.000235809
0.00275395
-0.000254536
0.00281068
-0.000253689
0.00286175
-0.000228529
0.00290294
-0.00018451
0.00293086
-0.00012537
0.00294275
-5.50462e-05
0.0029376
1.91716e-05
0.00291644
8.90441e-05
0.00288243
0.000146384
0.00284007
0.000185894
0.00279399
0.00020639
0.00274807
0.000210115
0.00270506
0.000201143
0.00266654
0.000183983
0.00263316
0.000162594
0.00260495
0.000139877
0.00258158
0.000117531
0.00256263
9.62243e-05
0.00254773
7.60729e-05
0.00253648
5.72368e-05
0.00252846
4.03461e-05
0.00252307
2.64696e-05
0.00251953
1.66257e-05
0.00251705
1.11623e-05
0.00251491
9.43885e-06
0.00251271
1.00304e-05
0.0025103
1.1311e-05
0.00250779
1.20483e-05
0.00250538
1.16983e-05
0.00250326
1.03304e-05
0.00250157
8.33946e-06
0.00250034
6.16114e-06
0.00249956
4.1171e-06
0.00249915
2.39059e-06
0.00249902
1.06237e-06
0.00249908
1.46365e-07
0.00249923
-3.92711e-07
0.00249941
-6.28581e-07
0.00249957
-6.56765e-07
0.0024997
-5.72027e-07
0.00249979
-4.48776e-07
0.00249985
-3.3214e-07
0.00249989
-2.40603e-07
0.00249992
-1.75334e-07
0.00249994
-1.30099e-07
0.00249995
-9.79541e-08
0.00249996
-7.40196e-08
0.00249997
-5.56177e-08
0.00249998
-4.14122e-08
0.00249999
-3.06056e-08
0.00249999
-2.2536e-08
0.00249999
-1.6586e-08
0.00249999
-1.22173e-08
0.0025
-9.00416e-09
0.0025
-6.63344e-09
0.0025
-4.88137e-09
0.0025
-3.58701e-09
0.0025
-2.63216e-09
0.0025
-1.92871e-09
0.0025
-1.4109e-09
0.0025
-1.02986e-09
0.0025
-7.49522e-10
0.0025
-5.43352e-10
0.0025
-3.91808e-10
0.0025
-2.805e-10
0.0025
-1.98817e-10
0.0025
-1.38938e-10
0.0025
-9.51003e-11
0.0025
-6.30632e-11
0.0025
-3.97009e-11
0.0025
-2.27161e-11
0.0025
-1.0415e-11
0.0025
-1.5544e-12
0.0025
4.78316e-12
0.0025
9.26982e-12
0.0025
1.24019e-11
0.0025
1.45425e-11
0.0025
1.59599e-11
0.0025
1.68499e-11
0.0025
1.73573e-11
0.0025
1.75877e-11
0.0025
1.76191e-11
0.0025
1.75083e-11
0.0025
1.72969e-11
0.0025
1.70159e-11
0.0025
1.66869e-11
0.0025
1.63269e-11
0.0025
1.5947e-11
0.0025
1.55568e-11
0.0025
1.51613e-11
0.0025
1.47663e-11
0.0025
1.43736e-11
0.0025
1.3987e-11
0.0025
1.36063e-11
0.0025
1.32346e-11
0.0025
1.28704e-11
0.0025
1.25164e-11
0.0025
1.21703e-11
0.0025
1.18349e-11
0.0025
1.15072e-11
0.0025
1.11903e-11
0.0025
1.08806e-11
0.0025
1.05814e-11
0.0025
1.02889e-11
0.0025
1.00064e-11
0.0025
9.73006e-12
0.0025
9.46327e-12
0.0025
9.20197e-12
0.0025
8.9498e-12
0.0025
8.70248e-12
0.0025
8.46386e-12
0.0025
8.22951e-12
0.0025
8.00343e-12
0.0025
7.78107e-12
0.0025
7.56662e-12
0.0025
7.35538e-12
0.0025
7.15168e-12
0.0025
6.95073e-12
0.0025
6.75701e-12
0.0025
6.56563e-12
0.0025
6.38118e-12
0.0025
6.19868e-12
0.0025
6.02287e-12
0.0025
5.84868e-12
0.0025
5.68092e-12
0.0025
5.51449e-12
0.0025
5.35428e-12
0.0025
5.19514e-12
0.0025
5.04202e-12
0.0025
4.88972e-12
0.0025
4.74327e-12
0.0025
4.59743e-12
0.0025
4.45727e-12
0.0025
4.31754e-12
0.0025
4.18334e-12
0.0025
4.04939e-12
0.0025
3.92085e-12
0.0025
3.7924e-12
0.0025
3.66929e-12
0.0025
3.5461e-12
0.0025
3.42832e-12
0.0025
3.31011e-12
0.0025
3.19786e-12
0.0025
3.08393e-12
0.0025
2.97851e-12
0.0025
2.86622e-12
0.0025
2.7739e-12
0.0025
2.6519e-12
0.0025
2.59899e-12
0.0025
2.41996e-12
0.0025
2.50394e-12
2.10562e-12
0.00250236
-1.56412e-05
0.00250951
-4.72196e-05
0.00252204
-8.12319e-05
0.00254086
-0.000118769
0.00256716
-0.000160373
0.00260215
-0.000205072
0.00264677
-0.000250353
0.00270056
-0.000289597
0.00276144
-0.000315421
0.00282361
-0.000315857
0.00287944
-0.000284355
0.00292442
-0.000229491
0.00295489
-0.000155844
0.00296762
-6.77759e-05
0.00296131
2.54836e-05
0.00293709
0.000113268
0.00289876
0.000184713
0.00285171
0.000232942
0.00280137
0.000256727
0.0027521
0.000259386
0.00270677
0.000246468
0.00266689
0.000223865
0.0026329
0.000196586
0.00260459
0.000168192
0.00258142
0.000140697
0.00256281
0.000114839
0.00254821
9.06654e-05
0.00253718
6.82698e-05
0.00252922
4.83017e-05
0.00252375
3.19432e-05
0.00252004
2.0341e-05
0.00251732
1.38787e-05
0.00251496
1.17971e-05
0.00251257
1.24256e-05
0.00251002
1.38595e-05
0.00250741
1.46541e-05
0.00250494
1.4168e-05
0.0025028
1.24768e-05
0.0025011
1.00392e-05
0.00249989
7.36801e-06
0.00249915
4.85208e-06
0.00249882
2.72463e-06
0.00249878
1.09799e-06
0.00249893
-2.67073e-09
0.00249916
-6.22464e-07
0.0024994
-8.6157e-07
0.00249959
-8.49059e-07
0.00249973
-7.09802e-07
0.00249982
-5.37993e-07
0.00249987
-3.86957e-07
0.0024999
-2.74866e-07
0.00249993
-1.98649e-07
0.00249995
-1.47574e-07
0.00249996
-1.1169e-07
0.00249997
-8.47512e-08
0.00249998
-6.3746e-08
0.00249998
-4.73856e-08
0.00249999
-3.49252e-08
0.00249999
-2.56584e-08
0.00249999
-1.88632e-08
0.0025
-1.38936e-08
0.0025
-1.02436e-08
0.0025
-7.54943e-09
0.0025
-5.55663e-09
0.0025
-4.08378e-09
0.0025
-2.99739e-09
0.0025
-2.19736e-09
0.0025
-1.60866e-09
0.0025
-1.17552e-09
0.0025
-8.56856e-10
0.0025
-6.22482e-10
0.0025
-4.50193e-10
0.0025
-3.23636e-10
0.0025
-2.30747e-10
0.0025
-1.62639e-10
0.0025
-1.12759e-10
0.0025
-7.6286e-11
0.0025
-4.96684e-11
0.0025
-3.02952e-11
0.0025
-1.62419e-11
0.0025
-6.09556e-12
0.0025
1.18582e-12
0.0025
6.36597e-12
0.0025
1.00085e-11
0.0025
1.25258e-11
0.0025
1.42222e-11
0.0025
1.53202e-11
0.0025
1.59838e-11
0.0025
1.63327e-11
0.0025
1.64553e-11
0.0025
1.6416e-11
0.0025
1.62618e-11
0.0025
1.60274e-11
0.0025
1.57377e-11
0.0025
1.54115e-11
0.0025
1.50615e-11
0.0025
1.46982e-11
0.0025
1.43276e-11
0.0025
1.39558e-11
0.0025
1.35851e-11
0.0025
1.32196e-11
0.0025
1.28593e-11
0.0025
1.25072e-11
0.0025
1.21621e-11
0.0025
1.18265e-11
0.0025
1.14986e-11
0.0025
1.11808e-11
0.0025
1.08704e-11
0.0025
1.05702e-11
0.0025
1.0277e-11
0.0025
9.99366e-12
0.0025
9.71686e-12
0.0025
9.44953e-12
0.0025
9.18812e-12
0.0025
8.93575e-12
0.0025
8.68868e-12
0.0025
8.45023e-12
0.0025
8.21646e-12
0.0025
7.9909e-12
0.0025
7.76945e-12
0.0025
7.55581e-12
0.0025
7.34575e-12
0.0025
7.14313e-12
0.0025
6.94361e-12
0.0025
6.75118e-12
0.0025
6.56143e-12
0.0025
6.37846e-12
0.0025
6.19776e-12
0.0025
6.02357e-12
0.0025
5.85127e-12
0.0025
5.68525e-12
0.0025
5.52082e-12
0.0025
5.36244e-12
0.0025
5.20535e-12
0.0025
5.0541e-12
0.0025
4.90389e-12
0.0025
4.75935e-12
0.0025
4.61562e-12
0.0025
4.4774e-12
0.0025
4.33978e-12
0.0025
4.20751e-12
0.0025
4.07567e-12
0.0025
3.94905e-12
0.0025
3.8227e-12
0.0025
3.70144e-12
0.0025
3.58031e-12
0.0025
3.46422e-12
0.0025
3.34809e-12
0.0025
3.23709e-12
0.0025
3.12572e-12
0.0025
3.02006e-12
0.0025
2.91276e-12
0.0025
2.81368e-12
0.0025
2.70806e-12
0.0025
2.62107e-12
0.0025
2.50753e-12
0.0025
2.45321e-12
0.0025
2.29587e-12
0.0025
2.34103e-12
2.01886e-12
0.00250216
-1.78037e-05
0.00250875
-5.38094e-05
0.00252045
-9.29317e-05
0.00253838
-0.000136698
0.00256406
-0.000186051
0.00259924
-0.000240249
0.00264552
-0.000296638
0.00270301
-0.000347085
0.00276997
-0.000382381
0.00283915
-0.000385041
0.00290096
-0.000346156
0.00295068
-0.000279213
0.0029844
-0.000189563
0.0029982
-8.15768e-05
0.00299039
3.32929e-05
0.00296221
0.000141442
0.00291834
0.000228587
0.00286535
0.000285928
0.00280972
0.000312364
0.00275636
0.000312746
0.0027083
0.00029453
0.00266687
0.000265286
0.00263226
0.000231202
0.00260393
0.00019652
0.00258109
0.000163536
0.00256293
0.000132999
0.00254876
0.000104837
0.00253801
7.90209e-05
0.00253015
5.61642e-05
0.00252458
3.75068e-05
0.00252064
2.42804e-05
0.00251764
1.68824e-05
0.002515
1.44386e-05
0.00251237
1.50553e-05
0.00250965
1.65784e-05
0.00250693
1.73731e-05
0.00250439
1.6709e-05
0.0025022
1.46631e-05
0.00250049
1.1748e-05
0.00249931
8.54767e-06
0.00249865
5.51993e-06
0.00249841
2.95715e-06
0.0024985
1.01359e-06
0.00249877
-2.69143e-07
0.00249909
-9.48608e-07
0.00249939
-1.16003e-06
0.00249962
-1.07597e-06
0.00249977
-8.58555e-07
0.00249985
-6.2433e-07
0.0024999
-4.33509e-07
0.00249992
-3.00777e-07
0.00249994
-2.15702e-07
0.00249995
-1.6102e-07
0.00249997
-1.2295e-07
0.00249998
-9.38508e-08
0.00249998
-7.06517e-08
0.00249999
-5.23676e-08
0.00249999
-3.84405e-08
0.00249999
-2.81537e-08
0.00249999
-2.06713e-08
0.0025
-1.52273e-08
0.0025
-1.12341e-08
0.0025
-8.28323e-09
0.0025
-6.09734e-09
0.0025
-4.48079e-09
0.0025
-3.28875e-09
0.0025
-2.4115e-09
0.0025
-1.76631e-09
0.0025
-1.29172e-09
0.0025
-9.42557e-10
0.0025
-6.85737e-10
0.0025
-4.96942e-10
0.0025
-3.58258e-10
0.0025
-2.56467e-10
0.0025
-1.81824e-10
0.0025
-1.27148e-10
0.0025
-8.7156e-11
0.0025
-5.79568e-11
0.0025
-3.66896e-11
0.0025
-2.1247e-11
0.0025
-1.00807e-11
0.0025
-2.04997e-12
0.0025
3.68196e-12
0.0025
7.73179e-12
0.0025
1.05511e-11
0.0025
1.24728e-11
0.0025
1.37403e-11
0.0025
1.45329e-11
0.0025
1.49816e-11
0.0025
1.51826e-11
0.0025
1.52063e-11
0.0025
1.5104e-11
0.0025
1.49136e-11
0.0025
1.46621e-11
0.0025
1.43699e-11
0.0025
1.40507e-11
0.0025
1.37161e-11
0.0025
1.33724e-11
0.0025
1.30263e-11
0.0025
1.26802e-11
0.0025
1.23385e-11
0.0025
1.20012e-11
0.0025
1.16715e-11
0.0025
1.13483e-11
0.0025
1.10341e-11
0.0025
1.0727e-11
0.0025
1.04294e-11
0.0025
1.01389e-11
0.0025
9.858e-12
0.0025
9.58379e-12
0.0025
9.31885e-12
0.0025
9.06012e-12
0.0025
8.81029e-12
0.0025
8.56608e-12
0.0025
8.33035e-12
0.0025
8.09966e-12
0.0025
7.87702e-12
0.0025
7.65884e-12
0.0025
7.44831e-12
0.0025
7.24171e-12
0.0025
7.04237e-12
0.0025
6.84645e-12
0.0025
6.65743e-12
0.0025
6.47139e-12
0.0025
6.29192e-12
0.0025
6.11501e-12
0.0025
5.94439e-12
0.0025
5.77595e-12
0.0025
5.61353e-12
0.0025
5.45296e-12
0.0025
5.29818e-12
0.0025
5.14496e-12
0.0025
4.9973e-12
0.0025
4.85094e-12
0.0025
4.70994e-12
0.0025
4.57e-12
0.0025
4.43527e-12
0.0025
4.3014e-12
0.0025
4.17256e-12
0.0025
4.04439e-12
0.0025
3.92113e-12
0.0025
3.79837e-12
0.0025
3.68039e-12
0.0025
3.56276e-12
0.0025
3.44981e-12
0.0025
3.33708e-12
0.0025
3.22898e-12
0.0025
3.12095e-12
0.0025
3.01766e-12
0.0025
2.91412e-12
0.0025
2.81591e-12
0.0025
2.71625e-12
0.0025
2.62421e-12
0.0025
2.52629e-12
0.0025
2.44507e-12
0.0025
2.34115e-12
0.0025
2.28623e-12
0.0025
2.1498e-12
0.0025
2.16629e-12
1.90678e-12
0.00250191
-1.97158e-05
0.00250777
-5.96686e-05
0.00251836
-0.000103523
0.00253503
-0.000153365
0.00255968
-0.0002107
0.00259474
-0.000275305
0.0026427
-0.000344604
0.00270456
-0.000408939
0.00277922
-0.000457048
0.00285733
-0.000463146
0.00292647
-0.000415296
0.00298201
-0.000334756
0.00301985
-0.000227404
0.00303512
-9.6845e-05
0.00302548
4.29345e-05
0.00299225
0.000174674
0.00294126
0.000279569
0.00288076
0.000346428
0.00281857
0.000374556
0.00276032
0.000371003
0.00270912
0.000345727
0.00266606
0.000308344
0.0026309
0.000266358
0.00260274
0.000224689
0.00258042
0.00018585
0.0025629
0.000150521
0.00254929
0.000118441
0.00253892
8.9393e-05
0.0025312
6.38882e-05
0.00252554
4.31619e-05
0.00252134
2.84796e-05
0.002518
2.0226e-05
0.00251502
1.74161e-05
0.00251212
1.79619e-05
0.0025092
1.94968e-05
0.00250635
2.0224e-05
0.00250372
1.93338e-05
0.00250149
1.6898e-05
0.00249977
1.34695e-05
0.00249862
9.69482e-06
0.00249804
6.10411e-06
0.00249793
3.06163e-06
0.00249817
7.77814e-07
0.00249858
-6.82279e-07
0.00249902
-1.39261e-06
0.0024994
-1.53538e-06
0.00249966
-1.34009e-06
0.00249982
-1.01535e-06
0.0024999
-7.02847e-07
0.00249993
-4.67322e-07
0.00249995
-3.15378e-07
0.00249996
-2.25013e-07
0.00249996
-1.69911e-07
0.00249997
-1.31624e-07
0.00249998
-1.01293e-07
0.00249999
-7.62727e-08
0.00249999
-5.62592e-08
0.00249999
-4.10501e-08
0.00249999
-2.99419e-08
0.0025
-2.19561e-08
0.0025
-1.61843e-08
0.0025
-1.19532e-08
0.0025
-8.8188e-09
0.0025
-6.4913e-09
0.0025
-4.76868e-09
0.0025
-3.49919e-09
0.0025
-2.56591e-09
0.0025
-1.88002e-09
0.0025
-1.37561e-09
0.0025
-1.0045e-09
0.0025
-7.31509e-10
0.0025
-5.30829e-10
0.0025
-3.83426e-10
0.0025
-2.75243e-10
0.0025
-1.95916e-10
0.0025
-1.37806e-10
0.0025
-9.52968e-11
0.0025
-6.42531e-11
0.0025
-4.16343e-11
0.0025
-2.52009e-11
0.0025
-1.33075e-11
0.0025
-4.74228e-12
0.0025
1.38365e-12
0.0025
5.72518e-12
0.0025
8.76187e-12
0.0025
1.08471e-11
0.0025
1.2239e-11
0.0025
1.31279e-11
0.0025
1.36525e-11
0.0025
1.39149e-11
0.0025
1.39894e-11
0.0025
1.39305e-11
0.0025
1.37779e-11
0.0025
1.35604e-11
0.0025
1.32994e-11
0.0025
1.30095e-11
0.0025
1.27024e-11
0.0025
1.23852e-11
0.0025
1.20646e-11
0.0025
1.17434e-11
0.0025
1.14257e-11
0.0025
1.11121e-11
0.0025
1.08053e-11
0.0025
1.05047e-11
0.0025
1.02124e-11
0.0025
9.92691e-12
0.0025
9.65029e-12
0.0025
9.38051e-12
0.0025
9.11956e-12
0.0025
8.86508e-12
0.0025
8.61918e-12
0.0025
8.37925e-12
0.0025
8.14754e-12
0.0025
7.92123e-12
0.0025
7.70274e-12
0.0025
7.48909e-12
0.0025
7.28283e-12
0.0025
7.08088e-12
0.0025
6.88593e-12
0.0025
6.69476e-12
0.0025
6.51023e-12
0.0025
6.32901e-12
0.0025
6.15408e-12
0.0025
5.98204e-12
0.0025
5.81598e-12
0.0025
5.65243e-12
0.0025
5.49459e-12
0.0025
5.33889e-12
0.0025
5.18865e-12
0.0025
5.04025e-12
0.0025
4.8971e-12
0.0025
4.75551e-12
0.0025
4.61896e-12
0.0025
4.48372e-12
0.0025
4.35334e-12
0.0025
4.22406e-12
0.0025
4.09948e-12
0.0025
3.97581e-12
0.0025
3.8567e-12
0.0025
3.73832e-12
0.0025
3.62438e-12
0.0025
3.51102e-12
0.0025
3.40199e-12
0.0025
3.29339e-12
0.0025
3.18903e-12
0.0025
3.08499e-12
0.0025
2.98516e-12
0.0025
2.88551e-12
0.0025
2.79019e-12
0.0025
2.69475e-12
0.0025
2.6042e-12
0.0025
2.51245e-12
0.0025
2.42762e-12
0.0025
2.3377e-12
0.0025
2.26236e-12
0.0025
2.16821e-12
0.0025
2.11372e-12
0.0025
1.99605e-12
0.0025
1.99314e-12
1.78284e-12
0.0025016
-2.13113e-05
0.00250653
-6.45989e-05
0.00251567
-0.000112667
0.0025306
-0.000168293
0.00255364
-0.000233743
0.00258806
-0.000309723
0.00263752
-0.000394062
0.00270439
-0.000475811
0.00278879
-0.000541454
0.00287817
-0.000552519
0.00295614
-0.00049327
0.00301864
-0.000397253
0.00306154
-0.000270304
0.00307868
-0.00011399
0.00306681
5.48032e-05
0.00302726
0.000214228
0.0029674
0.000339427
0.00289765
0.000416184
0.00282757
0.000444634
0.00276361
0.000434958
0.00270894
0.000400399
0.00266423
0.000353058
0.00262869
0.000301896
0.00260091
0.000252469
0.00257936
0.0002074
0.00256268
0.000167196
0.00254981
0.000131315
0.00253992
9.92789e-05
0.00253239
7.14253e-05
0.00252664
4.89125e-05
0.00252214
3.29799e-05
0.00251839
2.39682e-05
0.00251502
2.07872e-05
0.0025118
2.119e-05
0.00250865
2.26437e-05
0.00250565
2.32244e-05
0.00250293
2.20546e-05
0.00250063
1.91907e-05
0.0024989
1.52077e-05
0.00249779
1.08034e-05
0.00249731
6.58476e-06
0.00249736
3.00587e-06
0.00249779
3.52848e-07
0.00249838
-1.27657e-06
0.00249897
-1.97858e-06
0.00249943
-1.99889e-06
0.00249973
-1.64193e-06
0.00249989
-1.17451e-06
0.00249996
-7.66269e-07
0.00249997
-4.82505e-07
0.00249997
-3.15176e-07
0.00249997
-2.25135e-07
0.00249998
-1.73973e-07
0.00249998
-1.37844e-07
0.00249999
-1.07202e-07
0.00249999
-8.06093e-08
0.00249999
-5.89779e-08
0.0025
-4.26562e-08
0.0025
-3.09479e-08
0.0025
-2.26721e-08
0.0025
-1.67394e-08
0.0025
-1.23863e-08
0.0025
-9.14551e-09
0.0025
-6.72991e-09
0.0025
-4.9405e-09
0.0025
-3.62338e-09
0.0025
-2.6567e-09
0.0025
-1.94698e-09
0.0025
-1.42516e-09
0.0025
-1.04118e-09
0.0025
-7.58678e-10
0.0025
-5.51015e-10
0.0025
-3.98509e-10
0.0025
-2.86603e-10
0.0025
-2.04556e-10
0.0025
-1.44459e-10
0.0025
-1.00497e-10
0.0025
-6.83921e-11
0.0025
-4.49978e-11
0.0025
-2.79973e-11
0.0025
-1.56884e-11
0.0025
-6.81782e-12
0.0025
-4.66065e-13
0.0025
4.04365e-12
0.0025
7.20718e-12
0.0025
9.38941e-12
0.0025
1.08572e-11
0.0025
1.18067e-11
0.0025
1.23813e-11
0.0025
1.2686e-11
0.0025
1.27976e-11
0.0025
1.27719e-11
0.0025
1.26501e-11
0.0025
1.24614e-11
0.0025
1.22279e-11
0.0025
1.19645e-11
0.0025
1.16832e-11
0.0025
1.13913e-11
0.0025
1.10953e-11
0.0025
1.07984e-11
0.0025
1.05045e-11
0.0025
1.02143e-11
0.0025
9.93048e-12
0.0025
9.65246e-12
0.0025
9.38224e-12
0.0025
9.11852e-12
0.0025
8.86305e-12
0.0025
8.61408e-12
0.0025
8.37335e-12
0.0025
8.13878e-12
0.0025
7.91216e-12
0.0025
7.69122e-12
0.0025
7.47786e-12
0.0025
7.26964e-12
0.0025
7.0686e-12
0.0025
6.87217e-12
0.0025
6.6825e-12
0.0025
6.49694e-12
0.0025
6.31775e-12
0.0025
6.14218e-12
0.0025
5.97264e-12
0.0025
5.80628e-12
0.0025
5.6456e-12
0.0025
5.48771e-12
0.0025
5.33523e-12
0.0025
5.18517e-12
0.0025
5.04024e-12
0.0025
4.89742e-12
0.0025
4.7595e-12
0.0025
4.6234e-12
0.0025
4.492e-12
0.0025
4.36216e-12
0.0025
4.23683e-12
0.0025
4.11283e-12
0.0025
3.99318e-12
0.0025
3.87466e-12
0.0025
3.76034e-12
0.0025
3.64698e-12
0.0025