/*--------------------------------*- C++ -*----------------------------------*\
  =========                 |
  \\      /  F ield         | OpenFOAM: The Open Source CFD Toolbox
   \\    /   O peration     | Website:  https://openfoam.org
    \\  /    A nd           | Version:  11
     \\/     M anipulation  |
\*---------------------------------------------------------------------------*/
FoamFile
{
    format      ascii;
    class       volVectorField;
    location    "12.020276";
    object      U_0;
}
// * * * * * * * * * * * * * * * * * * * * * * * * * * * * * * * * * * * * * //

dimensions      [0 1 -1 0 0 0 0];

internalField   nonuniform List<vector> 
7132
(
(1.00011 -0.000218474 3.41654e-18)
(1.00169 -0.000655444 1.14878e-17)
(1.00526 -0.00112383 1.16646e-17)
(1.01071 -0.00163996 1.45833e-17)
(1.01835 -0.00220975 1.91723e-17)
(1.02838 -0.00281164 1.91138e-17)
(1.04086 -0.00340028 1.72367e-17)
(1.05562 -0.00388746 1.51364e-17)
(1.07205 -0.00417606 1.31323e-17)
(1.08916 -0.00416397 1.14255e-17)
(1.10551 -0.0037868 1.01613e-17)
(1.11965 -0.00310216 9.49349e-18)
(1.13047 -0.00215981 9.09987e-18)
(1.13707 -0.00101029 9.21739e-18)
(1.1387 0.000294184 5.30102e-18)
(1.13485 0.00167637 1.98395e-18)
(1.12543 0.00296769 -1.15591e-18)
(1.11122 0.00394039 -8.97415e-19)
(1.09394 0.00439926 -3.32615e-18)
(1.07598 0.00423818 -4.32073e-18)
(1.05993 0.00345055 -3.83328e-18)
(1.04826 0.00212779 -3.6529e-18)
(1.04283 0.000456303 -3.14324e-18)
(1.04463 -0.0012791 -4.78683e-18)
(1.05325 -0.00269159 -2.70231e-17)
(1.06652 -0.00335997 -6.10129e-17)
(1.0806 -0.00300181 -6.55273e-17)
(1.09103 -0.00166494 -3.90088e-17)
(1.09432 0.000253216 -1.17275e-17)
(1.0892 0.00220438 -6.42519e-18)
(1.07667 0.00373425 -1.69671e-17)
(1.05914 0.00459321 2.97431e-17)
(1.03962 0.00470309 1.58491e-16)
(1.02115 0.00407607 -1.51339e-16)
(1.00661 0.00275829 -1.83928e-15)
(0.998683 0.000831771 -2.86017e-15)
(0.999628 -0.00152823 1.422e-14)
(1.01076 -0.00395841 9.3097e-14)
(1.03143 -0.00587086 2.48295e-13)
(1.05816 -0.00660533 3.84031e-13)
(1.08492 -0.00576019 3.71022e-13)
(1.10492 -0.00347856 2.26551e-13)
(1.11327 -0.000428742 8.61338e-14)
(1.1086 0.00253202 1.58844e-14)
(1.09296 0.00474644 -1.0166e-14)
(1.07034 0.00593371 -1.45134e-14)
(1.04508 0.00610805 5.92792e-15)
(1.02103 0.0053986 4.93096e-14)
(1.00142 0.00391508 4.45902e-14)
(0.989217 0.00172393 -1.55689e-13)
(0.987185 -0.00106534 -7.29763e-13)
(0.99747 -0.00414643 -1.7429e-12)
(1.02042 -0.00691414 -2.90406e-12)
(1.05324 -0.00856126 -3.76079e-12)
(1.08968 -0.00840564 -3.91373e-12)
(1.12136 -0.00627562 -3.11281e-12)
(1.14063 -0.00268579 -1.89828e-12)
(1.1433 0.00135723 -1.39007e-12)
(1.12984 0.00480942 -1.18244e-12)
(1.10454 0.00701485 -6.50789e-13)
(1.07324 0.00783399 -1.51822e-13)
(1.04134 0.00747595 -3.66952e-13)
(1.01292 0.00623056 -8.8674e-13)
(0.990995 0.00428466 1.43172e-12)
(0.978115 0.0017066 1.29867e-11)
(0.976777 -0.00141574 4.12623e-11)
(0.988924 -0.00477932 9.03806e-11)
(1.01467 -0.00777745 1.56274e-10)
(1.0511 -0.0096296 2.24981e-10)
(1.09202 -0.00968769 2.76747e-10)
(1.12924 -0.00773954 2.94572e-10)
(1.1548 -0.00414416 2.72214e-10)
(1.16328 0.000258198 2.16616e-10)
(1.15341 0.00441543 1.43966e-10)
(1.12826 0.00742485 7.38248e-11)
(1.09392 0.00883014 2.20505e-11)
(1.05725 0.00869126 -4.91822e-12)
(1.02388 0.00738566 -8.12869e-12)
(0.997594 0.00528128 1.1097e-11)
(0.981027 0.00254388 5.4586e-11)
(0.976664 -0.000757797 1.23558e-10)
(0.986685 -0.00436778 2.13373e-10)
(1.01156 -0.00769238 3.12856e-10)
(1.04859 -0.00995283 4.08612e-10)
(1.09183 -0.0105333 4.89863e-10)
(1.13353 -0.00926895 5.50071e-10)
(1.16644 -0.00650327 5.85226e-10)
(1.18569 -0.00292286 5.91262e-10)
(1.1897 0.000696972 5.62774e-10)
(1.17987 0.00369554 4.93876e-10)
(1.15988 0.00561503 3.85244e-10)
(1.13474 0.00619943 2.52809e-10)
(1.11011 0.00539391 1.26502e-10)
(1.09142 0.00334864 3.64082e-11)
(1.08316 0.000388515 -2.52041e-12)
(1.08823 -0.00303152 5.90788e-12)
(1.10757 -0.00636041 4.70836e-11)
(1.13966 -0.00899703 1.05284e-10)
(1.18048 -0.010395 1.68669e-10)
(1.224 -0.0102091 2.29922e-10)
(1.26334 -0.0084075 2.85198e-10)
(1.29221 -0.00529603 3.33025e-10)
(1.30626 -0.00145063 3.73691e-10)
(1.30392 0.00241359 4.0889e-10)
(1.28663 0.00561312 4.40893e-10)
(1.25835 0.00767237 4.71963e-10)
(1.22437 0.00843268 5.01401e-10)
(1.18994 0.00805851 5.20704e-10)
(1.15901 0.00692221 5.13001e-10)
(1.13382 0.00540807 4.62091e-10)
(1.1152 0.00374875 3.66128e-10)
(1.10348 0.00200352 2.43362e-10)
(1.099 0.000173984 1.23729e-10)
(1.10206 -0.00165711 3.33465e-11)
(1.11234 -0.00327522 -1.60238e-11)
(1.12841 -0.0043861 -2.7418e-11)
(1.14759 -0.00471785 -1.26531e-11)
(1.16631 -0.00411586 1.4259e-11)
(1.18069 -0.00260476 4.12729e-11)
(1.18736 -0.000411784 6.0059e-11)
(1.18422 0.00205876 6.64292e-11)
(1.17111 0.0043137 6.02925e-11)
(1.14986 0.00591276 4.51899e-11)
(1.12385 0.00660704 2.6929e-11)
(1.09694 0.00640322 1.11971e-11)
(1.07249 0.0055208 1.24186e-12)
(1.05263 0.00427531 -2.86872e-12)
(1.03816 0.00295825 -3.13863e-12)
(1.02888 0.0017686 -1.88707e-12)
(1.02398 0.000804745 -6.27411e-13)
(1.02245 9.20701e-05 9.42628e-14)
(1.02329 -0.000382934 3.27113e-13)
(1.02559 -0.000648347 3.05422e-13)
(1.02856 -0.000734998 2.20221e-13)
(1.03155 -0.000674074 1.61726e-13)
(1.03402 -0.000499126 1.45479e-13)
(1.0356 -0.000248032 1.54101e-13)
(1.03605 3.77723e-05 1.65983e-13)
(1.03532 0.000317212 1.67706e-13)
(1.03352 0.000555136 1.55678e-13)
(1.03087 0.000727054 1.3294e-13)
(1.02767 0.000821372 1.0525e-13)
(1.02426 0.000838809 7.81947e-14)
(1.02093 0.000789743 5.57127e-14)
(1.01791 0.000690639 3.97666e-14)
(1.01537 0.000560514 3.07008e-14)
(1.0134 0.000418021 2.78383e-14)
(1.01201 0.000279284 3.00305e-14)
(1.01116 0.000156654 3.60179e-14)
(1.01076 5.80254e-05 4.46115e-14)
(1.01071 -1.27876e-05 5.47452e-14)
(1.01087 -5.58505e-05 6.54777e-14)
(1.01117 -7.34636e-05 7.59838e-14)
(1.01146 -7.0406e-05 8.5547e-14)
(1.01175 -5.11466e-05 9.35822e-14)
(1.01186 -2.20127e-05 9.96635e-14)
(1.01197 1.29583e-05 1.03593e-13)
(1.0117 4.90634e-05 1.05263e-13)
(1.01169 7.89363e-05 1.05469e-13)
(1.01088 0.000120566 1.02124e-13)
(1.00011 -0.000653297 4.79408e-20)
(1.00167 -0.00196075 5.57328e-19)
(1.00521 -0.00336365 1.08682e-18)
(1.01063 -0.00491321 1.63185e-18)
(1.01825 -0.0066285 2.27947e-18)
(1.0283 -0.00844609 2.86356e-18)
(1.04086 -0.0102306 3.13195e-18)
(1.05579 -0.0117139 3.85502e-18)
(1.07248 -0.0126005 3.14987e-18)
(1.08993 -0.0125738 2.91882e-18)
(1.10661 -0.011436 3.69772e-18)
(1.12102 -0.00937402 6.04989e-18)
(1.13207 -0.0065424 4.80201e-18)
(1.13884 -0.00309601 4.2567e-18)
(1.14058 0.000811736 4.83097e-18)
(1.13673 0.00496255 5.80036e-18)
(1.12712 0.00885647 6.43452e-18)
(1.1125 0.0118057 6.83742e-18)
(1.09467 0.0132159 7.06088e-18)
(1.07609 0.0127592 6.81974e-18)
(1.05945 0.0104057 4.75945e-18)
(1.04731 0.00642022 2.76344e-18)
(1.04164 0.00135611 1.36552e-17)
(1.04353 -0.00392961 -4.70247e-17)
(1.05265 -0.00825864 -5.66062e-16)
(1.06679 -0.0103306 -1.37499e-15)
(1.08188 -0.00926117 -1.41472e-15)
(1.09311 -0.00518625 -7.03127e-16)
(1.09676 0.000673638 -1.60974e-16)
(1.09152 0.00663308 -5.97334e-19)
(1.0785 0.0113023 8.49347e-17)
(1.0603 0.0139291 2.38572e-16)
(1.04005 0.0142885 -8.06576e-16)
(1.02085 0.0124254 -3.00255e-15)
(1.00562 0.00847522 1.02554e-14)
(0.997099 0.00266631 5.91334e-14)
(0.997721 -0.00449951 -1.24129e-14)
(1.00902 -0.0119359 -8.13961e-13)
(1.03052 -0.0178399 -2.7377e-12)
(1.05863 -0.0201593 -4.53811e-12)
(1.08691 -0.017632 -4.49684e-12)
(1.10805 -0.0106875 -2.90344e-12)
(1.11681 -0.0013836 -1.25318e-12)
(1.11182 0.00764563 -3.03283e-13)
(1.09538 0.0143875 2.33214e-14)
(1.07181 0.0179978 7.70201e-14)
(1.04562 0.0185415 9.04184e-14)
(1.02071 0.0164274 -7.65106e-14)
(1.0003 0.011988 -7.60357e-13)
(0.987364 0.0053999 -7.93259e-13)
(0.984808 -0.00304797 5.75422e-12)
(0.995032 -0.0124567 3.07251e-11)
(1.01861 -0.0209731 8.14975e-11)
(1.05281 -0.026088 1.42035e-10)
(1.09111 -0.0256738 1.76081e-10)
(1.12457 -0.0191982 1.61603e-10)
(1.14492 -0.0082536 1.12094e-10)
(1.14769 0.00407215 5.72898e-11)
(1.13346 0.0145863 1.85212e-11)
(1.10694 0.0212845 5.8952e-13)
(1.07439 0.0237573 -3.70831e-12)
(1.04145 0.0226715 -3.71761e-12)
(1.01219 0.0189346 -3.05962e-12)
(0.989463 0.0131199 5.25846e-12)
(0.975711 0.00541082 3.93667e-11)
(0.973468 -0.00397253 1.2084e-10)
(0.984918 -0.0141535 2.58699e-10)
(1.0105 -0.0233097 4.35473e-10)
(1.04746 -0.0290622 6.09908e-10)
(1.08951 -0.0294082 7.33296e-10)
(1.12817 -0.0236556 7.66192e-10)
(1.15514 -0.0128536 6.93586e-10)
(1.1647 0.000468598 5.36572e-10)
(1.15533 0.0131158 3.44397e-10)
(1.13005 0.0223208 1.7025e-10)
(1.09508 0.0266646 4.95563e-11)
(1.05752 0.0263158 -9.90441e-12)
(1.02322 0.0224329 -1.81284e-11)
(0.995992 0.0161441 1.54415e-11)
(0.978555 0.00792966 8.97269e-11)
(0.973647 -0.00205416 2.038e-10)
(0.983853 -0.0130628 3.44974e-10)
(1.00985 -0.0232601 4.88652e-10)
(1.04871 -0.0302006 6.11088e-10)
(1.09381 -0.031955 7.00873e-10)
(1.13674 -0.0280359 7.58747e-10)
(1.16985 -0.0195593 7.88148e-10)
(1.18835 -0.00867963 7.86111e-10)
(1.19105 0.00223678 7.42328e-10)
(1.17983 0.0112236 6.46871e-10)
(1.15872 0.0169451 5.0155e-10)
(1.13287 0.0186709 3.28227e-10)
(1.10785 0.0162531 1.64973e-10)
(1.08898 0.0101242 4.91276e-11)
(1.08076 0.00121149 1.27135e-14)
(1.08635 -0.009165 1.43784e-11)
(1.10692 -0.0193464 7.41752e-11)
(1.14102 -0.0274648 1.57302e-10)
(1.18435 -0.0317925 2.44942e-10)
(1.23035 -0.031233 3.2453e-10)
(1.27162 -0.0256881 3.89715e-10)
(1.30154 -0.016128 4.38847e-10)
(1.31565 -0.00435541 4.73255e-10)
(1.31248 0.00744003 4.96293e-10)
(1.2937 0.0171905 5.12981e-10)
(1.26351 0.0234571 5.28739e-10)
(1.22753 0.0257615 5.45491e-10)
(1.19123 0.0246065 5.55963e-10)
(1.15875 0.0211267 5.42633e-10)
(1.13239 0.0164935 4.87278e-10)
(1.11303 0.0114211 3.86145e-10)
(1.10097 0.00609894 2.57203e-10)
(1.09653 0.00053836 1.32248e-10)
(1.09989 -0.00500928 4.07004e-11)
(1.1106 -0.00989688 -2.6156e-12)
(1.1271 -0.0132428 -6.46151e-14)
(1.14664 -0.0142401 3.35439e-11)
(1.16562 -0.0124366 7.82794e-11)
(1.18021 -0.00791233 1.15888e-10)
(1.18709 -0.00134252 1.34562e-10)
(1.18417 0.00607619 1.30734e-10)
(1.1712 0.0128721 1.08087e-10)
(1.15 0.0177166 7.5179e-11)
(1.1239 0.0198468 4.19392e-11)
(1.09683 0.0192682 1.60763e-11)
(1.0722 0.0166328 8.07341e-13)
(1.0522 0.0128886 -5.07213e-12)
(1.03768 0.00891681 -5.15763e-12)
(1.02844 0.00532273 -3.04886e-12)
(1.02367 0.00240807 -9.94679e-13)
(1.02232 0.000252554 2.02397e-13)
(1.02336 -0.00118346 6.18639e-13)
(1.02586 -0.00198474 6.13946e-13)
(1.02902 -0.0022449 4.91684e-13)
(1.03216 -0.00205858 4.0238e-13)
(1.03476 -0.00152725 3.75892e-13)
(1.0364 -0.00076534 3.84847e-13)
(1.03688 0.000101902 3.92838e-13)
(1.03614 0.000950064 3.77935e-13)
(1.03428 0.00167243 3.36625e-13)
(1.03156 0.00219456 2.77458e-13)
(1.02828 0.0024812 2.13062e-13)
(1.02479 0.00253455 1.54426e-13)
(1.02139 0.00238617 1.08346e-13)
(1.01832 0.00208607 7.73475e-14)
(1.01575 0.00169197 6.08869e-14)
(1.01376 0.00126047 5.67778e-14)
(1.01238 0.00084047 6.23013e-14)
(1.01154 0.000469397 7.48081e-14)
(1.01117 0.000171154 9.19302e-14)
(1.01114 -4.27792e-05 1.11586e-13)
(1.01133 -0.000172638 1.31948e-13)
(1.01165 -0.000225498 1.51416e-13)
(1.01197 -0.000215805 1.68622e-13)
(1.01227 -0.00015724 1.82489e-13)
(1.01239 -6.8766e-05 1.92288e-13)
(1.0125 3.71157e-05 1.97779e-13)
(1.01223 0.000146623 1.98871e-13)
(1.01221 0.00023677 1.97452e-13)
(1.0114 0.000362766 1.88508e-13)
(1.00011 -0.00108207 1.87362e-22)
(1.00164 -0.00324862 5.66657e-21)
(1.00512 -0.00557978 9.76993e-21)
(1.01047 -0.0081668 1.11278e-20)
(1.01805 -0.0110468 -7.50311e-20)
(1.02812 -0.0141182 3.57281e-20)
(1.04085 -0.0171572 -1.01868e-19)
(1.05612 -0.0197041 -1.74984e-18)
(1.07335 -0.0212525 1.36726e-19)
(1.09149 -0.0212365 6.92975e-18)
(1.10884 -0.0193085 2.61522e-18)
(1.1238 -0.0158252 -1.69463e-17)
(1.13528 -0.0110561 -2.88973e-17)
(1.14236 -0.0052543 -2.0296e-17)
(1.14431 0.00135289 -4.28883e-18)
(1.14044 0.00842693 7.6297e-18)
(1.13041 0.0151053 1.39588e-17)
(1.11496 0.0201782 1.67997e-17)
(1.096 0.0226106 1.75447e-17)
(1.07618 0.0218452 1.18419e-17)
(1.05839 0.0178368 -4.45088e-18)
(1.04537 0.0110306 -3.17923e-18)
(1.03931 0.00234525 -7.2285e-17)
(1.04148 -0.00678378 -7.21223e-16)
(1.05171 -0.0143272 -9.80146e-16)
(1.06768 -0.017988 7.89627e-17)
(1.08483 -0.016171 1.33377e-16)
(1.09762 -0.0090974 -5.85535e-17)
(1.10183 0.00106753 3.83405e-17)
(1.09612 0.0113504 5.99921e-17)
(1.08192 0.0193471 1.01503e-15)
(1.06224 0.0238126 9.55958e-16)
(1.04048 0.0244231 -1.27449e-14)
(1.01985 0.0212905 -1.94491e-14)
(1.00333 0.0146345 1.65895e-13)
(0.993796 0.00478565 5.67826e-13)
(0.99398 -0.00748135 -1.04713e-12)
(1.00587 -0.0203524 -1.09679e-11)
(1.0293 -0.0306839 -3.17616e-11)
(1.06041 -0.034819 -5.10937e-11)
(1.0918 -0.0304796 -5.17335e-11)
(1.11507 -0.0184145 -3.42456e-11)
(1.12431 -0.00228204 -1.47673e-11)
(1.11826 0.0132684 -3.51482e-12)
(1.09987 0.0247536 4.67405e-13)
(1.07414 0.0308055 1.04589e-12)
(1.04601 0.0316488 6.52824e-13)
(1.01943 0.0280544 -1.20545e-12)
(0.997584 0.0205869 -5.08568e-12)
(0.983403 0.00947558 5.70744e-13)
(0.979915 -0.00488583 5.59209e-11)
(0.989779 -0.0210335 2.20842e-10)
(1.01397 -0.0358055 5.11359e-10)
(1.05014 -0.044831 8.3535e-10)
(1.09173 -0.0443065 1.02494e-09)
(1.12897 -0.0331811 9.64938e-10)
(1.15215 -0.0142139 6.97208e-10)
(1.15567 0.00712465 3.7823e-10)
(1.14012 0.0251988 1.38391e-10)
(1.11109 0.0365432 1.61563e-11)
(1.07591 0.0405654 -2.01982e-11)
(1.04082 0.0385675 -2.01087e-11)
(1.00994 0.0322194 -1.03056e-11)
(0.985777 0.0225243 2.06059e-11)
(0.970481 0.00971226 1.12446e-10)
(0.966736 -0.00600336 2.99457e-10)
(0.977377 -0.0232811 5.70459e-10)
(1.0035 -0.0390491 8.65865e-10)
(1.04235 -0.0491541 1.12025e-09)
(1.08692 -0.0500652 1.29451e-09)
(1.12789 -0.0405545 1.36142e-09)
(1.15655 -0.0223821 1.28627e-09)
(1.16712 0.00019587 1.05529e-09)
(1.15803 0.0217602 7.19362e-10)
(1.13222 0.0375512 3.79197e-10)
(1.09605 0.045079 1.24597e-10)
(1.05692 0.0446063 -9.28423e-12)
(1.02097 0.0381415 -3.44648e-11)
(0.992196 0.0276096 2.54856e-11)
(0.973607 0.0137236 1.54182e-10)
(0.968586 -0.00339189 3.31643e-10)
(0.980384 -0.0224585 5.21346e-10)
(1.00967 -0.0401219 6.81558e-10)
(1.05258 -0.0519488 7.89056e-10)
(1.10123 -0.0545664 8.47879e-10)
(1.14613 -0.047289 8.78868e-10)
(1.17915 -0.0322887 9.01264e-10)
(1.19565 -0.0134864 9.1539e-10)
(1.19509 0.00498576 8.97059e-10)
(1.18035 0.019867 8.14683e-10)
(1.15629 0.0290896 6.55835e-10)
(1.12845 0.0316247 4.44091e-10)
(1.10238 0.0273301 2.32812e-10)
(1.08322 0.0168887 7.82117e-11)
(1.07554 0.00170953 1.22077e-11)
(1.08285 -0.0161005 3.30199e-11)
(1.10658 -0.0336942 1.14524e-10)
(1.14499 -0.0477205 2.23322e-10)
(1.19291 -0.0550739 3.3216e-10)
(1.24285 -0.053856 4.25127e-10)
(1.28676 -0.0439949 4.96336e-10)
(1.31778 -0.0272782 5.46016e-10)
(1.3315 -0.00688071 5.76829e-10)
(1.32662 0.0134235 5.92256e-10)
(1.30505 0.0301123 5.97932e-10)
(1.27145 0.0407515 6.0113e-10)
(1.23186 0.0445598 6.06428e-10)
(1.19222 0.0424327 6.08369e-10)
(1.15697 0.0363312 5.88793e-10)
(1.12856 0.0282644 5.26773e-10)
(1.10795 0.0194584 4.16473e-10)
(1.09543 0.010258 2.77183e-10)
(1.09123 0.000720318 1.45885e-10)
(1.09531 -0.00869343 5.86555e-11)
(1.1069 -0.0168839 3.44e-11)
(1.12414 -0.0224065 6.90564e-11)
(1.14414 -0.0239782 1.40283e-10)
(1.16336 -0.020905 2.17585e-10)
(1.17814 -0.0133389 2.72935e-10)
(1.18529 -0.00238029 2.89131e-10)
(1.1827 0.0100136 2.63716e-10)
(1.17004 0.0214048 2.07201e-10)
(1.14899 0.029562 1.37711e-10)
(1.12286 0.0331808 7.34448e-11)
(1.09563 0.0322441 2.64084e-11)
(1.07082 0.0278313 -7.53471e-14)
(1.05074 0.0215335 -9.75579e-12)
(1.03629 0.0148396 -9.50656e-12)
(1.02728 0.00877879 -5.5946e-12)
(1.02288 0.00386805 -1.81931e-12)
(1.02199 0.000246249 4.56049e-13)
(1.02351 -0.00215367 1.33988e-12)
(1.02647 -0.00347766 1.43889e-12)
(1.03002 -0.00388704 1.2855e-12)
(1.03348 -0.00354381 1.15654e-12)
(1.03629 -0.00262037 1.1137e-12)
(1.03806 -0.00131069 1.11069e-12)
(1.03855 0.000172628 1.08302e-12)
(1.03773 0.00161817 9.9586e-13)
(1.03573 0.00284475 8.52145e-13)
(1.03283 0.00372666 6.7794e-13)
(1.02937 0.0042055 5.0448e-13)
(1.02571 0.00428685 3.5596e-13)
(1.02218 0.00402608 2.45072e-13)
(1.01902 0.00350947 1.7423e-13)
(1.0164 0.00283584 1.39301e-13)
(1.01441 0.00210157 1.33333e-13)
(1.01305 0.00138957 1.49042e-13)
(1.01227 0.000762916 1.79925e-13)
(1.01195 0.000261526 2.20431e-13)
(1.01199 -9.59008e-05 2.65765e-13)
(1.01225 -0.000310505 3.11728e-13)
(1.01262 -0.000394932 3.54643e-13)
(1.01298 -0.000374125 3.91414e-13)
(1.0133 -0.000271443 4.197e-13)
(1.01344 -0.000119314 4.38071e-13)
(1.01355 6.17664e-05 4.46311e-13)
(1.01327 0.000247185 4.44479e-13)
(1.01325 0.000400946 4.37576e-13)
(1.0124 0.000611065 4.1228e-13)
(1.00011 -0.00150045 -5.14915e-20)
(1.00159 -0.00450584 -6.74635e-19)
(1.00496 -0.00775414 -1.22825e-18)
(1.0102 -0.0113842 -2.07265e-18)
(1.01771 -0.01546 -2.94712e-18)
(1.02781 -0.0198492 -2.47952e-18)
(1.04077 -0.0242428 -9.55944e-18)
(1.05656 -0.0279704 -3.80737e-18)
(1.0746 -0.0302935 2.80543e-17)
(1.09382 -0.0303321 -9.42029e-18)
(1.11222 -0.0275614 -1.35059e-16)
(1.12799 -0.0225876 -2.25671e-16)
(1.14013 -0.0158199 -2.03642e-16)
(1.14772 -0.00761539 -7.68075e-17)
(1.15001 0.00175921 3.55792e-17)
(1.14612 0.0119068 7.68444e-17)
(1.13546 0.0215896 7.54893e-17)
(1.1187 0.0289999 5.70088e-17)
(1.09797 0.0325939 1.90703e-17)
(1.07622 0.0315515 -7.47416e-17)
(1.05666 0.0258003 -1.07542e-16)
(1.04229 0.0159578 -1.12305e-16)
(1.03559 0.0033025 -3.3179e-15)
(1.03819 -0.0101322 -1.75659e-15)
(1.05015 -0.0213666 6.53005e-14)
(1.06901 -0.026903 1.87742e-13)
(1.08942 -0.0242409 2.08391e-13)
(1.10469 -0.0136813 1.11527e-13)
(1.10974 0.00144593 2.90516e-14)
(1.10319 0.0166075 7.21825e-16)
(1.08707 0.0282453 2.35574e-15)
(1.06505 0.034646 -5.91566e-15)
(1.04095 0.0354809 -6.93408e-14)
(1.01816 0.0309982 2.54243e-14)
(0.999703 0.0215021 8.67559e-13)
(0.988623 0.00734791 1.0412e-12)
(0.988129 -0.0105268 -7.52988e-12)
(1.001 -0.0295892 -3.33452e-11)
(1.02759 -0.0451147 -6.95261e-11)
(1.06359 -0.0514294 -1.00778e-10)
(1.09999 -0.0449736 -1.11109e-10)
(1.12651 -0.026927 -8.83832e-11)
(1.13626 -0.00294851 -4.80233e-11)
(1.12826 0.0198905 -1.65074e-11)
(1.10659 0.0364516 -6.92583e-13)
(1.07739 0.044923 3.76021e-12)
(1.04624 0.0458887 2.17921e-12)
(1.01721 0.0406354 -6.07144e-12)
(0.993279 0.0300033 -1.47155e-11)
(0.977152 0.0142421 2.88191e-11)
(0.97169 -0.0062184 2.42628e-10)
(0.979808 -0.0294643 7.27998e-10)
(1.0034 -0.0511505 1.43131e-09)
(1.04116 -0.0649916 2.13754e-09)
(1.08682 -0.0651189 2.58482e-09)
(1.12967 -0.0494138 2.56311e-09)
(1.15814 -0.0215815 2.03947e-09)
(1.16457 0.0101146 1.25226e-09)
(1.14862 0.036889 5.45003e-10)
(1.1167 0.0533847 1.16093e-10)
(1.07783 0.0588759 -4.75757e-11)
(1.03953 0.0556433 -6.56075e-11)
(1.00618 0.0464535 -2.91515e-11)
(0.979831 0.0328524 5.8576e-11)
(0.962326 0.0149416 2.46575e-10)
(0.956939 -0.00740385 5.48313e-10)
(0.967747 -0.0325232 8.92643e-10)
(0.996458 -0.0558002 1.17839e-09)
(1.03947 -0.0707916 1.36468e-09)
(1.08808 -0.072198 1.48501e-09)
(1.13161 -0.0584684 1.57666e-09)
(1.16105 -0.03244 1.60283e-09)
(1.1712 -0.000234969 1.46488e-09)
(1.16114 0.0305872 1.12221e-09)
(1.13403 0.0533126 6.68946e-10)
(1.09618 0.0643009 2.64066e-10)
(1.05509 0.0638392 1.84764e-11)
(1.01706 0.0547859 -4.51469e-11)
(0.986416 0.0398224 4.20702e-11)
(0.96684 0.0197421 2.30897e-10)
(0.962717 -0.00542605 4.60006e-10)
(0.977822 -0.0335883 6.63349e-10)
(1.01212 -0.0593613 7.97211e-10)
(1.06018 -0.0760012 8.5746e-10)
(1.11264 -0.0787512 8.68514e-10)
(1.15924 -0.0670079 8.63328e-10)
(1.1917 -0.0443055 8.70477e-10)
(1.2055 -0.0166205 9.00263e-10)
(1.20066 0.00990707 9.28109e-10)
(1.181 0.0306315 9.0047e-10)
(1.1525 0.0428881 7.7393e-10)
(1.12145 0.0456139 5.56749e-10)
(1.09359 0.0388601 3.12826e-10)
(1.07403 0.0235412 1.23312e-10)
(1.06754 0.0014042 3.96753e-11)
(1.07797 -0.0246748 6.33688e-11)
(1.10661 -0.0504126 1.5894e-10)
(1.15067 -0.0706395 2.81969e-10)
(1.20362 -0.0807426 3.99595e-10)
(1.25699 -0.0781768 4.95839e-10)
(1.30257 -0.0631635 5.67015e-10)
(1.33379 -0.038489 6.15249e-10)
(1.34658 -0.00875036 6.442e-10)
(1.33978 0.0206841 6.57552e-10)
(1.31539 0.0447812 6.60207e-10)
(1.27823 0.0600428 6.5924e-10)
(1.23473 0.0653547 6.60391e-10)
(1.1913 0.0620377 6.59344e-10)
(1.15276 0.0529493 6.36819e-10)
(1.12189 0.0410029 5.68786e-10)
(1.09978 0.0279877 4.48198e-10)
(1.08679 0.0144609 2.98745e-10)
(1.083 0.000602844 1.66447e-10)
(1.08802 -0.0128437 9.51813e-11)
(1.10064 -0.0243133 1.04227e-10)
(1.11862 -0.0318651 1.81912e-10)
(1.13893 -0.0338549 2.95532e-10)
(1.15815 -0.0294436 4.06334e-10)
(1.17291 -0.018876 4.80346e-10)
(1.18028 -0.00361496 4.95298e-10)
(1.17825 0.0137083 4.46534e-10)
(1.16631 0.0297327 3.48977e-10)
(1.14589 0.0413039 2.31147e-10)
(1.12014 0.0465166 1.22901e-10)
(1.09304 0.0452782 4.40095e-11)
(1.06825 0.0390756 -3.7504e-13)
(1.04822 0.0301557 -1.67448e-11)
(1.03399 0.0206452 -1.65001e-11)
(1.02541 0.0120271 -9.9331e-12)
(1.02162 0.00505533 -3.34508e-12)
(1.02145 -6.29628e-05 8.841e-13)
(1.02371 -0.00342358 2.79451e-12)
(1.02737 -0.00524084 3.30776e-12)
(1.03153 -0.00575214 3.28357e-12)
(1.03546 -0.00519357 3.18857e-12)
(1.03859 -0.00381383 3.13729e-12)
(1.04052 -0.0018917 3.06366e-12)
(1.04101 0.000266845 2.8757e-12)
(1.04007 0.00235724 2.54056e-12)
(1.03785 0.00411915 2.09503e-12)
(1.03468 0.00537383 1.61209e-12)
(1.03094 0.00604107 1.16407e-12)
(1.02702 0.00613361 7.99968e-13)
(1.02328 0.0057355 5.3991e-13)
(1.01999 0.00497419 3.81184e-13)
(1.01731 0.00399372 3.08328e-13)
(1.01533 0.00293335 3.01863e-13)
(1.01402 0.00191187 3.43459e-13)
(1.01332 0.00101877 4.17712e-13)
(1.01311 0.000309746 5.11892e-13)
(1.01325 -0.000190277 6.1512e-13)
(1.0136 -0.000484785 7.17872e-13)
(1.01405 -0.000593404 8.11806e-13)
(1.01447 -0.000553134 8.9001e-13)
(1.01483 -0.000397612 9.47484e-13)
(1.01499 -0.000174468 9.81507e-13)
(1.0151 8.93555e-05 9.92256e-13)
(1.01481 0.000354165 9.80426e-13)
(1.01476 0.000578152 9.58441e-13)
(1.01387 0.000869905 8.9325e-13)
(1.0001 -0.00190296 -3.19428e-18)
(1.00151 -0.00571666 -1.08176e-17)
(1.00474 -0.00986371 -9.5061e-18)
(1.00981 -0.014542 -1.3212e-17)
(1.01719 -0.0198554 -1.0187e-17)
(1.0273 -0.0256523 -1.75571e-17)
(1.04055 -0.0315456 -4.58581e-17)
(1.05701 -0.0366281 1.15516e-16)
(1.07619 -0.0398988 4.88087e-17)
(1.09692 -0.0400552 -7.02856e-16)
(1.11676 -0.0363515 -8.5026e-16)
(1.13363 -0.0297727 4.784e-16)
(1.14661 -0.0208988 1.66152e-15)
(1.15487 -0.010178 1.48239e-15)
(1.15766 0.002165 6.49819e-16)
(1.15382 0.0157427 -7.1222e-17)
(1.14235 0.0288614 -4.47833e-16)
(1.12382 0.0389517 -5.9456e-16)
(1.10065 0.0438618 -8.07434e-16)
(1.07624 0.0425029 -1.16947e-15)
(1.05419 0.0348011 -5.78383e-16)
(1.03791 0.02156 -3.99473e-15)
(1.03026 0.00439902 -1.69775e-14)
(1.03335 -0.0140597 6.01767e-14)
(1.04769 -0.0297479 3.20717e-13)
(1.07068 -0.037643 6.36416e-13)
(1.09581 -0.034019 8.14418e-13)
(1.11463 -0.019242 5.88695e-13)
(1.12083 0.00184076 2.17062e-13)
(1.11301 0.0227031 2.66878e-14)
(1.0941 0.0384217 -1.27495e-14)
(1.06878 0.0468669 -7.93141e-14)
(1.04147 0.0478637 -9.8846e-14)
(1.01574 0.0419128 7.00044e-13)
(0.994632 0.0294031 8.04949e-13)
(0.981364 0.0105801 -7.27582e-12)
(0.97978 -0.0136546 -1.13508e-11)
(0.993591 -0.0400723 7.41158e-11)
(1.02387 -0.0619852 3.17813e-10)
(1.06622 -0.0710404 5.63366e-10)
(1.11003 -0.0619508 5.60263e-10)
(1.14196 -0.0365262 3.29809e-10)
(1.15295 -0.00312037 1.02654e-10)
(1.14221 0.0281331 -2.79119e-12)
(1.11571 0.0501949 -1.66203e-11)
(1.08154 0.0609713 -3.52733e-12)
(1.04625 0.0617306 -6.86698e-13)
(1.01401 0.054529 -1.80005e-11)
(0.98733 0.0406139 -1.51904e-11)
(0.968197 0.0202786 1.47002e-10)
(0.959155 -0.00619487 6.4175e-10)
(0.964109 -0.0368677 1.4571e-09)
(0.98693 -0.0664829 2.33941e-09)
(1.0273 -0.0865628 3.06494e-09)
(1.07799 -0.0885833 3.58657e-09)
(1.12683 -0.0688426 3.81071e-09)
(1.16106 -0.0316306 3.48289e-09)
(1.17164 0.0119208 2.53717e-09)
(1.15677 0.0491405 1.3564e-09)
(1.12269 0.0719251 4.34625e-10)
(1.0799 0.0791327 -2.72196e-11)
(1.03763 0.0743808 -1.36335e-10)
(1.00096 0.0620662 -6.53845e-11)
(0.97168 0.0444526 1.18984e-10)
(0.951733 0.0211661 4.1985e-10)
(0.945626 -0.00869916 7.84929e-10)
(0.958743 -0.0430283 1.0906e-09)
(0.992444 -0.0749141 1.25369e-09)
(1.04121 -0.0949868 1.29942e-09)
(1.09439 -0.0961626 1.31955e-09)
(1.14018 -0.0770445 1.39599e-09)
(1.1694 -0.04215 1.524e-09)
(1.17752 0.000187146 1.5715e-09)
(1.16476 0.0403705 1.38022e-09)
(1.13507 0.0700296 9.47119e-10)
(1.09494 0.0845292 4.47573e-10)
(1.05164 0.0841485 8.62006e-11)
(1.01141 0.0724683 -3.51182e-11)
(0.978956 0.0527166 6.69432e-11)
(0.958983 0.0255808 3.02776e-10)
(0.956916 -0.0088651 5.59719e-10)
(0.976482 -0.0471465 7.50436e-10)
(1.01619 -0.0813065 8.45753e-10)
(1.06879 -0.102231 8.66637e-10)
(1.12383 -0.104127 8.49956e-10)
(1.17094 -0.0868348 8.25595e-10)
(1.20213 -0.05541 8.16925e-10)
(1.21316 -0.0179461 8.41857e-10)
(1.20419 0.0172529 8.91846e-10)
(1.1796 0.0439485 9.12269e-10)
(1.14628 0.0588523 8.33694e-10)
(1.11146 0.0610635 6.37279e-10)
(1.08139 0.0510299 3.84215e-10)
(1.06152 0.0299135 1.75221e-10)
(1.05701 -0.000249852 8.10522e-11)
(1.07182 -0.0356208 1.07163e-10)
(1.10625 -0.0700398 2.10666e-10)
(1.15569 -0.0962391 3.39537e-10)
(1.21211 -0.108264 4.58871e-10)
(1.26669 -0.103362 5.54541e-10)
(1.31179 -0.082409 6.24686e-10)
(1.34175 -0.0492805 6.71405e-10)
(1.35311 -0.00986274 6.97606e-10)
(1.3448 0.0290277 7.07186e-10)
(1.31859 0.0608848 7.05759e-10)
(1.27906 0.0810612 7.01378e-10)
(1.2327 0.0879998 7.00894e-10)
(1.18621 0.0833959 7.00053e-10)
(1.14484 0.0710234 6.76896e-10)
(1.11174 0.0547531 6.03507e-10)
(1.08833 0.0370064 4.73349e-10)
(1.07507 0.0186518 3.1841e-10)
(1.0719 0.000110929 1.95688e-10)
(1.07803 -0.0175098 1.52482e-10)
(1.09178 -0.0321827 1.99529e-10)
(1.11054 -0.0415558 3.11831e-10)
(1.13109 -0.0437494 4.49506e-10)
(1.15009 -0.037899 5.76017e-10)
(1.16447 -0.0244035 6.62119e-10)
(1.17175 -0.00504335 6.83749e-10)
(1.17017 0.0170097 6.2768e-10)
(1.15918 0.0375911 5.03138e-10)
(1.1399 0.0526454 3.42619e-10)
(1.11513 0.0595964 1.87815e-10)
(1.0887 0.0581815 7.05173e-11)
(1.06433 0.0502368 1.97873e-12)
(1.04464 0.0386591 -2.49038e-11)
(1.03085 0.0262424 -2.59537e-11)
(1.02289 0.0149654 -1.63503e-11)
(1.01991 0.00585303 -5.83042e-12)
(1.02067 -0.00080047 1.59029e-12)
(1.02391 -0.00511652 5.5978e-12)
(1.02848 -0.00738536 7.34557e-12)
(1.03343 -0.00793144 8.01149e-12)
(1.03797 -0.00707468 8.25214e-12)
(1.04153 -0.0051477 8.23722e-12)
(1.04367 -0.00252151 7.90261e-12)
(1.04418 0.000396086 7.18153e-12)
(1.04308 0.00319869 6.12131e-12)
(1.04058 0.00554001 4.87622e-12)
(1.03704 0.00718544 3.63387e-12)
(1.03292 0.00803485 2.54817e-12)
(1.02867 0.0081136 1.70613e-12)
(1.02467 0.00754161 1.12868e-12)
(1.02121 0.00649463 7.91e-13)
(1.01845 0.00516802 6.46889e-13)
(1.01648 0.00374833 6.4718e-13)
(1.01524 0.00239292 7.49118e-13)
(1.01466 0.00121869 9.18367e-13)
(1.01459 0.000296579 1.12716e-12)
(1.01487 -0.000343807 1.3519e-12)
(1.01535 -0.000710493 1.57187e-12)
(1.01591 -0.000832223 1.76895e-12)
(1.0164 -0.000760242 1.92842e-12)
(1.01681 -0.000539442 2.04016e-12)
(1.01699 -0.00023482 2.0994e-12)
(1.0171 0.000122129 2.1079e-12)
(1.01678 0.00047116 2.06833e-12)
(1.01671 0.000774532 2.00939e-12)
(1.01575 0.00114376 1.85494e-12)
(1.0001 -0.00228324 3.02624e-18)
(1.00141 -0.00686222 1.07523e-17)
(1.00444 -0.0118801 9.04337e-18)
(1.00926 -0.0176087 9.69887e-18)
(1.01643 -0.0242093 4.11426e-17)
(1.0265 -0.0315307 -8.81815e-17)
(1.04007 -0.0391189 1.93961e-16)
(1.05737 -0.0457996 3.71101e-16)
(1.07802 -0.0502703 -1.7892e-15)
(1.10077 -0.0506321 -1.90097e-15)
(1.12251 -0.045857 5.16236e-15)
(1.14077 -0.0375211 1.77606e-14)
(1.15482 -0.0264357 2.66081e-14)
(1.16397 -0.0131559 2.14764e-14)
(1.16752 0.002235 8.56798e-15)
(1.16387 0.0195383 -1.00632e-15)
(1.15135 0.0365778 -5.41869e-15)
(1.13044 0.0498265 -6.48659e-15)
(1.10401 0.0563612 -6.81144e-15)
(1.07606 0.0547648 -4.75239e-15)
(1.05073 0.0449579 -5.71916e-15)
(1.03188 0.027924 -3.46631e-14)
(1.02285 0.00558852 1.43539e-13)
(1.02646 -0.0188478 4.23162e-13)
(1.04391 -0.0400446 -2.42505e-12)
(1.07252 -0.0509837 -8.5214e-12)
(1.10418 -0.0462257 -9.76961e-12)
(1.12791 -0.0261699 -4.97612e-12)
(1.1356 0.00229094 -1.05611e-12)
(1.12591 0.0299968 1.25057e-13)
(1.10313 0.0503643 6.33713e-14)
(1.07342 0.0609522 -2.23669e-13)
(1.04198 0.0619927 7.53084e-13)
(1.01251 0.0544175 2.14408e-12)
(0.987995 0.0386943 -1.17878e-11)
(0.971809 0.0147832 -3.72388e-11)
(0.9681 -0.0166193 1.06316e-10)
(0.980877 -0.0516114 8.03446e-10)
(1.01228 -0.0814329 2.11957e-09)
(1.05993 -0.0945404 3.35782e-09)
(1.11343 -0.082876 3.5808e-09)
(1.15561 -0.0483817 2.61676e-09)
(1.17192 -0.00304176 1.26546e-09)
(1.15973 0.0385353 3.35299e-10)
(1.12744 0.0667911 -2.47364e-11)
(1.08665 0.0796408 -6.426e-11)
(1.04599 0.0796405 -3.78731e-11)
(1.00977 0.0700935 -3.86286e-11)
(0.979536 0.052913 3.35377e-11)
(0.956123 0.0283384 4.0573e-10)
(0.942426 -0.00415774 1.15396e-09)
(0.944948 -0.0433384 1.97663e-09)
(0.9699 -0.0827516 2.50073e-09)
(1.01609 -0.110553 2.74816e-09)
(1.07323 -0.114913 3.05069e-09)
(1.1269 -0.0909399 3.55943e-09)
(1.16429 -0.0439412 3.90479e-09)
(1.17706 0.012315 3.50327e-09)
(1.163 0.061384 2.33308e-09)
(1.12747 0.0918053 1.01573e-09)
(1.08126 0.101382 1.35255e-10)
(1.0349 0.095097 -1.8353e-10)
(0.994343 0.0794244 -1.10406e-10)
(0.961709 0.0574648 1.84373e-10)
(0.939796 0.0279762 5.83035e-10)
(0.934634 -0.010892 9.47577e-10)
(0.952008 -0.0559177 1.15834e-09)
(0.991581 -0.0970412 1.20668e-09)
(1.04556 -0.121792 1.17411e-09)
(1.1021 -0.121719 1.14918e-09)
(1.14932 -0.0959925 1.19587e-09)
(1.1781 -0.0510947 1.33816e-09)
(1.18403 0.00211521 1.49341e-09)
(1.16797 0.0518286 1.468e-09)
(1.13492 0.0882178 1.14152e-09)
(1.09195 0.105998 6.27384e-10)
(1.04628 0.105585 1.82981e-10)
(1.00395 0.0911156 1.3752e-12)
(0.970099 0.0660308 1.01875e-10)
(0.950519 0.0307734 3.62779e-10)
(0.951342 -0.0141539 6.26881e-10)
(0.97554 -0.0632107 7.96545e-10)
(1.01979 -0.105524 8.61465e-10)
(1.07527 -0.129855 8.62116e-10)
(1.13107 -0.129865 8.40433e-10)
(1.17717 -0.106175 8.17956e-10)
(1.20627 -0.065405 8.05329e-10)