/*--------------------------------*- C++ -*----------------------------------*\
  =========                 |
  \\      /  F ield         | OpenFOAM: The Open Source CFD Toolbox
   \\    /   O peration     | Website:  https://openfoam.org
    \\  /    A nd           | Version:  11
     \\/     M anipulation  |
\*---------------------------------------------------------------------------*/
FoamFile
{
    format      ascii;
    class       volVectorField;
    location    "1.684467";
    object      U_0;
}
// * * * * * * * * * * * * * * * * * * * * * * * * * * * * * * * * * * * * * //

dimensions      [0 1 -1 0 0 0 0];

internalField   nonuniform List<vector> 
7132
(
(1.00014 -0.000277961 2.24363e-18)
(1.00215 -0.000836653 7.79429e-18)
(1.0067 -0.00142506 8.04558e-18)
(1.0136 -0.00205153 9.34424e-18)
(1.02309 -0.00271478 1.21758e-17)
(1.03531 -0.00338859 1.27972e-17)
(1.05022 -0.00402545 1.21679e-17)
(1.06755 -0.00453695 1.13134e-17)
(1.08661 -0.00482635 1.06626e-17)
(1.1063 -0.00478914 1.01975e-17)
(1.12509 -0.00435979 9.69451e-18)
(1.14138 -0.0035896 9.63414e-18)
(1.15396 -0.00254087 9.30259e-18)
(1.16183 -0.00129107 1.02155e-17)
(1.16437 4.3279e-05 1.43277e-18)
(1.1615 0.00133188 -6.28389e-18)
(1.15369 0.00244383 -1.53975e-17)
(1.14188 0.00328033 -1.44678e-17)
(1.12735 0.00379754 -1.95369e-17)
(1.11141 0.00400706 -2.52483e-17)
(1.09522 0.00395945 -2.38224e-17)
(1.07968 0.00372407 -2.13835e-17)
(1.06541 0.00337166 -1.84885e-17)
(1.05272 0.00296325 -1.52747e-17)
(1.04172 0.00254433 -9.89577e-18)
(1.03239 0.00214251 -8.82485e-18)
(1.02461 0.00176825 -8.8781e-18)
(1.01827 0.00141941 -8.68514e-18)
(1.01327 0.00109003 -6.22416e-18)
(1.00955 0.000780376 -8.36653e-19)
(1.00702 0.000502719 4.29364e-18)
(1.00552 0.000278583 6.17999e-18)
(1.00478 0.000128136 4.361e-18)
(1.00448 5.81391e-05 1.14105e-18)
(1.0043 5.61804e-05 -2.62184e-18)
(1.00402 9.47702e-05 -4.37669e-18)
(1.00354 0.000142497 -4.64595e-18)
(1.00288 0.000175472 -3.59702e-18)
(1.00213 0.000183232 -1.90934e-18)
(1.00141 0.000167597 -1.48358e-18)
(1.00079 0.000137131 -1.42456e-18)
(1.0003 0.000101315 -1.91466e-18)
(0.999966 6.71029e-05 -1.56632e-18)
(0.999759 3.82311e-05 3.28836e-20)
(0.999656 1.60567e-05 1.1792e-18)
(0.999628 6.09629e-07 2.06268e-18)
(0.999649 -8.77767e-06 1.72842e-18)
(0.999697 -1.32101e-05 1.27932e-18)
(0.999754 -1.40629e-05 1.52988e-18)
(0.999809 -1.27543e-05 8.40862e-19)
(0.999856 -1.04953e-05 -7.50474e-19)
(0.999893 -8.12333e-06 -1.32573e-18)
(0.999921 -6.07809e-06 -8.57259e-19)
(0.999941 -4.49245e-06 -7.53062e-19)
(0.999956 -3.32607e-06 -6.1274e-19)
(0.999968 -2.47865e-06 -1.13261e-18)
(0.999976 -1.85512e-06 -1.32017e-18)
(0.999982 -1.38778e-06 -7.10139e-19)
(0.999987 -1.03392e-06 -5.7571e-19)
(0.99999 -7.66389e-07 -4.46204e-19)
(0.999993 -5.65815e-07 -1.00382e-18)
(0.999995 -4.16808e-07 -1.11261e-18)
(0.999996 -3.06773e-07 -9.20883e-19)
(0.999997 -2.25696e-07 -1.5773e-18)
(0.999998 -1.65941e-07 -1.07822e-18)
(0.999999 -1.21866e-07 -8.55051e-19)
(0.999999 -8.93475e-08 -7.9666e-19)
(0.999999 -6.53682e-08 -5.94425e-19)
(1 -4.77011e-08 -1.27305e-18)
(1 -3.46957e-08 -7.97501e-19)
(1 -2.51284e-08 -5.94737e-19)
(1 -1.8094e-08 -5.56025e-19)
(1 -1.29249e-08 -3.74306e-19)
(1 -9.12912e-09 -1.0717e-18)
(1 -6.34461e-09 -6.06373e-19)
(1 -4.30436e-09 -3.9703e-19)
(1 -2.81202e-09 -3.29968e-19)
(1 -1.72261e-09 -1.00833e-19)
(1 -9.29801e-10 -7.43647e-19)
(1 -3.54857e-10 -2.34473e-19)
(1 5.96538e-11 -9.07125e-21)
(1 3.56631e-10 3.72214e-20)
(1 5.6693e-10 2.11374e-19)
(1 7.13898e-10 -5.07906e-19)
(1 8.14156e-10 -7.93538e-20)
(1 8.80457e-10 7.69357e-20)
(1 9.21671e-10 7.55524e-20)
(1 9.44817e-10 2.26827e-19)
(1 9.54599e-10 -4.92831e-19)
(1 9.5491e-10 -5.15527e-20)
(1 9.48225e-10 1.42115e-19)
(1 9.3671e-10 5.44063e-20)
(1 9.21664e-10 7.94831e-19)
(1 9.04281e-10 3.53934e-19)
(1 8.8526e-10 2.55683e-19)
(1 8.65227e-10 2.87344e-19)
(1 8.446e-10 1.22529e-19)
(1 8.23658e-10 8.18544e-19)
(1 8.02705e-10 3.5475e-19)
(1 7.81788e-10 2.47656e-19)
(1 7.61192e-10 2.76917e-19)
(1 7.40795e-10 1.10328e-19)
(1 7.20911e-10 8.02547e-19)
(1 7.01285e-10 3.33046e-19)
(1 6.82287e-10 2.19732e-19)
(1 6.63546e-10 2.43589e-19)
(1 6.45506e-10 7.30487e-20)
(1 6.27691e-10 7.62782e-19)
(1 6.10623e-10 2.9197e-19)
(1 5.93728e-10 1.78199e-19)
(1 5.77612e-10 2.0218e-19)
(1 5.61606e-10 3.2144e-20)
(1 5.46402e-10 7.22797e-19)
(1 5.31241e-10 2.53697e-19)
(1 5.16897e-10 1.43029e-19)
(1 5.02531e-10 1.70828e-19)
(1 4.88996e-10 4.69221e-21)
(1 4.75375e-10 6.85927e-19)
(1 4.62594e-10 2.26549e-19)
(1 4.49662e-10 -3.93559e-20)
(1 4.37583e-10 5.09592e-19)
(1 4.25295e-10 5.49831e-19)
(1 4.13867e-10 6.16741e-19)
(1 4.02173e-10 1.19957e-20)
(1 3.91349e-10 -2.61999e-19)
(1 3.80207e-10 3.30223e-19)
(1 3.69944e-10 4.30704e-19)
(1 3.59313e-10 5.52914e-19)
(1 3.4957e-10 -1.44753e-20)
(1 3.39416e-10 -2.72164e-19)
(1 3.30156e-10 3.20202e-19)
(1 3.20445e-10 4.13036e-19)
(1 3.11638e-10 5.27155e-19)
(1 3.02343e-10 -4.48939e-20)
(1 2.93955e-10 -3.03356e-19)
(1 2.85046e-10 2.90669e-19)
(1 2.77053e-10 3.85858e-19)
(1 2.68509e-10 5.01931e-19)
(1 2.60885e-10 -6.88827e-20)
(1 2.52684e-10 -3.26621e-19)
(1 2.45408e-10 2.68084e-19)
(1 2.37529e-10 3.64443e-19)
(1 2.3058e-10 4.82456e-19)
(1 2.23009e-10 -8.61874e-20)
(1 2.16371e-10 -3.43459e-19)
(1 2.09091e-10 2.46806e-19)
(1 2.02746e-10 3.30701e-19)
(1 1.9574e-10 4.27464e-19)
(1 1.89673e-10 -1.67751e-19)
(1 1.82928e-10 -4.49372e-19)
(1 1.77142e-10 1.27651e-19)
(1 1.70631e-10 2.15435e-19)
(1 1.65173e-10 3.33215e-19)
(1 1.58763e-10 -2.30254e-19)
(1 1.53923e-10 -4.78535e-19)
(1 1.46891e-10 1.22642e-19)
(1 1.44784e-10 2.31521e-19)
(1 1.32544e-10 3.19813e-19)
(1 1.45879e-10 -9.40069e-20)
(1 1.09593e-10 -1.06154e-18)
(1.00014 -0.000831343 3.67407e-20)
(1.00213 -0.00250366 3.83032e-19)
(1.00665 -0.00426655 7.32045e-19)
(1.01351 -0.0061477 1.10958e-18)
(1.02298 -0.00814434 1.57922e-18)
(1.03522 -0.0101791 2.03274e-18)
(1.05022 -0.0121101 2.38533e-18)
(1.06773 -0.0136683 2.57623e-18)
(1.08707 -0.0145595 5.41897e-18)
(1.10713 -0.014459 5.73868e-18)
(1.12628 -0.0131641 4.25981e-18)
(1.14289 -0.0108391 1.00638e-17)
(1.15571 -0.00767269 9.3035e-18)
(1.16372 -0.00389733 9.11351e-18)
(1.16629 0.000133145 9.27442e-18)
(1.16331 0.00402339 8.93264e-18)
(1.15526 0.00737508 7.55845e-18)
(1.14315 0.00988892 6.0266e-18)
(1.1283 0.0114346 4.35818e-18)
(1.11206 0.0120508 2.1949e-18)
(1.09564 0.0118936 -1.96877e-19)
(1.07994 0.0111745 -2.01057e-18)
(1.06556 0.0101076 -2.02496e-18)
(1.05282 0.00887643 -3.29755e-19)
(1.04181 0.00761716 7.32995e-19)
(1.03249 0.00641212 -2.05578e-18)
(1.02474 0.00529218 -8.15474e-18)
(1.01842 0.00425042 -1.16323e-17)
(1.01344 0.00326811 -5.80543e-18)
(1.00972 0.00234474 1.02749e-17)
(1.00718 0.00151573 2.64084e-17)
(1.00565 0.000844754 2.80495e-17)
(1.00489 0.000392349 1.38125e-17)
(1.00457 0.000179809 -1.0276e-17)
(1.00438 0.000171304 -2.94142e-17)
(1.00408 0.000285481 -3.24219e-17)
(1.0036 0.000428487 -2.25068e-17)
(1.00293 0.000528314 -6.25525e-18)
(1.00217 0.00055287 5.50972e-18)
(1.00144 0.000506954 8.45497e-18)
(1.00081 0.000415914 4.80057e-18)
(1.00032 0.000308168 -2.59586e-18)
(0.999973 0.000204777 -6.68198e-18)
(0.999762 0.000117218 -6.96351e-18)
(0.999657 4.97941e-05 -4.31311e-18)
(0.999629 2.7436e-06 -6.52502e-19)
(0.999652 -2.58815e-05 3.28443e-19)
(0.999701 -3.94158e-05 1.0203e-18)
(0.999759 -4.20496e-05 1.26953e-18)
(0.999814 -3.81147e-05 2.99343e-19)
(0.999861 -3.13068e-05 3.1467e-19)
(0.999897 -2.41745e-05 6.32629e-21)
(0.999924 -1.80475e-05 -2.7868e-19)
(0.999943 -1.33184e-05 -2.67931e-19)
(0.999958 -9.85438e-06 -9.5547e-19)
(0.999969 -7.34505e-06 -4.48051e-19)
(0.999977 -5.50052e-06 -3.15854e-19)
(0.999983 -4.11707e-06 -3.25282e-19)
(0.999987 -3.06823e-06 -2.05573e-19)
(0.999991 -2.27448e-06 -8.89754e-19)
(0.999993 -1.67915e-06 -4.03372e-19)
(0.999995 -1.23694e-06 -3.18675e-19)
(0.999996 -9.10479e-07 -1.6407e-19)
(0.999997 -6.69991e-07 -7.96728e-19)
(0.999998 -4.92758e-07 -6.26638e-19)
(0.999999 -3.62019e-07 8.05797e-19)
(0.999999 -2.65548e-07 -1.74314e-19)
(0.999999 -1.94401e-07 -2.53013e-19)
(1 -1.41979e-07 -9.14144e-19)
(1 -1.03387e-07 -7.21819e-19)
(1 -7.49944e-08 7.41867e-19)
(1 -5.41169e-08 -2.11555e-19)
(1 -3.87733e-08 -2.71721e-19)
(1 -2.75041e-08 -9.19621e-19)
(1 -1.92352e-08 -7.1221e-19)
(1 -1.31745e-08 7.76422e-19)
(1 -8.73934e-09 -1.37759e-19)
(1 -5.49983e-09 -1.46937e-19)
(1 -3.14015e-09 -7.42136e-19)
(1 -1.42703e-09 -4.9447e-19)
(1 -1.89635e-10 1.00969e-18)
(1 6.98719e-10 8.13044e-20)
(1 1.33023e-09 3.25894e-20)
(1 1.77365e-09 -6.16045e-19)
(1 2.07871e-09 -4.22272e-19)
(1 2.28283e-09 1.0384e-18)
(1 2.41272e-09 8.20619e-20)
(1 2.48879e-09 2.37589e-20)
(1 2.52537e-09 -6.28443e-19)
(1 2.53364e-09 -3.9712e-19)
(1 2.52124e-09 9.66444e-19)
(1 2.4943e-09 4.53918e-19)
(1 2.45691e-09 8.95123e-19)
(1 2.4124e-09 9.05765e-19)
(1 2.36299e-09 7.88085e-19)
(1 2.31043e-09 8.28504e-19)
(1 2.25597e-09 6.59516e-20)
(1 2.20049e-09 5.11463e-19)
(1 2.14477e-09 5.81639e-19)
(1 2.08912e-09 5.28249e-19)
(1 2.03414e-09 6.23435e-19)
(1 1.97978e-09 -9.75713e-20)
(1 1.92658e-09 3.77187e-19)
(1 1.87424e-09 4.67402e-19)
(1 1.82334e-09 4.28276e-19)
(1 1.77337e-09 5.3452e-19)
(1 1.72498e-09 -1.77237e-19)
(1 1.67751e-09 3.05518e-19)
(1 1.63168e-09 4.02669e-19)
(1 1.58669e-09 3.69525e-19)
(1 1.54337e-09 4.8089e-19)
(1 1.50079e-09 -2.26534e-19)
(1 1.45988e-09 2.59998e-19)
(1 1.41958e-09 3.60947e-19)
(1 1.38095e-09 3.32543e-19)
(1 1.34281e-09 4.49551e-19)
(1 1.30632e-09 -2.51426e-19)
(1 1.2702e-09 2.30525e-19)
(1 1.2357e-09 3.44713e-19)
(1 1.20145e-09 1.74967e-19)
(1 1.16881e-09 8.02633e-19)
(1 1.13631e-09 2.77447e-19)
(1 1.10539e-09 1.40369e-19)
(1 1.0745e-09 1.13289e-19)
(1 1.04517e-09 -6.067e-20)
(1 1.01578e-09 6.12594e-19)
(1 9.87942e-10 1.49688e-19)
(1 9.59941e-10 7.07681e-20)
(1 9.33479e-10 8.48182e-20)
(1 9.06773e-10 -6.88232e-20)
(1 8.81591e-10 6.07994e-19)
(1 8.5609e-10 1.3973e-19)
(1 8.32102e-10 5.38479e-20)
(1 8.07727e-10 6.35114e-20)
(1 7.84854e-10 -9.1097e-20)
(1 7.61533e-10 5.8702e-19)
(1 7.39705e-10 1.20742e-19)
(1 7.17373e-10 3.6471e-20)
(1 6.96524e-10 4.70386e-20)
(1 6.75123e-10 -1.07196e-19)
(1 6.55198e-10 5.71199e-19)
(1 6.34674e-10 1.05607e-19)
(1 6.1562e-10 2.27174e-20)
(1 5.95926e-10 3.49038e-20)
(1 5.77693e-10 -1.19198e-19)
(1 5.58786e-10 5.54937e-19)
(1 5.41334e-10 7.77946e-20)
(1 5.23172e-10 -2.4736e-20)
(1 5.06468e-10 -3.72347e-20)
(1 4.89007e-10 -2.14236e-19)
(1 4.73055e-10 4.46955e-19)
(1 4.5621e-10 -2.74991e-20)
(1 4.41152e-10 -1.11502e-19)
(1 4.24561e-10 -9.53173e-20)
(1 4.11255e-10 -2.41853e-19)
(1 3.92966e-10 4.41824e-19)
(1 3.8704e-10 -1.35237e-20)
(1 3.55333e-10 -1.22092e-19)
(1 3.88513e-10 2.38791e-20)
(1 2.97485e-10 -7.62304e-19)
(1.00014 -0.00137768 4.07091e-22)
(1.0021 -0.00415104 5.54221e-21)
(1.00655 -0.00708161 3.08056e-21)
(1.01333 -0.0102217 4.8235e-21)
(1.02275 -0.0135718 -9.94672e-20)
(1.03501 -0.0170076 6.63722e-20)
(1.05018 -0.0202948 -4.49618e-19)
(1.06805 -0.0229729 -9.87354e-19)
(1.08795 -0.0245373 2.13724e-18)
(1.10876 -0.0244074 4.07564e-19)
(1.12867 -0.0222245 -1.04004e-17)
(1.14591 -0.018298 -1.17001e-17)
(1.15922 -0.0129484 5.14668e-18)
(1.16752 -0.00655975 2.41357e-17)
(1.17011 0.0002688 2.87437e-17)
(1.16688 0.00686221 2.51434e-17)
(1.15835 0.0125327 1.71135e-17)
(1.14561 0.0167643 8.3351e-18)
(1.13009 0.0193378 2.07588e-18)
(1.11326 0.0203284 -6.08076e-19)
(1.09636 0.0200121 -9.78623e-19)
(1.08033 0.0187559 -1.48514e-19)
(1.06575 0.0169261 2.15705e-18)
(1.05291 0.0148335 4.58517e-18)
(1.04188 0.012706 1.01865e-18)
(1.03259 0.0106803 -1.4401e-17)
(1.02488 0.0088062 -3.51437e-17)
(1.01862 0.00707034 -3.85365e-17)
(1.01368 0.00543921 -3.54385e-18)
(1.00999 0.00390909 6.17756e-17)
(1.00745 0.00253598 1.13775e-16)
(1.0059 0.00142348 1.03564e-16)
(1.0051 0.000671386 2.16403e-17)
(1.00473 0.000315653 -8.79067e-17)
(1.00449 0.000298116 -1.58226e-16)
(1.00417 0.000484957 -1.49052e-16)
(1.00365 0.000720951 -7.31212e-17)
(1.00296 0.000886389 1.94757e-17)
(1.00219 0.000927329 7.91109e-17)
(1.00144 0.000850989 8.59656e-17)
(1.0008 0.00069895 5.29593e-17)
(1.0003 0.000518291 7.75405e-18)
(0.999952 0.000344269 -2.6583e-17)
(0.999741 0.000196451 -4.10674e-17)
(0.99964 8.25099e-05 -3.84798e-17)
(0.999619 3.17595e-06 -2.64634e-17)
(0.999649 -4.47268e-05 -1.25793e-17)
(0.999704 -6.69251e-05 -1.59603e-18)
(0.999766 -7.06917e-05 4.58267e-18)
(0.999822 -6.35207e-05 5.93369e-18)
(0.999868 -5.17425e-05 4.94934e-18)
(0.999903 -3.96524e-05 2.61847e-18)
(0.999929 -2.94245e-05 -9.91717e-21)
(0.999947 -2.1634e-05 -1.02966e-18)
(0.999961 -1.59874e-05 -1.23608e-18)
(0.999971 -1.19222e-05 -3.3493e-19)
(0.999978 -8.93763e-06 2.26927e-19)
(0.999984 -6.69469e-06 -1.80026e-19)
(0.999988 -4.98984e-06 -2.18031e-19)
(0.999991 -3.69771e-06 -4.16088e-19)
(0.999994 -2.7286e-06 1.25077e-19)
(0.999995 -2.0094e-06 2.28487e-19)
(0.999997 -1.47905e-06 2.32095e-19)
(0.999998 -1.08864e-06 3.09324e-19)
(0.999998 -8.00982e-07 -4.50719e-19)
(0.999999 -5.88768e-07 1.11733e-19)
(0.999999 -4.32154e-07 2.27283e-19)
(0.999999 -3.1664e-07 2.11382e-19)
(1 -2.31527e-07 2.69226e-19)
(1 -1.68868e-07 -4.96945e-19)
(1 -1.2277e-07 6.92141e-20)
(1 -8.88689e-08 1.9014e-19)
(1 -6.39496e-08 1.76544e-19)
(1 -4.56431e-08 2.34763e-19)
(1 -3.22056e-08 -5.27671e-19)
(1 -2.23523e-08 5.11763e-20)
(1 -1.5137e-08 1.95754e-19)
(1 -9.86227e-09 2.13055e-19)
(1 -6.0152e-09 3.0083e-19)
(1 -3.21759e-09 -4.43252e-19)
(1 -1.19164e-09 1.36336e-19)
(1 2.67551e-10 2.64169e-19)
(1 1.31029e-09 2.53636e-19)
(1 2.04761e-09 3.11813e-19)
(1 2.56073e-09 -4.55777e-19)
(1 2.90979e-09 1.10493e-19)
(1 3.13867e-09 2.33308e-19)
(1 3.27993e-09 2.30115e-19)
(1 3.35729e-09 2.70157e-19)
(1 3.38836e-09 -3.77009e-19)
(1 3.386e-09 -3.79996e-19)
(1 3.35967e-09 -3.16316e-19)
(1 3.31636e-09 -2.0784e-19)
(1 3.26113e-09 -1.02233e-19)
(1 3.1978e-09 -2.47752e-20)
(1 3.12901e-09 6.50774e-20)
(1 3.05694e-09 6.44877e-20)
(1 2.98284e-09 9.19075e-20)
(1 2.90806e-09 1.32021e-19)
(1 2.83307e-09 1.59988e-19)
(1 2.7588e-09 2.10168e-19)
(1 2.68525e-09 1.75102e-19)
(1 2.61315e-09 1.71773e-19)
(1 2.54221e-09 1.85434e-19)
(1 2.4731e-09 1.92152e-19)
(1 2.40534e-09 2.2646e-19)
(1 2.33958e-09 1.80198e-19)
(1 2.2752e-09 1.69224e-19)
(1 2.21288e-09 1.77731e-19)
(1 2.15189e-09 1.81004e-19)
(1 2.09296e-09 2.13006e-19)
(1 2.03526e-09 1.65132e-19)
(1 1.97958e-09 1.53031e-19)
(1 1.92502e-09 1.6122e-19)
(1 1.87242e-09 1.65934e-19)
(1 1.82081e-09 2.01813e-19)
(1 1.7711e-09 1.6004e-19)
(1 1.72226e-09 1.50412e-19)
(1 1.67525e-09 1.59452e-19)
(1 1.62897e-09 1.30135e-19)
(1 1.58446e-09 1.64481e-19)
(1 1.54058e-09 1.51925e-19)
(1 1.4984e-09 1.17e-19)
(1 1.45673e-09 9.21704e-20)
(1 1.4167e-09 4.95234e-20)
(1 1.37708e-09 9.71976e-20)
(1 1.33906e-09 1.15863e-19)
(1 1.30135e-09 1.15392e-19)
(1 1.26518e-09 1.1573e-19)
(1 1.22924e-09 8.33847e-20)
(1 1.19481e-09 1.28205e-19)
(1 1.16052e-09 1.36811e-19)
(1 1.12769e-09 1.25292e-19)
(1 1.09495e-09 1.17431e-19)
(1 1.06362e-09 8.06536e-20)
(1 1.03232e-09 1.2382e-19)
(1 1.00241e-09 1.32039e-19)
(1 9.72466e-10 1.20298e-19)
(1 9.43877e-10 1.11929e-19)
(1 9.15204e-10 7.4402e-20)
(1 8.87863e-10 1.16883e-19)
(1 8.60392e-10 1.24879e-19)
(1 8.34227e-10 1.13612e-19)
(1 8.0789e-10 1.06016e-19)
(1 7.82837e-10 6.80526e-20)
(1 7.57576e-10 1.06315e-19)
(1 7.33583e-10 1.03714e-19)
(1 7.09342e-10 7.46829e-20)
(1 6.86369e-10 4.47607e-20)
(1 6.63082e-10 -1.40947e-20)
(1 6.41138e-10 1.19706e-20)
(1 6.18677e-10 1.10026e-20)
(1 5.97985e-10 -2.24259e-21)
(1 5.75836e-10 -7.11722e-21)
(1 5.57649e-10 -3.92158e-20)
(1 5.3315e-10 7.49808e-21)
(1 5.24789e-10 2.03356e-20)
(1 4.83423e-10 3.16989e-21)
(1 5.22303e-10 1.98667e-20)
(1 4.09719e-10 -8.24553e-20)
(1.00013 -0.00191201 -3.33079e-20)
(1.00204 -0.00576389 -4.73206e-19)
(1.00637 -0.00985004 -8.87772e-19)
(1.01303 -0.0142547 -1.57943e-18)
(1.02236 -0.0189909 -2.04741e-18)
(1.03465 -0.0238946 -2.0446e-18)
(1.05005 -0.0286435 -7.80271e-18)
(1.06845 -0.0325674 6.44523e-18)
(1.08923 -0.0349307 3.44771e-18)
(1.11119 -0.0348298 -5.7508e-17)
(1.13227 -0.0317173 -3.55623e-17)
(1.15047 -0.0261097 1.49451e-16)
(1.16453 -0.0184682 2.92084e-16)
(1.17327 -0.00932306 2.5649e-16)
(1.17591 0.000463649 1.24165e-16)
(1.17231 0.00991392 1.51909e-17)
(1.16303 0.0180163 -5.51059e-17)
(1.14931 0.0240152 -9.93592e-17)
(1.13276 0.0276021 -1.19923e-16)
(1.115 0.0289071 -1.10597e-16)
(1.09738 0.0283503 -7.51165e-17)
(1.08084 0.0264746 -3.4424e-17)
(1.06595 0.0238121 -1.56935e-17)
(1.05298 0.0208059 -3.55522e-17)
(1.04193 0.0177765 -8.99969e-17)
(1.03268 0.0149119 -1.49734e-16)
(1.02505 0.0122782 -1.61914e-16)
(1.01887 0.00985259 -7.67272e-17)
(1.01401 0.00758408 9.86621e-17)
(1.01036 0.00546263 2.66699e-16)
(1.00782 0.00356138 2.84467e-16)
(1.00624 0.00202068 8.28034e-17)
(1.00538 0.000977328 -2.46181e-16)
(1.00494 0.000481284 -5.0506e-16)
(1.00464 0.000452975 -5.2493e-16)
(1.00425 0.000708013 -2.82349e-16)
(1.00368 0.00103181 9.38766e-17)
(1.00296 0.00125834 4.25166e-16)
(1.00216 0.00131227 5.83306e-16)
(1.0014 0.00120292 5.45445e-16)
(1.00074 0.000987484 3.70937e-16)
(1.00023 0.000731271 1.44176e-16)
(0.999887 0.000483767 -5.94314e-17)
(0.999684 0.000273074 -1.95813e-16)
(0.999596 0.000110801 -2.462e-16)
(0.999591 -1.46958e-06 -2.16942e-16)
(0.999635 -6.81692e-05 -1.38961e-16)
(0.999702 -9.77865e-05 -4.96908e-17)
(0.999771 -0.000101191 1.6374e-17)
(0.999831 -8.9479e-05 4.36219e-17)
(0.999878 -7.18548e-05 4.0217e-17)
(0.999912 -5.43865e-05 2.16202e-17)
(0.999935 -3.998e-05 3.77589e-18)
(0.999952 -2.92381e-05 -5.38042e-18)
(0.999964 -2.15781e-05 -7.26174e-18)
(0.999973 -1.61109e-05 -3.94423e-18)
(0.99998 -1.21e-05 -7.57617e-19)
(0.999985 -9.07347e-06 7.82459e-19)
(0.999989 -6.76301e-06 1.11725e-18)
(0.999992 -5.00821e-06 5.66003e-21)
(0.999994 -3.69256e-06 1.45049e-19)
(0.999996 -2.71784e-06 1.20053e-19)
(0.999997 -2.00034e-06 2.95886e-19)
(0.999998 -1.47273e-06 -2.24381e-19)
(0.999998 -1.08407e-06 -4.1171e-20)
(0.999999 -7.97269e-07 1.41423e-18)
(0.999999 -5.85549e-07 4.30613e-19)
(0.999999 -4.29371e-07 3.15499e-19)
(1 -3.14298e-07 -3.27165e-19)
(1 -2.2959e-07 -1.8681e-19)
(1 -1.6727e-07 1.27114e-18)
(1 -1.21437e-07 3.06282e-19)
(1 -8.77402e-08 2.08192e-19)
(1 -6.298e-08 -4.23163e-19)
(1 -4.47994e-08 -2.72773e-19)
(1 -3.14625e-08 1.19938e-18)
(1 -2.16905e-08 2.54367e-19)
(1 -1.45409e-08 1.78013e-19)
(1 -9.32023e-09 -4.36682e-19)
(1 -5.51768e-09 -2.80968e-19)
(1 -2.75761e-09 1.18341e-18)
(1 -7.6332e-10 2.21505e-19)
(1 6.68471e-10 1.27034e-19)
(1 1.6876e-09 -4.99254e-19)
(1 2.40398e-09 -3.44763e-19)
(1 2.89868e-09 1.12788e-18)
(1 3.23111e-09 1.78076e-19)
(1 3.44507e-09 9.87026e-20)
(1 3.57271e-09 -5.31361e-19)
(1 3.63765e-09 -3.31441e-19)
(1 3.6573e-09 9.86506e-19)
(1 3.64433e-09 4.14215e-19)
(1 3.60823e-09 7.61242e-19)
(1 3.55569e-09 7.00624e-19)
(1 3.49196e-09 5.63895e-19)
(1 3.42047e-09 6.18077e-19)
(1 3.34421e-09 -1.35594e-19)
(1 3.26481e-09 2.77115e-19)
(1 3.1841e-09 3.23911e-19)
(1 3.10269e-09 2.84947e-19)
(1 3.0218e-09 4.15148e-19)
(1 2.94146e-09 -2.84378e-19)
(1 2.86262e-09 1.65057e-19)
(1 2.78492e-09 2.36842e-19)
(1 2.7092e-09 2.15973e-19)
(1 2.63489e-09 3.60426e-19)
(1 2.56279e-09 -3.273e-19)
(1 2.49216e-09 1.31916e-19)
(1 2.42382e-09 2.11612e-19)
(1 2.3569e-09 1.96953e-19)
(1 2.29229e-09 3.46104e-19)
(1 2.22899e-09 -3.38319e-19)
(1 2.16795e-09 1.23027e-19)
(1 2.10811e-09 2.04388e-19)
(1 2.05046e-09 1.92425e-19)
(1 1.99387e-09 3.46661e-19)
(1 1.9394e-09 -3.28675e-19)
(1 1.88585e-09 1.36777e-19)
(1 1.83434e-09 2.42562e-19)
(1 1.78362e-09 1.14073e-19)
(1 1.73487e-09 7.78814e-19)
(1 1.68678e-09 2.53272e-19)
(1 1.64058e-09 9.19851e-20)
(1 1.59492e-09 4.99052e-20)
(1 1.55108e-09 -9.53231e-20)
(1 1.50768e-09 5.98975e-19)
(1 1.46604e-09 1.21571e-19)
(1 1.42473e-09 1.02757e-20)
(1 1.38513e-09 8.11427e-21)
(1 1.34576e-09 -1.12837e-19)
(1 1.30806e-09 5.91148e-19)
(1 1.2705e-09 1.14066e-19)
(1 1.23457e-09 -3.55541e-22)
(1 1.1987e-09 -5.04931e-21)
(1 1.16441e-09 -1.26496e-19)
(1 1.13013e-09 5.78622e-19)
(1 1.09739e-09 1.03246e-19)
(1 1.0646e-09 -9.72718e-21)
(1 1.03331e-09 -1.35502e-20)
(1 1.00191e-09 -1.34623e-19)
(1 9.71989e-10 5.70683e-19)
(1 9.4191e-10 9.56971e-20)
(1 9.13275e-10 -1.64324e-20)
(1 8.84441e-10 -1.92806e-20)
(1 8.57028e-10 -1.40586e-19)
(1 8.29376e-10 5.60944e-19)
(1 8.03127e-10 7.62587e-20)
(1 7.76596e-10 -5.22382e-20)
(1 7.51472e-10 -7.5739e-20)
(1 7.25989e-10 -2.16452e-19)
(1 7.02013e-10 4.73649e-19)
(1 6.7743e-10 -9.69033e-21)
(1 6.54871e-10 -1.23701e-19)
(1 6.30595e-10 -1.24095e-19)
(1 6.10858e-10 -2.3986e-19)
(1 5.84062e-10 4.68712e-19)
(1 5.74465e-10 2.12399e-21)
(1 5.31317e-10 -1.35553e-19)
(1 5.64938e-10 -1.05987e-20)
(1 4.55618e-10 -7.44e-19)
(1.00013 -0.00242807 -2.2076e-18)
(1.00195 -0.00732461 -7.17368e-18)
(1.00613 -0.0125463 -6.21746e-18)
(1.01259 -0.0182205 -9.08377e-18)
(1.02178 -0.0243859 -3.34738e-18)
(1.03406 -0.0308515 -2.05128e-17)
(1.04975 -0.0372149 3.48999e-18)
(1.06885 -0.0425715 5.28144e-17)
(1.09081 -0.0459262 -2.11085e-16)
(1.11439 -0.0459418 -6.96464e-17)
(1.13709 -0.0418326 8.58535e-16)
(1.15662 -0.0344283 1.20714e-15)
(1.1717 -0.0243395 -1.24507e-17)
(1.18105 -0.0122255 -1.73741e-15)
(1.18376 0.000770361 -2.41396e-15)
(1.17964 0.0133279 -2.35824e-15)
(1.16931 0.024051 -1.92286e-15)
(1.15422 0.0319032 -1.44377e-15)
(1.13625 0.0364849 -1.05632e-15)
(1.11723 0.0380112 -7.35799e-16)
(1.09863 0.0370848 -4.20135e-16)
(1.08142 0.0344584 -1.4367e-16)
(1.06616 0.0308499 -4.72539e-17)
(1.05301 0.0268441 -2.1659e-16)
(1.04194 0.022854 -5.26431e-16)
(1.03277 0.0191162 -6.56092e-16)
(1.02526 0.015708 -3.17458e-16)
(1.0192 0.0125931 4.22872e-16)
(1.01443 0.00969858 1.05019e-15)
(1.01084 0.00700393 9.19481e-16)
(1.00831 0.00459464 -1.47909e-16)
(1.00669 0.00264315 -1.534e-15)
(1.00575 0.00131986 -2.20906e-15)
(1.00521 0.000687436 -1.55576e-15)
(1.00481 0.00064583 1.4594e-16)
(1.00433 0.000962542 2.00445e-15)
(1.0037 0.00136641 3.22851e-15)
(1.00292 0.00164713 3.58866e-15)
(1.00209 0.00170873 3.34365e-15)
(1.0013 0.00156229 2.84457e-15)
(1.00063 0.00127976 2.22418e-15)
(1.00012 0.000944096 1.4169e-15)
(0.999777 0.000619075 3.97439e-16)
(0.999589 0.000342002 -6.41409e-16)
(0.999523 0.000129242 -1.36023e-15)
(0.999543 -1.62917e-05 -1.51769e-15)
(0.999611 -0.000100412 -1.14889e-15)
(0.999696 -0.000135008 -5.32642e-16)
(0.999777 -0.000135369 7.09374e-18)
(0.999842 -0.000116866 2.84969e-16)
(0.99989 -9.1909e-05 3.03933e-16)
(0.999922 -6.83363e-05 1.80973e-16)
(0.999943 -4.95784e-05 4.53672e-17)
(0.999958 -3.60061e-05 -3.18646e-17)
(0.999968 -2.6544e-05 -4.79688e-17)
(0.999976 -1.98649e-05 -2.92762e-17)
(0.999982 -1.49608e-05 -7.30212e-18)
(0.999987 -1.12342e-05 4.07416e-18)
(0.99999 -8.37097e-06 6.23674e-18)
(0.999993 -6.19079e-06 2.93282e-18)
(0.999995 -4.55808e-06 1.25931e-18)
(0.999996 -3.35198e-06 1.56686e-19)
(0.999997 -2.46659e-06 1.60269e-20)
(0.999998 -1.81647e-06 3.76397e-19)
(0.999998 -1.33767e-06 -2.83028e-19)
(0.999999 -9.84211e-07 9.46842e-19)
(0.999999 -7.23168e-07 5.22134e-19)
(0.999999 -5.30584e-07 3.44618e-19)
(1 -3.88706e-07 3.79305e-19)
(1 -2.84286e-07 -5.02097e-19)
(1 -2.07471e-07 6.86349e-19)
(1 -1.50976e-07 3.16356e-19)
(1 -1.09436e-07 2.03632e-19)
(1 -7.89068e-08 2.79687e-19)
(1 -5.64851e-08 -5.79438e-19)
(1 -4.00317e-08 6.26038e-19)
(1 -2.79707e-08 2.75139e-19)
(1 -1.91407e-08 1.81937e-19)
(1 -1.26873e-08 2.71677e-19)
(1 -7.98073e-09 -5.85032e-19)
(1 -4.55833e-09 6.10867e-19)
(1 -2.07914e-09 2.43114e-19)
(1 -2.92683e-10 1.33635e-19)
(1 9.85552e-10 2.14741e-19)
(1 1.891e-09 -6.40163e-19)
(1 2.52347e-09 5.66562e-19)
(1 2.95613e-09 2.11012e-19)
(1 3.24289e-09 1.22951e-19)
(1 3.42329e-09 1.66654e-19)
(1 3.52639e-09 -4.64183e-19)
(1 3.57358e-09 -3.81985e-19)
(1 3.58042e-09 -9.00412e-19)
(1 3.55852e-09 -8.41598e-19)
(1 3.51616e-09 -8.25024e-19)
(1 3.45967e-09 -1.76897e-19)
(1 3.39334e-09 1.24369e-19)
(1 3.32073e-09 -4.22117e-19)
(1 3.24394e-09 -4.30297e-19)
(1 3.16506e-09 -4.73821e-19)
(1 3.08497e-09 1.24794e-19)
(1 3.00502e-09 3.82555e-19)
(1 2.92539e-09 -2.04689e-19)
(1 2.84705e-09 -2.5115e-19)
(1 2.76977e-09 -3.28986e-19)
(1 2.69437e-09 2.40792e-19)
(1 2.62036e-09 4.75664e-19)
(1 2.5485e-09 -1.29151e-19)
(1 2.47813e-09 -1.89052e-19)
(1 2.41e-09 -2.77379e-19)
(1 2.34333e-09 2.83963e-19)
(1 2.27892e-09 5.11799e-19)
(1 2.21588e-09 -9.91815e-20)
(1 2.15505e-09 -1.64663e-19)
(1 2.09547e-09 -2.57638e-19)
(1 2.03803e-09 3.0128e-19)
(1 1.98171e-09 5.30455e-19)
(1 1.92746e-09 -7.42877e-20)
(1 1.87418e-09 -1.33095e-19)
(1 1.82289e-09 -2.16426e-19)
(1 1.77245e-09 3.20713e-19)
(1 1.72391e-09 5.60963e-19)
(1 1.67609e-09 -5.95329e-21)
(1 1.6301e-09 -8.92699e-20)
(1 1.58472e-09 -2.15043e-19)
(1 1.5411e-09 2.92402e-19)
(1 1.49797e-09 5.25928e-19)
(1 1.45653e-09 -2.85926e-20)
(1 1.41549e-09 -9.12547e-20)
(1 1.37609e-09 -1.99164e-19)
(1 1.33699e-09 3.16914e-19)
(1 1.29948e-09 5.49322e-19)
(1 1.26219e-09 -1.24746e-20)
(1 1.22644e-09 -8.39423e-20)
(1 1.19083e-09 -1.98931e-19)
(1 1.15672e-09 3.1289e-19)
(1 1.1227e-09 5.43357e-19)
(1 1.09013e-09 -1.91392e-20)
(1 1.05759e-09 -9.09359e-20)
(1 1.02646e-09 -2.06296e-19)
(1 9.95314e-10 3.0507e-19)
(1 9.65549e-10 5.35179e-19)
(1 9.35716e-10 -2.72994e-20)
(1 9.07238e-10 -9.85303e-20)
(1 8.78646e-10 -2.13134e-19)
(1 8.51385e-10 2.97844e-19)
(1 8.23974e-10 5.24116e-19)
(1 7.97879e-10 -4.79961e-20)
(1 7.71589e-10 -1.35389e-19)
(1 7.46623e-10 -2.70333e-19)
(1 7.2138e-10 2.21589e-19)
(1 6.97578e-10 4.36744e-19)
(1 6.73225e-10 -1.33809e-19)
(1 6.50878e-10 -2.06619e-19)
(1 6.26818e-10 -3.1847e-19)
(1 6.0731e-10 1.98372e-19)
(1 5.80889e-10 4.31796e-19)
(1 5.70625e-10 -1.21584e-19)
(1 5.30356e-10 -2.1955e-19)
(1 5.54358e-10 -2.03728e-19)
(1 4.60505e-10 -2.89741e-19)
(1.00012 -0.00291869 2.31234e-18)
(1.00184 -0.00881225 8.15756e-18)
(1.00578 -0.0151389 6.95882e-18)
(1.01198 -0.022084 7.7647e-18)
(1.02094 -0.0297295 2.52147e-17)
(1.03315 -0.0378781 -7.22937e-17)
(1.04915 -0.0460604 3.04355e-16)
(1.0691 -0.0531095 -5.30622e-16)
(1.0926 -0.0577338 -4.60945e-16)
(1.11834 -0.0579875 3.43219e-15)
(1.14317 -0.0527777 2.44755e-15)
(1.16439 -0.0434198 -8.7478e-15)
(1.18081 -0.0306839 -2.13799e-14)
(1.19099 -0.0153315 -2.47899e-14)
(1.1938 0.00118368 -1.87809e-14)
(1.189 0.0171575 -1.15564e-14)
(1.17727 0.0307325 -5.54226e-15)
(1.16036 0.0405377 -1.3675e-15)
(1.14052 0.0460813 9.36971e-16)
(1.11987 0.0477039 1.8905e-15)
(1.10002 0.046243 2.24845e-15)
(1.08199 0.0427035 2.3739e-15)
(1.06627 0.0380145 2.03532e-15)
(1.05294 0.0329114 9.93077e-16)
(1.04188 0.0278985 -1.5094e-16)
(1.03282 0.0232548 3.20768e-17)
(1.02547 0.0190624 2.45638e-15)
(1.01958 0.0152657 5.85075e-15)
(1.01495 0.0117653 6.85144e-15)
(1.01143 0.00852508 2.77927e-15)
(1.00891 0.00563734 -4.92427e-15)
(1.00724 0.00330075 -1.04633e-14)
(1.0062 0.00171473 -8.10303e-15)
(1.00554 0.000952647 2.49295e-15)
(1.00501 0.000895043 1.5498e-14)
(1.00442 0.00126458 2.36896e-14)
(1.00369 0.00173745 2.40586e-14)
(1.00285 0.0020621 1.92713e-14)
(1.00198 0.00212321 1.44081e-14)
(1.00116 0.00193325 1.24654e-14)
(1.00047 0.00157789 1.24569e-14)
(0.999955 0.00115691 1.11755e-14)
(0.999623 0.000748489 6.55671e-15)
(0.999457 0.000400061 -4.20289e-16)
(0.999423 0.000133861 -6.62971e-15)
(0.999478 -4.52542e-05 -9.31167e-15)
(0.999578 -0.000144728 -7.9615e-15)
(0.999688 -0.0001808 -4.25706e-15)
(0.999784 -0.000174364 -5.61491e-16)
(0.999856 -0.000146 1.57276e-15)
(0.999904 -0.000111749 1.93989e-15)
(0.999934 -8.11758e-05 1.2546e-15)
(0.999952 -5.7912e-05 3.85814e-16)
(0.999964 -4.17235e-05 -1.56141e-16)
(0.999973 -3.07624e-05 -2.96475e-16)
(0.999979 -2.31214e-05 -2.042e-16)
(0.999985 -1.74864e-05 -6.72881e-17)
(0.999989 -1.31536e-05 1.63365e-17)
(0.999992 -9.7935e-06 3.63054e-17)
(0.999994 -7.2276e-06 2.34961e-17)
(0.999996 -5.3105e-06 5.99854e-18)
(0.999997 -3.90071e-06 -2.98932e-18)
(0.999998 -2.86978e-06 -4.13189e-18)
(0.999998 -2.11417e-06 -2.95643e-18)
(0.999999 -1.55764e-06 -7.82507e-19)
(0.999999 -1.14646e-06 1.41265e-19)
(0.999999 -8.42604e-07 1.92447e-19)
(0.999999 -6.18407e-07 1.66967e-19)
(1 -4.5328e-07 -6.18632e-19)
(1 -3.31791e-07 -2.24297e-19)
(1 -2.42435e-07 -1.12886e-20)
(1 -1.76718e-07 3.56163e-20)
(1 -1.28392e-07 1.89302e-19)
(1 -9.28718e-08 -4.89248e-19)
(1 -6.67803e-08 -8.24225e-20)
(1 -4.76302e-08 1.06058e-19)
(1 -3.35885e-08 1.3439e-19)
(1 -2.33042e-08 2.84751e-19)
(1 -1.57831e-08 -3.91317e-19)
(1 -1.02932e-08 1.23829e-20)
(1 -6.29602e-09 1.86825e-19)
(1 -3.39533e-09 1.92051e-19)
(1 -1.29981e-09 3.16539e-19)
(1 2.05065e-10 -3.81306e-19)
(1 1.27677e-09 8.89567e-21)
(1 2.0313e-09 1.78655e-19)
(1 2.55369e-09 1.84831e-19)
(1 2.90658e-09 3.14706e-19)
(1 3.13587e-09 -3.84864e-19)
(1 3.2753e-09 2.14731e-20)
(1 3.34966e-09 1.65128e-19)
(1 3.37705e-09 1.33616e-20)
(1 3.37087e-09 6.56317e-19)
(1 3.34073e-09 1.42098e-19)
(1 3.29392e-09 2.35722e-20)
(1 3.23546e-09 6.78768e-20)
(1 3.16939e-09 -8.96467e-20)
(1 3.09818e-09 5.71316e-19)
(1 3.02419e-09 8.11794e-20)
(1 2.94848e-09 -1.50517e-20)
(1 2.87253e-09 4.51912e-20)
(1 2.79663e-09 -1.04164e-19)
(1 2.7218e-09 5.58621e-19)
(1 2.64788e-09 6.68553e-20)
(1 2.57569e-09 -3.16839e-20)
(1 2.50481e-09 2.72259e-20)
(1 2.43595e-09 -1.22086e-19)
(1 2.36852e-09 5.41749e-19)
(1 2.30324e-09 5.1475e-20)
(1 2.23937e-09 -4.55737e-20)
(1 2.17767e-09 1.45176e-20)
(1 2.1173e-09 -1.34151e-19)
(1 2.05904e-09 5.29779e-19)
(1 2.00201e-09 3.95971e-20)
(1 1.94703e-09 -5.59219e-20)
(1 1.89314e-09 8.5362e-21)
(1 1.84122e-09 -1.30773e-19)
(1 1.79026e-09 5.38164e-19)
(1 1.7412e-09 7.82047e-20)
(1 1.69297e-09 -1.35404e-19)
(1 1.64655e-09 4.63198e-19)
(1 1.60084e-09 5.14794e-19)
(1 1.55687e-09 5.66297e-19)
(1 1.5135e-09 -4.86483e-20)
(1 1.4718e-09 -2.92784e-19)
(1 1.43059e-09 3.19179e-19)
(1 1.39099e-09 4.02926e-19)
(1 1.35178e-09 4.90792e-19)
(1 1.31413e-09 -9.40858e-20)
(1 1.27678e-09 -3.19692e-19)
(1 1.24093e-09 2.99586e-19)
(1 1.20532e-09 3.83369e-19)
(1 1.17116e-09 4.68656e-19)
(1 1.13716e-09 -1.18186e-19)
(1 1.10458e-09 -3.43989e-19)
(1 1.07209e-09 2.76517e-19)
(1 1.04098e-09 3.62101e-19)
(1 1.00991e-09 4.49094e-19)
(1 9.80187e-10 -1.364e-19)
(1 9.5045e-10 -3.61171e-19)
(1 9.22026e-10 2.60268e-19)
(1 8.9355e-10 3.46977e-19)
(1 8.66359e-10 4.35465e-19)
(1 8.39073e-10 -1.48513e-19)
(1 8.13051e-10 -3.73079e-19)
(1 7.86897e-10 2.44957e-19)
(1 7.61993e-10 3.22313e-19)
(1 7.36916e-10 3.948e-19)