/*--------------------------------*- C++ -*----------------------------------*\
  =========                 |
  \\      /  F ield         | OpenFOAM: The Open Source CFD Toolbox
   \\    /   O peration     | Website:  https://openfoam.org
    \\  /    A nd           | Version:  11
     \\/     M anipulation  |
\*---------------------------------------------------------------------------*/
FoamFile
{
    format      ascii;
    class       surfaceScalarField;
    location    "2.641308";
    object      phi;
}
// * * * * * * * * * * * * * * * * * * * * * * * * * * * * * * * * * * * * * //

dimensions      [0 3 -1 0 0 0 0];

internalField   nonuniform List<scalar> 
14638
(
0.00250286
-2.86436e-06
0.0025115
-8.63808e-06
0.00252626
-1.47566e-05
0.00254759
-2.1335e-05
0.00257599
-2.83956e-05
0.00261171
-3.57215e-05
0.0026546
-4.2892e-05
0.00270368
-4.90777e-05
0.00275705
-5.3372e-05
0.00281182
-5.47697e-05
0.00286446
-5.26326e-05
0.00291193
-4.74765e-05
0.00295168
-3.97499e-05
0.0029816
-2.99227e-05
0.00300014
-1.85393e-05
0.00300632
-6.17993e-06
0.00299992
6.40533e-06
0.00298161
1.83127e-05
0.002953
2.86076e-05
0.00291647
3.65254e-05
0.00287482
4.16509e-05
0.00283084
4.39822e-05
0.00278698
4.3861e-05
0.00274514
4.18352e-05
0.00270663
3.85157e-05
0.00267216
3.44694e-05
0.002642
3.01586e-05
0.00261608
2.59202e-05
0.00259411
2.19733e-05
0.00257567
1.84392e-05
0.0025603
1.53662e-05
0.00254755
1.27533e-05
0.00253698
1.05688e-05
0.00252821
8.76509e-06
0.00252093
7.28798e-06
0.00251484
6.08365e-06
0.00250974
5.10284e-06
0.00250544
4.3036e-06
0.00250178
3.65203e-06
0.00249866
3.11946e-06
0.00249599
2.67533e-06
0.00249371
2.278e-06
0.00249184
1.86966e-06
0.00249046
1.38324e-06
0.00248969
7.64668e-07
0.00248969
4.20941e-09
0.00249053
-8.39067e-07
0.00249217
-1.63769e-06
0.00249439
-2.22936e-06
0.00249687
-2.47438e-06
0.00249918
-2.3124e-06
0.00250097
-1.79116e-06
0.00250203
-1.05277e-06
0.00250231
-2.83696e-07
0.00250196
3.47887e-07
0.00250122
7.4015e-07
0.00250035
8.74082e-07
0.00249955
7.98301e-07
0.00249895
5.95814e-07
0.0024986
3.50246e-07
0.00249848
1.23862e-07
0.00249853
-4.94241e-08
0.00249869
-1.59978e-07
0.0024989
-2.13779e-07
0.00249913
-2.24156e-07
0.00249933
-2.06083e-07
0.00249951
-1.73035e-07
0.00249964
-1.35518e-07
0.00249974
-1.00577e-07
0.00249981
-7.19231e-08
0.00249986
-5.05567e-08
0.0024999
-3.56923e-08
0.00249993
-2.57343e-08
0.00249994
-1.90403e-08
0.00249996
-1.43429e-08
0.00249997
-1.08507e-08
0.00249998
-8.15092e-09
0.00249998
-6.04958e-09
0.00249999
-4.44182e-09
0.00249999
-3.24237e-09
0.00249999
-2.36583e-09
0.0025
-1.73125e-09
0.0025
-1.27094e-09
0.0025
-9.34273e-10
0.0025
-6.8605e-10
0.0025
-5.02356e-10
0.0025
-3.66531e-10
0.0025
-2.66427e-10
0.0025
-1.92881e-10
0.0025
-1.38943e-10
0.0025
-9.93986e-11
0.0025
-7.04023e-11
0.0025
-4.91411e-11
0.0025
-3.35668e-11
0.0025
-2.2175e-11
0.0025
-1.38642e-11
0.0025
-7.81615e-12
0.0025
-3.43411e-12
0.0025
-2.72725e-13
0.0025
1.99091e-12
0.0025
3.59806e-12
0.0025
4.72019e-12
0.0025
5.49153e-12
0.0025
6.00138e-12
0.0025
6.32529e-12
0.0025
6.5085e-12
0.0025
6.59495e-12
0.0025
6.60594e-12
0.0025
6.56842e-12
0.0025
6.49058e-12
0.0025
6.39033e-12
0.0025
6.26864e-12
0.0025
6.13866e-12
0.0025
5.99734e-12
0.0025
5.85535e-12
0.0025
5.7074e-12
0.0025
5.56289e-12
0.0025
5.41522e-12
0.0025
5.27317e-12
0.0025
5.12937e-12
0.0025
4.99234e-12
0.0025
4.85421e-12
0.0025
4.7234e-12
0.0025
4.59171e-12
0.0025
4.46757e-12
0.0025
4.34257e-12
0.0025
4.22514e-12
0.0025
4.10673e-12
0.0025
3.99584e-12
0.0025
3.88378e-12
0.0025
3.77912e-12
0.0025
3.67306e-12
0.0025
3.57426e-12
0.0025
3.47383e-12
0.0025
3.38051e-12
0.0025
3.28535e-12
0.0025
3.19713e-12
0.0025
3.10686e-12
0.0025
3.02336e-12
0.0025
2.93763e-12
0.0025
2.85852e-12
0.0025
2.77698e-12
0.0025
2.70194e-12
0.0025
2.6243e-12
0.0025
2.55304e-12
0.0025
2.47903e-12
0.0025
2.41131e-12
0.0025
2.34072e-12
0.0025
2.27641e-12
0.0025
2.209e-12
0.0025
2.14809e-12
0.0025
2.08326e-12
0.0025
2.02622e-12
0.0025
1.96175e-12
0.0025
1.91293e-12
0.0025
1.83939e-12
0.0025
1.8259e-12
0.0025
1.69123e-12
0.0025
1.85057e-12
1.45649e-12
0.00250284
-5.70292e-06
0.00251141
-1.72049e-05
0.00252606
-2.94125e-05
0.0025473
-4.25767e-05
0.00257566
-5.67557e-05
0.00261147
-7.15286e-05
0.00265464
-8.6061e-05
0.00270422
-9.86585e-05
0.00275832
-0.000107469
0.00281392
-0.000110372
0.00286733
-0.000106038
0.00291547
-9.56176e-05
0.00295575
-8.00386e-05
0.00298608
-6.02452e-05
0.00300486
-3.73197e-05
0.00301109
-1.24076e-05
0.0030045
1.29861e-05
0.00298579
3.7025e-05
0.0029566
5.77963e-05
0.0029194
7.37331e-05
0.00287706
8.39912e-05
0.00283246
8.85803e-05
0.0027881
8.82137e-05
0.00274592
8.40192e-05
0.00270719
7.72444e-05
0.00267262
6.90388e-05
0.00264245
6.03327e-05
0.00261657
5.17999e-05
0.00259467
4.38738e-05
0.00257632
3.67915e-05
0.00256104
3.06441e-05
0.00254837
2.5425e-05
0.00253787
2.10673e-05
0.00252916
1.74729e-05
0.00252192
1.45322e-05
0.00251586
1.21365e-05
0.00251078
1.01867e-05
0.00250648
8.59874e-06
0.00250283
7.30459e-06
0.0024997
6.24711e-06
0.00249701
5.36586e-06
0.00249471
4.5788e-06
0.00249281
3.77196e-06
0.00249138
2.81249e-06
0.00249055
1.59217e-06
0.00249047
8.96081e-08
0.00249121
-1.58068e-06
0.00249274
-3.16777e-06
0.00249486
-4.34988e-06
0.00249723
-4.84799e-06
0.00249946
-4.53912e-06
0.00250118
-3.51477e-06
0.00250219
-2.05496e-06
0.00250243
-5.29707e-07
0.00250205
7.2546e-07
0.00250129
1.50583e-06
0.00250039
1.77129e-06
0.00249957
1.61708e-06
0.00249896
1.20808e-06
0.0024986
7.11543e-07
0.00249847
2.52877e-07
0.00249852
-9.88708e-08
0.00249868
-3.23465e-07
0.0024989
-4.32493e-07
0.00249913
-4.52868e-07
0.00249934
-4.15224e-07
0.00249951
-3.47291e-07
0.00249965
-2.70698e-07
0.00249975
-1.99845e-07
0.00249982
-1.42183e-07
0.00249987
-9.95476e-08
0.0024999
-7.01475e-08
0.00249993
-5.06045e-08
0.00249995
-3.75241e-08
0.00249996
-2.83367e-08
0.00249997
-2.14727e-08
0.00249998
-1.61373e-08
0.00249998
-1.19709e-08
0.00249999
-8.78109e-09
0.00249999
-6.40448e-09
0.00249999
-4.67132e-09
0.0025
-3.41884e-09
0.0025
-2.51108e-09
0.0025
-1.84702e-09
0.0025
-1.35704e-09
0.0025
-9.94177e-10
0.0025
-7.25775e-10
0.0025
-5.27962e-10
0.0025
-3.8266e-10
0.0025
-2.76114e-10
0.0025
-1.98003e-10
0.0025
-1.40718e-10
0.0025
-9.87048e-11
0.0025
-6.79184e-11
0.0025
-4.53923e-11
0.0025
-2.89495e-11
0.0025
-1.6977e-11
0.0025
-8.29314e-12
0.0025
-2.01983e-12
0.0025
2.48035e-12
0.0025
5.68385e-12
0.0025
7.93154e-12
0.0025
9.48446e-12
0.0025
1.05233e-11
0.0025
1.11925e-11
0.0025
1.15863e-11
0.0025
1.17864e-11
0.0025
1.18397e-11
0.0025
1.17944e-11
0.0025
1.16718e-11
0.0025
1.15019e-11
0.0025
1.12919e-11
0.0025
1.10624e-11
0.0025
1.08127e-11
0.0025
1.05585e-11
0.0025
1.02946e-11
0.0025
1.00343e-11
0.0025
9.76983e-12
0.0025
9.51315e-12
0.0025
9.25515e-12
0.0025
9.00716e-12
0.0025
8.75913e-12
0.0025
8.5222e-12
0.0025
8.28569e-12
0.0025
8.06075e-12
0.0025
7.83622e-12
0.0025
7.6234e-12
0.0025
7.41074e-12
0.0025
7.20972e-12
0.0025
7.00851e-12
0.0025
6.81873e-12
0.0025
6.62834e-12
0.0025
6.44915e-12
0.0025
6.26892e-12
0.0025
6.09964e-12
0.0025
5.92889e-12
0.0025
5.76883e-12
0.0025
5.60689e-12
0.0025
5.45538e-12
0.0025
5.3016e-12
0.0025
5.15802e-12
0.0025
5.01183e-12
0.0025
4.87561e-12
0.0025
4.73644e-12
0.0025
4.60706e-12
0.0025
4.47443e-12
0.0025
4.35145e-12
0.0025
4.22492e-12
0.0025
4.10804e-12
0.0025
3.98714e-12
0.0025
3.87637e-12
0.0025
3.76012e-12
0.0025
3.65674e-12
0.0025
3.54147e-12
0.0025
3.45366e-12
0.0025
3.32212e-12
0.0025
3.29646e-12
0.0025
3.05808e-12
0.0025
3.32415e-12
2.65037e-12
0.00250279
-8.4893e-06
0.0025112
-2.56215e-05
0.00252565
-4.38594e-05
0.00254669
-6.36187e-05
0.00257496
-8.50279e-05
0.00261093
-0.000107491
0.00265464
-0.000129774
0.00270523
-0.000149248
0.0027608
-0.000163041
0.0028181
-0.000167667
0.00287306
-0.000161001
0.00292253
-0.00014509
0.0029639
-0.000121403
0.00299501
-9.13642e-05
0.00301427
-5.65798e-05
0.00302059
-1.87249e-05
0.00301365
1.99315e-05
0.00299411
5.65627e-05
0.00296372
8.81862e-05
0.0029251
0.000112352
0.00288133
0.000127756
0.00283547
0.000134449
0.0027901
0.000133576
0.00274721
0.000126916
0.00270805
0.000116404
0.00267328
0.000103806
0.00264308
9.05315e-05
0.00261729
7.75891e-05
0.00259555
6.56178e-05
0.00257738
5.49584e-05
0.00256229
4.57339e-05
0.00254979
3.79219e-05
0.00253945
3.14134e-05
0.00253087
2.6055e-05
0.00252372
2.1678e-05
0.00251774
1.81172e-05
0.0025127
1.52225e-05
0.00250844
1.28671e-05
0.00250479
1.09489e-05
0.00250166
9.38236e-06
0.00249894
8.07787e-06
0.00249661
6.91484e-06
0.00249465
5.72569e-06
0.00249315
4.3142e-06
0.00249223
2.51912e-06
0.00249201
3.05774e-07
0.00249259
-2.16019e-06
0.00249393
-4.51038e-06
0.00249585
-6.26903e-06
0.00249802
-7.02079e-06
0.00250006
-6.5795e-06
0.00250163
-5.07666e-06
0.0025025
-2.9247e-06
0.00250264
-6.71976e-07
0.00250218
1.18213e-06
0.00250136
2.33109e-06
0.00250041
2.71281e-06
0.00249956
2.46734e-06
0.00249893
1.83992e-06
0.00249856
1.081e-06
0.00249844
3.7988e-07
0.00249849
-1.57956e-07
0.00249867
-5.0059e-07
0.0024989
-6.65001e-07
0.00249914
-6.9248e-07
0.00249936
-6.3077e-07
0.00249954
-5.23398e-07
0.00249967
-4.04239e-07
0.00249976
-2.95528e-07
0.00249983
-2.08334e-07
0.00249988
-1.44871e-07
0.00249991
-1.01809e-07
0.00249993
-7.35738e-08
0.00249995
-5.48018e-08
0.00249996
-4.15726e-08
0.00249997
-3.1588e-08
0.00249998
-2.37495e-08
0.00249998
-1.75958e-08
0.00249999
-1.28828e-08
0.00249999
-9.38153e-09
0.00249999
-6.83847e-09
0.0025
-5.00658e-09
0.0025
-3.68051e-09
0.0025
-2.70982e-09
0.0025
-1.99252e-09
0.0025
-1.46061e-09
0.0025
-1.06696e-09
0.0025
-7.76875e-10
0.0025
-5.63893e-10
0.0025
-4.07774e-10
0.0025
-2.93327e-10
0.0025
-2.09375e-10
0.0025
-1.4778e-10
0.0025
-1.02624e-10
0.0025
-6.95684e-11
0.0025
-4.54243e-11
0.0025
-2.78302e-11
0.0025
-1.50526e-11
0.0025
-5.80631e-12
0.0025
8.43744e-13
0.0025
5.59408e-12
0.0025
8.94581e-12
0.0025
1.12788e-11
0.0025
1.28601e-11
0.0025
1.38988e-11
0.0025
1.45351e-11
0.0025
1.48861e-11
0.0025
1.50232e-11
0.0025
1.50138e-11
0.0025
1.48921e-11
0.0025
1.46987e-11
0.0025
1.44476e-11
0.0025
1.41651e-11
0.0025
1.38541e-11
0.0025
1.35334e-11
0.0025
1.31996e-11
0.0025
1.28678e-11
0.0025
1.25309e-11
0.0025
1.22022e-11
0.0025
1.18725e-11
0.0025
1.15541e-11
0.0025
1.12368e-11
0.0025
1.09322e-11
0.0025
1.06294e-11
0.0025
1.03401e-11
0.0025
1.00527e-11
0.0025
9.77883e-12
0.0025
9.50663e-12
0.0025
9.24793e-12
0.0025
8.99042e-12
0.0025
8.74616e-12
0.0025
8.50258e-12
0.0025
8.27191e-12
0.0025
8.04141e-12
0.0025
7.82346e-12
0.0025
7.60515e-12
0.0025
7.39903e-12
0.0025
7.19204e-12
0.0025
6.9969e-12
0.0025
6.80041e-12
0.0025
6.61544e-12
0.0025
6.42869e-12
0.0025
6.25317e-12
0.0025
6.07546e-12
0.0025
5.9087e-12
0.0025
5.73939e-12
0.0025
5.58085e-12
0.0025
5.41936e-12
0.0025
5.26863e-12
0.0025
5.11434e-12
0.0025
4.97151e-12
0.0025
4.82313e-12
0.0025
4.69004e-12
0.0025
4.54291e-12
0.0025
4.4301e-12
0.0025
4.26245e-12
0.0025
4.22599e-12
0.0025
3.9309e-12
0.0025
4.22999e-12
3.43095e-12
0.0025027
-1.11933e-05
0.00251088
-3.38004e-05
0.00252499
-5.79701e-05
0.0025457
-8.43287e-05
0.0025738
-0.000113128
0.00260996
-0.000143646
0.00265447
-0.000174281
0.00270658
-0.000201364
0.00276443
-0.000220887
0.00282434
-0.000227578
0.00288168
-0.000218338
0.00293316
-0.000196575
0.00297615
-0.000164388
0.00300847
-0.00012369
0.00302847
-7.65753e-05
0.00303493
-2.51854e-05
0.00302742
2.74347e-05
0.00300661
7.73731e-05
0.00297437
0.000120429
0.00293358
0.000153142
0.00288763
0.000173703
0.00283983
0.000182251
0.00279294
0.000180466
0.00274898
0.000170881
0.00270918
0.000156203
0.00267413
0.000138859
0.0026439
0.000120756
0.00261826
0.000103233
0.00259676
8.71199e-05
0.00257887
7.28426e-05
0.00256407
6.05382e-05
0.00255183
5.01547e-05
0.00254172
4.15299e-05
0.00253332
3.44476e-05
0.00252633
2.86754e-05
0.00252046
2.39884e-05
0.00251549
2.01846e-05
0.00251127
1.70936e-05
0.00250764
1.45789e-05
0.00250449
1.25267e-05
0.00250175
1.08194e-05
0.00249937
9.30003e-06
0.00249734
7.75085e-06
0.00249574
5.91606e-06
0.00249468
3.58349e-06
0.00249428
7.04034e-07
0.00249463
-2.51077e-06
0.0024957
-5.5832e-06
0.00249732
-7.89194e-06
0.00249919
-8.89107e-06
0.00250095
-8.33227e-06
0.00250225
-6.38327e-06
0.00250291
-3.58186e-06
0.00250289
-6.46916e-07
0.0025023
1.76447e-06
0.00250139
3.24707e-06
0.00250038
3.71686e-06
0.00249949
3.35692e-06
0.00249884
2.49096e-06
0.00249847
1.45188e-06
0.00249836
4.93606e-07
0.00249844
-2.40365e-07
0.00249864
-7.0518e-07
0.0024989
-9.23213e-07
0.00249916
-9.51594e-07
0.00249939
-8.57568e-07
0.00249957
-7.02882e-07
0.0024997
-5.35345e-07
0.00249979
-3.85645e-07
0.00249985
-2.68159e-07
0.00249989
-1.8465e-07
0.00249992
-1.29346e-07
0.00249994
-9.38191e-08
0.00249995
-7.04058e-08
0.00249996
-5.3782e-08
0.00249997
-4.10181e-08
0.00249998
-3.08447e-08
0.00249999
-2.28003e-08
0.00249999
-1.66419e-08
0.00249999
-1.20904e-08
0.00249999
-8.80557e-09
0.0025
-6.45059e-09
0.0025
-4.74841e-09
0.0025
-3.5007e-09
0.0025
-2.57637e-09
0.0025
-1.88961e-09
0.0025
-1.381e-09
0.0025
-1.00636e-09
0.0025
-7.31517e-10
0.0025
-5.3017e-10
0.0025
-3.82584e-10
0.0025
-2.7429e-10
0.0025
-1.94797e-10
0.0025
-1.3649e-10
0.0025
-9.37866e-11
0.0025
-6.25774e-11
0.0025
-3.98171e-11
0.0025
-2.32669e-11
0.0025
-1.12701e-11
0.0025
-2.61949e-12
0.0025
3.58162e-12
0.0025
7.98083e-12
0.0025
1.10659e-11
0.0025
1.31829e-11
0.0025
1.45993e-11
0.0025
1.5498e-11
0.0025
1.60273e-11
0.0025
1.62816e-11
0.0025
1.63451e-11
0.0025
1.62644e-11
0.0025
1.6089e-11
0.0025
1.58395e-11
0.0025
1.5547e-11
0.0025
1.5218e-11
0.0025
1.48737e-11
0.0025
1.45126e-11
0.0025
1.41511e-11
0.0025
1.37833e-11
0.0025
1.34228e-11
0.0025
1.30612e-11
0.0025
1.2711e-11
0.0025
1.23622e-11
0.0025
1.20267e-11
0.0025
1.16937e-11
0.0025
1.13748e-11
0.0025
1.10586e-11
0.0025
1.07567e-11
0.0025
1.04573e-11
0.0025
1.01721e-11
0.0025
9.88892e-12
0.0025
9.61965e-12
0.0025
9.35184e-12
0.0025
9.09758e-12
0.0025
8.84421e-12
0.0025
8.60399e-12
0.0025
8.36408e-12
0.0025
8.13691e-12
0.0025
7.9095e-12
0.0025
7.69443e-12
0.0025
7.4786e-12
0.0025
7.27475e-12
0.0025
7.06966e-12
0.0025
6.87621e-12
0.0025
6.6811e-12
0.0025
6.49732e-12
0.0025
6.31145e-12
0.0025
6.13671e-12
0.0025
5.95946e-12
0.0025
5.79335e-12
0.0025
5.62401e-12
0.0025
5.46668e-12
0.0025
5.30382e-12
0.0025
5.15744e-12
0.0025
4.99586e-12
0.0025
4.87187e-12
0.0025
4.68851e-12
0.0025
4.64307e-12
0.0025
4.33369e-12
0.0025
4.60532e-12
3.81411e-12
0.00250259
-1.37796e-05
0.00251042
-4.16388e-05
0.00252405
-7.15908e-05
0.00254425
-0.000104535
0.00257204
-0.000140921
0.00260838
-0.00017998
0.0026539
-0.000219797
0.00270807
-0.000255534
0.00276907
-0.000281896
0.00283263
-0.000291129
0.0028932
-0.000278914
0.00294739
-0.000250767
0.00299255
-0.000209547
0.00302651
-0.000157649
0.00304753
-9.75914e-05
0.00305422
-3.18768e-05
0.00304598
3.56702e-05
0.00302344
9.99207e-05
0.00298863
0.000155233
0.00294483
0.000196941
0.00289587
0.000222664
0.00284542
0.000232702
0.00279646
0.000229422
0.00275108
0.000216265
0.00271046
0.000196827
0.00267506
0.000174257
0.00264484
0.000150978
0.00261942
0.000128652
0.00259826
0.000108275
0.00258077
9.03325e-05
0.00256636
7.49507e-05
0.00255448
6.20288e-05
0.00254468
5.1337e-05
0.00253654
4.25863e-05
0.00252974
3.54745e-05
0.00252401
2.9714e-05
0.00251915
2.50488e-05
0.00251498
2.12645e-05
0.00251137
1.81899e-05
0.00250821
1.56833e-05
0.00250543
1.36001e-05
0.00250298
1.17498e-05
0.00250086
9.869e-06
0.00249913
7.64726e-06
0.00249789
4.82488e-06
0.00249726
1.33756e-06
0.00249731
-2.56341e-06
0.00249803
-6.30142e-06
0.00249926
-9.12119e-06
0.00250072
-1.03548e-05
0.00250208
-9.69467e-06
0.00250304
-7.34061e-06
0.00250341
-3.94689e-06
0.00250315
-3.9224e-07
0.0025024
2.51747e-06
0.00250136
4.28332e-06
0.00250028
4.80016e-06
0.00249934
4.29216e-06
0.00249867
3.15906e-06
0.00249831
1.8152e-06
0.00249822
5.80079e-07
0.00249835
-3.62698e-07
0.0024986
-9.5379e-07
0.00249889
-1.22121e-06
0.00249918
-1.24022e-06
0.00249943
-1.10113e-06
0.00249961
-8.87386e-07
0.00249974
-6.63051e-07
0.00249982
-4.68001e-07
0.00249987
-3.1932e-07
0.0024999
-2.17015e-07
0.00249993
-1.51546e-07
0.00249994
-1.10682e-07
0.00249996
-8.4028e-08
0.00249997
-6.48211e-08
0.00249998
-4.96679e-08
0.00249998
-3.73296e-08
0.00249999
-2.74889e-08
0.00249999
-1.99714e-08
0.00249999
-1.44609e-08
0.0025
-1.05216e-08
0.0025
-7.71589e-09
0.0025
-5.69091e-09
0.0025
-4.20271e-09
0.0025
-3.09592e-09
0.0025
-2.27133e-09
0.0025
-1.66022e-09
0.0025
-1.21045e-09
0.0025
-8.80921e-10
0.0025
-6.39729e-10
0.0025
-4.62964e-10
0.0025
-3.33207e-10
0.0025
-2.37901e-10
0.0025
-1.67959e-10
0.0025
-1.16713e-10
0.0025
-7.92442e-11
0.0025
-5.1902e-11
0.0025
-3.19996e-11
0.0025
-1.75513e-11
0.0025
-7.10958e-12
0.0025
3.98244e-13
0.0025
5.74911e-12
0.0025
9.52549e-12
0.0025
1.21437e-11
0.0025
1.39218e-11
0.0025
1.5081e-11
0.0025
1.57964e-11
0.0025
1.61832e-11
0.0025
1.63399e-11
0.0025
1.63241e-11
0.0025
1.6193e-11
0.0025
1.59733e-11
0.0025
1.56998e-11
0.0025
1.53824e-11
0.0025
1.50443e-11
0.0025
1.46858e-11
0.0025
1.43241e-11
0.0025
1.39546e-11
0.0025
1.3591e-11
0.0025
1.32257e-11
0.0025
1.28712e-11
0.0025
1.25181e-11
0.0025
1.21779e-11
0.0025
1.18404e-11
0.0025
1.15169e-11
0.0025
1.11964e-11
0.0025
1.08901e-11
0.0025
1.05866e-11
0.0025
1.02973e-11
0.0025
1.00103e-11
0.0025
9.73718e-12
0.0025
9.46592e-12
0.0025
9.20805e-12
0.0025
8.95149e-12
0.0025
8.7079e-12
0.0025
8.46505e-12
0.0025
8.23473e-12
0.0025
8.00459e-12
0.0025
7.78657e-12
0.0025
7.56819e-12
0.0025
7.36156e-12
0.0025
7.15411e-12
0.0025
6.95804e-12
0.0025
6.76071e-12
0.0025
6.57446e-12
0.0025
6.38653e-12
0.0025
6.20945e-12
0.0025
6.03025e-12
0.0025
5.86196e-12
0.0025
5.69077e-12
0.0025
5.53148e-12
0.0025
5.36681e-12
0.0025
5.21878e-12
0.0025
5.05538e-12
0.0025
4.92973e-12
0.0025
4.74566e-12
0.0025
4.69257e-12
0.0025
4.39757e-12
0.0025
4.60923e-12
3.90412e-12
0.00250243
-1.62065e-05
0.0025098
-4.90146e-05
0.00252274
-8.45314e-05
0.00254222
-0.00012401
0.0025695
-0.000168198
0.00260592
-0.000216406
0.00265261
-0.000266489
0.00270938
-0.000312303
0.00277457
-0.000347082
0.00284293
-0.00035949
0.00290766
-0.000343647
0.00296527
-0.000308374
0.00301316
-0.000257438
0.0030492
-0.000193686
0.00307155
-0.000119942
0.00307857
-3.88974e-05
0.0030694
4.48364e-05
0.0030446
0.000124726
0.00300645
0.000193379
0.00295874
0.000244655
0.00290588
0.000275519
0.00285205
0.000286539
0.00280049
0.00028098
0.00275335
0.0002634
0.00271175
0.000238433
0.00267597
0.000210028
0.00264581
0.000181144
0.00262072
0.000153745
0.00260003
0.000128962
0.00258306
0.000107305
0.00256915
8.88576e-05
0.00255773
7.34452e-05
0.00254832
6.07523e-05
0.0025405
5.04057e-05
0.00253395
4.20257e-05
0.0025284
3.52581e-05
0.00252366
2.97913e-05
0.00251956
2.53665e-05
0.00251597
2.17776e-05
0.0025128
1.88553e-05
0.00250997
1.64297e-05
0.00250744
1.42797e-05
0.00250521
1.21016e-05
0.00250332
9.53674e-06
0.00250186
6.28236e-06
0.00250094
2.25884e-06
0.00250063
-2.24967e-06
0.0025009
-6.58045e-06
0.00250164
-9.85906e-06
0.0025026
-1.13075e-05
0.00250346
-1.05633e-05
0.00250398
-7.8545e-06
0.00250397
-3.94065e-06
0.00250343
1.53437e-07
0.00250246
3.48505e-06
0.00250127
5.46852e-06
0.00250009
5.97891e-06
0.00249911
5.27904e-06
0.00249843
3.84153e-06
0.00249808
2.16092e-06
0.00249804
6.23739e-07
0.00249822
-5.43456e-07
0.00249853
-1.26476e-06
0.00249888
-1.5743e-06
0.00249921
-1.56885e-06
0.00249947
-1.36672e-06
0.00249967
-1.07781e-06
0.00249979
-7.85507e-07
0.00249986
-5.39651e-07
0.0024999
-3.59005e-07
0.00249992
-2.39918e-07
0.00249994
-1.67218e-07
0.00249995
-1.23629e-07
0.00249996
-9.55003e-08
0.00249997
-7.46527e-08
0.00249998
-5.75042e-08
0.00249999
-4.31389e-08
0.00249999
-3.15754e-08
0.00249999
-2.27869e-08
0.00249999
-1.64261e-08
0.0025
-1.19404e-08
0.0025
-8.77268e-09
0.0025
-6.48874e-09
0.0025
-4.80234e-09
0.0025
-3.54076e-09
0.0025
-2.5974e-09
0.0025
-1.89789e-09
0.0025
-1.38386e-09
0.0025
-1.00801e-09
0.0025
-7.33268e-10
0.0025
-5.31943e-10
0.0025
-3.84067e-10
0.0025
-2.7537e-10
0.0025
-1.95556e-10
0.0025
-1.37063e-10
0.0025
-9.42853e-11
0.0025
-6.30577e-11
0.0025
-4.03097e-11
0.0025
-2.37767e-11
0.0025
-1.1807e-11
0.0025
-3.18002e-12
0.0025
2.99057e-12
0.0025
7.36693e-12
0.0025
1.04249e-11
0.0025
1.25254e-11
0.0025
1.39216e-11
0.0025
1.48115e-11
0.0025
1.53278e-11
0.0025
1.55806e-11
0.0025
1.56375e-11
0.0025
1.55613e-11
0.0025
1.53843e-11
0.0025
1.51441e-11
0.0025
1.48539e-11
0.0025
1.45378e-11
0.0025
1.41984e-11
0.0025
1.38529e-11
0.0025
1.34982e-11
0.0025
1.31477e-11
0.0025
1.27951e-11
0.0025
1.24519e-11
0.0025
1.21101e-11
0.0025
1.17804e-11
0.0025
1.14535e-11
0.0025
1.11397e-11
0.0025
1.08291e-11
0.0025
1.05321e-11
0.0025
1.02381e-11
0.0025
9.95752e-12
0.0025
9.67963e-12
0.0025
9.41488e-12
0.0025
9.15227e-12
0.0025
8.90241e-12
0.0025
8.65414e-12
0.0025
8.41818e-12
0.0025
8.18324e-12
0.0025
7.9602e-12
0.0025
7.73762e-12
0.0025
7.52653e-12
0.0025
7.3154e-12
0.0025
7.11538e-12
0.0025
6.91485e-12
0.0025
6.72508e-12
0.0025
6.53437e-12
0.0025
6.35412e-12
0.0025
6.17253e-12
0.0025
6.00119e-12
0.0025
5.82807e-12
0.0025
5.66528e-12
0.0025
5.49992e-12
0.0025
5.34592e-12
0.0025
5.18686e-12
0.0025
5.04384e-12
0.0025
4.88608e-12
0.0025
4.7641e-12
0.0025
4.58821e-12
0.0025
4.52861e-12
0.0025
4.2622e-12
0.0025
4.4071e-12
3.81518e-12
0.00250222
-1.84248e-05
0.00250899
-5.57817e-05
0.00252101
-9.6557e-05
0.00253946
-0.000142457
0.00256591
-0.000194654
0.00260223
-0.000252725
0.00265018
-0.000314438
0.00271011
-0.000372227
0.00278067
-0.000417649
0.00285523
-0.000434044
0.00292511
-0.000413529
0.00298684
-0.000370102
0.00303801
-0.000308608
0.00307659
-0.000232266
0.00310065
-0.000144009
0.00310819
-4.64381e-05
0.00309795
5.50773e-05
0.00307033
0.00015235
0.00302793
0.000235781
0.00297521
0.000297369
0.00291743
0.000333302
0.00285938
0.000344593
0.00280465
0.000335704
0.00275545
0.000312597
0.00271276
0.000281131
0.00267664
0.000246145
0.00264664
0.000211142
0.00262202
0.000178362
0.00260196
0.000149024
0.00258566
0.000123611
0.00257239
0.000102128
0.00256154
8.42934e-05
0.0025526
6.96867e-05
0.00254517
5.78359e-05
0.00253892
4.82763e-05
0.0025336
4.05829e-05
0.002529
3.43869e-05
0.00252498
2.93849e-05
0.00252142
2.53362e-05
0.00251824
2.20449e-05
0.00251535
1.93168e-05
0.00251272
1.69043e-05
0.00251036
1.44691e-05
0.00250828
1.16119e-05
0.00250657
7.99298e-06
0.00250531
3.51795e-06
0.00250457
-1.50356e-06
0.00250432
-6.33764e-06
0.00250447
-1.0009e-05
0.00250481
-1.1645e-05
0.00250508
-1.0835e-05
0.00250506
-7.83106e-06
0.0025046
-3.48478e-06
0.00250371
1.05027e-06
0.00250248
4.70982e-06
0.00250112
6.8304e-06
0.00249983
7.26886e-06
0.00249878
6.32336e-06
0.00249809
4.53532e-06
0.00249777
2.47807e-06
0.00249779
6.07345e-07
0.00249805
-8.03231e-07
0.00249844
-1.65833e-06
0.00249887
-1.999e-06
0.00249925
-1.94811e-06
0.00249954
-1.6588e-06
0.00249974
-1.27373e-06
0.00249985
-8.99431e-07
0.00249991
-5.96484e-07
0.00249993
-3.83685e-07
0.00249994
-2.51019e-07
0.00249995
-1.75187e-07
0.00249996
-1.32278e-07
0.00249997
-1.0482e-07
0.00249998
-8.3357e-08
0.00249998
-6.45526e-08
0.00249999
-4.82236e-08
0.00249999
-3.49708e-08
0.00249999
-2.49988e-08
0.0025
-1.79175e-08
0.0025
-1.30179e-08
0.0025
-9.59563e-09
0.0025
-7.12689e-09
0.0025
-5.28922e-09
0.0025
-3.90248e-09
0.0025
-2.86068e-09
0.0025
-2.08814e-09
0.0025
-1.52199e-09
0.0025
-1.10931e-09
0.0025
-8.08154e-10
0.0025
-5.87476e-10
0.0025
-4.25226e-10
0.0025
-3.0584e-10
0.0025
-2.18131e-10
0.0025
-1.53845e-10
0.0025
-1.06834e-10
0.0025
-7.25131e-11
0.0025
-4.74996e-11
0.0025
-2.93045e-11
0.0025
-1.61142e-11
0.0025
-6.591e-12
0.0025
2.38426e-13
0.0025
5.0993e-12
0.0025
8.51503e-12
0.0025
1.08803e-11
0.0025
1.24742e-11
0.0025
1.35124e-11
0.0025
1.41416e-11
0.0025
1.44811e-11
0.0025
1.46061e-11
0.0025
1.45841e-11
0.0025
1.44519e-11
0.0025
1.42489e-11
0.0025
1.39911e-11
0.0025
1.37032e-11
0.0025
1.33897e-11
0.0025
1.30676e-11
0.0025
1.27352e-11
0.0025
1.24053e-11
0.0025
1.20729e-11
0.0025
1.17487e-11
0.0025
1.14257e-11
0.0025
1.11138e-11
0.0025
1.08046e-11
0.0025
1.05076e-11
0.0025
1.02139e-11
0.0025
9.93282e-12
0.0025
9.65491e-12
0.0025
9.38952e-12
0.0025
9.12696e-12
0.0025
8.87664e-12
0.0025
8.62865e-12
0.0025
8.3925e-12
0.0025
8.15815e-12
0.0025
7.93523e-12
0.0025
7.71355e-12
0.0025
7.50289e-12
0.0025
7.29297e-12
0.0025
7.09366e-12
0.0025
6.89459e-12
0.0025
6.70577e-12
0.0025
6.51675e-12
0.0025
6.33764e-12
0.0025
6.15792e-12
0.0025
5.98781e-12
0.0025
5.81673e-12
0.0025
5.65507e-12
0.0025
5.49198e-12
0.0025
5.33843e-12
0.0025
5.1827e-12
0.0025
5.0375e-12
0.0025
4.88773e-12
0.0025
4.75287e-12
0.0025
4.6045e-12
0.0025
4.48859e-12
0.0025
4.32523e-12
0.0025
4.26047e-12
0.0025
4.02688e-12
0.0025
4.11308e-12
3.63028e-12
0.00250195
-2.03766e-05
0.00250794
-6.17673e-05
0.00251876
-0.00010738
0.0025358
-0.000159492
0.002561
-0.000219854
0.00259686
-0.000288592
0.00264602
-0.000363597
0.00270966
-0.000435868
0.00278708
-0.000495069
0.0028695
-0.000516462
0.00294558
-0.000489613
0.00301212
-0.00043664
0.00306711
-0.000363593
0.00310872
-0.000273881
0.00313492
-0.000170211
0.00314318
-5.46904e-05
0.00313167
6.65793e-05
0.0031006
0.000183426
0.00305294
0.000283444
0.00299405
0.000356252
0.00293024
0.000397115
0.0028671
0.000407729
0.00280865
0.000394157
0.00275711
0.000364138
0.00271325
0.000324988
0.00267687
0.000282531
0.00264719
0.000240822
0.00262323
0.000202324
0.00260397
0.000168279
0.0025885
0.000139087
0.002576
0.000114619
0.00256584
9.44574e-05
0.00255748
7.8048e-05
0.00255051
6.48061e-05
0.00254461
5.41735e-05
0.00253954
4.56503e-05
0.00253512
3.88098e-05
0.0025312
3.33041e-05
0.00252768
2.8859e-05
0.00252447
2.52526e-05
0.00252152
2.22685e-05
0.00251879
1.9636e-05
0.00251627
1.69894e-05
0.00251398
1.3897e-05
0.00251199
9.98983e-06
0.00251034
5.16037e-06
0.0025091
-2.63792e-07
0.00250826
-5.49451e-06
0.00250773
-9.47759e-06
0.00250735
-1.1265e-05
0.00250692
-1.04076e-05
0.00250627
-7.17726e-06
0.00250529
-2.50211e-06
0.00250398
2.35689e-06
0.00250246
6.23288e-06
0.00250089
8.39551e-06
0.00249947
8.68508e-06
0.00249837
7.43046e-06
0.00249767
5.23653e-06
0.00249739
2.75389e-06
0.00249749
5.10972e-07
0.00249785
-1.16571e-06
0.00249835
-2.15747e-06
0.00249886
-2.51335e-06
0.0024993
-2.38875e-06
0.00249962
-1.98067e-06
0.00249982
-1.47283e-06
0.00249992
-9.99605e-07
0.00249996
-6.32892e-07
0.00249997
-3.88967e-07
0.00249996
-2.47696e-07
0.00249996
-1.74363e-07
0.00249997
-1.36485e-07
0.00249997
-1.12213e-07
0.00249998
-9.11623e-08
0.00249999
-7.09022e-08
0.00249999
-5.25441e-08
0.00249999
-3.75746e-08
0.0025
-2.65062e-08
0.0025
-1.88631e-08
0.0025
-1.37136e-08
0.0025
-1.01652e-08
0.0025
-7.59571e-09
0.0025
-5.65664e-09
0.0025
-4.17481e-09
0.0025
-3.05522e-09
0.0025
-2.22591e-09
0.0025
-1.62097e-09
0.0025
-1.182e-09
0.0025
-8.62358e-10
0.0025
-6.28045e-10
0.0025
-4.55491e-10
0.0025
-3.28343e-10
0.0025
-2.34877e-10
0.0025
-1.66385e-10
0.0025
-1.1632e-10
0.0025
-7.97753e-11
0.0025
-5.3135e-11
0.0025
-3.3745e-11
0.0025
-1.96751e-11
0.0025
-9.50478e-12
0.0025
-2.19841e-12
0.0025
3.01439e-12
0.0025
6.69171e-12
0.0025
9.25231e-12
0.0025
1.09942e-11
0.0025
1.21452e-11
0.0025
1.28626e-11
0.0025
1.32716e-11
0.0025
1.34535e-11
0.0025
1.34784e-11
0.0025
1.33867e-11
0.0025
1.32188e-11
0.0025
1.2993e-11
0.0025
1.27339e-11
0.0025
1.24478e-11
0.0025
1.21511e-11
0.0025
1.18434e-11
0.0025
1.15368e-11
0.0025
1.12275e-11
0.0025
1.09252e-11
0.0025
1.0624e-11
0.0025
1.03327e-11
0.0025
1.00443e-11
0.0025
9.76705e-12
0.0025
9.4932e-12
0.0025
9.23085e-12
0.0025
8.97185e-12
0.0025
8.72431e-12
0.0025
8.47978e-12
0.0025
8.24643e-12
0.0025
8.01562e-12
0.0025
7.7956e-12
0.0025
7.5776e-12
0.0025
7.37e-12
0.0025
7.16391e-12
0.0025
6.9678e-12
0.0025
6.77272e-12
0.0025
6.58723e-12
0.0025
6.40231e-12
0.0025
6.22663e-12
0.0025
6.0511e-12
0.0025
5.88449e-12
0.0025
5.71763e-12
0.0025
5.55943e-12
0.0025
5.40063e-12
0.0025
5.25031e-12
0.0025
5.09897e-12
0.0025
4.95623e-12
0.0025
4.81174e-12
0.0025
4.6768e-12
0.0025
4.53789e-12
0.0025
4.41248e-12
0.0025
4.27514e-12
0.0025
4.16629e-12
0.0025
4.01717e-12
0.0025
3.94893e-12
0.0025
3.74706e-12
0.0025
3.78798e-12
3.39758e-12
0.00250162
-2.19948e-05
0.00250662
-6.67697e-05
0.00251589
-0.000116654
0.00253103
-0.000174625
0.00255437
-0.0002432
0.00258924
-0.000323456
0.00263936
-0.00041372
0.00270728
-0.000503782
0.00279341
-0.000581206
0.00288577
-0.000608823
0.00296919
-0.000573027
0.00304116
-0.000508608
0.00310042
-0.000422853
0.00314558
-0.000319046
0.00317451
-0.000199136
0.0031839
-6.40817e-05
0.00317107
7.94038e-05
0.0031358
0.000218694
0.00308158
0.00033767
0.00301501
0.000422823
0.0029438
0.000468326
0.00287459
0.000476937
0.00281184
0.000456906
0.00275775
0.000418229
0.00271278
0.000369961
0.0026763
0.000319006
0.00264718
0.000269942
0.00262412
0.000225379
0.00260591
0.000186497
0.00259146
0.000153533
0.00257991
0.00012617
0.00257056
0.000103808
0.00256287
8.57361e-05
0.00255644
7.12407e-05
0.00255095
5.96615e-05
0.00254618
5.04203e-05
0.00254196
4.30324e-05
0.00253815
3.71068e-05
0.00253467
3.23373e-05
0.00253145
2.8477e-05
0.00252843
2.52896e-05
0.00252558
2.24852e-05
0.00252289
1.96776e-05
0.00252038
1.64128e-05
0.00251806
1.23014e-05
0.002516
7.22618e-06
0.00251421
1.52537e-06
0.00251269
-3.97738e-06
0.00251139
-8.17473e-06
0.00251019
-1.00671e-05
0.00250896
-9.17986e-06
0.00250759
-5.80113e-06
0.002506
-9.16891e-07
0.00250423
4.13006e-06
0.00250237
8.09339e-06
0.00250058
1.01889e-05
0.00249902
1.02416e-05
0.00249784
8.60463e-06
0.00249714
5.93945e-06
0.00249692
2.97258e-06
0.00249712
3.10453e-07
0.00249762
-1.6592e-06
0.00249825
-2.78894e-06
0.00249887
-3.13748e-06
0.00249939
-2.90148e-06
0.00249974
-2.33397e-06
0.00249994
-1.67027e-06
0.00250001
-1.07836e-06
0.00250002
-6.41472e-07
0.0025
-3.69535e-07
0.00249998
-2.27137e-07
0.00249997
-1.63903e-07
0.00249997
-1.36485e-07
0.00249998
-1.18223e-07
0.00249999
-9.84797e-08
0.00249999
-7.6707e-08
0.0025
-5.6059e-08
0.0025
-3.92647e-08
0.0025
-2.71927e-08
0.0025
-1.91882e-08
0.0025
-1.39931e-08
0.0025
-1.04706e-08
0.0025
-7.89276e-09
0.0025
-5.90239e-09
0.0025
-4.35383e-09
0.0025
-3.17634e-09
0.0025
-2.30699e-09
0.0025
-1.67766e-09
0.0025
-1.22399e-09
0.0025
-8.94485e-10
0.0025
-6.52656e-10
0.0025
-4.7409e-10
0.0025
-3.42247e-10
0.0025
-2.4528e-10
0.0025
-1.74265e-10
0.0025
-1.224e-10
0.0025
-8.45618e-11
0.0025
-5.69764e-11