/*--------------------------------*- C++ -*----------------------------------*\
  =========                 |
  \\      /  F ield         | OpenFOAM: The Open Source CFD Toolbox
   \\    /   O peration     | Website:  https://openfoam.org
    \\  /    A nd           | Version:  11
     \\/     M anipulation  |
\*---------------------------------------------------------------------------*/
FoamFile
{
    format      ascii;
    class       surfaceScalarField;
    location    "11.536361";
    object      phi;
}
// * * * * * * * * * * * * * * * * * * * * * * * * * * * * * * * * * * * * * //

dimensions      [0 3 -1 0 0 0 0];

internalField   nonuniform List<scalar> 
14638
(
0.00250272
-2.7241e-06
0.00251085
-8.12324e-06
0.00252441
-1.35651e-05
0.00254342
-1.90112e-05
0.00256778
-2.43538e-05
0.00259707
-2.92916e-05
0.00263041
-3.33426e-05
0.00266614
-3.57303e-05
0.00270178
-3.56352e-05
0.00273426
-3.24786e-05
0.0027604
-2.61401e-05
0.00277866
-1.82646e-05
0.00278911
-1.04522e-05
0.00279347
-4.3614e-06
0.00279481
-1.33109e-06
0.00279611
-1.30332e-06
0.0027989
-2.79135e-06
0.00280227
-3.37088e-06
0.00280275
-4.81291e-07
0.0027956
7.14838e-06
0.00277713
1.84752e-05
0.00274649
3.06422e-05
0.00270602
4.04627e-05
0.00266046
4.55662e-05
0.00261575
4.47051e-05
0.00257819
3.75619e-05
0.00255368
2.45077e-05
0.00254708
6.60401e-06
0.00256119
-1.41112e-05
0.00259529
-3.41034e-05
0.00264361
-4.83121e-05
0.00269522
-5.16161e-05
0.00273681
-4.1588e-05
0.00275735
-2.05362e-05
0.002752
5.3484e-06
0.00272285
2.91507e-05
0.00267673
4.61176e-05
0.00262233
5.43941e-05
0.00256829
5.40493e-05
0.00252249
4.57959e-05
0.00249223
3.02613e-05
0.00248414
8.08827e-06
0.00250334
-1.92011e-05
0.00255119
-4.78496e-05
0.00262244
-7.12452e-05
0.00270395
-8.15168e-05
0.00277726
-7.33113e-05
0.00282464
-4.73787e-05
0.00283563
-1.09856e-05
0.00281005
2.55746e-05
0.00275628
5.3778e-05
0.00268651
6.97644e-05
0.00261266
7.38485e-05
0.00254446
6.82004e-05
0.00248971
5.47498e-05
0.00245536
3.43513e-05
0.00244804
7.31829e-06
0.00247309
-2.5051e-05
0.00253184
-5.8749e-05
0.00261847
-8.66237e-05
0.00271867
-0.000100205
0.00281198
-9.33074e-05
0.00287747
-6.54917e-05
0.00290069
-2.32208e-05
0.00287833
2.23638e-05
0.00281835
5.99783e-05
0.0027357
8.2654e-05
0.00264634
8.93532e-05
0.00256314
8.32049e-05
0.00249494
6.81937e-05
0.00244833
4.66129e-05
0.0024296
1.87279e-05
0.00244487
-1.52687e-05
0.00249737
-5.24945e-05
0.00258367
-8.63076e-05
0.00269188
-0.000108208
0.00280349
-0.000111605
0.00289831
-9.48203e-05
0.0029599
-6.15976e-05
0.00297934
-1.94311e-05
0.00295663
2.27095e-05
0.00290031
5.63177e-05
0.00282527
7.50412e-05
0.00274912
7.61451e-05
0.00268811
6.10141e-05
0.00265432
3.37845e-05
0.00265519
-8.62867e-07
0.00269371
-3.85213e-05
0.002768
-7.42894e-05
0.00287025
-0.000102249
0.00298676
-0.000116511
0.00310001
-0.000113254
0.00319233
-9.23206e-05
0.00324988
-5.75489e-05
0.0032657
-1.5822e-05
0.00324096
2.474e-05
0.00318398
5.69821e-05
0.00310718
7.68034e-05
0.00302311
8.4067e-05
0.00294145
8.16547e-05
0.00286841
7.30463e-05
0.00280826
6.01467e-05
0.00276519
4.3073e-05
0.0027434
2.17889e-05
0.00274557
-2.1741e-06
0.00277094
-2.53698e-05
0.0028144
-4.34606e-05
0.00286704
-5.26328e-05
0.00291769
-5.0656e-05
0.00295517
-3.7473e-05
0.00297059
-1.54241e-05
0.00295956
1.10303e-05
0.00292326
3.62975e-05
0.00286797
5.52891e-05
0.00280294
6.50355e-05
0.00273756
6.53738e-05
0.00267915
5.84152e-05
0.00263188
4.72702e-05
0.00259705
3.48241e-05
0.00257398
2.30761e-05
0.0025609
1.30758e-05
0.00255572
5.18676e-06
0.00255631
-5.96403e-07
0.00256074
-4.42466e-06
0.00256722
-6.48654e-06
0.00257421
-6.9851e-06
0.00258037
-6.15914e-06
0.00258468
-4.31054e-06
0.00258649
-1.8092e-06
0.00258555
9.35911e-07
0.00258202
3.53126e-06
0.00257636
5.65804e-06
0.00256925
7.11316e-06
0.00256143
7.82119e-06
0.00255361
7.81978e-06
0.00254638
7.22891e-06
0.00254016
6.21523e-06
0.0025352
4.95956e-06
0.00253157
3.63144e-06
0.0025292
2.37185e-06
0.00252792
1.28369e-06
0.00252749
4.29317e-07
0.00252765
-1.66299e-07
0.00252816
-5.08693e-07
0.00252879
-6.25405e-07
0.00252935
-5.57716e-07
0.0025297
-3.53386e-07
0.00252976
-6.13507e-08
0.00252949
2.7276e-07
0.00252888
6.08799e-07
0.00252796
9.15363e-07
0.0025268
1.16865e-06
0.00252544
1.35655e-06
0.00252397
1.47176e-06
0.00252245
1.52112e-06
0.00252094
1.50682e-06
0.00251949
1.4522e-06
0.00251813
1.35339e-06
0.00251687
1.26405e-06
1.08298e-06
0.00250271
-5.43559e-06
0.0025108
-1.62148e-05
0.00252434
-2.70977e-05
0.00254335
-3.8027e-05
0.0025678
-4.87986e-05
0.00259732
-5.8818e-05
0.0026311
-6.71173e-05
0.00266746
-7.20933e-05
0.00270387
-7.20425e-05
0.00273707
-6.56832e-05
0.00276363
-5.26964e-05
0.00278191
-3.6548e-05
0.00279198
-2.0519e-05
0.00279567
-8.05472e-06
0.00279634
-1.9971e-06
0.0027973
-2.26323e-06
0.00280029
-5.77936e-06
0.0028044
-7.48641e-06
0.0028059
-1.97622e-06
0.00279957
1.34796e-05
0.00278132
3.67157e-05
0.00275022
6.17482e-05
0.00270872
8.19617e-05
0.00266177
9.25171e-05
0.00261554
9.09312e-05
0.0025765
7.66003e-05
0.00255076
5.02524e-05
0.00254344
1.39276e-05
0.00255771
-2.83899e-05
0.00259318
-6.95662e-05
0.00264398
-9.9116e-05
0.00269861
-0.000106241
0.00274275
-8.57285e-05
0.00276458
-4.23673e-05
0.00275905
1.08739e-05
0.0027286
5.96049e-05
0.0026806
9.4114e-05
0.00262417
0.000110824
0.00256812
0.000110107
0.00252038
9.35277e-05
0.00248835
6.22962e-05
0.00247897
1.74683e-05
0.00249796
-3.81937e-05
0.0025473
-9.71926e-05
0.00262185
-0.000145787
0.00270769
-0.000167359
0.00278496
-0.000150583
0.00283467
-9.70836e-05
0.00284583
-2.21481e-05
0.00281863
5.27733e-05
0.00276228
0.000110124
0.00268982
0.000142228
0.00261356
0.000150111
0.00254325
0.000138507
0.00248656
0.000111445
0.00245033
7.05738e-05
0.00244134
1.63109e-05
0.00246529
-4.89962e-05
0.00252405
-0.00011751
0.00261233
-0.000174906
0.00271597
-0.000203847
0.00281385
-0.000191185
0.00288366
-0.000135307
0.00290951
-4.90625e-05
0.00288734
4.45258e-05
0.00282549
0.000121827
0.00273994
0.000168209
0.00264767
0.000181624
0.00256197
0.000168907
0.00249151
0.000138651
0.00244251
9.56097e-05
0.00242137
3.98757e-05
0.00243495
-2.88543e-05
0.00248749
-0.000105029
0.00257587
-0.000174687
0.00268737
-0.000219709
0.00280204
-0.000226281
0.00289862
-0.000191396
0.00296051
-0.000123489
0.00297937
-3.8289e-05
0.00295586
4.62132e-05
0.00289879
0.000113391
0.00282294
0.00015089
0.00274576
0.000153326
0.00268348
0.00012329
0.00264858
6.8687e-05
0.00264927
-1.55363e-06
0.00268953
-7.87823e-05
0.00276799
-0.000152741
0.00287638
-0.000210644
0.00299972
-0.000239852
0.00311891
-0.00023244
0.003215
-0.000188409
0.00327352
-0.000116074
0.00328758
-2.98825e-05
0.00325888
5.34443e-05
0.00319654
0.000119316
0.00311396
0.000159385
0.0030246
0.000173429
0.00293879
0.000167462
0.00286304
0.000148801
0.0028016
0.000121588
0.00275839
8.62784e-05
0.00273728
4.29003e-05
0.00274058
-5.47182e-06
0.00276721
-5.19977e-05
0.00281187
-8.81192e-05
0.00286561
-0.000106373
0.00291736
-0.000102408
0.00295595
-7.60674e-05
0.0029724
-3.18756e-05
0.00296206
2.13739e-05
0.00292589
7.24651e-05
0.00287015
0.000111031
0.00280427
0.00013092
0.00273794
0.0001317
0.00267873
0.000117627
0.00263096
9.50358e-05
0.00259597
6.98151e-05
0.002573
4.60436e-05
0.00256023
2.58517e-05
0.00255545
9.96423e-06
0.0025565
-1.64818e-06
0.00256138
-9.30653e-06
0.0025683
-1.34005e-05
0.00257566
-1.43422e-05
0.00258211
-1.26121e-05
0.00258662
-8.81848e-06
0.00258852
-3.7098e-06
0.00258757
1.88335e-06
0.00258394
7.16062e-06
0.00257812
1.14744e-05
0.00257082
1.44144e-05
0.00256281
1.58314e-05
0.00255483
1.58067e-05
0.00254747
1.45881e-05
0.00254116
1.25168e-05
0.00253616
9.96138e-06
0.00253253
7.26599e-06
0.00253018
4.71597e-06
0.00252895
2.51868e-06
0.00252858
7.98757e-07
0.00252881
-3.95036e-07
0.00252938
-1.07565e-06
0.00253005
-1.30024e-06
0.00253065
-1.15331e-06
0.00253102
-7.32042e-07
0.0025311
-1.35589e-07
0.00253083
5.43821e-07
0.00253021
1.22524e-06
0.00252928
1.84541e-06
0.00252809
2.35661e-06
0.00252671
2.73458e-06
0.00252522
2.96512e-06
0.00252368
3.06203e-06
0.00252216
3.03076e-06
0.00252069
2.91745e-06
0.00251933
2.71679e-06
0.00251806
2.53344e-06
2.16838e-06
0.00250269
-8.12084e-06
0.0025107
-2.42341e-05
0.00252416
-4.05544e-05
0.00254317
-5.70341e-05
0.00256777
-7.34034e-05
0.00259775
-8.87937e-05
0.00263238
-0.000101748
0.00267002
-0.000109735
0.00270802
-0.000110039
0.00274273
-0.0001004
0.00277017
-8.01349e-05
0.00278853
-5.49037e-05
0.00279784
-2.98289e-05
0.00280019
-1.04077e-05
0.00279953
-1.33379e-06
0.00279983
-2.56259e-06
0.00280326
-9.21539e-06
0.00280893
-1.31557e-05
0.00281248
-5.52327e-06
0.00280771
1.82512e-05
0.00278975
5.46742e-05
0.00275747
9.40306e-05
0.00271367
0.000125761
0.00266381
0.000142376
0.00261453
0.000140211
0.00257266
0.000118471
0.00254468
7.82313e-05
0.00253624
2.23654e-05
0.00255122
-4.33703e-05
0.00258978
-0.000108119
0.00264589
-0.000155226
0.0027067
-0.000167056
0.00275584
-0.000134871
0.00277983
-6.63533e-05
0.00277328
1.74231e-05
0.00273952
9.33604e-05
0.00268725
0.000146393
0.00262649
0.000171579
0.00256644
0.000170156
0.0025151
0.000144864
0.00247998
9.74161e-05
0.00246863
2.88259e-05
0.00248787
-5.74357e-05
0.00254082
-0.000150141
0.00262248
-0.000227446
0.00271739
-0.000262276
0.00280274
-0.000235933
0.00285671
-0.000151048
0.00286725
-3.26973e-05
0.00283559
8.44389e-05
0.00277304
0.000172671
0.00269454
0.000220734
0.00261328
0.00023137
0.002539
0.000212787
0.00247888
0.000171557
0.00243931
0.000110148
0.00242686
2.87642e-05
0.00244776
-6.99042e-05
0.00250525
-0.000174997
0.00259546
-0.000265118
0.0027047
-0.000313081
0.00281084
-0.000297324
0.00288933
-0.000213796
0.00292142
-8.11576e-05
0.00290107
6.48728e-05
0.00283662
0.000186285
0.00274585
0.000258975
0.00264797
0.000279503
0.00255745
0.000259431
0.00248284
0.000213255
0.00242996
0.000148494
0.0024058
6.40307e-05
0.0024191
-4.21536e-05
0.00247561
-0.000161536
0.00257166
-0.00027074
0.0026918
-0.00033985
0.00281279
-0.000347271
0.00291129
-0.000289892
0.00297075
-0.000182947
0.00298461
-5.21522e-05
0.00295576
7.506e-05
0.00289437
0.000174787
0.00281541
0.000229846
0.00273588
0.000232859
0.00267172
0.000187449
0.00263597
0.00010444
0.00263833
-3.91147e-06
0.00268426
-0.000124718
0.00277251
-0.000240988
0.00289304
-0.000331181
0.00302811
-0.000374917
0.00315621
-0.000360545
0.0032571
-0.000289297
0.00331594
-0.000174915
0.00332606
-3.99953e-05
0.00328982
8.96815e-05
0.00321755
0.000191587
0.0031242
0.000252736
0.00302485
0.000272775
0.00293111
0.000261204
0.00285014
0.000229766
0.0027863
0.00018543
0.00274312
0.000129455
0.00272374
6.22848e-05
0.00272952
-1.12486e-05
0.00275848
-8.09596e-05
0.00280484
-0.000134484
0.00285979
-0.00016132
0.00291277
-0.000155393
0.00295303
-0.000116328
0.00297145
-5.02959e-05
0.00296279
3.00435e-05
0.00292738
0.000107866
0.00287129
0.000167126
0.00280422
0.000197992
0.00273643
0.000199485
0.00267603
0.000178029
0.00262766
0.000143408
0.0025927
0.000104771
0.0025703
6.84481e-05
0.00255843
3.77195e-05
0.00255473
1.36654e-05
0.00255689
-3.80782e-06
0.00256282
-1.52355e-05
0.00257066
-2.12399e-05
0.00257877
-2.24585e-05
0.00258578
-1.96217e-05
0.00259062
-1.36547e-05
0.00259261
-5.70423e-06
0.00259155
2.95123e-06
0.00258763
1.10783e-05
0.00258142
1.76828e-05
0.00257369
2.2143e-05
0.00256528
2.42439e-05
0.00255696
2.41265e-05
0.00254936
2.21852e-05
0.00254293
1.89534e-05
0.00253789
1.50015e-05
0.00253429
1.08584e-05
0.00253205
6.9594e-06
0.00253095
3.61787e-06
0.00253073
1.01913e-06
0.0025311
-7.68157e-07
0.0025318
-1.76924e-06
0.00253257
-2.07586e-06
0.00253324
-1.82013e-06
0.00253366
-1.15211e-06
0.00253375
-2.23731e-07
0.00253347
8.24425e-07
0.00253282
1.86951e-06
0.00253185
2.81595e-06
0.00253062
3.59206e-06
0.00252919
4.16196e-06
0.00252765
4.50518e-06
0.00252607
4.64394e-06
0.00252451
4.58751e-06
0.00252302
4.407e-06
0.00252164
4.09539e-06
0.00252036
3.81118e-06
3.25368e-06
0.00250264
-1.0762e-05
0.00251054
-3.21309e-05
0.00252386
-5.3873e-05
0.00254282
-7.59944e-05
0.00256762
-9.82103e-05
0.00259824
-0.000119413
0.00263415
-0.000137659
0.00267376
-0.00014934
0.00271425
-0.000150531
0.00275136
-0.000137514
0.0027802
-0.000108969
0.00279868
-7.33832e-05
0.0028068
-3.79459e-05
0.002807
-1.06152e-05
0.00280418
1.49207e-06
0.00280336
-1.74332e-06
0.00280745
-1.33095e-05
0.00281558
-2.12883e-05
0.00282243
-1.23703e-05
0.00282019
2.04982e-05
0.0028027
7.21626e-05
0.00276855
0.000128173
0.00272114
0.000173178
0.00266676
0.000196758
0.00261277
0.000194193
0.00256656
0.000164679
0.00253514
0.000109653
0.00252493
3.25764e-05
0.00254092
-5.93554e-05
0.00258424
-0.000151439
0.00264869
-0.000219683
0.00271933
-0.000237693
0.00277639
-0.000191931
0.00280366
-9.36227e-05
0.00279525
2.58311e-05
0.00275605
0.000132563
0.00269692
0.000205526
0.00262943
0.000239066
0.00256333
0.000236253
0.00250663
0.000201563
0.00246694
0.000137108
0.00245247
4.32991e-05
0.00247124
-7.62046e-05
0.00252769
-0.000206589
0.00261781
-0.00031757
0.0027256
-0.000370063
0.00282466
-0.000335
0.00288773
-0.000214117
0.00289928
-4.42403e-05
0.00286133
0.000122388
0.00278897
0.000245029
0.00270079
0.000308908
0.00261181
0.000320351
0.0025317
0.000292902
0.00246653
0.000236725
0.00242142
0.000155258
0.00240268
4.75077e-05
0.0024183
-8.55242e-05
0.00247449
-0.00023119
0.00256894
-0.000359568
0.00268664
-0.00043078
0.00280288
-0.000413565
0.00289111
-0.000302026
0.00293092
-0.000120967
0.00291426
8.15334e-05
0.00284832
0.000252222
0.00275199
0.000355309
0.00264697
0.000384522
0.00254967
0.000356725
0.00246915
0.000293775
0.0024115
0.000206152
0.00238543
9.00933e-05
0.00240226
-5.89762e-05
0.00246839
-0.000227665
0.00257749
-0.000379842
0.00270971
-0.000472074
0.00283819
-0.000475745
0.00293779
-0.000389498
0.00299215
-0.000237308
0.00299671
-5.6709e-05
0.00295745
0.000114319
0.00288722
0.000245021
0.00280205
0.000315011
0.00271856
0.000316353
0.00265219
0.000253816
0.00261668
0.00013995
0.00262355
-1.0777e-05
0.00267935
-0.000180525
0.00278143
-0.000343067
0.00291629
-0.000466044
0.0030628
-0.000521424
0.00319781
-0.000495554
0.00330112
-0.000392606
0.0033586
-0.000232392
0.00336398
-4.53829e-05
0.00331982
0.000133842
0.00323695
0.000274456
0.00313155
0.00035814
0.00302043
0.000383899
0.00291688
0.000364752
0.00282926
0.000317386
0.00276235
0.000252338
0.00271934
0.000172466
0.00270224
7.9381e-05
0.00271088
-1.98806e-05
0.00274191
-0.00011199
0.00278905
-0.000181626
0.002844
-0.00021627
0.00289733
-0.000208726
0.00293925
-0.000158246
0.00296076
-7.18031e-05
0.00295573
3.5067e-05
0.00292327
0.00014033
0.00286855
0.000221842
0.0028013
0.000265245
0.00273245
0.000268339
0.00267093
0.000239545
0.00262201
0.000192331
0.0025873
0.000139482
0.00256586
8.98822e-05
0.00255546
4.81174e-05
0.00255348
1.5651e-05
0.00255739
-7.71836e-06
0.00256496
-2.28032e-05
0.00257423
-3.05098e-05
0.0025835
-3.17305e-05
0.00259134
-2.74614e-05
0.00259664
-1.89621e-05
0.00259875
-7.80622e-06
0.00259746
4.23979e-06
0.00259307
1.54699e-05
0.00258623
2.4517e-05
0.00257783
3.05417e-05
0.0025688
3.32773e-05
0.00255998
3.29502e-05
0.00255203
3.01322e-05
0.00254541
2.55766e-05
0.00254033
2.00778e-05
0.00253682
1.43644e-05
0.00253475
9.02972e-06
0.00253388
4.49471e-06
0.00253389
1.00195e-06
0.00253449
-1.36664e-06
0.00253538
-2.6567e-06
0.00253631
-3.0025e-06
0.00253708
-2.59056e-06
0.00253755
-1.62908e-06
0.00253766
-3.26523e-07
0.00253736
1.12574e-06
0.00253666
2.56152e-06
0.00253563
3.85238e-06
0.00253432
4.90274e-06
0.00253281
5.66612e-06
0.0025312
6.11684e-06
0.00252956
6.28777e-06
0.00252795
6.19299e-06
0.00252643
5.93191e-06
0.00252503
5.49527e-06
0.00252374
5.09959e-06
4.33766e-06
0.00250257
-1.33355e-05
0.00251028
-3.98378e-05
0.00252337
-6.69614e-05
0.0025422
-9.48289e-05
0.00256721
-0.000123212
0.00259862
-0.000150828
0.00263623
-0.000175265
0.00267853
-0.000191646
0.00272257
-0.000194567
0.00276313
-0.000178071
0.00279394
-0.000139785
0.00281257
-9.20092e-05
0.0028189
-4.42811e-05
0.00281591
-7.62212e-06
0.00280987
7.53543e-06
0.00280737
7.5039e-07
0.00281243
-1.83651e-05
0.00282423
-3.30893e-05
0.00283601
-2.41505e-05
0.00283752
1.89848e-05
0.00282073
8.89528e-05
0.00278391
0.000164997
0.00273136
0.000225722
0.00267067
0.000257449
0.0026102
0.000254667
0.00255799
0.000216893
0.00252168
0.000145955
0.00250875
4.55082e-05
0.00252585
-7.64494e-05
0.00257577
-0.000201362
0.00265221
-0.000296124
0.00273704
-0.000322519
0.00280541
-0.000260309
0.00283717
-0.000125376
0.0028258
3.71985e-05
0.00277861
0.000179748
0.00270975
0.000274393
0.00263297
0.000315845
0.00255872
0.000310504
0.00249489
0.000265395
0.00244892
0.000183072
0.00242898
6.32422e-05
0.00244321
-9.04329e-05
0.00249756
-0.000260942
0.00259166
-0.000411672
0.00271259
-0.00049099
0.00283195
-0.000454359
0.00291426
-0.000296427
0.00293506
-6.50382e-05
0.00289378
0.000163663
0.00281001
0.000328803
0.00270884
0.000410079
0.00260925
0.000419941
0.00252128
0.000380873
0.0024491
0.000308905
0.00239601
0.000208342
0.00236932
7.42021e-05
0.00238128
-9.74824e-05
0.00244182
-0.000291734
0.00254751
-0.000465258
0.00267814
-0.00056141
0.00280426
-0.000539684
0.00289812
-0.000395893
0.00294081
-0.00016365
0.00292511
9.72271e-05
0.00285737
0.000319964
0.00275593
0.00045675
0.00264363
0.000496825
0.00253858
0.000461772
0.0024511
0.00038126
0.00238892
0.000268331
0.00236357
0.000115444
0.00238826
-8.36696e-05
0.00246773
-0.000307136
0.00259097
-0.000503086
0.00273382
-0.000614921
0.00286744
-0.000609363
0.00296653
-0.000488591
0.00301509
-0.000285861
0.00300944
-5.10668e-05
0.00295781
0.000165957
0.00287601
0.000326816
0.00278216
0.00040886
0.00269326
0.000405252
0.0026247
0.000322375
0.00259117
0.000173479
0.00260565
-2.52574e-05
0.0026742
-0.000249067
0.00279059
-0.000459458
0.00293689
-0.000612344
0.00308948
-0.000674013
0.00322551
-0.000631586
0.00332665
-0.000493747
0.00338053
-0.000286272
0.0033815
-4.6353e-05
0.00333165
0.000183693
0.00324122
0.000364886
0.00312652
0.000472837
0.00300549
0.000504932
0.00289309
0.000477149
0.00279925
0.000411223
0.00272964
0.000321951
0.0026872
0.000214903
0.00267261
9.39795e-05
0.00268383
-3.11058e-05
0.00271623
-0.000144388
0.00276326
-0.000228661
0.0028173
-0.000270301
0.00287003
-0.000261464
0.00291285
-0.000201064
0.0029374
-9.6357e-05
0.00293715
3.53221e-05
0.00290975
0.000167727
0.00285889
0.000272708
0.00279356
0.000330569
0.00272504
0.000336861
0.00266317
0.000301419
0.00261408
0.000241422
0.0025799
0.000173662
0.00255979
0.000109989
0.00255134
5.65681e-05
0.00255164
1.53539e-05
0.00255789
-1.39733e-05
0.00256766
-3.2569e-05
0.00257884
-4.16938e-05
0.00258965
-4.25421e-05
0.00259859
-3.64018e-05
0.00260452
-2.48899e-05
0.00260676
-1.00441e-05
0.00260517
5.83029e-06
0.00260014
2.05022e-05
0.00259246
3.21949e-05
0.00258316
3.9842e-05
0.00257329
4.31424e-05
0.0025638
4.24443e-05
0.00255539
3.8538e-05
0.00254853
3.24356e-05
0.00254343
2.51862e-05
0.00254005
1.77386e-05
0.00253823
1.08544e-05
0.00253766
5.06396e-06
0.002538
6.61728e-07
0.0025389
-2.26707e-06
0.00254004
-3.80002e-06
0.00254116
-4.12501e-06
0.00254207
-3.4922e-06
0.00254261
-2.17478e-06
0.00254273
-4.42401e-07
0.00254239
1.45988e-06
0.00254163
3.32094e-06
0.00254051
4.97899e-06
0.0025391
6.31486e-06
0.00253749
7.2728e-06
0.00253578
7.82334e-06
0.00253406
8.01311e-06
0.00253239
7.86214e-06
0.00253082
7.50276e-06
0.00252939
6.9224e-06
0.00252809
6.40151e-06
5.41961e-06
0.00250247
-1.58102e-05
0.0025099
-4.72648e-05
0.00252263
-7.96878e-05
0.0025412
-0.000113401
0.00256632
-0.000148331
0.00259862
-0.000183127
0.00263831
-0.000214962
0.00268413
-0.000237462
0.00273298
-0.000243412
0.00277828
-0.000223372
0.0028118
-0.000173312
0.00283067
-0.000110871
0.00283458
-4.81921e-05
0.00282708
-1.29681e-07
0.00281639
1.8232e-05
0.0028113
5.83501e-06
0.0028175
-2.45602e-05
0.00283438
-4.99677e-05
0.00285317
-4.2941e-05
0.00286011
1.20424e-05
0.00284445
0.000104616
0.00280405
0.000205396
0.00274464
0.00028513
0.00267561
0.00032648
0.00260664
0.000323638
0.00254654
0.000276995
0.00250361
0.000188875
0.00248663
6.24897e-05
0.00250483
-9.46492e-05
0.00256394
-0.000260474
0.00265759
-0.000389769
0.0027624
-0.000427327
0.00284583
-0.000343744
0.00288261
-0.000162157
0.0028662
5.36139e-05
0.00280766
0.000238289
0.00272568
0.000356371
0.00263687
0.000404653
0.00255242
0.000394955
0.00247979
0.000338021
0.0024253
0.00023756
0.00239525
9.32964e-05
0.00239735
-9.25284e-05
0.00244176
-0.000305361
0.00253508
-0.000504986
0.00266817
-0.000624078
0.00281084
-0.000597028
0.00292045
-0.000406036
0.00296162
-0.000106212
0.00292582
0.000199458
0.00283383
0.000420796
0.0027185
0.00052541
0.00260579
0.000532656
0.00250766
0.000479
0.00242636
0.000390208
0.00236401
0.000270687
0.00233123
0.000106982
0.00234579
-0.000112036
0.00241867
-0.000364613
0.00254111
-0.000587704
0.00268608
-0.000706374
0.00282015
-0.000673761
0.00291525
-0.000490987
0.00295481
-0.000203212
0.00293469
0.000117344
0.00286239
0.000392269
0.00275554
0.000563594
0.00263645
0.000615916
0.00252379
0.000574435
0.0024295
0.000475555
0.0023642
0.000333631
0.00234241
0.000137231
0.00237746
-0.000118722
0.00247013
-0.000399805
0.00260429
-0.000637244
0.00275293
-0.000763565
0.00288734
-0.000743771
0.00298362
-0.000584868
0.00302659
-0.000328837
0.00301258
-3.70551e-05
0.00295028
0.000228262
0.00285743
0.000419659
0.00275443
0.000511866
0.00265966
0.000500022
0.00258947
0.000392563
0.00255989
0.000203058
0.00258426
-4.96315e-05
0.00266578
-0.000330586
0.00279299
-0.000586661
0.00294398
-0.000763337
0.00309479
-0.00082482
0.003225
-0.000761805
0.0033194
-0.00058814
0.00336776
-0.000334631
0.00336505
-4.36466e-05
0.0033126
0.000236147
0.00321926
0.000458227
0.00310036
0.000591728
0.00297397
0.000631329
0.0028562
0.000594914
0.00275859
0.00050884
0.00268789
0.000392645
0.00264696
0.000255833
0.00263518
0.000105761
0.00264902
-4.49462e-05
0.00268298
-0.000178344
0.00273041
-0.000276092
0.00278397
-0.000323863
0.00283591
-0.000313403
0.00287849
-0.000243644
0.00290449
-0.000122353
0.00290795
3.1856e-05
0.00288592
0.000189761
0.00284049
0.000318134
0.00277927
0.000391786
0.00271308
0.000403053
0.00265226
0.00036224
0.00260383
0.000289848
0.00257066
0.000206833
0.00255224
0.000128409
0.00254612
6.26883e-05
0.00254914
1.23338e-05
0.00255821
-2.30366e-05
0.00257061
-4.49724e-05
0.00258409
-5.51745e-05
0.00259676
-5.52069e-05
0.00260704
-4.66838e-05
0.00261375
-3.16008e-05
0.0026162
-1.24941e-05
0.00261429
7.73671e-06
0.00260852
2.6271e-05
0.00259985
4.08711e-05
0.00258946
5.02248e-05
0.00257859
5.40137e-05
0.00256829
5.275e-05
0.00255933
4.74948e-05
0.0025522
3.95693e-05
0.00254707
3.03167e-05
0.00254387
2.09334e-05
0.00254236
1.23629e-05
0.00254218
5.24659e-06
0.00254292
-7.72601e-08
0.00254419
-3.53365e-06
0.00254563
-5.24769e-06
0.00254698
-5.47529e-06
0.00254803
-4.5417e-06
0.00254865
-2.79311e-06
0.00254877
-5.65345e-07
0.00254839
1.84009e-06
0.00254755
4.16583e-06
0.00254631
6.21655e-06
0.00254478
7.84996e-06
0.00254305
9.00274e-06
0.00254123
9.64328e-06
0.0025394
9.83563e-06
0.00253766
9.6069e-06
0.00253603
9.12846e-06
0.00253457
8.38178e-06
0.00253326
7.72053e-06
6.49968e-06
0.00250234
-1.81458e-05
0.00250936
-5.42939e-05
0.00252155
-9.18691e-05
0.00253964
-0.000131496
0.0025647
-0.00017339
0.00259788
-0.000216302
0.00264001
-0.000257096
0.00269022
-0.000287676
0.00274544
-0.000298625
0.00279711
-0.000275048
0.0028342
-0.000210404
0.0028533
-0.000129967
0.0028538
-4.86897e-05
0.00284003
1.36384e-05
0.00282285
3.54094e-05
0.00281418
1.45122e-05
0.00282193
-3.23164e-05
0.00284593
-7.39647e-05
0.00287459
-7.16068e-05
0.00288911
-2.47641e-06
0.00287494
0.000118788
0.00282965
0.000250685
0.00276119
0.000353589
0.00268149
0.000406187
0.00260184
0.000403288
0.00253177
0.000347058
0.00248013
0.000240516
0.00245732
8.53067e-05
0.00247636
-0.000113693
0.0025472
-0.000331311
0.00266382
-0.000506391
0.00279628
-0.000559791
0.00290061
-0.000448075
0.00294337
-0.000204912
0.0029186
7.8384e-05
0.00284384
0.000313047
0.00274448
0.000455739
0.00264068
0.000508447
0.00254421
0.000491429
0.00246118
0.00042105
0.00239484
0.000303898
0.0023487
0.000139439
0.00233371
-7.75438e-05
0.00236972
-0.00034137
0.00246892
-0.00060418
0.00261803
-0.000773191
0.00278065
-0.000759645
0.00291194
-0.000537335
0.00297344
-0.000167712
0.00294907
0.00022383
0.00285497
0.000514902
0.00272787
0.000652507
0.00260124
0.000659281
0.00249097
0.000589276
0.00239897
0.000482206
0.00232827
0.000341388
0.00229423
0.000141021
0.00231792
-0.000135723
0.0024066
-0.000453294
0.0025441
-0.000725206
0.00269893
-0.000861206
0.00283737
-0.000812204
0.00293219
-0.000585804
0.0029676
-0.000238617
0.00294114
0.000143802
0.00286239
0.000471015
0.00274959
0.000676392
0.00262431
0.0007412
0.00250496
0.000693788
0.00240511
0.000575399
0.00233868
0.000400062
0.00232237
0.00015354
0.0023677
-0.000164048
0.00247051
-0.000502615
0.00261054
-0.000777273
0.00275973
-0.000912755
0.00289075
-0.000874796
0.00298184
-0.000675953
0.00301912
-0.00036612
0.0029988
-1.67366e-05
0.00292897
0.000298092
0.00282779
0.000520846
0.00271718
0.000622472
0.00261746
0.000599747
0.00254693
0.000463088
0.00252309
0.000226898
0.002558
-8.45421e-05
0.00264981
-0.000422392
0.00278143
-0.000718288
0.00292892
-0.000910825
0.0030704
-0.000966294
0.00318936
-0.000880763
0.00327389
-0.000672679
0.00331565
-0.000376388
0.00331002
-3.80149e-05
0.00325757
0.000288597
0.00316563
0.00055017
0.00304794
0.000709418
0.00292173
0.000757536
0.00280351
0.000713135
0.00270598
0.000606371
0.00263691
0.000461712
0.00259913
0.000293613
0.00259117
0.000113722
0.0026086
-6.23762e-05
0.00264533
-0.000215075
0.00269436
-0.000325127
0.00274821
-0.000377706
0.00279931
-0.000364503
0.00284063
-0.000284964
0.00286614
-0.000147867
0.00287116
2.68331e-05
0.00285314
0.000207784
0.00281328
0.000357996
0.00275758
0.000447487
0.00269566
0.000464975
0.00263764
0.000420252
0.00259112
0.000336376
0.00255969
0.000238262
0.00254338
0.000144719
0.00253987
6.61938e-05
0.00254584
6.36405e-06
0.00255789
-3.50873e-05
0.00257306
-6.01422e-05
0.00258894
-7.10546e-05
0.00260358
-6.98461e-05
0.00261538
-5.84792e-05
0.00262309
-3.93133e-05
0.00262598
-1.53825e-05
0.00262394
9.77531e-06
0.00261754
3.2671e-05
0.00260788
5.0526e-05
0.00259637
6.17369e-05
0.00258441
6.5971e-05
0.00257322
6.39465e-05
0.00256365
5.70574e-05
0.00255623
4.69961e-05
0.00255109
3.54518e-05
0.00254812
2.39037e-05
0.00254699
1.34957e-05
0.00254725
4.98195e-06
0.00254844
-1.26642e-06
0.00255011
-5.20278e-06
0.00255188
-7.01997e-06
0.00255347
-7.05977e-06
0.00255466
-5.73561e-06
0.00255534
-3.47482e-06
0.00255546
-6.83532e-07
0.00255502
2.27873e-06
0.00255408
5.10811e-06
0.00255272
7.57615e-06
0.00255105
9.51821e-06
0.00254919
1.08651e-05
0.00254725
1.15846e-05
0.00254532
1.17622e-05
0.0025435
1.14326e-05
0.00254181
1.08138e-05
0.00254032
9.8762e-06
0.00253898
9.06093e-06
7.5791e-06
0.00250215
-2.02916e-05
0.00250863
-6.07746e-05
0.00252002
-0.000103262
0.00253733
-0.000148808
0.00256202
-0.000198082
0.00259593
-0.000250206
0.00264075
-0.000301923
0.00269635
-0.000343275
0.00275993
-0.0003622
0.00282012
-0.000335241
0.00286194
-0.000252227
0.00288153
-0.000149549
0.00287762
-4.47852e-05
0.00285527
3.59881e-05
0.0028289
6.17804e-05
0.0028147
2.87155e-05
0.00282403
-4.16489e-05
0.00285757
-0.000107502
0.00289992
-0.000113964
0.00292514
-2.76882e-05
0.00291329
0.000130636
0.00286168
0.000302297
0.00278154
0.000433721
0.00268839
0.000499344
0.00259556
0.000496115
0.00251315
0.000429464
0.00245035
0.000303318
0.00241943
0.000116226
0.00243626
-0.00013052
0.00251312
-0.000408171
0.00264813
-0.000641398
0.00281334
-0.000725005
0.00295306
-0.000587799
0.00301413
-0.000265982
0.00298355
0.000108963
0.0028882
0.000408397
0.00276606
0.000577884
0.00264385
0.000630659
0.00253373
0.000601547
0.0024385
0.000516281
0.00235652
0.000385879
0.00229133
0.000204625
0.00226426
-5.04724e-05
0.00230579
-0.000382903
0.0024245
-0.000722889
0.00259384
-0.000942526
0.00276929
-0.000935101
0.00290821
-0.000676248
0.00297766
-0.000237167
0.00296089
0.000240601
0.00286792
0.000607875
0.00273329
0.000787133
0.00259439
0.000798182
0.00247141
0.000712259
0.00236855
0.000585068
0.00229219
0.000417742
0.00226183
0.00017138
0.00229756
-0.00017145
0.00239964
-0.000555376
0.00254566
-0.000871222
0.00270327
-0.00101882
0.00284155
-0.000950479
0.00293548
-0.000679732
0.00296902
-0.000272155
0.00293881
0.000174008
0.00285505
0.000554777
0.0027371
0.000794335
0.00260664
0.00087166
0.00248204
0.00081839
0.00237854
0.000678899
0.00231293
0.000465677
0.00230274
0.000163728
0.00235639
-0.000217704
0.0024651
-0.000611324
0.00260602
-0.000918188
0.00275143
-0.00105817
0.00287597
-0.000999332
0.00296
-0.000759986
0.00299113
-0.000397248
0.00296573
8.65809e-06
0.0028911
0.000372721
0.00278477
0.000627179
0.00266924
0.000738009
0.00256661
0.000702373
0.00249765
0.000532049
0.0024808
0.000243749
0.00252498
-0.00012873
0.00262211
-0.000519519
0.00275069
-0.000846866
0.00288726
-0.0010474
0.00301393
-0.00109296
0.00311847
-0.000985306
0.00319175
-0.000745962
0.00322659
-0.000411221
0.00321856
-2.99863e-05
0.00316775
0.000339402
0.0030803
0.000637621
0.00296828
0.000821437
0.00284751
0.000878306
0.00273406
0.000826589
0.00264112
0.000699311
0.00257708
0.000525752
0.00254484
0.000325853
0.00254253
0.000116033
0.00256504
-8.48895e-05
0.00260543
-0.000255466
0.00265608
-0.000375772
0.00270956
-0.000431184
0.00275904
-0.000413987
0.00279843
-0.000324357
0.00282265
-0.000172088
0.00282804
2.1445e-05
0.00281283
0.000222993
0.00277808
0.000392752
0.00272856
0.000497003
0.00267242
0.000521111
0.00261895
0.000473727
0.00257575
0.000379579
0.00254699
0.000267016
0.00253327
0.000158439
0.00253251
6.69555e-05
0.00254127
-2.3992e-06
0.00255592
-4.97342e-05
0.00257333
-7.75522e-05
0.00259112
-8.8843e-05
0.00260746
-8.61882e-05
0.00262083
-7.18504e-05
0.00262993
-4.84133e-05
0.00263385
-1.93007e-05
0.00263232
1.13082e-05
0.00262584
3.91498e-05
0.0026156
6.07612e-05
0.0026032
7.41381e-05
0.00259028
7.88964e-05
0.00257824
7.5989e-05
0.00256808
6.72103e-05
0.00256038
5.47018e-05
0.00255526
4.05675e-05
0.00255255
2.66184e-05
0.00255182
1.42236e-05
0.00255255
4.25246e-06
0.00255419
-2.90534e-06
0.00255624
-7.25559e-06
0.0025583
-9.08438e-06