/*--------------------------------*- C++ -*----------------------------------*\
  =========                 |
  \\      /  F ield         | OpenFOAM: The Open Source CFD Toolbox
   \\    /   O peration     | Website:  https://openfoam.org
    \\  /    A nd           | Version:  11
     \\/     M anipulation  |
\*---------------------------------------------------------------------------*/
FoamFile
{
    format      ascii;
    class       volVectorField;
    location    "7.776687";
    object      vorticity;
}
// * * * * * * * * * * * * * * * * * * * * * * * * * * * * * * * * * * * * * //

dimensions      [0 0 -1 0 0 0 0];

internalField   nonuniform List<vector> 
7132
(
(-3.33558e-17 -1.82567e-15 -0.0114474)
(-1.43331e-16 -1.79407e-15 -0.0114876)
(-1.38635e-16 -1.28354e-17 -0.0115509)
(-1.60972e-16 -1.77012e-15 -0.0116392)
(-1.97971e-16 -1.76456e-15 -0.0117559)
(-1.97183e-16 -5.19509e-19 -0.0119037)
(-1.79317e-16 1.26237e-17 -0.0120839)
(-1.65709e-16 1.34042e-17 -0.0122927)
(-8.81807e-17 8.72587e-18 -0.0125243)
(-5.31926e-17 5.70957e-18 -0.012767)
(-1.01068e-16 3.25858e-18 -0.0130035)
(-8.23085e-17 1.13317e-17 -0.0132352)
(-1.47937e-16 8.04188e-18 -0.0134487)
(4.26461e-17 8.75583e-17 -0.0136378)
(7.92329e-16 -1.53964e-15 -0.0137992)
(1.73513e-15 -1.55178e-15 -0.0139301)
(2.38751e-15 -1.70773e-15 -0.0140291)
(2.2446e-15 4.51468e-18 -0.0140936)
(1.71246e-15 -1.56768e-15 -0.0141197)
(9.52133e-16 -1.59186e-15 -0.0140996)
(-1.74806e-16 7.35374e-17 -0.0140234)
(-1.41403e-15 9.50952e-17 -0.0138811)
(-2.71903e-15 1.5501e-16 -0.0136669)
(-3.97976e-15 1.15869e-16 -0.0133853)
(-5.34231e-15 1.89449e-15 -0.0130549)
(-6.17061e-15 3.47714e-16 -0.0127121)
(-6.73082e-15 4.32954e-16 -0.0124248)
(-6.73247e-15 4.3498e-16 -0.0122555)
(-5.28891e-15 2.1569e-16 -0.0122458)
(-2.27157e-15 1.6488e-15 -0.0124215)
(1.34186e-15 1.4906e-15 -0.0127914)
(3.90907e-15 3.23272e-15 -0.0133086)
(5.62451e-15 -2.45362e-16 -0.0138745)
(6.59016e-15 1.41948e-15 -0.0143765)
(7.02534e-15 1.39635e-15 -0.0147179)
(7.56005e-15 1.34335e-15 -0.0148325)
(8.25842e-15 3.02458e-15 -0.0146912)
(9.54287e-15 -5.9922e-16 -0.014302)
(1.16915e-14 8.35105e-16 -0.0137107)
(1.47555e-14 4.72749e-16 -0.0129957)
(1.86779e-14 9.95206e-17 -0.0122571)
(2.29443e-14 -1.85441e-16 -0.0116112)
(2.70876e-14 -2.09595e-15 -0.0111622)
(3.00027e-14 -3.35985e-16 -0.0109619)
(3.03453e-14 -3.88106e-17 -0.0110111)
(2.78834e-14 3.84359e-16 -0.011277)
(2.40278e-14 7.61756e-16 -0.011703)
(2.08496e-14 -7.44817e-16 -0.0122058)
(1.88901e-14 1.12582e-15 -0.0126915)
(1.78657e-14 1.25965e-15 -0.0130829)
(1.74069e-14 -3.74803e-16 -0.0133316)
(1.71505e-14 -2.08685e-15 -0.0134191)
(1.67487e-14 -3.71157e-16 -0.0133518)
(1.60965e-14 -3.84326e-16 -0.0131542)
(1.48725e-14 -3.56293e-16 -0.0128619)
(1.27793e-14 -2.17408e-16 -0.0125156)
(9.37607e-15 -1.66135e-15 -0.0121554)
(4.12317e-15 5.65649e-16 -0.011817)
(-3.19713e-15 1.24305e-15 -0.0115282)
(-1.25194e-14 2.00235e-15 -0.0113079)
(-2.32976e-14 2.74854e-15 -0.0111649)
(-3.48815e-14 1.63732e-15 -0.0110979)
(-4.64546e-14 3.79452e-15 -0.0110967)
(-5.70343e-14 2.19025e-15 -0.0111457)
(-6.58543e-14 1.99369e-15 -0.0112263)
(-7.23602e-14 3.32295e-15 -0.0113194)
(-7.66856e-14 1.11261e-15 -0.0114071)
(-7.92696e-14 2.44824e-15 -0.011475)
(-8.07264e-14 4.72667e-16 -0.011514)
(-8.17647e-14 4.30426e-16 -0.0115203)
(-8.28883e-14 2.36529e-15 -0.0114951)
(-8.46099e-14 1.03555e-15 -0.0114433)
(-8.71666e-14 3.34581e-15 -0.0113722)
(-9.06325e-14 2.28586e-15 -0.0112898)
(-9.49779e-14 2.98055e-15 -0.0112042)
(-9.99269e-14 5.38086e-15 -0.011122)
(-1.05239e-13 4.19504e-15 -0.0110484)
(-1.10488e-13 6.31747e-15 -0.0109867)
(-1.15273e-13 4.76372e-15 -0.0109381)
(-1.19293e-13 4.7236e-15 -0.0109023)
(-1.22249e-13 6.23932e-15 -0.0108776)
(-1.24094e-13 4.12496e-15 -0.0108617)
(-1.24767e-13 5.37395e-15 -0.0108515)
(-1.24332e-13 3.08313e-15 -0.0108441)
(-1.2295e-13 2.50015e-15 -0.0108366)
(-1.20729e-13 3.68595e-15 -0.0108268)
(-1.17905e-13 1.44658e-15 -0.0108132)
(-1.14562e-13 2.7489e-15 -0.0107947)
(-1.10794e-13 6.47016e-16 -0.0107711)
(-1.06689e-13 3.3969e-16 -0.0107427)
(-1.02234e-13 1.83672e-15 -0.0107103)
(-9.74854e-14 -1.14796e-16 -0.0106748)
(-9.23823e-14 1.40988e-15 -0.0106372)
(-8.68412e-14 1.17231e-15 -0.0105987)
(-8.08022e-14 -8.82443e-16 -0.0105599)
(-7.41649e-14 4.43477e-16 -0.0105216)
(-6.68603e-14 -1.80792e-15 -0.010484)
(-5.88241e-14 -6.68669e-16 -0.0104473)
(-5.00463e-14 -1.3102e-15 -0.0104112)
(-4.06191e-14 -3.70602e-15 -0.0103756)
(-3.06577e-14 -2.58504e-15 -0.0103399)
(-2.03371e-14 -4.86176e-15 -0.0103037)
(-9.812e-15 -3.56751e-15 -0.0102666)
(7.88689e-16 -3.91948e-15 -0.010228)
(1.13584e-14 -5.96977e-15 -0.0101876)
(2.18976e-14 -4.53718e-15 -0.0101451)
(3.24545e-14 -6.60763e-15 -0.0101002)
(4.31436e-14 -5.2422e-15 -0.0100528)
(5.40726e-14 -5.63964e-15 -0.0100027)
(6.52781e-14 -7.79384e-15 -0.00994974)
(7.67738e-14 -6.45478e-15 -0.00989392)
(8.84961e-14 -8.56261e-15 -0.00983508)
(1.00374e-13 -7.182e-15 -0.00977309)
(1.12327e-13 -7.57555e-15 -0.00970779)
(1.24268e-13 -9.84577e-15 -0.00963896)
(1.36197e-13 -8.86527e-15 -0.00956635)
(1.48149e-13 -1.16715e-14 -0.00948963)
(1.60248e-13 -1.13679e-14 -0.00940841)
(1.72656e-13 -1.31787e-14 -0.0093222)
(1.85553e-13 -1.7104e-14 -0.00923036)
(1.99228e-13 -1.78438e-14 -0.00913218)
(2.14053e-13 -2.04938e-14 -0.00902693)
(2.3058e-13 -2.31911e-14 -0.00891409)
(2.49532e-13 -2.5794e-14 -0.00879364)
(2.71796e-13 -2.99141e-14 -0.00866627)
(2.98495e-13 -3.02245e-14 -0.0085335)
(3.30914e-13 -3.1887e-14 -0.00839724)
(3.70509e-13 -3.31949e-14 -0.00825871)
(4.18797e-13 -3.42275e-14 -0.00811661)
(4.77222e-13 -3.68487e-14 -0.00796498)
(5.47072e-13 -3.60094e-14 -0.0077911)
(6.29249e-13 -3.72319e-14 -0.0075746)
(7.24285e-13 -3.93022e-14 -0.00728858)
(8.32344e-13 -4.28208e-14 -0.00690327)
(9.52855e-13 -4.9922e-14 -0.00639223)
(1.08394e-12 -5.51414e-14 -0.0057399)
(1.22148e-12 -6.23512e-14 -0.00494891)
(1.35815e-12 -6.70286e-14 -0.00404472)
(1.48258e-12 -6.48547e-14 -0.0030758)
(1.57915e-12 -5.21277e-14 -0.00210838)
(1.62867e-12 -1.80019e-14 -0.00121609)
(1.61004e-12 3.66409e-14 -0.000466788)
(1.50285e-12 1.14771e-13 9.05033e-05)
(1.29072e-12 2.12804e-13 0.000434983)
(9.65105e-13 3.19408e-13 0.000577309)
(5.29473e-13 4.24244e-13 0.000555731)
(2.82473e-15 5.02346e-13 0.000426259)
(-5.78679e-13 5.35002e-13 0.00024972)
(-1.1627e-12 5.05853e-13 7.92863e-05)
(-1.68547e-12 4.05993e-13 -4.84739e-05)
(-2.08101e-12 2.46617e-13 -0.000117273)
(-2.29398e-12 4.26858e-14 -0.000129404)
(-2.29303e-12 -1.72573e-13 -0.000100081)
(-2.08049e-12 -3.62949e-13 -5.00473e-05)
(-1.69424e-12 -4.97673e-13 1.21986e-06)
(-1.20101e-12 -5.51325e-13 4.00128e-05)
(-6.80939e-13 -5.23237e-13 6.07377e-05)
(-2.15346e-13 -4.30017e-13 6.0563e-05)
(1.45829e-13 -2.99444e-13 6.76143e-05)
(3.83132e-13 -1.15333e-13 2.77628e-05)
(-3.33453e-17 -3.66448e-18 -0.0342373)
(-1.48473e-16 -6.49285e-18 -0.0343587)
(-1.52078e-16 -6.55585e-18 -0.0345483)
(-1.74191e-16 -7.42168e-18 -0.0348107)
(-2.26012e-16 -8.34084e-18 -0.0351564)
(-2.29375e-16 -8.15264e-18 -0.0355932)
(-2.39449e-16 -3.11315e-18 -0.0361271)
(-2.38207e-16 -3.21638e-17 -0.0367475)
(-4.94664e-17 1.68719e-15 -0.0374401)
(-2.06011e-16 1.21532e-17 -0.0381714)
(-8.99205e-16 1.78165e-17 -0.0388868)
(-7.7761e-16 1.76949e-15 -0.0395905)
(1.66629e-15 -5.44354e-17 -0.0402374)
(5.88815e-15 -3.85963e-16 -0.0408069)
(9.259e-15 -6.54548e-16 -0.0412873)
(8.72037e-15 -6.12955e-16 -0.041667)
(3.37242e-15 -2.2436e-16 -0.0419401)
(-5.37221e-15 3.4371e-16 -0.0421026)
(-1.37213e-14 8.13701e-16 -0.0421533)
(-2.06406e-14 1.08652e-15 -0.0420932)
(-2.61377e-14 1.2562e-15 -0.0419304)
(-3.00311e-14 1.36721e-15 -0.041682)
(-3.22382e-14 1.43787e-15 -0.0413756)
(-3.23195e-14 1.42666e-15 -0.0410479)
(-2.95633e-14 1.25519e-15 -0.0407399)
(-2.21384e-14 1.04281e-15 -0.0404938)
(-1.04669e-14 7.13887e-16 -0.0403656)
(7.94341e-15 -2.85976e-16 -0.040366)
(3.42119e-14 -2.01433e-15 -0.0404532)
(6.22448e-14 -3.4013e-15 -0.0405634)
(8.27911e-14 -1.60184e-15 -0.040648)
(9.24434e-14 -4.11278e-15 -0.0406574)
(9.32441e-14 -3.32232e-15 -0.0405472)
(8.83746e-14 -1.01904e-15 -0.0402958)
(8.14998e-14 -2.55804e-15 -0.0399048)
(7.54364e-14 7.26807e-16 -0.0393882)
(7.24599e-14 -1.43289e-15 -0.0387674)
(7.39605e-14 -4.05048e-15 -0.0380762)
(8.04158e-14 -3.50763e-15 -0.0373704)
(9.08909e-14 -6.48692e-15 -0.0367257)
(1.01997e-13 -3.993e-15 -0.0362202)
(1.11596e-13 -6.12459e-15 -0.035924)
(1.16994e-13 -7.35919e-15 -0.035858)
(1.11722e-13 -3.69871e-15 -0.0359705)
(9.04371e-14 -2.44906e-15 -0.0361757)
(5.65471e-14 5.27698e-15 -0.0363976)
(2.40494e-14 2.54351e-15 -0.0365862)
(5.70454e-15 8.76368e-17 -0.0367041)
(1.16682e-15 8.81384e-16 -0.0367227)
(4.88542e-15 -1.46653e-15 -0.0366271)
(1.14096e-14 -3.48327e-15 -0.0364174)
(1.7199e-14 -2.30468e-17 -0.0361065)
(2.02427e-14 -1.58059e-15 -0.0357178)
(1.93738e-14 5.53789e-16 -0.0352838)
(1.34635e-14 -4.32411e-16 -0.0348427)
(1.03198e-15 -9.37792e-16 -0.0344336)
(-1.96343e-14 4.40144e-15 -0.0340898)
(-5.00828e-14 5.11668e-15 -0.033834)
(-9.05866e-14 9.56434e-15 -0.0336744)
(-1.39372e-13 1.03179e-14 -0.0336053)
(-1.92956e-13 1.21947e-14 -0.0336093)
(-2.47044e-13 1.49505e-14 -0.0336608)
(-2.96846e-13 1.31362e-14 -0.0337316)
(-3.37956e-13 1.36248e-14 -0.0337962)
(-3.67778e-13 7.92215e-15 -0.0338353)
(-3.85836e-13 1.04735e-14 -0.0338368)
(-3.93869e-13 6.30201e-15 -0.0337947)
(-3.9487e-13 2.73425e-15 -0.0337091)
(-3.92002e-13 3.45539e-15 -0.0335856)
(-3.88241e-13 -2.23789e-16 -0.0334332)
(-3.85816e-13 5.52261e-15 -0.0332636)
(-3.86244e-13 4.90944e-15 -0.033089)
(-3.90302e-13 4.62238e-15 -0.0329205)
(-3.97912e-13 7.92645e-15 -0.0327674)
(-4.08443e-13 5.89261e-15 -0.032636)
(-4.20604e-13 1.22458e-14 -0.0325291)
(-4.3285e-13 1.12104e-14 -0.0324465)
(-4.4357e-13 9.60012e-15 -0.0323854)
(-4.51256e-13 1.09007e-14 -0.0323405)
(-4.54907e-13 6.47644e-15 -0.0323059)
(-4.53909e-13 1.03747e-14 -0.0322752)
(-4.4827e-13 7.11868e-15 -0.0322425)
(-4.38445e-13 3.75812e-15 -0.0322032)
(-4.25116e-13 3.90971e-15 -0.0321538)
(-4.09162e-13 -1.03621e-15 -0.0320928)
(-3.91268e-13 2.89816e-15 -0.0320198)
(-3.72027e-13 9.807e-17 -0.0319358)
(-3.51817e-13 -2.54143e-15 -0.0318427)
(-3.30757e-13 -1.55454e-15 -0.0317431)
(-3.08897e-13 -5.67536e-15 -0.0316394)
(-2.86054e-13 -1.0306e-15 -0.0315341)
(-2.62006e-13 -3.30571e-15 -0.0314294)
(-2.36508e-13 -3.91235e-15 -0.0313267)
(-2.09207e-13 -2.88287e-15 -0.0312269)
(-1.79806e-13 -5.48585e-15 -0.03113)
(-1.48023e-13 -4.79278e-15 -0.0310356)
(-1.13654e-13 -7.74358e-15 -0.0309429)
(-7.66813e-14 -9.07576e-15 -0.0308505)
(-3.72293e-14 -8.67791e-15 -0.030757)
(4.28591e-15 -1.16656e-14 -0.0306611)
(4.72811e-14 -1.09913e-14 -0.0305613)
(9.10784e-14 -1.35499e-14 -0.0304566)
(1.34991e-13 -1.41305e-14 -0.0303462)
(1.78561e-13 -1.27698e-14 -0.0302294)
(2.21534e-13 -1.47895e-14 -0.0301059)
(2.63994e-13 -1.33505e-14 -0.0299755)
(3.06299e-13 -1.54959e-14 -0.0298381)
(3.48922e-13 -1.60513e-14 -0.0296938)
(3.92381e-13 -1.49721e-14 -0.0295426)
(4.36956e-13 -1.74098e-14 -0.0293842)
(4.82693e-13 -1.63291e-14 -0.0292184)
(5.2937e-13 -1.8628e-14 -0.0290448)
(5.76533e-13 -1.90977e-14 -0.0288629)
(6.2371e-13 -1.77879e-14 -0.0286718)
(6.70407e-13 -2.00458e-14 -0.028471)
(7.16305e-13 -1.90711e-14 -0.0282592)
(7.61281e-13 -2.19624e-14 -0.0280357)
(8.05398e-13 -2.3621e-14 -0.027799)
(8.49017e-13 -2.40963e-14 -0.0275479)
(8.92745e-13 -2.86554e-14 -0.0272805)
(9.37656e-13 -3.03592e-14 -0.0269949)
(9.85506e-13 -3.44354e-14 -0.0266892)
(1.03887e-12 -4.09306e-14 -0.0263618)
(1.10136e-12 -4.4667e-14 -0.026013)
(1.17762e-12 -5.26611e-14 -0.025645)
(1.27332e-12 -5.80489e-14 -0.025263)
(1.39501e-12 -6.61593e-14 -0.0248735)
(1.54974e-12 -7.71361e-14 -0.024482)
(1.74475e-12 -8.58489e-14 -0.0240873)
(1.9869e-12 -9.92518e-14 -0.0236751)
(2.28198e-12 -1.10288e-13 -0.0232115)
(2.63399e-12 -1.24103e-13 -0.0226387)
(3.04456e-12 -1.4085e-13 -0.0218779)
(3.51301e-12 -1.55371e-13 -0.020838)
(4.0347e-12 -1.73986e-13 -0.0194336)
(4.59854e-12 -1.87721e-13 -0.0176072)
(5.18356e-12 -1.9772e-13 -0.0153524)
(5.75558e-12 -1.97578e-13 -0.0127296)
(6.26526e-12 -1.73618e-13 -0.00987005)
(6.64861e-12 -1.23435e-13 -0.00696288)
(6.83105e-12 -3.1712e-14 -0.00422699)
(6.73453e-12 1.01283e-13 -0.00187251)
(6.28719e-12 2.74428e-13 -6.10952e-05)
(5.43474e-12 4.83412e-13 0.00112478)
(4.15293e-12 7.01767e-13 0.00169532)
(2.46092e-12 9.07119e-13 0.00174607)
(4.33053e-13 1.05816e-12 0.00143219)
(-1.79548e-12 1.11776e-12 0.000931702)
(-4.03104e-12 1.06098e-12 0.000408188)
(-6.03772e-12 8.66883e-13 -1.79865e-05)
(-7.57024e-12 5.52608e-13 -0.000283733)
(-8.421e-12 1.50432e-13 -0.000381546)
(-8.47024e-12 -2.79317e-13 -0.000345395)
(-7.72294e-12 -6.60609e-13 -0.000230366)
(-6.31726e-12 -9.35675e-13 -9.27062e-05)
(-4.50074e-12 -1.05624e-12 2.44456e-05)
(-2.5727e-12 -1.01434e-12 9.95289e-05)
(-8.384e-13 -8.43401e-13 0.000118535)
(5.11823e-13 -5.96948e-13 0.000159746)
(1.40898e-12 -2.3225e-13 6.3961e-05)
(-9.08364e-19 -4.00336e-20 -0.0567234)
(-1.66291e-17 2.22266e-20 -0.0569208)
(-3.06945e-17 2.3873e-20 -0.0572293)
(-5.37573e-17 1.57121e-18 -0.0576573)
(-6.54642e-17 -2.24213e-18 -0.0582222)
(-7.06859e-17 6.19905e-18 -0.0589372)
(-2.64725e-16 1.70396e-17 -0.0598128)
(3.00842e-16 -6.80346e-17 -0.0608313)
(-2.42187e-17 -7.37203e-18 -0.0619704)
(-2.85357e-15 4.17027e-16 -0.063172)
(-7.59362e-16 3.0261e-16 -0.064341)
(1.24859e-14 -1.27142e-15 -0.0654966)
(2.56965e-14 -3.33839e-15 -0.0665556)
(1.76293e-14 -3.7088e-15 -0.0674841)
(-2.30133e-14 -1.22103e-15 -0.0682614)
(-8.72154e-14 3.12623e-15 -0.068866)
(-1.5145e-13 7.07328e-15 -0.0692874)
(-1.92511e-13 8.55138e-15 -0.0695213)
(-1.96135e-13 7.80125e-15 -0.0695747)
(-1.80516e-13 6.35107e-15 -0.0694721)
(-1.53413e-13 4.76878e-15 -0.0692621)
(-1.1792e-13 3.14535e-15 -0.0690172)
(-7.35222e-14 1.29923e-15 -0.0688237)
(-1.65477e-14 -1.2216e-15 -0.0687631)
(5.74497e-14 -4.9308e-15 -0.0688862)
(1.52692e-13 -9.2005e-15 -0.0691928)
(2.82958e-13 -1.4608e-14 -0.0696452)
(4.59407e-13 -2.19044e-14 -0.0701119)
(6.35784e-13 -2.6935e-14 -0.0703789)
(7.20804e-13 -2.43772e-14 -0.0702095)
(7.06109e-13 -1.534e-14 -0.0694542)
(6.51461e-13 -5.45477e-15 -0.0680975)
(5.82135e-13 1.78566e-15 -0.0662533)
(5.08369e-13 5.56367e-15 -0.0641372)
(4.38386e-13 6.11716e-15 -0.0620259)
(3.80358e-13 4.11501e-15 -0.0601876)
(3.40047e-13 3.2018e-16 -0.0588251)
(3.1936e-13 -4.57717e-15 -0.0580527)
(3.15012e-13 -9.37158e-15 -0.0579021)
(3.13125e-13 -1.2054e-14 -0.058329)
(2.90273e-13 -1.19944e-14 -0.0592164)
(2.36232e-13 -9.41868e-15 -0.0603897)
(1.40983e-13 -2.15914e-15 -0.0616017)
(-9.73029e-15 1.12058e-14 -0.0625708)
(-2.0641e-13 2.58156e-14 -0.0630663)
(-3.99466e-13 3.18469e-14 -0.0629704)
(-5.22144e-13 2.44483e-14 -0.0622942)
(-5.43889e-13 1.06965e-14 -0.0611507)
(-4.91552e-13 -1.9765e-16 -0.0597138)
(-4.06217e-13 -5.59307e-15 -0.0581732)
(-3.19866e-13 -6.53498e-15 -0.0567004)
(-2.50556e-13 -3.03057e-15 -0.0554263)
(-2.06153e-13 -1.45854e-15 -0.0544334)
(-1.89711e-13 3.00187e-15 -0.0537608)
(-2.03123e-13 8.81798e-15 -0.0534129)
(-2.48822e-13 1.63281e-14 -0.0533673)
(-3.29278e-13 2.73638e-14 -0.05358)
(-4.44767e-13 3.60418e-14 -0.0539884)
(-5.9071e-13 4.58862e-14 -0.0545161)
(-7.56025e-13 5.31866e-14 -0.0550805)
(-9.2505e-13 5.65845e-14 -0.0556006)
(-1.07954e-12 5.7052e-14 -0.0560069)
(-1.20208e-12 4.92503e-14 -0.0562505)
(-1.28146e-12 4.11254e-14 -0.0563085)
(-1.31668e-12 2.76684e-14 -0.0561843)
(-1.31627e-12 1.63689e-14 -0.0559036)
(-1.29205e-12 9.10021e-15 -0.0555073)
(-1.25495e-12 1.51467e-15 -0.055043)
(-1.21385e-12 6.28108e-16 -0.0545584)
(-1.17533e-12 -9.28814e-16 -0.0540956)
(-1.14375e-12 1.36521e-15 -0.0536873)
(-1.12123e-12 6.74977e-15 -0.0533548)
(-1.10774e-12 9.18e-15 -0.0531082)
(-1.10133e-12 1.48257e-14 -0.0529474)
(-1.09849e-12 1.60609e-14 -0.0528638)
(-1.09472e-12 1.75836e-14 -0.0528424)
(-1.08526e-12 1.9148e-14 -0.0528646)
(-1.06593e-12 1.55207e-14 -0.0529099)
(-1.03389e-12 1.39016e-14 -0.0529588)
(-9.88081e-13 7.78465e-15 -0.0529941)
(-9.29411e-13 2.92028e-15 -0.0530024)
(-8.60371e-13 -1.37573e-16 -0.052975)
(-7.84409e-13 -6.20279e-15 -0.052908)
(-7.05129e-13 -8.08817e-15 -0.0528022)
(-6.25574e-13 -1.26894e-14 -0.0526619)
(-5.47771e-13 -1.48825e-14 -0.0524941)
(-4.72556e-13 -1.48091e-14 -0.0523074)
(-3.99685e-13 -1.78857e-14 -0.0521105)
(-3.28133e-13 -1.73429e-14 -0.0519117)
(-2.56423e-13 -2.02775e-14 -0.0517176)
(-1.82951e-13 -2.16093e-14 -0.0515332)
(-1.06197e-13 -2.31527e-14 -0.0513611)
(-2.48666e-14 -2.49904e-14 -0.0512022)
(6.20451e-14 -2.7179e-14 -0.0510553)
(1.55215e-13 -2.97394e-14 -0.0509181)
(2.54955e-13 -3.26325e-14 -0.050787)
(3.61161e-13 -3.57439e-14 -0.0506583)
(4.7325e-13 -3.88812e-14 -0.050528)
(5.90137e-13 -4.17938e-14 -0.0503924)
(7.10281e-13 -4.42265e-14 -0.0502484)
(8.31833e-13 -4.59813e-14 -0.0500937)
(9.52894e-13 -4.69819e-14 -0.0499266)
(1.07186e-12 -4.73093e-14 -0.0497465)
(1.18773e-12 -4.71909e-14 -0.0495532)
(1.30037e-12 -4.69512e-14 -0.0493471)
(1.41051e-12 -4.69196e-14 -0.0491288)
(1.51958e-12 -4.73369e-14 -0.048899)
(1.62934e-12 -4.82834e-14 -0.0486585)
(1.74143e-12 -4.96566e-14 -0.0484076)
(1.85691e-12 -5.12151e-14 -0.0481464)
(1.97597e-12 -5.26617e-14 -0.0478745)
(2.09787e-12 -5.37477e-14 -0.0475911)
(2.22109e-12 -5.43523e-14 -0.0472952)
(2.3436e-12 -5.45127e-14 -0.0469853)
(2.46322e-12 -5.44085e-14 -0.04666)
(2.57792e-12 -5.43022e-14 -0.0463174)
(2.68607e-12 -5.44832e-14 -0.0459558)
(2.7866e-12 -5.5236e-14 -0.0455732)
(2.87928e-12 -5.68524e-14 -0.0451671)
(2.96518e-12 -5.96888e-14 -0.0447351)
(3.0472e-12 -6.42244e-14 -0.0442739)
(3.13083e-12 -7.11007e-14 -0.0437806)
(3.22483e-12 -8.11165e-14 -0.0432532)
(3.34173e-12 -9.51674e-14 -0.0426918)
(3.49782e-12 -1.14162e-13 -0.0421005)
(3.71284e-12 -1.38922e-13 -0.0414882)
(4.009e-12 -1.70097e-13 -0.0408668)
(4.40978e-12 -2.08066e-13 -0.0402475)
(4.93845e-12 -2.52804e-13 -0.0396321)
(5.61637e-12 -3.03725e-13 -0.0390021)
(6.46089e-12 -3.59556e-13 -0.038307)
(7.48288e-12 -4.18525e-13 -0.0374566)
(8.68443e-12 -4.78811e-13 -0.0363224)
(1.00579e-11 -5.3789e-13 -0.0347514)
(1.15817e-11 -5.90953e-13 -0.0325933)
(1.32134e-11 -6.29571e-13 -0.029738)
(1.48816e-11 -6.40874e-13 -0.0261545)
(1.64798e-11 -6.07877e-13 -0.0219213)
(1.78651e-11 -5.11369e-13 -0.0172367)
(1.88649e-11 -3.33289e-13 -0.0124023)
(1.92911e-11 -6.09614e-14 -0.00777943)
(1.89599e-11 3.08571e-13 -0.00372663)
(1.77149e-11 7.64668e-13 -0.000532545)
(1.54496e-11 1.27993e-12 0.00163874)
(1.21305e-11 1.80805e-12 0.00277527)
(7.82264e-12 2.28418e-12 0.00301066)
(2.71308e-12 2.63054e-12 0.00258605)
(-2.87506e-12 2.76705e-12 0.00179178)
(-8.48378e-12 2.62697e-12 0.000905221)
(-1.35522e-11 2.17733e-12 0.000140534)
(-1.74899e-11 1.43826e-12 -0.000378763)
(-1.97879e-11 4.92682e-13 -0.000621432)
(-2.01406e-11 -5.21602e-13 -0.000628809)
(-1.85398e-11 -1.43944e-12 -0.000483264)
(-1.5302e-11 -2.10704e-12 -0.000275556)
(-1.10157e-11 -2.42361e-12 -8.00836e-05)
(-6.40464e-12 -2.35441e-12 6.10449e-05)
(-2.21435e-12 -1.97228e-12 0.000117418)
(1.07457e-12 -1.42314e-12 0.000211466)
(3.31553e-12 -5.62178e-13 8.20687e-05)
(-3.83762e-17 5.10425e-18 -0.0786893)
(-1.44816e-16 8.40024e-18 -0.0789534)
(-1.24182e-16 1.20082e-17 -0.0793668)
(-1.89009e-16 9.96316e-18 -0.0799421)
(1.36341e-18 1.23439e-19 -0.080704)
(-5.95798e-16 9.14776e-17 -0.0816716)
(4.17895e-16 -1.88877e-16 -0.0828605)
(1.67124e-15 -1.52417e-16 -0.0842449)
(-8.61361e-15 3.2644e-15 -0.0857967)
(3.89681e-16 3.79725e-16 -0.0874273)
(4.79647e-14 -9.38663e-15 -0.0889938)
(5.41388e-14 -1.14584e-14 -0.0905545)
(-8.48034e-14 -2.62617e-15 -0.0919774)
(-3.67183e-13 2.39689e-14 -0.0932205)
(-6.73699e-13 5.17678e-14 -0.0942583)
(-8.54185e-13 6.36052e-14 -0.0950602)
(-8.22288e-13 5.24233e-14 -0.0956123)
(-5.91516e-13 2.26864e-14 -0.0959067)
(-2.55014e-13 -5.18371e-15 -0.0959541)
(8.10268e-14 -2.02747e-14 -0.0957878)
(3.86028e-13 -3.00418e-14 -0.0954795)
(6.64348e-13 -3.8578e-14 -0.095135)
(9.37857e-13 -4.92482e-14 -0.0948798)
(1.23495e-12 -6.40593e-14 -0.0948313)
(1.55891e-12 -8.33648e-14 -0.0950596)
(1.89965e-12 -1.11712e-13 -0.0955644)
(2.39064e-12 -1.52643e-13 -0.0962865)
(3.02349e-12 -1.76699e-13 -0.0970262)
(3.42702e-12 -1.32713e-13 -0.0974738)
(3.12476e-12 -3.85634e-14 -0.097276)
(2.37736e-12 3.30696e-14 -0.0962042)
(1.81597e-12 5.78738e-14 -0.0942286)
(1.50901e-12 6.82235e-14 -0.0914906)
(1.33324e-12 7.08556e-14 -0.08828)
(1.1904e-12 5.97129e-14 -0.0850123)
(1.05185e-12 4.98965e-14 -0.0821374)
(9.25988e-13 2.9066e-14 -0.0800301)
(8.18147e-13 8.46704e-15 -0.0789173)
(7.05581e-13 -3.90176e-16 -0.0788598)
(5.15729e-13 5.88262e-15 -0.0797577)
(1.44634e-13 3.44538e-14 -0.0813799)
(-4.59983e-13 6.85201e-14 -0.083413)
(-1.32897e-12 1.15622e-13 -0.0854466)
(-2.38621e-12 1.69998e-13 -0.0870488)
(-3.36963e-12 1.92419e-13 -0.0878815)
(-3.95984e-12 1.61409e-13 -0.0877738)
(-4.0269e-12 7.47549e-14 -0.0867357)
(-3.6923e-12 -1.52084e-14 -0.0849246)
(-3.15666e-12 -6.79549e-14 -0.0825976)
(-2.58329e-12 -8.73092e-14 -0.0800558)
(-2.0739e-12 -7.95855e-14 -0.0775956)
(-1.67938e-12 -5.68795e-14 -0.075463)
(-1.41747e-12 -3.37312e-14 -0.0738255)
(-1.28905e-12 -9.61476e-16 -0.0727666)
(-1.28953e-12 2.91233e-14 -0.0722955)
(-1.4139e-12 6.38712e-14 -0.0723618)
(-1.65367e-12 1.02374e-13 -0.0728706)
(-1.98958e-12 1.35836e-13 -0.073696)
(-2.38753e-12 1.65193e-13 -0.0746955)
(-2.80207e-12 1.77488e-13 -0.0757248)
(-3.17904e-12 1.73955e-13 -0.0766497)
(-3.46078e-12 1.53466e-13 -0.0773607)
(-3.60452e-12 1.14094e-13 -0.0777851)
(-3.60102e-12 7.09261e-14 -0.0778927)
(-3.48212e-12 2.53246e-14 -0.0776949)
(-3.30623e-12 -1.84356e-15 -0.0772378)
(-3.1206e-12 -2.43541e-14 -0.0765916)
(-2.94854e-12 -3.63684e-14 -0.0758377)
(-2.79817e-12 -3.6355e-14 -0.0750575)
(-2.67025e-12 -3.527e-14 -0.0743222)
(-2.56236e-12 -2.15303e-14 -0.0736868)
(-2.46996e-12 -1.3097e-14 -0.073186)
(-2.38608e-12 -5.32607e-15 -0.0728347)
(-2.30111e-12 3.30159e-15 -0.0726297)
(-2.20343e-12 2.58525e-15 -0.0725531)
(-2.08092e-12 5.62857e-15 -0.0725774)
(-1.92313e-12 -3.18024e-15 -0.0726689)
(-1.72353e-12 -1.60842e-14 -0.0727927)
(-1.48138e-12 -2.80256e-14 -0.0729161)
(-1.20237e-12 -4.57615e-14 -0.0730112)
(-8.97827e-13 -5.34808e-14 -0.0730572)
(-5.82575e-13 -6.53825e-14 -0.0730413)
(-2.71939e-13 -7.3863e-14 -0.0729587)
(2.11217e-14 -7.55076e-14 -0.0728121)
(2.88161e-13 -7.97146e-14 -0.0726099)
(5.26194e-13 -7.36115e-14 -0.0723646)
(7.37319e-13 -7.3945e-14 -0.0720908)
(9.27573e-13 -7.47532e-14 -0.0718034)
(1.10519e-12 -7.31856e-14 -0.0715155)
(1.27899e-12 -7.82657e-14 -0.0712381)
(1.45707e-12 -7.61436e-14 -0.0709786)
(1.64594e-12 -8.23477e-14 -0.0707409)
(1.85021e-12 -8.80333e-14 -0.0705257)
(2.07243e-12 -9.29236e-14 -0.0703307)
(2.31332e-12 -1.01941e-13 -0.0701514)
(2.57189e-12 -1.07766e-13 -0.0699822)
(2.84576e-12 -1.16891e-13 -0.0698164)
(3.13135e-12 -1.23564e-13 -0.0696478)
(3.42412e-12 -1.27194e-13 -0.0694706)
(3.71899e-12 -1.32514e-13 -0.06928)
(4.01082e-12 -1.32298e-13 -0.0690725)
(4.29508e-12 -1.33562e-13 -0.0688462)
(4.56864e-12 -1.31551e-13 -0.0686)
(4.83031e-12 -1.27028e-13 -0.0683342)
(5.08124e-12 -1.26178e-13 -0.0680497)
(5.32475e-12 -1.22952e-13 -0.0677479)
(5.56581e-12 -1.2491e-13 -0.0674301)
(5.80997e-12 -1.26977e-13 -0.0670977)
(6.06214e-12 -1.28757e-13 -0.0667514)
(6.32548e-12 -1.3468e-13 -0.0663914)
(6.60049e-12 -1.36812e-13 -0.0660171)
(6.88483e-12 -1.41188e-13 -0.0656277)
(7.17356e-12 -1.41959e-13 -0.0652215)
(7.45973e-12 -1.38852e-13 -0.0647966)
(7.73536e-12 -1.3721e-13 -0.0643507)
(7.99222e-12 -1.30499e-13 -0.0638814)
(8.22284e-12 -1.26298e-13 -0.0633861)
(8.42138e-12 -1.20225e-13 -0.0628621)
(8.58476e-12 -1.13387e-13 -0.0623063)
(8.7143e-12 -1.12613e-13 -0.061715)
(8.81755e-12 -1.13183e-13 -0.0610843)
(8.91055e-12 -1.23254e-13 -0.0604101)
(9.01978e-12 -1.46381e-13 -0.0596896)
(9.18316e-12 -1.81162e-13 -0.0589228)
(9.44996e-12 -2.38219e-13 -0.058115)
(9.879e-12 -3.13635e-13 -0.057278)
(1.05354e-11 -4.14627e-13 -0.0564285)
(1.14864e-11 -5.41864e-13 -0.0555829)
(1.27962e-11 -6.89146e-13 -0.0547461)
(1.45216e-11 -8.60469e-13 -0.0538962)
(1.67058e-11 -1.04355e-12 -0.0529685)
(1.93726e-11 -1.23587e-12 -0.051843)
(2.25185e-11 -1.42835e-12 -0.0503451)
(2.61083e-11 -1.60402e-12 -0.0482624)
(3.00661e-11 -1.75177e-12 -0.0453811)
(3.42592e-11 -1.83768e-12 -0.0415376)
(3.84824e-11 -1.8309e-12 -0.0366739)
(4.24497e-11 -1.68931e-12 -0.0308825)
(4.58e-11 -1.36618e-12 -0.0244245)
(4.81219e-11 -8.36408e-13 -0.0177098)
(4.89941e-11 -7.91916e-14 -0.0112398)
(4.80332e-11 8.8935e-13 -0.0055203)
(4.49387e-11 2.02956e-12 -0.000967078)
(3.95308e-11 3.27561e-12 0.00217307)
(3.1786e-11 4.51525e-12 0.00386463)
(2.18784e-11 5.61584e-12 0.00427789)
(1.02221e-11 6.407e-12 0.00373874)
(-2.49434e-12 6.71619e-12 0.00264887)
(-1.52967e-11 6.39953e-12 0.00139878)
(-2.69775e-11 5.36996e-12 0.000296006)
(-3.62429e-11 3.67049e-12 -0.000475739)
(-4.1948e-11 1.47576e-12 -0.000861616)
(-4.33701e-11 -9.03367e-13 -0.000910467)
(-4.04288e-11 -3.0799e-12 -0.000732156)
(-3.37644e-11 -4.69774e-12 -0.000452257)
(-2.46378e-11 -5.50493e-12 -0.000176768)
(-1.46368e-11 -5.41501e-12 3.13121e-05)
(-5.42098e-12 -4.583e-12 0.000125088)
(1.89296e-12 -3.36189e-12 0.000271471)
(7.04263e-12 -1.35273e-12 0.000105187)
(4.97728e-17 1.82628e-15 -0.0998739)
(1.75542e-16 1.77765e-15 -0.100192)
(1.3139e-16 2.21203e-17 -0.100692)
(2.48097e-16 1.67352e-15 -0.101389)
(4.95879e-16 1.93588e-15 -0.102317)
(-1.85533e-15 1.53266e-15 -0.1035)
(9.41092e-15 -1.11648e-15 -0.10496)
(-1.96734e-14 4.47482e-15 -0.106662)
(-9.5542e-15 6.33406e-16 -0.108575)
(1.39253e-13 -2.96611e-14 -0.11057)
(5.60882e-14 -2.65449e-14 -0.112447)
(-6.0599e-13 6.51397e-14 -0.114344)
(-1.50104e-12 2.07295e-13 -0.116056)
(-1.82647e-12 2.90739e-13 -0.117539)
(-1.01046e-12 2.4228e-13 -0.118769)
(9.07017e-13 7.91554e-14 -0.11971)
(3.349e-12 -1.20792e-13 -0.120347)
(5.54786e-12 -2.75086e-13 -0.120671)
(6.83941e-12 -3.26736e-13 -0.120687)
(7.53634e-12 -3.12435e-13 -0.120438)
(7.83138e-12 -2.86892e-13 -0.120013)
(7.90108e-12 -2.72769e-13 -0.119548)
(7.88357e-12 -2.84003e-13 -0.119199)
(7.8362e-12 -3.11749e-13 -0.119117)
(7.61761e-12 -3.37278e-13 -0.11939)
(7.01764e-12 -4.26801e-13 -0.12001)
(6.31087e-12 -5.7653e-13 -0.120908)
(4.91147e-12 -5.40092e-13 -0.121847)
(1.98299e-12 -7.75684e-14 -0.122447)
(-2.15842e-12 5.00452e-13 -0.122239)
(-5.41031e-12 6.37336e-13 -0.120917)
(-5.96169e-12 4.27013e-13 -0.118472)
(-4.55413e-12 2.43135e-13 -0.115104)
(-2.57814e-12 1.63134e-13 -0.111139)
(-9.73735e-13 1.43289e-13 -0.107058)
(-3.2892e-14 1.3456e-13 -0.103423)
(3.29071e-13 1.15518e-13 -0.100729)
(2.54271e-13 1.05626e-13 -0.0993002)
(-2.55364e-13 1.40089e-13 -0.0992346)
(-1.3929e-12 2.66681e-13 -0.100409)
(-3.44873e-12 4.74113e-13 -0.102528)
(-6.68903e-12 7.25645e-13 -0.105181)
(-1.11325e-11 9.60954e-13 -0.107816)
(-1.58075e-11 1.0298e-12 -0.109882)
(-1.88776e-11 8.10898e-13 -0.110966)
(-1.91055e-11 3.58756e-13 -0.110867)
(-1.71034e-11 -1.11055e-13 -0.109592)
(-1.44447e-11 -4.24425e-13 -0.107327)
(-1.19113e-11 -5.56427e-13 -0.104383)
(-9.72185e-12 -5.48692e-13 -0.101129)
(-7.91606e-12 -4.58503e-13 -0.0979391)
(-6.51965e-12 -3.29511e-13 -0.0951416)
(-5.55512e-12 -1.96625e-13 -0.0929733)
(-5.02275e-12 -5.92406e-14 -0.0915633)
(-4.89777e-12 7.12488e-14 -0.0909371)
(-5.13464e-12 1.98389e-13 -0.0910332)
(-5.65673e-12 3.16939e-13 -0.0917242)
(-6.34311e-12 4.02975e-13 -0.0928382)
(-7.04481e-12 4.53862e-13 -0.0941816)
(-7.62247e-12 4.48937e-13 -0.0955605)
(-7.9344e-12 3.85938e-13 -0.0967964)
(-7.86325e-12 2.71525e-13 -0.0977466)
(-7.37854e-12 1.19373e-13 -0.0983178)
(-6.57287e-12 -1.83358e-14 -0.0984721)
(-5.64914e-12 -1.19728e-13 -0.0982244)
(-4.84186e-12 -1.62656e-13 -0.0976347)
(-4.26984e-12 -1.68008e-13 -0.0967942)
(-3.92006e-12 -1.59699e-13 -0.0958093)
(-3.72015e-12 -1.3678e-13 -0.0947871)
(-3.59113e-12 -1.18841e-13 -0.0938226)
(-3.4712e-12 -9.70518e-14 -0.0929897)
(-3.31707e-12 -7.96495e-14 -0.092336)
(-3.0969e-12 -7.52428e-14 -0.0918822)
(-2.78346e-12 -7.30263e-14 -0.0916244)
(-2.35158e-12 -9.4034e-14 -0.091539)
(-1.78095e-12 -1.20839e-13 -0.0915884)
(-1.06096e-12 -1.57813e-13 -0.0917275)
(-1.96668e-13 -2.05353e-13 -0.091909)
(7.87857e-13 -2.44941e-13 -0.0920889)
(1.85027e-12 -2.83992e-13 -0.0922301)
(2.93515e-12 -3.05245e-13 -0.0923051)
(3.98337e-12 -3.11346e-13 -0.092297)
(4.94217e-12 -3.08051e-13 -0.0922)
(5.77424e-12 -2.86403e-13 -0.0920177)
(6.46282e-12 -2.65226e-13 -0.0917617)
(7.01204e-12 -2.37728e-13 -0.0914488)
(7.44352e-12 -2.13762e-13 -0.0910985)
(7.79008e-12 -2.01821e-13 -0.0907304)
(8.08898e-12 -1.91318e-13 -0.0903623)
(8.37612e-12 -1.96217e-13 -0.0900083)
(8.68151e-12 -2.03351e-13 -0.0896783)
(9.02724e-12 -2.19724e-13 -0.0893774)
(9.42647e-12 -2.38236e-13 -0.0891063)
(9.88409e-12 -2.58734e-13 -0.0888619)
(1.03979e-11 -2.7947e-13 -0.0886382)
(1.09603e-11 -2.97117e-13 -0.0884273)
(1.15593e-11 -3.15469e-13 -0.0882208)
(1.21807e-11 -3.2806e-13 -0.0880101)
(1.28094e-11 -3.35616e-13 -0.0877876)
(1.34307e-11 -3.37577e-13 -0.0875473)
(1.40316e-11 -3.3229e-13 -0.0872846)
(1.46029e-11 -3.25892e-13 -0.086997)
(1.514e-11 -3.14925e-13 -0.0866836)
(1.56437e-11 -3.03491e-13 -0.0863448)
(1.61209e-11 -2.94174e-13 -0.0859821)
(1.65832e-11 -2.87467e-13 -0.0855975)
(1.70458e-11 -2.89942e-13 -0.0851929)
(1.7524e-11 -2.96452e-13 -0.0847699)
(1.80313e-11 -3.07413e-13 -0.0843297)
(1.85756e-11 -3.20389e-13 -0.0838724)
(1.91577e-11 -3.30603e-13 -0.0833973)
(1.97703e-11 -3.4028e-13 -0.0829033)
(2.03986e-11 -3.41802e-13 -0.0823883)
(2.10211e-11 -3.35413e-13 -0.0818499)
(2.16129e-11 -3.20656e-13 -0.0812852)
(2.21472e-11 -2.9631e-13 -0.0806913)
(2.2599e-11 -2.6906e-13 -0.080065)
(2.29477e-11 -2.36197e-13 -0.0794029)
(2.31816e-11 -2.03312e-13 -0.0787012)
(2.33017e-11 -1.7608e-13 -0.0779556)
(2.33279e-11 -1.58883e-13 -0.0771612)
(2.33043e-11 -1.72218e-13 -0.0763128)
(2.33035e-11 -2.17418e-13 -0.0754068)
(2.34291e-11 -3.10257e-13 -0.0744429)
(2.38139e-11 -4.62082e-13 -0.0734267)
(2.46146e-11 -6.7991e-13 -0.0723721)
(2.6001e-11 -9.7378e-13 -0.0712993)
(2.81439e-11 -1.33847e-12 -0.070229)
(3.12011e-11 -1.7704e-12 -0.069169)
(3.53041e-11 -2.2585e-12 -0.0680954)
(4.0545e-11 -2.78333e-12 -0.0669314)
(4.69622e-11 -3.32491e-12 -0.0655315)
(5.45218e-11 -3.84668e-12 -0.0636795)
(6.3101e-11 -4.31166e-12 -0.0611082)