/*--------------------------------*- C++ -*----------------------------------*\
  =========                 |
  \\      /  F ield         | OpenFOAM: The Open Source CFD Toolbox
   \\    /   O peration     | Website:  https://openfoam.org
    \\  /    A nd           | Version:  11
     \\/     M anipulation  |
\*---------------------------------------------------------------------------*/
FoamFile
{
    format      ascii;
    class       volVectorField;
    location    "16.17776";
    object      U;
}
// * * * * * * * * * * * * * * * * * * * * * * * * * * * * * * * * * * * * * //

dimensions      [0 1 -1 0 0 0 0];

internalField   nonuniform List<vector> 
7132
(
(1.00012 -0.000230011 4.18803e-18)
(1.00177 -0.0006715 1.44795e-17)
(1.00539 -0.00111617 1.58264e-17)
(1.01074 -0.0015783 2.00244e-17)
(1.018 -0.00206687 2.7762e-17)
(1.02727 -0.00256849 2.91196e-17)
(1.03857 -0.00304947 2.80893e-17)
(1.05171 -0.00343812 2.60187e-17)
(1.06615 -0.00365541 2.34032e-17)
(1.08107 -0.00362566 2.06114e-17)
(1.09527 -0.00331084 1.81091e-17)
(1.1077 -0.00280238 1.6187e-17)
(1.11778 -0.00216688 1.48237e-17)
(1.12512 -0.0014392 1.34243e-17)
(1.12939 -0.00059835 1.09332e-17)
(1.13005 0.000421932 9.38912e-18)
(1.12622 0.00162684 9.38846e-18)
(1.11727 0.00287718 1.02779e-17)
(1.10339 0.00394029 1.02869e-17)
(1.08584 0.00459525 1.19831e-17)
(1.06662 0.00469712 1.30393e-17)
(1.04815 0.00418888 1.26878e-17)
(1.03293 0.00309211 1.17389e-17)
(1.02322 0.00150612 1.14657e-17)
(1.02074 -0.000377741 -4.25355e-20)
(1.02623 -0.00224554 -1.74086e-17)
(1.03888 -0.00365782 -4.94943e-17)
(1.05586 -0.00416117 -9.50473e-17)
(1.07266 -0.00351317 -8.12104e-17)
(1.08447 -0.00186537 -2.16073e-17)
(1.08796 0.00028616 1.85806e-17)
(1.08234 0.00235268 3.22481e-17)
(1.06908 0.00389761 -8.45083e-17)
(1.05094 0.00471249 -2.15858e-16)
(1.03106 0.00475349 5.4135e-16)
(1.01253 0.00404811 1.16532e-15)
(0.998263 0.0026449 -4.20262e-15)
(0.990966 0.000632148 -1.04795e-14)
(0.992891 -0.00178382 1.4008e-14)
(1.00513 -0.00417949 9.62167e-14)
(1.02652 -0.00592011 2.05262e-13)
(1.05298 -0.00637612 2.73827e-13)
(1.07819 -0.00526656 2.91244e-13)
(1.09575 -0.00287155 2.57521e-13)
(1.10161 8.45846e-05 1.52261e-13)
(1.09523 0.00279334 4.85205e-14)
(1.07914 0.00469754 6.98837e-15)
(1.05734 0.00559584 -1.8456e-14)
(1.03396 0.00553328 -5.70967e-14)
(1.01263 0.00463263 -4.71465e-14)
(0.996443 0.00299326 -1.02333e-14)
(0.988234 0.000711299 -1.74493e-13)
(0.990406 -0.0019991 -3.76856e-13)
(1.00412 -0.00467632 -2.31662e-13)
(1.02805 -0.00662916 -4.07893e-14)
(1.0577 -0.00717792 -1.02147e-12)
(1.0862 -0.00600765 -3.88147e-12)
(1.10647 -0.00338858 -6.79789e-12)
(1.11381 -8.63557e-05 -6.42317e-12)
(1.10734 0.00298495 -3.20063e-12)
(1.08979 0.00514062 -4.69083e-13)
(1.06584 0.00610677 1.48207e-12)
(1.04045 0.0059497 3.53553e-12)
(1.01775 0.004877 1.01338e-12)
(1.00095 0.0030758 -2.20723e-11)
(0.992663 0.000695172 -9.03829e-11)
(0.994965 -0.00203285 -2.23788e-10)
(1.00867 -0.00466265 -4.19833e-10)
(1.03227 -0.00655925 -6.42052e-10)
(1.06145 -0.00711839 -8.2708e-10)
(1.08977 -0.00605942 -9.12461e-10)
(1.11059 -0.0035981 -8.67804e-10)
(1.11917 -0.000388372 -7.07664e-10)
(1.11411 0.00272708 -4.82375e-10)
(1.09748 0.00502606 -2.56779e-10)
(1.07374 0.00612309 -8.46594e-11)
(1.04813 0.00599787 7.47449e-12)
(1.02529 0.00485944 1.65187e-11)
(1.00875 0.00296924 -5.31903e-11)
(1.00105 0.000568363 -1.98924e-10)
(1.00381 -0.00204976 -4.14268e-10)
(1.01724 -0.0044447 -6.78731e-10)
(1.03941 -0.00606873 -9.54214e-10)
(1.06607 -0.00645809 -1.19178e-09)
(1.0915 -0.00544834 -1.34399e-09)
(1.11013 -0.00326614 -1.37656e-09)
(1.11805 -0.000450779 -1.27604e-09)
(1.11402 0.0023302 -1.05359e-09)
(1.09953 0.00448205 -7.48672e-10)
(1.07812 0.0056254 -4.28497e-10)
(1.05434 0.00564437 -1.67644e-10)
(1.03266 0.00464092 -1.59903e-11)
(1.01684 0.00283932 2.01887e-11)
(1.00959 0.000525558 -3.01048e-11)
(1.01238 -0.00193676 -1.26393e-10)
(1.02503 -0.00408665 -2.35173e-10)
(1.04527 -0.00543882 -3.35117e-10)
(1.06891 -0.00564659 -4.14268e-10)
(1.09086 -0.0046509 -4.65999e-10)
(1.10647 -0.00271116 -4.86317e-10)
(1.11276 -0.000304741 -4.7252e-10)
(1.10897 0.00203505 -4.2324e-10)
(1.09642 0.00386238 -3.41033e-10)
(1.07792 0.00489107 -2.36469e-10)
(1.05708 0.00500055 -1.27542e-10)
(1.03767 0.00420862 -3.23888e-11)
(1.02317 0.0026439 3.94994e-11)
(1.01633 0.000544291 8.99541e-11)
(1.01875 -0.00172598 1.2731e-10)
(1.03028 -0.00370009 1.59578e-10)
(1.04869 -0.00491499 1.90878e-10)
(1.07005 -0.00506909 2.21695e-10)
(1.08968 -0.0041412 2.5072e-10)
(1.10348 -0.00239639 2.76133e-10)
(1.10895 -0.000279241 2.95427e-10)
(1.10562 0.00174142 3.04179e-10)
(1.09478 0.00330192 2.95787e-10)
(1.07888 0.00419166 2.64709e-10)
(1.06092 0.00432739 2.12653e-10)
(1.04398 0.00370587 1.52245e-10)
(1.03105 0.00238813 1.02724e-10)
(1.02477 0.000532944 7.97912e-11)
(1.02686 -0.00155817 8.80387e-11)
(1.03752 -0.00345621 1.21313e-10)
(1.05498 -0.00470984 1.68525e-10)
(1.07576 -0.00500013 2.19273e-10)
(1.0955 -0.00426118 2.6643e-10)
(1.11019 -0.00270185 3.06154e-10)
(1.11722 -0.000723662 3.36629e-10)
(1.11585 0.0012183 3.56225e-10)
(1.10715 0.00275193 3.61696e-10)
(1.0934 0.0036637 3.48087e-10)
(1.07738 0.00389095 3.11694e-10)
(1.06184 0.00345955 2.54907e-10)
(1.04936 0.00242606 1.88552e-10)
(1.04223 0.000876059 1.28295e-10)
(1.04234 -0.00102299 8.72314e-11)
(1.05063 -0.00298035 7.04844e-11)
(1.06663 -0.00461671 7.52361e-11)
(1.08818 -0.00557504 9.45066e-11)
(1.11187 -0.00564851 1.21071e-10)
(1.13389 -0.00485327 1.49507e-10)
(1.151 -0.00341457 1.76506e-10)
(1.16126 -0.00168411 2.00342e-10)
(1.16428 -3.18145e-05 2.20169e-10)
(1.16115 0.00124956 2.35328e-10)
(1.15383 0.00200214 2.44769e-10)
(1.14465 0.00221087 2.46801e-10)
(1.13571 0.00197134 2.39478e-10)
(1.12854 0.00143991 2.21669e-10)
(1.12396 0.000784022 1.94226e-10)
(1.12217 0.000157318 1.60425e-10)
(1.12279 -0.000322177 1.25276e-10)
(1.12495 -0.000562469 9.40971e-11)
(1.12769 -0.000551931 7.11083e-11)
(1.12964 -0.00028126 5.86697e-11)
(1.13058 5.9349e-05 5.70217e-11)
(1.12894 0.000526006 6.55012e-11)
(1.12743 0.000613541 7.83965e-11)
(1.12243 0.000771322 1.0923e-10)
(1.00012 -0.000688454 6.03448e-20)
(1.00176 -0.00201049 7.52696e-19)
(1.00536 -0.00334313 1.51776e-18)
(1.01068 -0.00473134 2.36484e-18)
(1.01793 -0.00620304 3.48473e-18)
(1.02723 -0.00771901 4.60848e-18)
(1.03861 -0.00917838 5.23731e-18)
(1.05191 -0.010362 6.80059e-18)
(1.0666 -0.0110282 4.74879e-18)
(1.0818 -0.01094 3.1308e-18)
(1.09626 -0.0099797 4.79221e-18)
(1.10885 -0.00843973 6.91302e-18)
(1.11902 -0.00653032 4.41932e-18)
(1.12645 -0.00436347 5.59884e-19)
(1.13085 -0.00187416 -1.20156e-18)
(1.13167 0.0011558 3.98304e-21)
(1.12795 0.00476462 2.52755e-18)
(1.11893 0.00853975 4.98495e-18)
(1.10478 0.0117737 6.91607e-18)
(1.08676 0.0137903 8.46463e-18)
(1.06698 0.0141432 8.00808e-18)
(1.04791 0.0126515 7.4183e-18)
(1.03214 0.00937127 2.30919e-17)
(1.02201 0.00459124 -4.01206e-17)
(1.01935 -0.00112194 -3.97053e-16)
(1.02504 -0.00682337 1.31683e-15)
(1.03834 -0.0111671 9.97197e-15)
(1.05634 -0.0127457 1.84039e-14)
(1.07422 -0.0107948 1.5223e-14)
(1.0868 -0.0057724 6.44301e-15)
(1.09055 0.000794877 1.29337e-15)
(1.08469 0.00709855 -3.7406e-16)
(1.07086 0.0118067 -1.1281e-15)
(1.05201 0.0142957 1.95057e-15)
(1.03138 0.0144458 1.21595e-14)
(1.01211 0.0123467 -1.67357e-14)
(0.997148 0.00813725 -1.94089e-13)
(0.989282 0.00206065 -2.21244e-13)
(0.990959 -0.00528806 1.91322e-12)
(1.00351 -0.0126319 9.77339e-12)
(1.02588 -0.0180147 2.25087e-11)
(1.05378 -0.0194746 3.0904e-11)
(1.08042 -0.0161257 2.75519e-11)
(1.09892 -0.00882503 1.65501e-11)
(1.10498 0.00019646 6.56729e-12)
(1.09815 0.0084561 1.22268e-12)
(1.08122 0.0142524 -5.2059e-13)
(1.05848 0.0169864 -6.31804e-13)
(1.03421 0.0168155 7.93129e-14)
(1.01206 0.014124 1.73002e-12)
(0.99512 0.00920411 1.19721e-12)
(0.986293 0.00231506 -1.49866e-11)
(0.988165 -0.00593073 -7.19492e-11)
(1.00213 -0.0141387 -1.90374e-10)
(1.02701 -0.0201733 -3.47491e-10)
(1.05815 -0.0219162 -4.65574e-10)
(1.08825 -0.0183813 -4.73362e-10)
(1.10969 -0.0104 -3.73146e-10)
(1.11743 -0.000325775 -2.26585e-10)
(1.11057 0.00904319 -9.85318e-11)
(1.09209 0.015612 -2.18837e-11)
(1.06705 0.0185529 9.91802e-12)
(1.04063 0.0180887 1.8415e-11)
(1.01705 0.0148712 7.67298e-12)
(0.999451 0.0094683 -5.8434e-11)
(0.990456 0.00230385 -2.52716e-10)
(0.992253 -0.00595875 -6.44283e-10)
(1.00588 -0.013987 -1.23218e-09)
(1.03 -0.0198396 -1.89743e-09)
(1.06021 -0.0216457 -2.42956e-09)
(1.08982 -0.0185171 -2.6285e-09)
(1.1118 -0.011091 -2.41726e-09)
(1.12112 -0.00135199 -1.8839e-09)
(1.11622 0.00813487 -1.21999e-09)
(1.09921 0.0151616 -6.16149e-10)
(1.07476 0.0185444 -1.92248e-10)
(1.04828 0.0182191 2.15143e-11)
(1.02457 0.0148251 4.99793e-11)
(1.00722 0.00915226 -7.72103e-11)
(0.998886 0.00191057 -3.4692e-10)
(1.00135 -0.00603573 -7.44651e-10)
(1.015 -0.0133528 -1.22528e-09)
(1.0379 -0.0183536 -1.70785e-09)
(1.06557 -0.0196005 -2.09788e-09)
(1.09196 -0.0165827 -2.3145e-09)
(1.11121 -0.00999502 -2.30861e-09)
(1.11936 -0.0014811 -2.07502e-09)
(1.11522 0.00693867 -1.657e-09)
(1.10037 0.0134689 -1.13934e-09)
(1.07848 0.0169656 -6.32592e-10)
(1.05413 0.0170772 -2.3922e-10)
(1.03187 0.0141024 -1.73411e-11)
(1.0155 0.00869981 3.37316e-11)
(1.0079 0.00170986 -4.21369e-11)
(1.01074 -0.00577947 -1.86884e-10)
(1.02394 -0.0123545 -3.49342e-10)
(1.04512 -0.0165071 -4.93454e-10)
(1.06981 -0.0171578 -5.9872e-10)
(1.09256 -0.0141286 -6.56721e-10)
(1.10849 -0.00823011 -6.65979e-10)
(1.11461 -0.000931234 -6.28042e-10)
(1.11032 0.00614817 -5.46467e-10)
(1.09712 0.0116667 -4.29003e-10)
(1.07799 0.0147729 -2.91159e-10)
(1.05661 0.0151135 -1.5466e-10)
(1.03678 0.0127406 -3.91978e-11)
(1.02201 0.00802645 4.66637e-11)
(1.01518 0.0016681 1.07438e-10)
(1.01801 -0.00524155 1.54337e-10)
(1.03038 -0.0112694 1.96836e-10)
(1.04991 -0.0149779 2.38349e-10)
(1.07236 -0.0154311 2.77041e-10)
(1.09271 -0.0125713 3.09202e-10)
(1.10669 -0.00722946 3.32046e-10)
(1.1118 -0.000778168 3.44034e-10)
(1.10771 0.00535352 3.42938e-10)
(1.09595 0.010067 3.24414e-10)
(1.07917 0.0127361 2.8447e-10)
(1.06048 0.013122 2.2558e-10)
(1.04306 0.0112213 1.60771e-10)
(1.02995 0.00721311 1.09719e-10)
(1.02387 0.00156566 8.85636e-11)
(1.02661 -0.00481275 1.01933e-10)
(1.03835 -0.0106053 1.42916e-10)
(1.05713 -0.014416 1.98876e-10)
(1.07914 -0.0152618 2.57518e-10)
(1.09973 -0.0129523 3.10031e-10)
(1.11469 -0.00814821 3.5152e-10)
(1.12138 -0.00209307 3.79989e-10)
(1.11922 0.00382393 3.94474e-10)
(1.10945 0.00847612 3.9291e-10)
(1.09458 0.0112227 3.7163e-10)
(1.07754 0.0118832 3.28012e-10)
(1.06124 0.0105439 2.65262e-10)
(1.04829 0.0073775 1.94787e-10)
(1.04111 0.00263756 1.32544e-10)
(1.04165 -0.00317323 9.15275e-11)
(1.05089 -0.00916362 7.63697e-11)
(1.06821 -0.0141582 8.35015e-11)
(1.0912 -0.0170513 1.05166e-10)
(1.11613 -0.0172124 1.3355e-10)
(1.1389 -0.0147096 1.62941e-10)
(1.15616 -0.0102566 1.90008e-10)
(1.166 -0.00494529 2.13187e-10)
(1.1682 9.38139e-05 2.31875e-10)
(1.164 0.00397966 2.45654e-10)
(1.15559 0.00624303 2.53659e-10)
(1.14543 0.00684629 2.54297e-10)
(1.1357 0.00608411 2.45662e-10)
(1.12801 0.00443117 2.26669e-10)
(1.12323 0.00239336 1.98285e-10)
(1.12156 0.000435638 1.63945e-10)
(1.12261 -0.00107853 1.28764e-10)
(1.12548 -0.00185944 9.80062e-11)
(1.12909 -0.00185465 7.5666e-11)
(1.13184 -0.00103211 6.37965e-11)
(1.13348 4.38841e-05 6.24054e-11)
(1.13207 0.0015098 7.07558e-11)
(1.13077 0.00186116 8.32834e-11)
(1.12504 0.00240958 1.13431e-10)
(1.00012 -0.00114241 6.44406e-22)
(1.00174 -0.00333603 1.01676e-20)
(1.00528 -0.00555206 1.01211e-20)
(1.01056 -0.00787118 1.98057e-20)
(1.01778 -0.0103448 -7.03012e-20)
(1.02712 -0.0129112 -1.06188e-19)
(1.03868 -0.0154028 2.24963e-19)
(1.05231 -0.0174399 -1.69564e-18)
(1.06749 -0.0186036 -3.39467e-18)
(1.0833 -0.0184618 5.68696e-18)
(1.09828 -0.0168024 1.57172e-17)
(1.11119 -0.014173 -4.03896e-18)
(1.12156 -0.0109524 -5.71419e-17)
(1.12913 -0.00734343 -9.60522e-17)
(1.13377 -0.00321241 -8.14796e-17)
(1.1349 0.00186932 -4.04736e-17)
(1.13138 0.00800658 -8.62118e-18)
(1.12219 0.0144784 6.90209e-18)
(1.10742 0.0200345 1.2625e-17)
(1.08843 0.0234998 1.30087e-17)
(1.06748 0.0241199 -1.8608e-18)
(1.04724 0.0216013 1.66254e-17)
(1.03042 0.01604 1.49027e-16)
(1.01953 0.00790347 -7.24552e-16)
(1.01663 -0.00188529 -2.898e-15)
(1.02284 -0.0117381 1.65981e-14)
(1.03757 -0.0193154 9.04947e-14)
(1.0577 -0.0221133 1.68151e-13)
(1.07777 -0.0187473 1.54247e-13)
(1.09182 -0.0100196 7.33368e-14)
(1.09589 0.00135886 1.61308e-14)
(1.0893 0.0122077 -4.29183e-15)
(1.07412 0.0202406 -7.94692e-15)
(1.05369 0.0244492 2.14232e-14)
(1.03153 0.0246952 7.43876e-14)
(1.01083 0.0211615 -2.00101e-13)
(0.994589 0.0140604 -1.32848e-12)
(0.985772 0.00373263 -6.54529e-13)
(0.987195 -0.00888871 1.4853e-11)
(1.00066 -0.0216363 6.34304e-11)
(1.02529 -0.0310639 1.37137e-10)
(1.05629 -0.033662 1.87983e-10)
(1.08583 -0.0278403 1.73556e-10)
(1.106 -0.0151332 1.08958e-10)
(1.11208 0.0004956 4.54256e-11)
(1.10392 0.014689 9.58335e-12)
(1.08496 0.0245333 -3.16836e-12)
(1.06014 0.0290922 -4.24386e-12)
(1.03403 0.0287368 8.44236e-13)
(1.01032 0.0241736 1.08744e-11)
(0.992046 0.0158748 3.5943e-12)
(0.982133 0.0041967 -1.07006e-10)
(0.983395 -0.00990753 -4.74672e-10)
(0.997618 -0.0240903 -1.20127e-09)
(1.02396 -0.0346451 -2.12735e-09)
(1.05777 -0.0378156 -2.81112e-09)
(1.09107 -0.0317855 -2.85003e-09)
(1.11515 -0.0179644 -2.24045e-09)
(1.124 -0.000500018 -1.35523e-09)
(1.11649 0.0156719 -5.94992e-10)
(1.09613 0.0269019 -1.40478e-10)
(1.0688 0.0318254 4.43124e-11)
(1.04029 0.0309422 7.98259e-11)
(1.01498 0.025464 3.04693e-11)
(0.995931 0.0163718 -1.68053e-10)
(0.985713 0.00430226 -6.77104e-10)
(0.986763 -0.00973492 -1.62087e-09)
(1.00057 -0.0235308 -2.93025e-09)
(1.02603 -0.0337332 -4.31314e-09)
(1.05844 -0.0370442 -5.37787e-09)
(1.09044 -0.0318584 -5.78721e-09)
(1.11432 -0.0192322 -5.38099e-09)
(1.12463 -0.0025731 -4.27162e-09)
(1.11969 0.0136933 -2.8216e-09)
(1.10178 0.0257555 -1.45863e-09)
(1.07586 0.0315811 -4.80921e-10)
(1.04773 0.0310838 2.36693e-11)
(1.02243 0.0253827 1.12239e-10)
(1.00374 0.0158106 -1.28046e-10)
(0.994545 0.00351136 -6.3129e-10)
(0.997004 -0.0100989 -1.32281e-09)
(1.01175 -0.0227175 -2.08262e-09)
(1.03666 -0.0313624 -2.77027e-09)
(1.06661 -0.0334978 -3.27849e-09)
(1.09478 -0.0282681 -3.54585e-09)
(1.11483 -0.0169521 -3.52973e-09)
(1.12276 -0.00243396 -3.20163e-09)
(1.11769 0.0118353 -2.5873e-09)
(1.1016 0.0228522 -1.7988e-09)
(1.07841 0.0287396 -1.01044e-09)
(1.05286 0.0289415 -3.91048e-10)
(1.02953 0.0239518 -3.75658e-11)
(1.01239 0.0148231 4.82937e-11)
(1.00458 0.00290953 -6.40027e-11)
(1.00809 -0.00995231 -2.77528e-10)
(1.02292 -0.0212779 -5.04543e-10)
(1.04634 -0.0283826 -6.87987e-10)
(1.0732 -0.0293699 -8.06197e-10)
(1.09737 -0.0239845 -8.616e-10)
(1.1136 -0.0137263 -8.62386e-10)
(1.11894 -0.00120383 -8.11119e-10)
(1.11316 0.0107933 -7.07128e-10)
(1.09824 0.0200288 -5.56502e-10)
(1.07754 0.0251402 -3.78449e-10)
(1.05494 0.0255978 -2.0192e-10)
(1.03431 0.0215028 -5.27895e-11)
(1.01925 0.0134421 5.87244e-11)
(1.01283 0.00254683 1.39963e-10)
(1.01692 -0.00932186 2.06369e-10)
(1.03133 -0.019652 2.69447e-10)
(1.05324 -0.025909 3.30915e-10)
(1.07778 -0.0264729 3.84696e-10)
(1.09937 -0.0213046 4.22885e-10)
(1.11343 -0.0119281 4.40877e-10)
(1.11753 -0.000778013 4.38648e-10)
(1.11168 0.00967193 4.17907e-10)
(1.09786 0.0175735 3.78732e-10)
(1.07915 0.021923 3.20534e-10)
(1.05895 0.0223793 2.47782e-10)
(1.0406 0.0189676 1.74615e-10)
(1.02729 0.0119831 1.21362e-10)
(1.02187 0.00220629 1.04129e-10)
(1.0262 -0.00879565 1.26379e-10)
(1.04028 -0.0187147 1.78969e-10)
(1.06167 -0.0251102 2.46722e-10)
(1.08596 -0.0263027 3.1531e-10)
(1.10796 -0.0220313 3.74673e-10)
(1.12321 -0.0135209 4.19187e-10)
(1.12906 -0.0029767 4.46383e-10)
(1.12519 0.00719273 4.55233e-10)
(1.11323 0.0150741 4.44382e-10)
(1.0961 0.0196147 4.11531e-10)
(1.07708 0.0205568 3.55842e-10)
(1.05931 0.0180814 2.82466e-10)
(1.04559 0.0124874 2.04527e-10)
(1.03851 0.00419975 1.38913e-10)
(1.04015 -0.0059091 9.8353e-11)
(1.05144 -0.0162607 8.61997e-11)
(1.07139 -0.0247763 9.72271e-11)
(1.09702 -0.0295356 1.22304e-10)
(1.124 -0.0294982 1.52859e-10)
(1.14786 -0.0248674 1.83024e-10)
(1.16512 -0.0169555 2.09728e-10)
(1.17397 -0.00769241 2.31815e-10)
(1.17449 0.000972095 2.49024e-10)
(1.16826 0.0075527 2.61147e-10)
(1.15779 0.0112872 2.67394e-10)
(1.14583 0.0121512 2.66145e-10)
(1.13473 0.0106745 2.55469e-10)
(1.12622 0.00767413 2.34407e-10)
(1.12123 0.00400848 2.04285e-10)
(1.12 0.000470136 1.69007e-10)
(1.12213 -0.00229855 1.33991e-10)
(1.12651 -0.00376783 1.04405e-10)
(1.13185 -0.00379749 8.37488e-11)
(1.1361 -0.00233561 7.34122e-11)
(1.13889 -0.000310291 7.28992e-11)
(1.13769 0.0023736 8.12716e-11)
(1.13659 0.0032751 9.32708e-11)
(1.12918 0.00437858 1.22009e-10)
(1.00012 -0.0015885 -5.59419e-20)
(1.0017 -0.00463739 -8.32475e-19)
(1.00516 -0.0077285 -1.69839e-18)
(1.01035 -0.0109855 -2.65731e-18)
(1.01752 -0.0144921 -4.63449e-18)
(1.02692 -0.0181699 -3.60288e-18)
(1.03872 -0.0217864 -8.81018e-18)
(1.05286 -0.0247799 -2.21619e-17)
(1.06881 -0.0265291 2.2302e-17)
(1.08557 -0.0263421 6.32725e-17)
(1.10136 -0.0238879 -9.35592e-17)
(1.11476 -0.0200703 -3.66376e-16)
(1.12539 -0.015487 -4.8793e-16)
(1.13317 -0.0104675 -3.6221e-16)
(1.13817 -0.00477928 -1.03026e-16)
(1.13983 0.00232598 9.00589e-17)
(1.13664 0.0111118 1.42027e-16)
(1.12719 0.0205185 1.1419e-16)
(1.11143 0.0286508 7.38298e-17)
(1.09091 0.0337536 1.4057e-17)
(1.06815 0.0347331 -3.27863e-17)
(1.0461 0.031179 2.10843e-16)
(1.02767 0.0232226 -1.14275e-15)
(1.01563 0.0114891 -1.45983e-15)
(1.01232 -0.00276806 3.12017e-14)
(1.01933 -0.017295 -6.16728e-14)
(1.03631 -0.0286099 -7.32347e-13)
(1.05982 -0.0328597 -1.39679e-12)
(1.08336 -0.027859 -1.07346e-12)
(1.09971 -0.0148221 -3.65709e-13)
(1.10422 0.00207386 -2.97634e-14)
(1.09638 0.0179999 9.70319e-15)
(1.07898 0.0296145 1.87313e-15)
(1.05607 0.035588 1.16355e-13)
(1.03154 0.0358748 9.46281e-14)
(1.00868 0.0308137 -1.12724e-12)
(0.990533 0.0206659 -2.55295e-12)
(0.98028 0.00576551 5.10225e-12)
(0.981298 -0.01272 3.22465e-11)
(0.996101 -0.0316727 5.74001e-11)
(1.02413 -0.0458402 5.42915e-11)
(1.05999 -0.0497636 5.9285e-11)
(1.09424 -0.0409846 9.518e-11)
(1.11718 -0.0219337 1.08566e-10)
(1.12326 0.00126474 7.78083e-11)
(1.11282 0.0220334 3.35419e-11)
(1.09052 0.0361447 1.38428e-12)
(1.06234 0.0424469 -8.47856e-12)
(1.03342 0.0417178 6.69475e-12)
(1.00741 0.0351129 3.61124e-11)
(0.98712 0.0232988 -2.32121e-11)
(0.975316 0.00665176 -4.6887e-10)
(0.975025 -0.0136571 -1.70909e-09)
(0.988771 -0.0344133 -3.85712e-09)
(1.01654 -0.0502589 -6.36478e-09)
(1.05381 -0.0554926 -8.19596e-09)
(1.09175 -0.0470831 -8.44336e-09)
(1.12016 -0.0268511 -6.95336e-09)
(1.13154 -0.000973282 -4.49069e-09)
(1.12403 0.0229909 -2.15392e-09)
(1.10152 0.0394582 -6.15585e-10)
(1.07105 0.0464673 7.97661e-11)
(1.03946 0.0449925 2.34635e-10)
(1.01154 0.0370453 8.60773e-11)
(0.990297 0.0241024 -4.05825e-10)
(0.978338 0.00689774 -1.44618e-09)
(0.978646 -0.0133769 -3.09029e-09)
(0.993411 -0.0336145 -5.04987e-09)
(1.02157 -0.0487846 -6.8597e-09)
(1.05757 -0.0538674 -8.16358e-09)
(1.09279 -0.0464594 -8.74934e-09)
(1.1187 -0.0281703 -8.42446e-09)
(1.12961 -0.00401543 -7.0971e-09)
(1.12405 0.0195751 -5.02662e-09)
(1.10461 0.0370787 -2.81345e-09)
(1.07662 0.0455596 -1.05778e-09)
(1.04625 0.0449244 -6.53265e-11)
(1.01882 0.0368146 1.67128e-10)
(0.99841 0.0230965 -2.0764e-10)
(0.98839 0.00528746 -9.97732e-10)
(0.991493 -0.0146285 -1.97866e-09)
(1.00854 -0.0331795 -2.90806e-09)
(1.03687 -0.0457956 -3.61204e-09)
(1.07025 -0.0486742 -4.05082e-09)
(1.10078 -0.0406928 -4.27202e-09)
(1.12152 -0.0239712 -4.29232e-09)
(1.12855 -0.00289328 -4.03852e-09)
(1.12153 0.0175326 -3.42975e-09)
(1.10311 0.0331128 -2.51301e-09)
(1.07772 0.0413316 -1.49143e-09)
(1.05031 0.0415072 -6.26643e-10)
(1.02555 0.0343308 -1.0291e-10)
(1.00759 0.0211791 4.48346e-11)
(0.999941 0.0038664 -8.86369e-11)
(1.00497 -0.0149452 -3.51091e-10)
(1.02257 -0.0314818 -6.0758e-10)
(1.04934 -0.0416576 -7.85609e-10)
(1.07916 -0.0426801 -8.77838e-10)
(1.10508 -0.0343246 -9.12308e-10)
(1.12145 -0.0190048 -9.14403e-10)
(1.12543 -0.000695459 -8.84472e-10)
(1.11726 0.0165102 -8.04167e-10)
(1.09962 0.029475 -6.61203e-10)
(1.07645 0.0364147 -4.67957e-10)
(1.05198 0.0367221 -2.59817e-10)
(1.03021 0.0305826 -7.42853e-11)
(1.01493 0.0187687 7.08755e-11)
(1.00943 0.00283661 1.82411e-10)
(1.01568 -0.0144884 2.78221e-10)
(1.03317 -0.029431 3.70254e-10)
(1.05838 -0.0382084 4.5749e-10)
(1.08556 -0.0384978 5.29893e-10)
(1.10855 -0.030395 5.76087e-10)
(1.12249 -0.0163015 5.89351e-10)
(1.12507 0.000108146 5.70031e-10)
(1.1167 0.0151964 5.23379e-10)
(1.09995 0.026334 4.55107e-10)
(1.07848 0.0321882 3.70137e-10)
(1.05612 0.032392 2.76916e-10)
(1.0365 0.0270469 1.9185e-10)
(1.02304 0.0165776 1.35895e-10)
(1.01877 0.00211075 1.23915e-10)
(1.02554 -0.0140159 1.56392e-10)
(1.04291 -0.0283402 2.20548e-10)
(1.06772 -0.0372623 2.98391e-10)
(1.09477 -0.0384125 3.74407e-10)
(1.11831 -0.0315732 4.38663e-10)
(1.13366 -0.0186896 4.85969e-10)
(1.13828 -0.00307185 5.13658e-10)
(1.13211 0.0117485 5.1977e-10)
(1.11726 0.0230216 5.02107e-10)
(1.09714 0.0292927 4.58511e-10)
(1.07548 0.0302744 3.89725e-10)
(1.05577 0.0262864 3.03698e-10)
(1.04112 0.0177742 2.16521e-10)
(1.03437 0.00535821 1.46797e-10)
(1.03774 -0.00963406 1.06946e-10)
(1.05192 -0.0247818 9.84539e-11)
(1.0753 -0.0369527 1.13844e-10)
(1.10408 -0.0433621 1.42314e-10)
(1.13322 -0.0426365 1.74518e-10)
(1.15791 -0.0352638 2.04598e-10)
(1.17469 -0.0233031 2.29994e-10)
(1.18202 -0.00962373 2.50251e-10)
(1.18031 0.00295335 2.65677e-10)
(1.17154 0.0123256 2.76296e-10)
(1.15859 0.0174562 2.81193e-10)
(1.14448 0.0183739 2.78426e-10)
(1.13182 0.0158858 2.6583e-10)
(1.1225 0.011182 2.42587e-10)
(1.11757 0.00549797 2.10608e-10)
(1.11732 -9.19132e-06 1.74553e-10)
(1.12126 -0.00435144 1.4029e-10)
(1.12797 -0.00668523 1.12805e-10)
(1.13571 -0.00671726 9.48555e-11)
(1.14184 -0.0044028 8.68925e-11)
(1.14586 -0.00103577 8.77435e-11)
(1.14446 0.00322248 9.61878e-11)
(1.14319 0.00513904 1.0746e-10)
(1.13292 0.00696692 1.33935e-10)
(1.00012 -0.00202219 -4.03734e-18)
(1.00164 -0.00590121 -1.32143e-17)
(1.00498 -0.009853 -1.23965e-17)
(1.01003 -0.0140554 -1.64436e-17)
(1.01711 -0.0186366 -1.76041e-17)
(1.02655 -0.0235127 -1.12547e-17)
(1.03867 -0.0283901 -6.67763e-17)
(1.05349 -0.0324951 2.86903e-17)
(1.0705 -0.034968 2.43158e-16)
(1.08862 -0.0347475 -2.89412e-16)
(1.10554 -0.0313421 -1.44815e-15)
(1.11956 -0.026175 -9.67998e-16)
(1.13048 -0.0201327 2.7129e-15)
(1.13847 -0.0137197 6.99196e-15)
(1.14395 -0.00654372 7.73683e-15)
(1.1464 0.00263548 5.35006e-15)
(1.14378 0.0143501 2.61806e-15)
(1.13405 0.0271111 8.03827e-16)
(1.11696 0.0381926 -5.9188e-17)
(1.09433 0.0451446 -5.45213e-16)
(1.06908 0.0465246 3.73368e-16)
(1.04451 0.0418404 -7.29564e-16)
(1.02384 0.0312754 -2.09344e-14)
(1.01011 0.01558 6.1277e-14)
(1.00616 -0.00372844 3.36763e-13)
(1.01416 -0.0237264 -1.57134e-12)
(1.03426 -0.0395699 -9.10246e-12)
(1.06261 -0.0456552 -1.70699e-11)
(1.09117 -0.0387002 -1.58386e-11)
(1.11084 -0.0204344 -7.68274e-12)
(1.1159 0.00305088 -1.73142e-12)
(1.10617 0.0248432 1.54422e-13)
(1.08556 0.040394 3.72261e-13)
(1.05918 0.0481647 3.00804e-13)
(1.03141 0.0483873 -1.04371e-12)
(1.00563 0.041662 -1.66167e-12)
(0.984887 0.0282614 1.27742e-11)
(0.972564 0.00835933 2.56299e-11)
(0.972536 -0.0167828 -1.54665e-10)
(0.988002 -0.0430407 -8.8076e-10)
(1.01918 -0.0630162 -2.09068e-09)
(1.06092 -0.0687379 -2.93831e-09)
(1.10231 -0.0564414 -2.66522e-09)
(1.13063 -0.0296265 -1.58272e-09)
(1.13804 0.00270037 -5.68591e-10)
(1.12499 0.0310794 -5.68815e-11)
(1.09804 0.0497727 5.77577e-11)
(1.06514 0.057635 3.57498e-11)
(1.03235 0.0561988 4.40978e-11)
(1.00326 0.0473184 7.10828e-11)
(0.980119 0.0319219 -1.96832e-10)
(0.965301 0.0102559 -1.40293e-09)
(0.96241 -0.016618 -4.07095e-09)
(0.975467 -0.0448379 -7.89525e-09)
(1.00551 -0.067174 -1.17637e-08)
(1.04746 -0.0754426 -1.44938e-08)
(1.0909 -0.0649687 -1.52075e-08)
(1.12414 -0.037839 -1.34333e-08)
(1.1386 -0.00240361 -9.61965e-09)
(1.13168 0.0306951 -5.25999e-09)
(1.1073 0.0533845 -1.8804e-09)
(1.07342 0.0628481 -7.17338e-11)
(1.03807 0.0606908 4.61122e-10)
(1.00675 0.0500382 1.79076e-10)
(0.982633 0.0329721 -7.8832e-10)
(0.968741 0.0101368 -2.48724e-09)
(0.968993 -0.0172607 -4.68609e-09)
(0.986218 -0.0449904 -6.80696e-09)
(1.01876 -0.0658239 -8.37058e-09)
(1.05952 -0.0726721 -9.33055e-09)
(1.09833 -0.0624246 -9.86399e-09)
(1.12582 -0.037623 -9.90268e-09)
(1.13637 -0.00522646 -9.04212e-09)
(1.1291 0.0262121 -7.06294e-09)
(1.10722 0.0494723 -4.40582e-09)
(1.07655 0.0607508 -1.9303e-09)
(1.04351 0.0599748 -3.36012e-10)
(1.01364 0.049295 1.44947e-10)
(0.991443 0.0310247 -3.24614e-10)
(0.980994 0.00697771 -1.36931e-09)
(0.985667 -0.0201687 -2.5436e-09)
(1.00618 -0.0454079 -3.47819e-09)
(1.03883 -0.0622272 -4.0166e-09)
(1.07609 -0.0654626 -4.23271e-09)
(1.10901 -0.0539026 -4.30858e-09)
(1.1302 -0.0308239 -4.35338e-09)
(1.1358 -0.00241867 -4.28358e-09)
(1.12606 0.0245675 -3.89056e-09)
(1.10445 0.0447569 -3.06791e-09)
(1.07609 0.0551308 -1.9651e-09)
(1.04629 0.0550132 -9.16348e-10)
(1.01987 0.0453074 -2.2401e-10)
(1.00122 0.0276301 8.84077e-12)
(0.994325 0.00422402 -1.1037e-10)
(1.00175 -0.0212607 -3.74765e-10)
(1.02297 -0.0434632 -6.09338e-10)
(1.0536 -0.0566859 -7.3907e-10)
(1.08649 -0.0572477 -7.78015e-10)
(1.11401 -0.0451295 -7.79574e-10)
(1.13026 -0.0238914 -7.86891e-10)
(1.13253 0.000905287 -8.01829e-10)
(1.1215 0.0237052 -7.86889e-10)
(1.10056 0.0404303 -6.99561e-10)
(1.07433 0.0489554 -5.3082e-10)
(1.04752 0.0487112 -3.14453e-10)
(1.02444 0.0400203 -1.00243e-10)
(1.00912 0.0238344 8.12652e-11)
(1.00511 0.0021766 2.3032e-10)
(1.01429 -0.0211897 3.61886e-10)
(1.03552 -0.0410002 4.84689e-10)
(1.06433 -0.0521115 5.95061e-10)
(1.09412 -0.0515654 6.82676e-10)
(1.11822 -0.0397666 7.36709e-10)
(1.13172 -0.0201789 7.49111e-10)
(1.13245 0.00212792 7.1752e-10)
(1.12123 0.0222354 6.46847e-10)
(1.10117 0.0366814 5.47003e-10)
(1.07654 0.0438315 4.29931e-10)
(1.05169 0.0433618 3.10918e-10)
(1.03066 0.0355036 2.10834e-10)
(1.01722 0.0208497 1.51624e-10)
(1.01457 0.000963731 1.456e-10)
(1.02441 -0.0208607 1.88497e-10)
(1.0456 -0.0398087 2.62923e-10)
(1.07402 -0.0510458 3.48218e-10)
(1.10366 -0.0516018 4.28458e-10)
(1.12836 -0.0414768 4.94741e-10)
(1.14344 -0.023498 5.43215e-10)
(1.14651 -0.00219227 5.71745e-10)
(1.13783 0.0177061 5.77466e-10)
(1.11988 0.0325584 5.56276e-10)
(1.09655 0.0404983 5.04656e-10)
(1.07204 0.0412354 4.24058e-10)
(1.05025 0.0352597 3.25469e-10)
(1.03472 0.0231869 2.28853e-10)
(1.02864 0.0058943 1.5521e-10)
(1.03429 -0.0146782 1.16684e-10)
(1.0519 -0.0350436 1.12522e-10)
(1.07895 -0.0508601 1.32646e-10)
(1.11062 -0.0584974 1.64437e-10)
(1.14129 -0.0564189 1.97809e-10)
(1.16602 -0.0456042 2.27016e-10)
(1.18159 -0.0290065 2.50133e-10)
(1.18686 -0.0104997 2.6757e-10)
(1.18265 0.00621172 2.80443e-10)
(1.17125 0.0184144 2.89185e-10)
(1.15587 0.0248155 2.92741e-10)
(1.13979 0.025526 2.88653e-10)
(1.12585 0.0216587 2.74321e-10)
(1.11613 0.0147996 2.49045e-10)
(1.11186 0.0065937 2.15495e-10)
(1.11337 -0.00136769 1.79267e-10)
(1.11996 -0.00763755 1.46686e-10)
(1.12969 -0.0109538 1.22378e-10)
(1.1402 -0.010809 1.08115e-10)
(1.14811 -0.00724075 1.0324e-10)
(1.15289 -0.00194742 1.0584e-10)
(1.15048 0.00435784 1.14374e-10)
(1.14829 0.00789462 1.24772e-10)
(1.13384 0.0105246 1.48161e-10)
(1.00011 -0.00243792 3.7517e-18)
(1.00155 -0.00711084 1.26887e-17)
(1.00473 -0.0119005 1.41974e-17)
(1.00957 -0.0170538 5.51254e-18)
(1.0165 -0.0227606 6.4805e-17)
(1.02594 -0.0289491 -7.72122e-17)
(1.03841 -0.0352733 2.35455e-18)
(1.05409 -0.0407106 8.4301e-16)
(1.07251 -0.044115 -1.08474e-15)
(1.09248 -0.043878 -3.83178e-15)
(1.11091 -0.039285 1.0773e-15)
(1.12568 -0.0325355 1.48356e-14)
(1.13687 -0.0249206 3.38838e-14)
(1.14504 -0.0172159 5.07672e-14)
(1.15117 -0.00879222 4.97269e-14)
(1.15479 0.00236094 3.17058e-14)
(1.15308 0.0172729 1.37902e-14)
(1.14302 0.0339289 2.48706e-15)
(1.12415 0.048509 -3.01046e-15)
(1.09867 0.0576882 -3.8164e-15)
(1.07014 0.059633 2.80049e-15)
(1.04229 0.0537945 -2.80676e-14)
(1.01867 0.0404197 -2.73125e-14)
(1.00266 0.0203343 4.05692e-13)
(0.997669 -0.00478082 -4.76578e-13)
(1.00684 -0.0313432 -2.82197e-12)
(1.03114 -0.0528447 5.67318e-12)
(1.0662 -0.0613365 1.40274e-11)
(1.10171 -0.0519818 1.57331e-12)
(1.12583 -0.0271614 -9.53772e-12)
(1.13147 0.00444462 -6.85384e-12)
(1.11899 0.033187 -1.35423e-12)
(1.09397 0.0531082 1.21361e-12)
(1.06299 0.0626611 -3.45127e-13)
(1.03106 0.0626443 -5.18233e-12)
(1.00162 0.0540718 1.36053e-11)
(0.977571 0.0372025 8.46314e-11)
(0.962169 0.0119547 -4.73646e-11)
(0.959187 -0.0204143 -1.27453e-09)
(0.972532 -0.0549742 -4.49604e-09)
(1.0045 -0.0823036 -9.00326e-09)
(1.05179 -0.0913593 -1.22503e-08)
(1.10271 -0.0758677 -1.19303e-08)
(1.14071 -0.0397927 -8.29217e-09)
(1.15337 0.00411026 -3.92074e-09)
(1.13945 0.0420478 -1.01452e-09)
(1.10751 0.0660651 1.09559e-10)
(1.06864 0.0752856 2.5507e-10)
(1.03083 0.0726511 1.9724e-10)
(0.99777 0.0612238 8.06732e-11)
(0.970806 0.0422815 -7.02092e-10)
(0.952072 0.0155177 -3.05134e-09)
(0.946662 -0.0187257 -7.08371e-09)
(0.960681 -0.0559579 -1.16205e-08)
(0.995356 -0.086272 -1.52826e-08)
(1.04358 -0.098215 -1.76465e-08)
(1.09259 -0.0854289 -1.87431e-08)
(1.12949 -0.0506742 -1.79757e-08)
(1.14568 -0.00470814 -1.45972e-08)
(1.13868 0.0386614 -9.29001e-09)
(1.11237 0.068586 -4.10945e-09)
(1.07513 0.081068 -7.10658e-10)
(1.03582 0.0783168 5.93863e-10)
(1.00062 0.0647596 2.6419e-10)
(0.973303 0.0431068 -1.26088e-09)
(0.957847 0.0137273 -3.58264e-09)
(0.959261 -0.0221039 -6.02978e-09)
(0.980394 -0.0584979 -7.85151e-09)
(1.01819 -0.0854508 -8.75671e-09)
(1.06378 -0.0936714 -9.06043e-09)
(1.10579 -0.0796178 -9.29522e-09)
(1.13436 -0.0471803 -9.62498e-09)
(1.14392 -0.00563342 -9.53266e-09)
(1.13414 0.0341662 -8.27623e-09)
(1.10908 0.0633516 -5.79476e-09)
(1.07519 0.0774058 -2.93652e-09)
(1.0392 0.0763676 -8.01135e-10)
(1.00684 0.062839 -1.07027e-11)
(0.983112 0.0394204 -4.92847e-10)
(0.972904 0.00818494 -1.69034e-09)
(0.980018 -0.0272104 -2.92831e-09)
(1.00456 -0.0597631 -3.74935e-09)
(1.04152 -0.0807645 -4.05841e-09)