/*--------------------------------*- C++ -*----------------------------------*\
  =========                 |
  \\      /  F ield         | OpenFOAM: The Open Source CFD Toolbox
   \\    /   O peration     | Website:  https://openfoam.org
    \\  /    A nd           | Version:  11
     \\/     M anipulation  |
\*---------------------------------------------------------------------------*/
FoamFile
{
    format      ascii;
    class       volVectorField;
    location    "17.934172";
    object      U;
}
// * * * * * * * * * * * * * * * * * * * * * * * * * * * * * * * * * * * * * //

dimensions      [0 1 -1 0 0 0 0];

internalField   nonuniform List<vector> 
7132
(
(1.00014 -0.000264529 2.39199e-18)
(1.00204 -0.000772948 9.2219e-18)
(1.00621 -0.00126778 1.05098e-17)
(1.01224 -0.0017491 1.40437e-17)
(1.02019 -0.0022126 1.89303e-17)
(1.02995 -0.00263592 2.07782e-17)
(1.04131 -0.00298022 2.08231e-17)
(1.05385 -0.0031803 2.03314e-17)
(1.06684 -0.00316786 1.9578e-17)
(1.07933 -0.0029044 1.84153e-17)
(1.09016 -0.00238934 1.68393e-17)
(1.09856 -0.00179764 1.53338e-17)
(1.10454 -0.00125927 1.3923e-17)
(1.1086 -0.000898134 1.25265e-17)
(1.11167 -0.000718772 7.99739e-18)
(1.11435 -0.000587305 3.61618e-18)
(1.11649 -0.000295812 8.07697e-19)
(1.11695 0.00034746 1.15873e-18)
(1.11401 0.00136383 5.4673e-19)
(1.10632 0.0025677 1.49101e-18)
(1.09365 0.00367065 3.59781e-18)
(1.07701 0.00441189 5.17819e-18)
(1.05829 0.00462346 5.49015e-18)
(1.03986 0.00423158 9.14081e-18)
(1.02421 0.00323654 1.51207e-17)
(1.01372 0.00170648 -3.32219e-17)
(1.01034 -0.000204124 -1.73352e-16)
(1.01525 -0.0022134 5.59728e-16)
(1.02814 -0.00388385 4.13126e-15)
(1.04664 -0.00470668 8.58942e-15)
(1.06629 -0.00432998 8.74774e-15)
(1.08182 -0.00279419 4.98591e-15)
(1.08908 -0.000555091 1.59548e-15)
(1.08649 0.00174958 4.43442e-17)
(1.07508 0.00359103 -4.76556e-16)
(1.05757 0.00469048 4.50594e-16)
(1.03725 0.00497799 3.3364e-15)
(1.01737 0.00448371 -3.67762e-15)
(1.00096 0.00325955 -4.48817e-14)
(0.990866 0.00137524 -5.95873e-14)
(0.989592 -0.00101299 2.96307e-13)
(0.998776 -0.00355103 1.60596e-12)
(1.0181 -0.00564137 3.92008e-12)
(1.04433 -0.0065973 5.99384e-12)
(1.07152 -0.00597847 6.30161e-12)
(1.09284 -0.00388078 4.77168e-12)
(1.1031 -0.000932869 2.61052e-12)
(1.10056 0.00201621 9.23834e-13)
(1.08693 0.00427895 6.54985e-14)
(1.06605 0.00553184 -1.85326e-13)
(1.04228 0.00576358 -9.94532e-14)
(1.0195 0.00510183 2.27777e-13)
(1.001 0.00367006 2.40169e-13)
(0.989678 0.00156142 -2.12318e-12)
(0.988108 -0.00106517 -9.87378e-12)
(0.997977 -0.00383883 -2.4799e-11)
(1.0189 -0.00613099 -4.51594e-11)
(1.04745 -0.0072241 -6.47131e-11)
(1.07736 -0.00664648 -7.57043e-11)
(1.10136 -0.00445827 -7.32873e-11)
(1.11364 -0.00127598 -5.73925e-11)
(1.1119 0.00199587 -3.38104e-11)
(1.09767 0.00455167 -1.30866e-11)
(1.0752 0.00595758 -1.91956e-13)
(1.04956 0.00617323 6.42411e-12)
(1.02531 0.0053846 5.371e-12)
(1.00598 0.00380753 -1.86102e-11)
(0.994356 0.00160564 -9.53442e-11)
(0.992678 -0.00103228 -2.54241e-10)
(1.00227 -0.00374505 -5.01501e-10)
(1.02252 -0.00595744 -8.02568e-10)
(1.05011 -0.00703643 -1.08377e-09)
(1.07926 -0.00657199 -1.25953e-09)
(1.1033 -0.00459914 -1.27151e-09)
(1.11669 -0.00161916 -1.11429e-09)
(1.11676 0.00158527 -8.346e-10)
(1.10427 0.00423614 -5.11237e-10)
(1.08285 0.00581326 -2.26702e-10)
(1.05751 0.00615679 -3.99637e-11)
(1.03318 0.00539599 2.22401e-11)
(1.01386 0.00378072 -4.67666e-11)
(1.00245 0.00155899 -2.47156e-10)
(1.00096 -0.00100411 -5.70871e-10)
(1.01021 -0.00352578 -9.89646e-10)
(1.02913 -0.00548844 -1.44835e-09)
(1.05434 -0.00638156 -1.87223e-09)
(1.08058 -0.0059207 -2.1838e-09)
(1.10216 -0.0041897 -2.3205e-09)
(1.11452 -0.00161855 -2.24697e-09)
(1.11541 0.0011706 -1.96216e-09)
(1.1053 0.00355977 -1.50544e-09)
(1.08693 0.0050954 -9.66529e-10)
(1.0644 0.00556402 -4.74253e-10)
(1.04217 0.00498068 -1.52539e-10)
(1.02423 0.00351555 -6.93025e-11)
(1.0137 0.00142342 -2.16237e-10)
(1.01257 -0.000965811 -5.29641e-10)
(1.02132 -0.00322572 -9.27795e-10)
(1.0385 -0.00487485 -1.33778e-09)
(1.06065 -0.00551248 -1.70495e-09)
(1.08302 -0.00497752 -1.99139e-09)
(1.10085 -0.00342116 -2.1701e-09)
(1.11063 -0.00124742 -2.21843e-09)
(1.11091 0.00103291 -2.11481e-09)
(1.10231 0.00295481 -1.84591e-09)
(1.0871 0.00419465 -1.43143e-09)
(1.06853 0.00459152 -9.45599e-10)
(1.05013 0.00412665 -5.05049e-10)
(1.03528 0.00289638 -2.18588e-10)
(1.02677 0.00110327 -1.35092e-10)
(1.02637 -0.000936358 -2.30749e-10)
(1.03433 -0.00281006 -4.38107e-10)
(1.0491 -0.00409172 -6.85706e-10)
(1.06744 -0.00447352 -9.21624e-10)
(1.08528 -0.00388046 -1.11698e-09)
(1.09879 -0.00249723 -1.25844e-09)
(1.1054 -0.00069273 -1.33811e-09)
(1.10429 0.00111132 -1.34554e-09)
(1.09633 0.00256318 -1.26649e-09)
(1.08352 0.00344307 -1.09336e-09)
(1.06848 0.0036583 -8.41388e-10)
(1.05398 0.00320975 -5.55628e-10)
(1.04259 0.00217203 -2.97113e-10)
(1.03648 0.00070454 -1.15294e-10)
(1.03697 -0.000929957 -2.79185e-11)
(1.0441 -0.00238704 -2.15959e-11)
(1.05639 -0.00332354 -6.721e-11)
(1.07108 -0.00351143 -1.3583e-10)
(1.08485 -0.00292267 -2.0672e-10)
(1.09472 -0.0017364 -2.67828e-10)
(1.09882 -0.000267513 -3.12716e-10)
(1.09676 0.00114301 -3.37133e-10)
(1.08945 0.00222524 -3.3717e-10)
(1.07865 0.002824 -3.10022e-10)
(1.06653 0.00288782 -2.56594e-10)
(1.05526 0.00243551 -1.83552e-10)
(1.04684 0.00153814 -1.02312e-10)
(1.04287 0.000330854 -2.49521e-11)
(1.04425 -0.000969907 4.01606e-11)
(1.05086 -0.00208627 9.01234e-11)
(1.06131 -0.00274952 1.2628e-10)
(1.07327 -0.00279298 1.51785e-10)
(1.08403 -0.00221659 1.69725e-10)
(1.09125 -0.00118688 1.82324e-10)
(1.09359 2.52536e-05 1.90802e-10)
(1.09093 0.00113606 1.95318e-10)
(1.08424 0.00192852 1.94927e-10)
(1.07516 0.00228668 1.87956e-10)
(1.06559 0.00218475 1.73131e-10)
(1.05734 0.00165568 1.51064e-10)
(1.05211 0.000773665 1.25005e-10)
(1.051 -0.00033801 1.00043e-10)
(1.05492 -0.00149191 8.11615e-11)
(1.06305 -0.00244986 7.14885e-11)
(1.07512 -0.00299288 7.17175e-11)
(1.08707 -0.00295721 8.06066e-11)
(1.09992 -0.00241605 9.60547e-11)
(1.10545 -0.0013394 1.15905e-10)
(1.11298 -0.000450986 1.36297e-10)
(1.10533 0.00132748 1.68039e-10)
(1.00014 -0.000792501 2.67557e-20)
(1.00204 -0.00231671 4.53231e-19)
(1.00619 -0.00380154 1.02584e-18)
(1.01221 -0.00524942 1.74323e-18)
(1.02018 -0.00664812 2.63031e-18)
(1.03 -0.00793097 3.50429e-18)
(1.04147 -0.00898079 4.1172e-18)
(1.05422 -0.0095968 5.20218e-18)
(1.06746 -0.00956776 6.43362e-18)
(1.08023 -0.00876769 5.34384e-18)
(1.09126 -0.00718902 4.89607e-18)
(1.09968 -0.00537931 9.12804e-18)
(1.10555 -0.0037399 9.07651e-18)
(1.10944 -0.00266203 5.40897e-18)
(1.11238 -0.00216451 -2.20508e-18)
(1.11509 -0.00183293 -8.94193e-18)
(1.11746 -0.00101941 -9.62904e-18)
(1.11827 0.000883711 -5.33048e-18)
(1.11561 0.00395266 -1.60578e-19)
(1.10798 0.00761693 3.73159e-18)
(1.0951 0.0109885 6.34557e-18)
(1.07804 0.0132698 6.62638e-18)
(1.05877 0.0139506 3.84047e-18)
(1.03974 0.012807 2.08663e-17)
(1.02351 0.00983528 5.01998e-17)
(1.01253 0.0052304 -2.64819e-16)
(1.00887 -0.000556368 -9.48433e-16)
(1.01386 -0.00668379 4.99477e-15)
(1.02731 -0.0118171 3.08939e-14)
(1.04681 -0.0143801 6.51808e-14)
(1.06764 -0.0132695 6.99202e-14)
(1.08412 -0.0085976 4.07761e-14)
(1.09182 -0.00176593 1.23334e-14)
(1.08909 0.00526453 -8.24853e-17)
(1.07715 0.0108756 -3.07796e-15)
(1.05891 0.0142262 5.34672e-15)
(1.03781 0.0151189 2.35597e-14)
(1.01717 0.0136558 -3.96838e-14)
(1.00003 0.00999119 -3.68673e-13)
(0.989285 0.00431508 -4.86849e-13)
(0.987625 -0.00293203 2.88887e-12)
(0.996938 -0.0106947 1.64448e-11)
(1.01708 -0.017139 4.17213e-11)
(1.0447 -0.0201303 6.48563e-11)
(1.07344 -0.0182892 6.72134e-11)
(1.09591 -0.0119026 4.80425e-11)
(1.10661 -0.00290709 2.3772e-11)
(1.10377 0.00608891 7.42373e-12)
(1.08936 0.0129806 1.17609e-13)
(1.06752 0.016791 -1.62521e-12)
(1.0428 0.0175061 -5.42238e-13)
(1.01917 0.0155309 2.42715e-12)
(0.999898 0.0112399 2.78689e-12)
(0.987887 0.00489099 -1.8403e-11)
(0.985848 -0.0030732 -9.91522e-11)
(0.995693 -0.0115493 -2.77588e-10)
(1.01723 -0.018609 -5.39711e-10)
(1.04702 -0.0220242 -7.82705e-10)
(1.07852 -0.02032 -8.74149e-10)
(1.10392 -0.0136714 -7.66776e-10)
(1.11699 -0.00397164 -5.30981e-10)
(1.11522 0.00601002 -2.81156e-10)
(1.1003 0.0138069 -9.97176e-11)
(1.07679 0.0180935 -5.07861e-12)
(1.0501 0.018761 2.85017e-11)
(1.0249 0.0163975 2.38025e-11)
(1.00474 0.0116688 -4.08617e-11)
(0.992352 0.00505363 -2.40283e-10)
(0.990071 -0.00291494 -6.63164e-10)
(0.999426 -0.0111709 -1.33678e-09)
(1.01999 -0.0179656 -2.16037e-09)
(1.04845 -0.021347 -2.91038e-09)
(1.07879 -0.020034 -3.33347e-09)
(1.104 -0.0141102 -3.2744e-09)
(1.11824 -0.00509161 -2.75824e-09)
(1.11866 0.00464424 -1.96969e-09)
(1.10601 0.0127271 -1.14686e-09)
(1.08405 0.0175653 -4.83656e-10)
(1.05794 0.0186659 -7.73783e-11)
(1.03279 0.0164209 5.93913e-11)
(1.01265 0.0115861 -5.43554e-11)
(1.00055 0.0048971 -4.06277e-10)
(0.998655 -0.00286772 -9.80978e-10)
(1.00798 -0.0105569 -1.72218e-09)
(1.02752 -0.0165797 -2.51549e-09)
(1.05371 -0.0193538 -3.21399e-09)
(1.08096 -0.0179973 -3.68086e-09)
(1.10327 -0.0127703 -3.82023e-09)
(1.11593 -0.00499162 -3.59554e-09)
(1.11674 0.00344899 -3.04078e-09)
(1.10629 0.0106858 -2.25776e-09)
(1.08744 0.0153535 -1.40566e-09)
(1.06437 0.0168105 -6.68824e-10)
(1.04158 0.0150984 -2.01885e-10)
(1.02312 0.010716 -8.01145e-11)
(1.01221 0.00440993 -2.85106e-10)
(1.01103 -0.00284081 -7.28777e-10)
(1.0202 -0.00973864 -1.29238e-09)
(1.03823 -0.0147922 -1.86079e-09)
(1.06142 -0.016753 -2.34537e-09)
(1.08468 -0.015123 -2.69107e-09)
(1.10298 -0.0103787 -2.86888e-09)
(1.11273 -0.0037708 -2.86291e-09)
(1.11256 0.00314077 -2.66338e-09)
(1.1033 0.00895082 -2.27272e-09)
(1.0874 0.0126911 -1.72893e-09)
(1.06821 0.0138882 -1.12494e-09)
(1.04934 0.0124907 -5.9369e-10)
(1.03419 0.00878188 -2.55008e-10)
(1.02561 0.00335671 -1.60741e-10)
(1.02549 -0.00284092 -2.80811e-10)
(1.03412 -0.00855436 -5.33804e-10)
(1.04983 -0.0124666 -8.31392e-10)
(1.06916 -0.0136221 -1.10779e-09)
(1.08775 -0.0117919 -1.32662e-09)
(1.10155 -0.00755426 -1.473e-09)
(1.10795 -0.00204967 -1.5413e-09)
(1.10626 0.00343281 -1.5252e-09)
(1.0975 0.00782744 -1.41502e-09)
(1.08388 0.0104758 -1.20744e-09)
(1.06815 0.0111076 -9.21514e-10)
(1.05315 0.00973215 -6.05654e-10)
(1.04154 0.00657359 -3.23423e-10)
(1.03551 0.00210702 -1.25311e-10)
(1.03645 -0.00287582 -2.84091e-11)
(1.04436 -0.00732167 -1.76169e-11)
(1.05762 -0.0101715 -6.20744e-11)
(1.07325 -0.0107219 -1.3177e-10)
(1.08766 -0.00889225 -2.05464e-10)
(1.09772 -0.00524363 -2.70622e-10)
(1.10156 -0.000748935 -3.19983e-10)
(1.09889 0.00354945 -3.48268e-10)
(1.09077 0.00683245 -3.50706e-10)
(1.07914 0.00863432 -3.24036e-10)
(1.06631 0.00880585 -2.6917e-10)
(1.05454 0.00740838 -1.93069e-10)
(1.04591 0.00465713 -1.07437e-10)
(1.04208 0.00095964 -2.44313e-11)
(1.04399 -0.00302544 4.75812e-11)
(1.05143 -0.00644298 1.05392e-10)
(1.06288 -0.00846172 1.49477e-10)
(1.07576 -0.00856818 1.81683e-10)
(1.08714 -0.00676915 2.03813e-10)
(1.09454 -0.00358711 2.17354e-10)
(1.09661 0.000139681 2.2361e-10)
(1.09334 0.00354195 2.23521e-10)
(1.08584 0.0059594 2.17252e-10)
(1.0759 0.0070431 2.04224e-10)
(1.06556 0.00671909 1.84006e-10)
(1.05674 0.00508977 1.57766e-10)
(1.05122 0.0023793 1.29068e-10)
(1.05019 -0.00103924 1.03109e-10)
(1.05459 -0.00459275 8.47673e-11)
(1.06354 -0.00754344 7.68174e-11)
(1.07663 -0.0092107 7.93843e-11)
(1.08955 -0.00908857 9.05648e-11)
(1.10317 -0.00739996 1.07712e-10)
(1.10893 -0.00408375 1.28287e-10)
(1.11658 -0.00131636 1.48702e-10)
(1.10796 0.00408749 1.78813e-10)
(1.00014 -0.00131759 -4.09409e-22)
(1.00202 -0.00385245 6.04304e-21)
(1.00614 -0.00632725 4.69124e-21)
(1.01215 -0.00875149 1.93247e-20)
(1.02013 -0.011109 -4.65051e-20)
(1.03006 -0.013291 -2.07338e-19)
(1.04177 -0.0151005 2.678e-20)
(1.05491 -0.016186 -2.85136e-19)
(1.06868 -0.0161734 -2.61637e-18)
(1.08205 -0.014814 -1.92179e-18)
(1.09348 -0.012073 6.13728e-18)
(1.10199 -0.00893731 1.04403e-17)
(1.10765 -0.00610862 -6.78335e-18)
(1.11116 -0.00429704 -4.44905e-17)
(1.11384 -0.00354876 -7.79214e-17)
(1.11663 -0.00313427 -7.76354e-17)
(1.11948 -0.00189634 -4.02279e-17)
(1.12099 0.00127027 1.64407e-18)
(1.11885 0.00651693 2.27932e-17)
(1.11126 0.0128315 2.62679e-17)
(1.09787 0.0186457 2.1085e-17)
(1.07988 0.0225772 5.88343e-18)
(1.05947 0.0237681 3.0914e-17)
(1.03925 0.0218566 5.50913e-17)
(1.0219 0.0168406 -7.24696e-16)
(1.01004 0.00902792 8.74515e-16)
(1.00595 -0.000860513 1.64391e-14)
(1.01123 -0.0114272 -3.50092e-14)
(1.02595 -0.0203662 -3.95161e-13)
(1.04759 -0.0248843 -8.69777e-13)
(1.07084 -0.0229935 -8.47328e-13)
(1.08917 -0.0148764 -4.21751e-13)
(1.09755 -0.00302529 -1.01011e-13)
(1.0943 0.00909756 6.85362e-17)
(1.08102 0.0186877 7.70175e-15)
(1.06114 0.0243566 4.03191e-14)
(1.03841 0.0258443 7.97422e-14)
(1.01625 0.0233738 -2.80773e-13)
(0.997751 0.0172001 -1.42226e-12)
(0.985904 0.00757987 -6.74559e-13)
(0.983713 -0.00482959 1.28778e-11)
(0.993553 -0.0182695 5.35381e-11)
(1.0156 -0.0295281 1.17193e-10)
(1.04624 -0.0347927 1.74008e-10)
(1.07817 -0.031593 1.8699e-10)
(1.10287 -0.0204563 1.44625e-10)
(1.11414 -0.00483892 7.88238e-11)
(1.11029 0.0106633 2.88385e-11)
(1.09391 0.0224124 2.68865e-12)
(1.06986 0.0288047 -5.42504e-12)
(1.04315 0.0299265 -1.33056e-12)
(1.01787 0.0265476 1.1649e-11)
(0.99718 0.0193119 9.10748e-12)
(0.983949 0.00859189 -1.02933e-10)
(0.981005 -0.00495586 -5.03783e-10)
(0.990615 -0.0195187 -1.34791e-09)
(1.01302 -0.0317973 -2.53394e-09)
(1.04495 -0.0378849 -3.60509e-09)
(1.07946 -0.0351109 -4.00628e-09)
(1.10781 -0.0236868 -3.52047e-09)
(1.12271 -0.00690285 -2.44155e-09)
(1.12112 0.0103612 -1.30006e-09)
(1.1049 0.0237717 -4.70603e-10)
(1.0793 0.0310536 -3.90932e-11)
(1.05045 0.0321092 1.04955e-10)
(1.02339 0.0280561 8.45973e-11)
(1.00167 0.0200809 -1.05448e-10)
(0.987973 0.00894577 -6.12878e-10)
(0.9848 -0.00455837 -1.59955e-09)
(0.994102 -0.0186985 -3.05194e-09)
(1.01576 -0.0304722 -4.69898e-09)
(1.04625 -0.0364508 -6.11936e-09)
(1.07895 -0.034359 -6.91213e-09)
(1.10611 -0.0243145 -6.81978e-09)
(1.12146 -0.00892583 -5.83194e-09)
(1.12204 0.00771818 -4.23868e-09)
(1.10873 0.0215488 -2.51299e-09)
(1.08552 0.0298438 -1.08991e-09)
(1.0579 0.0317766 -2.0393e-10)
(1.03121 0.0280349 1.12673e-10)
(1.00969 0.0198973 -8.12996e-11)
(0.99659 0.00856024 -7.19845e-10)
(0.994439 -0.00471341 -1.71473e-09)
(1.00456 -0.0179544 -2.90312e-09)
(1.02592 -0.0283557 -4.06397e-09)
(1.05441 -0.0331139 -5.0011e-09)
(1.08369 -0.0307075 -5.59139e-09)
(1.10712 -0.0216631 -5.75846e-09)
(1.11981 -0.00833653 -5.44414e-09)
(1.1198 0.00600585 -4.64526e-09)
(1.10806 0.0182192 -3.47748e-09)
(1.08782 0.0260542 -2.18049e-09)
(1.06348 0.0284853 -1.04822e-09)
(1.03961 0.0255985 -3.25212e-10)
(1.02033 0.018196 -1.27207e-10)
(1.00908 0.0074706 -4.20318e-10)
(1.00832 -0.00495334 -1.05468e-09)
(1.01884 -0.0168221 -1.82858e-09)
(1.03895 -0.0254895 -2.55987e-09)
(1.06437 -0.0287478 -3.1357e-09)
(1.08932 -0.0257605 -3.51553e-09)
(1.10829 -0.0174367 -3.69435e-09)
(1.11759 -0.00602262 -3.66285e-09)
(1.1161 0.00576278 -3.39875e-09)
(1.1051 0.0155416 -2.89467e-09)
(1.08749 0.0217345 -2.19706e-09)
(1.06691 0.0236139 -1.42718e-09)
(1.04707 0.0211327 -7.55346e-10)
(1.03147 0.0147569 -3.3107e-10)
(1.02308 0.00545512 -2.15058e-10)
(1.0239 -0.00518423 -3.62971e-10)
(1.03423 -0.0149807 -6.65913e-10)
(1.05207 -0.0216199 -1.01069e-09)
(1.07342 -0.0234353 -1.31975e-09)
(1.09335 -0.0200688 -1.55725e-09)
(1.1075 -0.0125922 -1.71299e-09)
(1.11323 -0.00303893 -1.78266e-09)
(1.11008 0.00634653 -1.75697e-09)
(1.09949 0.0137556 -1.62348e-09)
(1.08408 0.0181132 -1.37936e-09)
(1.06688 0.0190154 -1.04859e-09)
(1.05092 0.0165131 -6.87584e-10)
(1.03897 0.0109914 -3.67407e-10)
(1.03335 0.00325008 -1.42083e-10)
(1.03546 -0.00535135 -2.75821e-11)
(1.04518 -0.0129758 -5.36618e-12)
(1.06053 -0.017771 -4.19906e-11)
(1.07799 -0.0185278 -1.07183e-10)
(1.09354 -0.0151531 -1.80938e-10)
(1.10379 -0.0086816 -2.51508e-10)
(1.1069 -0.000844417 -3.10536e-10)
(1.1028 0.00654532 -3.49947e-10)
(1.09293 0.0120967 -3.61824e-10)
(1.07957 0.0150486 -3.40607e-10)
(1.06529 0.0151848 -2.86393e-10)
(1.05258 0.0126337 -2.06599e-10)
(1.04366 0.00776906 -1.13862e-10)
(1.04029 0.00129319 -2.10861e-11)
(1.04344 -0.00564275 6.27823e-11)
(1.05271 -0.0115324 1.3364e-10)
(1.06619 -0.0149177 1.9047e-10)
(1.08084 -0.0149214 2.33268e-10)
(1.0933 -0.0116011 2.6217e-10)
(1.10089 -0.00591984 2.7764e-10)
(1.10227 0.000628159 2.80879e-10)
(1.09764 0.00652686 2.73651e-10)
(1.08843 0.0106507 2.57631e-10)
(1.07675 0.0124274 2.33979e-10)
(1.06491 0.0117572 2.03867e-10)
(1.05503 0.00882975 1.69732e-10)
(1.04909 0.00403177 1.35994e-10)
(1.04839 -0.00199006 1.08199e-10)
(1.05391 -0.00822497 9.09839e-11)
(1.0646 -0.0133641 8.63143e-11)
(1.07973 -0.0161965 9.31454e-11)
(1.09447 -0.0158662 1.0837e-10)
(1.10943 -0.0127469 1.28459e-10)
(1.11543 -0.00689921 1.50308e-10)
(1.12314 -0.00186801 1.70859e-10)
(1.11245 0.0072903 1.98239e-10)
(1.00014 -0.00183745 -3.57005e-20)
(1.00199 -0.00537278 -5.93205e-19)
(1.00606 -0.00883667 -1.23927e-18)
(1.01203 -0.0122524 -1.9225e-18)
(1.02003 -0.0156076 -3.48552e-18)
(1.0301 -0.018756 -3.76181e-18)
(1.04215 -0.0214196 -4.66967e-18)
(1.0559 -0.0230699 -9.34544e-18)
(1.07051 -0.0231372 -1.3608e-17)
(1.08481 -0.0211822 8.77117e-18)
(1.0969 -0.0171067 4.0376e-17)
(1.10552 -0.0124607 -1.91067e-17)
(1.11084 -0.00830064 -1.81945e-16)
(1.11374 -0.00575577 -2.03192e-16)
(1.11597 -0.00492045 1.5553e-16)
(1.11886 -0.00467818 7.42488e-16)
(1.12248 -0.00323135 1.07618e-15)
(1.12512 0.00117985 9.75781e-16)
(1.12384 0.0088184 6.54044e-16)
(1.11631 0.0181191 3.34143e-16)
(1.1021 0.0266871 8.92595e-17)
(1.08264 0.0324751 -2.55208e-17)
(1.06044 0.0342693 5.23609e-16)
(1.03838 0.0315884 -1.11288e-15)
(1.01934 0.0244375 -9.63062e-15)
(1.00613 0.0132119 3.6261e-14)
(1.00135 -0.00114268 1.6992e-13)
(1.00707 -0.0166815 -7.02555e-13)
(1.02376 -0.0300051 -4.59365e-12)
(1.04878 -0.0368398 -9.66417e-12)
(1.07588 -0.0340706 -1.03957e-11)
(1.09714 -0.0219447 -6.18481e-12)
(1.10653 -0.00430865 -1.93876e-12)
(1.10233 0.013547 -1.3216e-13)
(1.08685 0.027461 2.21079e-13)
(1.06434 0.0355299 2.27566e-13)
(1.03908 0.0375571 -8.09688e-14)
(1.01464 0.0339828 -1.05759e-12)
(0.994111 0.0251664 3.08704e-13)
(0.98061 0.0113397 8.44056e-12)
(0.977549 -0.00674338 -9.227e-13)
(0.987925 -0.0266255 -1.19461e-10)
(1.01242 -0.043485 -4.04744e-10)
(1.04736 -0.0514343 -6.83133e-10)
(1.08438 -0.0466199 -6.91237e-10)
(1.11304 -0.0298792 -4.40579e-10)
(1.12563 -0.00659086 -1.672e-10)
(1.12032 0.0162311 -1.61069e-11)
(1.10076 0.033205 1.86329e-11)
(1.07315 0.0421622 8.20616e-12)
(1.04334 0.0434935 1.02952e-11)
(1.01556 0.0385124 3.74467e-11)
(0.992772 0.0281985 -5.02413e-12)
(0.977542 0.0129864 -4.13892e-10)
(0.972798 -0.00639084 -1.62911e-09)
(0.981479 -0.0275434 -3.85799e-09)
(1.00471 -0.0457797 -6.67103e-09)
(1.03951 -0.0552625 -9.08954e-09)
(1.07822 -0.0517637 -1.00961e-08)
(1.11086 -0.0352933 -9.18933e-09)
(1.12882 -0.0106069 -6.75309e-09)
(1.12817 0.0149385 -3.87044e-09)
(1.11071 0.0347204 -1.56189e-09)
(1.08247 0.0453114 -2.41741e-10)
(1.05059 0.0467076 2.47559e-10)
(1.02079 0.0407786 2.17145e-10)
(0.996752 0.0293765 -2.41766e-10)
(0.981198 0.0134967 -1.28696e-09)
(0.977067 -0.00596748 -3.02873e-09)
(0.986991 -0.0266423 -5.23669e-09)
(1.01106 -0.044046 -7.40951e-09)
(1.04507 -0.0529574 -9.10402e-09)
(1.08115 -0.0499718 -1.00748e-08)
(1.11057 -0.0353589 -1.0132e-08)
(1.12669 -0.0130377 -9.0941e-09)
(1.12674 0.0110316 -7.03517e-09)
(1.11199 0.030998 -4.4682e-09)
(1.08683 0.0429747 -2.11538e-09)
(1.05708 0.0458111 -5.21748e-10)
(1.02831 0.0405193 1.14032e-10)
(1.00502 0.0288923 -1.53057e-10)
(0.990853 0.0125275 -1.14324e-09)
(0.988911 -0.00684532 -2.57827e-09)
(1.00087 -0.0262916 -4.09719e-09)
(1.02536 -0.0415082 -5.37652e-09)
(1.05735 -0.0482517 -6.26756e-09)
(1.08938 -0.0443578 -6.79053e-09)
(1.11406 -0.0308233 -6.9847e-09)
(1.12634 -0.011313 -6.77713e-09)
(1.12461 0.0093425 -6.02787e-09)
(1.11052 0.0266796 -4.72478e-09)
(1.08792 0.0376379 -3.10307e-09)
(1.06155 0.0409088 -1.57789e-09)
(1.03611 0.0366674 -5.52696e-10)
(1.01585 0.0259798 -2.42319e-10)
(1.00449 0.0104206 -6.05162e-10)
(1.00484 -0.00771646 -1.39692e-09)
(1.01776 -0.0250526 -2.30346e-09)
(1.04105 -0.0375613 -3.08188e-09)
(1.06955 -0.0419484 -3.63176e-09)
(1.09664 -0.0370867 -3.96909e-09)
(1.11627 -0.0245027 -4.14189e-09)
(1.12467 -0.00766104 -4.15244e-09)
(1.1211 0.00939416 -3.94106e-09)
(1.10743 0.0232564 -3.44477e-09)
(1.0872 0.031785 -2.67887e-09)
(1.06447 0.0340939 -1.78078e-09)
(1.04323 0.0302065 -9.71777e-10)
(1.02709 0.0207777 -4.51273e-10)
(1.01924 0.00714064 -2.9818e-10)
(1.02177 -0.00841413 -4.5077e-10)
(1.0348 -0.0226376 -7.68438e-10)
(1.05574 -0.0320658 -1.11707e-09)
(1.0798 -0.0342669 -1.41845e-09)
(1.10138 -0.0288301 -1.64939e-09)
(1.11577 -0.0174843 -1.81244e-09)
(1.12035 -0.00333084 -1.90551e-09)
(1.11504 0.0103059 -1.90864e-09)
(1.10179 0.0208296 -1.79313e-09)
(1.08377 0.0267787 -1.54438e-09)
(1.06445 0.0276816 -1.1861e-09)
(1.04715 0.0236843 -7.848e-10)
(1.03484 0.0153593 -4.24276e-10)
(1.03 0.00386381 -1.66121e-10)
(1.03402 -0.0087913 -2.67501e-11)
(1.04649 -0.0198558 1.53421e-11)
(1.06478 -0.026578 -4.43223e-12)
(1.08469 -0.0272285 -5.65255e-11)
(1.10162 -0.0217903 -1.23543e-10)
(1.11193 -0.011919 -1.96282e-10)
(1.11385 -0.000248208 -2.66715e-10)
(1.10767 0.0105406 -3.23792e-10)
(1.09528 0.0184512 -3.54269e-10)
(1.07946 0.0224487 -3.47331e-10)
(1.06316 0.0222953 -3.00014e-10)
(1.04918 0.0182251 -2.19381e-10)
(1.03997 0.0108008 -1.19444e-10)
(1.03746 0.00106911 -1.49808e-11)
(1.04253 -0.00923092 8.31566e-11)
(1.05448 -0.0178212 1.68872e-10)
(1.07079 -0.0225316 2.39227e-10)
(1.08775 -0.0221221 2.92758e-10)
(1.10149 -0.0167881 3.28709e-10)
(1.10913 -0.00806605 3.4697e-10)
(1.1094 0.00176766 3.48335e-10)
(1.1028 0.0104653 3.34636e-10)
(1.09119 0.0164051 3.08417e-10)
(1.07709 0.0188045 2.72476e-10)
(1.06319 0.0175697 2.30051e-10)
(1.05193 0.0130055 1.85631e-10)
(1.04553 0.00568665 1.45211e-10)
(1.04548 -0.00341661 1.1504e-10)
(1.05274 -0.0127587 9.94004e-11)
(1.06595 -0.0203465 9.90129e-11)
(1.08385 -0.0243447 1.11165e-10)
(1.1009 -0.0235671 1.31199e-10)
(1.11742 -0.0185506 1.54591e-10)
(1.12352 -0.00973549 1.77712e-10)
(1.1311 -0.00184544 1.9826e-10)
(1.11747 0.0111985 2.22358e-10)
(1.00013 -0.00234844 -2.61959e-18)
(1.00195 -0.00686743 -9.16886e-18)
(1.00593 -0.0113162 -8.52591e-18)
(1.01182 -0.0157424 -1.13808e-17)
(1.01982 -0.0201488 -1.205e-17)
(1.03005 -0.0243602 -9.3152e-18)
(1.04256 -0.0280178 -2.27797e-17)
(1.05713 -0.03038 -2.73199e-17)
(1.0729 -0.030633 1.83098e-17)
(1.08858 -0.0280315 1.33459e-16)
(1.10161 -0.0223537 9.01247e-17)
(1.11037 -0.0159057 -2.26422e-16)
(1.11514 -0.0101662 -2.33572e-16)
(1.11708 -0.00683338 1.29839e-15)
(1.11859 -0.00609988 5.08133e-15)
(1.12159 -0.00637852 9.44191e-15)
(1.12634 -0.00503784 1.07151e-14)
(1.1307 0.000584512 8.15763e-15)
(1.13073 0.0109291 4.7074e-15)
(1.12333 0.0237146 1.9008e-15)
(1.10795 0.0354871 -6.73076e-18)
(1.08643 0.0434053 1.0715e-16)
(1.06175 0.0458948 1.77013e-15)
(1.03715 0.0424019 -1.48677e-14)
(1.01577 0.0329638 -4.54561e-15)
(1.00064 0.0180282 1.83378e-13)
(0.994785 -0.00131964 -2.09596e-13)
(1.00099 -0.0226275 -1.46739e-12)
(1.02043 -0.0412295 2.40493e-12)
(1.05032 -0.0509593 8.9625e-12)
(1.08298 -0.0471822 4.9087e-12)
(1.10842 -0.0301888 -3.13704e-12)
(1.11916 -0.00559458 -4.11788e-12)
(1.11349 0.0189574 -1.55216e-12)
(1.09479 0.0376848 3.37463e-13)
(1.06856 0.0482359 4.10789e-13)
(1.03982 0.0506882 -1.66862e-12)
(1.01231 0.0458561 5.432e-13)
(0.989056 0.0342165 2.55371e-11)
(0.973209 0.0158675 2.96047e-11)
(0.968377 -0.00846981 -2.84939e-10)
(0.978037 -0.0356882 -1.45059e-09)
(1.00383 -0.0592484 -3.5301e-09)
(1.04307 -0.0707921 -5.46508e-09)
(1.08696 -0.0644522 -5.8275e-09)
(1.12261 -0.0410777 -4.36881e-09)
(1.13913 -0.00845511 -2.25597e-09)
(1.13332 0.0231202 -7.02291e-10)
(1.10998 0.046002 -1.93255e-11)
(1.07752 0.05751 1.13676e-10)
(1.04339 0.0587124 9.7789e-11)
(1.01223 0.0518256 9.3444e-11)
(0.986513 0.0383228 -1.30624e-10)
(0.968308 0.0185875 -1.19868e-09)
(0.960908 -0.00690875 -3.7047e-09)
(0.968637 -0.0354647 -7.48627e-09)
(0.993773 -0.0608171 -1.15212e-08)
(1.03293 -0.0746597 -1.46828e-08)
(1.07684 -0.0707975 -1.62017e-08)
(1.11398 -0.0489741 -1.55067e-08)
(1.13491 -0.0155322 -1.24662e-08)
(1.13525 0.0194403 -8.00215e-09)
(1.11666 0.0466247 -3.75342e-09)
(1.08566 0.0611029 -9.11316e-10)
(1.0503 0.0629375 3.43358e-10)
(1.01709 0.0549696 4.00088e-10)
(0.990076 0.039877 -4.6384e-10)
(0.972382 0.0187949 -2.21162e-09)
(0.967775 -0.00744411 -4.64797e-09)
(0.979614 -0.0356905 -7.18774e-09)
(1.00769 -0.0595188 -9.20671e-09)
(1.04643 -0.0715126 -1.05017e-08)
(1.08644 -0.0671176 -1.12496e-08)
(1.11795 -0.0470715 -1.15315e-08)
(1.13411 -0.0169873 -1.10166e-08)
(1.1326 0.0150906 -9.2852e-09)
(1.11541 0.0415111 -6.487e-09)
(1.08752 0.0572912 -3.43846e-09)
(1.05512 0.0610232 -1.09393e-09)
(1.02393 0.0540561 -2.80077e-11)
(0.998734 0.0386226 -3.08255e-10)
(0.98376 0.0166191 -1.60881e-09)
(0.982776 -0.00971142 -3.36601e-09)
(0.997609 -0.0361748 -4.98924e-09)
(1.02615 -0.0566025 -6.11409e-09)
(1.06213 -0.0651376 -6.71849e-09)
(1.09701 -0.0590715 -7.0093e-09)
(1.12277 -0.040133 -7.17646e-09)
(1.13426 -0.0135928 -7.17929e-09)
(1.13024 0.0139275 -6.74349e-09)
(1.11306 0.036567 -5.63278e-09)
(1.08734 0.0505341 -3.94955e-09)
(1.05833 0.0543785 -2.16948e-09)
(1.03098 0.0484388 -8.79157e-10)
(1.00975 0.0340055 -4.40632e-10)
(0.998688 0.0129816 -8.22353e-10)
(1.00092 -0.0115805 -1.68022e-09)
(1.01709 -0.0349226 -2.59742e-09)
(1.04418 -0.0513941 -3.30256e-09)
(1.07599 -0.0565559 -3.73555e-09)
(1.1051 -0.0491199 -3.97668e-09)
(1.1251 -0.0314445 -4.12804e-09)
(1.13228 -0.00842735 -4.21265e-09)
(1.1262 0.014392 -4.1396e-09)
(1.10935 0.0324949 -3.7709e-09)
(1.08594 0.0432101 -3.053e-09)
(1.06061 0.045593 -2.11025e-09)
(1.03768 0.0398173 -1.20866e-09)
(1.02108 0.0267498 -6.05473e-10)
(1.01421 0.00811718 -4.05033e-10)
(1.01919 -0.012962 -5.32818e-10)
(1.03568 -0.0319643 -8.24545e-10)
(1.06025 -0.0441262 -1.13616e-09)
(1.08718 -0.0462599 -1.39635e-09)
(1.11024 -0.0380485 -1.59711e-09)
(1.12454 -0.022071 -1.75586e-09)
(1.1276 -0.00266796 -1.87729e-09)
(1.1197 0.0156328 -1.93314e-09)
(1.10334 0.0293914 -1.87235e-09)
(1.08226 0.0367794 -1.65702e-09)
(1.06047 0.0373209 -1.30085e-09)
(1.04165 0.0313156 -8.77093e-10)
(1.02911 0.0195662 -4.84139e-10)
(1.02549 0.00366024 -1.94631e-10)
(1.03212 -0.0135939 -2.85629e-11)
(1.04801 -0.0283565 3.61888e-11)
(1.06973 -0.036877 3.60682e-11)
(1.09222 -0.0369451 6.49619e-13)
(1.11036 -0.0287663 -5.41151e-11)
(1.12041 -0.0147935 -1.22061e-10)
(1.12076 0.00128936 -1.98228e-10)
(1.11206 0.0158347 -2.71516e-10)
(1.09673 0.0262029 -3.23979e-10)
(1.07805 0.0311022 -3.37625e-10)
(1.05945 0.0303166 -3.03514e-10)
(1.04409 0.0242276 -2.26279e-10)
(1.03475 0.013633 -1.20879e-10)
(1.03353 1.34147e-05 -4.94719e-12)
(1.04118 -0.0141544 1.07193e-10)
(1.05642 -0.0256628 2.06249e-10)
(1.07596 -0.0315534 2.8725e-10)
(1.09533 -0.0302711 3.48289e-10)
(1.1102 -0.0222863 3.89201e-10)
(1.11756 -0.00986801 4.10301e-10)
(1.11633 0.00379412 4.11874e-10)
(1.10734 0.0156361 3.94708e-10)
(1.09291 0.0235068 3.60824e-10)
(1.07602 0.0264242 3.13784e-10)
(1.0598 0.0243288 2.58915e-10)
(1.04705 0.0176675 2.03452e-10)
(1.04034 0.00724314 1.5578e-10)
(1.04135 -0.00556347 1.233e-10)
(1.05094 -0.0185226 1.09883e-10)
(1.06722 -0.0288081 1.14617e-10)
(1.08822 -0.0338743 1.3271e-10)
(1.10761 -0.0322726 1.57729e-10)
(1.12551 -0.024758 1.84164e-10)
(1.13131 -0.0124524 2.08023e-10)
(1.13842 -0.001022 2.2803e-10)
(1.12129 0.0160153 2.48204e-10)
(1.00013 -0.00284579 2.63913e-18)
(1.00188 -0.00832239 8.36938e-18)
(1.00574 -0.0137461 1.14045e-17)
(1.0115 -0.0192029 1.83357e-18)
(1.01945 -0.0247273 3.90957e-17)
(1.02983 -0.0301302 -1.69023e-17)
(1.04287 -0.034976 3.21799e-17)
(1.05849 -0.0382649 -1.52559e-16)
(1.07584 -0.0388747 4.75145e-16)
(1.09342 -0.035566 1.3031e-15)
(1.10775 -0.0279031 -6.84598e-16)
(1.11669 -0.0192493 -2.86505e-15)
(1.12066 -0.0116128 -1.3244e-15)
(1.12116 -0.00750042 1.28865e-15)
(1.12158 -0.00723982 -9.69412e-16)
(1.12464 -0.00860874 -8.6756e-15)
(1.13098 -0.00785204 -1.38592e-14)
(1.13781 -0.001038 -1.2291e-14)
(1.13975 0.0125217 -7.21239e-15)
(1.13257 0.029539 -3.59392e-15)
(1.11562 0.0451556 -2.50942e-15)
(1.09132 0.055582 3.04219e-15)
(1.06337 0.058907 -1.80452e-14)
(1.03546 0.0545791 -2.55224e-14)
(1.01101 0.0426988 3.71786e-13)
(0.993277 0.0237082 -8.7509e-13)
(0.98583 -0.00131003 -6.51049e-12)
(0.992536 -0.0294952 2.30007e-11)
(1.0158 -0.0546726 1.67056e-10)
(1.05267 -0.0681328 3.58156e-10)
(1.09313 -0.0631304 3.8486e-10)
(1.12407 -0.0400166 2.25448e-10)
(1.13625 -0.00680853 6.67589e-11)
(1.12821 0.0257619 1.55919e-12)
(1.10498 0.0499263 -6.85904e-12)
(1.07378 0.0630071 -4.55851e-12)
(1.04055 0.0656787 -6.08261e-12)
(1.0092 0.0593628 2.23291e-11)
(0.982536 0.0447177 1.05944e-10)
(0.963307 0.0216893 -6.619e-11)
(0.954749 -0.00913393 -1.49722e-09)
(0.961001 -0.044331 -5.22931e-09)
(0.985948 -0.0759999 -1.07303e-08)
(1.02889 -0.093023 -1.5569e-08)
(1.08081 -0.0864163 -1.70091e-08)
(1.12625 -0.0559579 -1.40517e-08)
(1.1504 -0.0119205 -8.49728e-09)
(1.14698 0.0308238 -3.44542e-09)
(1.12082 0.0611026 -5.92133e-10)
(1.08293 0.0754444 3.28362e-10)
(1.0434 0.0761272 3.81609e-10)
(1.00785 0.0669475 2.05171e-10)
(0.978261 0.0501617 -4.95829e-10)
(0.956315 0.0257964 -2.58208e-09)
(0.946386 -0.00654182 -6.36978e-09)
(0.954728 -0.0439678 -1.08754e-08)
(0.984089 -0.0779347 -1.46455e-08)
(1.02934 -0.0968208 -1.71153e-08)
(1.07887 -0.0923047 -1.8531e-08)
(1.11968 -0.0643143 -1.8721e-08)
(1.14212 -0.02121 -1.67456e-08)
(1.14221 0.0240914 -1.22925e-08)
(1.12191 0.0595216 -6.78119e-09)
(1.08801 0.0784803 -2.26092e-09)
(1.04907 0.0809768 1.6299e-10)
(1.01215 0.0708831 5.19795e-10)
(0.981876 0.0517288 -7.64282e-10)
(0.962248 0.0246537 -3.21156e-09)
(0.958116 -0.00957112 -6.09523e-09)
(0.973159 -0.0465919 -8.51385e-09)
(1.0061 -0.0774647 -9.93508e-09)
(1.04967 -0.0923546 -1.0507e-08)
(1.09321 -0.0857449 -1.07815e-08)
(1.12636 -0.0591901 -1.11292e-08)
(1.14215 -0.0203463 -1.12617e-08)
(1.13855 0.0204017 -1.03732e-08)
(1.11828 0.0535408 -8.01796e-09)