/*--------------------------------*- C++ -*----------------------------------*\
  =========                 |
  \\      /  F ield         | OpenFOAM: The Open Source CFD Toolbox
   \\    /   O peration     | Website:  https://openfoam.org
    \\  /    A nd           | Version:  11
     \\/     M anipulation  |
\*---------------------------------------------------------------------------*/
FoamFile
{
    format      ascii;
    class       volVectorField;
    location    "10.229785";
    object      U;
}
// * * * * * * * * * * * * * * * * * * * * * * * * * * * * * * * * * * * * * //

dimensions      [0 1 -1 0 0 0 0];

internalField   nonuniform List<vector> 
7132
(
(1.00012 -0.000251639 2.48767e-18)
(1.00195 -0.000769992 8.81546e-18)
(1.00617 -0.00133092 8.85416e-18)
(1.01264 -0.00193984 1.09592e-17)
(1.02166 -0.00259036 1.37618e-17)
(1.03336 -0.0032502 1.39673e-17)
(1.04769 -0.00386622 1.30767e-17)
(1.06433 -0.00434606 1.19913e-17)
(1.08255 -0.00459146 1.10592e-17)
(1.10121 -0.0045009 1.04418e-17)
(1.11873 -0.0040137 1.00092e-17)
(1.13352 -0.00319331 9.98349e-18)
(1.14442 -0.00210929 9.78277e-18)
(1.15051 -0.00085348 1.03055e-17)
(1.15132 0.000452251 4.37201e-18)
(1.14691 0.00164521 -2.33481e-18)
(1.13813 0.00252153 -1.00548e-17)
(1.12666 0.00289852 -9.80024e-18)
(1.11482 0.00268769 -1.30961e-17)
(1.10505 0.00192593 -1.55511e-17)
(1.09937 0.000780472 -1.42204e-17)
(1.09888 -0.000471854 -1.31222e-17)
(1.10336 -0.00148322 -1.34605e-17)
(1.1111 -0.0019023 -1.5111e-17)
(1.11903 -0.00149896 -1.71432e-17)
(1.12355 -0.000306738 -1.93459e-17)
(1.12185 0.00135795 -1.95662e-17)
(1.11287 0.00304559 -1.89911e-17)
(1.09746 0.00436781 -1.79528e-17)
(1.07775 0.00509322 -2.17657e-17)
(1.05643 0.00513465 -2.39205e-17)
(1.03632 0.00449279 2.08741e-17)
(1.02011 0.00320808 3.4283e-17)
(1.01027 0.00134936 -6.46124e-16)
(1.00898 -0.000955851 -1.91566e-15)
(1.01771 -0.00345203 4.46963e-15)
(1.03661 -0.00568494 3.64481e-14)
(1.06351 -0.00703506 9.01107e-14)
(1.09347 -0.0069388 1.20618e-13)
(1.11973 -0.00521718 9.95432e-14)
(1.13588 -0.00226871 5.34229e-14)
(1.13832 0.00109229 1.83701e-14)
(1.12727 0.00403774 2.40256e-15)
(1.10586 0.00606328 -1.58694e-15)
(1.07843 0.00704242 -2.90944e-15)
(1.04912 0.00707366 -5.64832e-15)
(1.02141 0.00630193 4.31935e-15)
(0.998242 0.00481384 5.32933e-14)
(0.982396 0.00262631 9.28466e-14)
(0.976717 -0.000246193 -1.92537e-13)
(0.983955 -0.00365739 -1.54643e-12)
(1.00586 -0.00716716 -4.72412e-12)
(1.04162 -0.00999164 -9.39142e-12)
(1.08657 -0.0111939 -1.35652e-11)
(1.13221 -0.0101015 -1.47402e-11)
(1.16839 -0.00673759 -1.21495e-11)
(1.18685 -0.00195921 -7.72425e-12)
(1.18439 0.00288126 -3.96042e-12)
(1.16366 0.0065635 -1.48162e-12)
(1.13136 0.00849162 -1.23446e-13)
(1.09506 0.00872451 4.05926e-13)
(1.06092 0.0076631 1.39817e-13)
(1.03319 0.00570464 -1.07858e-12)
(1.01477 0.00306279 -2.03783e-12)
(1.00815 -0.000207844 2.27581e-12)
(1.01587 -0.00403081 2.13954e-11)
(1.03988 -0.00809234 6.60995e-11)
(1.08021 -0.0117516 1.41427e-10)
(1.13368 -0.0141799 2.41202e-10)
(1.19364 -0.014673 3.48671e-10)
(1.25123 -0.0129407 4.41804e-10)
(1.29747 -0.00920518 4.99169e-10)
(1.32533 -0.00408807 5.05683e-10)
(1.33079 0.00157404 4.5761e-10)
(1.31344 0.00683746 3.61556e-10)
(1.27671 0.0107412 2.37372e-10)
(1.22783 0.0125326 1.17502e-10)
(1.17639 0.0120069 3.20041e-11)
(1.13145 0.00963193 -8.85008e-12)
(1.09893 0.00627136 -1.64707e-11)
(1.08094 0.00275027 -9.99972e-12)
(1.07674 -0.000387813 -2.79344e-12)
(1.08404 -0.00285304 6.60114e-13)
(1.09976 -0.00447145 1.01711e-12)
(1.12018 -0.00509931 1.47466e-13)
(1.14103 -0.00465303 -6.35984e-13)
(1.15791 -0.00320889 -8.63648e-13)
(1.16714 -0.0010719 -6.64563e-13)
(1.16676 0.001272 -3.68776e-13)
(1.15704 0.00331596 -1.5305e-13)
(1.14012 0.00470811 -4.10922e-14)
(1.11914 0.00533487 1.31957e-15)
(1.09717 0.00528732 1.07655e-14)
(1.07659 0.0047637 8.78921e-15)
(1.05886 0.00397513 4.38271e-15)
(1.04465 0.00309067 4.12172e-16)
(1.03405 0.00222266 -2.45684e-15)
(1.02682 0.00143591 -4.29808e-15)
(1.02254 0.000763899 -5.42065e-15)
(1.02071 0.000222457 -6.07109e-15)
(1.02078 -0.000181582 -6.29808e-15)
(1.0222 -0.000446709 -5.97731e-15)
(1.02441 -0.00057664 -4.94902e-15)
(1.02687 -0.000582144 -3.17607e-15)
(1.02912 -0.000482793 -8.34176e-16)
(1.03078 -0.000306824 1.67426e-15)
(1.03161 -8.8342e-05 3.81036e-15)
(1.03151 0.000137524 5.08674e-15)
(1.03052 0.000339996 5.26868e-15)
(1.02879 0.000496818 4.4267e-15)
(1.02653 0.00059612 2.85935e-15)
(1.024 0.000636003 9.7086e-16)
(1.02142 0.000622505 -8.43828e-16)
(1.01899 0.000566846 -2.28298e-15)
(1.01686 0.000482686 -3.15898e-15)
(1.01511 0.000383825 -3.39092e-15)
(1.01378 0.000282555 -2.97405e-15)
(1.01284 0.000188665 -1.94747e-15)
(1.01227 0.000109022 -3.81621e-16)
(1.01197 4.76095e-05 1.63384e-15)
(1.01189 5.86855e-06 3.98541e-15)
(1.01193 -1.68088e-05 6.53534e-15)
(1.01203 -2.25422e-05 9.13334e-15)
(1.01212 -1.44542e-05 1.16233e-14)
(1.01215 3.78408e-06 1.38633e-14)
(1.0121 2.83481e-05 1.57452e-14)
(1.01193 5.56001e-05 1.72104e-14)
(1.01165 8.23644e-05 1.82587e-14)
(1.01127 0.000106125 1.89409e-14)
(1.0108 0.000125138 1.93488e-14)
(1.01027 0.000138453 1.95963e-14)
(1.00969 0.000145858 1.97995e-14)
(1.0091 0.000147758 2.00647e-14)
(1.00851 0.000145013 2.04746e-14)
(1.00794 0.000138764 2.10851e-14)
(1.00739 0.00013026 2.19228e-14)
(1.00689 0.000120713 2.29862e-14)
(1.00643 0.000111185 2.42546e-14)
(1.006 0.000102517 2.56917e-14)
(1.00561 9.52932e-05 2.72543e-14)
(1.00524 8.98385e-05 2.88958e-14)
(1.00489 8.62455e-05 3.05698e-14)
(1.00455 8.44152e-05 3.22378e-14)
(1.00421 8.41055e-05 3.38693e-14)
(1.00388 8.49881e-05 3.54475e-14)
(1.00353 8.66901e-05 3.69681e-14)
(1.00318 8.88495e-05 3.84385e-14)
(1.00282 9.1123e-05 3.98802e-14)
(1.00245 9.32535e-05 4.13224e-14)
(1.00207 9.50038e-05 4.28004e-14)
(1.00169 9.62975e-05 4.43475e-14)
(1.0013 9.69819e-05 4.59875e-14)
(1.00092 9.72026e-05 4.77325e-14)
(1.00052 9.67772e-05 4.95768e-14)
(1.00014 9.61019e-05 5.1497e-14)
(0.999737 9.48472e-05 5.34566e-14)
(0.999404 9.35029e-05 5.53897e-14)
(0.998951 9.19806e-05 5.72905e-14)
(0.998733 8.97356e-05 5.88697e-14)
(0.99812 8.8277e-05 6.12213e-14)
(1.00012 -0.000752519 4.01699e-20)
(1.00194 -0.00230395 4.25262e-19)
(1.00612 -0.00398455 8.01186e-19)
(1.01256 -0.00581318 1.17991e-18)
(1.02156 -0.00777186 1.64797e-18)
(1.03328 -0.00976499 2.13262e-18)
(1.04771 -0.0116337 2.49004e-18)
(1.06454 -0.0130971 2.81701e-18)
(1.08305 -0.0138561 4.42242e-18)
(1.10208 -0.0135948 5.02505e-18)
(1.11996 -0.0121254 4.41563e-18)
(1.13506 -0.00964926 8.0998e-18)
(1.14618 -0.00637742 7.00335e-18)
(1.1524 -0.00258627 6.93241e-18)
(1.15318 0.00135763 7.77939e-18)
(1.14857 0.00496455 9.15296e-18)
(1.13937 0.00761594 1.09467e-17)
(1.12735 0.00875533 1.35164e-17)
(1.11493 0.00811122 1.57212e-17)
(1.10467 0.00579025 1.45825e-17)
(1.09872 0.00229393 5.68031e-18)
(1.09827 -0.00153761 -1.48208e-17)
(1.10315 -0.0046441 -4.86575e-17)
(1.11159 -0.00594667 -8.36983e-17)
(1.12033 -0.00473068 -9.56179e-17)
(1.12552 -0.00109182 -7.82627e-17)
(1.1241 0.00399861 -5.45349e-17)
(1.11501 0.00915818 -3.75144e-17)
(1.09917 0.0131989 -3.20885e-17)
(1.07885 0.0154225 -4.89797e-17)
(1.05685 0.0155746 -3.788e-17)
(1.03606 0.0136648 1.76374e-16)
(1.01919 0.00981553 -1.46009e-17)
(1.00878 0.00422223 -3.38404e-15)
(1.00708 -0.00275315 -5.21606e-15)
(1.01579 -0.0103585 4.5544e-14)
(1.03523 -0.0172161 2.32462e-13)
(1.06328 -0.0214143 5.1762e-13)
(1.09479 -0.0211946 6.76065e-13)
(1.1225 -0.0159847 5.46974e-13)
(1.13954 -0.00700338 2.71134e-13)
(1.14208 0.00324155 7.84761e-14)
(1.13047 0.0122074 2.6711e-15)
(1.10818 0.0183568 -1.26825e-14)
(1.0798 0.0213231 -1.35374e-14)
(1.04963 0.0214294 -7.69261e-15)
(1.02112 0.019131 4.04562e-14)
(0.997163 0.0146909 9.01352e-14)
(0.980526 0.00814034 -2.03089e-13)
(0.974161 -0.000519157 -1.21284e-12)
(0.981071 -0.0108917 -1.49014e-12)
(1.00331 -0.0216538 4.36009e-12)
(1.04027 -0.0303767 2.01801e-11)
(1.08721 -0.0341322 3.80278e-11)
(1.13519 -0.0308309 4.32963e-11)
(1.17327 -0.0205653 3.30352e-11)
(1.19251 -0.00598829 1.73088e-11)
(1.18954 0.00876412 4.95273e-12)
(1.16741 0.0199641 -6.21808e-13)
(1.13343 0.0257985 -1.19834e-12)
(1.09564 0.0264774 -2.10901e-13)
(1.06039 0.0232582 -5.34403e-13)
(1.03181 0.0173706 -3.32279e-12)
(1.01261 0.00946117 -3.36806e-12)
(1.00517 -0.000330841 1.76596e-11)
(1.01203 -0.0118115 8.98554e-11)
(1.03544 -0.0240612 2.36724e-10)
(1.07581 -0.0351544 4.51495e-10)
(1.13011 -0.0425686 6.95729e-10)
(1.19132 -0.044141 9.22847e-10)
(1.24991 -0.0389891 1.09748e-09)
(1.29649 -0.0278185 1.19183e-09)
(1.32416 -0.0125217 1.17747e-09)
(1.3294 0.00442013 1.03928e-09)
(1.3121 0.020231 7.96049e-10)
(1.2756 0.032053 5.05146e-10)
(1.22682 0.0375894 2.42553e-10)
(1.17515 0.0361493 6.44538e-11)
(1.12976 0.0290834 -1.86046e-11)
(1.09684 0.0189824 -3.46851e-11)
(1.07868 0.00835064 -2.21141e-11)
(1.07465 -0.00115628 -6.9404e-12)
(1.08248 -0.00865306 1.435e-12)
(1.09905 -0.0135997 3.63223e-12)
(1.12054 -0.0155437 3.09134e-12)
(1.14251 -0.0142155 2.36524e-12)
(1.16029 -0.00983888 2.27952e-12)
(1.17003 -0.00334209 2.4123e-12)
(1.16968 0.0037919 2.09398e-12)
(1.15955 0.010013 1.39173e-12)
(1.14198 0.0142435 6.8871e-13)
(1.1203 0.0161388 2.16975e-13)
(1.09774 0.0159828 -3.14451e-15)
(1.07675 0.0143854 -5.9461e-14)
(1.05879 0.0119918 -4.68773e-14)
(1.04447 0.00931476 -2.30951e-14)
(1.03386 0.00669232 -8.9507e-15)
(1.02667 0.00431796 -5.02397e-15)
(1.02248 0.0022907 -5.91475e-15)
(1.02076 0.000657026 -7.02414e-15)
(1.02095 -0.000562939 -5.99764e-15)
(1.0225 -0.00136431 -2.076e-15)
(1.02484 -0.00175755 4.59628e-15)
(1.02743 -0.0017744 1.32521e-14)
(1.02978 -0.0014735 2.25942e-14)
(1.03152 -0.000940053 3.09497e-14)
(1.03238 -0.000277365 3.66227e-14)
(1.03229 0.000407976 3.84646e-14)
(1.03127 0.00102245 3.6422e-14)
(1.02948 0.00149841 3.13875e-14)
(1.02717 0.00179981 2.47309e-14)
(1.02457 0.00192093 1.78423e-14)
(1.02194 0.00188017 1.18319e-14)
(1.01947 0.00171164 7.40188e-15)
(1.01731 0.00145681 4.87544e-15)
(1.01554 0.00115754 4.29772e-15)
(1.0142 0.00085107 5.54396e-15)
(1.01328 0.00056703 8.4045e-15)
(1.01271 0.000326185 1.26157e-14)
(1.01244 0.000140557 1.78697e-14)
(1.01237 1.4469e-05 2.38113e-14)
(1.01243 -5.39442e-05 3.00448e-14)
(1.01255 -7.11108e-05 3.6167e-14)
(1.01265 -4.64834e-05 4.17884e-14)
(1.01269 8.832e-06 4.65745e-14)
(1.01264 8.32672e-05 5.03011e-14)
(1.01247 0.000165817 5.28853e-14)
(1.01219 0.000246874 5.43913e-14)
(1.01181 0.000318823 5.5001e-14)
(1.01133 0.000376387 5.49751e-14)
(1.01079 0.000416691 5.46096e-14)
(1.01021 0.000439096 5.41879e-14)
(1.00961 0.00044483 5.39539e-14)
(1.00901 0.000436505 5.40862e-14)
(1.00843 0.000417577 5.46915e-14)
(1.00789 0.000391831 5.5809e-14)
(1.00738 0.000362938 5.74159e-14)
(1.00692 0.000334115 5.94483e-14)
(1.00649 0.000307905 6.1812e-14)
(1.0061 0.000286075 6.43986e-14)
(1.00573 0.000269607 6.71013e-14)
(1.00538 0.000258778 6.98201e-14)
(1.00504 0.000253286 7.24777e-14)
(1.0047 0.000252396 7.50197e-14)
(1.00437 0.000255112 7.74201e-14)
(1.00402 0.000260306 7.9683e-14)
(1.00367 0.000266881 8.18369e-14)
(1.00331 0.0002738 8.39359e-14)
(1.00294 0.000280282 8.60478e-14)
(1.00255 0.000285615 8.82448e-14)
(1.00217 0.000289562 9.05946e-14)
(1.00178 0.000291676 9.31439e-14)
(1.00139 0.000292374 9.59146e-14)
(1.00099 0.000291148 9.88932e-14)
(1.00061 0.00028913 1.02027e-13)
(1.0002 0.000285439 1.05237e-13)
(0.999863 0.000281366 1.08397e-13)
(0.999406 0.000276961 1.11445e-13)
(0.999185 0.000270064 1.13976e-13)
(0.998566 0.000265877 1.17388e-13)
(1.00012 -0.00124679 5.46781e-22)
(1.0019 -0.00381965 4.90598e-21)
(1.00602 -0.00661423 4.81669e-21)
(1.01239 -0.00966796 -1.51885e-21)
(1.02136 -0.0129561 -9.51886e-20)
(1.03312 -0.0163235 1.07615e-19)
(1.04772 -0.0195074 -5.88175e-19)
(1.06493 -0.0220268 -8.39062e-19)
(1.08402 -0.0233686 2.69667e-18)
(1.1038 -0.0229667 2.19297e-19)
(1.12243 -0.0204866 -1.17393e-17)
(1.13814 -0.0163015 -1.4432e-17)
(1.14972 -0.0107673 1.67714e-18)
(1.15617 -0.00433797 2.2552e-17)
(1.1569 0.00238545 3.7491e-17)
(1.15186 0.00857478 4.97939e-17)
(1.14185 0.0131506 5.89063e-17)
(1.12873 0.0151306 5.87905e-17)
(1.11516 0.0140324 3.42296e-17)
(1.10395 0.0100304 -3.38697e-17)
(1.0975 0.00397702 -1.55722e-16)
(1.09719 -0.00269558 -3.79298e-16)
(1.10293 -0.0081569 -7.85484e-16)
(1.11284 -0.0105086 -1.14112e-15)
(1.12324 -0.00846595 -9.88857e-16)
(1.12969 -0.00218051 -5.02679e-16)
(1.12875 0.00662905 -1.77869e-16)
(1.11926 0.0155272 -5.74051e-17)
(1.10239 0.0224571 -6.67757e-17)
(1.08073 0.0262521 -1.01908e-16)
(1.05733 0.0265234 2.09288e-16)
(1.0352 0.0233195 -1.69713e-16)
(1.01711 0.0168493 -5.18592e-15)
(1.00568 0.00740818 3.7064e-15)
(1.00338 -0.00445413 9.28206e-14)
(1.01222 -0.0175176 7.16593e-14)
(1.03292 -0.0294309 -9.44814e-13)
(1.06345 -0.036834 -3.11112e-12)
(1.09817 -0.036574 -4.37847e-12)
(1.1288 -0.0275889 -3.41508e-12)
(1.14742 -0.0120281 -1.61101e-12)
(1.14983 0.00565855 -4.37389e-13)
(1.13672 0.0210057 -1.46288e-14)
(1.11231 0.0313963 3.50252e-14)
(1.08186 0.0363097 -2.3131e-15)
(1.04989 0.0364085 5.07077e-14)
(1.01985 0.0325278 1.99049e-13)
(0.994493 0.0251071 -4.3242e-13)
(0.976553 0.0141304 -3.03046e-12)
(0.969103 -0.000505304 -1.7831e-12)
(0.975347 -0.0182113 2.96758e-11)
(0.997547 -0.0367533 1.3241e-10)
(1.0355 -0.0519539 3.10232e-10)
(1.08507 -0.0586895 4.85495e-10)
(1.13736 -0.0531586 5.44654e-10)
(1.18012 -0.0353812 4.47625e-10)
(1.20227 -0.0100458 2.68382e-10)
(1.19919 0.0154784 1.10995e-10)
(1.17443 0.0346349 2.25434e-11)
(1.13686 0.0443649 -6.83063e-12)
(1.09587 0.0452273 -8.06777e-12)
(1.05834 0.0395683 -6.11257e-12)
(1.02822 0.0295877 -8.93161e-12)
(1.0077 0.0163857 2.17236e-12)
(0.998808 9.82216e-05 7.67554e-11)
(1.0044 -0.019142 2.6816e-10)
(1.02772 -0.0399655 5.78822e-10)
(1.07009 -0.0590929 9.41005e-10)
(1.12818 -0.0719645 1.26711e-09)
(1.1935 -0.0746083 1.51284e-09)
(1.25474 -0.0655288 1.68826e-09)
(1.30142 -0.0462819 1.81332e-09)
(1.3269 -0.0204712 1.85972e-09)
(1.32913 0.00766483 1.7471e-09)
(1.30947 0.0337667 1.42882e-09)
(1.2718 0.0533737 9.64147e-10)
(1.22259 0.0627226 4.94537e-10)
(1.17061 0.0604989 1.5028e-10)
(1.12483 0.0487733 -2.41239e-11)
(1.09162 0.031813 -6.75258e-11)
(1.07359 0.0138506 -4.82755e-11)
(1.07026 -0.00227922 -1.70912e-11)
(1.07938 -0.0150476 6.16333e-12)
(1.09776 -0.0235052 2.14483e-11)
(1.1214 -0.0268353 3.25375e-11)
(1.14555 -0.0245324 3.92164e-11)
(1.16512 -0.0169648 3.92583e-11)
(1.17581 -0.00574858 3.266e-11)
(1.17539 0.00652889 2.22363e-11)
(1.16428 0.017174 1.20747e-11)
(1.14522 0.024333 4.86173e-12)
(1.12201 0.0274477 1.01476e-12)
(1.09821 0.0270549 -4.088e-13)
(1.07641 0.0242381 -5.92287e-13)
(1.05804 0.0201153 -3.70963e-13)
(1.04362 0.0155563 -1.45639e-13)
(1.0331 0.0111217 -2.50185e-14)
(1.02612 0.0071248 1.10963e-14)
(1.02219 0.00372177 9.73221e-15)
(1.02078 0.000984451 4.47548e-15)
(1.02129 -0.00105618 1.02848e-14)
(1.02316 -0.00239212 3.01531e-14)
(1.02579 -0.00303977 6.1184e-14)
(1.02864 -0.0030514 9.78026e-14)
(1.03118 -0.00252562 1.33248e-13)
(1.03304 -0.00160715 1.60738e-13)
(1.03395 -0.000472259 1.7489e-13)
(1.03382 0.000697045 1.7338e-13)
(1.03271 0.00174147 1.58162e-13)
(1.0308 0.00254653 1.34063e-13)
(1.02835 0.00305222 1.06682e-13)
(1.02562 0.00325041 8.08131e-14)
(1.02288 0.00317389 5.96913e-14)
(1.02033 0.00288176 4.49463e-14)
(1.01812 0.00244511 3.69683e-14)
(1.01633 0.00193523 3.53862e-14)
(1.015 0.00141523 3.94573e-14)
(1.0141 0.000935007 4.82914e-14)
(1.01357 0.000529293 6.09218e-14)
(1.01334 0.000217944 7.62907e-14)
(1.01332 7.80034e-06 9.32309e-14)
(1.01342 -0.000104693 1.10516e-13)
(1.01357 -0.000130708 1.26944e-13)
(1.0137 -8.64341e-05 1.41415e-13)
(1.01376 9.22935e-06 1.53052e-13)
(1.01371 0.000136665 1.61332e-13)
(1.01355 0.000277255 1.6618e-13)
(1.01326 0.000414786 1.67925e-13)
(1.01286 0.00053645 1.67208e-13)
(1.01237 0.000633411 1.64847e-13)
(1.01181 0.000700919 1.61705e-13)
(1.01121 0.000738009 1.58571e-13)
(1.0106 0.000746869 1.56083e-13)
(1.00999 0.00073201 1.5468e-13)
(1.0094 0.00069935 1.54598e-13)
(1.00885 0.000655339 1.55887e-13)
(1.00834 0.000606204 1.58444e-13)
(1.00788 0.000557384 1.62057e-13)
(1.00745 0.000513156 1.66452e-13)
(1.00706 0.00047647 1.71329e-13)
(1.00669 0.000448949 1.76405e-13)
(1.00634 0.000431017 1.81432e-13)
(1.006 0.000422124 1.86224e-13)
(1.00567 0.000420997 1.90667e-13)
(1.00533 0.00042593 1.94723e-13)
(1.00498 0.000434998 1.98428e-13)
(1.00462 0.000446342 2.0188e-13)
(1.00426 0.000458211 2.05228e-13)
(1.00388 0.000469291 2.08648e-13)
(1.00349 0.000478392 2.12319e-13)
(1.0031 0.000485121 2.16398e-13)
(1.0027 0.000488742 2.20995e-13)
(1.00231 0.000489976 2.2615e-13)
(1.0019 0.000487963 2.31822e-13)
(1.00152 0.000484671 2.3788e-13)
(1.0011 0.000478515 2.4412e-13)
(1.00076 0.000471916 2.50257e-13)
(1.00029 0.000464496 2.56057e-13)
(1.00007 0.000453421 2.60868e-13)
(0.999436 0.000446122 2.66605e-13)
(1.00011 -0.00172975 -3.49881e-20)
(1.00185 -0.0053032 -5.42455e-19)
(1.00586 -0.00920146 -9.54579e-19)
(1.01212 -0.0134879 -1.73841e-18)
(1.02101 -0.0181399 -1.96966e-18)
(1.03282 -0.0229502 -2.62919e-18)
(1.04769 -0.0275554 -8.3243e-18)
(1.06545 -0.0312557 8.52923e-18)
(1.08543 -0.0333026 4.46205e-18)
(1.10637 -0.0328123 -6.40942e-17)
(1.12616 -0.0292714 -5.88202e-17)
(1.1428 -0.023291 1.15052e-16)
(1.15507 -0.0153823 2.95347e-16)
(1.1619 -0.00617339 3.36698e-16)
(1.16259 0.00350962 2.67795e-16)
(1.15693 0.0124922 1.63776e-16)
(1.14565 0.019178 2.3602e-17)
(1.13082 0.0220887 -2.04387e-16)
(1.11543 0.0204877 -6.0602e-16)
(1.10273 0.0146038 -1.19542e-15)
(1.09548 0.00565757 -1.81076e-15)
(1.09537 -0.00427073 -2.67316e-15)
(1.10245 -0.0124842 -4.42963e-15)
(1.11466 -0.016116 -5.6768e-15)
(1.12769 -0.0131682 -3.24327e-15)
(1.13618 -0.00384138 3.85178e-16)
(1.13595 0.00923513 1.56266e-15)
(1.12578 0.0223544 1.20058e-15)
(1.10726 0.0324699 4.4457e-16)
(1.08349 0.0379499 7.12915e-16)
(1.05793 0.0383355 2.20253e-15)
(1.03377 0.033773 -1.12398e-14)
(1.01384 0.0245736 -3.05062e-14)
(1.00088 0.0110935 1.89931e-13)
(0.997611 -0.00601163 6.73052e-13)
(1.00662 -0.0251182 -1.8171e-12)
(1.02932 -0.0428295 -1.41086e-11)
(1.06389 -0.0540579 -3.50285e-11)
(1.10379 -0.0538936 -4.82851e-11)
(1.13897 -0.040612 -4.10206e-11)
(1.15993 -0.0174893 -2.19343e-11)
(1.1619 0.00863223 -7.13187e-12)
(1.14623 0.0309844 -6.84572e-13)
(1.11839 0.0457857 6.80739e-13)
(1.08464 0.0525267 4.54404e-13)
(1.04993 0.052426 4.94623e-13)
(1.01763 0.0468237 2.47631e-13)
(0.990296 0.0363373 -4.27741e-12)
(0.970515 0.0208404 -1.06719e-11)
(0.961166 0.000101587 2.19275e-11)
(0.965113 -0.025086 1.90966e-10)
(0.984792 -0.0517111 5.76435e-10)
(1.02135 -0.0741484 1.11705e-09)
(1.07242 -0.0851045 1.6043e-09)
(1.1299 -0.0784042 1.80194e-09)
(1.18045 -0.0530306 1.58899e-09)
(1.20983 -0.0154899 1.07209e-09)
(1.20998 0.022724 5.25405e-10)
(1.18365 0.0511401 1.55711e-10)
(1.14162 0.0650626 -4.11674e-12)
(1.09592 0.065715 -3.50514e-11)
(1.05487 0.057075 -2.7748e-11)
(1.02237 0.0426909 -1.80686e-11)
(0.999803 0.0241719 3.30181e-11)
(0.988898 0.0013351 2.08202e-10)
(0.993651 -0.0262471 5.44244e-10)
(1.01915 -0.0568915 9.63321e-10)
(1.0671 -0.0853895 1.32862e-09)
(1.1324 -0.104303 1.56088e-09)
(1.20395 -0.107454 1.67835e-09)
(1.26853 -0.0929554 1.75548e-09)
(1.3148 -0.0638595 1.86662e-09)
(1.33626 -0.0263075 2.01709e-09)
(1.33235 0.0131977 2.08586e-09)
(1.30683 0.0489289 1.90423e-09)
(1.26529 0.0754912 1.43086e-09)
(1.21436 0.0881507 8.19741e-10)
(1.16191 0.0849928 2.97566e-10)
(1.11609 0.0685605 -5.2953e-12)
(1.08307 0.0446019 -1.03505e-10)
(1.06563 0.0190426 -8.61766e-11)
(1.06341 -0.00404162 -3.03261e-11)
(1.07415 -0.0224006 3.32655e-11)
(1.09452 -0.0346157 1.02123e-10)
(1.1205 -0.03945 1.69137e-10)
(1.14736 -0.0360828 2.12145e-10)
(1.16969 -0.0249679 2.11727e-10)
(1.18245 -0.00846117 1.70883e-10)
(1.18268 0.00957602 1.11993e-10)
(1.17069 0.0251066 5.83279e-11)
(1.14969 0.035379 2.21432e-11)
(1.12425 0.0396352 3.80204e-12)
(1.09858 0.0387726 -2.49063e-12)
(1.07556 0.0344675 -2.98309e-12)
(1.05659 0.0283881 -1.75936e-12)
(1.04206 0.0217876 -6.42357e-13)
(1.03174 0.0154428 -6.37026e-14)
(1.02513 0.00976842 1.10084e-13)
(1.02167 0.00496157 1.08004e-13)
(1.02075 0.00110856 8.50226e-14)
(1.02178 -0.00175378 1.0749e-13)
(1.02414 -0.00361511 1.86214e-13)
(1.02723 -0.00449661 3.05166e-13)
(1.03047 -0.00447032 4.37757e-13)
(1.03332 -0.00367628 5.55544e-13)
(1.03535 -0.00232331 6.34368e-13)
(1.03632 -0.000667234 6.59457e-13)
(1.03613 0.0010277 6.29266e-13)
(1.03487 0.00253135 5.56498e-13)
(1.03275 0.00368024 4.61091e-13)
(1.03008 0.00439122 3.62559e-13)
(1.02714 0.00465663 2.7542e-13)
(1.02423 0.00452747 2.07893e-13)
(1.02156 0.00409165 1.62822e-13)
(1.01928 0.00345309 1.39529e-13)
(1.01747 0.00271486 1.35564e-13)
(1.01616 0.00196731 1.47879e-13)
(1.0153 0.00128124 1.73363e-13)
(1.01484 0.000705277 2.08897e-13)
(1.01468 0.000266614 2.51223e-13)
(1.01473 -2.61308e-05 2.96868e-13)
(1.0149 -0.000179026 3.42319e-13)
(1.0151 -0.000208784 3.84236e-13)
(1.01526 -0.000139047 4.19699e-13)
(1.01534 2.87003e-06 4.46531e-13)
(1.0153 0.000188789 4.63628e-13)
(1.01514 0.000392086 4.71134e-13)
(1.01483 0.000589675 4.70288e-13)
(1.01441 0.000763423 4.63086e-13)
(1.0139 0.000900941 4.51897e-13)
(1.01331 0.00099572 4.39091e-13)
(1.01269 0.00104667 4.2674e-13)
(1.01205 0.0010572 4.16441e-13)
(1.01142 0.001034 4.0923e-13)
(1.01082 0.000985696 4.05593e-13)
(1.01027 0.00092162 4.05541e-13)
(1.00975 0.000850719 4.08706e-13)
(1.00928 0.000780751 4.14475e-13)
(1.00886 0.000717768 4.22094e-13)
(1.00847 0.000665897 4.30784e-13)
(1.0081 0.000627351 4.39825e-13)
(1.00776 0.000602632 4.48617e-13)
(1.00742 0.00059086 4.56735e-13)
(1.00708 0.000590137 4.63945e-13)
(1.00674 0.00059797 4.70206e-13)
(1.00639 0.000611577 4.75654e-13)
(1.00603 0.000628288 4.8057e-13)
(1.00566 0.000645606 4.8534e-13)
(1.00527 0.000661673 4.90399e-13)
(1.00488 0.000674815 4.96171e-13)
(1.00448 0.000684511 5.03018e-13)
(1.00407 0.000689726 5.11175e-13)
(1.00366 0.000691569 5.20718e-13)
(1.00325 0.000688736 5.31529e-13)
(1.00285 0.000684305 5.43285e-13)
(1.00243 0.000675525 5.55494e-13)
(1.00207 0.000666887 5.67505e-13)
(1.0016 0.000655921 5.78661e-13)
(1.00136 0.00064194 5.87898e-13)
(1.00071 0.000630329 5.97593e-13)
(1.00011 -0.00219552 -2.52223e-18)
(1.00176 -0.00673808 -8.42136e-18)
(1.00563 -0.0117226 -7.26347e-18)
(1.01171 -0.0172496 -9.64315e-18)
(1.02049 -0.0233114 -4.49799e-18)
(1.03232 -0.0296606 -2.55517e-17)
(1.0475 -0.035841 1.03393e-17)
(1.06601 -0.0409078 5.10712e-17)
(1.0872 -0.0438473 -2.3258e-16)
(1.10978 -0.0433464 -1.16148e-16)
(1.13117 -0.0386632 7.35921e-16)
(1.14908 -0.0307569 1.0794e-15)
(1.1623 -0.0203027 6.06294e-17)
(1.16966 -0.00807767 -1.32641e-15)
(1.17032 0.00490455 -2.31463e-15)
(1.16381 0.0170937 -3.1622e-15)
(1.15079 0.0262498 -4.04007e-15)
(1.13357 0.0302649 -5.13812e-15)
(1.11564 0.0280889 -6.48209e-15)
(1.10082 0.0200088 -7.42779e-15)
(1.09241 0.00765355 -6.44883e-15)
(1.09254 -0.00618733 -9.72512e-16)
(1.10149 -0.0178143 1.81325e-14)
(1.117 -0.0231474 4.90177e-14)
(1.13384 -0.0192323 6.28828e-14)
(1.14524 -0.00629421 4.88872e-14)
(1.14601 0.0118549 2.77843e-14)
(1.13482 0.0298967 1.30196e-14)
(1.1139 0.0436096 5.61978e-15)
(1.08719 0.050911 7.80805e-15)
(1.05866 0.0513816 1.82128e-15)
(1.03173 0.0453616 -6.78622e-14)
(1.00931 0.0332927 4.80607e-14)
(0.994184 0.0155312 9.8483e-13)
(0.989436 -0.00730979 1.40363e-13)
(0.998576 -0.0333565 -1.21646e-11)
(1.02422 -0.0580644 -3.90901e-11)
(1.06491 -0.0740908 -6.84283e-11)
(1.1126 -0.0741385 -8.92545e-11)
(1.15431 -0.0556517 -8.88742e-11)
(1.17817 -0.0234501 -6.12135e-11)
(1.17898 0.012556 -2.79539e-11)
(1.15929 0.0427833 -6.60546e-12)
(1.12644 0.0621876 1.34323e-12)
(1.08809 0.0705272 2.2794e-12)
(1.0497 0.0699032 2.04585e-12)
(1.01448 0.0623399 -1.61194e-12)
(0.984659 0.0486647 -1.57175e-11)
(0.96232 0.0287014 -1.04232e-11)
(0.949398 0.00221571 1.3983e-10)
(0.948278 -0.0299944 5.98739e-10)
(0.963101 -0.0648496 1.35751e-09)
(0.997919 -0.0957765 2.17553e-09)
(1.05139 -0.113006 2.80284e-09)
(1.11435 -0.107208 3.10614e-09)
(1.17246 -0.0753261 2.96051e-09)
(1.21037 -0.0247598 2.30092e-09)
(1.21699 0.028604 1.35499e-09)
(1.19206 0.068813 5.34117e-10)
(1.14666 0.0882055 7.39942e-11)
(1.09572 0.08858 -7.31784e-11)
(1.0501 0.0763319 -7.58561e-11)
(1.01424 0.0571178 -3.00574e-11)
(0.988867 0.0331253 1.03713e-10)
(0.976032 0.00319033 4.03772e-10)
(0.981804 -0.0342437 8.33785e-10)
(1.01269 -0.0766774 1.23056e-09)
(1.06888 -0.115734 1.46267e-09)
(1.14191 -0.140431 1.5358e-09)
(1.21835 -0.142727 1.5375e-09)
(1.2845 -0.120988 1.54971e-09)
(1.3294 -0.0801372 1.6343e-09)
(1.34671 -0.0292099 1.82732e-09)
(1.33621 0.0224214 2.05406e-09)
(1.30328 0.0673153 2.09161e-09)
(1.25587 0.0995971 1.75777e-09)
(1.20182 0.114384 1.12737e-09)
(1.14855 0.109602 4.77853e-10)
(1.10312 0.0881722 4.27445e-11)
(1.07101 0.0570447 -1.3094e-10)
(1.05473 0.0236917 -1.24983e-10)
(1.05372 -0.00653334 -2.52832e-11)
(1.0653 -0.0305955 1.32923e-10)
(1.08605 -0.0466817 3.33054e-10)
(1.11265 -0.0532679 5.31672e-10)
(1.14145 -0.0491433 6.59121e-10)
(1.1674 -0.0345188 6.61758e-10)
(1.18444 -0.0122417 5.43617e-10)
(1.18784 0.0124174 3.65021e-10)
(1.17676 0.0336776 1.9571e-10)
(1.15455 0.04755 7.71154e-11)
(1.12681 0.0529918 1.46886e-11)
(1.09884 0.0513953 -7.78653e-12)
(1.07419 0.0452302 -1.01629e-11)
(1.05442 0.0368609 -6.20463e-12)
(1.03976 0.0279826 -2.34715e-12)
(1.02975 0.0195851 -2.56763e-13)
(1.02369 0.0121582 4.30081e-13)
(1.02088 0.00591279 4.75602e-13)
(1.02066 0.000932014 4.20897e-13)
(1.02239 -0.00274974 5.08568e-13)
(1.02543 -0.00512098 7.81893e-13)
(1.02915 -0.00620539 1.18143e-12)
(1.03292 -0.006093 1.60697e-12)
(1.03617 -0.00496716 1.95635e-12)
(1.03845 -0.00310719 2.15288e-12)
(1.03948 -0.000858267 2.16241e-12)
(1.03919 0.00142294 1.99907e-12)
(1.03772 0.00342789 1.71842e-12)
(1.03532 0.00494106 1.39005e-12)
(1.03234 0.00585746 1.07379e-12)
(1.02912 0.00617441 8.08528e-13)
(1.02597 0.00596692 6.11858e-13)
(1.02314 0.00535741 4.85726e-13)
(1.02077 0.00448735 4.23335e-13)
(1.01894 0.00349494 4.14597e-13)
(1.01765 0.00249978 4.49196e-13)
(1.01686 0.00159428 5.17591e-13)
(1.01649 0.000840809 6.10755e-13)
(1.01643 0.000273072 7.19571e-13)
(1.01657 -9.96867e-05 8.34601e-13)
(1.01682 -0.000287275 9.46557e-13)
(1.01709 -0.000313117 1.04682e-12)
(1.01731 -0.000209345 1.12818e-12)
(1.01742 -1.25674e-05 1.18562e-12)
(1.01739 0.000239752 1.21709e-12)
(1.01722 0.000512431 1.22378e-12)
(1.01689 0.000775144 1.2096e-12)
(1.01645 0.00100426 1.18018e-12)
(1.01589 0.00118387 1.14181e-12)
(1.01527 0.00130588 1.10056e-12)
(1.01461 0.00136938 1.0615e-12)
(1.01395 0.00137939 1.02839e-12)
(1.01329 0.00134516 1.0035e-12)
(1.01268 0.00127841 9.87735e-13)
(1.01211 0.00119167 9.80858e-13)
(1.01159 0.00109683 9.81769e-13)
(1.01112 0.00100409 9.88827e-13)
(1.01069 0.000921342 1.00013e-12)
(1.01031 0.000853861 1.01377e-12)
(1.00995 0.000804379 1.02804e-12)
(1.0096 0.000773367 1.04157e-12)
(1.00927 0.00075949 1.05345e-12)
(1.00893 0.000760107 1.06321e-12)
(1.00858 0.000771827 1.07086e-12)
(1.00823 0.00079092 1.07682e-12)
(1.00786 0.000813838 1.08179e-12)
(1.00747 0.000837299 1.08671e-12)
(1.00708 0.000858884 1.09257e-12)
(1.00667 0.000876434 1.10033e-12)
(1.00626 0.000889328 1.11074e-12)
(1.00584 0.000896238 1.12431e-12)
(1.00542 0.000898763 1.14113e-12)
(1.00499 0.000895056 1.16091e-12)
(1.00459 0.000889632 1.18288e-12)
(1.00415 0.000878025 1.20593e-12)
(1.00378 0.000867959 1.22862e-12)
(1.00329 0.000852781 1.24938e-12)
(1.00305 0.000837565 1.26651e-12)
(1.00238 0.000819971 1.28218e-12)
(1.0001 -0.00263731 2.78522e-18)
(1.00166 -0.0081045 9.7051e-18)
(1.00531 -0.0141481 6.56514e-18)
(1.01114 -0.0209206 1.3228e-17)
(1.01972 -0.0284469 1.52973e-17)
(1.03152 -0.0364592 -5.72524e-17)
(1.04706 -0.0444208 3.27951e-16)
(1.06646 -0.0511125 -5.79628e-16)
(1.08923 -0.0552167 -7.29767e-16)
(1.11399 -0.0548146 3.19166e-15)
(1.13749 -0.0488678 3.50275e-15)
(1.15704 -0.0388669 -5.80521e-15)
(1.1715 -0.0256721 -1.84801e-14)
(1.17963 -0.0101931 -2.47163e-14)
(1.18034 0.00641582 -2.44269e-14)
(1.1728 0.0222433 -2.29263e-14)
(1.15747 0.0342854 -2.14416e-14)
(1.13701 0.0396391 -1.90693e-14)
(1.11564 0.036839 -1.25906e-14)
(1.09792 0.0261976 3.06256e-15)
(1.08787 0.00977775 3.16969e-14)
(1.08822 -0.00882805 1.12261e-13)
(1.09964 -0.024736 4.14041e-13)
(1.11966 -0.0323171 8.8325e-13)
(1.14178 -0.0273012 9.22726e-13)
(1.15723 -0.00990675 5.06845e-13)
(1.15932 0.0144845 1.84925e-13)
(1.14664 0.0384317 5.41136e-14)
(1.12245 0.0562874 2.28993e-14)
(1.09181 0.0655645 2.733e-14)
(1.05945 0.0660563 -4.73173e-14)
(1.02901 0.058444 -7.41504e-14)
(1.00337 0.0433496 9.16622e-13)
(0.985343 0.021038 5.17042e-13)
(0.978503 -0.00819207 -1.16681e-11)
(0.987568 -0.0424927 -1.65952e-11)
(1.01627 -0.0759936 7.75013e-11)
(1.06368 -0.0982629 2.94477e-10)
(1.12132 -0.0986143 4.43713e-10)
(1.17307 -0.0733925 3.60472e-10)
(1.20227 -0.0297766 1.59152e-10)
(1.20185 0.018129 2.21719e-11)
(1.17637 0.0572829 -1.62932e-11)
(1.13647 0.0813785 -9.43474e-12)
(1.09203 0.0908804 9.47573e-13)
(1.04903 0.0892223 3.78228e-12)
(1.01038 0.0793403 -8.84628e-12)
(0.977618 0.0624194 -3.13921e-11)
(0.951559 0.0384791 4.06073e-11)
(0.932843 0.00714111 4.26857e-10)
(0.925237 -0.031914 1.21665e-09)
(0.937405 -0.0765239 2.12965e-09)
(0.975783 -0.118322 2.7837e-09)
(1.03612 -0.14337 3.12262e-09)
(1.10488 -0.138971 3.34446e-09)
(1.16659 -0.101007 3.4657e-09)
(1.20798 -0.0376633 3.1704e-09)
(1.21895 0.03196 2.27878e-09)
(1.1966 0.0863117 1.15302e-09)
(1.1498 0.113197 3.0947e-10)
(1.09447 0.113962 -7.34476e-11)
(1.04397 0.0977985 -1.39169e-10)
(1.00391 0.0733071 -4.20198e-11)
(0.975262 0.0432827 2.08562e-10)
(0.961464 0.00488566 6.18927e-10)
(0.970658 -0.0445513 1.05602e-09)
(1.00887 -0.100413 1.33502e-09)
(1.07274 -0.15002 1.41125e-09)
(1.15056 -0.179102 1.38789e-09)
(1.22806 -0.178825 1.37832e-09)
(1.29264 -0.148529 1.42159e-09)
(1.33479 -0.0949686 1.51807e-09)
(1.34869 -0.0296913 1.69621e-09)
(1.33353 0.0349336 1.9549e-09)
(1.29476 0.0890913 2.11981e-09)
(1.24189 0.126197 1.93428e-09)
(1.18447 0.141779 1.3575e-09)
(1.13036 0.134306 6.45648e-10)
(1.08584 0.107309 1.03445e-10)
(1.0554 0.0687996 -1.46097e-10)
(1.04068 0.0276995 -1.42656e-10)
(1.04011 -0.00931749 4.5465e-11)