/*--------------------------------*- C++ -*----------------------------------*\
  =========                 |
  \\      /  F ield         | OpenFOAM: The Open Source CFD Toolbox
   \\    /   O peration     | Website:  https://openfoam.org
    \\  /    A nd           | Version:  11
     \\/     M anipulation  |
\*---------------------------------------------------------------------------*/
FoamFile
{
    format      ascii;
    class       volVectorField;
    location    "10.229785";
    object      U_0;
}
// * * * * * * * * * * * * * * * * * * * * * * * * * * * * * * * * * * * * * //

dimensions      [0 1 -1 0 0 0 0];

internalField   nonuniform List<vector> 
7132
(
(1.00012 -0.000251971 2.49153e-18)
(1.00195 -0.000770995 8.8069e-18)
(1.00617 -0.0013325 8.83805e-18)
(1.01266 -0.0019418 1.09097e-17)
(1.02168 -0.00259236 1.37505e-17)
(1.03339 -0.00325182 1.3953e-17)
(1.04772 -0.00386699 1.30661e-17)
(1.06437 -0.00434551 1.19798e-17)
(1.08258 -0.00458913 1.10528e-17)
(1.10123 -0.00449639 1.0445e-17)
(1.11872 -0.0040068 1.00205e-17)
(1.13349 -0.00318411 9.99836e-18)
(1.14434 -0.00209853 9.79694e-18)
(1.15039 -0.000842828 1.03142e-17)
(1.15116 0.000459795 4.43642e-18)
(1.14673 0.00164531 -2.52261e-18)
(1.13796 0.00250973 -9.97689e-18)
(1.12656 0.00287234 -9.81045e-18)
(1.11486 0.00264796 -1.30325e-17)
(1.10527 0.00187748 -1.55846e-17)
(1.0998 0.000732107 -1.42288e-17)
(1.0995 -0.000508292 -1.31022e-17)
(1.1041 -0.00149479 -1.34699e-17)
(1.11182 -0.00187897 -1.51428e-17)
(1.11958 -0.00143971 -1.71208e-17)
(1.12379 -0.00022301 -1.92574e-17)
(1.12171 0.0014464 -1.94621e-17)
(1.11239 0.00311958 -1.89138e-17)
(1.09673 0.00441484 -1.79678e-17)
(1.07689 0.00510806 -2.19203e-17)
(1.05558 0.00511688 -2.33668e-17)
(1.0356 0.00444425 2.29549e-17)
(1.01964 0.00313169 2.63723e-17)
(1.01017 0.00124999 -6.85981e-16)
(1.00931 -0.00106898 -1.87683e-15)
(1.01852 -0.00356162 5.039e-15)
(1.03784 -0.00576446 3.75289e-14)
(1.06496 -0.00705519 8.98974e-14)
(1.09487 -0.00688192 1.1749e-13)
(1.12073 -0.00509118 9.49771e-14)
(1.13625 -0.00210712 4.99943e-14)
(1.13802 0.0012469 1.67737e-14)
(1.1264 0.00415348 1.97462e-15)
(1.10462 0.00612789 -1.5791e-15)
(1.07703 0.00705846 -2.93968e-15)
(1.04775 0.00704896 -5.64499e-15)
(1.02021 0.00624266 5.34195e-15)
(0.997344 0.00472217 5.59219e-14)
(0.981928 0.00250233 9.16512e-14)
(0.976813 -0.000399576 -2.19512e-13)
(0.984724 -0.00382662 -1.64066e-12)
(1.00733 -0.00732211 -4.91263e-12)
(1.04366 -0.0100886 -9.63248e-12)
(1.08883 -0.0111914 -1.37397e-11)
(1.13422 -0.00998248 -1.47374e-11)
(1.16969 -0.00652592 -1.19852e-11)
(1.18716 -0.00171401 -7.52633e-12)
(1.18371 0.0030925 -3.80642e-12)
(1.16225 0.00669597 -1.38264e-12)
(1.12961 0.00853621 -7.48386e-14)
(1.09329 0.00869748 4.13905e-13)
(1.05939 0.00758703 1.06216e-13)
(1.03204 0.00559485 -1.14151e-12)
(1.01411 0.00292417 -2.014e-12)
(1.00811 -0.000374717 2.68407e-12)
(1.01655 -0.00421883 2.26275e-11)
(1.04134 -0.00827971 6.85069e-11)
(1.0824 -0.0119028 1.44974e-10)
(1.13636 -0.014257 2.45344e-10)
(1.19645 -0.0146511 3.52474e-10)
(1.25374 -0.0128169 4.44177e-10)
(1.2993 -0.00899757 4.99114e-10)
(1.32619 -0.00382802 5.02654e-10)
(1.33055 0.00184654 4.51736e-10)
(1.31213 0.00707457 3.53651e-10)
(1.27457 0.0108936 2.29154e-10)
(1.22528 0.0125688 1.1099e-10)
(1.17394 0.0119316 2.835e-11)
(1.12949 0.00948264 -9.95481e-12)
(1.09767 0.00609571 -1.62176e-11)
(1.08039 0.00258465 -9.4628e-12)
(1.07682 -0.000523679 -2.46229e-12)
(1.08459 -0.00294982 7.45412e-13)
(1.10061 -0.00452281 9.75206e-13)
(1.12114 -0.00510005 8.40236e-14)
(1.14189 -0.0046028 -6.71948e-13)
(1.15847 -0.00311733 -8.68277e-13)
(1.16726 -0.000959513 -6.55108e-13)
(1.16642 0.00137955 -3.59778e-13)
(1.15629 0.00339711 -1.48214e-13)
(1.13912 0.00475222 -3.93766e-14)
(1.11804 0.00534291 1.66524e-15)
(1.0961 0.00526782 1.07448e-14)
(1.07564 0.00472753 8.70861e-15)
(1.05809 0.00393179 4.27952e-15)
(1.04406 0.00304679 2.98507e-16)
(1.03363 0.00218215 -2.55602e-15)
(1.02655 0.00140078 -4.36841e-15)
(1.0224 0.000735053 -5.4642e-15)
(1.02067 0.000200245 -6.09481e-15)
(1.02082 -0.000197081 -6.30438e-15)
(1.02229 -0.000455619 -5.96379e-15)
(1.02452 -0.000579351 -4.91423e-15)
(1.02698 -0.00057942 -3.12509e-15)
(1.02921 -0.000475822 -7.80908e-16)
(1.03083 -0.000297142 1.70915e-15)
(1.03162 -7.76389e-05 3.80592e-15)
(1.03148 0.000147661 5.03138e-15)
(1.03045 0.000348317 5.16536e-15)
(1.02869 0.000502552 4.29003e-15)
(1.02641 0.000598997 2.70979e-15)
(1.02387 0.000636182 8.28532e-16)
(1.0213 0.000620447 -9.63523e-16)
(1.01888 0.000563181 -2.3712e-15)
(1.01677 0.000478087 -3.21296e-15)
(1.01504 0.000378918 -3.41227e-15)
(1.01373 0.000277859 -2.96686e-15)
(1.01281 0.00018456 -1.91697e-15)
(1.01225 0.000105746 -3.33556e-16)
(1.01197 4.52722e-05 1.69327e-15)
(1.01189 4.47024e-06 4.04948e-15)
(1.01194 -1.73484e-05 6.59708e-15)
(1.01204 -2.23592e-05 9.18583e-15)
(1.01213 -1.37177e-05 1.16603e-14)
(1.01215 4.89137e-06 1.38799e-14)
(1.01209 2.96472e-05 1.57391e-14)
(1.01192 5.69293e-05 1.71819e-14)
(1.01164 8.35906e-05 1.82107e-14)
(1.01125 0.00010715 1.88781e-14)
(1.01078 0.000125902 1.92771e-14)
(1.01024 0.000138933 1.95218e-14)
(1.00967 0.000146063 1.97276e-14)
(1.00907 0.000147721 1.99997e-14)
(1.00848 0.000144785 2.04194e-14)
(1.00791 0.000138403 2.1041e-14)
(1.00737 0.000129827 2.18898e-14)
(1.00687 0.000120262 2.2963e-14)
(1.00641 0.000110761 2.42395e-14)
(1.00598 0.000102153 2.56824e-14)
(1.00559 9.5009e-05 2.72482e-14)
(1.00522 8.96431e-05 2.88907e-14)
(1.00487 8.61374e-05 3.05638e-14)
(1.00453 8.43851e-05 3.22294e-14)
(1.0042 8.41389e-05 3.38576e-14)
(1.00386 8.50678e-05 3.54321e-14)
(1.00352 8.67981e-05 3.69492e-14)
(1.00316 8.89689e-05 3.84171e-14)
(1.0028 9.12393e-05 3.98575e-14)
(1.00243 9.33554e-05 4.13e-14)
(1.00206 9.50835e-05 4.27797e-14)
(1.00167 9.63507e-05 4.43299e-14)
(1.00128 9.70076e-05 4.59736e-14)
(1.0009 9.72018e-05 4.77223e-14)
(1.0005 9.67534e-05 4.95694e-14)
(1.00013 9.60587e-05 5.14908e-14)
(0.999719 9.47904e-05 5.34491e-14)
(0.999386 9.34339e-05 5.53783e-14)
(0.998934 9.19076e-05 5.72728e-14)
(0.998715 8.9652e-05 5.88441e-14)
(0.998103 8.81963e-05 6.11821e-14)
(1.00012 -0.000753515 4.03237e-20)
(1.00194 -0.00230696 4.24283e-19)
(1.00613 -0.00398934 7.99059e-19)
(1.01258 -0.0058191 1.17643e-18)
(1.02159 -0.00777791 1.64544e-18)
(1.03331 -0.00976993 2.13136e-18)
(1.04774 -0.0116362 2.48914e-18)
(1.06458 -0.0130956 2.81241e-18)
(1.08308 -0.0138492 4.43998e-18)
(1.1021 -0.0135814 5.04576e-18)
(1.11996 -0.0121047 4.42938e-18)
(1.13503 -0.00962148 8.15523e-18)
(1.14611 -0.00634467 6.99676e-18)
(1.15227 -0.00255354 6.92739e-18)
(1.15301 0.0013813 7.77645e-18)
(1.14837 0.0049659 9.17506e-18)
(1.13919 0.00758122 1.10151e-17)
(1.12725 0.00867673 1.36378e-17)
(1.11496 0.00799102 1.58609e-17)
(1.10489 0.00564276 1.4633e-17)
(1.09916 0.00214579 5.50523e-18)
(1.0989 -0.00165016 -1.51894e-17)
(1.10391 -0.00468121 -4.87255e-17)
(1.11234 -0.00587709 -8.25586e-17)
(1.12091 -0.00455076 -9.31341e-17)
(1.12577 -0.000836455 -7.58393e-17)
(1.12397 0.00426872 -5.3128e-17)
(1.11452 0.00938415 -3.69146e-17)
(1.09841 0.0133428 -3.22447e-17)
(1.07795 0.0154687 -4.98352e-17)
(1.05597 0.0155222 -3.50325e-17)
(1.03531 0.0135196 1.86187e-16)
(1.0187 0.00958595 -5.43759e-17)
(1.00865 0.00392211 -3.60005e-15)
(1.00741 -0.00309702 -4.9259e-15)
(1.01661 -0.0106942 4.97328e-14)
(1.0365 -0.0174622 2.43651e-13)
(1.0648 -0.0214798 5.30311e-13)
(1.09626 -0.021024 6.77669e-13)
(1.12356 -0.0156015 5.35655e-13)
(1.13993 -0.00651068 2.58993e-13)
(1.14176 0.00371264 7.25506e-14)
(1.12956 0.0125592 1.03921e-15)
(1.10689 0.0185526 -1.26855e-14)
(1.07836 0.0213718 -1.34078e-14)
(1.04822 0.0213558 -6.94585e-15)
(1.01988 0.0189541 4.31783e-14)
(0.996228 0.0144169 9.00637e-14)
(0.980023 0.00776792 -2.22865e-13)
(0.974231 -0.000983524 -1.26278e-12)
(0.98184 -0.0114085 -1.50136e-12)
(1.00482 -0.0221309 4.46933e-12)
(1.04239 -0.0306777 2.01227e-11)
(1.0896 -0.0341273 3.71417e-11)
(1.13733 -0.0304683 4.1422e-11)
(1.17464 -0.0199195 3.0933e-11)
(1.19282 -0.00524072 1.57623e-11)
(1.18881 0.00940731 4.17882e-12)
(1.16593 0.0203659 -8.09423e-13)
(1.13159 0.0259321 -1.13612e-12)
(1.09381 0.0263942 -1.45425e-13)
(1.05881 0.0230286 -5.91547e-13)
(1.03062 0.0170414 -3.4551e-12)
(1.01192 0.00904641 -3.09842e-12)
(1.00508 -0.000831201 1.94392e-11)
(1.01267 -0.0123774 9.45075e-11)
(1.03688 -0.0246274 2.44793e-10)
(1.07801 -0.035613 4.61996e-10)
(1.13282 -0.0428041 7.06705e-10)
(1.19415 -0.0440777 9.32454e-10)
(1.25242 -0.0386202 1.1042e-09)
(1.29829 -0.0272007 1.19385e-09)
(1.32499 -0.0117483 1.17297e-09)
(1.32915 0.00523356 1.0279e-09)
(1.31081 0.0209446 7.799e-10)
(1.27349 0.0325189 4.88444e-10)
(1.22428 0.0377084 2.29563e-10)
(1.17269 0.0359304 5.72085e-11)
(1.12778 0.0286374 -2.09012e-11)
(1.09556 0.0184532 -3.43091e-11)
(1.07813 0.0078495 -2.10773e-11)
(1.07474 -0.00156894 -6.22068e-12)
(1.08306 -0.00894823 1.68502e-12)
(1.09995 -0.0137575 3.59607e-12)
(1.12156 -0.0155475 2.96613e-12)
(1.14342 -0.0140638 2.25522e-12)
(1.16089 -0.00956074 2.20255e-12)
(1.17017 -0.00300008 2.34214e-12)
(1.16932 0.00411943 2.01879e-12)
(1.15878 0.0102599 1.32792e-12)
(1.14094 0.0143773 6.47693e-13)
(1.11917 0.0161626 1.97826e-13)
(1.09665 0.0159231 -8.19375e-15)
(1.0758 0.0142755 -5.84075e-14)
(1.05801 0.0118605 -4.47045e-14)
(1.04387 0.0091821 -2.17156e-14)
(1.03344 0.00657003 -8.50042e-15)
(1.02641 0.004212 -5.06872e-15)
(1.02234 0.0022037 -6.06799e-15)
(1.02072 0.000590002 -7.09546e-15)
(1.021 -0.00060975 -5.93842e-15)
(1.0226 -0.00139125 -1.90169e-15)
(1.02496 -0.00176576 4.84452e-15)
(1.02755 -0.00176615 1.3518e-14)
(1.02988 -0.00145236 2.28097e-14)
(1.03157 -0.000910686 3.10443e-14)
(1.0324 -0.000244888 3.65426e-14)
(1.03225 0.000438741 3.81996e-14)
(1.03119 0.00104771 3.60123e-14)
(1.02938 0.00151582 3.09012e-14)
(1.02705 0.00180854 2.42396e-14)
(1.02444 0.00192148 1.74043e-14)
(1.02182 0.00187394 1.14838e-14)
(1.01936 0.00170054 7.15889e-15)
(1.01722 0.00144289 4.73664e-15)
(1.01547 0.00114269 4.25251e-15)
(1.01415 0.000836861 5.57722e-15)
(1.01325 0.000554616 8.49958e-15)
(1.0127 0.000316284 1.27552e-14)
(1.01243 0.000133495 1.80356e-14)
(1.01237 1.02483e-05 2.39845e-14)
(1.01244 -5.55678e-05 3.02066e-14)
(1.01255 -7.05494e-05 3.62998e-14)
(1.01265 -4.42488e-05 4.1877e-14)
(1.01269 1.21874e-05 4.66085e-14)
(1.01263 8.72018e-05 5.02766e-14)
(1.01246 0.000169842 5.28056e-14)
(1.01218 0.000250586 5.42655e-14)
(1.01179 0.000321926 5.48424e-14)
(1.01131 0.000378699 5.47988e-14)
(1.01077 0.000418142 5.44303e-14)
(1.01018 0.000439713 5.40181e-14)
(1.00958 0.000444716 5.38031e-14)
(1.00898 0.000435813 5.39602e-14)
(1.00841 0.000416485 5.45924e-14)
(1.00787 0.00039052 5.57357e-14)
(1.00736 0.000361573 5.73652e-14)
(1.0069 0.000332832 5.94154e-14)
(1.00647 0.000306804 6.17912e-14)
(1.00608 0.000285216 6.43846e-14)
(1.00571 0.000269017 6.7089e-14)
(1.00536 0.000258453 6.98054e-14)
(1.00502 0.000253197 7.24576e-14)
(1.00469 0.000252499 7.49927e-14)
(1.00435 0.000255355 7.7386e-14)
(1.00401 0.000260635 7.9643e-14)
(1.00365 0.000267244 8.1793e-14)
(1.00329 0.000274153 8.38913e-14)
(1.00292 0.000280592 8.60056e-14)
(1.00254 0.000285858 8.82084e-14)
(1.00215 0.000289725 9.05664e-14)
(1.00176 0.000291755 9.31251e-14)
(1.00137 0.000292374 9.59052e-14)
(1.00097 0.000291078 9.88911e-14)
(1.00059 0.000289001 1.02029e-13)
(1.00018 0.00028527 1.05238e-13)
(0.999845 0.00028116 1.08391e-13)
(0.999388 0.000276744 1.11426e-13)
(0.999167 0.000269816 1.13942e-13)
(0.998549 0.000265637 1.17324e-13)
(1.00012 -0.00124845 5.45531e-22)
(1.0019 -0.0038247 4.8791e-21)
(1.00603 -0.00662226 4.7577e-21)
(1.01241 -0.00967791 -1.43091e-21)
(1.02138 -0.0129663 -9.50535e-20)
(1.03315 -0.016332 1.07577e-19)
(1.04776 -0.0195118 -5.87927e-19)
(1.06498 -0.0220246 -8.33972e-19)
(1.08406 -0.0233575 2.68383e-18)
(1.10383 -0.0229445 1.9613e-19)
(1.12244 -0.020452 -1.17281e-17)
(1.13811 -0.0162546 -1.44433e-17)
(1.14964 -0.0107113 1.58081e-18)
(1.15604 -0.00428091 2.24748e-17)
(1.15672 0.00242842 3.76661e-17)
(1.15165 0.00858052 5.02827e-17)
(1.14164 0.0130947 5.95801e-17)
(1.1286 0.0149989 5.92519e-17)
(1.11517 0.0138282 3.37835e-17)
(1.10416 0.00977756 -3.58218e-17)
(1.09795 0.00372063 -1.60058e-16)
(1.09787 -0.00289339 -3.88269e-16)
(1.10376 -0.00822629 -7.91198e-16)
(1.11366 -0.0103932 -1.12086e-15)
(1.12388 -0.00815778 -9.48857e-16)
(1.12998 -0.00174064 -4.76762e-16)
(1.12861 0.00709367 -1.70992e-16)
(1.11872 0.015914 -5.86106e-17)
(1.10157 0.0227017 -7.06203e-17)
(1.07977 0.0263302 -1.01873e-16)
(1.05638 0.0264351 2.1794e-16)
(1.03439 0.0230752 -2.28106e-16)
(1.01656 0.0164623 -5.28425e-15)
(1.00552 0.00689932 4.73483e-15)
(1.00369 -0.00504254 9.498e-14)
(1.01308 -0.0180986 6.17654e-14)
(1.03428 -0.029863 -9.63639e-13)
(1.06511 -0.0369549 -3.04803e-12)
(1.09978 -0.0362828 -4.16459e-12)
(1.12996 -0.0269256 -3.16023e-12)
(1.14784 -0.0111759 -1.45083e-12)
(1.14945 0.00646802 -3.78125e-13)
(1.1357 0.0216032 -5.70088e-15)
(1.11092 0.0317229 3.08343e-14)
(1.08032 0.0363867 -4.82318e-15)
(1.0484 0.0362821 5.52644e-14)
(1.01854 0.0322315 1.9893e-13)
(0.993495 0.0246492 -4.89214e-13)
(0.975993 0.0135041 -3.12381e-12)
(0.969134 -0.00129451 -1.4024e-12)
(0.976108 -0.0190999 3.18587e-11)
(0.9991 -0.0375842 1.37213e-10)
(1.03775 -0.0524899 3.15421e-10)
(1.08769 -0.0586962 4.85905e-10)
(1.1398 -0.0525343 5.36816e-10)
(1.18175 -0.0342544 4.34136e-10)
(1.20269 -0.00874357 2.55632e-10)
(1.19839 0.0165886 1.03034e-10)
(1.17278 0.0353151 1.93696e-11)
(1.13485 0.0445775 -7.27733e-12)
(1.09391 0.0450723 -7.75111e-12)
(1.05668 0.0391735 -6.04558e-12)
(1.02697 0.0290349 -8.9747e-12)
(1.00695 0.015696 3.60993e-12)
(0.998656 -0.000735414 8.23676e-11)
(1.005 -0.0200944 2.79721e-10)
(1.02919 -0.0409301 5.95016e-10)
(1.07239 -0.0598794 9.58108e-10)
(1.13103 -0.0723625 1.28201e-09)
(1.19643 -0.0744834 1.52495e-09)
(1.25724 -0.0648826 1.69854e-09)
(1.30308 -0.045234 1.82134e-09)
(1.32753 -0.0191911 1.86142e-09)
(1.32871 0.008995 1.7374e-09)
(1.3081 0.0349365 1.40748e-09)
(1.26967 0.0541495 9.37426e-10)
(1.22006 0.0629337 4.71273e-10)
(1.16815 0.0601459 1.36027e-10)
(1.12284 0.0480316 -2.94202e-11)
(1.09034 0.0309228 -6.74123e-11)
(1.07306 0.0130019 -4.64134e-11)
(1.0704 -0.00298132 -1.54799e-11)
(1.08004 -0.015552 7.07747e-12)
(1.09876 -0.0237758 2.18638e-11)
(1.12254 -0.0268415 3.26017e-11)
(1.14657 -0.02427 3.89133e-11)
(1.16579 -0.0164839 3.86167e-11)
(1.17597 -0.00515853 3.18412e-11)
(1.175 0.00709153 2.14597e-11)
(1.16344 0.0175947 1.15107e-11)
(1.1441 0.0245567 4.54643e-12)
(1.1208 0.0274821 8.87656e-13)
(1.09707 0.0269477 -4.33096e-13)
(1.07543 0.0240476 -5.78793e-13)
(1.05725 0.0198909 -3.53596e-13)
(1.04303 0.0153315 -1.35325e-13)
(1.03268 0.0109157 -2.14694e-14)
(1.02587 0.00694687 1.11695e-14)
(1.02208 0.003576 8.96656e-15)
(1.02076 0.000872337 4.12773e-15)
(1.02135 -0.0011343 1.06499e-14)
(1.02327 -0.00243678 3.10869e-14)
(1.02592 -0.00305281 6.23938e-14)
(1.02876 -0.00303663 9.89645e-14)
(1.03128 -0.00248907 1.34054e-13)
(1.0331 -0.00155674 1.60943e-13)
(1.03396 -0.000416748 1.74365e-13)
(1.03378 0.000749435 1.72182e-13)
(1.03263 0.00178429 1.56516e-13)
(1.0307 0.00257585 1.32253e-13)
(1.02822 0.00306671 1.04963e-13)
(1.02549 0.00325098 7.93598e-14)
(1.02275 0.003163 5.85925e-14)
(1.02022 0.00286269 4.42193e-14)
(1.01803 0.00242134 3.6585e-14)
(1.01626 0.00191 3.52969e-14)
(1.01495 0.00139118 3.96057e-14)
(1.01407 0.000914068 4.8621e-14)
(1.01356 0.000512661 6.13764e-14)
(1.01334 0.000206146 7.68127e-14)
(1.01333 8.17814e-07 9.37615e-14)
(1.01343 -0.000107289 1.10999e-13)
(1.01358 -0.000129626 1.27329e-13)
(1.01371 -8.25454e-05 1.41661e-13)
(1.01376 1.49869e-05 1.53132e-13)
(1.01371 0.000143374 1.61242e-13)
(1.01354 0.000284091 1.65934e-13)
(1.01324 0.00042107 1.67555e-13)
(1.01284 0.000541683 1.66754e-13)
(1.01235 0.000637293 1.64353e-13)
(1.01178 0.000703336 1.61212e-13)
(1.01118 0.000739011 1.58112e-13)
(1.01057 0.000746635 1.55681e-13)
(1.00996 0.000730804 1.5435e-13)
(1.00938 0.000697476 1.54342e-13)
(1.00883 0.000653104 1.55701e-13)
(1.00832 0.000603888 1.58317e-13)
(1.00786 0.000555215 1.61976e-13)
(1.00743 0.000511301 1.66401e-13)
(1.00704 0.000475031 1.71295e-13)
(1.00667 0.000447968 1.76373e-13)
(1.00632 0.000430485 1.81393e-13)
(1.00599 0.000421991 1.86171e-13)
(1.00565 0.000421188 1.90598e-13)
(1.00531 0.000426354 1.94638e-13)
(1.00496 0.000435565 1.98331e-13)
(1.00461 0.000446964 2.01777e-13)
(1.00424 0.000458814 2.05127e-13)
(1.00386 0.000469818 2.08558e-13)
(1.00348 0.000478805 2.12246e-13)
(1.00308 0.000485398 2.16349e-13)
(1.00268 0.000488878 2.20973e-13)
(1.00229 0.000489977 2.26153e-13)
(1.00188 0.000487849 2.31846e-13)
(1.0015 0.000484459 2.37916e-13)
(1.00108 0.000478236 2.44156e-13)
(1.00074 0.000471578 2.50279e-13)
(1.00028 0.00046414 2.56051e-13)
(1.00005 0.000453016 2.60827e-13)
(0.999418 0.000445732 2.66489e-13)
(1.00011 -0.00173209 -3.54491e-20)
(1.00185 -0.00531033 -5.419e-19)
(1.00587 -0.00921284 -9.52912e-19)
(1.01213 -0.0135021 -1.73713e-18)
(1.02104 -0.0181546 -1.96268e-18)
(1.03285 -0.0229624 -2.63071e-18)
(1.04773 -0.0275621 -8.2994e-18)
(1.0655 -0.0312533 8.60154e-18)
(1.08547 -0.0332877 4.20295e-18)
(1.10641 -0.0327818 -6.441e-17)
(1.12617 -0.029223 -5.79074e-17)
(1.14278 -0.0232243 1.17299e-16)
(1.155 -0.0153012 2.97726e-16)
(1.16177 -0.00608851 3.38862e-16)
(1.1624 0.00357671 2.7046e-16)
(1.15669 0.0125071 1.66428e-16)
(1.14541 0.0191036 2.39915e-17)
(1.13064 0.0219026 -2.10118e-16)
(1.11541 0.0201934 -6.21759e-16)
(1.10293 0.0142344 -1.21938e-15)
(1.09595 0.00527806 -1.84111e-15)
(1.0961 -0.00456929 -2.73324e-15)
(1.10337 -0.0125966 -4.49078e-15)
(1.1156 -0.0159544 -5.57372e-15)
(1.12843 -0.0127172 -3.03053e-15)
(1.13651 -0.00319304 4.49453e-16)
(1.13579 0.0099179 1.51091e-15)
(1.12517 0.022918 1.13717e-15)
(1.10634 0.0328224 4.06569e-16)
(1.08243 0.0380605 7.47306e-16)
(1.05689 0.0382087 2.12254e-15)
(1.03287 0.0334251 -1.21079e-14)
(1.01322 0.024022 -2.89602e-14)
(1.00066 0.0103628 2.05093e-13)
(0.997913 -0.00686733 6.65452e-13)
(1.00754 -0.0259768 -2.04058e-12)
(1.03083 -0.0434804 -1.46395e-11)
(1.06578 -0.0542512 -3.53261e-11)
(1.10564 -0.0534694 -4.7571e-11)
(1.14028 -0.0396285 -3.94883e-11)
(1.16037 -0.0162274 -2.06016e-11)
(1.16143 0.00981844 -6.48343e-12)
(1.14506 0.0318431 -5.12483e-13)
(1.11683 0.0462404 6.69781e-13)
(1.08297 0.0526218 4.28182e-13)
(1.04833 0.0522382 4.98304e-13)
(1.01623 0.0464032 1.83605e-13)
(0.989211 0.035692 -4.56806e-12)
(0.969872 0.0199542 -1.05768e-11)
(0.961108 -0.00102249 2.52018e-11)
(0.96578 -0.0263638 2.01594e-10)
(0.986281 -0.052932 5.94921e-10)
(1.02364 -0.0749832 1.13672e-09)
(1.07526 -0.0851954 1.61409e-09)
(1.13275 -0.0775481 1.79242e-09)
(1.18256 -0.0513716 1.55996e-09)
(1.21059 -0.0135253 1.03603e-09)
(1.20926 0.024399 4.97232e-10)
(1.18186 0.0521433 1.41202e-10)
(1.13938 0.0653482 -8.16839e-12)
(1.09376 0.0654601 -3.47124e-11)
(1.05307 0.0564916 -2.7026e-11)
(1.02103 0.0419072 -1.71149e-11)
(0.998958 0.0232098 3.74994e-11)
(0.988664 0.000160262 2.19938e-10)
(0.994251 -0.0276223 5.62829e-10)
(1.02076 -0.05831 9.83451e-10)
(1.06966 -0.0865433 1.34485e-09)
(1.13552 -0.104858 1.57177e-09)
(1.20706 -0.107212 1.68622e-09)
(1.27104 -0.091947 1.76417e-09)
(1.31629 -0.062306 1.87861e-09)
(1.33657 -0.024495 2.02909e-09)
(1.33158 0.0150127 2.08802e-09)
(1.30519 0.0504971 1.88879e-09)
(1.26304 0.0765323 1.40093e-09)
(1.21181 0.0884375 7.87671e-10)
(1.15946 0.0845063 2.74781e-10)
(1.11411 0.0675239 -1.54727e-11)
(1.08181 0.0433432 -1.0466e-10)
(1.06514 0.017832 -8.35125e-11)
(1.06362 -0.00505001 -2.70198e-11)
(1.07491 -0.0231296 3.63798e-11)
(1.09564 -0.0350104 1.04909e-10)
(1.12178 -0.0394615 1.70877e-10)
(1.14854 -0.0356992 2.11825e-10)
(1.17051 -0.0242597 2.0916e-10)
(1.1827 -0.0075908 1.67074e-10)
(1.1823 0.0104028 1.08318e-10)
(1.16978 0.0257177 5.56761e-11)
(1.14847 0.0356943 2.06836e-11)
(1.12295 0.0396712 3.22908e-12)
(1.09737 0.0386044 -2.59105e-12)
(1.07453 0.0341838 -2.91611e-12)
(1.05579 0.0280613 -1.67854e-12)
(1.04147 0.0214648 -5.94783e-13)
(1.03134 0.0151497 -4.68823e-14)
(1.0249 0.00951689 1.11115e-13)
(1.02158 0.00475635 1.05006e-13)
(1.02076 0.000951237 8.36208e-14)
(1.02186 -0.00186288 1.09044e-13)
(1.02427 -0.00367668 1.9006e-13)
(1.02739 -0.00451315 3.09947e-13)
(1.03061 -0.00444713 4.42045e-13)
(1.03343 -0.00362204 5.58138e-13)
(1.03542 -0.00224948 6.34501e-13)
(1.03633 -0.000586522 6.56937e-13)
(1.03608 0.00110337 6.24571e-13)
(1.03478 0.00259271 5.50588e-13)
(1.03264 0.00372176 4.54981e-13)
(1.02994 0.00441118 3.57048e-13)
(1.027 0.00465652 2.70977e-13)
(1.0241 0.00451099 2.04685e-13)
(1.02144 0.00406362 1.6081e-13)
(1.01919 0.00341859 1.3856e-13)
(1.0174 0.00267851 1.35451e-13)
(1.01611 0.00193288 1.48437e-13)
(1.01528 0.00125145 1.74417e-13)
(1.01483 0.00068178 2.1028e-13)
(1.01468 0.000250106 2.52766e-13)
(1.01474 -3.57291e-05 2.98403e-13)
(1.01491 -0.000182367 3.43688e-13)
(1.01511 -0.000206909 3.85302e-13)
(1.01527 -0.00013322 4.20356e-13)
(1.01534 1.13018e-05 4.46719e-13)
(1.0153 0.000198513 4.63344e-13)
(1.01512 0.000401925 4.70433e-13)
(1.01482 0.000598665 4.69264e-13)
(1.01439 0.000770864 4.61856e-13)
(1.01387 0.000906414 4.50582e-13)
(1.01329 0.000999077 4.37798e-13)
(1.01266 0.001048 4.25553e-13)
(1.01202 0.00105677 4.15418e-13)
(1.0114 0.00103219 4.084e-13)
(1.0108 0.00098295 4.0496e-13)
(1.01024 0.000918382 4.05089e-13)
(1.00973 0.000847389 4.08405e-13)
(1.00926 0.000777652 4.14287e-13)
(1.00884 0.000715136 4.21981e-13)
(1.00845 0.000663873 4.30708e-13)
(1.00809 0.00062599 4.39753e-13)
(1.00774 0.000601915 4.48526e-13)
(1.0074 0.000590712 4.56611e-13)
(1.00707 0.000590448 4.63782e-13)
(1.00672 0.000598609 4.70007e-13)
(1.00637 0.000612412 4.75431e-13)
(1.00601 0.000629195 4.80339e-13)
(1.00564 0.00064648 4.85122e-13)
(1.00525 0.000662433 4.90212e-13)
(1.00486 0.000675408 4.96035e-13)
(1.00446 0.000684908 5.02945e-13)
(1.00405 0.000689921 5.11172e-13)
(1.00364 0.000691573 5.20781e-13)
(1.00323 0.000688577 5.31646e-13)
(1.00283 0.000684011 5.43436e-13)
(1.00241 0.000675138 5.5565e-13)
(1.00205 0.000666421 5.67633e-13)
(1.00158 0.000655432 5.78726e-13)
(1.00135 0.000641389 5.87882e-13)
(1.0007 0.000629802 5.97404e-13)
(1.00011 -0.00219856 -2.3992e-18)
(1.00177 -0.00674734 -8.44934e-18)
(1.00563 -0.0117374 -7.24545e-18)
(1.01173 -0.0172681 -9.60586e-18)
(1.02051 -0.0233308 -4.49163e-18)
(1.03235 -0.0296772 -2.55617e-17)
(1.04755 -0.0358505 1.05738e-17)
(1.06606 -0.0409059 5.05259e-17)
(1.08724 -0.0438294 -2.32682e-16)
(1.10982 -0.0433081 -1.12886e-16)
(1.13119 -0.0386011 7.42134e-16)
(1.14907 -0.0306695 1.09031e-15)
(1.16223 -0.0201937 7.75889e-17)
(1.16953 -0.00795942 -1.30893e-15)
(1.17011 0.00500404 -2.31093e-15)
(1.16353 0.0171263 -3.17706e-15)
(1.15049 0.0261618 -4.07868e-15)
(1.13333 0.0300234 -5.20711e-15)
(1.11557 0.0276961 -6.57711e-15)
(1.10099 0.0195077 -7.50959e-15)
(1.0929 0.00712986 -6.44387e-15)
(1.09335 -0.00661013 -7.47792e-16)
(1.10254 -0.0179876 1.83234e-14)
(1.1181 -0.0229407 4.77853e-14)
(1.13472 -0.0186174 6.01751e-14)
(1.14564 -0.00540179 4.64041e-14)
(1.14582 0.0127904 2.63879e-14)
(1.1341 0.0306593 1.24089e-14)
(1.11285 0.0440783 5.46136e-15)
(1.08599 0.0510534 7.96732e-15)
(1.05748 0.0512115 6.96599e-16)
(1.03072 0.0449039 -7.02355e-14)
(1.00859 0.0325674 6.44619e-14)
(0.993883 0.0145614 1.02344e-12)
(0.98971 -0.00846578 -1.96185e-14)
(0.999569 -0.0345429 -1.29393e-11)
(1.02596 -0.0589849 -4.05992e-11)
(1.06715 -0.0743778 -7.06189e-11)
(1.11478 -0.0735555 -9.1305e-11)
(1.15581 -0.0542848 -8.90673e-11)
(1.17861 -0.0217064 -5.97033e-11)
(1.17835 0.0141714 -2.64404e-11)
(1.15788 0.0439226 -5.82556e-12)
(1.12464 0.0627632 1.50973e-12)
(1.08623 0.0706235 2.24335e-12)
(1.04795 0.0696396 1.99215e-12)
(1.01296 0.0617871 -1.96517e-12)
(0.983463 0.0478296 -1.63392e-11)
(0.961545 0.0275617 -8.37897e-12)
(0.949151 0.000772488 1.51522e-10)
(0.948714 -0.031656 6.24769e-10)
(0.964423 -0.0664948 1.39235e-09)
(1.0002 -0.0969903 2.20793e-09)
(1.05436 -0.113289 2.82485e-09)
(1.11745 -0.106217 3.11026e-09)
(1.17497 -0.0731579 2.93713e-09)
(1.21158 -0.0220423 2.2523e-09)
(1.21654 0.0309936 1.30241e-09)
(1.19024 0.0702524 4.98264e-10)
(1.14421 0.0885969 5.91713e-11)
(1.09332 0.088202 -7.52719e-11)
(1.04813 0.0755291 -7.40648e-11)
(1.01277 0.0560912 -2.62959e-11)
(0.987904 0.0318834 1.13361e-10)
(0.97575 0.00163486 4.21668e-10)
(0.982524 -0.0361203 8.55211e-10)
(1.0146 -0.0786236 1.24769e-09)
(1.07179 -0.117275 1.47228e-09)
(1.1453 -0.141102 1.54031e-09)
(1.22158 -0.142295 1.54089e-09)
(1.28699 -0.11953 1.55532e-09)
(1.33074 -0.0779878 1.64533e-09)
(1.34674 -0.0268002 1.84401e-09)
(1.33505 0.0247241 2.06762e-09)
(1.30128 0.0692236 2.08798e-09)
(1.2534 0.100828 1.73237e-09)
(1.1992 0.114694 1.09142e-09)
(1.14611 0.10896 4.4773e-10)
(1.1012 0.0868349 2.68544e-11)
(1.06981 0.0554123 -1.3436e-10)
(1.0543 0.0221106 -1.21501e-10)
(1.05398 -0.0078568 -1.86256e-11)
(1.0661 -0.0315579 1.41422e-10)
(1.08721 -0.0472151 3.41988e-10)
(1.11403 -0.0533059 5.38203e-10)
(1.14283 -0.0486521 6.60122e-10)
(1.16849 -0.0335707 6.56161e-10)
(1.18494 -0.0110503 5.3361e-10)
(1.1876 0.013559 3.54477e-10)
(1.17586 0.0345174 1.87582e-10)
(1.15325 0.0479715 7.23696e-11)
(1.12539 0.0530228 1.2695e-11)
(1.09754 0.0511491 -8.20974e-12)
(1.07311 0.0448354 -9.98277e-12)
(1.0536 0.0364179 -5.94383e-12)
(1.03919 0.0275531 -2.18266e-12)
(1.02938 0.0192003 -1.92877e-13)
(1.02349 0.011831 4.38656e-13)
(1.02082 0.00564745 4.67989e-13)
(1.02071 0.000729554 4.1721e-13)
(1.02251 -0.00288921 5.14453e-13)
(1.0256 -0.00519823 7.95423e-13)
(1.02933 -0.00622342 1.19774e-12)
(1.03309 -0.00605864 1.62082e-12)
(1.0363 -0.00489189 1.96362e-12)
(1.03852 -0.00300643 2.15143e-12)
(1.03949 -0.000749192 2.15239e-12)
(1.03914 0.00152429 1.98276e-12)
(1.03762 0.00350919 1.69926e-12)
(1.03519 0.00499514 1.37126e-12)
(1.03218 0.00588239 1.0576e-12)
(1.02896 0.00617253 7.96022e-13)
(1.02583 0.00594345 6.03217e-13)
(1.02302 0.00531897 4.80586e-13)
(1.02067 0.00444078 4.21108e-13)
(1.01887 0.0034464 4.14672e-13)
(1.01761 0.00245421 4.5102e-13)
(1.01684 0.00155519 5.20675e-13)
(1.01648 0.00081028 6.1464e-13)
(1.01643 0.000251915 7.23804e-13)
(1.01659 -0.00011167 8.38736e-13)
(1.01684 -0.000291021 9.50185e-13)
(1.01711 -0.000310049 1.04959e-12)
(1.01732 -0.000201163 1.12983e-12)
(1.01742 -1.0676e-06 1.18603e-12)
(1.01739 0.000252833 1.21628e-12)
(1.0172 0.000525543 1.22193e-12)
(1.01688 0.000787029 1.20697e-12)
(1.01642 0.00101402 1.17706e-12)
(1.01587 0.00119096 1.13853e-12)
(1.01524 0.00131013 1.09738e-12)
(1.01458 0.00137094 1.05862e-12)
(1.01392 0.00137863 1.02594e-12)
(1.01327 0.00134261 1.00153e-12)
(1.01265 0.00127467 9.86258e-13)
(1.01208 0.00118732 9.79821e-13)
(1.01157 0.0010924 9.81094e-13)
(1.0111 0.001 9.88418e-13)
(1.01068 0.000917902 9.9989e-13)
(1.01029 0.000851247 1.01361e-12)
(1.00993 0.000802654 1.02789e-12)
(1.00959 0.000772497 1.04137e-12)
(1.00925 0.00075937 1.05317e-12)
(1.00891 0.000760585 1.06285e-12)
(1.00857 0.000772727 1.07043e-12)
(1.00821 0.000792065 1.07634e-12)
(1.00784 0.000815066 1.08131e-12)
(1.00746 0.000838472 1.08627e-12)
(1.00706 0.000859898 1.09222e-12)
(1.00665 0.000877221 1.1001e-12)
(1.00624 0.000889853 1.11067e-12)
(1.00582 0.000896496 1.1244e-12)
(1.0054 0.000898771 1.14139e-12)
(1.00497 0.000894852 1.16129e-12)
(1.00457 0.000889256 1.18335e-12)
(1.00413 0.000877533 1.20641e-12)
(1.00376 0.000867372 1.22906e-12)
(1.00327 0.000852169 1.24968e-12)
(1.00303 0.000836883 1.26664e-12)
(1.00236 0.000819325 1.28193e-12)
(1.0001 -0.00264106 2.83156e-18)
(1.00166 -0.00811595 9.54438e-18)
(1.00531 -0.0141665 6.55215e-18)
(1.01116 -0.0209438 1.31021e-17)
(1.01974 -0.0284714 1.5054e-17)
(1.03156 -0.0364806 -5.65965e-17)
(1.04711 -0.044434 3.27486e-16)
(1.06652 -0.051112 -5.87213e-16)
(1.08928 -0.0551968 -7.08955e-16)
(1.11404 -0.0547695 3.22866e-15)
(1.13752 -0.0487925 3.44478e-15)
(1.15704 -0.038758 -5.99315e-15)
(1.17144 -0.0255321 -1.8712e-14)
(1.1795 -0.0100352 -2.49058e-14)
(1.1801 0.00655727 -2.46388e-14)
(1.17246 0.0223036 -2.3184e-14)
(1.15709 0.0341899 -2.17035e-14)
(1.13669 0.0393405 -1.92371e-14)
(1.11549 0.0363365 -1.24877e-14)
(1.09806 0.025543 3.60236e-15)
(1.08839 0.00907953 3.31472e-14)
(1.08914 -0.00940866 1.17881e-13)
(1.10088 -0.0249958 4.22728e-13)
(1.12099 -0.032067 8.69004e-13)
(1.14285 -0.0264922 8.79882e-13)
(1.15771 -0.00872039 4.73369e-13)
(1.15907 0.0157208 1.72487e-13)
(1.14578 0.0394234 5.14764e-14)
(1.12121 0.0568828 2.3178e-14)
(1.09043 0.0657368 2.7205e-14)
(1.0581 0.0658366 -5.18045e-14)
(1.02784 0.0578693 -6.38885e-14)
(1.00251 0.0424408 9.6404e-13)
(0.984929 0.0198083 3.75971e-13)
(0.978729 -0.00969433 -1.22274e-11)
(0.988647 -0.0440832 -1.59453e-11)
(1.01829 -0.0772661 8.06797e-11)
(1.06642 -0.0986805 2.93509e-10)
(1.12412 -0.0978258 4.29406e-10)
(1.17504 -0.0715332 3.37972e-10)
(1.2028 -0.0274409 1.42563e-10)
(1.20099 0.0202416 1.59e-11)
(1.17461 0.0587194 -1.66263e-11)
(1.13435 0.0820572 -8.53406e-12)
(1.08991 0.0909504 1.41295e-12)
(1.04711 0.0888614 3.65791e-12)
(1.00872 0.0786448 -9.82501e-12)
(0.976281 0.061402 -3.15883e-11)
(0.950575 0.0371186 4.86554e-11)
(0.932294 0.00541285 4.52363e-10)
(0.925408 -0.0339767 1.25664e-09)
(0.938672 -0.0786677 2.16796e-09)
(0.978191 -0.119983 2.81066e-09)
(1.03922 -0.143872 3.14402e-09)
(1.10801 -0.137881 3.36559e-09)
(1.16911 -0.0983971 3.47294e-09)
(1.20935 -0.0342187 3.14266e-09)
(1.21873 0.0351435 2.22151e-09)
(1.19488 0.0883133 1.09724e-09)
(1.14723 0.113773 2.7732e-10)
(1.09185 0.113469 -8.3029e-11)
(1.04179 0.0967542 -1.37221e-10)
(1.00227 0.0720181 -3.37248e-11)
(0.974183 0.0417252 2.24547e-10)
(0.961214 0.00287021 6.40713e-10)
(0.971617 -0.0470223 1.07527e-09)
(1.01112 -0.102927 1.3454e-09)
(1.07594 -0.151914 1.41438e-09)
(1.15408 -0.179818 1.38935e-09)
(1.23127 -0.178137 1.38161e-09)
(1.29505 -0.146575 1.42724e-09)
(1.33602 -0.0921777 1.52719e-09)
(1.34854 -0.0266292 1.71134e-09)
(1.33212 0.0377584 1.97218e-09)
(1.29247 0.0913184 2.1248e-09)
(1.23919 0.12755 1.91574e-09)
(1.18176 0.142044 1.3218e-09)
(1.12795 0.133468 6.10795e-10)
(1.084 0.105655 8.24002e-11)
(1.0543 0.0667928 -1.51872e-10)
(1.04032 0.0257585 -1.37307e-10)
(1.04036 -0.0109353 5.83431e-11)