/*--------------------------------*- C++ -*----------------------------------*\
  =========                 |
  \\      /  F ield         | OpenFOAM: The Open Source CFD Toolbox
   \\    /   O peration     | Website:  https://openfoam.org
    \\  /    A nd           | Version:  11
     \\/     M anipulation  |
\*---------------------------------------------------------------------------*/
FoamFile
{
    format      ascii;
    class       volScalarField;
    location    "19.792934";
    object      p;
}
// * * * * * * * * * * * * * * * * * * * * * * * * * * * * * * * * * * * * * //

dimensions      [0 2 -2 0 0 0 0];

internalField   nonuniform List<scalar> 
7132
(
0.0722546
0.0710273
0.0668076
0.0607374
0.0523253
0.0414715
0.028285
0.0131026
-0.00323993
-0.0193336
-0.0335086
-0.0437122
-0.049065
-0.0493246
-0.0447334
-0.0366253
-0.0266
-0.0161861
-0.00664567
0.00117061
0.00689934
0.0108065
0.0137109
0.0164831
0.0195587
0.0228749
0.0261589
0.0291819
0.0318835
0.0343373
0.0366153
0.0386314
0.0399661
0.0399995
0.0384464
0.035873
0.0334956
0.0322754
0.0323502
0.0331785
0.0341255
0.0348221
0.0352381
0.0355676
0.0360442
0.0366747
0.0369802
0.036155
0.0337865
0.0305206
0.0277923
0.0266897
0.0272376
0.0286053
0.0298939
0.0306268
0.0308003
0.0307029
0.0306795
0.0308193
0.0307101
0.0296098
0.0271403
0.0239178
0.021327
0.0204701
0.0213928
0.0232037
0.0248647
0.0257967
0.0259796
0.0257354
0.0254435
0.0252139
0.0247088
0.0233504
0.0209153
0.0179955
0.0157655
0.0151526
0.0162091
0.0181541
0.0199903
0.0210858
0.0213545
0.0210868
0.0206449
0.0201382
0.0193053
0.0177502
0.0154255
0.0129149
0.0111629
0.0108435
0.0119375
0.013793
0.0155743
0.0167032
0.0170398
0.0167885
0.016244
0.0155115
0.0144306
0.0127898
0.0106835
0.00865244
0.00741338
0.00739904
0.00850359
0.010177
0.0117606
0.0127904
0.0131221
0.012873
0.0122446
0.0113325
0.0100886
0.00847693
0.00668964
0.00518324
0.00444861
0.00471018
0.00579724
0.00725271
0.00857782
0.00942858
0.00968534
0.00940731
0.00872013
0.0077153
0.00644502
0.00501103
0.00365442
0.00272077
0.00249121
0.00301897
0.00409431
0.00535051
0.00642952
0.0070958
0.00726698
0.00697526
0.0063067
0.00535565
0.00424384
0.00313863
0.00229152
0.00191422
0.00216415
0.00291466
0.00404405
0.00509282
0.00605554
0.00640473
0.00654078
0.00597291
0.0049443
0.00435102
0.000568594
0.00433736
0.0727508
0.0715301
0.067334
0.0612808
0.0528667
0.0419638
0.0286567
0.0132495
-0.0034158
-0.0199049
-0.0344614
-0.0448831
-0.0503054
-0.0504819
-0.0456191
-0.0371409
-0.0267377
-0.0160092
-0.00626371
0.00162559
0.00729299
0.0110389
0.0137617
0.0164049
0.0194276
0.0227459
0.0260599
0.029124
0.0318707
0.0343716
0.0366951
0.0387538
0.0401115
0.040115
0.0384587
0.0357351
0.0332324
0.0319614
0.0320599
0.0329464
0.0339543
0.0347024
0.0351592
0.0355209
0.0360226
0.0366746
0.0369844
0.0361173
0.0336456
0.0302434
0.0274121
0.0262877
0.026893
0.0283535
0.02973
0.0305286
0.0307444
0.0306699
0.0306554
0.0307925
0.0306587
0.0294951
0.0269209
0.02358
0.0209072
0.0200413
0.0210286
0.0229444
0.0247105
0.025723
0.0259545
0.0257319
0.0254429
0.0251994
0.0246526
0.0232141
0.02067
0.017647
0.0153598
0.0147549
0.0158774
0.0179208
0.0198585
0.0210368
0.0213585
0.0211142
0.0206725
0.0201438
0.0192584
0.017617
0.0151884
0.0125913
0.0108032
0.0105078
0.0116723
0.0136196
0.0154905
0.0166919
0.0170765
0.0168464
0.0162976
0.0155343
0.0143923
0.0126652
0.0104669
0.00836872
0.00711163
0.00713212
0.00830946
0.0100694
0.0117323
0.012823
0.0131925
0.0129569
0.0123168
0.0113659
0.0100568
0.00836371
0.00649959
0.00494555
0.00420831
0.00451131
0.00566901
0.00720295
0.00859655
0.00949618
0.0097791
0.00950406
0.00879625
0.00774704
0.00641304
0.00490853
0.00349342
0.0025314
0.00231195
0.00288415
0.00402386
0.00534653
0.00648013
0.00718164
0.0073665
0.00706713
0.00637047
0.00537315
0.00420391
0.0030426
0.00215588
0.0017672
0.00203722
0.00283251
0.00401965
0.00512321
0.00613236
0.00650544
0.00665996
0.00607232
0.00504486
0.00438411
0.000576734
0.00434939
0.0737403
0.0725343
0.0683872
0.0623732
0.0539606
0.042966
0.0294223
0.013564
-0.00375648
-0.0210584
-0.0363995
-0.0472585
-0.0528139
-0.0528133
-0.0473837
-0.0381432
-0.026968
-0.0156011
-0.00544555
0.00258192
0.00811079
0.0115122
0.0138513
0.0162253
0.0191406
0.0224657
0.0258418
0.0289887
0.0318252
0.0344202
0.0368367
0.038985
0.0403938
0.0403387
0.0384687
0.0354317
0.0326674
0.0312941
0.0314476
0.0324589
0.0335929
0.0344437
0.0349798
0.0354029
0.0359544
0.0366504
0.036969
0.0360158
0.0333295
0.029642
0.0265959
0.0254307
0.0261623
0.0278209
0.0293807
0.0303122
0.0306097
0.0305769
0.0305791
0.0307128
0.0305316
0.0292384
0.0264464
0.0228597
0.0200187
0.019137
0.020261
0.0223955
0.0243785
0.0255537
0.0258799
0.025696
0.0254114
0.0251426
0.0245157
0.0229186
0.0201566
0.0169262
0.0145248
0.0139377
0.0151955
0.0174383
0.0195798
0.0209217
0.0213461
0.0211459
0.0207048
0.0201341
0.019145
0.01733
0.0146918
0.0119202
0.0100607
0.00981675
0.0111279
0.0132629
0.0153141
0.0166593
0.0171375
0.0169488
0.0163927
0.0155686
0.0143033
0.0123988
0.0100111
0.00777491
0.00648171
0.00657587
0.00790513
0.00984355
0.0116685
0.0128817
0.0133269
0.013119
0.0124569
0.0114281
0.00998545
0.00812338
0.00609895
0.00444546
0.00370293
0.00409268
0.00539746
0.00709351
0.00862766
0.00962703
0.00996354
0.00969585
0.00894786
0.00780898
0.00634392
0.00469255
0.00315472
0.00213266
0.00193392
0.00259836
0.00387138
0.00533113
0.00657687
0.00735071
0.00756432
0.00725089
0.00649848
0.00540746
0.00412014
0.00284215
0.00187218
0.00145867
0.00176948
0.00265697
0.00396291
0.00517882
0.00628285
0.00670487
0.00689743
0.00627104
0.00524758
0.00444796
0.000605637
0.00433435
0.0752175
0.0740358
0.0699698
0.0640253
0.055629
0.0445119
0.0306239
0.0140825
-0.00424763
-0.0228319
-0.0394153
-0.0509535
-0.056731
-0.0564786
-0.0501644
-0.0397253
-0.0273396
-0.0149768
-0.00417944
0.00406366
0.00936642
0.0122084
0.0139294
0.0158828
0.0186463
0.0219993
0.0254812
0.0287571
0.0317276
0.034462
0.037017
0.0393021
0.0407906
0.0406401
0.0384218
0.0348756
0.0316955
0.0301774
0.0304441
0.0316719
0.0330106
0.0340191
0.0346706
0.03518
0.0358011
0.0365579
0.0368812
0.0357787
0.0327363
0.0285838
0.0251972
0.0239892
0.0249517
0.0269491
0.0288093
0.0299479
0.0303629
0.0303817
0.0303973
0.0305189
0.0302632
0.0287713
0.0256445
0.0216771
0.0185742
0.01767
0.0190165
0.0215033
0.0238303
0.0252564
0.0257212
0.0255883
0.0253066
0.025
0.0242511
0.022407
0.0193033
0.0157501
0.0131778
0.0126319
0.0141142
0.0166738
0.0191293
0.0207168
0.0212919
0.0211565
0.0207186
0.0200851
0.0189324
0.0168388
0.0138645
0.0108168
0.00885159
0.0087024
0.0102585
0.0126954
0.0150281
0.0165912
0.0172089
0.0170835
0.0165195
0.0156017
0.0141383
0.0119456
0.00925132
0.00679534
0.00545077
0.00567175
0.00725106
0.00947633
0.0115561
0.0129582
0.0135189
0.0133546
0.012661
0.0115106
0.00985315
0.00771658
0.00543233
0.0036202
0.00287389
0.00340868
0.00495285
0.00690817
0.00866354
0.0098178
0.0102373
0.00998208
0.00917291
0.00789285
0.00621772
0.00432909
0.00259318
0.00147585
0.00131389
0.00212987
0.00361796
0.00529586
0.00671773
0.00760404
0.00786235
0.00752772
0.00668872
0.0054498
0.00397399
0.00250864
0.00140512
0.000952947
0.00133107
0.00236789
0.0038634
0.00525679
0.00650805
0.00700595
0.00725549
0.00656951
0.00555293
0.0045282
0.000676603
0.0042142
0.0771731
0.0760279
0.0720836
0.0662525
0.0579056
0.0466551
0.0323311
0.0148708
-0.00485326
-0.0252661
-0.0436198
-0.0560719
-0.0621302
-0.0615127
-0.053922
-0.0417822
-0.0277053
-0.0139682
-0.00230673
0.00619875
0.0111312
0.0131219
0.0139249
0.0152788
0.0178531
0.021273
0.0249189
0.0283774
0.0315286
0.0344474
0.0371865
0.0396598
0.0412618
0.0409693
0.0382307
0.0339256
0.0301401
0.0284437
0.028924
0.0305023
0.0321495
0.0333781
0.0341774
0.0347868
0.0354798
0.036297
0.0366134
0.0352977
0.031746
0.0269168
0.0230296
0.02177
0.0231043
0.0256318
0.0279469
0.0293799
0.0299407
0.0300021
0.0300096
0.030105
0.02975
0.0279916
0.0244083
0.0199203
0.0164615
0.0155357
0.0172022
0.0201907
0.0230033
0.0247748
0.0254193
0.0253452
0.0250672
0.0247157
0.0237988
0.0215967
0.0179948
0.0139791
0.0111793
0.0107225
0.0125516
0.0155713
0.0184647
0.0203831
0.0211568
0.0211094
0.0206835
0.0199668
0.0185765
0.016072
0.0126052
0.00916075
0.00705522
0.0070616
0.008988
0.0118674
0.0145997
0.0164623
0.0172691
0.0172334
0.0166652
0.0156166
0.0138631
0.0112451
0.00810219
0.00533101
0.00392126
0.00433649
0.00628482
0.00892613
0.011369
0.0130356
0.0137573
0.0136573
0.0129242
0.0116014
0.00963056
0.00709093
0.00442757
0.00238849
0.00164352
0.00239484
0.00428778
0.00661589
0.00868565
0.0100582
0.0105954
0.0103612
0.00946897
0.00798795
0.00600789
0.00377296
0.00174921
0.000496344
0.000392187
0.00143147
0.00323056
0.00522036
0.00689175
0.00793688
0.00825976
0.00789842
0.00693915
0.00548967
0.0037417
0.0020044
0.00070755
0.000201153
0.000678819
0.00193233
0.0036991
0.00534427
0.00680112
0.00740585
0.00773293
0.00696665
0.00596045
0.00460898
0.000816134
0.00388971
0.079593
0.0785
0.0747297
0.0690737
0.0608339
0.0494681
0.0346395
0.0160193
-0.00552966
-0.0284499
-0.0492358
-0.062888
-0.0693655
-0.0683284
-0.0589975
-0.0445276
-0.0281621
-0.0125885
0.000219599
0.00905848
0.0134453
0.0142066
0.0137011
0.014244
0.0166195
0.0201914
0.0240905
0.0277962
0.0311714
0.0343103
0.0372701
0.039981
0.0417253
0.0412178
0.0377203
0.0323167
0.0276916
0.0258249
0.0266999
0.028834
0.0309312
0.0324523
0.0334207
0.0341117
0.0348244
0.0356569
0.0359466
0.0343936
0.0302425
0.0245488
0.0199611
0.0185872
0.0204359
0.0237304
0.0266985
0.0285297
0.0292526
0.0293243
0.0292936
0.0293556
0.0288786
0.0267581
0.0225463
0.0173643
0.0134712
0.0125759
0.0147075
0.0183747
0.0218269
0.0240405
0.0249033
0.0248979
0.0246344
0.024234
0.0230852
0.0203765
0.0160786
0.0114354
0.00835329
0.00806119
0.0104009
0.0140601
0.0175346
0.0198745
0.0208968
0.0209674
0.0205695
0.0197434
0.0180187
0.0149395
0.0107986
0.00682587
0.00454916
0.00478761
0.00723381
0.010721
0.0139885
0.0162408
0.0172911
0.0173772
0.0168109
0.0155854
0.0134276
0.0102214
0.0064702
0.00328421
0.00180234
0.00249309
0.00494664
0.00815023
0.0110774
0.0130918
0.0140251
0.0140134
0.0132314
0.0116737
0.0092704
0.00617811
0.00300402
0.000669351
-6.01761e-05
0.000993312
0.00335933
0.00618689
0.00867378
0.0103344
0.0110282
0.0108248
0.00982317
0.00806843
0.0056698
0.00296237
0.000552535
-0.000873684
-0.000888898
0.000459392
0.00267908
0.00508534
0.00708698
0.00834191
0.00875172
0.00835775
0.00723818
0.00550265
0.00338276
0.00127562
-0.000279774
-0.000852271
-0.000232707
0.00131744
0.0034484
0.00542813
0.00715347
0.00789929
0.00832402
0.00745592
0.00645887
0.00466433
0.00103588
0.0032588
0.0824568
0.0814362
0.0779065
0.0725103
0.0644686
0.0530475
0.0376834
0.0176669
-0.00618837
-0.0324657
-0.0564878
-0.0715659
-0.0785065
-0.0769337
-0.0652853
-0.0477692
-0.0284682
-0.0105779
0.00363992
0.0128339
0.0163934
0.0153906
0.0130592
0.0125489
0.0147573
0.0186172
0.022889
0.0269156
0.0305529
0.0339343
0.0371406
0.0401251
0.0420232
0.041172
0.0365721
0.0296098
0.0238469
0.0218953
0.0234824
0.026495
0.0292454
0.0311449
0.0322795
0.0329725
0.0335764
0.0343412
0.0345896
0.0328005
0.0279888
0.0212823
0.0158297
0.0142906
0.0167829
0.0210941
0.0249419
0.0272877
0.0281792
0.02822
0.028136
0.0281763
0.0275444
0.0249156
0.0198396
0.0137518
0.00935425
0.00859116
0.0113961
0.0159605
0.0202206
0.0229722
0.0240926
0.0241758
0.0239501
0.0234935
0.0220262
0.0186358
0.0134319
0.00799738
0.00458239
0.0045378
0.00756846
0.012068
0.0162802
0.0191366
0.0204611
0.0206873
0.0203375
0.0193676
0.0171932
0.0133616
0.00836557
0.00374327
0.00127294
0.00182293
0.00494102
0.00920705
0.013151
0.0158874
0.0172398
0.0174843
0.0169253
0.015466
0.0127746
0.00880872
0.00429368
0.0006049
-0.000946345
0.000105164
0.00320082
0.00711389
0.0106485
0.0130972
0.0142963
0.0143999
0.0135553
0.0116885
0.00871911
0.0049177
0.00110575
-0.0015818
-0.00227192
-0.000824771
0.00214071
0.00559519
0.00860325
0.0106242
0.0115167
0.011356
0.0102119
0.0080975
0.0051527
0.0018398
-0.00105086
-0.00267801
-0.00256284
-0.000812994
0.00194089
0.0048702
0.00728459
0.00880275
0.00932432
0.00889139
0.00756465
0.00545508
0.00285082
0.000269382
-0.00160777
-0.00225017
-0.00143699
0.000497084
0.00308963
0.00548938
0.00754715
0.00847068
0.00901243
0.00802157
0.00702416
0.00466352
0.00132696
0.00224891
0.0857363
0.084813
0.0816069
0.0765828
0.0688716
0.0575104
0.0416324
0.0199949
-0.00672478
-0.0375011
-0.0658348
-0.0826659
-0.0903387
-0.0882464
-0.0734809
-0.0518794
-0.0287515
-0.00791718
0.00806637
0.0176643
0.020035
0.0165426
0.0116729
0.00979457
0.0119488
0.0163482
0.0211833
0.0256238
0.029547
0.0331588
0.0365766
0.0397678
0.0417776
0.0405063
0.0345011
0.0254374
0.018085
0.0160941
0.0188658
0.0232508
0.0269508
0.0293319
0.0305874
0.0311318
0.0314658
0.0321074
0.0323333
0.0302557
0.0245855
0.0166519
0.0102576
0.00865144
0.0119938
0.0175889
0.0225493
0.0255268
0.0265922
0.0265729
0.0264464
0.0264838
0.0256374
0.0223219
0.0161422
0.00895158
0.00398457
0.00345644
0.00716109
0.0128648
0.018108
0.0214902
0.0229094
0.0231128
0.0229545
0.0224252
0.0205396
0.016298
0.0100092
0.00365649
-0.000127459
0.000145728
0.00402646
0.00955275
0.0146516
0.0181153
0.0197958
0.0202188
0.0199355
0.0187789
0.0160369
0.0112916
0.005293
-6.57077e-05
-0.00273699
-0.00180491
0.00211418
0.00730697
0.0120529
0.01536
0.017071
0.0175101
0.0169587
0.0152017
0.0118487
0.00697062
0.00156843
-0.00268078
-0.00428584
-0.00279541
0.00105939
0.00580725
0.010056
0.0130167
0.0145331
0.0147773
0.0138495
0.0115914
0.00792411
0.00327477
-0.00127332
-0.00434502
-0.00496282
-0.00303486
0.000640728
0.00483168
0.00845123
0.0108975
0.0120284
0.0119201
0.0105928
0.00802473
0.0044062
0.000368622
-0.00307474
-0.00490997
-0.00461408
-0.00237409
0.00101638
0.00456271
0.00746294
0.00929327
0.00995005
0.00946891
0.00788094
0.00530142
0.00209897
-0.00105219
-0.00329858
-0.00400066
-0.00293545
-0.000531937
0.00261247
0.00550996
0.00795729
0.00909329
0.00976743
0.00863304
0.0076125
0.00456923
0.00165025
0.00084441
0.0893936
0.0885978
0.0858161
0.0813091
0.0741132
0.0630051
0.0467173
0.02328
-0.00693151
-0.0437159
-0.0776954
-0.0963282
-0.104727
-0.102123
-0.0833765
-0.056608
-0.0287387
-0.00432849
0.0137497
0.0237417
0.0243813
0.0173613
0.00899691
0.00545142
0.00782496
0.0131529
0.0188023
0.0237556
0.0279644
0.031728
0.0351262
0.0381972
0.0401781
0.0386493
0.0314884
0.0201057
0.0104685
0.00803272
0.012384
0.0187871
0.0238613
0.0268561
0.0281457
0.0283524
0.0283057
0.0288388
0.0290621
0.0265505
0.0197192
0.0102997
0.00292069
0.00143171
0.00592699
0.0131059
0.0194036
0.0231191
0.0243705
0.0242882
0.0241491
0.0241958
0.0230634
0.018907
0.0114561
0.00304062
-0.0025419
-0.00277182
0.00200408
0.00905277
0.0154324
0.0195239
0.0212808
0.0216405
0.0215768
0.0209529
0.0185626
0.0133491
0.00586971
-0.00146254
-0.00562651
-0.00498977
-0.000156292
0.00652595
0.0126207
0.0167607
0.0188416
0.0194969
0.019292
0.0179072
0.0145038
0.00873596
0.00165413
-0.0044736
-0.00733352
-0.00596898
-0.00116796
0.00504546
0.0106765
0.0146153
0.0167286
0.017391
0.0168408
0.0147267
0.0106115
0.00472072
-0.00163147
-0.00645372
-0.00808478
-0.00609777
-0.00140941
0.00425089
0.00928181
0.012808
0.0146811
0.0150851
0.0140475
0.0113218
0.00685199
0.00126407
-0.00406564
-0.00751658
-0.00801975
-0.0055487
-0.0010905
0.00390605
0.00819535
0.0111125
0.0125121
0.0124593
0.0109054
0.00779577
0.00340059
-0.00144002
-0.00546575
-0.00749088
-0.00696278
-0.00416455
-6.68465e-05
0.00415876
0.00759412
0.00977204
0.0105816
0.010039
0.00813394
0.0049948
0.00110068
-0.00268433
-0.00531733
-0.00605283
-0.00468086
-0.00174042
0.00202125
0.00547127
0.00834776
0.00972326
0.0105383
0.0092406
0.00816136
0.00434551
0.00194558
-0.000892251
0.0933783
0.0927456
0.0905068
0.0866961
0.0802607
0.0696951
0.0532104
0.027872
-0.00658023
-0.0515272
-0.0930061
-0.11375
-0.123502
-0.120584
-0.0962899
-0.0625093
-0.0285441
0.00027464
0.0208575
0.0312389
0.029421
0.0174517
0.00423734
-0.00138832
0.00171176
0.0086435
0.0155159
0.0211223
0.0255864
0.0292688
0.0320702
0.0344167
0.0361257
0.034591
0.0268739
0.0134553
0.00115543
-0.00222481
0.00379381
0.0128092
0.0197572
0.0235331
0.0247607
0.0244651
0.0240012
0.0244804
0.0246859
0.0215754
0.0133685
0.00231121
-0.00609077
-0.007346
-0.00143794
0.00760151
0.0154271
0.0199632
0.0214185
0.0212916
0.0211731
0.0212337
0.0197651
0.014695
0.00592764
-0.00372653
-0.00993032
-0.00984511
-0.00392777
0.00457457
0.0121795
0.0170246
0.0191434
0.0196868
0.0197357
0.0190012
0.0160633
0.00984247
0.00116847
-0.00712291
-0.0116451
-0.0106269
-0.00481407
0.00306397
0.0101923
0.0150334
0.0175347
0.0184423
0.0183195
0.0166804
0.0125739
0.00575877
-0.00239706
-0.00926065
-0.0122757
-0.0104559
-0.00475704
0.00249281
0.00902471
0.0136102
0.0161428
0.0170423
0.0164827
0.0139736
0.00905148
0.00212875
-0.00515573
-0.010511
-0.0121315
-0.00962042
-0.00408419
0.00249681
0.00831781
0.0124213
0.0146661
0.0152368
0.0140636
0.0108197
0.00549955
-0.00104157
-0.00712849
-0.0109138
-0.0112609
-0.00821867
-0.00296251
0.00284765
0.0078141
0.0112136
0.0128933
0.0128904
0.0110718
0.00736102
0.00214038
-0.00351443
-0.00809575
-0.0102662
-0.00946361
-0.00607636
-0.00125233
0.00366386
0.00764397
0.0101802
0.011148
0.0105268
0.00825766
0.00449744
-0.000134032
-0.0045629
-0.00755933
-0.00829133
-0.00657158
-0.00306192
0.00133889
0.00535678
0.00867178
0.010298
0.0112514
0.00977387
0.00859392
0.00396549
0.00214731
-0.00282433
0.0976265
0.0971974
0.0956361
0.0927394
0.0873812
0.0777837
0.0614868
0.0343278
-0.00518767
-0.0612843
-0.112567
-0.13459
-0.145596
-0.143072
-0.111991
-0.0694698
-0.0280791
0.00593247
0.0294236
0.0401124
0.0347887
0.015777
-0.0041941
-0.0120265
-0.0071435
0.00244458
0.0110845
0.017505
0.022127
0.0252682
0.0266784
0.0277908
0.0292204
0.0279178
0.0196455
0.00420647
-0.010581
-0.0147496
-0.00693021
0.00515788
0.0144444
0.0191802
0.0202793
0.0193862
0.0185271
0.0190133
0.0191837
0.0153967
0.00579792
-0.00685826
-0.0162764
-0.0172917
-0.00988803
0.00115371
0.0106116
0.0160062
0.0176761
0.0175254
0.0174519
0.0175344
0.0157366
0.00979941
-0.00018665
-0.0109756
-0.017753
-0.0173722
-0.0103567
-0.000426043
0.00839041
0.0139731
0.016445
0.0171772
0.017345
0.0165054
0.0130475
0.00589317
-0.00386358
-0.0130063
-0.0178294
-0.0164394
-0.00970359
-0.000697186
0.00740703
0.0129078
0.0158078
0.0169629
0.0169209
0.0150339
0.0102594
0.00247713
-0.00664203
-0.0141395
-0.0172565
-0.0149902
-0.00845156
-0.000242605
0.00711953
0.012303
0.0152312
0.0163604
0.0157837
0.012883
0.00719029
-0.00068333
-0.00879327
-0.0145883
-0.0161543
-0.0131315
-0.00680492
0.000620562
0.00716263
0.011798
0.0143945
0.015122
0.0138008
0.0100372
0.0039013
-0.00351394
-0.0102579
-0.0142956
-0.0144518
-0.0108559
-0.00485675
0.00169854
0.00728335
0.0111298
0.0130745
0.0131083
0.011007
0.0066889
0.000674227
-0.0057227
-0.0107726
-0.0130222
-0.0119226
-0.00796654
-0.00246394
0.00308774
0.00756895
0.0104397
0.0115551
0.0108383
0.00818407
0.00379566
-0.00154609
-0.00655994
-0.00985413
-0.0105382
-0.00846016
-0.00439943
0.00060248
0.00514918
0.00887011
0.010735
0.0118091
0.0101465
0.0088318
0.0034236
0.00220714
-0.00476613
0.102057
0.101875
0.101137
0.0994014
0.0955129
0.0874527
0.0719427
0.043315
-0.0023326
-0.0739557
-0.13832
-0.161883
-0.175643
-0.174002
-0.132794
-0.0781793
-0.0274226
0.012704
0.0395965
0.0501176
0.0393872
0.0103603
-0.0189727
-0.0287531
-0.0201958
-0.00613519
0.0051875
0.0126799
0.0172703
0.0192151
0.0185745
0.0184008
0.0198401
0.0188447
0.00961455
-0.00800272
-0.0249579
-0.0295264
-0.0196269
-0.00413881
0.00782279
0.0136653
0.0146145
0.0131002
0.0118943
0.0124479
0.0126174
0.00823647
-0.00255176
-0.0165764
-0.0269161
-0.0277601
-0.0189823
-0.00600798
0.00504355
0.0112606
0.0131253
0.0129521
0.0129328
0.013065
0.0110262
0.00440181
-0.00656232
-0.0182691
-0.0255162
-0.0248822
-0.016915
-0.00572355
0.00416531
0.0103857
0.0131499
0.0140424
0.0143266
0.013423
0.00955874
0.00166309
-0.00894912
-0.0187521
-0.0237858
-0.0220581
-0.0145348
-0.00457761
0.00433746
0.0103739
0.0135958
0.0149626
0.0150012
0.0129204
0.00760413
-0.000953474
-0.0108254
-0.018791
-0.0219401
-0.0192683
-0.0120218
-0.00302798
0.00499826
0.0106544
0.0139036
0.0152318
0.0146425
0.0114118
0.00508025
-0.00355757
-0.0123002
-0.0183945
-0.0198576
-0.0163781
-0.00939317
-0.00128939
0.00581881
0.0108734
0.0137583
0.0146177
0.013162
0.00894536
0.00212543
-0.00598777
-0.0132179
-0.0173958
-0.0173381
-0.0132554
-0.00664294
0.000505501
0.0065748
0.0107773
0.0129407
0.0129956
0.0106301
0.00577281
-0.000910475
-0.00789215
-0.0132698
-0.0155205
-0.0141261
-0.00967739
-0.00361775
0.00243944
0.00731617
0.0104564
0.0116911
0.010871
0.0078552
0.00290656
-0.00303295
-0.00850305
-0.0119932
-0.0125864
-0.0101748
-0.00564039
-0.000144101
0.0048289
0.00887338
0.0109363
0.0120998
0.0102674
0.00880897
0.00274103
0.00210771
-0.00652401
0.106573
0.106681
0.106917
0.106622
0.10467
0.0989444
0.0851591
0.0560337
0.00317198
-0.0907051
-0.171903
-0.19251
-0.209388
-0.212208
-0.159105
-0.0893038
-0.0272103
0.019881
0.0501239
0.0599659
0.0418277
-0.00142531
-0.0434159
-0.0547236
-0.0391165
-0.0177002
-0.00240765
0.00644754
0.0107123
0.0108065
0.007794
0.00654642
0.00836676
0.00772244
-0.00249735
-0.0220409
-0.0408449
-0.0457076
-0.0337181
-0.014784
-3.9819e-05
0.00696687
0.00776828
0.00564854
0.0041443
0.00483552
0.00513055
0.000418392
-0.0111612
-0.0261626
-0.0372323
-0.0380003
-0.0281338
-0.0135191
-0.00108906
0.00581175
0.00779495
0.00756291
0.00759296
0.00783597
0.00573535
-0.00126909
-0.012844
-0.0251537
-0.0327154
-0.0318827
-0.023193
-0.011038
-0.00034486
0.00631574
0.00924503
0.0102302
0.0106243
0.00974325
0.00567662
-0.00265674
-0.0137944
-0.0239951
-0.0291208
-0.0271105
-0.0190039
-0.0083743
0.00108063
0.0074401
0.0108444
0.012355
0.0124818
0.010317
0.0046792
-0.00435728
-0.0146836
-0.0228979
-0.0259969
-0.0229903
-0.0152351
-0.00572164
0.0027083
0.00863204
0.0120726
0.0135465
0.0129713
0.00953956
0.00279781
-0.00632024
-0.0154294
-0.021645
-0.0229587
-0.0191153
-0.0116733
-0.00314352
0.00429055
0.00958208
0.0126481
0.0136054
0.012065
0.00753932
0.000263746
-0.00828423
-0.0157721
-0.0199564
-0.0196766
-0.0152209
-0.00819654
-0.00068849
0.00565606
0.0100669
0.0123726
0.0124391
0.00987767
0.00463291
-0.0025016
-0.00983701
-0.0153606
-0.0175285
-0.0158694
-0.0110593
-0.00463623
0.00172194
0.00682574
0.0101288
0.0114391
0.0105295
0.00723436
0.00187661
-0.00446611
-0.010205
-0.0137637
-0.0142302
-0.0115466
-0.00667473
-0.000859881
0.004372
0.00860638
0.0107981
0.0120115
0.0100552
0.00848332
0.00196366
0.00186431
-0.00793115
0.111058
0.111495
0.112846
0.114258
0.114785
0.112308
0.101604
0.0735587
0.0115826
-0.112714
-0.217955
-0.236566
-0.258752
-0.266711
-0.194454
-0.103501
-0.0276181
0.0271029
0.0587024
0.0668331
0.0445306
-0.0105502
-0.0687934
-0.0888808
-0.0658272
-0.0334154
-0.0120455
-0.00132047
0.00230771
4.52519e-05
-0.00536651
-0.00736975
-0.00476311
-0.00482382
-0.0155512
-0.0363075
-0.056512
-0.0617696
-0.0481563
-0.0261812
-0.00886599
-0.00078413
-0.00015392
-0.00286869
-0.00463639
-0.00371323
-0.00305918
-0.0076783
-0.0194985
-0.0349639
-0.0464878
-0.0472676
-0.0367029
-0.0209268
-0.0075101
-0.000184449
0.001765
0.00139108
0.00145591
0.00191138
1.33604e-05
-0.00695916
-0.0186798
-0.0312039
-0.0388848
-0.0379119
-0.0287866
-0.0160679
-0.00495324
0.00185234
0.00474943
0.00572144
0.00622073
0.00549516
0.00151098
-0.00686482
-0.0181184
-0.0284012
-0.03348
-0.0312577
-0.0228247
-0.0118827
-0.00225102
0.00413588
0.00752246
0.00908045
0.00931623
0.0072327
0.00157632
-0.00755722
-0.0179722
-0.0261772
-0.0291367
-0.0258906
-0.0178802
-0.00818761
0.000303675
0.00621729
0.00966894
0.0112173
0.0107108
0.00727265
0.000433641
-0.00880277
-0.0179575
-0.0240911
-0.0252129
-0.0211312
-0.013491
-0.00486063
0.00258447
0.00786814
0.0109699
0.0119887
0.0104543
0.00583769
-0.00158266
-0.010235
-0.0177113
-0.0217565
-0.0212612
-0.0165873
-0.00941319
-0.00184939
0.00449507
0.00891657
0.0112648
0.011348
0.00871287
0.00331044
-0.00398211
-0.011386
-0.0168478
-0.0188503
-0.0169816
-0.0119889
-0.00545857
0.000930924
0.00603825
0.00936163
0.0106951
0.00974111
0.00631075
0.000770555
-0.00571576
-0.011495
-0.0149803
-0.0152944
-0.0124329
-0.00741105
-0.00151415
0.00375177
0.00799739
0.0102252
0.011449
0.00945222
0.00784062
0.00115141
0.00151448
-0.00886586
0.115378
0.116178
0.118752
0.122149
0.125702
0.127791
0.122096
0.0993136
0.0260481
-0.14971
-0.275824
-0.275948
-0.311019
-0.337134
-0.242607
-0.123986
-0.030561
0.0292212
0.0548802
0.0602071
0.0354997
-0.0171114
-0.0850326
-0.120333
-0.0965339
-0.05293
-0.0238556
-0.0106817
-0.00791598
-0.012838
-0.0205499
-0.0229142
-0.0190291
-0.0179623
-0.0283381
-0.0493185
-0.0702965
-0.0760881
-0.0616425
-0.0374907
-0.0181742
-0.00929661
-0.00894014
-0.0122843
-0.0142994
-0.0130124
-0.011666
-0.0156504
-0.0270664
-0.0424123
-0.0540558
-0.0549091
-0.044084
-0.0277508
-0.013885
-0.00651103
-0.00482983
-0.00547466
-0.00539323
-0.00458453
-0.00594937
-0.0124078
-0.02375
-0.0360569
-0.0436368
-0.0425807
-0.0333382
-0.0205217
-0.00945463
-0.00288165
-0.000276386
0.000545277
0.00115032
0.000753216
-0.00280375
-0.0107656
-0.0216767
-0.0316954
-0.0365778
-0.0342243
-0.025755
-0.0149153
-0.00553748
0.000515938
0.00363591
0.0051246
0.00550453
0.00371266
-0.00159906
-0.0103911
-0.0204879
-0.0284042
-0.0311329
-0.0277607
-0.0197855
-0.010307
-0.00215623
0.00341439
0.00665843
0.00819954
0.00784312
0.00464575
-0.00191677
-0.0108588
-0.019706
-0.0255418
-0.026436
-0.0222659
-0.0147273
-0.00637377
0.000713491
0.00569853
0.00866375
0.00971198
0.00831139
0.00387999
-0.00331642
-0.0117005
-0.0188744
-0.0226318
-0.0219422
-0.0172357
-0.0102184
-0.00295336
0.00306816
0.00726719
0.00954504
0.00966876
0.00712988
0.00185947
-0.00524719
-0.0124031
-0.0175841
-0.0193447
-0.017343
-0.0123825
-0.00604694
5.75698e-05
0.00490607
0.00808375
0.0093882
0.00846661
0.00509847
-0.000342028
-0.00667118
-0.0122405
-0.0155061
-0.0156529
-0.0127336
-0.00778769
-0.00209001
0.00294374
0.00699047
0.00914753
0.0103497
0.00843175
0.00689203
0.000365818
0.00110451
-0.00925334
0.119389
0.120559
0.124426
0.129945
0.137117
0.144683
0.146977
0.13209
0.046851
-0.177135
-0.377545
-0.351305
-0.393367
-0.440041
-0.307266
-0.150289
-0.0365717
0.0213347
0.0323718
0.0292098
0.00868309
-0.0315888
-0.100019
-0.146837
-0.127047
-0.0745558
-0.0373976
-0.02146
-0.0197008
-0.0274353
-0.037332
-0.0395977
-0.0337947
-0.0307871
-0.0397746
-0.0599092
-0.0809232
-0.0873132
-0.0729272
-0.0477733
-0.0273368
-0.0181439
-0.0182791
-0.0223532
-0.0246137
-0.0227892
-0.0203444
-0.0230945
-0.0334353
-0.0480641
-0.0594681
-0.0604247
-0.0497733
-0.0335415
-0.0198578
-0.0129054
-0.0117982
-0.0128791
-0.0127974
-0.0114651
-0.0119293
-0.0173645
-0.0277898
-0.0394404
-0.0466924
-0.0456043
-0.0365674
-0.0241456
-0.0136422
-0.00773323
-0.00572244
-0.00520768
-0.00448938
-0.00435974
-0.00711471
-0.0141832
-0.0242805
-0.0336838
-0.0382202
-0.0358204
-0.0276163
-0.0173168
-0.00865735
-0.00333568
-0.000759946
0.000532487
0.00110363
-0.000159609
-0.00473401
-0.0127239
-0.0220842
-0.0294306
-0.0318417
-0.0284666
-0.0208331
-0.0119851
-0.00460583
0.000260142
0.00305815
0.00450816
0.0044011
0.00172206
-0.00416096
-0.0123765
-0.0205555
-0.0258799
-0.0265189
-0.0224247
-0.0153072
-0.00763217
-0.00129707
0.00307632
0.00572131
0.00677352
0.00565967
0.00172275
-0.00485403
-0.0125833
-0.0191615
-0.0224889
-0.0216384
-0.0171033
-0.0105721
-0.00398381
0.00137044
0.00509852
0.00719072
0.00739506
0.005154
0.000338415
-0.0062167
-0.0128005
-0.0174846
-0.0189356
-0.0168943
-0.0122025
-0.00638694
-0.000904554
0.00340653
0.00626432
0.00749454
0.00670612
0.00363146
-0.00139854
-0.00725434
-0.01236
-0.0152643
-0.0152399
-0.0124003
-0.00777804
-0.00258292
0.00193407
0.00555891
0.00753524
0.00869426
0.00700046
0.00566803
-0.000340193
0.00067769
-0.00906126
0.122936
0.124473
0.1296
0.137355
0.148451
0.163238
0.177188
0.186508
0.0879274
-0.170509
-0.436498
-0.385825
-0.486328
-0.583604
-0.407573
-0.189968
-0.0501
-0.00517778
-0.00395312
-0.0167215
-0.0234763
-0.051123
-0.113234
-0.165735
-0.152718
-0.095691
-0.0516861
-0.0332024
-0.0325915
-0.0432157
-0.0551701
-0.0568097
-0.0483007
-0.0424
-0.0489794
-0.0672843
-0.0875912
-0.094528
-0.0810209
-0.0561464
-0.0356681
-0.0268099
-0.0277751
-0.0327421
-0.0352504
-0.0326813
-0.0287015
-0.0296276
-0.0382663
-0.0516258
-0.0624433
-0.0635029
-0.0534149
-0.0379286
-0.0250869
-0.019077
-0.0188943
-0.020595
-0.0205237
-0.018484
-0.0176793
-0.0216024
-0.0306054
-0.0411895
-0.0478985
-0.0468214
-0.0382927
-0.0267431
-0.0173219
-0.0125238
-0.0114252
-0.011378
-0.0105334
-0.00967357
-0.0112569
-0.0169709
-0.0258074
-0.0342657
-0.0383175
-0.0359543
-0.0283056
-0.0189729
-0.0114919
-0.00730278
-0.00555219
-0.00458148
-0.00376697
-0.00426228
-0.00771314
-0.0144563
-0.0226819
-0.0291948
-0.0312115
-0.0279574
-0.0209653
-0.0131555
-0.00697145
-0.00316868
-0.0010534
0.000225846
0.00047281
-0.0014081
-0.00621483
-0.0132864
-0.0204546
-0.0250704
-0.0254364
-0.0215844
-0.0152032
-0.00859987
-0.00340299
5.12384e-05
0.0021964
0.00323335
0.00256639
-0.000564
-0.00613196
-0.0128344
-0.0185415
-0.0213121
-0.020344
-0.0161874
-0.0104678
-0.0049258
-0.000574201
0.00244085
0.00423784
0.00457227
0.00283974
-0.00119579
-0.00684169
-0.0125448
-0.0165331
-0.0176202
-0.0156425
-0.0114585
-0.00648342
-0.00195068
0.00155343
0.0039238
0.00504279
0.00449922
0.00195837
-0.0023503
-0.00742603
-0.0118287
-0.0142443
-0.0140558
-0.0114399
-0.00738997
-0.00299531
0.00072866
0.00371597
0.00540742
0.00651037
0.00519615
0.00421265
-0.000928163
0.000267008
-0.0082961
0.12587
0.127723
0.133999
0.14374
0.158978
0.180348
0.212342
0.212705
0.178219
-0.209395
-0.581794
-0.415803
-0.472915
-0.68792
-0.500304
-0.238067
-0.0805861
-0.0505784
-0.0531986
-0.0625542
-0.0519769
-0.0672701
-0.119894
-0.173015
-0.167998
-0.112522
-0.0649227
-0.0449687
-0.0458579
-0.0594894
-0.0733823
-0.073774
-0.0616696
-0.0519673
-0.0553207
-0.0710419
-0.0899989
-0.0973291
-0.0853273
-0.0619198
-0.0425205
-0.0347446
-0.0369674
-0.0430318
-0.0457837
-0.0422449
-0.0363139
-0.0349042
-0.0413255
-0.0529629
-0.0628937