/*--------------------------------*- C++ -*----------------------------------*\
  =========                 |
  \\      /  F ield         | OpenFOAM: The Open Source CFD Toolbox
   \\    /   O peration     | Website:  https://openfoam.org
    \\  /    A nd           | Version:  11
     \\/     M anipulation  |
\*---------------------------------------------------------------------------*/
FoamFile
{
    format      ascii;
    class       surfaceScalarField;
    location    "19.792934";
    object      phi;
}
// * * * * * * * * * * * * * * * * * * * * * * * * * * * * * * * * * * * * * //

dimensions      [0 3 -1 0 0 0 0];

internalField   nonuniform List<scalar> 
14638
(
0.00250252
-2.52384e-06
0.00251032
-7.79519e-06
0.00252372
-1.34054e-05
0.00254295
-1.92244e-05
0.00256793
-2.49804e-05
0.0025981
-3.01732e-05
0.00263222
-3.41178e-05
0.00266808
-3.58553e-05
0.0027025
-3.44273e-05
0.00273165
-2.91437e-05
0.00275155
-1.98997e-05
0.00275992
-8.3708e-06
0.00275648
3.44046e-06
0.00274307
1.34053e-05
0.00272403
1.90416e-05
0.00270511
1.89192e-05
0.00269192
1.31906e-05
0.00268832
3.60184e-06
0.00269515
-6.83283e-06
0.00270955
-1.43945e-05
0.0027252
-1.56578e-05
0.00273432
-9.11347e-06
0.00273058
3.7375e-06
0.00271146
1.91175e-05
0.00267855
3.29123e-05
0.0026364
4.21475e-05
0.00259113
4.52761e-05
0.00254934
4.17888e-05
0.00251756
3.17767e-05
0.00250173
1.58338e-05
0.00250636
-4.62885e-06
0.00253307
-2.67126e-05
0.00257861
-4.554e-05
0.00263381
-5.52011e-05
0.00268528
-5.14666e-05
0.00271985
-3.45715e-05
0.00272941
-9.56184e-06
0.00271308
1.63258e-05
0.00267605
3.70316e-05
0.0026266
4.94489e-05
0.0025736
5.3002e-05
0.00252531
4.82874e-05
0.0024893
3.60115e-05
0.00247248
1.68225e-05
0.0024804
-7.92214e-06
0.00251522
-3.4823e-05
0.00257299
-5.7766e-05
0.00264239
-6.94014e-05
0.00270703
-6.46429e-05
0.00275092
-4.38821e-05
0.00276421
-1.32934e-05
0.00274603
1.81762e-05
0.00270317
4.28612e-05
0.00264628
5.68917e-05
0.00258629
5.99953e-05
0.0025326
5.36862e-05
0.00249308
3.95234e-05
0.00247451
1.85667e-05
0.00248225
-7.74064e-06
0.00251823
-3.59819e-05
0.00257832
-6.00917e-05
0.00265117
-7.28492e-05
0.00272029
-6.91166e-05
0.00276908
-4.87937e-05
0.00278648
-1.73934e-05
0.00277023
1.62436e-05
0.00272662
4.36176e-05
0.00266704
5.95804e-05
0.00260392
6.31159e-05
0.00254793
5.5987e-05
0.0025073
4.06317e-05
0.00248834
1.89622e-05
0.00249546
-7.12269e-06
0.0025297
-3.424e-05
0.00258661
-5.69133e-05
0.00265557
-6.89526e-05
0.00272171
-6.61408e-05
0.00277013
-4.84218e-05
0.00279033
-2.02005e-05
0.00277906
1.1274e-05
0.00274061
3.84477e-05
0.00268478
5.58245e-05
0.00262361
6.11693e-05
0.00256842
5.51915e-05
0.00252827
4.01486e-05
0.00250969
1.8581e-05
0.00251644
-6.74785e-06
0.00254845
-3.20082e-05
0.00260055
-5.20996e-05
0.00266251
-6.19617e-05
0.0027212
-5.86896e-05
0.00276414
-4.29373e-05
0.00278285
-1.87086e-05
0.0027747
8.14508e-06
0.00274293
3.1771e-05
0.00269517
4.7764e-05
0.00264133
5.38314e-05
0.00259161
4.97257e-05
0.00255491
3.67016e-05
0.00253792
1.69871e-05
0.0025442
-6.28361e-06
0.00257311
-2.89013e-05
0.00261912
-4.6017e-05
0.00267262
-5.34929e-05
0.00272212
-4.95001e-05
0.00275741
-3.52976e-05
0.00277211
-1.46981e-05
0.00276474
7.36681e-06
0.00273838
2.63606e-05
0.00269928
3.91048e-05
0.00265529
4.39843e-05
0.0026146
4.06906e-05
0.00258467
2.993e-05
0.0025713
1.33776e-05
0.00257746
-6.16046e-06
0.00260226
-2.48039e-05
0.00264059
-3.83318e-05
0.00268408
-4.3486e-05
0.00272326
-3.91806e-05
0.00275015
-2.68918e-05
0.00276017
-1.00213e-05
0.00275281
7.35762e-06
0.00273109
2.17279e-05
0.00270026
3.08306e-05
0.00266656
3.37003e-05
0.00263622
3.03337e-05
0.0026148
2.14182e-05
0.00260644
8.36099e-06
0.00261298
-6.53753e-06
0.00263318
-2.02025e-05
0.00266265
-2.94687e-05
0.00269476
-3.21116e-05
0.00272244
-2.76754e-05
0.00274006
-1.76184e-05
0.00274478
-4.7196e-06
0.00273687
7.90652e-06
0.00271915
1.77189e-05
0.00269593
2.32252e-05
0.00267197
2.39598e-05
0.00265176
2.02013e-05
0.00263902
1.27461e-05
0.00263612
2.89393e-06
0.00264363
-7.50171e-06
0.00265984
-1.62171e-05
0.00268104
-2.11972e-05
0.00270229
-2.12452e-05
0.00271877
-1.6485e-05
0.00272709
-8.32079e-06
0.00272602
1.07305e-06
0.00271654
9.48184e-06
0.0027013
1.52373e-05
0.00268378
1.75238e-05
0.00266756
1.62111e-05
0.00265573
1.18374e-05
0.0026507
5.0234e-06
0.00265339
-2.6826e-06
0.00266396
-1.05756e-05
0.00267952
-1.55547e-05
0.00269891
-1.93937e-05
-1.45048e-05
0.00250251
-5.03383e-06
0.00251027
-1.5558e-05
0.00252365
-2.67823e-05
0.00254289
-3.84669e-05
0.00256799
-5.00803e-05
0.00259845
-6.06299e-05
0.00263307
-6.87417e-05
0.00266966
-7.24451e-05
0.00270499
-6.97557e-05
0.00273501
-5.91589e-05
0.00275546
-4.03577e-05
0.00276394
-1.68436e-05
0.00276007
7.3105e-06
0.0027457
2.77759e-05
0.00272536
3.93767e-05
0.00270516
3.91171e-05
0.00269108
2.72779e-05
0.00268726
7.41583e-06
0.00269473
-1.42979e-05
0.0027105
-3.01706e-05
0.00272787
-3.30245e-05
0.00273841
-1.96497e-05
0.00273532
6.81931e-06
0.00271597
3.84718e-05
0.00268211
6.67727e-05
0.00263859
8.5672e-05
0.00259174
9.21238e-05
0.00254834
8.51826e-05
0.00251508
6.50399e-05
0.00249812
3.27945e-05
0.00250237
-8.87525e-06
0.00252987
-5.42116e-05
0.00257751
-9.31862e-05
0.00263572
-0.000113408
0.00269015
-0.000105899
0.00272667
-7.10901e-05
0.00273667
-1.9564e-05
0.00271943
3.35621e-05
0.00268068
7.57894e-05
0.00262921
0.000100921
0.00257417
0.000108038
0.00252393
9.85293e-05
0.00248612
7.38213e-05
0.00246792
3.50157e-05
0.00247544
-1.54399e-05
0.0025114
-7.07827e-05
0.00257197
-0.000118337
0.00264519
-0.000142622
0.00271343
-0.000132884
0.00275952
-8.99699e-05
0.00277311
-2.68832e-05
0.00275357
3.77134e-05
0.00270841
8.80245e-05
0.002649
0.000116307
0.00258666
0.00012233
0.00253089
0.000109457
0.00248948
8.09299e-05
0.00246932
3.87283e-05
0.00247612
-1.4542e-05
0.00251235
-7.22057e-05
0.0025742
-0.000121948
0.00265015
-0.000148799
0.0027229
-0.000141863
0.00277473
-0.000100621
0.00279365
-3.63205e-05
0.00277716
3.27361e-05
0.00273188
8.89005e-05
0.00266992
0.000121541
0.00260433
0.00012871
0.00254605
0.000114262
0.00250337
8.33153e-05
0.00248269
3.96406e-05
0.00248879
-1.32211e-05
0.00252316
-6.86106e-05
0.00258153
-0.00011529
0.00265293
-0.000140352
0.00272178
-0.000134983
0.00277242
-9.90661e-05
0.00279391
-4.16921e-05
0.00278287
2.2312e-05
0.00274374
7.75862e-05
0.00268656
0.000113002
0.00262366
0.000124068
0.00256661
0.000112242
0.00252473
8.20299e-05
0.00250491
3.84017e-05
0.00251137
-1.32121e-05
0.00254436
-6.49941e-05
0.00259854
-0.000106278
0.00266302
-0.000126445
0.00272384
-0.00011951
0.00276793
-8.7032e-05
0.00278671
-3.7487e-05
0.0027778
1.70536e-05
0.00274482
6.47578e-05
0.00269569
9.6887e-05
0.00264052
0.000109001
0.00258957
0.000100679
0.00255191
7.43657e-05
0.00253453
3.4364e-05
0.00254135
-1.31079e-05
0.00257186
-5.94098e-05
0.00262025
-9.43996e-05
0.00267617
-0.000109418
0.00272741
-0.000100742
0.00276329
-7.11791e-05
0.0027774
-2.88001e-05
0.00276859
1.61749e-05
0.00274042
5.45329e-05
0.00269954
7.9976e-05
0.0026541
8.94311e-05
0.00261238
8.24048e-05
0.00258199
6.03219e-05
0.00256889
2.64802e-05
0.00257621
-1.34816e-05
0.002603
-5.1589e-05
0.00264373
-7.90686e-05
0.00268942
-8.91695e-05
0.00272998
-7.97439e-05
0.00275711
-5.40186e-05
0.00276625
-1.9165e-05
0.00275722
1.63841e-05
0.00273348
4.54731e-05
0.0027007
6.36119e-05
0.00266542
6.89801e-05
0.00263408
6.16738e-05
0.00261238
4.31187e-05
0.00260457
1.61626e-05
0.00261253
-1.4492e-05
0.00263481
-4.24838e-05
0.00266658
-6.12385e-05
0.00270065
-6.61802e-05
0.00272945
-5.64772e-05
0.00274713
-3.52993e-05
0.00275092
-8.50513e-06
0.00274137
1.74523e-05
0.0027217
3.7395e-05
0.00269657
4.8354e-05
0.00267105
4.94727e-05
0.00264987
4.1384e-05
0.00263688
2.57391e-05
0.00263456
5.20866e-06
0.00264343
-1.63676e-05
0.00266156
-3.43477e-05
0.0026848
-4.44402e-05
0.00270774
-4.41846e-05
0.00272518
-3.39228e-05
0.00273354
-1.66773e-05
0.00273164
2.96485e-06
0.00272073
2.03981e-05
0.00270376
3.22057e-05
0.00268452
3.67599e-05
0.00266689
3.3849e-05
0.00265412
2.4601e-05
0.00264883
1.03159e-05
0.00265198
-5.83552e-06
0.00266373
-2.23194e-05
0.00268087
-3.26987e-05
0.0027022
-4.0727e-05
-3.01005e-05
0.00250248
-7.51553e-06
0.00251017
-2.32495e-05
0.00252349
-4.00957e-05
0.00254275
-5.77327e-05
0.00256807
-7.54009e-05
0.00259908
-9.16331e-05
0.0026347
-0.000104362
0.00267275
-0.000110501
0.0027099
-0.000106906
0.00274169
-9.09453e-05
0.00276328
-6.19455e-05
0.00277195
-2.55206e-05
0.00276722
1.20463e-05
0.00275091
4.40882e-05
0.00272799
6.22951e-05
0.00270527
6.18304e-05
0.00268949
4.30639e-05
0.00268539
1.15111e-05
0.00269429
-2.31901e-05
0.00271296
-4.88496e-05
0.0027338
-5.38608e-05
0.00274708
-3.2927e-05
0.00274503
8.86506e-06
0.00272483
5.86764e-05
0.00268871
0.000102895
0.00264217
0.000132207
0.00259208
0.00014221
0.00254556
0.000131711
0.00250955
0.000101045
0.00249069
5.16566e-05
0.0024946
-1.27829e-05
0.00252412
-8.3735e-05
0.0025764
-0.000145469
0.00264092
-0.000177925
0.00270133
-0.000166308
0.00274143
-0.000111191
0.00275168
-2.98164e-05
0.00273186
5.33812e-05
0.00268899
0.00011866
0.00263307
0.000156846
0.00257386
0.000167245
0.00251988
0.000152507
0.00247887
0.000114833
0.00245845
5.54336e-05
0.00246562
-2.26069e-05
0.00250408
-0.000109241
0.0025703
-0.000184555
0.00265126
-0.000223583
0.00272693
-0.00020856
0.00277753
-0.000140564
0.00279137
-4.0725e-05
0.00276839
6.06944e-05
0.00271784
0.000138576
0.00265284
0.000181307
0.00258567
0.0001895
0.00252591
0.000169215
0.00248107
0.000125764
0.00245798
6.18193e-05
0.00246291
-1.94675e-05
0.00249935
-0.000108649
0.00256433
-0.000186921
0.00264603
-0.000230509
0.0027257
-0.000221528
0.00278349
-0.000158411
0.00280561
-5.84361e-05
0.00278881
4.95282e-05
0.00274035
0.000137364
0.00267372
0.00018817
0.00260328
0.000199146
0.00254068
0.000176866
0.00249437
0.000129627
0.00247107
6.29438e-05
0.0024763
-1.84585e-05
0.00251236
-0.000104667
0.00257491
-0.000177845
0.00265178
-0.000217215
0.00272562
-0.000208823
0.00277946
-0.000152908
0.0028019
-6.41309e-05
0.00278982
3.43849e-05
0.00274827
0.000119145
0.00268791
0.000173359
0.00262158
0.000190401
0.00256123
0.000172583
0.00251669
0.000126579
0.00249556
5.95237e-05
0.00250293
-2.05729e-05
0.00253932
-0.000101392
0.00259871
-0.000165668
0.00266861
-0.000196342
0.00273333
-0.000184224
0.00277876
-0.000132469
0.00279633
-5.50563e-05
0.00278446
2.89237e-05
0.00274781
0.000101407
0.00269515
0.000149546
0.002637
0.000167158
0.00258379
0.000153888
0.00254488
0.000113276
0.00252778
5.14624e-05
0.0025369
-2.22311e-05
0.00257167
-9.4177e-05
0.00262536
-0.000148092
0.00268617
-0.000170222
0.00274045
-0.000155023
0.00277676
-0.000107495
0.0027888
-4.08378e-05
0.00277622
2.87515e-05
0.00274365
8.71028e-05
0.0026987
0.000124929
0.00265009
0.000138043
0.00260644
0.000126049
0.00257561
9.11558e-05
0.00256383
3.82625e-05
0.00257433
-2.39879e-05
0.00260577
-8.30251e-05
0.00265162
-0.000124922
0.00270159
-0.000139132
0.00274449
-0.000122646
0.00277151
-8.10357e-05
0.00277828
-2.59431e-05
0.00276536
2.93071e-05
0.00273714
7.36948e-05
0.00270018
0.00010057
0.00266167
0.000107489
0.00262848
9.48665e-05
0.00260661
6.49926e-05
0.00260049
2.22828e-05
0.00261187
-2.58719e-05
0.00263874
-6.93586e-05
0.00267526
-9.77586e-05
0.00271309
-0.000104008
0.00274377
-8.7161e-05
0.00276111
-5.26403e-05
0.00276257
-9.9643e-06
0.00274937
3.06585e-05
0.00272552
6.12453e-05
0.00269647
7.74016e-05
0.0026679
7.80424e-05
0.00264496
6.43177e-05
0.00263184
3.88681e-05
0.00263112
5.91984e-06
0.00264314
-2.83861e-05
0.00266538
-5.65844e-05
0.00269277
-7.1828e-05
0.00271892
-7.03392e-05
0.00273793
-5.29351e-05
0.00274597
-2.47122e-05
0.00274207
6.86304e-06
0.002728
3.44646e-05
0.00270742
5.27951e-05
0.00268473
5.94416e-05
0.00266436
5.42268e-05
0.00264998
3.89755e-05
0.00264449
1.58117e-05
0.00264896
-1.03059e-05
0.00266335
-3.67138e-05
0.00268386
-5.32098e-05
0.00270903
-6.58946e-05
-4.76826e-05
0.00250243
-9.95038e-06
0.00251001
-3.08204e-05
0.0025232
-5.32893e-05
0.00254247
-7.69993e-05
0.00256808
-0.000101013
0.00259987
-0.000123423
0.00263698
-0.000141472
0.00267728
-0.000150801
0.00271728
-0.000146905
0.00275186
-0.000125531
0.00277525
-8.53317e-05
0.0027843
-3.45695e-05
0.00277827
1.80772e-05
0.00275894
6.34168e-05
0.00273196
8.92741e-05
0.00270527
8.85236e-05
0.00268676
6.1574e-05
0.00268214
1.61225e-05
0.00269324
-3.42827e-05
0.00271651
-7.21217e-05
0.00274287
-8.02257e-05
0.0027605
-5.05509e-05
0.00276003
9.32904e-06
0.00273839
8.03166e-05
0.00269864
0.000142646
0.00264738
0.000183466
0.0025923
0.00019729
0.002541
0.000183016
0.00250082
0.000141225
0.00247902
7.34538e-05
0.00248237
-1.61327e-05
0.00251509
-0.000116454
0.00257481
-0.000205187
0.00264943
-0.000252551
0.00271927
-0.000236144
0.00276481
-0.000156733
0.00277511
-4.0118e-05
0.00275087
7.76226e-05
0.00270129
0.000168242
0.00263832
0.000219812
0.00257272
0.000232848
0.00251317
0.000212058
0.00246739
0.000160613
0.00244331
7.95154e-05
0.00244876
-2.80582e-05
0.00248879
-0.000149267
0.00256112
-0.000256893
0.00265261
-0.000315073
0.00274047
-0.000296415
0.00280031
-0.000200404
0.00281694
-5.73519e-05
0.00279008
8.75516e-05
0.00273165
0.000197007
0.002658
0.000254954
0.00258335
0.000264146
0.00251752
0.000235047
0.00246737
0.000175919
0.00243947
8.97125e-05
0.0024412
-2.11975e-05
0.00247801
-0.00014545
0.00254795
-0.000256861
0.00263817
-0.00032073
0.00272731
-0.000310669
0.00279291
-0.000224009
0.00281934
-8.48675e-05
0.00280259
6.6278e-05
0.00275036
0.00018959
0.00267768
0.000260857
0.00260058
0.00027624
0.00253182
0.000245627
0.00248046
0.000180989
0.00245407
8.93278e-05
0.00245956
-2.39413e-05
0.00250003
-0.000145142
0.00257032
-0.000248131
0.00265574
-0.000302642
0.00273624
-0.000289313
0.00279316
-0.000209832
0.00281502
-8.59959e-05
0.00279971
4.96999e-05
0.00275349
0.000165362
0.00268804
0.000238806
0.00261678
0.000261666
0.00255209
0.000237268
0.00250447
0.000174199
0.00248267
8.13266e-05
0.00249279
-3.06945e-05
0.00253539
-0.000143993
0.00260292
-0.000233192
0.00268045
-0.00027388
0.0027501
-0.000253872
0.00279659
-0.000178961
0.00281149
-6.99486e-05
0.00279439
4.60156e-05
0.00275158
0.000144218
0.00269316
0.000207968
0.00263039
0.000229931
0.00257407
0.000210211
0.00253396
0.000153378
0.00251824
6.71833e-05
0.00253172
-3.57081e-05
0.00257329
-0.000135748
0.00263464
-0.00020944
0.0027019
-0.000237481
0.00275977
-0.000212893
0.00279605
-0.000143779
0.00280469
-4.94731e-05
0.00278639
4.70485e-05
0.00274723
0.000126261
0.00269618
0.000175983
0.0026429
0.000191324
0.00259659
0.000172354
0.00256553
0.000122213
0.0025563
4.74961e-05
0.00257204
-3.97234e-05
0.00261048
-0.000121474
0.00266351
-0.000177946
0.00271902
-0.000194644
0.00276457
-0.000168191
0.00279087
-0.000107339
0.00279395
-2.90253e-05
0.00277533
4.79256e-05
0.00274068
0.000108346
0.00269777
0.000143482
0.00265473
0.000150532
0.0026191
0.000130497
0.00259736
8.67312e-05
0.00259415
2.54895e-05
0.00261089
-4.26151e-05
0.00264454
-0.000103001
0.00268766
-0.000140882
0.00273036
-0.000146705
0.00276313
-0.00011993
0.00277948
-6.8996e-05
0.00277732
-7.799e-06
0.00275876
4.92103e-05
0.00272896
9.10464e-05
0.00269442
0.000111948
0.00266166
0.000110797
0.00263652
8.94626e-05
0.0026236
5.17822e-05
0.00262566
3.86538e-06
0.00264259
-4.53139e-05
0.00267086
-8.48626e-05
0.00270403
-0.000104998
0.00273438
-0.000100687
0.00275513
-7.36873e-05
0.00276225
-3.1826e-05
0.00275516
1.39518e-05
0.00273642
5.32e-05
0.00271063
7.85899e-05
0.00268311
8.69649e-05
0.002659
7.83305e-05
0.00264263
5.53492e-05
0.00263724
2.11948e-05
0.00264405
-1.71066e-05
0.00266258
-5.52465e-05
0.00268808
-7.87085e-05
0.00271853
-9.63522e-05
-6.77758e-05
0.00250236
-1.23143e-05
0.00250975
-3.82049e-05
0.00252274
-6.62777e-05
0.00254194
-9.62022e-05
0.00256786
-0.000126937
0.00260064
-0.000156196
0.00263971
-0.00018055
0.00268308
-0.000194172
0.0027271
-0.000190922
0.00276568
-0.000164115
0.00279163
-0.000111277
0.00280123
-4.41706e-05
0.00279341
2.59011e-05
0.00276981
8.70122e-05
0.00273705
0.000122035
0.00270467
0.000120907
0.00268224
8.39995e-05
0.00267687
2.14972e-05
0.00269111
-4.85284e-05
0.00272104
-0.000102051
0.00275545
-0.000114638
0.00277937
-7.4462e-05
0.00278109
7.60133e-06
0.00275727
0.000104144
0.00271227
0.000187639
0.00265437
0.000241367
0.00259241
0.000259256
0.00253455
0.000240872
0.00248856
0.000187219
0.00246249
9.95194e-05
0.00246486
-1.85049e-05
0.0025022
-0.00015379
0.00257299
-0.000275983
0.00266259
-0.000342147
0.00274595
-0.000319505
0.00279871
-0.000209494
0.0028083
-4.9709e-05
0.00277716
0.000108765
0.0027178
0.000227601
0.00264497
0.000292642
0.00257071
0.000307114
0.00250374
0.000279026
0.00245129
0.000213065
0.00242086
0.00010994
0.00242083
-2.80289e-05
0.00245859
-0.000187021
0.00253507
-0.000333382
0.00263836
-0.000418362
0.00274295
-0.000401
0.0028185
-0.000275954
0.00284371
-8.25626e-05
0.00281583
0.000115426
0.00274913
0.000263714
0.00266457
0.000339513
0.00257985
0.000348868
0.00250561
0.000309284
0.00244802
0.000233505
0.00241383
0.000123901
0.00241264
-2.00037e-05
0.0024525
-0.000185304
0.00253148
-0.000335843
0.00263358
-0.00042283
0.00273341
-0.000410504
0.00280599
-0.000296584
0.00283505
-0.000113936
0.00281693
8.44035e-05
0.00276
0.000246517
0.00268041
0.000340445
0.00259559
0.000361064
0.00251946
0.000321754
0.00246228
0.000238171
0.00243333
0.000118282
0.00244125
-3.18599e-05
0.00248937
-0.000193269
0.00257038
-0.000329133
0.00266616
-0.000398431
0.00275372
-0.000376866
0.00281292
-0.000269039
0.00283246
-0.000105529
0.0028116
7.05621e-05
0.00275844
0.000218518
0.00268608
0.000311169
0.00260866
0.000339087
0.00253904
0.000306879
0.00248859
0.000224655
0.00246737
0.000102549
0.00248235
-4.56802e-05
0.00253337
-0.000195009
0.00261055
-0.000310369
0.00269626
-0.000359598
0.00277064
-0.000328253
0.00281757
-0.00022589
0.00282882
-8.11985e-05
0.00280516
6.96824e-05
0.00275456
0.000194813
0.0026888
0.000273732
0.00262022
0.000298505
0.0025603
0.000270139
0.00251943
0.000194248
0.00250644
8.01712e-05
0.00252618
-5.54516e-05
0.00257632
-0.000185889
0.00264634
-0.000279452
0.00272016
-0.000311307
0.00278111
-0.000273847
0.00281659
-0.000179258
0.00282093
-5.3813e-05
0.00279589
7.20959e-05
0.00274898
0.000173166
0.00269069
0.000234279
0.00263187
0.000250139
0.00258261
0.000221614
0.00255184
0.00015298
0.00254648
5.28606e-05
0.0025692
-6.24477e-05
0.00261624
-0.000168509
0.0026773
-0.000239007
0.00273839
-0.000255735
0.00278599
-0.000215791
0.00281068
-0.000132034
0.00280907
-2.74107e-05
0.00278372
7.32788e-05
0.00274161
0.000150458
0.00269182
0.000193263
0.00264364
0.000198719
0.00260549
0.000168639
0.00258453
0.000107691
0.00258557
2.44503e-05
0.00260936
-6.6403e-05
0.00265126
-0.000144898
0.00270182
-0.000191448
0.00274944
-0.000194323
0.00278371
-0.000154201
0.00279814
-8.3418e-05
0.00279124
-9.08051e-07
0.00276623
7.42268e-05
0.00272944
0.000127833
0.00268856
0.000152827
0.00265115
0.000148208
0.00262387
0.000116747
0.0026119
6.37467e-05
0.00261805
-2.28628e-06
0.0026415
-6.87596e-05
0.00267724
-0.0001206
0.00271703
-0.00014479
0.00275169
-0.000135346
0.00277368
-9.5676e-05
0.00277895
-3.71046e-05
0.00276756
2.53473e-05
0.002743
7.77553e-05
0.00271095
0.000110639
0.00267778
0.000120143
0.00264952
0.000106591
0.00263124
7.36205e-05
0.00262667
2.57651e-05
0.00263703
-2.74579e-05
0.0026611
-7.9323e-05
0.00269284
-0.000110451
0.00272929
-0.000132802
-9.03041e-05
0.00250226
-1.45763e-05
0.00250937
-4.53148e-05
0.00252203
-7.89352e-05
0.00254105
-0.000115218
0.00256723
-0.000153118
0.00260111
-0.000190078
0.00264261
-0.00022205
0.00268995
-0.000241511
0.00273938
-0.000240351
0.00278344
-0.000208176
0.00281292
-0.000140756
0.00282342
-5.46749e-05
0.00281336
3.59684e-05
0.00278404
0.00011633
0.00274338
0.000162695
0.00270315
0.000161132
0.00267522
0.000111934
0.00266856
2.81568e-05
0.00268694
-6.69108e-05
0.00272603
-0.000141135
0.00277167
-0.000160276
0.00280433
-0.000107126
0.00280901
2.91936e-06
0.00278207
0.000131086
0.00272993
0.000239779
0.00266323
0.000308072
0.00259231
0.000330169
0.00252597
0.000307209
0.00247228
0.000240914
0.00244028
0.000131522
0.00244085
-1.90766e-05
0.00248358
-0.000196525
0.00256848
-0.000360874
0.00267837
-0.000452043
0.00278116
-0.00042229
0.00284456
-0.000272895
0.00285297
-5.81165e-05
0.00281173
0.000149996
0.00273873
0.000300607
0.00265282
0.000378552
0.00256761
0.000392321
0.00249138
0.000355256
0.00242978
0.000274667
0.00238907
0.000150647
0.00237917
-1.8124e-05
0.00241242
-0.000220277
0.00249405
-0.000415005
0.00261145
-0.000535765
0.0027347
-0.000524247
0.00282826
-0.000369516
0.00286575
-0.000120055
0.00284071
0.000140463
0.00276768
0.000336747
0.00267177
0.000435425
0.0025751
0.000445535
0.00249023
0.000394155
0.00242352
0.000300211
0.00238315
0.000164275
0.00238188
-1.87345e-05
0.00242946
-0.000232886
0.00252159
-0.00042797
0.00263741
-0.000538645
0.0027474
-0.000520502
0.00282473
-0.000373906
0.0028534
-0.00014261
0.00283114
0.00010666
0.00276777
0.000309891
0.00268044
0.00042777
0.00258741
0.0004541
0.00250357
0.00040559
0.00244084
0.000300902
0.00241079
0.000148333
0.00242354
-4.46109e-05
0.00248137
-0.000251097
0.00257369
-0.000421458
0.00267909
-0.000503827
0.00277251
-0.000470293
0.00283311
-0.00032963
0.00284964
-0.000122059
0.00282239
9.7807e-05
0.00276122
0.000279693
0.00268089
0.000391493
0.00259664
0.000423343
0.00252205
0.000381462
0.00246955
0.000277158
0.00245045
0.000121648
0.00247195
-6.71828e-05
0.00253223
-0.000255282
0.00261861
-0.000396758
0.00271114
-0.000452129
0.0027888
-0.000405912
0.00283529
-0.000272378
0.00284268
-8.85821e-05
0.00281247
9.98911e-05
0.00275398
0.000253304
0.00268053
0.000347177
0.00260584
0.0003732
0.00254239
0.000333586
0.00250152
0.000235117
0.0024926
8.90918e-05
0.00251991
-8.27582e-05
0.00257913
-0.000245115
0.00265722
-0.000357544
0.00273625
-0.000390335
0.00279883
-0.000336423
0.0028325
-0.000212934
0.00283217
-5.3481e-05
0.0028004
0.000103863
0.00274587
0.000227698
0.00268038
0.000299775
0.00261609
0.000314427
0.00256422
0.000273478
0.00253461
0.000182597
0.00253437
5.30932e-05
0.00256524
-9.33128e-05
0.00262129
-0.000224555
0.00268983
-0.000307551
0.00275524
-0.000321142
0.00280349
-0.000264039
0.0028255
-0.000154047
0.00281861
-2.0527e-05
0.00278636
0.000105534
0.00273683
0.000199987
0.00268031
0.000249782
0.00262725
0.000251781
0.00258719
0.000208704
0.00256804
0.000126836
0.00257467
1.78242e-05
0.00260667
-9.84083e-05
0.0026573
-0.000195523
0.00271487
-0.000249018
0.00276629
-0.000245741
0.00280073
-0.000188642
0.00281207
-9.47648e-05
0.00279969
1.14745e-05
0.0027678
0.000106113
0.00272389
0.000171746
0.00267675
0.000199967
0.00263502
0.000189938
0.00260633
0.000145444
0.00259648
7.35908e-05
0.00260815
-1.39592e-05
0.00263935
-9.99596e-05
0.00268314
-0.000164388
0.00272932
-0.000190966
0.0027674
-0.000173423
0.00278944
-0.000117722
0.00279176
-3.94181e-05
0.00277516
4.19437e-05
0.00274417
0.000108741
0.00270553
0.000149286
0.00266662
0.000159046
0.00263448
0.000138739
0.00261501
9.30851e-05
0.00261238
2.83951e-05
0.00262764
-4.27118e-05
0.00265837
-0.000110061
0.00269696
-0.000149043
0.00273907
-0.000174906
-0.000114466
0.00250212
-1.66966e-05
0.00250884
-5.20352e-05
0.00252099
-9.10857e-05
0.00253962
-0.000133846
0.0025659
-0.0001794
0.00260092
-0.000225096
0.00264524
-0.000266372
0.00269752
-0.000293789
0.00275404
-0.000296875
0.0028054
-0.00025953
0.00283952
-0.000174882
0.00285128
-6.64286e-05
0.00283842
4.88287e-05
0.00280166
0.000153091
0.00275058
0.000213766
0.00269993
0.000211785
0.00266457
0.000147292
0.00265604
3.66889e-05
0.00267984
-9.07135e-05
0.0027313
-0.000192596
0.00279228
-0.000221253
0.00283682
-0.000151663
0.00284525
-5.5165e-06
0.00281381
0.000162526
0.00275205
0.000301545
0.00267397
0.000386154
0.00259184
0.000412297
0.00251495
0.000384099
0.0024515
0.00030436
0.00241145
0.000171576
0.0024073
-1.49291e-05
0.00245068
-0.000239906
0.00254508
-0.000455272
0.00267637
-0.000583335
0.00280771
-0.000553625
0.00289332
-0.000358511
0.00290694
-7.17369e-05
0.00285513
0.000201809
0.00276454
0.000391191
0.00266175
0.000481343
0.00256315
0.00049093
0.00247568
0.00044272
0.00240205
0.000348302
0.00234778
0.000204911
0.00232769
1.96891e-06
0.00236134
-0.000253925
0.00245523
-0.000508896
0.0025907
-0.000671235
0.00273099
-0.000664536
0.00283767
-0.000476197
0.00288375
-0.000166139
0.00286132
0.000162891
0.00278368
0.000414394
0.00267754
0.00054156
0.0025685
0.000554581
0.00247171
0.000490938
0.00239545
0.000376475
0.00235081
0.000208918
0.00235336
-2.12849e-05
0.00241198
-0.000291509
0.00251779
-0.000533778
0.00264539
-0.000666244
0.00276307
-0.000638183
0.00284337
-0.000454206
0.0028704
-0.00016964
0.00284281
0.000134245
0.00277202
0.000380687
0.0026765
0.000523286
0.00257528
0.000555321
0.00248422
0.000496653
0.00241713
0.000367988
0.00238784
0.000177619
0.00240699
-6.37541e-05
0.00247449
-0.000318604
0.00257621
-0.000523176
0.00268831
-0.000615922
0.00278515
-0.000567135
0.00284609
-0.000390572
0.00286
-0.00013597
0.00282737
0.000130444
0.00275896
0.000348097
0.00267104
0.000479411
0.00258019
0.000514193
0.00250121
0.000460446
0.0024478
0.000330571
0.00243219
0.000137258
0.00246093
-9.59269e-05
0.00252979
-0.000324138
0.00262335
-0.000490317
0.00272006
-0.000548847
0.0027988
-0.000484646
0.00284378
-0.000317365
0.00284753
-9.23247e-05
0.00281185
0.000135566
0.00274671
0.000318443
0.00266656
0.000427327
0.00258646
0.000453302
0.00252026
0.000399784
0.00248043
0.000274946
0.00247664
9.28892e-05
0.0025119
-0.000118021
0.00257939
-0.000312611
0.00266364
-0.000441788
0.00274551
-0.000472207
0.00280773
-0.00039864
0.00283856
-0.000243771
0.0028336
-4.85114e-05
0.00279594
0.000141517
0.00273495
0.000288693
0.00266337
0.000371353
0.0025946
0.000383199
0.00254115
0.000326925
0.00251384
0.00020991
0.00251976
4.71731e-05
0.00255907
-0.000132622
0.00262328
-0.000288771
0.00269746
-0.000381728
0.00276497
-0.00038865
0.002812
-0.000311077
0.0028303
-0.000172346
0.00281804
-8.26208e-06
0.00277948
0.000144093
0.0027235
0.000255967
0.00266131
0.000311967
0.00260449
0.000308609
0.00256373
0.00024946
0.00254776
0.000142809
0.00256112
4.45696e-06
0.00260174
-0.000139024
0.00266036
-0.000254138
0.00272322
-0.000311885
0.00277637
-0.000298883
0.00280919
-0.00022147
0.00281639
-0.000101961
0.00279823
2.96378e-05
0.00275981
0.000144531
0.00270949
0.000222062
0.00265702
0.000252434
0.00261209
0.000234872
0.00258333
0.000174203
0.00257711
7.9811e-05
0.00259559
-3.24435e-05
0.0026351
-0.000139461
0.00268642
-0.000215716
0.00273757
-0.000242115
0.00277728
-0.000213128
0.00279777
-0.000138215
0.00279604
-3.76915e-05
0.00277379
6.41979e-05
0.00273644
0.000146093
0.00269163
0.000194098
0.0026477
0.000202967
0.00261265
0.000173791
0.00259328
0.000112457
0.00259404
2.7637e-05
0.00261544
-6.41144e-05
0.00265335
-0.000147969
0.00269844
-0.00019413
0.00274469
-0.00022116
-0.000138786
0.00250193
-1.86257e-05
0.00250811
-5.82193e-05
0.00251952
-0.000102492
0.00253746
-0.000151787
0.00256355
-0.000205492
0.00259958
-0.000261127
0.00264703
-0.000313815
0.0027053
-0.000352065
0.00277104
-0.000362615
0.00283205
-0.000320542
0.00287237
-0.000215196
0.00288612
-8.01796e-05
0.00287003
6.49161e-05
0.00282363
0.000199495
0.00275879
0.000278598
0.00269429
0.000276293
0.00264885
0.000192726
0.00263733
4.82101e-05
0.00266786
-0.000121239
0.00273574
-0.000260474
0.00281749
-0.000303002
0.00287808
-0.000212258
0.00289132
-1.87541e-05
0.00285355
0.000200297
0.00277906
0.000376036
0.0026866
0.000478613
0.00259078
0.000508119
0.00250122
0.000473656
0.00242599
0.000379585
0.00237449
0.000223076
0.00235734
2.22261e-06
0.00238711
-0.00026967
0.00247667
-0.000544839
0.00262367
-0.000730332
0.00279167
-0.000721622
0.00291857
-0.000485414
0.00295632
-0.000109489
0.00290329
0.000254842
0.00279523
0.000499251
0.00267214
0.000604433
0.00255717
0.000605893
0.00245617
0.000543726
0.00236833
0.000436143
0.0023008
0.000272435
0.00227631
2.64667e-05
0.00231941
-0.000297027
0.00243166
-0.00062115
0.00258527
-0.000824844
0.00273818
-0.000817441
0.00285149
-0.000589507
0.00289992
-0.000214577
0.00287663
0.00018619
0.0027943
0.00049672
0.0026794
0.000656463
0.00255891
0.000675063
0.00245053
0.00059932
0.00236586
0.000461147
0.00231971
0.000255065
0.00232879
-3.03597e-05
0.00239848
-0.000361201
0.00251469
-0.00064999
0.00264928
-0.000800829
0.00277077
-0.000759673
0.00285259
-0.000536022
0.00287868
-0.000195733
0.00284724
0.000165679
0.00277023
0.000457705
0.00266735
0.000626166
0.00255876
0.000663909
0.00246166
0.000593748
0.00239192
0.00043773
0.00236501
0.000204529
0.00239085
-8.95943e-05
0.00246629
-0.000394037
0.00257404
-0.000630934
0.00268911
-0.000730984
0.00278646
-0.000664486
0.00284649
-0.000450603
0.00285838
-0.000147859
0.00282223
0.000166589
0.00274876
0.000421565
0.002655
0.000573177
0.00255885
0.00061034
0.00247669
0.00054261
0.00242367
0.00038359
0.00241245
0.000148473
0.00244814
-0.000131608
0.00252371
-0.000399714
0.00262151
-0.000588118
0.00271936
-0.000646699
0.00279685
-0.00056213
0.00283927
-0.000359788
0.00283973
-9.27825e-05
0.00280008
0.000175214
0.0027303
0.000388223
0.00264537
0.000512265
0.00256145
0.000537215
0.00249389
0.000467351
0.00245629
0.000312537
0.00245823
9.09505e-05
0.00250088
-0.000160671
0.00257472
-0.000386451
0.00266235
-0.000529418
0.00274432
-0.000554173
0.00280418
-0.000458501
0.00283131
-0.000270907
0.00282204
-3.92352e-05
0.00277978
0.000183778
0.0027141
0.000354374
0.00263828
0.000447168
0.00256673
0.000454753
0.00251324
0.000380407
0.00248952
0.000233634
0.00250218
3.45184e-05
0.00254927
-0.000179713
0.00261966
-0.000359166
0.00269673
-0.000458793
0.00276369
-0.000455611
0.00280766
-0.000355048
0.0028215
-0.000186183
0.00280418
9.05178e-06
0.00276047
0.000187805
0.00269964
0.000316798
0.00263352
0.000378082
0.00257467
0.000367463
0.00253493
0.000289204
0.00252358
0.000154158
0.00254437
-1.6339e-05
0.00259299
-0.000187637
0.00265764
-0.000318797
0.00272312
-0.000377364
0.00277542
-0.000351182
0.00280485
-0.000250901
0.00280718
-0.000104283
0.0027835
5.33102e-05
0.00273955
0.000188481
0.00268425
0.000277367
0.00262806
0.000308619
0.00258166
0.000281276
0.00255463
0.000201228
0.00255362
8.08291e-05
0.00257971