/*--------------------------------*- C++ -*----------------------------------*\
  =========                 |
  \\      /  F ield         | OpenFOAM: The Open Source CFD Toolbox
   \\    /   O peration     | Website:  https://openfoam.org
    \\  /    A nd           | Version:  11
     \\/     M anipulation  |
\*---------------------------------------------------------------------------*/
FoamFile
{
    format      ascii;
    class       volVectorField;
    location    "19.792934";
    object      vorticity;
}
// * * * * * * * * * * * * * * * * * * * * * * * * * * * * * * * * * * * * * //

dimensions      [0 0 -1 0 0 0 0];

internalField   nonuniform List<vector> 
7132
(
(-6.00007e-17 -1.85812e-15 -0.0103222)
(-1.79003e-16 -1.7964e-15 -0.0106795)
(-1.67203e-16 -2.26354e-17 -0.0108931)
(-2.09776e-16 -1.79062e-15 -0.0108811)
(-2.63119e-16 -1.77234e-15 -0.010657)
(-2.58387e-16 -1.95318e-18 -0.0102917)
(-2.41146e-16 6.57501e-18 -0.00988334)
(-2.18242e-16 3.378e-18 -0.00952654)
(-1.92891e-16 -1.06594e-18 -0.00929432)
(-1.86495e-16 -2.50092e-18 -0.00923233)
(-1.85814e-16 -2.35477e-18 -0.00934481)
(-1.28547e-16 1.80918e-19 -0.00962233)
(-1.19424e-16 5.64781e-18 -0.0100037)
(-1.01875e-16 4.61345e-17 -0.0103982)
(-1.29138e-17 -1.65029e-15 -0.0107091)
(3.88718e-17 -1.66129e-15 -0.0108446)
(1.68881e-17 -1.68926e-15 -0.0107461)
(-4.47656e-17 4.23393e-17 -0.0104182)
(1.45925e-17 -1.69681e-15 -0.00995401)
(2.07078e-16 -1.72837e-15 -0.0094806)
(4.21199e-16 -1.38041e-17 -0.00913894)
(4.92643e-16 -2.09323e-17 -0.00907561)
(4.33114e-16 -2.90253e-17 -0.00938226)
(2.2886e-16 -1.017e-17 -0.00999758)
(1.01421e-16 1.71509e-15 -0.0107459)
(8.9397e-16 -5.78178e-17 -0.0114318)
(1.77065e-16 4.31233e-16 -0.011886)
(-1.31212e-14 3.34742e-16 -0.011977)
(-2.50473e-15 -7.01304e-15 -0.011622)
(2.25066e-13 -8.91474e-15 -0.0108271)
(3.25012e-13 7.48385e-14 -0.00977238)
(-3.36165e-12 3.15828e-13 -0.00879156)
(-1.57882e-11 4.89542e-13 -0.00811783)
(-3.02896e-11 2.72357e-13 -0.00778701)
(-3.16422e-11 -1.76264e-13 -0.00778203)
(-1.94989e-11 -4.11189e-13 -0.00820625)
(-7.0078e-12 -3.36842e-13 -0.0092136)
(-9.74461e-13 -1.75498e-13 -0.0106824)
(6.33728e-13 -1.24223e-13 -0.0121938)
(8.16907e-13 -6.95127e-14 -0.0133325)
(2.75374e-13 6.99617e-13 -0.0138349)
(-2.95113e-12 2.35999e-12 -0.0136053)
(-8.96426e-12 2.10248e-13 -0.0127158)
(-3.73669e-13 -2.06203e-11 -0.0114496)
(8.863e-11 -7.81802e-11 -0.0104059)
(3.59366e-10 -1.59452e-10 -0.0103245)
(8.08305e-10 -1.95504e-10 -0.0113435)
(1.2287e-09 -1.2024e-10 -0.0126769)
(1.33346e-09 3.36345e-11 -0.0132871)
(1.0373e-09 1.55043e-10 -0.0129878)
(5.76086e-10 1.77882e-10 -0.0126483)
(2.31549e-10 1.30299e-10 -0.0130182)
(4.46527e-11 6.74511e-11 -0.0138912)
(-2.49e-11 1.61665e-11 -0.0147172)
(-4.16218e-12 -1.60422e-11 -0.0150613)
(7.46362e-11 -4.94002e-12 -0.0147141)
(1.90265e-11 1.19396e-10 -0.0135304)
(-7.78406e-10 4.36732e-10 -0.0111444)
(-3.3935e-09 9.37635e-10 -0.0069624)
(-8.79034e-09 1.44324e-09 -0.000640071)
(-1.65223e-08 1.63516e-09 0.00714971)
(-2.3923e-08 1.26009e-09 0.0142138)
(-2.74033e-08 3.70816e-10 0.0177082)
(-2.51896e-08 -6.7613e-10 0.0159356)
(-1.86738e-08 -1.45735e-09 0.00937605)
(-1.10077e-08 -1.69599e-09 0.000328045)
(-4.79378e-09 -1.41169e-09 -0.00822943)
(-1.05958e-09 -8.78828e-10 -0.0141032)
(5.16737e-10 -3.1348e-10 -0.0166033)
(6.72195e-10 3.74499e-10 -0.0161288)
(-3.60298e-10 1.49868e-09 -0.0132832)
(-3.17483e-09 3.23735e-09 -0.00837591)
(-8.7062e-09 5.32308e-09 -0.00161678)
(-1.71953e-08 7.03868e-09 0.00645817)
(-2.73659e-08 7.52006e-09 0.0150854)
(-3.66043e-08 6.20681e-09 0.0235084)
(-4.20348e-08 3.18604e-09 0.0306803)
(-4.17962e-08 -7.96583e-10 0.0347835)
(-3.59509e-08 -4.65356e-09 0.033668)
(-2.65082e-08 -7.36511e-09 0.0264253)
(-1.63107e-08 -8.25236e-09 0.0145949)
(-7.77484e-09 -7.15695e-09 0.00163771)
(-2.17224e-09 -4.49555e-09 -0.00871197)
(3.19975e-10 -1.01057e-09 -0.0141522)
(3.44954e-11 2.60226e-09 -0.0146275)
(-2.67791e-09 5.85153e-09 -0.0118937)
(-7.45188e-09 8.36262e-09 -0.00828935)
(-1.35757e-08 9.77975e-09 -0.00542653)
(-1.98643e-08 9.81351e-09 -0.00324289)
(-2.50055e-08 8.36137e-09 -0.000283581)
(-2.80036e-08 5.55967e-09 0.00478923)
(-2.83466e-08 1.73778e-09 0.0116541)
(-2.60067e-08 -2.64644e-09 0.0180271)
(-2.1476e-08 -6.99329e-09 0.0209761)
(-1.57035e-08 -1.04127e-08 0.0188547)
(-9.84514e-09 -1.17644e-08 0.0121265)
(-4.95027e-09 -1.02393e-08 0.00305158)
(-1.74175e-09 -6.06844e-09 -0.00553497)
(-5.57679e-10 -5.95828e-10 -0.011785)
(-1.37016e-09 4.46005e-09 -0.0156345)
(-3.79339e-09 7.90468e-09 -0.0182763)
(-7.10907e-09 9.41031e-09 -0.0207661)
(-1.04316e-08 9.26725e-09 -0.0227874)
(-1.30058e-08 7.96581e-09 -0.0228291)
(-1.44189e-08 5.91421e-09 -0.0195271)
(-1.45925e-08 3.33009e-09 -0.0128959)
(-1.3652e-08 2.53295e-10 -0.00457447)
(-1.18315e-08 -3.30555e-09 0.00299545)
(-9.43575e-09 -7.02376e-09 0.00779842)
(-6.81506e-09 -9.98534e-09 0.00880569)
(-4.3404e-09 -1.09461e-08 0.0061058)
(-2.37e-09 -9.15911e-09 0.000671861)
(-1.19176e-09 -5.07235e-09 -0.00625833)
(-9.44763e-10 -1.64731e-10 -0.0137571)
(-1.55538e-09 3.96757e-09 -0.0213011)
(-2.73705e-09 6.43385e-09 -0.0283288)
(-4.08633e-09 7.20117e-09 -0.0337028)
(-5.23559e-09 6.72824e-09 -0.0359467)
(-5.96102e-09 5.53241e-09 -0.0341086)
(-6.19493e-09 3.94072e-09 -0.0284285)
(-5.97754e-09 2.02911e-09 -0.020311)
(-5.40472e-09 -2.89983e-10 -0.0116606)
(-4.58989e-09 -3.01873e-09 -0.00411681)
(-3.64463e-09 -5.77942e-09 0.0011379)
(-2.67957e-09 -7.77253e-09 0.00338493)
(-1.81214e-09 -8.16397e-09 0.00235695)
(-1.15662e-09 -6.66724e-09 -0.00181668)
(-7.9104e-10 -3.80191e-09 -0.00864652)
(-7.24386e-10 -5.79266e-10 -0.0172671)
(-8.9157e-10 2.08279e-09 -0.0263587)
(-1.18263e-09 3.73504e-09 -0.034154)
(-1.48873e-09 4.38915e-09 -0.0388905)
(-1.73457e-09 4.29062e-09 -0.0394994)
(-1.88398e-09 3.69283e-09 -0.0360253)
(-1.92927e-09 2.73321e-09 -0.0295126)
(-1.87837e-09 1.42477e-09 -0.0214504)
(-1.74439e-09 -2.41362e-10 -0.0132319)
(-1.54202e-09 -2.13572e-09 -0.00604001)
(-1.2909e-09 -3.90082e-09 -0.000849318)
(-1.02089e-09 -5.04819e-09 0.00157552)
(-7.69356e-10 -5.2143e-09 0.000749)
(-5.67953e-10 -4.38037e-09 -0.00338489)
(-4.29025e-10 -2.87532e-09 -0.0102975)
(-3.44019e-10 -1.17696e-09 -0.0187908)
(-2.93452e-10 3.16026e-10 -0.0271292)
(-2.61229e-10 1.39549e-09 -0.033511)
(-2.42269e-10 2.02303e-09 -0.0366479)
(-2.39912e-10 2.24598e-09 -0.0361269)
(-2.58093e-10 2.11971e-09 -0.0323717)
(-2.94337e-10 1.67352e-09 -0.0262887)
(-3.37574e-10 9.2944e-10 -0.0189578)
(-3.71639e-10 -4.54963e-11 -0.0115125)
(-3.82168e-10 -1.09905e-09 -0.00505348)
(-3.62979e-10 -2.01236e-09 -0.000601924)
(-3.17647e-10 -2.57973e-09 0.00106356)
(-2.55022e-10 -2.70241e-09 -0.000521302)
(-1.83253e-10 -2.40746e-09 -0.00492485)
(-1.05868e-10 -1.86039e-09 -0.0124088)
(-3.1902e-11 -1.21318e-09 -0.016778)
(8.27136e-11 -4.35465e-10 -0.0303135)
(-6.05448e-17 -4.95276e-18 -0.0309119)
(-1.86099e-16 -7.86774e-18 -0.031997)
(-1.83818e-16 -8.09578e-18 -0.0326592)
(-2.31704e-16 -9.63561e-18 -0.0326412)
(-2.97034e-16 -1.1613e-17 -0.0319655)
(-3.06547e-16 -1.12459e-17 -0.030826)
(-3.1107e-16 -1.34977e-17 -0.0295047)
(-3.02464e-16 -2.07491e-17 -0.0282847)
(-2.53114e-16 3.45251e-15 -0.0273964)
(-2.98091e-16 -6.03969e-18 -0.027002)
(-3.99655e-16 -3.13288e-17 -0.0271446)
(-4.18883e-16 1.70171e-15 -0.0278442)
(-3.14816e-16 -7.68841e-18 -0.0289786)
(-1.50914e-16 -5.42669e-18 -0.0303594)
(-2.02103e-17 1.57514e-17 -0.0317747)
(-1.57938e-16 5.76863e-17 -0.0329964)
(-4.93686e-16 8.55904e-17 -0.0338285)
(-4.59786e-16 4.22166e-17 -0.034147)
(1.21141e-15 -8.97066e-17 -0.0339475)
(5.02824e-15 -1.96525e-16 -0.033267)
(7.80287e-15 -1.54892e-16 -0.0321734)
(6.84325e-15 -2.68899e-17 -0.030836)
(4.38709e-15 1.02866e-16 -0.0295369)
(1.86156e-15 1.52288e-16 -0.0285297)
(1.10006e-15 -3.52193e-16 -0.0279571)
(6.37931e-15 -9.22517e-17 -0.0278436)
(-7.27889e-15 7.43883e-15 -0.0281099)
(-8.42125e-14 1.67564e-15 -0.028611)
(9.35409e-14 -1.26108e-13 -0.0292213)
(1.22977e-12 -1.74407e-13 -0.029944)
(8.53247e-14 1.8682e-12 -0.0309543)
(-1.76743e-11 8.36897e-12 -0.0323981)
(-6.18731e-11 1.39518e-11 -0.0339805)
(-1.12491e-10 8.19764e-12 -0.0349873)
(-1.2754e-10 -5.57506e-12 -0.0348337)
(-9.01735e-11 -1.27284e-11 -0.0336222)
(-3.78123e-11 -9.60256e-12 -0.0320255)
(-7.3163e-12 -3.998e-12 -0.0306684)
(3.00945e-12 -1.02164e-12 -0.0298277)
(3.60295e-12 1.06191e-13 -0.0294424)
(-1.42486e-12 2.58537e-12 -0.0292688)
(-6.77159e-12 6.97808e-12 -0.029139)
(1.39928e-11 -1.08021e-12 -0.0292636)
(5.90054e-11 -6.94192e-11 -0.0302913)
(-1.11577e-10 -2.58053e-10 -0.0328408)
(-1.1799e-09 -5.1929e-10 -0.0365627)
(-3.57753e-09 -6.30174e-10 -0.0400342)
(-6.06064e-09 -3.82817e-10 -0.0424059)
(-6.54622e-09 1.29334e-10 -0.0436168)
(-4.78919e-09 5.33725e-10 -0.0431657)
(-2.39553e-09 5.80756e-10 -0.0408445)
(-6.72541e-10 3.96018e-10 -0.0376223)
(2.95246e-11 1.95674e-10 -0.0344732)
(1.2027e-10 4.0574e-11 -0.032113)
(1.63503e-10 -6.5812e-11 -0.0307959)
(3.61436e-10 -1.65361e-11 -0.0302566)
(-9.69599e-11 5.45919e-10 -0.0294442)
(-3.83786e-09 2.143e-09 -0.0258856)
(-1.50187e-08 4.9436e-09 -0.0158397)
(-3.64471e-08 8.00766e-09 0.00328309)
(-6.52489e-08 9.20146e-09 0.0294961)
(-9.18498e-08 6.70057e-09 0.0554538)
(-1.0467e-07 1.00412e-09 0.0713626)
(-9.74973e-08 -5.04088e-09 0.0699426)
(-7.39632e-08 -8.54828e-09 0.0511021)
(-4.48393e-08 -8.636e-09 0.0224742)
(-2.02645e-08 -6.38574e-09 -0.00545807)
(-4.96218e-09 -3.53409e-09 -0.0249875)
(1.7117e-09 -1.17937e-09 -0.0338889)
(2.4894e-09 8.13014e-10 -0.0340519)
(-1.26847e-09 3.42219e-09 -0.0284036)
(-1.06092e-08 7.4103e-09 -0.0191639)
(-2.7068e-08 1.23333e-08 -0.00789337)
(-4.96693e-08 1.63685e-08 0.0043588)
(-7.40424e-08 1.72245e-08 0.0182074)
(-9.45697e-08 1.35413e-08 0.0359443)
(-1.06668e-07 5.78201e-09 0.0579605)
(-1.07324e-07 -3.83853e-09 0.0789529)
(-9.5546e-08 -1.22976e-08 0.0892813)
(-7.37422e-08 -1.71852e-08 0.0815809)
(-4.7702e-08 -1.7619e-08 0.0567079)
(-2.4084e-08 -1.42262e-08 0.0234824)
(-7.5547e-09 -8.54296e-09 -0.00652827)
(2.25291e-10 -2.11393e-09 -0.0253687)
(-3.31698e-10 4.1012e-09 -0.0323513)
(-7.91403e-09 9.59472e-09 -0.0329885)
(-2.04932e-08 1.38115e-08 -0.0341417)
(-3.50588e-08 1.59859e-08 -0.0385808)
(-4.8249e-08 1.55284e-08 -0.0425031)
(-5.77581e-08 1.24311e-08 -0.0385222)
(-6.29135e-08 7.23017e-09 -0.0218745)
(-6.38095e-08 7.39323e-10 0.00533297)
(-6.02791e-08 -6.0817e-09 0.0345392)
(-5.20972e-08 -1.21449e-08 0.0550335)
(-4.00819e-08 -1.62281e-08 0.0596233)
(-2.64338e-08 -1.7141e-08 0.0477129)
(-1.40424e-08 -1.4291e-08 0.0249008)
(-5.46511e-09 -8.26473e-09 -0.000738063)
(-2.16643e-09 -7.81618e-10 -0.0236703)
(-4.1743e-09 6.07791e-09 -0.0433091)
(-1.01044e-08 1.07741e-08 -0.0617733)
(-1.76289e-08 1.27294e-08 -0.0792623)
(-2.44246e-08 1.22156e-08 -0.0916147)
(-2.91029e-08 9.95943e-09 -0.0928029)
(-3.14325e-08 6.70752e-09 -0.0795868)
(-3.1795e-08 2.94664e-09 -0.0539757)
(-3.0493e-08 -1.12718e-09 -0.0223635)
(-2.75441e-08 -5.41367e-09 0.00719051)
(-2.30257e-08 -9.53198e-09 0.0279349)
(-1.73893e-08 -1.2533e-08 0.0359882)
(-1.15244e-08 -1.31686e-08 0.030878)
(-6.57168e-09 -1.07334e-08 0.0148837)
(-3.53301e-09 -5.78497e-09 -0.00870896)
(-2.85915e-09 1.70816e-11 -0.0369791)
(-4.2469e-09 4.86372e-09 -0.0670715)
(-6.79726e-09 7.69933e-09 -0.0948236)
(-9.4779e-09 8.45044e-09 -0.114449)
(-1.15786e-08 7.66558e-09 -0.120703)
(-1.28587e-08 6.01208e-09 -0.111706)
(-1.33766e-08 3.94898e-09 -0.0898884)
(-1.32317e-08 1.634e-09 -0.0607084)
(-1.245e-08 -9.83806e-10 -0.0304217)
(-1.10511e-08 -3.89877e-09 -0.00428855)
(-9.13036e-09 -6.73458e-09 0.0138598)
(-6.92056e-09 -8.68878e-09 0.0216062)
(-4.79079e-09 -8.92545e-09 0.0178532)
(-3.13896e-09 -7.17779e-09 0.00276376)
(-2.22137e-09 -4.01803e-09 -0.0220264)
(-2.03877e-09 -5.28999e-10 -0.0529487)
(-2.3666e-09 2.31191e-09 -0.0843451)
(-2.90323e-09 4.03362e-09 -0.109428)
(-3.42247e-09 4.66512e-09 -0.122531)
(-3.83053e-09 4.48825e-09 -0.12124)
(-4.12125e-09 3.79018e-09 -0.10694)
(-4.29843e-09 2.73041e-09 -0.0837121)
(-4.33588e-09 1.33233e-09 -0.0565142)
(-4.19082e-09 -4.09537e-10 -0.0298099)
(-3.83255e-09 -2.36246e-09 -0.00728276)
(-3.27959e-09 -4.16138e-09 0.00807573)
(-2.61941e-09 -5.30896e-09 0.0139088)
(-1.98284e-09 -5.44076e-09 0.00877446)
(-1.4809e-09 -4.55053e-09 -0.00718787)
(-1.15103e-09 -2.98729e-09 -0.0315774)
(-9.55064e-10 -1.24475e-09 -0.0596487)
(-8.23938e-10 2.74633e-10 -0.0853191)
(-7.10907e-10 1.3699e-09 -0.103068)
(-6.1469e-10 2.01237e-09 -0.109661)
(-5.64577e-10 2.25389e-09 -0.104781)
(-5.87195e-10 2.14692e-09 -0.0904626)
(-6.80803e-10 1.71326e-09 -0.069913)
(-8.09437e-10 9.68093e-10 -0.0466324)
(-9.16946e-10 -2.31976e-11 -0.0240845)
(-9.53938e-10 -1.10338e-09 -0.0055575)
(-9.01296e-10 -2.04461e-09 0.0059579)
(-7.7456e-10 -2.63371e-09 0.00825055)
(-6.06717e-10 -2.76961e-09 0.000375736)
(-4.2523e-10 -2.48203e-09 -0.0157266)
(-2.38219e-10 -1.93606e-09 -0.0398533)
(-6.41544e-11 -1.30747e-09 -0.0531895)
(2.18073e-10 -4.92771e-10 -0.0906632)
(-1.74183e-18 -7.38831e-20 -0.0513542)
(-2.01025e-17 -4.38139e-20 -0.0531891)
(-3.77008e-17 1.67341e-19 -0.0543195)
(-6.18872e-17 7.07944e-19 -0.0543034)
(-7.75562e-17 -1.91498e-19 -0.0531618)
(-1.22695e-16 5.06495e-18 -0.0512031)
(-1.93856e-16 4.53373e-18 -0.0488891)
(4.04596e-17 -1.88236e-17 -0.0466932)
(-1.47109e-16 -3.25274e-18 -0.0450126)
(-9.43438e-16 6.3993e-17 -0.0441405)
(-1.01787e-15 5.97353e-17 -0.0441712)
(6.90111e-18 -4.22383e-17 -0.0452011)
(1.01967e-15 -1.30031e-16 -0.0470921)
(1.28309e-15 -1.01168e-16 -0.0496095)
(2.6877e-16 8.79427e-17 -0.0524747)
(-1.73496e-15 3.10172e-16 -0.0553394)
(-2.85401e-15 1.9639e-16 -0.0578405)
(-1.20388e-16 -8.10208e-16 -0.0596377)
(7.06525e-15 -2.70611e-15 -0.0604384)
(1.06972e-14 -3.28937e-15 -0.0599553)
(1.27517e-14 -9.21309e-16 -0.0579858)
(1.54628e-14 1.68696e-15 -0.0545966)
(1.16602e-14 2.46182e-15 -0.0502797)
(5.27758e-15 1.63335e-15 -0.0457866)
(1.01389e-14 -2.27852e-15 -0.041908)
(7.53764e-15 4.13166e-15 -0.0393224)
(-1.05545e-13 4.57272e-14 -0.0384752)
(1.30594e-13 -5.00751e-14 -0.0395398)
(1.15569e-12 -6.64007e-13 -0.0424977)
(-5.09586e-12 -6.54051e-15 -0.0472143)
(-1.89987e-11 9.52514e-12 -0.0533911)
(9.58828e-11 3.12933e-11 -0.0605597)
(5.72261e-10 4.78977e-11 -0.0677225)
(1.15063e-09 3.3104e-11 -0.0725079)
(1.17901e-09 -1.13366e-11 -0.0722639)
(6.72984e-10 -4.52767e-11 -0.0669128)
(2.02229e-10 -4.17689e-11 -0.0587361)
(7.38244e-12 -2.05864e-11 -0.0500277)
(-1.95925e-11 -5.58557e-12 -0.0424294)
(-1.20119e-11 2.1459e-12 -0.0370066)
(-1.94269e-11 5.88514e-12 -0.0343075)
(4.21128e-11 -5.35056e-12 -0.0347077)
(3.15761e-10 -3.26782e-11 -0.0387814)
(1.47289e-10 4.21627e-11 -0.0461911)
(-3.67099e-09 5.41272e-10 -0.0526021)
(-1.6638e-08 1.57352e-09 -0.0494156)
(-3.97626e-08 2.24486e-09 -0.0328669)
(-6.23597e-08 1.36411e-09 -0.0135865)
(-6.87082e-08 -6.02091e-10 -0.00829636)
(-5.45137e-08 -1.9203e-09 -0.020759)
(-3.10016e-08 -1.88044e-09 -0.0385226)
(-1.17227e-08 -1.08223e-09 -0.0484498)
(-1.73875e-09 -3.28954e-10 -0.0475614)
(1.21117e-09 -5.08226e-11 -0.0410022)
(1.40784e-09 -1.36625e-10 -0.0353717)
(1.17703e-09 1.25291e-10 -0.033775)
(-1.18703e-09 2.21905e-09 -0.0340483)
(-1.17832e-08 7.89761e-09 -0.0294599)
(-3.76805e-08 1.72422e-08 -0.0124033)
(-7.96002e-08 2.65584e-08 0.0197263)
(-1.28134e-07 2.93365e-08 0.0629514)
(-1.69163e-07 2.09707e-08 0.110176)
(-1.90525e-07 3.19452e-09 0.150257)
(-1.84153e-07 -1.60296e-08 0.166556)
(-1.49726e-07 -2.77863e-08 0.146874)
(-9.88844e-08 -2.85453e-08 0.0968758)
(-4.96464e-08 -2.13503e-08 0.0378734)
(-1.5116e-08 -1.1867e-08 -0.0087398)
(1.82586e-09 -4.03926e-09 -0.0335058)
(4.82183e-09 1.86458e-09 -0.0392334)
(-2.65082e-09 8.04799e-09 -0.0346008)
(-1.96008e-08 1.61371e-08 -0.0289161)
(-4.43015e-08 2.48531e-08 -0.0289419)
(-7.11148e-08 3.05259e-08 -0.0346435)
(-9.30222e-08 2.99703e-08 -0.0357254)
(-1.07093e-07 2.25198e-08 -0.017404)
(-1.15167e-07 9.56336e-09 0.0257893)
(-1.18616e-07 -6.35774e-09 0.08198)
(-1.14341e-07 -2.14446e-08 0.127494)
(-9.80071e-08 -3.12871e-08 0.141322)
(-7.07798e-08 -3.30815e-08 0.118396)
(-4.01965e-08 -2.72306e-08 0.07126)
(-1.53352e-08 -1.66502e-08 0.0207406)
(-2.1217e-09 -4.62207e-09 -0.0173905)
(-1.93635e-09 6.67192e-09 -0.0411286)
(-1.23261e-08 1.59323e-08 -0.0603295)
(-2.80503e-08 2.1935e-08 -0.0852404)
(-4.28222e-08 2.36577e-08 -0.114403)
(-5.2224e-08 2.11631e-08 -0.133115)
(-5.58418e-08 1.56936e-08 -0.125163)
(-5.64937e-08 8.5854e-09 -0.0860227)
(-5.70846e-08 4.20586e-10 -0.025673)
(-5.76978e-08 -8.50262e-09 0.0377302)
(-5.55221e-08 -1.70919e-08 0.0857416)
(-4.79194e-08 -2.32443e-08 0.106077)
(-3.52067e-08 -2.47841e-08 0.0963248)
(-2.08799e-08 -2.07237e-08 0.0638209)
(-9.6365e-09 -1.20064e-08 0.0202066)
(-4.8242e-09 -1.24123e-09 -0.0263663)
(-6.83036e-09 8.42905e-09 -0.0742131)
(-1.31348e-08 1.4632e-08 -0.12284)
(-1.99627e-08 1.65704e-08 -0.165406)
(-2.45307e-08 1.50042e-08 -0.188716)
(-2.6281e-08 1.14697e-08 -0.182208)
(-2.64322e-08 7.26028e-09 -0.14603)
(-2.65164e-08 2.86035e-09 -0.0904886)
(-2.70316e-08 -1.87218e-09 -0.0296871)
(-2.71001e-08 -7.03917e-09 0.023791)
(-2.53773e-08 -1.21011e-08 0.0609111)
(-2.12315e-08 -1.5736e-08 0.076415)
(-1.53845e-08 -1.63549e-08 0.069047)
(-9.62988e-09 -1.31548e-08 0.0409359)
(-5.80465e-09 -6.92861e-09 -0.00403744)
(-4.72592e-09 1.92215e-10 -0.0608658)
(-5.8363e-09 5.93662e-09 -0.121689)
(-7.76865e-09 9.04935e-09 -0.174285)
(-9.32804e-09 9.59182e-09 -0.205008)
(-1.01067e-08 8.41866e-09 -0.205615)
(-1.04112e-08 6.43143e-09 -0.177693)
(-1.07524e-08 4.12719e-09 -0.13075)
(-1.13283e-08 1.56583e-09 -0.0766386)
(-1.18455e-08 -1.38029e-09 -0.0252175)
(-1.17744e-08 -4.67856e-09 0.0167135)
(-1.07343e-08 -7.84468e-09 0.0444118)
(-8.79361e-09 -9.94232e-09 0.0543508)
(-6.49366e-09 -1.00548e-08 0.0441395)
(-4.54606e-09 -7.95195e-09 0.0133105)
(-3.41026e-09 -4.35201e-09 -0.0350762)
(-3.07299e-09 -5.06649e-10 -0.0928828)
(-3.17381e-09 2.51502e-09 -0.147357)
(-3.32425e-09 4.26297e-09 -0.185075)
(-3.34982e-09 4.8528e-09 -0.197577)
(-3.31783e-09 4.64001e-09 -0.184477)
(-3.3969e-09 3.92678e-09 -0.152005)
(-3.67685e-09 2.84053e-09 -0.108985)
(-4.07643e-09 1.37097e-09 -0.0634185)
(-4.38871e-09 -4.9303e-10 -0.0214178)
(-4.39974e-09 -2.59133e-09 0.0121938)
(-4.02266e-09 -4.50738e-09 0.033106)
(-3.35912e-09 -5.69656e-09 0.0374252)
(-2.63532e-09 -5.78356e-09 0.0227173)
(-2.05534e-09 -4.79628e-09 -0.0101004)
(-1.68712e-09 -3.13824e-09 -0.0552698)
(-1.46164e-09 -1.34051e-09 -0.102726)
(-1.26224e-09 1.93949e-10 -0.141283)
(-1.02118e-09 1.29086e-09 -0.162817)
(-7.58857e-10 1.94986e-09 -0.164673)
(-5.57071e-10 2.23223e-09 -0.149158)
(-4.95712e-10 2.17782e-09 -0.121224)
(-5.96321e-10 1.78464e-09 -0.086302)
(-8.03132e-10 1.04751e-09 -0.0494729)
(-1.00958e-09 2.67544e-11 -0.0155944)
(-1.11539e-09 -1.10688e-09 0.0104483)
(-1.07775e-09 -2.10205e-09 0.0239674)
(-9.21941e-10 -2.72702e-09 0.0215979)
(-7.08331e-10 -2.87708e-09 0.00269176)
(-4.87285e-10 -2.59171e-09 -0.0279832)
(-2.71417e-10 -2.04093e-09 -0.0686228)
(-8.0748e-11 -1.44133e-09 -0.0867898)
(2.61504e-10 -5.76577e-10 -0.138953)
(-5.76485e-17 5.96942e-18 -0.0715326)
(-1.84287e-16 1.01117e-17 -0.074144)
(-1.5597e-16 1.27965e-17 -0.075754)
(-2.05159e-16 1.02921e-17 -0.0757314)
(-1.19926e-16 1.8791e-17 -0.0741012)
(-5.31558e-16 4.69039e-17 -0.0712967)
(3.35185e-16 -9.50751e-17 -0.0679726)
(5.39144e-16 -4.41225e-17 -0.0648016)
(-3.53908e-15 2.20973e-15 -0.0623571)
(-2.62772e-15 4.2934e-16 -0.0610595)
(6.67567e-15 -2.24122e-15 -0.0610282)
(1.37548e-14 6.82942e-16 -0.0624459)
(1.24178e-14 -6.45781e-16 -0.0650893)
(3.71549e-15 3.70022e-16 -0.0686489)
(-9.36363e-15 1.52477e-15 -0.0727722)
(-1.91552e-14 1.61908e-15 -0.076976)
(-1.43721e-14 -7.21695e-16 -0.0807237)
(1.73236e-15 -4.91741e-15 -0.0834682)
(-8.63212e-14 -5.49849e-15 -0.0847845)
(-4.44005e-13 -3.03973e-15 -0.0842889)
(-7.03879e-13 -2.5377e-15 -0.0816187)
(-5.02584e-13 5.18824e-16 -0.0767262)
(-2.19496e-13 5.19548e-15 -0.0702328)
(-6.05385e-14 9.12939e-16 -0.0632209)
(3.37563e-14 -1.48223e-15 -0.0569003)
(-2.20099e-13 5.775e-14 -0.0524151)
(-2.59785e-13 -5.40891e-14 -0.0506783)
(4.18519e-12 -6.28942e-13 -0.0522012)
(-6.42416e-13 2.48712e-12 -0.0570265)
(-7.44183e-11 9.90279e-12 -0.0647213)
(-4.42291e-11 -4.86211e-11 -0.0748271)
(1.12817e-09 -2.87261e-10 -0.0880601)
(4.41382e-09 -5.1342e-10 -0.104385)
(8.21447e-09 -2.95178e-10 -0.117936)
(9.10342e-09 2.33246e-10 -0.119549)
(6.25354e-09 4.75663e-10 -0.107402)
(2.56903e-09 3.23198e-10 -0.0889099)
(4.72351e-10 1.06913e-10 -0.0712268)
(-1.54034e-10 8.6755e-12 -0.0568827)
(-1.83344e-10 2.33898e-14 -0.046708)
(-9.33752e-11 -2.44787e-11 -0.0415575)
(3.78176e-10 -1.60616e-10 -0.0428274)
(1.26292e-09 -5.36681e-11 -0.0511851)
(-1.40154e-09 1.92396e-09 -0.0608553)
(-1.93098e-08 8.13458e-09 -0.0534454)
(-6.51941e-08 1.75265e-08 -0.00762229)
(-1.34452e-07 2.22307e-08 0.0741924)
(-1.98361e-07 1.409e-08 0.15584)
(-2.21519e-07 -3.79371e-09 0.189965)
(-1.88964e-07 -1.83196e-08 0.154449)
(-1.20672e-07 -2.08147e-08 0.0736681)
(-5.43614e-08 -1.42354e-08 -0.00313269)
(-1.3173e-08 -6.27124e-09 -0.044977)
(2.86309e-09 -1.53272e-09 -0.0533103)
(5.35532e-09 -4.87437e-11 -0.0470392)
(3.18122e-09 1.2809e-09 -0.0411088)
(-4.71012e-09 7.02604e-09 -0.0368345)
(-2.66437e-08 2.03897e-08 -0.0273484)
(-6.67703e-08 3.88521e-08 -0.00955279)
(-1.15239e-07 5.32342e-08 0.0134468)
(-1.55407e-07 5.39828e-08 0.0456384)
(-1.80963e-07 3.7896e-08 0.101066)
(-1.97077e-07 8.49903e-09 0.179872)
(-2.03833e-07 -2.54404e-08 0.250656)
(-1.89273e-07 -5.11824e-08 0.269584)
(-1.46073e-07 -5.86756e-08 0.219503)
(-8.69488e-08 -4.827e-08 0.126496)
(-3.43545e-08 -2.92702e-08 0.0354811)
(-2.83415e-09 -1.11483e-08 -0.0227931)
(5.61776e-09 3.05135e-09 -0.0448225)
(-4.70634e-09 1.56335e-08 -0.0478812)
(-2.75771e-08 2.82356e-08 -0.0565726)
(-5.37371e-08 3.80903e-08 -0.0866961)
(-7.20424e-08 4.07289e-08 -0.129255)
(-7.647e-08 3.52136e-08 -0.150427)
(-7.10767e-08 2.46137e-08 -0.118299)
(-6.64898e-08 1.15437e-08 -0.0315489)
(-7.06826e-08 -4.25181e-09 0.0792609)
(-8.10596e-08 -2.26021e-08 0.172117)
(-8.56834e-08 -3.89656e-08 0.21445)
(-7.49346e-08 -4.65243e-08 0.1968)
(-5.07136e-08 -4.19484e-08 0.135253)
(-2.42528e-08 -2.75804e-08 0.0599888)
(-7.31783e-09 -8.81337e-09 -0.00499101)
(-5.24357e-09 9.20339e-09 -0.0566901)
(-1.51329e-08 2.26517e-08 -0.108982)
(-2.85462e-08 2.90596e-08 -0.170782)
(-3.702e-08 2.80728e-08 -0.227267)
(-3.71168e-08 2.20382e-08 -0.246682)
(-3.13837e-08 1.45659e-08 -0.20822)
(-2.55152e-08 7.85157e-09 -0.120331)
(-2.45212e-08 1.34138e-09 -0.012773)
(-2.95306e-08 -6.86292e-09 0.0834854)
(-3.66182e-08 -1.70341e-08 0.148003)
(-3.9514e-08 -2.63858e-08 0.171596)
(-3.46541e-08 -3.06608e-08 0.154954)
(-2.40398e-08 -2.70761e-08 0.107304)
(-1.34922e-08 -1.62926e-08 0.0409762)
(-8.14176e-09 -2.18469e-09 -0.036096)
(-8.95311e-09 1.02332e-08 -0.120751)
(-1.28063e-08 1.73403e-08 -0.204795)
(-1.55753e-08 1.84274e-08 -0.267325)
(-1.52243e-08 1.53748e-08 -0.283397)
(-1.25154e-08 1.09102e-08 -0.243172)
(-9.73896e-09 6.8252e-09 -0.16059)
(-9.07943e-09 3.24631e-09 -0.0633547)
(-1.13487e-08 -8.35347e-10 0.0238447)
(-1.53626e-08 -6.24081e-09 0.0877983)
(-1.85498e-08 -1.24663e-08 0.124221)
(-1.87128e-08 -1.75294e-08 0.132358)
(-1.56421e-08 -1.89694e-08 0.112399)
(-1.1184e-08 -1.55234e-08 0.065199)
(-7.69925e-09 -8.23695e-09 -0.00678859)
(-6.29524e-09 3.29087e-11 -0.096461)
(-6.35011e-09 6.38508e-09 -0.187753)
(-6.49279e-09 9.4452e-09 -0.256261)
(-5.85838e-09 9.61944e-09 -0.279777)
(-4.5506e-09 8.20716e-09 -0.251872)
(-3.32541e-09 6.33494e-09 -0.185564)
(-3.02275e-09 4.40755e-09 -0.104024)
(-4.04057e-09 2.18059e-09 -0.0275042)
(-6.01809e-09 -7.60742e-10 0.0332808)
(-7.96563e-09 -4.45438e-09 0.0751126)
(-8.8661e-09 -8.225e-09 0.0970654)
(-8.34419e-09 -1.08091e-08 0.0969765)
(-6.86919e-09 -1.10492e-08 0.0713226)
(-5.32025e-09 -8.71949e-09 0.0183661)
(-4.30622e-09 -4.75457e-09 -0.0569522)
(-3.83814e-09 -6.47226e-10 -0.139735)
(-3.54008e-09 2.43754e-09 -0.207837)
(-3.06782e-09 4.12163e-09 -0.241596)
(-2.35795e-09 4.66192e-09 -0.233991)
(-1.62258e-09 4.51179e-09 -0.192859)
(-1.19394e-09 3.96969e-09 -0.134167)
(-1.31347e-09 3.07017e-09 -0.0728744)
(-1.95631e-09 1.68826e-09 -0.0180061)
(-2.80796e-09 -2.47884e-10 0.0263665)
(-3.44302e-09 -2.54549e-09 0.057765)
(-3.58756e-09 -4.68169e-09 0.0725993)
(-3.27347e-09 -6.00263e-09 0.0660282)
(-2.76488e-09 -6.09265e-09 0.0347639)
(-2.33068e-09 -5.02464e-09 -0.0186565)
(-2.06748e-09 -3.28414e-09 -0.083363)
(-1.89545e-09 -1.45718e-09 -0.142546)
(-1.67495e-09 5.44039e-11 -0.180651)
(-1.32554e-09 1.11821e-09 -0.190387)
(-8.77978e-10 1.78031e-09 -0.174378)
(-4.56303e-10 2.12232e-09 -0.141185)
(-2.07447e-10 2.16655e-09 -0.099764)
(-2.10502e-10 1.86697e-09 -0.0564597)
(-4.23055e-10 1.17472e-09 -0.0154177)
(-7.0347e-10 1.32933e-10 0.0195177)
(-8.95979e-10 -1.0693e-09 0.0433726)
(-9.19012e-10 -2.14134e-09 0.0504195)
(-7.92494e-10 -2.81842e-09 0.0366479)
(-5.94495e-10 -2.98694e-09 0.00270569)
(-3.9636e-10 -2.70049e-09 -0.0421078)
(-2.1953e-10 -2.13933e-09 -0.0939409)
(-8.41025e-11 -1.57393e-09 -0.105591)
(2.05707e-10 -6.63898e-10 -0.156743)
(6.18679e-17 1.85562e-15 -0.0912848)
(2.20932e-16 1.78384e-15 -0.0947122)
(1.66242e-16 1.06034e-17 -0.0968255)
(3.58106e-16 1.71741e-15 -0.096793)
(1.93036e-16 1.89773e-15 -0.0946411)
(-2.24853e-16 1.51223e-15 -0.0909323)
(5.66366e-15 -5.30817e-16 -0.0865242)
(-1.34144e-14 1.94541e-15 -0.0822988)
(-6.25321e-15 1.58018e-15 -0.0790213)
(5.29755e-14 -8.55348e-15 -0.0772427)
(7.21582e-14 -8.12814e-15 -0.0770748)
(2.97512e-14 -2.89976e-15 -0.0788437)
(-3.42859e-14 4.88624e-15 -0.082235)
(-1.02285e-13 1.07896e-14 -0.0868393)
(-1.51867e-13 1.15233e-14 -0.092218)
(-1.47936e-13 4.54915e-15 -0.0977259)
(-6.12666e-14 -8.51267e-15 -0.102682)
(-4.82956e-14 3.51643e-14 -0.106433)
(-6.59647e-13 2.21897e-13 -0.108392)
(-1.15308e-12 3.07224e-13 -0.107964)
(-1.50392e-12 2.8368e-14 -0.104619)
(-2.16661e-12 -2.40504e-13 -0.0982325)
(-1.82179e-12 -2.18561e-13 -0.0896766)
(-8.76172e-13 -1.24993e-13 -0.0804073)
(-3.68e-13 7.75017e-14 -0.0719526)
(-1.46887e-12 1.49168e-13 -0.0658161)
(2.97822e-12 -2.15692e-12 -0.063313)
(1.56867e-11 1.4124e-13 -0.0652309)
(-5.17425e-11 3.86377e-11 -0.0715545)
(-1.95204e-10 2.17868e-11 -0.0818249)
(4.29206e-10 -5.91769e-10 -0.096579)
(2.53232e-09 -2.19773e-09 -0.116515)
(4.11456e-09 -3.49525e-09 -0.137304)
(4.82296e-09 -2.3117e-09 -0.153005)
(7.16989e-09 9.6913e-10 -0.159197)
(8.61378e-09 3.22191e-09 -0.149254)
(6.13129e-09 2.84882e-09 -0.12447)
(2.44553e-09 1.34094e-09 -0.0963348)
(1.33725e-10 3.2226e-10 -0.0728639)
(-5.56344e-10 -2.81851e-11 -0.0570046)
(-2.14744e-10 -2.74877e-10 -0.0499289)
(1.37263e-09 -6.83502e-10 -0.0533906)
(2.11682e-09 8.57182e-10 -0.0646523)
(-1.01458e-08 1.03285e-08 -0.0648734)
(-5.62315e-08 3.24375e-08 -0.0211828)
(-1.4241e-07 5.91448e-08 0.0818433)
(-2.4387e-07 6.88282e-08 0.222322)
(-3.26406e-07 4.48975e-08 0.362765)
(-3.65978e-07 -5.30052e-09 0.457155)
(-3.42849e-07 -5.23442e-08 0.450386)
(-2.55091e-07 -6.91817e-08 0.327741)
(-1.40312e-07 -5.48315e-08 0.152591)
(-4.86197e-08 -2.89412e-08 0.0125203)
(-1.45649e-09 -9.31498e-09 -0.0540198)
(1.13712e-08 -2.95691e-10 -0.0650764)
(6.72199e-09 5.15801e-09 -0.0541739)
(-1.09238e-08 1.71315e-08 -0.0405094)
(-4.47284e-08 3.89277e-08 -0.0345906)
(-8.70053e-08 6.15397e-08 -0.0499521)
(-1.15809e-07 7.08769e-08 -0.0839754)
(-1.17132e-07 6.21988e-08 -0.0927581)
(-1.02362e-07 4.18057e-08 -0.0230061)
(-9.76828e-08 1.46296e-08 0.125729)
(-1.17099e-07 -1.99318e-08 0.289636)
(-1.44116e-07 -5.66662e-08 0.385854)
(-1.45896e-07 -7.97075e-08 0.367727)
(-1.10418e-07 -7.72096e-08 0.255098)
(-5.70935e-08 -5.39243e-08 0.114281)
(-1.43158e-08 -2.40254e-08 0.0069292)
(2.00141e-09 2.80068e-09 -0.0474406)
(-7.69019e-09 2.46454e-08 -0.0744904)
(-3.13737e-08 4.06525e-08 -0.118542)
(-5.18411e-08 4.70858e-08 -0.199455)
(-5.60714e-08 4.18924e-08 -0.2823)
(-4.30942e-08 2.94874e-08 -0.298539)
(-2.25457e-08 1.75297e-08 -0.208592)
(-7.39411e-09 9.36628e-09 -0.0381346)
(-7.75616e-09 9.27121e-10 0.145478)
(-2.50049e-08 -1.39442e-08 0.280156)
(-4.77951e-08 -3.43496e-08 0.33383)
(-5.89442e-08 -5.05663e-08 0.305001)
(-5.06159e-08 -5.25715e-08 0.217751)
(-3.05813e-08 -3.83481e-08 0.109543)
(-1.38419e-08 -1.41267e-08 0.0083797)
(-9.80845e-09 1.05795e-08 -0.0845582)
(-1.63237e-08 2.75836e-08 -0.184669)
(-2.38013e-08 3.28786e-08 -0.289785)
(-2.4294e-08 2.7943e-08 -0.36097)
(-1.68801e-08 1.8345e-08 -0.34864)
(-5.96359e-09 9.8928e-09 -0.238837)
(2.95752e-09 5.15412e-09 -0.0685839)
(5.53555e-09 2.42831e-09 0.101181)
(-2.26701e-10 -2.45411e-09 0.223641)
(-1.20319e-08 -1.21002e-08 0.28225)
(-2.31365e-08 -2.42264e-08 0.281856)
(-2.70383e-08 -3.25212e-08 0.235579)
(-2.29026e-08 -3.13047e-08 0.157532)
(-1.57104e-08 -1.99554e-08 0.0580653)
(-1.10787e-08 -3.51077e-09 -0.0585708)
(-1.03611e-08 1.07613e-08 -0.18674)
(-1.07476e-08 1.79431e-08 -0.304155)
(-9.12696e-09 1.77794e-08 -0.369911)
(-4.91331e-09 1.34743e-08 -0.349015)
(3.24717e-10 8.72706e-09 -0.241705)
(4.49583e-09 5.54227e-09 -0.0866328)
(5.86202e-09 3.6652e-09 0.0637602)
(3.44349e-09 1.26941e-09 0.172228)
(-2.2075e-09 -3.43861e-09 0.228216)
(-8.58527e-09 -1.04261e-08 0.239208)
(-1.26331e-08 -1.71899e-08 0.216377)
(-1.30226e-08 -2.01193e-08 0.165521)
(-1.09626e-08 -1.71262e-08 0.0863405)
(-8.68051e-09 -9.37297e-09 -0.0213927)
(-7.3079e-09 -4.82355e-10 -0.147467)
(-6.37778e-09 6.0354e-09 -0.263621)
(-4.9603e-09 8.80349e-09 -0.330281)
(-2.75271e-09 8.62073e-09 -0.31936)
(-1.75544e-10 7.15217e-09 -0.23423)
(2.03386e-09 5.6675e-09 -0.108031)
(3.10556e-09 4.48477e-09 0.0169936)
(2.4716e-09 3.0635e-09 0.111261)
(1.78378e-10 5.82245e-10 0.166032)
(-2.8473e-09 -3.25455e-09 0.186814)
(-5.27294e-09 -7.6554e-09 0.181865)
(-6.26908e-09 -1.09408e-08 0.153791)
(-6.00985e-09 -1.15667e-08 0.0989322)
(-5.29033e-09 -9.23343e-09 0.014491)
(-4.72173e-09 -5.09306e-09 -0.091134)
(-4.34329e-09 -8.8972e-10 -0.193213)
(-3.86164e-09 2.12986e-09 -0.25855)
(-3.04941e-09 3.67191e-09 -0.264126)
(-1.91752e-09 4.13018e-09 -0.211286)
(-6.88993e-10 4.05801e-09 -0.12344)
(2.76357e-10 3.77223e-09 -0.0307467)
(6.12876e-10 3.22172e-09 0.0451969)
(1.7572e-10 2.11821e-09 0.096876)
(-7.94668e-10 2.50325e-10 0.126378)
(-1.79413e-09 -2.20153e-09 0.13757)
(-2.39179e-09 -4.59216e-09 0.130142)