/*--------------------------------*- C++ -*----------------------------------*\
  =========                 |
  \\      /  F ield         | OpenFOAM: The Open Source CFD Toolbox
   \\    /   O peration     | Website:  https://openfoam.org
    \\  /    A nd           | Version:  11
     \\/     M anipulation  |
\*---------------------------------------------------------------------------*/
FoamFile
{
    format      ascii;
    class       volScalarField;
    location    "3.82685";
    object      p;
}
// * * * * * * * * * * * * * * * * * * * * * * * * * * * * * * * * * * * * * //

dimensions      [0 2 -2 0 0 0 0];

internalField   nonuniform List<scalar> 
7132
(
0.0506575
0.0492017
0.0442903
0.0370943
0.0270023
0.0136752
-0.00302737
-0.0231894
-0.0464035
-0.0718527
-0.0982774
-0.123936
-0.147823
-0.168965
-0.186594
-0.200179
-0.209279
-0.213586
-0.212973
-0.207558
-0.197769
-0.184351
-0.168291
-0.150691
-0.132614
-0.114957
-0.0983889
-0.0833353
-0.0700092
-0.0584568
-0.0486085
-0.0403238
-0.0334264
-0.0277289
-0.0230494
-0.0192206
-0.0160943
-0.013543
-0.011459
-0.00975285
-0.0083513
-0.00719471
-0.00623499
-0.0054336
-0.00475973
-0.00418886
-0.00370152
-0.00328222
-0.00291867
-0.00260113
-0.00232183
-0.00207458
-0.00185444
-0.00165746
-0.00148048
-0.00132092
-0.00117673
-0.00104623
-0.000928056
-0.000821065
-0.000724292
-0.00063685
-0.000557853
-0.000486354
-0.00042134
-0.000361809
-0.000306958
-0.000256396
-0.000210269
-0.000169154
-0.000133715
-0.000104275
-8.05839e-05
-6.1898e-05
-4.72912e-05
-3.5945e-05
-2.72462e-05
-2.07182e-05
-1.59146e-05
-1.23889e-05
-9.73952e-06
-7.66607e-06
-5.98672e-06
-4.61189e-06
-3.50029e-06
-2.62407e-06
-1.95232e-06
-1.44928e-06
-1.0787e-06
-8.08231e-07
-6.11444e-07
-4.68036e-07
-3.62971e-07
-2.85421e-07
-2.27722e-07
-1.8451e-07
-1.51999e-07
-1.27477e-07
-1.08942e-07
-9.48856e-08
-8.41544e-08
-7.58732e-08
-6.93876e-08
-6.42155e-08
-6.00123e-08
-5.65256e-08
-5.35801e-08
-5.10394e-08
-4.88129e-08
-4.68207e-08
-4.50176e-08
-4.33535e-08
-4.18096e-08
-4.03515e-08
-3.8976e-08
-3.76561e-08
-3.6398e-08
-3.51775e-08
-3.40067e-08
-3.28622e-08
-3.17604e-08
-3.06771e-08
-2.96322e-08
-2.86001e-08
-2.76037e-08
-2.66156e-08
-2.56614e-08
-2.47116e-08
-2.37944e-08
-2.28785e-08
-2.1994e-08
-2.1108e-08
-2.02526e-08
-1.93931e-08
-1.85636e-08
-1.77275e-08
-1.69209e-08
-1.61055e-08
-1.53191e-08
-1.4522e-08
-1.37534e-08
-1.29722e-08
-1.22192e-08
-1.14518e-08
-1.07124e-08
-9.95689e-09
-9.22931e-09
-8.48358e-09
-7.76666e-09
-7.02816e-09
-6.32184e-09
-5.58596e-09
-4.89347e-09
-4.1498e-09
-3.48343e-09
-2.70675e-09
-2.10177e-09
-1.23056e-09
-7.5715e-10
2.87329e-10
0.051238
0.0497946
0.044927
0.037778
0.0277262
0.0144055
-0.00234916
-0.0226593
-0.0461166
-0.0718995
-0.0986754
-0.124587
-0.148671
-0.169952
-0.187676
-0.201332
-0.210478
-0.214801
-0.214158
-0.208655
-0.198717
-0.185096
-0.168804
-0.150969
-0.132681
-0.114853
-0.0981617
-0.0830315
-0.0696684
-0.0581095
-0.0482759
-0.0400188
-0.0331557
-0.0274945
-0.0228504
-0.0190541
-0.0159566
-0.0134301
-0.0113671
-0.00967849
-0.00829128
-0.00714635
-0.00619604
-0.00540219
-0.00473435
-0.0041683
-0.00368477
-0.00326851
-0.00290739
-0.00259177
-0.002314
-0.00206797
-0.0018488
-0.00165261
-0.00147624
-0.00131719
-0.00117341
-0.00104324
-0.000925327
-0.000818564
-0.000721993
-0.000634742
-0.000555934
-0.000484623
-0.00041979
-0.000360422
-0.000305703
-0.000255233
-0.000209162
-0.000168086
-0.000132688
-0.000103312
-7.97122e-05
-6.1137e-05
-4.66439e-05
-3.54003e-05
-2.67871e-05
-2.03298e-05
-1.5588e-05
-1.21202e-05
-9.52573e-06
-7.5026e-06
-5.86672e-06
-4.52725e-06
-3.44281e-06
-2.58634e-06
-1.92808e-06
-1.4336e-06
-1.06802e-06
-8.0028e-07
-6.04997e-07
-4.62572e-07
-3.58348e-07
-2.81633e-07
-2.24757e-07
-1.82298e-07
-1.50417e-07
-1.26378e-07
-1.08184e-07
-9.43553e-08
-8.37717e-08
-7.55882e-08
-6.91715e-08
-6.40515e-08
-5.98895e-08
-5.64348e-08
-5.35139e-08
-5.0991e-08
-4.87775e-08
-4.67943e-08
-4.49979e-08
-4.33383e-08
-4.17981e-08
-4.03424e-08
-3.89692e-08
-3.76505e-08
-3.63938e-08
-3.51737e-08
-3.4004e-08
-3.28595e-08
-3.17585e-08
-3.0675e-08
-2.96309e-08
-2.85985e-08
-2.76028e-08
-2.66143e-08
-2.56607e-08
-2.47105e-08
-2.37939e-08
-2.28774e-08
-2.19937e-08
-2.11071e-08
-2.02524e-08
-1.93923e-08
-1.85635e-08
-1.77268e-08
-1.69209e-08
-1.61048e-08
-1.53192e-08
-1.45214e-08
-1.37536e-08
-1.29716e-08
-1.22195e-08
-1.14513e-08
-1.07128e-08
-9.95643e-09
-9.22974e-09
-8.48317e-09
-7.76717e-09
-7.02781e-09
-6.32245e-09
-5.58564e-09
-4.89429e-09
-4.14936e-09
-3.48492e-09
-2.70544e-09
-2.10655e-09
-1.22416e-09
-7.80129e-10
3.28825e-10
0.0523936
0.0509766
0.0461983
0.0391481
0.0291821
0.0158805
-0.000972845
-0.0215793
-0.0455292
-0.0719972
-0.0994922
-0.125912
-0.150386
-0.171943
-0.189854
-0.203649
-0.21289
-0.21725
-0.216555
-0.210881
-0.200643
-0.186613
-0.169847
-0.151533
-0.132814
-0.11464
-0.0977002
-0.0824164
-0.0689802
-0.0574097
-0.0476068
-0.0394064
-0.0326129
-0.0270251
-0.0224521
-0.0187212
-0.0156816
-0.0132049
-0.0111839
-0.00953021
-0.00817163
-0.00704996
-0.00611842
-0.00533963
-0.00468382
-0.00412734
-0.00365144
-0.00324124
-0.00288493
-0.00257315
-0.00229843
-0.00205483
-0.00183761
-0.00164297
-0.00146786
-0.00130981
-0.00116683
-0.00103732
-0.000919948
-0.000813644
-0.000717485
-0.000630631
-0.000552226
-0.000481331
-0.00041691
-0.000357919
-0.000303499
-0.000253222
-0.000207238
-0.000166171
-0.000130764
-0.000101415
-7.79124e-05
-5.95052e-05
-4.52279e-05
-3.42162e-05
-2.58252e-05
-1.95669e-05
-1.49963e-05
-1.16706e-05
-9.18916e-06
-7.25133e-06
-5.67696e-06
-4.38132e-06
-3.32926e-06
-2.49827e-06
-1.86089e-06
-1.38343e-06
-1.03122e-06
-7.7353e-07
-5.85517e-07
-4.48237e-07
-3.47647e-07
-2.7355e-07
-2.18625e-07
-1.77666e-07
-1.46958e-07
-1.23832e-07
-1.06334e-07
-9.30197e-08
-8.28081e-08
-7.4889e-08
-6.866e-08
-6.36747e-08
-5.96111e-08
-5.62292e-08
-5.33626e-08
-5.08797e-08
-4.86959e-08
-4.67341e-08
-4.49535e-08
-4.33052e-08
-4.17735e-08
-4.03238e-08
-3.89552e-08
-3.76397e-08
-3.63856e-08
-3.51672e-08
-3.39989e-08
-3.28553e-08
-3.17552e-08
-3.06721e-08
-2.96286e-08
-2.85964e-08
-2.76011e-08
-2.66126e-08
-2.56593e-08
-2.4709e-08
-2.37928e-08
-2.28762e-08
-2.19927e-08
-2.1106e-08
-2.02516e-08
-1.93913e-08
-1.85628e-08
-1.77259e-08
-1.69203e-08
-1.6104e-08
-1.53187e-08
-1.45206e-08
-1.37531e-08
-1.2971e-08
-1.22191e-08
-1.14507e-08
-1.07124e-08
-9.95587e-09
-9.22947e-09
-8.48267e-09
-7.76697e-09
-7.02735e-09
-6.32239e-09
-5.58519e-09
-4.89456e-09
-4.14863e-09
-3.48647e-09
-2.70311e-09
-2.1142e-09
-1.21244e-09
-8.19931e-10
4.00254e-10
0.0541141
0.0527388
0.0481012
0.0412097
0.0313865
0.0181293
0.00114136
-0.0199098
-0.0446151
-0.0721588
-0.100775
-0.127957
-0.153012
-0.174973
-0.193157
-0.207161
-0.216548
-0.220966
-0.220194
-0.214259
-0.203562
-0.188903
-0.17141
-0.152365
-0.13299
-0.114292
-0.0969801
-0.0814693
-0.0679284
-0.0563457
-0.0465939
-0.0384824
-0.0317963
-0.0263207
-0.0218557
-0.0182235
-0.015271
-0.0128691
-0.0109111
-0.00930952
-0.00799367
-0.00690667
-0.00600306
-0.00524665
-0.00460871
-0.00406646
-0.00360187
-0.00320066
-0.0028515
-0.0025454
-0.0022752
-0.00203522
-0.00182089
-0.00162856
-0.0014553
-0.00129874
-0.00115697
-0.00102842
-0.000911846
-0.000806214
-0.000710656
-0.000624374
-0.000546545
-0.000476241
-0.000412404
-0.000353946
-0.000299951
-0.000249951
-0.000204096
-0.00016306
-0.000127662
-9.83827e-05
-7.50554e-05
-5.69305e-05
-4.30062e-05
-3.23711e-05
-2.43407e-05
-1.84054e-05
-1.41108e-05
-1.10112e-05
-8.70551e-06
-6.89634e-06
-5.41141e-06
-4.17713e-06
-3.16904e-06
-2.37213e-06
-1.76267e-06
-1.30815e-06
-9.74256e-07
-7.30702e-07
-5.53373e-07
-4.24104e-07
-3.29535e-07
-2.59989e-07
-2.0852e-07
-1.70187e-07
-1.41462e-07
-1.19817e-07
-1.03411e-07
-9.08919e-08
-8.12557e-08
-7.37525e-08
-6.78259e-08
-6.30617e-08
-5.9161e-08
-5.58991e-08
-5.31211e-08
-5.0703e-08
-4.85668e-08
-4.66394e-08
-4.48842e-08
-4.32542e-08
-4.17362e-08
-4.02962e-08
-3.89351e-08
-3.76247e-08
-3.63748e-08
-3.5159e-08
-3.39931e-08
-3.28507e-08
-3.17522e-08
-3.06696e-08
-2.9627e-08
-2.85949e-08
-2.76003e-08
-2.66117e-08
-2.5659e-08
-2.47085e-08
-2.37927e-08
-2.28758e-08
-2.19928e-08
-2.11057e-08
-2.02518e-08
-1.93911e-08
-1.85631e-08
-1.77257e-08
-1.69206e-08
-1.61039e-08
-1.5319e-08
-1.45205e-08
-1.37535e-08
-1.29708e-08
-1.22195e-08
-1.14506e-08
-1.07129e-08
-9.9558e-09
-9.22998e-09
-8.48262e-09
-7.76754e-09
-7.02732e-09
-6.32309e-09
-5.58511e-09
-4.89569e-09
-4.14816e-09
-3.4893e-09
-2.70042e-09
-2.12479e-09
-1.19744e-09
-8.69566e-10
4.88082e-10
0.0563829
0.0550671
0.0506298
0.0439693
0.0343634
0.021197
0.00405656
-0.0175857
-0.0433292
-0.0724031
-0.1026
-0.130792
-0.156611
-0.179091
-0.197622
-0.211901
-0.221496
-0.226015
-0.225164
-0.218894
-0.207576
-0.19205
-0.173548
-0.153486
-0.133207
-0.113791
-0.0959765
-0.0801652
-0.0664916
-0.0549012
-0.0452256
-0.0372396
-0.0307019
-0.0253796
-0.021061
-0.0175619
-0.0147262
-0.0124242
-0.01055
-0.00901777
-0.00775858
-0.00671749
-0.00585082
-0.00512398
-0.00450962
-0.00398615
-0.00353648
-0.00314712
-0.00280737
-0.00250876
-0.00224454
-0.00200931
-0.00179879
-0.0016095
-0.00143868
-0.00128409
-0.00114389
-0.00101662
-0.000901088
-0.000796334
-0.000701552
-0.000616005
-0.000538913
-0.000469362
-0.000406273
-0.000348501
-0.000295062
-0.000245438
-0.000199775
-0.000158805
-0.000123448
-9.42847e-05
-7.12091e-05
-5.34728e-05
-4.00301e-05
-2.99103e-05
-2.23776e-05
-1.68907e-05
-1.29788e-05
-1.01877e-05
-8.11448e-06
-6.46725e-06
-5.08798e-06
-3.9219e-06
-2.96171e-06
-2.20354e-06
-1.62819e-06
-1.2036e-06
-8.94802e-07
-6.71259e-07
-5.09294e-07
-3.91541e-07
-3.05486e-07
-2.42202e-07
-1.95349e-07
-1.60437e-07
-1.34263e-07
-1.14522e-07
-9.95308e-08
-8.80571e-08
-7.91868e-08
-7.22416e-08
-6.6721e-08
-6.22523e-08
-5.85675e-08
-5.54638e-08
-5.2802e-08
-5.04692e-08
-4.83955e-08
-4.65139e-08
-4.47923e-08
-4.31866e-08
-4.16866e-08
-4.02596e-08
-3.89082e-08
-3.76047e-08
-3.63601e-08
-3.51479e-08
-3.39851e-08
-3.28445e-08
-3.17477e-08
-3.0666e-08
-2.96245e-08
-2.85927e-08
-2.75988e-08
-2.66103e-08
-2.56581e-08
-2.47075e-08
-2.37922e-08
-2.28751e-08
-2.19926e-08
-2.11052e-08
-2.02517e-08
-1.93906e-08
-1.8563e-08
-1.77253e-08
-1.69206e-08
-1.61035e-08
-1.53191e-08
-1.45202e-08
-1.37536e-08
-1.29706e-08
-1.22196e-08
-1.14504e-08
-1.07131e-08
-9.95558e-09
-9.23018e-09
-8.48242e-09
-7.76781e-09
-7.02713e-09
-6.32352e-09
-5.58487e-09
-4.89662e-09
-4.14743e-09
-3.49219e-09
-2.69715e-09
-2.13618e-09
-1.18077e-09
-9.20313e-10
5.77605e-10
0.0591766
0.0579414
0.0537743
0.0474343
0.0381442
0.0251443
0.0078608
-0.014514
-0.0416063
-0.072765
-0.105084
-0.134522
-0.161274
-0.184371
-0.203311
-0.21793
-0.227793
-0.232456
-0.231516
-0.224823
-0.212705
-0.196054
-0.176239
-0.154858
-0.133413
-0.113085
-0.0946402
-0.0784627
-0.0646378
-0.0530538
-0.0434878
-0.0356703
-0.029327
-0.0242021
-0.0200703
-0.0167396
-0.0140508
-0.0118739
-0.0101042
-0.00865804
-0.00746902
-0.00648464
-0.00566351
-0.00497308
-0.00438773
-0.00388731
-0.00345595
-0.00308114
-0.00275295
-0.00246354
-0.00220664
-0.00197727
-0.00177141
-0.00158587
-0.00141805
-0.00126586
-0.0011276
-0.00100189
-0.00088763
-0.000783936
-0.00069008
-0.000605393
-0.000529151
-0.000460459
-0.000398222
-0.000341239
-0.000288455
-0.0002393
-0.000193917
-0.000153103
-0.000117887
-8.89581e-05
-6.62722e-05
-4.9077e-05
-3.62744e-05
-2.68236e-05
-1.99325e-05
-1.50233e-05
-1.16029e-05
-9.20487e-06
-7.42196e-06
-5.97041e-06
-4.71312e-06
-3.62234e-06
-2.71445e-06
-1.99993e-06
-1.46447e-06
-1.07566e-06
-7.97093e-07
-5.9774e-07
-4.54454e-07
-3.50837e-07
-2.75359e-07
-2.19936e-07
-1.78911e-07
-1.48322e-07
-1.25353e-07
-1.07986e-07
-9.47458e-08
-8.45578e-08
-7.6628e-08
-7.03694e-08
-6.53502e-08
-6.1248e-08
-5.78319e-08
-5.4925e-08
-5.24077e-08
-5.01806e-08
-4.81845e-08
-4.63594e-08
-4.46794e-08
-4.31038e-08
-4.16262e-08
-4.02152e-08
-3.8876e-08
-3.7581e-08
-3.6343e-08
-3.51353e-08
-3.39761e-08
-3.28379e-08
-3.17432e-08
-3.06625e-08
-2.96223e-08
-2.85909e-08
-2.75979e-08
-2.66094e-08
-2.56579e-08
-2.47072e-08
-2.37924e-08
-2.28751e-08
-2.19929e-08
-2.11052e-08
-2.02522e-08
-1.93908e-08
-1.85636e-08
-1.77255e-08
-1.69212e-08
-1.61037e-08
-1.53197e-08
-1.45204e-08
-1.37542e-08
-1.29708e-08
-1.22203e-08
-1.14506e-08
-1.07137e-08
-9.95577e-09
-9.23084e-09
-8.48261e-09
-7.76851e-09
-7.02731e-09
-6.32438e-09
-5.58495e-09
-4.898e-09
-4.14698e-09
-3.49557e-09
-2.69401e-09
-2.14784e-09
-1.16443e-09
-9.66846e-10
6.58573e-10
0.0624635
0.0613338
0.0575197
0.0516109
0.0427664
0.0300505
0.0126732
-0.0105623
-0.0393493
-0.0732968
-0.108397
-0.139286
-0.167114
-0.190888
-0.210266
-0.225289
-0.235514
-0.240421
-0.239444
-0.232271
-0.219163
-0.201079
-0.17958
-0.156514
-0.133597
-0.112134
-0.0929232
-0.076316
-0.0623296
-0.0507757
-0.041362
-0.0337637
-0.0276661
-0.0227868
-0.0188844
-0.0157587
-0.0132475
-0.0112209
-0.00957622
-0.00823268
-0.00712704
-0.00620988
-0.00544263
-0.00479518
-0.00424404
-0.00377079
-0.003361
-0.0030033
-0.00268872
-0.00241012
-0.00216185
-0.00193935
-0.00173899
-0.00155785
-0.00139356
-0.0012442
-0.00110821
-0.000984326
-0.000871545
-0.000769074
-0.00067627
-0.000592544
-0.00051723
-0.000449469
-0.000388156
-0.00033204
-0.000280003
-0.00023142
-0.000186434
-0.000145904
-0.000110971
-8.24281e-05
-6.0291e-05
-4.37973e-05
-3.17919e-05
-2.31613e-05
-1.70555e-05
-1.2855e-05
-1.00375e-05
-8.11575e-06
-6.67467e-06
-5.44149e-06
-4.30981e-06
-3.29024e-06
-2.43139e-06
-1.76151e-06
-1.27054e-06
-9.2357e-07
-6.81041e-07
-5.10705e-07
-3.89848e-07
-3.03175e-07
-2.40305e-07
-1.9417e-07
-1.59956e-07
-1.3437e-07
-1.15089e-07
-1.00446e-07
-8.9217e-08
-8.051e-08
-7.36672e-08
-6.82042e-08
-6.37665e-08
-6.00889e-08
-5.69834e-08
-5.43036e-08
-5.19529e-08
-4.98475e-08
-4.79409e-08
-4.6181e-08
-4.4549e-08
-4.30083e-08
-4.15565e-08
-4.0164e-08
-3.88387e-08
-3.75536e-08
-3.63232e-08
-3.51207e-08
-3.39657e-08
-3.28302e-08
-3.17378e-08
-3.06585e-08
-2.96197e-08
-2.85889e-08
-2.75968e-08
-2.66085e-08
-2.56576e-08
-2.47068e-08
-2.37925e-08
-2.2875e-08
-2.19933e-08
-2.11053e-08
-2.02526e-08
-1.9391e-08
-1.85641e-08
-1.77257e-08
-1.69217e-08
-1.61039e-08
-1.53203e-08
-1.45206e-08
-1.37548e-08
-1.2971e-08
-1.22208e-08
-1.14508e-08
-1.07143e-08
-9.95595e-09
-9.23142e-09
-8.48278e-09
-7.76912e-09
-7.02746e-09
-6.32513e-09
-5.585e-09
-4.89927e-09
-4.14646e-09
-3.49877e-09
-2.69087e-09
-2.15854e-09
-1.14931e-09
-1.00587e-09
7.25966e-10
0.0662018
0.0652069
0.0618427
0.056501
0.0482711
0.0360117
0.0186462
-0.00555173
-0.0364241
-0.0740885
-0.11279
-0.145266
-0.174277
-0.198759
-0.218588
-0.234067
-0.244732
-0.24996
-0.248975
-0.241257
-0.226961
-0.207119
-0.183539
-0.158394
-0.133679
-0.110853
-0.0907475
-0.0736611
-0.0595192
-0.0480349
-0.0388295
-0.0315109
-0.0257172
-0.021136
-0.0175082
-0.0146254
-0.0123228
-0.0104714
-0.0089717
-0.00774658
-0.00673677
-0.00589662
-0.00519092
-0.00459249
-0.00408028
-0.00363792
-0.00325263
-0.00291437
-0.00261524
-0.00234894
-0.00211046
-0.0018958
-0.0017017
-0.00152558
-0.0013653
-0.00121916
-0.00108575
-0.000963931
-0.000852816
-0.000751707
-0.000660051
-0.000577343
-0.000502991
-0.000436175
-0.000375799
-0.000320583
-0.000269358
-0.000221458
-0.000177025
-0.000136974
-0.000102538
-7.46024e-05
-5.32249e-05
-3.76247e-05
-2.65892e-05
-1.89358e-05
-1.37637e-05
-1.04094e-05
-8.31259e-06
-6.9542e-06
-5.90478e-06
-4.90627e-06
-3.89576e-06
-2.93659e-06
-2.11964e-06
-1.49393e-06
-1.05165e-06
-7.52096e-07
-5.50518e-07
-4.12919e-07
-3.17238e-07
-2.49577e-07
-2.0089e-07
-1.65221e-07
-1.38687e-07
-1.18738e-07
-1.03606e-07
-9.20203e-08
-8.30433e-08
-7.59906e-08
-7.03605e-08
-6.57849e-08
-6.19962e-08
-5.87933e-08
-5.60352e-08
-5.36096e-08
-5.14451e-08
-4.94761e-08
-4.76694e-08
-4.59824e-08
-4.4404e-08
-4.29023e-08
-4.14792e-08
-4.01076e-08
-3.87978e-08
-3.75238e-08
-3.63018e-08
-3.51051e-08
-3.39548e-08
-3.28223e-08
-3.17325e-08
-3.06547e-08
-2.96174e-08
-2.85873e-08
-2.75961e-08
-2.66081e-08
-2.56578e-08
-2.4707e-08
-2.37932e-08
-2.28755e-08
-2.19941e-08
-2.1106e-08
-2.02536e-08
-1.93917e-08
-1.85651e-08
-1.77264e-08
-1.69228e-08
-1.61046e-08
-1.53213e-08
-1.45212e-08
-1.37558e-08
-1.29716e-08
-1.22218e-08
-1.14513e-08
-1.07152e-08
-9.95649e-09
-9.23231e-09
-8.48328e-09
-7.77003e-09
-7.02791e-09
-6.32616e-09
-5.58532e-09
-4.90077e-09
-4.1462e-09
-3.502e-09
-2.68815e-09
-2.16812e-09
-1.1363e-09
-1.03696e-09
7.78776e-10
0.0703384
0.0695124
0.06671
0.0621002
0.0547015
0.043145
0.0259775
0.000769662
-0.0326325
-0.075273
-0.118623
-0.152713
-0.182933
-0.208049
-0.228277
-0.244289
-0.255574
-0.261355
-0.260517
-0.252226
-0.236491
-0.214452
-0.188261
-0.160533
-0.133621
-0.109169
-0.0880321
-0.0704265
-0.0561514
-0.0447933
-0.0358664
-0.0288991
-0.0234755
-0.0192497
-0.0159445
-0.0133437
-0.011281
-0.0096298
-0.0082946
-0.00720321
-0.0063012
-0.00554738
-0.00491051
-0.00436677
-0.00389792
-0.00348991
-0.00313184
-0.00281518
-0.0025332
-0.00228056
-0.00205298
-0.00184701
-0.00165988
-0.00148932
-0.00133351
-0.00119093
-0.00106038
-0.000940844
-0.000831556
-0.00073192
-0.00064148
-0.000559818
-0.000486418
-0.00042052
-0.000361055
-0.00030674
-0.000256386
-0.0002093
-0.00016562
-0.000126297
-9.26323e-05
-6.55676e-05
-4.51799e-05
-3.06631e-05
-2.07561e-05
-1.42234e-05
-1.01263e-05
-7.75675e-06
-6.50221e-06
-5.79369e-06
-5.17696e-06
-4.41321e-06
-3.50122e-06
-2.57651e-06
-1.78513e-06
-1.19932e-06
-8.09147e-07
-5.62778e-07
-4.07215e-07
-3.06021e-07
-2.38114e-07
-1.91366e-07
-1.58243e-07
-1.34008e-07
-1.1581e-07
-1.01945e-07
-9.1275e-08
-8.29724e-08
-7.64118e-08
-7.11349e-08
-6.68076e-08
-6.31861e-08
-6.00953e-08
-5.74027e-08
-5.50177e-08
-5.2865e-08
-5.09005e-08
-4.90776e-08
-4.73781e-08
-4.57694e-08
-4.42484e-08
-4.27886e-08
-4.13964e-08
-4.00472e-08
-3.8754e-08
-3.74919e-08
-3.62789e-08
-3.50886e-08
-3.39432e-08
-3.2814e-08
-3.17269e-08
-3.06508e-08
-2.9615e-08
-2.85858e-08
-2.75955e-08
-2.66078e-08
-2.56581e-08
-2.47074e-08
-2.37939e-08
-2.28762e-08
-2.19951e-08
-2.11068e-08
-2.02547e-08
-1.93925e-08
-1.85662e-08
-1.77273e-08
-1.69239e-08
-1.61054e-08
-1.53224e-08
-1.4522e-08
-1.37568e-08
-1.29723e-08
-1.22228e-08
-1.1452e-08
-1.07161e-08
-9.95712e-09
-9.23322e-09
-8.48385e-09
-7.77093e-09
-7.02841e-09
-6.32715e-09
-5.58569e-09
-4.90218e-09
-4.14601e-09
-3.5049e-09
-2.68574e-09
-2.17618e-09
-1.1254e-09
-1.06065e-09
8.18618e-10
0.0748066
0.0741877
0.0720733
0.0683903
0.062094
0.0515793
0.0349059
0.00873555
-0.0277079
-0.0770909
-0.126412
-0.161902
-0.193311
-0.218973
-0.239505
-0.256048
-0.268038
-0.274514
-0.27396
-0.265112
-0.24774
-0.223078
-0.193713
-0.162847
-0.133305
-0.106957
-0.0846649
-0.0665238
-0.0521643
-0.0410124
-0.0324531
-0.0259221
-0.0209432
-0.0171352
-0.0142031
-0.0119242
-0.0101325
-0.00870549
-0.0075532
-0.0066096
-0.00582613
-0.00516686
-0.00460512
-0.00412092
-0.0036992
-0.00332848
-0.00299994
-0.00270669
-0.00244332
-0.00220551
-0.00198977
-0.00179327
-0.00161373
-0.00144925
-0.0012983
-0.00115962
-0.00103216
-0.000915103
-0.00080778
-0.000709706
-0.000620522
-0.000539897
-0.000467398
-0.00040234
-0.000343713
-0.000290271
-0.000240837
-0.000194721
-0.000152056
-0.000113796
-8.12538e-05
-5.53818e-05
-3.62396e-05
-2.29933e-05
-1.43519e-05
-9.06882e-06
-6.18431e-06
-4.94612e-06
-4.66756e-06
-4.70172e-06
-4.55355e-06
-4.00971e-06
-3.15542e-06
-2.22483e-06
-1.43509e-06
-8.82773e-07
-5.48301e-07
-3.60945e-07
-2.55704e-07
-1.93403e-07
-1.54777e-07
-1.3005e-07
-1.13357e-07
-1.01192e-07
-9.17757e-08
-8.43108e-08
-7.83334e-08
-7.34828e-08
-6.94607e-08
-6.60469e-08
-6.3085e-08
-6.04631e-08
-5.81036e-08
-5.59456e-08
-5.39518e-08
-5.20853e-08
-5.03303e-08
-4.86606e-08
-4.70734e-08
-4.55468e-08
-4.4086e-08
-4.26701e-08
-4.13103e-08
-3.99845e-08
-3.87087e-08
-3.74591e-08
-3.62555e-08
-3.50719e-08
-3.39315e-08
-3.28058e-08
-3.17216e-08
-3.06473e-08
-2.96131e-08
-2.85847e-08
-2.75953e-08
-2.6608e-08
-2.56588e-08
-2.47082e-08
-2.37951e-08
-2.28773e-08
-2.19966e-08
-2.11081e-08
-2.02562e-08
-1.93938e-08
-1.85677e-08
-1.77285e-08
-1.69254e-08
-1.61067e-08
-1.53238e-08
-1.45232e-08
-1.37582e-08
-1.29734e-08
-1.2224e-08
-1.1453e-08
-1.07173e-08
-9.95803e-09
-9.23436e-09
-8.48467e-09
-7.77203e-09
-7.02915e-09
-6.32831e-09
-5.58626e-09
-4.90368e-09
-4.14605e-09
-3.50762e-09
-2.68382e-09
-2.18292e-09
-1.11668e-09
-1.07835e-09
8.47858e-10
0.0795245
0.0791548
0.0778664
0.0753367
0.0704757
0.061465
0.0457391
0.0188336
-0.0212395
-0.0798696
-0.13697
-0.173292
-0.205551
-0.231386
-0.252086
-0.269342
-0.282424
-0.290092
-0.290153
-0.280752
-0.261373
-0.233419
-0.200081
-0.165347
-0.13264
-0.104086
-0.0805187
-0.0618501
-0.0474846
-0.0366459
-0.0285641
-0.0225687
-0.0181183
-0.0147958
-0.0122899
-0.0103738
-0.0088841
-0.00770465
-0.00675291
-0.0059704
-0.00531548
-0.00475835
-0.00427751
-0.00385726
-0.00348605
-0.00315523
-0.00285824
-0.00259001
-0.00234652
-0.00212456
-0.00192149
-0.00173514
-0.00156373
-0.00140576
-0.00126002
-0.0011255
-0.00100136
-0.000886924
-0.000781672
-0.000685223
-0.000597306
-0.000517677
-0.000445993
-0.000381662
-0.000323771
-0.000271161
-0.000222712
-0.000177769
-0.000136451
-9.96624e-05
-6.86605e-05
-4.43243e-05
-2.66673e-05
-1.48318e-05
-7.53861e-06
-3.59031e-06
-2.03611e-06
-2.07625e-06
-2.91518e-06
-3.78553e-06
-4.12766e-06
-3.76264e-06
-2.89633e-06
-1.89762e-06
-1.07456e-06
-5.46681e-07
-2.72299e-07
-1.50509e-07
-9.96022e-08
-7.78676e-08
-6.92833e-08
-6.71815e-08
-6.74423e-08
-6.77103e-08
-6.7289e-08
-6.6353e-08
-6.51571e-08
-6.38242e-08
-6.23877e-08
-6.08707e-08
-5.92984e-08
-5.76936e-08
-5.60783e-08
-5.44644e-08
-5.28685e-08
-5.12929e-08
-4.97509e-08
-4.8237e-08
-4.67639e-08
-4.53207e-08
-4.39211e-08
-4.25499e-08
-4.12228e-08
-3.9921e-08
-3.86629e-08
-3.7426e-08
-3.6232e-08
-3.50551e-08
-3.39199e-08
-3.27978e-08
-3.17164e-08
-3.0644e-08
-2.96113e-08
-2.85838e-08
-2.75954e-08
-2.66084e-08
-2.56598e-08
-2.47093e-08
-2.37966e-08
-2.28787e-08
-2.19982e-08
-2.11096e-08
-2.02579e-08
-1.93953e-08
-1.85694e-08
-1.773e-08
-1.6927e-08
-1.61081e-08
-1.53253e-08
-1.45245e-08
-1.37596e-08
-1.29746e-08
-1.22254e-08
-1.14541e-08
-1.07186e-08
-9.95905e-09
-9.23555e-09
-8.4856e-09
-7.77316e-09
-7.02997e-09
-6.32948e-09
-5.58691e-09
-4.90512e-09
-4.1462e-09
-3.51001e-09
-2.6823e-09
-2.18833e-09
-1.10981e-09
-1.0913e-09
8.69042e-10
0.0843937
0.0843162
0.0839984
0.0828708
0.0798427
0.0729324
0.058816
0.0316859
-0.012729
-0.0842782
-0.151203
-0.187216
-0.220222
-0.245877
-0.266309
-0.284074
-0.298331
-0.307526
-0.30866
-0.298976
-0.277429
-0.245564
-0.207377
-0.167935
-0.131457
-0.100375
-0.0754365
-0.0562899
-0.0420384
-0.0316543
-0.0241847
-0.0188407
-0.0150122
-0.0122474
-0.0102223
-0.00870922
-0.00755114
-0.00664071
-0.00590507
-0.0052949
-0.00477674
-0.00432777
-0.00393226
-0.00357928
-0.00326109
-0.0029721
-0.00270818
-0.00246617
-0.00224355
-0.00203826
-0.00184854
-0.00167291
-0.0015101
-0.00135903
-0.00121881
-0.00108869
-0.000968051
-0.000856381
-0.000753294
-0.000658514
-0.000571856
-0.00049316
-0.000422177
-0.000358432
-0.000301156
-0.000249339
-0.00020198
-0.00015847
-0.000118927
-8.41306e-05
-5.51441e-05
-3.27147e-05
-1.67442e-05
-6.37454e-06
-4.42054e-07
2.13676e-06
2.25817e-06
7.80809e-07
-1.33733e-06
-3.14693e-06
-3.99077e-06
-3.73714e-06
-2.75929e-06
-1.60891e-06
-7.08766e-07
-1.96041e-07
1.18141e-08
6.09449e-08
5.48213e-08
3.62444e-08
1.55627e-08
-4.57966e-09
-2.17367e-08
-3.44182e-08
-4.29369e-08
-4.84802e-08
-5.20399e-08
-5.4213e-08
-5.53538e-08
-5.57251e-08
-5.55349e-08
-5.49414e-08
-5.40657e-08
-5.29926e-08
-5.17922e-08
-5.05058e-08
-4.91755e-08
-4.78165e-08
-4.64568e-08
-4.50965e-08
-4.37577e-08
-4.24309e-08
-4.11365e-08
-3.98585e-08
-3.86178e-08
-3.73937e-08
-3.62091e-08
-3.5039e-08
-3.39089e-08
-3.27904e-08
-3.17117e-08
-3.06412e-08
-2.96101e-08
-2.85835e-08
-2.75959e-08
-2.66093e-08
-2.56612e-08
-2.47108e-08
-2.37984e-08
-2.28805e-08
-2.20002e-08
-2.11115e-08
-2.026e-08
-1.93973e-08
-1.85714e-08
-1.77318e-08
-1.69289e-08
-1.61098e-08
-1.53271e-08
-1.45261e-08
-1.37613e-08
-1.29761e-08
-1.2227e-08
-1.14555e-08
-1.07201e-08
-9.9603e-09
-9.23692e-09
-8.48673e-09
-7.77445e-09
-7.03097e-09
-6.33076e-09
-5.58773e-09
-4.90658e-09
-4.14655e-09
-3.51219e-09
-2.68121e-09
-2.19269e-09
-1.10459e-09
-1.10076e-09
8.84221e-10
0.0892982
0.0895559
0.0903502
0.0908947
0.0901559
0.0861367
0.0745866
0.0483139
-0.001269
-0.0912651
-0.171493
-0.204258
-0.236546
-0.261462
-0.281848
-0.300777
-0.317073
-0.3287
-0.33139
-0.321397
-0.297076
-0.260197
-0.21586
-0.170575
-0.129569
-0.0955946
-0.0692155
-0.0496917
-0.0357262
-0.0259799
-0.0192865
-0.0147282
-0.0116256
-0.00949632
-0.00800856
-0.00693935
-0.00614186
-0.00552099
-0.00501598
-0.00458847
-0.00421444
-0.00387892
-0.00357261
-0.00328973
-0.00302665
-0.00278106
-0.00255142
-0.00233658
-0.0021356
-0.00194762
-0.0017718
-0.00160734
-0.0014535
-0.00130964
-0.00117518
-0.00104964
-0.000932629
-0.000823822
-0.000722961
-0.000629871
-0.000544446
-0.000466601
-0.000396189
-0.000332887
-0.000276123
-0.000225105
-0.000179019
-0.000137333
-0.000100062
-6.78103e-05
-4.13632e-05
-2.11342e-05
-6.91963e-06
2.03784e-06
6.71083e-06
7.96287e-06
6.58185e-06
3.50899e-06
-5.89381e-08
-2.90805e-06
-4.24222e-06
-3.99616e-06
-2.77077e-06
-1.36254e-06
-3.35023e-07
1.68811e-07
2.99317e-07
2.67101e-07
2.02225e-07
1.45273e-07
9.7421e-08
5.60933e-08
2.25005e-08
-2.25775e-09
-1.94064e-08
-3.11876e-08
-3.93421e-08
-4.49139e-08
-4.85529e-08
-5.07517e-08
-5.18978e-08
-5.22819e-08
-5.21213e-08
-5.15709e-08
-5.07526e-08
-4.97457e-08
-4.86199e-08
-4.74105e-08
-4.61604e-08
-4.48803e-08
-4.36002e-08
-4.23163e-08
-4.10534e-08
-3.97984e-08
-3.85747e-08
-3.73629e-08
-3.61873e-08
-3.50238e-08
-3.38987e-08
-3.27836e-08
-3.17076e-08
-3.06389e-08
-2.96092e-08
-2.85835e-08
-2.75967e-08
-2.66106e-08
-2.56629e-08
-2.47127e-08
-2.38005e-08
-2.28826e-08
-2.20025e-08
-2.11137e-08
-2.02622e-08
-1.93994e-08
-1.85736e-08
-1.77339e-08
-1.6931e-08
-1.61117e-08
-1.53291e-08
-1.45279e-08
-1.37632e-08
-1.29778e-08
-1.22287e-08
-1.1457e-08
-1.07217e-08
-9.96168e-09
-9.23836e-09
-8.48798e-09
-7.77579e-09
-7.03207e-09
-6.33206e-09
-5.58863e-09
-4.908e-09
-4.14701e-09
-3.5141e-09
-2.68047e-09
-2.19614e-09
-1.10066e-09
-1.1076e-09
8.9507e-10
0.0941047
0.094733
0.0967672
0.0992349
0.101295
0.101069
0.0934301
0.0697418
0.0137898
-0.101489
-0.198132
-0.226244
-0.257906
-0.280382
-0.29924
-0.318746
-0.337349
-0.352189
-0.357485
-0.34792
-0.320685
-0.277732
-0.225709
-0.173174
-0.126724
-0.0894617
-0.0616169
-0.041888
-0.0284479
-0.0195747
-0.0138568
-0.0102395
-0.00797785
-0.00656629
-0.00567314
-0.00508684
-0.0046762
-0.00436234
-0.00409948
-0.00386222
-0.00363733
-0.00341859
-0.00320372
-0.00299246
-0.00278558
-0.0025842
-0.00238945
-0.00220231
-0.00202343
-0.00185319
-0.00169166
-0.00153874
-0.00139421
-0.00125781
-0.00112932
-0.00100853
-0.000895277
-0.000789423
-0.000690848
-0.000599469
-0.00051525
-0.000438183
-0.000368237
-0.000305279
-0.000248995
-0.00019888
-0.00015435
-0.000114955
-8.05793e-05
-5.14522e-05
-2.79108e-05
-1.00534e-05
2.44551e-06
1.02011e-05
1.38329e-05
1.38603e-05
1.09208e-05
6.08118e-06
8.76114e-07
-3.11585e-06
-4.91604e-06
-4.55305e-06
-2.92366e-06
-1.14476e-06
5.49065e-08
5.46752e-07
5.829e-07
4.59545e-07
3.36108e-07
2.45066e-07
1.73734e-07
1.13068e-07
6.40134e-08
2.78939e-08
2.7005e-09
-1.48926e-08
-2.73644e-08
-3.61482e-08
-4.2148e-08
-4.60699e-08
-4.84743e-08
-4.97788e-08
-5.02913e-08
-5.02329e-08
-4.97743e-08
-4.90306e-08
-4.80973e-08
-4.70288e-08
-4.58818e-08
-4.46772e-08
-4.34524e-08
-4.2209e-08
-4.09758e-08
-3.97424e-08
-3.85346e-08
-3.73345e-08
-3.61675e-08
-3.50102e-08
-3.38896e-08
-3.27779e-08
-3.17044e-08
-3.06374e-08
-2.9609e-08
-2.85842e-08
-2.75981e-08
-2.66124e-08
-2.5665e-08
-2.4715e-08
-2.3803e-08
-2.28851e-08
-2.20051e-08
-2.11162e-08
-2.02648e-08
-1.94018e-08
-1.85761e-08
-1.77362e-08
-1.69334e-08
-1.61139e-08
-1.53313e-08
-1.453e-08
-1.37652e-08
-1.29796e-08
-1.22306e-08
-1.14587e-08
-1.07234e-08
-9.96324e-09
-9.23995e-09
-8.48938e-09
-7.77724e-09
-7.0333e-09
-6.33343e-09
-5.58965e-09
-4.90941e-09
-4.14762e-09
-3.51584e-09
-2.68006e-09
-2.1989e-09
-1.09781e-09
-1.11256e-09
9.02768e-10
0.0986651
0.0996915
0.103055
0.107687
0.113046
0.117825
0.115939
0.0988151
0.0345413
-0.124194
-0.238649
-0.248697
-0.278618
-0.300222
-0.318682
-0.339314
-0.360663
-0.379152
-0.387037
-0.378043
-0.347662
-0.29772
-0.236592
-0.175424
-0.122602
-0.0816756
-0.0523988
-0.032712
-0.0201034
-0.0123882
-0.00787711
-0.00537492
-0.0040787
-0.0034709
-0.00323035
-0.00316523
-0.00316627
-0.00317532
-0.00316464
-0.0031239
-0.00305203
-0.00295247
-0.0028305
-0.00269175
-0.00254157
-0.00238469
-0.00222504
-0.00206574
-0.00190912
-0.00175677
-0.0016097
-0.00146848
-0.00133338
-0.00120456
-0.00108212
-0.00096614
-0.000856699
-0.000753839
-0.000657578
-0.000567922
-0.000484896
-0.000408575
-0.000339072
-0.000276481
-0.000220797
-0.000171842
-0.000129272
-9.26668e-05
-6.16719e-05
-3.60563e-05
-1.56157e-05
-4.53619e-08
1.10431e-05
1.79699e-05
2.08661e-05
1.9813e-05
1.52793e-05
8.51866e-06
1.51149e-06
-3.70091e-06
-5.92279e-06
-5.31257e-06
-3.13256e-06
-8.94137e-07
4.95517e-07
9.51612e-07
8.65272e-07
6.3717e-07
4.54931e-07
3.34419e-07
2.43205e-07
1.65159e-07
1.01805e-07
5.52722e-08
2.28222e-08
-1.01509e-11
-1.64177e-08
-2.81484e-08
-3.63107e-08
-4.18053e-08
-4.53562e-08
-4.74993e-08
-4.8625e-08
-4.90147e-08
-4.88838e-08
-4.83796e-08
-4.76217e-08
-4.66816e-08
-4.56285e-08
-4.44927e-08
-4.33183e-08
-4.21117e-08
-4.09055e-08
-3.96919e-08
-3.84987e-08
-3.73091e-08
-3.615e-08
-3.49983e-08
-3.3882e-08
-3.27732e-08
-3.1702e-08
-3.06366e-08
-2.96094e-08
-2.85854e-08
-2.75999e-08
-2.66145e-08
-2.56675e-08
-2.47176e-08
-2.38058e-08
-2.28879e-08
-2.20079e-08
-2.1119e-08
-2.02676e-08
-1.94045e-08
-1.85788e-08
-1.77388e-08
-1.69359e-08
-1.61163e-08
-1.53337e-08
-1.45322e-08
-1.37674e-08
-1.29817e-08
-1.22326e-08
-1.14606e-08
-1.07253e-08
-9.96494e-09
-9.24164e-09
-8.49089e-09
-7.77877e-09
-7.03464e-09
-6.33485e-09
-5.59077e-09
-4.91081e-09
-4.14836e-09
-3.51741e-09
-2.67992e-09
-2.2011e-09
-1.09578e-09
-1.11615e-09
9.08215e-10
0.10282
0.104247
0.108982
0.115883
0.125046
0.135692
0.1423
0.134781
0.0629337
-0.133632
-0.304874
-0.29305
-0.308355
-0.318259
-0.330826
-0.349692
-0.372741
-0.395983
-0.408964
-0.402734
-0.371242
-0.315815
-0.2462