/*--------------------------------*- C++ -*----------------------------------*\
  =========                 |
  \\      /  F ield         | OpenFOAM: The Open Source CFD Toolbox
   \\    /   O peration     | Website:  https://openfoam.org
    \\  /    A nd           | Version:  11
     \\/     M anipulation  |
\*---------------------------------------------------------------------------*/
FoamFile
{
    format      ascii;
    class       surfaceScalarField;
    location    "6.592846";
    object      phi_0;
}
// * * * * * * * * * * * * * * * * * * * * * * * * * * * * * * * * * * * * * //

dimensions      [0 3 -1 0 0 0 0];

internalField   nonuniform List<scalar> 
14638
(
0.00250288
-2.87947e-06
0.00251157
-8.68932e-06
0.00252643
-1.48582e-05
0.00254794
-2.15097e-05
0.00257662
-2.86792e-05
0.00261279
-3.61695e-05
0.00265638
-4.359e-05
0.00270653
-5.01586e-05
0.00276157
-5.50367e-05
0.00281889
-5.73221e-05
0.0028754
-5.65108e-05
0.0029287
-5.32993e-05
0.00297702
-4.83183e-05
0.00301922
-4.22013e-05
0.00305473
-3.55101e-05
0.00308334
-2.86088e-05
0.00310508
-2.1736e-05
0.00312012
-1.50472e-05
0.0031288
-8.67277e-06
0.00313155
-2.7529e-06
0.00312899
2.56176e-06
0.00312184
7.15231e-06
0.00311084
1.09921e-05
0.00309665
1.41897e-05
0.00307967
1.69829e-05
0.00306
1.96729e-05
0.00303748
2.25186e-05
0.00301185
2.56278e-05
0.00298296
2.88963e-05
0.00295093
3.20259e-05
0.00291632
3.46145e-05
0.00288004
3.62772e-05
0.00284329
3.67488e-05
0.00280735
3.59383e-05
0.00277342
3.39303e-05
0.00274247
3.09489e-05
0.00271517
2.73052e-05
0.00269183
2.33414e-05
0.00267244
1.93848e-05
0.00265673
1.57127e-05
0.0026442
1.25303e-05
0.00263424
9.96037e-06
0.00262619
8.04317e-06
0.00261945
6.7461e-06
0.00261347
5.97994e-06
0.00260785
5.61985e-06
0.00260232
5.52734e-06
0.00259675
5.57008e-06
0.00259111
5.63675e-06
0.00258547
5.64582e-06
0.00257992
5.54827e-06
0.00257459
5.32544e-06
0.00256961
4.98366e-06
0.00256506
4.54727e-06
0.00256101
4.0513e-06
0.00255748
3.53469e-06
0.00255444
3.03477e-06
0.00255186
2.58308e-06
0.00254966
2.2027e-06
0.00254775
1.90703e-06
0.00254605
1.69981e-06
0.00254447
1.57621e-06
0.00254295
1.52462e-06
0.00254142
1.52895e-06
0.00253985
1.57102e-06
0.00253822
1.63276e-06
0.00253652
1.69806e-06
0.00253476
1.75406e-06
0.00253297
1.79181e-06
0.00253117
1.80642e-06
0.00252937
1.79674e-06
0.0025276
1.76465e-06
0.00252589
1.71425e-06
0.00252424
1.65093e-06
0.00252266
1.58058e-06
0.00252115
1.50879e-06
0.00251971
1.44042e-06
0.00251833
1.3792e-06
0.002517
1.32755e-06
0.00251572
1.28663e-06
0.00251446
1.25641e-06
0.00251322
1.23588e-06
0.002512
1.22336e-06
0.00251078
1.21675e-06
0.00250957
1.21382e-06
0.00250836
1.21246e-06
0.00250715
1.21089e-06
0.00250594
1.20774e-06
0.00250474
1.20215e-06
0.00250354
1.1937e-06
0.00250236
1.18235e-06
0.00250119
1.16836e-06
0.00250004
1.15211e-06
0.00249891
1.13409e-06
0.00249779
1.11468e-06
0.0024967
1.09422e-06
0.00249562
1.07281e-06
0.00249457
1.0504e-06
0.00249355
1.02669e-06
0.00249255
1.0012e-06
0.00249157
9.73295e-07
0.00249063
9.423e-07
0.00248972
9.07561e-07
0.00248885
8.68404e-07
0.00248803
8.23852e-07
0.00248726
7.72008e-07
0.00248655
7.09168e-07
0.00248592
6.28887e-07
0.0024854
5.21522e-07
0.00248502
3.74823e-07
0.00248485
1.76104e-07
0.00248493
-8.39371e-08
0.00248534
-4.0633e-07
0.00248612
-7.79181e-07
0.00248729
-1.17501e-06
0.00248884
-1.55175e-06
0.0024907
-1.85832e-06
0.00249275
-2.0442e-06
0.00249482
-2.07115e-06
0.00249674
-1.92378e-06
0.00249836
-1.61588e-06
0.00249955
-1.18991e-06
0.00250026
-7.0936e-07
0.0025005
-2.45695e-07
0.00250037
1.36743e-07
0.00249997
3.9365e-07
0.00249946
5.0823e-07
0.00249897
4.9159e-07
0.0024986
3.76641e-07
0.00249839
2.07831e-07
0.00249836
2.98952e-08
0.00249848
-1.21391e-07
0.0024987
-2.24548e-07
0.00249898
-2.73305e-07
0.00249925
-2.73857e-07
0.00249949
-2.4003e-07
0.00249968
-1.88074e-07
0.00249981
-1.32458e-07
0.0024999
-8.3397e-08
0.00249994
-4.61599e-08
0.00249996
-2.17517e-08
0.00249997
-8.32055e-09
0.00249997
-2.68875e-09
0.00249998
-1.58849e-09
0.00249998
-2.41412e-09
0.00249998
-3.50187e-09
0.00249999
-4.064e-09
0.00249999
-3.9412e-09
0.00249999
-3.31523e-09
0.0025
-2.47284e-09
0.0025
-1.65895e-09
0.0025
-1.01604e-09
0.0025
-5.85491e-10
0.0025
-3.39573e-10
0.0025
-2.2095e-10
0.0025
-1.70833e-10
0.0025
-1.48767e-10
0.0025
-1.27861e-10
0.0025
-1.0999e-10
-6.76674e-11
0.00250285
-5.73249e-06
0.00251147
-1.73052e-05
0.00252622
-2.96114e-05
0.00254763
-4.29186e-05
0.00257626
-5.73101e-05
0.0026125
-7.24042e-05
0.00265633
-8.74249e-05
0.00270694
-0.000100771
0.00276263
-0.000110724
0.00282068
-0.000115368
0.00287781
-0.000113644
0.00293158
-0.00010707
0.00298021
-9.69516e-05
0.0030226
-8.4583e-05
0.00305819
-7.11027e-05
0.00308681
-5.72331e-05
0.00310852
-4.34401e-05
0.00312349
-3.00229e-05
0.00313205
-1.72346e-05
0.00313466
-5.35589e-06
0.00313192
5.30261e-06
0.00312458
1.44906e-05
0.00311342
2.21461e-05
0.00309913
2.84887e-05
0.0030821
3.40081e-05
0.00306244
3.9331e-05
0.00303996
4.49982e-05
0.00301435
5.12388e-05
0.00298541
5.78411e-05
0.00295324
6.41899e-05
0.0029184
6.94548e-05
0.00288184
7.2843e-05
0.00284477
7.38113e-05
0.00280854
7.21756e-05
0.00277436
6.81117e-05
0.00274322
6.20798e-05
0.00271582
5.47137e-05
0.00269245
4.67089e-05
0.00267311
3.87282e-05
0.00265749
3.13319e-05
0.00264508
2.49334e-05
0.00263526
1.97786e-05
0.00262736
1.59466e-05
0.00262074
1.33689e-05
0.00261486
1.18626e-05
0.0026093
1.1173e-05
0.00260381
1.10187e-05
0.00259825
1.11312e-05
0.0025926
1.12856e-05
0.00258693
1.13177e-05
0.00258135
1.11295e-05
0.00257599
1.06847e-05
0.00257098
9.99723e-06
0.00256641
9.11743e-06
0.00256234
8.11686e-06
0.0025588
7.07478e-06
0.00255577
6.06693e-06
0.00255319
5.15716e-06
0.002551
4.3921e-06
0.00254911
3.7987e-06
0.00254743
3.38433e-06
0.00254587
3.13898e-06
0.00254435
3.03897e-06
0.00254283
3.05159e-06
0.00254126
3.13992e-06
0.00253962
3.26735e-06
0.00253792
3.40132e-06
0.00253616
3.51585e-06
0.00253436
3.59297e-06
0.00253254
3.62293e-06
0.00253074
3.6035e-06
0.00252896
3.53865e-06
0.00252724
3.43676e-06
0.00252558
3.30885e-06
0.00252399
3.16683e-06
0.00252248
3.02208e-06
0.00252104
2.8844e-06
0.00251966
2.7613e-06
0.00251833
2.65768e-06
0.00251704
2.57583e-06
0.00251578
2.51564e-06
0.00251454
2.47507e-06
0.00251331
2.45067e-06
0.00251209
2.43815e-06
0.00251087
2.43301e-06
0.00250965
2.43099e-06
0.00250843
2.42847e-06
0.00250722
2.42272e-06
0.00250601
2.41199e-06
0.00250481
2.39546e-06
0.00250362
2.37309e-06
0.00250244
2.3454e-06
0.00250128
2.31324e-06
0.00250013
2.27753e-06
0.00249901
2.23915e-06
0.00249791
2.1987e-06
0.00249682
2.15647e-06
0.00249576
2.11234e-06
0.00249472
2.06575e-06
0.00249371
2.01572e-06
0.00249272
1.96099e-06
0.00249176
1.90019e-06
0.00249084
1.83198e-06
0.00248995
1.75499e-06
0.00248911
1.66724e-06
0.00248831
1.56504e-06
0.00248758
1.44115e-06
0.00248693
1.28301e-06
0.00248638
1.07176e-06
0.00248597
7.83365e-07
0.00248575
3.92765e-07
0.00248579
-1.18619e-07
0.00248613
-7.53269e-07
0.00248684
-1.4883e-06
0.00248794
-2.27005e-06
0.0024894
-3.01588e-06
0.00249117
-3.62491e-06
0.00249312
-3.99699e-06
0.00249511
-4.05577e-06
0.00249695
-3.76995e-06
0.0024985
-3.16589e-06
0.00249964
-2.32696e-06
0.00250031
-1.37863e-06
0.00250053
-4.62585e-07
0.00250037
2.93159e-07
0.00249996
8.00107e-07
0.00249945
1.02432e-06
0.00249895
9.87449e-07
0.00249857
7.54756e-07
0.00249837
4.14776e-07
0.00249834
5.6879e-08
0.00249846
-2.47271e-07
0.00249869
-4.54517e-07
0.00249897
-5.52173e-07
0.00249925
-5.52635e-07
0.0024995
-4.83735e-07
0.00249969
-3.78274e-07
0.00249982
-2.65532e-07
0.0024999
-1.6621e-07
0.00249995
-9.1001e-08
0.00249997
-4.19298e-08
0.00249997
-1.51954e-08
0.00249998
-4.28702e-09
0.00249998
-2.51035e-09
0.00249998
-4.53341e-09
0.00249998
-6.9647e-09
0.00249999
-8.21835e-09
0.00249999
-8.00199e-09
0.00249999
-6.72053e-09
0.0025
-4.9864e-09
0.0025
-3.31574e-09
0.0025
-2.00515e-09
0.0025
-1.13741e-09
0.0025
-6.51044e-10
0.0025
-4.24089e-10
0.0025
-3.33569e-10
0.0025
-2.959e-10
0.0025
-2.57046e-10
0.0025
-2.21977e-10
-1.35915e-10
0.0025028
-8.53209e-06
0.00251126
-2.57668e-05
0.0025258
-4.41472e-05
0.00254699
-6.41132e-05
0.00257551
-8.5829e-05
0.00261186
-0.000108754
0.00265618
-0.000131742
0.0027077
-0.000152295
0.00276472
-0.000167739
0.00282424
-0.000174893
0.00288263
-0.000172037
0.00293735
-0.000161788
0.00298661
-0.00014621
0.00302934
-0.000127316
0.00306509
-0.000106851
0.00309374
-8.58814e-05
0.00311538
-6.50781e-05
0.00313021
-4.48568e-05
0.00313855
-2.55775e-05
0.00314086
-7.66237e-06
0.00313776
8.39928e-06
0.00313006
2.21987e-05
0.00311858
3.36204e-05
0.00310407
4.29993e-05
0.00308697
5.11089e-05
0.00306735
5.89509e-05
0.00304495
6.73977e-05
0.00301936
7.68264e-05
0.0029903
8.69087e-05
0.00295782
9.66702e-05
0.00292247
0.000104797
0.00288528
0.000110038
0.00284754
0.000111547
0.00281067
0.000109044
0.00277597
0.000102813
0.00274448
9.35749e-05
0.00271688
8.23136e-05
0.00269348
7.01015e-05
0.00267426
5.79549e-05
0.00265886
4.67286e-05
0.00264674
3.70496e-05
0.00263724
2.92871e-05
0.00262963
2.35546e-05
0.00262326
1.97394e-05
0.00261757
1.75544e-05
0.00261213
1.66041e-05
0.0026067
1.6454e-05
0.00260114
1.6692e-05
0.00259545
1.6975e-05
0.00258971
1.70547e-05
0.00258406
1.6785e-05
0.00257863
1.61146e-05
0.00257356
1.50685e-05
0.00256895
1.37269e-05
0.00256486
1.22012e-05
0.00256132
1.06139e-05
0.00255831
9.08151e-06
0.00255576
7.70147e-06
0.00255361
6.54464e-06
0.00255176
5.65153e-06
0.00255011
5.03256e-06
0.00254858
4.6716e-06
0.00254708
4.5317e-06
0.00254557
4.56224e-06
0.00254401
4.70641e-06
0.00254237
4.9081e-06
0.00254065
5.11758e-06
0.00253887
5.29542e-06
0.00253705
5.41451e-06
0.00253521
5.46044e-06
0.00253339
5.43028e-06
0.00253159
5.33052e-06
0.00252986
5.17431e-06
0.00252819
4.97874e-06
0.00252659
4.76215e-06
0.00252507
4.54199e-06
0.00252362
4.33319e-06
0.00252224
4.14715e-06
0.0025209
3.99123e-06
0.00251961
3.86878e-06
0.00251835
3.77952e-06
0.0025171
3.72019e-06
0.00251587
3.68543e-06
0.00251464
3.66863e-06
0.00251341
3.66287e-06
0.00251217
3.66161e-06
0.00251094
3.65936e-06
0.00250971
3.652e-06
0.00250849
3.63692e-06
0.00250727
3.61294e-06
0.00250607
3.58008e-06
0.00250487
3.5392e-06
0.00250369
3.49164e-06
0.00250253
3.43889e-06
0.00250139
3.38228e-06
0.00250026
3.32278e-06
0.00249916
3.26085e-06
0.00249808
3.19634e-06
0.00249701
3.12841e-06
0.00249597
3.05564e-06
0.00249496
2.97612e-06
0.00249397
2.88774e-06
0.00249301
2.78843e-06
0.00249209
2.67602e-06
0.00249121
2.54756e-06
0.00249038
2.39758e-06
0.00248961
2.21559e-06
0.00248891
1.98342e-06
0.0024883
1.67374e-06
0.00248784
1.25153e-06
0.00248755
6.80121e-07
0.0024875
-6.80372e-08
0.00248774
-9.97213e-07
0.00248833
-2.07469e-06
0.00248928
-3.22257e-06
0.00249058
-4.32005e-06
0.00249218
-5.219e-06
0.00249395
-5.77165e-06
0.00249576
-5.86473e-06
0.00249744
-5.45098e-06
0.00249885
-4.5682e-06
0.00249986
-3.33866e-06
0.00250043
-1.94733e-06
0.00250057
-6.03713e-07
0.00250036
5.02487e-07
0.00249992
1.23984e-06
0.00249938
1.55778e-06
0.00249888
1.48845e-06
0.00249851
1.12908e-06
0.00249831
6.11835e-07
0.0024983
7.03293e-08
0.00249844
-3.88165e-07
0.00249868
-6.99058e-07
0.00249898
-8.43564e-07
0.00249926
-8.40744e-07
0.00249951
-7.33025e-07
0.00249971
-5.70403e-07
0.00249984
-3.97514e-07
0.00249992
-2.45906e-07
0.00249996
-1.31796e-07
0.00249997
-5.80924e-08
0.00249998
-1.87496e-08
0.00249998
-3.5714e-09
0.00249998
-2.12501e-09
0.00249998
-6.14354e-09
0.00249998
-1.0421e-08
0.00249999
-1.25895e-08
0.00249999
-1.23012e-08
0.00249999
-1.02801e-08
0.0025
-7.54527e-09
0.0025
-4.93367e-09
0.0025
-2.91394e-09
0.0025
-1.6055e-09
0.0025
-8.97802e-10
0.0025
-5.88404e-10
0.0025
-4.79444e-10
0.0025
-4.39755e-10
0.0025
-3.88588e-10
0.0025
-3.37115e-10
-2.04492e-10
0.00250272
-1.12475e-05
0.00251093
-3.39846e-05
0.00252512
-5.8335e-05
0.00254596
-8.49549e-05
0.00257427
-0.000114141
0.00261076
-0.000145241
0.00265578
-0.000176762
0.00270869
-0.000205204
0.00276777
-0.000226813
0.00282959
-0.000236716
0.00288991
-0.000232357
0.00294605
-0.000217931
0.00299623
-0.00019639
0.00303947
-0.000170555
0.00307543
-0.000142813
0.0031041
-0.000114552
0.00312563
-8.66071e-05
0.00314025
-5.94706e-05
0.00314825
-3.35837e-05
0.0031501
-9.5115e-06
0.00314645
1.20463e-05
0.00313817
3.0479e-05
0.00312621
4.55879e-05
0.00311138
5.78294e-05
0.00309418
6.83104e-05
0.00307464
7.84874e-05
0.00305239
8.96441e-05
0.00302687
0.00010235
0.00299763
0.000116144
0.00296468
0.000129628
0.00292856
0.000140911
0.00289039
0.00014821
0.00285161
0.000150328
0.00281376
0.000146891
0.00277826
0.000138316
0.00274621
0.000125627
0.00271832
0.0001102
0.0026949
9.35229e-05
0.00267586
7.69915e-05
0.00266082
6.1773e-05
0.00264915
4.87167e-05
0.00264012
3.83149e-05
0.00263297
3.07076e-05
0.00262699
2.57249e-05
0.00262158
2.29589e-05
0.00261633
2.18559e-05
0.00261097
2.18128e-05
0.0026054
2.22622e-05
0.00259964
2.27358e-05
0.0025938
2.28991e-05
0.00258802
2.25598e-05
0.00258248
2.16556e-05
0.00257732
2.02288e-05
0.00257265
1.8395e-05
0.00256854
1.63111e-05
0.00256501
1.41476e-05
0.00256202
1.20646e-05
0.00255953
1.01956e-05
0.00255744
8.63657e-06
0.00255565
7.4414e-06
0.00255406
6.62262e-06
0.00255257
6.15635e-06
0.00255111
5.99045e-06
0.00254962
6.05437e-06
0.00254806
6.26954e-06
0.00254641
6.55884e-06
0.00254467
6.85436e-06
0.00254286
7.10264e-06
0.00254101
7.26744e-06
0.00253914
7.32996e-06
0.00253729
7.28718e-06
0.00253547
7.14884e-06
0.00253371
6.93367e-06
0.00253202
6.66552e-06
0.00253041
6.36978e-06
0.00252888
6.0704e-06
0.00252743
5.78774e-06
0.00252604
5.5372e-06
0.0025247
5.32858e-06
0.00252341
5.16619e-06
0.00252214
5.04935e-06
0.00252088
4.97338e-06
0.00251964
4.93071e-06
0.00251839
4.91218e-06
0.00251715
4.90823e-06
0.0025159
4.90992e-06
0.00251465
4.90978e-06
0.0025134
4.90227e-06
0.00251215
4.88396e-06
0.00251091
4.8534e-06
0.00250968
4.81077e-06
0.00250846
4.75737e-06
0.00250726
4.69517e-06
0.00250607
4.62626e-06
0.0025049
4.55252e-06
0.00250375
4.47531e-06
0.00250261
4.39531e-06
0.0025015
4.31235e-06
0.0025004
4.22538e-06
0.00249932
4.1325e-06
0.00249827
4.03115e-06
0.00249724
3.91847e-06
0.00249624
3.79152e-06
0.00249526
3.64728e-06
0.00249433
3.4817e-06
0.00249344
3.28764e-06
0.0024926
3.0517e-06
0.00249184
2.75074e-06
0.00249116
2.34995e-06
0.00249061
1.80456e-06
0.00249022
1.06739e-06
0.00249005
1.02638e-07
0.00249015
-1.09595e-06
0.00249056
-2.48717e-06
0.00249131
-3.97139e-06
0.00249238
-5.39308e-06
0.00249372
-6.56056e-06
0.00249523
-7.2818e-06
0.00249678
-7.40882e-06
0.00249821
-6.87906e-06
0.00249938
-5.74071e-06
0.00250019
-4.15243e-06
0.0025006
-2.3552e-06
0.00250062
-6.22623e-07
0.00250033
7.97215e-07
0.00249983
1.73239e-06
0.00249927
2.11711e-06
0.00249877
1.99445e-06
0.0024984
1.49337e-06
0.00249823
7.89072e-07
0.00249824
5.87509e-08
0.0024984
-5.5538e-07
0.00249867
-9.67975e-07
0.00249898
-1.15493e-06
0.00249929
-1.1429e-06
0.00249954
-9.8994e-07
0.00249974
-7.64235e-07
0.00249987
-5.26573e-07
0.00249994
-3.1979e-07
0.00249997
-1.65669e-07
0.00249998
-6.77004e-08
0.00249998
-1.70735e-08
0.00249998
6.61474e-10
0.00249998
1.52945e-10
0.00249998
-7.0977e-09
0.00249998
-1.39647e-08
0.00249999
-1.73479e-08
0.00249999
-1.6982e-08
0.00249999
-1.40662e-08
0.0025
-1.01517e-08
0.0025
-6.46961e-09
0.0025
-3.68295e-09
0.0025
-1.93586e-09
0.0025
-1.04227e-09
0.0025
-6.93743e-10
0.0025
-6.01315e-10
0.0025
-5.80171e-10
0.0025
-5.24539e-10
0.0025
-4.56874e-10
-2.73129e-10
0.0025026
-1.3843e-05
0.00251047
-4.18546e-05
0.00252415
-7.20179e-05
0.00254446
-0.000105266
0.00257242
-0.000142102
0.00260902
-0.000181837
0.00265493
-0.000222678
0.00270972
-0.000259988
0.00277168
-0.000288773
0.00283672
-0.000301763
0.00289968
-0.000295316
0.00295773
-0.000275979
0.00300911
-0.000247768
0.00305297
-0.000214421
0.00308918
-0.000179019
0.00311785
-0.000143224
0.00313923
-0.000107982
0.00315355
-7.37945e-05
0.00316111
-4.11453e-05
0.00316234
-1.07444e-05
0.00315794
1.64505e-05
0.00314886
3.95581e-05
0.0031362
5.82473e-05
0.00312093
7.31025e-05
0.0031036
8.56358e-05
0.00308421
9.78757e-05
0.00306222
0.000111635
0.00303683
0.00012774
0.0030074
0.000145579
0.0029738
0.000163226
0.00293663
0.000178084
0.00289711
0.000187724
0.0028569
0.000190546
0.00281771
0.000186077
0.00278112
0.000174909
0.00274831
0.000158428
0.00272005
0.000138465
0.00269661
0.000116968
0.00267784
9.57529e-05
0.00266329
7.63231e-05
0.00265225
5.97602e-05
0.00264389
4.6679e-05
0.00263736
3.72357e-05
0.0026319
3.11848e-05
0.00262688
2.79749e-05
0.00262187
2.68696e-05
0.00261661
2.70756e-05
0.00261101
2.7854e-05
0.00260515
2.86021e-05
0.00259915
2.88967e-05
0.00259321
2.8502e-05
0.00258751
2.73513e-05
0.00258223
2.55118e-05
0.00257748
2.31429e-05
0.00257334
2.04549e-05
0.00256981
1.76718e-05
0.00256687
1.50026e-05
0.00256445
1.26192e-05
0.00256244
1.06439e-05
0.00256074
9.14388e-06
0.00255923
8.13226e-06
0.00255781
7.5752e-06
0.0025564
7.40264e-06
0.00255493
7.52134e-06
0.00255337
7.82838e-06
0.00255171
8.22359e-06
0.00254995
8.61943e-06
0.0025481
8.94776e-06
0.0025462
9.1631e-06
0.00254429
9.24277e-06
0.00254239
9.1845e-06
0.00254054
9.00232e-06
0.00253875
8.72163e-06
0.00253704
8.37403e-06
0.00253542
7.99278e-06
0.00253388
7.60895e-06
0.00253242
7.24869e-06
0.00253103
6.93154e-06
0.00252969
6.66975e-06
0.00252838
6.46837e-06
0.00252711
6.32607e-06
0.00252584
6.23638e-06
0.00252459
6.18918e-06
0.00252333
6.17242e-06
0.00252206
6.1736e-06
0.00252079
6.18117e-06
0.00251951
6.18559e-06
0.00251824
6.17985e-06
0.00251696
6.15977e-06
0.00251569
6.12373e-06
0.00251443
6.0722e-06
0.00251318
6.00713e-06
0.00251194
5.93119e-06
0.00251072
5.84724e-06
0.00250952
5.75775e-06
0.00250833
5.66458e-06
0.00250715
5.56862e-06
0.002506
5.46975e-06
0.00250485
5.36672e-06
0.00250373
5.25717e-06
0.00250262
5.13789e-06
0.00250154
5.00518e-06
0.00250047
4.85517e-06
0.00249944
4.68382e-06
0.00249843
4.48591e-06
0.00249747
4.2527e-06
0.00249655
3.96819e-06
0.0024957
3.60508e-06
0.00249492
3.12228e-06
0.00249426
2.46685e-06
0.00249375
1.58266e-06
0.00249342
4.26712e-07
0.00249334
-1.00918e-06
0.00249353
-2.6767e-06
0.00249401
-4.45749e-06
0.00249478
-6.16562e-06
0.00249579
-7.57089e-06
0.00249695
-8.44172e-06
0.00249814
-8.59893e-06
0.00249923
-7.96614e-06
0.00250009
-6.60104e-06
0.00250063
-4.69561e-06
0.00250082
-2.54231e-06
0.00250067
-4.73672e-07
0.00250026
1.20861e-06
0.0024997
2.29581e-06
0.00249911
2.70923e-06
0.0024986
2.50374e-06
0.00249825
1.8399e-06
0.0024981
9.35221e-07
0.00249815
9.48177e-09
0.00249836
-7.61196e-07
0.00249866
-1.27182e-06
0.002499
-1.49421e-06
0.00249932
-1.46403e-06
0.00249959
-1.25648e-06
0.00249978
-9.59326e-07
0.00249991
-6.50568e-07
0.00249997
-3.84854e-07
0.0025
-1.89503e-07
0.0025
-6.8077e-08
0.00249999
-8.22891e-09
0.00249998
9.55834e-09
0.00249998
4.80434e-09
0.00249998
-7.36391e-09
0.00249998
-1.77864e-08
0.00249999
-2.27291e-08
0.00249999
-2.22195e-08
0.00249999
-1.81575e-08
0.0025
-1.28003e-08
0.0025
-7.86837e-09
0.0025
-4.2427e-09
0.0025
-2.06926e-09
0.0025
-1.04601e-09
0.0025
-7.21907e-10
0.0025
-6.94925e-10
0.0025
-7.19454e-10
0.0025
-6.68499e-10
0.0025
-5.83254e-10
-3.41499e-10
0.00250243
-1.62767e-05
0.00250983
-4.92535e-05
0.00252282
-8.50037e-05
0.00254237
-0.000124817
0.00256976
-0.000169497
0.00260637
-0.000218441
0.00265333
-0.000269637
0.0027105
-0.00031716
0.0027763
-0.000354578
0.00284565
-0.000371112
0.00291202
-0.000361687
0.00297246
-0.000336413
0.00302528
-0.000300586
0.00306985
-0.000258996
0.00310629
-0.00021546
0.00313492
-0.000171849
0.00315607
-0.000129135
0.00317002
-8.77385e-05
0.003177
-4.81334e-05
0.00317744
-1.1177e-05
0.00317204
2.18469e-05
0.00316191
4.96898e-05
0.00314834
7.1817e-05
0.0031325
8.89444e-05
0.00311505
0.000103085
0.00309592
0.000117001
0.00307435
0.000133204
0.00304922
0.00015287
0.0030196
0.000175205
0.0029852
0.000197619
0.00294667
0.000216623
0.0029054
0.000228989
0.00286331
0.000232637
0.00282239
0.000227
0.00278439
0.000212905
0.00275064
0.000192182
0.00272191
0.000167192
0.00269846
0.000140416
0.00268008
0.000114134
0.00266619
9.02131e-05
0.00265597
6.99823e-05
0.00264847
5.41769e-05
0.00264275
4.29548e-05
0.00263797
3.59707e-05
0.00263344
3.24987e-05
0.00262872
3.15884e-05
0.00262357
3.2228e-05
0.00261794
3.34867e-05
0.00261192
3.46158e-05
0.00260572
3.51004e-05
0.00259956
3.46657e-05
0.00259366
3.32489e-05
0.00258822
3.0953e-05
0.00258337
2.79922e-05
0.00257918
2.46394e-05
0.00257568
2.11807e-05
0.0025728
1.78791e-05
0.00257047
1.49488e-05
0.00256857
1.25399e-05
0.00256699
1.0732e-05
0.00256558
9.53726e-06
0.00256425
8.9088e-06
0.00256289
8.75508e-06
0.00256146
8.95648e-06
0.0025599
9.38244e-06
0.00255822
9.90707e-06
0.00255642
1.04214e-05
0.00255453
1.08418e-05
0.00255257
1.11135e-05
0.00255061
1.12107e-05
0.00254866
1.11328e-05
0.00254676
1.08997e-05
0.00254494
1.05448e-05
0.0025432
1.01088e-05
0.00254156
9.63375e-06
0.00254001
9.15871e-06
0.00253855
8.71606e-06
0.00253715
8.32969e-06
0.0025358
8.01419e-06
0.0025345
7.77515e-06
0.00253321
7.61019e-06
0.00253194
7.5106e-06
0.00253066
7.46325e-06
0.00252938
7.45273e-06
0.00252809
7.46327e-06
0.00252679
7.48045e-06
0.00252549
7.49246e-06
0.00252418
7.49086e-06
0.00252287
7.47075e-06
0.00252156
7.43051e-06
0.00252026
7.37111e-06
0.00251897
7.2953e-06
0.0025177
7.20668e-06
0.00251643
7.10898e-06
0.00251519
7.00543e-06
0.00251395
6.89837e-06
0.00251273
6.78904e-06
0.00251152
6.67736e-06
0.00251033
6.5619e-06
0.00250915
6.4399e-06
0.00250798
6.30747e-06
0.00250682
6.16001e-06
0.00250569
5.9926e-06
0.00250457
5.80005e-06
0.00250348
5.57584e-06
0.00250242
5.30964e-06
0.00250141
4.98326e-06
0.00250045
4.56605e-06
0.00249956
4.01206e-06
0.00249876
3.262e-06
0.00249809
2.25277e-06
0.00249758
9.35671e-07
0.00249727
-6.9899e-07
0.00249719
-2.59712e-06
0.00249736
-4.62496e-06
0.00249777
-6.57133e-06
0.00249837
-8.17379e-06
0.00249909
-9.1675e-06
0.00249984
-9.34702e-06
0.0025005
-8.62465e-06
0.00250097
-7.06703e-06
0.00250117
-4.89593e-06
0.00250107
-2.44953e-06
0.00250071
-1.12564e-07
0.00250016
1.76611e-06
0.00249951
2.94607e-06
0.00249888
3.33887e-06
0.00249837
3.01252e-06
0.00249805
2.15911e-06
0.00249795
1.03746e-06
0.00249805
-9.1351e-08
0.0024983
-1.01874e-06
0.00249865
-1.62161e-06
0.00249903
-1.86944e-06
0.00249937
-1.80886e-06
0.00249965
-1.53422e-06
0.00249985
-1.1547e-06
0.00249996
-7.66818e-07
0.00250002
-4.37648e-07
0.00250003
-1.99889e-07
0.00250001
-5.64268e-08
0.0025
9.69409e-09
0.00249998
2.41395e-08
0.00249997
1.21426e-08
0.00249997
-7.06992e-09
0.00249998
-2.21982e-08
0.00249999
-2.90407e-08
0.00249999
-2.82169e-08
0.0025
-2.26308e-08
0.0025
-1.54694e-08
0.0025
-9.05673e-09
0.0025
-4.51102e-09
0.0025
-1.94112e-09
0.0025
-8.71127e-10
0.0025
-6.5835e-10
0.0025
-7.60257e-10
0.0025
-8.63143e-10
0.0025
-8.2586e-10
0.0025
-7.18699e-10
-4.09135e-10
0.00250222
-1.84991e-05
0.002509
-5.60348e-05
0.00252106
-9.70563e-05
0.00253955
-0.000143308
0.00256607
-0.000196017
0.00260248
-0.000254849
0.00265055
-0.000317708
0.00271064
-0.000377253
0.00278145
-0.00042539
0.00285641
-0.000446069
0.00292704
-0.000432316
0.00299032
-0.000399697
0.00304476
-0.000355021
0.00309005
-0.000304285
0.00312666
-0.000252076
0.00315517
-0.000200359
0.00317605
-0.000150012
0.00318955
-0.000101245
0.00319587
-5.44482e-05
0.00319532
-1.06277e-05
0.00318866
2.85056e-05
0.00317716
6.11897e-05
0.0031624
8.65776e-05
0.00314583
0.000105517
0.00312826
0.000120652
0.00310955
0.000135708
0.00308864
0.000154122
0.00306395
0.000177553
0.00303417
0.000204986
0.00299882
0.000232968
0.00295858
0.00025687
0.00291511
0.000272458
0.00287066
0.00027708
0.00282757
0.00027009
0.00278785
0.000252633
0.00275294
0.000227089
0.00272367
0.000196457
0.00270026
0.000163826
0.0026824
0.000132002
0.00266936
0.000103249
0.00266018
7.91581e-05
0.00265378
6.05809e-05
0.00264908
4.76593e-05
0.00264513
3.99178e-05
0.00264121
3.64176e-05
0.00263684
3.59534e-05
0.00263181
3.72593e-05
0.00262611
3.91863e-05
0.0026199
4.08262e-05
0.00261343
4.15701e-05
0.00260699
4.11101e-05
0.00260084
3.93992e-05
0.0025952
3.65897e-05
0.00259023
3.29641e-05
0.002586
2.88702e-05
0.00258251
2.46658e-05
0.00257972
2.06748e-05
0.00257751
1.71579e-05
0.00257575
1.42944e-05
0.00257431
1.2176e-05
0.00257304
1.08111e-05
0.00257181
1.0136e-05
0.00257053
1.00333e-05
0.00256914
1.03524e-05
0.00256759
1.0931e-05
0.00256588
1.16142e-05
0.00256403
1.22694e-05
0.00256208
1.27964e-05
0.00256006
1.31313e-05
0.00255802
1.32458e-05
0.00255601
1.31429e-05
0.00255406
1.28497e-05
0.0025522
1.24095e-05
0.00255043
1.18738e-05
0.00254877
1.12947e-05
0.00254721
1.07202e-05
0.00254574
1.01893e-05
0.00254434
9.73065e-06
0.00254299
9.36097e-06
0.00254168
9.08607e-06
0.00254039
8.90205e-06
0.0025391
8.79737e-06
0.00253781
8.75533e-06
0.00253651
8.75661e-06
0.00253519
8.7817e-06
0.00253385
8.81299e-06
0.00253251
8.83626e-06
0.00253116
8.84158e-06
0.00252981
8.82346e-06
0.00252846
8.78046e-06
0.00252711
8.7143e-06
0.00252578
8.62877e-06
0.00252446
8.52862e-06
0.00252315
8.41864e-06
0.00252185
8.30291e-06
0.00252057
8.18439e-06
0.00251929
8.06466e-06
0.00251802
7.94377e-06
0.00251677
7.82014e-06
0.00251552
7.69061e-06
0.00251427
7.55061e-06
0.00251304
7.39459e-06
0.00251181
7.21649e-06
0.0025106
7.00977e-06
0.00250941
6.76651e-06
0.00250825
6.47482e-06
0.00250712
6.11461e-06
0.00250603
5.65277e-06
0.002505
5.03999e-06
0.00250405
4.2127e-06
0.0025032
3.10314e-06
0.00250248
1.65892e-06
0.00250191
-1.30367e-07
0.00250152
-2.2059e-06
0.00250131
-4.42198e-06
0.00250129
-6.54807e-06
0.00250141
-8.29704e-06
0.00250163
-9.3787e-06
0.00250185
-9.56794e-06
0.00250199
-8.76949e-06
0.00250198
-7.05884e-06
0.00250177
-4.68356e-06
0.00250134
-2.02051e-06
0.00250073
5.01879e-07
0.0025
2.49581e-06
0.00249925
3.69574e-06
0.00249858
4.00761e-06
0.00249808
3.51434e-06
0.0024978
2.43934e-06
0.00249775
1.08153e-06
0.00249792
-2.58447e-07
0.00249824
-1.34142e-06
0.00249865
-2.02817e-06
0.00249907
-2.28809e-06
0.00249944
-2.18127e-06
0.00249973
-1.82378e-06
0.00249992
-1.34844e-06
0.00250003
-8.71875e-07
0.00250007
-4.74191e-07
0.00250006
-1.93154e-07
0.00250003
-2.99241e-08
0.0025
3.84677e-08
0.00249998
4.52005e-08
0.00249997
2.22438e-08
0.00249997
-6.54052e-09
0.00249998
-2.76433e-08
0.00249999
-3.66547e-08
0.00249999
-3.51902e-08
0.0025
-2.7546e-08
0.0025
-1.81105e-08
0.0025
-9.93841e-09
0.0025
-4.39246e-09
0.0025
-1.48337e-09
0.0025
-4.82856e-10
0.0025
-4.94331e-10
0.0025
-8.0278e-10
0.0025
-1.02044e-09
0.0025
-1.00374e-09
0.0025
-8.65796e-10
-4.75289e-10
0.00250195
-2.04521e-05
0.00250794
-6.20254e-05
0.00251878
-0.000107888
0.00253582
-0.000160354
0.00256103
-0.000221227
0.0025969
-0.000290716
0.00264603
-0.000366842
0.0027096
-0.00044082
0.00278687
-0.000502659
0.00286904
-0.000528243
0.00294485
-0.000508127
0.00301142
-0.000466265
0.00306759
-0.000411187
0.00311353
-0.000350226
0.00315019
-0.000288734
0.00317844
-0.000228613
0.00319892
-0.000170495
0.00321189
-0.000114206
0.00321739
-5.99529e-05
0.00321565
-8.88685e-06
0.00320743
3.67226e-05
0.00319422
7.44027e-05
0.00317796
0.000102836
0.00316049
0.000122987
0.00314285
0.000138294
0.00312481
0.000153749
0.00310489
0.000174038
0.00308096
0.000201489
0.00305113
0.000234812
0.00301467
0.000269426
0.00297233
0.00029921
0.00292613
0.000318661
0.00287877
0.000324435
0.00283303
0.000315838
0.0027912
0.000294455
0.00275493
0.000263361
0.00272507
0.000226319
0.00270177
0.00018713
0.00268458
0.000149187
0.00267263
0.000115195
0.00266477
8.70206e-05
0.00265973
6.56282e-05
0.00265627
5.11194e-05
0.00265333
4.28487e-05
0.00265014
3.96156e-05
0.00264618
3.99098e-05
0.00264127
4.21674e-05
0.00263547
4.49906e-05
0.002629
4.72955e-05
0.00262219
4.83773e-05
0.0026154
4.79037e-05
0.00260894
4.58585e-05
0.00260307
4.24607e-05
0.00259795
3.80784e-05
0.00259367
3.31488e-05
0.00259023
2.81128e-05
0.00258754
2.33636e-05
0.00258548
1.92128e-05
0.00258391
1.58707e-05
0.00258264
1.34402e-05
0.00258153
1.19226e-05
0.00258044
1.12326e-05
0.00257925
1.12214e-05
0.0025779
1.17016e-05
0.00257635
1.24743e-05
0.00257462
1.33513e-05
0.00257271
1.41742e-05
0.00257068
1.48248e-05
0.00256859
1.52303e-05
0.00256647
1.53614e-05
0.00256439
1.52261e-05
0.00256237
1.48614e-05
0.00256046
1.43224e-05
0.00255866
1.36731e-05
0.00255698
1.29777e-05
0.00255541
1.22938e-05
0.00255393
1.16681e-05
0.00255252
1.11337e-05
0.00255118
1.07096e-05
0.00254986
1.04014e-05
0.00254856
1.02029e-05
0.00254726
1.00992e-05
0.00254594
1.00691e-05
0.00254461
1.00889e-05
0.00254326
1.01347e-05
0.00254189
1.01854e-05
0.0025405
1.02241e-05
0.0025391
1.02396e-05
0.0025377
1.02257e-05
0.0025363
1.01815e-05
0.0025349
1.01097e-05
0.00253351
1.00155e-05
0.00253214
9.905e-06
0.00253077
9.78427e-06
0.00252942
9.6584e-06
0.00252807
9.53105e-06
0.00252673
9.40423e-06
0.0025254
9.27812e-06
0.00252407
9.15106e-06
0.00252274
9.01948e-06
0.00252141
8.87814e-06
0.00252008
8.72052e-06
0.00251876
8.53928e-06
0.00251744
8.32642e-06
0.00251614
8.07247e-06
0.00251485
7.76398e-06
0.00251358
7.37929e-06
0.00251235
6.88364e-06
0.00251117
6.22591e-06
0.00251004
5.34046e-06
0.00250899
4.1575e-06
0.00250802
2.62334e-06
0.00250716
7.28233e-07
0.00250642
-1.46503e-06
0.0025058
-3.8023e-06
0.00250529
-6.04007e-06
0.00250487
-7.87528e-06
0.0025045
-9.00193e-06
0.00250411
-9.18359e-06
0.00250366
-8.32254e-06
0.00250311
-6.50359e-06
0.00250242
-3.99562e-06
0.00250161
-1.20584e-06
0.0025007
1.40402e-06
0.00249978
3.41738e-06
0.00249893
4.55169e-06
0.00249822
4.71238e-06
0.00249774
3.99926e-06
0.00249751
2.66678e-06
0.00249754
1.05228e-06
0.00249779
-5.06271e-07
0.00249819
-1.74147e-06
0.00249866
-2.50053e-06
0.00249913
-2.75553e-06
0.00249953
-2.58305e-06
0.00249983
-2.1239e-06
0.00250002
-1.5372e-06
0.00250011
-9.61338e-07
0.00250012
-4.90043e-07
0.00250009
-1.65572e-07
0.00250005
1.40296e-08
0.00250001
7.94968e-08
0.00249998
7.31518e-08
0.00249997
3.48642e-08
0.00249997
-6.3153e-09
0.00249998
-3.46731e-08
0.00249999
-4.59676e-08
0.00249999
-4.33304e-08
0.0025
-3.29199e-08
0.0025
-2.06362e-08
0.0025
-1.03928e-08
0.0025
-3.78298e-09
0.0025
-6.30743e-10
0.0025
1.45393e-10
0.0025
-2.2975e-10
0.0025
-8.34287e-10
0.0025
-1.2038e-09
0.0025
-1.21014e-09
0.0025
-1.02653e-09
-5.38687e-10
0.00250162
-2.20692e-05
0.00250662
-6.70241e-05
0.00251588
-0.000117153
0.00253099
-0.000175467
0.0025543
-0.000244531