/*--------------------------------*- C++ -*----------------------------------*\
  =========                 |
  \\      /  F ield         | OpenFOAM: The Open Source CFD Toolbox
   \\    /   O peration     | Website:  https://openfoam.org
    \\  /    A nd           | Version:  11
     \\/     M anipulation  |
\*---------------------------------------------------------------------------*/
FoamFile
{
    format      ascii;
    class       volScalarField;
    location    "2.415753";
    object      p;
}
// * * * * * * * * * * * * * * * * * * * * * * * * * * * * * * * * * * * * * //

dimensions      [0 2 -2 0 0 0 0];

internalField   nonuniform List<scalar> 
7132
(
0.0513209
0.0498834
0.0450345
0.0379373
0.0279978
0.0148996
-0.00146255
-0.0211204
-0.0435858
-0.0679312
-0.0927346
-0.116055
-0.136621
-0.153193
-0.164744
-0.170659
-0.170707
-0.165187
-0.154939
-0.141215
-0.125438
-0.108953
-0.092842
-0.0778628
-0.0644556
-0.0528039
-0.042908
-0.0346529
-0.0278621
-0.0223354
-0.0178738
-0.0142933
-0.0114313
-0.00914926
-0.00733152
-0.00588349
-0.00472882
-0.00380649
-0.00306798
-0.00247473
-0.00199607
-0.00160759
-0.00129021
-0.00102952
-0.000815242
-0.000640108
-0.000498528
-0.000385465
-0.000296064
-0.000225894
-0.000171259
-0.000129196
-9.72402e-05
-7.32325e-05
-5.52799e-05
-4.18166e-05
-3.16421e-05
-2.38944e-05
-1.79734e-05
-1.34557e-05
-1.00277e-05
-7.44545e-06
-5.51424e-06
-4.07856e-06
-3.0159e-06
-2.2314e-06
-1.65288e-06
-1.22625e-06
-9.11438e-07
-6.78972e-07
-5.07233e-07
-3.80308e-07
-2.86479e-07
-2.17048e-07
-1.65611e-07
-1.27399e-07
-9.89419e-08
-7.76415e-08
-6.16422e-08
-4.95264e-08
-4.03107e-08
-3.32093e-08
-2.77093e-08
-2.33641e-08
-1.99167e-08
-1.71027e-08
-1.48052e-08
-1.28569e-08
-1.12178e-08
-9.77217e-09
-8.52261e-09
-7.38031e-09
-6.37209e-09
-5.42288e-09
-4.57357e-09
-3.75582e-09
-3.01895e-09
-2.29762e-09
-1.64653e-09
-1.0014e-09
-4.20467e-10
1.60472e-10
6.80683e-10
1.20478e-09
1.67017e-09
2.1421e-09
2.55654e-09
2.97944e-09
3.34562e-09
3.72173e-09
4.04165e-09
4.37268e-09
4.64795e-09
4.93534e-09
5.16734e-09
5.41236e-09
5.60238e-09
5.80627e-09
5.95556e-09
6.11954e-09
6.22938e-09
6.3547e-09
6.4264e-09
6.51437e-09
6.54931e-09
6.60133e-09
6.60095e-09
6.61847e-09
6.5843e-09
6.56885e-09
6.50249e-09
6.45571e-09
6.35883e-09
6.28241e-09
6.15676e-09
6.05246e-09
5.89985e-09
5.7695e-09
5.59179e-09
5.43729e-09
5.23639e-09
5.05969e-09
4.83754e-09
4.64064e-09
4.39915e-09
4.18414e-09
3.92517e-09
3.69431e-09
3.41951e-09
3.17571e-09
2.88557e-09
2.63504e-09
2.32379e-09
2.0847e-09
1.72835e-09
1.53567e-09
1.10974e-09
9.70425e-10
4.54421e-10
6.41527e-10
0.051894
0.0504684
0.0456615
0.0386083
0.0287044
0.0156056
-0.000818795
-0.0206397
-0.0433695
-0.0680783
-0.0932728
-0.116898
-0.137716
-0.154478
-0.166144
-0.172092
-0.172071
-0.166377
-0.155872
-0.141847
-0.125773
-0.109031
-0.0927242
-0.077614
-0.0641337
-0.0524544
-0.0425631
-0.0343327
-0.0275771
-0.0220896
-0.0176668
-0.014122
-0.0112915
-0.00903623
-0.00724085
-0.00581113
-0.00467126
-0.00376076
-0.00303166
-0.00244587
-0.00197309
-0.00158923
-0.00127544
-0.00101754
-0.000805412
-0.000631979
-0.000491785
-0.000379888
-0.000291481
-0.000222156
-0.000168226
-0.000126747
-9.52795e-05
-7.16829e-05
-5.40766e-05
-4.08989e-05
-3.09524e-05
-2.33805e-05
-1.75919e-05
-1.3173e-05
-9.81869e-06
-7.29123e-06
-5.40046e-06
-3.99442e-06
-2.95338e-06
-2.18471e-06
-1.61792e-06
-1.20009e-06
-8.91944e-07
-6.64533e-07
-4.96601e-07
-3.72508e-07
-2.80764e-07
-2.12856e-07
-1.62532e-07
-1.25133e-07
-9.72741e-08
-7.64137e-08
-6.07399e-08
-4.88626e-08
-3.98234e-08
-3.28502e-08
-2.74457e-08
-2.31692e-08
-1.97738e-08
-1.69965e-08
-1.47275e-08
-1.27986e-08
-1.11755e-08
-9.73984e-09
-8.49941e-09
-7.36204e-09
-6.35931e-09
-5.41226e-09
-4.56647e-09
-3.74935e-09
-3.01495e-09
-2.29342e-09
-1.64424e-09
-9.98433e-10
-4.19111e-10
1.62774e-10
6.81526e-10
1.20673e-09
1.67073e-09
2.14385e-09
2.55694e-09
2.9811e-09
3.34594e-09
3.72334e-09
4.04192e-09
4.37427e-09
4.64819e-09
4.93692e-09
5.16756e-09
5.41394e-09
5.60258e-09
5.80783e-09
5.95575e-09
6.12109e-09
6.22955e-09
6.35623e-09
6.42654e-09
6.51589e-09
6.54943e-09
6.60281e-09
6.60103e-09
6.61991e-09
6.58434e-09
6.57026e-09
6.50248e-09
6.45707e-09
6.35877e-09
6.28372e-09
6.15665e-09
6.05372e-09
5.89968e-09
5.7707e-09
5.59156e-09
5.43843e-09
5.2361e-09
5.06077e-09
4.83719e-09
4.64165e-09
4.39873e-09
4.18508e-09
3.92468e-09
3.69517e-09
3.41893e-09
3.17647e-09
2.88487e-09
2.63573e-09
2.32299e-09
2.0855e-09
1.72722e-09
1.53701e-09
1.10633e-09
9.74909e-10
4.37098e-10
6.72246e-10
0.053035
0.0516348
0.0469135
0.0399533
0.0301262
0.0170329
0.000489793
-0.0196568
-0.0429213
-0.0683747
-0.0943687
-0.118605
-0.13993
-0.157075
-0.168975
-0.17499
-0.174834
-0.168791
-0.157764
-0.143127
-0.126447
-0.109184
-0.0924806
-0.0771069
-0.063481
-0.0517485
-0.0418684
-0.0336891
-0.0270056
-0.0215975
-0.0172528
-0.0137797
-0.0110123
-0.00881086
-0.0070602
-0.00566704
-0.00455669
-0.00366981
-0.00295951
-0.00238863
-0.00192765
-0.00155305
-0.00124646
-0.000994085
-0.000786179
-0.000616006
-0.000478427
-0.000368729
-0.000282234
-0.000214583
-0.000162105
-0.000121865
-9.14407e-05
-6.87122e-05
-5.18138e-05
-3.9196e-05
-2.96768e-05
-2.24221e-05
-1.68672e-05
-1.26225e-05
-9.40072e-06
-6.97556e-06
-5.16374e-06
-3.81803e-06
-2.82252e-06
-2.08784e-06
-1.54622e-06
-1.14701e-06
-8.52649e-07
-6.35475e-07
-4.75154e-07
-3.56712e-07
-2.6915e-07
-2.04324e-07
-1.56266e-07
-1.2053e-07
-9.38915e-08
-7.39272e-08
-5.89124e-08
-4.7519e-08
-3.88359e-08
-3.21239e-08
-2.69117e-08
-2.27759e-08
-1.94843e-08
-1.67828e-08
-1.457e-08
-1.26819e-08
-1.10892e-08
-9.6755e-09
-8.45174e-09
-7.32605e-09
-6.33251e-09
-5.39165e-09
-4.55102e-09
-3.7371e-09
-3.00567e-09
-2.28574e-09
-1.63835e-09
-9.93265e-10
-4.15108e-10
1.66536e-10
6.84471e-10
1.20969e-09
1.67306e-09
2.14634e-09
2.55889e-09
2.98329e-09
3.34765e-09
3.72534e-09
4.04347e-09
4.37613e-09
4.64961e-09
4.93866e-09
5.16888e-09
5.41558e-09
5.60381e-09
5.80939e-09
5.95689e-09
6.12257e-09
6.23061e-09
6.35763e-09
6.42753e-09
6.51721e-09
6.55034e-09
6.60406e-09
6.60186e-09
6.62109e-09
6.5851e-09
6.57137e-09
6.50318e-09
6.45811e-09
6.3594e-09
6.2847e-09
6.15721e-09
6.05463e-09
5.90018e-09
5.77155e-09
5.592e-09
5.43922e-09
5.23648e-09
5.06149e-09
4.8375e-09
4.64231e-09
4.39899e-09
4.18568e-09
3.92488e-09
3.69571e-09
3.41906e-09
3.17696e-09
2.88491e-09
2.63621e-09
2.32283e-09
2.08611e-09
1.72626e-09
1.53847e-09
1.10136e-09
9.82225e-10
4.09611e-10
7.21836e-10
0.0547342
0.0533741
0.0487883
0.0419783
0.0322809
0.0192122
0.00250506
-0.0181295
-0.0422119
-0.0688301
-0.096068
-0.121227
-0.143316
-0.161043
-0.173299
-0.179424
-0.17906
-0.172475
-0.160636
-0.14505
-0.127438
-0.109378
-0.0920768
-0.0763109
-0.0624733
-0.0506686
-0.0408124
-0.0327158
-0.0261446
-0.0208586
-0.0166328
-0.0132684
-0.0105961
-0.00847531
-0.00679156
-0.00545298
-0.00438658
-0.0035348
-0.00285238
-0.0023036
-0.00186005
-0.00149914
-0.00120319
-0.00095898
-0.000757318
-0.00059199
-0.000458316
-0.000351915
-0.000268298
-0.000203175
-0.000152895
-0.000114535
-8.56963e-05
-6.4285e-05
-4.84568e-05
-3.66807e-05
-2.77992e-05
-2.10143e-05
-1.58029e-05
-1.1813e-05
-8.78454e-06
-6.50825e-06
-4.81129e-06
-3.55366e-06
-2.6251e-06
-1.9409e-06
-1.43712e-06
-1.06616e-06
-7.92849e-07
-5.91325e-07
-4.42615e-07
-3.32764e-07
-2.51541e-07
-1.91383e-07
-1.46756e-07
-1.13542e-07
-8.87573e-08
-7.01549e-08
-5.61416e-08
-4.54836e-08
-3.73414e-08
-3.10259e-08
-2.61056e-08
-2.21833e-08
-1.90494e-08
-1.64628e-08
-1.43354e-08
-1.2509e-08
-1.09627e-08
-9.58199e-09
-8.38359e-09
-7.2754e-09
-6.29588e-09
-5.36415e-09
-4.53143e-09
-3.72211e-09
-2.99531e-09
-2.27752e-09
-1.63298e-09
-9.88701e-10
-4.12442e-10
1.69125e-10
6.8567e-10
1.21121e-09
1.67346e-09
2.14729e-09
2.55887e-09
2.98393e-09
3.34739e-09
3.72582e-09
4.04308e-09
4.37652e-09
4.64915e-09
4.939e-09
5.16837e-09
5.4159e-09
5.60328e-09
5.80969e-09
5.95634e-09
6.12286e-09
6.23004e-09
6.35791e-09
6.42695e-09
6.51748e-09
6.54974e-09
6.60432e-09
6.60126e-09
6.62134e-09
6.58448e-09
6.57161e-09
6.50255e-09
6.45834e-09
6.35876e-09
6.28491e-09
6.15656e-09
6.05483e-09
5.89951e-09
5.77174e-09
5.59133e-09
5.4394e-09
5.23579e-09
5.06166e-09
4.8368e-09
4.64246e-09
4.39827e-09
4.18583e-09
3.92415e-09
3.69584e-09
3.41829e-09
3.17707e-09
2.88407e-09
2.63634e-09
2.32178e-09
2.08649e-09
1.7243e-09
1.54015e-09
1.09471e-09
9.91227e-10
3.78095e-10
7.77077e-10
0.0569756
0.055673
0.0512807
0.044691
0.0351942
0.0221907
0.00529338
-0.0159883
-0.0411907
-0.0694576
-0.0984421
-0.124835
-0.14795
-0.166464
-0.179213
-0.185504
-0.18487
-0.177545
-0.164577
-0.147666
-0.128757
-0.1096
-0.091484
-0.0751937
-0.0610818
-0.0491923
-0.0393799
-0.0314033
-0.0249895
-0.0198713
-0.0158073
-0.0125896
-0.0100448
-0.0080317
-0.00643698
-0.00517077
-0.00416252
-0.00335709
-0.00271142
-0.0021917
-0.00177108
-0.00142815
-0.00114617
-0.000912686
-0.000719239
-0.000560294
-0.00043177
-0.000329724
-0.00024991
-0.000188136
-0.000140775
-0.00010492
-7.81991e-05
-5.85447e-05
-4.41354e-05
-3.34625e-05
-2.54043e-05
-1.92162e-05
-1.44365e-05
-1.07665e-05
-7.98295e-06
-5.89752e-06
-4.34951e-06
-3.20708e-06
-2.36656e-06
-1.74889e-06
-1.29494e-06
-9.61054e-07
-7.15242e-07
-5.34078e-07
-4.00429e-07
-3.01707e-07
-2.28698e-07
-1.74591e-07
-1.34417e-07
-1.04476e-07
-8.20974e-08
-6.52618e-08
-5.25472e-08
-4.28426e-08
-3.54013e-08
-2.96e-08
-2.5058e-08
-2.14129e-08
-1.84833e-08
-1.6046e-08
-1.4029e-08
-1.2283e-08
-1.07965e-08
-9.45897e-09
-8.29312e-09
-7.20805e-09
-6.24637e-09
-5.3269e-09
-4.50409e-09
-3.70118e-09
-2.98e-09
-2.26545e-09
-1.62423e-09
-9.8147e-10
-4.07281e-10
1.73706e-10
6.88849e-10
1.21432e-09
1.67553e-09
2.14957e-09
2.5603e-09
2.98573e-09
3.34844e-09
3.72732e-09
4.04389e-09
4.37784e-09
4.6498e-09
4.94019e-09
5.1689e-09
5.41699e-09
5.60372e-09
5.8107e-09
5.9567e-09
6.12379e-09
6.23033e-09
6.35878e-09
6.42718e-09
6.51829e-09
6.54992e-09
6.60508e-09
6.60137e-09
6.62205e-09
6.58455e-09
6.57226e-09
6.50257e-09
6.45895e-09
6.35873e-09
6.28548e-09
6.15648e-09
6.05535e-09
5.89939e-09
5.77223e-09
5.59117e-09
5.43984e-09
5.2356e-09
5.06206e-09
4.83657e-09
4.64284e-09
4.39801e-09
4.18617e-09
3.92385e-09
3.69615e-09
3.41794e-09
3.17736e-09
2.88362e-09
2.63664e-09
2.32106e-09
2.08705e-09
1.72249e-09
1.54207e-09
1.08801e-09
1.00061e-09
3.49048e-10
8.27825e-10
0.0597367
0.0585123
0.0543823
0.0481003
0.0388994
0.0260323
0.00894701
-0.0131345
-0.0397852
-0.070284
-0.101602
-0.129534
-0.15394
-0.173457
-0.186848
-0.193372
-0.192391
-0.184087
-0.16962
-0.150958
-0.130352
-0.10978
-0.090631
-0.0736935
-0.0592584
-0.047286
-0.0375494
-0.0297401
-0.0235356
-0.0186357
-0.014779
-0.0117473
-0.00936297
-0.00748456
-0.00600055
-0.00482398
-0.00388748
-0.00313904
-0.00253844
-0.00205426
-0.00166161
-0.0013406
-0.00107564
-0.000855283
-0.000671931
-0.000520884
-0.00039877
-0.000302161
-0.000227098
-0.000169503
-0.000125782
-9.30549e-05
-6.89809e-05
-5.15235e-05
-3.88826e-05
-2.95738e-05
-2.25207e-05
-1.70514e-05
-1.2787e-05
-9.49884e-06
-7.00915e-06
-5.15438e-06
-3.78711e-06
-2.7847e-06
-2.05128e-06
-1.51463e-06
-1.12143e-06
-8.3281e-07
-6.20591e-07
-4.64299e-07
-3.49038e-07
-2.63891e-07
-2.0089e-07
-1.54151e-07
-1.19399e-07
-9.34421e-08
-7.39919e-08
-5.93076e-08
-4.8174e-08
-3.96301e-08
-3.30421e-08
-2.78667e-08
-2.37851e-08
-2.04773e-08
-1.77963e-08
-1.55407e-08
-1.36581e-08
-1.20099e-08
-1.05963e-08
-9.31125e-09
-8.18499e-09
-7.12805e-09
-6.18804e-09
-5.28353e-09
-4.47273e-09
-3.67763e-09
-2.96325e-09
-2.25265e-09
-1.61542e-09
-9.74515e-10
-4.02791e-10
1.7748e-10
6.90978e-10
1.21635e-09
1.67636e-09
2.15065e-09
2.5604e-09
2.98627e-09
3.34814e-09
3.72757e-09
4.04336e-09
4.37791e-09
4.64913e-09
4.94016e-09
5.16816e-09
5.4169e-09
5.60292e-09
5.81057e-09
5.95587e-09
6.12364e-09
6.22947e-09
6.35861e-09
6.4263e-09
6.51811e-09
6.54902e-09
6.60488e-09
6.60048e-09
6.62185e-09
6.58364e-09
6.57206e-09
6.50166e-09
6.45874e-09
6.35782e-09
6.28527e-09
6.15557e-09
6.05515e-09
5.89849e-09
5.77203e-09
5.59027e-09
5.43965e-09
5.23471e-09
5.06188e-09
4.83569e-09
4.64267e-09
4.39714e-09
4.18601e-09
3.92298e-09
3.696e-09
3.41707e-09
3.17722e-09
2.88267e-09
2.63655e-09
2.31987e-09
2.08729e-09
1.72028e-09
1.54376e-09
1.08138e-09
1.00925e-09
3.24729e-10
8.69297e-10
0.0629865
0.061865
0.058079
0.052214
0.0434367
0.03082
0.0135904
-0.00942829
-0.0378886
-0.0713503
-0.10571
-0.135464
-0.161421
-0.182163
-0.196368
-0.203243
-0.201882
-0.192354
-0.175957
-0.155028
-0.132242
-0.109881
-0.0894584
-0.0717483
-0.0569503
-0.0449106
-0.0352955
-0.0277116
-0.0217763
-0.0171502
-0.0135495
-0.0107447
-0.00855439
-0.00683765
-0.00548581
-0.00441574
-0.00356415
-0.00288292
-0.00233529
-0.00189278
-0.00153284
-0.00123742
-0.000992356
-0.000787379
-0.000615917
-0.000474226
-0.000359746
-0.000269621
-0.000200214
-0.000147583
-0.000108182
-7.91729e-05
-5.82538e-05
-4.34155e-05
-3.28724e-05
-2.51613e-05
-1.92624e-05
-1.46008e-05
-1.09077e-05
-8.04375e-06
-5.88538e-06
-4.29457e-06
-3.13612e-06
-2.29617e-06
-1.68716e-06
-1.24457e-06
-9.21785e-07
-6.85497e-07
-5.12005e-07
-3.84317e-07
-2.90162e-07
-2.20577e-07
-1.69043e-07
-1.30745e-07
-1.02201e-07
-8.08085e-08
-6.4712e-08
-5.24907e-08
-4.31669e-08
-3.59516e-08
-3.03401e-08
-2.58812e-08
-2.23265e-08
-1.94049e-08
-1.70083e-08
-1.49609e-08
-1.3232e-08
-1.1696e-08
-1.03655e-08
-9.14089e-09
-8.05979e-09
-7.03528e-09
-6.11993e-09
-5.23274e-09
-4.43553e-09
-3.64961e-09
-2.94284e-09
-2.237e-09
-1.60416e-09
-9.65613e-10
-3.96533e-10
1.8268e-10
6.94477e-10
1.2195e-09
1.67832e-09
2.15264e-09
2.56148e-09
2.98761e-09
3.34871e-09
3.72851e-09
4.04362e-09
4.37861e-09
4.64919e-09
4.94071e-09
5.16807e-09
5.41732e-09
5.60274e-09
5.81092e-09
5.95561e-09
6.12392e-09
6.22915e-09
6.35883e-09
6.42592e-09
6.51828e-09
6.54861e-09
6.60502e-09
6.60002e-09
6.62195e-09
6.58315e-09
6.57213e-09
6.50114e-09
6.45879e-09
6.35728e-09
6.2853e-09
6.15502e-09
6.05516e-09
5.89792e-09
5.77202e-09
5.58969e-09
5.43964e-09
5.23411e-09
5.06186e-09
4.83509e-09
4.64264e-09
4.39653e-09
4.18597e-09
3.92237e-09
3.69597e-09
3.41643e-09
3.17718e-09
2.88195e-09
2.63657e-09
2.31889e-09
2.08761e-09
1.71835e-09
1.54544e-09
1.07562e-09
1.01687e-09
3.05908e-10
9.00997e-10
0.0666844
0.065695
0.0623494
0.0570364
0.0488502
0.036654
0.0193821
-0.00468192
-0.0353546
-0.0727319
-0.111001
-0.142799
-0.170557
-0.192767
-0.207991
-0.215336
-0.213516
-0.20245
-0.183611
-0.159824
-0.134325
-0.109784
-0.0878502
-0.0692615
-0.0540861
-0.0420186
-0.0325904
-0.0253049
-0.0197085
-0.015418
-0.0121252
-0.00958962
-0.00762711
-0.00609851
-0.00489938
-0.00395163
-0.00319709
-0.00259234
-0.00210473
-0.00170926
-0.00138615
-0.00111951
-0.000896853
-0.000709265
-0.000551355
-0.00042043
-0.000314795
-0.000232204
-0.000169357
-0.000122466
-8.80554e-05
-6.33502e-05
-4.60965e-05
-3.43065e-05
-2.61937e-05
-2.03082e-05
-1.56973e-05
-1.19132e-05
-8.83091e-06
-6.4234e-06
-4.62837e-06
-3.3318e-06
-2.4078e-06
-1.75037e-06
-1.28091e-06
-9.43638e-07
-6.99559e-07
-5.21671e-07
-3.91339e-07
-2.95491e-07
-2.2481e-07
-1.72521e-07
-1.3372e-07
-1.04791e-07
-8.31355e-08
-6.68041e-08
-5.44264e-08
-4.49361e-08
-3.76186e-08
-3.18762e-08
-2.73469e-08
-2.36821e-08
-2.07113e-08
-1.82179e-08
-1.61364e-08
-1.43198e-08
-1.27611e-08
-1.13494e-08
-1.01111e-08
-8.95339e-09
-7.92229e-09
-6.93377e-09
-6.04568e-09
-5.17776e-09
-4.39554e-09
-3.61984e-09
-2.92143e-09
-2.22092e-09
-1.59286e-09
-9.5699e-10
-3.90754e-10
1.87227e-10
6.97226e-10
1.2218e-09
1.67938e-09
2.1537e-09
2.56162e-09
2.98796e-09
3.34831e-09
3.72847e-09
4.04291e-09
4.37834e-09
4.6483e-09
4.94029e-09
5.16707e-09
5.41683e-09
5.60166e-09
5.81036e-09
5.95449e-09
6.12333e-09
6.228e-09
6.35822e-09
6.42475e-09
6.51765e-09
6.54742e-09
6.60439e-09
6.59884e-09
6.62132e-09
6.58197e-09
6.57151e-09
6.49997e-09
6.45817e-09
6.35612e-09
6.28469e-09
6.15387e-09
6.05458e-09
5.8968e-09
5.77146e-09
5.58859e-09
5.4391e-09
5.23304e-09
5.06135e-09
4.83404e-09
4.64216e-09
4.39551e-09
4.18553e-09
3.92138e-09
3.69555e-09
3.41545e-09
3.17681e-09
2.88093e-09
2.63628e-09
2.31766e-09
2.08766e-09
1.71631e-09
1.54675e-09
1.07054e-09
1.02307e-09
2.91708e-10
9.2424e-10
0.0707785
0.0699551
0.0671616
0.0625649
0.0551859
0.043656
0.0265268
0.00136682
-0.0319703
-0.0745433
-0.117818
-0.151781
-0.181541
-0.205447
-0.221948
-0.230047
-0.227819
-0.214893
-0.192953
-0.165524
-0.136619
-0.109412
-0.0856974
-0.0661294
-0.0505838
-0.0385535
-0.0293998
-0.0225022
-0.0173257
-0.0134393
-0.0105101
-0.00828764
-0.00658702
-0.00527281
-0.0042464
-0.00343617
-0.00279014
-0.0022705
-0.00184942
-0.00150586
-0.00122327
-0.000988239
-0.000790223
-0.000621854
-0.000479046
-0.000360223
-0.00026459
-0.000190521
-0.000135064
-9.46029e-05
-6.5781e-05
-4.59111e-05
-3.27993e-05
-2.4463e-05
-1.90867e-05
-1.52162e-05
-1.19785e-05
-9.09285e-06
-6.62231e-06
-4.67858e-06
-3.26557e-06
-2.28656e-06
-1.61829e-06
-1.16012e-06
-8.42627e-07
-6.19734e-07
-4.60876e-07
-3.46019e-07
-2.62127e-07
-2.00459e-07
-1.54934e-07
-1.21158e-07
-9.59783e-08
-7.70641e-08
-6.27701e-08
-5.18465e-08
-4.34412e-08
-3.68679e-08
-3.16928e-08
-2.75233e-08
-2.41494e-08
-2.13328e-08
-1.89852e-08
-1.69491e-08
-1.52041e-08
-1.3634e-08
-1.22571e-08
-1.09784e-08
-9.83833e-09
-8.75233e-09
-7.77454e-09
-6.82461e-09
-5.96556e-09
-5.11837e-09
-4.35207e-09
-3.58744e-09
-2.89787e-09
-2.20322e-09
-1.58017e-09
-9.47312e-10
-3.84006e-10
1.92502e-10
7.0069e-10
1.22463e-09
1.68101e-09
2.15515e-09
2.5622e-09
2.98863e-09
3.34829e-09
3.72867e-09
4.04252e-09
4.37826e-09
4.64769e-09
4.94004e-09
5.16631e-09
5.41645e-09
5.6008e-09
5.8099e-09
5.95356e-09
6.12281e-09
6.22702e-09
6.35766e-09
6.42374e-09
6.51707e-09
6.54638e-09
6.60378e-09
6.59778e-09
6.6207e-09
6.58091e-09
6.57089e-09
6.49891e-09
6.45756e-09
6.35506e-09
6.28409e-09
6.15283e-09
6.05399e-09
5.89577e-09
5.77089e-09
5.58758e-09
5.43855e-09
5.23206e-09
5.06082e-09
4.83309e-09
4.64166e-09
4.39459e-09
4.18507e-09
3.92048e-09
3.69513e-09
3.41457e-09
3.17642e-09
2.88001e-09
2.63598e-09
2.31657e-09
2.08768e-09
1.71456e-09
1.54789e-09
1.06641e-09
1.02809e-09
2.81323e-10
9.41022e-10
0.0752032
0.074584
0.0724688
0.0687837
0.0624836
0.0519597
0.0352707
0.00906306
-0.0274517
-0.0770008
-0.126646
-0.162648
-0.194597
-0.220488
-0.238556
-0.24763
-0.244952
-0.22976
-0.20397
-0.172023
-0.138955
-0.108577
-0.0828294
-0.0622181
-0.0463509
-0.0344594
-0.0256959
-0.0192951
-0.0146317
-0.0112246
-0.00871728
-0.00685249
-0.00544708
-0.00437196
-0.00353651
-0.0028772
-0.00234954
-0.00192223
-0.00157296
-0.0012852
-0.00104601
-0.000844816
-0.000673244
-0.000525643
-0.000399333
-0.000293882
-0.000209379
-0.00014479
-9.7516e-05
-6.41373e-05
-4.14698e-05
-2.69584e-05
-1.84785e-05
-1.40239e-05
-1.17032e-05
-1.00278e-05
-8.21725e-06
-6.21339e-06
-4.32515e-06
-2.83571e-06
-1.81669e-06
-1.17581e-06
-7.82104e-07
-5.37058e-07
-3.81199e-07
-2.79458e-07
-2.10587e-07
-1.62084e-07
-1.26955e-07
-1.01113e-07
-8.19272e-08
-6.75189e-08
-5.6578e-08
-4.8128e-08
-4.15214e-08
-3.62432e-08
-3.19835e-08
-2.84536e-08
-2.55134e-08
-2.29845e-08
-2.08158e-08
-1.88836e-08
-1.71861e-08
-1.56269e-08
-1.42325e-08
-1.29197e-08
-1.17322e-08
-1.05921e-08
-9.55458e-09
-8.54338e-09
-7.62114e-09
-6.71152e-09
-5.88269e-09
-5.05718e-09
-4.30743e-09
-3.55441e-09
-2.87401e-09
-2.18551e-09
-1.56763e-09
-9.37967e-10
-3.7765e-10
1.97264e-10
7.03631e-10
1.22685e-09
1.68205e-09
2.15595e-09
2.56217e-09
2.98863e-09
3.34765e-09
3.72821e-09
4.04153e-09
4.37753e-09
4.64648e-09
4.93913e-09
5.16497e-09
5.41544e-09
5.59937e-09
5.80883e-09
5.95208e-09
6.1217e-09
6.22551e-09
6.35653e-09
6.42221e-09
6.51593e-09
6.54485e-09
6.60265e-09
6.59626e-09
6.61958e-09
6.5794e-09
6.56979e-09
6.49742e-09
6.45648e-09
6.35361e-09
6.28305e-09
6.15141e-09
6.05298e-09
5.89439e-09
5.76993e-09
5.58625e-09
5.43764e-09
5.23077e-09
5.05996e-09
4.83186e-09
4.64086e-09
4.39341e-09
4.18432e-09
3.91936e-09
3.69444e-09
3.41348e-09
3.17579e-09
2.87892e-09
2.63545e-09
2.31535e-09
2.08747e-09
1.71285e-09
1.54868e-09
1.06296e-09
1.0319e-09
2.73698e-10
9.52959e-10
0.0798777
0.079505
0.0782066
0.0756603
0.0707736
0.0617206
0.0459294
0.0189071
-0.0213684
-0.0804075
-0.138271
-0.175826
-0.209882
-0.237957
-0.258131
-0.268904
-0.266009
-0.248057
-0.217318
-0.179579
-0.141305
-0.107117
-0.0790545
-0.0573654
-0.0412717
-0.0296642
-0.02144
-0.0156671
-0.0116234
-0.00877794
-0.00675452
-0.0052929
-0.00421584
-0.0034038
-0.00277661
-0.0022807
-0.00188036
-0.0015518
-0.0012789
-0.0010502
-0.000856769
-0.000691196
-0.000547551
-0.000422054
-0.000313503
-0.000222593
-0.000150243
-9.59678e-05
-5.75098e-05
-3.1712e-05
-1.56368e-05
-6.92342e-06
-3.5238e-06
-3.35785e-06
-4.38289e-06
-5.02733e-06
-4.62103e-06
-3.40507e-06
-2.01234e-06
-9.36445e-07
-3.10607e-07
-2.32473e-08
8.10553e-08
1.03208e-07
9.14321e-08
6.81346e-08
4.44671e-08
2.50013e-08
1.03622e-08
-2.72688e-10
-7.86593e-09
-1.313e-08
-1.66408e-08
-1.88047e-08
-1.99919e-08
-2.04353e-08
-2.0376e-08
-1.99294e-08
-1.92531e-08
-1.83861e-08
-1.74379e-08
-1.64017e-08
-1.53625e-08
-1.42864e-08
-1.32474e-08
-1.21952e-08
-1.11996e-08
-1.02002e-08
-9.26643e-09
-8.33114e-09
-7.46515e-09
-6.59649e-09
-5.79826e-09
-4.99484e-09
-4.26182e-09
-3.52068e-09
-2.84951e-09
-2.16737e-09
-1.55469e-09
-9.2837e-10
-3.71013e-10
2.02179e-10
7.06763e-10
1.22915e-09
1.68322e-09
2.15678e-09
2.56222e-09
2.98861e-09
3.34705e-09
3.72769e-09
4.04054e-09
4.37671e-09
4.64526e-09
4.93813e-09
5.16359e-09
5.41432e-09
5.5979e-09
5.80763e-09
5.95055e-09
6.12046e-09
6.22394e-09
6.35526e-09
6.42062e-09
6.51464e-09
6.54326e-09
6.60136e-09
6.59467e-09
6.61831e-09
6.57783e-09
6.56853e-09
6.49587e-09
6.45526e-09
6.35209e-09
6.28186e-09
6.14993e-09
6.05183e-09
5.89296e-09
5.76883e-09
5.58487e-09
5.43659e-09
5.22945e-09
5.05898e-09
4.8306e-09
4.63993e-09
4.39221e-09
4.18346e-09
3.91823e-09
3.69366e-09
3.41241e-09
3.17509e-09
2.87785e-09
2.63486e-09
2.31421e-09
2.08719e-09
1.71136e-09
1.54926e-09
1.06022e-09
1.03482e-09
2.68196e-10
9.61479e-10
0.0847048
0.0846217
0.0842855
0.083128
0.0800548
0.0730732
0.0588489
0.0315334
-0.0132006
-0.085394
-0.15353
-0.191538
-0.227857
-0.258389
-0.280954
-0.293824
-0.290941
-0.269811
-0.23298
-0.188052
-0.143424
-0.104758
-0.0741375
-0.0514009
-0.0352406
-0.0241151
-0.0166159
-0.0116249
-0.00831961
-0.00612318
-0.00464603
-0.00363127
-0.00291274
-0.00238449
-0.00197972
-0.00165686
-0.00139041
-0.00116504
-0.000971514
-0.000803884
-0.000657629
-0.000528785
-0.000414093
-0.000311781
-0.000222117
-0.000146862
-8.76457e-05
-4.44371e-05
-1.53238e-05
2.49504e-06
1.16049e-05
1.40894e-05
1.192e-05
7.33233e-06
2.63599e-06
-4.40168e-07
-1.35924e-06
-7.68585e-07
2.65891e-07
9.91683e-07
1.22996e-06
1.14895e-06
9.51634e-07
7.45503e-07
5.64268e-07
4.15167e-07
2.98598e-07
2.11121e-07
1.46846e-07
9.98974e-08
6.56655e-08
4.08434e-08
2.29748e-08
1.0273e-08
1.35191e-09
-4.76669e-09
-8.87242e-09
-1.14824e-08
-1.30499e-08
-1.38298e-08
-1.40911e-08
-1.39427e-08
-1.35558e-08
-1.29585e-08
-1.22715e-08
-1.14775e-08
-1.06721e-08
-9.81208e-09
-8.98115e-09
-8.12113e-09
-7.31087e-09
-6.48287e-09
-5.71493e-09
-4.93345e-09
-4.21699e-09
-3.48768e-09
-2.82562e-09
-2.14984e-09
-1.54221e-09
-9.19296e-10
-3.64855e-10
2.06581e-10
7.09442e-10
1.23095e-09
1.68395e-09
2.15712e-09
2.56185e-09
2.98811e-09
3.34603e-09
3.72671e-09
4.03916e-09
4.37544e-09
4.64364e-09
4.93669e-09
5.16184e-09
5.41277e-09
5.59606e-09
5.80601e-09
5.94865e-09
6.1188e-09
6.22202e-09
6.35359e-09
6.4187e-09
6.51297e-09
6.54134e-09
6.59971e-09
6.59278e-09
6.61668e-09
6.57597e-09
6.56695e-09
6.49405e-09
6.45372e-09
6.35032e-09
6.28036e-09
6.14822e-09
6.0504e-09
5.89131e-09
5.76747e-09
5.58328e-09
5.4353e-09
5.22794e-09
5.05776e-09
4.82916e-09
4.63879e-09
4.39086e-09
4.18241e-09
3.91696e-09
3.69269e-09
3.41121e-09
3.17422e-09
2.87669e-09
2.63412e-09
2.31302e-09
2.08673e-09
1.70994e-09
1.54956e-09
1.05797e-09
1.03692e-09
2.64158e-10
9.67494e-10
0.0895694
0.0898193
0.0905877
0.0910911
0.0902908
0.0861772
0.0744864
0.047976
-0.00202089
-0.0929009
-0.174779
-0.210286
-0.247783
-0.281324
-0.307891
-0.324674
-0.322245
-0.296982
-0.252054
-0.19775
-0.145141
-0.101159
-0.06775
-0.0440823
-0.0281056
-0.0177298
-0.0111872
-0.00715898
-0.00472467
-0.00327092
-0.0024044
-0.00188002
-0.00154916
-0.00132406
-0.00115453
-0.00101313
-0.000886052
-0.000767348
-0.000655321
-0.000550035
-0.000451752
-0.000360279
-0.000275245
-0.000196992
-0.000127229
-6.86106e-05
-2.33021e-05
8.3505e-06
2.78819e-05
3.76072e-05
3.95888e-05
3.55304e-05
2.73404e-05
1.75378e-05
8.87142e-06
3.33397e-06
1.29348e-06
1.5451e-06
2.44142e-06
2.91481e-06
2.77704e-06
2.31278e-06
1.80508e-06
1.37113e-06
1.02387e-06
7.51911e-07
5.44652e-07
3.91023e-07
2.7866e-07
1.96595e-07
1.36614e-07
9.28956e-08
6.1166e-08
3.82981e-08
2.19199e-08
1.03311e-08
2.21192e-09
-3.34298e-09
-7.07224e-09
-9.43887e-09
-1.08653e-08
-1.15723e-08
-1.18138e-08
-1.1678e-08
-1.13301e-08
-1.07852e-08
-1.01629e-08
-9.43744e-09
-8.70566e-09
-7.9183e-09
-7.16178e-09
-6.37306e-09
-5.63434e-09
-4.87412e-09
-4.17362e-09
-3.45581e-09
-2.80254e-09
-2.13294e-09
-1.53016e-09
-9.10598e-10
-3.58974e-10
2.10683e-10
7.1191e-10
1.23251e-09
1.6845e-09
2.15723e-09
2.5613e-09
2.98739e-09
3.34485e-09
3.7255e-09
4.03759e-09
4.37393e-09
4.64184e-09
4.93499e-09
5.15989e-09
5.41096e-09
5.59403e-09
5.80414e-09
5.94657e-09
6.11689e-09
6.21991e-09
6.35166e-09
6.41658e-09
6.51105e-09
6.53923e-09
6.5978e-09
6.59069e-09
6.6148e-09
6.57392e-09
6.56511e-09
6.49205e-09
6.45193e-09
6.34837e-09
6.27864e-09
6.14633e-09
6.04875e-09
5.8895e-09
5.76589e-09
5.58156e-09
5.43381e-09
5.2263e-09
5.05636e-09
4.82762e-09
4.63749e-09
4.38942e-09
4.18121e-09
3.91561e-09
3.6916e-09
3.40996e-09
3.17324e-09
2.87551e-09
2.63329e-09
2.31186e-09
2.08619e-09
1.70867e-09
1.54968e-09
1.05618e-09
1.03845e-09
2.61238e-10
9.71777e-10
0.0943393
0.0949578
0.0969598
0.0993769
0.101363
0.101026
0.0932262
0.0692685
0.0128416
-0.103507
-0.202128
-0.233519
-0.272461
-0.308376
-0.339047
-0.360726
-0.359844
-0.330108
-0.275001
-0.208726
-0.146174
-0.0959334
-0.0595555
-0.0351838
-0.0197457
-0.010465
-0.00515892
-0.00229949
-0.00087895
-0.000262529
-6.73834e-05
-7.13338e-05
-0.000151282
-0.000243146
-0.000316872
-0.000361434
-0.000376039
-0.000365018
-0.00033474
-0.000291663
-0.000241146
-0.000187027
-0.000132004
-7.8559e-05
-2.96913e-05
1.13116e-05
4.20127e-05
6.18109e-05
7.17652e-05
7.34835e-05
6.82797e-05
5.73562e-05
4.25994e-05
2.7002e-05
1.39964e-05
5.98792e-06
3.12387e-06
3.42934e-06
4.47402e-06
4.81006e-06
4.3018e-06
3.43546e-06
2.6135e-06
1.96068e-06
1.45755e-06
1.06989e-06
7.76671e-07
5.6046e-07
4.02788e-07
2.87653e-07
2.03399e-07
1.41867e-07
9.70808e-08
6.46446e-08
4.12519e-08
2.45195e-08
1.26277e-08
4.30504e-09
-1.45551e-09
-5.31303e-09
-7.83422e-09
-9.34488e-09
-1.01768e-08
-1.04744e-08
-1.04453e-08
-1.01344e-08
-9.68435e-09
-9.08526e-09
-8.44665e-09
-7.72765e-09
-7.02166e-09
-6.26994e-09
-5.5587e-09
-4.81851e-09
-4.13302e-09
-3.42607e-09
-2.78107e-09
-2.11734e-09
-1.51927e-09
-9.02811e-10
-3.53753e-10
2.14197e-10
7.13907e-10
1.23361e-09
1.68468e-09
2.15695e-09
2.56042e-09
2.98632e-09
3.34337e-09
3.72396e-09
4.03575e-09
4.37212e-09
4.63978e-09
4.933e-09
5.1577e-09
5.40887e-09
5.59175e-09
5.80199e-09
5.94425e-09
6.1147e-09
6.21757e-09
6.34947e-09
6.41424e-09
6.50888e-09
6.53692e-09
6.59566e-09
6.58843e-09
6.61272e-09
6.57171e-09
6.56309e-09
6.48992e-09
6.44998e-09
6.3463e-09
6.27676e-09
6.14433e-09
6.04694e-09
5.88758e-09
5.76416e-09
5.57973e-09
5.43218e-09
5.22457e-09
5.05483e-09
4.82599e-09
4.63606e-09
4.38789e-09
4.17989e-09
3.9142e-09
3.6904e-09
3.40865e-09
3.17216e-09
2.87429e-09
2.63237e-09
2.31068e-09
2.08554e-09
1.70747e-09
1.5496e-09
1.05469e-09
1.03946e-09
2.59069e-10
9.74778e-10
0.0988669
0.099882
0.103208
0.107782
0.113059
0.117718
0.115663
0.0982675
0.0334787
-0.126543
-0.24326
-0.256988
-0.297387
-0.339953
-0.378871
-0.407686
-0.407601
-0.371695
-0.303021
-0.221092
-0.146002
-0.0883969
-0.0489775
-0.0243188
-0.00993717
-0.0022082
0.00151631
0.00296622
0.00321369
0.00289123
0.00235212
0.0017819
0.00126883
0.000847282
0.0005234
0.0002895
0.000131942
3.52813e-05
-1.54952e-05
-3.36743e-05
-3.00805e-05
-1.28747e-05
1.20251e-05
4.00482e-05
6.71719e-05
8.98568e-05
0.000105688
0.000113869
0.000114796
0.00010905
9.6912e-05
7.89532e-05
5.71223e-05
3.51552e-05
1.74944e-05
7.1308e-06
3.90536e-06
4.80693e-06
6.35679e-06
6.6732e-06
5.78042e-06
4.4837e-06
3.34816e-06
2.49415e-06
1.85236e-06
1.3599e-06
9.87888e-07
7.14546e-07
5.15724e-07
3.70536e-07
2.64167e-07
1.864e-07
1.29727e-07
8.85892e-08
5.88199e-08
3.74132e-08
2.20934e-08
1.12562e-08
3.65013e-09
-1.56202e-09
-5.07792e-09
-7.31896e-09
-8.6875e-09
-9.37924e-09
-9.63984e-09
-9.54179e-09
-9.24842e-09
-8.7644e-09
-8.21061e-09
-7.55389e-09
-6.89392e-09
-6.17596e-09
-5.48976e-09
-4.7679e-09
-4.09611e-09
-3.39912e-09
-2.76166e-09
-2.10336e-09
-1.50953e-09
-8.95994e-10
-3.49295e-10
2.17046e-10
7.15369e-10
1.2342e-09
1.68443e-09
2.15625e-09
2.55919e-09
2.98487e-09
3.34157e-09
3.72207e-09
4.0336e-09
4.36995e-09
4.63741e-09
4.93067e-09
5.1552e-09
5.40643e-09
5.58917e-09
5.79949e-09
5.94162e-09
6.11218e-09
6.21493e-09
6.34694e-09
6.41161e-09
6.50636e-09
6.53431e-09
6.59317e-09
6.58584e-09
6.61026e-09
6.56917e-09
6.56068e-09
6.48742e-09
6.44763e-09
6.34389e-09
6.2745e-09
6.14202e-09
6.04479e-09
5.88538e-09
5.76213e-09
5.57764e-09
5.43026e-09
5.2226e-09
5.05303e-09
4.82415e-09
4.6344e-09
4.38618e-09
4.17836e-09
3.91263e-09
3.68902e-09
3.40722e-09
3.17093e-09
2.87298e-09
2.63132e-09
2.30948e-09
2.08477e-09
1.70633e-09
1.54935e-09
1.05345e-09
1.04012e-09
2.57478e-10
9.76895e-10
0.102993
0.104408
0.109102
0.11594
0.125016
0.135539
0.141987
0.134218
0.0618867
-0.136055
-0.309295
-0.300468
-0.327672
-0.365955
-0.409489
-0.447827
-0.45317
-0.413935
-0.332156
-0.233272
-0.144029
-0.0782599
-0.035834
-0.0113936
0.00133544
0.00699767
0.00876385
0.00855317
0.00747155
0.00611883
0.00479511
0.00363297
0.00267528
0.00192031
0.0013465
0.000925363
0.000627716
0.000426397
0.000297402
0.000220353
0.000178736
0.000159927
0.000154802
0.000156941
0.000161708
0.000165747
0.000166924
0.000164204
0.000157032
0.000144592
0.000125846
0.000100646
7.11389e-05
4.21331e-05
1.94583e-05
6.8601e-06
3.75037e-06
5.80146e-06
8.17022e-06
8.52197e-06
7.18899e-06
5.42385e-06
3.98335e-06
2.95591e-06
2.19836e-06
1.61474e-06
1.17311e-06
8.49619e-07