/*--------------------------------*- C++ -*----------------------------------*\
  =========                 |
  \\      /  F ield         | OpenFOAM: The Open Source CFD Toolbox
   \\    /   O peration     | Website:  https://openfoam.org
    \\  /    A nd           | Version:  11
     \\/     M anipulation  |
\*---------------------------------------------------------------------------*/
FoamFile
{
    format      ascii;
    class       surfaceScalarField;
    location    "2.415753";
    object      phi;
}
// * * * * * * * * * * * * * * * * * * * * * * * * * * * * * * * * * * * * * //

dimensions      [0 3 -1 0 0 0 0];

internalField   nonuniform List<scalar> 
14638
(
0.00250285
-2.85181e-06
0.00251145
-8.59809e-06
0.00252613
-1.46827e-05
0.00254735
-2.12168e-05
0.00257557
-2.8218e-05
0.00261103
-3.5462e-05
0.00265355
-4.25194e-05
0.0027021
-4.85486e-05
0.00275473
-5.26281e-05
0.00280846
-5.37348e-05
0.00285967
-5.12141e-05
0.00290524
-4.55678e-05
0.00294249
-3.72524e-05
0.00296926
-2.67677e-05
0.00298401
-1.47483e-05
0.00298593
-1.91771e-06
0.00297512
1.08124e-05
0.0029527
2.24128e-05
0.00292077
3.19304e-05
0.00288206
3.87131e-05
0.00283952
4.25445e-05
0.00279589
4.36298e-05
0.00275342
4.24647e-05
0.00271374
3.96772e-05
0.00267785
3.58913e-05
0.00264621
3.16407e-05
0.00261888
2.73312e-05
0.00259564
2.3238e-05
0.00257612
1.95232e-05
0.00255986
1.6262e-05
0.00254639
1.34687e-05
0.00253527
1.11192e-05
0.0025261
9.16861e-06
0.00251854
7.56433e-06
0.00251228
6.2547e-06
0.00250709
5.19202e-06
0.00250276
4.32861e-06
0.00249915
3.60753e-06
0.0024962
2.95479e-06
0.00249392
2.28335e-06
0.0024924
1.51576e-06
0.00249178
6.20498e-07
0.00249214
-3.5625e-07
0.00249342
-1.28614e-06
0.00249542
-1.99423e-06
0.00249774
-2.32498e-06
0.00249995
-2.2094e-06
0.00250165
-1.69966e-06
0.0025026
-9.53192e-07
0.00250278
-1.74623e-07
0.00250232
4.55533e-07
0.00250149
8.33072e-07
0.00250054
9.44648e-07
0.0024997
8.47078e-07
0.00249907
6.29e-07
0.00249869
3.7508e-07
0.00249855
1.45208e-07
0.00249858
-2.99433e-08
0.00249872
-1.4287e-07
0.00249892
-2.00033e-07
0.00249913
-2.14184e-07
0.00249933
-1.99536e-07
0.0024995
-1.69149e-07
0.00249964
-1.33515e-07
0.00249974
-9.98526e-08
0.00249981
-7.20443e-08
0.00249986
-5.11822e-08
0.0024999
-3.65321e-08
0.00249992
-2.65597e-08
0.00249994
-1.97117e-08
0.00249996
-1.4815e-08
0.00249997
-1.11484e-08
0.00249998
-8.32981e-09
0.00249998
-6.16299e-09
0.00249999
-4.5245e-09
0.00249999
-3.31003e-09
0.00249999
-2.42241e-09
0.0025
-1.77659e-09
0.0025
-1.30516e-09
0.0025
-9.58882e-10
0.0025
-7.03347e-10
0.0025
-5.14552e-10
0.0025
-3.75274e-10
0.0025
-2.7278e-10
0.0025
-1.9749e-10
0.0025
-1.42238e-10
0.0025
-1.01692e-10
0.0025
-7.19475e-11
0.0025
-5.01342e-11
0.0025
-3.41616e-11
0.0025
-2.24795e-11
0.0025
-1.3961e-11
0.0025
-7.76054e-12
0.0025
-3.27113e-12
0.0025
-3.03487e-14
0.0025
2.28556e-12
0.0025
3.93107e-12
0.0025
5.07654e-12
0.0025
5.86417e-12
0.0025
6.38141e-12
0.0025
6.70979e-12
0.0025
6.89193e-12
0.0025
6.97657e-12
0.0025
6.98208e-12
0.0025
6.93947e-12
0.0025
6.85397e-12
0.0025
6.74698e-12
0.0025
6.61667e-12
0.0025
6.47919e-12
0.0025
6.32896e-12
0.0025
6.17923e-12
0.0025
6.02242e-12
0.0025
5.87018e-12
0.0025
5.71391e-12
0.0025
5.56428e-12
0.0025
5.41225e-12
0.0025
5.26788e-12
0.0025
5.12193e-12
0.0025
4.98406e-12
0.0025
4.845e-12
0.0025
4.71409e-12
0.0025
4.58214e-12
0.0025
4.45824e-12
0.0025
4.33332e-12
0.0025
4.21624e-12
0.0025
4.09807e-12
0.0025
3.98749e-12
0.0025
3.87572e-12
0.0025
3.77125e-12
0.0025
3.6655e-12
0.0025
3.56675e-12
0.0025
3.4666e-12
0.0025
3.37318e-12
0.0025
3.27824e-12
0.0025
3.18976e-12
0.0025
3.09967e-12
0.0025
3.01577e-12
0.0025
2.93016e-12
0.0025
2.85052e-12
0.0025
2.76907e-12
0.0025
2.69337e-12
0.0025
2.61579e-12
0.0025
2.54375e-12
0.0025
2.46976e-12
0.0025
2.40114e-12
0.0025
2.33051e-12
0.0025
2.26512e-12
0.0025
2.19766e-12
0.0025
2.13538e-12
0.0025
2.07089e-12
0.0025
2.01171e-12
0.0025
1.94961e-12
0.0025
1.89394e-12
0.0025
1.83235e-12
0.0025
1.78425e-12
0.0025
1.71462e-12
0.0025
1.69953e-12
0.0025
1.57222e-12
0.0025
1.72145e-12
1.34492e-12
0.00250283
-5.67815e-06
0.00251135
-1.7126e-05
0.00252594
-2.92668e-05
0.00254707
-4.23437e-05
0.00257525
-5.64052e-05
0.00261081
-7.10168e-05
0.00265361
-8.5326e-05
0.00270268
-9.7614e-05
0.00275605
-0.000106
0.00281064
-0.000108324
0.00286265
-0.000103224
0.0029089
-9.18211e-05
0.0029467
-7.50544e-05
0.00297386
-5.39234e-05
0.0029888
-2.96926e-05
0.00299069
-3.80168e-06
0.00297959
2.19077e-05
0.00295667
4.53351e-05
0.00292408
6.45265e-05
0.00288464
7.81489e-05
0.00284141
8.5772e-05
0.00279721
8.78324e-05
0.00275432
8.53576e-05
0.00271436
7.96349e-05
0.00267832
7.19338e-05
0.00264662
6.33322e-05
0.00261931
5.46437e-05
0.00259613
4.6415e-05
0.00257669
3.89647e-05
0.00256052
3.24371e-05
0.00254713
2.68554e-05
0.00253608
2.21673e-05
0.00252697
1.82798e-05
0.00251945
1.50857e-05
0.00251323
1.24802e-05
0.00250805
1.03674e-05
0.00250373
8.65188e-06
0.00250011
7.22083e-06
0.00249714
5.9279e-06
0.00249482
4.60067e-06
0.00249325
3.08461e-06
0.00249256
1.31492e-06
0.00249282
-6.19699e-07
0.002494
-2.46702e-06
0.00249589
-3.88037e-06
0.00249811
-4.54922e-06
0.00250024
-4.33315e-06
0.00250187
-3.33205e-06
0.00250277
-1.85619e-06
0.00250291
-3.11726e-07
0.00250243
9.41109e-07
0.00250157
1.69262e-06
0.0025006
1.9138e-06
0.00249973
1.71616e-06
0.00249908
1.27584e-06
0.00249869
7.62304e-07
0.00249854
2.96347e-07
0.00249857
-5.93689e-08
0.00249872
-2.88835e-07
0.00249892
-4.04626e-07
0.00249914
-4.32555e-07
0.00249934
-4.01779e-07
0.00249951
-3.39222e-07
0.00249965
-2.66474e-07
0.00249974
-1.98267e-07
0.00249981
-1.42365e-07
0.00249986
-1.0078e-07
0.0024999
-7.18214e-08
0.00249993
-5.22449e-08
0.00249994
-3.88456e-08
0.00249996
-2.92521e-08
0.00249997
-2.20383e-08
0.00249998
-1.64699e-08
0.00249998
-1.21795e-08
0.00249999
-8.93475e-09
0.00249999
-6.53277e-09
0.00249999
-4.78016e-09
0.0025
-3.50656e-09
0.0025
-2.57723e-09
0.0025
-1.89441e-09
0.0025
-1.39025e-09
0.0025
-1.01759e-09
0.0025
-7.42631e-10
0.0025
-5.40301e-10
0.0025
-3.91696e-10
0.0025
-2.82644e-10
0.0025
-2.02614e-10
0.0025
-1.43893e-10
0.0025
-1.00821e-10
0.0025
-6.92696e-11
0.0025
-4.61869e-11
0.0025
-2.93435e-11
0.0025
-1.70773e-11
0.0025
-8.18351e-12
0.0025
-1.75676e-12
0.0025
2.84913e-12
0.0025
6.12865e-12
0.0025
8.42565e-12
0.0025
1.00128e-11
0.0025
1.10704e-11
0.0025
1.17514e-11
0.0025
1.21479e-11
0.0025
1.23478e-11
0.0025
1.23954e-11
0.0025
1.23436e-11
0.0025
1.22109e-11
0.0025
1.20314e-11
0.0025
1.18094e-11
0.0025
1.15688e-11
0.0025
1.13064e-11
0.0025
1.10404e-11
0.0025
1.07638e-11
0.0025
1.04917e-11
0.0025
1.02148e-11
0.0025
9.94655e-12
0.0025
9.67657e-12
0.0025
9.41741e-12
0.0025
9.15798e-12
0.0025
8.91032e-12
0.0025
8.66303e-12
0.0025
8.42781e-12
0.0025
8.19315e-12
0.0025
7.9705e-12
0.0025
7.74833e-12
0.0025
7.53795e-12
0.0025
7.3278e-12
0.0025
7.1291e-12
0.0025
6.93034e-12
0.0025
6.74265e-12
0.0025
6.55458e-12
0.0025
6.37718e-12
0.0025
6.19908e-12
0.0025
6.03126e-12
0.0025
5.86243e-12
0.0025
5.7035e-12
0.0025
5.54327e-12
0.0025
5.39258e-12
0.0025
5.24033e-12
0.0025
5.09729e-12
0.0025
4.95243e-12
0.0025
4.81649e-12
0.0025
4.6785e-12
0.0025
4.54916e-12
0.0025
4.41757e-12
0.0025
4.29438e-12
0.0025
4.16875e-12
0.0025
4.05136e-12
0.0025
3.93133e-12
0.0025
3.81948e-12
0.0025
3.70463e-12
0.0025
3.59834e-12
0.0025
3.48777e-12
0.0025
3.38822e-12
0.0025
3.27872e-12
0.0025
3.19346e-12
0.0025
3.06934e-12
0.0025
3.04165e-12
0.0025
2.81788e-12
0.0025
3.06452e-12
2.42899e-12
0.00250277
-8.453e-06
0.00251115
-2.55059e-05
0.00252553
-4.36457e-05
0.00254647
-6.32772e-05
0.00257458
-8.45144e-05
0.0026103
-0.00010674
0.00265367
-0.000128696
0.00270377
-0.000147715
0.00275865
-0.00016088
0.00281498
-0.000164648
0.00286859
-0.000156839
0.00291622
-0.000139449
0.00295512
-0.000113955
0.00298305
-8.18526e-05
0.00299838
-4.50243e-05
0.00300019
-5.60699e-06
0.0029885
3.35914e-05
0.00296452
6.9312e-05
0.00293055
9.84995e-05
0.00288962
0.000119078
0.00284499
0.000130408
0.00279961
0.000133213
0.00275584
0.000129127
0.00271531
0.000120162
0.00267896
0.000108279
0.00264718
9.51201e-05
0.00261991
8.19097e-05
0.00259687
6.9459e-05
0.0025776
5.82309e-05
0.00256161
4.84261e-05
0.0025484
4.00658e-05
0.00253751
3.30607e-05
0.00252852
2.72638e-05
0.0025211
2.25089e-05
0.00251494
1.86358e-05
0.00250981
1.54985e-05
0.00250551
1.29538e-05
0.0025019
1.08341e-05
0.0024989
8.92304e-06
0.00249654
6.96574e-06
0.00249489
4.73228e-06
0.00249408
2.12365e-06
0.0024942
-7.33175e-07
0.0024952
-3.46831e-06
0.00249689
-5.56944e-06
0.00249891
-6.57451e-06
0.00250085
-6.27118e-06
0.00250232
-4.803e-06
0.00250309
-2.62708e-06
0.00250312
-3.45382e-07
0.00250256
1.50583e-06
0.00250164
2.61239e-06
0.00250063
2.9285e-06
0.00249972
2.61827e-06
0.00249906
1.94375e-06
0.00249866
1.15882e-06
0.00249851
4.46104e-07
0.00249855
-9.8212e-08
0.00249871
-4.48416e-07
0.00249893
-6.22987e-07
0.00249915
-6.61691e-07
0.00249936
-6.10198e-07
0.00249953
-5.10902e-07
0.00249967
-3.97621e-07
0.00249976
-2.93028e-07
0.00249983
-2.08601e-07
0.00249987
-1.46776e-07
0.00249991
-1.04375e-07
0.00249993
-7.60508e-08
0.00249995
-5.67556e-08
0.00249996
-4.28884e-08
0.00249997
-3.23722e-08
0.00249998
-2.4194e-08
0.00249998
-1.78707e-08
0.00249999
-1.30905e-08
0.00249999
-9.56143e-09
0.00249999
-6.99453e-09
0.0025
-5.1331e-09
0.0025
-3.77552e-09
0.0025
-2.77732e-09
0.0025
-2.03948e-09
0.0025
-1.4937e-09
0.0025
-1.09093e-09
0.0025
-7.94605e-10
0.0025
-5.77029e-10
0.0025
-4.17383e-10
0.0025
-3.00216e-10
0.0025
-2.14221e-10
0.0025
-1.51123e-10
0.0025
-1.04882e-10
0.0025
-7.10377e-11
0.0025
-4.63231e-11
0.0025
-2.83097e-11
0.0025
-1.52292e-11
0.0025
-5.76084e-12
0.0025
1.04565e-12
0.0025
5.9091e-12
0.0025
9.33747e-12
0.0025
1.17247e-11
0.0025
1.33398e-11
0.0025
1.44011e-11
0.0025
1.50484e-11
0.0025
1.54052e-11
0.0025
1.55412e-11
0.0025
1.55287e-11
0.0025
1.53997e-11
0.0025
1.51987e-11
0.0025
1.49373e-11
0.0025
1.4645e-11
0.0025
1.43225e-11
0.0025
1.3991e-11
0.0025
1.36453e-11
0.0025
1.33024e-11
0.0025
1.29538e-11
0.0025
1.26141e-11
0.0025
1.22731e-11
0.0025
1.19441e-11
0.0025
1.16159e-11
0.0025
1.13011e-11
0.0025
1.09881e-11
0.0025
1.0689e-11
0.0025
1.03919e-11
0.0025
1.01087e-11
0.0025
9.82749e-12
0.0025
9.55981e-12
0.0025
9.29388e-12
0.0025
9.04105e-12
0.0025
8.7896e-12
0.0025
8.55076e-12
0.0025
8.31289e-12
0.0025
8.08714e-12
0.0025
7.86194e-12
0.0025
7.64837e-12
0.0025
7.43493e-12
0.0025
7.23265e-12
0.0025
7.03013e-12
0.0025
6.83833e-12
0.0025
6.64593e-12
0.0025
6.46384e-12
0.0025
6.28083e-12
0.0025
6.10776e-12
0.0025
5.93347e-12
0.0025
5.76878e-12
0.0025
5.6026e-12
0.0025
5.44572e-12
0.0025
5.28711e-12
0.0025
5.13759e-12
0.0025
4.98606e-12
0.0025
4.84358e-12
0.0025
4.69858e-12
0.0025
4.56324e-12
0.0025
4.42366e-12
0.0025
4.29712e-12
0.0025
4.1588e-12
0.0025
4.05077e-12
0.0025
3.89406e-12
0.0025
3.85593e-12
0.0025
3.58206e-12
0.0025
3.85391e-12
3.11243e-12
0.00250269
-1.11464e-05
0.00251084
-3.36511e-05
0.00252489
-5.76944e-05
0.0025455
-8.38882e-05
0.00257345
-0.000112466
0.00260939
-0.000142678
0.00265358
-0.000172889
0.00270525
-0.000199383
0.00276246
-0.000218088
0.00282146
-0.000223654
0.00287753
-0.000212903
0.00292723
-0.000189158
0.0029678
-0.000154517
0.0029969
-0.00011096
0.00301283
-6.09541e-05
0.00301452
-7.29667e-06
0.00300193
4.61807e-05
0.00297633
9.49194e-05
0.00294023
0.000134599
0.002897
0.000162306
0.00285021
0.000177199
0.00280304
0.000180383
0.00275795
0.000174215
0.00271657
0.000161539
0.00267979
0.000145067
0.00264787
0.00012704
0.00262068
0.000109094
0.00259785
9.22944e-05
0.00257885
7.72277e-05
0.00256314
6.41318e-05
0.0025502
5.3009e-05
0.00253954
4.37203e-05
0.00253075
3.60556e-05
0.00252347
2.9784e-05
0.00251742
2.46854e-05
0.00251236
2.0562e-05
0.00250809
1.72221e-05
0.00250448
1.44446e-05
0.00250146
1.19467e-05
0.00249903
9.39492e-06
0.00249727
6.48721e-06
0.00249631
3.09001e-06
0.00249621
-6.36144e-07
0.00249695
-4.21214e-06
0.00249835
-6.9692e-06
0.00250008
-8.30021e-06
0.00250173
-7.92233e-06
0.00250295
-6.01872e-06
0.00250351
-3.18559e-06
0.00250337
-2.12145e-07
0.00250268
2.19593e-06
0.00250167
3.62315e-06
0.00250059
4.00664e-06
0.00249965
3.56103e-06
0.00249896
2.63208e-06
0.00249856
1.5574e-06
0.00249843
5.82493e-07
0.00249849
-1.61043e-07
0.00249868
-6.36332e-07
0.00249892
-8.67777e-07
0.00249917
-9.10735e-07
0.00249939
-8.29983e-07
0.00249957
-6.85938e-07
0.0024997
-5.26334e-07
0.00249978
-3.82328e-07
0.00249984
-2.68708e-07
0.00249989
-1.87447e-07
0.00249991
-1.32977e-07
0.00249994
-9.72209e-08
0.00249995
-7.29997e-08
0.00249996
-5.54553e-08
0.00249997
-4.19622e-08
0.00249998
-3.13507e-08
0.00249999
-2.31091e-08
0.00249999
-1.68875e-08
0.00249999
-1.23154e-08
0.00249999
-9.00631e-09
0.0025
-6.61393e-09
0.0025
-4.86986e-09
0.0025
-3.58571e-09
0.0025
-2.63484e-09
0.0025
-1.93072e-09
0.0025
-1.41102e-09
0.0025
-1.02884e-09
0.0025
-7.48363e-10
0.0025
-5.42615e-10
0.0025
-3.916e-10
0.0025
-2.80727e-10
0.0025
-1.99344e-10
0.0025
-1.39676e-10
0.0025
-9.59861e-11
0.0025
-6.40602e-11
0.0025
-4.07711e-11
0.0025
-2.38356e-11
0.0025
-1.15552e-11
0.0025
-2.70194e-12
0.0025
3.6468e-12
0.0025
8.14886e-12
0.0025
1.13081e-11
0.0025
1.34746e-11
0.0025
1.49259e-11
0.0025
1.58455e-11
0.0025
1.63886e-11
0.0025
1.66487e-11
0.0025
1.67149e-11
0.0025
1.66321e-11
0.0025
1.64536e-11
0.0025
1.61981e-11
0.0025
1.58997e-11
0.0025
1.55628e-11
0.0025
1.52111e-11
0.0025
1.48416e-11
0.0025
1.44722e-11
0.0025
1.40957e-11
0.0025
1.37272e-11
0.0025
1.33573e-11
0.0025
1.29992e-11
0.0025
1.26424e-11
0.0025
1.22993e-11
0.0025
1.19587e-11
0.0025
1.16325e-11
0.0025
1.13092e-11
0.0025
1.10003e-11
0.0025
1.06942e-11
0.0025
1.04023e-11
0.0025
1.01129e-11
0.0025
9.83723e-12
0.0025
9.56368e-12
0.0025
9.30326e-12
0.0025
9.04455e-12
0.0025
8.79844e-12
0.0025
8.55356e-12
0.0025
8.32074e-12
0.0025
8.08871e-12
0.0025
7.86823e-12
0.0025
7.64812e-12
0.0025
7.43906e-12
0.0025
7.22998e-12
0.0025
7.03152e-12
0.0025
6.83268e-12
0.0025
6.64405e-12
0.0025
6.45471e-12
0.0025
6.27523e-12
0.0025
6.09473e-12
0.0025
5.92376e-12
0.0025
5.7515e-12
0.0025
5.58855e-12
0.0025
5.424e-12
0.0025
5.26875e-12
0.0025
5.11131e-12
0.0025
4.96393e-12
0.0025
4.81234e-12
0.0025
4.67479e-12
0.0025
4.52446e-12
0.0025
4.40717e-12
0.0025
4.23749e-12
0.0025
4.19126e-12
0.0025
3.90759e-12
0.0025
4.14847e-12
3.42623e-12
0.00250258
-1.37234e-05
0.00251039
-4.146e-05
0.00252395
-7.12606e-05
0.00254407
-0.000104007
0.00257173
-0.000140128
0.00260788
-0.000178822
0.00265312
-0.000218131
0.00270689
-0.000253158
0.00276734
-0.000278529
0.00283007
-0.00028639
0.00288948
-0.000272308
0.002942
-0.000241677
0.0029848
-0.000197324
0.00301552
-0.000141675
0.00303229
-7.7725e-05
0.00303385
-8.85871e-06
0.00302004
5.99964e-05
0.00299218
0.000122775
0.00295313
0.000173648
0.00290672
0.000208715
0.00285697
0.000226953
0.00280736
0.000229987
0.00276051
0.000221073
0.00271802
0.000204027
0.00268067
0.000182411
0.00264862
0.000159097
0.00262157
0.000136136
0.00259904
0.000114824
0.00258043
9.58451e-05
0.00256511
7.94461e-05
0.00255253
6.55876e-05
0.00254219
5.40637e-05
0.00253366
4.45893e-05
0.00252658
3.68607e-05
0.00252067
3.05939e-05
0.0025157
2.55359e-05
0.00251147
2.14462e-05
0.00250787
1.80519e-05
0.00250481
1.50075e-05
0.00250229
1.19069e-05
0.0025004
8.38027e-06
0.00249923
4.26012e-06
0.00249886
-2.64892e-07
0.00249926
-4.61715e-06
0.00250028
-7.98388e-06
0.0025016
-9.62268e-06
0.00250286
-9.18342e-06
0.00250373
-6.88465e-06
0.002504
-3.45182e-06
0.00250363
1.50288e-07
0.00250277
3.05623e-06
0.00250164
4.75429e-06
0.00250048
5.16498e-06
0.00249949
4.55084e-06
0.00249879
3.33862e-06
0.0024984
1.94871e-06
0.00249829
6.90848e-07
0.00249839
-2.65367e-07
0.00249862
-8.70057e-07
0.00249891
-1.15383e-06
0.00249919
-1.19021e-06
0.00249943
-1.06696e-06
0.00249961
-8.6616e-07
0.00249973
-6.51807e-07
0.00249981
-4.64151e-07
0.00249987
-3.20537e-07
0.0024999
-2.21098e-07
0.00249992
-1.5654e-07
0.00249994
-1.15165e-07
0.00249996
-8.72912e-08
0.00249997
-6.68033e-08
0.00249998
-5.06995e-08
0.00249998
-3.78368e-08
0.00249999
-2.77962e-08
0.00249999
-2.02406e-08
0.00249999
-1.47288e-08
0.0025
-1.07681e-08
0.0025
-7.91612e-09
0.0025
-5.83714e-09
0.0025
-4.30272e-09
0.0025
-3.16353e-09
0.0025
-2.31874e-09
0.0025
-1.69521e-09
0.0025
-1.23703e-09
0.0025
-9.01062e-10
0.0025
-6.54702e-10
0.0025
-4.73861e-10
0.0025
-3.41038e-10
0.0025
-2.43503e-10
0.0025
-1.71966e-10
0.0025
-1.19567e-10
0.0025
-8.12581e-11
0.0025
-5.32934e-11
0.0025
-3.29344e-11
0.0025
-1.81492e-11
0.0025
-7.46463e-12
0.0025
2.20784e-13
0.0025
5.69739e-12
0.0025
9.56554e-12
0.0025
1.2247e-11
0.0025
1.4071e-11
0.0025
1.52601e-11
0.0025
1.59968e-11
0.0025
1.63958e-11
0.0025
1.65606e-11
0.0025
1.65478e-11
0.0025
1.64181e-11
0.0025
1.61965e-11
0.0025
1.5921e-11
0.0025
1.55995e-11
0.0025
1.52574e-11
0.0025
1.48939e-11
0.0025
1.45276e-11
0.0025
1.41526e-11
0.0025
1.3784e-11
0.0025
1.34135e-11
0.0025
1.30539e-11
0.0025
1.26957e-11
0.0025
1.23506e-11
0.0025
1.20083e-11
0.0025
1.168e-11
0.0025
1.1355e-11
0.0025
1.10441e-11
0.0025
1.07365e-11
0.0025
1.04427e-11
0.0025
1.0152e-11
0.0025
9.87459e-12
0.0025
9.59978e-12
0.0025
9.33786e-12
0.0025
9.07804e-12
0.0025
8.83056e-12
0.0025
8.5847e-12
0.0025
8.35064e-12
0.0025
8.11775e-12
0.0025
7.89612e-12
0.0025
7.67524e-12
0.0025
7.46513e-12
0.0025
7.25536e-12
0.0025
7.05592e-12
0.0025
6.85645e-12
0.0025
6.66692e-12
0.0025
6.47702e-12
0.0025
6.29669e-12
0.0025
6.11569e-12
0.0025
5.94392e-12
0.0025
5.77121e-12
0.0025
5.60752e-12
0.0025
5.44256e-12
0.0025
5.28665e-12
0.0025
5.12884e-12
0.0025
4.98092e-12
0.0025
4.82894e-12
0.0025
4.69108e-12
0.0025
4.54031e-12
0.0025
4.42259e-12
0.0025
4.25363e-12
0.0025
4.20082e-12
0.0025
3.93296e-12
0.0025
4.11556e-12
3.48068e-12
0.00250242
-1.61427e-05
0.00250977
-4.8811e-05
0.00252267
-8.41557e-05
0.00254207
-0.00012341
0.00256924
-0.000167297
0.0026055
-0.00021509
0.00265197
-0.000264595
0.00270841
-0.000309598
0.00277312
-0.000343238
0.00284078
-0.000354053
0.00290448
-0.000336011
0.00296056
-0.000297756
0.00300621
-0.000242974
0.003039
-0.000174457
0.00305688
-9.56106e-05
0.00305831
-1.02841e-05
0.00304291
7.53983e-05
0.00301211
0.000153574
0.0029692
0.000216556
0.00291865
0.000259264
0.00286508
0.000280525
0.00281238
0.000282683
0.00276332
0.000270135
0.00271948
0.000247863
0.0026815
0.000220391
0.00264934
0.000191265
0.00262253
0.000162946
0.00260042
0.000136929
0.00258231
0.000113958
0.0025675
9.42509e-05
0.00255539
7.76982e-05
0.00254545
6.4005e-05
0.00253724
5.27969e-05
0.00253042
4.36885e-05
0.00252468
3.63259e-05
0.00251982
3.03987e-05
0.00251565
2.56162e-05
0.00251205
2.16558e-05
0.00250894
1.81145e-05
0.00250633
1.45205e-05
0.00250427
1.04423e-05
0.00250285
5.67991e-06
0.00250214
4.44129e-07
0.00250212
-4.60182e-06
0.00250265
-8.51723e-06
0.00250347
-1.04376e-05
0.00250424
-9.9507e-06
0.00250466
-7.30617e-06
0.00250455
-3.3465e-06
0.0025039
8.03144e-07
0.00250283
4.13043e-06
0.00250155
6.0345e-06
0.00250029
6.41999e-06
0.00249925
5.59415e-06
0.00249853
4.06104e-06
0.00249815
2.32271e-06
0.00249809
7.55188e-07
0.00249825
-4.30393e-07
0.00249855
-1.16868e-06
0.00249889
-1.49705e-06
0.00249921
-1.51095e-06
0.00249947
-1.3265e-06
0.00249966
-1.05253e-06
0.00249978
-7.72266e-07
0.00249985
-5.35681e-07
0.00249989
-3.6145e-07
0.00249992
-2.45843e-07
0.00249994
-1.7399e-07
0.00249995
-1.29404e-07
0.00249996
-9.94637e-08
0.00249997
-7.68713e-08
0.00249998
-5.85239e-08
0.00249999
-4.35696e-08
0.00249999
-3.18401e-08
0.00249999
-2.3068e-08
0.00249999
-1.67392e-08
0.0025
-1.22372e-08
0.0025
-9.01154e-09
0.0025
-6.65829e-09
0.0025
-4.91441e-09
0.0025
-3.61469e-09
0.0025
-2.64914e-09
0.0025
-1.93669e-09
0.0025
-1.41389e-09
0.0025
-1.03103e-09
0.0025
-7.50428e-10
0.0025
-5.44415e-10
0.0025
-3.93026e-10
0.0025
-2.81808e-10
0.0025
-2.0021e-10
0.0025
-1.40432e-10
0.0025
-9.67143e-11
0.0025
-6.47866e-11
0.0025
-4.15224e-11
0.0025
-2.46079e-11
0.0025
-1.23623e-11
0.0025
-3.53357e-12
0.0025
2.78112e-12
0.0025
7.2631e-12
0.0025
1.03952e-11
0.0025
1.255e-11
0.0025
1.3983e-11
0.0025
1.48997e-11
0.0025
1.54329e-11
0.0025
1.56979e-11
0.0025
1.57612e-11
0.0025
1.56895e-11
0.0025
1.55136e-11
0.0025
1.5274e-11
0.0025
1.49823e-11
0.0025
1.46647e-11
0.0025
1.43226e-11
0.0025
1.39747e-11
0.0025
1.36168e-11
0.0025
1.32634e-11
0.0025
1.29075e-11
0.0025
1.25614e-11
0.0025
1.22164e-11
0.0025
1.18837e-11
0.0025
1.15538e-11
0.0025
1.12371e-11
0.0025
1.09238e-11
0.0025
1.06239e-11
0.0025
1.03274e-11
0.0025
1.00441e-11
0.0025
9.76392e-12
0.0025
9.49651e-12
0.0025
9.23186e-12
0.0025
8.97943e-12
0.0025
8.72931e-12
0.0025
8.49087e-12
0.0025
8.25429e-12
0.0025
8.02884e-12
0.0025
7.8048e-12
0.0025
7.59138e-12
0.0025
7.37894e-12
0.0025
7.17666e-12
0.0025
6.97496e-12
0.0025
6.78298e-12
0.0025
6.59122e-12
0.0025
6.4088e-12
0.0025
6.22628e-12
0.0025
6.05274e-12
0.0025
5.8788e-12
0.0025
5.71352e-12
0.0025
5.54757e-12
0.0025
5.3901e-12
0.0025
5.23162e-12
0.0025
5.08167e-12
0.0025
4.93008e-12
0.0025
4.7879e-12
0.0025
4.64191e-12
0.0025
4.5095e-12
0.0025
4.36474e-12
0.0025
4.25115e-12
0.0025
4.09058e-12
0.0025
4.03235e-12
0.0025
3.79203e-12
0.0025
3.91309e-12
3.38495e-12
0.00250221
-1.83549e-05
0.00250896
-5.55589e-05
0.00252095
-9.6146e-05
0.00253934
-0.000141802
0.00256571
-0.00019367
0.00260191
-0.000251289
0.00264969
-0.000312372
0.00270936
-0.000369272
0.00277956
-0.000413436
0.00285356
-0.000428054
0.00292259
-0.000405043
0.00298299
-0.000358158
0.0030321
-0.000292077
0.00306745
-0.000209808
0.0030868
-0.000114966
0.00308816
-1.16361e-05
0.00307081
9.27462e-05
0.00303628
0.000188106
0.00298843
0.000264399
0.00293262
0.000315081
0.00287425
0.00033889
0.00281775
0.000339186
0.00276605
0.000321835
0.00272067
0.000293242
0.00268203
0.000259029
0.00264984
0.000223459
0.0026234
0.000189385
0.00260188
0.000158452
0.00258442
0.000131411
0.00257026
0.000108408
0.00255874
8.92241e-05
0.00254929
7.34499e-05
0.00254148
6.06053e-05
0.00253496
5.02132e-05
0.00252944
4.18443e-05
0.00252471
3.51272e-05
0.00252061
2.97211e-05
0.00251701
2.52555e-05
0.00251385
2.12761e-05
0.00251111
1.72536e-05
0.00250885
1.27026e-05
0.00250714
7.39337e-06
0.00250603
1.55251e-06
0.00250552
-4.08622e-06
0.00250547
-8.47385e-06
0.00250568
-1.06407e-05
0.00250585
-1.01205e-05
0.00250573
-7.18908e-06
0.00250517
-2.79136e-06
0.00250417
1.80619e-06
0.00250284
5.46079e-06
0.00250138
7.49151e-06
0.00250002
7.7879e-06
0.00249891
6.69748e-06
0.00249818
4.79692e-06
0.00249783
2.66864e-06
0.00249783
7.57966e-07
0.00249807
-6.77368e-07
0.00249846
-1.55317e-06
0.00249888
-1.91445e-06
0.00249925
-1.88379e-06
0.00249954
-1.6131e-06
0.00249973
-1.24454e-06
0.00249984
-8.84423e-07
0.0024999
-5.92915e-07
0.00249992
-3.88093e-07
0.00249994
-2.59516e-07
0.00249995
-1.84264e-07
0.00249996
-1.39591e-07
0.00249997
-1.09494e-07
0.00249998
-8.56943e-08
0.00249998
-6.54199e-08
0.00249999
-4.84766e-08
0.00249999
-3.51454e-08
0.00249999
-2.52832e-08
0.0025
-1.82838e-08
0.0025
-1.33737e-08
0.0025
-9.87621e-09
0.0025
-7.31782e-09
0.0025
-5.40937e-09
0.0025
-3.97913e-09
0.0025
-2.9144e-09
0.0025
-2.12954e-09
0.0025
-1.55489e-09
0.0025
-1.13483e-09
0.0025
-8.27158e-10
0.0025
-6.01191e-10
0.0025
-4.3502e-10
0.0025
-3.12876e-10
0.0025
-2.23245e-10
0.0025
-1.57582e-10
0.0025
-1.09557e-10
0.0025
-7.44754e-11
0.0025
-4.8898e-11
0.0025
-3.02864e-11
0.0025
-1.67949e-11
0.0025
-7.05177e-12
0.0025
-6.47733e-14
0.0025
4.91166e-12
0.0025
8.4093e-12
0.0025
1.08347e-11
0.0025
1.247e-11
0.0025
1.35385e-11
0.0025
1.41876e-11
0.0025
1.45415e-11
0.0025
1.46751e-11
0.0025
1.46594e-11
0.0025
1.45299e-11
0.0025
1.43289e-11
0.0025
1.4071e-11
0.0025
1.37828e-11
0.0025
1.34679e-11
0.0025
1.31445e-11
0.0025
1.28101e-11
0.0025
1.24785e-11
0.0025
1.2144e-11
0.0025
1.18178e-11
0.0025
1.14928e-11
0.0025
1.11788e-11
0.0025
1.08677e-11
0.0025
1.05687e-11
0.0025
1.02733e-11
0.0025
9.99026e-12
0.0025
9.71078e-12
0.0025
9.44353e-12
0.0025
9.17958e-12
0.0025
8.92745e-12
0.0025
8.67823e-12
0.0025
8.44034e-12
0.0025
8.20492e-12
0.0025
7.98031e-12
0.0025
7.75772e-12
0.0025
7.54542e-12
0.0025
7.33471e-12
0.0025
7.1338e-12
0.0025
6.93406e-12
0.0025
6.74368e-12
0.0025
6.5541e-12
0.0025
6.37344e-12
0.0025
6.19325e-12
0.0025
6.02162e-12
0.0025
5.85014e-12
0.0025
5.68688e-12
0.0025
5.52349e-12
0.0025
5.36804e-12
0.0025
5.21219e-12
0.0025
5.0641e-12
0.0025
4.9153e-12
0.0025
4.77432e-12
0.0025
4.632e-12
0.0025
4.4984e-12
0.0025
4.36136e-12
0.0025
4.23694e-12
0.0025
4.10121e-12
0.0025
3.99368e-12
0.0025
3.84503e-12
0.0025
3.78262e-12
0.0025
3.5726e-12
0.0025
3.6414e-12
3.21247e-12
0.00250195
-2.03024e-05
0.00250792
-6.15311e-05
0.00251872
-0.000106945
0.00253572
-0.000158799
0.00256086
-0.000218815
0.00259665
-0.000287077
0.0026457
-0.000361419
0.00270918
-0.000432752
0.00278636
-0.000490615
0.0028684
-0.000510093
0.00294386
-0.000480503
0.00300934
-0.000423639
0.00306252
-0.000345258
0.00310099
-0.000248279
0.0031222
-0.000136183
0.00312354
-1.29731e-05
0.00310383
0.000112453
0.00306468
0.000227266
0.0030107
0.000318377
0.00294837
0.000377403
0.00288417
0.000403094
0.00282313
0.000400229
0.00276838
0.000376586
0.0027213
0.000340316
0.00268204
0.000298296
0.00264995
0.000255547
0.00262406
0.000215271
0.00260331
0.000179203
0.00258669
0.000148031
0.00257333
0.000121767
0.00256252
0.00010004
0.00255367
8.22997e-05
0.00254633
6.7939e-05
0.00254017
5.63794e-05
0.0025349
4.71106e-05
0.00253033
3.96977e-05
0.0025263
3.37488e-05
0.00252271
2.8849e-05
0.00251949
2.44989e-05
0.00251662
2.01215e-05
0.00251413
1.51873e-05
0.00251209
9.44041e-06
0.00251052
3.11747e-06
0.00250943
-2.99435e-06
0.00250872
-7.76129e-06
0.00250821
-1.01299e-05
0.00250768
-9.59021e-06
0.00250693
-6.44026e-06
0.00250585
-1.70962e-06
0.00250443
3.21734e-06
0.00250281
7.08783e-06
0.00250115
9.15187e-06
0.00249965
9.28441e-06
0.00249848
7.86718e-06
0.00249773
5.54323e-06
0.00249743
2.97406e-06
0.00249751
6.78905e-07
0.00249786
-1.03078e-06
0.00249836
-2.0473e-06
0.00249887
-2.42464e-06
0.0024993
-2.31963e-06
0.00249962
-1.92994e-06
0.00249981
-1.43971e-06
0.00249991
-9.83003e-07
0.00249995
-6.3034e-07
0.00249996
-3.96266e-07
0.00249996
-2.59688e-07
0.00249996
-1.86389e-07
0.00249997
-1.45604e-07
0.00249997
-1.17562e-07
0.00249998
-9.3432e-08
0.00249999
-7.14207e-08
0.00249999
-5.24893e-08
0.00249999
-3.76065e-08
0.0025
-2.67924e-08
0.0025
-1.92995e-08
0.0025
-1.41425e-08
0.0025
-1.04918e-08
0.0025
-7.80494e-09
0.0025
-5.77928e-09
0.0025
-4.24947e-09
0.0025
-3.10818e-09
0.0025
-2.26869e-09
0.0025
-1.65624e-09
0.0025
-1.20972e-09
0.0025
-8.82877e-10
0.0025
-6.42655e-10
0.0025
-4.65807e-10
0.0025
-3.35732e-10
0.0025
-2.40273e-10
0.0025
-1.70357e-10
0.0025
-1.19232e-10
0.0025
-8.18844e-11
0.0025
-5.46446e-11
0.0025
-3.48128e-11
0.0025
-2.04242e-11
0.0025
-1.00223e-11
0.0025
-2.54979e-12
0.0025
2.78473e-12
0.0025
6.5488e-12
0.0025
9.1729e-12
0.0025
1.09589e-11
0.0025
1.21421e-11
0.0025
1.2881e-11
0.0025
1.33055e-11
0.0025
1.34971e-11
0.0025
1.3529e-11
0.0025
1.34408e-11
0.0025
1.32754e-11
0.0025
1.30502e-11
0.0025
1.27913e-11
0.0025
1.25044e-11
0.0025
1.22068e-11
0.0025
1.18977e-11
0.0025
1.15898e-11
0.0025
1.12788e-11
0.0025
1.0975e-11
0.0025
1.06723e-11
0.0025
1.03794e-11
0.0025
1.00896e-11
0.0025
9.81078e-12
0.0025
9.53562e-12
0.0025
9.27178e-12
0.0025
9.01163e-12
0.0025
8.76266e-12
0.0025
8.51714e-12
0.0025
8.28241e-12
0.0025
8.05074e-12
0.0025
7.82938e-12
0.0025
7.61067e-12
0.0025
7.40178e-12
0.0025
7.1951e-12
0.0025
6.99774e-12
0.0025
6.80217e-12
0.0025
6.61547e-12
0.0025
6.43016e-12
0.0025
6.25328e-12
0.0025
6.07744e-12
0.0025
5.90965e-12
0.0025
5.74256e-12
0.0025
5.58318e-12
0.0025
5.42421e-12
0.0025
5.27263e-12
0.0025
5.12118e-12
0.0025
4.97687e-12
0.0025
4.83245e-12
0.0025
4.695e-12
0.0025
4.55713e-12
0.0025
4.42631e-12
0.0025
4.29448e-12
0.0025
4.17055e-12
0.0025
4.04366e-12
0.0025
3.92816e-12
0.0025
3.80274e-12
0.0025
3.70197e-12
0.0025
3.56647e-12
0.0025
3.50144e-12
0.0025
3.32012e-12
0.0025
3.34962e-12
3.00298e-12
0.00250162
-2.19184e-05
0.00250661
-6.65265e-05
0.00251587
-0.000116206
0.00253099
-0.000173913
0.00255431
-0.000242136
0.00258914
-0.000321908
0.00263922
-0.000411497
0.00270707
-0.000500602
0.00279311
-0.000576653
0.00288529
-0.000602281
0.00296836
-0.00056357
0.00303963
-0.000494911
0.00309748
-0.000403104
0.0031397
-0.000290496
0.00316338
-0.000159872
0.00316496
-1.45485e-05
0.00314247
0.00013494
0.00309756
0.000272177
0.00303591
0.000380032
0.00296553
0.000447782
0.00289425
0.000474371
0.00282788
0.0004666
0.00276971
0.000434756
0.00272089
0.000389138
0.00268113
0.000338055
0.00264938
0.000287294
0.00262431
0.000240346
0.00260457
0.000198937
0.002589
0.000163601
0.00257662
0.000134149
0.00256666
0.000110007
0.00255851
9.04462e-05
0.00255173
7.47171e-05
0.00254598
6.21286e-05
0.00254101
5.20844e-05
0.00253662
4.40845e-05
0.00253268
3.76862e-05
0.0025291
3.24331e-05
0.00252581
2.77879e-05
0.00252279
2.31371e-05
0.00252006
1.79186e-05
0.00251765
1.18563e-05
0.00251557
5.19129e-06
0.00251383
-1.25458e-06
0.00251236
-6.29019e-06
0.00251104
-8.80454e-06
0.00250971
-8.25839e-06
0.00250823
-4.96764e-06
0.00250655
-2.60564e-08
0.00250467
5.09249e-06
0.00250271
9.05008e-06
0.00250082
1.10407e-05
0.00249918
1.09245e-05
0.00249794
9.10888e-06
0.00249719
6.29534e-06
0.00249694
3.22346e-06
0.00249713
4.93232e-07
0.00249761
-1.52011e-06
0.00249825
-2.67905e-06
0.00249887
-3.04849e-06
0.00249938
-2.82943e-06
0.00249973
-2.27849e-06
0.00249992
-1.63298e-06
0.0025
-1.06024e-06
0.00250001
-6.40666e-07
0.00249999
-3.80889e-07
0.00249998
-2.43774e-07
0.00249997
-1.79647e-07
0.00249997
-1.47684e-07
0.00249998
-1.24136e-07
0.00249999
-1.00401e-07
0.00249999
-7.66101e-08
0.0025
-5.55353e-08
0.0025
-3.91007e-08
0.0025
-2.74924e-08
0.0025
-1.97247e-08
0.0025
-1.45159e-08
0.0025
-1.08485e-08
0.0025
-8.11523e-09
0.0025
-6.01968e-09
0.0025
-4.42045e-09
0.0025
-3.22538e-09
0.0025
-2.35005e-09
0.0025
-1.71504e-09
0.0025
-1.25371e-09
0.0025
-9.16211e-10
0.0025
-6.67785e-10
0.0025
-4.84592e-10
0.0025
-3.49739e-10
0.0025
-2.50787e-10
0.0025
-1.78355e-10
0.0025
-1.25415e-10
0.0025
-8.67475e-11
0.0025
-5.85391e-11
0.0025
-3.79951e-11
0.0025
-2.30821e-11
0.0025
-1.22949e-11
0.0025
-4.53754e-12
0.0025
1.00791e-12
0.0025
4.93071e-12
0.0025
7.67486e-12
0.0025
9.55415e-12
0.0025
1.08103e-11
0.0025
1.16087e-11
0.0025