/*--------------------------------*- C++ -*----------------------------------*\
  =========                 |
  \\      /  F ield         | OpenFOAM: The Open Source CFD Toolbox
   \\    /   O peration     | Website:  https://openfoam.org
    \\  /    A nd           | Version:  11
     \\/     M anipulation  |
\*---------------------------------------------------------------------------*/
FoamFile
{
    format      ascii;
    class       volVectorField;
    location    "2.415753";
    object      U;
}
// * * * * * * * * * * * * * * * * * * * * * * * * * * * * * * * * * * * * * //

dimensions      [0 1 -1 0 0 0 0];

internalField   nonuniform List<vector> 
7132
(
(1.00014 -0.000285799 1.8478e-18)
(1.00221 -0.000861505 7.8331e-18)
(1.0069 -0.00147072 7.72632e-18)
(1.01403 -0.00212396 8.83911e-18)
(1.02387 -0.00282267 1.1408e-17)
(1.03659 -0.00354413 1.19046e-17)
(1.05223 -0.00424518 1.13804e-17)
(1.07059 -0.00484247 1.06452e-17)
(1.09106 -0.0052448 1.00722e-17)
(1.11267 -0.00535239 9.71273e-18)
(1.13402 -0.00510135 9.3054e-18)
(1.15367 -0.00453928 9.19942e-18)
(1.17048 -0.00371098 8.49348e-18)
(1.18348 -0.00266638 9.354e-18)
(1.19191 -0.00146898 -1.92656e-19)
(1.19529 -0.000191405 -1.02374e-17)
(1.19346 0.00107542 -2.09714e-17)
(1.18666 0.00222938 -1.8512e-17)
(1.17555 0.00317638 -2.5997e-17)
(1.16112 0.00385217 -3.54295e-17)
(1.14457 0.00423542 -3.42205e-17)
(1.12708 0.00434619 -3.17339e-17)
(1.10966 0.00423321 -2.89988e-17)
(1.0931 0.00395838 -2.69553e-17)
(1.07791 0.00358339 -2.06802e-17)
(1.06438 0.00316126 -1.9316e-17)
(1.05259 0.00273244 -1.84833e-17)
(1.04251 0.00232449 -1.77448e-17)
(1.034 0.00195376 -1.66847e-17)
(1.02689 0.00162794 -1.35541e-17)
(1.02099 0.0013486 -1.06194e-17)
(1.01612 0.00111346 -8.95256e-18)
(1.0121 0.000918114 -7.95862e-18)
(1.00878 0.000757358 -5.46816e-18)
(1.00604 0.000626071 -3.67835e-18)
(1.00378 0.000519503 -2.38088e-18)
(1.00189 0.000432875 -2.56414e-18)
(1.00032 0.000360453 -3.38377e-18)
(0.999006 0.000294775 -2.57144e-18)
(0.997952 0.000227092 -4.66291e-19)
(0.99718 0.000149673 3.78486e-18)
(0.99674 5.94643e-05 7.91746e-18)
(0.996683 -3.87421e-05 1.02561e-17)
(0.997025 -0.000131939 9.44513e-18)
(0.997712 -0.000202541 4.41399e-18)
(0.99862 -0.000235036 -1.50048e-18)
(0.999572 -0.000222696 -5.26108e-18)
(1.00039 -0.000170962 -3.0961e-18)
(1.00093 -9.57719e-05 5.65671e-18)
(1.00115 -1.7678e-05 1.64918e-17)
(1.00107 4.53007e-05 2.54955e-17)
(1.00079 8.28637e-05 3.12422e-17)
(1.00041 9.38181e-05 3.19619e-17)
(1.00003 8.39507e-05 2.61741e-17)
(0.999728 6.21655e-05 1.57571e-17)
(0.999527 3.69101e-05 2.65774e-18)
(0.999428 1.41194e-05 -8.97241e-18)
(0.999411 -3.19845e-06 -1.58871e-17)
(0.999451 -1.43365e-05 -1.7885e-17)
(0.999525 -1.99599e-05 -1.48809e-17)
(0.999612 -2.13401e-05 -9.56519e-18)
(0.999696 -1.98818e-05 -3.44231e-18)
(0.999771 -1.68702e-05 1.23063e-18)
(0.999832 -1.3337e-05 2.44247e-18)
(0.999878 -9.9937e-06 2.58728e-18)
(0.999912 -7.22496e-06 1.31989e-18)
(0.999936 -5.14139e-06 -1.62576e-19)
(0.999953 -3.6732e-06 -9.22068e-19)
(0.999965 -2.67063e-06 -1.88801e-18)
(0.999974 -1.98081e-06 -1.26369e-18)
(0.999981 -1.48752e-06 -7.82005e-19)
(0.999986 -1.11868e-06 -5.3401e-19)
(0.99999 -8.35655e-07 -2.6917e-19)
(0.999992 -6.18339e-07 -9.76192e-19)
(0.999994 -4.54068e-07 -5.59613e-19)
(0.999996 -3.32267e-07 -4.05493e-19)
(0.999997 -2.43187e-07 -3.93065e-19)
(0.999998 -1.78337e-07 -2.21776e-19)
(0.999999 -1.30985e-07 -9.26506e-19)
(0.999999 -9.62068e-08 -4.76813e-19)
(0.999999 -7.05471e-08 -2.98904e-19)
(1 -5.15938e-08 -2.81586e-19)
(1 -3.76125e-08 -1.17211e-19)
(1 -2.73243e-08 -8.31385e-19)
(1 -1.97661e-08 -3.88771e-19)
(1 -1.42199e-08 -2.14341e-19)
(1 -1.01495e-08 -1.96281e-19)
(1 -7.16446e-09 -2.50541e-20)
(1 -4.97501e-09 -7.23859e-19)
(1 -3.37273e-09 -2.59458e-19)
(1 -2.20052e-09 -3.85746e-20)
(1 -1.34667e-09 -9.37579e-20)
(1 -7.24813e-10 6.83769e-19)
(1 -2.75514e-10 2.80974e-19)
(1 4.91796e-11 2.1637e-19)
(1 2.80228e-10 2.72338e-19)
(1 4.44742e-10 1.20521e-19)
(1 5.58258e-10 8.20096e-19)
(1 6.36643e-10 3.5475e-19)
(1 6.8707e-10 2.45565e-19)
(1 7.19356e-10 2.75271e-19)
(1 7.36134e-10 1.12591e-19)
(1 7.43969e-10 8.11327e-19)
(1 7.4302e-10 3.48817e-19)
(1 7.38107e-10 2.40463e-19)
(1 7.28034e-10 2.6544e-19)
(1 7.16694e-10 9.19038e-20)
(1 7.02144e-10 7.75957e-19)
(1 6.87784e-10 2.98975e-19)
(1 6.7126e-10 1.80367e-19)
(1 6.55715e-10 2.01671e-19)
(1 6.38561e-10 3.09716e-20)
(1 6.22815e-10 7.2222e-19)
(1 6.05748e-10 2.53698e-19)
(1 5.90314e-10 1.42242e-19)
(1 5.73708e-10 1.6762e-19)
(1 5.58853e-10 -2.90772e-22)
(1 5.42894e-10 6.85072e-19)
(1 5.28743e-10 2.41892e-19)
(1 5.13509e-10 7.56109e-21)
(1 5.00106e-10 6.00744e-19)
(1 4.85622e-10 6.89132e-19)
(1 4.7297e-10 7.97021e-19)
(1 4.59225e-10 2.17804e-19)
(1 4.47304e-10 -4.813e-20)
(1 4.3427e-10 5.38821e-19)
(1 4.23043e-10 6.27809e-19)
(1 4.10682e-10 7.38436e-19)
(1 4.00108e-10 1.61897e-19)
(1 3.88378e-10 -1.03918e-19)
(1 3.78416e-10 4.77578e-19)
(1 3.67276e-10 5.5306e-19)
(1 3.57885e-10 6.41799e-19)
(1 3.47294e-10 3.80498e-20)
(1 3.3843e-10 -2.53911e-19)
(1 3.28347e-10 3.10419e-19)
(1 3.19974e-10 3.84208e-19)
(1 3.10363e-10 4.88998e-19)
(1 3.02443e-10 -8.40842e-20)
(1 2.93271e-10 -3.38223e-19)
(1 2.85772e-10 2.62165e-19)
(1 2.77006e-10 3.63118e-19)
(1 2.69896e-10 4.83005e-19)
(1 2.61508e-10 -8.60138e-20)
(1 2.54764e-10 -3.4328e-19)
(1 2.46731e-10 2.51312e-19)
(1 2.40331e-10 3.47247e-19)
(1 2.32632e-10 4.64484e-19)
(1 2.26564e-10 -1.04868e-19)
(1 2.19182e-10 -3.61079e-19)
(1 2.13448e-10 2.34946e-19)
(1 2.0633e-10 3.32079e-19)
(1 2.0096e-10 4.502e-19)
(1 1.93875e-10 -1.18454e-19)
(1 1.89228e-10 -3.7347e-19)
(1 1.81241e-10 2.21837e-19)
(1 1.80038e-10 3.25988e-19)
(1 1.65822e-10 4.08506e-19)
(1 1.82766e-10 -1.10283e-20)
(1 1.41767e-10 -1.0003e-18)
(1.00014 -0.000854647 2.97449e-20)
(1.00219 -0.00257758 3.59762e-19)
(1.00685 -0.00440236 6.83124e-19)
(1.01393 -0.00636313 1.02515e-18)
(1.02374 -0.0084653 1.44588e-18)
(1.03647 -0.010642 1.87326e-18)
(1.05218 -0.0127643 2.27552e-18)
(1.07069 -0.0145786 2.27991e-18)
(1.09141 -0.0158076 5.15511e-18)
(1.11337 -0.0161412 6.54022e-18)
(1.13506 -0.0153826 4.48305e-18)
(1.15501 -0.0136859 7.21137e-18)
(1.17207 -0.0111877 4.55279e-18)
(1.18526 -0.00803821 8.61341e-18)
(1.19381 -0.00442761 1.76772e-17)
(1.19722 -0.000572803 2.38289e-17)
(1.19533 0.00325236 2.51947e-17)
(1.18837 0.00673811 2.29542e-17)
(1.17701 0.00959739 1.78116e-17)
(1.1623 0.0116337 1.0638e-17)
(1.14546 0.0127822 2.96436e-18)
(1.12771 0.013105 -4.25923e-18)
(1.11009 0.0127517 -1.0512e-17)
(1.09338 0.0119115 -1.56852e-17)
(1.07811 0.0107723 -1.93324e-17)
(1.06454 0.00949443 -2.15438e-17)
(1.05275 0.00819968 -2.22908e-17)
(1.04269 0.00697052 -2.15874e-17)
(1.03421 0.00585546 -1.97394e-17)
(1.02714 0.00487687 -1.64909e-17)
(1.02127 0.00403894 -1.17626e-17)
(1.01643 0.00333431 -9.97601e-18)
(1.01243 0.00274944 -6.66178e-18)
(1.00914 0.00226848 -2.93117e-18)
(1.00642 0.0018759 -4.81403e-19)
(1.00416 0.00155739 1.13785e-18)
(1.00228 0.00129864 -1.17419e-18)
(1.0007 0.00108262 -2.21476e-18)
(0.999388 0.000887191 1.55988e-18)
(0.998324 0.000686291 1.13246e-17)
(0.997534 0.000456672 2.35832e-17)
(0.997069 0.000188771 2.78554e-17)
(0.996979 -0.000103725 2.12288e-17)
(0.99728 -0.000382488 5.49247e-18)
(0.997924 -0.000595123 -8.22258e-18)
(0.998789 -0.00069493 -6.6227e-18)
(0.999703 -0.000661043 1.4413e-17)
(1.00049 -0.000508883 5.29397e-17)
(1.00101 -0.000285487 9.59639e-17)
(1.00121 -5.21551e-05 1.29954e-16)
(1.00112 0.000136927 1.5094e-16)
(1.00082 0.000250378 1.57413e-16)
(1.00043 0.000284053 1.50423e-16)
(1.00005 0.000254892 1.28712e-16)
(0.999736 0.000189444 8.93238e-17)
(0.999529 0.00011313 3.67844e-17)
(0.999426 4.39693e-05 -2.02088e-17)
(0.999408 -8.77536e-06 -6.61595e-17)
(0.999449 -4.28094e-05 -8.78586e-17)
(0.999525 -6.00524e-05 -8.25791e-17)
(0.999613 -6.43327e-05 -5.56055e-17)
(0.999699 -5.99321e-05 -2.23004e-17)
(0.999775 -5.0789e-05 4.67973e-18)
(0.999835 -4.00684e-05 1.755e-17)
(0.999881 -2.99468e-05 1.8416e-17)
(0.999914 -2.15923e-05 1.30746e-17)
(0.999937 -1.5331e-05 3.97067e-18)
(0.999954 -1.09392e-05 -1.63424e-18)
(0.999966 -7.95297e-06 -4.24092e-18)
(0.999974 -5.90364e-06 -3.47167e-18)
(0.999981 -4.43831e-06 -5.40273e-19)
(0.999986 -3.34056e-06 -2.98663e-19)
(0.99999 -2.49618e-06 1.68643e-19)
(0.999993 -1.84679e-06 -4.76112e-19)
(0.999995 -1.35568e-06 -4.81572e-19)
(0.999996 -9.91705e-07 8.02865e-19)
(0.999997 -7.25746e-07 -2.29814e-19)
(0.999998 -5.32276e-07 -2.90211e-19)
(0.999999 -3.9106e-07 -9.11032e-19)
(0.999999 -2.87333e-07 -6.87788e-19)
(0.999999 -2.10782e-07 7.90888e-19)
(0.999999 -1.5422e-07 -1.57095e-19)
(1 -1.12491e-07 -2.14395e-19)
(1 -8.17835e-08 -8.60978e-19)
(1 -5.92264e-08 -6.58287e-19)
(1 -4.26729e-08 8.14658e-19)
(1 -3.0525e-08 -1.27937e-19)
(1 -2.16135e-08 -1.71018e-19)
(1 -1.50775e-08 -8.05501e-19)
(1 -1.02916e-08 -5.52682e-19)
(1 -6.79067e-09 8.37385e-19)
(1 -4.23784e-09 3.56416e-19)
(1 -2.37916e-09 8.32483e-19)
(1 -1.03336e-09 8.77332e-19)
(1 -6.13189e-11 7.88125e-19)
(1 6.3337e-10 8.47366e-19)
(1 1.12752e-09 9.30279e-20)
(1 1.47158e-09 5.38593e-19)
(1 1.70875e-09 6.04955e-19)
(1 1.86461e-09 5.47873e-19)
(1 1.96421e-09 6.41815e-19)
(1 2.01969e-09 -7.76607e-20)
(1 2.04627e-09 4.00332e-19)
(1 2.04881e-09 4.93616e-19)
(1 2.03727e-09 4.5541e-19)
(1 2.01253e-09 5.59232e-19)
(1 1.98169e-09 -1.58113e-19)
(1 1.94348e-09 3.17481e-19)
(1 1.9035e-09 4.07992e-19)
(1 1.85928e-09 3.70226e-19)
(1 1.81561e-09 4.79457e-19)
(1 1.76937e-09 -2.28036e-19)
(1 1.72492e-09 2.59593e-19)
(1 1.67879e-09 3.61499e-19)
(1 1.63511e-09 3.32418e-19)
(1 1.59019e-09 4.46493e-19)
(1 1.54805e-09 -2.57957e-19)
(1 1.5049e-09 2.24764e-19)
(1 1.46468e-09 3.5017e-19)
(1 1.42353e-09 2.06132e-19)
(1 1.38538e-09 8.72565e-19)
(1 1.3463e-09 3.9172e-19)
(1 1.31022e-09 2.9412e-19)
(1 1.2732e-09 2.93156e-19)
(1 1.23914e-09 1.29067e-19)
(1 1.20408e-09 7.99137e-19)
(1 1.17194e-09 3.26492e-19)
(1 1.13876e-09 2.37369e-19)
(1 1.10843e-09 2.4363e-19)
(1 1.07699e-09 8.36469e-20)
(1 1.04836e-09 7.52106e-19)
(1 1.01856e-09 2.69719e-19)
(1 9.91505e-10 1.62064e-19)
(1 9.63222e-10 1.43457e-19)
(1 9.3763e-10 -4.19641e-20)
(1 9.10759e-10 6.08067e-19)
(1 8.86524e-10 1.20916e-19)
(1 8.60961e-10 2.50964e-20)
(1 8.37983e-10 3.27376e-20)
(1 8.13633e-10 -1.18589e-19)
(1 7.91824e-10 5.65015e-19)
(1 7.68601e-10 1.03866e-19)
(1 7.47877e-10 2.29883e-20)
(1 7.25704e-10 3.50469e-20)
(1 7.05993e-10 -1.19005e-19)
(1 6.84799e-10 5.58977e-19)
(1 6.66041e-10 9.26916e-20)
(1 6.45767e-10 8.83099e-21)
(1 6.27921e-10 2.01418e-20)
(1 6.08503e-10 -1.33244e-19)
(1 5.9157e-10 5.45857e-19)
(1 5.72867e-10 8.0525e-20)
(1 5.57011e-10 -2.65796e-21)
(1 5.38459e-10 9.16226e-21)
(1 5.24826e-10 -1.43295e-19)
(1 5.03827e-10 5.35149e-19)
(1 4.99754e-10 7.55718e-20)
(1 4.61883e-10 -3.82346e-20)
(1 5.05336e-10 1.02554e-19)
(1 3.97231e-10 -7.03944e-19)
(1.00014 -0.00141586 5.82782e-22)
(1.00215 -0.00427215 4.193e-21)
(1.00673 -0.00730414 1.21312e-22)
(1.01372 -0.0105748 2.89966e-21)
(1.02347 -0.0140981 -1.47396e-19)
(1.0362 -0.017767 1.74947e-19)
(1.05204 -0.0213692 -7.18915e-19)
(1.07087 -0.02447 -1.39542e-18)
(1.09211 -0.0265942 4.9835e-18)
(1.11475 -0.0271874 -5.14788e-19)
(1.13714 -0.0259033 -2.72879e-17)
(1.15768 -0.0230386 -2.40689e-17)
(1.17524 -0.0188297 4.92211e-17)
(1.18881 -0.0135265 1.5254e-16)
(1.1976 -0.00744436 2.06424e-16)
(1.20109 -0.000942738 1.74503e-16)
(1.19907 0.00551508 1.08749e-16)
(1.19177 0.0113985 3.92055e-17)
(1.1799 0.0162136 -2.11897e-17)
(1.1646 0.0196242 -6.78255e-17)
(1.14716 0.0215236 -1.00439e-16)
(1.12888 0.0220246 -1.20646e-16)
(1.11084 0.0213881 -1.30513e-16)
(1.09385 0.0199398 -1.31771e-16)
(1.07841 0.0179993 -1.25607e-16)
(1.06477 0.0158372 -1.12884e-16)
(1.05297 0.0136571 -9.46206e-17)
(1.04295 0.0115953 -7.23134e-17)
(1.03454 0.0097305 -4.80258e-17)
(1.02754 0.00809821 -2.40077e-17)
(1.02175 0.00670356 -1.88866e-18)
(1.01697 0.00553296 1.71455e-17)
(1.01303 0.00456284 3.2772e-17)
(1.00978 0.00376611 4.35898e-17)
(1.00709 0.00311647 4.68567e-17)
(1.00486 0.00258981 4.22179e-17)
(1.00299 0.00216231 3.60961e-17)
(1.00142 0.00180587 4.22824e-17)
(1.0001 0.00148409 7.13234e-17)
(0.999022 0.00115406 1.15085e-16)
(0.998208 0.000777218 1.4278e-16)
(0.997704 0.000337217 1.20194e-16)
(0.997561 -0.000144158 4.45645e-17)
(0.997795 -0.000604334 -3.75088e-17)
(0.998362 -0.000957037 -5.14814e-17)
(0.999146 -0.00112476 5.34247e-17)
(0.999982 -0.00107221 2.60601e-16)
(1.0007 -0.000823913 4.91179e-16)
(1.00116 -0.000456956 6.57725e-16)
(1.00131 -7.25011e-05 7.2324e-16)
(1.00119 0.000239545 7.16723e-16)
(1.00086 0.000426689 6.90177e-16)
(1.00045 0.000481477 6.67124e-16)
(1.00005 0.000431574 6.20957e-16)
(0.999728 0.000320891 4.97115e-16)
(0.999516 0.00019179 2.69437e-16)
(0.999411 7.45676e-05 -2.6551e-17)
(0.999396 -1.49734e-05 -3.01411e-16)
(0.999442 -7.27246e-05 -4.60913e-16)
(0.999524 -0.000101797 -4.62982e-16)
(0.999617 -0.000108687 -3.34049e-16)
(0.999707 -0.000100777 -1.50672e-16)
(0.999784 -8.48975e-05 7.93997e-18)
(0.999844 -6.65191e-05 9.50544e-17)
(0.999889 -4.93583e-05 1.06836e-16)
(0.99992 -3.53526e-05 7.32928e-17)
(0.999942 -2.49801e-05 2.78298e-17)
(0.999957 -1.77887e-05 -5.05389e-18)
(0.999968 -1.29445e-05 -1.78486e-17)
(0.999976 -9.63429e-06 -1.64965e-17)
(0.999982 -7.2623e-06 -7.94363e-18)
(0.999987 -5.47459e-06 -8.68718e-19)
(0.99999 -4.09163e-06 2.42005e-18)
(0.999993 -3.02489e-06 2.7167e-18)
(0.999995 -2.21814e-06 8.46905e-19)
(0.999996 -1.62134e-06 3.28041e-19)
(0.999997 -1.18627e-06 -8.70731e-20)
(0.999998 -8.70311e-07 -1.61745e-19)
(0.999999 -6.39805e-07 3.64054e-20)
(0.999999 -4.70412e-07 -5.94045e-19)
(0.999999 -3.45301e-07 3.40673e-20)
(0.999999 -2.52804e-07 1.60135e-19)
(1 -1.84552e-07 1.32219e-19)
(1 -1.3433e-07 1.78698e-19)
(1 -9.74467e-08 -5.90656e-19)
(1 -7.03808e-08 -1.97869e-20)
(1 -5.05176e-08 1.10487e-19)
(1 -3.59417e-08 1.16847e-19)
(1 -2.5249e-08 1.69833e-19)
(1 -1.7415e-08 -4.59476e-19)
(1 -1.16827e-08 -4.38988e-19)
(1 -7.49875e-09 -3.47122e-19)
(1 -4.45076e-09 -2.08517e-19)
(1 -2.23952e-09 -7.50864e-20)
(1 -6.40588e-10 2.3459e-20)
(1 5.06647e-10 1.24914e-19)
(1 1.32463e-09 1.26677e-19)
(1 1.89894e-09 1.50176e-19)
(1 2.29697e-09 1.84142e-19)
(1 2.56376e-09 2.06892e-19)
(1 2.73694e-09 2.54045e-19)
(1 2.83964e-09 2.17712e-19)
(1 2.89338e-09 2.13535e-19)
(1 2.90945e-09 2.25217e-19)
(1 2.90069e-09 2.27591e-19)
(1 2.87195e-09 2.54795e-19)
(1 2.83138e-09 1.99499e-19)
(1 2.78036e-09 1.79395e-19)
(1 2.72451e-09 1.80627e-19)
(1 2.66332e-09 1.79581e-19)
(1 2.60105e-09 2.10184e-19)
(1 2.53618e-09 1.63049e-19)
(1 2.47223e-09 1.52747e-19)
(1 2.40712e-09 1.62417e-19)
(1 2.34398e-09 1.66619e-19)
(1 2.28042e-09 1.98813e-19)
(1 2.21937e-09 1.51071e-19)
(1 2.15826e-09 1.37191e-19)
(1 2.09989e-09 1.49797e-19)
(1 2.04162e-09 1.36867e-19)
(1 1.98618e-09 2.00808e-19)
(1 1.93087e-09 2.25579e-19)
(1 1.8784e-09 2.26539e-19)
(1 1.82604e-09 2.27684e-19)
(1 1.77645e-09 1.97193e-19)
(1 1.72692e-09 2.44956e-19)
(1 1.68009e-09 2.57095e-19)
(1 1.63324e-09 2.49205e-19)
(1 1.58901e-09 2.44391e-19)
(1 1.54468e-09 2.08793e-19)
(1 1.50289e-09 2.49271e-19)
(1 1.4609e-09 2.48796e-19)
(1 1.42136e-09 2.21185e-19)
(1 1.38156e-09 1.9061e-19)
(1 1.34412e-09 1.27624e-19)
(1 1.30635e-09 1.45767e-19)
(1 1.27086e-09 1.34521e-19)
(1 1.23496e-09 1.11298e-19)
(1 1.20127e-09 9.92722e-20)
(1 1.16711e-09 6.36873e-20)
(1 1.1351e-09 1.10588e-19)
(1 1.10256e-09 1.22654e-19)
(1 1.0721e-09 1.13457e-19)
(1 1.04107e-09 1.06014e-19)
(1 1.01206e-09 6.82303e-20)
(1 9.82434e-10 1.09893e-19)
(1 9.54799e-10 1.16849e-19)
(1 9.26483e-10 1.04374e-19)
(1 9.00152e-10 9.57183e-20)
(1 8.73048e-10 5.81226e-20)
(1 8.48033e-10 1.00505e-19)
(1 8.21939e-10 1.08118e-19)
(1 7.98537e-10 9.60832e-20)
(1 7.72671e-10 8.77524e-20)
(1 7.52634e-10 5.07109e-20)
(1 7.23278e-10 9.29866e-20)
(1 7.16606e-10 1.02201e-19)
(1 6.64421e-10 8.04297e-20)
(1 7.19542e-10 9.25439e-20)
(1 5.75376e-10 -2.83298e-20)
(1.00014 -0.00196408 -2.35881e-20)
(1.00209 -0.00592914 -4.57385e-19)
(1.00654 -0.0101537 -8.23616e-19)
(1.01339 -0.0147366 -1.58702e-18)
(1.02302 -0.0197095 -1.86817e-18)
(1.03574 -0.0249326 -1.81552e-18)
(1.05178 -0.0301142 -1.04368e-17)
(1.07107 -0.0346212 1.43773e-17)
(1.09309 -0.0377611 4.46079e-18)
(1.1168 -0.0386706 -1.13954e-16)
(1.14027 -0.0368266 -3.68457e-17)
(1.16171 -0.032735 4.49971e-16)
(1.18002 -0.0267457 8.87793e-16)
(1.19417 -0.0192077 7.32629e-16)
(1.20333 -0.0105579 3.10673e-18)
(1.20692 -0.00129185 -7.06568e-16)
(1.2047 0.00792987 -1.18234e-15)
(1.19688 0.0163335 -1.42575e-15)
(1.18424 0.023191 -1.4887e-15)
(1.16801 0.0280088 -1.42946e-15)
(1.14965 0.0306386 -1.29719e-15)
(1.13056 0.031258 -1.12734e-15)
(1.1119 0.0302593 -9.42551e-16)
(1.09448 0.0281222 -7.55389e-16)
(1.07879 0.02531 -5.71581e-16)
(1.06504 0.0222092 -3.93906e-16)
(1.05325 0.0191059 -2.24726e-16)
(1.04329 0.016188 -6.83893e-17)
(1.03498 0.0135619 6.87142e-17)
(1.02809 0.0112725 1.80883e-16)
(1.02242 0.00932319 2.64796e-16)
(1.01774 0.00769177 3.17879e-16)
(1.01389 0.00634313 3.47196e-16)
(1.01071 0.00523788 3.51423e-16)
(1.00807 0.00433823 3.29093e-16)
(1.00587 0.00360991 2.9415e-16)
(1.00402 0.00301948 2.82233e-16)
(1.00245 0.00252797 3.47746e-16)
(1.00113 0.0020853 5.02616e-16)
(1.00004 0.00163238 6.6676e-16)
(0.999187 0.0011158 6.86057e-16)
(0.998631 0.000512323 4.48905e-16)
(0.998414 -0.000149051 4.24264e-17)
(0.998554 -0.000782942 -2.34382e-16)
(0.99901 -0.0012707 -4.31511e-17)
(0.999674 -0.001505 7.22149e-16)
(1.00039 -0.00143621 1.79031e-15)
(1.00099 -0.00109723 2.66845e-15)
(1.00136 -0.000593819 2.98818e-15)
(1.00144 -6.55981e-05 2.7776e-15)
(1.00126 0.000362834 2.40893e-15)
(1.00089 0.000618307 2.26817e-15)
(1.00045 0.000689952 2.44926e-15)
(1.00003 0.000615757 2.66739e-15)
(0.999693 0.000456626 2.46712e-15)
(0.999476 0.00027175 1.57897e-15)
(0.999375 0.000103883 1.45503e-16)
(0.999367 -2.43057e-05 -1.33011e-15)
(0.999425 -0.000106638 -2.28504e-15)
(0.999518 -0.000147395 -2.41952e-15)
(0.999621 -0.000155986 -1.82517e-15)
(0.999717 -0.000143299 -8.85754e-16)
(0.999796 -0.000119461 -3.24483e-17)
(0.999857 -9.25271e-05 4.62309e-16)
(0.999899 -6.78508e-05 5.62392e-16)
(0.999928 -4.80861e-05 4.03206e-16)
(0.999948 -3.37292e-05 1.65462e-16)
(0.999961 -2.39604e-05 -1.41521e-17)
(0.99997 -1.7475e-05 -9.11759e-17)
(0.999978 -1.30674e-05 -8.59474e-17)
(0.999983 -9.89262e-06 -4.45163e-17)
(0.999988 -7.47399e-06 -8.12457e-18)
(0.999991 -5.58571e-06 1.08361e-17)
(0.999993 -4.12321e-06 1.27314e-17)
(0.999995 -3.01793e-06 7.53316e-18)
(0.999997 -2.20313e-06 3.16771e-18)
(0.999997 -1.61146e-06 -9.14954e-19)
(0.999998 -1.18287e-06 -1.54721e-18)
(0.999999 -8.70361e-07 -1.49747e-18)
(0.999999 -6.40485e-07 -5.90199e-19)
(0.999999 -4.70469e-07 1.26027e-18)
(0.999999 -3.44658e-07 3.54895e-19)
(1 -2.51806e-07 1.77532e-19)
(1 -1.83502e-07 -5.31428e-19)
(1 -1.33358e-07 -4.14071e-19)
(1 -9.65673e-08 1.05634e-18)
(1 -6.95649e-08 1.17031e-19)
(1 -4.97442e-08 4.87414e-20)
(1 -3.51984e-08 -5.70918e-19)
(1 -2.45365e-08 -3.58183e-19)
(1 -1.67313e-08 9.77505e-19)
(1 -1.10299e-08 4.27534e-19)
(1 -6.87258e-09 7.98713e-19)
(1 -3.85192e-09 7.59903e-19)
(1 -1.66345e-09 6.38607e-19)
(1 -8.83399e-11 6.99762e-19)
(1 1.03919e-09 -5.47489e-20)
(1 1.83601e-09 3.52323e-19)
(1 2.39304e-09 3.92302e-19)
(1 2.77209e-09 3.47782e-19)
(1 3.02362e-09 4.74278e-19)
(1 3.17966e-09 -2.28032e-19)
(1 3.2688e-09 2.18107e-19)
(1 3.30696e-09 2.84792e-19)
(1 3.31092e-09 2.56255e-19)
(1 3.28788e-09 3.90658e-19)
(1 3.24825e-09 -3.08275e-19)
(1 3.19452e-09 1.40592e-19)
(1 3.13366e-09 2.12657e-19)
(1 3.06562e-09 1.93897e-19)
(1 2.99551e-09 3.4215e-19)
(1 2.92189e-09 -3.40988e-19)
(1 2.8489e-09 1.22664e-19)
(1 2.77436e-09 2.05936e-19)
(1 2.70184e-09 1.93624e-19)
(1 2.62877e-09 3.43604e-19)
(1 2.55844e-09 -3.39809e-19)
(1 2.48805e-09 1.16993e-19)
(1 2.42072e-09 2.19416e-19)
(1 2.35355e-09 9.85296e-20)
(1 2.28957e-09 7.83799e-19)
(1 2.2258e-09 2.88087e-19)
(1 2.16523e-09 1.58148e-19)
(1 2.10485e-09 1.40828e-19)
(1 2.04761e-09 9.15416e-21)
(1 1.99051e-09 7.06335e-19)
(1 1.93646e-09 2.25483e-19)
(1 1.88245e-09 1.09603e-19)
(1 1.83141e-09 1.04993e-19)
(1 1.78032e-09 -1.61641e-20)
(1 1.73208e-09 6.87366e-19)
(1 1.6837e-09 2.06107e-19)
(1 1.63808e-09 8.12339e-20)
(1 1.59222e-09 5.9543e-20)
(1 1.54903e-09 -8.31457e-20)
(1 1.50551e-09 6.00529e-19)
(1 1.46456e-09 1.07628e-19)
(1 1.42321e-09 -1.63358e-20)
(1 1.38434e-09 -2.42893e-20)
(1 1.345e-09 -1.44304e-19)
(1 1.30806e-09 5.64593e-19)
(1 1.27059e-09 9.31806e-20)
(1 1.23545e-09 -1.69822e-20)
(1 1.19971e-09 -1.95172e-20)
(1 1.16625e-09 -1.40499e-19)
(1 1.13214e-09 5.64255e-19)
(1 1.10025e-09 8.84248e-20)
(1 1.06765e-09 -2.47407e-20)
(1 1.03728e-09 -2.84966e-20)
(1 1.00607e-09 -1.49414e-19)
(1 9.77236e-10 5.55946e-19)
(1 9.47187e-10 8.07173e-20)
(1 9.20251e-10 -3.20107e-20)
(1 8.90428e-10 -3.54661e-20)
(1 8.67406e-10 -1.55717e-19)
(1 8.33637e-10 5.48788e-19)
(1 8.25176e-10 7.886e-20)
(1 7.67573e-10 -6.30836e-20)
(1 8.2091e-10 5.76376e-20)
(1 6.70252e-10 -6.93098e-19)
(1.00013 -0.00249271 -2.01835e-18)
(1.002 -0.00752978 -6.55906e-18)
(1.00628 -0.0129234 -5.76413e-18)
(1.01291 -0.0188192 -8.72542e-18)
(1.02237 -0.0252792 -3.7074e-19)
(1.03503 -0.0321432 -2.73949e-17)
(1.05129 -0.0390483 1.56618e-17)
(1.07119 -0.0451391 7.6099e-17)
(1.09429 -0.0494791 -3.76253e-16)
(1.11949 -0.0507886 -2.39332e-18)
(1.14444 -0.0483257 1.92275e-15)
(1.16711 -0.0429197 2.18323e-15)
(1.18644 -0.0350525 -2.30888e-15)
(1.20136 -0.0251669 -9.89983e-15)
(1.21102 -0.0138132 -1.5895e-14)
(1.21479 -0.00161612 -1.64301e-14)
(1.2123 0.0105511 -1.43601e-14)
(1.20376 0.0216389 -1.15186e-14)
(1.19004 0.0306488 -8.70769e-15)
(1.17254 0.0369095 -6.26386e-15)
(1.15291 0.0402345 -4.26972e-15)
(1.13272 0.0408879 -2.67344e-15)
(1.11321 0.0394202 -1.39722e-15)
(1.09522 0.0364879 -3.71318e-16)
(1.0792 0.032713 4.56175e-16)
(1.06533 0.0286042 1.11647e-15)
(1.05355 0.0245308 1.63774e-15)
(1.0437 0.0207294 2.02531e-15)
(1.03553 0.0173294 2.27782e-15)
(1.0288 0.0143808 2.39232e-15)
(1.02328 0.0118812 2.37513e-15)
(1.01874 0.00979715 2.25056e-15)
(1.01501 0.00807989 2.04694e-15)
(1.01192 0.0066764 1.78805e-15)
(1.00935 0.00553653 1.51158e-15)
(1.00719 0.00461538 1.305e-15)
(1.00537 0.00386976 1.32201e-15)
(1.00381 0.00325019 1.68678e-15)
(1.00248 0.00269362 2.30154e-15)
(1.00136 0.00212579 2.73277e-15)
(1.00047 0.00147922 2.40343e-15)
(0.999849 0.000723771 1.12201e-15)
(0.999536 -0.000105352 -4.49855e-16)
(0.999552 -0.000901885 -9.76275e-16)
(0.99986 -0.00151696 6.09447e-16)
(1.00036 -0.00181507 4.07206e-15)
(1.00092 -0.00173269 7.69467e-15)
(1.00137 -0.00131022 9.3697e-15)
(1.00161 -0.000680372 8.2354e-15)
(1.00159 -1.92142e-05 5.46459e-15)
(1.00132 0.000515581 3.41217e-15)
(1.0009 0.000830986 3.86257e-15)
(1.00042 0.000912733 6.71923e-15)
(0.99997 0.000808675 9.91595e-15)
(0.999624 0.000596221 1.07121e-14)
(0.999405 0.000351221 7.5394e-15)
(0.999311 0.000129121 1.10047e-15)
(0.999318 -4.01067e-05 -6.00402e-15)
(0.999394 -0.000147891 -1.08379e-14)
(0.999505 -0.000199713 -1.17564e-14)
(0.999623 -0.000208304 -9.07719e-15)
(0.999729 -0.000188691 -4.5925e-15)
(0.999813 -0.000154911 -4.01216e-16)
(0.999873 -0.000118004 2.1241e-15)
(0.999913 -8.50785e-05 2.73091e-15)
(0.999939 -5.93956e-05 2.02703e-15)
(0.999955 -4.12485e-05 8.91073e-16)
(0.999966 -2.92297e-05 -9.2142e-18)
(0.999974 -2.14127e-05 -4.20767e-16)
(0.99998 -1.6132e-05 -4.26305e-16)
(0.999985 -1.22891e-05 -2.4112e-16)
(0.999989 -9.31062e-06 -5.58394e-17)
(0.999992 -6.95434e-06 4.57376e-17)
(0.999994 -5.12025e-06 6.50427e-17)
(0.999996 -3.73692e-06 4.07411e-17)
(0.999997 -2.72295e-06 1.29446e-17)
(0.999998 -1.99099e-06 -4.27016e-18)
(0.999998 -1.46264e-06 -8.20335e-18)
(0.999999 -1.07754e-06 -5.2026e-18)
(0.999999 -7.93768e-07 -2.22286e-18)
(0.999999 -5.83445e-07 1.12313e-18)
(1 -4.27613e-07 1.1808e-18)
(1 -3.12589e-07 6.85602e-19)
(1 -2.28023e-07 3.23688e-19)
(1 -1.6598e-07 -7.47911e-19)
(1 -1.20473e-07 4.35343e-19)
(1 -8.70709e-08 1.30477e-19)
(1 -6.25436e-08 8.87408e-20)
(1 -4.45367e-08 1.54759e-19)
(1 -3.13321e-08 -4.67361e-19)
(1 -2.16615e-08 -3.7638e-19)
(1 -1.4593e-08 -8.8023e-19)
(1 -9.43472e-09 -8.0249e-19)
(1 -5.68155e-09 -7.67341e-19)
(1 -2.95779e-09 -1.05528e-19)
(1 -9.91867e-10 2.02143e-19)
(1 4.20249e-10 -3.44832e-19)
(1 1.42401e-09 -3.57765e-19)
(1 2.13086e-09 -4.07124e-19)
(1 2.61818e-09 1.86722e-19)
(1 2.94736e-09 4.41208e-19)
(1 3.15893e-09 -1.48742e-19)
(1 3.28724e-09 -1.98678e-19)
(1 3.35289e-09 -2.81928e-19)
(1 3.37563e-09 2.79905e-19)
(1 3.36531e-09 5.04582e-19)
(1 3.33378e-09 -1.11406e-19)
(1 3.28506e-09 -1.81479e-19)
(1 3.22678e-09 -2.77207e-19)
(1 3.15982e-09 2.80263e-19)
(1 3.0895e-09 5.07377e-19)
(1 3.01504e-09 -1.02189e-19)
(1 2.94051e-09 -1.65237e-19)
(1 2.86421e-09 -2.56152e-19)
(1 2.78957e-09 3.02548e-19)
(1 2.71439e-09 5.2734e-19)
(1 2.64173e-09 -8.62811e-20)
(1 2.56913e-09 -1.55716e-19)
(1 2.49946e-09 -2.45893e-19)
(1 2.43013e-09 2.93985e-19)
(1 2.36387e-09 5.49176e-19)
(1 2.29803e-09 6.81626e-21)
(1 2.2353e-09 -4.91011e-20)
(1 2.17297e-09 -1.52201e-19)
(1 2.11369e-09 3.68515e-19)
(1 2.05476e-09 6.0586e-19)
(1 1.99879e-09 4.93416e-20)
(1 1.94307e-09 -1.64192e-20)
(1 1.89022e-09 -1.25346e-19)
(1 1.83753e-09 3.92168e-19)
(1 1.7876e-09 6.26334e-19)
(1 1.73772e-09 6.33757e-20)
(1 1.6905e-09 -1.47831e-20)
(1 1.64323e-09 -1.42646e-19)
(1 1.59852e-09 3.51858e-19)
(1 1.55369e-09 5.64043e-19)
(1 1.5113e-09 -1.39324e-20)
(1 1.46871e-09 -9.5829e-20)
(1 1.42848e-09 -2.15339e-19)
(1 1.38797e-09 2.9656e-19)
(1 1.34974e-09 5.29619e-19)
(1 1.31116e-09 -2.97806e-20)
(1 1.2748e-09 -9.9283e-20)
(1 1.23802e-09 -2.13594e-19)
(1 1.20339e-09 2.97798e-19)
(1 1.16828e-09 5.27364e-19)
(1 1.13528e-09 -3.59323e-20)
(1 1.10174e-09 -1.08166e-19)
(1 1.07031e-09 -2.23634e-19)
(1 1.03821e-09 2.87787e-19)
(1 1.00839e-09 5.17925e-19)
(1 9.77473e-10 -4.47506e-20)
(1 9.49659e-10 -1.16466e-19)
(1 9.18958e-10 -2.31534e-19)
(1 8.95196e-10 2.8069e-19)
(1 8.60614e-10 5.09929e-19)
(1 8.50736e-10 -4.68822e-20)
(1 7.94621e-10 -1.49125e-19)
(1 8.3762e-10 -1.37497e-19)
(1 7.0042e-10 -2.40378e-19)
(1.00012 -0.00299425 2.25609e-18)
(1.00188 -0.0090521 8.34588e-18)
(1.00591 -0.0155797 6.20852e-18)
(1.01225 -0.0227842 9.26981e-18)
(1.02143 -0.030775 2.39285e-17)
(1.03398 -0.0393917 -9.20108e-17)
(1.05046 -0.0482133 4.27384e-16)
(1.0711 -0.0561344 -8.68389e-16)
(1.0956 -0.0619402 -5.04038e-16)
(1.12278 -0.0637638 6.03302e-15)
(1.14968 -0.0605851 2.76632e-15)
(1.1739 -0.0537398 -2.30498e-14)
(1.1945 -0.0438657 -5.52005e-14)
(1.21042 -0.0314912 -6.74454e-14)
(1.22074 -0.0172638 -5.23259e-14)
(1.22473 -0.00191121 -2.43719e-14)
(1.22191 0.0134657 3.88141e-16)
(1.21245 0.0274875 1.73845e-14)
(1.19731 0.0388211 2.68879e-14)
(1.17813 0.0465802 3.08101e-14)
(1.15686 0.0505448 3.12675e-14)
(1.13526 0.0511016 2.99657e-14)
(1.11468 0.0490028 2.80197e-14)
(1.09599 0.0451174 2.59881e-14)
(1.0796 0.0402473 2.40502e-14)
(1.0656 0.0350318 2.21809e-14)
(1.05386 0.0299225 2.0313e-14)
(1.04415 0.0251999 1.83796e-14)
(1.03618 0.0210089 1.63293e-14)
(1.02966 0.0173983 1.41367e-14)
(1.02434 0.0143547 1.18225e-14)
(1.01997 0.0118292 9.46984e-15)
(1.01638 0.00975663 7.20336e-15)
(1.01341 0.00806861 5.16838e-15)
(1.01092 0.00670164 3.56535e-15)
(1.00882 0.00559952 2.72673e-15)
(1.00703 0.00470917 3.03121e-15)
(1.00549 0.00397091 4.5028e-15)
(1.00415 0.00330966 6.28069e-15)
(1.003 0.0026372 6.6079e-15)
(1.00206 0.00187307 3.90134e-15)
(1.00135 0.000980419 -1.48426e-15)
(1.00092 -4.98971e-07 -6.32131e-15)
(1.00079 -0.00094489 -6.15778e-15)
(1.00091 -0.00167652 8.01125e-16)
(1.00121 -0.00203394 1.0978e-14)
(1.00156 -0.00194061 1.67578e-14)
(1.00183 -0.00144357 1.19823e-14)
(1.0019 -0.000700281 -2.46118e-15)
(1.00174 7.94011e-05 -1.7947e-14)
(1.00138 0.000706975 -2.367e-14)
(1.00088 0.00107079 -1.3908e-14)
(1.00035 0.00115331 7.7248e-15)
(0.999879 0.0010117 2.95504e-14)
(0.999519 0.00073926 3.8414e-14)
(0.999301 0.000428285 2.76231e-14)
(0.99922 0.000147234 1.08019e-15)
(0.999249 -6.60294e-05 -2.90909e-14)
(0.999352 -0.000200124 -4.96701e-14)
(0.999488 -0.000261814 -5.32934e-14)
(0.999627 -0.000267777 -4.12367e-14)
(0.999745 -0.000238088 -2.12066e-14)
(0.999834 -0.00019155 -2.34558e-15)
(0.999894 -0.000142716 9.25452e-15)
(0.999931 -0.000100579 1.23359e-14)
(0.999951 -6.88175e-05 9.42283e-15)
(0.999963 -4.71891e-05 4.37386e-15)
(0.999971 -3.33851e-05 2.11965e-16)
(0.999977 -2.46526e-05 -1.81451e-15)
(0.999982 -1.87838e-05 -1.9662e-15)
(0.999987 -1.44317e-05 -1.1838e-15)
(0.999991 -1.09688e-05 -3.26786e-16)
(0.999993 -8.18009e-06 1.76243e-16)
(0.999995 -5.99799e-06 2.96606e-16)
(0.999996 -4.35916e-06 2.03812e-16)
(0.999997 -3.16846e-06 6.96531e-17)
(0.999998 -2.31616e-06 -1.49733e-17)
(0.999999 -1.70373e-06 -3.83051e-17)
(0.999999 -1.25727e-06 -2.77459e-17)
(0.999999 -9.27283e-07 -9.24529e-18)
(0.999999 -6.81938e-07 1.99666e-18)
(1 -4.99861e-07 4.73425e-18)
(1 -3.65477e-07 3.26969e-18)
(1 -2.66776e-07 4.04554e-19)
(1 -1.94436e-07 -3.61426e-19)
(1 -1.41401e-07 -3.72562e-19)
(1 -1.02469e-07 -1.34306e-19)
(1 -7.38682e-08 2.25771e-19)
(1 -5.28619e-08 -3.7319e-19)
(1 -3.74524e-08 4.23506e-20)
(1 -2.61639e-08 1.7126e-19)
(1 -1.79094e-08 1.6751e-20)
(1 -1.18819e-08 6.72895e-19)
(1 -7.49182e-09 1.78146e-19)
(1 -4.30148e-09 7.59833e-20)
(1 -1.99386e-09 1.29161e-19)
(1 -3.31715e-10 -2.68812e-20)
(1 8.54955e-10 6.30896e-19)
(1 1.69549e-09 1.36089e-19)
(1 2.28056e-09 3.58714e-20)
(1 2.68117e-09 9.34137e-20)
(1 2.94502e-09 -5.80472e-20)
(1 3.11157e-09 6.02102e-19)
(1 3.20533e-09 1.0611e-19)
(1 3.24872e-09 1.1505e-21)
(1 3.25372e-09 5.16077e-20)
(1 3.23356e-09 -1.07157e-19)
(1 3.19346e-09 5.47953e-19)
(1 3.1417e-09 5.12642e-20)
(1 3.07987e-09 -4.91717e-20)
(1 3.01357e-09 1.02967e-20)
(1 2.94242e-09 -1.37089e-19)
(1 2.87062e-09 5.29066e-19)
(1 2.79672e-09 4.07915e-20)
(1 2.72414e-09 -5.49065e-20)
(1 2.65088e-09 5.53013e-21)
(1 2.57993e-09 -1.41951e-19)
(1 2.509e-09 5.17246e-19)
(1 2.44086e-09 5.11175e-20)
(1 2.37305e-09 -1.59792e-19)
(1 2.3082e-09 4.52624e-19)
(1 2.2438e-09 5.26548e-19)
(1 2.1824e-09 6.02518e-19)
(1 2.12144e-09 7.2699e-21)
(1 2.06344e-09 -2.26033e-19)
(1 2.00581e-09 3.88105e-19)
(1 1.95106e-09 4.68882e-19)
(1 1.89661e-09 5.53057e-19)
(1 1.84492e-09 -3.32457e-20)
(1 1.79344e-09 -2.57616e-19)