/*--------------------------------*- C++ -*----------------------------------*\
  =========                 |
  \\      /  F ield         | OpenFOAM: The Open Source CFD Toolbox
   \\    /   O peration     | Website:  https://openfoam.org
    \\  /    A nd           | Version:  11
     \\/     M anipulation  |
\*---------------------------------------------------------------------------*/
FoamFile
{
    format      ascii;
    class       volVectorField;
    location    "14.796525";
    object      U;
}
// * * * * * * * * * * * * * * * * * * * * * * * * * * * * * * * * * * * * * //

dimensions      [0 1 -1 0 0 0 0];

internalField   nonuniform List<vector> 
7132
(
(1.00013 -0.000273847 2.94566e-18)
(1.00212 -0.000818715 1.01043e-17)
(1.00656 -0.00136288 1.04018e-17)
(1.01309 -0.00189439 1.32141e-17)
(1.02171 -0.00239463 1.77061e-17)
(1.03226 -0.00282796 1.85149e-17)
(1.04438 -0.00314188 1.84429e-17)
(1.05748 -0.00326227 1.83805e-17)
(1.07058 -0.00311203 1.82574e-17)
(1.08253 -0.00265526 1.78723e-17)
(1.09194 -0.00189892 1.70268e-17)
(1.09784 -0.00104374 1.58689e-17)
(1.10028 -0.000272474 1.44826e-17)
(1.09995 0.000226484 1.29423e-17)
(1.09836 0.000323681 8.75023e-18)
(1.09726 6.06497e-05 4.52659e-18)
(1.09788 -0.000373485 1.5844e-18)
(1.1004 -0.000686033 -1.72298e-19)
(1.10366 -0.000580722 -1.71447e-18)
(1.10541 9.31267e-05 -8.26447e-19)
(1.10327 0.00123438 5.54992e-19)
(1.09579 0.00254207 1.66497e-18)
(1.08303 0.00367398 2.35274e-18)
(1.06634 0.00437084 3.26345e-18)
(1.04789 0.00448893 2.89079e-18)
(1.03019 0.00397828 1.34817e-17)
(1.01578 0.00285467 -3.78357e-18)
(1.00706 0.00119846 -1.85822e-16)
(1.00595 -0.000816211 -1.52387e-16)
(1.01349 -0.00286764 3.24281e-15)
(1.02902 -0.00446851 1.32669e-14)
(1.04961 -0.00508996 2.28701e-14)
(1.07028 -0.00442501 2.10661e-14)
(1.08556 -0.00261006 1.10702e-14)
(1.09158 -0.000188928 3.12273e-15)
(1.08727 0.00216584 -3.35607e-16)
(1.0742 0.00394538 -6.14521e-16)
(1.05547 0.004914 3.58846e-15)
(1.03455 0.00503991 5.28258e-15)
(1.01475 0.00437533 -3.3175e-14)
(0.999116 0.00298227 -1.29236e-13)
(0.990462 0.000942464 -1.53264e-14)
(0.991225 -0.00155704 1.21463e-12)
(1.00277 -0.00410782 4.72089e-12)
(1.02426 -0.00606452 1.00733e-11)
(1.05178 -0.0067466 1.41983e-11)
(1.07891 -0.0057929 1.41082e-11)
(1.0988 -0.00341573 1.02145e-11)
(1.10674 -0.000332013 5.39128e-12)
(1.10166 0.00258841 1.85254e-12)
(1.08592 0.00469853 7.6535e-14)
(1.06374 0.00573618 -3.96522e-13)
(1.0396 0.00573829 -9.8146e-14)
(1.01738 0.00485644 4.91828e-13)
(1.00028 0.00322345 -1.07463e-13)
(0.991131 0.000948701 -5.48359e-12)
(0.992316 -0.00176668 -2.01949e-11)
(1.00509 -0.00449102 -4.64185e-11)
(1.02838 -0.00655842 -7.97135e-11)
(1.05803 -0.00728252 -1.08453e-10)
(1.08733 -0.00629576 -1.20251e-10)
(1.10912 -0.00378847 -1.09905e-10)
(1.11822 -0.000468623 -8.15219e-11)
(1.11316 0.00274236 -4.6439e-11)
(1.09623 0.00508918 -1.76946e-11)
(1.07212 0.00621515 -1.28021e-12)
(1.04603 0.0061443 4.4257e-12)
(1.02245 0.00509649 3.24976e-12)
(1.00475 0.00329921 -4.32523e-12)
(0.99556 0.000931614 -2.2206e-11)
(0.996856 -0.0017763 -5.49873e-11)
(1.00947 -0.00440894 -1.02902e-10)
(1.03207 -0.00636741 -1.58553e-10)
(1.06063 -0.00706235 -2.07885e-10)
(1.08903 -0.00618778 -2.35748e-10)
(1.11074 -0.00389542 -2.32881e-10)
(1.12081 -0.000763435 -1.99858e-10)
(1.11732 0.0024113 -1.46456e-10)
(1.10174 0.00489121 -8.79689e-11)
(1.07814 0.00622245 -3.91113e-11)
(1.05169 0.00630721 -6.44737e-12)
(1.02727 0.00531087 1.53299e-11)
(1.00871 0.00348961 3.91282e-11)
(0.998854 0.00108811 7.62252e-11)
(0.999594 -0.00161158 1.29756e-10)
(1.01152 -0.00418513 1.94826e-10)
(1.03312 -0.00607783 2.63024e-10)
(1.06043 -0.00678082 3.26569e-10)
(1.0878 -0.00605722 3.79353e-10)
(1.10935 -0.00405874 4.1548e-10)
(1.12064 -0.00126858 4.2748e-10)
(1.11974 0.00167061 4.06436e-10)
(1.10738 0.00414802 3.46163e-10)
(1.08653 0.00572435 2.52243e-10)
(1.06145 0.0061912 1.47821e-10)
(1.03676 0.00555511 6.65881e-11)
(1.01669 0.00396515 3.49319e-11)
(1.00471 0.00164936 5.81911e-11)
(1.00326 -0.00107411 1.22175e-10)
(1.01328 -0.00374921 2.05311e-10)
(1.03351 -0.00581572 2.89497e-10)
(1.0603 -0.00676739 3.63974e-10)
(1.08824 -0.00635167 4.2416e-10)
(1.11161 -0.00467827 4.68975e-10)
(1.12595 -0.00217224 4.98074e-10)
(1.12902 0.000589404 5.08749e-10)
(1.12106 0.00306538 4.93408e-10)
(1.10419 0.00487598 4.42019e-10)
(1.0817 0.00582213 3.5203e-10)
(1.05729 0.00583576 2.39117e-10)
(1.03473 0.00492367 1.35719e-10)
(1.01767 0.00315321 7.37057e-11)
(1.00937 0.000696461 6.57149e-11)
(1.01215 -0.00210297 1.01742e-10)
(1.0265 -0.00472921 1.60556e-10)
(1.05054 -0.00661031 2.22852e-10)
(1.08008 -0.0073103 2.77179e-10)
(1.10967 -0.0066901 3.19272e-10)
(1.13404 -0.00495122 3.49154e-10)
(1.14943 -0.00255354 3.68632e-10)
(1.15432 -5.80098e-05 3.79418e-10)
(1.14952 0.0020397 3.81178e-10)
(1.13749 0.00342923 3.70169e-10)
(1.12153 0.00401265 3.40612e-10)
(1.10488 0.00384751 2.89609e-10)
(1.09035 0.00305776 2.22601e-10)
(1.08019 0.00178027 1.53787e-10)
(1.07609 0.000179848 9.97946e-11)
(1.07897 -0.00150602 7.15039e-11)
(1.08861 -0.00296636 7.02863e-11)
(1.10338 -0.00388863 9.00773e-11)
(1.12047 -0.00407093 1.22029e-10)
(1.1366 -0.00350599 1.58192e-10)
(1.14894 -0.00238843 1.93019e-10)
(1.15582 -0.00104661 2.23323e-10)
(1.15712 0.000160752 2.4767e-10)
(1.15411 0.000941053 2.65747e-10)
(1.14901 0.00112638 2.77884e-10)
(1.14445 0.00068473 2.8465e-10)
(1.1429 -0.000301367 2.86506e-10)
(1.14628 -0.00166981 2.83632e-10)
(1.15576 -0.0032096 2.76031e-10)
(1.17158 -0.00468149 2.63816e-10)
(1.19298 -0.00583331 2.47426e-10)
(1.2182 -0.00642384 2.27629e-10)
(1.24452 -0.00626369 2.05369e-10)
(1.26862 -0.0052651 1.81561e-10)
(1.28708 -0.00347987 1.56957e-10)
(1.29694 -0.00110821 1.32148e-10)
(1.29642 0.00153044 1.07689e-10)
(1.28506 0.0040573 8.43622e-11)
(1.26422 0.0061187 6.36075e-11)
(1.23612 0.00745654 4.79678e-11)
(1.20462 0.0079569 4.09967e-11)
(1.17211 0.00764319 4.60354e-11)
(1.14359 0.00665992 6.39939e-11)
(1.11799 0.00520386 9.19992e-11)
(1.10275 0.00346568 1.23167e-10)
(1.08831 0.0018416 1.51439e-10)
(1.09063 -0.000614445 1.71922e-10)
(1.00013 -0.00082041 4.17232e-20)
(1.00212 -0.00245413 4.79635e-19)
(1.00655 -0.00408758 9.54936e-19)
(1.01307 -0.00568727 1.51344e-18)
(1.02172 -0.00719801 2.25431e-18)
(1.03235 -0.00851326 3.05238e-18)
(1.04461 -0.00947451 3.67371e-18)
(1.05794 -0.00985392 4.80428e-18)
(1.07134 -0.00941284 5.89905e-18)
(1.08361 -0.00803221 5.63396e-18)
(1.09324 -0.00572523 5.21268e-18)
(1.09918 -0.0031152 7.95361e-18)
(1.10146 -0.000761767 8.23972e-18)
(1.1008 0.000751028 7.98411e-18)
(1.09883 0.00101676 5.25335e-18)
(1.09746 0.000166072 -3.26925e-19)
(1.09803 -0.00121145 -6.3877e-18)
(1.1008 -0.00221982 -8.77131e-18)
(1.10453 -0.0019402 -5.35229e-18)
(1.1068 9.90766e-05 5.05476e-19)
(1.10498 0.00358629 4.58216e-18)
(1.09752 0.00758904 6.49521e-18)
(1.08448 0.0110552 5.36077e-18)
(1.06732 0.0131979 6.28406e-18)
(1.04828 0.0135878 2.23634e-17)
(1.02996 0.0120775 -4.65743e-17)
(1.01496 0.00871084 -1.94873e-16)
(1.00575 0.00371721 1.35508e-15)
(1.0044 -0.00239592 3.93093e-15)
(1.0121 -0.00866509 -2.22582e-14)
(1.02832 -0.0135977 -1.15079e-13)
(1.05002 -0.015551 -1.97009e-13)
(1.07191 -0.013559 -1.66942e-13)
(1.0881 -0.00803227 -7.93289e-14)
(1.09445 -0.000645093 -2.04282e-14)
(1.08989 0.00653634 -1.28802e-15)
(1.0762 0.011957 3.40633e-15)
(1.05669 0.0149099 2.05637e-14)
(1.03497 0.0153143 1.92025e-14)
(1.01439 0.0133379 -1.74769e-13)
(0.998017 0.00916219 -6.33325e-13)
(0.988743 0.00300906 2.34557e-14)
(0.989201 -0.00458853 7.01204e-12)
(1.00102 -0.0124034 2.75256e-11)
(1.02349 -0.0184468 5.93441e-11)
(1.05252 -0.0205988 8.40473e-11)
(1.0812 -0.0177271 8.26507e-11)
(1.10213 -0.0104819 5.75071e-11)
(1.11034 -0.00107118 2.83588e-11)
(1.10482 0.00783591 9.04392e-12)
(1.0882 0.0142612 1.28503e-13)
(1.06501 0.0174174 -2.00816e-12)
(1.03992 0.0174379 -3.46086e-13)
(1.01685 0.014799 2.7888e-12)
(0.998989 0.00989935 -5.14027e-13)
(0.98918 0.0030419 -3.24879e-11)
(0.989954 -0.00520207 -1.28377e-10)
(1.00279 -0.0135374 -3.12267e-10)
(1.02678 -0.0199174 -5.53322e-10)
(1.05771 -0.0222093 -7.53333e-10)
(1.08858 -0.0192593 -8.08412e-10)
(1.1117 -0.0116416 -6.93561e-10)
(1.12148 -0.00152504 -4.75712e-10)
(1.11629 0.00827223 -2.52021e-10)
(1.09862 0.0154359 -8.99441e-11)
(1.07346 0.0188761 -5.74265e-12)
(1.04632 0.0186802 2.0753e-11)
(1.02181 0.015538 1.65143e-11)
(1.00328 0.010146 -6.63544e-12)
(0.993357 0.00302481 -5.58503e-11)
(0.994123 -0.0051671 -1.44975e-10)
(1.00662 -0.0131914 -2.75911e-10)
(1.02965 -0.0192212 -4.26075e-10)
(1.05915 -0.0214361 -5.52563e-10)
(1.08872 -0.0188755 -6.11873e-10)
(1.11149 -0.0119822 -5.82588e-10)
(1.12227 -0.0025052 -4.76449e-10)
(1.11903 0.00713805 -3.30306e-10)
(1.10325 0.014702 -1.86508e-10)
(1.0791 0.0187976 -7.65142e-11)
(1.05191 0.0191209 -9.57607e-12)
(1.02666 0.016171 2.77024e-11)
(1.00731 0.0107172 5.98352e-11)
(0.996798 0.00347935 1.06415e-10)
(0.997243 -0.00471261 1.72649e-10)
(1.00943 -0.0125723 2.51249e-10)
(1.03184 -0.0183859 3.31173e-10)
(1.06027 -0.0205729 4.04287e-10)
(1.08865 -0.0184028 4.65615e-10)
(1.11081 -0.0123532 5.09285e-10)
(1.12223 -0.00391112 5.25113e-10)
(1.12107 0.00497309 5.00209e-10)
(1.10825 0.0124613 4.26658e-10)
(1.08687 0.0172389 3.11889e-10)
(1.06127 0.018685 1.84187e-10)
(1.03606 0.0168151 8.40092e-11)
(1.01551 0.0120587 4.36463e-11)
(1.00321 0.00507368 7.12573e-11)
(1.00186 -0.00320097 1.5148e-10)
(1.01254 -0.0113739 2.58153e-10)
(1.03398 -0.0177026 3.66883e-10)
(1.06219 -0.0206067 4.60994e-10)
(1.09134 -0.0193082 5.31922e-10)
(1.11536 -0.0141673 5.77274e-10)
(1.12963 -0.00651582 5.97889e-10)
(1.13205 0.00187238 5.93898e-10)
(1.12308 0.00935686 5.61035e-10)
(1.10516 0.014801 4.91967e-10)
(1.08175 0.0176247 3.85854e-10)
(1.05665 0.0176426 2.59613e-10)
(1.03364 0.0148799 1.47039e-10)
(1.01641 0.00952426 8.13421e-11)
(1.00832 0.00207008 7.5661e-11)
(1.01181 -0.00645502 1.18973e-10)
(1.02741 -0.0144647 1.87597e-10)
(1.05301 -0.0201831 2.59345e-10)
(1.08404 -0.0222627 3.20533e-10)
(1.11468 -0.0202917 3.65807e-10)
(1.13944 -0.0149174 3.95095e-10)
(1.1545 -0.00757209 4.10768e-10)
(1.15849 2.6961e-05 4.15547e-10)
(1.15244 0.00638326 4.1035e-10)
(1.13906 0.0105658 3.92587e-10)
(1.12186 0.0122878 3.57169e-10)
(1.10426 0.0117335 3.01459e-10)
(1.08915 0.00928336 2.31016e-10)
(1.07887 0.00535035 1.60208e-10)
(1.07518 0.00042964 1.05781e-10)
(1.07905 -0.00475465 7.84806e-11)
(1.09014 -0.00923719 7.9221e-11)
(1.10658 -0.0120414 1.01295e-10)
(1.12519 -0.0125405 1.3526e-10)
(1.14236 -0.0107239 1.72776e-10)
(1.15506 -0.00721243 2.08139e-10)
(1.1616 -0.00303502 2.38186e-10)
(1.16201 0.000702954 2.61614e-10)
(1.15777 0.00311457 2.78309e-10)
(1.15131 0.00369943 2.88833e-10)
(1.14543 0.00237083 2.93984e-10)
(1.14269 -0.000613723 2.94398e-10)
(1.1451 -0.00476224 2.90344e-10)
(1.15387 -0.00944132 2.8184e-10)
(1.16928 -0.0139346 2.68992e-10)
(1.19064 -0.0174826 2.5229e-10)
(1.21619 -0.0193511 2.32638e-10)
(1.24318 -0.0189552 2.11132e-10)
(1.26815 -0.0160143 1.88731e-10)
(1.2875 -0.0106749 1.66004e-10)
(1.29812 -0.00354006 1.4312e-10)
(1.29811 0.00442389 1.201e-10)
(1.28697 0.0120703 9.73012e-11)
(1.26609 0.0183236 7.59902e-11)
(1.23773 0.0223981 5.88136e-11)
(1.20583 0.0239434 4.96607e-11)
(1.1729 0.023031 5.23322e-11)
(1.14397 0.0200921 6.81901e-11)
(1.118 0.0157303 9.46619e-11)
(1.10248 0.0105026 1.2498e-10)
(1.08781 0.00564225 1.52891e-10)
(1.08997 -0.00177993 1.73567e-10)
(1.00013 -0.0013641 2.09351e-22)
(1.0021 -0.00408255 8.31949e-21)
(1.00651 -0.00680745 2.73163e-21)
(1.01302 -0.00948854 -1.93187e-21)
(1.02171 -0.0120379 -5.19969e-20)
(1.03248 -0.0142799 -1.07336e-19)
(1.04503 -0.0159482 -4.26816e-19)
(1.05882 -0.0166447 -4.03491e-20)
(1.07283 -0.0159476 3.53288e-19)
(1.08577 -0.0136163 -2.82429e-18)
(1.09587 -0.00964429 -4.82197e-18)
(1.10188 -0.00513792 1.6351e-18)
(1.10385 -0.00105761 8.56773e-18)
(1.10254 0.00156858 1.51785e-18)
(1.0998 0.00200449 -2.01901e-17)
(1.0979 0.000460259 -3.32128e-17)
(1.09842 -0.00204709 -6.49119e-18)
(1.10171 -0.00394352 5.79602e-17)
(1.10643 -0.00358972 1.11382e-16)
(1.10972 -0.000131301 1.19331e-16)
(1.10849 0.005883 9.43122e-17)
(1.10095 0.0128004 5.54547e-17)
(1.08724 0.018778 9.86598e-18)
(1.06902 0.0224692 7.37804e-17)
(1.04876 0.0231657 1.80244e-16)
(1.0292 0.0206376 -1.57484e-15)
(1.01309 0.0149569 -1.81968e-15)
(1.00303 0.00647936 3.23868e-14)
(1.00133 -0.00398517 4.52323e-14)
(1.00952 -0.0148226 -5.86982e-13)
(1.02726 -0.0234359 -2.50301e-12)
(1.05134 -0.0269011 -4.34314e-12)
(1.07572 -0.0234723 -4.01403e-12)
(1.09365 -0.0138669 -2.09995e-12)
(1.10043 -0.00106131 -5.80727e-13)
(1.09508 0.0113034 -7.83309e-15)
(1.07988 0.0205478 9.18085e-14)
(1.05863 0.0255265 1.00834e-13)
(1.03524 0.026183 -2.73905e-14)
(1.01315 0.0228465 -6.02077e-13)
(0.995434 0.0158052 -9.19277e-13)
(0.985125 0.00535631 2.37521e-12)
(0.985213 -0.00768595 1.31234e-11)
(0.997809 -0.0212476 2.51599e-11)
(1.02243 -0.0318225 2.79469e-11)
(1.05463 -0.0356164 2.97857e-11)
(1.08649 -0.0306054 3.96208e-11)
(1.10947 -0.0179708 4.31472e-11)
(1.11796 -0.00164684 3.29372e-11)
(1.11115 0.0136787 1.78783e-11)
(1.09238 0.0246049 4.10371e-12)
(1.06691 0.0298686 -2.37306e-12)
(1.03984 0.0298112 1.40976e-12)
(1.01515 0.025316 1.0477e-11)
(0.995914 0.0170565 -8.8543e-12)
(0.984923 0.0054735 -1.45963e-10)
(0.984861 -0.00855884 -5.28868e-10)
(0.997598 -0.0228955 -1.21907e-09)
(1.02264 -0.034027 -2.07963e-09)
(1.05585 -0.0382019 -2.77825e-09)
(1.0897 -0.0332996 -2.97792e-09)
(1.11558 -0.0202233 -2.57756e-09)
(1.12693 -0.0027404 -1.78938e-09)
(1.12171 0.0141911 -9.64812e-10)
(1.10263 0.0265102 -3.57055e-10)
(1.07539 0.0323534 -3.48881e-11)
(1.04616 0.0319595 7.04303e-11)
(1.01984 0.0266093 6.0021e-11)
(0.999813 0.0175235 -1.00141e-11)
(0.988666 0.00551976 -1.4134e-10)
(0.988747 -0.00839541 -3.54145e-10)
(1.00151 -0.0221702 -6.37094e-10)
(1.02593 -0.0326422 -9.32009e-10)
(1.05758 -0.0366065 -1.16094e-09)
(1.08935 -0.0323605 -1.26007e-09)
(1.11376 -0.0206598 -1.19809e-09)
(1.12532 -0.00451335 -9.8881e-10)
(1.12201 0.011938 -6.93429e-10)
(1.10544 0.0248589 -3.95537e-10)
(1.08006 0.0318866 -1.63592e-10)
(1.05141 0.0325154 -2.17584e-11)
(1.02469 0.0276014 5.17013e-11)
(1.00404 0.0184216 9.96277e-11)
(0.992694 0.00612856 1.55294e-10)
(0.993195 -0.00791713 2.28285e-10)
(1.00661 -0.0214793 3.11887e-10)
(1.03124 -0.0315072 3.96795e-10)
(1.0622 -0.0352011 4.76773e-10)
(1.09256 -0.0313302 5.47514e-10)
(1.11555 -0.020833 6.03395e-10)
(1.1266 -0.00637564 6.32626e-10)
(1.12421 0.0086764 6.16151e-10)
(1.10982 0.0212498 5.38369e-10)
(1.08693 0.0292116 4.03659e-10)
(1.06005 0.0315908 2.45844e-10)
(1.03382 0.0284271 1.17561e-10)
(1.01256 0.0203834 6.3239e-11)
(1.00011 0.00847923 9.66234e-11)
(0.999518 -0.00573078 1.99396e-10)
(1.01207 -0.0198079 3.36969e-10)
(1.03618 -0.0306461 4.76077e-10)
(1.06719 -0.0354579 5.93851e-10)
(1.09849 -0.0329362 6.78554e-10)
(1.12345 -0.0238119 7.26748e-10)
(1.13728 -0.0104994 7.39791e-10)
(1.1381 0.00388015 7.19646e-10)
(1.12685 0.0165182 6.64888e-10)
(1.10655 0.0255423 5.71224e-10)
(1.08112 0.0300712 4.40636e-10)
(1.05456 0.0298805 2.93173e-10)
(1.03073 0.0250367 1.66125e-10)
(1.01339 0.0158138 9.51826e-11)
(1.00608 0.00299961 9.31739e-11)
(1.01139 -0.011643 1.45702e-10)
(1.02965 -0.0253231 2.2454e-10)
(1.05821 -0.0349281 3.04193e-10)
(1.09181 -0.0381575 3.69914e-10)
(1.12407 -0.0343918 4.16869e-10)
(1.1492 -0.0248499 4.45824e-10)
(1.16342 -0.0120671 4.59495e-10)
(1.16558 0.000985697 4.60452e-10)
(1.15708 0.0117628 4.49658e-10)
(1.1411 0.0187152 4.25068e-10)
(1.12154 0.0214065 3.82348e-10)
(1.10215 0.0201953 3.1973e-10)
(1.08603 0.015748 2.43847e-10)
(1.0757 0.00876368 1.7013e-10)
(1.07308 9.16313e-05 1.15783e-10)
(1.07913 -0.00898424 9.10004e-11)
(1.09321 -0.0167313 9.53872e-11)
(1.11284 -0.0214135 1.20853e-10)
(1.13413 -0.0219611 1.57072e-10)
(1.1529 -0.0184321 1.9548e-10)
(1.16587 -0.0119994 2.30609e-10)
(1.17145 -0.00451634 2.59664e-10)
(1.16994 0.00208307 2.81606e-10)
(1.16324 0.00629125 2.9647e-10)
(1.15418 0.00729386 3.04944e-10)
(1.14583 0.00499169 3.07966e-10)
(1.14097 -0.000141364 3.06283e-10)
(1.1417 -0.00725884 3.00203e-10)
(1.14932 -0.0152995 2.89735e-10)
(1.16425 -0.0230711 2.75065e-10)
(1.18589 -0.0292932 2.57e-10)
(1.21245 -0.0326982 2.36998e-10)
(1.241 -0.0322483 2.16682e-10)
(1.26776 -0.0274252 1.9715e-10)
(1.28878 -0.0184609 1.78538e-10)
(1.30065 -0.00639199 1.60092e-10)
(1.3013 0.00711704 1.40721e-10)
(1.29023 0.0201006 1.1988e-10)
(1.26892 0.030719 9.84017e-11)
(1.23979 0.0376366 7.90645e-11)
(1.20698 0.0402648 6.6378e-11)
(1.17316 0.0387388 6.50299e-11)
(1.14348 0.0337968 7.72402e-11)
(1.11693 0.0264659 1.00977e-10)
(1.10104 0.0176837 1.29631e-10)
(1.08611 0.00953587 1.5665e-10)
(1.08832 -0.00294007 1.76885e-10)
(1.00013 -0.0019026 -3.9817e-20)
(1.00207 -0.00569716 -5.98993e-19)
(1.00643 -0.00951623 -1.17689e-18)
(1.01293 -0.0132994 -1.95919e-18)
(1.02167 -0.0169335 -3.00202e-18)
(1.03263 -0.0201782 -4.15089e-18)
(1.0456 -0.0226567 -5.60909e-18)
(1.0601 -0.0237738 -3.78998e-19)
(1.07505 -0.022888 -1.14293e-17)
(1.08905 -0.0195655 -3.15128e-17)
(1.0999 -0.0137356 -5.17176e-18)
(1.10605 -0.00710163 5.83341e-17)
(1.10754 -0.0010755 5.63139e-17)
(1.1052 0.00278325 -3.63103e-17)
(1.10124 0.00331803 -1.14025e-16)
(1.09845 0.000828645 5.33026e-17)
(1.09885 -0.00315427 6.56049e-16)
(1.10298 -0.00625885 1.46608e-15)
(1.10926 -0.00596493 1.77786e-15)
(1.11419 -0.000934666 1.40483e-15)
(1.1139 0.00798174 8.73522e-16)
(1.10623 0.0182313 3.69e-16)
(1.09143 0.0270339 3.62102e-17)
(1.07153 0.0324418 6.62993e-16)
(1.04938 0.0334943 -2.96879e-16)
(1.02794 0.0299132 -1.04347e-14)
(1.01013 0.0218007 1.24145e-14)
(0.998754 0.00959962 1.36805e-13)
(0.996503 -0.00563327 -1.33743e-13)
(1.00542 -0.021627 -1.8365e-12)
(1.02556 -0.0345151 -4.45738e-12)
(1.05339 -0.039797 -7.20816e-12)
(1.08174 -0.0347226 -8.60537e-12)
(1.10239 -0.0203725 -6.36054e-12)
(1.10977 -0.00134073 -2.63126e-12)
(1.10307 0.0168261 -3.83185e-13)
(1.08538 0.0301867 3.62029e-13)
(1.06137 0.0372249 2.25436e-13)
(1.03541 0.0380491 -6.11717e-13)
(1.01104 0.0332393 9.64044e-14)
(0.991333 0.0231759 8.05989e-12)
(0.979456 0.00812737 8.00112e-12)
(0.978797 -0.0109169 -9.60574e-11)
(0.992032 -0.0310051 -4.70757e-10)
(1.01917 -0.0468663 -1.10499e-09)
(1.05574 -0.0526461 -1.61285e-09)
(1.09271 -0.0451544 -1.58001e-09)
(1.1196 -0.0262022 -1.06536e-09)
(1.12924 -0.00188566 -4.8083e-10)
(1.12075 0.0206459 -1.13671e-10)
(1.09863 0.0363818 1.77997e-11)
(1.06954 0.0436801 2.9691e-11)
(1.03938 0.0433151 2.54715e-11)
(1.01225 0.0367583 2.76345e-11)
(0.99093 0.0250122 -6.28763e-11)
(0.977948 0.00857832 -4.75861e-10)
(0.976219 -0.0115245 -1.44703e-09)
(0.98841 -0.0324177 -2.96434e-09)
(1.0148 -0.0490494 -4.65751e-09)
(1.0512 -0.0557603 -5.97878e-09)
(1.08919 -0.0491358 -6.44563e-09)
(1.11893 -0.0302453 -5.82591e-09)
(1.13281 -0.00456872 -4.32094e-09)
(1.12808 0.0204396 -2.52666e-09)
(1.10755 0.0385957 -1.05107e-09)
(1.07767 0.047102 -1.81279e-10)
(1.04552 0.0464463 1.48493e-10)
(1.01657 0.0387071 1.52661e-10)
(0.994319 0.0257352 -1.05162e-11)
(0.981532 0.00856671 -2.93577e-10)
(0.981098 -0.0115757 -6.82926e-10)
(0.995069 -0.0317785 -1.11409e-09)
(1.02237 -0.047265 -1.48338e-09)
(1.05761 -0.0531605 -1.72015e-09)
(1.09246 -0.046973 -1.80846e-09)
(1.11858 -0.0299568 -1.74253e-09)
(1.13035 -0.00660445 -1.50758e-09)
(1.12611 0.0170963 -1.12606e-09)
(1.10793 0.0356802 -6.88829e-10)
(1.0806 0.0458082 -3.10311e-10)
(1.04992 0.0467911 -5.75875e-11)
(1.02126 0.0398481 7.78395e-11)
(0.999014 0.0267176 1.49446e-10)
(0.986953 0.00890947 2.07069e-10)
(0.988222 -0.0116622 2.75174e-10)
(1.0041 -0.0315939 3.60577e-10)
(1.03233 -0.0461884 4.61021e-10)
(1.06692 -0.0512417 5.64614e-10)
(1.09985 -0.0450825 6.53783e-10)
(1.12369 -0.0293618 7.15776e-10)
(1.1338 -0.00821951 7.44086e-10)
(1.12919 0.013377 7.27231e-10)
(1.11207 0.0311035 6.47033e-10)
(1.08661 0.0421195 4.9964e-10)
(1.05766 0.045234 3.17284e-10)
(1.02994 0.0405544 1.62447e-10)
(1.00788 0.0289102 9.34305e-11)
(0.995642 0.0115981 1.30942e-10)
(0.996645 -0.0091712 2.52998e-10)
(1.01216 -0.0297 4.15784e-10)
(1.03999 -0.0452698 5.7834e-10)
(1.07451 -0.0517735 7.14497e-10)
(1.10825 -0.0474438 8.11905e-10)
(1.13412 -0.0335597 8.66524e-10)
(1.14722 -0.0138268 8.78429e-10)
(1.14586 0.00710248 8.48804e-10)
(1.13153 0.0251374 7.76891e-10)
(1.10792 0.0376694 6.60345e-10)
(1.07959 0.0436156 5.04288e-10)
(1.05093 0.0428281 3.33443e-10)
(1.02598 0.0354601 1.90354e-10)
(1.00866 0.0218477 1.1365e-10)
(1.00273 0.00307643 1.14476e-10)
(1.01077 -0.0182301 1.7331e-10)
(1.03263 -0.0378729 2.57069e-10)
(1.0648 -0.0512716 3.38298e-10)
(1.10119 -0.055204 4.03051e-10)
(1.1349 -0.0489913 4.48403e-10)
(1.16005 -0.0345873 4.76654e-10)
(1.17298 -0.0157526 4.90891e-10)
(1.17284 0.00320401 4.92824e-10)
(1.16135 0.0186287 4.81974e-10)
(1.14217 0.0283334 4.55166e-10)
(1.11968 0.0317587 4.07876e-10)
(1.09804 0.0294859 3.39353e-10)
(1.08074 0.0225028 2.5827e-10)
(1.0706 0.0118211 1.82155e-10)
(1.06978 -0.00128483 1.29057e-10)
(1.07909 -0.0148184 1.08233e-10)
(1.09732 -0.0260922 1.17274e-10)
(1.12099 -0.032501 1.46214e-10)
(1.14527 -0.0325713 1.83776e-10)
(1.16541 -0.0265906 2.21466e-10)
(1.17802 -0.0164782 2.54542e-10)
(1.18176 -0.00506443 2.81079e-10)
(1.17742 0.00480839 3.00633e-10)
(1.16735 0.0109966 3.13416e-10)
(1.15484 0.0124038 3.20008e-10)
(1.14331 0.00897639 3.2115e-10)
(1.13572 0.00145612 3.17373e-10)
(1.13436 -0.00893608 3.08761e-10)
(1.14071 -0.0207179 2.95235e-10)
(1.15541 -0.0322184 2.77341e-10)
(1.17795 -0.0415845 2.5687e-10)
(1.20638 -0.0469148 2.36529e-10)
(1.23735 -0.0466214 2.18731e-10)
(1.26656 -0.0399054 2.04373e-10)
(1.28965 -0.027111 1.92512e-10)
(1.30294 -0.00978101 1.80938e-10)
(1.30428 0.00963846 1.67187e-10)
(1.29316 0.0282918 1.4966e-10)
(1.27118 0.0435212 1.28645e-10)
(1.241 0.0534137 1.0701e-10)
(1.20698 0.0571477 9.00002e-11)
(1.17201 0.054947 8.34597e-11)
(1.14139 0.0478984 9.07938e-11)
(1.11416 0.0374683 1.1074e-10)
(1.09792 0.0250262 1.36897e-10)
(1.08275 0.0134626 1.62378e-10)
(1.08528 -0.0041546 1.81143e-10)
(1.00013 -0.00243226 -3.01543e-18)
(1.00203 -0.00728828 -9.79725e-18)
(1.00631 -0.0122022 -8.26017e-18)
(1.01275 -0.0171138 -1.13402e-17)
(1.02154 -0.0218965 -1.05699e-17)
(1.03273 -0.0262524 -2.04989e-17)
(1.04624 -0.0296943 7.81542e-18)
(1.06169 -0.0313913 -1.00376e-17)
(1.07798 -0.0304296 -1.59629e-16)
(1.09351 -0.0260601 4.04839e-17)
(1.10545 -0.0180736 5.16763e-16)
(1.11179 -0.00894697 5.69884e-16)
(1.11259 -0.000588213 4.96303e-17)
(1.10873 0.00477196 -4.8289e-16)
(1.10297 0.00540159 -3.96386e-16)
(1.09889 0.0016776 6.4602e-16)
(1.0991 -0.00430062 2.16311e-15)
(1.10445 -0.00915415 3.22491e-15)
(1.11305 -0.0092034 3.3891e-15)
(1.1204 -0.00244881 2.54709e-15)
(1.12148 0.00987408 1.59281e-15)
(1.11359 0.0240478 4.705e-16)
(1.09721 0.0361269 6.05968e-16)
(1.07496 0.0434877 1.44047e-15)
(1.05018 0.0449552 -1.38493e-14)
(1.02616 0.0402613 1.549e-14)
(1.00598 0.0295514 1.61814e-13)
(0.992731 0.0132949 -8.34316e-13)
(0.989583 -0.00730779 -2.30251e-12)
(0.999438 -0.0293447 1.79227e-11)
(1.02304 -0.0474298 8.61955e-11)
(1.0564 -0.0550109 1.53251e-10)
(1.09049 -0.0479779 1.39816e-10)
(1.1149 -0.0278645 6.92958e-11)
(1.12296 -0.00137556 1.61369e-11)
(1.11414 0.0235186 -1.48692e-12)
(1.09283 0.0414024 -2.22449e-12)
(1.06492 0.0505085 -1.62125e-12)
(1.03544 0.0513413 -2.20114e-12)
(1.00803 0.0448804 1.2277e-11)
(0.985655 0.031597 4.78247e-11)
(0.97142 0.0116331 -4.92164e-11)
(0.968812 -0.0139552 -7.55634e-10)
(0.981078 -0.0414202 -2.57531e-09)
(1.00946 -0.0636798 -5.2122e-09)
(1.05048 -0.0724103 -7.31514e-09)
(1.0945 -0.0625551 -7.48451e-09)
(1.12838 -0.036224 -5.61449e-09)
(1.14186 -0.00219568 -3.00439e-09)
(1.1328 0.0290013 -1.0175e-09)
(1.10688 0.0502087 -7.02858e-11)
(1.07298 0.0594851 1.61155e-10)
(1.03858 0.0584485 1.39141e-10)
(1.0081 0.0495361 6.23865e-11)
(0.983834 0.0342076 -2.39522e-10)
(0.967943 0.0128389 -1.15012e-09)
(0.964026 -0.0137752 -2.85952e-09)
(0.976189 -0.0421774 -5.03469e-09)
(1.0054 -0.0654313 -7.04885e-09)
(1.04653 -0.0754187 -8.47858e-09)
(1.08941 -0.0671735 -9.13787e-09)
(1.12288 -0.0420108 -8.77297e-09)
(1.13885 -0.00728584 -7.18762e-09)
(1.13441 0.0268368 -4.74101e-09)
(1.11238 0.0517172 -2.30282e-09)
(1.07966 0.0633582 -6.04206e-10)
(1.04416 0.0624996 1.77538e-10)
(1.01196 0.0522039 2.79271e-10)
(0.986946 0.0350407 -5.93226e-12)
(0.972448 0.0121381 -4.99663e-10)
(0.972253 -0.0151537 -1.07284e-09)
(0.988895 -0.0428023 -1.56676e-09)
(1.02062 -0.0639247 -1.85385e-09)
(1.06054 -0.0716677 -1.93404e-09)
(1.09883 -0.0628463 -1.90975e-09)
(1.12635 -0.0395917 -1.85295e-09)
(1.1375 -0.00825595 -1.7187e-09)
(1.13121 0.0231651 -1.42045e-09)
(1.11038 0.0476153 -9.71316e-10)
(1.08033 0.0608868 -4.97009e-10)
(1.04712 0.0621772 -1.28681e-10)
(1.01624 0.0530448 8.91379e-11)
(0.992415 0.0355717 1.95168e-10)
(0.98009 0.0115317 2.55167e-10)
(0.983033 -0.0164815 3.23196e-10)
(1.00241 -0.0435313 4.30034e-10)
(1.03497 -0.0629274 5.76497e-10)
(1.07344 -0.0689746 7.33522e-10)
(1.10887 -0.0597206 8.58935e-10)
(1.13335 -0.0377989 9.23468e-10)
(1.14222 -0.00910853 9.24462e-10)
(1.13488 0.0195557 8.70953e-10)
(1.11432 0.0425437 7.60705e-10)
(1.08553 0.0564111 5.89953e-10)
(1.0539 0.0599152 3.84881e-10)
(1.02437 0.053308 2.09312e-10)
(1.00157 0.0375302 1.29601e-10)
(0.990031 0.0141023 1.70825e-10)
(0.993408 -0.0139825 3.06863e-10)
(1.01262 -0.0414768 4.86004e-10)
(1.04448 -0.0618237 6.62283e-10)
(1.08234 -0.0696007 8.0927e-10)
(1.1181 -0.0627519 9.16395e-10)
(1.14446 -0.0432923 9.7987e-10)
(1.15659 -0.0163578 9.97215e-10)
(1.15296 0.0117379 9.66008e-10)
(1.13541 0.0354931 8.83461e-10)
(1.10823 0.0515082 7.47907e-10)
(1.07665 0.0585573 5.67978e-10)
(1.04558 0.0566763 3.74417e-10)
(1.01939 0.0461653 2.16102e-10)
(1.00232 0.0274369 1.34267e-10)
(0.998295 0.00195578 1.37047e-10)
(1.00966 -0.0265815 1.99202e-10)
(1.03546 -0.0523414 2.83648e-10)
(1.07111 -0.0692198 3.62361e-10)
(1.10972 -0.0732197 4.22999e-10)
(1.14413 -0.0638252 4.64612e-10)
(1.16862 -0.0438864 4.90929e-10)
(1.17985 -0.0184527 5.05667e-10)
(1.17724 0.00680792 5.1016e-10)
(1.16279 0.027097 5.02379e-10)
(1.14047 0.0395473 4.7704e-10)
(1.11508 0.0434632 4.28297e-10)
(1.09126 0.0396594 3.55991e-10)
(1.07297 0.0294617 2.71277e-10)
(1.06353 0.0142425 1.94455e-10)
(1.0653 -0.00415132 1.44574e-10)
(1.0788 -0.0227523 1.29504e-10)
(1.10177 -0.0376777 1.44229e-10)
(1.12949 -0.0453922 1.76625e-10)
(1.15613 -0.0441741 2.14589e-10)
(1.17658 -0.0348021 2.50017e-10)
(1.18767 -0.02017 2.7923e-10)
(1.18856 -0.00421028 3.01498e-10)
(1.18058 0.00929165 3.17292e-10)
(1.16661 0.017575 3.27191e-10)
(1.1503 0.0193115 3.31637e-10)
(1.13533 0.0145508 3.30883e-10)
(1.12489 0.00433552 3.24795e-10)
(1.12148 -0.00975071 3.12845e-10)
(1.1269 -0.0258244 2.94941e-10)
(1.14205 -0.0416896 2.72779e-10)
(1.16631 -0.0547815 2.50214e-10)
(1.19724 -0.0624057 2.31696e-10)
(1.23084 -0.0623506 2.19846e-10)
(1.26233 -0.05358 2.14159e-10)
(1.28715 -0.0366496 2.11583e-10)
(1.30162 -0.013693 2.08116e-10)
(1.30359 0.0120115 2.0026e-10)
(1.29255 0.0366741 1.85885e-10)
(1.27014 0.0567731 1.65049e-10)
(1.23914 0.0697842 1.40756e-10)
(1.20411 0.0746473 1.18898e-10)
(1.16815 0.0716967 1.06459e-10)
(1.13672 0.0624127 1.08122e-10)
(1.10894 0.0487224 1.23498e-10)
(1.09252 0.0324916 1.46394e-10)
(1.07724 0.017341 1.69577e-10)
(1.08044 -0.00550473 1.85425e-10)
(1.00012 -0.00294831 3.28257e-18)
(1.00196 -0.0088423 1.02407e-17)
(1.00613 -0.014847 1.08165e-17)
(1.01247 -0.0209166 8.9552e-18)
(1.02125 -0.0269272 2.13346e-17)
(1.03268 -0.0325384 -1.78353e-17)
(1.04685 -0.0371559 1.9541e-16)
(1.06351 -0.039665 -5.24942e-16)
(1.08157 -0.0388116 -1.1002e-16)
(1.09924 -0.033336 2.75978e-15)
(1.11271 -0.0227839 2.89536e-15)
(1.11932 -0.0106873 -1.85919e-15)
(1.11922 0.000460549 -6.81779e-15)
(1.11328 0.007592 -8.46032e-15)
(1.10498 0.00818743 -6.68256e-15)
(1.099 0.00271062 -8.41591e-15)
(1.09883 -0.00599217 -3.05033e-14)
(1.10582 -0.0132888 -7.68881e-14)
(1.11768 -0.013977 -1.01142e-13)
(1.12846 -0.00514985 -7.59958e-14)
(1.13149 0.0114131 -4.18953e-14)
(1.12331 0.0303984 -1.69347e-14)
(1.10477 0.0463679 1.85534e-15)
(1.07936 0.0559634 -2.01752e-14)
(1.05113 0.0578962 -4.61011e-14)
(1.02376 0.0520118 4.65526e-13)
(1.00049 0.0385168 -1.39374e-13)
(0.984652 0.0178065 -8.26545e-12)
(0.980119 -0.00897351 8.70077e-13)
(0.991163 -0.0383476 1.31805e-10)
(1.01968 -0.0630042 4.32795e-10)
(1.06096 -0.0735383 7.28798e-10)
(1.10309 -0.0639811 7.52613e-10)
(1.13242 -0.0365831 4.78088e-10)
(1.14087 -0.000922663 1.74592e-10)
(1.12874 0.0319166 2.02554e-11)
(1.10231 0.0548015 -1.72277e-11)
(1.06921 0.0659117 -1.57354e-11)
(1.03525 0.0664867 -2.19583e-12)
(1.00409 0.0581292 6.09826e-11)
(0.978298 0.0414834 1.02851e-10)
(0.960382 0.0165619 -4.43049e-10)
(0.953599 -0.0157222 -2.63119e-09)
(0.962561 -0.0513121 -6.90898e-09)
(0.991023 -0.0815751 -1.21169e-08)
(1.0367 -0.0951883 -1.61272e-08)
(1.08885 -0.0841167 -1.70441e-08)
(1.13184 -0.0498728 -1.41613e-08)
(1.15213 -0.00407213 -8.85507e-09)
(1.14501 0.038151 -3.8096e-09)
(1.11626 0.066287 -7.59857e-10)
(1.07713 0.0778202 3.39818e-10)
(1.03751 0.0757442 4.25184e-10)
(1.00269 0.0641275 1.40471e-10)
(0.974547 0.0450944 -5.93664e-10)
(0.955247 0.0184914 -2.14525e-09)
(0.949802 -0.0156345 -4.40271e-09)
(0.963901 -0.0531003 -6.6112e-09)
(0.998193 -0.0842363 -8.10086e-09)
(1.04543 -0.0977882 -8.89821e-09)
(1.09326 -0.0873199 -9.41248e-09)
(1.12945 -0.054946 -9.62371e-09)
(1.14596 -0.0103022 -8.87381e-09)
(1.14052 0.0336996 -6.74926e-09)
(1.11633 0.0659711 -3.86964e-09)
(1.08061 0.0811963 -1.37198e-09)
(1.04163 0.0802866 3.99007e-11)
(1.00593 0.0673072 3.7318e-10)
(0.978019 0.0454897 -7.85462e-12)
(0.962245 0.0159224 -7.21099e-10)
(0.963389 -0.0197878 -1.43676e-09)
(0.98391 -0.0559615 -1.88985e-09)
(1.02069 -0.0831014 -1.9761e-09)
(1.06519 -0.0922856 -1.80065e-09)
(1.1065 -0.0798898 -1.58626e-09)
(1.13505 -0.0492799 -1.49961e-09)
(1.14518 -0.00901447 -1.51101e-09)
(1.13631 0.0306696 -1.43229e-09)
(1.11216 0.0611197 -1.13155e-09)
(1.07883 0.0774286 -6.714e-10)
(1.04275 0.0788279 -2.2797e-10)
(1.00957 0.067192 7.31245e-11)
(0.984449 0.0447897 2.25457e-10)
(0.972515 0.0136098 3.03133e-10)
(0.977915 -0.0228092 3.93383e-10)