/*--------------------------------*- C++ -*----------------------------------*\
  =========                 |
  \\      /  F ield         | OpenFOAM: The Open Source CFD Toolbox
   \\    /   O peration     | Website:  https://openfoam.org
    \\  /    A nd           | Version:  11
     \\/     M anipulation  |
\*---------------------------------------------------------------------------*/
FoamFile
{
    format      ascii;
    class       volVectorField;
    location    "14.796525";
    object      U_0;
}
// * * * * * * * * * * * * * * * * * * * * * * * * * * * * * * * * * * * * * //

dimensions      [0 1 -1 0 0 0 0];

internalField   nonuniform List<vector> 
7132
(
(1.00013 -0.000273934 2.93984e-18)
(1.00212 -0.000818405 1.00842e-17)
(1.00656 -0.00136161 1.04025e-17)
(1.01308 -0.00189182 1.32241e-17)
(1.02169 -0.00239074 1.76828e-17)
(1.03222 -0.00282311 1.85421e-17)
(1.04432 -0.00313677 1.84944e-17)
(1.0574 -0.00325796 1.84379e-17)
(1.07048 -0.00310984 1.83047e-17)
(1.08243 -0.00265684 1.78992e-17)
(1.09185 -0.0019059 1.70267e-17)
(1.0978 -0.00105781 1.58427e-17)
(1.10031 -0.00029433 1.44403e-17)
(1.10008 0.00019737 1.28907e-17)
(1.09862 0.000290824 8.67976e-18)
(1.09766 3.07698e-05 4.4585e-18)
(1.09838 -0.00039049 1.52329e-18)
(1.10093 -0.000681064 -2.14308e-19)
(1.10412 -0.000548403 -1.70672e-18)
(1.10569 0.000149382 -8.11683e-19)
(1.10327 0.00130213 5.64321e-19)
(1.09551 0.00260544 1.70065e-18)
(1.08252 0.00371992 2.37734e-18)
(1.0657 0.00439156 3.26144e-18)
(1.04722 0.00448126 3.10379e-18)
(1.0296 0.00394226 1.39825e-17)
(1.01539 0.00279292 -6.3455e-18)
(1.00697 0.00111704 -1.97969e-16)
(1.00622 -0.000905902 -1.19149e-16)
(1.01413 -0.00294669 3.52351e-15)
(1.02994 -0.00451283 1.3755e-14)
(1.05061 -0.00507994 2.29954e-14)
(1.07111 -0.00435784 2.06279e-14)
(1.08602 -0.00250414 1.05708e-14)
(1.09156 -7.47603e-05 2.87915e-15)
(1.0868 0.00226051 -4.08625e-16)
(1.07342 0.00400499 -5.46687e-16)
(1.05452 0.00493457 3.76876e-15)
(1.03359 0.0050235 4.83047e-15)
(1.01393 0.00432514 -3.56983e-14)
(0.998563 0.00290138 -1.30529e-13)
(0.990293 0.000836383 4.65058e-15)
(0.991527 -0.00167513 1.29148e-12)
(1.00356 -0.00421311 4.85126e-12)
(1.02542 -0.00612473 1.01444e-11)
(1.05306 -0.00673621 1.4061e-11)
(1.07999 -0.00570893 1.37619e-11)
(1.09941 -0.0032824 9.82001e-12)
(1.10674 -0.000189103 5.09904e-12)
(1.1011 0.0027044 1.69941e-12)
(1.08498 0.00476773 2.78434e-14)
(1.06263 0.00575573 -3.90658e-13)
(1.03851 0.00571453 -7.15422e-14)
(1.01645 0.00479664 5.02513e-13)
(0.999664 0.00313256 -2.01564e-13)
(0.990937 0.00083253 -5.81172e-12)
(0.992633 -0.00189449 -2.08039e-11)
(1.00593 -0.00460468 -4.7126e-11)
(1.02963 -0.00662482 -8.00416e-11)
(1.05941 -0.00727534 -1.07862e-10)
(1.08853 -0.00621045 -1.18543e-10)
(1.10982 -0.00364747 -1.07374e-10)
(1.11827 -0.00031243 -7.87701e-11)
(1.11259 0.00287272 -4.41904e-11)
(1.09522 0.00516784 -1.63529e-11)
(1.07091 0.00623612 -7.63057e-13)
(1.04486 0.0061154 4.44885e-12)
(1.02148 0.00502928 3.01117e-12)
(1.00411 0.00320268 -4.85886e-12)
(0.99536 0.000813709 -2.32273e-11)
(0.997165 -0.00190179 -5.66027e-11)
(1.01028 -0.00451832 -1.04929e-10)
(1.03326 -0.00643171 -1.60466e-10)
(1.06197 -0.00705923 -2.08984e-10)
(1.09022 -0.00611292 -2.35481e-10)
(1.11149 -0.0037662 -2.31118e-10)
(1.12095 -0.000613076 -1.96947e-10)
(1.11685 0.00254555 -1.43093e-10)
(1.1008 0.00498068 -8.49596e-11)
(1.07695 0.00625446 -3.70025e-11)
(1.05048 0.00628455 -5.22112e-12)
(1.02625 0.00524463 1.62248e-11)
(1.00803 0.00339158 4.03826e-11)
(0.99862 0.000969505 7.82419e-11)
(0.999869 -0.00173538 1.32505e-10)
(1.01229 -0.00429134 1.97987e-10)
(1.03425 -0.00614075 2.66217e-10)
(1.06171 -0.0067821 3.2947e-10)
(1.08895 -0.00599447 3.81669e-10)
(1.11012 -0.00394687 4.16857e-10)
(1.12089 -0.00113409 4.27459e-10)
(1.11943 0.00179826 4.0456e-10)
(1.10661 0.00424411 3.42334e-10)
(1.08545 0.00577348 2.47171e-10)
(1.06027 0.00618857 1.43022e-10)
(1.0357 0.00550451 6.36733e-11)
(1.01592 0.00387536 3.47125e-11)
(1.00437 0.00153254 6.03748e-11)
(1.00343 -0.0012005 1.25804e-10)
(1.01395 -0.00386142 2.09393e-10)
(1.03459 -0.00588819 2.93356e-10)
(1.06157 -0.0067817 3.67278e-10)
(1.08943 -0.00630422 4.26797e-10)
(1.11249 -0.00458174 4.7093e-10)
(1.12636 -0.00205026 4.99284e-10)
(1.12891 0.000710764 5.08954e-10)
(1.12049 0.0031651 4.92109e-10)
(1.10329 0.00494119 4.38789e-10)
(1.08061 0.00584692 3.4711e-10)
(1.05619 0.00581842 2.33733e-10)
(1.03378 0.00486514 1.31589e-10)
(1.01704 0.00305801 7.20199e-11)
(1.00919 0.000575718 6.65232e-11)
(1.01249 -0.00222939 1.04214e-10)
(1.02735 -0.0048354 1.63663e-10)
(1.05174 -0.00667192 2.25847e-10)
(1.08141 -0.00731332 2.79695e-10)
(1.11089 -0.00663577 3.21216e-10)
(1.13493 -0.00485506 3.50572e-10)
(1.14986 -0.0024395 3.69612e-10)
(1.15429 4.9186e-05 3.80002e-10)
(1.14909 0.00212141 3.81258e-10)
(1.1368 0.00347639 3.69478e-10)
(1.12072 0.00402481 3.38869e-10)
(1.1041 0.00382895 2.86821e-10)
(1.0897 0.00301378 2.19259e-10)
(1.07977 0.00171644 1.50716e-10)
(1.07596 0.000104097 9.77482e-11)
(1.07916 -0.00158158 7.08278e-11)
(1.0891 -0.00302685 7.0869e-11)
(1.10406 -0.00392102 9.15358e-11)
(1.12121 -0.00406908 1.23932e-10)
(1.13726 -0.00347323 1.6019e-10)
(1.14941 -0.0023362 1.94885e-10)
(1.15605 -0.000990508 2.24934e-10)
(1.15713 0.00020571 2.48975e-10)
(1.15397 0.000964099 2.66744e-10)
(1.14883 0.00112265 2.78597e-10)
(1.14434 0.000655041 2.85107e-10)
(1.14295 -0.00035177 2.86723e-10)
(1.14657 -0.00173278 2.83604e-10)
(1.15632 -0.0032752 2.75749e-10)
(1.1724 -0.00473882 2.6328e-10)
(1.19402 -0.00587125 2.46651e-10)
(1.21934 -0.00643252 2.26651e-10)
(1.24563 -0.00623661 2.04231e-10)
(1.26955 -0.00520122 1.80307e-10)
(1.28768 -0.00338477 1.55631e-10)
(1.29711 -0.000993664 1.3079e-10)
(1.2961 0.00164847 1.06349e-10)
(1.28428 0.00416198 8.31115e-11)
(1.26307 0.00619599 6.25668e-11)
(1.23472 0.00749792 4.73135e-11)
(1.20312 0.00796052 4.0926e-11)
(1.17067 0.00761285 4.66705e-11)
(1.14234 0.00660375 6.52764e-11)
(1.11699 0.00513049 9.36674e-11)
(1.1021 0.00338572 1.24833e-10)
(1.08791 0.0017588 1.52835e-10)
(1.09071 -0.000681785 1.72495e-10)
(1.00013 -0.000820675 4.11758e-20)
(1.00212 -0.00245322 4.78969e-19)
(1.00654 -0.00408377 9.55688e-19)
(1.01306 -0.00567954 1.51635e-18)
(1.02169 -0.0071863 2.25959e-18)
(1.0323 -0.00849861 3.06034e-18)
(1.04454 -0.00945902 3.68483e-18)
(1.05786 -0.00984071 4.82029e-18)
(1.07124 -0.00940592 5.91775e-18)
(1.08351 -0.0080365 5.62908e-18)
(1.09315 -0.00574572 5.2037e-18)
(1.09913 -0.00315706 7.95548e-18)
(1.10148 -0.000827212 8.23736e-18)
(1.10093 0.000663206 7.94607e-18)
(1.09909 0.000916978 5.11679e-18)
(1.09786 7.58703e-05 -5.69054e-19)
(1.09855 -0.00126362 -6.65357e-18)
(1.10135 -0.00220555 -8.90899e-18)
(1.10502 -0.00184242 -5.34443e-18)
(1.10709 0.000270276 4.78881e-19)
(1.10499 0.00379263 4.51454e-18)
(1.09723 0.00778181 6.42645e-18)
(1.08396 0.0111947 5.29831e-18)
(1.06664 0.013261 6.37458e-18)
(1.04758 0.0135653 2.20763e-17)
(1.02934 0.0119695 -4.79662e-17)
(1.01455 0.0085247 -1.81036e-16)
(1.00564 0.00347044 1.37283e-15)
(1.00467 -0.00266955 3.62304e-15)
(1.01276 -0.00890821 -2.27213e-14)
(1.02927 -0.0137359 -1.10876e-13)
(1.05108 -0.0155228 -1.83091e-13)
(1.0728 -0.0133551 -1.50103e-13)
(1.08859 -0.00770931 -6.9051e-14)
(1.09442 -0.00029684 -1.70255e-14)
(1.0894 0.00682479 -1.00689e-15)
(1.07538 0.0121385 3.43518e-15)
(1.0557 0.014973 2.12161e-14)
(1.03398 0.0152659 1.68166e-14)
(1.01354 0.0131878 -1.88672e-13)
(0.997433 0.00891893 -6.45759e-13)
(0.988552 0.00268784 1.32473e-13)
(0.989502 -0.00494902 7.5401e-12)
(1.00184 -0.0127274 2.86429e-11)
(1.02471 -0.018634 6.05357e-11)
(1.05388 -0.0205697 8.42878e-11)
(1.08234 -0.0174719 8.15427e-11)
(1.10277 -0.0100752 5.5808e-11)
(1.11033 -0.0006352 2.70471e-11)
(1.10423 0.00818932 8.34863e-12)
(1.08721 0.0144716 -1.05753e-13)
(1.06385 0.017477 -1.99123e-12)
(1.03878 0.017367 -2.11904e-13)
(1.01589 0.0146198 2.86685e-12)
(0.998338 0.00962612 -1.05013e-12)
(0.98896 0.00269043 -3.47795e-11)
(0.990264 -0.00559192 -1.33614e-10)
(1.00365 -0.0138871 -3.20099e-10)
(1.02807 -0.0201243 -5.60355e-10)
(1.05917 -0.0221911 -7.54502e-10)
(1.08985 -0.019001 -8.01118e-10)
(1.11246 -0.0112121 -6.80087e-10)
(1.12155 -0.00104831 -4.61148e-10)
(1.11571 0.00867052 -2.4066e-10)
(1.09757 0.0156764 -8.3437e-11)
(1.0722 0.0189406 -3.28533e-12)
(1.0451 0.0185937 2.09343e-11)
(1.02079 0.0153363 1.57123e-11)
(1.00261 0.00985612 -8.2114e-12)
(0.993128 0.00266926 -5.87506e-11)
(0.994416 -0.00554815 -1.49669e-10)
(1.00744 -0.0135264 -2.81974e-10)
(1.03088 -0.0194211 -4.31949e-10)
(1.06054 -0.0214316 -5.56132e-10)
(1.08995 -0.0186522 -6.11538e-10)
(1.11227 -0.0115924 -5.78159e-10)
(1.12244 -0.0020494 -4.69263e-10)
(1.11857 0.00754676 -3.22443e-10)
(1.10229 0.014976 -1.79879e-10)
(1.07788 0.0188979 -7.21388e-11)
(1.05066 0.0190556 -7.25834e-12)
(1.02561 0.0159736 2.90577e-11)
(1.0066 0.0104229 6.14592e-11)
(0.99654 0.00312091 1.0899e-10)
(0.997513 -0.00508924 1.76131e-10)
(1.01021 -0.0128972 2.55171e-10)
(1.03301 -0.0185795 3.35065e-10)
(1.06159 -0.0205783 4.07849e-10)
(1.08984 -0.0182132 4.686e-10)
(1.1116 -0.0120149 5.11277e-10)
(1.12247 -0.00350492 5.25454e-10)
(1.12074 0.00535833 4.98247e-10)
(1.10745 0.0127515 4.22252e-10)
(1.08577 0.0173883 3.05896e-10)
(1.06007 0.0186792 1.78421e-10)
(1.03497 0.0166649 8.0428e-11)
(1.01471 0.0117893 4.33148e-11)
(1.00286 0.00472035 7.39546e-11)
(1.00204 -0.00358586 1.56122e-10)
(1.01326 -0.0117171 2.63482e-10)
(1.03512 -0.0179242 3.7192e-10)
(1.06352 -0.0206494 4.65152e-10)
(1.09257 -0.0191616 5.34957e-10)
(1.11624 -0.0138717 5.79164e-10)
(1.13002 -0.00614453 5.98672e-10)
(1.1319 0.00223984 5.93464e-10)
(1.12246 0.00965716 5.59025e-10)
(1.1042 0.0149961 4.88047e-10)
(1.08062 0.0176978 3.80318e-10)
(1.05552 0.0175894 2.53744e-10)
(1.03268 0.0147029 1.42627e-10)
(1.01578 0.00923607 7.96383e-11)
(1.00816 0.00170319 7.67229e-11)
(1.0122 -0.00684029 1.21898e-10)
(1.02832 -0.0147882 1.91232e-10)
(1.05428 -0.0203692 2.62814e-10)
(1.08543 -0.0222686 3.23386e-10)
(1.11593 -0.0201224 3.67914e-10)
(1.14033 -0.0146216 3.96503e-10)
(1.1549 -0.00722395 4.11598e-10)
(1.15841 0.000352476 4.15889e-10)
(1.15195 0.00663006 4.10159e-10)
(1.13831 0.0107068 3.9164e-10)
(1.121 0.0123222 3.55209e-10)
(1.10344 0.0116745 2.98502e-10)
(1.08849 0.00914723 2.27561e-10)
(1.07845 0.00515375 1.5709e-10)
(1.07509 0.000196544 1.03758e-10)
(1.0793 -0.00498691 7.78876e-11)
(1.0907 -0.00942222 7.99223e-11)
(1.10734 -0.0121385 1.0288e-10)
(1.126 -0.0125311 1.37273e-10)
(1.14306 -0.0106189 1.74854e-10)
(1.15553 -0.00704838 2.10051e-10)
(1.16181 -0.00286039 2.39808e-10)
(1.16198 0.000842213 2.629e-10)
(1.15757 0.00318607 2.79265e-10)
(1.15107 0.00368887 2.89493e-10)
(1.14526 0.00228117 2.94386e-10)
(1.1427 -0.000766387 2.94564e-10)
(1.14536 -0.00495332 2.90276e-10)
(1.15441 -0.00964115 2.81529e-10)
(1.1701 -0.0141104 2.6844e-10)
(1.19168 -0.0176009 2.51521e-10)
(1.21735 -0.0193816 2.31695e-10)
(1.24432 -0.0188775 2.10067e-10)
(1.26912 -0.0158246 1.87587e-10)
(1.28815 -0.0103899 1.64807e-10)
(1.29833 -0.00319519 1.41885e-10)
(1.29782 0.00478041 1.18847e-10)
(1.2862 0.0123873 9.60861e-11)
(1.26493 0.0185585 7.4928e-11)
(1.23631 0.0225249 5.80903e-11)
(1.20432 0.0239562 4.94934e-11)
(1.17144 0.0229412 5.28677e-11)
(1.1427 0.0199243 6.93907e-11)
(1.11699 0.0155104 9.62775e-11)
(1.10182 0.0102627 1.26624e-10)
(1.0874 0.00539349 1.54285e-10)
(1.09004 -0.00198249 1.74153e-10)
(1.00013 -0.00136455 2.06718e-22)
(1.0021 -0.00408104 8.27944e-21)
(1.0065 -0.0068011 2.59236e-21)
(1.01301 -0.00947558 -1.68744e-21)
(1.02169 -0.0120182 -5.15807e-20)
(1.03244 -0.0142552 -1.10239e-19)
(1.04496 -0.0159218 -4.19034e-19)
(1.05874 -0.016622 -2.91233e-20)
(1.07273 -0.0159351 3.04245e-19)
(1.08566 -0.0136224 -2.88473e-18)
(1.09577 -0.00967743 -4.69475e-18)
(1.10182 -0.00520725 1.93291e-18)
(1.10386 -0.00116749 8.6117e-18)
(1.10266 0.00141916 8.91895e-19)
(1.10007 0.00183274 -2.11883e-17)
(1.09832 0.000302682 -3.36546e-17)
(1.09897 -0.00214147 -6.1955e-18)
(1.10232 -0.0039238 5.73282e-17)
(1.10696 -0.00342436 1.08624e-16)
(1.11004 0.000162871 1.15589e-16)
(1.1085 0.0062387 9.08315e-17)
(1.10064 0.0131322 5.2778e-17)
(1.08667 0.0190176 8.84594e-18)
(1.06829 0.0225778 7.76916e-17)
(1.048 0.0231287 1.66193e-16)
(1.02854 0.0204555 -1.64768e-15)
(1.01263 0.0146415 -1.46649e-15)
(1.00289 0.00605817 3.39135e-14)
(1.00161 -0.00445673 3.86963e-14)
(1.01022 -0.0152462 -6.25508e-13)
(1.02832 -0.02368 -2.54157e-12)
(1.05251 -0.0268554 -4.27895e-12)
(1.0767 -0.023119 -3.84721e-12)
(1.09418 -0.0133065 -1.95516e-12)
(1.10039 -0.000460035 -5.19318e-13)
(1.09453 0.011797 3.70079e-15)
(1.07898 0.0208548 8.98757e-14)
(1.05757 0.0256314 9.88983e-14)
(1.03418 0.0261005 -3.94e-14)
(1.01223 0.0225937 -6.35194e-13)
(0.994797 0.0153939 -9.12782e-13)
(0.984901 0.00480806 2.64993e-12)
(0.985523 -0.00830834 1.40096e-11)
(0.998698 -0.0218125 2.69008e-11)
(1.02379 -0.0321514 3.11767e-11)
(1.05614 -0.0355663 3.47805e-11)
(1.08776 -0.0301598 4.45551e-11)
(1.11015 -0.0172634 4.58646e-11)
(1.11792 -0.000893808 3.35989e-11)
(1.11047 0.0142828 1.74256e-11)
(1.09129 0.0249589 3.5269e-12)
(1.06566 0.0299644 -2.53309e-12)
(1.03862 0.029688 1.73707e-12)
(1.01412 0.0250132 1.06295e-11)
(0.995207 0.016596 -1.13349e-11)
(0.984658 0.00487735 -1.5587e-10)
(0.985151 -0.00922689 -5.50799e-10)
(0.998485 -0.0235025 -1.25142e-09)
(1.02402 -0.0343944 -2.11085e-09)
(1.05744 -0.038182 -2.79152e-09)
(1.09112 -0.0328602 -2.96253e-09)
(1.11645 -0.0194816 -2.53782e-09)
(1.12705 -0.00191413 -1.7418e-09)
(1.1211 0.01488 -9.25494e-10)
(1.1015 0.0269228 -3.334e-10)
(1.07404 0.0324612 -2.53191e-11)
(1.04485 0.0318103 7.16395e-11)
(1.01875 0.0262682 5.75929e-11)
(0.999077 0.0170356 -1.45943e-11)
(0.98839 0.00491881 -1.48877e-10)
(0.989026 -0.00904556 -3.65223e-10)
(1.00236 -0.0227478 -6.50245e-10)
(1.02723 -0.0329919 -9.4404e-10)
(1.05906 -0.0366062 -1.16848e-09)
(1.09067 -0.0319846 -1.26068e-09)
(1.1146 -0.0199979 -1.19106e-09)
(1.12551 -0.00373735 -9.75852e-10)
(1.12153 0.0126353 -6.78269e-10)
(1.10444 0.025328 -3.822e-10)
(1.07877 0.032061 -1.54522e-10)
(1.0501 0.0324094 -1.69279e-11)
(1.02357 0.0272713 5.41377e-11)
(1.00327 0.0179248 1.01774e-10)
(0.992412 0.00551764 1.58278e-10)
(0.993489 -0.00856438 2.32116e-10)
(1.00747 -0.0220394 3.16096e-10)
(1.03253 -0.0318385 4.0097e-10)
(1.06362 -0.0352045 4.80669e-10)
(1.0938 -0.030998 5.50961e-10)
(1.11634 -0.0202508 6.06052e-10)
(1.12679 -0.00568535 6.33709e-10)
(1.12381 0.00932437 6.14614e-10)
(1.10895 0.021734 5.33692e-10)
(1.08577 0.029459 3.96664e-10)
(1.0588 0.0315795 2.38754e-10)
(1.03269 0.0281743 1.12973e-10)
(1.01174 0.0199271 6.27148e-11)
(0.999768 0.00787546 1.00046e-10)
(0.999756 -0.00639253 2.05409e-10)
(1.01289 -0.0203975 3.43885e-10)
(1.03744 -0.0310216 4.82542e-10)
(1.06863 -0.0355197 5.99051e-10)
(1.09979 -0.03267 6.82135e-10)
(1.12434 -0.0232928 7.2867e-10)
(1.13762 -0.00985839 7.40148e-10)
(1.13785 0.00450494 7.18446e-10)
(1.12612 0.0170202 6.61919e-10)
(1.10549 0.025861 5.66279e-10)
(1.07991 0.0301831 4.34128e-10)
(1.05338 0.0297812 2.8653e-10)
(1.02974 0.0247301 1.61292e-10)
(1.01277 0.0153183 9.34856e-11)
(1.00598 0.00236924 9.4599e-11)
(1.01188 -0.0123032 1.49161e-10)
(1.03068 -0.0258719 2.28686e-10)
(1.0596 -0.0352345 3.08047e-10)
(1.0933 -0.0381504 3.73011e-10)
(1.12536 -0.0340846 4.1911e-10)
(1.15007 -0.0243309 4.47281e-10)
(1.16376 -0.0114654 4.60282e-10)
(1.1654 0.00154126 4.60651e-10)
(1.15648 0.0121777 4.49238e-10)
(1.14023 0.0189454 4.23839e-10)
(1.12059 0.0214528 3.80092e-10)
(1.10126 0.0200819 3.16509e-10)
(1.08533 0.0155028 2.40215e-10)
(1.0753 0.00841482 1.66964e-10)
(1.07306 -0.000318807 1.13845e-10)
(1.0795 -0.00938915 9.05804e-11)
(1.09392 -0.0170474 9.62823e-11)
(1.11374 -0.0215694 1.22597e-10)
(1.13504 -0.0219269 1.59186e-10)
(1.15365 -0.0182316 1.97604e-10)
(1.16633 -0.0116998 2.32525e-10)
(1.17159 -0.00420417 2.61264e-10)
(1.16981 0.00232846 2.82851e-10)
(1.16293 0.00641572 2.97367e-10)
(1.15382 0.00727517 3.05533e-10)
(1.14556 0.00483694 3.08289e-10)
(1.14089 -0.000403667 3.06367e-10)
(1.14189 -0.00758706 3.00051e-10)
(1.14982 -0.0156443 2.89343e-10)
(1.16506 -0.0233779 2.74446e-10)
(1.18695 -0.0295049 2.56202e-10)
(1.21367 -0.0327616 2.36097e-10)
(1.24223 -0.0321267 2.15751e-10)
(1.26882 -0.0271107 1.96225e-10)
(1.2895 -0.0179813 1.77611e-10)
(1.3009 -0.00580843 1.59124e-10)
(1.30104 0.00772172 1.39678e-10)
(1.28947 0.0206389 1.18776e-10)
(1.26774 0.0311182 9.734e-11)
(1.23834 0.0378526 7.82462e-11)
(1.20544 0.0402881 6.60574e-11)
(1.17168 0.0385892 6.53991e-11)
(1.14219 0.0335158 7.83004e-11)
(1.11589 0.0260977 1.02498e-10)
(1.10037 0.0172821 1.31225e-10)
(1.08569 0.00911899 1.5802e-10)
(1.08839 -0.00327872 1.7747e-10)
(1.00013 -0.00190326 -3.93715e-20)
(1.00207 -0.00569508 -5.97525e-19)
(1.00643 -0.00950732 -1.17872e-18)
(1.01292 -0.0132811 -1.96003e-18)
(1.02165 -0.0169056 -3.01557e-18)
(1.03259 -0.0201429 -4.14112e-18)
(1.04553 -0.0226189 -5.58278e-18)
(1.06001 -0.0237406 -5.36499e-19)
(1.07494 -0.0228687 -1.1533e-17)
(1.08893 -0.0195719 -3.10377e-17)
(1.09979 -0.0137798 -4.06839e-18)
(1.10597 -0.00719746 5.89557e-17)
(1.10753 -0.00123019 5.43234e-17)
(1.1053 0.00256854 -4.08384e-17)
(1.1015 0.00306657 -1.14214e-16)
(1.0989 0.000593908 6.88957e-17)
(1.09945 -0.00329966 6.88672e-16)
(1.10366 -0.00623754 1.48714e-15)
(1.10988 -0.00572613 1.76134e-15)
(1.11456 -0.000502097 1.3747e-15)
(1.11392 0.00850548 8.46854e-16)
(1.10588 0.018717 3.47773e-16)
(1.09078 0.0273817 3.25817e-17)
(1.07072 0.0325983 6.88485e-16)
(1.04854 0.0334414 -4.46194e-16)
(1.0272 0.0296527 -1.07462e-14)
(1.00961 0.0213475 1.47732e-14)
(0.998582 0.00898874 1.42248e-13)
(0.996784 -0.00632624 -1.60415e-13)
(1.0062 -0.0222588 -1.98191e-12)
(1.02676 -0.0348859 -4.84784e-12)
(1.05474 -0.0397344 -7.79672e-12)
(1.08288 -0.0341965 -8.96847e-12)
(1.10298 -0.019538 -6.33493e-12)
(1.1097 -0.000453117 -2.50218e-12)
(1.10242 0.0175441 -3.09113e-13)
(1.08435 0.0306241 3.75604e-13)
(1.06018 0.0373684 2.04241e-13)
(1.03424 0.0379271 -6.42313e-13)
(1.01003 0.0328778 2.0954e-13)
(0.990616 0.022587 8.3697e-12)
(0.979181 0.00733254 6.92612e-12)
(0.97911 -0.0118336 -1.03173e-10)
(0.993006 -0.0318499 -4.86142e-10)
(1.02071 -0.0473658 -1.11649e-09)
(1.05751 -0.0525751 -1.59961e-09)
(1.09423 -0.0444845 -1.53891e-09)
(1.12042 -0.025142 -1.01791e-09)
(1.12919 -0.000769434 -4.48109e-10)
(1.11994 0.0215254 -9.97658e-11)
(1.09737 0.0368821 2.01315e-11)
(1.06813 0.0438026 2.86822e-11)
(1.03804 0.0431283 2.51799e-11)
(1.01112 0.0363243 2.67817e-11)
(0.990134 0.0243592 -7.16746e-11)
(0.9776 0.00772868 -5.04075e-10)
(0.976455 -0.0124904 -1.50126e-09)
(0.989312 -0.0333138 -3.03617e-09)
(1.01628 -0.0496125 -4.72525e-09)
(1.05297 -0.0557618 -6.0176e-09)
(1.0908 -0.0485141 -6.43638e-09)
(1.11996 -0.0291629 -5.76568e-09)
(1.133 -0.0033484 -4.23091e-09)
(1.12746 0.0214603 -2.44019e-09)
(1.10633 0.0392041 -9.91911e-10)
(1.07619 0.0472574 -1.53534e-10)
(1.04408 0.0462278 1.54359e-10)
(1.01537 0.038218 1.47612e-10)
(0.993492 0.02504 -2.11574e-11)
(0.9812 0.0077041 -3.09034e-10)
(0.981384 -0.0125213 -7.02039e-10)
(0.996007 -0.0326273 -1.13303e-09)
(1.02381 -0.0477812 -1.49805e-09)
(1.05924 -0.0531616 -1.72881e-09)
(1.09387 -0.0464268 -1.81064e-09)
(1.11945 -0.0290006 -1.73698e-09)
(1.13051 -0.00548847 -1.49353e-09)
(1.12557 0.0180972 -1.10614e-09)
(1.10686 0.0363545 -6.68688e-10)
(1.07923 0.0460621 -2.95006e-10)
(1.04852 0.0466451 -4.86691e-11)
(1.02005 0.0393804 8.22041e-11)
(0.998189 0.0260044 1.52105e-10)
(0.986664 0.00802077 2.09885e-10)
(0.988584 -0.0126113 2.78778e-10)
(1.0051 -0.0324134 3.64987e-10)
(1.03378 -0.0466618 4.65864e-10)
(1.06848 -0.0512252 5.69164e-10)
(1.10116 -0.0445749 6.57368e-10)
(1.12447 -0.0285019 7.18126e-10)
(1.13391 -0.00722199 7.44926e-10)
(1.12868 0.0142958 7.25707e-10)
(1.11107 0.0317778 6.42233e-10)
(1.08534 0.042456 4.91965e-10)
(1.05633 0.0452079 3.09069e-10)
(1.02877 0.040188 1.56895e-10)
(1.00705 0.0282502 9.26798e-11)
(0.995337 0.0107188 1.34986e-10)
(0.996986 -0.0101374 2.60159e-10)
(1.01314 -0.0305545 4.23952e-10)
(1.04142 -0.0457994 5.85905e-10)
(1.07608 -0.0518356 7.20566e-10)
(1.10962 -0.0470261 8.16094e-10)
(1.13502 -0.0327812 8.68726e-10)
(1.14748 -0.0128852 8.7867e-10)
(1.14549 0.008003 8.47091e-10)
(1.13065 0.0258441 7.73089e-10)
(1.10672 0.038102 6.54364e-10)
(1.07826 0.0437497 4.96715e-10)
(1.04967 0.0426636 3.25937e-10)
(1.02497 0.0350022 1.85069e-10)
(1.00807 0.0211195 1.11956e-10)
(1.00272 0.0021558 1.16192e-10)
(1.0114 -0.0191851 1.77097e-10)
(1.03383 -0.0386515 2.61416e-10)
(1.06635 -0.0516851 3.42205e-10)
(1.10278 -0.0551581 4.06125e-10)
(1.13623 -0.0485152 4.50633e-10)
(1.16089 -0.0338151 4.78161e-10)
(1.17324 -0.014873 4.91775e-10)
(1.17253 0.00400531 4.93104e-10)
(1.1606 0.0192166 4.81554e-10)
(1.14116 0.028647 4.5382e-10)
(1.1186 0.0318023 4.05402e-10)
(1.09707 0.0292965 3.35889e-10)
(1.08002 0.022121 2.54476e-10)
(1.07025 0.0112885 1.78989e-10)
(1.06987 -0.00190313 1.27277e-10)
(1.07964 -0.0154169 1.08052e-10)
(1.09822 -0.026543 1.18389e-10)
(1.12206 -0.0327001 1.48089e-10)
(1.14629 -0.0324825 1.85912e-10)
(1.16619 -0.026259 2.23529e-10)
(1.17843 -0.0160104 2.56357e-10)
(1.1818 -0.00459028 2.82575e-10)
(1.17714 0.00517395 3.01789e-10)
(1.16688 0.0111781 3.14239e-10)
(1.15434 0.0123734 3.20526e-10)
(1.1429 0.00874788 3.21395e-10)
(1.13553 0.00107215 3.17361e-10)
(1.13447 -0.00941676 3.08487e-10)
(1.14118 -0.0212268 2.947e-10)
(1.15624 -0.0326782 2.76594e-10)
(1.17908 -0.0419105 2.56019e-10)
(1.20771 -0.0470265 2.35708e-10)
(1.2387 -0.0464619 2.18028e-10)
(1.26774 -0.039462 2.03797e-10)
(1.29046 -0.0264252 1.9199e-10)
(1.30326 -0.00894341 1.80359e-10)
(1.30405 0.0105071 1.66452e-10)
(1.29239 0.0290648 1.48738e-10)
(1.26998 0.0440939 1.27617e-10)
(1.23951 0.0537232 1.06094e-10)
(1.2054 0.0571817 8.94934e-11)
(1.17049 0.054735 8.36152e-11)
(1.14006 0.0475006 9.16657e-11)
(1.1131 0.0369477 1.12125e-10)
(1.09723 0.0244594 1.38408e-10)
(1.08232 0.0128738 1.63692e-10)
(1.08536 -0.00463056 1.81696e-10)
(1.00013 -0.00243316 -2.90592e-18)
(1.00203 -0.00728566 -9.8483e-18)
(1.00631 -0.0121907 -8.24883e-18)
(1.01274 -0.01709 -1.13826e-17)
(1.02151 -0.02186 -1.06204e-17)
(1.03269 -0.026206 -2.02457e-17)
(1.04617 -0.029644 7.40126e-18)
(1.0616 -0.0313462 -1.10999e-17)
(1.07786 -0.0304016 -1.57106e-16)
(1.09338 -0.0260645 4.55332e-17)
(1.10532 -0.0181265 5.15671e-16)
(1.11168 -0.00906796 5.58439e-16)
(1.11255 -0.000788992 3.57479e-17)
(1.10881 0.00448574 -4.82097e-16)
(1.10323 0.00505874 -3.55967e-16)
(1.09936 0.0013505 7.45869e-16)
(1.09978 -0.00451433 2.34547e-15)
(1.10524 -0.00914121 3.50589e-15)
(1.11378 -0.00888549 3.65676e-15)
(1.12085 -0.0018567 2.69743e-15)
(1.12151 0.0105935 1.65311e-15)
(1.11318 0.0247107 4.64566e-16)
(1.09647 0.0365968 6.38395e-16)
(1.07403 0.0436972 1.34267e-15)
(1.04922 0.0448855 -1.4308e-14)
(1.0253 0.039917 1.80435e-14)
(1.00537 0.028949 1.58769e-13)
(0.992499 0.0124732 -8.82114e-13)
(0.989869 -0.00825658 -2.13997e-12)
(1.00033 -0.0302271 1.90102e-11)
(1.02445 -0.0479593 8.6782e-11)
(1.05801 -0.0549326 1.49494e-10)
(1.09182 -0.0472441 1.32305e-10)
(1.11558 -0.0267004 6.32971e-11)
(1.12283 -0.000151345 1.38061e-11)
(1.11334 0.0244885 -1.76165e-12)
(1.09162 0.0419756 -2.03897e-12)
(1.06356 0.0506839 -1.5898e-12)
(1.03413 0.051171 -2.0782e-12)
(1.00689 0.044402 1.33647e-11)
(0.984828 0.030819 4.82899e-11)
(0.971052 0.0105709 -6.10834e-11)
(0.969068 -0.0152025 -8.01606e-10)
(0.982081 -0.0425984 -2.66017e-09)
(1.01117 -0.0644085 -5.29357e-09)
(1.05259 -0.07235 -7.32271e-09)
(1.09641 -0.0616336 -7.38481e-09)
(1.12951 -0.0347321 -5.45277e-09)
(1.14191 -0.000629785 -2.86263e-09)
(1.13189 0.0302097 -9.38171e-10)
(1.10541 0.0508668 -4.48866e-11)
(1.07136 0.0596201 1.61583e-10)
(1.03707 0.0581802 1.35202e-10)
(1.00685 0.0489619 5.58231e-11)
(0.982908 0.0333603 -2.63072e-10)
(0.967472 0.0117272 -1.20721e-09)
(0.964197 -0.0150689 -2.94897e-09)
(0.97714 -0.0434099 -5.13349e-09)
(1.00704 -0.0662323 -7.13272e-09)
(1.0485 -0.075461 -8.53535e-09)
(1.09119 -0.0663641 -9.15533e-09)
(1.12403 -0.0405624 -8.73235e-09)
(1.1391 -0.00563034 -7.08749e-09)
(1.13377 0.0282352 -4.61573e-09)
(1.11106 0.052555 -2.19836e-09)
(1.07805 0.0635742 -5.44841e-10)
(1.04257 0.0622091 1.95884e-10)
(1.01062 0.0515571 2.72578e-10)
(0.986011 0.0341207 -2.53861e-11)
(0.972071 0.0109817 -5.25369e-10)
(0.972594 -0.0164392 -1.0987e-09)
(0.989988 -0.0439604 -1.58596e-09)
(1.02227 -0.0646192 -1.86343e-09)
(1.06235 -0.0716508 -1.93706e-09)
(1.10035 -0.0620915 -1.91093e-09)
(1.12723 -0.0383032 -1.85233e-09)
(1.13759 -0.00677467 -1.71138e-09)
(1.13056 0.0244813 -1.40361e-09)
(1.10918 0.0484981 -9.48879e-10)
(1.07885 0.0612198 -4.76428e-10)
(1.04562 0.061988 -1.1484e-10)
(1.01495 0.0524295 9.62913e-11)
(0.991541 0.0346186 1.98533e-10)
(0.979826 0.0103277 2.57732e-10)
(0.983508 -0.0177722 3.26947e-10)
(1.00358 -0.0446335 4.35711e-10)
(1.0366 -0.0635398 5.83428e-10)
(1.07515 -0.0689105 7.39983e-10)
(1.11024 -0.058996 8.63198e-10)
(1.13411 -0.0366184 9.24886e-10)
(1.14224 -0.00777185 9.23455e-10)
(1.13422 0.0207586 8.67737e-10)
(1.11317 0.0434038 7.54768e-10)
(1.08413 0.0568225 5.81387e-10)
(1.05247 0.059857 3.75769e-10)
(1.02314 0.052808 2.03079e-10)
(1.00074 0.0366391 1.28741e-10)
(0.989794 0.0129134 1.75358e-10)
(0.993888 -0.0152834 3.14807e-10)
(1.01377 -0.0426093 4.94937e-10)
(1.04608 -0.0624983 6.70491e-10)
(1.08403 -0.0696367 8.15925e-10)
(1.11953 -0.0621479 9.21175e-10)
(1.14534 -0.042218 9.82593e-10)
(1.15678 -0.0150833 9.97719e-10)
(1.15246 0.0129362 9.64142e-10)
(1.13436 0.0364113 8.79059e-10)
(1.10687 0.0520461 7.40991e-10)
(1.0752 0.0586944 5.59364e-10)
(1.04424 0.056421 3.66073e-10)
(1.01836 0.0455255 2.10412e-10)
(1.00178 0.0264417 1.32585e-10)
(0.998408 0.000713602 1.38961e-10)
(1.01046 -0.0278482 2.03124e-10)
(1.03683 -0.0533455 2.87963e-10)
(1.07279 -0.0697175 3.66106e-10)
(1.11137 -0.0731028 4.25878e-10)
(1.14545 -0.0631482 4.66701e-10)
(1.16941 -0.0428338 4.92405e-10)
(1.18002 -0.017274 5.06641e-10)
(1.17681 0.0078692 5.10607e-10)
(1.1619 0.0278632 5.02105e-10)
(1.13932 0.0399391 4.75726e-10)
(1.11389 0.0434882 4.25717e-10)
(1.09022 0.0393682 3.52359e-10)
(1.07224 0.0289082 2.67393e-10)
(1.06325 0.0134855 1.91378e-10)
(1.06556 -0.0050135 1.4305e-10)
(1.07956 -0.023563 1.29635e-10)
(1.10289 -0.0382564 1.45587e-10)
(1.13072 -0.0456048 1.78602e-10)
(1.15721 -0.0439886 2.16678e-10)
(1.17733 -0.0342971 2.51924e-10)
(1.18798 -0.0195 2.80839e-10)
(1.18844 -0.0035517 3.02795e-10)
(1.18013 0.00978815 3.18287e-10)
(1.16596 0.0178143 3.27899e-10)
(1.14962 0.0192627 3.32067e-10)
(1.13478 0.0142369 3.3104e-10)
(1.12459 0.00381357 3.2466e-10)
(1.12152 -0.0104061 3.12393e-10)
(1.12736 -0.0265256 2.942e-10)
(1.14293 -0.0423321 2.7188e-10)
(1.16755 -0.0552458 2.49368e-10)
(1.1987 -0.0625774 2.3109e-10)
(1.23232 -0.062152 2.19541e-10)
(1.26361 -0.0529973 2.14075e-10)
(1.28804 -0.0357426 2.11553e-10)
(1.30199 -0.0125847 2.0796e-10)
(1.30338 0.0131604 1.9984e-10)
(1.29179 0.0376958 1.85144e-10)
(1.26892 0.0575289 1.64055e-10)
(1.23762 0.0701918 1.39734e-10)
(1.20249 0.0746919 1.18188e-10)
(1.16659 0.071419 1.06374e-10)
(1.13537 0.0618932 1.08774e-10)
(1.10787 0.0480444 1.24715e-10)
(1.09182 0.0317553 1.47786e-10)
(1.07682 0.0165755 1.70791e-10)
(1.08052 -0.00611917 1.85902e-10)
(1.00013 -0.00294948 3.31532e-18)
(1.00196 -0.00883918 1.02547e-17)
(1.00613 -0.0148329 1.08587e-17)
(1.01246 -0.0208872 8.77129e-18)
(1.02123 -0.0268818 2.16652e-17)
(1.03264 -0.0324802 -1.77346e-17)
(1.04677 -0.0370919 1.92808e-16)
(1.06341 -0.0396062 -5.21355e-16)
(1.08143 -0.0387724 -9.83362e-17)
(1.09909 -0.0333352 2.76324e-15)
(1.11254 -0.0228419 2.84165e-15)
(1.11918 -0.0108307 -1.97317e-15)
(1.11914 0.000213302 -6.89881e-15)
(1.11332 0.00722728 -8.39405e-15)
(1.10522 0.00773677 -6.5878e-15)
(1.09951 0.00226764 -8.79199e-15)
(1.0996 -0.00629603 -3.16879e-14)
(1.10675 -0.0132952 -7.70966e-14)
(1.11857 -0.0135686 -9.82871e-14)
(1.12902 -0.00436427 -7.24768e-14)
(1.13153 0.0123691 -3.95722e-14)
(1.12282 0.0312694 -1.56572e-14)
(1.10389 0.0469749 2.30728e-15)
(1.07827 0.0562289 -2.17953e-14)
(1.05002 0.0578064 -4.18406e-14)
(1.02276 0.0515763 4.84797e-13)
(0.999754 0.0377517 -2.55391e-13)
(0.984333 0.0167469 -8.54656e-12)
(0.980401 -0.0102263 2.63921e-12)
(0.992194 -0.0395422 1.39655e-10)
(1.02139 -0.063737 4.44654e-10)
(1.06295 -0.0734406 7.32887e-10)
(1.10472 -0.0629852 7.39309e-10)
(1.13318 -0.0350122 4.56747e-10)
(1.14063 0.000703614 1.60885e-10)
(1.12771 0.033172 1.57653e-11)
(1.10086 0.0555135 -1.73062e-11)
(1.06764 0.0661073 -1.51716e-11)
(1.03376 0.0662548 -8.51539e-13)
(1.0028 0.0575249 6.44806e-11)
(0.97732 0.0405113 9.83786e-11)
(0.959845 0.0152261 -4.90977e-10)
(0.95369 -0.0173239 -2.76193e-09)
(0.963496 -0.0528843 -7.10856e-09)
(0.992853 -0.0826247 -1.2308e-08)
(1.03912 -0.0952209 -1.62137e-08)
(1.0912 -0.0829627 -1.69537e-08)
(1.13339 -0.0478788 -1.39054e-08)
(1.15243 -0.00193463 -8.55412e-09)
(1.1441 0.0397908 -3.59119e-09)
(1.1146 0.0671454 -6.61253e-10)
(1.07525 0.0779608 3.58965e-10)
(1.03578 0.0753734 4.15588e-10)
(1.00125 0.0634026 1.18766e-10)
(0.973453 0.0440489 -6.42439e-10)
(0.954645 0.017094 -2.23312e-09)
(0.949958 -0.0173119 -4.5103e-09)
(0.964992 -0.0547331 -6.70244e-09)
(1.00007 -0.0853085 -8.16127e-09)
(1.04763 -0.0978612 -8.94257e-09)
(1.09519 -0.0862881 -9.452e-09)
(1.13065 -0.053097 -9.63428e-09)
(1.1462 -0.00818263 -8.81622e-09)
(1.1398 0.0355039 -6.6264e-09)
(1.11491 0.0670639 -3.73377e-09)
(1.07885 0.0814881 -1.27577e-09)
(1.03988 0.0799267 7.94927e-11)
(1.00444 0.0664922 3.68734e-10)
(0.976979 0.044316 -3.64286e-11)
(0.961857 0.0144221 -7.57006e-10)
(0.963842 -0.0214688 -1.4662e-09)
(0.985205 -0.0574636 -1.90399e-09)
(1.02256 -0.0839731 -1.97518e-09)
(1.06716 -0.0922191 -1.79309e-09)
(1.10811 -0.0788788 -1.58216e-09)
(1.13592 -0.0476115 -1.50245e-09)
(1.14518 -0.00713478 -1.51404e-09)
(1.13552 0.0323138 -1.42579e-09)
(1.11081 0.0622087 -1.11356e-09)
(1.07721 0.0778328 -6.49106e-10)
(1.04113 0.0785855 -2.09931e-10)
(1.0082 0.0664113 8.34943e-11)
(0.983548 0.0435641 2.30115e-10)
(0.972312 0.0120466 3.06246e-10)
(0.978538 -0.0244785 3.9838e-10)
(1.00259 -0.0589566 5.53646e-10)