/*--------------------------------*- C++ -*----------------------------------*\
  =========                 |
  \\      /  F ield         | OpenFOAM: The Open Source CFD Toolbox
   \\    /   O peration     | Website:  https://openfoam.org
    \\  /    A nd           | Version:  11
     \\/     M anipulation  |
\*---------------------------------------------------------------------------*/
FoamFile
{
    format      ascii;
    class       surfaceScalarField;
    location    "0.576067";
    object      phi_0;
}
// * * * * * * * * * * * * * * * * * * * * * * * * * * * * * * * * * * * * * //

dimensions      [0 3 -1 0 0 0 0];

internalField   nonuniform List<scalar> 
14638
(
0.00250238
-2.38385e-06
0.00250949
-7.11082e-06
0.00252146
-1.19626e-05
0.00253841
-1.69482e-05
0.00256033
-2.19213e-05
0.00258684
-2.65141e-05
0.00261705
-3.0214e-05
0.00264947
-3.24134e-05
0.00268183
-3.23592e-05
0.00271118
-2.93521e-05
0.00273371
-2.25328e-05
0.00274653
-1.28216e-05
0.00274774
-1.2041e-06
0.00273729
1.04449e-05
0.00271739
1.99033e-05
0.00269137
2.60216e-05
0.00266273
2.86406e-05
0.00263436
2.83695e-05
0.00260819
2.6168e-05
0.00258526
2.29306e-05
0.00256594
1.93203e-05
0.00255018
1.57622e-05
0.00253767
1.25058e-05
0.00252799
9.68389e-06
0.00252064
7.34725e-06
0.00251515
5.48671e-06
0.0025111
4.05253e-06
0.00250813
2.97397e-06
0.00250595
2.17613e-06
0.00250436
1.59128e-06
0.0025032
1.16406e-06
0.00250234
8.52113e-07
0.00250172
6.24152e-07
0.00250126
4.57414e-07
0.00250093
3.35371e-07
0.00250068
2.45991e-07
0.0025005
1.80498e-07
0.00250037
1.32483e-07
0.00250027
9.72667e-08
0.0025002
7.14267e-08
0.00250015
5.24612e-08
0.00250011
3.85379e-08
0.00250008
2.83144e-08
0.00250006
2.08064e-08
0.00250004
1.52919e-08
0.00250003
1.12413e-08
0.00250002
8.26567e-09
0.00250002
6.07956e-09
0.00250001
4.47336e-09
0.00250001
3.29316e-09
0.00250001
2.42591e-09
0.00250001
1.78858e-09
0.0025
1.32015e-09
0.0025
9.75833e-10
0.0025
7.22696e-10
0.0025
5.3657e-10
0.0025
3.99667e-10
0.0025
2.9895e-10
0.0025
2.24808e-10
0.0025
1.70211e-10
0.0025
1.29963e-10
0.0025
1.00275e-10
0.0025
7.83347e-11
0.0025
6.21025e-11
0.0025
5.00542e-11
0.0025
4.10938e-11
0.0025
3.43929e-11
0.0025
2.93648e-11
0.0025
2.55579e-11
0.0025
2.26598e-11
0.0025
2.0423e-11
0.0025
1.86823e-11
0.0025
1.73011e-11
0.0025
1.61925e-11
0.0025
1.52809e-11
0.0025
1.4521e-11
0.0025
1.38708e-11
0.0025
1.33068e-11
0.0025
1.28056e-11
0.0025
1.23549e-11
0.0025
1.19421e-11
0.0025
1.156e-11
0.0025
1.12027e-11
0.0025
1.08649e-11
0.0025
1.0545e-11
0.0025
1.02383e-11
0.0025
9.94582e-12
0.0025
9.66262e-12
0.0025
9.39191e-12
0.0025
9.12787e-12
0.0025
8.87541e-12
0.0025
8.62774e-12
0.0025
8.39118e-12
0.0025
8.15796e-12
0.0025
7.93565e-12
0.0025
7.71549e-12
0.0025
7.5061e-12
0.0025
7.29785e-12
0.0025
7.1003e-12
0.0025
6.90301e-12
0.0025
6.71635e-12
0.0025
6.52916e-12
0.0025
6.35255e-12
0.0025
6.1747e-12
0.0025
6.00737e-12
0.0025
5.83819e-12
0.0025
5.67944e-12
0.0025
5.51829e-12
0.0025
5.3675e-12
0.0025
5.21381e-12
0.0025
5.0704e-12
0.0025
4.92368e-12
0.0025
4.78712e-12
0.0025
4.64691e-12
0.0025
4.51676e-12
0.0025
4.38265e-12
0.0025
4.25849e-12
0.0025
4.13011e-12
0.0025
4.01155e-12
0.0025
3.88855e-12
0.0025
3.77527e-12
0.0025
3.65735e-12
0.0025
3.549e-12
0.0025
3.43588e-12
0.0025
3.33221e-12
0.0025
3.22364e-12
0.0025
3.12436e-12
0.0025
3.0201e-12
0.0025
2.92499e-12
0.0025
2.82481e-12
0.0025
2.73365e-12
0.0025
2.63735e-12
0.0025
2.54993e-12
0.0025
2.45732e-12
0.0025
2.37345e-12
0.0025
2.28434e-12
0.0025
2.20386e-12
0.0025
2.1181e-12
0.0025
2.04083e-12
0.0025
1.95827e-12
0.0025
1.88408e-12
0.0025
1.80459e-12
0.0025
1.73335e-12
0.0025
1.65681e-12
0.0025
1.58843e-12
0.0025
1.51473e-12
0.0025
1.44913e-12
0.0025
1.37821e-12
0.0025
1.31533e-12
0.0025
1.2471e-12
0.0025
1.18691e-12
0.0025
1.12117e-12
0.0025
1.06371e-12
0.0025
1.00019e-12
0.0025
9.47225e-13
0.0025
8.84014e-13
0.0025
8.46737e-13
0.0025
7.62135e-13
0.0025
8.12044e-13
5.90397e-13
0.00250237
-4.75253e-06
0.00250944
-1.41831e-05
0.00252136
-2.38832e-05
0.0025383
-3.38905e-05
0.00256031
-4.39258e-05
0.00258706
-5.32635e-05
0.00261772
-6.08729e-05
0.00265079
-6.54861e-05
0.00268395
-6.55238e-05
0.00271407
-5.94717e-05
0.00273707
-4.55267e-05
0.00274997
-2.57232e-05
0.00275084
-2.07656e-06
0.00273973
2.15539e-05
0.00271903
4.06036e-05
0.00269225
5.28008e-05
0.002663
5.78926e-05
0.00263421
5.71654e-05
0.00260778
5.25897e-05
0.00258473
4.59799e-05
0.00256539
3.86664e-05
0.00254966
3.14933e-05
0.00253721
2.49497e-05
0.0025276
1.92928e-05
0.00252033
1.46182e-05
0.00251492
1.09036e-05
0.00251092
8.04594e-06
0.002508
5.90092e-06
0.00250586
4.3166e-06
0.00250429
3.15635e-06
0.00250315
2.30919e-06
0.00250231
1.69062e-06
0.00250169
1.2385e-06
0.00250124
9.07744e-07
0.00250091
6.65603e-07
0.00250067
4.88245e-07
0.00250049
3.58273e-07
0.00250036
2.62978e-07
0.00250027
1.93078e-07
0.0025002
1.41787e-07
0.00250014
1.04138e-07
0.00250011
7.64983e-08
0.00250008
5.6202e-08
0.00250006
4.12963e-08
0.00250004
3.03481e-08
0.00250003
2.2306e-08
0.00250002
1.63981e-08
0.00250002
1.20577e-08
0.00250001
8.8687e-09
0.00250001
6.52554e-09
0.00250001
4.80374e-09
0.00250001
3.53846e-09
0.0025
2.60856e-09
0.0025
1.92509e-09
0.0025
1.42267e-09
0.0025
1.0533e-09
0.0025
7.81685e-10
0.0025
5.81912e-10
0.0025
4.34917e-10
0.0025
3.26724e-10
0.0025
2.47031e-10
0.0025
1.883e-10
0.0025
1.44961e-10
0.0025
1.1295e-10
0.0025
8.92525e-11
0.0025
7.16813e-11
0.0025
5.86021e-11
0.0025
4.88391e-11
0.0025
4.15049e-11
0.0025
3.59696e-11
0.0025
3.17496e-11
0.0025
2.85088e-11
0.0025
2.59823e-11
0.0025
2.39918e-11
0.0025
2.23915e-11
0.0025
2.10874e-11
0.0025
1.9999e-11
0.0025
1.90769e-11
0.0025
1.82765e-11
0.0025
1.75717e-11
0.0025
1.69383e-11
0.0025
1.63618e-11
0.0025
1.58297e-11
0.0025
1.5333e-11
0.0025
1.48663e-11
0.0025
1.44229e-11
0.0025
1.4002e-11
0.0025
1.3597e-11
0.0025
1.32105e-11
0.0025
1.28354e-11
0.0025
1.24768e-11
0.0025
1.21264e-11
0.0025
1.17913e-11
0.0025
1.14623e-11
0.0025
1.1148e-11
0.0025
1.08378e-11
0.0025
1.05422e-11
0.0025
1.02492e-11
0.0025
9.9705e-12
0.0025
9.69311e-12
0.0025
9.43002e-12
0.0025
9.16696e-12
0.0025
8.91817e-12
0.0025
8.66831e-12
0.0025
8.43271e-12
0.0025
8.19504e-12
0.0025
7.97165e-12
0.0025
7.74527e-12
0.0025
7.5332e-12
0.0025
7.3173e-12
0.0025
7.11573e-12
0.0025
6.90959e-12
0.0025
6.71779e-12
0.0025
6.52075e-12
0.0025
6.33808e-12
0.0025
6.14955e-12
0.0025
5.97541e-12
0.0025
5.79487e-12
0.0025
5.62872e-12
0.0025
5.45569e-12
0.0025
5.29705e-12
0.0025
5.13108e-12
0.0025
4.97951e-12
0.0025
4.82022e-12
0.0025
4.67532e-12
0.0025
4.52234e-12
0.0025
4.38374e-12
0.0025
4.23674e-12
0.0025
4.1041e-12
0.0025
3.96278e-12
0.0025
3.8358e-12
0.0025
3.69987e-12
0.0025
3.57824e-12
0.0025
3.44745e-12
0.0025
3.33093e-12
0.0025
3.20504e-12
0.0025
3.09339e-12
0.0025
2.97218e-12
0.0025
2.86518e-12
0.0025
2.74848e-12
0.0025
2.64596e-12
0.0025
2.53361e-12
0.0025
2.43543e-12
0.0025
2.32729e-12
0.0025
2.23331e-12
0.0025
2.12931e-12
0.0025
2.03948e-12
0.0025
1.93955e-12
0.0025
1.85387e-12
0.0025
1.75801e-12
0.0025
1.67658e-12
0.0025
1.58471e-12
0.0025
1.50804e-12
0.0025
1.41983e-12
0.0025
1.35063e-12
0.0025
1.26276e-12
0.0025
1.21584e-12
0.0025
1.101e-12
0.0025
1.15966e-12
8.89495e-13
0.00250234
-7.08983e-06
0.00250932
-2.11704e-05
0.00252115
-3.57101e-05
0.00253807
-5.0805e-05
0.00256022
-6.60765e-05
0.00258742
-8.04628e-05
0.00261895
-9.24115e-05
0.00265336
-9.98906e-05
0.00268818
-0.000100346
0.00271989
-9.11802e-05
0.00274382
-6.94596e-05
0.00275684
-3.87447e-05
0.00275695
-2.18263e-06
0.00274437
3.41358e-05
0.00272193
6.30398e-05
0.00269353
8.12037e-05
0.00266299
8.84321e-05
0.00263332
8.68376e-05
0.0026064
7.95099e-05
0.00258314
6.92331e-05
0.0025638
5.8014e-05
0.00254819
4.71019e-05
0.00253593
3.72053e-05
0.00252654
2.8688e-05
0.00251948
2.16779e-05
0.00251425
1.61291e-05
0.00251042
1.18776e-05
0.00250762
8.69848e-06
0.00250558
6.35785e-06
0.00250409
4.64751e-06
0.002503
3.40014e-06
0.0025022
2.48966e-06
0.00250161
1.82414e-06
0.00250118
1.33715e-06
0.00250087
9.80576e-07
0.00250064
7.19357e-07
0.00250047
5.27905e-07
0.00250034
3.87517e-07
0.00250025
2.84529e-07
0.00250019
2.0895e-07
0.00250014
1.5347e-07
0.0025001
1.12736e-07
0.00250007
8.28238e-08
0.00250005
6.0855e-08
0.00250004
4.47185e-08
0.00250003
3.28649e-08
0.00250002
2.41569e-08
0.00250002
1.77593e-08
0.00250001
1.30588e-08
0.00250001
9.60504e-09
0.00250001
7.0672e-09
0.0025
5.20227e-09
0.0025
3.83173e-09
0.0025
2.82445e-09
0.0025
2.08406e-09
0.0025
1.5398e-09
0.0025
1.13963e-09
0.0025
8.45372e-10
0.0025
6.28918e-10
0.0025
4.69659e-10
0.0025
3.52418e-10
0.0025
2.66074e-10
0.0025
2.02426e-10
0.0025
1.55473e-10
0.0025
1.20781e-10
0.0025
9.51152e-11
0.0025
7.60753e-11
0.0025
6.19198e-11
0.0025
5.13473e-11
0.0025
4.34219e-11
0.0025
3.74367e-11
0.0025
3.28898e-11
0.0025
2.9396e-11
0.0025
2.66869e-11
0.0025
2.45522e-11
0.0025
2.28484e-11
0.0025
2.14607e-11
0.0025
2.03124e-11
0.0025
1.93409e-11
0.0025
1.85048e-11
0.0025
1.77704e-11
0.0025
1.71146e-11
0.0025
1.65202e-11
0.0025
1.5973e-11
0.0025
1.54656e-11
0.0025
1.49878e-11
0.0025
1.45383e-11
0.0025
1.41082e-11
0.0025
1.37003e-11
0.0025
1.33057e-11
0.0025
1.29298e-11
0.0025
1.25633e-11
0.0025
1.22138e-11
0.0025
1.18708e-11
0.0025
1.15439e-11
0.0025
1.12214e-11
0.0025
1.09144e-11
0.0025
1.061e-11
0.0025
1.0321e-11
0.0025
1.00331e-11
0.0025
9.76034e-12
0.0025
9.48755e-12
0.0025
9.22973e-12
0.0025
8.97075e-12
0.0025
8.72669e-12
0.0025
8.48045e-12
0.0025
8.24909e-12
0.0025
8.01464e-12
0.0025
7.79503e-12
0.0025
7.5715e-12
0.0025
7.36278e-12
0.0025
7.14939e-12
0.0025
6.95081e-12
0.0025
6.74688e-12
0.0025
6.55777e-12
0.0025
6.3627e-12
0.0025
6.18243e-12
0.0025
5.99566e-12
0.0025
5.82368e-12
0.0025
5.64471e-12
0.0025
5.48051e-12
0.0025
5.30888e-12
0.0025
5.152e-12
0.0025
4.98731e-12
0.0025
4.83735e-12
0.0025
4.67921e-12
0.0025
4.53578e-12
0.0025
4.38386e-12
0.0025
4.24663e-12
0.0025
4.10062e-12
0.0025
3.96926e-12
0.0025
3.82887e-12
0.0025
3.70309e-12
0.0025
3.56807e-12
0.0025
3.44763e-12
0.0025
3.31774e-12
0.0025
3.2024e-12
0.0025
3.07745e-12
0.0025
2.96702e-12
0.0025
2.84684e-12
0.0025
2.74118e-12
0.0025
2.62566e-12
0.0025
2.52465e-12
0.0025
2.41371e-12
0.0025
2.3173e-12
0.0025
2.21093e-12
0.0025
2.11914e-12
0.0025
2.01736e-12
0.0025
1.93033e-12
0.0025
1.83328e-12
0.0025
1.75132e-12
0.0025
1.65909e-12
0.0025
1.58309e-12
0.0025
1.49547e-12
0.0025
1.42874e-12
0.0025
1.34236e-12
0.0025
1.29935e-12
0.0025
1.19126e-12
0.0025
1.23483e-12
1.00606e-12
0.00250229
-9.3757e-06
0.00250913
-2.8017e-05
0.0025208
-4.73737e-05
0.00253764
-6.76461e-05
0.00255997
-8.84098e-05
0.00258781
-0.000108307
0.00262067
-0.000125267
0.00265712
-0.000136339
0.00269454
-0.00013777
0.00272877
-0.000125409
0.0027542
-9.48845e-05
0.00276743
-5.19773e-05
0.00276633
-1.08583e-06
0.00275141
4.90578e-05
0.00272622
8.82284e-05
0.00269526
0.000112163
0.00266272
0.000120979
0.00263169
0.000117861
0.00260402
0.000107187
0.00258047
9.2783e-05
0.00256114
7.73405e-05
0.00254575
6.24915e-05
0.00253382
4.91354e-05
0.00252479
3.77178e-05
0.00251809
2.83794e-05
0.00251318
2.10344e-05
0.00250962
1.54426e-05
0.00250703
1.1286e-05
0.00250515
8.24021e-06
0.00250377
6.02148e-06
0.00250277
4.40567e-06
0.00250203
3.2266e-06
0.00250149
2.36454e-06
0.00250109
1.73354e-06
0.0025008
1.2714e-06
0.00250059
9.32795e-07
0.00250043
6.84596e-07
0.00250032
5.02576e-07
0.00250023
3.69031e-07
0.00250017
2.71017e-07
0.00250013
1.99063e-07
0.00250009
1.4623e-07
0.00250007
1.07431e-07
0.00250005
7.89336e-08
0.00250004
5.80014e-08
0.00250003
4.26246e-08
0.00250002
3.1328e-08
0.00250001
2.30285e-08
0.00250001
1.69306e-08
0.00250001
1.24501e-08
0.00250001
9.15776e-09
0.0025
6.73844e-09
0.0025
4.96051e-09
0.0025
3.65385e-09
0.0025
2.69346e-09
0.0025
1.98751e-09
0.0025
1.46851e-09
0.0025
1.08691e-09
0.0025
8.06265e-10
0.0025
5.99821e-10
0.0025
4.47897e-10
0.0025
3.36057e-10
0.0025
2.53665e-10
0.0025
1.92933e-10
0.0025
1.48111e-10
0.0025
1.14999e-10
0.0025
9.04857e-11
0.0025
7.23071e-11
0.0025
5.8779e-11
0.0025
4.86824e-11
0.0025
4.11037e-11
0.0025
3.53875e-11
0.0025
3.10375e-11
0.0025
2.77018e-11
0.0025
2.51101e-11
0.0025
2.30738e-11
0.0025
2.14456e-11
0.0025
2.0124e-11
0.0025
1.90293e-11
0.0025
1.81062e-11
0.0025
1.73122e-11
0.0025
1.66161e-11
0.0025
1.59964e-11
0.0025
1.54342e-11
0.0025
1.49199e-11
0.0025
1.44407e-11
0.0025
1.3994e-11
0.0025
1.35696e-11
0.0025
1.31695e-11
0.0025
1.27841e-11
0.0025
1.24185e-11
0.0025
1.20627e-11
0.0025
1.17245e-11
0.0025
1.13929e-11
0.0025
1.10775e-11
0.0025
1.07664e-11
0.0025
1.04709e-11
0.0025
1.01779e-11
0.0025
9.89998e-12
0.0025
9.62316e-12
0.0025
9.36122e-12
0.0025
9.09907e-12
0.0025
8.85162e-12
0.0025
8.60286e-12
0.0025
8.36872e-12
0.0025
8.13225e-12
0.0025
7.91036e-12
0.0025
7.68525e-12
0.0025
7.47469e-12
0.0025
7.26011e-12
0.0025
7.06004e-12
0.0025
6.85523e-12
0.0025
6.66492e-12
0.0025
6.46922e-12
0.0025
6.288e-12
0.0025
6.10082e-12
0.0025
5.9281e-12
0.0025
5.74888e-12
0.0025
5.58412e-12
0.0025
5.41241e-12
0.0025
5.25512e-12
0.0025
5.09046e-12
0.0025
4.94023e-12
0.0025
4.78224e-12
0.0025
4.63864e-12
0.0025
4.48696e-12
0.0025
4.34965e-12
0.0025
4.20396e-12
0.0025
4.07261e-12
0.0025
3.93262e-12
0.0025
3.80694e-12
0.0025
3.67237e-12
0.0025
3.55209e-12
0.0025
3.42272e-12
0.0025
3.30762e-12
0.0025
3.18325e-12
0.0025
3.07312e-12
0.0025
2.95358e-12
0.0025
2.84828e-12
0.0025
2.73346e-12
0.0025
2.63289e-12
0.0025
2.52273e-12
0.0025
2.42683e-12
0.0025
2.3213e-12
0.0025
2.23011e-12
0.0025
2.12928e-12
0.0025
2.0429e-12
0.0025
1.94694e-12
0.0025
1.86566e-12
0.0025
1.77485e-12
0.0025
1.69923e-12
0.0025
1.61388e-12
0.0025
1.5451e-12
0.0025
1.4652e-12
0.0025
1.40687e-12
0.0025
1.32962e-12
0.0025
1.29439e-12
0.0025
1.2031e-12
0.0025
1.23274e-12
1.06139e-12
0.00250221
-1.15847e-05
0.00250884
-3.46515e-05
0.00252025
-5.87765e-05
0.00253693
-8.43288e-05
0.00255943
-0.000110915
0.00258808
-0.00013695
0.00262268
-0.000159867
0.00266193
-0.000175594
0.00270304
-0.000178879
0.00274088
-0.000163251
0.00276843
-0.000122431
0.00278196
-6.55093e-05
0.00277915
1.72694e-06
0.00276089
6.73162e-05
0.00273184
0.000117281
0.00269735
0.000146648
0.00266209
0.000156239
0.00262929
0.000150661
0.00260066
0.000135817
0.00257678
0.000116665
0.00255754
9.6585e-05
0.00254247
7.75528e-05
0.002531
6.06114e-05
0.00252246
4.62519e-05
0.00251624
3.46009e-05
0.00251176
2.55128e-05
0.00250855
1.86527e-05
0.00250625
1.35942e-05
0.00250457
9.91156e-06
0.00250336
7.24004e-06
0.00250246
5.29807e-06
0.00250181
3.88137e-06
0.00250133
2.84513e-06
0.00250098
2.08628e-06
0.00250072
1.53033e-06
0.00250053
1.12292e-06
0.00250039
8.24233e-07
0.00250028
6.0515e-07
0.00250021
4.44386e-07
0.00250015
3.26379e-07
0.00250011
2.39737e-07
0.00250008
1.76114e-07
0.00250006
1.29388e-07
0.00250004
9.50667e-08
0.00250003
6.98555e-08
0.00250002
5.13347e-08
0.00250002
3.77281e-08
0.00250001
2.77312e-08
0.00250001
2.03861e-08
0.00250001
1.49891e-08
0.00250001
1.10234e-08
0.0025
8.10923e-09
0.0025
5.96765e-09
0.0025
4.39376e-09
0.0025
3.23697e-09
0.0025
2.38668e-09
0.0025
1.76161e-09
0.0025
1.30204e-09
0.0025
9.64092e-10
0.0025
7.15527e-10
0.0025
5.32642e-10
0.0025
3.98043e-10
0.0025
2.98924e-10
0.0025
2.25896e-10
0.0025
1.72037e-10
0.0025
1.32283e-10
0.0025
1.02891e-10
0.0025
8.11283e-11
0.0025
6.49696e-11
0.0025
5.2943e-11
0.0025
4.39504e-11
0.0025
3.71994e-11
0.0025
3.20941e-11
0.0025
2.82083e-11
0.0025
2.5218e-11
0.0025
2.28941e-11
0.0025
2.10605e-11
0.0025
1.95935e-11
0.0025
1.8398e-11
0.0025
1.74064e-11
0.0025
1.65679e-11
0.0025
1.58449e-11
0.0025
1.5211e-11
0.0025
1.46439e-11
0.0025
1.41315e-11
0.0025
1.36589e-11
0.0025
1.32225e-11
0.0025
1.28107e-11
0.0025
1.24249e-11
0.0025
1.20549e-11
0.0025
1.17054e-11
0.0025
1.13664e-11
0.0025
1.1045e-11
0.0025
1.07304e-11
0.0025
1.04317e-11
0.0025
1.01374e-11
0.0025
9.85816e-12
0.0025
9.58142e-12
0.0025
9.31916e-12
0.0025
9.05796e-12
0.0025
8.81093e-12
0.0025
8.56375e-12
0.0025
8.33055e-12
0.0025
8.09613e-12
0.0025
7.87557e-12
0.0025
7.65284e-12
0.0025
7.4439e-12
0.0025
7.23195e-12
0.0025
7.03371e-12
0.0025
6.83172e-12
0.0025
6.64338e-12
0.0025
6.45062e-12
0.0025
6.27148e-12
0.0025
6.08732e-12
0.0025
5.91675e-12
0.0025
5.74064e-12
0.0025
5.57809e-12
0.0025
5.40952e-12
0.0025
5.25447e-12
0.0025
5.09298e-12
0.0025
4.94497e-12
0.0025
4.79013e-12
0.0025
4.64877e-12
0.0025
4.50023e-12
0.0025
4.36512e-12
0.0025
4.22254e-12
0.0025
4.09337e-12
0.0025
3.95645e-12
0.0025
3.83291e-12
0.0025
3.7014e-12
0.0025
3.58322e-12
0.0025
3.45686e-12
0.0025
3.34381e-12
0.0025
3.22241e-12
0.0025
3.11428e-12
0.0025
2.99766e-12
0.0025
2.8943e-12
0.0025
2.78233e-12
0.0025
2.68364e-12
0.0025
2.57625e-12
0.0025
2.48216e-12
0.0025
2.37936e-12
0.0025
2.28991e-12
0.0025
2.19174e-12
0.0025
2.10702e-12
0.0025
2.01364e-12
0.0025
1.93388e-12
0.0025
1.84559e-12
0.0025
1.77123e-12
0.0025
1.68845e-12
0.0025
1.62024e-12
0.0025
1.5435e-12
0.0025
1.48287e-12
0.0025
1.41239e-12
0.0025
1.36306e-12
0.0025
1.29694e-12
0.0025
1.26957e-12
0.0025
1.19664e-12
0.0025
1.21752e-12
1.0976e-12
0.0025021
-1.36847e-05
0.00250843
-4.09815e-05
0.00251944
-6.97836e-05
0.00253582
-0.000100713
0.00255842
-0.000133512
0.00258795
-0.000166484
0.0026247
-0.000196617
0.0026676
-0.000218489
0.00271369
-0.000224974
0.00275651
-0.000206065
0.00278698
-0.000152907
0.00280102
-7.95426e-05
0.00279591
6.83008e-06
0.0027731
9.01249e-05
0.00273883
0.000151559
0.00269967
0.000185806
0.00266091
0.000194999
0.00262589
0.000185683
0.00259612
0.000165586
0.00257189
0.000140895
0.00255281
0.000115661
0.00253822
9.2141e-05
0.00252737
7.14614e-05
0.00251951
5.41147e-05
0.00251393
4.01825e-05
0.00251001
2.94318e-05
0.00250726
2.14074e-05
0.0025053
1.55519e-05
0.00250389
1.13235e-05
0.00250286
8.27065e-06
0.0025021
6.05501e-06
0.00250154
4.43811e-06
0.00250113
3.25436e-06
0.00250083
2.38685e-06
0.00250061
1.75106e-06
0.00250045
1.28506e-06
0.00250033
9.43372e-07
0.00250024
6.92702e-07
0.00250018
5.08726e-07
0.00250013
3.73659e-07
0.0025001
2.74481e-07
0.00250007
2.01645e-07
0.00250005
1.48148e-07
0.00250004
1.08853e-07
0.00250003
7.99857e-08
0.00250002
5.87787e-08
0.00250002
4.31981e-08
0.00250001
3.17507e-08
0.00250001
2.33397e-08
0.00250001
1.71594e-08
0.0025
1.26181e-08
0.0025
9.2809e-09
0.0025
6.82847e-09
0.0025
5.02612e-09
0.0025
3.70144e-09
0.0025
2.72776e-09
0.0025
2.012e-09
0.0025
1.48577e-09
0.0025
1.09882e-09
0.0025
8.14243e-10
0.0025
6.04885e-10
0.0025
4.50825e-10
0.0025
3.37401e-10
0.0025
2.53858e-10
0.0025
1.92272e-10
0.0025
1.46839e-10
0.0025
1.13275e-10
0.0025
8.84489e-11
0.0025
7.00427e-11
0.0025
5.63677e-11
0.0025
4.61687e-11
0.0025
3.85356e-11
0.0025
3.27876e-11
0.0025
2.84347e-11
0.0025
2.51073e-11
0.0025
2.25412e-11
0.0025
2.05358e-11
0.0025
1.89486e-11
0.0025
1.76709e-11
0.0025
1.6625e-11
0.0025
1.57527e-11
0.0025
1.50108e-11
0.0025
1.4369e-11
0.0025
1.38021e-11
0.0025
1.32955e-11
0.0025
1.28331e-11
0.0025
1.24095e-11
0.0025
1.20128e-11
0.0025
1.16433e-11
0.0025
1.12906e-11
0.0025
1.09587e-11
0.0025
1.06377e-11
0.0025
1.0334e-11
0.0025
1.00375e-11
0.0025
9.75625e-12
0.0025
9.47965e-12
0.0025
9.21731e-12
0.0025
8.95773e-12
0.0025
8.71177e-12
0.0025
8.46712e-12
0.0025
8.23572e-12
0.0025
8.00441e-12
0.0025
7.7861e-12
0.0025
7.56685e-12
0.0025
7.36045e-12
0.0025
7.15221e-12
0.0025
6.95671e-12
0.0025
6.7586e-12
0.0025
6.57316e-12
0.0025
6.38441e-12
0.0025
6.20826e-12
0.0025
6.0282e-12
0.0025
5.86068e-12
0.0025
5.68868e-12
0.0025
5.52919e-12
0.0025
5.36473e-12
0.0025
5.21273e-12
0.0025
5.05532e-12
0.0025
4.91034e-12
0.0025
4.75957e-12
0.0025
4.62119e-12
0.0025
4.47665e-12
0.0025
4.34449e-12
0.0025
4.20586e-12
0.0025
4.07956e-12
0.0025
3.94652e-12
0.0025
3.82578e-12
0.0025
3.69807e-12
0.0025
3.58262e-12
0.0025
3.45997e-12
0.0025
3.34956e-12
0.0025
3.23178e-12
0.0025
3.12623e-12
0.0025
3.01314e-12
0.0025
2.91225e-12
0.0025
2.80371e-12
0.0025
2.70738e-12
0.0025
2.60331e-12
0.0025
2.51147e-12
0.0025
2.41184e-12
0.0025
2.32448e-12
0.0025
2.22933e-12
0.0025
2.14654e-12
0.0025
2.05601e-12
0.0025
1.97797e-12
0.0025
1.89228e-12
0.0025
1.81932e-12
0.0025
1.73891e-12
0.0025
1.67162e-12
0.0025
1.59708e-12
0.0025
1.53639e-12
0.0025
1.46842e-12
0.0025
1.41597e-12
0.0025
1.35511e-12
0.0025
1.31462e-12
0.0025
1.25982e-12
0.0025
1.2403e-12
0.0025
1.18486e-12
0.0025
1.20263e-12
1.12589e-12
0.00250195
-1.5635e-05
0.00250786
-4.68887e-05
0.00251829
-8.02126e-05
0.00253416
-0.000116587
0.00255667
-0.000156027
0.00258709
-0.000196903
0.00262635
-0.000235873
0.00267379
-0.000265931
0.00272647
-0.000277648
0.00277595
-0.000255546
0.00281029
-0.000187253
0.00282501
-9.42587e-05
0.00281688
1.49597e-05
0.00278806
0.000118944
0.00274702
0.000192603
0.00270195
0.000230868
0.00265891
0.000238043
0.0026213
0.000223297
0.00259031
0.00019657
0.00256582
0.000165384
0.00254707
0.000134409
0.00253313
0.000106082
0.00252307
8.15208e-05
0.00251603
6.11588e-05
0.00251122
4.49961e-05
0.00250796
3.26852e-05
0.00250575
2.36232e-05
0.0025042
1.70973e-05
0.00250309
1.24324e-05
0.00250228
9.08312e-06
0.00250168
6.65551e-06
0.00250124
4.88196e-06
0.00250091
3.58146e-06
0.00250067
2.6274e-06
0.00250049
1.92787e-06
0.00250036
1.41507e-06
0.00250027
1.039e-06
0.0025002
7.63035e-07
0.00250014
5.60447e-07
0.00250011
4.11684e-07
0.00250008
3.02433e-07
0.00250006
2.2219e-07
0.00250004
1.63249e-07
0.00250003
1.19951e-07
0.00250002
8.8142e-08
0.00250002
6.47727e-08
0.00250001
4.7603e-08
0.00250001
3.49877e-08
0.00250001
2.57184e-08
0.0025
1.89073e-08
0.0025
1.39024e-08
0.0025
1.02246e-08
0.0025
7.52176e-09
0.0025
5.5354e-09
0.0025
4.07547e-09
0.0025
3.00238e-09
0.0025
2.21354e-09
0.0025
1.6336e-09
0.0025
1.20717e-09
0.0025
8.93565e-10
0.0025
6.6287e-10
0.0025
4.93125e-10
0.0025
3.6817e-10
0.0025
2.7615e-10
0.0025
2.08335e-10
0.0025
1.58325e-10
0.0025
1.214e-10
0.0025
9.41055e-11
0.0025
7.38893e-11
0.0025
5.8888e-11
0.0025
4.77192e-11
0.0025
3.93782e-11
0.0025
3.31158e-11
0.0025
2.83902e-11
0.0025
2.4795e-11
0.0025
2.2038e-11
0.0025
1.98987e-11
0.0025
1.82191e-11
0.0025
1.68797e-11
0.0025
1.57947e-11
0.0025
1.48998e-11
0.0025
1.41474e-11
0.0025
1.35038e-11
0.0025
1.29415e-11
0.0025
1.2444e-11
0.0025
1.19941e-11
0.0025
1.1585e-11
0.0025
1.12047e-11
0.0025
1.08522e-11
0.0025
1.05177e-11
0.0025
1.02039e-11
0.0025
9.90161e-12
0.0025
9.61615e-12
0.0025
9.33826e-12
0.0025
9.07495e-12
0.0025
8.81654e-12
0.0025
8.57144e-12
0.0025
8.32936e-12
0.0025
8.09987e-12
0.0025
7.87196e-12
0.0025
7.65621e-12
0.0025
7.44091e-12
0.0025
7.23749e-12
0.0025
7.03357e-12
0.0025
6.84135e-12
0.0025
6.64781e-12
0.0025
6.4658e-12
0.0025
6.28175e-12
0.0025
6.10914e-12
0.0025
5.93384e-12
0.0025
5.76989e-12
0.0025
5.60268e-12
0.0025
5.44676e-12
0.0025
5.28708e-12
0.0025
5.13864e-12
0.0025
4.986e-12
0.0025
4.84455e-12
0.0025
4.69849e-12
0.0025
4.56357e-12
0.0025
4.42371e-12
0.0025
4.29493e-12
0.0025
4.16088e-12
0.0025
4.03788e-12
0.0025
3.90932e-12
0.0025
3.79179e-12
0.0025
3.66846e-12
0.0025
3.55611e-12
0.0025
3.43776e-12
0.0025
3.33036e-12
0.0025
3.21676e-12
0.0025
3.11408e-12
0.0025
3.00505e-12
0.0025
2.90692e-12
0.0025
2.80232e-12
0.0025
2.7086e-12
0.0025
2.6083e-12
0.0025
2.51891e-12
0.0025
2.42289e-12
0.0025
2.3378e-12
0.0025
2.24605e-12
0.0025
2.1653e-12
0.0025
2.07794e-12
0.0025
2.0017e-12
0.0025
1.91892e-12
0.0025
1.84744e-12
0.0025
1.76959e-12
0.0025
1.7033e-12
0.0025
1.6309e-12
0.0025
1.57053e-12
0.0025
1.50433e-12
0.0025
1.45099e-12
0.0025
1.39189e-12
0.0025
1.34737e-12
0.0025
1.29616e-12
0.0025
1.26418e-12
0.0025
1.22068e-12
0.0025
1.20893e-12
0.0025
1.16983e-12
0.0025
1.18811e-12
1.14778e-12
0.00250175
-1.73854e-05
0.00250709
-5.22256e-05
0.0025167
-8.98244e-05
0.00253176
-0.000131646
0.00255389
-0.000178157
0.00258505
-0.000228067
0.00262708
-0.000277901
0.00268007
-0.000318917
0.00274134
-0.000338922
0.0027997
-0.00031391
0.00283921
-0.00022676
0.00285504
-0.00011009
0.00284301
2.69949e-05
0.00280619
0.000155764
0.00275631
0.00024248
0.00270382
0.00028336
0.00265563
0.000286232
0.00261508
0.000263849
0.00258284
0.000228806
0.00255822
0.000190006
0.00254
0.000152627
0.00252694
0.00011914
0.00251792
9.05461e-05
0.00251192
6.71537e-05
0.00250808
4.88442e-05
0.00250564
3.51211e-05
0.00250407
2.51962e-05
0.002503
1.81665e-05
0.00250223
1.32018e-05
0.00250165
9.6567e-06
0.00250122
7.08671e-06
0.0025009
5.20386e-06
0.00250066
3.81955e-06
0.00250049
2.8026e-06
0.00250036
2.05671e-06
0.00250026
1.5099e-06
0.00250019
1.10884e-06
0.00250014
8.14469e-07
0.00250011
5.983e-07
0.00250008
4.39529e-07
0.00250006
3.22909e-07
0.00250004
2.37246e-07
0.00250003
1.74318e-07
0.00250002
1.28088e-07
0.00250002
9.41233e-08
0.00250001
6.9169e-08
0.00250001
5.08342e-08
0.00250001
3.73624e-08
0.0025
2.74636e-08
0.0025
2.01898e-08
0.0025
1.48448e-08
0.0025
1.0917e-08
0.0025
8.03044e-09
0.0025
5.90902e-09
0.0025
4.34981e-09
0.0025
3.20374e-09
0.0025
2.36126e-09
0.0025
1.74188e-09
0.0025
1.28645e-09
0.0025
9.51523e-10
0.0025
7.05154e-10
0.0025
5.23884e-10
0.0025
3.90456e-10
0.0025
2.92208e-10
0.0025
2.19816e-10
0.0025
1.66442e-10
0.0025
1.27046e-10
0.0025
9.79393e-11
0.0025
7.63948e-11
0.0025
6.04211e-11
0.0025
4.85428e-11
0.0025
3.96852e-11
0.0025
3.30488e-11
0.0025
2.80539e-11
0.0025
2.42669e-11
0.0025
2.13748e-11
0.0025
1.91426e-11
0.0025
1.74008e-11
0.0025
1.6022e-11
0.0025
1.49143e-11
0.0025
1.40088e-11
0.0025
1.32549e-11
0.0025
1.26161e-11
0.0025
1.20636e-11
0.0025
1.15789e-11
0.0025
1.11445e-11
0.0025
1.07522e-11
0.0025
1.03901e-11
0.0025
1.0056e-11
0.0025
9.74067e-12
0.0025
9.44565e-12
0.0025
9.16262e-12
0.0025
8.89564e-12
0.0025
8.63655e-12
0.0025
8.39114e-12
0.0025
8.15097e-12
0.0025
7.9231e-12
0.0025
7.69864e-12
0.0025
7.48567e-12
0.0025
7.27471e-12
0.0025
7.07474e-12
0.0025
6.87569e-12
0.0025
6.68727e-12
0.0025
6.49887e-12
0.0025
6.32088e-12
0.0025
6.14213e-12
0.0025
5.97362e-12
0.0025
5.8037e-12
0.0025
5.64392e-12
0.0025
5.48213e-12
0.0025
5.33038e-12
0.0025
5.17614e-12
0.0025
5.03185e-12
0.0025
4.88458e-12
0.0025
4.74721e-12
0.0025
4.60647e-12
0.0025
4.47555e-12
0.0025
4.3409e-12
0.0025
4.21601e-12
0.0025
4.08708e-12
0.0025
3.96789e-12
0.0025
3.84437e-12
0.0025
3.73053e-12
0.0025
3.61211e-12
0.0025
3.50333e-12
0.0025
3.38976e-12
0.0025
3.28579e-12
0.0025
3.17683e-12
0.0025
3.07745e-12
0.0025
2.97292e-12
0.0025
2.87795e-12
0.0025
2.77769e-12
0.0025
2.68698e-12
0.0025
2.59087e-12
0.0025
2.50431e-12
0.0025
2.41228e-12
0.0025
2.32983e-12
0.0025
2.24187e-12
0.0025
2.16353e-12
0.0025
2.07968e-12
0.0025
2.00556e-12
0.0025
1.926e-12
0.0025
1.85629e-12
0.0025
1.78127e-12
0.0025
1.71632e-12
0.0025
1.64626e-12
0.0025
1.5866e-12
0.0025
1.52215e-12
0.0025
1.46863e-12
0.0025
1.41068e-12
0.0025
1.36458e-12
0.0025
1.31424e-12
0.0025
1.27752e-12
0.0025
1.23585e-12
0.0025
1.21218e-12
0.0025
1.1797e-12
0.0025
1.17586e-12
0.0025
1.15189e-12
0.0025
1.17369e-12
1.16481e-12
0.00250149
-1.88754e-05
0.00250608
-5.68115e-05
0.00251457
-9.83142e-05
0.0025284
-0.000145476
0.00254967
-0.00019943
0.00258123
-0.000259632
0.00262613
-0.000322799
0.00268572
-0.000378509
0.00275818
-0.000411374
0.00282826
-0.000383995
0.00287438
-0.000272881
0.00289171
-0.000127418
0.00287469
4.40211e-05
0.00282756
0.000202893
0.00276652
0.000303521
0.0027049
0.00034498
0.00265067
0.000340461
0.00260693
0.000307581
0.0025736
0.000262143
0.00254915
0.000214453
0.00253178
0.000169994
0.00251988
0.000131044
0.00251211
9.83196e-05
0.00250733
7.19246e-05
0.00250459
5.15853e-05
0.00250309
3.66287e-05
0.00250224
2.60458e-05
0.0025017
1.87059e-05
0.0025013
1.35988e-05
0.00250098
9.97191e-06
0.00250073
7.33638e-06
0.00250054
5.3953e-06
0.0025004
3.96228e-06
0.0025003
2.90771e-06
0.00250022
2.13409e-06
0.00250016
1.56705e-06
0.00250012
1.15111e-06
0.00250009
8.45708e-07
0.00250006
6.21344e-07
0.00250005
4.56505e-07
0.00250003
3.35406e-07
0.00250003
2.46442e-07
0.00250002
1.81083e-07
0.00250001
1.33064e-07
0.00250001
9.77827e-08
0.00250001
7.18596e-08
0.00250001
5.28122e-08
0.0025
3.88165e-08
0.0025
2.85324e-08
0.0025
2.09753e-08
0.0025
1.54221e-08
0.0025
1.13411e-08
0.0025
8.34196e-09
0.0025
6.13777e-09
0.0025
4.5177e-09
0.0025
3.32688e-09
0.0025
2.45148e-09
0.0025
1.8079e-09
0.0025
1.33468e-09
0.0025
9.86659e-10
0.0025
7.30662e-10
0.0025
5.4231e-10
0.0025
4.03675e-10
0.0025
3.01598e-10
0.0025
2.26392e-10
0.0025
1.70951e-10
0.0025
1.30039e-10
0.0025
9.98206e-11
0.0025
7.74634e-11
0.0025
6.08963e-11
0.0025
4.85873e-11
0.0025
3.9418e-11
0.0025
3.25587e-11
0.0025
2.74055e-11
0.0025
2.35084e-11
0.0025
2.05416e-11
0.0025
1.82607e-11
0.0025
1.64894e-11
0.0025
1.50953e-11
0.0025
1.39825e-11
0.0025
1.30796e-11
0.0025
1.23337e-11
0.0025
1.17069e-11
0.0025
1.11692e-11
0.0025
1.07011e-11
0.0025
1.02847e-11
0.0025
9.91106e-12
0.0025
9.56839e-12
0.0025
9.25371e-12
0.0025
8.95824e-12
0.0025
8.68265e-12
0.0025
8.41941e-12
0.0025
8.17149e-12
0.0025
7.93174e-12
0.0025
7.70473e-12
0.0025
7.4832e-12
0.0025
7.2729e-12
0.0025
7.06626e-12
0.0025
6.86995e-12
0.0025
6.67599e-12
0.0025
6.4918e-12
0.0025
6.30896e-12
0.0025
6.13553e-12
0.0025
5.96263e-12
0.0025
5.79889e-12
0.0025
5.63498e-12
0.0025
5.48004e-12
0.0025
5.32432e-12
0.0025
5.17743e-12
0.0025
5.02922e-12
0.0025
4.88972e-12
0.0025
4.74844e-12
0.0025
4.61579e-12
0.0025
4.48095e-12
0.0025
4.35466e-12
0.0025
4.22583e-12
0.0025
4.10548e-12
0.0025
3.98228e-12
0.0025
3.86748e-12
0.0025
3.74954e-12
0.0025
3.63996e-12
0.0025
3.527e-12
0.0025
3.42234e-12
0.0025
3.31407e-12
0.0025
3.21406e-12
0.0025
3.11026e-12
0.0025
3.01469e-12
0.0025
2.91515e-12
0.0025
2.82382e-12
0.0025
2.7284e-12
0.0025
2.64115e-12
0.0025
2.5497e-12
0.0025
2.46641e-12
0.0025
2.37883e-12
0.0025
2.29942e-12
0.0025
2.21567e-12
0.0025
2.14014e-12
0.0025
2.06024e-12
0.0025
1.98862e-12
0.0025
1.91268e-12
0.0025
1.84513e-12
0.0025
1.77335e-12
0.0025
1.71013e-12
0.0025
1.64284e-12
0.0025
1.58437e-12
0.0025
1.5221e-12
0.0025
1.46901e-12
0.0025
1.41248e-12
0.0025
1.36573e-12
0.0025
1.31599e-12
0.0025
1.27702e-12
0.0025
1.23536e-12
0.0025
1.20627e-12
0.0025
1.17401e-12
0.0025
1.15847e-12
0.0025
1.13674e-12
0.0025
1.14092e-12
0.0025
1.13096e-12
0.0025
1.15794e-12
1.17666e-12
0.00250116
-2.00348e-05
0.00250478
-6.04336e-05
0.00251178
-0.000105308
0.00252383
-0.000157532
0.00254356
-0.000219162
0.00257491
-0.000290978
0.0026225
-0.000370386
0.00268982
-0.000445834
0.00277684
-0.000498396
0.00286247
-0.000469619
0.00291737
-0.000327783
0.00293713
-0.000147175
0.00291354
6.76112e-05
0.0028525