/*--------------------------------*- C++ -*----------------------------------*\
  =========                 |
  \\      /  F ield         | OpenFOAM: The Open Source CFD Toolbox
   \\    /   O peration     | Website:  https://openfoam.org
    \\  /    A nd           | Version:  11
     \\/     M anipulation  |
\*---------------------------------------------------------------------------*/
FoamFile
{
    format      ascii;
    class       volVectorField;
    location    "0.0980675";
    object      vorticity;
}
// * * * * * * * * * * * * * * * * * * * * * * * * * * * * * * * * * * * * * //

dimensions      [0 0 -1 0 0 0 0];

internalField   nonuniform List<vector> 
7132
(
(-6.7792e-17 -1.99957e-15 -0.0108677)
(-4.27504e-16 -1.96519e-15 -0.0123599)
(-4.83987e-16 2.66394e-18 -0.00795262)
(-4.19199e-16 -1.74676e-15 -0.00232905)
(-5.13188e-16 -1.79003e-15 -5.73044e-05)
(-5.14273e-16 1.0083e-16 -0.000382921)
(-3.30039e-16 2.28545e-16 -0.00117187)
(-5.13236e-17 1.85289e-16 -0.00169191)
(-3.11054e-17 7.67223e-17 -0.00205775)
(-1.8473e-16 5.50836e-18 -0.00239542)
(-1.78784e-16 -1.64679e-17 -0.00268002)
(-9.45074e-17 -1.08808e-17 -0.0028391)
(-1.01677e-16 7.72102e-18 -0.00282351)
(-7.47862e-17 9.27803e-18 -0.00264406)
(-1.90223e-17 -1.7676e-15 -0.00235144)
(-3.24309e-17 -1.80517e-15 -0.00200522)
(-9.30421e-17 -1.77734e-15 -0.00165329)
(-1.07668e-16 2.82656e-17 -0.00132681)
(-5.01965e-17 -1.69415e-15 -0.00104208)
(-3.69748e-17 -1.73295e-15 -0.000804413)
(-5.0745e-17 1.07219e-18 -0.000612308)
(-3.63367e-17 2.20546e-17 -0.000460692)
(-1.0281e-17 1.52099e-17 -0.000343152)
(-9.17265e-18 1.75079e-18 -0.000253254)
(-8.00218e-18 1.74416e-15 -0.000185196)
(9.03358e-18 9.1494e-18 -0.000134065)
(9.74822e-18 -1.58779e-18 -9.58737e-05)
(5.96972e-18 -9.19711e-18 -6.74781e-05)
(-9.42225e-18 -1.27783e-17 -4.64454e-05)
(-7.49186e-18 1.73216e-15 -3.09188e-05)
(-1.1261e-17 1.749e-15 -1.94944e-05)
(-1.75747e-17 1.74751e-15 -1.11174e-05)
(2.59471e-18 -7.27867e-18 -4.99996e-06)
(-5.55081e-18 1.72466e-15 -5.55048e-07)
(3.6278e-18 1.73459e-15 2.65313e-06)
(1.64235e-17 1.74359e-15 4.94796e-06)
(1.01947e-18 1.74305e-15 6.56894e-06)
(-2.04794e-18 -8.07947e-18 7.69346e-06)
(-1.35146e-17 1.72515e-15 8.45269e-06)
(-4.05132e-19 1.73466e-15 8.94368e-06)
(1.54803e-17 1.74363e-15 9.23808e-06)
(1.5431e-18 1.74352e-15 9.3888e-06)
(-1.19197e-18 -7.7572e-18 9.43488e-06)
(-1.30955e-17 1.72499e-15 9.40509e-06)
(-5.12793e-19 1.73454e-15 9.32062e-06)
(1.54985e-17 1.74367e-15 9.19706e-06)
(1.73253e-18 1.74368e-15 9.04592e-06)
(-1.33462e-18 -8.23657e-18 8.8756e-06)
(-1.13882e-17 1.72875e-15 8.69237e-06)
(-1.22557e-17 1.75046e-15 8.50076e-06)
(2.67241e-17 1.06638e-17 8.30418e-06)
(2.57315e-17 -1.7484e-15 8.10507e-06)
(-8.8736e-21 -1.44336e-17 7.90531e-06)
(-5.52258e-18 -1.40507e-18 7.7062e-06)
(-1.66097e-17 8.51307e-18 7.50879e-06)
(1.09215e-17 7.70235e-18 7.3137e-06)
(1.48041e-17 -1.74263e-15 7.12153e-06)
(-3.69841e-18 -9.00686e-18 6.9326e-06)
(-5.65614e-18 7.89776e-19 6.74729e-06)
(-1.61589e-17 8.77362e-18 6.56571e-06)
(1.11864e-17 6.87041e-18 6.38811e-06)
(1.31537e-17 -1.73865e-15 6.21448e-06)
(6.06939e-18 1.68064e-18 6.04496e-06)
(1.41594e-18 -1.73647e-15 5.87943e-06)
(-4.07871e-18 -1.74393e-15 5.71801e-06)
(2.08748e-17 -9.21217e-19 5.56058e-06)
(-3.36063e-18 -1.73278e-15 5.40722e-06)
(-8.69638e-18 7.95039e-18 5.25774e-06)
(-4.51974e-18 -1.73404e-15 5.11222e-06)
(-4.5633e-18 -1.74379e-15 4.97047e-06)
(2.16223e-17 -1.13128e-18 4.83255e-06)
(-2.88281e-18 -1.73286e-15 4.69826e-06)
(-8.61015e-18 7.88567e-18 4.56764e-06)
(-4.46832e-18 -1.73412e-15 4.4405e-06)
(-4.54914e-18 -1.74398e-15 4.31687e-06)
(2.13186e-17 -1.36559e-18 4.19654e-06)
(-3.3154e-18 -1.73289e-15 4.07957e-06)
(-8.90591e-18 8.04282e-18 3.96574e-06)
(-4.65839e-18 -1.73397e-15 3.85509e-06)
(-4.67778e-18 -1.7439e-15 3.74742e-06)
(2.13015e-17 -1.34255e-18 3.64276e-06)
(-3.2199e-18 -1.73293e-15 3.5409e-06)
(-8.88909e-18 8.01242e-18 3.44191e-06)
(-4.70202e-18 -1.73391e-15 3.34556e-06)
(-4.6987e-18 -1.74389e-15 3.25192e-06)
(2.12581e-17 -1.47219e-18 3.16079e-06)
(-3.30229e-18 -1.73304e-15 3.07222e-06)
(-8.96909e-18 7.99699e-18 2.98601e-06)
(-4.82017e-18 -1.73389e-15 2.90223e-06)
(-4.56184e-18 -1.74385e-15 2.82068e-06)
(1.9579e-17 -7.00184e-19 2.74142e-06)
(5.98419e-18 -1.73821e-15 2.66428e-06)
(-3.07969e-18 1.67915e-18 2.58932e-06)
(6.90072e-18 8.84273e-18 2.51636e-06)
(6.73292e-18 -1.73384e-15 2.44545e-06)
(4.69215e-18 -9.34464e-19 2.37645e-06)
(-8.55519e-18 -1.74194e-15 2.30941e-06)
(-9.71554e-18 -9.49852e-19 2.24417e-06)
(5.80766e-18 8.06913e-18 2.18079e-06)
(7.20947e-18 -1.73383e-15 2.11912e-06)
(5.00913e-18 -8.30348e-19 2.05923e-06)
(-8.46184e-18 -1.74188e-15 2.00096e-06)
(-9.66323e-18 -9.42888e-19 1.94438e-06)
(5.83341e-18 8.04005e-18 1.88936e-06)
(7.19359e-18 -1.73384e-15 1.83594e-06)
(4.98408e-18 -8.11366e-19 1.78401e-06)
(-8.46362e-18 -1.74186e-15 1.73361e-06)
(-9.67916e-18 -9.65389e-19 1.68463e-06)
(5.80824e-18 8.01418e-18 1.63711e-06)
(7.20217e-18 -1.73383e-15 1.59094e-06)
(5.00919e-18 -7.79078e-19 1.54618e-06)
(-8.4315e-18 -1.74182e-15 1.50271e-06)
(-9.63362e-18 -9.58261e-19 1.46058e-06)
(5.83752e-18 7.99448e-18 1.41969e-06)
(7.21168e-18 -1.73386e-15 1.38008e-06)
(5.01095e-18 -8.25819e-19 1.34166e-06)
(-8.44728e-18 -1.74186e-15 1.30447e-06)
(-9.67352e-18 -1.05265e-18 1.26842e-06)
(5.79069e-18 8.80864e-18 1.23355e-06)
(7.27078e-18 -1.73882e-15 1.19976e-06)
(4.70407e-18 -6.95458e-18 1.16711e-06)
(-8.9429e-18 1.07741e-18 1.1355e-06)
(-9.56756e-18 8.50548e-18 1.10499e-06)
(6.20382e-18 7.84882e-18 1.07547e-06)
(7.5434e-18 -1.74259e-15 1.047e-06)
(4.79981e-18 -9.23259e-18 1.01949e-06)
(-8.91139e-18 5.56656e-19 9.92999e-07)
(-9.57743e-18 8.59846e-18 9.6742e-07)
(6.17339e-18 7.93796e-18 9.42819e-07)
(7.53648e-18 -1.74257e-15 9.19098e-07)
(4.81033e-18 -9.23132e-18 8.96319e-07)
(-8.90819e-18 5.52588e-19 8.74387e-07)
(-9.58115e-18 8.59198e-18 8.53365e-07)
(6.17143e-18 7.93693e-18 8.33156e-07)
(7.53459e-18 -1.74258e-15 8.13826e-07)
(4.79783e-18 -9.24852e-18 7.9528e-07)
(-8.92157e-18 5.41208e-19 7.77583e-07)
(-9.58526e-18 8.59988e-18 7.60642e-07)
(6.18344e-18 7.95252e-18 7.44523e-07)
(7.55059e-18 -1.74257e-15 7.29134e-07)
(4.80221e-18 -9.25086e-18 7.14542e-07)
(-8.92897e-18 5.36994e-19 7.00656e-07)
(-9.59555e-18 8.59955e-18 6.87545e-07)
(6.17034e-18 7.95785e-18 6.75119e-07)
(7.53964e-18 -1.74256e-15 6.63447e-07)
(4.80158e-18 -9.24919e-18 6.52442e-07)
(-8.92225e-18 5.31207e-19 6.42174e-07)
(-9.59652e-18 8.59444e-18 6.32557e-07)
(6.16207e-18 7.95733e-18 6.23661e-07)
(7.53952e-18 -1.74255e-15 6.15398e-07)
(4.81027e-18 -9.24684e-18 6.07842e-07)
(-8.90939e-18 5.29822e-19 6.00899e-07)
(-9.58841e-18 8.59138e-18 5.94632e-07)
(6.16447e-18 7.95709e-18 5.88968e-07)
(7.54084e-18 -1.74255e-15 5.83939e-07)
(4.81195e-18 -9.25775e-18 5.79548e-07)
(-8.91023e-18 6.06112e-19 5.75804e-07)
(-9.59868e-18 7.91072e-18 5.72777e-07)
(6.20227e-18 1.22801e-17 5.70691e-07)
(7.08736e-18 -1.72898e-15 5.68495e-07)
(-6.97204e-17 -1.82619e-17 -0.0325324)
(-4.59516e-16 -2.21593e-17 -0.0371455)
(-5.30196e-16 -2.33534e-18 -0.0238876)
(-4.5418e-16 8.72448e-19 -0.00655565)
(-5.53933e-16 -6.07455e-18 0.000945925)
(-5.64445e-16 1.09491e-17 0.000664482)
(-3.54914e-16 -2.92977e-18 -0.0010195)
(-1.02992e-16 3.58227e-17 -0.00187062)
(1.87356e-17 1.87815e-15 -0.00224461)
(1.07677e-17 7.93476e-17 -0.00257991)
(1.19396e-18 -6.15793e-17 -0.00288064)
(2.47688e-18 1.68529e-15 -0.00306598)
(-4.0217e-18 -2.13958e-18 -0.00305897)
(1.01623e-17 -3.0355e-17 -0.00286947)
(1.47218e-17 -5.23606e-17 -0.0025557)
(-3.94035e-17 -3.34319e-17 -0.00218464)
(-1.14258e-16 -6.69638e-18 -0.00180703)
(-1.22488e-16 5.99574e-18 -0.00145514)
(-5.89838e-17 5.64734e-18 -0.00114652)
(-4.20661e-17 1.20538e-18 -0.000887513)
(-5.54794e-17 3.29614e-19 -0.000677155)
(-3.98628e-17 1.82258e-18 -0.000510473)
(-1.1381e-17 1.62786e-18 -0.000380832)
(-9.46919e-18 3.99604e-19 -0.000281414)
(-7.89201e-18 3.37031e-19 -0.000205988)
(9.37186e-18 4.85962e-19 -0.000149225)
(1.03857e-17 -5.58516e-20 -0.00010677)
(6.25159e-18 3.88129e-19 -7.51716e-05)
(-8.16158e-18 -6.07399e-18 -5.17474e-05)
(-1.85054e-17 -1.67413e-18 -3.44446e-05)
(-1.2669e-17 1.75404e-15 -2.17074e-05)
(7.30954e-18 -1.72884e-15 -1.23648e-05)
(1.10157e-17 -1.748e-15 -5.54054e-06)
(-5.64517e-18 -1.05883e-17 -5.81444e-07)
(-6.83225e-18 -1.74584e-15 2.99802e-06)
(-3.61951e-18 1.74489e-15 5.55832e-06)
(1.00757e-17 1.75699e-17 7.36654e-06)
(9.84569e-18 -1.73553e-15 8.62059e-06)
(-7.17409e-18 -1.03956e-17 9.46687e-06)
(-7.89447e-18 -1.74928e-15 1.00137e-05)
(-4.35704e-18 1.74266e-15 1.0341e-05)
(9.79835e-18 1.7133e-17 1.0508e-05)
(1.01723e-17 -1.73516e-15 1.05582e-05)
(-6.84064e-18 -1.0074e-17 1.05237e-05)
(-7.88146e-18 -1.7492e-15 1.04282e-05)
(-4.26988e-18 1.74255e-15 1.02891e-05)
(9.89756e-18 1.73707e-17 1.01193e-05)
(1.0475e-17 -1.7364e-15 9.92816e-06)
(-7.26543e-18 -5.13348e-19 9.72262e-06)
(-2.73704e-18 -1.73804e-15 9.50779e-06)
(3.4177e-17 -1.74305e-15 9.28745e-06)
(3.09816e-17 -3.05854e-19 9.06433e-06)
(-8.73639e-18 -1.73353e-15 8.84053e-06)
(-1.49979e-17 6.89532e-18 8.61747e-06)
(-1.12477e-17 -1.73443e-15 8.39634e-06)
(1.79729e-17 -1.74273e-15 8.17786e-06)
(2.01291e-17 -5.92296e-19 7.96271e-06)
(-1.2409e-17 -1.7335e-15 7.75123e-06)
(-1.51012e-17 7.02002e-18 7.54383e-06)
(-1.08729e-17 -1.73437e-15 7.34062e-06)
(1.83865e-17 -1.74251e-15 7.14186e-06)
(1.73946e-17 -1.36714e-18 6.94754e-06)
(5.50847e-18 -1.72717e-15 6.75781e-06)
(1.34546e-17 3.3302e-18 6.57259e-06)
(-1.38275e-17 -3.48839e-15 6.39198e-06)
(-2.70353e-18 1.73344e-15 6.21584e-06)
(2.0472e-18 1.67299e-17 6.04424e-06)
(-1.39545e-20 -1.72619e-15 5.87702e-06)
(1.30721e-17 -1.38505e-18 5.71423e-06)
(-1.31612e-17 -3.49159e-15 5.55568e-06)
(-2.21176e-18 1.73275e-15 5.40141e-06)
(2.44408e-18 1.69772e-17 5.25122e-06)
(2.67368e-19 -1.72605e-15 5.10513e-06)
(1.32822e-17 -1.42311e-18 4.96294e-06)
(-1.30659e-17 -3.4916e-15 4.82468e-06)
(-2.41039e-18 1.73274e-15 4.69013e-06)
(2.07709e-18 1.69441e-17 4.55932e-06)
(-1.57651e-20 -1.72601e-15 4.43203e-06)
(1.31562e-17 -1.36153e-18 4.30829e-06)
(-1.31293e-17 -3.4916e-15 4.18788e-06)
(-2.45748e-18 1.73265e-15 4.07084e-06)
(2.05561e-18 1.68838e-17 3.95696e-06)
(-4.13779e-20 -1.72597e-15 3.84626e-06)
(1.31895e-17 -1.27949e-18 3.73854e-06)
(-1.29605e-17 -3.49159e-15 3.63383e-06)
(-2.36598e-18 1.73255e-15 3.53195e-06)
(1.9868e-18 1.67946e-17 3.4329e-06)
(-1.57306e-19 -1.72597e-15 3.33652e-06)
(1.29614e-17 -1.36898e-18 3.24284e-06)
(-1.15013e-17 -3.49077e-15 3.15167e-06)
(-1.22918e-17 1.72875e-15 3.06305e-06)
(-4.28487e-18 7.84162e-18 2.97682e-06)
(-1.25058e-17 1.22089e-18 2.893e-06)
(2.00909e-18 1.73866e-15 2.81143e-06)
(5.27708e-18 1.98315e-18 2.73216e-06)
(3.22484e-18 1.74143e-15 2.65502e-06)
(2.1197e-18 -1.5495e-20 2.58007e-06)
(-1.18234e-17 -8.13127e-18 2.50714e-06)
(1.44089e-18 1.73433e-15 2.43628e-06)
(5.00455e-18 1.29043e-18 2.36734e-06)
(3.16673e-18 1.74173e-15 2.30038e-06)
(2.13404e-18 1.83906e-19 2.23525e-06)
(-1.17779e-17 -8.09051e-18 2.172e-06)
(1.45794e-18 1.73434e-15 2.1105e-06)
(5.00063e-18 1.30512e-18 2.05078e-06)
(3.17335e-18 1.74174e-15 1.99273e-06)
(2.16537e-18 1.95317e-19 1.93639e-06)
(-1.17559e-17 -8.10132e-18 1.88164e-06)
(1.43761e-18 1.7343e-15 1.82852e-06)
(4.98099e-18 1.28887e-18 1.77692e-06)
(3.17885e-18 1.74176e-15 1.72688e-06)
(2.20993e-18 2.21392e-19 1.6783e-06)
(-1.16811e-17 -8.09277e-18 1.63121e-06)
(1.49298e-18 1.7343e-15 1.5855e-06)
(5.01316e-18 1.2742e-18 1.54123e-06)
(3.17887e-18 1.74173e-15 1.49829e-06)
(2.15498e-18 2.07285e-19 1.45672e-06)
(-1.17507e-17 -8.17164e-18 1.41643e-06)
(1.27018e-18 1.73506e-15 1.37745e-06)
(6.40818e-18 -3.55356e-18 1.33969e-06)
(-6.35325e-18 1.73588e-15 1.3032e-06)
(-7.42543e-18 1.74294e-15 1.26788e-06)
(-5.58559e-18 9.32124e-19 1.23377e-06)
(8.86788e-18 1.73402e-15 1.20079e-06)
(1.01741e-17 -7.1669e-18 1.16897e-06)
(-5.63211e-18 1.73372e-15 1.13823e-06)
(-7.6202e-18 1.74247e-15 1.10862e-06)
(-5.73575e-18 1.05607e-18 1.08004e-06)
(8.83682e-18 1.7341e-15 1.05255e-06)
(1.01819e-17 -7.16638e-18 1.02604e-06)
(-5.61472e-18 1.73371e-15 1.00058e-06)
(-7.6051e-18 1.74247e-15 9.76079e-07)
(-5.72812e-18 1.05217e-18 9.52585e-07)
(8.83902e-18 1.7341e-15 9.30007e-07)
(1.01866e-17 -7.1648e-18 9.08404e-07)
(-5.62277e-18 1.7337e-15 8.87684e-07)
(-7.63268e-18 1.74246e-15 8.67907e-07)
(-5.75497e-18 1.04737e-18 8.4898e-07)
(8.82628e-18 1.73411e-15 8.30967e-07)
(1.0187e-17 -7.15232e-18 8.13775e-07)
(-5.62079e-18 1.73371e-15 7.97468e-07)
(-7.63702e-18 1.74246e-15 7.81957e-07)
(-5.76218e-18 1.04989e-18 7.67305e-07)
(8.81871e-18 1.73411e-15 7.53424e-07)
(1.01891e-17 -7.14972e-18 7.40381e-07)
(-5.60939e-18 1.73371e-15 7.28089e-07)
(-7.62955e-18 1.74245e-15 7.16614e-07)
(-5.76217e-18 1.05228e-18 7.05872e-07)
(8.81575e-18 1.73411e-15 6.95931e-07)
(1.01894e-17 -7.15472e-18 6.86702e-07)
(-5.60406e-18 1.7337e-15 6.78257e-07)
(-7.62335e-18 1.74245e-15 6.70503e-07)
(-5.75911e-18 1.05445e-18 6.635e-07)
(8.81475e-18 1.73412e-15 6.57176e-07)
(1.01906e-17 -7.15273e-18 6.51562e-07)
(-5.6026e-18 1.73369e-15 6.46664e-07)
(-7.64168e-18 1.74253e-15 6.42489e-07)
(-5.62738e-18 3.54472e-19 6.39101e-07)
(7.58856e-18 1.73866e-15 6.36849e-07)
(1.83983e-17 5.30514e-18 6.34001e-07)
(-3.19607e-18 -2.32652e-19 -0.0540044)
(-7.6187e-17 -2.30434e-19 -0.0616629)
(-1.12865e-16 -4.02297e-21 -0.0395511)
(-9.86811e-17 -1.6611e-19 -0.0104106)
(-1.02461e-16 -1.73182e-19 0.00259176)
(-1.38971e-16 1.32046e-18 0.00272428)
(-1.329e-16 -2.18161e-18 0.000541049)
(-1.05023e-16 1.85269e-18 -0.000239614)
(1.05456e-17 1.98425e-17 -0.000219736)
(1.03441e-16 1.0891e-17 -0.00017775)
(1.61314e-16 -1.40166e-17 -0.000180399)
(1.97197e-16 -8.27301e-18 -0.000222)
(1.32252e-16 5.57237e-18 -0.000233088)
(4.06589e-17 -9.37386e-20 -0.000214202)
(-5.36187e-18 -8.09415e-18 -0.000183356)
(-1.36843e-17 -5.95181e-18 -0.00015511)
(-1.738e-17 -1.07849e-18 -0.000131168)
(-1.75629e-17 6.28342e-19 -0.000109275)
(-1.03324e-17 3.59388e-19 -8.90313e-05)
(-6.9383e-18 2.59782e-20 -7.08686e-05)
(-7.69753e-18 -2.94773e-20 -5.52551e-05)
(-5.62925e-18 5.38106e-21 -4.23344e-05)
(-1.78412e-18 1.30713e-20 -3.19455e-05)
(-1.48432e-19 6.27641e-21 -2.37745e-05)
(-5.20569e-19 1.9621e-20 -1.7455e-05)
(-1.31402e-19 1.05546e-20 -1.26292e-05)
(8.55642e-19 -2.76525e-20 -8.98e-06)
(9.84161e-19 7.65219e-20 -6.24174e-06)
(1.99253e-19 -3.99807e-19 -4.20002e-06)
(-9.95461e-19 -3.66262e-19 -2.68599e-06)
(-1.6605e-18 1.4173e-18 -1.56899e-06)
(-2.72521e-21 1.05298e-18 -7.4918e-07)
(1.26391e-18 -8.54254e-19 -1.50992e-07)
(5.51565e-19 -1.16765e-18 2.82397e-07)
(9.27461e-20 -1.15706e-18 5.93519e-07)
(8.01071e-20 3.81845e-19 8.14104e-07)
(1.10654e-18 1.62144e-18 9.6778e-07)
(1.27957e-18 5.45439e-19 1.0721e-06)
(-3.62249e-19 -7.09125e-19 1.1401e-06)
(-1.0641e-18 -1.47209e-18 1.18143e-06)
(-8.64584e-19 5.27211e-20 1.20325e-06)
(1.76049e-19 1.53547e-18 1.21084e-06)
(5.50138e-19 5.62289e-19 1.20812e-06)
(-6.2156e-19 -7.07966e-19 1.19795e-06)
(-8.69046e-19 -1.46997e-18 1.18247e-06)
(-6.48713e-19 5.87248e-20 1.16322e-06)
(3.55042e-19 1.58267e-18 1.14138e-06)
(9.62023e-19 3.44921e-19 1.11778e-06)
(-2.43231e-19 6.32014e-19 1.09304e-06)
(-7.6203e-19 -4.98293e-18 1.06761e-06)
(1.5528e-18 -6.19578e-18 1.04185e-06)
(2.57503e-18 1.74251e-15 1.01599e-06)
(8.04658e-19 8.55616e-18 9.90208e-07)
(-3.90195e-19 -1.4942e-19 9.6464e-07)
(-1.13207e-18 -7.97225e-18 9.3939e-07)
(2.97471e-19 -7.98615e-18 9.14519e-07)
(1.29146e-18 1.74201e-15 8.90086e-07)
(1.40591e-19 8.60829e-18 8.66119e-07)
(-4.93782e-19 2.17238e-20 8.42652e-07)
(-1.09705e-18 -7.97024e-18 8.19693e-07)
(3.91303e-19 -7.26335e-18 7.97263e-07)
(1.25589e-18 1.73724e-15 7.75357e-07)
(8.48188e-19 3.65062e-18 7.53986e-07)
(9.94893e-19 1.74265e-15 7.33142e-07)
(-1.32408e-19 -1.1296e-18 7.12829e-07)
(-3.1234e-20 -8.8586e-18 6.93034e-07)
(-2.0614e-19 1.73532e-15 6.73759e-07)
(-4.84401e-19 2.43792e-18 6.54987e-07)
(1.25948e-19 1.74198e-15 6.36719e-07)
(-6.39005e-19 -1.42703e-18 6.18937e-07)
(-1.17932e-19 -8.93391e-18 6.01638e-07)
(3.04091e-20 1.73534e-15 5.84807e-07)
(-2.40661e-19 2.46663e-18 5.68437e-07)
(3.06856e-19 1.742e-15 5.52514e-07)
(-4.64806e-19 -1.41118e-18 5.3703e-07)
(5.73392e-20 -8.93707e-18 5.2197e-07)
(1.56665e-19 1.73536e-15 5.07329e-07)
(-1.5816e-19 2.50326e-18 4.93089e-07)
(4.05276e-19 1.74203e-15 4.79245e-07)
(-4.08638e-19 -1.36979e-18 4.65781e-07)
(1.19879e-20 -8.93501e-18 4.52691e-07)
(4.45759e-20 1.7353e-15 4.39961e-07)
(-1.86635e-19 2.44546e-18 4.27584e-07)
(4.66705e-19 1.742e-15 4.15548e-07)
(-2.45131e-19 -1.38601e-18 4.03845e-07)
(2.18672e-19 -8.94583e-18 3.92462e-07)
(1.82312e-19 1.7353e-15 3.81396e-07)
(-1.92786e-19 2.5097e-18 3.70632e-07)
(4.0811e-19 1.74123e-15 3.60166e-07)
(-9.54387e-20 3.50051e-18 3.49987e-07)
(-4.3714e-19 -4.30841e-18 3.4009e-07)
(-6.1747e-19 -3.38072e-18 3.30463e-07)
(-9.83397e-19 -1.46783e-18 3.21103e-07)
(-4.74755e-19 -4.87162e-20 3.12e-07)
(5.27643e-19 2.71e-19 3.0315e-07)
(8.35594e-19 6.44225e-19 2.94543e-07)
(1.80514e-19 3.04781e-19 2.86177e-07)
(-7.47559e-19 -6.1045e-19 2.78041e-07)
(-4.62009e-19 -3.44847e-19 2.70133e-07)
(4.30331e-19 2.82426e-20 2.62445e-07)
(6.76166e-19 6.04908e-19 2.54974e-07)
(4.65512e-20 3.20065e-19 2.47711e-07)
(-8.22138e-19 -6.0484e-19 2.40655e-07)
(-5.06746e-19 -3.49241e-19 2.33798e-07)
(4.61031e-19 2.27538e-20 2.27138e-07)
(7.94133e-19 6.06262e-19 2.20667e-07)
(1.58792e-19 3.28345e-19 2.14385e-07)
(-7.78855e-19 -6.01511e-19 2.08283e-07)
(-5.13565e-19 -3.54278e-19 2.02362e-07)
(4.41784e-19 1.87185e-20 1.96612e-07)
(8.03222e-19 6.0645e-19 1.91036e-07)
(2.11787e-19 3.29965e-19 1.85623e-07)
(-7.13877e-19 -5.99786e-19 1.80376e-07)
(-4.79461e-19 -3.5265e-19 1.75286e-07)
(4.51317e-19 1.79724e-20 1.70354e-07)
(7.90123e-19 6.03269e-19 1.65573e-07)
(1.64866e-19 3.29838e-19 1.60944e-07)
(-7.75913e-19 -6.10252e-19 1.56458e-07)
(-5.19893e-19 -2.70799e-19 1.52118e-07)
(5.23113e-19 -2.85165e-19 1.47916e-07)
(4.61051e-19 -3.77732e-20 1.43854e-07)
(-4.13177e-19 6.93579e-19 1.39924e-07)
(-7.54878e-19 3.58826e-19 1.36128e-07)
(-1.35181e-19 -3.10506e-20 1.32459e-07)
(7.83062e-19 -6.18909e-19 1.28919e-07)
(4.80743e-19 -3.35419e-19 1.25501e-07)
(-4.78669e-19 6.0848e-19 1.22207e-07)
(-7.80351e-19 3.69951e-19 1.1903e-07)
(-1.31496e-19 -2.08729e-20 1.15972e-07)
(7.89764e-19 -6.22141e-19 1.13026e-07)
(5.09832e-19 -3.37815e-19 1.10195e-07)
(-4.41921e-19 6.0929e-19 1.07472e-07)
(-7.57459e-19 3.69921e-19 1.04861e-07)
(-1.11472e-19 -2.04334e-20 1.02353e-07)
(8.1131e-19 -6.20709e-19 9.99517e-08)
(5.21139e-19 -3.3888e-19 9.76506e-08)
(-4.42957e-19 6.07307e-19 9.54532e-08)
(-7.68316e-19 3.70401e-19 9.33518e-08)
(-1.39177e-19 -1.84373e-20 9.13506e-08)
(7.84748e-19 -6.19401e-19 8.94425e-08)
(5.16787e-19 -3.38869e-19 8.76313e-08)
(-4.26549e-19 6.0769e-19 8.591e-08)
(-7.57684e-19 3.71681e-19 8.4283e-08)
(-1.3882e-19 -1.78091e-20 8.27432e-08)
(7.92156e-19 -6.20048e-19 8.12953e-08)
(5.29038e-19 -3.39841e-19 7.99322e-08)
(-4.23937e-19 6.07597e-19 7.86585e-08)
(-7.58018e-19 3.71784e-19 7.74675e-08)
(-1.31509e-19 -1.8463e-20 7.63641e-08)
(7.94265e-19 -6.20712e-19 7.53411e-08)
(5.23616e-19 -3.40454e-19 7.44036e-08)
(-4.26632e-19 6.07345e-19 7.35444e-08)
(-7.567e-19 3.72323e-19 7.27681e-08)
(-1.30957e-19 -1.77696e-20 7.20672e-08)
(7.94936e-19 -6.20314e-19 7.1447e-08)
(5.21237e-19 -3.41607e-19 7.09033e-08)
(-4.31614e-19 6.18505e-19 7.04489e-08)
(-7.59358e-19 2.95603e-19 7.004e-08)
(-1.17162e-19 2.67292e-19 6.99937e-08)
(7.81802e-19 3.42832e-19 6.89729e-08)
(-5.67293e-17 2.14296e-17 -0.075113)
(-3.76929e-16 3.2675e-17 -0.0855722)
(-4.43695e-16 8.91171e-18 -0.0547911)
(-4.04959e-16 -4.32927e-18 -0.0143539)
(-3.86595e-16 1.40705e-17 0.00368094)
(-5.86672e-16 2.61684e-17 0.00389125)
(-6.78332e-16 -1.99037e-17 0.000906404)
(-4.49351e-16 -3.59e-17 -0.000132359)
(-1.46207e-16 1.77392e-15 -5.67692e-05)
(7.33547e-17 3.96351e-18 4.30349e-05)
(2.4357e-16 -1.84318e-15 0.000104369)
(2.18852e-16 1.69982e-15 8.15708e-05)
(1.08065e-16 7.61296e-17 7.56135e-05)
(1.09113e-17 3.84518e-17 8.23778e-05)
(1.69937e-18 -2.5189e-17 8.41267e-05)
(1.90243e-17 -2.74229e-17 7.13297e-05)
(-2.42957e-17 -4.75704e-18 5.14385e-05)
(-5.38801e-17 2.47195e-18 3.35696e-05)
(-2.81292e-17 3.35016e-19 2.05027e-05)
(-2.65068e-17 -1.12054e-19 1.19446e-05)
(-3.77698e-17 -3.24912e-19 6.66865e-06)
(-2.527e-17 -1.13412e-18 3.54103e-06)
(-7.7764e-18 -1.11255e-18 1.76241e-06)
(2.66202e-18 -2.32172e-19 7.96257e-07)
(-8.00394e-18 3.28516e-19 3.00221e-07)
(-9.38685e-18 -2.02144e-19 6.5777e-08)
(7.63587e-18 -6.13633e-19 -2.9628e-08)
(9.04225e-18 7.16324e-19 -5.52775e-08)
(5.98138e-18 -5.08418e-18 -4.88557e-08)
(-7.36634e-18 -7.44253e-19 -2.99981e-08)
(-1.94606e-17 1.75354e-15 -8.37939e-09)
(2.95316e-19 -1.7303e-15 1.16541e-08)
(7.18018e-18 -1.74828e-15 2.84763e-08)
(-5.92164e-18 -1.00027e-17 4.17892e-08)
(-6.71192e-18 -1.7456e-15 5.18773e-08)
(-5.29934e-18 1.74438e-15 5.92345e-08)
(9.06631e-18 1.69702e-17 6.43855e-08)
(1.01032e-17 -1.7348e-15 6.78024e-08)
(-5.26417e-18 -9.22381e-18 6.98889e-08)
(-6.53974e-18 -1.74903e-15 7.09635e-08)
(-4.80894e-18 1.74204e-15 7.12861e-08)
(9.37656e-18 1.64256e-17 7.10461e-08)
(9.78089e-18 -1.73476e-15 7.04014e-08)
(-6.00686e-18 -9.36444e-18 6.94563e-08)
(-7.13621e-18 -1.74919e-15 6.83055e-08)
(-5.18911e-18 1.74194e-15 6.70021e-08)
(9.35857e-18 1.65653e-17 6.56049e-08)
(1.0384e-17 -1.7361e-15 6.41368e-08)
(-6.53965e-18 3.48679e-19 6.26369e-08)
(3.39796e-19 -1.73894e-15 6.11108e-08)
(2.33788e-17 -1.74472e-15 5.95873e-08)
(1.73347e-17 6.82197e-20 5.80615e-08)
(6.51858e-18 -1.73205e-15 5.65572e-08)
(2.32679e-18 7.86369e-18 5.50634e-08)
(-1.11809e-17 -1.73478e-15 5.36016e-08)
(1.22254e-18 -1.74394e-15 5.21567e-08)
(3.94419e-18 -5.13856e-19 5.07492e-08)
(2.68155e-18 -1.73261e-15 4.93619e-08)
(2.53886e-18 7.63884e-18 4.80147e-08)
(-1.05616e-17 -1.73481e-15 4.6689e-08)
(1.46703e-18 -1.74369e-15 4.54047e-08)
(4.02105e-18 -1.59558e-18 4.4142e-08)
(2.43359e-18 -1.72704e-15 4.29207e-08)
(6.99619e-19 3.8205e-18 4.17206e-08)
(-1.5315e-18 -3.48787e-15 4.05616e-08)
(1.03582e-17 1.73348e-15 3.9423e-08)
(-1.85161e-18 1.69565e-17 3.83248e-08)
(-4.43446e-18 -1.72636e-15 3.72458e-08)
(-2.65321e-18 -1.30775e-18 3.62062e-08)
(-2.33371e-18 -3.49147e-15 3.51847e-08)
(1.01516e-17 1.73242e-15 3.42012e-08)
(-1.99881e-18 1.70385e-17 3.32347e-08)
(-4.46441e-18 -1.72618e-15 3.23049e-08)
(-2.53751e-18 -1.31104e-18 3.13909e-08)
(-2.14153e-18 -3.49147e-15 3.05121e-08)
(1.0291e-17 1.73243e-15 2.96479e-08)
(-1.92363e-18 1.70518e-17 2.88176e-08)
(-4.37977e-18 -1.72613e-15 2.80007e-08)
(-2.49404e-18 -1.23629e-18 2.72161e-08)
(-2.09397e-18 -3.49141e-15 2.64439e-08)
(1.03936e-17 1.73243e-15 2.57025e-08)
(-1.76713e-18 1.69831e-17 2.49725e-08)
(-4.29487e-18 -1.72618e-15 2.42719e-08)
(-2.53171e-18 -1.25025e-18 2.35818e-08)
(-2.17818e-18 -3.49147e-15 2.29196e-08)
(1.03025e-17 1.73234e-15 2.22671e-08)
(-1.78192e-18 1.70003e-17 2.16412e-08)
(-4.17878e-18 -1.72608e-15 2.10241e-08)
(-2.60762e-18 -1.41765e-18 2.04325e-08)
(-7.22535e-19 -3.49035e-15 1.98487e-08)
(7.68866e-19 1.72901e-15 1.92894e-08)
(-1.0191e-17 8.11475e-18 1.87374e-08)
(-7.95712e-18 1.14953e-18 1.82086e-08)
(-5.13305e-18 1.7379e-15 1.76866e-08)
(8.61124e-18 1.32798e-18 1.71868e-08)
(9.47626e-18 1.74161e-15 1.66929e-08)
(-5.80924e-18 7.76081e-19 1.62206e-08)
(-6.88153e-18 -7.81001e-18 1.57537e-08)
(-5.23454e-18 1.73374e-15 1.53074e-08)
(8.44149e-18 7.2134e-19 1.48662e-08)
(9.42118e-18 1.74192e-15 1.44446e-08)
(-5.81318e-18 9.33058e-19 1.40276e-08)
(-6.87334e-18 -7.81387e-18 1.36297e-08)
(-5.22595e-18 1.73369e-15 1.32359e-08)
(8.44496e-18 6.54685e-19 1.28605e-08)
(9.4294e-18 1.74189e-15 1.24887e-08)
(-5.79773e-18 9.81811e-19 1.21347e-08)
(-6.86204e-18 -7.76514e-18 1.17839e-08)
(-5.22266e-18 1.73369e-15 1.14504e-08)
(8.42959e-18 6.30472e-19 1.11198e-08)
(9.43916e-18 1.74188e-15 1.08059e-08)
(-5.76965e-18 9.79942e-19 1.04946e-08)
(-6.86188e-18 -7.74715e-18 1.01994e-08)
(-5.24339e-18 1.73371e-15 9.90652e-09)
(8.4198e-18 6.39407e-19 9.6293e-09)
(9.44002e-18 1.74187e-15 9.35394e-09)
(-5.77212e-18 9.90303e-19 9.09394e-09)
(-6.86774e-18 -7.82926e-18 8.83544e-09)
(-5.24747e-18 1.73441e-15 8.59205e-09)
(8.41644e-18 -4.04404e-18 8.34964e-09)
(9.44476e-18 1.73634e-15 8.12193e-09)
(-5.76073e-18 1.74354e-15 7.89514e-09)
(-6.86134e-18 7.93126e-19 7.68264e-09)
(-5.24758e-18 1.73325e-15 7.47068e-09)
(8.40969e-18 -7.47486e-18 7.27276e-09)
(9.44714e-18 1.73435e-15 7.07507e-09)
(-5.76172e-18 1.7431e-15 6.89128e-09)
(-6.88127e-18 8.82483e-19 6.70734e-09)
(-5.27132e-18 1.73332e-15 6.53689e-09)
(8.39948e-18 -7.48704e-18 6.3661e-09)
(9.44216e-18 1.73433e-15 6.20858e-09)
(-5.76322e-18 1.74311e-15 6.05054e-09)
(-6.87415e-18 8.86944e-19 5.9056e-09)
(-5.26069e-18 1.73332e-15 5.75971e-09)
(8.40224e-18 -7.48111e-18 5.62683e-09)
(9.44893e-18 1.73433e-15 5.49274e-09)
(-5.74548e-18 1.7431e-15 5.37141e-09)
(-6.85881e-18 8.95484e-19 5.24869e-09)
(-5.25618e-18 1.73333e-15 5.13852e-09)
(8.39998e-18 -7.4803e-18 5.02679e-09)
(9.44864e-18 1.73432e-15 4.92733e-09)
(-5.74047e-18 1.7431e-15 4.82617e-09)
(-6.85278e-18 9.06027e-19 4.73742e-09)
(-5.25199e-18 1.73334e-15 4.64665e-09)
(8.40008e-18 -7.48365e-18 4.56803e-09)
(9.45479e-18 1.73431e-15 4.4873e-09)
(-5.73808e-18 1.7431e-15 4.4186e-09)
(-6.86583e-18 9.06063e-19 4.34751e-09)
(-5.26861e-18 1.73334e-15 4.28838e-09)
(8.39127e-18 -7.48228e-18 4.22683e-09)
(9.45295e-18 1.73431e-15 4.17712e-09)
(-5.73227e-18 1.74309e-15 4.12497e-09)
(-6.85453e-18 9.06608e-19 4.08467e-09)
(-5.25969e-18 1.73334e-15 4.04168e-09)
(8.39384e-18 -7.47883e-18 4.01014e-09)
(9.4536e-18 1.7343e-15 3.97475e-09)
(-5.71756e-18 1.74318e-15 3.95804e-09)
(-7.01618e-18 1.97246e-19 3.88934e-09)
(-3.86889e-18 1.73789e-15 4.14127e-09)
(-7.37804e-19 4.85566e-18 3.23754e-09)
(7.37326e-17 1.95132e-15 -0.0956607)
(5.67614e-16 1.92798e-15 -0.108645)
(7.12641e-16 1.40112e-17 -0.0694201)
(5.97574e-16 1.70601e-15 -0.0181356)
(5.80854e-16 1.82541e-15 0.00468004)
(6.24914e-16 1.88191e-15 0.00492468)
(5.20755e-17 -7.08422e-17 0.00114345)
(1.85041e-15 -2.50657e-16 -0.000171787)
(-2.05462e-15 -2.4151e-16 -7.08593e-05)
(-2.39542e-15 -1.93227e-15 4.58729e-05)
(-4.28512e-16 -9.35414e-17 0.000172121)
(4.20655e-17 5.94793e-17 0.000136389)
(7.76772e-17 1.16319e-16 0.000114768)
(6.12919e-17 5.30891e-17 0.000111055)
(1.93655e-17 -1.21506e-17 0.000106155)
(2.03145e-17 1.74177e-15 8.64246e-05)
(3.46488e-17 1.7701e-15 6.05718e-05)
(7.25833e-17 2.54508e-18 3.92989e-05)
(1.49051e-17 1.7214e-15 2.4527e-05)
(2.48217e-18 1.73957e-15 1.50286e-05)
(2.6344e-17 -6.4788e-19 9.08949e-06)
(1.96446e-17 -1.49913e-17 5.41701e-06)
(5.17773e-18 -1.3953e-17 3.18809e-06)
(9.75398e-18 1.20048e-19 1.86014e-06)
(8.37375e-18 6.04406e-18 1.08059e-06)
(-5.23506e-18 -1.74253e-15 6.27917e-07)
(-9.41656e-18 -9.24221e-18 3.66581e-07)
(-5.77986e-18 9.03768e-19 2.15946e-07)
(9.52682e-18 7.80449e-18 1.2895e-07)
(7.16874e-18 1.2143e-17 7.84491e-08)
(1.17589e-17 -1.73693e-15 4.88891e-08)
(1.914e-17 -1.74667e-15 3.13952e-08)
(-1.25806e-18 2.04247e-18 2.0894e-08)
(5.75914e-18 -1.729e-15 1.44849e-08)
(-4.51214e-18 -1.73624e-15 1.04982e-08)
(-1.7056e-17 -1.74228e-15 7.96682e-09)
(-1.08492e-18 -1.74072e-15 6.32513e-09)
(2.19544e-18 7.71068e-18 5.23415e-09)
(1.38639e-17 -1.72712e-15 4.49358e-09)
(5.84251e-19 -1.73644e-15 3.97459e-09)
(-1.52599e-17 -1.74264e-15 3.60443e-09)
(-5.94129e-19 -1.74046e-15 3.32768e-09)
(2.49656e-18 8.254e-18 3.11982e-09)
(1.36244e-17 -1.72698e-15 2.9516e-09)
(3.77879e-19 -1.7366e-15 2.81849e-09)
(-1.53969e-17 -1.74291e-15 2.7013e-09)
(-1.03701e-18 -1.74092e-15 2.60469e-09)
(2.09559e-18 8.29403e-18 2.51266e-09)
(1.17662e-17 -1.72907e-15 2.43499e-09)
(1.27388e-17 -1.75467e-15 2.35637e-09)
(-2.59949e-17 -1.4694e-17 2.28938e-09)
(-2.53845e-17 3.48566e-15 2.21858e-09)
(-1.15786e-19 1.60601e-17 2.15864e-09)
(5.35469e-18 1.74342e-15 2.09306e-09)
(1.6635e-17 -7.42002e-18 2.03802e-09)
(-1.07997e-17 -1.55488e-17 1.97622e-09)
(-1.47631e-17 3.47601e-15 1.92524e-09)
(3.63368e-18 9.31096e-18 1.86654e-09)
(5.55021e-18 1.74137e-15 1.81883e-09)
(1.61868e-17 -7.4343e-18 1.7631e-09)
(-1.11445e-17 -1.45547e-17 1.71855e-09)
(-1.3158e-17 3.47148e-15 1.66543e-09)
(-6.2904e-18 5.31134e-18 1.62366e-09)
(-2.02344e-18 3.47935e-15 1.57311e-09)
(3.61489e-18 -5.9589e-18 1.53401e-09)
(-2.06881e-17 1.72602e-15 1.48592e-09)
(3.78924e-18 3.47744e-15 1.44925e-09)
(8.88696e-18 2.83872e-18 1.40343e-09)
(4.57753e-18 3.47565e-15 1.36907e-09)
(4.73808e-18 -7.82945e-18 1.32547e-09)
(-2.1281e-17 1.72562e-15 1.29327e-09)
(3.28917e-18 3.47738e-15 1.25192e-09)
(8.95927e-18 2.73598e-18 1.22189e-09)
(4.6992e-18 3.47556e-15 1.18261e-09)
(4.61403e-18 -7.82542e-18 1.1545e-09)
(-2.14122e-17 1.72568e-15 1.11714e-09)
(3.17268e-18 3.47742e-15 1.09073e-09)
(8.81166e-18 2.78846e-18 1.05532e-09)
(4.62925e-18 3.47561e-15 1.03054e-09)
(4.65373e-18 -7.81359e-18 9.96967e-10)
(-2.13097e-17 1.72563e-15 9.73833e-10)
(3.272e-18 3.47737e-15 9.41942e-10)
(8.86937e-18 2.82775e-18 9.20077e-10)
(4.65092e-18 3.47566e-15 8.89865e-10)
(4.64961e-18 -7.80313e-18 8.69526e-10)
(-2.13577e-17 1.72558e-15 8.40769e-10)
(3.20126e-18 3.47726e-15 8.21625e-10)
(8.89603e-18 2.92256e-18 7.94254e-10)
(4.73436e-18 3.47423e-15 7.7629e-10)
(4.46108e-18 1.81226e-18 7.50258e-10)
(-1.96316e-17 1.73515e-15 7.33374e-10)
(-6.01941e-18 9.82279e-19 7.08697e-10)
(3.03661e-18 -3.9968e-18 6.92866e-10)
(-6.95104e-18 -8.3329e-18 6.6925e-10)
(-6.80077e-18 -7.03366e-18 6.54342e-10)
(-4.72859e-18 1.74258e-15 6.31935e-10)
(8.50324e-18 8.48368e-18 6.17906e-10)
(9.64453e-18 -8.97804e-19 5.9645e-10)
(-5.85718e-18 -8.00636e-18 5.83344e-10)
(-7.18421e-18 -7.29962e-18 5.62977e-10)
(-4.90979e-18 1.74246e-15 5.5068e-10)
(8.54808e-18 8.46733e-18 5.31198e-10)
(9.69917e-18 -8.98458e-19 5.19766e-10)
(-5.82198e-18 -8.00839e-18 5.01194e-10)
(-7.21374e-18 -7.30492e-18 4.90512e-10)
(-5.00805e-18 1.74245e-15 4.72826e-10)
(8.46698e-18 8.47406e-18 4.62908e-10)
(9.68499e-18 -8.89048e-19 4.46059e-10)
(-5.83286e-18 -8.00009e-18 4.36915e-10)
(-7.24948e-18 -7.31219e-18 4.20827e-10)
(-5.08522e-18 1.74243e-15 4.1211e-10)
(8.36258e-18 8.48049e-18 3.96854e-10)
(9.63833e-18 -8.62917e-19 3.88977e-10)
(-5.77549e-18 -7.99349e-18 3.74287e-10)
(-7.18232e-18 -7.32373e-18 3.6715e-10)
(-5.04231e-18 1.74242e-15 3.53213e-10)
(8.3988e-18 8.48372e-18 3.46642e-10)