/*--------------------------------*- C++ -*----------------------------------*\
  =========                 |
  \\      /  F ield         | OpenFOAM: The Open Source CFD Toolbox
   \\    /   O peration     | Website:  https://openfoam.org
    \\  /    A nd           | Version:  11
     \\/     M anipulation  |
\*---------------------------------------------------------------------------*/
FoamFile
{
    format      ascii;
    class       surfaceScalarField;
    location    "14.476131";
    object      phi;
}
// * * * * * * * * * * * * * * * * * * * * * * * * * * * * * * * * * * * * * //

dimensions      [0 3 -1 0 0 0 0];

internalField   nonuniform List<scalar> 
14638
(
0.00250213
-2.12685e-06
0.00250843
-6.30213e-06
0.00251913
-1.07029e-05
0.00253465
-1.55182e-05
0.0025555
-2.08501e-05
0.00258203
-2.65342e-05
0.0026142
-3.21688e-05
0.00265111
-3.69091e-05
0.00269092
-3.98087e-05
0.00273078
-3.98579e-05
0.00276719
-3.64131e-05
0.0027973
-3.011e-05
0.00281872
-2.14229e-05
0.00282948
-1.07595e-05
0.00282789
1.59128e-06
0.0028127
1.51901e-05
0.00278417
2.85307e-05
0.00274485
3.93224e-05
0.00269938
4.54703e-05
0.00265371
4.56721e-05
0.00261416
3.95428e-05
0.0025866
2.7569e-05
0.00257548
1.11125e-05
0.00258297
-7.4833e-06
0.00260763
-2.46651e-05
0.00264356
-3.59263e-05
0.00268084
-3.72815e-05
0.00270837
-2.75311e-05
0.00271782
-9.45014e-06
0.00270629
1.15315e-05
0.00267628
3.00065e-05
0.00263379
4.24912e-05
0.00258622
4.75759e-05
0.0025411
4.51147e-05
0.00250566
3.54363e-05
0.00248657
1.90993e-05
0.00248927
-2.70333e-06
0.00251648
-2.72132e-05
0.00256578
-4.92994e-05
0.00262803
-6.22496e-05
0.00268871
-6.06837e-05
0.0027326
-4.38888e-05
0.00274939
-1.67868e-05
0.00273686
1.25317e-05
0.00270017
3.66871e-05
0.00264858
5.15948e-05
0.00259212
5.64595e-05
0.00253989
5.22251e-05
0.00249984
4.0054e-05
0.00247904
2.07987e-05
0.00248336
-4.31649e-06
0.00251559
-3.22356e-05
0.00257272
-5.71273e-05
0.00264423
-7.15109e-05
0.00271377
-6.95394e-05
0.00276422
-5.04512e-05
0.0027838
-1.95763e-05
0.00276976
1.40348e-05
0.00272808
4.1678e-05
0.00266987
5.82134e-05
0.00260719
6.26761e-05
0.00255049
5.67041e-05
0.00250804
4.24546e-05
0.00248651
2.15218e-05
0.00249105
-4.53589e-06
0.00252369
-3.26454e-05
0.00258101
-5.73133e-05
0.00265273
-7.17197e-05
0.00272328
-7.05528e-05
0.00277612
-5.28398e-05
0.00279902
-2.28954e-05
0.00278778
1.12337e-05
0.00274691
4.08712e-05
0.0026871
5.98068e-05
0.00262129
6.58187e-05
0.00256121
6.00763e-05
0.00251603
4.51795e-05
0.00249254
2.3486e-05
0.00249546
-2.91959e-06
0.00252632
-3.08584e-05
0.00258149
-5.51649e-05
0.0026512
-6.9716e-05
0.00272115
-6.99429e-05
0.00277619
-5.50492e-05
0.00280469
-2.84948e-05
0.00280138
3.30601e-06
0.00276828
3.3104e-05
0.00271341
5.48661e-05
0.00264829
6.51206e-05
0.00258503
6.32601e-05
0.00253429
5.07445e-05
0.00250444
2.98476e-05
0.00250128
3.16175e-06
0.002527
-2.5718e-05
0.00257858
-5.15827e-05
0.00264706
-6.84808e-05
0.00271896
-7.19048e-05
0.00277975
-6.07894e-05
0.00281773
-3.79742e-05
0.0028267
-8.97217e-06
0.00280667
2.00337e-05
0.00276276
4.39037e-05
0.00270343
5.93352e-05
0.00263865
6.47734e-05
0.00257871
5.99456e-05
0.00253328
4.54273e-05
0.0025107
2.25774e-05
0.00251667
-5.96869e-06
0.00255239
-3.57205e-05
0.00261311
-6.0719e-05
0.00268833
-7.52222e-05
0.00276417
-7.58379e-05
0.00282698
-6.28112e-05
0.00286682
-3.9833e-05
0.00287944
-1.26232e-05
0.00286649
1.29521e-05
0.00283401
3.24794e-05
0.00279025
4.37578e-05
0.00274373
4.65194e-05
0.0027022
4.15287e-05
0.00267238
2.98213e-05
0.00265969
1.26877e-05
0.0026674
-7.71054e-06
0.00269533
-2.79224e-05
0.00273906
-4.37285e-05
0.00279057
-5.15126e-05
0.00284025
-4.96825e-05
0.00287954
-3.92946e-05
0.00290315
-2.36096e-05
0.00291009
-6.9329e-06
0.00290341
6.67349e-06
0.00288906
1.4353e-05
0.00287419
1.48696e-05
0.00286568
8.51488e-06
0.00286898
-3.29912e-06
0.00288749
-1.8518e-05
0.00292227
-3.47764e-05
0.00297182
-4.95468e-05
0.00303205
-6.02353e-05
0.00309649
-6.44369e-05
0.00315691
-6.04195e-05
0.00320458
-4.76725e-05
0.00323184
-2.72569e-05
0.0032336
-1.7647e-06
0.00320846
2.51379e-05
0.003159
4.94693e-05
0.00309116
6.78317e-05
0.00301306
7.81057e-05
0.00293332
7.97431e-05
0.00285973
7.35884e-05
0.00279833
6.1396e-05
0.00275306
4.52732e-05
0.00272576
2.73007e-05
0.0027164
9.35795e-06
0.00272338
-6.9855e-06
0.00274364
-2.02596e-05
0.0027735
-2.98587e-05
0.0028076
-3.40926e-05
0.00284377
-3.61743e-05
-2.65665e-05
0.00250211
-4.23498e-06
0.00250836
-1.25503e-05
0.00251898
-2.13307e-05
0.00253444
-3.09738e-05
0.00255529
-4.16983e-05
0.00258194
-5.3188e-05
0.00261442
-6.46444e-05
0.00265185
-7.43399e-05
0.00269238
-8.03392e-05
0.00273303
-8.05127e-05
0.00277014
-7.35226e-05
0.00280082
-6.07885e-05
0.00282271
-4.3308e-05
0.00283384
-2.18974e-05
0.00283248
2.95761e-06
0.00281717
3.05004e-05
0.00278803
5.76728e-05
0.00274762
7.97244e-05
0.00270076
9.23323e-05
0.00265359
9.28454e-05
0.00261264
8.04895e-05
0.00258398
5.62282e-05
0.00257235
2.27459e-05
0.00258017
-1.53002e-05
0.0026062
-5.06949e-05
0.00264435
-7.4082e-05
0.00268412
-7.70501e-05
0.00271359
-5.69991e-05
0.00272386
-1.9723e-05
0.00271197
2.34198e-05
0.00268075
6.1225e-05
0.00263661
8.66367e-05
0.00258723
9.69578e-05
0.0025403
9.20409e-05
0.00250316
7.25813e-05
0.00248267
3.95856e-05
0.00248473
-4.76513e-06
0.00251257
-5.50551e-05
0.00256403
-0.000100756
0.00262958
-0.000127798
0.00269368
-0.000124789
0.00273997
-9.01767e-05
0.00275748
-3.42927e-05
0.00274406
2.59464e-05
0.00270548
7.52705e-05
0.00265163
0.000105448
0.00259295
0.000115141
0.00253866
0.000106515
0.00249673
8.19824e-05
0.00247443
4.30987e-05
0.00247807
-7.95464e-06
0.00251101
-6.51757e-05
0.00257049
-0.000116617
0.00264565
-0.000146668
0.00271907
-0.00014296
0.00277236
-0.000103743
0.0027929
-4.01153e-05
0.00277792
2.9023e-05
0.00273399
8.56027e-05
0.00267307
0.000119131
0.00260783
0.000127917
0.00254889
0.000115643
0.00250446
8.68871e-05
0.00248119
4.47872e-05
0.00248448
-7.82343e-06
0.00251687
-6.50302e-05
0.0025753
-0.000115749
0.00264948
-0.000145895
0.00272323
-0.000144302
0.0027791
-0.000108711
0.00280402
-4.78166e-05
0.00279335
2.19001e-05
0.00275165
8.25789e-05
0.00269004
0.000121413
0.00262199
0.000133864
0.00255964
0.000122429
0.00251233
9.24952e-05
0.00248706
4.87541e-05
0.00248897
-4.82751e-06
0.00252005
-6.19466e-05
0.00257681
-0.00011192
0.002649
-0.000141912
0.00272148
-0.000142413
0.00277836
-0.000111939
0.00280771
-5.78441e-05
0.00280437
6.64652e-06
0.0027706
6.68732e-05
0.00271467
0.000110796
0.00264823
0.000131568
0.00258347
0.00012802
0.00253123
0.000102985
0.00250028
6.07928e-05
0.002497
6.43816e-06
0.00252406
-5.27726e-05
0.00257837
-0.000105893
0.00265025
-0.000140361
0.00272515
-0.000146804
0.00278761
-0.000123255
0.00282559
-7.5951e-05
0.00283315
-1.65346e-05
0.00281093
4.22608e-05
0.00276471
9.0121e-05
0.00270338
0.000120661
0.00263709
0.00013107
0.00257607
0.00012096
0.00253011
9.13906e-05
0.00250784
4.48477e-05
0.00251535
-1.34827e-05
0.00255396
-7.43281e-05
0.00261845
-0.000125206
0.00269741
-0.000154181
0.00277598
-0.000154412
0.00283988
-0.000126711
0.002879
-7.8955e-05
0.00288942
-2.30427e-05
0.00287336
2.90169e-05
0.00283752
6.83181e-05
0.00279074
9.054e-05
0.00274193
9.53272e-05
0.00269909
8.43682e-05
0.00266912
5.97887e-05
0.00265764
2.41683e-05
0.002668
-1.80652e-05
0.00269976
-5.96858e-05
0.00274785
-9.18202e-05
0.0028033
-0.000106963
0.00285562
-0.000102003
0.00289576
-7.94285e-05
0.00291839
-4.6243e-05
0.0029229
-1.14484e-05
0.00291293
1.66469e-05
0.00289495
3.23348e-05
0.00287656
3.32607e-05
0.00286491
2.01602e-05
0.00286565
-4.03113e-06
0.0028823
-3.51709e-05
0.00291607
-6.85496e-05
0.00296564
-9.91143e-05
0.00302699
-0.000121582
0.00309349
-0.000130941
0.00315657
-0.000123501
0.00320699
-9.80951e-05
0.0032366
-5.68613e-05
0.00323996
-5.1299e-06
0.00321552
4.95795e-05
0.00316587
9.91207e-05
0.00309716
0.000136546
0.00301773
0.000157533
0.00293649
0.000160979
0.00286145
0.000148627
0.00279878
0.000124066
0.00275247
9.15855e-05
0.00272437
5.53999e-05
0.00271445
1.92859e-05
0.00272107
-1.36087e-05
0.00274117
-4.03601e-05
0.00277102
-5.97107e-05
0.00280523
-6.8302e-05
0.00284158
-7.25223e-05
-5.31517e-05
0.00250207
-6.30458e-06
0.0025082
-1.86834e-05
0.00251867
-3.18009e-05
0.00253399
-4.62941e-05
0.00255483
-6.25334e-05
0.00258172
-8.00775e-05
0.00261482
-9.77421e-05
0.00265332
-0.00011284
0.00269533
-0.000122359
0.00273763
-0.000122804
0.00277614
-0.000112037
0.00280793
-9.25816e-05
0.00283069
-6.60645e-05
0.00284251
-3.37213e-05
0.00284153
3.94686e-06
0.0028259
4.61282e-05
0.00279545
8.81227e-05
0.00275281
0.000122365
0.00270311
0.000142027
0.00265294
0.000143013
0.00260927
0.000124159
0.00257861
8.68974e-05
0.00256617
3.51776e-05
0.00257495
-2.40722e-05
0.002604
-7.97491e-05
0.00264686
-0.000116938
0.00269169
-0.000121883
0.00272487
-9.01853e-05
0.00273638
-3.12301e-05
0.00272323
3.65762e-05
0.00268905
9.53955e-05
0.00264123
0.000134458
0.0025881
0.000150096
0.00253763
0.00014251
0.00249734
0.00011287
0.00247451
6.2418e-05
0.00247584
-6.09491e-06
0.00250559
-8.48139e-05
0.00256206
-0.000157225
0.00263474
-0.000200476
0.0027058
-0.000195848
0.00275647
-0.000140843
0.00277458
-5.24058e-05
0.00275842
4.21037e-05
0.0027152
0.000118494
0.00265629
0.000164356
0.00259299
0.00017844
0.00253473
0.000164774
0.00248944
0.000127273
0.00246453
6.8007e-05
0.00246688
-1.02985e-05
0.00250071
-9.90112e-05
0.00256402
-0.000179927
0.00264578
-0.000228425
0.00272699
-0.000224168
0.00278661
-0.000163365
0.00280976
-6.32676e-05
0.00279312
4.56613e-05
0.00274453
0.000134198
0.00267788
0.000185778
0.00260734
0.000198454
0.00254404
0.00017895
0.00249596
0.000134961
0.00246963
7.11254e-05
0.00247088
-9.08081e-06
0.00250327
-9.74191e-05
0.00256443
-0.000176906
0.00264364
-0.000225112
0.00272336
-0.000224014
0.00278443
-0.000169789
0.00281252
-7.58998e-05
0.00280237
3.20458e-05
0.00275873
0.000126216
0.00269355
0.000186594
0.00262127
0.000206147
0.00255475
0.00018895
0.0025038
0.000143442
0.00247602
7.65336e-05
0.00247745
-6.25535e-06
0.00251084
-9.53395e-05
0.00257244
-0.00017352
0.00265055
-0.000220014
0.00272798
-0.000219846
0.00278744
-0.000171403
0.0028167
-8.71047e-05
0.0028113
1.20475e-05
0.00277451
0.000103671
0.00271535
0.000169956
0.00264582
0.000201094
0.00257826
0.000195585
0.00252377
0.00015747
0.00249188
9.26861e-05
0.00248994
8.37215e-06
0.00252117
-8.3995e-05
0.00258187
-0.0001666
0.0026607
-0.000219193
0.00274111
-0.000227206
0.00280612
-0.000188271
0.0028432
-0.000113023
0.00284696
-2.02976e-05
0.00281933
6.98891e-05
0.00276756
0.000141895
0.00270156
0.000186652
0.00263192
0.000200714
0.00256894
0.000183937
0.00252258
0.00013775
0.00250198
6.54536e-05
0.00251364
-2.51485e-05
0.00255859
-0.000119278
0.00263037
-0.000196981
0.00271584
-0.000239651
0.00279867
-0.000237239
0.00286375
-0.000191799
0.00290093
-0.000116132
0.00290681
-2.89206e-05
0.00288458
5.12436e-05
0.00284215
0.000110751
0.00278945
0.000143237
0.00273624
0.000148542
0.00269106
0.00012955
0.00266126
8.95882e-05
0.0026528
3.26222e-05
0.002669
-3.4261e-05
0.0027086
-9.92894e-05
0.00276495
-0.000148166
0.00282723
-0.00016924
0.00288352
-0.000158299
0.00292418
-0.00012009
0.00294413
-6.61909e-05
0.00294355
-1.08637e-05
0.00292709
3.31023e-05
0.00290224
5.71846e-05
0.00287737
5.81305e-05
0.00286014
3.73951e-05
0.00285648
-3.7741e-07
0.00287024
-4.89307e-05
0.00290295
-0.00010126
0.00295356
-0.000149725
0.00301802
-0.000186041
0.0030892
-0.000202116
0.0031576
-0.000191903
0.00321298
-0.000153472
0.00324634
-9.02255e-05
0.00325181
-1.05956e-05
0.00322771
7.36796e-05
0.00317685
0.000149978
0.00310582
0.000207576
0.00302351
0.000239845
0.00293932
0.000245167
0.00286164
0.000226309
0.00279684
0.000188858
0.002749
0.000139432
0.00271992
8.44822e-05
0.00270949
2.97157e-05
0.002716
-2.01194e-05
0.00273631
-6.06753e-05
0.00276657
-8.99666e-05
0.00280127
-0.000103006
0.00283806
-0.000109311
-7.96708e-05
0.00250201
-8.31234e-06
0.00250796
-2.4632e-05
0.00251817
-4.20138e-05
0.00253326
-6.13823e-05
0.00255404
-8.33137e-05
0.00258125
-0.000107289
0.00261527
-0.000131761
0.0026554
-0.000152967
0.00269973
-0.000166689
0.00274456
-0.000167638
0.00278522
-0.000152698
0.0028187
-0.000126056
0.00284278
-9.01527e-05
0.00285571
-4.66521e-05
0.00285539
4.27177e-06
0.00283931
6.22086e-05
0.0028068
0.000120635
0.00276062
0.000168546
0.00270649
0.000196154
0.00265169
0.000197808
0.00260385
0.000172004
0.00257009
0.000120657
0.0025564
4.887e-05
0.00256661
-3.42878e-05
0.00260039
-0.000113526
0.00265068
-0.000167227
0.00270355
-0.000174752
0.00274258
-0.000129213
0.00275588
-4.45375e-05
0.00274051
5.19444e-05
0.00270153
0.000134382
0.00264789
0.000188098
0.00258895
0.000209033
0.00253311
0.000198349
0.00248808
0.000157897
0.0024617
8.88059e-05
0.00246194
-6.33464e-06
0.00249475
-0.000117631
0.00255921
-0.000221683
0.00264332
-0.000284589
0.00272554
-0.000278059
0.00278303
-0.000198334
0.00280168
-7.10616e-05
0.00278065
6.3133e-05
0.00272969
0.000169456
0.00266267
0.000231373
0.00259226
0.000248852
0.0025281
0.000228939
0.00247774
0.000177631
0.00244832
9.74269e-05
0.00244713
-9.10783e-06
0.00247987
-0.000131756
0.00254639
-0.000246445
0.0026363
-0.000318339
0.00272891
-0.000316772
0.00279947
-0.000233929
0.00282916
-9.2957e-05
0.00281266
6.21646e-05
0.00275876
0.000188092
0.00268422
0.000260318
0.00260585
0.000276831
0.00253589
0.000248902
0.00248225
0.000188605
0.00245138
0.000101998
0.00245022
-7.92151e-06
0.00248398
-0.000131178
0.00255079
-0.000243715
0.00263832
-0.000312642
0.00272623
-0.000311923
0.00279318
-0.000236739
0.00282392
-0.000106648
0.0028133
4.26717e-05
0.00276655
0.000172961
0.00269649
0.000256663
0.00261852
0.00028411
0.0025464
0.00026107
0.00249078
0.000199067
0.00246045
0.000106864
0.00246293
-8.73772e-06
0.00250167
-0.000134085
0.00257181
-0.000243657
0.00265898
-0.000307182
0.00274314
-0.000304008
0.00280521
-0.000233468
0.00283279
-0.000114694
0.0028227
2.21452e-05
0.00277996
0.000146408
0.00271504
0.000234878
0.00264058
0.000275549
0.00256911
0.000267061
0.00251211
0.00021447
0.00248007
0.000124722
0.00248147
6.97232e-06
0.00251965
-0.000122171
0.00258951
-0.000236459
0.00267729
-0.000306973
0.00276417
-0.000314089
0.00283179
-0.000255893
0.0028672
-0.000148432
0.00286561
-1.87066e-05
0.00283036
0.000105138
0.00277054
0.000201721
0.00269761
0.00025958
0.00262298
0.000275337
0.00255732
0.000249601
0.00251093
0.000184143
0.00249346
8.29175e-05
0.00251155
-4.32325e-05
0.00256518
-0.000172911
0.0026459
-0.0002777
0.00273849
-0.000332241
0.00282527
-0.000324024
0.00289075
-0.000257274
0.00292497
-0.000150352
0.00292514
-2.90871e-05
0.00289535
8.10268e-05
0.00284474
0.000161365
0.00278455
0.000203422
0.00272571
0.000207388
0.00267771
0.000177553
0.00264869
0.000118601
0.00264511
3.62027e-05
0.00266989
-5.9041e-05
0.00272017
-0.000149567
0.00278678
-0.000214772
0.0028565
-0.000238968
0.00291603
-0.000217825
0.00295551
-0.000159573
0.0029706
-8.12812e-05
0.00296264
-2.90182e-06
0.00293753
5.82172e-05
0.00290384
9.08722e-05
0.00287079
9.11774e-05
0.00284661
6.15764e-05
0.0028377
8.53277e-06
0.00284844
-5.96674e-05
0.00288094
-0.000133765
0.00293442
-0.000203203
0.00300436
-0.000255985
0.00308248
-0.000280234
0.00315787
-0.000267288
0.00321909
-0.000214701
0.00325648
-0.000127616
0.00326389
-1.79967e-05
0.00323967
9.78917e-05
0.00318695
0.000202699
0.00311282
0.000281707
0.0030268
0.000325868
0.00293891
0.00033306
0.00285799
0.000307223
0.0027907
0.000256148
0.00274117
0.000188968
0.00271115
0.000114499
0.00270044
4.04223e-05
0.00270721
-2.68847e-05
0.00272821
-8.16769e-05
0.00275934
-0.000121093
0.00279493
-0.000138604
0.00283234
-0.000146719
-0.000105993
0.00250192
-1.02301e-05
0.0025076
-3.03125e-05
0.00251743
-5.18447e-05
0.00253215
-7.61048e-05
0.00255279
-0.000103951
0.00258036
-0.000134864
0.00261558
-0.000166977
0.00265792
-0.000195307
0.00270548
-0.00021425
0.00275386
-0.000216021
0.00279743
-0.000196264
0.0028331
-0.000161732
0.00285891
-0.000115956
0.00287333
-6.10797e-05
0.00287404
3.56267e-06
0.00285753
7.87245e-05
0.00282232
0.000155839
0.00277134
0.000219526
0.00271113
0.000256371
0.00264992
0.000259012
0.00259623
0.000225694
0.00255804
0.000158847
0.00254238
6.45367e-05
0.00255439
-4.63028e-05
0.00259472
-0.000153852
0.00265562
-0.000228124
0.00272008
-0.000239218
0.0027675
-0.000176632
0.00278325
-6.02829e-05
0.0027645
7.06894e-05
0.00271853
0.000180354
0.0026567
0.000249932
0.00258979
0.00027594
0.00252665
0.000261488
0.00247513
0.000209418
0.00244366
0.000120275
0.00244166
-4.33466e-06
0.00247697
-0.000152947
0.00255018
-0.000294887
0.00264893
-0.000383341
0.00274773
-0.000376858
0.00281719
-0.000267799
0.00283854
-9.24046e-05
0.00281132
9.03554e-05
0.00274937
0.000231404
0.00267085
0.000309891
0.00259068
0.000329023
0.0025186
0.000301017
0.00246108
0.000235154
0.00242434
0.000134166
0.00241657
-1.33531e-06
0.00244652
-0.000161706
0.0025169
-0.000316825
0.00261718
-0.000418623
0.00272359
-0.000423187
0.00280746
-0.00031779
0.00284631
-0.000131815
0.00283233
7.61461e-05
0.0027742
0.000246224
0.00269115
0.000343371
0.00260319
0.000364787
0.0025245
0.0003276
0.00246344
0.000249663
0.00242727
0.000138166
0.00242499
-5.64402e-06
0.00246359
-0.000169779
0.00254039
-0.000320511
0.00263959
-0.000411847
0.00273694
-0.000409273
0.00280878
-0.000308576
0.00283975
-0.000137618
0.00282592
5.65047e-05
0.00277392
0.000224961
0.00269753
0.000333047
0.00261289
0.000368759
0.00253439
0.000339562
0.00247384
0.000259616
0.00244186
0.000138853
0.00244763
-1.4514e-05
0.00249461
-0.00018106
0.00257564
-0.000324689
0.00267307
-0.000404613
0.00276414
-0.000395078
0.00282832
-0.000297644
0.00285314
-0.000139516
0.00283658
3.87006e-05
0.00278572
0.000197267
0.00271294
0.000307657
0.002632
0.000356492
0.00255584
0.00034322
0.00249653
0.000273785
0.00246559
0.00015566
0.00247228
2.78885e-07
0.00251927
-0.000169157
0.0025992
-0.000316386
0.00269567
-0.000403445
0.00278808
-0.000406499
0.00285737
-0.000325189
0.00289059
-0.000181652
0.00288337
-1.14803e-05
0.00284005
0.000148453
0.00277135
0.000270428
0.00269042
0.000340503
0.00260992
0.000355835
0.00254127
0.000318256
0.0024954
0.000230009
0.0024824
9.59189e-05
0.00250839
-6.92199e-05
0.00257153
-0.000236053
0.00266086
-0.000367032
0.00275921
-0.000430587
0.00284815
-0.000412964
0.00291244
-0.000321565
0.00294278
-0.000180691
0.00293697
-2.32755e-05
0.00289973
0.000118262
0.00284107
0.000220024
0.00277341
0.000271086
0.00270894
0.000271852
0.0026585
0.000228
0.00263139
0.000145708
0.00263457
3.30252e-05
0.00267
-9.44731e-05
0.00273222
-0.000211793
0.00280884
-0.000291383
0.0028842
-0.000314335
0.0029442
-0.000277819
0.00297959
-0.000194967
0.00298735
-8.90435e-05
0.00297023
1.42231e-05
0.00293533
9.31205e-05
0.00289216
0.00013404
0.0028506
0.000132732
0.00281942
9.27616e-05
0.00280564
2.2308e-05
0.00281449
-6.85146e-05
0.00284872
-0.000167993
0.00290729
-0.000261772
0.00298436
-0.000333059
0.00306985
-0.000365723
0.00315147
-0.000348909
0.00321725
-0.000280475
0.00325752
-0.00016789
0.0032663
-2.6779e-05
0.00324205
0.00012214
0.00318798
0.000256775
0.00311142
0.000358269
0.00302233
0.000414959
0.00293126
0.000424122
0.00284756
0.000390927
0.00277816
0.000325543
0.00272732
0.000239806
0.00269679
0.000145037
0.00268628
5.09301e-05
0.00269383
-3.4432e-05
0.00271603
-0.000103883
0.00274839
-0.000153451
0.00278504
-0.000175253
0.00282286
-0.000184539
-0.000131748
0.00250179
-1.20234e-05
0.0025071
-3.56226e-05
0.00251639
-6.11352e-05
0.00253057
-9.02778e-05
0.00255091
-0.000124292
0.00257882
-0.000162779
0.00261548
-0.000203629
0.00266065
-0.000240478
0.00271251
-0.000266112
0.00276562
-0.00026913
0.00281292
-0.000243561
0.00285133
-0.000200147
0.00287931
-0.000143935
0.00289585
-7.76173e-05
0.00289821
1.19713e-06
0.00288132
9.56203e-05
0.00284253
0.000194622
0.00278508
0.000276976
0.00271676
0.000324698
0.00264712
0.000328644
0.00258576
0.000287062
0.00254162
0.000202987
0.00252304
8.31108e-05
0.00253709
-6.03552e-05
0.00258604
-0.000202796
0.00266141
-0.000303491
0.00274188
-0.000319698
0.00280083
-0.000235576
0.00281969
-7.91466e-05
0.00279602
9.43638e-05
0.00274041
0.000235966
0.00266767
0.00032267
0.00259046
0.000353147
0.00251804
0.000333907
0.00245819
0.000269271
0.00241943
0.000159036
0.00241151
3.57765e-06
0.00244373
-0.000185163
0.00252035
-0.000371506
0.00263281
-0.000495805
0.00275405
-0.000498097
0.00284572
-0.000359468
0.00287857
-0.00012525
0.00284858
0.000120338
0.00277428
0.000305711
0.00268102
0.000403147
0.0025882
0.00042185
0.00250593
0.000383278
0.0024388
0.000302285
0.00239215
0.00018082
0.00237692
1.38939e-05
0.00240676
-0.000191544
0.00248615
-0.000396214
0.00260098
-0.000533453
0.00272192
-0.000544136
0.00281683
-0.0004127
0.00286225
-0.000177227
0.00284981
8.8583e-05
0.00278785
0.000308187
0.00269665
0.000434569
0.00259856
0.000462871
0.00250983
0.000416333
0.00244035
0.000319144
0.00239952
0.000178991
0.00239898
-5.09836e-06
0.0024463
-0.000217098
0.00253597
-0.000410181
0.00264779
-0.000523667
0.00275402
-0.000515501
0.00282935
-0.00038391
0.00285852
-0.000166788
0.00283908
7.59489e-05
0.00277967
0.00028437
0.00269555
0.000417163
0.00260352
0.000460792
0.00251853
0.000424547
0.00245369
0.000324461
0.00242163
0.000170915
0.00243277
-2.56616e-05
0.00248939
-0.000237677
0.00258121
-0.000416504
0.0026875
-0.000510905
0.00278383
-0.000491409
0.00284916
-0.000362979
0.00287107
-0.000161426
0.00284813
6.16481e-05
0.00278885
0.00025654
0.00270753
0.000388979
0.00261941
0.000444613
0.00253836
0.000424269
0.00247733
0.000334819
0.0024488
0.000184183
0.00246215
-1.30701e-05
0.0025184
-0.000225408
0.00260743
-0.000405411
0.00271051
-0.000506526
0.00280613
-0.000502116
0.00287545
-0.000394513
0.00290602
-0.000212223
0.00289377
7.64865e-07
0.00284348
0.000198744
0.00276681
0.000347105
0.00267834
0.000428976
0.00259213
0.000442041
0.0025208
0.000389584
0.00247621
0.000274601
0.00246863
0.000103494
0.00250301
-0.000103599
0.00257502
-0.000308055
0.00267108
-0.000463095
0.00277259
-0.000532098
0.00286114
-0.000501513
0.00292238
-0.000382804
0.00294799
-0.000206305
0.00293641
-1.16896e-05
0.00289269
0.000161974
0.00282729
0.000285432
0.0027534
0.000344974
0.00268446
0.000340788
0.00263285
0.000279612
0.00260931
0.00016925
0.00262105
2.12806e-05
0.00266822
-0.000141637
0.00274177
-0.000285347
0.00282581
-0.000375419
0.00290293
-0.000391458
0.0029593
-0.000334187
0.00298722
-0.000222892
0.00298544
-8.7265e-05
0.00295813
4.15335e-05
0.00291337
0.000137883
0.00286126
0.000186152
0.00281207
0.000181922
0.00277506
0.000129773
0.00275813
3.92389e-05
0.00276743
-7.78153e-05
0.0028058
-0.000206364
0.00287079
-0.000326762
0.0029543
-0.000416568
0.00304453
-0.000455953
0.00312884
-0.000433223
0.00319598
-0.000347611
0.00323723
-0.00020914
0.00324709
-3.6637e-05
0.00322392
0.000145307
0.00317054
0.000310155
0.00309397
0.000434838
0.00300416
0.000504766
0.00291196
0.000516321
0.00282711
0.000475779
0.0027569
0.000395753
0.00270578
0.000290922
0.00267559
0.000175235
0.00266604
6.04758e-05
0.002675
-4.33951e-05
0.00269879
-0.000127672
0.00273235
-0.000187003
0.00276963
-0.000212534
0.00280702
-0.000221929
-0.000156261
0.00250163
-1.36502e-05
0.00250644
-4.0437e-05
0.00251499
-6.96842e-05
0.00252836
-0.000103651
0.00254816
-0.000144093
0.0025763
-0.000190915
0.00261456
-0.000241891
0.00266322
-0.000289135
0.00272067
-0.000323561
0.00277991
-0.000328366
0.00283177
-0.000295427
0.00287331
-0.000241683
0.0029037
-0.000174322
0.00292285
-9.67697e-05
0.00292769
-3.6477e-06
0.00291086
0.000112457
0.00286792
0.000237563
0.00280242
0.000342472
0.00272383
0.000403282
0.00264348
0.000409002
0.00257222
0.000358315
0.00252015
0.00025506
0.00249722
0.000106046
0.00251332
-7.64626e-05
0.00257366
-0.00026313
0.0026689
-0.000398733
0.00277112
-0.000421916
0.00284503
-0.000309489
0.00286719
-0.000101304
0.0028362
0.000125354
0.00276753
0.000304636
0.00268071
0.000409491
0.00259072
0.000443129
0.00250713
0.000417498
0.00243698
0.000339427
0.00238714
0.000208871
0.00236604
2.46848e-05
0.00238596
-0.000205092
0.00245922
-0.000444756
0.00258338
-0.000619974
0.00273016
-0.000644877
0.00285264
-0.000481945
0.00290882
-0.000181425
0.00288548
0.000143676
0.00280227
0.000388923
0.0026931
0.000512309
0.00258495
0.000530005
0.0024899
0.000478329
0.00241093
0.000381252
0.00235385
0.000237903
0.00233445
3.32899e-05
0.0023707
-0.000227789
0.00246503
-0.000490548
0.00259667
-0.000665093
0.00273059
-0.000678055
0.00283245
-0.00051456
0.00287948
-0.000224254
0.00286486
0.000103199
0.00279768
0.000375369
0.00269854
0.00053371
0.00259066
0.00057075
0.00249183
0.000515165
0.00241431
0.000396667
0.00237069
0.000222603
0.00237475
-9.15725e-06
0.00243264
-0.000274988
0.00253457
-0.000512104
0.00265648
-0.000645585
0.00276902
-0.000628037
0.00284656
-0.000461451
0.00287378
-0.000194005
0.00284874
0.000100991
0.0027816
0.00035151
0.00268933
0.000509426
0.00258981
0.000560313
0.00249882
0.00051554
0.00243091
0.000392367
0.00240048
0.000201344
0.00241819
-4.33728e-05
0.00248405
-0.000303532
0.00258446
-0.000516914
0.0026965
-0.000622944
0.00279533
-0.000590241
0.00286044
-0.00042809
0.00287972
-0.000180709
0.00285177
8.95994e-05
0.0027856
0.000322712
0.00269674
0.000477837
0.00260199
0.000539367
0.0025166
0.000509659
0.00245477
0.000396651
0.00242975
0.0002092
0.00245023
-3.35516e-05
0.00251485
-0.000290023
0.00261066
-0.000501225
0.00271733
-0.000613197
0.00281336
-0.000598144
0.00288089
-0.000462037
0.00290836
-0.000239697
0.00289203
1.70936e-05
0.00283662
0.000254157
0.00275401
0.000429715
0.00265965
0.000523338
0.00256892
0.000532769
0.00249588
0.000462618
0.00245347
0.000317014
0.00245184
0.000105121
0.00249412
-0.000145879
0.00257315
-0.000387083
0.00267312
-0.000563063
0.00277474
-0.00063372
0.00286033
-0.000587101
0.00291684
-0.000439314
0.0029371
-0.000226567
0.00292015
5.25822e-06
0.00287124
0.000210891
0.00280086
0.000355805
0.00272267
0.000423165
0.00265116
0.000412297
0.00260036
0.000330417
0.0025824
0.000187211
0.00260412
-4.43129e-07
0.00266271
-0.000200223
0.00274491
-0.000367546
0.0028318
-0.00046231
0.00290554
-0.000465199
0.00295388
-0.000382531
0.00297141
-0.000240419
0.00295875
-7.46029e-05
0.00292125
7.90324e-05
0.00286757
0.000191563
0.00280801
0.000245714
0.00275302
0.000236912
0.00271245
0.000170337
0.00269522
5.64719e-05
0.0027079
-9.05011e-05
0.00275202
-0.000250483
0.00282236
-0.000397098
0.00290852
-0.000502727
0.00299834
-0.000545772
0.00308051
-0.000515394
0.0031456
-0.000412696
0.00318624
-0.000249781
0.00319741
-4.78139e-05
0.00317715
0.000165573
0.00312741
0.000359894
0.00305434
0.000507909
0.00296734
0.000591759
0.00287719
0.000606478
0.00279383
0.000559136
0.00272489
0.000464692
0.00267512
0.000340692
0.00264654
0.000203812
0.00263893
6.809e-05
0.00264985
-5.43158e-05
0.00267515
-0.000152975
0.00270917
-0.000221017
0.00274591
-0.000249275
0.00278147
-0.000257486
-0.000178701
0.00250141
-1.506e-05
0.00250558
-4.46047e-05
0.00251313
-7.72412e-05
0.00252538
-0.000115895
0.00254428
-0.000162991
0.00257238
-0.000219019
0.00261232
-0.000281833
0.00266516
-0.000341977
0.00272981
-0.000388205
0.00279691
-0.000395474
0.00285428
-0.000352791
0.0028993
-0.000286709
0.00293244
-0.000207458
0.00295516
-0.000119493
0.00296382
-1.23078e-05
0.00294753
0.000128754
0.00289926
0.000285826
0.00282333
0.000418407
0.00273173
0.000494884
0.00263805
0.000502683
0.00255455
0.000441814
0.00249226
0.000317344
0.00246305
0.000135263
0.0024813
-9.4716e-05
0.00255731
-0.00033914
0.00268061
-0.000522034
0.00281272
-0.000554022
0.00290536
-0.000402128
0.00292939
-0.000125334
0.00288672
0.000168021
0.00280018
0.000391173
0.00269548
0.000514197
0.00259024
0.000548365
0.00249383
0.000513905
0.00241091
0.000422354
0.00234453
0.000275249
0.00230328
6.59301e-05
0.0023088
-0.000210607
0.0023835
-0.000519459
0.00252423
-0.000760701
0.00269512
-0.000815769
0.00284402
-0.000630851
0.00292397
-0.000261374
0.00291358
0.000154069
0.00282786
0.000474647
0.00270523
0.000634939
0.00258076
0.000654467
0.00247078
0.000588315
0.00237891
0.000473116
0.00231366
0.000303158
0.00229571
5.12377e-05
0.00234352
-0.000275598
0.00245355
-0.000600579
0.00259861
-0.000810158
0.00274122
-0.000820663
0.00284705
-0.000620385
0.00289371
-0.000270913
0.00287526
0.000121644
0.002802
0.000448633
0.00269518
0.000640524
0.00257838
0.000687551
0.00247052
0.000623028
0.0023866
0.000480584
0.00234251
0.000266698
0.00235278
-1.94328e-05
0.00242046
-0.000342661
0.00253128
-0.000622923
0.00265884
-0.000773146
0.00277401
-0.000743208
0.0028522
-0.000539639
0.0028782
-0.000220004
0.00284953
0.000129654
0.00277655
0.000424491
0.0026774
0.000608577
0.00257131
0.000666401
0.00247544
0.000611414
0.00240599
0.00046181
0.00237855
0.000228786
0.00240292
-6.77425e-05
0.00247622
-0.00037683
0.00258197
-0.000622667
0.00269614
-0.000737116
0.00279454
-0.000688637
0.00285788
-0.000491434
0.00287474
-0.000197566
0.0028435
0.000120844
0.00277283
0.000393375
0.00267866
0.000572009
0.00257894
0.000639084
0.00249053
0.000598075
0.00242908
0.000458099
0.00240831
0.000229965
0.00243553
-6.07624e-05
0.00250658
-0.00036108
0.00260616
-0.000600806
0.00271321
-0.000720243
0.00280703
-0.000691967
0.00287118
-0.000526183
0.00289522
-0.000263737
0.00287574
3.65681e-05
0.00281718
0.000312719
0.00273109
0.000515803
0.00263317
0.000621256
0.00253983
0.000626113
0.00246657
0.00053588
0.00242731
0.000356274
0.00243168
0.00010075
0.00248053
-0.00019473
0.00256397
-0.000470522
0.00266465
-0.000663743
0.00276345
-0.000732521
0.00284393
-0.000667576
0.00289449
-0.000489877
0.00290908
-0.000241159
0.0028873
2.70452e-05
0.00283444
0.000263743
0.00276092
0.000429331
0.00268052
0.000503559
0.00260869
0.000484127
0.00256104
0.000378075
0.00255064
0.000197607
0.00258287
-3.26697e-05
0.00265084
-0.000268195
0.00273712
-0.000453832
0.00282113
-0.000546319
0.00288626
-0.000530322
0.00292294
-0.000419214
0.00292831
-0.000245786
0.00290461
-5.0912e-05
0.00285796
0.000125692
0.00279712
0.000252401
0.00273229
0.000310537
0.00267411
0.000295094
0.0026332
0.000211247
0.00261916
7.05173e-05
0.00263757
-0.000108913
0.00268684
-0.000299757
0.00275862
-0.000468876
0.00284174
-0.00058585
0.00292581
-0.000629837
0.0030021