/*--------------------------------*- C++ -*----------------------------------*\
  =========                 |
  \\      /  F ield         | OpenFOAM: The Open Source CFD Toolbox
   \\    /   O peration     | Website:  https://openfoam.org
    \\  /    A nd           | Version:  11
     \\/     M anipulation  |
\*---------------------------------------------------------------------------*/
FoamFile
{
    format      ascii;
    class       volVectorField;
    location    "14.476131";
    object      vorticity;
}
// * * * * * * * * * * * * * * * * * * * * * * * * * * * * * * * * * * * * * //

dimensions      [0 0 -1 0 0 0 0];

internalField   nonuniform List<vector> 
7132
(
(-6.62481e-17 -1.8937e-15 -0.00843404)
(-2.39187e-16 -1.83418e-15 -0.00830132)
(-2.40693e-16 -4.55052e-17 -0.0083565)
(-3.04128e-16 -1.8335e-15 -0.00864101)
(-4.12332e-16 -1.79565e-15 -0.0091214)
(-3.9476e-16 2.1535e-17 -0.00972151)
(-3.44929e-16 4.82802e-17 -0.0103445)
(-2.71539e-16 5.37307e-17 -0.01089)
(-2.5813e-16 5.2181e-17 -0.0112761)
(-2.26283e-16 4.37762e-17 -0.0114507)
(-1.58703e-16 3.03935e-17 -0.0113992)
(-9.44435e-17 1.80532e-17 -0.0111682)
(-1.08188e-16 1.03121e-17 -0.0108286)
(-1.24812e-16 3.03033e-17 -0.0104857)
(-7.03582e-17 -1.68858e-15 -0.0102515)
(-1.10212e-17 -1.70347e-15 -0.0101955)
(4.02804e-17 -1.73091e-15 -0.0103315)
(4.53711e-17 4.4591e-18 -0.0106072)
(1.0261e-16 -1.72402e-15 -0.0109227)
(9.07991e-17 -1.73996e-15 -0.0111577)
(3.10447e-17 5.00884e-18 -0.011194)
(5.47628e-17 2.93091e-18 -0.0109405)
(1.74669e-18 -1.82269e-17 -0.0103753)
(-1.32256e-15 5.39405e-16 -0.00962564)
(-4.24715e-16 3.74583e-15 -0.0089098)
(8.78856e-15 2.2054e-15 -0.00839163)
(1.14089e-14 -1.93782e-16 -0.00816714)
(4.78279e-15 -2.13847e-15 -0.00833954)
(1.30712e-15 -1.84257e-15 -0.00901208)
(1.36731e-15 6.82561e-16 -0.010107)
(-1.46636e-15 2.32263e-15 -0.0113259)
(-1.00945e-14 6.20352e-15 -0.0123489)
(2.75861e-14 -4.48343e-16 -0.0129462)
(1.35911e-13 -3.51784e-14 -0.0129886)
(-3.27822e-13 -7.4187e-14 -0.0124397)
(-2.46315e-12 1.44167e-13 -0.0113805)
(-7.02759e-13 1.41276e-12 -0.0100913)
(3.23215e-11 4.29132e-12 -0.00905388)
(1.28771e-10 6.76958e-12 -0.0085942)
(2.47538e-10 4.92639e-12 -0.00859628)
(2.82675e-10 -1.18855e-12 -0.00872878)
(2.07594e-10 -6.01294e-12 -0.00898778)
(1.00878e-10 -5.9197e-12 -0.0097419)
(2.91975e-11 -3.3455e-12 -0.0111242)
(-5.02446e-14 -1.30699e-12 -0.0127449)
(-5.81177e-12 3.37902e-14 -0.0140638)
(-3.67082e-12 1.07435e-12 -0.0146932)
(5.78637e-12 1.14431e-12 -0.0144979)
(2.31604e-11 -1.60844e-12 -0.0135813)
(-6.00563e-12 -1.14071e-11 -0.0121922)
(-2.63955e-10 -3.49324e-11 -0.0106372)
(-1.04191e-09 -6.82951e-11 -0.00917675)
(-2.45243e-09 -8.51539e-11 -0.00787019)
(-3.99385e-09 -5.54973e-11 -0.00692333)
(-4.74352e-09 1.42771e-11 -0.00678377)
(-4.24755e-09 7.18676e-11 -0.00767828)
(-2.91773e-09 7.42928e-11 -0.00952459)
(-1.49116e-09 4.59557e-11 -0.0120074)
(-4.87328e-10 2.70636e-11 -0.0143213)
(-1.27585e-11 1.62225e-11 -0.0157994)
(1.09577e-10 4.61536e-12 -0.0162569)
(9.13888e-11 5.82644e-12 -0.0157373)
(1.49633e-11 5.24068e-11 -0.0140931)
(-2.16671e-10 1.72397e-10 -0.0107279)
(-8.28678e-10 3.59234e-10 -0.00481722)
(-2.01628e-09 5.53381e-10 0.00398183)
(-3.70708e-09 6.52361e-10 0.0148486)
(-5.42475e-09 5.63831e-10 0.0255553)
(-6.47307e-09 2.77206e-10 0.0330177)
(-6.37502e-09 -1.14613e-10 0.0344879)
(-5.20461e-09 -4.67792e-10 0.0288887)
(-3.50367e-09 -6.59659e-10 0.0176248)
(-1.87994e-09 -6.41344e-10 0.00416058)
(-7.16552e-10 -4.66782e-10 -0.00758235)
(-8.92192e-11 -2.77184e-10 -0.0149328)
(1.65349e-10 -2.30928e-10 -0.0171756)
(3.06347e-10 -4.09623e-10 -0.0151091)
(5.45881e-10 -7.66956e-10 -0.010185)
(9.56302e-10 -1.1626e-09 -0.00393432)
(1.46412e-09 -1.44799e-09 0.00233779)
(1.9421e-09 -1.53611e-09 0.00816059)
(2.32818e-09 -1.41128e-09 0.0142366)
(2.64836e-09 -1.09034e-09 0.0214999)
(2.925e-09 -5.87279e-10 0.0294139)
(3.08379e-09 8.27525e-11 0.0352667)
(2.9832e-09 8.66293e-10 0.0356198)
(2.55187e-09 1.61371e-09 0.0289092)
(1.86255e-09 2.06184e-09 0.0166708)
(1.09761e-09 1.95865e-09 0.00283159)
(4.69088e-10 1.2668e-09 -0.0083608)
(1.37996e-10 2.33539e-10 -0.014724)
(1.6705e-10 -7.64124e-10 -0.0171873)
(5.15805e-10 -1.45042e-09 -0.0187156)
(1.06646e-09 -1.75341e-09 -0.0219709)
(1.66495e-09 -1.74879e-09 -0.0271403)
(2.1684e-09 -1.5555e-09 -0.0316078)
(2.48231e-09 -1.26934e-09 -0.0318937)
(2.57548e-09 -9.40199e-10 -0.0260746)
(2.46972e-09 -5.64669e-10 -0.0150191)
(2.21379e-09 -8.41348e-11 -0.00201527)
(1.86059e-09 5.78295e-10 0.00890944)
(1.45769e-09 1.40014e-09 0.0147513)
(1.0433e-09 2.14192e-09 0.0142026)
(6.56969e-10 2.41462e-09 0.0080225)
(3.50385e-10 1.96933e-09 -0.00161066)
(1.79999e-10 9.49242e-10 -0.0127225)
(1.81066e-10 -1.90392e-10 -0.0247415)
(3.42819e-10 -1.01943e-09 -0.0380922)
(6.04896e-10 -1.3783e-09 -0.0525215)
(8.81321e-10 -1.35654e-09 -0.0656695)
(1.09678e-09 -1.1317e-09 -0.0738723)
(1.20968e-09 -8.48e-10 -0.0744636)
(1.21329e-09 -5.84e-10 -0.0672697)
(1.12468e-09 -3.64439e-10 -0.0543848)
(9.7361e-10 -1.69918e-10 -0.0389499)
(7.94537e-10 6.12746e-11 -0.023786)
(6.18566e-10 4.03357e-10 -0.0106177)
(4.64011e-10 8.66559e-10 -0.000622055)
(3.35852e-10 1.32871e-09 0.00511136)
(2.34804e-10 1.57017e-09 0.00550776)
(1.65624e-10 1.42609e-09 -0.000332564)
(1.36169e-10 9.23415e-10 -0.0127913)
(1.49701e-10 2.64344e-10 -0.0312625)
(1.9921e-10 -3.18376e-10 -0.0536475)
(2.68338e-10 -6.90154e-10 -0.076135)
(3.37729e-10 -8.38761e-10 -0.0941584)
(3.91529e-10 -8.23037e-10 -0.104171)
(4.20465e-10 -7.15007e-10 -0.104941)
(4.217e-10 -5.70326e-10 -0.0976315)
(3.9751e-10 -4.23363e-10 -0.0849011)
(3.54118e-10 -2.91209e-10 -0.0696067)
(3.00503e-10 -1.77623e-10 -0.0537318)
(2.46277e-10 -7.54945e-11 -0.0382751)
(1.99159e-10 2.87904e-11 -0.0234572)
(1.63359e-10 1.46374e-10 -0.00916602)
(1.39672e-10 2.7696e-10 0.00449868)
(1.27217e-10 4.07159e-10 0.0168832)
(1.25901e-10 5.17745e-10 0.02677)
(1.37537e-10 5.93553e-10 0.0328243)
(1.64536e-10 6.29048e-10 0.0342413)
(2.06771e-10 6.27638e-10 0.0311671)
(2.58703e-10 5.97082e-10 0.0246009)
(3.09113e-10 5.44359e-10 0.0158441)
(3.4427e-10 4.71912e-10 0.0058584)
(3.53329e-10 3.75921e-10 -0.00473692)
(3.32663e-10 2.4676e-10 -0.0151295)
(2.86672e-10 7.41525e-11 -0.0243906)
(2.2581e-10 -1.40854e-10 -0.031625)
(1.62872e-10 -3.72417e-10 -0.0361708)
(1.09031e-10 -5.68091e-10 -0.0377707)
(7.08804e-11 -6.68255e-10 -0.0365835)
(4.93768e-11 -6.3753e-10 -0.0330173)
(4.0954e-11 -4.84554e-10 -0.027494)
(4.02418e-11 -2.55586e-10 -0.0203809)
(4.30793e-11 -9.61405e-12 -0.0120395)
(4.83702e-11 2.04536e-10 -0.00311631)
(5.80724e-11 3.65933e-10 0.00625659)
(7.7048e-11 4.36336e-10 0.0136154)
(1.00426e-10 5.92153e-10 0.0255212)
(1.64723e-10 3.72401e-10 0.0269249)
(-6.6851e-17 -6.89316e-18 -0.0252252)
(-2.50971e-16 -1.20189e-17 -0.0248184)
(-2.65553e-16 -1.26113e-17 -0.0249726)
(-3.41785e-16 -1.46549e-17 -0.0258233)
(-4.6457e-16 -1.56062e-17 -0.0272855)
(-4.64028e-16 -1.04721e-17 -0.0291443)
(-4.18453e-16 -1.33303e-17 -0.031116)
(-4.06944e-16 1.03313e-17 -0.0328943)
(-3.27908e-16 1.76428e-15 -0.034217)
(-8.28748e-17 -5.93759e-18 -0.0348987)
(-2.01027e-17 -3.55262e-17 -0.0348522)
(-4.87771e-16 1.72752e-15 -0.0341682)
(-1.04513e-15 2.54961e-17 -0.0330009)
(-9.9079e-16 1.14945e-17 -0.0316004)
(-5.22671e-16 -1.0748e-17 -0.0302366)
(-1.41332e-16 -2.24767e-17 -0.0291465)
(6.70778e-17 -2.43865e-17 -0.0285036)
(1.44725e-16 -2.16233e-17 -0.0283714)
(2.13586e-16 -8.62296e-18 -0.0287106)
(4.47679e-17 2.37656e-17 -0.0294012)
(-9.11304e-17 1.96389e-17 -0.0302694)
(1.42669e-15 1.75799e-17 -0.0311282)
(-7.25436e-15 6.70436e-16 -0.0318411)
(-3.47558e-14 7.5433e-16 -0.0324136)
(2.25901e-13 -3.04445e-15 -0.0328706)
(1.06663e-12 -3.71311e-15 -0.0330453)
(1.53835e-12 1.8091e-15 -0.0326778)
(1.00141e-12 2.91243e-15 -0.0317552)
(3.12241e-13 -1.35677e-16 -0.0306377)
(2.74497e-14 3.31193e-16 -0.0297221)
(-5.73555e-14 8.05097e-15 -0.0291896)
(-7.97265e-14 -1.17888e-14 -0.0290314)
(4.20336e-13 -7.51859e-14 -0.0291184)
(1.10532e-12 1.40788e-13 -0.0292926)
(-4.86439e-12 1.22188e-12 -0.0294993)
(-2.39765e-11 3.31639e-13 -0.0299249)
(1.19434e-11 -1.59813e-11 -0.0311143)
(3.64151e-10 -6.04475e-11 -0.0338885)
(1.27503e-09 -1.00841e-10 -0.0383562)
(2.37333e-09 -7.20287e-11 -0.0427007)
(2.76629e-09 1.87833e-11 -0.0441089)
(2.11927e-09 8.48836e-11 -0.0417726)
(1.06883e-09 8.3277e-11 -0.0377091)
(3.26216e-10 4.71169e-11 -0.0342446)
(8.06922e-12 1.61942e-11 -0.0321703)
(-6.06637e-11 1.84408e-12 -0.0311981)
(-3.68258e-11 -4.72646e-12 -0.0307292)
(4.44705e-11 -1.2273e-11 -0.0304362)
(1.57457e-10 4.28582e-12 -0.0304662)
(-1.27139e-10 1.32147e-10 -0.0308165)
(-2.14097e-09 4.8302e-10 -0.0300735)
(-7.80202e-09 1.02595e-09 -0.0252264)
(-1.75016e-08 1.39081e-09 -0.0147078)
(-2.78063e-08 1.09005e-09 -0.00256076)
(-3.28984e-08 1.41123e-10 0.00338978)
(-2.96324e-08 -8.41029e-10 -0.000974275)
(-2.0434e-08 -1.3039e-09 -0.0123721)
(-1.05369e-08 -1.16925e-09 -0.0242688)
(-3.56205e-09 -7.12138e-10 -0.0320612)
(-2.01875e-10 -2.82232e-10 -0.0349166)
(7.08705e-10 -4.746e-11 -0.0346032)
(5.85282e-10 5.31348e-11 -0.0329669)
(1.17134e-10 2.06435e-10 -0.0300037)
(-9.1096e-10 5.94219e-10 -0.0234778)
(-3.21892e-09 1.25904e-09 -0.0102773)
(-7.26434e-09 1.99258e-09 0.0110432)
(-1.25316e-08 2.3566e-09 0.0386815)
(-1.75236e-08 1.94682e-09 0.0682227)
(-2.04846e-08 7.52345e-10 0.0931791)
(-2.02601e-08 -7.48844e-10 0.105254)
(-1.69059e-08 -1.90347e-09 0.0977333)
(-1.17357e-08 -2.32199e-09 0.0710283)
(-6.53034e-09 -2.0349e-09 0.0338719)
(-2.61646e-09 -1.36214e-09 -0.00143314)
(-3.98049e-10 -7.18137e-10 -0.0254351)
(5.50535e-10 -4.28709e-10 -0.0350778)
(1.00219e-09 -5.99887e-10 -0.0331114)
(1.54517e-09 -1.09193e-09 -0.0254242)
(2.30136e-09 -1.62172e-09 -0.0181165)
(3.04286e-09 -1.94089e-09 -0.0145338)
(3.56547e-09 -1.96813e-09 -0.0124984)
(3.92138e-09 -1.76441e-09 -0.00491006)
(4.33963e-09 -1.38875e-09 0.014483)
(4.98963e-09 -8.04987e-10 0.044566)
(5.75712e-09 5.36507e-11 0.0753213)
(6.20259e-09 1.13225e-09 0.0929403)
(5.87618e-09 2.17403e-09 0.0885033)
(4.68975e-09 2.78897e-09 0.0632951)
(3.00076e-09 2.65538e-09 0.0276692)
(1.42622e-09 1.74661e-09 -0.00549577)
(5.22574e-10 3.8456e-10 -0.029099)
(5.39675e-10 -9.53026e-10 -0.0456876)
(1.36686e-09 -1.90012e-09 -0.0634405)
(2.6527e-09 -2.32798e-09 -0.0874038)
(3.99428e-09 -2.29976e-09 -0.113258)
(5.08066e-09 -1.96418e-09 -0.129635)
(5.7432e-09 -1.47287e-09 -0.126612)
(5.94356e-09 -9.33904e-10 -0.101998)
(5.73839e-09 -3.83825e-10 -0.061483)
(5.22693e-09 2.20432e-10 -0.0154581)
(4.49999e-09 9.5635e-10 0.0246302)
(3.6272e-09 1.80879e-09 0.0495257)
(2.66888e-09 2.54227e-09 0.0542953)
(1.72296e-09 2.76107e-09 0.0398931)
(9.49429e-10 2.20782e-09 0.0115766)
(5.2144e-10 1.0339e-09 -0.0256536)
(5.26495e-10 -2.718e-10 -0.0700078)
(9.0084e-10 -1.23135e-09 -0.120485)
(1.45764e-09 -1.64755e-09 -0.17153)
(1.98975e-09 -1.60248e-09 -0.211536)
(2.36184e-09 -1.29587e-09 -0.228747)
(2.53304e-09 -9.06249e-10 -0.218781)
(2.52383e-09 -5.41502e-10 -0.186474)
(2.37416e-09 -2.446e-10 -0.141678)
(2.12291e-09 -4.84404e-12 -0.0939046)
(1.80835e-09 2.38798e-10 -0.0495261)
(1.47236e-09 5.68622e-10 -0.0119964)
(1.14596e-09 1.00792e-09 0.0160816)
(8.46994e-10 1.44331e-09 0.0316022)
(5.9615e-10 1.65528e-09 0.0307883)
(4.26261e-10 1.47541e-09 0.0100357)
(3.6677e-10 9.31378e-10 -0.0322588)
(4.18908e-10 2.32823e-10 -0.0931609)
(5.49157e-10 -3.77692e-10 -0.163381)
(7.06118e-10 -7.59412e-10 -0.228499)
(8.44158e-10 -9.00355e-10 -0.274243)
(9.36817e-10 -8.64402e-10 -0.292457)
(9.76498e-10 -7.30093e-10 -0.283436)
(9.66497e-10 -5.58847e-10 -0.253816)
(9.13393e-10 -3.8957e-10 -0.212524)
(8.25275e-10 -2.42704e-10 -0.167242)
(7.14863e-10 -1.23701e-10 -0.122741)
(5.98534e-10 -2.48223e-11 -0.0810266)
(4.91516e-10 7.02514e-11 -0.0420874)
(4.02871e-10 1.76119e-10 -0.00527143)
(3.34968e-10 2.95032e-10 0.0290641)
(2.88245e-10 4.14046e-10 0.0586807)
(2.67856e-10 5.12585e-10 0.0799777)
(2.85946e-10 5.74237e-10 0.0899728)
(3.55588e-10 5.94434e-10 0.0882891)
(4.79389e-10 5.80558e-10 0.0774096)
(6.40975e-10 5.45913e-10 0.0610311)
(8.0585e-10 5.01576e-10 0.04202)
(9.31642e-10 4.49805e-10 0.0213665)
(9.83556e-10 3.81726e-10 -0.0010009)
(9.47421e-10 2.8009e-10 -0.0242914)
(8.3313e-10 1.27581e-10 -0.0466561)
(6.69868e-10 -7.89544e-11 -0.0656395)
(4.9529e-10 -3.14026e-10 -0.0790001)
(3.4298e-10 -5.22094e-10 -0.0854792)
(2.32804e-10 -6.38426e-10 -0.0850429)
(1.67519e-10 -6.22565e-10 -0.0784765)
(1.36522e-10 -4.79986e-10 -0.0667237)
(1.24522e-10 -2.56647e-10 -0.050576)
(1.20771e-10 -1.36765e-11 -0.0307631)
(1.24315e-10 1.97041e-10 -0.00869512)
(1.42751e-10 3.51595e-10 0.0155083)
(1.912e-10 4.15159e-10 0.0350411)
(2.54781e-10 5.48317e-10 0.0690773)
(4.38858e-10 3.40254e-10 0.0746244)
(-2.18824e-18 -6.42133e-20 -0.0417864)
(-2.82567e-17 -1.01807e-19 -0.0410862)
(-5.32712e-17 -9.83375e-20 -0.0413284)
(-8.24441e-17 7.28039e-19 -0.0427513)
(-1.25879e-16 1.99317e-19 -0.0452253)
(-1.19578e-16 -1.52354e-18 -0.0484004)
(-2.67414e-16 1.97381e-17 -0.0518051)
(-3.70435e-16 1.52344e-17 -0.0549184)
(6.42565e-16 -1.09854e-16 -0.0572843)
(6.77241e-16 -1.16903e-16 -0.0585608)
(-2.86384e-15 2.46394e-16 -0.0585583)
(-7.73231e-15 5.30569e-16 -0.0573947)
(-9.29779e-15 2.48269e-16 -0.0552622)
(-5.74878e-15 -2.30929e-16 -0.052526)
(-1.09235e-15 -3.78581e-16 -0.0496137)
(1.17379e-15 -2.6362e-16 -0.0469211)
(1.55868e-15 -1.39219e-16 -0.0448368)
(1.25283e-15 -6.87948e-17 -0.0436681)
(5.68453e-16 6.06817e-17 -0.0436174)
(-1.27661e-15 1.47117e-16 -0.0447609)
(9.67545e-16 -6.85951e-16 -0.0470204)
(3.76049e-15 3.58454e-15 -0.0501666)
(-7.73466e-14 1.8073e-14 -0.0538554)
(-1.42873e-14 -1.16038e-13 -0.0576505)
(1.33448e-12 -5.48683e-13 -0.0609267)
(4.00243e-12 -6.54017e-13 -0.0628091)
(6.25418e-12 3.24191e-14 -0.0624201)
(5.34589e-12 6.10914e-13 -0.0594647)
(2.28875e-12 4.85136e-13 -0.054555)
(3.51414e-13 1.83739e-13 -0.0488265)
(-3.96777e-13 5.4176e-14 -0.0434769)
(-1.50326e-13 -2.34357e-13 -0.0394891)
(2.50654e-12 -5.92971e-13 -0.0374801)
(1.34636e-12 2.60544e-12 -0.0377024)
(-2.82995e-11 1.2465e-11 -0.0402226)
(-6.03024e-11 -8.26146e-12 -0.0452025)
(1.70197e-10 -1.92653e-10 -0.0531741)
(1.08563e-09 -6.27253e-10 -0.064777)
(2.58017e-09 -9.97824e-10 -0.0787859)
(4.07252e-09 -7.40706e-10 -0.0908012)
(4.97557e-09 1.25841e-10 -0.0951473)
(4.56519e-09 8.42718e-10 -0.0889794)
(2.91401e-09 8.90608e-10 -0.0753033)
(1.23445e-09 5.27033e-10 -0.0602703)
(2.12127e-10 1.92131e-10 -0.0478416)
(-1.61541e-10 2.24796e-11 -0.0394456)
(-1.29301e-10 -5.14945e-11 -0.0351993)
(1.90411e-10 -9.59969e-11 -0.0350762)
(4.67788e-10 8.41946e-11 -0.0387945)
(-1.17654e-09 1.1378e-09 -0.0431382)
(-9.10762e-09 3.80251e-09 -0.0389502)
(-2.77542e-08 7.61203e-09 -0.0148851)
(-5.58465e-08 9.91699e-09 0.0302739)
(-8.38722e-08 7.6429e-09 0.0803966)
(-9.87596e-08 9.27315e-10 0.110053)
(-9.23468e-08 -6.16034e-09 0.102162)
(-6.79081e-08 -9.47343e-09 0.0620209)
(-3.81232e-08 -8.39002e-09 0.0129907)
(-1.47378e-08 -5.14046e-09 -0.023353)
(-2.06415e-09 -2.11915e-09 -0.0398467)
(2.11619e-09 -3.88963e-10 -0.0421618)
(2.06918e-09 3.01615e-10 -0.0390475)
(5.02452e-10 8.00528e-10 -0.034284)
(-2.31056e-09 1.84042e-09 -0.0259312)
(-7.20542e-09 3.53593e-09 -0.0111028)
(-1.41168e-08 5.2097e-09 0.0101963)
(-2.13511e-08 5.78199e-09 0.0378345)
(-2.69055e-08 4.54034e-09 0.0751406)
(-2.9809e-08 1.64548e-09 0.122075)
(-2.97388e-08 -1.90394e-09 0.165273)
(-2.63371e-08 -4.73002e-09 0.182073)
(-1.99234e-08 -5.84745e-09 0.158701)
(-1.22363e-08 -5.20095e-09 0.103292)
(-5.55185e-09 -3.53292e-09 0.0395005)
(-1.22356e-09 -1.86068e-09 -0.00994307)
(8.8002e-10 -9.31047e-10 -0.0352421)
(1.74212e-09 -9.06937e-10 -0.0415488)
(2.17476e-09 -1.41654e-09 -0.0434267)
(2.37331e-09 -1.91144e-09 -0.0549949)
(2.28821e-09 -2.08005e-09 -0.0788162)
(2.0996e-09 -1.97537e-09 -0.100731)
(2.11068e-09 -1.79835e-09 -0.0989801)
(2.45185e-09 -1.62446e-09 -0.0614938)
(3.13803e-09 -1.29602e-09 0.00492706)
(4.18411e-09 -5.23725e-10 0.0785044)
(5.35782e-09 8.06766e-10 0.132821)
(6.02281e-09 2.37013e-09 0.149074)
(5.59151e-09 3.49955e-09 0.12497)
(4.10546e-09 3.59041e-09 0.0748509)
(2.29581e-09 2.5059e-09 0.0193283)
(1.07632e-09 6.76814e-10 -0.0297795)
(9.51378e-10 -1.18626e-09 -0.0763196)
(1.8089e-09 -2.50693e-09 -0.130635)
(3.1565e-09 -3.06712e-09 -0.19227)
(4.50145e-09 -2.96277e-09 -0.242882)
(5.55722e-09 -2.42996e-09 -0.258948)
(6.22216e-09 -1.70078e-09 -0.23062)
(6.48176e-09 -9.37792e-10 -0.167212)
(6.36554e-09 -2.06352e-10 -0.087572)
(5.94383e-09 5.35065e-10 -0.00902602)
(5.29034e-09 1.37816e-09 0.0556658)
(4.43785e-09 2.3157e-09 0.096548)
(3.40486e-09 3.09404e-09 0.106928)
(2.29537e-09 3.27434e-09 0.0860299)
(1.34564e-09 2.57009e-09 0.038356)
(8.15971e-10 1.16071e-09 -0.0311684)
(8.03154e-10 -3.8009e-10 -0.119071)
(1.16193e-09 -1.485e-09 -0.217089)
(1.61775e-09 -1.92275e-09 -0.305211)
(1.95462e-09 -1.80864e-09 -0.356694)
(2.10695e-09 -1.40334e-09 -0.354365)
(2.12201e-09 -9.28993e-10 -0.302129)
(2.07444e-09 -5.04558e-10 -0.221223)
(2.00738e-09 -1.63981e-10 -0.136244)
(1.92006e-09 1.12988e-10 -0.0630177)
(1.78899e-09 3.86553e-10 -0.00581324)
(1.59728e-09 7.34553e-10 0.0371086)
(1.3425e-09 1.17924e-09 0.0668858)
(1.04515e-09 1.60362e-09 0.0803081)
(7.61794e-10 1.78054e-09 0.0698148)
(5.72822e-10 1.54078e-09 0.0268625)
(5.33943e-10 9.27092e-10 -0.0520377)
(6.34519e-10 1.7315e-10 -0.158698)
(8.06148e-10 -4.61981e-10 -0.271012)
(9.68697e-10 -8.37653e-10 -0.360048)
(1.07067e-09 -9.5411e-10 -0.403865)
(1.10043e-09 -8.89207e-10 -0.397501)
(1.07441e-09 -7.29847e-10 -0.352107)
(1.01719e-09 -5.38773e-10 -0.286012)
(9.4516e-10 -3.52751e-10 -0.215396)
(8.6217e-10 -1.91944e-10 -0.149546)
(7.6761e-10 -6.42529e-11 -0.0915066)
(6.64168e-10 3.61786e-11 -0.0402809)
(5.57887e-10 1.26622e-10 0.0067972)
(4.52791e-10 2.2465e-10 0.0515079)
(3.50233e-10 3.34272e-10 0.0923004)
(2.57447e-10 4.40715e-10 0.123917)
(1.9738e-10 5.18894e-10 0.140702)
(2.06678e-10 5.49687e-10 0.141564)
(3.16644e-10 5.32331e-10 0.131793)
(5.30158e-10 4.84944e-10 0.119298)
(8.131e-10 4.33852e-10 0.108732)
(1.10508e-09 3.99026e-10 0.0989527)
(1.33943e-09 3.83059e-10 0.0851778)
(1.46242e-09 3.68033e-10 0.0631659)
(1.4484e-09 3.21974e-10 0.0324911)
(1.30652e-09 2.12929e-10 -0.0033035)
(1.07726e-09 2.80656e-11 -0.0384443)
(8.18263e-10 -2.08974e-10 -0.0673006)
(5.84135e-10 -4.36846e-10 -0.0862447)
(4.08789e-10 -5.80524e-10 -0.0942182)
(2.9809e-10 -5.8939e-10 -0.0919619)
(2.35667e-10 -4.63056e-10 -0.0808147)
(1.98006e-10 -2.4771e-10 -0.0620018)
(1.70402e-10 -9.50874e-12 -0.0366456)
(1.55246e-10 1.93546e-10 -0.00670641)
(1.67952e-10 3.3249e-10 0.0280666)
(2.3338e-10 3.80321e-10 0.0571402)
(3.26951e-10 4.68323e-10 0.112429)
(6.05991e-10 2.80364e-10 0.12422)
(-7.62634e-17 8.3293e-18 -0.0579486)
(-2.48334e-16 1.35226e-17 -0.0569287)
(-2.19876e-16 1.44824e-17 -0.0572471)
(-2.80876e-16 2.16488e-17 -0.0592463)
(-2.69514e-16 2.96059e-18 -0.0627436)
(-2.57356e-16 6.02957e-17 -0.0672423)
(-1.34485e-15 1.12098e-16 -0.0720733)
(2.06693e-15 -4.44658e-16 -0.0764959)
(4.38828e-15 1.24044e-15 -0.0798655)
(-1.55243e-14 1.74726e-15 -0.0816896)
(-3.29074e-14 2.43453e-15 -0.0816866)
(-5.32618e-15 4.94449e-15 -0.0800487)
(4.13044e-14 -9.66268e-16 -0.077036)
(5.60348e-14 -4.09122e-15 -0.0731539)
(3.96955e-14 -3.47204e-15 -0.0689196)
(1.88771e-14 -1.34799e-15 -0.0648877)
(4.81085e-15 -6.39041e-17 -0.0616648)
(-2.11877e-15 4.7349e-16 -0.059745)
(-8.47389e-15 1.2561e-15 -0.0594856)
(-8.81087e-15 -1.7578e-16 -0.0610815)
(5.41601e-15 -2.49891e-15 -0.0644878)
(-1.79924e-13 3.91747e-14 -0.0693728)
(2.78571e-13 9.69431e-15 -0.075143)
(3.22165e-12 -7.05159e-13 -0.0810455)
(-1.54023e-11 -2.0114e-12 -0.0860924)
(-8.17013e-11 -2.46356e-12 -0.0889697)
(-1.19915e-10 -6.69919e-13 -0.0885106)
(-7.6265e-11 1.98563e-12 -0.0843193)
(-2.13385e-11 2.4971e-12 -0.0770286)
(-6.35303e-13 1.34309e-12 -0.0680358)
(1.03563e-12 2.58921e-13 -0.0591059)
(2.32847e-12 -1.46345e-12 -0.0519878)
(4.82489e-12 -8.23527e-13 -0.0480727)
(-2.11688e-11 1.55438e-11 -0.0481319)
(-4.07187e-11 3.20463e-11 -0.0525252)
(2.1684e-10 -9.89166e-11 -0.0617657)
(4.35015e-10 -5.88946e-10 -0.0754962)
(-2.69139e-09 -1.26543e-09 -0.0885693)
(-1.36403e-08 -1.59429e-09 -0.0923014)
(-2.80411e-08 -1.26973e-09 -0.0882003)
(-3.27347e-08 -2.2755e-10 -0.088484)
(-2.33054e-08 1.11567e-09 -0.0947472)
(-9.76475e-09 1.74865e-09 -0.0952359)
(-1.45338e-09 1.39806e-09 -0.0844217)
(8.62235e-10 7.14189e-10 -0.0671786)
(5.02758e-10 1.72558e-10 -0.0513955)
(1.31244e-10 -1.80702e-10 -0.0424573)
(5.9592e-10 -3.10818e-10 -0.0423361)
(4.73755e-10 6.87759e-10 -0.0483967)
(-5.43033e-09 4.91985e-09 -0.0492817)
(-2.46566e-08 1.37719e-08 -0.0260335)
(-5.93804e-08 2.43954e-08 0.0332251)
(-1.00946e-07 2.94498e-08 0.120283)
(-1.36726e-07 2.25466e-08 0.213938)
(-1.57806e-07 4.37842e-09 0.286197)
(-1.56857e-07 -1.62668e-08 0.302867)
(-1.29572e-07 -2.84157e-08 0.245933)
(-8.42455e-08 -2.77544e-08 0.140159)
(-3.95584e-08 -1.87417e-08 0.0368665)
(-9.81879e-09 -8.70922e-09 -0.0278736)
(2.92402e-09 -2.11412e-09 -0.0514277)
(4.6623e-09 8.60005e-10 -0.050544)
(1.41369e-09 2.3963e-09 -0.0406864)
(-4.40263e-09 4.44816e-09 -0.0306725)
(-1.21181e-08 7.16215e-09 -0.0278109)
(-1.97364e-08 9.06541e-09 -0.0344052)
(-2.42189e-08 8.75098e-09 -0.0347657)
(-2.46471e-08 6.17579e-09 -0.000504206)
(-2.33617e-08 2.169e-09 0.0798589)
(-2.30438e-08 -2.48481e-09 0.181616)
(-2.3294e-08 -6.81119e-09 0.256321)
(-2.1314e-08 -9.37238e-09 0.264448)
(-1.58884e-08 -9.22068e-09 0.204025)
(-8.83169e-09 -6.8685e-09 0.109227)
(-2.85524e-09 -3.93407e-09 0.0232348)
(7.17834e-10 -1.91155e-09 -0.0298554)
(2.15698e-09 -1.24726e-09 -0.0562692)
(2.22153e-09 -1.40753e-09 -0.0829884)
(1.56959e-09 -1.67845e-09 -0.132401)
(9.64302e-10 -1.80404e-09 -0.196792)
(1.15567e-09 -1.87937e-09 -0.237661)
(2.2449e-09 -1.94054e-09 -0.217609)
(3.54315e-09 -1.90242e-09 -0.132285)
(4.29515e-09 -1.67112e-09 -0.0104582)
(4.48696e-09 -1.05625e-09 0.108609)
(4.70322e-09 2.12901e-10 0.192599)
(5.10409e-09 2.05719e-09 0.222228)
(5.10973e-09 3.74765e-09 0.195528)
(4.22756e-09 4.30323e-09 0.129247)
(2.76549e-09 3.26118e-09 0.0479013)
(1.58901e-09 1.05678e-09 -0.0351619)
(1.32458e-09 -1.31932e-09 -0.124886)
(1.93372e-09 -3.00268e-09 -0.227341)
(2.95378e-09 -3.67426e-09 -0.325382)
(3.95586e-09 -3.50012e-09 -0.379244)
(4.76025e-09 -2.82453e-09 -0.357289)
(5.35572e-09 -1.93514e-09 -0.263434)
(5.73521e-09 -1.00559e-09 -0.133698)
(5.83969e-09 -1.14861e-10 -0.00946485)
(5.632e-09 7.58032e-10 0.0853971)
(5.14569e-09 1.70934e-09 0.146176)
(4.42156e-09 2.75152e-09 0.174502)
(3.48232e-09 3.61351e-09 0.170223)
(2.43019e-09 3.79069e-09 0.131813)
(1.51739e-09 2.94752e-09 0.0586536)
(1.01233e-09 1.30515e-09 -0.0488284)
(9.69268e-10 -4.44778e-10 -0.184719)
(1.18152e-09 -1.63865e-09 -0.326569)
(1.37344e-09 -2.0439e-09 -0.432552)
(1.40331e-09 -1.84708e-09 -0.460805)
(1.29702e-09 -1.37957e-09 -0.397463)
(1.1569e-09 -8.89994e-10 -0.266466)
(1.07046e-09 -4.84186e-10 -0.114398)
(1.07191e-09 -1.67411e-10 0.0150907)
(1.1427e-09 1.04354e-10 0.100021)
(1.22726e-09 4.00192e-10 0.142692)
(1.25464e-09 7.91865e-10 0.157911)
(1.17164e-09 1.28398e-09 0.15859)
(9.80115e-10 1.73367e-09 0.146074)
(7.57882e-10 1.89145e-09 0.109396)
(6.23015e-10 1.58933e-09 0.0334706)
(6.48836e-10 9.0053e-10 -0.0867181)
(8.09743e-10 9.67206e-11 -0.233416)
(1.00949e-09 -5.44782e-10 -0.366426)
(1.15204e-09 -8.91673e-10 -0.442191)
(1.19042e-09 -9.6622e-10 -0.438796)
(1.13109e-09 -8.66269e-10 -0.366236)
(1.01234e-09 -6.88476e-10 -0.256233)
(8.78741e-10 -4.94224e-10 -0.143004)
(7.61882e-10 -3.12058e-10 -0.048775)
(6.71226e-10 -1.53927e-10 0.0199822)
(5.97809e-10 -2.47003e-11 0.0677336)
(5.26561e-10 8.00391e-11 0.103853)
(4.43337e-10 1.7594e-10 0.136849)
(3.35827e-10 2.79946e-10 0.169792)
(2.00285e-10 3.92704e-10 0.198101)
(5.91589e-11 4.90474e-10 0.212783)
(-2.97076e-11 5.3797e-10 0.210154)
(4.71921e-12 5.14605e-10 0.198919)
(2.01893e-10 4.32694e-10 0.195472)
(5.411e-10 3.32328e-10 0.210611)
(9.51721e-10 2.58451e-10 0.240376)
(1.34711e-09 2.3841e-10 0.268587)
(1.65368e-09 2.71136e-10 0.277526)
(1.82164e-09 3.27242e-10 0.257305)
(1.82658e-09 3.58043e-10 0.208655)
(1.67556e-09 3.13149e-10 0.141416)
(1.40948e-09 1.65174e-10 0.0695724)
(1.094e-09 -6.74623e-11 0.00588295)
(7.97611e-10 -3.17356e-10 -0.0415732)
(5.66651e-10 -4.95403e-10 -0.0700492)
(4.11497e-10 -5.36004e-10 -0.0804869)
(3.12061e-10 -4.29944e-10 -0.0753734)
(2.38883e-10 -2.24015e-10 -0.0573318)
(1.76319e-10 7.70349e-12 -0.0286682)
(1.33443e-10 1.98267e-10 0.00785919)
(1.35449e-10 3.1253e-10 0.0533921)
(2.14191e-10 3.3566e-10 0.0937954)
(3.35701e-10 3.62012e-10 0.174443)
(6.80715e-10 2.00734e-10 0.196909)
(5.83009e-17 1.89696e-15 -0.0735022)
(2.77006e-16 1.80643e-15 -0.072125)
(2.75802e-16 1.61728e-17 -0.0724997)
(2.54031e-16 1.76027e-15 -0.0750805)
(1.18091e-15 1.72316e-15 -0.079628)
(-1.79626e-15 2.27087e-15 -0.0854904)
(2.03968e-15 -1.1424e-15 -0.0917906)
(1.73332e-14 -2.82423e-15 -0.0975576)
(-3.9186e-14 8.68575e-15 -0.101955)
(-9.25485e-14 1.6742e-14 -0.10433)
(7.44851e-14 -4.82554e-15 -0.10429)
(5.03777e-13 -3.65482e-14 -0.102148)
(9.11287e-13 -3.04593e-14 -0.0981856)
(8.73709e-13 5.73519e-16 -0.0930606)
(4.77216e-13 1.82003e-14 -0.0875192)
(1.4504e-13 1.89134e-14 -0.0822393)
(-2.46925e-14 1.20935e-14 -0.077998)
(-8.25316e-14 6.57357e-15 -0.0754336)
(-9.98981e-14 5.14146e-15 -0.0750101)
(1.82601e-15 -5.06311e-15 -0.0770063)
(-2.38932e-13 8.48704e-14 -0.081394)
(-1.20672e-12 -1.32993e-13 -0.0877839)
(7.18107e-12 -1.68271e-12 -0.0954679)
(9.75793e-12 7.72437e-12 -0.103384)
(-1.3128e-10 4.19128e-11 -0.110042)
(-4.62922e-10 5.15986e-11 -0.113771)
(-7.18599e-10 -2.68572e-12 -0.113079)
(-5.93158e-10 -4.86771e-11 -0.10764)
(-2.52627e-10 -3.73297e-11 -0.0984)
(-4.4118e-11 -1.10034e-11 -0.086795)
(1.48798e-11 -1.42942e-12 -0.0749056)
(2.00802e-11 -2.13068e-12 -0.0651029)
(-1.94533e-11 1.11557e-11 -0.0594274)
(-9.61449e-11 2.53755e-11 -0.0592094)
(3.42207e-10 -1.06541e-10 -0.066029)
(1.55452e-09 -2.4613e-10 -0.0810221)
(-2.4752e-09 1.26146e-09 -0.0944447)
(-2.85942e-08 6.41038e-09 -0.0751634)
(-8.72349e-08 1.1677e-08 0.000685185)
(-1.55321e-07 8.80649e-09 0.0980999)
(-1.85782e-07 -2.24199e-09 0.139631)
(-1.54194e-07 -1.06422e-08 0.0906814)
(-8.70456e-08 -1.00354e-08 -0.000543703)
(-3.01014e-08 -4.78646e-09 -0.0654348)
(-2.44132e-09 -7.8594e-10 -0.0821079)
(3.76577e-09 3.87972e-10 -0.0697963)
(2.6842e-09 -9.8077e-11 -0.0554118)
(1.74245e-09 -2.67252e-10 -0.052373)
(-1.21191e-09 3.09732e-09 -0.0549826)
(-1.51537e-08 1.3703e-08 -0.0433476)
(-4.5675e-08 3.07776e-08 -0.00296043)
(-8.32692e-08 4.57566e-08 0.0579958)
(-1.09982e-07 4.85898e-08 0.129517)
(-1.21394e-07 3.60731e-08 0.226314)
(-1.30226e-07 1.09927e-08 0.352913)
(-1.43136e-07 -2.02773e-08 0.457647)
(-1.4496e-07 -4.57791e-08 0.462577)
(-1.18393e-07 -5.33969e-08 0.345865)
(-7.1016e-08 -4.23538e-08 0.171592)
(-2.65268e-08 -2.33603e-08 0.0261562)
(-6.41568e-10 -7.62951e-09 -0.0490564)
(6.64695e-09 1.05678e-09 -0.0646781)
(2.62924e-09 5.333e-09 -0.0547677)
(-6.43844e-09 8.60633e-09 -0.0565181)
(-1.59659e-08 1.12028e-08 -0.0963441)
(-2.12486e-08 1.12601e-08 -0.163401)
(-1.92644e-08 8.23733e-09 -0.198942)
(-1.15968e-08 4.11176e-09 -0.142643)
(-3.79508e-09 8.43825e-10 0.00789233)
(-1.45261e-09 -1.93779e-09 0.194021)
(-5.63155e-09 -5.59491e-09 0.338831)
(-1.15968e-08 -9.55026e-09 0.387056)
(-1.36284e-08 -1.14421e-08 0.329145)
(-1.04112e-08 -1.00495e-08 0.204842)
(-4.82619e-09 -6.63544e-09 0.0757683)
(-2.35239e-10 -3.43715e-09 -0.0176193)
(1.87185e-09 -1.65878e-09 -0.0815655)
(1.82155e-09 -1.12285e-09 -0.154323)
(1.00743e-09 -1.28282e-09 -0.257535)
(1.05979e-09 -1.87309e-09 -0.357402)
(2.76388e-09 -2.61567e-09 -0.384028)
(5.59316e-09 -2.99209e-09 -0.295667)
(8.23216e-09 -2.64959e-09 -0.117072)
(9.41868e-09 -1.76793e-09 0.0829932)
(8.75657e-09 -7.27759e-10 0.241543)
(7.08567e-09 4.98205e-10 0.328491)
(5.61006e-09 2.16688e-09 0.340146)
(4.65618e-09 3.93782e-09 0.287304)
(3.75867e-09 4.76254e-09 0.191439)
(2.68158e-09 3.82517e-09 0.0755772)
(1.80705e-09 1.39727e-09 -0.0514678)
(1.57482e-09 -1.35862e-09 -0.195434)
(1.96668e-09 -3.32153e-09 -0.349119)
(2.62558e-09 -4.07819e-09 -0.468014)
(3.24411e-09 -3.86601e-09 -0.490131)
(3.75244e-09 -3.12989e-09 -0.386734)
(4.22638e-09 -2.18826e-09 -0.189146)
(4.69789e-09 -1.17977e-09 0.0309972)
(5.05579e-09 -1.54747e-10 0.205347)
(5.12317e-09 8.82066e-10 0.302154)
(4.81305e-09 1.98338e-09 0.328609)
(4.16115e-09 3.14738e-09 0.30814)
(3.26067e-09 4.08972e-09 0.258029)
(2.27639e-09 4.25681e-09 0.180994)
(1.47169e-09 3.27902e-09 0.0694963)
(1.06528e-09 1.43477e-09 -0.0837108)
(1.03144e-09 -4.64684e-10 -0.268657)
(1.12813e-09 -1.68709e-09 -0.442602)
(1.1275e-09 -2.03365e-09 -0.539016)
(9.72201e-10 -1.77042e-09 -0.507092)
(7.42236e-10 -1.28014e-09 -0.347608)
(5.43116e-10 -8.15713e-10 -0.112838)
(4.37898e-10 -4.62064e-10 0.123158)
(4.42708e-10 -2.001e-10 0.298743)
(5.43534e-10 3.53119e-11 0.386351)
(6.97397e-10 3.30582e-10 0.395014)
(8.26728e-10 7.62365e-10 0.355448)
(8.52153e-10 1.3165e-09 0.297833)
(7.55294e-10 1.81049e-09 0.233152)
(6.19086e-10 1.95909e-09 0.14938)
(5.78386e-10 1.5953e-09 0.0258637)
(7.05636e-10 8.33727e-10 -0.140597)
(9.50317e-10 -7.17648e-12 -0.316245)
(1.18837e-09 -6.33129e-10 -0.438982)
(1.31576e-09 -9.28117e-10 -0.456092)
(1.29984e-09 -9.43632e-10 -0.358821)
(1.16927e-09 -8.00168e-10 -0.1847)
(9.78495e-10 -6.03674e-10 0.00804673)
(7.79921e-10 -4.13545e-10 0.17004)
(6.11085e-10 -2.48993e-10 0.277017)
(4.8849e-10 -1.09906e-10 0.329566)
(4.06303e-10 8.08e-12 0.343956)
(3.41273e-10 1.13414e-10 0.341438)
(2.59577e-10 2.21989e-10 0.33782)
(1.29231e-10 3.46176e-10 0.336296)
(-5.23363e-11 4.72608e-10 0.328249)
(-2.27058e-10 5.55712e-10 0.305708)
(-2.86245e-10 5.46114e-10 0.278372)
(-1.38604e-10 4.33887e-10 0.274146)
(2.22685e-10 2.6414e-10 0.31799)
(7.17473e-10 1.10034e-10 0.410008)
(1.23091e-09 3.08457e-11 0.522667)
(1.66645e-09 4.80454e-11 0.615818)
(1.96794e-09 1.45795e-10 0.656371)
(2.11275e-09 2.81583e-10 0.630434)
(2.09533e-09 3.95014e-10 0.543884)
(1.92621e-09 4.21479e-10 0.418109)
(1.63959e-09 3.18845e-10 0.280628)
(1.29525e-09 9.69623e-11 0.155523)
(9.62814e-10 -1.73171e-10 0.0577686)
(6.93746e-10 -3.87466e-10 -0.0074582)
(5.00537e-10 -4.62095e-10 -0.0418009)