/*--------------------------------*- C++ -*----------------------------------*\
  =========                 |
  \\      /  F ield         | OpenFOAM: The Open Source CFD Toolbox
   \\    /   O peration     | Website:  https://openfoam.org
    \\  /    A nd           | Version:  11
     \\/     M anipulation  |
\*---------------------------------------------------------------------------*/
FoamFile
{
    format      ascii;
    class       surfaceScalarField;
    location    "11.913741";
    object      phi;
}
// * * * * * * * * * * * * * * * * * * * * * * * * * * * * * * * * * * * * * //

dimensions      [0 3 -1 0 0 0 0];

internalField   nonuniform List<scalar> 
14638
(
0.00250217
-2.16968e-06
0.00250883
-6.66014e-06
0.00252046
-1.16296e-05
0.00253765
-1.71917e-05
0.00256097
-2.3319e-05
0.00259066
-2.96863e-05
0.00262639
-3.57285e-05
0.00266682
-4.04378e-05
0.00270957
-4.27432e-05
0.00275107
-4.15017e-05
0.0027871
-3.60331e-05
0.00281405
-2.69466e-05
0.00282903
-1.49838e-05
0.00283018
-1.14635e-06
0.00281698
1.31995e-05
0.00279088
2.60958e-05
0.00275572
3.516e-05
0.00271721
3.85166e-05
0.00268184
3.53666e-05
0.00265576
2.60782e-05
0.00264356
1.21971e-05
0.00264725
-3.68182e-06
0.00266526
-1.80124e-05
0.00269197
-2.67072e-05
0.0027184
-2.6438e-05
0.00273494
-1.65376e-05
0.00273478
1.60925e-07
0.00271609
1.86877e-05
0.00268177
3.43236e-05
0.00263768
4.40914e-05
0.0025909
4.67738e-05
0.00254867
4.22335e-05
0.00251786
3.08074e-05
0.00250468
1.31786e-05
0.0025139
-9.21278e-06
0.0025472
-3.33044e-05
0.00260098
-5.37787e-05
0.00266503
-6.40482e-05
0.00272429
-5.92654e-05
0.00276384
-3.95451e-05
0.00277441
-1.05683e-05
0.00275512
1.92892e-05
0.00271218
4.29381e-05
0.00265531
5.6865e-05
0.00259459
6.07199e-05
0.00253899
5.5606e-05
0.00249637
4.26225e-05
0.00247396
2.24029e-05
0.00247821
-4.24418e-06
0.00251307
-3.4861e-05
0.00257705
-6.39843e-05
0.00266064
-8.35839e-05
0.00274669
-8.60564e-05
0.00281507
-6.83767e-05
0.00284959
-3.4525e-05
0.00284369
5.89997e-06
0.00280159
4.21017e-05
0.00273493
6.66626e-05
0.00265752
7.74134e-05
0.00258146
7.60555e-05
0.002516
6.54633e-05
0.00246835
4.76526e-05
0.002445
2.33487e-05
0.00245188
-6.88286e-06
0.00249255
-4.06684e-05
0.00256508
-7.25324e-05
0.00265973
-9.46519e-05
0.00275941
-9.96781e-05
0.00284351
-8.41017e-05
0.00289381
-5.02961e-05
0.00289998
-6.17352e-06
0.00286257
3.74169e-05
0.00279201
7.05594e-05
0.00270426
8.77424e-05
0.0026153
8.8964e-05
0.00253739
7.79122e-05
0.00247882
5.8565e-05
0.00244602
3.28056e-05
0.00244505
9.70111e-07
0.00248032
-3.52784e-05
0.00255104
-7.07186e-05
0.00264842
-9.73782e-05
0.00275639
-0.000107967
0.00285576
-9.93737e-05
0.0029297
-7.3942e-05
0.00296785
-3.81438e-05
0.00296781
3.85042e-08
0.00293447
3.33378e-05
0.00287816
5.63146e-05
0.00281253
6.56282e-05
0.00275231
6.02211e-05
0.0027109
4.1412e-05
0.00269849
1.2403e-05
0.00272091
-2.24173e-05
0.00277865
-5.77441e-05
0.00286618
-8.75239e-05
0.00297196
-0.000105784
0.00308016
-0.0001082
0.0031737
-9.35424e-05
0.00323793
-6.42216e-05
0.00326368
-2.57554e-05
0.0032491
1.45863e-05
0.00319958
4.95122e-05
0.00312603
7.35506e-05
0.00304163
8.44046e-05
0.00295838
8.32476e-05
0.00288472
7.36619e-05
0.00282514
5.95807e-05
0.00278168
4.34533e-05
0.00275579
2.58952e-05
0.00274891
6.8781e-06
0.00276167
-1.27567e-05
0.00279237
-3.06993e-05
0.0028361
-4.37334e-05
0.00288495
-4.88446e-05
0.00292918
-4.42329e-05
0.00295914
-2.99586e-05
0.00296733
-8.19397e-06
0.00295032
1.70115e-05
0.00290974
4.0576e-05
0.00285191
5.7834e-05
0.00278589
6.60164e-05
0.00272091
6.49812e-05
0.00266409
5.68239e-05
0.00261939
4.46972e-05
0.00258782
3.15735e-05
0.0025683
1.95214e-05
0.0025587
9.59818e-06
0.00255658
2.11491e-06
0.0025596
-3.02187e-06
0.00256567
-6.0616e-06
0.00257295
-7.28702e-06
0.00257994
-6.98645e-06
0.00258541
-5.47354e-06
0.00258852
-3.11016e-06
0.00258883
-3.03701e-07
0.0025863
2.52886e-06
0.00258128
5.01703e-06
0.00257439
6.88928e-06
0.00256639
8.00168e-06
0.00255805
8.33733e-06
0.00255007
7.98268e-06
0.00254298
7.09244e-06
0.00253712
5.85341e-06
0.00253267
4.45382e-06
0.00252961
3.06036e-06
0.00252781
1.8038e-06
0.00252703
7.71874e-07
0.00252702
9.98111e-09
0.0025275
-4.74315e-07
0.0025282
-7.0082e-07
0.00252891
-7.10309e-07
0.00252946
-5.50311e-07
0.00252974
-2.77054e-07
0.00252967
6.38603e-08
0.00252925
4.19923e-07
0.00252849
7.61408e-07
0.00252744
1.05558e-06
0.00252617
1.26762e-06
1.48005e-06
0.00250215
-4.31772e-06
0.00250875
-1.32612e-05
0.0025203
-2.31808e-05
0.00253743
-3.43238e-05
0.00256076
-4.66502e-05
0.0025906
-5.95231e-05
0.00262669
-7.18185e-05
0.00266773
-8.1482e-05
0.00271132
-8.63288e-05
0.00275377
-8.39525e-05
0.00279067
-7.29286e-05
0.0028183
-5.45822e-05
0.00283373
-3.04121e-05
0.00283498
-2.39533e-06
0.00282141
2.67639e-05
0.00279442
5.30901e-05
0.00275793
7.16534e-05
0.00271787
7.85725e-05
0.00268104
7.22022e-05
0.00265384
5.32742e-05
0.00264114
2.48954e-05
0.00264517
-7.70928e-06
0.00266447
-3.73127e-05
0.0026932
-5.54334e-05
0.00272181
-5.50494e-05
0.00273996
-3.46874e-05
0.00274038
-2.62183e-07
0.00272123
3.78409e-05
0.00268569
6.98631e-05
0.00263999
8.9792e-05
0.00259146
9.5297e-05
0.00254748
8.62125e-05
0.00251507
6.3224e-05
0.00250066
2.75833e-05
0.00250946
-1.80106e-05
0.00254365
-6.74905e-05
0.00259979
-0.000109925
0.00266724
-0.000131497
0.00272989
-0.000121913
0.00277167
-8.13221e-05
0.00278273
-2.16318e-05
0.00276237
3.96496e-05
0.00271744
8.78699e-05
0.00265829
0.000116008
0.00259536
0.000123657
0.00253767
0.000113298
0.00249309
8.72016e-05
0.00246902
4.64672e-05
0.00247237
-7.59304e-06
0.00250775
-7.02429e-05
0.00257411
-0.000130339
0.00266169
-0.000171172
0.00275236
-0.00017672
0.00282445
-0.000140472
0.00286064
-7.07094e-05
0.00285408
1.24619e-05
0.00280961
8.65644e-05
0.00273992
0.00013636
0.00265963
0.000157704
0.00258117
0.000154513
0.00251365
0.000132984
0.00246398
9.73234e-05
0.00243849
4.88407e-05
0.00244332
-1.17145e-05
0.00248263
-7.99858e-05
0.00255521
-0.000145103
0.00265161
-0.000191054
0.00275447
-0.000202543
0.00284245
-0.000172076
0.00289633
-0.000104178
0.00290488
-1.47261e-05
0.00286811
7.41932e-05
0.00279654
0.000142125
0.00270674
0.000177538
0.00261537
0.000180341
0.00253505
0.000158233
0.00247413
0.000119476
0.00243925
6.7695e-05
0.00243715
3.06387e-06
0.00247317
-7.13005e-05
0.00254681
-0.000144351
0.00264846
-0.000199033
0.00276048
-0.000219988
0.0028622
-0.000201089
0.00293612
-0.000147863
0.00297228
-7.43013e-05
0.00296933
2.98221e-06
0.00293321
6.94569e-05
0.00287483
0.000114696
0.0028079
0.000132557
0.00274689
0.00012123
0.00270506
8.32439e-05
0.0026929
2.45674e-05
0.0027169
-4.64211e-05
0.00277817
-0.000119013
0.00287107
-0.000180427
0.00298319
-0.000217899
0.00309734
-0.000222346
0.00319522
-0.000191429
0.00326146
-0.000130456
0.00328676
-5.10552e-05
0.00326957
3.17764e-05
0.00321589
0.000103189
0.00313735
0.000152094
0.00304786
0.000173888
0.00296006
0.000171055
0.00288274
0.000150974
0.00282061
0.000121718
0.00277572
8.83416e-05
0.00274942
5.21941e-05
0.00274297
1.33294e-05
0.00275668
-2.64676e-05
0.00278851
-6.25308e-05
0.00283327
-8.84974e-05
0.00288294
-9.85128e-05
0.00292786
-8.91458e-05
0.00295846
-6.05644e-05
0.00296729
-1.70253e-05
0.0029508
3.35027e-05
0.00291047
8.09028e-05
0.00285254
0.000115767
0.00278613
0.000132424
0.00272062
0.000130491
0.00266332
0.000114133
0.00261831
8.97001e-05
0.00258667
6.32109e-05
0.00256732
3.88725e-05
0.00255808
1.88456e-05
0.00255642
3.77029e-06
0.00255994
-6.54434e-06
0.00256649
-1.26111e-05
0.00257422
-1.50102e-05
0.00258156
-1.43296e-05
0.00258729
-1.12046e-05
0.00259055
-6.36735e-06
0.00259089
-6.43202e-07
0.00258829
5.12149e-06
0.00258314
1.01744e-05
0.00257606
1.39653e-05
0.00256786
1.62053e-05
0.00255933
1.68646e-05
0.00255119
1.61232e-05
0.00254398
1.42991e-05
0.00253806
1.17734e-05
0.00253359
8.92929e-06
0.00253054
6.10467e-06
0.00252878
3.56386e-06
0.00252807
1.48318e-06
0.00252813
-4.72794e-08
0.00252867
-1.01415e-06
0.00252943
-1.45935e-06
0.00253018
-1.46669e-06
0.00253077
-1.13334e-06
0.00253106
-5.73225e-07
0.00253101
1.21142e-07
0.00253058
8.44111e-07
0.00252981
1.53574e-06
0.00252873
2.12984e-06
0.00252744
2.55801e-06
2.98092e-06
0.0025021
-6.4218e-06
0.00250858
-1.97384e-05
0.00251997
-3.45704e-05
0.00253698
-5.13294e-05
0.00256032
-6.99979e-05
0.00259046
-8.96548e-05
0.00262727
-0.000108631
0.00266954
-0.000123749
0.00271483
-0.000131624
0.0027592
-0.000128323
0.00279782
-0.000111544
0.0028268
-8.35644e-05
0.00284307
-4.66794e-05
0.00284447
-3.79721e-06
0.00283012
4.11119e-05
0.00280128
8.19258e-05
0.0027621
0.000110832
0.00271899
0.000121686
0.00267929
0.000111905
0.00264999
8.25775e-05
0.00263647
3.84126e-05
0.00264141
-1.26469e-05
0.0026635
-5.94113e-05
0.00269644
-8.83707e-05
0.00272944
-8.80479e-05
0.00275064
-5.5892e-05
0.00275186
-1.47783e-06
0.0027313
5.84004e-05
0.0026929
0.000108266
0.0026437
0.000138991
0.00259159
0.000147401
0.00254424
0.000133564
0.0025089
9.85695e-05
0.00249246
4.40251e-05
0.00250092
-2.64719e-05
0.00253741
-0.000103985
0.00259883
-0.000171347
0.00267347
-0.000206133
0.00274291
-0.000191357
0.00278875
-0.000127154
0.00280003
-3.29132e-05
0.00277662
6.30608e-05
0.00272691
0.000137571
0.00266273
0.00018019
0.00259523
0.000191157
0.00253357
0.000174962
0.00248553
0.000135237
0.00245868
7.33198e-05
0.00246044
-9.35445e-06
0.00249626
-0.000106065
0.00256597
-0.000200046
0.00266021
-0.000265413
0.00275978
-0.000276292
0.00284024
-0.000220924
0.00288101
-0.000111485
0.0028738
1.96725e-05
0.0028245
0.000135866
0.00274823
0.000212629
0.00266179
0.000244147
0.00257849
0.00023781
0.00250714
0.000204333
0.00245385
0.000150617
0.00242449
7.81942e-05
0.00242583
-1.30515e-05
0.00246357
-0.000117723
0.00253777
-0.000219308
0.00263884
-0.00029212
0.00274786
-0.000311567
0.00284183
-0.000266042
0.00290049
-0.000162842
0.00291193
-2.61688e-05
0.00287562
0.000110511
0.00280207
0.000215676
0.00270859
0.000271015
0.00261289
0.000276039
0.00252832
0.000242798
0.00246365
0.000184153
0.0024263
0.00010504
0.00242464
4.72078e-06
0.0024653
-0.000111953
0.00254728
-0.000226336
0.00265857
-0.000310322
0.00277839
-0.000339804
0.00288369
-0.000306397
0.00295616
-0.000220328
0.0029866
-0.000104747
0.00297572
1.38648e-05
0.00293177
0.000113408
0.00286731
0.000179158
0.00279653
0.000203332
0.00273359
0.000184172
0.00269149
0.000125347
0.00268122
3.48421e-05
0.00271026
-7.54666e-05
0.00278009
-0.000188847
0.00288399
-0.000284323
0.0030073
-0.000341211
0.00313062
-0.000345662
0.00323426
-0.000295068
0.00330236
-0.000198562
0.00332578
-7.44716e-05
0.00330342
5.41361e-05
0.00324209
0.000164519
0.00315453
0.000239657
0.00305589
0.000272528
0.00295985
0.000267087
0.00287598
0.000234848
0.00280933
0.000188372
0.00276208
0.000135589
0.00273544
7.88341e-05
0.00273022
1.85498e-05
0.002746
-4.22471e-05
0.00277992
-9.64557e-05
0.00282625
-0.000134823
0.00287687
-0.000149131
0.00292244
-0.000134718
0.00295381
-9.19348e-05
0.00296364
-2.6852e-05
0.00294816
4.89832e-05
0.0029085
0.000120555
0.00285069
0.000173582
0.0027839
0.000199218
0.00271777
0.000196618
0.00265994
0.00017196
0.00261477
0.000134872
0.00258341
9.45656e-05
0.00256477
5.75216e-05
0.00255652
2.70907e-05
0.00255602
4.27224e-06
0.00256071
-1.12339e-05
0.00256833
-2.02358e-05
0.00257697
-2.36447e-05
0.00258501
-2.23731e-05
0.0025912
-1.73963e-05
0.00259467
-9.83519e-06
0.00259498
-9.55836e-07
0.00259216
7.94067e-06
0.00258664
1.56988e-05
0.00257912
2.14793e-05
0.00257048
2.48501e-05
0.00256156
2.57811e-05
0.00255312
2.45644e-05
0.00254572
2.16998e-05
0.00253971
1.77804e-05
0.00253525
1.33966e-05
0.00253229
9.06649e-06
0.00253066
5.19185e-06
0.0025301
2.03768e-06
0.00253032
-2.64287e-07
0.00253101
-1.69986e-06
0.00253189
-2.33867e-06
0.00253273
-2.31296e-06
0.00253337
-1.77368e-06
0.00253369
-8.96197e-07
0.00253364
1.79138e-07
0.00253319
1.28958e-06
0.00253238
2.34987e-06
0.00253126
3.24929e-06
0.00252991
3.90693e-06
4.52396e-06
0.00250203
-8.45604e-06
0.00250831
-2.60181e-05
0.00251944
-4.56963e-05
0.00253622
-6.81143e-05
0.00255956
-9.33319e-05
0.0025901
-0.000120192
0.00262797
-0.000146509
0.00267209
-0.000167869
0.00272003
-0.000179558
0.00276737
-0.000175668
0.00280864
-0.00015281
0.00283971
-0.000114634
0.00285732
-6.42932e-05
0.00285904
-5.51145e-06
0.00284353
5.66192e-05
0.00281183
0.000113625
0.00276843
0.000154229
0.00272053
0.000169591
0.00267635
0.000156079
0.00264376
0.00011517
0.00262894
5.3238e-05
0.00263525
-1.89637e-05
0.00266173
-8.58888e-05
0.00270134
-0.000127977
0.0027413
-0.000128012
0.00276731
-8.1897e-05
0.00276966
-3.83058e-06
0.00274673
8.13278e-05
0.00270372
0.000151277
0.00264903
0.000193681
0.00259143
0.000205005
0.00253896
0.000186028
0.00249917
0.000138357
0.00247959
6.36073e-05
0.00248754
-3.44239e-05
0.00252784
-0.000144285
0.00259798
-0.000241482
0.00268432
-0.000292475
0.00276448
-0.000271519
0.00281626
-0.000178934
0.00282725
-4.39034e-05
0.00279847
9.18401e-05
0.00274092
0.000195124
0.00266874
0.000252366
0.00259426
0.000265639
0.00252674
0.000242484
0.00247364
0.000188338
0.00244217
0.00010479
0.00243974
-6.92928e-06
0.00247274
-0.000139059
0.00254312
-0.000270426
0.00264367
-0.00036597
0.0027552
-0.000387822
0.00284994
-0.000315664
0.00290182
-0.000163365
0.00289819
2.3305e-05
0.00284468
0.000189375
0.00275976
0.00029755
0.00266422
0.00033969
0.00257353
0.000328494
0.00249636
0.000281509
0.00243756
0.000209411
0.00240273
0.000113029
0.00240042
-1.07441e-05
0.00243914
-0.000156442
0.00251985
-0.000300019
0.00263062
-0.000402893
0.00274872
-0.000429661
0.0028485
-0.000365825
0.00290953
-0.000223867
0.00292101
-3.76548e-05
0.00288314
0.000148388
0.00280644
0.000292373
0.00270838
0.000369074
0.00260729
0.000377131
0.0025173
0.000332788
0.00244819
0.000253257
0.00240926
0.000143976
0.00241105
2.93379e-06
0.0024608
-0.000161711
0.00255535
-0.000320881
0.00267879
-0.000433759
0.00280702
-0.000468033
0.00291529
-0.000414674
0.00298494
-0.000289977
0.0030075
-0.000127302
0.00298547
3.58942e-05
0.00292981
0.000169066
0.00285558
0.000253391
0.00277823
0.000280673
0.00271203
0.000250378
0.00266998
0.0001674
0.00266378
4.10404e-05
0.00270162
-0.000113314
0.00278412
-0.000271339
0.00290176
-0.000401965
0.00303671
-0.000476162
0.00316763
-0.000476579
0.00327461
-0.000402051
0.00334254
-0.000266491
0.00336294
-9.48773e-05
0.00333502
8.20608e-05
0.00326582
0.000233719
0.00316871
0.000336761
0.00305993
0.000381309
0.00295439
0.000372634
0.00286267
0.000326568
0.00279054
0.000260498
0.00274053
0.000185605
0.00271369
0.00010567
0.00271017
2.20734e-05
0.00272844
-6.05217e-05
0.00276456
-0.000132579
0.00281215
-0.00018241
0.00286312
-0.000200102
0.00290873
-0.000180329
0.00294059
-0.00012379
0.00295176
-3.80261e-05
0.00293828
6.2469e-05
0.00290061
0.000158218
0.00284417
0.000230025
0.00277793
0.000265459
0.00271178
0.000262771
0.0026538
0.000229935
0.00260878
0.000179898
0.00257808
0.000125256
0.00256064
7.49707e-05
0.00255399
3.37326e-05
0.0025553
2.96845e-06
0.0025618
-1.77321e-05
0.00257107
-2.95134e-05
0.0025811
-3.36667e-05
0.00259019
-3.1469e-05
0.00259706
-2.42651e-05
0.00260082
-1.3593e-05
0.00260106
-1.19452e-06
0.00259786
1.11365e-05
0.00259175
2.18093e-05
0.00258355
2.96793e-05
0.00257422
3.41758e-05
0.00256472
3.52889e-05
0.00255583
3.34519e-05
0.00254815
2.93776e-05
0.00254203
2.38967e-05
0.0025376
1.78275e-05
0.00253479
1.18804e-05
0.00253338
6.60039e-06
0.00253308
2.34036e-06
0.00253355
-7.31942e-07
0.00253446
-2.60987e-06
0.00253552
-3.39986e-06
0.0025365
-3.2911e-06
0.00253722
-2.49457e-06
0.00253757
-1.25273e-06
0.00253751
2.45104e-07
0.00253702
1.77343e-06
0.00253614
3.22933e-06
0.00253495
4.44063e-06
0.00253351
5.34786e-06
6.13082e-06
0.00250193
-1.03898e-05
0.00250793
-3.20121e-05
0.00251866
-5.64301e-05
0.00253509
-8.45454e-05
0.00255833
-0.000116571
0.00258934
-0.000151196
0.00262859
-0.000185763
0.00267521
-0.000214488
0.00272681
-0.000231158
0.0027783
-0.00022716
0.0028232
-0.00019771
0.00285711
-0.00014854
0.00287656
-8.37465e-05
0.00287877
-7.71646e-06
0.00286175
7.36324e-05
0.00282618
0.000149203
0.00277699
0.000203417
0.00272245
0.000224131
0.00267202
0.00020651
0.00263474
0.000152446
0.00261793
7.00434e-05
0.00262605
-2.70746e-05
0.00265866
-0.000118508
0.00270783
-0.000177142
0.00275786
-0.000178038
0.00279074
-0.00011478
0.00279458
-7.67652e-06
0.0027681
0.000107812
0.00271846
0.000200917
0.00265609
0.000256055
0.00259093
0.000270158
0.00253149
0.000245474
0.00248552
0.000184322
0.00246139
8.77358e-05
0.00246837
-4.14033e-05
0.00251373
-0.000189638
0.00259598
-0.000323738
0.0026992
-0.000395695
0.00279523
-0.000367548
0.00285574
-0.000239445
0.0028659
-5.40619e-05
0.00282882
0.000128923
0.00275971
0.000264236
0.00267625
0.00033582
0.00259235
0.000349549
0.00251715
0.000317674
0.00245709
0.000248402
0.002418
0.000143886
0.00240702
4.05085e-06
0.00243308
-0.00016512
0.00250242
-0.000339769
0.00261005
-0.000473597
0.00273534
-0.00051311
0.00284704
-0.000427368
0.00291445
-0.000230772
0.00291972
1.80311e-05
0.00286573
0.000243368
0.0027729
0.000390383
0.00266677
0.000445819
0.00256648
0.000428777
0.00248133
0.000366662
0.00241534
0.0002754
0.00237488
0.000153493
0.00237177
-7.63672e-06
0.00241711
-0.000201782
0.00251038
-0.000393291
0.00263488
-0.000527396
0.0027632
-0.00055798
0.00286731
-0.000469935
0.00292706
-0.000283616
0.00293392
-4.4513e-05
0.00289046
0.000191845
0.00280827
0.000374563
0.00270468
0.000472668
0.00259777
0.000484045
0.00250207
0.000428489
0.00242892
0.0003264
0.00239024
0.000182663
0.00239851
-5.34036e-06
0.00246001
-0.000223208
0.00256769
-0.000428565
0.00270154
-0.000567608
0.00283527
-0.000601763
0.00294397
-0.000523379
0.0030096
-0.000355607
0.00302422
-0.000141918
0.00299114
6.89794e-05
0.00292313
0.000237068
0.00283773
0.000338795
0.0027523
0.0003661
0.00268207
0.000320614
0.00264081
0.000208659
0.00264108
4.07685e-05
0.00269067
-0.000162901
0.00278724
-0.000367917
0.00291705
-0.000531773
0.00305926
-0.000618368
0.00319219
-0.000609508
0.00329756
-0.000507425
0.00336227
-0.000331201
0.00337899
-0.0001116
0.00334691
0.000114142
0.00327249
0.000308136
0.00316875
0.000440504
0.00305224
0.00049782
0.0029388
0.000486076
0.00284016
0.000425205
0.00276312
0.000337542
0.0027108
0.00023792
0.00268425
0.000132224
0.00268283
2.34939e-05
0.00270384
-8.15336e-05
0.00274223
-0.000170965
0.00279095
-0.000231133
0.00284188
-0.000251036
0.00288682
-0.00022527
0.00291832
-0.000155286
0.00293032
-5.00308e-05
0.00291908
7.37115e-05
0.00288448
0.000192821
0.00283096
0.000283542
0.00276684
0.00032958
0.00270192
0.000327692
0.00264467
0.000287183
0.00260038
0.000224189
0.00257082
0.000154818
0.00255504
9.07556e-05
0.00255052
3.8254e-05
0.00255419
-7.02122e-07
0.00256305
-2.66004e-05
0.0025745
-4.09583e-05
0.00258634
-4.55097e-05
0.00259682
-4.19491e-05
0.00260459
-3.20295e-05
0.00260873
-1.77415e-05
0.00260889
-1.34564e-06
0.0026052
1.48216e-05
0.00259832
2.86901e-05
0.00258921
3.87859e-05
0.00257899
4.44024e-05
0.0025687
4.55769e-05
0.00255923
4.29239e-05
0.00255119
3.74104e-05
0.00254495
3.0142e-05
0.00254058
2.2192e-05
0.00253798
1.44809e-05
0.00253688
7.70389e-06
0.00253692
2.29989e-06
0.00253772
-1.5357e-06
0.00253893
-3.81596e-06
0.00254023
-4.69695e-06
0.00254137
-4.43651e-06
0.00254219
-3.31404e-06
0.00254259
-1.64606e-06
0.0025425
3.27889e-07
0.00254196
2.31269e-06
0.00254099
4.19828e-06
0.00253971
5.72829e-06
0.00253814
6.91253e-06
7.82005e-06
0.0025018
-1.21865e-05
0.0025074
-3.76138e-05
0.00251758
-6.6609e-05
0.00253347
-0.000100436
0.00255646
-0.000139565
0.00258792
-0.000182652
0.00262881
-0.00022666
0.00267861
-0.000264281
0.00273505
-0.000287598
0.00279204
-0.000284154
0.00284169
-0.000247361
0.00287933
-0.000186181
0.00290137
-0.000105778
0.00290446
-1.08131e-05
0.00288563
9.24648e-05
0.00284489
0.000189945
0.00278787
0.00026043
0.0027244
0.000287602
0.00266559
0.000265328
0.00262197
0.000196058
0.00260232
8.9696e-05
0.00261259
-3.73448e-05
0.00265339
-0.000159302
0.00271565
-0.000239404
0.00277961
-0.000241995
0.00282194
-0.000157118
0.00282765
-1.33818e-05
0.00279608
0.000139379
0.00273739
0.000259607
0.00266486
0.000328587
0.00258996
0.000345057
0.00252154
0.000313894
0.0024675
0.000238364
0.00243705
0.000118192
0.0024411
-4.54599e-05
0.0024889
-0.000237432
0.00258134
-0.000416178
0.00270371
-0.000518065
0.00282326
-0.000487103
0.00290119
-0.000317377
0.00291478
-6.76517e-05
0.00286822
0.000175484
0.00278366
0.000348797
0.00268514
0.000434338
0.00258924
0.000445453
0.00250458
0.00040233
0.00243521
0.000317773
0.00238491
0.000194182
0.00236251
2.64561e-05
0.00238299
-0.000185601
0.00245726
-0.000414035
0.00257813
-0.00059447
0.00271874
-0.000653719
0.00284385
-0.000552482
0.00292227
-0.000309192
0.00293521
5.08977e-06
0.00288272
0.000295856
0.00278425
0.000488854
0.00266812
0.000561956
0.00255716
0.00053973
0.00246238
0.00046144
0.0023885
0.000349282
0.00234432
0.000197678
0.00234504
-8.36083e-06
0.00240185
-0.000258591
0.00250979
-0.000501231
0.00264693
-0.000664535
0.00278313
-0.000694178
0.00288984
-0.000576649
0.00294718
-0.000340955
0.00294773
-4.50602e-05
0.00289631
0.000243263
0.00280659
0.000464282
0.00269649
0.000582769
0.00258366
0.000596879
0.00248273
0.000529418
0.00240681
0.000402318
0.00237044
0.000219039
0.00238697
-2.18783e-05
0.00246008
-0.000296316
0.00257827
-0.000546753
0.00271827
-0.000707605
0.00285308
-0.000736576
0.00295891
-0.000629212
0.00301914
-0.000415837
0.00302648
-0.00014926
0.00298431
0.000111151
0.00290598
0.000315399
0.00281057
0.000434203
0.00271743
0.000459239
0.0026436
0.000394451
0.0026045
0.000247759
0.00261332
3.19477e-05
0.00267564
-0.000225223
0.00278418
-0.000476455
0.00292057
-0.000668163
0.00306262
-0.000760418
0.00319052
-0.00073741
0.00328914
-0.000606048
0.00334797
-0.000390027
0.00336087
-0.000124497
0.00332676
0.000148242
0.00325098
0.000383924
0.00314528
0.000546201
0.00302565
0.000617454
0.00290819
0.00060353
0.00280558
0.000527818
0.00272573
0.00041739
0.00267263
0.000291021
0.00264744
0.00015741
0.00264892
2.20141e-05
0.00267332
-0.000105929
0.00271451
-0.000212162
0.00276475
-0.000281369
0.00281569
-0.000301971
0.00285948
-0.000269068
0.0028896
-0.000185404
0.00290117
-6.1598e-05
0.00289126
8.36163e-05
0.00285971
0.000224374
0.00281007
0.000333184
0.00274959
0.00039006
0.00268747
0.000389806
0.00263223
0.000342425
0.00258958
0.000266844
0.00256176
0.000182638
0.0025481
0.000104412
0.00254611
4.02407e-05
0.00255255
-7.13704e-06
0.00256416
-3.82113e-05
0.00257811
-5.49038e-05
0.00259206
-5.94647e-05
0.00260418
-5.40666e-05
0.00261305
-4.09022e-05
0.00261775
-2.24382e-05
0.00261789
-1.49294e-06
0.00261372
1.89971e-05
0.00260599
3.64208e-05
0.00259584
4.89333e-05
0.00258456
5.5686e-05
0.00257334
5.67904e-05
0.00256318
5.30898e-05
0.00255473
4.58593e-05
0.00254834
3.65268e-05
0.00254408
2.64575e-05
0.00254175
1.68048e-05
0.00254104
8.4236e-06
0.0025415
1.8361e-06
0.00254271
-2.74647e-06
0.00254427
-5.37346e-06
0.00254584
-6.26763e-06
0.00254717
-5.77021e-06
0.0025481
-4.23915e-06
0.00254852
-2.07269e-06
0.00254841
4.38702e-07
0.0025478
2.92308e-06
0.00254672
5.27665e-06
0.00254532
7.13064e-06
0.00254361
8.62687e-06
9.60345e-06
0.00250162
-1.38022e-05
0.0025067
-4.26936e-05
0.00251611
-7.60264e-05
0.00253121
-0.000115532
0.00255371
-0.000162064
0.0025855
-0.000214441
0.00262822
-0.000269382
0.00268187
-0.000317935
0.00274453
-0.000350251
0.00280861
-0.000348234
0.00286418
-0.000302939
0.00290639
-0.00022839
0.00293162
-0.000131009
0.00293607
-1.52539e-05
0.00291527
0.00011326
0.00286823
0.000236985
0.00280138
0.000327282
0.00272652
0.000362464
0.00265685
0.000334994
0.00260482
0.000248086
0.00258104
0.00011348
0.00259362
-4.99258e-05
0.00264488
-0.000210568
0.00272461
-0.000319133
0.00280744
-0.000324823
0.0028625
-0.000212176
0.00287038
-2.12646e-05
0.00283162
0.000178136
0.00276083
0.000330405
0.00267526
0.000414149
0.00258825
0.000432068
0.00250884
0.000393309
0.00244481
0.000302389
0.00240521
0.000157797
0.00239997
-4.02195e-05
0.002439
-0.000276465
0.0025298
-0.000506975
0.00266665
-0.000654922
0.00281731
-0.00063776
0.00292941
-0.000429475
0.00296222
-0.000100465
0.00291341
0.000224294
0.00281277
0.000449441
0.00269565
0.000551457
0.00258481
0.000556288
0.00248858
0.000498565
0.00240743
0.000398922
0.00234401
0.000257604
0.00231257
5.78901e-05
0.00233579
-0.000208823
0.00242487
-0.000503116
0.00256466
-0.000734253
0.00272001
-0.000809066
0.00285269
-0.000685165
0.00293357
-0.000390071
0.00294709
-8.43502e-06
0.00289356
0.000349392
0.00279051
0.000591895
0.00266604
0.000686436
0.00254485
0.000660917
0.00244011
0.00056618
0.00235911
0.00043028
0.00231422
0.000242567
0.00232243
-1.65728e-05
0.00239182
-0.00032798
0.00251163
-0.000621043
0.00265628
-0.000809183
0.00279567
-0.000833569
0.00290284
-0.000683821
0.00295849
-0.000396603
0.00295471
-4.12763e-05
0.00289667
0.000301303
0.0027997
0.000561247
0.00268308
0.000699395
0.00256468
0.000715278
0.00245953
0.00063457
0.00238248
0.000479362
0.00235003
0.000251495
0.002375
-4.68491e-05
0.00245749
-0.000378812
0.00258203
-0.000671288
0.00272342
-0.000849001
0.00285517
-0.00086832
0.00295519
-0.000729238
0.00300863
-0.000469275
0.00300909
-0.000149723
0.00295987
0.000160375
0.00287406
0.000401209
0.00277126
0.000537005
0.00267234
0.000558162
0.00259659
0.000470197
0.00256155
0.000282797
0.00258014
1.33617e-05
0.00265368
-0.000298762
0.00276888
-0.000591656
0.00290406
-0.000803341
0.00303814
-0.000894498
0.00315505
-0.00085432
0.00324335
-0.000694347
0.00329482
-0.000441498
0.00330416
-0.000133837
0.00326994
0.000182458
0.00319625
0.000457617
0.00309327
0.000649185
0.00297568
0.00073504
0.00285914
0.00072007
0.00275673
0.000630224
0.00267737
0.000496754
0.00262595
0.000342437
0.00260399
0.000179379
0.00260977
1.62249e-05
0.00263854
-0.000134694
0.00268301
-0.000256632
0.0027347
-0.000333062
0.00278528
-0.000352545
0.00282746
-0.000311252
0.00285558
-0.000213519
0.0028658
-7.18177e-05
0.00285621
9.32037e-05
0.0028271
0.000253484
0.00278157
0.000378711
0.0027258
0.000445836
0.00266797
0.00044763
0.00261618
0.000394218
0.00257629
0.000306733
0.00255098
0.000207952
0.00253992
0.00011547
0.00254073
3.94341e-05
0.00255002
-1.64347e-05
0.00256436
-5.25441e-05
0.00258073
-7.12759e-05
0.00259676
-7.54952e-05
0.00261059
-6.78995e-05
0.00262079
-5.1099e-05
0.00262635
-2.79965e-05
0.00262682
-1.96897e-06
0.00262243
2.33872e-05
0.00261403
4.48265e-05
0.00260291
6.00508e-05
0.00259056
6.80335e-05
0.00257838
6.89751e-05
0.00256747
6.39987e-05
0.00255858
5.47519e-05
0.00255205
4.30471e-05
0.00254792
3.05902e-05
0.00254593
1.87988e-05
0.00254565
8.70018e-06
0.00254659
8.95754e-07
0.00254825
-4.40323e-06
0.00255018
-7.30415e-06
0.00255203
-8.11805e-06
0.00255355
-7.28712e-06
0.00255457
-5.25865e-06
0.00255501
-2.51948e-06
0.00255486
5.89887e-07
0.00255417
3.61462e-06
0.00255297
6.4734e-06
0.00255145
8.65254e-06
0.00254958
1.05026e-05
1.14798e-05
0.00250138
-1.51849e-05
0.00250579
-4.70964e-05
0.00251418
-8.44248e-05
0.00252814
-0.00012949
0.00254977
-0.000183693
0.00258163
-0.000246296
0.00262623
-0.00031399
0.00268446
-0.000376162
0.002755
-0.000420791
0.00282811
-0.000421344
0.00289099
-0.000365821
0.00293889
-0.000276289
0.0029685
-0.000160623
0.0029752
-2.19446e-05
0.00295224
0.000136219
0.00289707
0.000292149
0.00281741
0.000406946
0.00272791
0.00045196
0.00264445
0.000418459
0.00258158
0.000310948
0.00255204
0.000143023
0.00256695
-6.48354e-05
0.00263172
-0.000275337
0.00273495
-0.000422362
0.00284312
-0.000432992
0.00291471
-0.000283771
0.00292471
-3.12613e-05
0.0028758
0.000227045
0.00278903
0.00041718
0.00268708
0.000516095
0.00258547
0.000533682
0.00249326
0.000485514
0.00241725
0.000378399
0.00236321
0.000211841
0.00233738
-1.43965e-05
0.00235427
-0.000293354
0.00243476
-0.000587463
0.00258266
-0.000802824
0.00276515
-0.000820248
0.00292028
-0.000584599
0.00298915
-0.000169338
0.00295359
0.000259852
0.00284373
0.000559305
0.00270768
0.000687506
0.00257927
0.000684694
0.00246893
0.000608905
0.00237432
0.000493533
0.00229937
0.000332556
0.00226584
9.14223e-05
0.00230043
-0.000243416
0.00240807
-0.000610757
0.00256407
-0.000890253
0.00272899
-0.000973981
0.00286498
-0.000821164
0.00294464
-0.000469725
0.00295471
-1.8511e-05
0.00289733
0.000406773
0.00278968
0.000699548
0.00265854
0.000817579
0.00252865
0.000790802
0.00241514
0.00067969
0.00232903
0.00051639
0.0022862
0.000285398
0.00230315
-3.35242e-05
0.00238291
-0.00040774
0.00250957
-0.000747696
0.00265602
-0.000955642
0.002794
-0.000971547
0.00289919
-0.000789011
0.0029535
-0.000450915
0.00294813
-3.59001e-05
0.0028869
0.000362533
0.00278527
0.000662879
0.00266363
0.000821029
0.00254081
0.000838103
0.00243283
0.000742543
0.00235629
0.000555906
0.00232862
0.000279166
0.00236092
-7.91508e-05
0.00244953
-0.000467423
0.00257599
-0.000797747
0.00271454
-0.000987553
0.00283993
-0.000993713
0.00293201
-0.000821309
0.00297759
-0.000514855
0.00297129
-0.000143429
0.00291648
0.000215189
0.00282573
0.000491956
0.00271844
0.000644298
0.00261646
0.000660141
0.00254135
0.000545303
0.00251239
0.000311758
0.00254063
-1.48784e-05
0.00262152
-0.000379651
0.00273631
-0.000706453
0.00286253
-0.000929559
0.00298258
-0.00101455
0.00308494
-0.000956681
0.00316139
-0.000770795
0.00320517
-0.000485276
0.00321133
-0.000139995
0.00317817
0.000215619
0.00310888
0.000526899
0.00301222
0.000745853
0.00290124
0.000846013
0.00279049
0.000830819
0.00269287
0.000727851
0.0026179
0.000571722
0.00257135
0.000388985
0.00255508
0.00019565
0.00256682
4.48563e-06
0.00260045
-0.000168326
0.00264749
-0.000303675
0.00269924
-0.000384812
0.00274816
-0.000401459
0.0027881
-0.000351191
0.00281425
-0.000239674
0.00282337
-8.09396e-05
0.00281414
0.000102435
0.00278736
0.000280263
0.0027461
0.000419971
0.00269575
0.000496188
0.00264343
0.000499953
0.00259645
0.000441199
0.0025605
0.000342674
0.00253852
0.000229941
0.00253045
0.000123537
0.002534
3.5881e-05
0.0025457
-2.81362e-05
0.002562
-6.8842e-05
0.00257997
-8.92449e-05
0.00259745
-9.29752e-05
0.00261279
-8.3241e-05
0.00262459
-6.28963e-05
0.00263167
-3.50755e-05
0.00263332
-3.61745e-06
0.00262954
2.71647e-05
0.00262113
5.32334e-05
0.00260951
7.16706e-05
0.00259638
8.11663e-05
0.00258336
8.19897e-05
0.00257178
7.55879e-05
0.00256247