/*--------------------------------*- C++ -*----------------------------------*\
  =========                 |
  \\      /  F ield         | OpenFOAM: The Open Source CFD Toolbox
   \\    /   O peration     | Website:  https://openfoam.org
    \\  /    A nd           | Version:  11
     \\/     M anipulation  |
\*---------------------------------------------------------------------------*/
FoamFile
{
    format      ascii;
    class       volVectorField;
    location    "7.325989";
    object      U;
}
// * * * * * * * * * * * * * * * * * * * * * * * * * * * * * * * * * * * * * //

dimensions      [0 1 -1 0 0 0 0];

internalField   nonuniform List<vector> 
7132
(
(1.00014 -0.000287068 1.93457e-18)
(1.00222 -0.000866192 7.72903e-18)
(1.00694 -0.00148066 8.13589e-18)
(1.01411 -0.00214197 9.58062e-18)
(1.02405 -0.00285298 1.1865e-17)
(1.03692 -0.00359321 1.1998e-17)
(1.0528 -0.0043228 1.12e-17)
(1.07153 -0.00496362 1.04374e-17)
(1.09258 -0.00543193 9.94247e-18)
(1.1151 -0.00563934 9.58656e-18)
(1.13782 -0.0055365 9.11153e-18)
(1.15955 -0.00519081 8.81217e-18)
(1.17945 -0.00466648 7.57493e-18)
(1.19695 -0.00403147 7.99997e-18)
(1.21175 -0.00335193 -2.01209e-18)
(1.22378 -0.00268062 -1.06832e-17)
(1.23318 -0.00206176 -1.80168e-17)
(1.24025 -0.00152871 -1.22708e-17)
(1.24538 -0.00109897 -1.4569e-17)
(1.24901 -0.000766475 -2.66458e-17)
(1.25149 -0.000496177 -2.84511e-17)
(1.25297 -0.000225899 -3.45383e-17)
(1.25332 0.000120446 -4.5786e-17)
(1.25206 0.000609059 -6.3132e-17)
(1.2485 0.00126703 -6.66933e-17)
(1.24196 0.00205936 -8.08734e-17)
(1.23203 0.00288705 -9.43436e-17)
(1.21881 0.00361372 -1.05515e-16)
(1.20301 0.00410849 -1.16305e-16)
(1.18578 0.00428462 -1.14137e-16)
(1.16854 0.00411935 -1.09022e-16)
(1.15264 0.0036539 -1.00465e-16)
(1.13916 0.00297967 -9.62665e-17)
(1.12871 0.00221819 -7.86701e-17)
(1.12138 0.00149824 -5.22096e-17)
(1.11675 0.000932675 -1.58111e-17)
(1.11399 0.00059791 3.09564e-17)
(1.11206 0.000519322 8.12537e-17)
(1.10994 0.000668593 1.39259e-16)
(1.10681 0.000975514 1.96413e-16)
(1.1022 0.00135 2.5113e-16)
(1.09603 0.00170568 3.015e-16)
(1.08855 0.00197673 3.43979e-16)
(1.08019 0.00212519 3.85143e-16)
(1.0715 0.00213986 4.23438e-16)
(1.06302 0.00203055 4.62691e-16)
(1.0552 0.00182086 5.05093e-16)
(1.0484 0.00154159 5.50843e-16)
(1.04283 0.0012257 6.03963e-16)
(1.03857 0.000904745 6.59872e-16)
(1.03558 0.000606351 7.1381e-16)
(1.03372 0.000352424 7.62137e-16)
(1.03277 0.000157921 8.01609e-16)
(1.03248 3.01671e-05 8.25787e-16)
(1.03256 -3.12379e-05 8.32413e-16)
(1.03275 -3.36673e-05 8.20807e-16)
(1.03285 1.00934e-05 7.93334e-16)
(1.03269 8.40844e-05 7.55721e-16)
(1.03219 0.000171685 7.10067e-16)
(1.03133 0.00025791 6.59636e-16)
(1.03013 0.00033107 6.05274e-16)
(1.02867 0.000383595 5.46855e-16)
(1.02705 0.000412076 4.83344e-16)
(1.02537 0.000416719 4.09282e-16)
(1.02371 0.000400469 3.22529e-16)
(1.02215 0.000368034 2.18544e-16)
(1.02076 0.000324964 9.26619e-17)
(1.01955 0.000276877 -5.64429e-17)
(1.01854 0.000228872 -2.31363e-16)
(1.01771 0.000185127 -4.28959e-16)
(1.01706 0.000148668 -6.47282e-16)
(1.01653 0.000121291 -8.82583e-16)
(1.01609 0.000103606 -1.12872e-15)
(1.0157 9.51844e-05 -1.38158e-15)
(1.01533 9.47815e-05 -1.63355e-15)
(1.01494 0.000100597 -1.88086e-15)
(1.01453 0.000110552 -2.12025e-15)
(1.01406 0.000122553 -2.34855e-15)
(1.01355 0.000134707 -2.56614e-15)
(1.01298 0.000145484 -2.77113e-15)
(1.01238 0.000153804 -2.96565e-15)
(1.01175 0.000159064 -3.15186e-15)
(1.01111 0.000161107 -3.33116e-15)
(1.01046 0.000160143 -3.50688e-15)
(1.00982 0.000156659 -3.67832e-15)
(1.00921 0.000151305 -3.84686e-15)
(1.00861 0.000144799 -4.01154e-15)
(1.00805 0.000137835 -4.16932e-15)
(1.00751 0.000131024 -4.31775e-15)
(1.007 0.000124847 -4.45042e-15)
(1.00651 0.000119633 -4.56446e-15)
(1.00604 0.000115561 -4.65713e-15)
(1.00558 0.000112669 -4.72577e-15)
(1.00514 0.000110878 -4.77286e-15)
(1.0047 0.000110022 -4.79888e-15)
(1.00426 0.000109881 -4.8063e-15)
(1.00382 0.00011021 -4.79778e-15)
(1.00337 0.000110769 -4.77329e-15)
(1.00293 0.000111344 -4.73473e-15)
(1.00248 0.000111765 -4.67962e-15)
(1.00203 0.000111912 -4.60676e-15)
(1.00158 0.000111716 -4.51597e-15)
(1.00114 0.000111157 -4.40653e-15)
(1.00069 0.000110252 -4.28171e-15)
(1.00025 0.000109042 -4.14111e-15)
(0.99982 0.000107582 -3.98413e-15)
(0.999391 0.000105927 -3.80725e-15)
(0.99897 0.000104125 -3.60111e-15)
(0.998556 0.000102205 -3.35503e-15)
(0.998151 0.000100179 -3.05121e-15)
(0.997753 9.80345e-05 -2.67146e-15)
(0.997364 9.5738e-05 -2.19819e-15)
(0.996984 9.32398e-05 -1.61529e-15)
(0.996615 9.04802e-05 -9.15565e-16)
(0.996257 8.73957e-05 -9.68388e-17)
(0.995913 8.39178e-05 8.30589e-16)
(0.995583 7.99561e-05 1.84412e-15)
(0.995269 7.5359e-05 2.9109e-15)
(0.994976 6.98518e-05 3.98593e-15)
(0.994706 6.29642e-05 5.02299e-15)
(0.994467 5.39786e-05 5.97583e-15)
(0.994268 4.19401e-05 6.80148e-15)
(0.994124 2.57713e-05 7.4678e-15)
(0.994054 4.51647e-06 7.95504e-15)
(0.994078 -2.23044e-05 8.26836e-15)
(0.99422 -5.42993e-05 8.45057e-15)
(0.994498 -8.9883e-05 8.59107e-15)
(0.994922 -0.000126167 8.82864e-15)
(0.995489 -0.000159171 9.32632e-15)
(0.996177 -0.000184393 1.0225e-14)
(0.996945 -0.000197663 1.15664e-14)
(0.99774 -0.000196102 1.32055e-14)
(0.998499 -0.000178934 1.47416e-14)
(0.999159 -0.000147897 1.54875e-14)
(0.999673 -0.0001071 1.45193e-14)
(1.00001 -6.23089e-05 1.0814e-14)
(1.00017 -1.98176e-05 3.47675e-15)
(1.00017 1.48088e-05 -7.9702e-15)
(1.00005 3.77991e-05 -2.33154e-14)
(0.999863 4.77831e-05 -4.14809e-14)
(0.999664 4.58162e-05 -6.05229e-14)
(0.999495 3.48647e-05 -7.78592e-14)
(0.999384 1.89344e-05 -9.0717e-14)
(0.999343 2.09932e-06 -9.67361e-14)
(0.999367 -1.23212e-05 -9.45616e-14)
(0.999441 -2.22651e-05 -8.4252e-14)
(0.999545 -2.70516e-05 -6.73506e-14)
(0.999659 -2.71737e-05 -4.65748e-14)
(0.999764 -2.38851e-05 -2.52139e-14)
(0.999851 -1.87265e-05 -6.39024e-15)
(0.999915 -1.31206e-05 7.59823e-15)
(0.999956 -8.11288e-06 1.56815e-14)
(0.99998 -4.27745e-06 1.80841e-14)
(0.99999 -1.75802e-06 1.60604e-14)
(0.999994 -3.94142e-07 1.14259e-14)
(0.999993 1.31243e-07 6.0312e-15)
(0.999992 1.63999e-07 1.3281e-15)
(0.999992 -1.89505e-08 -1.81615e-15)
(0.999992 -2.05227e-07 -3.38212e-15)
(0.999994 -3.69743e-07 -2.89857e-15)
(1.00014 -0.000858387 2.80714e-20)
(1.0022 -0.00259141 3.73735e-19)
(1.00688 -0.00443171 7.57337e-19)
(1.01401 -0.00641632 1.13295e-18)
(1.02391 -0.00855482 1.52056e-18)
(1.03678 -0.0107869 1.88336e-18)
(1.05272 -0.0129935 2.25545e-18)
(1.07159 -0.0149364 2.143e-18)
(1.09287 -0.0163605 5.55667e-18)
(1.11569 -0.0169898 7.00218e-18)
(1.1387 -0.0166711 4.42875e-18)
(1.16065 -0.0156187 4.58755e-18)
(1.18071 -0.0140289 -1.9407e-19)
(1.19829 -0.0121081 1.06105e-17)
(1.21311 -0.0100565 4.25626e-17)
(1.22512 -0.00803253 8.57698e-17)
(1.23446 -0.00616913 1.20469e-16)
(1.24143 -0.00456705 1.28201e-16)
(1.24647 -0.00327979 9.72758e-17)
(1.25001 -0.00228983 2.50418e-17)
(1.25246 -0.00149129 -8.21079e-17)
(1.25398 -0.000694702 -2.0652e-16)
(1.25444 0.000333338 -3.22382e-16)
(1.25333 0.0017972 -4.11994e-16)
(1.24993 0.00378232 -4.65514e-16)
(1.24348 0.00618342 -4.82657e-16)
(1.23352 0.00869798 -4.69317e-16)
(1.22014 0.0109082 -4.34083e-16)
(1.20405 0.0124134 -3.84069e-16)
(1.18649 0.012949 -3.23953e-16)
(1.16892 0.0124462 -2.40274e-16)
(1.15275 0.0110309 -1.54149e-16)
(1.1391 0.00898117 -4.39164e-17)
(1.12861 0.00666641 1.0824e-16)
(1.12136 0.00447788 2.92585e-16)
(1.1169 0.00275886 5.20228e-16)
(1.11438 0.00174225 7.59765e-16)
(1.11269 0.00150565 9.87921e-16)
(1.11077 0.00196265 1.19265e-15)
(1.10775 0.0028989 1.3521e-15)
(1.10318 0.00403966 1.47388e-15)
(1.09698 0.00512208 1.55215e-15)
(1.0894 0.00594665 1.59787e-15)
(1.08093 0.0063988 1.62779e-15)
(1.07211 0.00644538 1.64882e-15)
(1.06351 0.00611671 1.67671e-15)
(1.05561 0.0054845 1.70896e-15)
(1.04875 0.00464198 1.74694e-15)
(1.04314 0.00368872 1.78728e-15)
(1.03888 0.00271995 1.81308e-15)
(1.03591 0.00181907 1.80834e-15)
(1.03409 0.00105227 1.75382e-15)
(1.03319 0.000464836 1.63299e-15)
(1.03295 7.90465e-05 1.44292e-15)
(1.03309 -0.00010609 1.18935e-15)
(1.03334 -0.000112754 8.91019e-16)
(1.03348 2.04399e-05 5.71383e-16)
(1.03334 0.000245188 2.53556e-16)
(1.03285 0.000511125 -4.40986e-17)
(1.03198 0.000772827 -3.16267e-16)
(1.03077 0.00099487 -5.62405e-16)
(1.0293 0.00115434 -7.92814e-16)
(1.02765 0.00124093 -1.02299e-15)
(1.02594 0.0012553 -1.26926e-15)
(1.02426 0.0012064 -1.54773e-15)
(1.02269 0.0011085 -1.86854e-15)
(1.02128 0.000978396 -2.24523e-15)
(1.02007 0.000833101 -2.67774e-15)
(1.01905 0.000688036 -3.16295e-15)
(1.01823 0.000555836 -3.69144e-15)
(1.01758 0.000445656 -4.24682e-15)
(1.01706 0.000362932 -4.81667e-15)
(1.01663 0.000309515 -5.37999e-15)
(1.01625 0.00028412 -5.92075e-15)
(1.01588 0.000282986 -6.42483e-15)
(1.0155 0.000300669 -6.88046e-15)
(1.01508 0.000330883 -7.28679e-15)
(1.01462 0.000367289 -7.63957e-15)
(1.0141 0.000404157 -7.94197e-15)
(1.01354 0.000436849 -8.19828e-15)
(1.01293 0.000462098 -8.41359e-15)
(1.0123 0.000478081 -8.59938e-15)
(1.01165 0.000484321 -8.75933e-15)
(1.011 0.000481463 -8.89964e-15)
(1.01036 0.000470975 -9.02236e-15)
(1.00974 0.000454829 -9.12585e-15)
(1.00914 0.000435195 -9.21057e-15)
(1.00857 0.000414178 -9.26673e-15)
(1.00803 0.000393622 -9.28681e-15)
(1.00752 0.000374982 -9.26104e-15)
(1.00703 0.000359257 -9.18156e-15)
(1.00656 0.000346986 -9.04842e-15)
(1.0061 0.000338285 -8.85994e-15)
(1.00566 0.000332917 -8.62279e-15)
(1.00521 0.00033038 -8.34506e-15)
(1.00477 0.000330005 -8.03491e-15)
(1.00433 0.000331054 -7.70009e-15)
(1.00389 0.0003328 -7.3417e-15)
(1.00344 0.000334596 -6.96052e-15)
(1.00299 0.000335926 -6.55323e-15)
(1.00254 0.000336427 -6.11574e-15)
(1.00209 0.000335894 -5.6472e-15)
(1.00164 0.000334264 -5.14653e-15)
(1.00119 0.00033159 -4.61866e-15)
(1.00075 0.000327998 -4.06722e-15)
(1.00031 0.000323656 -3.49267e-15)
(0.999877 0.000318733 -2.89106e-15)
(0.999452 0.000313372 -2.24755e-15)
(0.999034 0.000307668 -1.54309e-15)
(0.998624 0.000301654 -7.50897e-16)
(0.998222 0.000295297 1.58992e-16)
(0.997828 0.000288497 1.2147e-15)
(0.997443 0.000281106 2.44368e-15)
(0.997069 0.000272944 3.86329e-15)
(0.996705 0.000263818 5.48387e-15)
(0.996354 0.000253522 7.30541e-15)
(0.996017 0.000241784 9.3155e-15)
(0.995696 0.000228157 1.1495e-14)
(0.995394 0.000211836 1.3815e-14)
(0.995115 0.00019144 1.6248e-14)
(0.994867 0.000164859 1.87729e-14)
(0.994657 0.000129274 2.13749e-14)
(0.9945 8.14875e-05 2.40514e-14)
(0.994414 1.8637e-05 2.68075e-14)
(0.99442 -6.07568e-05 2.96668e-14)
(0.99454 -0.000155611 3.27e-14)
(0.994791 -0.000261308 3.60308e-14)
(0.995185 -0.00036935 3.98283e-14)
(0.995719 -0.000467952 4.4247e-14)
(0.996371 -0.000543719 4.93279e-14)
(0.997103 -0.000584173 5.48636e-14)
(0.997863 -0.000580618 6.02538e-14)
(0.99859 -0.000530573 6.44178e-14)
(0.999223 -0.00043905 6.57933e-14)
(0.999713 -0.000318161 6.24788e-14)
(1.00003 -0.000185021 5.25313e-14)
(1.00018 -5.84064e-05 3.43939e-14)
(1.00017 4.50006e-05 7.41713e-15)
(1.00004 0.000113815 -2.76622e-14)
(0.999855 0.000143802 -6.84319e-14)
(0.999655 0.000137992 -1.10815e-13)
(0.999485 0.000105173 -1.49496e-13)
(0.999374 5.73064e-05 -1.78773e-13)
(0.999334 6.61169e-06 -1.93755e-13)
(0.99936 -3.69086e-05 -1.91578e-13)
(0.999437 -6.70023e-05 -1.72271e-13)
(0.999543 -8.15637e-05 -1.38936e-13)
(0.999658 -8.20333e-05 -9.71388e-14)
(0.999765 -7.21639e-05 -5.36729e-14)
(0.999853 -5.65978e-05 -1.50339e-14)
(0.999917 -3.96412e-05 1.39521e-14)
(0.999959 -2.44713e-05 3.09737e-14)
(0.999982 -1.28432e-05 3.63831e-14)
(0.999992 -5.20625e-06 3.26665e-14)
(0.999995 -1.08143e-06 2.34859e-14)
(0.999994 4.912e-07 1.26119e-14)
(0.999992 5.64618e-07 3.02987e-15)
(0.999992 -1.64871e-08 -3.45085e-15)
(0.999992 -6.01982e-07 -6.7407e-15)
(0.999994 -1.11666e-06 -5.88242e-15)
(1.00014 -0.00142188 2.13983e-22)
(1.00216 -0.00429451 5.43614e-21)
(1.00676 -0.00735163 7.5176e-21)
(1.0138 -0.0106608 1.46613e-20)
(1.02362 -0.0142429 -1.53034e-19)
(1.03649 -0.0180014 2.24598e-19)
(1.05254 -0.0217397 -8.32588e-19)
(1.07169 -0.0250485 -1.50961e-18)
(1.09344 -0.0274887 6.19377e-18)
(1.11686 -0.0285622 -9.13238e-19)
(1.14046 -0.0279962 -3.6845e-17)
(1.16286 -0.0261897 -3.12173e-17)
(1.18323 -0.0234826 9.6975e-17)
(1.20099 -0.0202271 3.19382e-16)
(1.21586 -0.0167609 4.92346e-16)
(1.22781 -0.0133483 4.59516e-16)
(1.23702 -0.0102131 1.47091e-16)
(1.24381 -0.00752775 -4.15805e-16)
(1.24864 -0.00538753 -1.13202e-15)
(1.25203 -0.00376706 -1.87622e-15)
(1.25441 -0.00248742 -2.51897e-15)
(1.25602 -0.0012216 -2.89983e-15)
(1.25669 0.000438634 -2.91344e-15)
(1.2559 0.00285684 -2.6264e-15)
(1.25281 0.00619253 -2.13131e-15)
(1.24653 0.0102708 -1.5348e-15)
(1.23649 0.0145678 -9.28223e-16)
(1.22274 0.0183552 -3.66498e-16)
(1.20608 0.0209357 1.38256e-16)
(1.18782 0.0218511 6.08276e-16)
(1.16957 0.020985 1.08835e-15)
(1.15287 0.0185569 1.62657e-15)
(1.13891 0.0150457 2.26407e-15)
(1.12837 0.0110853 3.01747e-15)
(1.12132 0.00734672 3.85635e-15)
(1.11726 0.00441887 4.70034e-15)
(1.11523 0.00270137 5.43853e-15)
(1.11404 0.0023258 5.97524e-15)
(1.1125 0.00313969 6.26983e-15)
(1.10971 0.00476952 6.34147e-15)
(1.10517 0.00673949 6.24892e-15)
(1.09884 0.00859795 6.05853e-15)
(1.09103 0.0100058 5.82498e-15)
(1.08227 0.0107719 5.58564e-15)
(1.07318 0.010845 5.36034e-15)
(1.06434 0.0102808 5.15458e-15)
(1.05625 0.00920404 4.95712e-15)
(1.04928 0.00777403 4.73788e-15)
(1.04363 0.00615978 4.44649e-15)
(1.03938 0.00452214 4.0149e-15)
(1.03648 0.00300177 3.37158e-15)
(1.03476 0.00171019 2.46215e-15)
(1.034 0.000723677 1.26974e-15)
(1.0339 7.95875e-05 -1.60076e-16)
(1.03417 -0.000224191 -1.73204e-15)
(1.03452 -0.000225824 -3.33234e-15)
(1.03474 8.56432e-06 -4.83776e-15)
(1.03465 0.000396462 -6.1513e-15)
(1.03416 0.000852047 -7.22971e-15)
(1.03327 0.0012982 -8.08254e-15)
(1.03202 0.00167509 -8.75694e-15)
(1.03049 0.00194436 -9.32466e-15)
(1.02879 0.00208918 -9.86517e-15)
(1.02703 0.00211128 -1.04497e-14)
(1.02531 0.00202629 -1.11379e-14)
(1.0237 0.00185875 -1.19644e-14)
(1.02228 0.0016373 -1.29443e-14)
(1.02105 0.00139081 -1.40686e-14)
(1.02004 0.00114534 -1.53054e-14)
(1.01923 0.000922208 -1.66083e-14)
(1.0186 0.000736779 -1.79168e-14)
(1.01809 0.000598112 -1.91718e-14)
(1.01768 0.000509201 -2.03193e-14)
(1.01732 0.00046774 -2.13154e-14)
(1.01696 0.000467244 -2.21344e-14)
(1.01659 0.000498411 -2.27623e-14)
(1.01618 0.000550537 -2.32031e-14)
(1.01572 0.000612864 -2.34702e-14)
(1.01519 0.000675694 -2.35828e-14)
(1.01462 0.000731207 -2.35658e-14)
(1.01401 0.00077392 -2.34402e-14)
(1.01336 0.000800809 -2.32286e-14)
(1.0127 0.000811127 -2.29479e-14)
(1.01204 0.000806026 -2.26082e-14)
(1.01139 0.000788043 -2.22137e-14)
(1.01077 0.000760551 -2.17571e-14)
(1.01016 0.000727244 -2.12271e-14)
(1.00959 0.000691693 -2.06047e-14)
(1.00905 0.000657016 -1.98686e-14)
(1.00854 0.000625661 -1.90014e-14)
(1.00805 0.000599302 -1.7991e-14)
(1.00758 0.000578831 -1.68392e-14)
(1.00712 0.000564422 -1.55599e-14)
(1.00667 0.000555656 -1.41775e-14)
(1.00623 0.000551669 -1.27217e-14)
(1.00578 0.000551319 -1.12199e-14)
(1.00534 0.000553348 -9.69092e-15)
(1.00489 0.000556525 -8.14098e-15)
(1.00444 0.000559756 -6.56417e-15)
(1.00398 0.000562174 -4.94683e-15)
(1.00352 0.000563171 -3.27441e-15)
(1.00307 0.000562411 -1.53837e-15)
(1.00261 0.000559797 2.60339e-16)
(1.00216 0.000555426 2.11168e-15)
(1.00171 0.000549524 4.00174e-15)
(1.00126 0.000542379 5.92049e-15)
(1.00082 0.000534283 7.86889e-15)
(1.00039 0.000525483 9.86359e-15)
(0.999967 0.000516142 1.19365e-14)
(0.999548 0.000506321 1.41315e-14)
(0.999138 0.000495964 1.64987e-14)
(0.998735 0.000484911 1.90901e-14)
(0.998341 0.000472912 2.19578e-14)
(0.997955 0.000459663 2.51544e-14)
(0.99758 0.000444836 2.87353e-14)
(0.997217 0.000428076 3.27615e-14)
(0.996866 0.000408927 3.73018e-14)
(0.996531 0.000386655 4.24348e-14)
(0.996214 0.000359949 4.82516e-14)
(0.99592 0.000326581 5.48596e-14)
(0.995653 0.000283137 6.23842e-14)
(0.995424 0.000225043 7.09633e-14)
(0.995244 0.000147092 8.07332e-14)
(0.995131 4.45829e-05 9.1808e-14)
(0.995105 -8.49683e-05 1.04278e-13)
(0.995185 -0.000239897 1.18257e-13)
(0.995391 -0.00041278 1.33884e-13)
(0.995731 -0.000589821 1.51257e-13)
(0.996203 -0.000751789 1.70271e-13)
(0.996788 -0.000876729 1.90387e-13)
(0.997451 -0.000944095 2.1035e-13)
(0.998142 -0.000939466 2.27958e-13)
(0.998801 -0.000858589 2.39985e-13)
(0.999373 -0.000709522 2.42333e-13)
(0.999811 -0.000512047 2.30468e-13)
(1.00009 -0.00029426 2.00126e-13)
(1.0002 -8.70827e-05 1.48243e-13)
(1.00016 8.1941e-05 7.4024e-14)
(1.00002 0.000193952 -2.0071e-14)
(0.999829 0.00024188 -1.27756e-13)
(0.999626 0.000230685 -2.38943e-13)
(0.999457 0.000174895 -3.40646e-13)
(0.999351 9.43392e-05 -4.18941e-13)
(0.999316 9.32374e-06 -4.61759e-13)
(0.999348 -6.35013e-05 -4.61876e-13)
(0.999431 -0.000113716 -4.19111e-13)
(0.999542 -0.000137818 -3.40863e-13)
(0.999662 -0.000138242 -2.407e-13)
(0.999771 -0.000121308 -1.35342e-13)
(0.999861 -9.48411e-05 -4.0891e-14)
(0.999925 -6.61059e-05 3.05722e-14)
(0.999966 -4.04667e-05 7.31195e-14)
(0.999987 -2.0883e-05 8.73595e-14)
(0.999996 -8.10084e-06 7.91803e-14)
(0.999997 -1.28936e-06 5.74158e-14)
(0.999995 1.20065e-06 3.12364e-14)
(0.999993 1.17191e-06 7.96413e-15)
(0.999992 7.39931e-08 -7.91831e-15)
(0.999992 -9.95146e-07 -1.60958e-14)
(0.999994 -1.89827e-06 -1.42394e-14)
(1.00014 -0.0019721 -3.09289e-20)
(1.0021 -0.00595901 -4.8287e-19)
(1.00657 -0.0102173 -8.31158e-19)
(1.01346 -0.0148519 -1.63881e-18)
(1.02316 -0.0199035 -1.83046e-18)
(1.03599 -0.0252463 -1.84404e-18)
(1.0522 -0.0306097 -1.13153e-17)
(1.07177 -0.0353945 1.75982e-17)
(1.09423 -0.0389578 3.53532e-18)
(1.11861 -0.0405139 -1.38413e-16)
(1.14312 -0.0396428 -3.26447e-17)
(1.16619 -0.0369992 6.42776e-16)
(1.18703 -0.0330865 1.2985e-15)
(1.20504 -0.0284148 8.58854e-16)
(1.21998 -0.0234666 -1.29265e-15)
(1.23185 -0.0186109 -4.83857e-15)
(1.24086 -0.0141639 -8.81855e-15)
(1.24735 -0.0103749 -1.21946e-14)
(1.25187 -0.0073887 -1.42129e-14)
(1.25499 -0.00517805 -1.44596e-14)
(1.25727 -0.00348803 -1.27588e-14)
(1.25899 -0.00183792 -9.10608e-15)
(1.26001 0.000384916 -4.01048e-15)
(1.25973 0.00373641 1.40227e-15)
(1.25714 0.00847566 6.26406e-15)
(1.25114 0.0143573 1.00224e-14)
(1.24098 0.0206035 1.25202e-14)
(1.22669 0.0261251 1.39468e-14)
(1.20911 0.0298826 1.46917e-14)
(1.18977 0.0312006 1.51815e-14)
(1.17048 0.0299149 1.57821e-14)
(1.15296 0.0263553 1.66918e-14)
(1.13853 0.0212273 1.79786e-14)
(1.12792 0.0154586 1.94885e-14)
(1.12119 0.0100287 2.08189e-14)
(1.11775 0.00579802 2.14853e-14)
(1.11651 0.00335001 2.11043e-14)
(1.11609 0.00287255 1.96687e-14)
(1.11515 0.00413198 1.7556e-14)
(1.11268 0.00656833 1.52883e-14)
(1.10818 0.00947576 1.33002e-14)
(1.10164 0.0121927 1.17647e-14)
(1.09346 0.0142312 1.06481e-14)
(1.08425 0.0153246 9.80667e-15)
(1.07472 0.0154103 9.06068e-15)
(1.06551 0.0145789 8.25304e-15)
(1.05714 0.0130164 7.2186e-15)
(1.04999 0.0109549 5.78139e-15)
(1.04428 0.00863768 3.73396e-15)
(1.04006 0.00629465 8.51331e-16)
(1.03727 0.00412611 -3.03601e-15)
(1.03574 0.00229055 -7.96398e-15)
(1.03518 0.000895976 -1.37684e-14)
(1.0353 -5.21173e-06 -2.00502e-14)
(1.03577 -0.000417345 -2.62935e-14)
(1.03629 -0.0003967 -3.19846e-14)
(1.03662 -3.9869e-05 -3.67e-14)
(1.03658 0.000533158 -4.02111e-14)
(1.03611 0.00119811 -4.25357e-14)
(1.03518 0.00184401 -4.38786e-14)
(1.03386 0.00238554 -4.45436e-14)
(1.03225 0.00276887 -4.48663e-14)
(1.03046 0.00297134 -4.51532e-14)
(1.02862 0.0029969 -4.56432e-14)
(1.02683 0.00286923 -4.64905e-14)
(1.02518 0.00262435 -4.77568e-14)
(1.02373 0.00230382 -4.94266e-14)
(1.0225 0.00194916 -5.14028e-14)
(1.02149 0.00159765 -5.35354e-14)
(1.0207 0.00127957 -5.56425e-14)
(1.02009 0.00101659 -5.75359e-14)
(1.01962 0.000821332 -5.90584e-14)
(1.01923 0.000697698 -6.00902e-14)
(1.0189 0.000642045 -6.05715e-14)
(1.01856 0.000644798 -6.04968e-14)
(1.01821 0.000692406 -5.9904e-14)
(1.0178 0.000769392 -5.88653e-14)
(1.01733 0.000860271 -5.74565e-14)
(1.0168 0.000951163 -5.57545e-14)
(1.01622 0.00103095 -5.38233e-14)
(1.01559 0.0010919 -5.17101e-14)
(1.01493 0.00112984 -4.94512e-14)
(1.01425 0.00114389 -4.70593e-14)
(1.01358 0.00113583 -4.45353e-14)
(1.01292 0.00110942 -4.18636e-14)
(1.01228 0.00106958 -3.90143e-14)
(1.01168 0.00102166 -3.59519e-14)
(1.0111 0.000970767 -3.26282e-14)
(1.01056 0.000921363 -2.90032e-14)
(1.01004 0.000876914 -2.50496e-14)
(1.00955 0.000839768 -2.07652e-14)
(1.00908 0.000811148 -1.61838e-14)
(1.00862 0.000791252 -1.13637e-14)
(1.00817 0.000779433 -6.38865e-15)
(1.00772 0.000774418 -1.34575e-15)
(1.00727 0.000774548 3.69315e-15)
(1.00682 0.000778005 8.68606e-15)
(1.00637 0.00078302 1.36336e-14)
(1.00591 0.000788038 1.8569e-14)
(1.00545 0.000791826 2.35478e-14)
(1.00498 0.000793537 2.86266e-14)
(1.00452 0.00079271 3.38401e-14)
(1.00405 0.000789232 3.91945e-14)
(1.00359 0.000783265 4.46604e-14)
(1.00313 0.000775151 5.0189e-14)
(1.00267 0.000765318 5.57292e-14)
(1.00222 0.000754194 6.12435e-14)
(1.00178 0.00074214 6.67239e-14)
(1.00135 0.000729395 7.21878e-14)
(1.00092 0.000716051 7.76783e-14)
(1.00049 0.000702037 8.32579e-14)
(1.00008 0.000687127 8.90069e-14)
(0.999668 0.000670971 9.50391e-14)
(0.999267 0.000653134 1.01514e-13)
(0.998875 0.000633141 1.08664e-13)
(0.998494 0.000610475 1.16814e-13)
(0.998124 0.000584486 1.26388e-13)
(0.997768 0.000554154 1.37911e-13)
(0.997429 0.000517702 1.5199e-13)
(0.997111 0.00047213 1.69293e-13)
(0.996818 0.000412849 1.90526e-13)
(0.99656 0.000333701 2.16381e-13)
(0.996348 0.000227644 2.47479e-13)
(0.996198 8.82793e-05 2.84283e-13)
(0.996126 -8.78399e-05 3.27035e-13)
(0.996152 -0.000298574 3.75805e-13)
(0.996291 -0.00053397 4.30464e-13)
(0.996554 -0.000775373 4.90448e-13)
(0.996938 -0.00099665 5.54334e-13)
(0.997426 -0.00116783 6.1932e-13)
(0.997986 -0.00126078 6.80713e-13)
(0.998572 -0.0012556 7.31658e-13)
(0.99913 -0.00114632 7.63295e-13)
(0.999608 -0.000943806 7.65422e-13)
(0.999963 -0.000675096 7.27662e-13)
(1.00017 -0.000378717 6.41026e-13)
(1.00023 -9.71642e-05 4.99805e-13)
(1.00016 0.000131652 3.03677e-13)
(0.999992 0.00028176 5.96993e-14)
(0.999783 0.000343458 -2.16514e-13)
(0.999576 0.000323691 -5.007e-13)
(0.999411 0.000242678 -7.61787e-13)
(0.999312 0.000128015 -9.66227e-13)
(0.999287 7.97525e-06 -1.08453e-12)
(0.99933 -9.42647e-05 -1.09849e-12)
(0.999423 -0.000164235 -1.00676e-12)
(0.999544 -0.000197162 -8.26448e-13)
(0.99967 -0.000196616 -5.89981e-13)
(0.999783 -0.000171631 -3.37891e-13)
(0.999874 -0.000133357 -1.09635e-13)
(0.999938 -9.21302e-05 6.48074e-14)
(0.999976 -5.55659e-05 1.70264e-13)
(0.999995 -2.78382e-05 2.07458e-13)
(1 -9.94941e-06 1.90067e-13)
(1 -6.44938e-07 1.39133e-13)
(0.999996 2.49938e-06 7.67492e-14)
(0.999993 2.10517e-06 2.07228e-14)
(0.999992 2.87364e-07 -1.78939e-14)
(0.999991 -1.40586e-06 -3.80742e-14)
(0.999994 -2.74562e-06 -3.41882e-14)
(1.00013 -0.00250233 -2.16159e-18)
(1.002 -0.00756585 -7.01649e-18)
(1.0063 -0.0130003 -6.00201e-18)
(1.01297 -0.0189588 -9.12254e-18)
(1.02247 -0.0255139 5.73094e-20)
(1.03523 -0.0325224 -3.04755e-17)
(1.05162 -0.0396466 2.09364e-17)
(1.07175 -0.0460724 8.19441e-17)
(1.09518 -0.0509241 -4.36035e-16)
(1.12091 -0.0530201 2.54885e-17)
(1.14669 -0.0517512 2.38897e-15)
(1.17068 -0.048146 2.60031e-15)
(1.19214 -0.0428987 -4.51598e-15)
(1.21048 -0.0366928 -1.89193e-14)
(1.22549 -0.030162 -3.48568e-14)
(1.23724 -0.023778 -4.51299e-14)
(1.24595 -0.0179542 -4.51547e-14)
(1.25203 -0.0130272 -3.40303e-14)
(1.25609 -0.00920706 -1.33136e-14)
(1.25885 -0.00647429 1.43956e-14)
(1.26096 -0.00449369 4.63192e-14)
(1.26283 -0.00260568 7.83436e-14)
(1.26436 4.99085e-05 1.04306e-13)
(1.26481 0.00428215 1.21616e-13)
(1.26295 0.0104882 1.29343e-13)
(1.25737 0.0183554 1.28466e-13)
(1.24709 0.0268031 1.21424e-13)
(1.23202 0.0343021 1.11119e-13)
(1.21317 0.0393994 1.0014e-13)
(1.19231 0.0411647 9.02809e-14)
(1.17157 0.0393858 8.23783e-14)
(1.1529 0.034528 7.6372e-14)
(1.13782 0.0275613 7.13096e-14)
(1.12712 0.0197493 6.53669e-14)
(1.12086 0.0124235 5.63119e-14)
(1.11831 0.00675322 4.25706e-14)
(1.11818 0.00353209 2.45315e-14)
(1.11884 0.00300841 4.92842e-15)
(1.11873 0.00484565 -1.23672e-14)
(1.11671 0.00825707 -2.42833e-14)
(1.11224 0.0122633 -2.98482e-14)
(1.1054 0.0159611 -3.01319e-14)
(1.09668 0.0186999 -2.72806e-14)
(1.08685 0.0201391 -2.34981e-14)
(1.07672 0.0202164 -2.04582e-14)
(1.06699 0.0190707 -1.92363e-14)
(1.05824 0.0169621 -2.05018e-14)
(1.05086 0.0142051 -2.47545e-14)
(1.04506 0.0111242 -3.2443e-14)
(1.0409 0.00802296 -4.38842e-14)
(1.03827 0.00516481 -5.90381e-14)
(1.03698 0.0027575 -7.72543e-14)
(1.03671 0.000942097 -9.71807e-14)
(1.03713 -0.000213994 -1.16917e-13)
(1.03787 -0.000718906 -1.34506e-13)
(1.03862 -0.000650267 -1.48316e-13)
(1.03911 -0.000139592 -1.57496e-13)
(1.03916 0.000650795 -1.62126e-13)
(1.03869 0.00155379 -1.62934e-13)
(1.0377 0.00242145 -1.61012e-13)
(1.03629 0.00314147 -1.57543e-13)
(1.03456 0.00364452 -1.53595e-13)
(1.03265 0.00390327 -1.49992e-13)
(1.0307 0.00392567 -1.47253e-13)
(1.02882 0.00374538 -1.45609e-13)
(1.02711 0.00341174 -1.45009e-13)
(1.02562 0.00298075 -1.45183e-13)
(1.02437 0.00250774 -1.45689e-13)
(1.02338 0.00204198 -1.45996e-13)
(1.02262 0.00162316 -1.45574e-13)
(1.02205 0.0012794 -1.43979e-13)
(1.02161 0.00102672 -1.40934e-13)
(1.02127 0.000869617 -1.36363e-13)
(1.02097 0.00080264 -1.3038e-13)
(1.02067 0.000812556 -1.23249e-13)
(1.02033 0.000880991 -1.15298e-13)
(1.01993 0.00098716 -1.06861e-13)
(1.01946 0.00111043 -9.82023e-14)
(1.01892 0.00123242 -8.94932e-14)
(1.01832 0.00133855 -8.08081e-14)
(1.01767 0.00141884 -7.21322e-14)
(1.01699 0.00146803 -6.33989e-14)
(1.01629 0.00148523 -5.45033e-14)
(1.0156 0.00147312 -4.53266e-14)
(1.01492 0.00143688 -3.57507e-14)
(1.01427 0.0013832 -2.56587e-14)
(1.01366 0.00131924 -1.49533e-14)
(1.01307 0.00125181 -3.55523e-15)
(1.01253 0.00118679 8.57761e-15)
(1.01201 0.0011287 2.14323e-14)
(1.01152 0.00108055 3.49324e-14)
(1.01105 0.00104387 4.89273e-14)
(1.01059 0.00101883 6.32114e-14)
(1.01014 0.00100448 7.75491e-14)
(1.00968 0.000999071 9.17224e-14)
(1.00923 0.00100035 1.05575e-13)
(1.00878 0.00100589 1.19051e-13)
(1.00831 0.00101334 1.32208e-13)
(1.00784 0.00102065 1.45196e-13)
(1.00737 0.0010262 1.58218e-13)
(1.00689 0.00102893 1.71468e-13)
(1.00642 0.00102825 1.85074e-13)
(1.00594 0.00102406 1.99066e-13)
(1.00546 0.00101663 2.13364e-13)
(1.00499 0.00100642 2.27804e-13)
(1.00452 0.000994048 2.42174e-13)
(1.00406 0.000980088 2.56263e-13)
(1.00361 0.000965029 2.69894e-13)
(1.00316 0.000949199 2.82932e-13)
(1.00271 0.000932725 2.95301e-13)
(1.00227 0.000915522 3.06989e-13)
(1.00184 0.000897304 3.18085e-13)
(1.00141 0.000877615 3.28841e-13)
(1.00099 0.000855881 3.39753e-13)
(1.00058 0.000831466 3.51655e-13)
(1.00017 0.00080367 3.65779e-13)
(0.999777 0.000771635 3.83782e-13)
(0.999394 0.000734057 4.07712e-13)
(0.999026 0.000688732 4.39909e-13)
(0.998677 0.000631984 4.82877e-13)
(0.998351 0.000558216 5.39122e-13)
(0.998056 0.000459907 6.10975e-13)
(0.997803 0.000328431 7.00393e-13)
(0.997603 0.000155906 8.08705e-13)
(0.997473 -6.19826e-05 9.36347e-13)
(0.997429 -0.000322712 1.08279e-12)
(0.997485 -0.00061413 1.24645e-12)
(0.997648 -0.000913289 1.42404e-12)
(0.997918 -0.00118789 1.60956e-12)
(0.998279 -0.00140075 1.79325e-12)
(0.998703 -0.00151682 1.96085e-12)
(0.999149 -0.00151126 2.09363e-12)
(0.999571 -0.00137645 2.1694e-12)
(0.999921 -0.0011259 2.16458e-12)
(1.00016 -0.000793334 2.05697e-12)
(1.00028 -0.000426958 1.82884e-12)
(1.00026 -8.0008e-05 1.47046e-12)
(1.00014 0.000200003 9.84002e-13)
(0.999941 0.000380581 3.87326e-13)
(0.999715 0.000449756 -2.83452e-13)
(0.999504 0.000416597 -9.73193e-13)
(0.999345 0.00030699 -1.61106e-12)
(0.999258 0.000156162 -2.11967e-12)
(0.999248 1.64555e-07 -2.42967e-12)
(0.999307 -0.000131495 -2.49664e-12)
(0.999415 -0.000220507 -2.31452e-12)
(0.999548 -0.000261045 -1.92041e-12)
(0.999682 -0.000258043 -1.38795e-12)
(0.999801 -0.000223487 -8.11035e-13)
(0.999893 -0.000172056 -2.82335e-13)
(0.999956 -0.000117313 1.26566e-13)
(0.999991 -6.92045e-05 3.78123e-13)
(1.00001 -3.31159e-05 4.71847e-13)
(1.00001 -1.02321e-05 4.37855e-13)
(1 1.24041e-06 3.24073e-13)
(0.999997 4.62951e-06 1.81567e-13)
(0.999992 3.47649e-06 5.20071e-14)
(0.999991 6.44842e-07 -3.83317e-14)
(0.99999 -1.86952e-06 -8.6334e-14)
(0.999994 -3.69865e-06 -7.88774e-14)
(1.00012 -0.00300502 2.12269e-18)
(1.00188 -0.00909279 8.3652e-18)
(1.00593 -0.0156668 5.80966e-18)
(1.01229 -0.0229423 1.04165e-17)
(1.02151 -0.0310405 2.2527e-17)
(1.03412 -0.03982 -9.66952e-17)
(1.05069 -0.0488877 4.63714e-16)
(1.07149 -0.0571849 -9.82827e-16)
(1.0962 -0.0635669 -4.66504e-16)
(1.12374 -0.0662824 6.85003e-15)
(1.1512 -0.0644732 2.59892e-15)
(1.17636 -0.0597302 -2.99527e-14)
(1.19858 -0.052974 -7.3444e-14)
(1.21731 -0.0450831 -8.85165e-14)
(1.2324 -0.0368492 -4.71325e-14)
(1.24397 -0.0288378 5.11058e-14)
(1.25228 -0.0215582 1.85718e-13)
(1.2578 -0.015445 3.31147e-13)
(1.26124 -0.010794 4.67835e-13)
(1.26347 -0.00761168 5.8385e-13)
(1.26533 -0.00548263 6.71112e-13)
(1.26739 -0.00353858 7.1709e-13)
(1.26959 -0.000609719 7.02559e-13)
(1.27106 0.00443801 6.41399e-13)
(1.27025 0.0122029 5.55664e-13)
(1.2653 0.0223078 4.6459e-13)
(1.25489 0.0333002 3.81984e-13)
(1.23882 0.0431008 3.13441e-13)
(1.21827 0.0497457 2.58253e-13)
(1.1954 0.0520028 2.12943e-13)
(1.17272 0.0496154 1.73171e-13)
(1.15255 0.0432222 1.33798e-13)
(1.13662 0.034109 8.81605e-14)
(1.12583 0.0239317 2.83895e-14)
(1.12019 0.0144301 -5.15653e-14)
(1.11884 0.00713439 -1.50413e-13)
(1.12019 0.00308492 -2.55923e-13)
(1.1223 0.00259652 -3.48129e-13)
(1.1233 0.0051976 -4.08525e-13)
(1.12186 0.00981611 -4.28619e-13)
(1.11742 0.0151383 -4.12225e-13)
(1.11013 0.0199773 -3.71572e-13)
(1.1007 0.0235033 -3.21128e-13)
(1.09005 0.0253071 -2.72844e-13)
(1.07912 0.0253427 -2.34326e-13)
(1.06873 0.0238169 -2.09284e-13)
(1.05949 0.0210802 -1.98977e-13)
(1.05183 0.0175424 -2.03516e-13)
(1.04593 0.0136173 -2.22426e-13)
(1.04184 0.00968864 -2.54444e-13)
(1.03943 0.00608702 -2.96822e-13)
(1.03845 0.0030723 -3.44871e-13)
(1.03856 0.000819995 -3.92515e-13)
(1.03937 -0.000587515 -4.33752e-13)
(1.04048 -0.00116413 -4.63262e-13)
(1.04152 -0.00101298 -4.77954e-13)
(1.0422 -0.000306343 -4.78408e-13)
(1.04235 0.000744534 -4.68297e-13)