/*--------------------------------*- C++ -*----------------------------------*\
  =========                 |
  \\      /  F ield         | OpenFOAM: The Open Source CFD Toolbox
   \\    /   O peration     | Website:  https://openfoam.org
    \\  /    A nd           | Version:  11
     \\/     M anipulation  |
\*---------------------------------------------------------------------------*/
FoamFile
{
    format      ascii;
    class       volVectorField;
    location    "7.325989";
    object      U_0;
}
// * * * * * * * * * * * * * * * * * * * * * * * * * * * * * * * * * * * * * //

dimensions      [0 1 -1 0 0 0 0];

internalField   nonuniform List<vector> 
7132
(
(1.00014 -0.000287072 1.94979e-18)
(1.00222 -0.000866206 7.76432e-18)
(1.00694 -0.00148069 8.1362e-18)
(1.01411 -0.00214201 9.58224e-18)
(1.02405 -0.00285304 1.18462e-17)
(1.03692 -0.00359329 1.19843e-17)
(1.0528 -0.0043229 1.11915e-17)
(1.07153 -0.00496376 1.04426e-17)
(1.09258 -0.00543213 9.9495e-18)
(1.1151 -0.00563963 9.58476e-18)
(1.13783 -0.00553693 9.10195e-18)
(1.15955 -0.00519148 8.80257e-18)
(1.17946 -0.00466755 7.57231e-18)
(1.19697 -0.00403312 8.00198e-18)
(1.21177 -0.00335444 -2.19507e-18)
(1.22381 -0.00268423 -1.0584e-17)
(1.23323 -0.00206659 -1.77274e-17)
(1.24032 -0.00153455 -1.23502e-17)
(1.24548 -0.00110507 -1.45378e-17)
(1.24913 -0.000771466 -2.66339e-17)
(1.25163 -0.000498179 -2.84247e-17)
(1.25311 -0.000222926 -3.45874e-17)
(1.25344 0.000129844 -4.58446e-17)
(1.25212 0.000625066 -6.31529e-17)
(1.24849 0.001288 -6.67715e-17)
(1.24186 0.00208181 -8.07177e-17)
(1.23184 0.00290645 -9.41187e-17)
(1.21855 0.00362575 -1.05306e-16)
(1.20271 0.00411032 -1.16145e-16)
(1.1855 0.00427555 -1.13874e-16)
(1.16832 0.00410087 -1.09003e-16)
(1.15251 0.00362923 -1.00437e-16)
(1.13914 0.00295313 -9.61648e-17)
(1.1288 0.00219446 -7.83759e-17)
(1.12155 0.00148154 -5.19134e-17)
(1.11697 0.00092596 -1.56111e-17)
(1.11422 0.000602226 3.1277e-17)
(1.11225 0.000533553 8.1458e-17)
(1.11005 0.000689773 1.39159e-16)
(1.10682 0.000999662 1.96111e-16)
(1.10211 0.00137314 2.50331e-16)
(1.09586 0.00172466 3.00464e-16)
(1.08831 0.00198966 3.42768e-16)
(1.07991 0.00213139 3.83787e-16)
(1.07121 0.00213967 4.22129e-16)
(1.06274 0.00202502 4.61579e-16)
(1.05496 0.00181139 5.04269e-16)
(1.04821 0.00152971 5.50327e-16)
(1.04269 0.00121293 6.03765e-16)
(1.03848 0.000892427 6.59892e-16)
(1.03554 0.000595601 7.13931e-16)
(1.03372 0.000344052 7.62228e-16)
(1.0328 0.000152397 8.01557e-16)
(1.03251 2.76035e-05 8.25564e-16)
(1.0326 -3.10702e-05 8.32065e-16)
(1.03279 -3.1277e-05 8.20458e-16)
(1.03287 1.40106e-05 7.93155e-16)
(1.0327 8.87614e-05 7.55874e-16)
(1.03218 0.000176397 7.10627e-16)
(1.03129 0.000262066 6.60622e-16)
(1.03008 0.000334263 6.06624e-16)
(1.02862 0.000385619 5.48445e-16)
(1.02699 0.000412903 4.85007e-16)
(1.0253 0.000416465 4.10818e-16)
(1.02365 0.000399344 3.23805e-16)
(1.0221 0.000366301 2.19414e-16)
(1.02071 0.000322896 9.3049e-17)
(1.01951 0.000274729 -5.65618e-17)
(1.01851 0.000226861 -2.31916e-16)
(1.01769 0.000183416 -4.29814e-16)
(1.01704 0.000147362 -6.48271e-16)
(1.01651 0.000120437 -8.83485e-16)
(1.01608 0.000103199 -1.12932e-15)
(1.01569 9.51775e-05 -1.3817e-15)
(1.01532 9.5096e-05 -1.63304e-15)
(1.01493 0.000101136 -1.87964e-15)
(1.01451 0.000111215 -2.11829e-15)
(1.01404 0.000123245 -2.34587e-15)
(1.01352 0.000135348 -2.56284e-15)
(1.01296 0.000146015 -2.76733e-15)
(1.01236 0.000154188 -2.9615e-15)
(1.01172 0.000159288 -3.14752e-15)
(1.01108 0.000161174 -3.32678e-15)
(1.01043 0.000160075 -3.5026e-15)
(1.0098 0.000156485 -3.67422e-15)
(1.00918 0.000151059 -3.84296e-15)
(1.00859 0.000144516 -4.00779e-15)
(1.00802 0.000137548 -4.16564e-15)
(1.00749 0.000130758 -4.314e-15)
(1.00697 0.000124621 -4.44646e-15)
(1.00649 0.000119458 -4.56019e-15)
(1.00602 0.000115442 -4.65252e-15)
(1.00556 0.000112603 -4.72087e-15)
(1.00512 0.000110859 -4.76779e-15)
(1.00468 0.000110041 -4.7938e-15)
(1.00424 0.000109926 -4.80134e-15)
(1.0038 0.000110269 -4.79305e-15)
(1.00335 0.00011083 -4.76883e-15)
(1.00291 0.0001114 -4.73051e-15)
(1.00246 0.000111808 -4.6756e-15)
(1.00201 0.000111937 -4.60289e-15)
(1.00156 0.000111723 -4.51227e-15)
(1.00112 0.000111145 -4.40306e-15)
(1.00067 0.000110223 -4.27856e-15)
(1.00023 0.000108999 -4.13832e-15)
(0.999799 0.000107527 -3.9816e-15)
(0.999372 0.000105864 -3.8047e-15)
(0.998951 0.000104055 -3.59804e-15)
(0.998537 0.00010213 -3.35076e-15)
(0.998131 0.000100098 -3.04491e-15)
(0.997734 9.79463e-05 -2.66227e-15)
(0.997345 9.56408e-05 -2.18535e-15)
(0.996966 9.31309e-05 -1.59828e-15)
(0.996598 9.03565e-05 -8.94225e-16)
(0.99624 8.72541e-05 -7.15045e-17)
(0.995896 8.37546e-05 8.58968e-16)
(0.995567 7.97657e-05 1.87395e-15)
(0.995254 7.51319e-05 2.93998e-15)
(0.994962 6.95703e-05 4.01163e-15)
(0.994693 6.25998e-05 5.04246e-15)
(0.994456 5.349e-05 5.98627e-15)
(0.994259 4.12759e-05 6.8003e-15)
(0.994119 2.48788e-05 7.45283e-15)
(0.994052 3.35611e-06 7.92485e-15)
(0.994081 -2.37394e-05 8.22292e-15)
(0.994229 -5.59645e-05 8.39194e-15)
(0.994515 -9.16704e-05 8.52376e-15)
(0.994946 -0.000127906 8.7592e-15)
(0.995519 -0.000160648 9.26187e-15)
(0.996212 -0.000185386 1.01704e-14)
(0.996984 -0.000197989 1.15206e-14)
(0.997779 -0.000195663 1.31578e-14)
(0.998534 -0.000177748 1.46692e-14)
(0.999188 -0.000146109 1.53559e-14)
(0.999693 -0.000104959 1.42869e-14)
(1.00002 -6.01213e-05 1.04407e-14)
(1.00017 -1.78861e-05 2.93619e-15)
(1.00016 1.62455e-05 -8.67722e-15)
(1.00004 3.86097e-05 -2.41505e-14)
(0.999853 4.79604e-05 -4.23647e-14)
(0.999655 4.54646e-05 -6.13416e-14)
(0.999488 3.41641e-05 -7.84819e-14)
(0.999381 1.80924e-05 -9.10231e-14)
(0.999343 1.30462e-06 -9.66449e-14)
(0.99937 -1.29327e-05 -9.40565e-14)
(0.999446 -2.26262e-05 -8.33908e-14)
(0.999551 -2.71608e-05 -6.62561e-14)
(0.999664 -2.70789e-05 -4.54097e-14)
(0.999769 -2.36599e-05 -2.41448e-14)
(0.999854 -1.84476e-05 -5.55133e-15)
(0.999917 -1.28508e-05 8.13092e-15)
(0.999958 -7.89219e-06 1.58998e-14)
(0.99998 -4.1225e-06 1.80394e-14)
(0.999991 -1.66663e-06 1.58428e-14)
(0.999994 -3.52834e-07 1.11361e-14)
(0.999993 1.40205e-07 5.75625e-15)
(0.999992 1.56637e-07 1.12486e-15)
(0.999992 -3.01586e-08 -1.92631e-15)
(0.999992 -2.14854e-07 -3.40707e-15)
(0.999995 -3.71008e-07 -2.85544e-15)
(1.00014 -0.0008584 2.85486e-20)
(1.0022 -0.00259146 3.74089e-19)
(1.00688 -0.00443179 7.57903e-19)
(1.01401 -0.00641644 1.13181e-18)
(1.02391 -0.00855499 1.51781e-18)
(1.03678 -0.0107871 1.8808e-18)
(1.05272 -0.0129938 2.25536e-18)
(1.0716 -0.0149368 2.14674e-18)
(1.09288 -0.0163611 5.49493e-18)
(1.11569 -0.0169906 7.00132e-18)
(1.13871 -0.0166724 4.42944e-18)
(1.16065 -0.0156207 4.54871e-18)
(1.18072 -0.0140321 -2.101e-19)
(1.19831 -0.012113 1.06267e-17)
(1.21314 -0.010064 4.26236e-17)
(1.22516 -0.00804334 8.59013e-17)
(1.23451 -0.00618369 1.20678e-16)
(1.24151 -0.00458477 1.28449e-16)
(1.24656 -0.00329845 9.74605e-17)
(1.25014 -0.00230528 2.50397e-17)
(1.25261 -0.00149779 -8.23326e-17)
(1.25413 -0.000686133 -2.06705e-16)
(1.25456 0.000361498 -3.22252e-16)
(1.2534 0.00184563 -4.11449e-16)
(1.24992 0.00384608 -4.64637e-16)
(1.24338 0.00625189 -4.81633e-16)
(1.23332 0.00875726 -4.68368e-16)
(1.21987 0.010945 -4.33376e-16)
(1.20375 0.0124192 -3.83635e-16)
(1.1862 0.0129217 -3.23674e-16)
(1.16869 0.0123901 -2.39908e-16)
(1.15262 0.0109559 -1.53524e-16)
(1.13908 0.00890046 -4.26977e-17)
(1.1287 0.00659417 1.10147e-16)
(1.12154 0.00442693 2.95212e-16)
(1.11713 0.00273823 5.22806e-16)
(1.11462 0.00175518 7.61928e-16)
(1.11289 0.00154875 9.88982e-16)
(1.11088 0.00202691 1.19227e-15)
(1.10777 0.00297216 1.35027e-15)
(1.1031 0.00410983 1.47083e-15)
(1.09681 0.00517962 1.54834e-15)
(1.08916 0.00598577 1.59381e-15)
(1.08064 0.00641753 1.62392e-15)
(1.07182 0.0064448 1.64554e-15)
(1.06324 0.00609997 1.67425e-15)
(1.05536 0.00545586 1.70745e-15)
(1.04855 0.00460608 1.74631e-15)
(1.043 0.00365011 1.78719e-15)
(1.03878 0.00268271 1.81303e-15)
(1.03586 0.00178656 1.8078e-15)
(1.03408 0.00102694 1.75241e-15)
(1.03322 0.000448117 1.63064e-15)
(1.03299 7.12796e-05 1.43998e-15)
(1.03314 -0.000105585 1.18651e-15)
(1.03338 -0.000105514 8.89161e-16)
(1.0335 3.23092e-05 5.71491e-16)
(1.03335 0.000259361 2.56065e-16)
(1.03284 0.000525405 -3.91293e-17)
(1.03195 0.000785421 -3.09148e-16)
(1.03072 0.00100455 -5.5381e-16)
(1.02924 0.00116047 -7.83567e-16)
(1.02759 0.00124344 -1.01394e-15)
(1.02588 0.00125454 -1.26118e-15)
(1.0242 0.001203 -1.54121e-15)
(1.02263 0.00110326 -1.86392e-15)
(1.02123 0.000972143 -2.24266e-15)
(1.02003 0.000826607 -2.67706e-15)
(1.01902 0.000681954 -3.16379e-15)
(1.01821 0.00055066 -3.69323e-15)
(1.01756 0.000441705 -4.2489e-15)
(1.01704 0.000360349 -4.81836e-15)
(1.01661 0.000308286 -5.38067e-15)
(1.01624 0.000284101 -5.91995e-15)
(1.01587 0.000283939 -6.42225e-15)
(1.01549 0.000302303 -6.876e-15)
(1.01507 0.000332892 -7.28054e-15)
(1.0146 0.000369386 -7.63175e-15)
(1.01408 0.000406098 -7.93291e-15)
(1.01351 0.000438456 -8.18838e-15)
(1.01291 0.000463261 -8.40326e-15)
(1.01227 0.000478757 -8.58905e-15)
(1.01162 0.000484526 -8.74934e-15)
(1.01097 0.000481257 -8.89025e-15)
(1.01033 0.000470449 -9.01368e-15)
(1.00971 0.000454087 -9.11784e-15)
(1.00911 0.000434343 -9.20306e-15)
(1.00855 0.00041331 -9.25945e-15)
(1.00801 0.000392818 -9.27942e-15)
(1.0075 0.000374299 -9.25327e-15)
(1.00701 0.000358729 -9.17325e-15)
(1.00654 0.000346627 -9.03961e-15)
(1.00608 0.000338089 -8.85088e-15)
(1.00564 0.000332863 -8.61386e-15)
(1.00519 0.000330439 -8.3367e-15)
(1.00475 0.000330142 -8.02749e-15)
(1.00431 0.000331233 -7.69382e-15)
(1.00387 0.000332988 -7.33659e-15)
(1.00342 0.000334765 -6.95643e-15)
(1.00297 0.000336056 -6.54995e-15)
(1.00252 0.000336506 -6.11312e-15)
(1.00207 0.000335916 -5.64522e-15)
(1.00162 0.00033423 -5.14533e-15)
(1.00117 0.000331505 -4.61847e-15)
(1.00073 0.000327871 -4.06817e-15)
(1.00029 0.000323495 -3.49468e-15)
(0.999856 0.000318546 -2.89366e-15)
(0.999432 0.000313165 -2.24986e-15)
(0.999014 0.000307444 -1.54388e-15)
(0.998604 0.000301414 -7.48688e-16)
(0.998203 0.000295036 1.65746e-16)
(0.997809 0.00028821 1.22743e-15)
(0.997425 0.000280785 2.46353e-15)
(0.997051 0.000272579 3.89098e-15)
(0.996688 0.0002634 5.51953e-15)
(0.996337 0.000253039 7.34849e-15)
(0.996 0.00024122 9.36469e-15)
(0.99568 0.000227484 1.15482e-14)
(0.99538 0.000211002 1.38698e-14)
(0.995102 0.000190362 1.63016e-14)
(0.994855 0.000163415 1.88226e-14)
(0.994648 0.000127312 2.14178e-14)
(0.994494 7.88502e-05 2.4085e-14)
(0.994412 1.52054e-05 2.68293e-14)
(0.994423 -6.50068e-05 2.96759e-14)
(0.994548 -0.000160551 3.26981e-14)
(0.994807 -0.000266623 3.60224e-14)
(0.995208 -0.000374536 3.98196e-14)
(0.995747 -0.000472375 4.42425e-14)
(0.996404 -0.000546717 4.93254e-14)
(0.99714 -0.000585197 5.48476e-14)
(0.9979 -0.000579366 6.01898e-14)
(0.998623 -0.000527094 6.42503e-14)
(0.99925 -0.000433766 6.54486e-14)
(0.999733 -0.000311807 6.18752e-14)
(1.00004 -0.00017851 5.1596e-14)
(1.00018 -5.26443e-05 3.30858e-14)
(1.00016 4.92963e-05 5.75073e-15)
(1.00003 0.000116245 -2.95986e-14)
(0.999845 0.000144339 -7.04706e-14)
(0.999645 0.000136941 -1.12721e-13)
(0.999478 0.000103071 -1.50997e-13)
(0.999371 5.47739e-05 -1.79617e-13)
(0.999334 4.21624e-06 -1.93768e-13)
(0.999363 -3.87564e-05 -1.90715e-13)
(0.999441 -6.80973e-05 -1.70641e-13)
(0.999549 -8.18991e-05 -1.36786e-13)
(0.999664 -8.17512e-05 -9.48033e-14)
(0.99977 -7.14857e-05 -5.14975e-14)
(0.999857 -5.57551e-05 -1.33022e-14)
(0.99992 -3.88243e-05 1.5074e-14)
(0.99996 -2.38023e-05 3.14589e-14)
(0.999983 -1.23733e-05 3.63285e-14)
(0.999992 -4.92939e-06 3.22501e-14)
(0.999995 -9.56918e-07 2.29113e-14)
(0.999994 5.17201e-07 1.20571e-14)
(0.999992 5.40957e-07 2.6133e-15)
(0.999992 -5.16876e-08 -3.68202e-15)
(0.999992 -6.32143e-07 -6.79958e-15)
(0.999994 -1.12087e-06 -5.79991e-15)
(1.00014 -0.00142191 2.15234e-22)
(1.00216 -0.00429458 5.50969e-21)
(1.00676 -0.00735175 7.5747e-21)
(1.0138 -0.010661 1.44661e-20)
(1.02362 -0.0142432 -1.53497e-19)
(1.03649 -0.0180018 2.24344e-19)
(1.05254 -0.0217403 -8.32411e-19)
(1.07169 -0.0250492 -1.50913e-18)
(1.09344 -0.0274897 6.19671e-18)
(1.11686 -0.0285636 -9.1443e-19)
(1.14047 -0.0279983 -3.68585e-17)
(1.16286 -0.0261929 -3.12234e-17)
(1.18323 -0.0234877 9.70596e-17)
(1.201 -0.020235 3.19671e-16)
(1.21588 -0.0167732 4.92859e-16)
(1.22785 -0.0133662 4.60011e-16)
(1.23707 -0.0102376 1.46977e-16)
(1.24388 -0.00755793 -4.17347e-16)
(1.24874 -0.00541977 -1.13557e-15)
(1.25216 -0.00379432 -1.88152e-15)
(1.25457 -0.0024998 -2.5244e-15)
(1.25617 -0.00120842 -2.90174e-15)
(1.25683 0.000485506 -2.91183e-15)
(1.25599 0.0029389 -2.62311e-15)
(1.25281 0.00630153 -2.12863e-15)
(1.24642 0.0103885 -1.53426e-15)
(1.23628 0.01467 -9.30169e-16)
(1.22246 0.018419 -3.70235e-16)
(1.20575 0.020946 1.34153e-16)
(1.18751 0.0218045 6.05565e-16)
(1.16933 0.0208891 1.08873e-15)
(1.15273 0.0184285 1.63137e-15)
(1.1389 0.0149074 2.27383e-15)
(1.12847 0.0109615 3.03145e-15)
(1.12152 0.00725938 3.87228e-15)
(1.11751 0.00438355 4.71491e-15)
(1.11549 0.00272367 5.44876e-15)
(1.11425 0.00239987 5.97982e-15)
(1.11263 0.00324986 6.26939e-15)
(1.10973 0.00489478 6.33781e-15)
(1.10508 0.00685903 6.24393e-15)
(1.09865 0.0086955 6.05359e-15)
(1.09078 0.0100717 5.82088e-15)
(1.08198 0.010803 5.58277e-15)
(1.07288 0.0108433 5.35888e-15)
(1.06406 0.0102519 5.15445e-15)
(1.056 0.00915509 4.95782e-15)
(1.04908 0.00771299 4.73831e-15)
(1.04348 0.00609432 4.44496e-15)
(1.03929 0.00445913 4.00944e-15)
(1.03644 0.00294687 3.36064e-15)
(1.03476 0.00166754 2.4455e-15)
(1.03403 0.000695659 1.24907e-15)
(1.03395 6.67748e-05 -1.81083e-16)
(1.03422 -0.000222976 -1.74912e-15)
(1.03457 -0.000213218 -3.34103e-15)
(1.03476 2.89607e-05 -4.83428e-15)
(1.03465 0.00042068 -6.13471e-15)
(1.03415 0.000876349 -7.20144e-15)
(1.03324 0.00131955 -8.04564e-15)
(1.03197 0.00169142 -8.71534e-15)
(1.03043 0.00195464 -9.28242e-15)
(1.02872 0.0020933 -9.82592e-15)
(1.02696 0.00210985 -1.04162e-14)
(1.02524 0.00202043 -1.1112e-14)
(1.02365 0.0018498 -1.19468e-14)
(1.02223 0.00162667 -1.29347e-14)
(1.02101 0.00137979 -1.40659e-14)
(1.02001 0.00113506 -1.53076e-14)
(1.01921 0.000913481 -1.66132e-14)
(1.01858 0.000730141 -1.7922e-14)
(1.01808 0.000593799 -1.91752e-14)
(1.01767 0.000507184 -2.03192e-14)
(1.01731 0.000467768 -2.13109e-14)
(1.01695 0.000468911 -2.21251e-14)
(1.01658 0.00050122 -2.27484e-14)
(1.01616 0.000553968 -2.31853e-14)
(1.0157 0.00061643 -2.34494e-14)
(1.01517 0.000678986 -2.35601e-14)
(1.0146 0.000733923 -2.35422e-14)
(1.01398 0.000775877 -2.34168e-14)
(1.01333 0.000801937 -2.32062e-14)
(1.01267 0.000811456 -2.29272e-14)
(1.01201 0.000805661 -2.25894e-14)
(1.01137 0.000787139 -2.2197e-14)
(1.01074 0.000759286 -2.17423e-14)
(1.01014 0.000725796 -2.12133e-14)
(1.00957 0.000690225 -2.05913e-14)
(1.00903 0.00065566 -1.98548e-14)
(1.00852 0.000624513 -1.89866e-14)
(1.00803 0.00059842 -1.79751e-14)
(1.00756 0.000578235 -1.68226e-14)
(1.0071 0.000564102 -1.55436e-14)
(1.00665 0.000555577 -1.41628e-14)
(1.00621 0.00055178 -1.27099e-14)
(1.00576 0.000551561 -1.12119e-14)
(1.00532 0.000553661 -9.68715e-15)
(1.00487 0.000556851 -8.14124e-15)
(1.00442 0.00056005 -6.56776e-15)
(1.00396 0.000562401 -4.95292e-15)
(1.0035 0.00056331 -3.28235e-15)
(1.00305 0.000562453 -1.54801e-15)
(1.00259 0.000559745 2.4865e-16)
(1.00214 0.000555289 2.09724e-15)
(1.00169 0.000549316 3.98388e-15)
(1.00124 0.000542115 5.89901e-15)
(1.0008 0.000533977 7.84438e-15)
(1.00037 0.000525145 9.83753e-15)
(0.999947 0.000515778 1.19113e-14)
(0.999529 0.000505931 1.41098e-14)
(0.999118 0.000495543 1.64838e-14)
(0.998716 0.000484448 1.90851e-14)
(0.998322 0.000472394 2.19659e-14)
(0.997937 0.000459074 2.51784e-14)
(0.997562 0.000444159 2.87781e-14)
(0.997199 0.000427292 3.28257e-14)
(0.99685 0.000408009 3.73897e-14)
(0.996515 0.000385556 4.25481e-14)
(0.996199 0.000358588 4.83917e-14)
(0.995906 0.000324821 5.50275e-14)
(0.995641 0.00028078 6.25804e-14)
(0.995413 0.000221844 7.11877e-14)
(0.995236 0.000142793 8.09839e-14)
(0.995127 3.89873e-05 9.20814e-14)
(0.995106 -9.19038e-05 1.0457e-13)
(0.995192 -0.00024797 1.18565e-13)
(0.995404 -0.000421479 1.34207e-13)
(0.99575 -0.000598327 1.51591e-13)
(0.996229 -0.000759066 1.70601e-13)
(0.996819 -0.000881689 1.90676e-13)
(0.997484 -0.000945831 2.10525e-13)
(0.998175 -0.000937476 2.27905e-13)
(0.998832 -0.000852941 2.39549e-13)
(0.999398 -0.000700902 2.4133e-13)
(0.999828 -0.00050166 2.28711e-13)
(1.0001 -0.000283607 1.97464e-13)
(1.0002 -7.76563e-05 1.44608e-13)
(1.00016 8.89535e-05 6.94795e-14)
(1.00002 0.000197888 -2.52903e-14)
(0.999818 0.00024269 -1.33233e-13)
(0.999616 0.000228873 -2.44101e-13)
(0.99945 0.000171348 -3.4482e-13)
(0.999347 9.00879e-05 -4.21501e-13)
(0.999316 5.31218e-06 -4.62256e-13)
(0.999351 -6.65891e-05 -4.60175e-13)
(0.999436 -0.000115538 -4.15454e-13)
(0.999548 -0.000138364 -3.3584e-13)
(0.999667 -0.00013775 -2.35126e-13)
(0.999776 -0.000120152 -1.30073e-13)
(0.999864 -9.34113e-05 -3.66401e-14)
(0.999927 -6.47235e-05 3.33755e-14)
(0.999967 -3.93379e-05 7.43857e-14)
(0.999988 -2.00938e-05 8.73058e-14)
(0.999996 -7.64012e-06 7.82277e-14)
(0.999997 -1.08719e-06 5.60547e-14)
(0.999995 1.23654e-06 2.99009e-14)
(0.999992 1.1252e-06 6.94819e-15)
(0.999992 9.67696e-09 -8.49279e-15)
(0.999992 -1.04899e-06 -1.62545e-14)
(0.999994 -1.90603e-06 -1.40496e-14)
(1.00014 -0.00197213 -3.10942e-20)
(1.0021 -0.00595911 -4.83047e-19)
(1.00657 -0.0102174 -8.30913e-19)
(1.01346 -0.0148522 -1.63949e-18)
(1.02316 -0.0199039 -1.83202e-18)
(1.03599 -0.0252468 -1.84442e-18)
(1.0522 -0.0306104 -1.13136e-17)
(1.07177 -0.0353955 1.76077e-17)
(1.09423 -0.0389591 3.49122e-18)
(1.11861 -0.0405157 -1.38431e-16)
(1.14312 -0.0396455 -3.26055e-17)
(1.1662 -0.0370034 6.4316e-16)
(1.18704 -0.0330932 1.29922e-15)
(1.20505 -0.0284255 8.59096e-16)
(1.22 -0.0234834 -1.29495e-15)
(1.23188 -0.0186359 -4.84671e-15)
(1.2409 -0.0141987 -8.83582e-15)
(1.24742 -0.0104185 -1.22221e-14)
(1.25197 -0.00743625 -1.42473e-14)
(1.25513 -0.00521944 -1.44927e-14)
(1.25744 -0.00350871 -1.27798e-14)
(1.25916 -0.00182179 -9.10797e-15)
(1.26017 0.000450369 -4.00772e-15)
(1.25984 0.0038543 1.39199e-15)
(1.25715 0.00863432 6.22962e-15)
(1.25103 0.0145298 9.96405e-15)
(1.24076 0.0207538 1.24477e-14)
(1.22637 0.0262192 1.38744e-14)
(1.20875 0.0298982 1.4633e-14)
(1.18943 0.0311327 1.51461e-14)
(1.17021 0.029775 1.57752e-14)
(1.15281 0.0261681 1.67134e-14)
(1.13851 0.0210256 1.80231e-14)
(1.12803 0.0152779 1.95439e-14)
(1.12141 0.00990142 2.08694e-14)
(1.11804 0.00574685 2.15186e-14)
(1.1168 0.00338323 2.11192e-14)
(1.11633 0.00298139 1.96769e-14)
(1.11529 0.00429309 1.75742e-14)
(1.1127 0.00675059 1.53279e-14)
(1.10808 0.00964863 1.33618e-14)
(1.10143 0.0123327 1.18407e-14)
(1.09318 0.0143247 1.07276e-14)
(1.08394 0.0153675 9.88059e-15)
(1.0744 0.0154061 9.12291e-15)
(1.06521 0.0145359 8.29995e-15)
(1.05688 0.0129451 7.24724e-15)
(1.04978 0.0108667 5.78788e-15)
(1.04413 0.00854358 3.71354e-15)
(1.03997 0.00620441 7.99946e-16)
(1.03724 0.00404778 -3.11861e-15)
(1.03574 0.00222999 -8.07126e-15)
(1.03522 0.000856554 -1.38859e-14)
(1.03535 -2.27309e-05 -2.01576e-14)
(1.03582 -0.000414723 -2.63711e-14)
(1.03634 -0.000377796 -3.2016e-14)
(1.03665 -9.92804e-06 -3.66766e-14)
(1.03659 0.000568374 -4.0135e-14)
(1.03609 0.00123321 -4.2418e-14)
(1.03514 0.00187464 -4.37347e-14)
(1.03381 0.00240879 -4.439e-14)
(1.03218 0.00278331 -4.47181e-14)
(1.03039 0.0029769 -4.50222e-14)
(1.02855 0.00299451 -4.55369e-14)
(1.02677 0.00286053 -4.64127e-14)
(1.02512 0.0026113 -4.77071e-14)
(1.02368 0.00228845 -4.94019e-14)
(1.02246 0.00193334 -5.13971e-14)
(1.02146 0.00158295 -5.35416e-14)
(1.02068 0.00126715 -5.56532e-14)
(1.02008 0.00100722 -5.75446e-14)
(1.01961 0.000815308 -5.90601e-14)
(1.01923 0.000694968 -6.00823e-14)
(1.01889 0.000642237 -6.05536e-14)
(1.01855 0.000647318 -6.04704e-14)
(1.01819 0.000696534 -5.98714e-14)
(1.01778 0.000774377 -5.88293e-14)
(1.01731 0.000865416 -5.74197e-14)
(1.01678 0.000955885 -5.5719e-14)
(1.01619 0.00103482 -5.37906e-14)
(1.01556 0.00109466 -5.16811e-14)
(1.0149 0.00113141 -4.94264e-14)
(1.01423 0.00114431 -4.70388e-14)
(1.01355 0.00113526 -4.45187e-14)
(1.01289 0.00110809 -4.18503e-14)
(1.01226 0.00106775 -3.90029e-14)
(1.01165 0.00101957 -3.59409e-14)
(1.01108 0.000968667 -3.2616e-14)
(1.01053 0.000919433 -2.89884e-14)
(1.01002 0.00087529 -2.50317e-14)
(1.00953 0.00083853 -2.07449e-14)
(1.00906 0.000810323 -1.61632e-14)
(1.0086 0.000790823 -1.1346e-14)
(1.00815 0.000779349 -6.37767e-15)
(1.0077 0.000774604 -1.34483e-15)
(1.00725 0.000774918 3.68187e-15)
(1.0068 0.000778471 8.66221e-15)
(1.00635 0.000783503 1.35986e-14)
(1.00589 0.000788471 1.85256e-14)
(1.00543 0.000792161 2.34991e-14)
(1.00496 0.000793744 2.85748e-14)
(1.00449 0.000792779 3.3786e-14)
(1.00403 0.000789167 3.91372e-14)
(1.00357 0.00078308 4.45975e-14)
(1.00311 0.000774867 5.01177e-14)
(1.00265 0.000764957 5.56474e-14)
(1.0022 0.000753777 6.11504e-14)
(1.00176 0.000741682 6.66209e-14)
(1.00132 0.000728904 7.20777e-14)
(1.0009 0.000715528 7.75657e-14)
(1.00047 0.000701473 8.31484e-14)
(1.00006 0.000686509 8.89074e-14)
(0.999648 0.000670279 9.4958e-14)
(0.999248 0.000652346 1.01462e-13)
(0.998856 0.000632232 1.08655e-13)
(0.998475 0.000609418 1.16866e-13)
(0.998106 0.000583242 1.2652e-13)
(0.997751 0.00055266 1.38145e-13)
(0.997413 0.000515847 1.52346e-13)
(0.997096 0.00046973 1.69794e-13)
(0.996805 0.00040964 1.91191e-13)
(0.996549 0.00032935 2.17223e-13)
(0.996339 0.000221802 2.48504e-13)
(0.996192 8.06773e-05 2.85487e-13)
(0.996124 -9.72662e-05 3.28402e-13)
(0.996155 -0.000309556 3.77313e-13)
(0.996301 -0.000545819 4.32083e-13)
(0.99657 -0.00078698 4.92121e-13)
(0.996959 -0.0010066 5.55963e-13)
(0.997452 -0.00117465 6.20739e-13)
(0.998014 -0.0012632 6.81671e-13)
(0.9986 -0.00125295 7.31817e-13)
(0.999156 -0.00113866 7.62244e-13)
(0.999628 -0.000932085 7.6272e-13)
(0.999976 -0.00066096 7.22897e-13)
(1.00018 -0.000364226 6.33897e-13)
(1.00023 -8.43711e-05 4.90211e-13)
(1.00015 0.000141112 2.91824e-13)
(0.999982 0.000286974 4.61753e-14)
(0.999772 0.000344361 -2.30705e-13)
(0.999567 0.000320986 -5.14177e-13)
(0.999404 0.000237598 -7.72946e-13)
(0.999309 0.000121996 -9.73517e-13)
(0.999288 2.32982e-06 -1.08681e-12)
(0.999334 -9.85843e-05 -1.09536e-12)
(0.999429 -0.000166756 -9.98729e-13)
(0.99955 -0.000197876 -8.14892e-13)
(0.999676 -0.000195866 -5.76854e-13)
(0.999788 -0.00016995 -3.25283e-13)
(0.999878 -0.0001313 -9.9317e-14)
(0.99994 -9.01534e-05 7.17367e-14)
(0.999978 -5.39618e-05 1.73526e-13)
(0.999996 -2.67267e-05 2.07524e-13)
(1 -9.31147e-06 1.87921e-13)
(0.999999 -3.77242e-07 1.35943e-13)
(0.999996 2.53152e-06 7.35643e-14)
(0.999992 2.02352e-06 1.82665e-14)
(0.999992 1.85382e-07 -1.9309e-14)
(0.999991 -1.48815e-06 -3.84942e-14)
(0.999994 -2.7576e-06 -3.37561e-14)
(1.00013 -0.00250237 -2.18303e-18)
(1.002 -0.00756597 -7.12488e-18)
(1.0063 -0.0130005 -6.00237e-18)
(1.01297 -0.0189591 -9.15081e-18)
(1.02247 -0.0255144 5.21709e-22)
(1.03523 -0.0325231 -3.04869e-17)
(1.05162 -0.0396475 2.09769e-17)
(1.07175 -0.0460735 8.19499e-17)
(1.09519 -0.0509256 -4.36148e-16)
(1.12091 -0.0530223 2.56416e-17)
(1.14669 -0.0517543 2.39003e-15)
(1.17068 -0.048151 2.60121e-15)
(1.19214 -0.0429067 -4.51957e-15)
(1.21048 -0.0367058 -1.89346e-14)
(1.2255 -0.0301828 -3.48904e-14)
(1.23726 -0.0238098 -4.51817e-14)
(1.24599 -0.0179995 -4.52127e-14)
(1.2521 -0.0130856 -3.40646e-14)
(1.25619 -0.00927238 -1.3287e-14)
(1.25899 -0.00653318 1.45081e-14)
(1.26114 -0.00452623 4.65026e-14)
(1.26303 -0.00258928 7.84793e-14)
(1.26454 0.000133795 1.04286e-13)
(1.26494 0.0044389 1.21417e-13)
(1.26298 0.0107028 1.2899e-13)
(1.25726 0.0185909 1.28025e-13)
(1.24684 0.0270093 1.20973e-13)
(1.23166 0.0344316 1.10726e-13)
(1.21276 0.0394215 9.98503e-14)
(1.19193 0.0410728 9.01111e-14)
(1.17126 0.0391959 8.23195e-14)
(1.15273 0.0342739 7.6391e-14)
(1.1378 0.0272876 7.1351e-14)
(1.12726 0.0195042 6.53619e-14)
(1.12112 0.0122509 5.62082e-14)
(1.11865 0.00668446 4.23774e-14)
(1.11852 0.00357845 2.43411e-14)
(1.11911 0.00315762 4.8799e-15)
(1.11889 0.00506515 -1.21651e-14)
(1.11674 0.00850375 -2.38106e-14)
(1.11213 0.0124953 -2.91746e-14)
(1.10517 0.0161471 -2.93732e-14)
(1.09637 0.0188221 -2.65479e-14)
(1.08651 0.0201932 -2.28684e-14)
(1.07637 0.0202077 -1.9971e-14)
(1.06667 0.0190109 -1.89046e-14)
(1.05796 0.0168654 -2.03276e-14)
(1.05065 0.0140869 -2.4738e-14)
(1.04492 0.0109989 -3.25842e-14)
(1.04082 0.00790342 -4.41752e-14)
(1.03825 0.00506156 -5.94532e-14)
(1.037 0.00267822 -7.77427e-14)
(1.03676 0.000891152 -9.76698e-14)
(1.0372 -0.000235695 -1.17327e-13)
(1.03794 -0.000713822 -1.34769e-13)
(1.03868 -0.000623674 -1.48395e-13)
(1.03914 -9.86051e-05 -1.57392e-13)
(1.03916 0.000698407 -1.61872e-13)
(1.03867 0.00160081 -1.62575e-13)
(1.03766 0.00246211 -1.60601e-13)
(1.03623 0.00317198 -1.5713e-13)
(1.03449 0.00366313 -1.53217e-13)
(1.03257 0.00390999 -1.49675e-13)
(1.03062 0.00392188 -1.47012e-13)
(1.02875 0.0037333 -1.45445e-13)
(1.02705 0.00339404 -1.44913e-13)
(1.02556 0.00296014 -1.4514e-13)
(1.02433 0.00248668 -1.4568e-13)
(1.02335 0.00202255 -1.45999e-13)
(1.0226 0.00160687 -1.45573e-13)
(1.02203 0.00126721 -1.4396e-13)
(1.02161 0.00101901 -1.40895e-13)
(1.02127 0.00086629 -1.36307e-13)
(1.02096 0.000803171 -1.30316e-13)
(1.02066 0.000816135 -1.23188e-13)
(1.02031 0.000886649 -1.15252e-13)
(1.01991 0.000993895 -1.06838e-13)
(1.01944 0.00111731 -9.82058e-14)
(1.0189 0.00123869 -8.95224e-14)
(1.01829 0.00134365 -8.08589e-14)
(1.01764 0.00142244 -7.21986e-14)
(1.01696 0.00147002 -6.34746e-14)
(1.01626 0.0014857 -5.45823e-14)
(1.01557 0.00147228 -4.54037e-14)
(1.01489 0.00143505 -3.58219e-14)
(1.01425 0.00138072 -2.57206e-14)
(1.01363 0.00131646 -1.50035e-14)
(1.01305 0.00124903 -3.59223e-15)
(1.01251 0.00118425 8.55363e-15)
(1.01199 0.00112658 2.14189e-14)
(1.0115 0.00107896 3.49244e-14)
(1.01103 0.00104283 4.89169e-14)
(1.01057 0.00101832 6.31889e-14)
(1.01012 0.00100442 7.75049e-14)
(1.00967 0.000999364 9.1649e-14)
(1.00921 0.00100088 1.05469e-13)
(1.00875 0.00100654 1.18913e-13)
(1.00829 0.00101401 1.32045e-13)
(1.00782 0.00102124 1.45018e-13)
(1.00735 0.00102666 1.58035e-13)
(1.00687 0.00102922 1.71286e-13)
(1.00639 0.00102835 1.84897e-13)
(1.00592 0.00102399 1.98891e-13)
(1.00544 0.0010164 2.13183e-13)
(1.00497 0.00100607 2.27606e-13)
(1.0045 0.000993599 2.41949e-13)
(1.00404 0.000979571 2.56003e-13)
(1.00359 0.000964465 2.69593e-13)
(1.00313 0.000948599 2.82589e-13)
(1.00269 0.000932089 2.9492e-13)
(1.00225 0.000914842 3.06576e-13)
(1.00182 0.00089656 3.17655e-13)
(1.00139 0.000876782 3.28418e-13)
(1.00097 0.000854929 3.39372e-13)
(1.00056 0.000830362 3.51367e-13)
(1.00015 0.000802379 3.65652e-13)
(0.999758 0.000770106 3.83899e-13)
(0.999376 0.00073221 4.08166e-13)
(0.999009 0.00068643 4.40796e-13)
(0.99866 0.000629003 4.84291e-13)
(0.998336 0.000554232 5.41144e-13)
(0.998043 0.000454515 6.13668e-13)
(0.997791 0.000321202 7.03793e-13)
(0.997595 0.000146507 8.12805e-13)
(0.997468 -7.36369e-05 9.41094e-13)
(0.997429 -0.000336296 1.08809e-12)
(0.99749 -0.000628801 1.25216e-12)
(0.997659 -0.000927681 1.42992e-12)
(0.997933 -0.00120025 1.61524e-12)
(0.998299 -0.00140924 1.79819e-12)
(0.998725 -0.00151988 1.96432e-12)
(0.999171 -0.00150801 2.09472e-12)
(0.99959 -0.00136699 2.16711e-12)
(0.999936 -0.0011114 2.15792e-12)
(1.00017 -0.000775848 2.04507e-12)
(1.00028 -0.000409066 1.81115e-12)
(1.00026 -6.42839e-05 1.44686e-12)
(1.00013 0.000211511 9.55041e-13)
(0.99993 0.000386733 3.54367e-13)
(0.999704 0.000450482 -3.18135e-13)
(0.999495 0.000412802 -1.00646e-12)
(0.999339 0.000300248 -1.63921e-12)
(0.999255 0.000148304 -2.13905e-12)
(0.99925 -7.13444e-06 -2.43749e-12)
(0.999311 -0.000137026 -2.49175e-12)
(0.999421 -0.000223676 -2.29791e-12)
(0.999554 -0.000261858 -1.8951e-12)
(0.999689 -0.00025696 -1.35842e-12)
(0.999806 -0.000221208 -7.82154e-13)
(0.999897 -0.000169312 -2.58319e-13)
(0.999958 -0.000114701 1.43012e-13)
(0.999993 -6.71052e-05 3.86191e-13)
(1.00001 -3.16806e-05 4.72494e-13)
(1.00001 -9.42909e-06 4.33266e-13)
(1 1.55427e-06 3.16915e-13)
(0.999997 4.63719e-06 1.74278e-13)
(0.999992 3.34243e-06 4.62991e-14)
(0.999991 4.93073e-07 -4.16858e-14)
(0.99999 -1.98655e-06 -8.74006e-14)
(0.999994 -3.71545e-06 -7.7939e-14)
(1.00012 -0.00300507 2.11258e-18)
(1.00188 -0.00909295 8.36276e-18)
(1.00593 -0.0156671 5.80945e-18)
(1.01229 -0.0229427 1.03869e-17)
(1.02151 -0.0310411 2.25432e-17)
(1.03412 -0.0398208 -9.67055e-17)
(1.05069 -0.0488887 4.63745e-16)
(1.07149 -0.0571862 -9.83117e-16)
(1.09621 -0.0635686 -4.6595e-16)
(1.12375 -0.0662847 6.85204e-15)
(1.1512 -0.0644767 2.59716e-15)
(1.17636 -0.0597356 -2.99686e-14)
(1.19858 -0.0529828 -7.34801e-14)
(1.21731 -0.0450977 -8.85639e-14)
(1.2324 -0.0368733 -4.71466e-14)
(1.24398 -0.028876 5.12242e-14)
(1.25231 -0.0216145 1.86118e-13)
(1.25786 -0.0155198 3.31983e-13)
(1.26134 -0.0108804 4.69175e-13)
(1.26362 -0.00769284 5.85568e-13)
(1.26554 -0.00553222 6.72848e-13)
(1.26763 -0.00352577 7.18092e-13)
(1.26981 -0.000508131 7.02366e-13)
(1.27123 0.00463775 6.40719e-13)
(1.27029 0.0124823 5.54914e-13)
(1.26519 0.0226179 4.64045e-13)
(1.25461 0.0335732 3.81713e-13)
(1.23841 0.0432726 3.13351e-13)
(1.2178 0.0497758 2.58224e-13)
(1.19495 0.0518828 2.12876e-13)
(1.17237 0.0493673 1.72966e-13)
(1.15236 0.0428904 1.33312e-13)
(1.13661 0.0337517 8.71994e-14)
(1.126 0.0236118 2.67858e-14)
(1.12051 0.0142051 -5.37683e-14)
(1.11924 0.00704572 -1.52795e-13)
(1.12059 0.00314761 -2.57738e-13)
(1.12263 0.00279395 -3.48633e-13)
(1.12349 0.00548575 -4.07346e-13)
(1.12189 0.0101372 -4.25915e-13)
(1.11728 0.0154373 -4.08549e-13)
(1.10987 0.0202136 -3.67607e-13)
(1.10036 0.0236554 -3.17446e-13)
(1.08967 0.025371 -2.69803e-13)
(1.07874 0.0253266 -2.32078e-13)
(1.06838 0.0237365 -2.07844e-13)
(1.0592 0.0209543 -1.98302e-13)
(1.0516 0.0173903 -2.03542e-13)
(1.04579 0.0134575 -2.23079e-13)
(1.04177 0.00953708 -2.5561e-13)
(1.03942 0.00595694 -2.98329e-13)
(1.03849 0.00297325 -3.46483e-13)
(1.03863 0.000757385 -3.93982e-13)
(1.03946 -0.000612683 -4.34854e-13)
(1.04056 -0.00115518 -4.63846e-13)
(1.04158 -0.000976832 -4.78009e-13)
(1.04224 -0.000252302 -4.78075e-13)
(1.04236 0.000806404 -4.67749e-13)