/*--------------------------------*- C++ -*----------------------------------*\
  =========                 |
  \\      /  F ield         | OpenFOAM: The Open Source CFD Toolbox
   \\    /   O peration     | Website:  https://openfoam.org
    \\  /    A nd           | Version:  11
     \\/     M anipulation  |
\*---------------------------------------------------------------------------*/
FoamFile
{
    format      ascii;
    class       volScalarField;
    location    "15.008137";
    object      p;
}
// * * * * * * * * * * * * * * * * * * * * * * * * * * * * * * * * * * * * * //

dimensions      [0 2 -2 0 0 0 0];

internalField   nonuniform List<scalar> 
7132
(
0.100821
0.099696
0.0958464
0.0902564
0.0824499
0.0722441
0.0596772
0.0449149
0.0286895
0.0121557
-0.00304174
-0.0150037
-0.0226245
-0.0254411
-0.0233461
-0.0171867
-0.00836869
0.00168649
0.0116963
0.0206729
0.0279023
0.0330102
0.0361362
0.038027
0.0396571
0.0416707
0.0441367
0.0467834
0.0493191
0.0516033
0.0536755
0.0556295
0.0574715
0.0589082
0.0593251
0.0581998
0.0557334
0.0530079
0.0512185
0.0508464
0.0515155
0.0525277
0.0533661
0.0538694
0.0541724
0.0545242
0.0550637
0.0555057
0.0551112
0.0532257
0.0500806
0.0469482
0.0451978
0.0452726
0.0465514
0.0480437
0.0490704
0.0494659
0.0494418
0.04935
0.0493978
0.0493446
0.0485224
0.0463799
0.04321
0.0402519
0.0388244
0.0393444
0.0411354
0.0430843
0.0444008
0.0448903
0.0447984
0.0445207
0.0442782
0.0438675
0.0427515
0.0405668
0.0376774
0.0351691
0.0341338
0.0349078
0.0368934
0.0390506
0.0405612
0.0411641
0.0410771
0.0407102
0.040309
0.0397154
0.038482
0.0363496
0.033703
0.0315112
0.0307127
0.0316027
0.033686
0.0360399
0.0378463
0.0387318
0.0387979
0.0384147
0.0378755
0.0371147
0.0357549
0.0335269
0.0307286
0.0282512
0.0270698
0.0276349
0.0296401
0.0322546
0.0345937
0.0360763
0.0365509
0.0362191
0.0354147
0.0342916
0.032652
0.0301113
0.0265552
0.0224788
0.0188595
0.0166248
0.0161406
0.0170769
0.0186538
0.0200559
0.0207231
0.0204315
0.0192247
0.0172869
0.0148349
0.0120876
0.00931235
0.00689093
0.00529055
0.00490058
0.00583307
0.00784152
0.0103992
0.0128862
0.0147504
0.0155774
0.0150619
0.0129636
0.00909342
0.00340782
-0.00385677
-0.0120139
-0.0199081
-0.0261961
-0.0294926
-0.0295649
-0.0256633
-0.0210657
-0.012005
-0.0110251
0.00516343
-0.0147724
0.101275
0.100158
0.0963385
0.0907757
0.0829825
0.0727487
0.0600896
0.045134
0.0286215
0.0117156
-0.00385109
-0.0160584
-0.023804
-0.0266258
-0.0243673
-0.017911
-0.00874489
0.0016445
0.0119223
0.0210741
0.02837
0.0334273
0.0364018
0.0381022
0.03958
0.0415193
0.0439763
0.0466491
0.0492251
0.0515538
0.0536726
0.055672
0.057558
0.0590282
0.0594398
0.0582398
0.0556348
0.0527667
0.050898
0.0505289
0.0512533
0.0523329
0.0532305
0.0537802
0.0541191
0.054497
0.0550574
0.0555084
0.055088
0.0531178
0.0498403
0.0465843
0.0447813
0.0448908
0.0462603
0.0478515
0.048958
0.0494073
0.0494139
0.0493348
0.0493821
0.0493079
0.0484295
0.0461877
0.042895
0.039837
0.0383764
0.0389417
0.0408332
0.0428963
0.0443082
0.0448607
0.0448001
0.0445302
0.0442778
0.043831
0.042641
0.0403476
0.0373449
0.0347608
0.0337141
0.034539
0.0366171
0.0388788
0.0404815
0.041149
0.0410951
0.040735
0.0403194
0.039682
0.038367
0.0361241
0.0333705
0.0311157
0.0303196
0.0312689
0.0334442
0.0358946
0.0377849
0.0387326
0.0388355
0.0384632
0.0379091
0.0370994
0.0356515
0.0333071
0.0303945
0.0278437
0.0266546
0.027276
0.0293798
0.032103
0.034537
0.0360915
0.0366143
0.036308
0.0355037
0.0343467
0.0326291
0.0299694
0.0262774
0.022087
0.0184119
0.016197
0.0158013
0.01687
0.018589
0.0201124
0.0208616
0.0206067
0.0193936
0.0174101
0.0148769
0.0120209
0.00912776
0.00660657
0.00495285
0.00457342
0.00557981
0.00770868
0.0104077
0.0130302
0.0150028
0.0158966
0.0153986
0.0132632
0.00929893
0.00346367
-0.00399757
-0.0123768
-0.0204867
-0.0269429
-0.0303277
-0.0303978
-0.0264121
-0.0216376
-0.0124255
-0.0112061
0.00502788
-0.0146651
0.102178
0.10108
0.0973223
0.0918185
0.0840575
0.073774
0.0609353
0.0455926
0.0284982
0.0108284
-0.00549534
-0.018195
-0.026185
-0.0290117
-0.0264121
-0.019346
-0.00947287
0.00159124
0.0124085
0.0219112
0.0293372
0.0342848
0.0369398
0.0382397
0.0394023
0.0411923
0.0436349
0.0463627
0.0490198
0.0514365
0.0536469
0.0557376
0.0577141
0.0592561
0.0596603
0.0583065
0.0554127
0.052247
0.0502153
0.0498578
0.0507021
0.0519228
0.0529403
0.0535812
0.0539885
0.0544172
0.0550197
0.0554896
0.0550159
0.05287
0.0493156
0.0458008
0.0438907
0.0440792
0.0456437
0.047443
0.0487128
0.0492683
0.0493324
0.0492765
0.0493237
0.0492103
0.0482187
0.0457719
0.0422248
0.0389607
0.0374337
0.0380953
0.0401961
0.0424949
0.0441011
0.0447782
0.0447762
0.0445195
0.0442484
0.043733
0.0423975
0.0398878
0.0366579
0.0339224
0.0328543
0.033784
0.0360497
0.038521
0.0403059
0.0410987
0.0411074
0.0407603
0.0403172
0.0395935
0.0381144
0.0356478
0.0326777
0.0302965
0.029508
0.0305826
0.0329478
0.0355947
0.0376522
0.0387219
0.0388964
0.0385469
0.0379641
0.0370549
0.0354237
0.032835
0.0296831
0.0269791
0.0257755
0.0265178
0.0288294
0.0317794
0.0344099
0.0361109
0.0367316
0.0364783
0.0356775
0.0344526
0.0325724
0.0296607
0.0256796
0.0212472
0.0174543
0.0152829
0.015076
0.0164243
0.0184403
0.0202154
0.021134
0.0209562
0.0197331
0.0176595
0.0149613
0.0118806
0.00874034
0.0060075
0.0042387
0.00387869
0.0050391
0.00742016
0.0104133
0.0133158
0.0155109
0.0165415
0.0160787
0.0138683
0.00971373
0.00357533
-0.00428468
-0.0131144
-0.0216619
-0.02846
-0.0320353
-0.032088
-0.0279283
-0.0227967
-0.0132719
-0.0115739
0.00475513
-0.0144219
0.103525
0.102456
0.098798
0.0933931
0.085694
0.0753508
0.0622544
0.0463272
0.0283378
0.00946479
-0.00805332
-0.0215144
-0.0298977
-0.0327587
-0.0296369
-0.0216093
-0.0106212
0.00150025
0.0131574
0.0232057
0.0308345
0.0356045
0.0377431
0.0383992
0.0390605
0.0406269
0.0430646
0.0458909
0.0486782
0.0512287
0.0535755
0.0558018
0.0579143
0.0595672
0.059958
0.0583534
0.0549886
0.0513426
0.0490625
0.0487485
0.049807
0.0512622
0.0524678
0.0532442
0.0537486
0.0542489
0.054908
0.0553988
0.0548296
0.0523905
0.0483833
0.0444529
0.0423855
0.0427278
0.0446291
0.0467742
0.0483038
0.0490177
0.0491587
0.0491269
0.0491654
0.0489896
0.047825
0.0450644
0.0411254
0.0375421
0.0359129
0.0367298
0.0391662
0.0418382
0.043746
0.0446095
0.0446892
0.0444474
0.0441488
0.0435305
0.0419699
0.0391214
0.0355369
0.0325704
0.031481
0.0325893
0.0351553
0.0379512
0.0400105
0.0409875
0.0410877
0.0407622
0.0402795
0.0394201
0.037676
0.0348474
0.0315305
0.0289532
0.0281893
0.0294801
0.0321569
0.035116
0.0374306
0.0386829
0.0389654
0.0386544
0.03803
0.0369596
0.035025
0.0320329
0.0284906
0.0255425
0.0243248
0.0252732
0.0279273
0.0312445
0.0341873
0.036117
0.036889
0.0367203
0.0359294
0.0345971
0.0324512
0.0291261
0.0246747
0.0198545
0.0158797
0.0137883
0.0138934
0.0156936
0.0181833
0.0203554
0.0215392
0.0214824
0.0202457
0.018033
0.0150741
0.0116332
0.00809315
0.00501792
0.00306515
0.00274124
0.004155
0.00694455
0.0104073
0.0137505
0.0162903
0.0175285
0.0171161
0.014787
0.0103381
0.00373243
-0.0047424
-0.0142671
-0.0234892
-0.0308147
-0.0346783
-0.0347008
-0.0302661
-0.0245772
-0.0145693
-0.0121238
0.00430966
-0.0139829
0.105302
0.104277
0.100765
0.0955112
0.0879211
0.0775283
0.0641129
0.0474029
0.0281811
0.00759529
-0.0116161
-0.0261033
-0.0349993
-0.0379
-0.03403
-0.0246431
-0.0121046
0.0014708
0.0142726
0.0250571
0.0329475
0.0374376
0.038803
0.0385036
0.0384468
0.039723
0.04219
0.0451779
0.0481535
0.0508847
0.0534099
0.0558136
0.0581079
0.0599148
0.0602808
0.0582991
0.0542285
0.0498738
0.0472557
0.0470522
0.048467
0.0502843
0.0517608
0.0527171
0.0533375
0.0539124
0.0546219
0.055124
0.0544196
0.0515728
0.0469205
0.042382
0.0400815
0.0406656
0.0430912
0.0457633
0.0476721
0.0485968
0.0488186
0.0487913
0.0488069
0.0485481
0.0471517
0.0439619
0.0394847
0.0354674
0.0337082
0.0347524
0.0376648
0.0408615
0.0431866
0.0442975
0.0444777
0.0442535
0.043924
0.0431683
0.0412848
0.0379424
0.0338451
0.030559
0.0294672
0.0308627
0.0338719
0.0371248
0.0395559
0.0407759
0.0409985
0.0407099
0.0401786
0.0391224
0.036984
0.0336202
0.0297992
0.0269467
0.0262354
0.0278594
0.0310008
0.0344129
0.037088
0.0385896
0.0390216
0.0387717
0.0380921
0.0367836
0.0343957
0.0308076
0.0266986
0.0234045
0.0221762
0.0234311
0.0265848
0.0304343
0.0338256
0.0360797
0.0370657
0.0370199
0.0362479
0.0347603
0.0322244
0.0282979
0.0231736
0.0178108
0.0135929
0.0116284
0.0121829
0.0146244
0.0177819
0.0205115
0.0220681
0.0221843
0.0209339
0.0185288
0.0151974
0.0112346
0.00711479
0.00354777
0.00133857
0.0010778
0.0028633
0.0062377
0.0103611
0.014314
0.0173219
0.0188358
0.0184857
0.0159917
0.0111415
0.00389908
-0.00541364
-0.0158849
-0.026025
-0.0340673
-0.0383202
-0.038293
-0.0334746
-0.0270148
-0.0163423
-0.0128568
0.00365603
-0.0132792
0.107494
0.10653
0.103219
0.0981864
0.0907762
0.0803723
0.0666009
0.0489085
0.0280788
0.00514994
-0.0163738
-0.0321996
-0.0418176
-0.0448559
-0.039995
-0.0287328
-0.0140749
0.00145277
0.0157659
0.0275175
0.0357481
0.0398335
0.0400939
0.0384299
0.037388
0.0383186
0.0408897
0.044139
0.0473802
0.0503429
0.0530825
0.055696
0.0582129
0.0602122
0.0605227
0.0579827
0.0528825
0.0475165
0.0444822
0.0445354
0.0465355
0.0488979
0.0507493
0.0519262
0.052656
0.0532567
0.0539615
0.054445
0.0535867
0.0502751
0.0448335
0.039487
0.0368307
0.0377167
0.040879
0.0443022
0.0467358
0.0479214
0.0482085
0.0481553
0.0481387
0.0477832
0.0460769
0.0422922
0.0370828
0.0325125
0.0306394
0.0320407
0.0356055
0.0394946
0.0423557
0.0437728
0.0440725
0.0438778
0.043521
0.0425813
0.0402426
0.0362072
0.0314064
0.0277047
0.0266498
0.0284809
0.0321176
0.0359862
0.0388952
0.0404192
0.0408007
0.0405735
0.0399825
0.0386478
0.0359527
0.0318508
0.0273525
0.0241445
0.0235234
0.0256167
0.0294018
0.0334306
0.0365835
0.038408
0.0390372
0.038876
0.0381218
0.0364784
0.0334612
0.0290648
0.0242066
0.0204686
0.0192393
0.0209091
0.0247303
0.0292899
0.0332778
0.0359608
0.0372294
0.0373489
0.0366021
0.0348981
0.0318293
0.0271012
0.0211049
0.0150613
0.0105589
0.0087818
0.00992833
0.0132004
0.0172199
0.0206692
0.0227094
0.0230542
0.0217894
0.0191269
0.0152873
0.0106119
0.00571219
0.00150251
-0.00101954
-0.0011659
0.00112942
0.00527398
0.0102471
0.0149684
0.0185535
0.0203984
0.0201158
0.0174091
0.012052
0.00400927
-0.00635182
-0.0180009
-0.0292775
-0.0382037
-0.0429352
-0.0428413
-0.0375369
-0.0300983
-0.0185886
-0.0137605
0.00275754
-0.0122428
0.110076
0.109194
0.106155
0.101434
0.0943058
0.0839703
0.0698442
0.0509793
0.0281251
0.00206545
-0.0225127
-0.0399368
-0.0503779
-0.0535991
-0.0474502
-0.0337535
-0.0163932
0.00158772
0.0177793
0.0307206
0.0393524
0.0428484
0.0415471
0.0379739
0.0356147
0.0361815
0.039007
0.0426678
0.0462689
0.0495092
0.0524836
0.055321
0.0580754
0.0602807
0.0604725
0.0571219
0.0505653
0.0437945
0.0402717
0.0408427
0.043792
0.0469713
0.0493351
0.0507626
0.0515471
0.0520545
0.0526585
0.0530949
0.0520783
0.0482443
0.0418743
0.03556
0.0324721
0.0337324
0.037846
0.0422638
0.0453841
0.0468778
0.0472054
0.0471052
0.0470688
0.0466021
0.0444676
0.0398602
0.0336762
0.0284252
0.0264899
0.02844
0.0328851
0.037657
0.0411746
0.0429548
0.0434001
0.0432605
0.0428817
0.0416923
0.0387371
0.0337912
0.0280938
0.0238841
0.0229112
0.0253399
0.0298115
0.0344723
0.0379729
0.0398651
0.0404489
0.0403137
0.0396459
0.0379329
0.0345027
0.0294584
0.0241214
0.0204895
0.0199984
0.0226943
0.027303
0.0321169
0.0358699
0.0380952
0.0389728
0.0389285
0.0380716
0.0359834
0.0321554
0.0267498
0.0209827
0.0167228
0.0155066
0.0176909
0.0223331
0.0277693
0.0324969
0.0357135
0.0373356
0.037663
0.0369413
0.0349497
0.0312015
0.0254872
0.018455
0.0116335
0.00683558
0.00531384
0.00718206
0.0114494
0.0164998
0.0208142
0.0234428
0.0240713
0.0227898
0.01979
0.0152835
0.00968871
0.00381407
-0.00116137
-0.00401661
-0.0039705
-0.001025
0.00405358
0.0100302
0.0156385
0.0198752
0.0220839
0.0218647
0.0189015
0.012949
0.00397757
-0.00758425
-0.0205656
-0.033117
-0.0430322
-0.0483076
-0.0481452
-0.042292
-0.0337166
-0.0212438
-0.0147981
0.00159695
-0.0108227
0.113018
0.112242
0.109559
0.105266
0.0985617
0.0884278
0.074001
0.0537907
0.0284328
-0.00181185
-0.0304295
-0.0497936
-0.0614257
-0.06511
-0.0572816
-0.040259
-0.0193076
0.00181597
0.0203433
0.034746
0.0438619
0.0465267
0.0430439
0.0368248
0.0327298
0.0329647
0.0363006
0.0406031
0.0446924
0.0482554
0.0514596
0.0544733
0.0573546
0.0596769
0.0597424
0.0555073
0.0471496
0.0384375
0.0341495
0.0355101
0.0399325
0.0443303
0.0473928
0.0490805
0.0498042
0.0500669
0.050494
0.0508938
0.0496914
0.0451511
0.0375957
0.0301728
0.0267084
0.0285415
0.033863
0.0395257
0.0434931
0.0453395
0.0456904
0.0455464
0.0455153
0.0449048
0.0421908
0.0365221
0.029137
0.0230883
0.0211419
0.0238398
0.029417
0.0352744
0.039566
0.0417639
0.0423897
0.0423407
0.0419391
0.0404191
0.036684
0.0306352
0.0238869
0.0190995
0.0182473
0.0214149
0.0269127
0.0325341
0.0367353
0.0390585
0.03989
0.0398765
0.0391068
0.036911
0.0325805
0.026425
0.0201302
0.0160319
0.0157084
0.0191157
0.0246971
0.0304403
0.0349019
0.0375994
0.0387733
0.0388671
0.0378713
0.0352302
0.0304349
0.0238661
0.0170829
0.0122596
0.0110772
0.0138514
0.0194285
0.0258677
0.0314486
0.0352863
0.0373237
0.0378946
0.0371889
0.0348358
0.0302815
0.0234453
0.0152807
0.00764782
0.00258123
0.00138186
0.00407519
0.00945439
0.0156536
0.0209386
0.0242368
0.0251938
0.0238843
0.0204496
0.0151063
0.00839989
0.00140417
-0.00439332
-0.00754679
-0.00721528
-0.00350135
0.00262035
0.00968273
0.0162261
0.0211335
0.0237055
0.0235331
0.0202793
0.013681
0.00372755
-0.00907604
-0.023413
-0.0372549
-0.0481757
-0.0540237
-0.0538113
-0.0474116
-0.0376337
-0.0241599
-0.0158973
0.000192449
-0.00900503
0.116276
0.115638
0.113411
0.109692
0.103601
0.0938769
0.0792845
0.057607
0.0292098
-0.00661373
-0.0404739
-0.0618705
-0.0746713
-0.0790347
-0.069213
-0.0480561
-0.0226858
0.0022378
0.0235355
0.0396696
0.0493493
0.0508556
0.0443382
0.0344349
0.0280763
0.0281522
0.0324644
0.0377616
0.0425002
0.0464154
0.0497885
0.052757
0.0553872
0.0575698
0.0575536
0.0527725
0.042787
0.0317042
0.0260581
0.0281775
0.0346063
0.0407454
0.0447584
0.0467023
0.0472123
0.0470995
0.0473466
0.0477432
0.0462638
0.040749
0.0317117
0.0230426
0.0193022
0.0219845
0.0288239
0.0359832
0.0409425
0.0431834
0.0435601
0.0433969
0.043396
0.0425956
0.0391623
0.0322565
0.0235272
0.0166072
0.0146772
0.0182648
0.0251807
0.0322985
0.0374632
0.0401254
0.0409687
0.041045
0.0406133
0.0386877
0.0340488
0.0267751
0.0188947
0.0135014
0.012798
0.0167938
0.0234478
0.0301523
0.0351362
0.0379401
0.0390574
0.0391866
0.0382871
0.0355222
0.0301773
0.0228142
0.0155103
0.0109395
0.0108148
0.0149976
0.0216389
0.0284003
0.0336407
0.0368599
0.038364
0.0386057
0.0374337
0.0341562
0.0282957
0.0204904
0.0126594
0.00727666
0.00615257
0.00955538
0.0161189
0.0236206
0.0301135
0.0346232
0.0371158
0.0379518
0.0372453
0.0344711
0.0290319
0.0210187
0.0117163
0.00331249
-0.00195899
-0.00277121
0.000800716
0.00733899
0.0147311
0.0210313
0.0250412
0.0263494
0.0249837
0.0210092
0.0146785
0.00673273
-0.00143038
-0.00800857
-0.0113699
-0.0106669
-0.00612448
0.00105707
0.00918177
0.0166118
0.0221364
0.0250298
0.0248758
0.0213194
0.0140908
0.00321474
-0.0107256
-0.0262904
-0.0413091
-0.0531611
-0.0595647
-0.0593296
-0.0524503
-0.0415138
-0.0271131
-0.0169528
-0.00139419
-0.00682917
0.119796
0.11933
0.117675
0.114708
0.109477
0.100462
0.0859447
0.0627618
0.0306898
-0.0126992
-0.0534663
-0.0771625
-0.0920102
-0.0977381
-0.0851168
-0.0580974
-0.0268492
0.00280169
0.0273883
0.0455157
0.0558402
0.0557122
0.0449399
0.0299299
0.0207123
0.0210188
0.0270538
0.033874
0.039489
0.0437829
0.0471578
0.0495994
0.0513624
0.0531027
0.0530882
0.0481095
0.0367588
0.0232645
0.0160016
0.0187617
0.0275817
0.0359888
0.0412417
0.0434428
0.0436002
0.0430421
0.0431551
0.0435669
0.0416916
0.0350023
0.0243194
0.0143229
0.0103536
0.0140798
0.0227082
0.0315796
0.0376416
0.0403106
0.0407311
0.0405822
0.040627
0.0395993
0.0353724
0.0271712
0.0170761
0.00927941
0.00737404
0.0119038
0.0202587
0.0287335
0.0348247
0.0379759
0.0390623
0.0392874
0.0388176
0.0364443
0.0308552
0.0223388
0.0133393
0.00736109
0.00682398
0.0116718
0.0195212
0.0273507
0.0331459
0.036449
0.0378705
0.0381503
0.0371
0.0337246
0.0273343
0.0187667
0.0104853
0.00547818
0.00557335
0.0105391
0.0182447
0.026031
0.032058
0.0358074
0.0376501
0.0380354
0.0366605
0.0327135
0.0257778
0.0167653
0.00794223
0.00205289
0.00101327
0.00503963
0.0125648
0.0211022
0.028489
0.0336649
0.0366159
0.0377179
0.0369916
0.0337701
0.0274427
0.0183003
0.00795672
-0.00110335
-0.00648468
-0.00686035
-0.00240986
0.00525234
0.0137914
0.0210729
0.0257814
0.0274305
0.0259605
0.0213526
0.0139465
0.00475111
-0.00448888
-0.0117013
-0.0151413
-0.0140063
-0.00866478
-0.000524996
0.00851388
0.0166725
0.0226814
0.0258103
0.0256383
0.0218033
0.0140444
0.0024293
-0.0124024
-0.0289346
-0.0449055
-0.0575332
-0.0644244
-0.0641855
-0.0569361
-0.0449825
-0.0298373
-0.0178423
-0.00306194
-0.00439652
0.123512
0.123257
0.122302
0.120297
0.116236
0.10836
0.0943224
0.0697795
0.033334
-0.0203728
-0.0700861
-0.0953203
-0.111554
-0.119677
-0.104367
-0.0703047
-0.0318997
0.00334539
0.0316519
0.0521041
0.0630923
0.0605763
0.0438647
0.0216143
0.00885896
0.0103694
0.0194806
0.0286593
0.0354612
0.0401254
0.0431639
0.0444168
0.0448286
0.046104
0.0462908
0.0409982
0.0280121
0.0121863
0.00358262
0.00723624
0.0187837
0.0299017
0.036664
0.0391407
0.0388628
0.0378532
0.0378922
0.0383324
0.0359994
0.0281053
0.0158196
0.00452767
0.000324157
0.00512427
0.0156514
0.026341
0.0335528
0.0366598
0.03714
0.0370305
0.0371313
0.0358785
0.0308894
0.0214796
0.010131
0.00153104
-0.000348597
0.00508165
0.0148395
0.0246489
0.0316438
0.0352659
0.0365938
0.0369739
0.0364687
0.0336642
0.027184
0.01753
0.00752667
0.0010396
0.000676805
0.00632859
0.015305
0.0241968
0.030754
0.0345249
0.0362366
0.036661
0.0354605
0.0315017
0.0241412
0.0144856
0.00534662
-1.94436e-05
0.000304722
0.00599851
0.0146784
0.0233973
0.0301366
0.0343671
0.0365207
0.0370327
0.0354545
0.0308767
0.0229629
0.0128844
0.00321283
-0.00308373
-0.00401357
0.000584725
0.00896559
0.0184149
0.0265863
0.0323506
0.0357144
0.0370591
0.0363018
0.0326596
0.0255351
0.0154236
0.00423518
-0.00530064
-0.0106742
-0.0105849
-0.00531652
0.00334563
0.0128866
0.0210265
0.0263551
0.0282942
0.0266598
0.0213678
0.0129069
0.00260367
-0.00748105
-0.0150966
-0.0184748
-0.0168994
-0.0108837
-0.00201034
0.00766843
0.01629
0.0225758
0.0258161
0.0255918
0.0215484
0.0134432
0.00137799
-0.0139895
-0.0311229
-0.0477252
-0.0608937
-0.0681521
-0.0679147
-0.0604304
-0.0476819
-0.0320649
-0.0184468
-0.00468557
-0.00186512
0.127339
0.127335
0.127218
0.126411
0.123899
0.117722
0.104775
0.0792876
0.037565
-0.0305221
-0.0920217
-0.118832
-0.139942
-0.150932
-0.13069
-0.0860295
-0.0381073
0.00379063
0.036157
0.0590745
0.0704696
0.0641498
0.0386548
0.00655103
-0.0101345
-0.00545663
0.00892704
0.0217395
0.030184
0.035174
0.0374072
0.0368647
0.0358166
0.0368488
0.037391
0.031515
0.0166516
-0.00138833
-0.0110469
-0.00619397
0.00834444
0.022461
0.0309172
0.0336963
0.0329605
0.031527
0.0315494
0.0320596
0.0293337
0.0204098
0.00676673
-0.00565747
-0.0101099
-0.00435841
0.00795941
0.0204011
0.0287091
0.0322168
0.0327462
0.0326811
0.0328532
0.0314419
0.0258473
0.0154656
0.0031051
-0.00614659
-0.00799649
-0.00178949
0.00919606
0.0201794
0.0279543
0.0319657
0.0334922
0.0340143
0.0334993
0.0303571
0.0231632
0.0126017
0.0018086
-0.0050611
-0.00524927
0.00109178
0.0110191
0.0207957
0.0279718
0.0321129
0.0340605
0.0346124
0.0332971
0.0288659
0.0207253
0.010211
0.000417277
-0.00519261
-0.00464315
0.00166288
0.0111324
0.0205867
0.0278707
0.0324639
0.0348588
0.035473
0.0337304
0.0286466
0.019963
0.00906721
-0.00122946
-0.00779344
-0.00859042
-0.00351596
0.00553632
0.0156771
0.0244273
0.0306216
0.0342971
0.0358366
0.0350554
0.0310857
0.0233567
0.0125441
0.000794868
-0.00898278
-0.0142169
-0.0136598
-0.00769563
0.00175368
0.0120508
0.020834
0.0266349
0.0287748
0.0269222
0.0209706
0.0116118
0.000494334
-0.0100897
-0.0178272
-0.0210145
-0.019047
-0.0125724
-0.00330057
0.00663412
0.0153644
0.0216628
0.0248667
0.0245695
0.0204302
0.0122245
6.85278e-05
-0.0154024
-0.0326852
-0.0495078
-0.0629051
-0.0703614
-0.0701218
-0.0625612
-0.0493079
-0.033561
-0.0186709
-0.00613605
0.00056911
0.131178
0.131466
0.132322
0.132975
0.132455
0.128752
0.117819
0.0924094
0.0444701
-0.0441659
-0.120805
-0.144381
-0.163946
-0.186259
-0.163487
-0.106189
-0.0463937
0.00326216
0.03999
0.0646698
0.0757861
0.0665422
0.0318873
-0.0129798
-0.0373386
-0.0286292
-0.00574136
0.0127542
0.0235007
0.0287171
0.0296425
0.0269398
0.0245423
0.0256331
0.0266608
0.0202216
0.00374556
-0.0161769
-0.0267787
-0.0207851
-0.00329914
0.0138402
0.0240243
0.0271073
0.0259201
0.0240929
0.024152
0.0248337
0.0219337
0.0123494
-0.00223288
-0.0155049
-0.0201958
-0.0137236
7.06262e-05
0.0140009
0.0232214
0.0270188
0.0275398
0.027499
0.0277751
0.026349
0.0204304
0.00944907
-0.00356863
-0.013252
-0.0150601
-0.00826412
0.00365144
0.0155108
0.0238302
0.0280709
0.0297032
0.0303382
0.029872
0.0265692
0.0189533
0.00782791
-0.00345524
-0.0105385
-0.0105579
-0.00369978
0.00690537
0.0172782
0.0248314
0.0291715
0.0312567
0.0319137
0.030563
0.0258589
0.0172375
0.00619408
-0.00398129
-0.00968953
-0.00893086
-0.00218224
0.0078065
0.0176989
0.0252673
0.0300324
0.0325572
0.0332478
0.0314276
0.0260498
0.016908
0.00553592
-0.00509693
-0.0117566
-0.012401
-0.00698467
0.00248617
0.01301
0.0220418
0.0284286
0.0322591
0.033925
0.0331543
0.0290211
0.0209755
0.00982206
-0.0021344
-0.0118813
-0.0168395
-0.0158395
-0.00936076
0.000579059
0.0112919
0.0204173
0.0264803
0.028705
0.0266121
0.0201223
0.0101566
-0.00136385
-0.012034
-0.0195964
-0.0224882
-0.0202277
-0.0135824
-0.00433264
0.00539518
0.0138242
0.0198422
0.0228568
0.0224814
0.0183857
0.0103576
-0.00149305
-0.0165856
-0.0334991
-0.0500554
-0.0633039
-0.0707497
-0.0705017
-0.0630463
-0.0496372
-0.0341499
-0.0184558
-0.00730155
0.00270254
0.134913
0.135526
0.137481
0.139837
0.141812
0.141461
0.133859
0.110145
0.0543641
-0.0624968
-0.160188
-0.181581
-0.208262
-0.2394
-0.209024
-0.132023
-0.0567493
0.0016341
0.0418244
0.0646844
0.0734602
0.0628613
0.0259387
-0.027643
-0.0648403
-0.0574354
-0.0251341
0.00122321
0.0152226
0.0206364
0.019845
0.0148602
0.0113238
0.0128208
0.0145868
0.00800051
-0.0093857
-0.0305922
-0.0420611
-0.035321
-0.0153872
0.00443525
0.0161727
0.019489
0.0178382
0.0156263
0.0157795
0.016811
0.0141022
0.00438465
-0.0105884
-0.0243276
-0.0292072
-0.0223045
-0.00750673
0.00746524
0.0172736
0.0211575
0.021553
0.0214922
0.0219309
0.0207108
0.0148567
0.00375502
-0.00947957
-0.0193221
-0.0210668
-0.0139132
-0.00145932
0.0108607
0.0193814
0.0236098
0.025205
0.0259129
0.0255908
0.0223822
0.0147324
0.00347603
-0.00793249
-0.0150278
-0.0148894
-0.00773033
0.00320208
0.0137883
0.0213863
0.0256839
0.0277684
0.0285082
0.0272471
0.0225491
0.0138362
0.00267117
-0.00756059
-0.0132007
-0.0122597
-0.00528068
0.00488796
0.014838
0.0223486
0.0270298
0.0295378
0.0302843
0.0285204
0.0231372
0.0139315
0.00249389
-0.00813888
-0.0147008
-0.015177
-0.00958329
-2.83127e-07
0.0105277
0.0194678
0.0257411
0.0295228
0.0312317
0.0305375
0.0264686
0.0184714
0.00740632
-0.00435597
-0.0137768
-0.0183254
-0.0169359
-0.0101774
-0.000117192
0.0105907
0.0196874
0.0257556
0.027941
0.0256381
0.0188288
0.00864994
-0.00279598
-0.0131168
-0.020215
-0.0227303
-0.0203172
-0.0138426
-0.00508768
0.00393527
0.01164
0.0170857
0.0197652
0.019314
0.0154094
0.0078444
-0.00329374
-0.0175038
-0.0334929
-0.0492515
-0.0619338
-0.0691359
-0.0688738
-0.0617217
-0.0485462
-0.0337324
-0.0177854
-0.00810431
0.00435946
0.138412
0.139379
0.142521
0.146823
0.151793
0.156035
0.153609
0.1357
0.0700698
-0.0945178
-0.211117
-0.211562
-0.245054
-0.303559
-0.270585
-0.168098
-0.0719727
-0.00291001
0.0375581
0.0519659
0.0555471
0.043552
0.0136509
-0.0405846
-0.0888785
-0.0872626
-0.0477123
-0.0126506
0.00534037
0.0109676
0.00820164
0.000934078
-0.00348704
-0.00117157
0.00180962
-0.00417644
-0.0215201
-0.0432215
-0.0553971
-0.0484543
-0.026957
-0.00516608
0.00771199
0.0110754
0.00888664
0.00626667
0.00658533
0.0082238
0.00618502
-0.00303734
-0.0177756
-0.0315404
-0.0365207
-0.0294949
-0.0142625
0.00116436
0.011108
0.0147799
0.0148726
0.0147286
0.0154175
0.0146875
0.00936144
-0.00131399
-0.0142745
-0.0239724
-0.0256236
-0.0183662
-0.00582448
0.0064565
0.0147479
0.0186512
0.020024
0.02076
0.0207109
0.0179111
0.0106818
-0.000216161
-0.0113469
-0.0182349
-0.0179531
-0.0107365
0.000121842
0.0104711
0.0177122
0.0216691
0.0235848
0.0243901
0.023382
0.0190283
0.0106742
-0.000156351
-0.0100892
-0.0154842
-0.0143965
-0.0074273
0.00253598
0.0121051
0.0191565
0.0234506
0.0257714
0.0265617
0.025027
0.0199816
0.0111602
0.000109843
-0.0101603
-0.0164207
-0.016718
-0.0111315
-0.00177711
0.00832946
0.0167528
0.0225592
0.0260563
0.0277198
0.0271934
0.023463
0.0159299
0.00542248
-0.00572055
-0.0145138
-0.0185299
-0.0168318
-0.0100727
-0.000318738
0.00990772
0.01856
0.0243524
0.0263861
0.0239618
0.0171287
0.00718597
-0.00369368
-0.0132436
-0.0196136
-0.021695
-0.0193009
-0.013366
-0.00558803
0.00224729
0.0088326
0.0134358
0.0156422
0.0151155
0.0115452
0.00472213
-0.0053051
-0.0181366
-0.032651
-0.0470778
-0.0587697
-0.0654877
-0.065207
-0.0585597
-0.0460229
-0.0322945
-0.0166848
-0.00851139
0.00542798
0.141534
0.142856
0.147232
0.153583
0.162072
0.171738
0.177298
0.167941
0.0921508
-0.11667
-0.300076
-0.280308
-0.316806
-0.40112
-0.354602
-0.21356
-0.0907027
-0.0108621
0.0234903
0.0257234
0.0232658
0.0148035
-0.00604919
-0.0569595
-0.110875
-0.115076
-0.0713426
-0.0281354
-0.00591657
-7.52954e-05
-0.00493064
-0.01445
-0.0194686
-0.0158236
-0.0109311
-0.0153833
-0.0316536
-0.0529863
-0.0655953
-0.0589971
-0.0370216
-0.0142642
-0.00088183
0.00220396
-0.000681862
-0.0037648
-0.0031879
-0.000622359
-0.00144877
-0.00951187
-0.023374
-0.0367045
-0.041669
-0.0348113
-0.0197446
-0.00452852
0.00500463
0.00808669
0.0076502
0.00734997
0.00840105
0.00848402
0.00418323
-0.00549937
-0.0176845
-0.0269271
-0.0284492
-0.0213434
-0.00918439
0.00251543
0.0100933
0.0133107
0.014249
0.0149689
0.0153447
0.0133005
0.0069741
-0.00305836
-0.0134995
-0.019959
-0.0195503
-0.0125284
-0.00216556
0.00746391
0.013908
0.0171936
0.0187568
0.0196169
0.0190495
0.0154082
0.00788782
-0.00213742
-0.0114105
-0.0163848
-0.0151918
-0.00848381
0.000870636
0.00959511
0.0157578
0.0193385
0.021293
0.0221241
0.0210134
0.016675
0.00870561
-0.00149362
-0.0110353
-0.0167927
-0.0169058
-0.0115191
-0.00274638
0.00649624
0.0139572
0.0189233
0.0218882
0.0234194
0.0231669
0.020071
0.013436
0.00396414
-0.00613684
-0.0140124
-0.017392
-0.0154902
-0.00904014
-5.00402e-05
0.00919538
0.0169744
0.0222091
0.0240015
0.0215925
0.0150745
0.00582527
-0.00402462
-0.0124244
-0.0178408
-0.0194604
-0.0172747
-0.0122416
-0.00588206
0.000346034
0.00547294
0.00899147
0.0105892
0.00997994
0.00687834
0.00106249
-0.00748045
-0.0184771
-0.0310142
-0.0436185
-0.0539253
-0.059931
-0.0596281
-0.0536747
-0.0421669
-0.0299067
-0.0152123
-0.00853654
0.00588478
0.144132
0.145798
0.151352
0.159822
0.172066
0.188728
0.205786
0.220259
0.130453
-0.110629
-0.350526
-0.300718
-0.363476
-0.520799
-0.480938
-0.284806
-0.118222
-0.0254288
-0.00289962
-0.00898736
-0.0152293
-0.0138161
-0.0262728
-0.0712678
-0.125923
-0.135954
-0.0924372
-0.043621
-0.0178662
-0.0120247
-0.0190492
-0.0308063
-0.0360981
-0.0304979
-0.022853
-0.0248146
-0.0390599
-0.0592046
-0.071895
-0.0660881
-0.044731
-0.0221511
-0.00906321
-0.00670829
-0.0105317
-0.0141538
-0.0132031
-0.00935641
-0.00842393
-0.0146987
-0.0270909
-0.0395533
-0.0443719
-0.0379327
-0.0236038
-0.00927568
-0.000741099
0.00132689
0.000108379
-0.000421987
0.00111708
0.00234315
-0.000448387
-0.00860168
-0.0195418
-0.0280368
-0.0293923
-0.0226758
-0.0113516
-0.000770865
0.00559798
0.00775361
0.00803891
0.00870272
0.00966272
0.00871992
0.00376396
-0.0049193
-0.0142818
-0.0201051
-0.0195872
-0.0130025
-0.00354413
0.00488985
0.0100967
0.0123778
0.0134064
0.0143165
0.0143815
0.0118162
0.00558936
-0.00318057
-0.0114531
-0.0158439
-0.0145897
-0.00838753
-3.3204e-05
0.00739483
0.0122481
0.0147953
0.0162105
0.0170856
0.0165957
0.0133255
0.00665924
-0.00224663
-0.0107148
-0.0157827
-0.0157116
-0.0107131
-0.00286259
0.00508935
0.0111574
0.0149219
0.0171154
0.0184335
0.0185623
0.0163903
0.0110706
0.00308752
-0.00557797
-0.0122755
-0.0149397
-0.0129578
-0.00713696
0.000634101
0.00841473
0.01491
0.0193229
0.020807
0.018575
0.0127183
0.0045894
-0.00382612
-0.0107619
-0.0150537
-0.0162157
-0.0144254
-0.0106085
-0.00602092
-0.00172417
0.00167138
0.00388724
0.00473994
0.00403276
0.00152516
-0.00303518
-0.00975805
-0.0185287
-0.028672
-0.0390485
-0.0476403
-0.0527377
-0.0524101
-0.0473125
-0.0371785
-0.0267118
-0.0134459
-0.00823209
0.00579642
0.146065
0.148019
0.154617
0.164915
0.181037
0.203961
0.238304
0.24329
0.218692
-0.143812
-0.474206
-0.324071
-0.344224
-0.564646
-0.560617
-0.350553
-0.148971
-0.0488477
-0.0394174
-0.0513378
-0.0543589
-0.0388311
-0.0425198
-0.0800822
-0.132027
-0.146935
-0.107573
-0.0570182
-0.0293845
-0.0241112
-0.0334826
-0.0474919
-0.0526823
-0.0444133
-0.0331659
-0.0318271
-0.0433135
-0.0616046
-0.0740053
-0.0692794
-0.0494909
-0.0282104
-0.0162812
-0.015194
-0.0202483
-0.0244905
-0.0230329
-0.0175563
-0.0143775
-0.0183371
-0.0287718
-0.04
-0.0445444
-0.038718
-0.0256209
-0.0128039
-0.00583886
-0.00521076
-0.0074622
-0.00828828
-0.00613585
-0.00346456
-0.00432348
-0.0104895
-0.0197859
-0.0272831
-0.0284368
-0.0223127
-0.0122217
-0.00324736
0.00145202
0.00219259
0.00162206
0.00219673
0.00388889
0.00435714
0.001182
-0.00573211
-0.0136799
-0.0186888
-0.0180792
-0.0121465
-0.00395665
0.00285375
0.00642311
0.00739652
0.00772638
0.00868486
0.00955635
0.00839117
0.00386304
-0.00325761
-0.0102336
-0.0139029
-0.0126307
-0.00715338
-0.000147381
0.00558252
0.0087519
0.00998123
0.0107045
0.0116288
0.0119361
0.0100549
0.00508953
-0.00213439
-0.00922837
-0.0134477
-0.0131978
-0.00875767
-0.00213263
0.00415138
0.00844737
0.0106922
0.0119032
0.0129365
0.0135404
0.0125465
0.0089083
0.00280914
-0.00408368
-0.00939068
-0.0112919
-0.00936239
-0.00447535
0.00166331
0.00755045
0.0123976
0.0157506
0.0168719