/*--------------------------------*- C++ -*----------------------------------*\
  =========                 |
  \\      /  F ield         | OpenFOAM: The Open Source CFD Toolbox
   \\    /   O peration     | Website:  https://openfoam.org
    \\  /    A nd           | Version:  11
     \\/     M anipulation  |
\*---------------------------------------------------------------------------*/
FoamFile
{
    format      ascii;
    class       volVectorField;
    location    "15.008137";
    object      vorticity;
}
// * * * * * * * * * * * * * * * * * * * * * * * * * * * * * * * * * * * * * //

dimensions      [0 0 -1 0 0 0 0];

internalField   nonuniform List<vector> 
7132
(
(-6.86245e-17 -1.90194e-15 -0.0095044)
(-2.54155e-16 -1.82841e-15 -0.01003)
(-2.3373e-16 -2.06572e-17 -0.0105275)
(-2.77399e-16 -1.80832e-15 -0.010866)
(-3.65377e-16 -1.77923e-15 -0.0109862)
(-3.36667e-16 1.94217e-17 -0.0108865)
(-2.98445e-16 3.01914e-17 -0.0106171)
(-2.47657e-16 2.81792e-17 -0.0102591)
(-2.40817e-16 2.17042e-17 -0.00990388)
(-2.21528e-16 1.17855e-17 -0.00963162)
(-1.98343e-16 2.7705e-18 -0.00949571)
(-1.62038e-16 -1.82477e-18 -0.00953517)
(-1.61627e-16 9.21599e-19 -0.00974606)
(-1.45657e-16 2.59893e-17 -0.0100693)
(-7.76535e-17 -1.68696e-15 -0.0104262)
(-1.49816e-17 -1.69629e-15 -0.0107148)
(-9.01555e-18 -1.70325e-15 -0.0108368)
(-4.76899e-17 3.8231e-17 -0.010722)
(-9.05125e-17 -1.71317e-15 -0.010362)
(-3.68522e-17 -1.7326e-15 -0.00985285)
(4.30237e-16 9.53909e-19 -0.00933795)
(1.04006e-15 1.64156e-19 -0.00895534)
(1.13672e-15 -9.98266e-18 -0.00884253)
(8.04414e-16 2.00832e-17 -0.00911731)
(4.37989e-16 3.52043e-15 -0.00977063)
(2.36451e-16 -6.71021e-17 -0.0106247)
(1.3668e-15 -1.10219e-16 -0.0114508)
(4.88355e-16 1.24288e-15 -0.0120511)
(-1.70406e-14 1.57273e-15 -0.012278)
(-1.41742e-14 -1.56461e-14 -0.0120376)
(2.3942e-13 -4.22644e-14 -0.0113139)
(5.94712e-13 1.54557e-13 -0.0102366)
(-2.66515e-12 9.86334e-13 -0.00913325)
(-1.75607e-11 2.07547e-12 -0.00831245)
(-4.18318e-11 1.88409e-12 -0.00786777)
(-5.45734e-11 2.11353e-14 -0.00776196)
(-4.27404e-11 -1.69357e-12 -0.008036)
(-2.0334e-11 -1.88852e-12 -0.00885906)
(-5.32447e-12 -1.12958e-12 -0.0102533)
(3.28268e-13 -4.71559e-13 -0.0118721)
(1.33722e-12 -1.5425e-13 -0.0132475)
(6.48522e-13 5.36266e-13 -0.014032)
(-1.49051e-12 2.25156e-12 -0.0140604)
(-4.00808e-12 1.93916e-12 -0.0133521)
(-1.35769e-13 -1.28313e-11 -0.0121265)
(2.70385e-11 -6.27809e-11 -0.0108673)
(1.01061e-10 -1.50125e-10 -0.0103071)
(2.04266e-10 -2.19997e-10 -0.0108446)
(2.93868e-10 -1.86086e-10 -0.012055)
(3.43291e-10 -3.51557e-11 -0.013002)
(3.11873e-10 1.31577e-10 -0.0131273)
(1.99683e-10 2.04766e-10 -0.0128776)
(1.04836e-10 1.77516e-10 -0.0131242)
(4.84001e-11 1.09914e-10 -0.0139503)
(8.13307e-12 4.49316e-11 -0.0148581)
(-7.58482e-14 -2.18304e-12 -0.0153762)
(3.88972e-11 -1.42227e-11 -0.0152388)
(4.3775e-11 5.69997e-11 -0.0142863)
(-3.14273e-10 2.81217e-10 -0.0121832)
(-1.68688e-09 6.81152e-10 -0.00828797)
(-4.79157e-09 1.15397e-09 -0.002033)
(-9.69435e-09 1.45584e-09 0.0063336)
(-1.51223e-08 1.32307e-09 0.015)
(-1.87976e-08 6.88216e-10 0.0209331)
(-1.89226e-08 -2.2709e-10 0.0215467)
(-1.55334e-08 -1.05417e-09 0.0162936)
(-1.03554e-08 -1.48651e-09 0.00693636)
(-5.40384e-09 -1.42242e-09 -0.00335472)
(-1.91211e-09 -1.00616e-09 -0.0115717)
(-1.01722e-10 -5.00895e-10 -0.0161496)
(4.66171e-10 -8.96013e-11 -0.0170541)
(3.40306e-10 2.15412e-10 -0.0149604)
(-1.88379e-10 5.03819e-10 -0.0104494)
(-1.12043e-09 8.31583e-10 -0.00387883)
(-2.5273e-09 1.14665e-09 0.00423348)
(-4.2892e-09 1.31461e-09 0.013144)
(-6.01605e-09 1.20562e-09 0.0221759)
(-7.19837e-09 7.8202e-10 0.0305414)
(-7.4472e-09 1.31275e-10 0.0366807)
(-6.67981e-09 -5.70484e-10 0.0382142)
(-5.16839e-09 -1.13082e-09 0.0333058)
(-3.38993e-09 -1.40202e-09 0.0224088)
(-1.79746e-09 -1.33605e-09 0.00849578)
(-6.62229e-10 -1.03607e-09 -0.00428739)
(-1.53482e-11 -7.24465e-10 -0.0125947)
(2.89742e-10 -6.00137e-10 -0.0153651)
(4.49464e-10 -7.06115e-10 -0.0139704)
(5.9982e-10 -9.32148e-10 -0.0110748)
(7.80276e-10 -1.12797e-09 -0.00899976)
(9.70422e-10 -1.20558e-09 -0.0082633)
(1.14381e-09 -1.15687e-09 -0.00726509)
(1.29065e-09 -1.00754e-09 -0.00370277)
(1.41032e-09 -7.66244e-10 0.00336049)
(1.4916e-09 -4.03998e-10 0.0123391)
(1.50072e-09 1.25256e-10 0.019773)
(1.40018e-09 8.13413e-10 0.0224397)
(1.1793e-09 1.50323e-09 0.0190933)
(8.66498e-10 1.8902e-09 0.0108656)
(5.3354e-10 1.70658e-09 0.000582865)
(2.79101e-10 9.5505e-10 -0.00901167)
(1.92982e-10 -5.70901e-11 -0.0169317)
(3.18422e-10 -9.3634e-10 -0.0241022)
(6.32867e-10 -1.44902e-09 -0.0319083)
(1.05527e-09 -1.58513e-09 -0.040242)
(1.4765e-09 -1.4622e-09 -0.0468711)
(1.79545e-09 -1.21091e-09 -0.0489127)
(1.94608e-09 -9.19609e-10 -0.0448086)
(1.91001e-09 -6.21778e-10 -0.0352356)
(1.71489e-09 -2.91446e-10 -0.0226955)
(1.41939e-09 1.47553e-10 -0.010243)
(1.08883e-09 7.5236e-10 -0.000329785)
(7.7345e-10 1.44166e-09 0.00530337)
(5.03108e-10 1.94941e-09 0.00578386)
(2.96922e-10 1.97092e-09 0.00115171)
(1.72425e-10 1.41836e-09 -0.0080052)
(1.42818e-10 5.22767e-10 -0.0209751)
(2.05965e-10 -3.37044e-10 -0.0368757)
(3.37238e-10 -8.93123e-10 -0.0540633)
(4.95069e-10 -1.09556e-09 -0.0695199)
(6.37038e-10 -1.04203e-09 -0.0795982)
(7.33704e-10 -8.61052e-10 -0.0818322)
(7.72322e-10 -6.46439e-10 -0.0761296)
(7.53163e-10 -4.46718e-10 -0.0645426)
(6.85317e-10 -2.73177e-10 -0.0501151)
(5.84619e-10 -1.03344e-10 -0.0355686)
(4.7076e-10 1.10693e-10 -0.0224123)
(3.61091e-10 4.08666e-10 -0.0113188)
(2.66127e-10 7.70172e-10 -0.00283877)
(1.90748e-10 1.09063e-09 0.00213479)
(1.38239e-10 1.22948e-09 0.00230756)
(1.11752e-10 1.1053e-09 -0.00357139)
(1.11787e-10 7.53949e-10 -0.0159512)
(1.33591e-10 3.00466e-10 -0.0337813)
(1.67441e-10 -1.20137e-10 -0.0542154)
(2.0206e-10 -4.24213e-10 -0.0732413)
(2.28665e-10 -5.91128e-10 -0.0870706)
(2.42983e-10 -6.41242e-10 -0.0934338)
(2.44799e-10 -6.09032e-10 -0.0920944)
(2.36274e-10 -5.26844e-10 -0.0844954)
(2.20378e-10 -4.1952e-10 -0.0728122)
(2.00038e-10 -3.04679e-10 -0.059022)
(1.7792e-10 -1.93788e-10 -0.044542)
(1.56248e-10 -9.2357e-11 -0.0301232)
(1.36536e-10 -9.11046e-13 -0.0160318)
(1.19246e-10 8.2303e-11 -0.00233928)
(1.04098e-10 1.58383e-10 0.0106951)
(9.11152e-11 2.26606e-10 0.0224228)
(8.17823e-11 2.85305e-10 0.0319266)
(7.93006e-11 3.33404e-10 0.0383828)
(8.72112e-11 3.71416e-10 0.0414048)
(1.06917e-10 4.01362e-10 0.041112)
(1.35693e-10 4.25669e-10 0.0378776)
(1.6658e-10 4.45529e-10 0.0319551)
(1.90913e-10 4.58365e-10 0.0236078)
(2.01822e-10 4.53344e-10 0.0134343)
(1.96056e-10 4.09987e-10 0.00250842)
(1.74452e-10 2.91562e-10 -0.00869506)
(1.41428e-10 1.28729e-10 -0.0161481)
(1.05839e-10 -2.59847e-10 -0.0315554)
(5.99089e-11 -2.84843e-10 -0.0218239)
(-6.92563e-17 -6.8819e-18 -0.0284426)
(-2.64966e-16 -1.09204e-17 -0.0300333)
(-2.56422e-16 -9.88232e-18 -0.0315569)
(-3.06674e-16 -1.11633e-17 -0.0326174)
(-4.05385e-16 -1.31819e-17 -0.0330237)
(-3.94646e-16 -1.06563e-17 -0.03275)
(-3.78685e-16 -1.43136e-17 -0.031923)
(-3.47707e-16 -6.3485e-19 -0.0307662)
(-2.53892e-16 1.74336e-15 -0.0295446)
(-2.90932e-16 -9.45136e-18 -0.0285006)
(-3.9292e-16 -2.69744e-17 -0.0278041)
(-4.42568e-16 3.44926e-15 -0.0275995)
(-3.96518e-16 -7.26852e-18 -0.0279196)
(-2.68449e-16 -1.43033e-17 -0.0286863)
(-8.19382e-17 -1.41839e-17 -0.0297811)
(8.45497e-18 4.11481e-18 -0.0310189)
(-1.45891e-16 4.44408e-17 -0.0321921)
(-4.83304e-16 7.77089e-17 -0.0331018)
(-5.62918e-16 1.57073e-17 -0.0336032)
(4.61031e-16 -2.58673e-16 -0.0336729)
(2.00721e-15 -5.37079e-16 -0.0333292)
(3.03986e-15 -3.53076e-16 -0.0325673)
(4.50159e-15 1.07841e-16 -0.0314537)
(4.24762e-15 3.686e-16 -0.0302268)
(2.36741e-15 3.34963e-16 -0.0291804)
(2.19961e-15 -5.30659e-16 -0.028503)
(6.75623e-15 -2.36171e-16 -0.0282513)
(-1.18054e-14 1.04466e-14 -0.0283704)
(-6.1756e-14 8.90063e-15 -0.0287282)
(1.3688e-13 -1.45613e-13 -0.029194)
(5.53163e-13 -3.46704e-13 -0.029753)
(-1.42784e-12 1.60337e-12 -0.0305787)
(-5.54011e-12 1.00623e-11 -0.0319438)
(1.01823e-11 2.16571e-11 -0.0337978)
(5.07954e-11 2.03869e-11 -0.035472)
(6.00557e-11 4.73693e-13 -0.0360257)
(2.43741e-11 -1.88167e-11 -0.0351531)
(-3.68766e-12 -2.05982e-11 -0.0334884)
(-7.94715e-12 -1.14625e-11 -0.0318823)
(-2.36838e-12 -3.80588e-12 -0.0307862)
(1.58038e-12 -3.1438e-13 -0.0302271)
(-1.30039e-12 1.9484e-12 -0.0299634)
(-3.35533e-12 4.57813e-12 -0.0297452)
(2.91093e-11 1.26005e-12 -0.0296452)
(8.39501e-11 -2.83581e-11 -0.0301885)
(-1.85689e-10 -1.13379e-10 -0.0318944)
(-1.75899e-09 -2.38741e-10 -0.0343651)
(-5.60479e-09 -3.16403e-10 -0.0360567)
(-1.06164e-08 -2.55601e-10 -0.036391)
(-1.34076e-08 -4.41615e-11 -0.0367339)
(-1.18747e-08 2.03379e-10 -0.0378074)
(-7.54764e-09 3.08288e-10 -0.0384667)
(-3.31189e-09 2.53156e-10 -0.0378655)
(-7.63591e-10 1.58266e-10 -0.0361333)
(1.51803e-10 6.91661e-11 -0.0340047)
(2.81468e-10 -1.75668e-11 -0.0323039)
(3.04417e-10 -3.61464e-11 -0.0313338)
(1.22284e-10 2.33583e-10 -0.0304672)
(-1.56037e-09 1.14655e-09 -0.02761)
(-7.11683e-09 2.9198e-09 -0.0191391)
(-1.85863e-08 5.1577e-09 -0.0016987)
(-3.52825e-08 6.62119e-09 0.0244206)
(-5.2753e-08 5.87469e-09 0.0535891)
(-6.45415e-08 2.58838e-09 0.0764476)
(-6.55753e-08 -1.85918e-09 0.083747)
(-5.52565e-08 -5.33777e-09 0.071402)
(-3.81194e-08 -6.5513e-09 0.0438013)
(-2.07172e-08 -5.64406e-09 0.0113693)
(-7.80495e-09 -3.65721e-09 -0.0155013)
(-7.71203e-10 -1.69004e-09 -0.0312478)
(1.60748e-09 -3.10614e-10 -0.0358683)
(1.26011e-09 5.42689e-10 -0.0322414)
(-5.98887e-10 1.23419e-09 -0.0234163)
(-3.64547e-09 2.00105e-09 -0.011769)
(-7.72493e-09 2.73103e-09 0.000951793)
(-1.21952e-08 3.05898e-09 0.0145771)
(-1.60451e-08 2.66021e-09 0.0314033)
(-1.84302e-08 1.49759e-09 0.053491)
(-1.88946e-08 -1.28002e-10 0.0778536)
(-1.73017e-08 -1.70989e-09 0.0953272)
(-1.39288e-08 -2.77576e-09 0.0958927)
(-9.58706e-09 -3.08748e-09 0.0762914)
(-5.36417e-09 -2.6999e-09 0.042764)
(-2.12579e-09 -1.92712e-09 0.00738896)
(-1.54836e-10 -1.20045e-09 -0.0188492)
(8.12905e-10 -8.32542e-10 -0.0319672)
(1.25595e-09 -8.61152e-10 -0.0361673)
(1.54333e-09 -1.09756e-09 -0.0396049)
(1.83734e-09 -1.31327e-09 -0.0476246)
(2.17896e-09 -1.38735e-09 -0.0579775)
(2.55714e-09 -1.31698e-09 -0.0621164)
(2.92088e-09 -1.1408e-09 -0.0518661)
(3.21354e-09 -8.66717e-10 -0.0256086)
(3.40844e-09 -4.49196e-10 0.0101616)
(3.47348e-09 1.70964e-10 0.0437057)
(3.33286e-09 9.74128e-10 0.0636506)
(2.91306e-09 1.77007e-09 0.0641042)
(2.22645e-09 2.21308e-09 0.0466599)
(1.43313e-09 2.00028e-09 0.0187047)
(8.03902e-10 1.12533e-09 -0.0120329)
(5.92651e-10 -7.67487e-11 -0.0426176)
(9.05675e-10 -1.15628e-09 -0.0747844)
(1.65654e-09 -1.81744e-09 -0.109544)
(2.6246e-09 -2.00695e-09 -0.142006)
(3.56166e-09 -1.83229e-09 -0.162509)
(4.27115e-09 -1.4457e-09 -0.163206)
(4.63521e-09 -9.76886e-10 -0.143076)
(4.61308e-09 -5.06183e-10 -0.107544)
(4.23595e-09 -4.61342e-11 -0.0650415)
(3.59697e-09 4.60584e-10 -0.0239136)
(2.82448e-09 1.07533e-09 0.00908905)
(2.03812e-09 1.73452e-09 0.0287964)
(1.33145e-09 2.18767e-09 0.032099)
(7.83108e-10 2.13626e-09 0.0181942)
(4.60331e-10 1.49542e-09 -0.0121412)
(3.94832e-10 5.05999e-10 -0.0570655)
(5.54579e-10 -4.34252e-10 -0.112384)
(8.47452e-10 -1.03768e-09 -0.169402)
(1.16251e-09 -1.24545e-09 -0.215327)
(1.41672e-09 -1.16135e-09 -0.238449)
(1.57399e-09 -9.28691e-10 -0.234227)
(1.63351e-09 -6.56167e-10 -0.206895)
(1.607e-09 -4.03216e-10 -0.165921)
(1.50473e-09 -1.88903e-10 -0.120975)
(1.33744e-09 3.93617e-12 -0.0786748)
(1.12609e-09 2.22459e-10 -0.0420006)
(8.97656e-10 5.10984e-10 -0.0120177)
(6.76532e-10 8.55343e-10 0.0100766)
(4.84949e-10 1.15457e-09 0.0215458)
(3.4685e-10 1.26898e-09 0.0181142)
(2.83109e-10 1.11853e-09 -0.00422289)
(2.98472e-10 7.43031e-10 -0.0461902)
(3.7438e-10 2.72639e-10 -0.102775)
(4.75866e-10 -1.5437e-10 -0.163295)
(5.67489e-10 -4.54821e-10 -0.214897)
(6.26654e-10 -6.11588e-10 -0.247512)
(6.4745e-10 -6.49307e-10 -0.257059)
(6.3606e-10 -6.05677e-10 -0.245433)
(6.0295e-10 -5.14632e-10 -0.218234)
(5.57132e-10 -4.01399e-10 -0.181884)
(5.04866e-10 -2.83448e-10 -0.141712)
(4.50351e-10 -1.7189e-10 -0.101225)
(3.96348e-10 -7.16651e-11 -0.0619906)
(3.43956e-10 1.75934e-11 -0.0243099)
(2.92363e-10 9.85256e-11 0.0117041)
(2.40157e-10 1.7245e-10 0.0451089)
(1.89264e-10 2.37768e-10 0.0738624)
(1.48572e-10 2.91212e-10 0.0957085)
(1.32777e-10 3.30691e-10 0.10945)
(1.55265e-10 3.57612e-10 0.115408)
(2.19516e-10 3.77123e-10 0.114736)
(3.1488e-10 3.95841e-10 0.108332)
(4.18714e-10 4.17918e-10 0.0961532)
(5.04329e-10 4.40748e-10 0.0778428)
(5.50611e-10 4.50775e-10 0.0539701)
(5.47234e-10 4.23674e-10 0.0267122)
(4.96379e-10 3.18877e-10 -0.00299355)
(4.10978e-10 1.63035e-10 -0.0235894)
(3.17238e-10 -2.19086e-10 -0.0693637)
(1.93483e-10 -2.61876e-10 -0.0440351)
(-2.18215e-18 -1.01805e-19 -0.0471886)
(-2.69205e-17 -1.02272e-19 -0.0498726)
(-4.84403e-17 1.96807e-19 -0.0524575)
(-7.82966e-17 8.83271e-19 -0.0542765)
(-9.7131e-17 -5.23637e-19 -0.054997)
(-1.48265e-16 6.07178e-18 -0.054556)
(-2.40198e-16 6.72173e-18 -0.0531439)
(1.12045e-17 -2.06652e-17 -0.0511165)
(-8.39913e-17 -6.6832e-18 -0.0489095)
(-9.20936e-16 6.77473e-17 -0.0469273)
(-1.15789e-15 8.19763e-17 -0.0454602)
(-3.66483e-16 -2.59813e-20 -0.0447873)
(5.55575e-16 -8.9526e-17 -0.0450234)
(1.26535e-15 -1.31301e-16 -0.0461248)
(1.329e-15 -9.06859e-17 -0.0480107)
(3.43175e-16 7.04103e-17 -0.0504854)
(-1.62196e-15 2.77354e-16 -0.0532762)
(-3.00642e-15 2.46744e-16 -0.0560462)
(-2.4937e-16 -4.50617e-16 -0.0584367)
(-4.03355e-15 -1.28294e-15 -0.0600972)
(-7.26525e-14 -1.28846e-15 -0.0606319)
(-1.65776e-13 -1.24703e-15 -0.0596471)
(-1.38121e-13 -6.13861e-16 -0.0569664)
(-5.15747e-14 1.08717e-15 -0.0529092)
(-8.28693e-15 1.07498e-15 -0.0482262)
(1.45538e-14 -2.26151e-15 -0.043793)
(-1.02635e-14 6.89228e-15 -0.0404065)
(-1.44548e-13 3.5499e-14 -0.0386474)
(4.69679e-13 -7.277e-14 -0.038808)
(1.79282e-12 -3.24847e-13 -0.0409528)
(-1.00518e-11 7.38362e-13 -0.0450225)
(-3.80153e-11 3.19946e-12 -0.0508565)
(1.26558e-10 -4.81874e-12 -0.058313)
(9.74889e-10 -2.6094e-11 -0.0670596)
(2.39487e-09 -2.30543e-11 -0.074992)
(3.14263e-09 1.32283e-11 -0.0779933)
(2.45053e-09 3.01746e-11 -0.0739649)
(1.1491e-09 1.42721e-11 -0.0651906)
(2.81535e-10 -1.79094e-12 -0.0552515)
(-2.20975e-11 -5.23707e-12 -0.0463695)
(-5.53598e-11 -6.89988e-13 -0.0396712)
(-4.09442e-11 3.00241e-12 -0.0356871)
(2.36974e-11 -1.29533e-11 -0.0347454)
(3.00435e-10 -4.17153e-11 -0.0373958)
(3.58941e-10 9.45663e-11 -0.0436437)
(-2.55397e-09 8.58689e-10 -0.0498841)
(-1.40221e-08 2.55942e-09 -0.0470554)
(-3.73556e-08 4.20871e-09 -0.0278449)
(-6.53986e-08 3.71531e-09 0.000577536)
(-8.18842e-08 5.94005e-10 0.0180693)
(-7.55787e-08 -2.7984e-09 0.0111809)
(-5.15932e-08 -4.07665e-09 -0.0128026)
(-2.52958e-08 -3.21451e-09 -0.0355638)
(-7.57245e-09 -1.62193e-09 -0.0458804)
(1.37311e-10 -4.77598e-10 -0.0446723)
(1.80828e-09 -7.84901e-11 -0.0392577)
(1.45891e-09 6.53724e-11 -0.0357929)
(8.08144e-11 9.89391e-10 -0.0349881)
(-4.85632e-09 3.90078e-09 -0.0317693)
(-1.7317e-08 9.19414e-09 -0.0185609)
(-3.84724e-08 1.52368e-08 0.00892485)
(-6.40441e-08 1.85392e-08 0.0486383)
(-8.71481e-08 1.59526e-08 0.0956402)
(-1.02489e-07 7.0994e-09 0.142362)
(-1.06343e-07 -4.86957e-09 0.173901)
(-9.58699e-08 -1.47821e-08 0.17256)
(-7.24582e-08 -1.87562e-08 0.133668)
(-4.37163e-08 -1.65797e-08 0.0728582)
(-1.89788e-08 -1.09792e-08 0.014581)
(-3.58672e-09 -5.20711e-09 -0.0240211)
(2.59372e-09 -1.10526e-09 -0.0396599)
(2.53195e-09 1.3186e-09 -0.0390262)
(-1.02491e-09 2.95661e-09 -0.0324199)
(-6.42388e-09 4.39461e-09 -0.0292166)
(-1.2251e-08 5.4215e-09 -0.0332109)
(-1.68703e-08 5.47469e-09 -0.0376445)
(-1.92846e-08 4.32316e-09 -0.0273311)
(-1.98707e-08 2.20679e-09 0.00866647)
(-1.96421e-08 -4.33004e-10 0.0651793)
(-1.88575e-08 -3.05339e-09 0.121168)
(-1.68053e-08 -4.98812e-09 0.151547)
(-1.30438e-08 -5.68434e-09 0.14282)
(-8.2677e-09 -5.06668e-09 0.100819)
(-3.80906e-09 -3.64073e-09 0.0454894)
(-6.47706e-10 -2.19381e-09 -0.00262328)
(1.06533e-09 -1.30553e-09 -0.0353626)
(1.75738e-09 -1.07132e-09 -0.0600739)
(1.97789e-09 -1.22285e-09 -0.0897834)
(2.17485e-09 -1.44578e-09 -0.127856)
(2.62853e-09 -1.56548e-09 -0.160991)
(3.35286e-09 -1.52783e-09 -0.168822)
(4.09069e-09 -1.33574e-09 -0.140421)
(4.53287e-09 -1.01002e-09 -0.0812857)
(4.58736e-09 -5.33967e-10 -0.00807795)
(4.39537e-09 1.63046e-10 0.0594512)
(4.0796e-09 1.09362e-09 0.104253)
(3.59168e-09 2.05644e-09 0.116437)
(2.84968e-09 2.63017e-09 0.0964591)
(1.95327e-09 2.41785e-09 0.0535494)
(1.21772e-09 1.37529e-09 -0.00201106)
(9.74746e-10 -1.07976e-10 -0.0660107)
(1.33936e-09 -1.46828e-09 -0.138019)
(2.15538e-09 -2.30848e-09 -0.211337)
(3.13461e-09 -2.53769e-09 -0.268054)
(4.03279e-09 -2.28547e-09 -0.288335)
(4.7193e-09 -1.74769e-09 -0.265026)
(5.13905e-09 -1.09057e-09 -0.208068)
(5.25335e-09 -4.22147e-10 -0.135904)
(5.02993e-09 2.16609e-10 -0.0643521)
(4.47743e-09 8.53291e-10 -0.0025023)
(3.67179e-09 1.53178e-09 0.0443937)
(2.73614e-09 2.18817e-09 0.0714797)
(1.81931e-09 2.57691e-09 0.0737977)
(1.08221e-09 2.40648e-09 0.0474626)
(6.56678e-10 1.6125e-09 -0.00924099)
(5.78016e-10 4.75643e-10 -0.0936687)
(7.55852e-10 -5.63352e-10 -0.194383)
(1.02832e-09 -1.19709e-09 -0.288763)
(1.2572e-09 -1.38019e-09 -0.349547)
(1.38423e-09 -1.24777e-09 -0.358969)
(1.42291e-09 -9.69445e-10 -0.318612)
(1.41702e-09 -6.62943e-10 -0.246755)
(1.40093e-09 -3.82327e-10 -0.166688)
(1.37831e-09 -1.38395e-10 -0.0954417)
(1.32611e-09 8.5977e-11 -0.0394339)
(1.21978e-09 3.30582e-10 0.00252988)
(1.05119e-09 6.33444e-10 0.0336875)
(8.35356e-10 9.76526e-10 0.054645)
(6.13137e-10 1.25547e-09 0.060951)
(4.44243e-10 1.3304e-09 0.0442378)
(3.81096e-10 1.12949e-09 -0.002766)
(4.36718e-10 7.08313e-10 -0.0793643)
(5.75243e-10 2.11769e-10 -0.172766)
(7.33317e-10 -2.16691e-10 -0.261134)
(8.53685e-10 -4.99604e-10 -0.323229)
(9.07136e-10 -6.31109e-10 -0.347786)
(8.95011e-10 -6.45945e-10 -0.336191)
(8.38158e-10 -5.86782e-10 -0.298279)
(7.61569e-10 -4.8738e-10 -0.245834)
(6.82831e-10 -3.70475e-10 -0.187993)
(6.09293e-10 -2.51289e-10 -0.13032)
(5.40945e-10 -1.39529e-10 -0.0751913)
(4.73839e-10 -3.91597e-11 -0.0226933)
(4.01374e-10 5.10813e-11 0.0278527)
(3.16143e-10 1.34206e-10 0.0757958)
(2.15564e-10 2.09932e-10 0.118286)
(1.11038e-10 2.72399e-10 0.151671)
(3.10443e-11 3.13548e-10 0.174464)
(9.92261e-12 3.30058e-10 0.188716)
(6.83744e-11 3.2805e-10 0.197902)
(2.01192e-10 3.21554e-10 0.203446)
(3.80131e-10 3.2607e-10 0.203376)
(5.6583e-10 3.50804e-10 0.193883)
(7.19406e-10 3.92416e-10 0.172066)
(8.10948e-10 4.31894e-10 0.137921)
(8.25258e-10 4.37103e-10 0.0951679)
(7.64916e-10 3.5969e-10 0.0459962)
(6.485e-10 2.183e-10 0.0100056)
(5.1691e-10 -1.511e-10 -0.0690801)
(3.35514e-10 -2.22964e-10 -0.0349998)
(-7.7982e-17 7.66941e-18 -0.0655979)
(-2.28577e-16 1.22087e-17 -0.0694111)
(-1.94482e-16 1.58058e-17 -0.0730828)
(-2.59444e-16 1.3182e-17 -0.0756664)
(-1.77338e-16 2.18025e-17 -0.076688)
(-6.48551e-16 6.08772e-17 -0.0760542)
(2.65178e-16 -9.40485e-17 -0.0740315)
(5.19423e-16 -7.87381e-17 -0.0711205)
(-3.55683e-15 2.20943e-15 -0.0679437)
(-2.5766e-15 5.27499e-16 -0.0650734)
(6.47175e-15 -2.03892e-15 -0.0629109)
(1.38462e-14 2.59253e-15 -0.0618915)
(1.37448e-14 -8.23184e-16 -0.0621478)
(9.74987e-15 -4.01017e-16 -0.0636276)
(1.8489e-15 4.46903e-16 -0.0662719)
(-9.55105e-15 1.47959e-15 -0.0698358)
(-2.05236e-14 1.71924e-15 -0.0739523)
(-1.69593e-14 -6.08584e-16 -0.0781249)
(2.12725e-15 5.29272e-16 -0.0817662)
(-1.22419e-13 3.59429e-14 -0.084339)
(-3.60096e-13 8.03344e-14 -0.0853213)
(-4.26574e-13 3.23812e-14 -0.0841164)
(-5.22657e-13 -5.6993e-14 -0.0803286)
(-4.26468e-13 -6.45485e-14 -0.0742952)
(-1.94775e-13 -3.27293e-14 -0.0670514)
(-1.47204e-14 4.57625e-16 -0.0598947)
(-3.42584e-13 7.93146e-14 -0.0541171)
(-2.57721e-13 -2.29525e-13 -0.0508385)
(5.29661e-12 -9.59785e-13 -0.0508039)
(7.37963e-13 5.11511e-12 -0.0542679)
(-7.93736e-11 1.95574e-11 -0.0609896)
(-9.11735e-11 -6.67018e-11 -0.0706561)
(9.03645e-10 -4.9639e-10 -0.0840346)
(3.9293e-09 -1.1125e-09 -0.101837)
(8.13386e-09 -1.06348e-09 -0.119896)
(1.08444e-08 -2.73544e-11 -0.12878)
(9.72527e-09 9.77947e-10 -0.121885)
(5.66178e-09 1.0639e-09 -0.103054)
(1.98479e-09 5.74138e-10 -0.0819398)
(1.70677e-10 1.64642e-10 -0.0641279)
(-2.91561e-10 9.10894e-12 -0.051164)
(-2.29613e-10 -3.75802e-11 -0.0435234)
(2.02486e-10 -1.66111e-10 -0.0421637)
(1.11122e-09 -1.66362e-10 -0.0481011)
(-1.33537e-10 1.39884e-09 -0.0576388)
(-1.2612e-08 7.07716e-09 -0.0552508)
(-4.81654e-08 1.71621e-08 -0.0178355)
(-1.07038e-07 2.53718e-08 0.0613496)
(-1.70162e-07 2.20087e-08 0.156463)
(-2.09265e-07 5.04588e-09 0.221468)
(-2.03297e-07 -1.49421e-08 0.218582)
(-1.53594e-07 -2.48331e-08 0.148269)
(-8.67461e-08 -2.17572e-08 0.0533498)
(-3.27682e-08 -1.25583e-08 -0.0186117)
(-3.9527e-09 -4.6212e-09 -0.0499364)
(5.00408e-09 -6.78367e-10 -0.0525792)
(4.5747e-09 8.27585e-10 -0.0462917)
(-1.37822e-10 3.3912e-09 -0.04024)
(-1.10329e-08 9.84544e-09 -0.0316101)
(-3.06195e-08 1.97279e-08 -0.0168214)
(-5.46711e-08 2.85213e-08 0.00153211)
(-7.38233e-08 3.0959e-08 0.0248585)
(-8.36129e-08 2.50971e-08 0.0682947)
(-8.87726e-08 1.21859e-08 0.142554)
(-9.48204e-08 -5.16872e-09 0.227943)
(-9.79568e-08 -2.22802e-08 0.279063)
(-8.83704e-08 -3.26281e-08 0.26094)
(-6.39367e-08 -3.23838e-08 0.180811)
(-3.4041e-08 -2.3722e-08 0.0802422)
(-1.03269e-08 -1.24763e-08 0.000993951)
(1.74394e-09 -3.36995e-09 -0.0394589)
(3.39006e-09 2.35201e-09 -0.0501449)
(-1.39428e-09 5.7121e-09 -0.0552548)
(-8.48558e-09 7.61411e-09 -0.0773224)
(-1.41919e-08 7.95422e-09 -0.118214)
(-1.60009e-08 6.57579e-09 -0.150961)
(-1.38641e-08 4.16044e-09 -0.139111)
(-1.02093e-08 1.67631e-09 -0.0688951)
(-8.10287e-09 -6.34609e-10 0.0394823)
(-8.80426e-09 -3.1283e-09 0.146587)
(-1.07353e-08 -5.68262e-09 0.214237)
(-1.12069e-08 -7.35625e-09 0.221473)
(-9.04362e-09 -7.31726e-09 0.173365)
(-5.22524e-09 -5.73712e-09 0.0966061)
(-1.55705e-09 -3.63765e-09 0.0209282)
(8.14932e-10 -2.03509e-09 -0.0417006)
(1.8313e-09 -1.31743e-09 -0.101646)
(2.14836e-09 -1.30629e-09 -0.17268)
(2.57827e-09 -1.63858e-09 -0.246546)
(3.58423e-09 -1.97635e-09 -0.290195)
(5.04912e-09 -2.04806e-09 -0.272968)
(6.43109e-09 -1.7308e-09 -0.193826)
(7.13564e-09 -1.11505e-09 -0.0805571)
(6.90407e-09 -3.80449e-10 0.0322722)
(5.99412e-09 4.24846e-10 0.12056)
(4.89906e-09 1.37597e-09 0.17191)
(3.8924e-09 2.38504e-09 0.181187)
(2.95672e-09 3.03228e-09 0.15045)
(2.07136e-09 2.81626e-09 0.0880281)
(1.41859e-09 1.6146e-09 0.00225494)
(1.24311e-09 -1.37572e-10 -0.10304)
(1.58926e-09 -1.7466e-09 -0.220947)
(2.2517e-09 -2.71507e-09 -0.328384)
(2.95575e-09 -2.94565e-09 -0.38853)
(3.54252e-09 -2.62463e-09 -0.374489)
(3.99762e-09 -1.99883e-09 -0.290705)
(4.35683e-09 -1.24391e-09 -0.17044)
(4.60474e-09 -4.51627e-10 -0.0533685)
(4.6512e-09 3.41827e-10 0.0360931)
(4.39359e-09 1.13966e-09 0.0939102)
(3.79922e-09 1.94597e-09 0.125934)
(2.94308e-09 2.66076e-09 0.136045)
(2.00331e-09 3.01464e-09 0.120924)
(1.21525e-09 2.71758e-09 0.0721667)
(7.66854e-10 1.74751e-09 -0.0173406)
(6.85761e-10 4.56412e-10 -0.144102)
(8.30621e-10 -6.59407e-10 -0.284844)
(1.00642e-09 -1.28835e-09 -0.397638)
(1.08886e-09 -1.42341e-09 -0.440726)
(1.05989e-09 -1.2442e-09 -0.397518)
(9.67849e-10 -9.45091e-10 -0.286093)
(8.76309e-10 -6.45178e-10 -0.147062)
(8.32679e-10 -3.83858e-10 -0.021503)
(8.51376e-10 -1.51493e-10 0.0663268)
(9.06416e-10 8.32027e-11 0.113705)
(9.41195e-10 3.5992e-10 0.132008)
(9.01005e-10 7.03193e-10 0.135288)
(7.69457e-10 1.07437e-09 0.130367)
(5.89395e-10 1.35013e-09 0.112394)
(4.4896e-10 1.385e-09 0.0683538)
(4.28634e-10 1.12229e-09 -0.0119902)
(5.46481e-10 6.45958e-10 -0.123422)
(7.48944e-10 1.2434e-10 -0.240815)
(9.49414e-10 -2.93591e-10 -0.329565)
(1.07761e-09 -5.41731e-10 -0.364652)
(1.10504e-09 -6.32251e-10 -0.342964)
(1.04277e-09 -6.14818e-10 -0.280716)
(9.25133e-10 -5.38956e-10 -0.201089)
(7.91032e-10 -4.36968e-10 -0.122419)
(6.68654e-10 -3.25261e-10 -0.0534175)
(5.69014e-10 -2.12504e-10 0.00500212)
(4.88026e-10 -1.04164e-10 0.0563375)
(4.11269e-10 -1.87943e-12 0.104972)
(3.18426e-10 9.64394e-11 0.15303)
(1.92302e-10 1.91431e-10 0.197928)
(3.63017e-11 2.75002e-10 0.23401)
(-1.11789e-10 3.30025e-10 0.258741)
(-1.91268e-10 3.41769e-10 0.277372)
(-1.54433e-10 3.12028e-10 0.299691)
(3.22137e-12 2.61977e-10 0.33092)
(2.43078e-10 2.21245e-10 0.365697)
(5.07961e-10 2.13522e-10 0.390591)
(7.48193e-10 2.48281e-10 0.392364)
(9.30796e-10 3.18188e-10 0.364665)
(1.0346e-09 3.97849e-10 0.309275)
(1.04952e-09 4.4669e-10 0.235683)
(9.79169e-10 4.07256e-10 0.151196)
(8.41849e-10 2.87038e-10 0.0864276)
(6.86185e-10 -6.25931e-11 -0.036672)
(4.61638e-10 -1.71178e-10 -0.00342999)
(6.40003e-17 1.8879e-15 -0.0834827)
(2.66333e-16 1.79287e-15 -0.0884775)
(2.02768e-16 1.563e-17 -0.0932836)
(5.11588e-16 1.72703e-15 -0.0966621)
(1.99931e-16 1.92875e-15 -0.0979905)
(-1.28537e-16 1.51954e-15 -0.0971427)
(6.14982e-15 -5.77265e-16 -0.0944641)
(-1.28671e-14 1.91744e-15 -0.0906054)
(-1.08515e-14 1.54133e-15 -0.0863906)
(5.10438e-14 -6.72192e-15 -0.0825607)
(7.02539e-14 -8.12263e-15 -0.0796105)
(2.69373e-14 -3.62301e-15 -0.0781689)
(-1.87505e-14 1.95184e-15 -0.0784316)
(-6.30736e-14 5.81666e-15 -0.080291)
(-1.05309e-13 9.55977e-15 -0.0837003)
(-1.39999e-13 1.29914e-14 -0.0883342)
(-1.36498e-13 5.71619e-15 -0.0937078)
(-3.78429e-14 -1.10787e-14 -0.0991935)
(-1.70864e-13 5.40138e-14 -0.104102)
(-1.37522e-13 1.81563e-13 -0.107721)
(7.22944e-12 1.50789e-13 -0.109259)
(1.90458e-11 8.00336e-14 -0.107878)
(1.65868e-11 -6.67118e-16 -0.102988)
(5.19023e-12 -1.62854e-13 -0.0950411)
(-2.36061e-13 -2.04799e-13 -0.0854717)
(-1.1168e-12 6.99086e-14 -0.0759378)
(-1.93491e-12 1.28393e-13 -0.0680925)
(3.4957e-12 -2.7841e-12 -0.0635044)
(1.40164e-11 -5.70612e-13 -0.0632915)
(-5.15165e-11 4.20102e-11 -0.067777)
(-1.28302e-10 4.66924e-11 -0.0768755)
(4.76614e-10 -4.88312e-10 -0.0911718)
(1.09955e-09 -2.01505e-09 -0.109503)
(-3.65441e-09 -3.6412e-09 -0.12325)
(-1.47675e-08 -3.4806e-09 -0.126902)
(-1.98632e-08 -7.82479e-10 -0.130016)
(-1.19647e-08 2.62148e-09 -0.135266)
(-1.60181e-09 3.88451e-09 -0.129614)
(2.38907e-09 2.74376e-09 -0.109853)
(1.57847e-09 1.13294e-09 -0.0850758)
(4.35666e-11 1.99453e-10 -0.0643862)
(-3.70881e-10 -2.44023e-10 -0.0524731)
(7.57501e-10 -6.83372e-10 -0.0516062)
(2.03292e-09 1.26294e-10 -0.0605326)
(-5.01724e-09 6.95619e-09 -0.0651341)
(-3.6423e-08 2.48746e-08 -0.0360569)
(-9.91392e-08 4.97726e-08 0.0470894)
(-1.7517e-07 6.52073e-08 0.171287)
(-2.39059e-07 5.48286e-08 0.309253)
(-2.80392e-07 1.71611e-08 0.431905)
(-2.91135e-07 -3.0634e-08 0.487654)
(-2.54812e-07 -6.2352e-08 0.426084)
(-1.73984e-07 -6.36273e-08 0.265377)
(-8.42517e-08 -4.30186e-08 0.0913392)
(-2.13448e-08 -1.93637e-08 -0.0225983)
(6.01899e-09 -4.34219e-09 -0.0645611)
(9.26978e-09 2.63632e-09 -0.0635787)
(-1.74251e-10 8.79317e-09 -0.0487028)
(-1.8357e-08 1.91416e-08 -0.0375691)
(-4.08399e-08 3.10132e-08 -0.0467909)
(-5.65087e-08 3.68387e-08 -0.0825245)
(-5.56948e-08 3.30101e-08 -0.111463)
(-4.13435e-08 2.34273e-08 -0.0740448)
(-2.79604e-08 1.27031e-08 0.0534997)
(-3.00168e-08 -2.77479e-10 0.227057)
(-4.82305e-08 -1.80071e-08 0.364624)
(-6.58951e-08 -3.57662e-08 0.399398)
(-6.51275e-08 -4.37444e-08 0.321697)
(-4.5137e-08 -3.7784e-08 0.182273)
(-1.96572e-08 -2.30996e-08 0.0513155)
(-2.23015e-09 -7.96376e-09 -0.0296559)
(2.59906e-09 2.88772e-09 -0.0679784)
(-1.81627e-09 8.89442e-09 -0.104896)
(-8.86218e-09 1.07934e-08 -0.17449)
(-1.26302e-08 9.17916e-09 -0.262156)
(-1.06233e-08 5.31078e-09 -0.30576)
(-4.25795e-09 1.42736e-09 -0.250939)
(2.877e-09 -6.73825e-10 -0.102179)
(7.06902e-09 -1.13552e-09 0.0834054)
(6.15673e-09 -1.73719e-09 0.240642)
(1.08441e-09 -3.78677e-09 0.328054)
(-4.39723e-09 -6.53016e-09 0.332218)
(-6.79695e-09 -8.05754e-09 0.265124)
(-5.53737e-09 -7.38402e-09 0.159157)
(-2.52203e-09 -5.2139e-09 0.0482024)
(1.14202e-10 -2.9997e-09 -0.0561496)
(1.58004e-09 -1.73804e-09 -0.166389)
(2.41991e-09 -1.59633e-09 -0.288143)
(3.51148e-09 -2.16371e-09 -0.389168)
(5.16897e-09 -2.8009e-09 -0.412591)
(7.08962e-09 -2.95126e-09 -0.326899)
(8.76747e-09 -2.379e-09 -0.156787)
(9.70947e-09 -1.24651e-09 0.0343992)
(9.52676e-09 3.67917e-11 0.187608)
(8.21563e-09 1.16555e-09 0.276326)
(6.29991e-09 2.14449e-09 0.302701)
(4.43667e-09 3.0276e-09 0.278867)
(2.96213e-09 3.54068e-09 0.215901)
(1.93076e-09 3.18692e-09 0.120752)
(1.37729e-09 1.78942e-09 -0.00465564)
(1.33809e-09 -1.93307e-10 -0.158374)
(1.69996e-09 -1.97258e-09 -0.321844)
(2.20341e-09 -2.99173e-09 -0.448141)
(2.62235e-09 -3.1831e-09 -0.480793)
(2.8985e-09 -2.8064e-09 -0.394439)
(3.11002e-09 -2.15484e-09 -0.216485)
(3.35276e-09 -1.39414e-09 -0.0111096)
(3.64078e-09 -5.69334e-10 0.157487)
(3.87252e-09 3.22185e-10 0.255438)
(3.8781e-09 1.27928e-09 0.28577)
(3.52511e-09 2.25704e-09 0.271895)
(2.82032e-09 3.08612e-09 0.234861)
(1.94533e-09 3.44083e-09 0.178695)
(1.18846e-09 3.02471e-09 0.0914394)
(7.7568e-10 1.87725e-09 -0.0405072)
(7.21669e-10 4.43761e-10 -0.211417)
(8.52287e-10 -7.23682e-10 -0.381637)
(9.66817e-10 -1.32621e-09 -0.487494)
(9.66247e-10 -1.40693e-09 -0.477709)
(8.60989e-10 -1.18727e-09 -0.347102)
(7.09765e-10 -8.77653e-10 -0.138877)
(5.69154e-10 -5.95358e-10 0.0808693)
(4.79521e-10 -3.69861e-10 0.2541)
(4.65252e-10 -1.75263e-10 0.350884)
(5.22537e-10 4.10676e-11 0.373272)
(6.02718e-10 3.3329e-10 0.345016)
(6.32653e-10 7.19313e-10 0.294792)
(5.69076e-10 1.13233e-09 0.239386)
(4.46369e-10 1.41572e-09 0.175657)
(3.65916e-10 1.41078e-09 0.0871162)
(4.2031e-10 1.08073e-09 -0.0364779)
(6.19292e-10 5.48158e-10 -0.179495)
(8.86048e-10 1.03025e-11 -0.299423)
(1.11597e-09 -3.81024e-10 -0.350889)
(1.23775e-09 -5.77417e-10 -0.3151)
(1.23402e-09 -6.13689e-10 -0.209388)
(1.12823e-09 -5.55991e-10 -0.0729195)
(9.62628e-10 -4.60912e-10 0.0559561)
(7.81111e-10 -3.5914e-10 0.154954)
(6.17239e-10 -2.59466e-10 0.21995)
(4.86669e-10 -1.60973e-10 0.259284)
(3.83941e-10 -6.06569e-11 0.286093)
(2.83933e-10 4.56404e-11 0.310822)
(1.51745e-10 1.60565e-10 0.335995)
(-3.10603e-11 2.75268e-10 0.35615)
(-2.32629e-10 3.6198e-10 0.366484)
(-3.68977e-10 3.86184e-10 0.374821)
(-3.55165e-10 3.3487e-10 0.401161)
(-1.66227e-10 2.32813e-10 0.461839)
(1.49428e-10 1.29295e-10 0.553649)
(5.05879e-10 6.91879e-11 0.652391)