/*--------------------------------*- C++ -*----------------------------------*\
  =========                 |
  \\      /  F ield         | OpenFOAM: The Open Source CFD Toolbox
   \\    /   O peration     | Website:  https://openfoam.org
    \\  /    A nd           | Version:  11
     \\/     M anipulation  |
\*---------------------------------------------------------------------------*/
FoamFile
{
    format      ascii;
    class       volScalarField;
    location    "3.883323";
    object      p;
}
// * * * * * * * * * * * * * * * * * * * * * * * * * * * * * * * * * * * * * //

dimensions      [0 2 -2 0 0 0 0];

internalField   nonuniform List<scalar> 
7132
(
0.0506558
0.0491999
0.044288
0.0370914
0.0269982
0.0136693
-0.00303624
-0.0232029
-0.0464247
-0.0718864
-0.0983312
-0.124022
-0.14796
-0.169181
-0.186927
-0.20068
-0.210007
-0.214604
-0.214331
-0.209282
-0.19985
-0.186736
-0.170894
-0.153407
-0.135334
-0.117586
-0.100855
-0.0855923
-0.0720331
-0.0602427
-0.0501647
-0.0416673
-0.0345788
-0.0287135
-0.0238891
-0.019937
-0.0167067
-0.0140683
-0.0119118
-0.0101454
-0.00869386
-0.00749575
-0.00650148
-0.0056712
-0.00497308
-0.00438173
-0.00387696
-0.00344271
-0.00306625
-0.00273743
-0.0024482
-0.0021921
-0.00196401
-0.0017598
-0.00157616
-0.00141043
-0.00126043
-0.00112442
-0.00100096
-0.000888878
-0.000787191
-0.000695047
-0.000611652
-0.000536192
-0.000467782
-0.000405464
-0.000348292
-0.000295515
-0.000246791
-0.000202297
-0.000162629
-0.000128449
-0.000100081
-7.72817e-05
-5.93236e-05
-4.53031e-05
-3.44233e-05
-2.60897e-05
-1.98424e-05
-1.52512e-05
-1.18854e-05
-9.35633e-06
-7.37394e-06
-5.76376e-06
-4.44157e-06
-3.37006e-06
-2.5244e-06
-1.87596e-06
-1.39069e-06
-1.03362e-06
-7.73378e-07
-5.84313e-07
-4.46705e-07
-3.45992e-07
-2.71699e-07
-2.16446e-07
-1.75069e-07
-1.43948e-07
-1.20482e-07
-1.02763e-07
-8.93429e-08
-7.91182e-08
-7.12477e-08
-6.50989e-08
-6.02114e-08
-5.62474e-08
-5.29722e-08
-5.02077e-08
-4.78351e-08
-4.57539e-08
-4.39035e-08
-4.22223e-08
-4.06828e-08
-3.92441e-08
-3.78984e-08
-3.66151e-08
-3.53982e-08
-3.42216e-08
-3.30963e-08
-3.19977e-08
-3.09419e-08
-2.99037e-08
-2.89031e-08
-2.7914e-08
-2.69593e-08
-2.60113e-08
-2.50957e-08
-2.41829e-08
-2.33011e-08
-2.24189e-08
-2.15667e-08
-2.07112e-08
-1.98849e-08
-1.90528e-08
-1.82493e-08
-1.74378e-08
-1.66544e-08
-1.58608e-08
-1.5095e-08
-1.43171e-08
-1.35666e-08
-1.28024e-08
-1.20652e-08
-1.13127e-08
-1.05871e-08
-9.84447e-09
-9.12888e-09
-8.39439e-09
-7.68784e-09
-6.95914e-09
-6.26172e-09
-5.53459e-09
-4.84946e-09
-4.11411e-09
-3.45341e-09
-2.68532e-09
-2.08294e-09
-1.22453e-09
-7.43493e-10
2.67209e-10
0.0512364
0.0497929
0.0449248
0.0377752
0.0277223
0.0143998
-0.00235764
-0.0226723
-0.0461369
-0.0719316
-0.0987267
-0.12467
-0.148802
-0.17016
-0.187999
-0.20182
-0.211193
-0.215807
-0.215509
-0.21038
-0.200806
-0.187498
-0.171429
-0.153709
-0.135422
-0.117501
-0.100642
-0.0852972
-0.0716966
-0.0598962
-0.0498303
-0.041359
-0.0343038
-0.0284745
-0.0236856
-0.0197662
-0.0165652
-0.0139521
-0.0118171
-0.0100686
-0.00863182
-0.00744571
-0.00646114
-0.00563867
-0.00494679
-0.00436042
-0.00385961
-0.00342851
-0.00305456
-0.00272774
-0.0024401
-0.00218528
-0.0019582
-0.00175481
-0.00157182
-0.00140661
-0.00125704
-0.00112138
-0.000998196
-0.000886345
-0.000784856
-0.000692891
-0.000609668
-0.000534381
-0.000466146
-0.000403998
-0.000346979
-0.000294325
-0.000245685
-0.000201243
-0.000161609
-0.000127467
-9.91596e-05
-7.64474e-05
-5.85956e-05
-4.46845e-05
-3.39032e-05
-2.56512e-05
-1.94708e-05
-1.49382e-05
-1.16272e-05
-9.15043e-06
-7.21629e-06
-5.64806e-06
-4.36016e-06
-3.31507e-06
-2.48863e-06
-1.85328e-06
-1.37623e-06
-1.02388e-06
-7.66137e-07
-5.78384e-07
-4.41611e-07
-3.41631e-07
-2.68095e-07
-2.13612e-07
-1.72953e-07
-1.42437e-07
-1.19437e-07
-1.02047e-07
-8.88448e-08
-7.87599e-08
-7.09808e-08
-6.4896e-08
-6.00571e-08
-5.61314e-08
-5.28866e-08
-5.01452e-08
-4.77899e-08
-4.57206e-08
-4.3879e-08
-4.22037e-08
-4.06689e-08
-3.92332e-08
-3.78903e-08
-3.66086e-08
-3.53935e-08
-3.42175e-08
-3.30934e-08
-3.19949e-08
-3.094e-08
-2.99017e-08
-2.89019e-08
-2.79124e-08
-2.69585e-08
-2.60101e-08
-2.50951e-08
-2.41819e-08
-2.33007e-08
-2.2418e-08
-2.15665e-08
-2.07104e-08
-1.98848e-08
-1.90521e-08
-1.82494e-08
-1.74372e-08
-1.66545e-08
-1.58602e-08
-1.50952e-08
-1.43166e-08
-1.35669e-08
-1.28019e-08
-1.20656e-08
-1.13123e-08
-1.05875e-08
-9.84408e-09
-9.12938e-09
-8.39404e-09
-7.6884e-09
-6.95883e-09
-6.26238e-09
-5.53431e-09
-4.85032e-09
-4.11369e-09
-3.45494e-09
-2.684e-09
-2.0878e-09
-1.21803e-09
-7.66792e-10
3.09221e-10
0.052392
0.0509749
0.0461962
0.0391454
0.0291785
0.0158752
-0.000980558
-0.021591
-0.0455474
-0.0720261
-0.0995384
-0.125987
-0.150506
-0.172134
-0.190155
-0.204111
-0.213578
-0.218232
-0.217891
-0.212606
-0.20275
-0.189049
-0.172517
-0.154321
-0.135601
-0.117325
-0.100208
-0.0846994
-0.0710168
-0.0591977
-0.0491576
-0.0407397
-0.0337525
-0.0279959
-0.0232782
-0.0194248
-0.0162825
-0.0137202
-0.0116281
-0.00991547
-0.00850811
-0.00734597
-0.00638077
-0.00557386
-0.00489442
-0.00431797
-0.00382506
-0.00340026
-0.0030313
-0.00270847
-0.002424
-0.00217171
-0.00194666
-0.0017449
-0.00156322
-0.00139906
-0.00125034
-0.00111536
-0.000992742
-0.000881356
-0.000780267
-0.000688668
-0.000605805
-0.000530891
-0.000463046
-0.000401288
-0.000344624
-0.000292251
-0.000243789
-0.000199421
-0.000159789
-0.000125631
-9.7345e-05
-7.47228e-05
-5.7031e-05
-4.33269e-05
-3.27685e-05
-2.47301e-05
-1.87409e-05
-1.43723e-05
-1.11973e-05
-8.82873e-06
-6.9761e-06
-5.4666e-06
-4.22054e-06
-3.2064e-06
-2.40435e-06
-1.78902e-06
-1.32831e-06
-9.88805e-07
-7.40687e-07
-5.59878e-07
-4.27998e-07
-3.31463e-07
-2.60404e-07
-2.07766e-07
-1.68529e-07
-1.3913e-07
-1.17002e-07
-1.00278e-07
-8.757e-08
-7.78417e-08
-7.03156e-08
-6.44097e-08
-5.9699e-08
-5.58667e-08
-5.26911e-08
-5.00011e-08
-4.76841e-08
-4.56429e-08
-4.38221e-08
-4.21615e-08
-4.06377e-08
-3.92098e-08
-3.78729e-08
-3.65953e-08
-3.53834e-08
-3.42096e-08
-3.30874e-08
-3.19901e-08
-3.09362e-08
-2.98984e-08
-2.88994e-08
-2.79102e-08
-2.69567e-08
-2.60083e-08
-2.50938e-08
-2.41805e-08
-2.32997e-08
-2.24168e-08
-2.15655e-08
-2.07093e-08
-1.9884e-08
-1.90512e-08
-1.82487e-08
-1.74363e-08
-1.66539e-08
-1.58595e-08
-1.50947e-08
-1.43159e-08
-1.35665e-08
-1.28012e-08
-1.20652e-08
-1.13117e-08
-1.05872e-08
-9.84353e-09
-9.12911e-09
-8.39354e-09
-7.68821e-09
-6.95839e-09
-6.26232e-09
-5.53386e-09
-4.8506e-09
-4.11296e-09
-3.45652e-09
-2.68163e-09
-2.09559e-09
-1.2061e-09
-8.07192e-10
3.81703e-10
0.0541127
0.0527373
0.0480994
0.0412073
0.0313833
0.0181248
0.00113474
-0.0199197
-0.0446305
-0.072183
-0.100814
-0.12802
-0.153114
-0.175139
-0.193425
-0.207583
-0.217194
-0.221911
-0.221507
-0.215984
-0.205696
-0.19139
-0.174149
-0.155226
-0.135846
-0.117034
-0.0995289
-0.0837781
-0.0699773
-0.0581353
-0.0481387
-0.0398049
-0.0329226
-0.0272773
-0.0226679
-0.0189142
-0.0158603
-0.0133743
-0.0113466
-0.0096875
-0.00832408
-0.00719767
-0.0062613
-0.00547753
-0.00481658
-0.00425487
-0.00377369
-0.00335821
-0.00299668
-0.00267975
-0.00239999
-0.00215147
-0.00192943
-0.00173008
-0.00155034
-0.00138775
-0.00124028
-0.00110632
-0.000984535
-0.000873834
-0.00077333
-0.000682263
-0.000599917
-0.000525535
-0.000458242
-0.000397033
-0.000340871
-0.000288896
-0.000240689
-0.000196435
-0.00015682
-0.000122662
-9.44363e-05
-7.19795e-05
-5.45579e-05
-4.11935e-05
-3.09979e-05
-2.3307e-05
-1.76287e-05
-1.35255e-05
-1.05675e-05
-8.36723e-06
-6.6376e-06
-5.21342e-06
-4.02577e-06
-3.05343e-06
-2.28383e-06
-1.69515e-06
-1.25638e-06
-9.34393e-07
-6.9979e-07
-5.29178e-07
-4.04937e-07
-3.1414e-07
-2.47422e-07
-1.98086e-07
-1.61362e-07
-1.33864e-07
-1.13157e-07
-9.74808e-08
-8.55359e-08
-7.63585e-08
-6.92304e-08
-6.36132e-08
-5.91138e-08
-5.54368e-08
-5.23761e-08
-4.97705e-08
-4.75158e-08
-4.55197e-08
-4.37321e-08
-4.20955e-08
-4.05895e-08
-3.91742e-08
-3.78469e-08
-3.6576e-08
-3.53695e-08
-3.41991e-08
-3.308e-08
-3.19843e-08
-3.09322e-08
-2.98952e-08
-2.88973e-08
-2.79083e-08
-2.69557e-08
-2.60072e-08
-2.50933e-08
-2.41798e-08
-2.32995e-08
-2.24164e-08
-2.15656e-08
-2.0709e-08
-1.98842e-08
-1.90509e-08
-1.8249e-08
-1.74361e-08
-1.66542e-08
-1.58593e-08
-1.5095e-08
-1.43158e-08
-1.35669e-08
-1.28011e-08
-1.20656e-08
-1.13116e-08
-1.05876e-08
-9.84347e-09
-9.12962e-09
-8.3935e-09
-7.68878e-09
-6.95835e-09
-6.26302e-09
-5.53378e-09
-4.85173e-09
-4.11247e-09
-3.45939e-09
-2.67888e-09
-2.10637e-09
-1.1908e-09
-8.57682e-10
4.71045e-10
0.0563817
0.0550658
0.0506282
0.0439673
0.0343608
0.0211933
0.00405129
-0.0175935
-0.043341
-0.0724215
-0.10263
-0.13084
-0.156691
-0.179224
-0.197844
-0.212267
-0.22208
-0.226905
-0.226442
-0.220616
-0.209746
-0.194609
-0.176382
-0.15645
-0.136158
-0.116611
-0.0985813
-0.0825083
-0.068556
-0.056692
-0.0467615
-0.038547
-0.0318099
-0.0263169
-0.0218544
-0.0182352
-0.0152999
-0.0129158
-0.010974
-0.00938605
-0.00808093
-0.00700184
-0.00610361
-0.00535041
-0.00471389
-0.00417162
-0.00370591
-0.00330273
-0.00295097
-0.00264183
-0.00236828
-0.00212472
-0.00190665
-0.00171048
-0.0015333
-0.00137277
-0.00122696
-0.00109435
-0.000973645
-0.000863841
-0.0007641
-0.000673719
-0.000592036
-0.000518332
-0.000451742
-0.000391235
-0.00033572
-0.000284265
-0.000236405
-0.00019232
-0.000152756
-0.000118627
-9.05043e-05
-6.82849e-05
-5.12354e-05
-3.83347e-05
-2.86359e-05
-2.14249e-05
-1.61788e-05
-1.24438e-05
-9.78218e-06
-7.80469e-06
-6.22971e-06
-4.90591e-06
-3.7827e-06
-2.85551e-06
-2.12254e-06
-1.5663e-06
-1.15615e-06
-8.58225e-07
-6.4283e-07
-4.86961e-07
-3.73759e-07
-2.91118e-07
-2.30394e-07
-1.85473e-07
-1.52023e-07
-1.26966e-07
-1.08084e-07
-9.3764e-08
-8.28215e-08
-7.43785e-08
-6.77854e-08
-6.25568e-08
-5.83402e-08
-5.48696e-08
-5.19603e-08
-4.94657e-08
-4.72926e-08
-4.53562e-08
-4.36125e-08
-4.20077e-08
-4.05252e-08
-3.91269e-08
-3.78122e-08
-3.65503e-08
-3.53507e-08
-3.4185e-08
-3.30697e-08
-3.19765e-08
-3.09266e-08
-2.98908e-08
-2.88942e-08
-2.79057e-08
-2.69539e-08
-2.60056e-08
-2.50923e-08
-2.41787e-08
-2.3299e-08
-2.24156e-08
-2.15653e-08
-2.07084e-08
-1.9884e-08
-1.90505e-08
-1.82489e-08
-1.74357e-08
-1.66542e-08
-1.5859e-08
-1.50951e-08
-1.43154e-08
-1.3567e-08
-1.28008e-08
-1.20658e-08
-1.13113e-08
-1.05878e-08
-9.84323e-09
-9.12981e-09
-8.39328e-09
-7.68903e-09
-6.95815e-09
-6.26344e-09
-5.53352e-09
-4.85267e-09
-4.11172e-09
-3.46233e-09
-2.67552e-09
-2.11799e-09
-1.17376e-09
-9.09455e-10
5.62397e-10
0.0591756
0.0579403
0.0537731
0.0474328
0.0381422
0.0251416
0.00785706
-0.0145193
-0.041614
-0.0727766
-0.105102
-0.134552
-0.161325
-0.184461
-0.203474
-0.218222
-0.228296
-0.233271
-0.232746
-0.22654
-0.214921
-0.198707
-0.179198
-0.157956
-0.136488
-0.116004
-0.0973158
-0.080848
-0.0667204
-0.0548443
-0.0450109
-0.0369574
-0.0304109
-0.0251145
-0.0208397
-0.0173908
-0.0146049
-0.0123485
-0.0105137
-0.00901423
-0.00778135
-0.00676076
-0.00590958
-0.00519403
-0.00458754
-0.00406917
-0.00362245
-0.00323436
-0.00289461
-0.00259502
-0.0023291
-0.00209162
-0.00187844
-0.00168618
-0.00151215
-0.00135414
-0.00121038
-0.00107941
-0.000960039
-0.000851327
-0.000752505
-0.000662938
-0.000582028
-0.0005091
-0.000443308
-0.000383599
-0.000328824
-0.000277983
-0.000230557
-0.000186726
-0.000147296
-0.000113292
-8.53874e-05
-6.3539e-05
-4.70092e-05
-3.47249e-05
-2.5672e-05
-1.90803e-05
-1.43912e-05
-1.11298e-05
-8.84595e-06
-7.14672e-06
-5.75846e-06
-4.5503e-06
-3.49791e-06
-2.61972e-06
-1.92783e-06
-1.40946e-06
-1.03348e-06
-7.64526e-07
-5.72335e-07
-4.34384e-07
-3.34737e-07
-2.62234e-07
-2.09046e-07
-1.69712e-07
-1.40406e-07
-1.18423e-07
-1.01818e-07
-8.91782e-08
-7.94691e-08
-7.19281e-08
-6.59932e-08
-6.12448e-08
-5.73794e-08
-5.41658e-08
-5.14451e-08
-4.90886e-08
-4.70169e-08
-4.51545e-08
-4.34651e-08
-4.18998e-08
-4.04465e-08
-3.90691e-08
-3.77702e-08
-3.65194e-08
-3.53284e-08
-3.41686e-08
-3.3058e-08
-3.19677e-08
-3.09205e-08
-2.98862e-08
-2.88912e-08
-2.79034e-08
-2.69525e-08
-2.60045e-08
-2.50918e-08
-2.41782e-08
-2.3299e-08
-2.24154e-08
-2.15656e-08
-2.07084e-08
-1.98845e-08
-1.90506e-08
-1.82494e-08
-1.74359e-08
-1.66548e-08
-1.58591e-08
-1.50957e-08
-1.43156e-08
-1.35676e-08
-1.2801e-08
-1.20664e-08
-1.13115e-08
-1.05884e-08
-9.84339e-09
-9.13045e-09
-8.39344e-09
-7.68972e-09
-6.9583e-09
-6.26428e-09
-5.53359e-09
-4.85404e-09
-4.11123e-09
-3.46576e-09
-2.67229e-09
-2.1299e-09
-1.15703e-09
-9.57068e-10
6.45284e-10
0.0624627
0.0613329
0.0575187
0.0516097
0.042765
0.0300488
0.0126711
-0.010565
-0.0393526
-0.0733009
-0.108403
-0.139295
-0.167131
-0.190926
-0.210356
-0.225485
-0.235909
-0.241135
-0.240604
-0.233976
-0.221436
-0.203852
-0.182701
-0.159785
-0.136829
-0.115178
-0.095685
-0.0787512
-0.0644319
-0.0525635
-0.0428676
-0.0350245
-0.0287197
-0.0236682
-0.0196242
-0.016383
-0.0137779
-0.0116751
-0.00996846
-0.00857442
-0.00742743
-0.0064762
-0.0056807
-0.00500964
-0.00443857
-0.00394837
-0.00352401
-0.00315369
-0.00282806
-0.00253973
-0.00228277
-0.00205247
-0.00184503
-0.00165738
-0.00148704
-0.00133202
-0.00119065
-0.00106161
-0.000943798
-0.000836355
-0.000738591
-0.000649945
-0.00056989
-0.000497807
-0.000432873
-0.000374025
-0.000320063
-0.000269921
-0.000223028
-0.000179562
-0.000140393
-0.000106649
-7.91106e-05
-5.77873e-05
-4.19325e-05
-3.04169e-05
-2.21556e-05
-1.63219e-05
-1.23167e-05
-9.63619e-06
-7.81047e-06
-6.43883e-06
-5.25861e-06
-4.16889e-06
-3.18273e-06
-2.34989e-06
-1.69974e-06
-1.22351e-06
-8.87502e-07
-6.53109e-07
-4.88789e-07
-3.72383e-07
-2.89008e-07
-2.28611e-07
-1.84336e-07
-1.51537e-07
-1.27028e-07
-1.08581e-07
-9.45882e-08
-8.38775e-08
-7.55894e-08
-6.90911e-08
-6.39194e-08
-5.97283e-08
-5.627e-08
-5.33537e-08
-5.08507e-08
-4.86534e-08
-4.66986e-08
-4.49215e-08
-4.32948e-08
-4.17751e-08
-4.03554e-08
-3.90024e-08
-3.77216e-08
-3.64837e-08
-3.53025e-08
-3.41495e-08
-3.30443e-08
-3.19576e-08
-3.09134e-08
-2.98809e-08
-2.88876e-08
-2.79006e-08
-2.69509e-08
-2.60031e-08
-2.50912e-08
-2.41776e-08
-2.32989e-08
-2.24152e-08
-2.15658e-08
-2.07084e-08
-1.98849e-08
-1.90507e-08
-1.82499e-08
-1.7436e-08
-1.66553e-08
-1.58593e-08
-1.50962e-08
-1.43158e-08
-1.35681e-08
-1.28012e-08
-1.20669e-08
-1.13116e-08
-1.0589e-08
-9.84354e-09
-9.13099e-09
-8.39358e-09
-7.69029e-09
-6.95842e-09
-6.26501e-09
-5.5336e-09
-4.85531e-09
-4.11067e-09
-3.46901e-09
-2.66904e-09
-2.14083e-09
-1.14152e-09
-9.97113e-10
7.14485e-10
0.0662013
0.0652064
0.0618421
0.0565003
0.0482704
0.036011
0.0186457
-0.00555172
-0.036423
-0.074085
-0.112782
-0.145252
-0.174256
-0.198736
-0.218588
-0.234145
-0.24499
-0.250544
-0.250044
-0.242939
-0.229301
-0.210042
-0.186863
-0.161881
-0.137105
-0.114048
-0.0936113
-0.0761529
-0.0616412
-0.0498159
-0.040311
-0.032738
-0.0267333
-0.0219797
-0.0182126
-0.0152177
-0.0128252
-0.0109017
-0.00934379
-0.00807158
-0.00702338
-0.00615168
-0.00541983
-0.00479951
-0.00426879
-0.00381062
-0.00341168
-0.00306153
-0.00275195
-0.00247639
-0.00222963
-0.00200749
-0.00180659
-0.00162419
-0.00145808
-0.00130645
-0.00116781
-0.00104096
-0.000924917
-0.0008189
-0.000722309
-0.000634662
-0.000555507
-0.000484288
-0.000420219
-0.00036224
-0.000309116
-0.000259734
-0.000213481
-0.000170534
-0.000131814
-9.85422e-05
-7.15841e-05
-5.09907e-05
-3.59966e-05
-2.54168e-05
-1.80987e-05
-1.31667e-05
-9.97827e-06
-7.99258e-06
-6.70878e-06
-5.71239e-06
-4.75524e-06
-3.77893e-06
-2.84786e-06
-2.05297e-06
-1.44379e-06
-1.01362e-06
-7.229e-07
-5.27791e-07
-3.94911e-07
-3.02682e-07
-2.37563e-07
-1.90783e-07
-1.56558e-07
-1.31131e-07
-1.12031e-07
-9.75655e-08
-8.65068e-08
-7.7957e-08
-7.12564e-08
-6.59216e-08
-6.16013e-08
-5.80325e-08
-5.50293e-08
-5.24458e-08
-5.01865e-08
-4.81675e-08
-4.63434e-08
-4.46618e-08
-4.31052e-08
-4.16365e-08
-4.02544e-08
-3.89286e-08
-3.76679e-08
-3.64446e-08
-3.52743e-08
-3.4129e-08
-3.30297e-08
-3.19471e-08
-3.09061e-08
-2.98757e-08
-2.88842e-08
-2.78982e-08
-2.69496e-08
-2.60022e-08
-2.50911e-08
-2.41775e-08
-2.32993e-08
-2.24156e-08
-2.15665e-08
-2.0709e-08
-1.98857e-08
-1.90513e-08
-1.82508e-08
-1.74366e-08
-1.66562e-08
-1.58599e-08
-1.50971e-08
-1.43164e-08
-1.3569e-08
-1.28017e-08
-1.20678e-08
-1.13122e-08
-1.05898e-08
-9.84403e-09
-9.13184e-09
-8.39403e-09
-7.69116e-09
-6.95883e-09
-6.266e-09
-5.53388e-09
-4.85679e-09
-4.11037e-09
-3.47228e-09
-2.66622e-09
-2.15063e-09
-1.12813e-09
-1.02908e-09
7.68856e-10
0.0703381
0.0695122
0.0667097
0.0621
0.0547014
0.0431453
0.0259785
0.000772096
-0.0326272
-0.0752621
-0.118602
-0.152675
-0.18287
-0.207956
-0.228169
-0.244218
-0.255654
-0.261759
-0.261454
-0.25387
-0.23891
-0.217564
-0.19184
-0.164288
-0.137283
-0.112545
-0.0910141
-0.0729804
-0.0582916
-0.0465616
-0.037316
-0.0300842
-0.024446
-0.0200484
-0.0166071
-0.0138988
-0.0117511
-0.0100326
-0.00864373
-0.00750923
-0.00657224
-0.00578975
-0.00512911
-0.00456543
-0.00407967
-0.00365713
-0.00328645
-0.00295872
-0.00266696
-0.00240559
-0.00217017
-0.0019571
-0.00176348
-0.00158692
-0.0014255
-0.00127764
-0.00114204
-0.00101761
-0.000903516
-0.00079906
-0.000703733
-0.000617137
-0.000538895
-0.000468522
-0.000405282
-0.000348139
-0.000295853
-0.000247288
-0.000201803
-0.000159569
-0.000121546
-8.9014e-05
-6.28934e-05
-4.32535e-05
-2.93037e-05
-1.98122e-05
-1.35757e-05
-9.68163e-06
-7.44408e-06
-6.27087e-06
-5.61244e-06
-5.03039e-06
-4.29553e-06
-3.4098e-06
-2.50791e-06
-1.73458e-06
-1.16191e-06
-7.80966e-07
-5.41093e-07
-3.9016e-07
-2.92257e-07
-2.26705e-07
-1.81671e-07
-1.49844e-07
-1.26603e-07
-1.0918e-07
-9.59201e-08
-8.57357e-08
-7.78273e-08
-7.15963e-08
-6.66e-08
-6.25153e-08
-5.91104e-08
-5.62111e-08
-5.36973e-08
-5.14715e-08
-4.94739e-08
-4.76463e-08
-4.59623e-08
-4.43832e-08
-4.29017e-08
-4.14878e-08
-4.01459e-08
-3.88494e-08
-3.76104e-08
-3.64027e-08
-3.5244e-08
-3.41071e-08
-3.30141e-08
-3.19358e-08
-3.08984e-08
-2.98701e-08
-2.88807e-08
-2.78958e-08
-2.69483e-08
-2.60014e-08
-2.50909e-08
-2.41775e-08
-2.32998e-08
-2.2416e-08
-2.15673e-08
-2.07096e-08
-1.98867e-08
-1.9052e-08
-1.82518e-08
-1.74374e-08
-1.66573e-08
-1.58607e-08
-1.50981e-08
-1.43171e-08
-1.35699e-08
-1.28024e-08
-1.20687e-08
-1.13128e-08
-1.05907e-08
-9.84458e-09
-9.13268e-09
-8.39454e-09
-7.692e-09
-6.95928e-09
-6.26696e-09
-5.5342e-09
-4.85817e-09
-4.11012e-09
-3.4752e-09
-2.66371e-09
-2.15887e-09
-1.1169e-09
-1.05349e-09
8.09962e-10
0.0748066
0.0741877
0.0720734
0.0683905
0.0620945
0.0515804
0.0349082
0.00874003
-0.0276991
-0.0770734
-0.126378
-0.16184
-0.193204
-0.218803
-0.239273
-0.255797
-0.267895
-0.274694
-0.274724
-0.266696
-0.250247
-0.226419
-0.197609
-0.166934
-0.137254
-0.110546
-0.087781
-0.0691434
-0.0543182
-0.0427594
-0.0338606
-0.0270549
-0.0218586
-0.0178808
-0.0148171
-0.0124365
-0.0105659
-0.00907733
-0.00787664
-0.00689451
-0.00607994
-0.00539525
-0.00481241
-0.00431046
-0.00387357
-0.00348973
-0.00314969
-0.00284628
-0.00257384
-0.00232788
-0.00210478
-0.00190159
-0.0017159
-0.00154572
-0.00138943
-0.00124569
-0.00111339
-0.000991612
-0.000879621
-0.000776842
-0.00068285
-0.000597329
-0.00051998
-0.000450392
-0.000387898
-0.000331515
-0.000280035
-0.000232334
-0.000187772
-0.000146513
-0.000109514
-7.80671e-05
-5.30987e-05
-3.46603e-05
-2.19347e-05
-1.36626e-05
-8.63103e-06
-5.90748e-06
-4.76243e-06
-4.53099e-06
-4.5874e-06
-4.45364e-06
-3.92568e-06
-3.08992e-06
-2.17726e-06
-1.4017e-06
-8.59025e-07
-5.30688e-07
-3.47293e-07
-2.44697e-07
-1.84148e-07
-1.46695e-07
-1.22793e-07
-1.06746e-07
-9.5102e-08
-8.61144e-08
-7.89985e-08
-7.33175e-08
-6.87222e-08
-6.49278e-08
-6.172e-08
-5.89457e-08
-5.65001e-08
-5.43023e-08
-5.23014e-08
-5.04506e-08
-4.87274e-08
-4.71004e-08
-4.55634e-08
-4.40917e-08
-4.2689e-08
-4.13325e-08
-4.00329e-08
-3.87671e-08
-3.75507e-08
-3.63594e-08
-3.52129e-08
-3.40847e-08
-3.29983e-08
-3.19246e-08
-3.08908e-08
-2.98649e-08
-2.88774e-08
-2.78938e-08
-2.69474e-08
-2.60011e-08
-2.50913e-08
-2.4178e-08
-2.33008e-08
-2.24169e-08
-2.15686e-08
-2.07107e-08
-1.9888e-08
-1.90532e-08
-1.82532e-08
-1.74386e-08
-1.66586e-08
-1.58618e-08
-1.50994e-08
-1.43181e-08
-1.35712e-08
-1.28034e-08
-1.20699e-08
-1.13137e-08
-1.05918e-08
-9.84542e-09
-9.13374e-09
-8.3953e-09
-7.69304e-09
-6.95996e-09
-6.26807e-09
-5.53472e-09
-4.85965e-09
-4.1101e-09
-3.47794e-09
-2.6617e-09
-2.16576e-09
-1.1079e-09
-1.07174e-09
8.40179e-10
0.0795248
0.0791551
0.0778668
0.0753373
0.0704767
0.0614668
0.0457423
0.0188396
-0.0212281
-0.0798469
-0.136925
-0.173207
-0.205399
-0.231131
-0.251706
-0.268866
-0.28199
-0.28996
-0.290672
-0.282242
-0.263984
-0.237048
-0.204374
-0.169842
-0.136935
-0.107924
-0.0837841
-0.0645363
-0.0496447
-0.0383601
-0.0299169
-0.0236375
-0.0189685
-0.0154797
-0.0128484
-0.0108376
-0.00927635
-0.00804217
-0.00704806
-0.00623218
-0.00555051
-0.00497154
-0.00447253
-0.00403689
-0.00365243
-0.00331002
-0.00300275
-0.00272531
-0.00247352
-0.00224404
-0.00203412
-0.00184152
-0.00166433
-0.00150101
-0.00135022
-0.0012109
-0.00108213
-0.000963178
-0.000853426
-0.000752412
-0.000659801
-0.000575354
-0.000498849
-0.000429953
-0.000368087
-0.000312359
-0.000261646
-0.000214875
-0.000171438
-0.000131481
-9.59109e-05
-6.59584e-05
-4.2476e-05
-2.54703e-05
-1.41021e-05
-7.12628e-06
-3.37992e-06
-1.93972e-06
-2.0292e-06
-2.87643e-06
-3.73778e-06
-4.0725e-06
-3.71051e-06
-2.85604e-06
-1.87135e-06
-1.05908e-06
-5.37337e-07
-2.65805e-07
-1.45265e-07
-9.48996e-08
-7.32938e-08
-6.46341e-08
-6.24253e-08
-6.26566e-08
-6.29614e-08
-6.26145e-08
-6.1766e-08
-6.06733e-08
-5.94541e-08
-5.81418e-08
-5.67547e-08
-5.53143e-08
-5.38449e-08
-5.23611e-08
-5.08822e-08
-4.94128e-08
-4.79686e-08
-4.65457e-08
-4.51581e-08
-4.37956e-08
-4.24729e-08
-4.11749e-08
-3.99181e-08
-3.86835e-08
-3.74902e-08
-3.63155e-08
-3.51814e-08
-3.40621e-08
-3.29824e-08
-3.19134e-08
-3.08832e-08
-2.98598e-08
-2.88744e-08
-2.78919e-08
-2.69467e-08
-2.60009e-08
-2.50917e-08
-2.41787e-08
-2.33019e-08
-2.24181e-08
-2.157e-08
-2.0712e-08
-1.98895e-08
-1.90545e-08
-1.82547e-08
-1.74399e-08
-1.66601e-08
-1.5863e-08
-1.51009e-08
-1.43193e-08
-1.35726e-08
-1.28045e-08
-1.20711e-08
-1.13147e-08
-1.0593e-08
-9.84635e-09
-9.13485e-09
-8.39615e-09
-7.6941e-09
-6.96071e-09
-6.26918e-09
-5.53531e-09
-4.86104e-09
-4.1102e-09
-3.48033e-09
-2.66008e-09
-2.17128e-09
-1.1008e-09
-1.08511e-09
8.62092e-10
0.0843942
0.0843167
0.0839991
0.0828717
0.079844
0.0729346
0.0588197
0.0316927
-0.0127162
-0.0842524
-0.151151
-0.187115
-0.22003
-0.245536
-0.265767
-0.283335
-0.297545
-0.30701
-0.308854
-0.30032
-0.280149
-0.249546
-0.212165
-0.172934
-0.136168
-0.1045
-0.0788648
-0.0590394
-0.0441924
-0.0333202
-0.0254672
-0.0198313
-0.015785
-0.0128598
-0.0107175
-0.00911877
-0.00789781
-0.00694058
-0.00616945
-0.00553173
-0.00499163
-0.00452474
-0.00411425
-0.00374844
-0.00341904
-0.00312008
-0.00284716
-0.00259694
-0.00236681
-0.00215463
-0.0019586
-0.00177717
-0.001609
-0.00145294
-0.00130801
-0.00117338
-0.00104836
-0.000932389
-0.000824995
-0.000725823
-0.000634624
-0.000551233
-0.000475499
-0.000407175
-0.000345796
-0.000290603
-0.000240621
-0.000194886
-0.000152833
-0.000114605
-8.0975e-05
-5.29814e-05
-3.13453e-05
-1.59635e-05
-6.00023e-06
-3.27976e-07
2.10296e-06
2.16234e-06
6.85191e-07
-1.39681e-06
-3.16214e-06
-3.97527e-06
-3.71272e-06
-2.74202e-06
-1.6035e-06
-7.1158e-07
-2.01582e-07
6.88351e-09
5.76182e-08
5.31196e-08
3.60741e-08
1.6751e-08
-2.32598e-09
-1.87698e-08
-3.10046e-08
-3.92445e-08
-4.46142e-08
-4.80844e-08
-5.02304e-08
-5.13925e-08
-5.18185e-08
-5.17047e-08
-5.12059e-08
-5.04318e-08
-4.94718e-08
-4.83817e-08
-4.72149e-08
-4.59948e-08
-4.47557e-08
-4.35018e-08
-4.22586e-08
-4.10187e-08
-3.98045e-08
-3.8601e-08
-3.74305e-08
-3.62725e-08
-3.51507e-08
-3.40402e-08
-3.29671e-08
-3.19028e-08
-3.08762e-08
-2.98553e-08
-2.88718e-08
-2.78906e-08
-2.69464e-08
-2.60012e-08
-2.50927e-08
-2.41799e-08
-2.33034e-08
-2.24196e-08
-2.15717e-08
-2.07137e-08
-1.98914e-08
-1.90563e-08
-1.82566e-08
-1.74416e-08
-1.66619e-08
-1.58646e-08
-1.51026e-08
-1.43208e-08
-1.35741e-08
-1.28059e-08
-1.20726e-08
-1.1316e-08
-1.05944e-08
-9.8475e-09
-9.13612e-09
-8.39719e-09
-7.6953e-09
-6.96163e-09
-6.27038e-09
-5.53606e-09
-4.86246e-09
-4.11048e-09
-3.4825e-09
-2.65891e-09
-2.17574e-09
-1.09538e-09
-1.09486e-09
8.77807e-10
0.0892989
0.0895567
0.090351
0.0908959
0.0901575
0.0861391
0.0745906
0.0483208
-0.00125614
-0.0912385
-0.171438
-0.204145
-0.236321
-0.261032
-0.281115
-0.299703
-0.315813
-0.327647
-0.331139
-0.32254
-0.299931
-0.264634
-0.221281
-0.176202
-0.134781
-0.10005
-0.0728169
-0.0524955
-0.0378561
-0.027577
-0.0204797
-0.0156243
-0.0123079
-0.010027
-0.00843273
-0.00728886
-0.00643872
-0.0057801
-0.00524732
-0.00479866
-0.00440791
-0.00405871
-0.00374081
-0.00344783
-0.00317571
-0.00292187
-0.00268457
-0.00246257
-0.0022549
-0.00206069
-0.0018791
-0.00170932
-0.00155057
-0.00140211
-0.00126329
-0.00113357
-0.00101247
-0.000899598
-0.000794646
-0.000697367
-0.000607594
-0.000525224
-0.000450174
-0.000382293
-0.000321257
-0.000266503
-0.000217261
-0.000172751
-0.000132473
-9.64604e-05
-6.5312e-05
-3.97856e-05
-2.02747e-05
-6.57669e-06
2.03999e-06
6.51248e-06
7.67324e-06
6.28646e-06
3.26955e-06
-2.11352e-07
-2.97653e-06
-4.25591e-06
-3.99146e-06
-2.77218e-06
-1.37661e-06
-3.56154e-07
1.48178e-07
2.82953e-07
2.5531e-07
1.94216e-07
1.40427e-07
9.52121e-08
5.59068e-08
2.37029e-08
-1.34425e-10
-1.66669e-08
-2.80205e-08
-3.58977e-08
-4.13056e-08
-4.48665e-08
-4.70472e-08
-4.82162e-08
-4.86558e-08
-4.85679e-08
-4.81094e-08
-4.73858e-08
-4.6487e-08
-4.5463e-08
-4.43673e-08
-4.32182e-08
-4.20518e-08
-4.0868e-08
-3.96951e-08
-3.85216e-08
-3.73732e-08
-3.62312e-08
-3.51213e-08
-3.40194e-08
-3.29527e-08
-3.1893e-08
-3.08698e-08
-2.98512e-08
-2.88696e-08
-2.78896e-08
-2.69464e-08
-2.60018e-08
-2.50938e-08
-2.41813e-08
-2.33051e-08
-2.24214e-08
-2.15737e-08
-2.07157e-08
-1.98934e-08
-1.90582e-08
-1.82586e-08
-1.74434e-08
-1.66638e-08
-1.58664e-08
-1.51044e-08
-1.43224e-08
-1.35758e-08
-1.28074e-08
-1.20742e-08
-1.13173e-08
-1.05958e-08
-9.84877e-09
-9.13746e-09
-8.39833e-09
-7.69655e-09
-6.96264e-09
-6.27161e-09
-5.53688e-09
-4.86382e-09
-4.11087e-09
-3.4844e-09
-2.65808e-09
-2.17925e-09
-1.09129e-09
-1.10192e-09
8.89043e-10
0.0941056
0.0947339
0.0967683
0.0992362
0.101296
0.101071
0.0934338
0.0697479
0.0138011
-0.101465
-0.198081
-0.226134
-0.257667
-0.279879
-0.298312
-0.317285
-0.335504
-0.350467
-0.35662
-0.348723
-0.323656
-0.282726
-0.231926
-0.179584
-0.13254
-0.0942955
-0.0653979
-0.0447299
-0.0305282
-0.0210766
-0.0149369
-0.0110216
-0.00855426
-0.00700354
-0.00601762
-0.00537001
-0.00491881
-0.00457764
-0.0042957
-0.00404437
-0.00380845
-0.00358055
-0.00335769
-0.0031392
-0.00292554
-0.00271767
-0.00251663
-0.00232338
-0.00213862
-0.00196279
-0.00179603
-0.00163828
-0.00148928
-0.00134873
-0.00121628
-0.00109166
-0.000974626
-0.000864976
-0.00076255
-0.000667215
-0.000578881
-0.000497503
-0.000423062
-0.00035552
-0.000294736
-0.000240395
-0.000192006
-0.000149004
-0.000110961
-7.77744e-05
-4.96645e-05
-2.69514e-05
-9.72198e-06
2.34033e-06
9.82255e-06
1.33124e-05
1.33054e-05
1.04205e-05
5.7002e-06
6.41396e-07
-3.22153e-06
-4.94249e-06
-4.55568e-06
-2.93699e-06
-1.17586e-06
1.60326e-08
5.11365e-07
5.55655e-07
4.39864e-07
3.22203e-07
2.35802e-07
1.68304e-07
1.1058e-07
6.35566e-08
2.87974e-08
4.53997e-09
-1.23852e-08
-2.44011e-08
-3.28918e-08
-3.87202e-08
-4.25556e-08
-4.49325e-08
-4.62555e-08
-4.68136e-08
-4.68272e-08
-4.64487e-08
-4.58022e-08
-4.49627e-08
-4.40021e-08
-4.29518e-08
-4.18577e-08
-4.07268e-08
-3.95926e-08
-3.84475e-08
-3.73198e-08
-3.6193e-08
-3.50942e-08
-3.40004e-08
-3.29397e-08
-3.18843e-08
-3.08643e-08
-2.9848e-08
-2.88681e-08
-2.78893e-08
-2.6947e-08
-2.6003e-08
-2.50955e-08
-2.41832e-08
-2.33072e-08
-2.24236e-08
-2.1576e-08
-2.07179e-08
-1.98958e-08
-1.90604e-08
-1.82609e-08
-1.74456e-08
-1.6666e-08
-1.58684e-08
-1.51064e-08
-1.43243e-08
-1.35777e-08
-1.28091e-08
-1.2076e-08
-1.13189e-08
-1.05974e-08
-9.85021e-09
-9.13893e-09
-8.39962e-09
-7.6979e-09
-6.96378e-09
-6.27289e-09
-5.53782e-09
-4.86516e-09
-4.11141e-09
-3.4861e-09
-2.65759e-09
-2.18204e-09
-1.0883e-09
-1.10703e-09
8.97025e-10
0.0986661
0.0996926
0.103056
0.107688
0.113048
0.117828
0.115943
0.09882
0.03455
-0.124175
-0.238605
-0.248598
-0.278375
-0.299645
-0.317511
-0.337344
-0.358035
-0.37651
-0.385366
-0.378338
-0.350668
-0.303323
-0.243752
-0.182773
-0.129132
-0.0869383
-0.056364
-0.0355712
-0.022104
-0.0137648
-0.00881826
-0.00602246
-0.00453392
-0.00380368
-0.00348742
-0.00337681
-0.00335114
-0.00334449
-0.00332421
-0.00327698
-0.00320007
-0.00309608
-0.00296985
-0.00282682
-0.00267221
-0.00251067
-0.00234612
-0.00218177
-0.00202006
-0.00186276
-0.00171101
-0.00156545
-0.00142637
-0.00129385
-0.00116789
-0.00104846
-0.000935555
-0.000829175
-0.000729316
-0.000635954
-0.000549071
-0.000468672
-0.000394817
-0.000327599
-0.0002671
-0.000213304
-0.000166028
-0.000124933
-8.9609e-05
-5.97078e-05
-3.49977e-05
-1.52702e-05
-2.24921e-07
1.05081e-05
1.72223e-05
2.0027e-05
1.89921e-05
1.45757e-05
8.00556e-06
1.21273e-06
-3.82056e-06
-5.93989e-06
-5.30643e-06
-3.14952e-06
-9.39434e-07
4.39628e-07
9.02179e-07
8.28218e-07
6.10646e-07
4.35873e-07
3.21189e-07
2.34853e-07
1.60588e-07
9.98485e-08
5.50674e-08
2.38398e-08
1.89489e-09
-1.38926e-08
-2.52121e-08
-3.31183e-08
-3.84643e-08
-4.19419e-08
-4.40698e-08
-4.52164e-08
-4.566e-08
-4.55956e-08
-4.5179e-08
-4.45075e-08
-4.36699e-08
-4.27096e-08
-4.16814e-08
-4.05987e-08
-3.94997e-08
-3.83804e-08
-3.72717e-08
-3.61587e-08
-3.50701e-08
-3.39836e-08
-3.29284e-08
-3.18769e-08
-3.08599e-08
-2.98457e-08
-2.88673e-08
-2.78896e-08
-2.69481e-08
-2.60045e-08
-2.50975e-08
-2.41854e-08
-2.33096e-08
-2.2426e-08
-2.15786e-08
-2.07204e-08
-1.98983e-08
-1.90629e-08
-1.82633e-08
-1.74479e-08
-1.66683e-08
-1.58706e-08
-1.51086e-08
-1.43264e-08
-1.35798e-08
-1.2811e-08
-1.20778e-08
-1.13207e-08
-1.05991e-08
-9.85177e-09
-9.14049e-09
-8.40101e-09
-7.69932e-09
-6.96501e-09
-6.27422e-09
-5.53885e-09
-4.86649e-09
-4.11207e-09
-3.48763e-09
-2.65738e-09
-2.18425e-09
-1.08616e-09
-1.11072e-09
9.02676e-10
0.102821
0.104249
0.108983
0.115884
0.125048
0.135694
0.142303
0.134784
0.0629379
-0.133624
-0.30486
-0.293003
-0.308194
-0.317738
-0.329606
-0.347432
-0.369522
-0.39246
-0.406313
-0.402305
-0.374042
-0.321856
-0.254249