/*--------------------------------*- C++ -*----------------------------------*\
  =========                 |
  \\      /  F ield         | OpenFOAM: The Open Source CFD Toolbox
   \\    /   O peration     | Website:  https://openfoam.org
    \\  /    A nd           | Version:  11
     \\/     M anipulation  |
\*---------------------------------------------------------------------------*/
FoamFile
{
    format      ascii;
    class       volVectorField;
    location    "3.883323";
    object      U;
}
// * * * * * * * * * * * * * * * * * * * * * * * * * * * * * * * * * * * * * //

dimensions      [0 1 -1 0 0 0 0];

internalField   nonuniform List<vector> 
7132
(
(1.00015 -0.000289596 1.97371e-18)
(1.00224 -0.000873697 6.6691e-18)
(1.007 -0.0014935 7.17236e-18)
(1.01424 -0.00216085 8.79748e-18)
(1.02426 -0.00287897 1.10976e-17)
(1.03725 -0.00362772 1.17638e-17)
(1.05329 -0.00436746 1.12957e-17)
(1.07222 -0.00501988 1.05026e-17)
(1.09352 -0.00550045 9.84152e-18)
(1.11633 -0.00571835 9.43306e-18)
(1.1394 -0.00561986 9.06263e-18)
(1.16145 -0.00526413 8.93126e-18)
(1.18162 -0.00470288 7.75556e-18)
(1.19917 -0.00398626 8.31365e-18)
(1.21358 -0.00315708 -2.23342e-18)
(1.22448 -0.00224158 -1.13211e-17)
(1.23156 -0.00126037 -1.91282e-17)
(1.2346 -0.000236886 -1.56961e-17)
(1.23348 0.000794924 -2.44309e-17)
(1.22823 0.00178754 -3.55503e-17)
(1.21913 0.0026842 -3.63105e-17)
(1.20668 0.0034288 -3.83911e-17)
(1.19158 0.00397799 -4.14548e-17)
(1.17471 0.00431071 -4.63245e-17)
(1.15694 0.00443122 -4.09563e-17)
(1.13911 0.00436535 -4.34638e-17)
(1.12189 0.00415254 -4.76558e-17)
(1.10579 0.00383728 -5.22483e-17)
(1.09112 0.00346203 -5.65454e-17)
(1.07805 0.00306272 -5.51064e-17)
(1.0666 0.00266684 -5.31332e-17)
(1.0567 0.00229335 -5.04422e-17)
(1.04825 0.00195372 -5.02513e-17)
(1.04108 0.00165354 -4.69821e-17)
(1.03503 0.00139405 -4.30966e-17)
(1.02994 0.00117367 -3.78154e-17)
(1.02565 0.000989062 -3.20763e-17)
(1.02203 0.000836083 -2.61094e-17)
(1.01897 0.000710326 -1.73064e-17)
(1.01636 0.000607529 -7.76506e-18)
(1.01412 0.000523795 2.73955e-18)
(1.01217 0.000455696 1.29483e-17)
(1.01047 0.0004003 2.29615e-17)
(1.00897 0.000355151 3.41191e-17)
(1.00763 0.000318222 4.46021e-17)
(1.00643 0.000287859 5.48938e-17)
(1.00533 0.00026273 6.39884e-17)
(1.00432 0.000241773 7.22176e-17)
(1.00339 0.000224143 8.03436e-17)
(1.00253 0.000209176 8.57819e-17)
(1.00172 0.000196344 8.76018e-17)
(1.00096 0.000185213 8.69918e-17)
(1.00024 0.000175407 8.38294e-17)
(0.99955 0.00016658 7.63946e-17)
(0.998899 0.000158401 6.52183e-17)
(0.99828 0.000150559 5.02158e-17)
(0.997691 0.0001428 3.33389e-17)
(0.997133 0.000134965 1.68084e-17)
(0.996607 0.000126997 1.3575e-18)
(0.996112 0.000118853 -1.04197e-17)
(0.99565 0.000110263 -1.78872e-17)
(0.995224 0.000100375 -2.08059e-17)
(0.994841 8.74396e-05 -2.311e-17)
(0.994517 6.87781e-05 -3.2349e-17)
(0.994281 4.12978e-05 -5.25127e-17)
(0.994175 2.62008e-06 -8.68078e-17)
(0.994245 -4.74299e-05 -1.30437e-16)
(0.994535 -0.000105549 -1.73372e-16)
(0.995068 -0.000164605 -2.07597e-16)
(0.995829 -0.00021469 -2.29079e-16)
(0.996762 -0.000245539 -2.47004e-16)
(0.997772 -0.000249616 -2.74044e-16)
(0.998742 -0.000224758 -3.1687e-16)
(0.999558 -0.000175281 -3.67646e-16)
(1.00014 -0.000111044 -3.98454e-16)
(1.00044 -4.47231e-05 -3.79803e-16)
(1.00049 1.16953e-05 -2.96281e-16)
(1.00035 4.99577e-05 -1.65346e-16)
(1.00009 6.71288e-05 -3.96321e-17)
(0.999808 6.53922e-05 1.69501e-17)
(0.999565 5.04334e-05 -4.5782e-17)
(0.999401 2.92055e-05 -2.31323e-16)
(0.999328 7.91621e-06 -4.89118e-16)
(0.999336 -9.21203e-06 -7.33249e-16)
(0.999401 -2.02727e-05 -8.73737e-16)
(0.999498 -2.52977e-05 -8.59602e-16)
(0.999604 -2.55292e-05 -6.94101e-16)
(0.999703 -2.26755e-05 -4.31575e-16)
(0.999787 -1.83563e-05 -1.53653e-16)
(0.999851 -1.38025e-05 6.79811e-17)
(0.999897 -9.77318e-06 1.90279e-16)
(0.999929 -6.61021e-06 2.11763e-16)
(0.99995 -4.35532e-06 1.63261e-16)
(0.999964 -2.87501e-06 8.49536e-17)
(0.999973 -1.96504e-06 1.46953e-17)
(0.999979 -1.42321e-06 -2.79084e-17)
(0.999984 -1.08957e-06 -4.08586e-17)
(0.999988 -8.59381e-07 -3.22985e-17)
(0.999991 -6.77298e-07 -1.68572e-17)
(0.999994 -5.22093e-07 -2.82898e-18)
(0.999995 -3.90251e-07 5.07298e-18)
(0.999997 -2.83534e-07 6.64793e-18)
(0.999998 -2.02331e-07 5.454e-18)
(0.999998 -1.43883e-07 2.16709e-18)
(0.999999 -1.03302e-07 -2.0103e-20)
(0.999999 -7.53335e-08 -8.56258e-19)
(0.999999 -5.5645e-08 -9.78299e-19)
(1 -4.12807e-08 1.34834e-19)
(1 -3.04886e-08 6.09131e-20)
(1 -2.22976e-08 1.55977e-19)
(1 -1.61271e-08 2.18513e-19)
(1 -1.1553e-08 3.89595e-21)
(1 -8.2124e-09 6.42781e-19)
(1 -5.79274e-09 1.49632e-19)
(1 -4.03998e-09 4.35266e-20)
(1 -2.7648e-09 9.14254e-20)
(1 -1.83193e-09 -4.99233e-20)
(1 -1.14901e-09 6.58578e-19)
(1 -6.49807e-10 2.32812e-19)
(1 -2.87739e-10 1.04967e-20)
(1 -2.64184e-11 6.1129e-19)
(1 1.5983e-10 7.03777e-19)
(1 2.92033e-10 8.13112e-19)
(1 3.83839e-10 2.33613e-19)
(1 4.47158e-10 -3.34494e-20)
(1 4.88653e-10 5.52152e-19)
(1 5.15283e-10 6.39815e-19)
(1 5.29981e-10 7.49292e-19)
(1 5.37159e-10 1.72352e-19)
(1 5.37738e-10 -9.17034e-20)
(1 5.34794e-10 4.95857e-19)
(1 5.28118e-10 5.83709e-19)
(1 5.20091e-10 6.91784e-19)
(1 5.09854e-10 1.12752e-19)
(1 4.99445e-10 -1.52874e-19)
(1 4.87628e-10 4.34673e-19)
(1 4.76286e-10 5.2457e-19)
(1 4.63947e-10 6.36571e-19)
(1 4.52436e-10 6.26172e-20)
(1 4.40134e-10 -1.97758e-19)
(1 4.2886e-10 3.94324e-19)
(1 4.16883e-10 4.87511e-19)
(1 4.06045e-10 6.01469e-19)
(1 3.94538e-10 2.84154e-20)
(1 3.84233e-10 -2.3165e-19)
(1 3.73256e-10 3.60607e-19)
(1 3.63514e-10 4.54154e-19)
(1 3.53077e-10 5.68803e-19)
(1 3.43902e-10 -3.20843e-21)
(1 3.33988e-10 -2.61927e-19)
(1 3.25405e-10 3.31911e-19)
(1 3.15958e-10 4.2715e-19)
(1 3.08103e-10 5.43369e-19)
(1 2.98822e-10 -2.77757e-20)
(1 2.92372e-10 -2.8657e-19)
(1 2.81733e-10 3.032e-19)
(1 2.80486e-10 4.00155e-19)
(1 2.6084e-10 4.75012e-19)
(1 2.83648e-10 4.82762e-20)
(1 2.27884e-10 -9.44094e-19)
(1.00014 -0.000865918 2.65638e-20)
(1.00222 -0.00261378 3.2175e-19)
(1.00694 -0.00447001 6.5444e-19)
(1.01413 -0.00647264 1.02249e-18)
(1.02412 -0.0086324 1.46022e-18)
(1.03711 -0.01089 1.89298e-18)
(1.0532 -0.0131271 2.29379e-18)
(1.07227 -0.0151052 2.16255e-18)
(1.0938 -0.0165667 5.56702e-18)
(1.11692 -0.0172287 7.02059e-18)
(1.14028 -0.0169253 4.11337e-18)
(1.16258 -0.0158461 4.62041e-18)
(1.18294 -0.01415 8.33167e-19)
(1.20063 -0.0119901 1.29208e-17)
(1.21515 -0.00949558 4.374e-17)
(1.22613 -0.00674375 7.87793e-17)
(1.23327 -0.00379403 9.63586e-17)
(1.23634 -0.000714138 8.37251e-17)
(1.2352 0.00239565 5.14539e-17)
(1.22988 0.00539208 9.83456e-18)
(1.22066 0.00810164 -3.3828e-17)
(1.20802 0.0103517 -7.48302e-17)
(1.19271 0.0120085 -1.10214e-16)
(1.17562 0.0130076 -1.38658e-16)
(1.15764 0.0133628 -1.5902e-16)
(1.13964 0.013154 -1.71935e-16)
(1.12229 0.0125023 -1.78136e-16)
(1.1061 0.0115434 -1.78101e-16)
(1.09138 0.0104062 -1.7215e-16)
(1.07829 0.00919918 -1.60507e-16)
(1.06684 0.00800483 -1.39748e-16)
(1.05697 0.00687981 -1.21657e-16)
(1.04854 0.00585817 -9.85226e-17)
(1.04141 0.00495616 -6.97946e-17)
(1.03539 0.00417718 -3.95364e-17)
(1.03033 0.00351608 -3.68259e-18)
(1.02607 0.00296269 3.14698e-17)
(1.02248 0.00250436 6.75709e-17)
(1.01943 0.00212775 1.0548e-16)
(1.01684 0.00182003 1.4278e-16)
(1.01461 0.00156945 1.80237e-16)
(1.01267 0.00136572 2.12508e-16)
(1.01098 0.00120003 2.40955e-16)
(1.00948 0.00106501 2.65811e-16)
(1.00815 0.000954585 2.86562e-16)
(1.00694 0.000863805 3.04221e-16)
(1.00585 0.00078868 3.15197e-16)
(1.00484 0.000726023 3.21178e-16)
(1.00391 0.000673317 3.20981e-16)
(1.00304 0.000628576 3.11479e-16)
(1.00222 0.00059022 2.93121e-16)
(1.00146 0.000556957 2.63592e-16)
(1.00073 0.000527672 2.22569e-16)
(1.00004 0.000501334 1.71444e-16)
(0.999384 0.000476953 1.11087e-16)
(0.998758 0.000453601 4.68187e-17)
(0.998162 0.000430509 -1.84038e-17)
(0.997596 0.000407192 -7.92546e-17)
(0.997061 0.000383472 -1.29825e-16)
(0.996557 0.000359223 -1.67123e-16)
(0.996085 0.000333669 -1.89183e-16)
(0.995648 0.000304337 -2.04693e-16)
(0.995252 0.000266093 -2.28653e-16)
(0.994915 0.000211019 -2.81748e-16)
(0.994662 0.000129895 -3.78272e-16)
(0.994533 1.55137e-05 -5.1917e-16)
(0.994577 -0.00013288 -6.92342e-16)
(0.994834 -0.000305738 -8.70405e-16)
(0.995329 -0.000482058 -1.0394e-15)
(0.996049 -0.000632415 -1.20561e-15)
(0.99694 -0.000726094 -1.39784e-15)
(0.997911 -0.000740306 -1.64783e-15)
(0.998846 -0.000668145 -1.94488e-15)
(0.999633 -0.00052206 -2.22557e-15)
(1.00019 -0.000331179 -2.37843e-15)
(1.00048 -0.00013328 -2.29853e-15)
(1.00052 3.56818e-05 -1.95803e-15)
(1.00036 0.000150726 -1.44106e-15)
(1.0001 0.000202713 -9.41789e-16)
(0.999811 0.000197882 -6.82467e-16)
(0.999563 0.00015309 -8.15043e-16)
(0.999396 8.91531e-05 -1.34152e-15)
(0.999321 2.47843e-05 -2.08484e-15)
(0.999329 -2.71905e-05 -2.76359e-15)
(0.999395 -6.08933e-05 -3.10148e-15)
(0.999495 -7.63143e-05 -2.94408e-15)
(0.999603 -7.7149e-05 -2.31977e-15)
(0.999705 -6.85544e-05 -1.40901e-15)
(0.999789 -5.5458e-05 -4.73243e-16)
(0.999854 -4.16254e-05 2.56647e-16)
(0.9999 -2.93885e-05 6.53821e-16)
(0.999932 -1.9801e-05 7.16948e-16)
(0.999952 -1.29911e-05 5.49127e-16)
(0.999965 -8.54551e-06 2.87858e-16)
(0.999974 -5.83335e-06 5.24988e-17)
(0.99998 -4.23192e-06 -9.14592e-17)
(0.999985 -3.2513e-06 -1.36855e-16)
(0.999988 -2.57342e-06 -1.11548e-16)
(0.999991 -2.03269e-06 -5.87086e-17)
(0.999994 -1.56793e-06 -1.0963e-17)
(0.999995 -1.17126e-06 1.64153e-17)
(0.999997 -8.49782e-07 2.23421e-17)
(0.999998 -6.05452e-07 1.69016e-17)
(0.999998 -4.30063e-07 7.54413e-18)
(0.999999 -3.08677e-07 3.22642e-19)
(0.999999 -2.2523e-07 -2.70595e-18)
(0.999999 -1.66537e-07 -3.40975e-18)
(1 -1.23673e-07 -1.55018e-18)
(1 -9.14074e-08 -9.87789e-20)
(1 -6.68779e-08 6.04142e-19)
(1 -4.83852e-08 8.60921e-19)
(1 -3.46777e-08 -6.19825e-21)
(1 -2.46732e-08 2.77665e-19)
(1 -1.74315e-08 2.60641e-19)
(1 -1.21881e-08 2.09285e-19)
(1 -8.37267e-09 3.56108e-19)
(1 -5.58075e-09 -3.03604e-19)
(1 -3.53517e-09 2.13009e-19)
(1 -2.03959e-09 3.57259e-19)
(1 -9.53674e-10 2.2158e-19)
(1 -1.70121e-10 8.91287e-19)
(1 3.89526e-10 4.11705e-19)
(1 7.86592e-10 3.14395e-19)
(1 1.06365e-09 3.13002e-19)
(1 1.25457e-09 1.47936e-19)
(1 1.38114e-09 8.16692e-19)
(1 1.46225e-09 3.42447e-19)
(1 1.50866e-09 2.51453e-19)
(1 1.53149e-09 2.56008e-19)
(1 1.53565e-09 9.57565e-20)
(1 1.52812e-09 7.67513e-19)
(1 1.51055e-09 2.94189e-19)
(1 1.48771e-09 2.0243e-19)
(1 1.45946e-09 2.05515e-19)
(1 1.42941e-09 4.4295e-20)
(1 1.39639e-09 7.16559e-19)
(1 1.36344e-09 2.45635e-19)
(1 1.32881e-09 1.57925e-19)
(1 1.29525e-09 1.65951e-19)
(1 1.26068e-09 9.60914e-21)
(1 1.22772e-09 6.85864e-19)
(1 1.19407e-09 2.17594e-19)
(1 1.16232e-09 1.31191e-19)
(1 1.13001e-09 1.39507e-19)
(1 1.09974e-09 -1.70658e-20)
(1 1.06896e-09 6.58894e-19)
(1 1.04029e-09 1.90571e-19)
(1 1.01106e-09 1.04486e-19)
(1 9.8401e-10 1.13487e-19)
(1 9.56298e-10 -4.20869e-20)
(1 9.30928e-10 6.35123e-19)
(1 9.04536e-10 1.68203e-19)
(1 8.81231e-10 8.34823e-20)
(1 8.55284e-10 9.32994e-20)
(1 8.36043e-10 -6.22831e-20)
(1 8.06297e-10 6.11444e-19)
(1 8.01922e-10 1.45592e-19)
(1 7.47171e-10 2.50024e-20)
(1 8.09276e-10 1.59317e-19)
(1 6.55937e-10 -6.4995e-19)
(1.00014 -0.00143427 5.179e-22)
(1.00218 -0.0043313 2.42271e-21)
(1.00682 -0.00741462 -2.04461e-21)
(1.01391 -0.0107535 4.90912e-21)
(1.02382 -0.0143708 -1.56451e-19)
(1.0368 -0.0181717 2.49437e-19)
(1.053 -0.0219612 -8.33927e-19)
(1.07235 -0.0253293 -1.49654e-18)
(1.09434 -0.0278341 6.45387e-18)
(1.11808 -0.0289662 -1.42543e-18)
(1.14205 -0.0284327 -3.82862e-17)
(1.16484 -0.0265921 -2.85926e-17)
(1.18558 -0.0237229 1.07693e-16)
(1.20355 -0.0200878 3.26675e-16)
(1.21828 -0.0159047 4.6795e-16)
(1.22943 -0.011297 3.92958e-16)
(1.23668 -0.00635769 9.178e-17)
(1.2398 -0.00119465 -2.89145e-16)
(1.23863 0.00402616 -6.23704e-16)
(1.23318 0.00906281 -8.66829e-16)
(1.22369 0.0136196 -1.01144e-15)
(1.21068 0.0174009 -1.06946e-15)
(1.19493 0.0201777 -1.05945e-15)
(1.17738 0.0218403 -9.99801e-16)
(1.15898 0.0224139 -9.05885e-16)
(1.14061 0.022037 -7.89128e-16)
(1.12299 0.0209176 -6.57354e-16)
(1.10662 0.0192873 -5.15609e-16)
(1.0918 0.0173643 -3.67161e-16)
(1.07867 0.0153311 -2.14555e-16)
(1.06724 0.0133256 -5.92948e-17)
(1.05741 0.0114414 9.58786e-17)
(1.04905 0.00973429 2.49047e-16)
(1.04198 0.00822998 3.9902e-16)
(1.03603 0.00693304 5.44467e-16)
(1.03104 0.00583397 6.84811e-16)
(1.02684 0.00491512 8.18511e-16)
(1.0233 0.00415489 9.43214e-16)
(1.0203 0.00353078 1.05567e-15)
(1.01774 0.00302117 1.1517e-15)
(1.01553 0.00260642 1.22763e-15)
(1.01362 0.00226933 1.28068e-15)
(1.01194 0.00199526 1.31026e-15)
(1.01046 0.00177196 1.31778e-15)
(1.00913 0.00158935 1.30529e-15)
(1.00793 0.00143923 1.27431e-15)
(1.00683 0.00131499 1.22412e-15)
(1.00582 0.00121136 1.15214e-15)
(1.00489 0.00112419 1.05454e-15)
(1.00401 0.0010502 9.27032e-16)
(1.0032 0.000986789 7.67841e-16)
(1.00242 0.00093184 5.762e-16)
(1.00169 0.000883515 3.54775e-16)
(1.00099 0.000840118 1.12353e-16)
(1.00032 0.000800015 -1.40634e-16)
(0.999682 0.000761663 -3.89331e-16)
(0.999072 0.000723771 -6.18711e-16)
(0.998492 0.000685508 -8.13657e-16)
(0.99794 0.000646557 -9.60764e-16)
(0.997419 0.000606699 -1.0585e-15)
(0.996928 0.000564699 -1.12183e-15)
(0.996471 0.000516583 -1.19196e-15)
(0.996054 0.00045404 -1.33063e-15)
(0.995691 0.000364165 -1.6049e-15)
(0.995408 0.000231806 -2.05978e-15)
(0.995244 4.49567e-05 -2.68806e-15)
(0.995242 -0.000197954 -3.43844e-15)
(0.995444 -0.000481643 -4.2507e-15)
(0.995873 -0.000771912 -5.10999e-15)
(0.996519 -0.00102048 -6.0736e-15)
(0.997332 -0.00117665 -7.2302e-15)
(0.998225 -0.00120245 -8.60898e-15)
(0.999086 -0.00108598 -1.00687e-14)
(0.999808 -0.000847256 -1.12705e-14)
(1.00031 -0.000534004 -1.17797e-14)
(1.00055 -0.000208526 -1.12705e-14)
(1.00056 6.96168e-05 -9.75226e-15)
(1.00038 0.00025881 -7.66763e-15)
(1.0001 0.000343593 -5.7839e-15)
(0.9998 0.000334033 -4.89761e-15)
(0.999546 0.000257966 -5.47271e-15)
(0.999376 0.000149983 -7.39114e-15)
(0.999303 4.13385e-05 -9.93379e-15)
(0.999314 -4.64159e-05 -1.2049e-14)
(0.999387 -0.000103308 -1.27873e-14)
(0.999492 -0.000129234 -1.16799e-14)
(0.999606 -0.000130392 -8.91583e-15)
(0.999711 -0.000115525 -5.23114e-15)
(0.999797 -9.30433e-05 -1.59572e-15)
(0.999862 -6.94024e-05 1.15804e-15)
(0.999907 -4.86027e-05 2.6046e-15)
(0.999937 -3.24333e-05 2.78959e-15)
(0.999956 -2.10745e-05 2.11132e-15)
(0.999968 -1.37691e-05 1.09776e-15)
(0.999975 -9.39412e-06 1.94467e-16)
(0.999981 -6.85889e-06 -3.56973e-16)
(0.999985 -5.32047e-06 -5.28636e-16)
(0.999989 -4.24512e-06 -4.34274e-16)
(0.999992 -3.36675e-06 -2.31857e-16)
(0.999994 -2.59727e-06 -4.70135e-17)
(0.999996 -1.93494e-06 5.99414e-17)
(0.999997 -1.39815e-06 8.73172e-17)
(0.999998 -9.92319e-07 6.55005e-17)
(0.999998 -7.03273e-07 2.91343e-17)
(0.999999 -5.04795e-07 9.17876e-19)
(0.999999 -3.69042e-07 -1.17463e-17)
(0.999999 -2.73588e-07 -1.21398e-17)
(1 -2.03606e-07 -6.93179e-18)
(1 -1.50661e-07 -1.61448e-18)
(1 -1.10267e-07 1.34983e-18)
(1 -7.97834e-08 2.01512e-18)
(1 -5.72105e-08 1.3566e-18)
(1 -4.07675e-08 5.23401e-19)
(1 -2.88851e-08 2.23269e-20)
(1 -2.02878e-08 -1.11108e-19)
(1 -1.40287e-08 -5.92128e-22)
(1 -9.44398e-09 7.84325e-20)
(1 -6.0803e-09 1.51029e-19)
(1 -3.61907e-09 1.95784e-19)
(1 -1.83012e-09 1.81945e-19)
(1 -5.38715e-10 2.35442e-19)
(1 3.85482e-10 2.52549e-19)
(1 1.04208e-09 2.50762e-19)
(1 1.50248e-09 2.51804e-19)
(1 1.82085e-09 2.21479e-19)
(1 2.03441e-09 2.68542e-19)
(1 2.17255e-09 2.78831e-19)
(1 2.25454e-09 2.67967e-19)
(1 2.29696e-09 2.59434e-19)
(1 2.30954e-09 2.20525e-19)
(1 2.302e-09 2.60172e-19)
(1 2.27883e-09 2.63777e-19)
(1 2.24601e-09 2.46788e-19)
(1 2.20519e-09 2.33094e-19)
(1 2.16033e-09 1.9071e-19)
(1 2.11153e-09 2.29137e-19)
(1 2.0617e-09 2.33844e-19)
(1 2.01008e-09 2.1976e-19)
(1 1.95905e-09 2.09845e-19)
(1 1.90733e-09 1.71092e-19)
(1 1.85704e-09 2.12209e-19)
(1 1.80664e-09 2.18291e-19)
(1 1.75809e-09 2.04339e-19)
(1 1.70969e-09 1.93703e-19)
(1 1.66335e-09 1.53885e-19)
(1 1.61724e-09 1.94034e-19)
(1 1.57329e-09 1.99509e-19)
(1 1.52956e-09 1.85391e-19)
(1 1.48805e-09 1.74988e-19)
(1 1.44662e-09 1.3573e-19)
(1 1.40765e-09 1.7671e-19)
(1 1.3682e-09 1.83229e-19)
(1 1.33237e-09 1.70232e-19)
(1 1.29355e-09 1.60644e-19)
(1 1.26391e-09 1.21477e-19)
(1 1.21949e-09 1.60311e-19)
(1 1.21184e-09 1.64736e-19)
(1 1.13138e-09 1.37696e-19)
(1 1.218e-09 1.44678e-19)
(1 9.98048e-10 2.21045e-20)
(1.00014 -0.00198909 -2.94308e-20)
(1.00211 -0.00600949 -5.03608e-19)
(1.00662 -0.0103037 -8.73044e-19)
(1.01357 -0.0149793 -1.683e-18)
(1.02335 -0.0200794 -1.79908e-18)
(1.03629 -0.0254813 -1.70753e-18)
(1.05264 -0.0309166 -1.13338e-17)
(1.0724 -0.0357864 1.8431e-17)
(1.09511 -0.0394442 2.84459e-18)
(1.1198 -0.0410907 -1.42906e-16)
(1.14471 -0.0402794 -2.09522e-17)
(1.16823 -0.0376102 6.81246e-16)
(1.18954 -0.0335016 1.29921e-15)
(1.20793 -0.0283387 7.17183e-16)
(1.22298 -0.0224309 -1.53211e-15)
(1.23436 -0.0159391 -4.737e-15)
(1.24179 -0.00897766 -7.54519e-15)
(1.24499 -0.00168324 -8.61404e-15)
(1.24378 0.00571696 -8.38428e-15)
(1.23812 0.0128762 -7.42462e-15)
(1.22823 0.0193615 -6.10065e-15)
(1.21466 0.0247366 -4.67035e-15)
(1.19824 0.028664 -3.2924e-15)
(1.17999 0.0309851 -2.04341e-15)
(1.16094 0.0317423 -9.45839e-16)
(1.14203 0.0311436 6.69588e-18)
(1.12399 0.0294957 8.34141e-16)
(1.10735 0.0271357 1.55907e-15)
(1.09238 0.0243771 2.20065e-15)
(1.0792 0.0214791 2.77168e-15)
(1.06779 0.0186351 3.28281e-15)
(1.05803 0.0159744 3.72761e-15)
(1.04976 0.0135723 4.11603e-15)
(1.0428 0.0114621 4.45307e-15)
(1.03696 0.00964769 4.73868e-15)
(1.03207 0.00811361 4.97757e-15)
(1.02796 0.00683358 5.16012e-15)
(1.02449 0.00577632 5.27932e-15)
(1.02155 0.00490957 5.32485e-15)
(1.01904 0.00420266 5.28592e-15)
(1.01688 0.00362786 5.16043e-15)
(1.015 0.00316103 4.94789e-15)
(1.01335 0.00278168 4.66072e-15)
(1.01188 0.00247272 4.31203e-15)
(1.01056 0.00222014 3.91254e-15)
(1.00936 0.00201252 3.46819e-15)
(1.00827 0.00184071 2.97337e-15)
(1.00726 0.00169741 2.4227e-15)
(1.00632 0.00157687 1.80717e-15)
(1.00545 0.00147458 1.11985e-15)
(1.00462 0.00138697 3.65171e-16)
(1.00384 0.00131113 -4.45723e-16)
(1.00309 0.00124454 -1.2895e-15)
(1.00238 0.00118487 -2.13144e-15)
(1.00169 0.00112986 -2.93041e-15)
(1.00104 0.00107736 -3.63802e-15)
(1.00041 0.00102555 -4.21209e-15)
(0.999809 0.000973227 -4.62178e-15)
(0.999234 0.000919902 -4.86275e-15)
(0.998687 0.00086525 -4.97868e-15)
(0.99817 0.000807615 -5.07512e-15)
(0.997683 0.000741677 -5.33134e-15)
(0.997234 0.00065623 -5.96863e-15)
(0.996836 0.000533748 -7.18975e-15)
(0.996511 0.000353494 -9.09589e-15)
(0.996295 9.88087e-05 -1.16416e-14)
(0.99623 -0.000232898 -1.46798e-14)
(0.996354 -0.000621214 -1.80937e-14)
(0.99669 -0.00101968 -2.19396e-14)
(0.99723 -0.00136218 -2.64318e-14)
(0.997928 -0.00157885 -3.17341e-14)
(0.998703 -0.001617 -3.76242e-14)
(0.999451 -0.0014596 -4.32442e-14)
(1.00007 -0.00113364 -4.72139e-14)
(1.00048 -0.000704622 -4.81336e-14)
(1.00066 -0.000258443 -4.5311e-14)
(1.00061 0.000122449 -3.93369e-14)
(1.00039 0.000380232 -3.21585e-14)
(1.00009 0.000493233 -2.65156e-14)
(0.999769 0.000475247 -2.48772e-14)
(0.999508 0.000364909 -2.83174e-14)
(0.999338 0.000210462 -3.58388e-14)
(0.99927 5.56968e-05 -4.45383e-14)
(0.99929 -6.9037e-05 -5.06895e-14)
(0.999372 -0.000149597 -5.12512e-14)
(0.999488 -0.000185797 -4.50657e-14)
(0.99961 -0.000186485 -3.32672e-14)
(0.999721 -0.000164242 -1.87556e-14)
(0.99981 -0.000131246 -5.04565e-15)
(0.999875 -9.68824e-05 5.01373e-15)
(0.999919 -6.695e-05 1.00897e-14)
(0.999946 -4.39857e-05 1.05224e-14)
(0.999962 -2.81428e-05 7.85889e-15)
(0.999971 -1.81994e-05 4.04451e-15)
(0.999977 -1.2425e-05 6.89507e-16)
(0.999982 -9.18194e-06 -1.34696e-15)
(0.999986 -7.23947e-06 -1.97881e-15)
(0.999989 -5.84927e-06 -1.62719e-15)
(0.999992 -4.66514e-06 -8.7469e-16)
(0.999994 -3.59632e-06 -1.84296e-16)
(0.999996 -2.66579e-06 2.19129e-16)
(0.999997 -1.91298e-06 3.25728e-16)
(0.999998 -1.34924e-06 2.47758e-16)
(0.999999 -9.53018e-07 1.12306e-16)
(0.999999 -6.84412e-07 5.42921e-18)
(0.999999 -5.02097e-07 -4.36419e-17)
(0.999999 -3.73821e-07 -4.67644e-17)
(1 -2.7909e-07 -2.70842e-17)
(1 -2.06805e-07 -6.89453e-18)
(1 -1.51358e-07 4.5579e-18)
(1 -1.09468e-07 7.33729e-18)
(1 -7.85152e-08 4.43759e-18)
(1 -5.60448e-08 1.76939e-18)
(1 -3.98515e-08 -1.48225e-19)
(1 -2.81466e-08 -7.4933e-19)
(1 -1.96178e-08 -3.52354e-19)
(1 -1.33591e-08 -5.9023e-19)
(1 -8.75897e-09 1.66395e-19)
(1 -5.38887e-09 3.65619e-19)
(1 -2.93721e-09 2.19907e-19)
(1 -1.16606e-09 8.50448e-19)
(1 1.03445e-10 3.1809e-19)
(1 1.00761e-09 1.76678e-19)
(1 1.64444e-09 1.61971e-19)
(1 2.08755e-09 3.5503e-20)
(1 2.38794e-09 7.34956e-19)
(1 2.58528e-09 2.52634e-19)
(1 2.70616e-09 1.32496e-19)
(1 2.77281e-09 1.21982e-19)
(1 2.79889e-09 -5.42759e-21)
(1 2.79723e-09 6.93472e-19)
(1 2.77437e-09 2.11661e-19)
(1 2.73803e-09 9.2324e-20)
(1 2.69086e-09 8.26601e-20)
(1 2.63783e-09 -4.3325e-20)
(1 2.57949e-09 6.58224e-19)
(1 2.51939e-09 1.80492e-19)
(1 2.4569e-09 6.62433e-20)
(1 2.39481e-09 6.18286e-20)
(1 2.33185e-09 -5.96518e-20)
(1 2.27044e-09 6.45015e-19)
(1 2.20892e-09 1.6881e-19)
(1 2.14952e-09 5.47199e-20)
(1 2.09038e-09 4.95826e-20)
(1 2.03363e-09 -7.29429e-20)
(1 1.97728e-09 6.30797e-19)
(1 1.92344e-09 1.54028e-19)
(1 1.86998e-09 3.97871e-20)
(1 1.81914e-09 3.48481e-20)
(1 1.76849e-09 -8.7206e-20)
(1 1.72078e-09 6.17242e-19)
(1 1.67254e-09 1.41404e-19)
(1 1.62869e-09 2.82698e-20)
(1 1.58123e-09 2.42865e-20)
(1 1.54495e-09 -9.70919e-20)
(1 1.49084e-09 6.05291e-19)
(1 1.48027e-09 1.3218e-19)
(1 1.3852e-09 -1.32651e-20)
(1 1.47914e-09 1.03977e-19)
(1 1.22831e-09 -6.46597e-19)
(1.00013 -0.00252359 -2.20453e-18)
(1.00202 -0.00762898 -7.42706e-18)
(1.00635 -0.0131085 -6.38011e-18)
(1.01306 -0.0191183 -9.51558e-18)
(1.02264 -0.0257348 5.69818e-19)
(1.0355 -0.0328186 -3.0248e-17)
(1.05203 -0.0400356 2.24752e-17)
(1.07234 -0.0465731 8.27393e-17)
(1.09602 -0.0515532 -4.48822e-16)
(1.12207 -0.053779 5.552e-17)
(1.14827 -0.0526113 2.48136e-15)
(1.17279 -0.0490109 2.46205e-15)
(1.19484 -0.0435657 -5.28092e-15)
(1.21377 -0.0367993 -2.00622e-14)
(1.22922 -0.0291153 -3.4974e-14)
(1.24092 -0.0206993 -4.22744e-14)
(1.24859 -0.0116722 -3.8483e-14)
(1.25193 -0.00218783 -2.58447e-14)
(1.25068 0.00746942 -1.11083e-14)
(1.24474 0.0168429 2.05781e-15)
(1.23431 0.0253486 1.23031e-14)
(1.21996 0.032391 1.94633e-14)
(1.20262 0.0375076 2.3959e-14)
(1.1834 0.0404845 2.64375e-14)
(1.16346 0.0413856 2.75453e-14)
(1.14381 0.040501 2.7798e-14)
(1.12523 0.0382508 2.75812e-14)
(1.10822 0.0350897 2.71235e-14)
(1.09307 0.0314346 2.65518e-14)
(1.07983 0.0276252 2.59194e-14)
(1.06846 0.0239106 2.52315e-14)
(1.0588 0.020454 2.448e-14)
(1.05067 0.0173477 2.36578e-14)
(1.04386 0.0146298 2.27593e-14)
(1.03816 0.0123008 2.17885e-14)
(1.0334 0.0103375 2.07351e-14)
(1.02941 0.00870363 1.95685e-14)
(1.02605 0.00735699 1.82451e-14)
(1.02319 0.00625499 1.67238e-14)
(1.02075 0.00535751 1.49913e-14)
(1.01865 0.00462859 1.30663e-14)
(1.01681 0.00403711 1.0996e-14)
(1.01518 0.00355675 8.83888e-15)
(1.01374 0.00316569 6.64305e-15)
(1.01243 0.00284607 4.43447e-15)
(1.01125 0.00258339 2.20847e-15)
(1.01016 0.00236602 -5.86188e-17)
(1.00915 0.00218472 -2.39484e-15)
(1.00821 0.00203222 -4.81418e-15)
(1.00732 0.00190285 -7.30187e-15)
(1.00648 0.00179214 -9.8124e-15)
(1.00569 0.00169645 -1.22736e-14)
(1.00493 0.00161262 -1.45846e-14)
(1.0042 0.00153774 -1.66239e-14)
(1.0035 0.00146892 -1.82665e-14)
(1.00282 0.00140343 -1.93957e-14)
(1.00217 0.00133891 -1.99398e-14)
(1.00154 0.00127376 -1.99038e-14)
(1.00093 0.00120726 -1.94169e-14)
(1.00035 0.00113896 -1.87876e-14)
(0.999799 0.00106682 -1.85212e-14)
(0.999274 0.000984363 -1.929e-14)
(0.998784 0.000877842 -2.17906e-14)
(0.998339 0.000725611 -2.65374e-14)
(0.997961 0.000501842 -3.368e-14)
(0.99768 0.000185493 -4.29847e-14)
(0.997533 -0.000227218 -5.40851e-14)
(0.997557 -0.000711482 -6.68711e-14)
(0.997772 -0.00120979 -8.17119e-14)
(0.998173 -0.00163963 -9.9137e-14)
(0.998719 -0.00191324 -1.18969e-13)
(0.999337 -0.00196396 -1.394e-13)
(0.999933 -0.00176965 -1.56752e-13)
(1.00041 -0.00136367 -1.66467e-13)
(1.00071 -0.000828113 -1.65108e-13)
(1.00078 -0.000271213 -1.52422e-13)
(1.00066 0.000202818 -1.32367e-13)
(1.00039 0.000520688 -1.12395e-13)
(1.00005 0.000654811 -1.01119e-13)
(0.999713 0.00062267 -1.04949e-13)
(0.999445 0.000473508 -1.24925e-13)
(0.999277 0.000269058 -1.55319e-13)
(0.999218 6.56081e-05 -1.85021e-13)
(0.999252 -9.76253e-05 -2.01571e-13)
(0.999351 -0.000202272 -1.9611e-13)
(0.999481 -0.000248135 -1.6676e-13)
(0.999616 -0.000246958 -1.19239e-13)
(0.999735 -0.000215552 -6.45646e-14)
(0.999829 -0.000170292 -1.49568e-14)
(0.999894 -0.000123831 2.02797e-14)
(0.999935 -8.39431e-05 3.73054e-14)
(0.999958 -5.39075e-05 3.79606e-14)
(0.99997 -3.37156e-05 2.7979e-14)
(0.999976 -2.149e-05 1.4242e-14)
(0.99998 -1.47184e-05 2.31971e-15)
(0.999983 -1.11008e-05 -4.87074e-15)
(0.999987 -8.97262e-06 -7.08398e-15)
(0.99999 -7.37791e-06 -5.82732e-15)
(0.999993 -5.92461e-06 -3.14905e-15)
(0.999995 -4.55718e-06 -6.82995e-16)
(0.999996 -3.35081e-06 7.68472e-16)
(0.999998 -2.37947e-06 1.16513e-15)
(0.999998 -1.66298e-06 8.93944e-16)
(0.999999 -1.16935e-06 4.10959e-16)
(0.999999 -8.40975e-07 2.57057e-17)
(0.999999 -6.20418e-07 -1.55078e-16)
(0.999999 -4.64832e-07 -1.67731e-16)
(1 -3.48521e-07 -9.99418e-17)
(1 -2.58615e-07 -2.73669e-17)
(1 -1.8914e-07 1.53666e-17)
(1 -1.36611e-07 2.57887e-17)
(1 -9.79435e-08 1.74851e-17)
(1 -7.00226e-08 6.09466e-18)
(1 -4.99833e-08 -1.37423e-18)
(1 -3.55163e-08 -3.07905e-18)
(1 -2.49591e-08 -2.03252e-18)
(1 -1.7191e-08 -1.05553e-18)
(1 -1.14674e-08 -4.15895e-20)
(1 -7.26844e-09 2.16537e-19)
(1 -4.21187e-09 6.59618e-19)
(1 -2.0028e-09 7.08819e-19)
(1 -4.17292e-10 2.94369e-20)
(1 7.14662e-10 -6.75755e-20)
(1 1.51562e-09 -1.57528e-19)
(1 2.07642e-09 3.86907e-19)
(1 2.4606e-09 6.37623e-19)
(1 2.71675e-09 8.20717e-20)
(1 2.87826e-09 1.00318e-20)
(1 2.97218e-09 -1.07697e-19)
(1 3.01597e-09 4.01097e-19)
(1 3.02499e-09 6.28354e-19)
(1 3.0079e-09 6.21948e-20)
(1 2.97366e-09 -1.36203e-20)
(1 2.92613e-09 -1.32916e-19)
(1 2.87088e-09 3.75111e-19)
(1 2.80916e-09 6.02773e-19)
(1 2.74475e-09 3.86294e-20)
(1 2.67749e-09 -3.38333e-20)
(1 2.61021e-09 -1.49303e-19)
(1 2.54195e-09 3.62047e-19)
(1 2.47505e-09 5.91855e-19)
(1 2.40814e-09 2.84818e-20)
(1 2.34329e-09 -4.43521e-20)
(1 2.27887e-09 -1.60855e-19)
(1 2.21686e-09 3.49316e-19)
(1 2.15544e-09 5.78182e-19)
(1 2.09659e-09 1.42894e-20)
(1 2.03833e-09 -5.86406e-20)
(1 1.98275e-09 -1.74908e-19)
(1 1.92756e-09 3.35737e-19)
(1 1.87542e-09 5.65291e-19)
(1 1.82285e-09 2.32006e-21)
(1 1.77497e-09 -6.94452e-20)
(1 1.72325e-09 -1.84554e-19)
(1 1.68356e-09 3.27259e-19)
(1 1.62498e-09 5.55404e-19)
(1 1.6116e-09 -3.23144e-21)
(1 1.51261e-09 -1.07328e-19)
(1 1.59907e-09 -9.75381e-20)
(1 1.34973e-09 -1.97865e-19)
(1.00012 -0.0030301 2.21751e-18)
(1.00189 -0.00916727 8.32595e-18)
(1.00597 -0.0157944 5.51924e-18)
(1.01237 -0.0231308 1.00926e-17)
(1.02166 -0.0313023 2.26848e-17)
(1.03436 -0.0401724 -9.85312e-17)
(1.05105 -0.0493537 4.71815e-16)
(1.07202 -0.0577907 -1.00867e-15)
(1.09698 -0.064339 -4.33649e-16)
(1.12484 -0.0672327 7.04305e-15)
(1.15275 -0.0655835 2.12987e-15)
(1.17851 -0.0609031 -3.19683e-14)
(1.20148 -0.0539875 -7.51791e-14)
(1.22107 -0.0455216 -8.51101e-14)
(1.23699 -0.036006 -3.50971e-14)
(1.24908 -0.0256264 6.51255e-14)
(1.25707 -0.0144823 1.79729e-13)
(1.26059 -0.00271856 2.60299e-13)
(1.2593 0.00933117 3.03628e-13)
(1.25302 0.0210836 3.18097e-13)
(1.24191 0.0317695 3.11567e-13)
(1.22657 0.0405966 2.91813e-13)
(1.20804 0.0469533 2.6531e-13)
(1.18758 0.0505657 2.36675e-13)
(1.1665 0.0515344 2.0883e-13)
(1.14591 0.0502549 1.83332e-13)
(1.12664 0.0472843 1.60797e-13)
(1.1092 0.0432125 1.41218e-13)
(1.09382 0.0385704 1.24263e-13)
(1.08053 0.0337815 1.09479e-13)
(1.06922 0.0291498 9.63895e-14)
(1.05971 0.0248693 8.45823e-14)
(1.05175 0.0210451 7.3739e-14)
(1.04513 0.0177157 6.36451e-14)
(1.03962 0.0148753 5.41344e-14)
(1.03503 0.0124899 4.50444e-14)
(1.03119 0.0105111 3.61869e-14)
(1.02796 0.00888463 2.73756e-14)
(1.02521 0.00755671 1.84911e-14)
(1.02286 0.00647724 9.52844e-15)
(1.02081 0.00560179 6.08903e-16)
(1.01903 0.00489219 -8.07524e-15)
(1.01744 0.00431638 -1.6344e-14)
(1.01602 0.00384788 -2.41067e-14)
(1.01474 0.00346511 -3.13942e-14)
(1.01356 0.00315058 -3.83259e-14)
(1.01248 0.00289031 -4.50414e-14)
(1.01147 0.00267322 -5.16215e-14)
(1.01052 0.00249063 -5.80392e-14)
(1.00963 0.00233578 -6.41516e-14)
(1.00878 0.00220339 -6.97145e-14)
(1.00797 0.00208918 -7.44154e-14)
(1.00719 0.00198944 -7.79108e-14)
(1.00644 0.00190068 -7.98611e-14)
(1.00571 0.00181945 -7.99728e-14)
(1.00501 0.00174244 -7.80696e-14)
(1.00433 0.00166674 -7.41874e-14)
(1.00366 0.0015903 -6.87008e-14)
(1.00302 0.00151216 -6.24581e-14)
(1.0024 0.00143168 -5.68697e-14)
(1.00181 0.00134649 -5.38696e-14)
(1.00123 0.00124914 -5.56375e-14)
(1.00069 0.00112378 -6.40745e-14)
(1.00019 0.00094523 -8.01948e-14)
(0.999748 0.000683223 -1.03808e-13)
(0.999388 0.000312749 -1.33892e-13)
(0.999143 -0.00017127 -1.69601e-13)
(0.999045 -0.000740433 -2.11174e-13)
(0.999112 -0.00132764 -2.59825e-13)
(0.999342 -0.00183583 -3.16038e-13)
(0.9997 -0.00216106 -3.76834e-13)
(1.00012 -0.00222381 -4.33907e-13)
(1.00053 -0.00199711 -4.7478e-13)
(1.00083 -0.00151998 -4.87531e-13)
(1.00097 -0.000889723 -4.67167e-13)
(1.00092 -0.000235223 -4.2028e-13)
(1.0007 0.000319092 -3.65098e-13)
(1.00037 0.000685537 -3.26541e-13)
(0.999985 0.000831114 -3.28248e-13)
(0.999627 0.000777019 -3.82865e-13)
(0.999352 0.000582889 -4.84238e-13)
(0.999191 0.000323747 -6.05805e-13)
(0.999146 6.83269e-05 -7.0758e-13)
(0.9992 -0.000135218 -7.50204e-13)
(0.999321 -0.000264241 -7.1013e-13)
(0.999473 -0.000318659 -5.88342e-13)
(0.999625 -0.000313489 -4.0982e-13)
(0.999755 -0.000270333 -2.14359e-13)
(0.999853 -0.000210351 -4.28029e-14)
(0.999918 -0.000149918 7.56906e-14)
(0.999955 -9.89987e-05 1.30759e-13)
(0.999972 -6.15812e-05 1.30522e-13)
(0.999979 -3.72849e-05 9.51913e-14)
(0.999982 -2.33017e-05 4.8043e-14)
(0.999983 -1.60952e-05 7.55919e-15)
(0.999985 -1.25505e-05 -1.67315e-14)
(0.999988 -1.05152e-05 -2.41714e-14)
(0.999991 -8.84464e-06 -1.98919e-14)
(0.999994 -7.15385e-06 -1.07959e-14)