/*--------------------------------*- C++ -*----------------------------------*\
  =========                 |
  \\      /  F ield         | OpenFOAM: The Open Source CFD Toolbox
   \\    /   O peration     | Website:  https://openfoam.org
    \\  /    A nd           | Version:  11
     \\/     M anipulation  |
\*---------------------------------------------------------------------------*/
FoamFile
{
    format      ascii;
    class       volVectorField;
    location    "7.664076";
    object      U;
}
// * * * * * * * * * * * * * * * * * * * * * * * * * * * * * * * * * * * * * //

dimensions      [0 1 -1 0 0 0 0];

internalField   nonuniform List<vector> 
7132
(
(1.00014 -0.000286264 1.85152e-18)
(1.00222 -0.000864041 6.5927e-18)
(1.00692 -0.00147725 7.10377e-18)
(1.01408 -0.00213722 8.75505e-18)
(1.02399 -0.00284671 1.13654e-17)
(1.03684 -0.00358523 1.17148e-17)
(1.05268 -0.00431295 1.12049e-17)
(1.07137 -0.00495188 1.06166e-17)
(1.09237 -0.00541831 1.01352e-17)
(1.11483 -0.00562377 9.78732e-18)
(1.13749 -0.00551812 9.38308e-18)
(1.15913 -0.00516692 9.17507e-18)
(1.17893 -0.00462956 8.02098e-18)
(1.19625 -0.00396512 8.33193e-18)
(1.21071 -0.0032247 -2.11035e-18)
(1.22208 -0.0024412 -1.0801e-17)
(1.23025 -0.00164115 -1.74152e-17)
(1.23521 -0.000855302 -1.19594e-17)
(1.23708 -0.000129546 -2.13771e-17)
(1.2362 0.000471325 -3.41181e-17)
(1.23323 0.00087385 -3.59614e-17)
(1.22909 0.00102014 -3.78916e-17)
(1.22492 0.000895656 -4.32773e-17)
(1.22179 0.000549693 -5.55633e-17)
(1.22042 9.94447e-05 -6.01486e-17)
(1.22096 -0.000286597 -7.92877e-17)
(1.22276 -0.000424584 -1.01509e-16)
(1.22447 -0.000168191 -1.20241e-16)
(1.22427 0.000531366 -1.34508e-16)
(1.22039 0.00158758 -1.34629e-16)
(1.21168 0.00279516 -1.27535e-16)
(1.19804 0.00390154 -1.15139e-16)
(1.18038 0.00469033 -1.08242e-16)
(1.16035 0.00503299 -9.3579e-17)
(1.1399 0.00489897 -7.62583e-17)
(1.12094 0.004339 -5.48976e-17)
(1.105 0.00345912 -2.72947e-17)
(1.09313 0.00239791 7.07923e-18)
(1.08574 0.00130805 6.03464e-17)
(1.08265 0.00033926 1.30634e-16)
(1.08309 -0.000379721 2.15265e-16)
(1.08581 -0.000762695 3.08493e-16)
(1.08933 -0.000785397 4.00466e-16)
(1.09224 -0.000492045 4.86958e-16)
(1.0934 1.79391e-05 5.59416e-16)
(1.09218 0.000619051 6.1769e-16)
(1.08848 0.00119253 6.63445e-16)
(1.08263 0.00165028 6.97203e-16)
(1.07524 0.0019439 7.26008e-16)
(1.06703 0.00206143 7.50135e-16)
(1.05868 0.00201767 7.71204e-16)
(1.05082 0.00184336 7.93199e-16)
(1.04388 0.00157628 8.20022e-16)
(1.03816 0.00125522 8.48207e-16)
(1.0338 0.000916407 8.73312e-16)
(1.03081 0.000591487 8.87109e-16)
(1.02906 0.000306214 8.8035e-16)
(1.02836 7.95162e-05 8.47217e-16)
(1.02844 -7.72614e-05 7.82303e-16)
(1.029 -0.000160822 6.85998e-16)
(1.02975 -0.000175767 5.61717e-16)
(1.03044 -0.000133538 4.18322e-16)
(1.03085 -5.0422e-05 2.6906e-16)
(1.03086 5.50892e-05 1.24174e-16)
(1.03042 0.000165058 -6.77401e-18)
(1.02954 0.000264446 -1.22983e-16)
(1.0283 0.000342575 -2.28854e-16)
(1.0268 0.000393612 -3.29453e-16)
(1.02514 0.000416213 -4.35117e-16)
(1.02346 0.000412633 -5.52835e-16)
(1.02183 0.000387592 -6.91514e-16)
(1.02034 0.000347153 -8.58439e-16)
(1.01904 0.000297763 -1.05649e-15)
(1.01795 0.0002455 -1.28828e-15)
(1.01708 0.000195562 -1.54927e-15)
(1.01639 0.000151953 -1.83512e-15)
(1.01586 0.000117342 -2.13878e-15)
(1.01545 9.30668e-05 -2.45041e-15)
(1.01512 7.92511e-05 -2.76225e-15)
(1.01482 7.50034e-05 -3.06372e-15)
(1.01452 7.86772e-05 -3.34893e-15)
(1.01419 8.81605e-05 -3.61346e-15)
(1.01382 0.000101165 -3.85377e-15)
(1.01339 0.000115487 -4.07053e-15)
(1.0129 0.000129218 -4.26261e-15)
(1.01235 0.000140884 -4.43339e-15)
(1.01177 0.000149518 -4.58617e-15)
(1.01115 0.00015466 -4.72366e-15)
(1.01053 0.000156304 -4.85039e-15)
(1.0099 0.000154806 -4.96663e-15)
(1.00929 0.000150774 -5.07457e-15)
(1.00869 0.000144954 -5.17413e-15)
(1.00813 0.000138123 -5.26177e-15)
(1.00759 0.000131009 -5.33568e-15)
(1.00708 0.000124226 -5.38968e-15)
(1.00659 0.000118237 -5.41877e-15)
(1.00613 0.000113342 -5.41955e-15)
(1.00568 0.000109678 -5.3887e-15)
(1.00525 0.000107245 -5.32853e-15)
(1.00483 0.000105925 -5.24011e-15)
(1.0044 0.000105521 -5.1274e-15)
(1.00398 0.000105789 -4.99498e-15)
(1.00356 0.000106471 -4.8449e-15)
(1.00313 0.000107319 -4.68074e-15)
(1.0027 0.000108121 -4.50062e-15)
(1.00226 0.000108712 -4.30295e-15)
(1.00183 0.000108981 -4.08629e-15)
(1.00139 0.00010887 -3.84848e-15)
(1.00095 0.000108369 -3.59196e-15)
(1.00052 0.000107504 -3.31676e-15)
(1.00009 0.000106324 -3.02424e-15)
(0.999669 0.000104891 -2.71418e-15)
(0.999251 0.000103262 -2.38122e-15)
(0.998841 0.000101486 -2.01851e-15)
(0.998437 9.95932e-05 -1.61093e-15)
(0.998042 9.75916e-05 -1.14119e-15)
(0.997654 9.54667e-05 -5.90383e-16)
(0.997276 9.31836e-05 6.15488e-17)
(0.996906 9.06921e-05 8.28748e-16)
(0.996547 8.79328e-05 1.72355e-15)
(0.9962 8.48412e-05 2.75052e-15)
(0.995865 8.13424e-05 3.90369e-15)
(0.995545 7.73297e-05 5.17005e-15)
(0.995243 7.26227e-05 6.52753e-15)
(0.99496 6.69077e-05 7.95056e-15)
(0.994703 5.96767e-05 9.41169e-15)
(0.994478 5.01938e-05 1.08838e-14)
(0.994295 3.75287e-05 1.23469e-14)
(0.99417 2.06909e-05 1.37873e-14)
(0.994121 -1.12152e-06 1.52056e-14)
(0.994169 -2.81858e-05 1.66241e-14)
(0.994334 -5.99015e-05 1.80973e-14)
(0.994634 -9.45295e-05 1.97181e-14)
(0.995074 -0.000129144 2.16e-14)
(0.995649 -0.000159886 2.38421e-14)
(0.996334 -0.000182531 2.64638e-14)
(0.99709 -0.000193301 2.93232e-14)
(0.997863 -0.000189735 3.20423e-14)
(0.998593 -0.000171396 3.39541e-14)
(0.999222 -0.000140198 3.41145e-14)
(0.999706 -0.000100214 3.13916e-14)
(1.00002 -5.69746e-05 2.46506e-14)
(1.00016 -1.64133e-05 1.30273e-14)
(1.00015 1.62983e-05 -3.76228e-15)
(1.00003 3.77147e-05 -2.51385e-14)
(0.999845 4.66568e-05 -4.95092e-14)
(0.999652 4.42164e-05 -7.43244e-14)
(0.99949 3.32658e-05 -9.63793e-14)
(0.999385 1.76421e-05 -1.12369e-13)
(0.999348 1.23814e-06 -1.19582e-13)
(0.999375 -1.27708e-05 -1.16573e-13)
(0.99945 -2.24041e-05 -1.03598e-13)
(0.999554 -2.70019e-05 -8.26509e-14)
(0.999667 -2.70324e-05 -5.70864e-14)
(0.999772 -2.3718e-05 -3.08888e-14)
(0.999858 -1.85402e-05 -7.81929e-15)
(0.999921 -1.29657e-05 9.39451e-15)
(0.999961 -7.87406e-06 1.92619e-14)
(0.999985 -4.29762e-06 2.30882e-14)
(0.999994 -8.59071e-07 1.74654e-14)
(1.00014 -0.000855985 2.20663e-20)
(1.0022 -0.00258497 3.22074e-19)
(1.00686 -0.0044215 6.67593e-19)
(1.01398 -0.00640207 1.02921e-18)
(1.02385 -0.00853601 1.43448e-18)
(1.0367 -0.0107629 1.8451e-18)
(1.0526 -0.0129639 2.27233e-18)
(1.07143 -0.0149012 2.23283e-18)
(1.09266 -0.0163197 5.38093e-18)
(1.11542 -0.0169434 6.76318e-18)
(1.13837 -0.016617 4.41499e-18)
(1.16024 -0.0155494 5.23517e-18)
(1.1802 -0.013923 6.68204e-19)
(1.19763 -0.0119177 1.04371e-17)
(1.21216 -0.00968802 3.90589e-17)
(1.22357 -0.00733095 7.55282e-17)
(1.23175 -0.00492326 1.00604e-16)
(1.23667 -0.00255412 9.99352e-17)
(1.23845 -0.000359797 6.94442e-17)
(1.23741 0.00146326 1.76784e-17)
(1.2342 0.00268895 -4.93349e-17)
(1.22979 0.0031364 -1.282e-16)
(1.22537 0.00275634 -2.15845e-16)
(1.22206 0.00169496 -3.07118e-16)
(1.22066 0.000307191 -3.93397e-16)
(1.22134 -0.000894284 -4.6718e-16)
(1.22346 -0.00134537 -4.98832e-16)
(1.22559 -0.000594162 -4.61798e-16)
(1.2258 0.0015146 -3.76033e-16)
(1.22219 0.00471937 -2.71653e-16)
(1.21353 0.00839227 -1.57478e-16)
(1.1997 0.0117599 -6.93568e-17)
(1.18167 0.0141611 2.54056e-18)
(1.16118 0.0152056 7.36953e-17)
(1.14028 0.0148025 1.4357e-16)
(1.12093 0.0131076 2.42014e-16)
(1.10472 0.0104432 3.71675e-16)
(1.09271 0.00722825 5.4651e-16)
(1.08534 0.0039244 7.81443e-16)
(1.0824 0.000984948 1.05793e-15)
(1.08311 -0.00119871 1.35945e-15)
(1.08616 -0.00236258 1.63859e-15)
(1.09003 -0.00243095 1.84192e-15)
(1.09321 -0.00153778 1.93841e-15)
(1.09454 1.37974e-05 1.94733e-15)
(1.09337 0.00184118 1.92866e-15)
(1.08963 0.00358286 1.90018e-15)
(1.08366 0.00497151 1.87113e-15)
(1.07611 0.00586127 1.84764e-15)
(1.06773 0.00621715 1.82677e-15)
(1.05924 0.00608504 1.80988e-15)
(1.05126 0.00555853 1.7941e-15)
(1.04423 0.00475203 1.76857e-15)
(1.03846 0.00378267 1.72005e-15)
(1.03408 0.00275966 1.62202e-15)
(1.0311 0.00177836 1.44746e-15)
(1.02939 0.000916477 1.16874e-15)
(1.02874 0.000231221 7.71884e-16)
(1.02888 -0.00024294 2.6984e-16)
(1.02951 -0.000495755 -3.15648e-16)
(1.03033 -0.000540879 -9.46107e-16)
(1.03106 -0.000412786 -1.57482e-15)
(1.0315 -0.000160741 -2.15218e-15)
(1.03153 0.000159218 -2.63754e-15)
(1.03109 0.000492697 -3.01914e-15)
(1.03021 0.00079408 -3.30689e-15)
(1.02894 0.001031 -3.53354e-15)
(1.02741 0.00118579 -3.73002e-15)
(1.02573 0.00125444 -3.93039e-15)
(1.02401 0.00124379 -4.16449e-15)
(1.02237 0.00116818 -4.45225e-15)
(1.02087 0.00104597 -4.8122e-15)
(1.01956 0.00089667 -5.24494e-15)
(1.01846 0.000738675 -5.74463e-15)
(1.01758 0.000587704 -6.2958e-15)
(1.0169 0.000455863 -6.87462e-15)
(1.01638 0.000351229 -7.46027e-15)
(1.01598 0.000277855 -8.0243e-15)
(1.01565 0.000236121 -8.54492e-15)
(1.01536 0.000223339 -9.00452e-15)
(1.01507 0.000234532 -9.39095e-15)
(1.01475 0.000263312 -9.70467e-15)
(1.01438 0.000302752 -9.94417e-15)
(1.01394 0.000346179 -1.01159e-14)
(1.01345 0.00038781 -1.02272e-14)
(1.0129 0.000423183 -1.02856e-14)
(1.01231 0.00044937 -1.03042e-14)
(1.0117 0.00046498 -1.02877e-14)
(1.01106 0.000469998 -1.02429e-14)
(1.01043 0.000465506 -1.01725e-14)
(1.00982 0.000453345 -1.00758e-14)
(1.00922 0.000435772 -9.95332e-15)
(1.00865 0.000415144 -9.79608e-15)
(1.00811 0.000393661 -9.59674e-15)
(1.0076 0.000373179 -9.34593e-15)
(1.00711 0.000355101 -9.03501e-15)
(1.00665 0.000340333 -8.66035e-15)
(1.0062 0.000329295 -8.22002e-15)
(1.00577 0.000321979 -7.72092e-15)
(1.00534 0.000318032 -7.17288e-15)
(1.00492 0.000316859 -6.58744e-15)
(1.00449 0.00031772 -5.97686e-15)
(1.00407 0.000319832 -5.34666e-15)
(1.00364 0.000322449 -4.70075e-15)
(1.0032 0.000324928 -4.03645e-15)
(1.00277 0.000326769 -3.34759e-15)
(1.00233 0.000327636 -2.62924e-15)
(1.00189 0.000327357 -1.87574e-15)
(1.00145 0.0003259 -1.08894e-15)
(1.00101 0.000323345 -2.72535e-16)
(1.00058 0.000319845 5.68746e-16)
(1.00015 0.000315582 1.43092e-15)
(0.999733 0.000310736 2.31855e-15)
(0.999318 0.000305455 3.24012e-15)
(0.998911 0.000299831 4.21359e-15)
(0.998511 0.000293892 5.2634e-15)
(0.998119 0.000287595 6.41648e-15)
(0.997736 0.000280837 7.70417e-15)
(0.997361 0.000273468 9.15376e-15)
(0.996997 0.000265307 1.07924e-14)
(0.996643 0.00025616 1.26465e-14)
(0.996302 0.0002458 1.47375e-14)
(0.995976 0.00023391 1.70888e-14)
(0.995665 0.000219959 1.97226e-14)
(0.995375 0.000203026 2.26631e-14)
(0.995109 0.000181619 2.59413e-14)
(0.994874 0.000153571 2.95912e-14)
(0.99468 0.000116132 3.36557e-14)
(0.994542 6.63575e-05 3.81768e-14)
(0.994477 1.83925e-06 4.31946e-14)
(0.994506 -7.83018e-05 4.87577e-14)
(0.994648 -0.000172358 5.4936e-14)
(0.994921 -0.00027525 6.18168e-14)
(0.995331 -0.000378356 6.94574e-14)
(0.995872 -0.00047024 7.7807e-14)
(0.996522 -0.000538328 8.65924e-14)
(0.997243 -0.000571308 9.51864e-14)
(0.997982 -0.00056173 1.02513e-13)
(0.99868 -0.00050814 1.07013e-13)
(0.999282 -0.000416083 1.06721e-13)
(0.999743 -0.000297577 9.94859e-14)
(1.00004 -0.000169052 8.33154e-14)
(1.00017 -4.82046e-05 5.68519e-14)
(1.00015 4.94593e-05 1.98918e-14)
(1.00002 0.000113537 -2.61454e-14)
(0.999836 0.000140377 -7.79768e-14)
(0.999642 0.000133127 -1.30552e-13)
(0.999479 0.000100303 -1.77582e-13)
(0.999375 5.33604e-05 -2.12545e-13)
(0.999339 3.97394e-06 -2.30015e-13)
(0.999368 -3.82907e-05 -2.26984e-13)
(0.999446 -6.74315e-05 -2.03785e-13)
(0.999552 -8.14113e-05 -1.64224e-13)
(0.999667 -8.1597e-05 -1.14868e-13)
(0.999773 -7.16476e-05 -6.36215e-14)
(0.99986 -5.6027e-05 -1.80244e-14)
(0.999924 -3.9168e-05 1.63821e-14)
(0.999964 -2.37518e-05 3.64867e-14)
(0.999988 -1.29075e-05 4.46784e-14)
(0.999995 -2.50735e-06 3.43542e-14)
(1.00014 -0.00141791 3.15866e-22)
(1.00216 -0.00428384 3.33592e-21)
(1.00674 -0.00733466 9.19558e-22)
(1.01377 -0.0106371 8.22906e-21)
(1.02357 -0.0142115 -1.49308e-19)
(1.0364 -0.0179614 2.38714e-19)
(1.05242 -0.0216903 -7.71674e-19)
(1.07153 -0.0249897 -1.49126e-18)
(1.09322 -0.0274208 6.04839e-18)
(1.11659 -0.0284859 -6.69157e-19)
(1.14013 -0.0279089 -3.5546e-17)
(1.16246 -0.0260814 -3.09162e-17)
(1.18276 -0.0233211 9.04986e-17)
(1.20041 -0.0199371 2.98597e-16)
(1.21507 -0.0161894 4.53569e-16)
(1.22655 -0.0122341 4.15262e-16)
(1.23474 -0.00819086 1.44812e-16)
(1.2396 -0.00420124 -2.83569e-16)
(1.2412 -0.000491236 -7.36413e-16)
(1.23984 0.00260288 -1.15122e-15)
(1.23616 0.00468657 -1.50267e-15)
(1.23122 0.00543798 -1.77373e-15)
(1.22628 0.0047602 -1.94132e-15)
(1.22263 0.00289429 -1.95768e-15)
(1.22119 0.000445254 -1.76502e-15)
(1.22219 -0.00170234 -1.34613e-15)
(1.22496 -0.0025657 -5.91871e-16)
(1.22796 -0.00134682 4.64245e-16)
(1.22898 0.0022382 1.5182e-15)
(1.22588 0.00773925 2.32374e-15)
(1.21725 0.0140578 2.80814e-15)
(1.20296 0.0198435 3.00719e-15)
(1.18412 0.0239538 3.02447e-15)
(1.16266 0.0257266 2.98543e-15)
(1.14081 0.0250212 3.00005e-15)
(1.12068 0.0221158 3.15453e-15)
(1.10395 0.0175656 3.50637e-15)
(1.09173 0.0120845 4.07323e-15)
(1.08445 0.00645597 4.78224e-15)
(1.08191 0.00145109 5.47966e-15)
(1.08322 -0.00226056 6.06481e-15)
(1.087 -0.0042238 6.33563e-15)
(1.09156 -0.00430747 6.05143e-15)
(1.09528 -0.00274471 5.21075e-15)
(1.09692 -6.2337e-05 4.21308e-15)
(1.0958 0.00307742 3.50452e-15)
(1.09189 0.00605315 3.14518e-15)
(1.08561 0.00841093 3.02978e-15)
(1.07769 0.0099087 3.03451e-15)
(1.06895 0.0104947 3.06352e-15)
(1.06015 0.0102534 3.05006e-15)
(1.05193 0.00934766 2.94198e-15)
(1.04475 0.00797316 2.68033e-15)
(1.0389 0.00632816 2.19564e-15)
(1.03452 0.00459659 1.39893e-15)
(1.03159 0.0029387 2.01133e-16)
(1.02998 0.00148507 -1.45391e-15)
(1.02947 0.000331928 -3.54192e-15)
(1.02976 -0.000462697 -5.93542e-15)
(1.03054 -0.000881724 -8.46656e-15)
(1.03149 -0.000948704 -1.09322e-14)
(1.03232 -0.000722675 -1.31266e-14)
(1.03283 -0.000287867 -1.48899e-14)
(1.03288 0.000260087 -1.61446e-14)
(1.03243 0.000828596 -1.6926e-14)
(1.0315 0.00134034 -1.73414e-14)
(1.03018 0.00174083 -1.75324e-14)
(1.02859 0.00200077 -1.76402e-14)
(1.02684 0.00211406 -1.77839e-14)
(1.02507 0.00209297 -1.8056e-14)
(1.02338 0.00196226 -1.85083e-14)
(1.02185 0.00175334 -1.91599e-14)
(1.02053 0.00149938 -1.99943e-14)
(1.01943 0.00123152 -2.09636e-14)
(1.01856 0.000976256 -2.20004e-14)
(1.01789 0.000753953 -2.3022e-14)
(1.01739 0.000578112 -2.39503e-14)
(1.01701 0.00045543 -2.4718e-14)
(1.01671 0.000386394 -2.52778e-14)
(1.01644 0.000366317 -2.56086e-14)
(1.01616 0.000386664 -2.57089e-14)
(1.01584 0.000436541 -2.55987e-14)
(1.01547 0.000504172 -2.53074e-14)
(1.01503 0.000578248 -2.48668e-14)
(1.01453 0.000648994 -2.43084e-14)
(1.01398 0.0007089 -2.36543e-14)
(1.01338 0.000753067 -2.29233e-14)
(1.01275 0.000779208 -2.2126e-14)
(1.01211 0.000787365 -2.12654e-14)
(1.01147 0.00077943 -2.03403e-14)
(1.01084 0.000758568 -1.93409e-14)
(1.01024 0.000728635 -1.82542e-14)
(1.00967 0.000693636 -1.70623e-14)
(1.00912 0.000657298 -1.57458e-14)
(1.00861 0.000622754 -1.42872e-14)
(1.00812 0.000592362 -1.26754e-14)
(1.00766 0.000567632 -1.09102e-14)
(1.00721 0.000549254 -9.00478e-15)
(1.00678 0.00053719 -6.98475e-15)
(1.00635 0.000530826 -4.88467e-15)
(1.00592 0.000529138 -2.74069e-15)
(1.0055 0.000530865 -5.82758e-16)
(1.00507 0.000534677 1.57258e-15)
(1.00463 0.000539309 3.725e-15)
(1.00419 0.000543677 5.88884e-15)
(1.00375 0.000546941 8.08709e-15)
(1.00331 0.000548541 1.03425e-14)
(1.00286 0.000548196 1.26695e-14)
(1.00242 0.000545861 1.50697e-14)
(1.00197 0.000541684 1.75309e-14)
(1.00153 0.000535928 2.00334e-14)
(1.0011 0.000528912 2.25567e-14)
(1.00067 0.000520945 2.5088e-14)
(1.00025 0.00051228 2.76275e-14)
(0.999837 0.000503076 3.01899e-14)
(0.999429 0.000493383 3.28031e-14)
(0.999029 0.000483134 3.55065e-14)
(0.998636 0.000472156 3.83506e-14)
(0.998252 0.000460195 4.13998e-14)
(0.997877 0.000446948 4.47382e-14)
(0.997512 0.000432082 4.84769e-14)
(0.997158 0.000415212 5.27598e-14)
(0.996818 0.000395808 5.7767e-14)
(0.996494 0.000373 6.37144e-14)
(0.996188 0.000345296 7.08498e-14)
(0.995906 0.000310282 7.94462e-14)
(0.995653 0.000264451 8.97901e-14)
(0.995439 0.00020334 1.02163e-13)
(0.995278 0.000122148 1.16814e-13)
(0.995185 1.6913e-05 1.33927e-13)
(0.995181 -0.000113869 1.53615e-13)
(0.995284 -0.000267507 1.75935e-13)
(0.995509 -0.000435806 2.0084e-13)
(0.995865 -0.000604758 2.28038e-13)
(0.996345 -0.000755692 2.56799e-13)
(0.996928 -0.000867995 2.85708e-13)
(0.99758 -0.000923037 3.12459e-13)
(0.99825 -0.00090846 3.33753e-13)
(0.998883 -0.000821713 3.454e-13)
(0.999425 -0.00067175 3.42641e-13)
(0.999834 -0.000478211 3.20709e-13)
(1.00009 -0.000268067 2.75588e-13)
(1.00018 -7.04549e-05 2.04934e-13)
(1.00014 8.90333e-05 1.09085e-13)
(1 0.000193176 -8.03524e-15)
(0.999808 0.000235883 -1.38452e-13)
(0.999612 0.000222317 -2.70295e-13)
(0.999451 0.000166557 -3.8888e-13)
(0.999351 8.7594e-05 -4.78878e-13)
(0.999322 4.82054e-06 -5.27331e-13)
(0.999356 -6.58503e-05 -5.26807e-13)
(0.99944 -0.000114425 -4.77674e-13)
(0.999552 -0.000137522 -3.88582e-13)
(0.999671 -0.000137458 -2.74874e-13)
(0.99978 -0.00012039 -1.55272e-13)
(0.999868 -9.38465e-05 -4.78085e-14)
(0.999932 -6.52803e-05 3.40976e-14)
(0.99997 -3.92624e-05 8.27342e-14)
(0.999993 -2.09628e-05 1.03324e-13)
(0.999998 -3.67152e-06 8.05668e-14)
(1.00014 -0.00196661 -3.27277e-20)
(1.00209 -0.00594421 -4.9299e-19)
(1.00655 -0.0101936 -8.42564e-19)
(1.01343 -0.0148188 -1.61213e-18)
(1.02311 -0.0198595 -1.73222e-18)
(1.03591 -0.0251901 -1.60109e-18)
(1.05208 -0.0305402 -1.10466e-17)
(1.07161 -0.0353119 1.70203e-17)
(1.09401 -0.0388629 4.86446e-18)
(1.11833 -0.0404086 -1.34455e-16)
(1.14279 -0.0395258 -3.6423e-17)
(1.16581 -0.0368616 6.15118e-16)
(1.18661 -0.0328904 1.25262e-15)
(1.20458 -0.0280654 8.48982e-16)
(1.21943 -0.0227564 -1.13369e-15)
(1.23101 -0.0171684 -4.25061e-15)
(1.23923 -0.0114497 -7.39611e-15)
(1.244 -0.00577943 -9.51711e-15)
(1.24534 -0.000468943 -1.00515e-14)
(1.24348 0.00399186 -9.60433e-15)
(1.2391 0.00700952 -8.40221e-15)
(1.23331 0.0080859 -6.48535e-15)
(1.22758 0.00705129 -3.7697e-15)
(1.22339 0.0042378 -7.87025e-17)
(1.22186 0.000522035 4.82829e-15)
(1.22334 -0.00279488 1.11495e-14)
(1.22716 -0.00424427 1.83092e-14)
(1.23151 -0.00261096 2.42811e-14)
(1.23383 0.00255784 2.7735e-14)
(1.23154 0.0106017 2.87401e-14)
(1.22295 0.0198697 2.77444e-14)
(1.20793 0.0283375 2.54438e-14)
(1.1878 0.0343165 2.26564e-14)
(1.16482 0.0368564 2.00836e-14)
(1.14151 0.0357841 1.81739e-14)
(1.12018 0.0315319 1.71643e-14)
(1.10266 0.0249173 1.70297e-14)
(1.09012 0.0169739 1.74698e-14)
(1.08301 0.00882979 1.76747e-14)
(1.08108 0.00159812 1.66868e-14)
(1.08335 -0.00374622 1.42939e-14)
(1.08826 -0.0065343 9.89427e-15)
(1.09391 -0.0065735 3.31667e-15)
(1.09847 -0.00421372 -4.1666e-15)
(1.10057 -0.00024164 -1.0025e-14)
(1.0995 0.0043607 -1.24916e-14)
(1.0953 0.00868232 -1.20879e-14)
(1.08852 0.0120707 -1.00966e-14)
(1.08002 0.0141912 -7.66379e-15)
(1.07071 0.0149872 -5.55089e-15)
(1.06142 0.0145955 -4.17632e-15)
(1.05283 0.01326 -3.76626e-15)
(1.04542 0.0112654 -4.4859e-15)
(1.03946 0.00889621 -6.51113e-15)
(1.03509 0.00641384 -1.00391e-14)
(1.03226 0.0040453 -1.51984e-14)
(1.03082 0.00197532 -2.19284e-14)
(1.03053 0.00034006 -2.98573e-14)
(1.03106 -0.000778465 -3.83188e-14)
(1.03207 -0.00135669 -4.65211e-14)
(1.03322 -0.00142959 -5.36349e-14)
(1.03421 -0.00108348 -5.90137e-14)
(1.03481 -0.000441096 -6.23901e-14)
(1.03489 0.000358709 -6.39182e-14)
(1.03442 0.00118211 -6.40124e-14)
(1.03342 0.00191819 -6.3168e-14)
(1.03201 0.00248971 -6.18727e-14)
(1.03031 0.00285623 -6.05328e-14)
(1.02847 0.00301076 -5.94533e-14)
(1.02662 0.00297252 -5.88212e-14)
(1.02486 0.0027782 -5.87019e-14)
(1.02329 0.00247361 -5.90577e-14)
(1.02195 0.00210658 -5.97502e-14)
(1.02085 0.00172171 -6.05763e-14)
(1.02 0.00135674 -6.12985e-14)
(1.01935 0.00104044 -6.16819e-14)
(1.01888 0.000791741 -6.15419e-14)
(1.01854 0.000619796 -6.07601e-14)
(1.01827 0.000524905 -5.93101e-14)
(1.01802 0.000500006 -5.72464e-14)
(1.01776 0.000532594 -5.46822e-14)
(1.01745 0.000606858 -5.17643e-14)
(1.01709 0.000705809 -4.86273e-14)
(1.01665 0.000813208 -4.53806e-14)
(1.01614 0.000915097 -4.20904e-14)
(1.01557 0.00100083 -3.87794e-14)
(1.01495 0.00106354 -3.54409e-14)
(1.01431 0.00110014 -3.20371e-14)
(1.01365 0.00111087 -2.8521e-14)
(1.01299 0.00109858 -2.48393e-14)
(1.01236 0.00106795 -2.09383e-14)
(1.01174 0.00102456 -1.67722e-14)
(1.01116 0.000974194 -1.22954e-14)
(1.01062 0.000922186 -7.47595e-15)
(1.0101 0.000872999 -2.29737e-15)
(1.00961 0.000829961 3.23424e-15)
(1.00915 0.000795177 9.08217e-15)
(1.0087 0.000769573 1.51829e-14)
(1.00827 0.000753043 2.14451e-14)
(1.00784 0.000744659 2.77677e-14)
(1.00741 0.000742918 3.40574e-14)
(1.00698 0.000745991 4.02472e-14)
(1.00655 0.000751961 4.63153e-14)
(1.0061 0.00075902 5.22843e-14)
(1.00566 0.000765619 5.82179e-14)
(1.00521 0.000770576 6.42007e-14)
(1.00475 0.000773112 7.03118e-14)
(1.0043 0.000772845 7.66054e-14)
(1.00385 0.00076974 8.30892e-14)
(1.00339 0.000764029 8.97269e-14)
(1.00294 0.000756109 9.64471e-14)
(1.0025 0.000746451 1.0316e-13)
(1.00206 0.000735506 1.09779e-13)
(1.00163 0.000723643 1.16235e-13)
(1.00121 0.000711097 1.22484e-13)
(1.00079 0.000697943 1.28516e-13)
(1.00037 0.000684089 1.34356e-13)
(0.999967 0.000669294 1.40087e-13)
(0.999568 0.000653198 1.45861e-13)
(0.999178 0.000635363 1.51941e-13)
(0.998796 0.000615308 1.58731e-13)
(0.998425 0.000592477 1.66796e-13)
(0.998065 0.000566121 1.76872e-13)
(0.99772 0.000535044 1.89852e-13)
(0.997392 0.000497223 2.06749e-13)
(0.997086 0.000449414 2.28648e-13)
(0.996807 0.0003869 2.56637e-13)
(0.996564 0.000303669 2.91741e-13)
(0.99637 0.000193227 3.34814e-13)
(0.996239 5.01735e-05 3.86429e-13)
(0.996188 -0.0001276 4.46785e-13)
(0.996235 -0.00033655 5.15691e-13)
(0.996394 -0.000565659 5.92404e-13)
(0.996671 -0.000795968 6.75245e-13)
(0.997062 -0.0010021 7.6113e-13)
(0.997549 -0.00115592 8.45101e-13)
(0.998098 -0.00123191 9.20045e-13)
(0.998664 -0.00121305 9.76811e-13)
(0.999197 -0.00109571 1.00477e-12)
(0.999647 -0.00089202 9.92832e-13)
(0.999976 -0.00062882 9.3078e-13)
(1.00016 -0.000343087 8.10803e-13)
(1.00021 -7.48436e-05 6.2921e-13)
(1.00013 0.000140717 3.88303e-13)
(0.999964 0.000279907 9.81115e-14)
(0.99976 0.000334395 -2.22626e-13)
(0.999562 0.000311418 -5.46577e-13)
(0.999405 0.000230569 -8.39901e-13)
(0.999313 0.000118269 -1.06689e-12)
(0.999294 1.50332e-06 -1.19678e-12)
(0.99934 -9.75971e-05 -1.21122e-12)
(0.999434 -0.000165175 -1.10984e-12)
(0.999554 -0.000196634 -9.11863e-13)
(0.999679 -0.000195382 -6.52617e-13)
(0.999792 -0.000170213 -3.75964e-13)
(0.999881 -0.000131871 -1.24673e-13)
(0.999944 -9.0891e-05 6.89514e-14)
(0.999981 -5.38738e-05 1.8587e-13)
(1 -2.78608e-05 2.37248e-13)
(1 -3.93747e-06 1.87784e-13)
(1.00013 -0.00249539 -2.33544e-18)
(1.002 -0.00754706 -7.34156e-18)
(1.00628 -0.0129702 -6.13623e-18)
(1.01293 -0.0189164 -9.33764e-18)
(1.02242 -0.0254574 4.71484e-19)
(1.03515 -0.03245 -2.92374e-17)
(1.0515 -0.0395568 1.98454e-17)
(1.07158 -0.0459655 8.3014e-17)
(1.09497 -0.0508017 -4.25505e-16)
(1.12063 -0.0528865 1.07554e-17)
(1.14636 -0.0516083 2.32586e-15)
(1.17031 -0.0479907 2.59275e-15)
(1.19176 -0.042696 -4.19813e-15)
(1.21014 -0.0363395 -1.78738e-14)
(1.22523 -0.0294057 -3.25978e-14)
(1.23696 -0.0221344 -4.12858e-14)
(1.24522 -0.0146829 -4.00649e-14)
(1.24989 -0.00724947 -2.96121e-14)
(1.25089 -0.000225975 -1.37096e-14)
(1.24838 0.00572771 3.4774e-15)
(1.24301 0.00977713 2.09867e-14)
(1.23604 0.0111995 3.90638e-14)
(1.22916 0.00971578 5.83705e-14)
(1.22418 0.00574009 7.89671e-14)
(1.2225 0.000449058 1.01674e-13)
(1.22465 -0.00437205 1.2912e-13)
(1.22992 -0.00666823 1.53205e-13)
(1.23621 -0.00469703 1.58497e-13)
(1.24041 0.00222865 1.45485e-13)
(1.23929 0.0132021 1.28081e-13)
(1.23077 0.0258877 1.11361e-13)
(1.21471 0.0374353 9.62587e-14)
(1.19276 0.0455157 8.27437e-14)
(1.16764 0.0488723 7.1058e-14)
(1.14229 0.0473327 6.16398e-14)
(1.11932 0.0415318 5.45405e-14)
(1.10072 0.0325937 4.88946e-14)
(1.08775 0.0219055 4.23282e-14)
(1.08088 0.0109713 3.04078e-14)
(1.07981 0.00127869 9.35018e-15)
(1.08343 -0.00585305 -2.10589e-14)
(1.08992 -0.00950556 -5.99037e-14)
(1.0971 -0.00941337 -1.00755e-13)
(1.10283 -0.00606847 -1.32701e-13)
(1.10554 -0.000571587 -1.47186e-13)
(1.10453 0.00571497 -1.43689e-13)
(1.0999 0.0115463 -1.28152e-13)
(1.09241 0.0160542 -1.07573e-13)
(1.08308 0.018817 -8.73868e-14)
(1.07298 0.0197916 -7.08679e-14)
(1.06303 0.0191881 -5.9533e-14)
(1.05395 0.0173483 -5.38558e-14)
(1.04622 0.0146576 -5.39089e-14)
(1.04013 0.0114936 -5.97039e-14)
(1.03576 0.00819934 -7.11813e-14)
(1.03307 0.00507097 -8.78714e-14)
(1.03188 0.00234926 -1.08567e-13)
(1.03189 0.000211724 -1.31288e-13)
(1.03275 -0.00123492 -1.53517e-13)
(1.03409 -0.00196122 -1.72441e-13)
(1.03551 -0.00201596 -1.85609e-13)
(1.03671 -0.00151687 -1.91836e-13)
(1.03744 -0.000630345 -1.91738e-13)
(1.03756 0.000456185 -1.87358e-13)
(1.03705 0.00156328 -1.80751e-13)
(1.03596 0.00254368 -1.73331e-13)
(1.03442 0.00329661 -1.66028e-13)
(1.03258 0.00377123 -1.59428e-13)
(1.0306 0.00396152 -1.53852e-13)
(1.02863 0.00389592 -1.49377e-13)
(1.02679 0.00362532 -1.45837e-13)
(1.02516 0.00321182 -1.42852e-13)
(1.02379 0.00271942 -1.39869e-13)
(1.0227 0.00220719 -1.36245e-13)
(1.02186 0.00172471 -1.31362e-13)
(1.02126 0.00130943 -1.24729e-13)
(1.02084 0.000985626 -1.16106e-13)
(1.02054 0.000764657 -1.05545e-13)
(1.02031 0.000646177 -9.33844e-14)
(1.0201 0.000620184 -8.01804e-14)
(1.01986 0.00066959 -6.65724e-14)
(1.01957 0.000773064 -5.3163e-14)
(1.01921 0.000907879 -4.03975e-14)
(1.01876 0.00105246 -2.85081e-14)
(1.01824 0.00118839 -1.75112e-14)
(1.01765 0.00130177 -7.23783e-15)
(1.01701 0.00138381 2.5904e-15)
(1.01635 0.00143072 1.23059e-14)
(1.01567 0.00144314 2.22335e-14)
(1.01499 0.00142515 3.26509e-14)
(1.01434 0.00138314 4.37744e-14)
(1.01372 0.00132467 5.5746e-14)
(1.01313 0.00125747 6.86406e-14)
(1.01258 0.0011886 8.2464e-14)
(1.01206 0.00112392 9.71567e-14)
(1.01157 0.00106777 1.12592e-13)
(1.01111 0.00102281 1.2858e-13)
(1.01066 0.000990173 1.44882e-13)
(1.01023 0.000969608 1.6123e-13)
(1.0098 0.0009598 1.77365e-13)
(1.00936 0.000958691 1.93081e-13)
(1.00893 0.000963818 2.08267e-13)
(1.00848 0.000972616 2.22937e-13)
(1.00804 0.000982691 2.37229e-13)
(1.00758 0.000992012 2.51378e-13)
(1.00712 0.000999041 2.65662e-13)
(1.00665 0.00100279 2.80331e-13)
(1.00619 0.00100279 2.95553e-13)
(1.00572 0.000999051 3.11357e-13)
(1.00526 0.000991915 3.27632e-13)
(1.0048 0.000981943 3.44137e-13)
(1.00434 0.000969783 3.60544e-13)
(1.00389 0.00095605 3.76493e-13)
(1.00344 0.000941244 3.91629e-13)
(1.003 0.000925681 4.05646e-13)
(1.00257 0.000909467 4.1832e-13)
(1.00214 0.000892488 4.29555e-13)
(1.00171 0.000874433 4.39453e-13)
(1.0013 0.00085483 4.48403e-13)
(1.00089 0.000833098 4.57191e-13)
(1.00048 0.00080859 4.67102e-13)
(1.00009 0.000780561 4.79988e-13)
(0.999704 0.000748036 4.98267e-13)
(0.999332 0.000709499 5.24854e-13)
(0.998975 0.000662454 5.63007e-13)
(0.998637 0.000602928 6.16124e-13)
(0.998325 0.000525171 6.87513e-13)
(0.998045 0.000421841 7.80145e-13)
(0.997808 0.000284983 8.96368e-13)
(0.997627 0.000107947 1.03759e-12)
(0.997516 -0.000111924 1.20392e-12)
(0.997492 -0.000370356 1.39397e-12)
(0.997565 -0.000653864 1.60448e-12)
(0.997742 -0.000939108 1.82941e-12)
(0.998018 -0.00119472 2.05889e-12)
(0.998378 -0.00138581 2.27845e-12)
(0.998791 -0.00148065 2.46892e-12)
(0.99922 -0.00145796 2.60733e-12)
(0.999618 -0.00131314 2.66877e-12)
(0.999944 -0.00106127 2.62909e-12)
(1.00016 -0.000735842 2.4677e-12)
(1.00026 -0.000383092 2.17041e-12)
(1.00023 -5.31135e-05 1.7323e-12)
(1.0001 0.00021004 1.16101e-12)
(0.999909 0.000376789 4.79897e-13)
(0.999691 0.000436913 -2.69677e-13)
(0.99949 0.00039986 -1.02791e-12)
(0.99934 0.000290709 -1.72023e-12)
(0.999261 0.00014317 -2.26672e-12)
(0.999257 -8.37502e-06 -2.59701e-12)
(0.999319 -0.000135787 -2.66711e-12)
(0.999427 -0.000221564 -2.47285e-12)
(0.999559 -0.000260121 -2.05434e-12)
(0.999692 -0.000256192 -1.48924e-12)
(0.99981 -0.000221418 -8.75888e-13)
(0.9999 -0.000169973 -3.11706e-13)
(0.999962 -0.000115572 1.28439e-13)
(0.999995 -6.70231e-05 3.99139e-13)
(1.00001 -3.29693e-05 5.2275e-13)
(1.00001 -2.87673e-06 4.20906e-13)
(1.00012 -0.00299672 2.18388e-18)
(1.00187 -0.00907021 8.27927e-18)
(1.00591 -0.0156304 5.77797e-18)
(1.01226 -0.0228908 9.97529e-18)
(1.02146 -0.0309716 2.33479e-17)
(1.03404 -0.0397311 -9.7939e-17)
(1.05057 -0.0487772 4.59858e-16)
(1.07132 -0.0570531 -9.53506e-16)
(1.09599 -0.0634163 -5.01383e-16)
(1.12347 -0.0661203 6.70713e-15)
(1.15087 -0.0643074 2.78843e-15)
(1.17599 -0.059569 -2.88821e-14)
(1.19824 -0.052796 -7.15399e-14)
(1.21711 -0.0447945 -8.65824e-14)
(1.23247 -0.0361683 -4.70743e-14)
(1.24436 -0.0271663 4.40097e-14)
(1.2527 -0.0179199 1.5886e-13)
(1.25727 -0.00861145 2.63773e-13)
(1.25787 0.000299312 3.33103e-13)
(1.25452 0.00795131 3.80753e-13)
(1.24787 0.0132025 4.14097e-13)
(1.23931 0.0150287 4.38123e-13)
(1.23087 0.0129872 4.54842e-13)
(1.22479 0.00756435 4.59232e-13)
(1.22286 0.000276505 4.50176e-13)
(1.22587 -0.00652026 4.34109e-13)
(1.2331 -0.010046 3.77882e-13)
(1.24206 -0.00787085 2.52313e-13)
(1.24884 0.00102507 1.00446e-13)
(1.24934 0.0154455 8.99806e-15)
(1.24092 0.032187 -1.15109e-14)
(1.22343 0.0473576 9.51139e-15)
(1.19904 0.0578527 3.89482e-14)
(1.17108 0.0620862 5.82549e-14)
(1.14305 0.0599361 6.30298e-14)
(1.11794 0.0523109 5.45906e-14)
(1.09794 0.0407001 3.20046e-14)
(1.08442 0.0268883 -1.24051e-14)
(1.07788 0.012793 -9.18866e-14)
(1.07795 0.000321618 -2.16083e-13)
(1.08335 -0.00880664 -3.84939e-13)
(1.09196 -0.0133738 -5.75113e-13)
(1.10116 -0.0130256 -7.30279e-13)
(1.10843 -0.00843215 -7.96907e-13)
(1.11194 -0.0010856 -7.72397e-13)
(1.11095 0.00718678 -6.96243e-13)
(1.10573 0.014745 -5.98511e-13)
(1.09727 0.020484 -4.97975e-13)
(1.08685 0.0239066 -4.07163e-13)
(1.07572 0.0250109 -3.34135e-13)
(1.06492 0.0241092 -2.82745e-13)
(1.05521 0.0216639 -2.53586e-13)
(1.04709 0.0181762 -2.45536e-13)
(1.04083 0.0141249 -2.56773e-13)
(1.0365 0.00993916 -2.84585e-13)
(1.034 0.00598734 -3.24404e-13)
(1.03312 0.00256826 -3.69602e-13)
(1.03352 -9.76025e-05 -4.13007e-13)
(1.03482 -0.00187781 -4.47371e-13)