/*--------------------------------*- C++ -*----------------------------------*\
  =========                 |
  \\      /  F ield         | OpenFOAM: The Open Source CFD Toolbox
   \\    /   O peration     | Website:  https://openfoam.org
    \\  /    A nd           | Version:  11
     \\/     M anipulation  |
\*---------------------------------------------------------------------------*/
FoamFile
{
    format      ascii;
    class       surfaceScalarField;
    location    "9.177705";
    object      phi_0;
}
// * * * * * * * * * * * * * * * * * * * * * * * * * * * * * * * * * * * * * //

dimensions      [0 3 -1 0 0 0 0];

internalField   nonuniform List<scalar> 
14638
(
0.00250278
-2.77772e-06
0.00251115
-8.36855e-06
0.00252539
-1.42428e-05
0.00254586
-2.04733e-05
0.00257291
-2.70428e-05
0.0026066
-3.36986e-05
0.00264659
-3.99884e-05
0.00269166
-4.50679e-05
0.00273969
-4.80304e-05
0.00278763
-4.79401e-05
0.00283192
-4.42894e-05
0.00286981
-3.78902e-05
0.00289942
-2.96124e-05
0.00291992
-2.04988e-05
0.0029317
-1.1775e-05
0.00293632
-4.62493e-06
0.0029363
1.96779e-08
0.00293446
1.84318e-06
0.00293305
1.41327e-06
0.00293286
1.88279e-07
0.00293267
1.90559e-07
0.00292926
3.40344e-06
0.00291834
1.09202e-05
0.00289619
2.21542e-05
0.00286135
3.48397e-05
0.00281536
4.59849e-05
0.00276238
5.29821e-05
0.00270819
5.41947e-05
0.00265921
4.8981e-05
0.00262176
3.74435e-05
0.00260151
2.02519e-05
0.00260283
-1.32002e-06
0.00262793
-2.51014e-05
0.00267544
-4.75121e-05
0.00273886
-6.34198e-05
0.00280615
-6.72832e-05
0.00286198
-5.58363e-05
0.00289276
-3.07802e-05
0.00289154
1.22769e-06
0.00285971
3.18307e-05
0.00280495
5.47535e-05
0.00273761
6.73382e-05
0.00266796
6.96553e-05
0.0026051
6.28554e-05
0.00255715
4.79555e-05
0.00253177
2.53742e-05
0.0025366
-4.82949e-06
0.00257865
-4.20455e-05
0.00266205
-8.34041e-05
0.00278409
-0.000122039
0.00293108
-0.000146991
0.00307768
-0.000146594
0.00319263
-0.000114958
0.00325031
-5.76718e-05
0.00324141
8.89158e-06
0.00317577
6.56408e-05
0.00307544
0.000100333
0.0029641
0.000111342
0.00285983
0.000104269
0.00277333
8.65021e-05
0.0027095
6.38249e-05
0.00266981
3.96894e-05
0.0026538
1.60079e-05
0.00265952
-5.71206e-06
0.00268312
-2.3603e-05
0.00271856
-3.54375e-05
0.00275787
-3.93131e-05
0.00279249
-3.46149e-05
0.00281514
-2.26523e-05
0.00282161
-6.47307e-06
0.00281145
1.01571e-05
0.00278743
2.40249e-05
0.00275412
3.33083e-05
0.00271646
3.76583e-05
0.00267871
3.77542e-05
0.00264397
3.47353e-05
0.0026142
2.97699e-05
0.00259037
2.38363e-05
0.0025727
1.7666e-05
0.00256093
1.17727e-05
0.00255442
6.50528e-06
0.00255232
2.09846e-06
0.00255362
-1.29347e-06
0.0025572
-3.58374e-06
0.00256196
-4.75823e-06
0.00256685
-4.88709e-06
0.00257098
-4.12953e-06
0.0025737
-2.72175e-06
0.00257464
-9.46408e-07
0.00257373
9.09343e-07
0.00257114
2.59585e-06
0.00256721
3.93185e-06
0.00256239
4.81761e-06
0.00255716
5.23134e-06
0.00255194
5.2138e-06
0.0025471
4.84752e-06
0.00254286
4.23595e-06
0.00253938
3.48582e-06
0.00253668
2.6944e-06
0.00253474
1.94163e-06
0.00253345
1.28651e-06
0.00253269
7.66607e-07
0.00253229
3.99722e-07
0.0025321
1.86685e-07
0.00253198
1.14791e-07
0.00253182
1.61423e-07
0.00253153
2.97696e-07
0.00253103
4.92024e-07
0.00253032
7.13393e-07
0.00252939
9.34128e-07
0.00252825
1.13192e-06
0.00252696
1.29104e-06
0.00252556
1.40264e-06
0.0025241
1.46436e-06
0.00252262
1.47926e-06
0.00252116
1.45442e-06
0.00251976
1.39943e-06
0.00251844
1.3249e-06
0.0025172
1.24117e-06
0.00251604
1.15736e-06
0.00251496
1.08073e-06
0.00251394
1.01636e-06
0.00251298
9.67161e-07
0.00251204
9.34e-07
0.00251113
9.16091e-07
0.00251021
9.11401e-07
0.0025093
9.17091e-07
0.00250837
9.29945e-07
0.00250742
9.46737e-07
0.00250646
9.64527e-07
0.00250547
9.80873e-07
0.00250448
9.93949e-07
0.00250348
1.00259e-06
0.00250247
1.00626e-06
0.00250147
1.00496e-06
0.00250047
9.99097e-07
0.00249948
9.89364e-07
0.0024985
9.76552e-07
0.00249754
9.61439e-07
0.0024966
9.44672e-07
0.00249567
9.26691e-07
0.00249476
9.07693e-07
0.00249387
8.87621e-07
0.00249301
8.66204e-07
0.00249216
8.42979e-07
0.00249135
8.17385e-07
0.00249056
7.88627e-07
0.0024898
7.55879e-07
0.00248909
7.17481e-07
0.00248841
6.71897e-07
0.0024878
6.14686e-07
0.00248726
5.43769e-07
0.00248681
4.47798e-07
0.00248648
3.30661e-07
0.00248631
1.62983e-07
0.00248633
-1.46015e-08
0.00248662
-2.94498e-07
0.00248712
-4.94153e-07
0.00248803
-9.15375e-07
-1.11198e-06
0.00250276
-5.5333e-06
0.00251106
-1.66771e-05
0.00252523
-2.84049e-05
0.00254564
-4.0883e-05
0.00257268
-5.40898e-05
0.00260652
-6.75321e-05
0.00264684
-8.03098e-05
0.00269246
-9.06937e-05
0.00274126
-9.68251e-05
0.00279003
-9.67128e-05
0.00283502
-8.92774e-05
0.00287339
-7.62622e-05
0.00290322
-5.94373e-05
0.00292363
-4.09106e-05
0.00293503
-2.31739e-05
0.00293906
-8.65657e-06
0.00293838
7.00787e-07
0.00293601
4.21024e-06
0.00293441
3.00959e-06
0.00293451
9.14792e-08
0.00293505
-3.52424e-07
0.00293262
5.83602e-06
0.00292254
2.09965e-05
0.00290075
4.39501e-05
0.0028656
6.99854e-05
0.00281869
9.28932e-05
0.00276436
0.000107318
0.0027086
0.000109958
0.00265801
9.95623e-05
0.0026191
7.63624e-05
0.00259767
4.16726e-05
0.0025984
-2.0446e-06
0.00262384
-5.05396e-05
0.00267294
-9.66104e-05
0.00273919
-0.000129674
0.00280998
-0.000138077
0.00286896
-0.000114812
0.00290151
-6.33273e-05
0.00290028
2.4516e-06
0.00286702
6.50962e-05
0.00281007
0.000111702
0.00274035
0.000137053
0.00266841
0.000141595
0.00260338
0.000127885
0.00255328
9.80592e-05
0.00252578
5.28712e-05
0.00252881
-7.8547e-06
0.00257012
-8.33611e-05
0.00265495
-0.000168226
0.00278131
-0.000248402
0.00293514
-0.000300819
0.00308917
-0.000300625
0.0032095
-0.000235288
0.00326864
-0.000116815
0.00325729
2.02392e-05
0.00318676
0.000136173
0.00308113
0.00020597
0.00296552
0.00022695
0.00285847
0.000211319
0.00277042
0.000174548
0.00270586
0.00012839
0.00266594
7.96089e-05
0.00265014
3.18004e-05
0.0026566
-1.2171e-05
0.00268155
-4.85525e-05
0.00271884
-7.27195e-05
0.00276018
-8.06532e-05
0.00279656
-7.09978e-05
0.00282033
-4.64239e-05
0.0028271
-1.32396e-05
0.00281649
2.07623e-05
0.00279155
4.89711e-05
0.00275715
6.77011e-05
0.00271849
7.63251e-05
0.00267993
7.63134e-05
0.00264462
7.0038e-05
0.0026145
5.98901e-05
0.00259049
4.78461e-05
0.00257279
3.53691e-05
0.00256108
2.34789e-05
0.00255472
1.28656e-05
0.00255283
3.99333e-06
0.00255437
-2.83054e-06
0.00255821
-7.43033e-06
0.00256323
-9.77466e-06
0.00256835
-1.00029e-05
0.00257265
-8.43672e-06
0.00257549
-5.55586e-06
0.00257648
-1.93568e-06
0.00257555
1.83942e-06
0.00257288
5.26219e-06
0.00256885
7.96582e-06
0.00256391
9.75041e-06
0.00255857
1.05749e-05
0.00255326
1.0525e-05
0.00254834
9.77038e-06
0.00254405
8.5223e-06
0.00254054
6.99765e-06
0.00253784
5.39333e-06
0.00253591
3.87066e-06
0.00253465
2.54823e-06
0.00253391
1.5012e-06
0.00253355
7.64733e-07
0.00253339
3.39839e-07
0.00253331
2.00275e-07
0.00253317
2.99901e-07
0.00253289
5.80017e-07
0.0025324
9.76554e-07
0.00253169
1.4267e-06
0.00253075
1.87448e-06
0.00252961
2.27487e-06
0.0025283
2.59621e-06
0.00252688
2.82085e-06
0.0025254
2.94422e-06
0.00252391
2.97275e-06
0.00252244
2.921e-06
0.00252103
2.80853e-06
0.0025197
2.65689e-06
0.00251846
2.48704e-06
0.0025173
2.31744e-06
0.00251621
2.16273e-06
0.0025152
2.03312e-06
0.00251423
1.93438e-06
0.0025133
1.86821e-06
0.00251238
1.83293e-06
0.00251147
1.82437e-06
0.00251055
1.83672e-06
0.00250961
1.86347e-06
0.00250866
1.89805e-06
0.00250769
1.93455e-06
0.0025067
1.96802e-06
0.0025057
1.9948e-06
0.00250469
2.01257e-06
0.00250368
2.02026e-06
0.00250267
2.01791e-06
0.00250166
2.0064e-06
0.00250066
1.98713e-06
0.00249968
1.96172e-06
0.00249871
1.93178e-06
0.00249775
1.89861e-06
0.00249682
1.86311e-06
0.0024959
1.8257e-06
0.002495
1.78626e-06
0.00249412
1.74425e-06
0.00249327
1.69872e-06
0.00249243
1.64854e-06
0.00249163
1.59211e-06
0.00249086
1.52776e-06
0.00249012
1.45221e-06
0.00248943
1.36241e-06
0.0024888
1.24972e-06
0.00248823
1.10999e-06
0.00248776
9.21194e-07
0.0024874
6.90564e-07
0.0024872
3.61222e-07
0.00248718
1.13436e-08
0.00248742
-5.37966e-07
0.00248786
-9.33192e-07
0.0024887
-1.75863e-06
-2.15331e-06
0.00250271
-8.24393e-06
0.00251089
-2.48578e-05
0.00252488
-4.23973e-05
0.00254515
-6.11513e-05
0.00257219
-8.11277e-05
0.00260628
-0.000101619
0.00264726
-0.000121288
0.002694
-0.000137442
0.00274436
-0.000147179
0.00279483
-0.00014719
0.00284125
-0.000135693
0.00288061
-0.000115621
0.00291088
-8.9707e-05
0.00293113
-6.11636e-05
0.00294179
-3.38306e-05
0.00294464
-1.1508e-05
0.00294265
2.69368e-06
0.00293926
7.60189e-06
0.00293733
4.93142e-06
0.00293805
-6.29359e-07
0.00294012
-2.41585e-06
0.00293965
6.30329e-06
0.00293122
2.94285e-05
0.00291001
6.51604e-05
0.00287405
0.000105941
0.00282509
0.000141857
0.00276789
0.000164517
0.00270894
0.000168912
0.00265523
0.000153273
0.00261355
0.000118036
0.00259009
6.51342e-05
0.00258998
-1.92988e-06
0.00261645
-7.70116e-05
0.00266906
-0.000149226
0.00274129
-0.000201901
0.0028193
-0.000216087
0.0028845
-0.000180015
0.00292018
-9.9002e-05
0.00291825
4.38279e-06
0.0028813
0.000102047
0.00281927
0.000173724
0.0027444
0.000211929
0.0026678
0.000218195
0.00259862
0.000197068
0.00254465
0.000152026
0.00251355
8.39713e-05
0.00251381
-8.1139e-06
0.00255445
-0.000123999
0.00264199
-0.000255772
0.00277538
-0.000381786
0.00294084
-0.000466281
0.00310947
-0.000469256
0.00324234
-0.00036816
0.00330618
-0.000180659
0.00328997
3.64516e-05
0.00320833
0.00021781
0.00309059
0.000323711
0.00296558
0.000351967
0.00285282
0.000324079
0.00276202
0.000265345
0.00269653
0.000193875
0.00265679
0.000119353
0.00264207
4.65187e-05
0.00265063
-2.07308e-05
0.0026788
-7.67209e-05
0.00272017
-0.000114088
0.00276578
-0.000126267
0.0028057
-0.000110916
0.00283148
-7.22031e-05
0.00283842
-2.01791e-05
0.00282642
3.27592e-05
0.00279917
7.62219e-05
0.00276227
0.000104607
0.00272139
0.0001172
0.00268118
0.00011653
0.0026448
0.00010641
0.00261412
9.05704e-05
0.00258995
7.20214e-05
0.00257237
5.29503e-05
0.00256099
3.48605e-05
0.00255509
1.87619e-05
0.00255375
5.33379e-06
0.00255589
-4.96912e-06
0.00256034
-1.18807e-05
0.00256591
-1.53489e-05
0.00257149
-1.55832e-05
0.00257613
-1.30765e-05
0.00257914
-8.56922e-06
0.00258016
-2.95131e-06
0.00257913
2.87463e-06
0.00257626
8.12863e-06
0.00257197
1.22518e-05
0.00256678
1.49461e-05
0.00256119
1.61588e-05
0.00255569
1.60314e-05
0.00255063
1.4832e-05
0.00254626
1.28886e-05
0.00254272
1.05355e-05
0.00254004
8.0737e-06
0.00253816
5.74813e-06
0.00253697
3.73744e-06
0.00253632
2.15362e-06
0.00253604
1.04766e-06
0.00253596
4.1876e-07
0.00253594
2.2502e-07
0.00253584
3.94595e-07
0.00253558
8.36882e-07
0.00253511
1.45344e-06
0.00253439
2.1481e-06
0.00253342
2.83546e-06
0.00253225
3.44716e-06
0.00253091
3.93547e-06
0.00252946
4.2742e-06
0.00252795
4.45723e-06
0.00252642
4.49517e-06
0.00252493
4.41093e-06
0.00252351
4.2349e-06
0.00252216
4.00028e-06
0.00252091
3.73925e-06
0.00251975
3.47994e-06
0.00251867
3.24454e-06
0.00251765
3.04841e-06
0.00251669
2.90005e-06
0.00251575
2.80178e-06
0.00251484
2.75079e-06
0.00251392
2.74045e-06
0.00251299
2.7618e-06
0.00251205
2.80473e-06
0.00251109
2.85925e-06
0.00251011
2.91628e-06
0.00250911
2.96836e-06
0.00250809
3.00995e-06
0.00250707
3.03762e-06
0.00250604
3.04983e-06
0.00250501
3.04677e-06
0.00250399
3.02983e-06
0.00250297
3.00125e-06
0.00250197
2.96356e-06
0.00250098
2.91923e-06
0.00250001
2.87032e-06
0.00249906
2.81819e-06
0.00249812
2.76348e-06
0.0024972
2.70601e-06
0.0024963
2.64496e-06
0.00249542
2.57888e-06
0.00249456
2.506e-06
0.00249373
2.4239e-06
0.00249293
2.33001e-06
0.00249216
2.21951e-06
0.00249143
2.08785e-06
0.00249076
1.92256e-06
0.00249015
1.71741e-06
0.00248963
1.44086e-06
0.00248922
1.1027e-06
0.00248896
6.21622e-07
0.00248886
1.08774e-07
0.00248902
-6.9208e-07
0.00248936
-1.27346e-06
0.00249008
-2.4754e-06
-3.06177e-06
0.00250264
-1.08828e-05
0.00251061
-3.28338e-05
0.00252433
-5.61121e-05
0.00254435
-8.11746e-05
0.00257134
-0.000108112
0.00260577
-0.000136048
0.00264771
-0.000163234
0.00269617
-0.000185896
0.00274894
-0.00019995
0.00280207
-0.000200322
0.00285069
-0.000184309
0.00289156
-0.000156496
0.00292252
-0.000120664
0.00294253
-8.11775e-05
0.00295204
-4.33373e-05
0.00295304
-1.25061e-05
0.00294895
6.77559e-06
0.0029439
1.26551e-05
0.00294141
7.42313e-06
0.00294307
-2.29428e-06
0.00294754
-6.8801e-06
0.00295022
3.62146e-06
0.00294445
3.52001e-05
0.00292421
8.53983e-05
0.00288701
0.000143147
0.00283483
0.000194031
0.00277319
0.00022616
0.00270932
0.000232776
0.00265083
0.000211765
0.00260495
0.000163914
0.00257834
9.17464e-05
0.00257685
-4.40195e-07
0.00260479
-0.000104948
0.00266275
-0.000207187
0.00274428
-0.00028343
0.00283368
-0.000305491
0.00290877
-0.000255105
0.00294934
-0.000139568
0.00294609
7.63196e-06
0.00290308
0.00014506
0.00283291
0.000243885
0.00274996
0.000294883
0.00266626
0.000301897
0.00259089
0.000272437
0.00253125
0.000211667
0.00249498
0.000120236
0.0024912
-4.32986e-06
0.00252913
-0.000161935
0.00261471
-0.000341349
0.00274794
-0.00051501
0.00291978
-0.000638123
0.00310563
-0.000655107
0.00326281
-0.000525342
0.00334562
-0.000263468
0.00333267
4.94009e-05
0.00323948
0.000311005
0.00310433
0.000458854
0.00296445
0.000491846
0.00284263
0.0004459
0.00274777
0.000360202
0.00268124
0.000260406
0.0026421
0.0001585
0.00262925
5.93645e-05
0.00264121
-3.26915e-05
0.00267453
-0.000110044
0.00272245
-0.000162
0.00277486
-0.000178679
0.0028203
-0.000156355
0.00284907
-0.000100973
0.00285604
-2.71549e-05
0.00284162
4.71808e-05
0.00281056
0.000107281
0.0027696
0.000145567
0.00272523
0.000161569
0.00268246
0.000159305
0.00264449
0.000144378
0.00261303
0.000122032
0.00258869
9.63605e-05
0.00257138
7.02565e-05
0.00256058
4.56664e-05
0.00255546
2.38826e-05
0.00255502
5.77402e-06
0.00255811
-8.06694e-06
0.00256351
-1.72816e-05
0.00256996
-2.1792e-05
0.00257625
-2.18782e-05
0.00258139
-1.82184e-05
0.00258467
-1.18408e-05
0.0025857
-3.98433e-06
0.00258448
4.09696e-06
0.00258128
1.13268e-05
0.00257659
1.6945e-05
0.00257097
2.05589e-05
0.00256501
2.21182e-05
0.00255921
2.18375e-05
0.00255394
2.01007e-05
0.00254946
1.7368e-05
0.00254589
1.41017e-05
0.00254325
1.07137e-05
0.00254147
7.53556e-06
0.0025404
4.80622e-06
0.00253988
2.67298e-06
0.00253972
1.19998e-06
0.00253976
3.81379e-07
0.00253983
1.56135e-07
0.0025398
4.23272e-07
0.00253958
1.05701e-06
0.00253911
1.92161e-06
0.00253838
2.88517e-06
0.00253738
3.83121e-06
0.00253616
4.66713e-06
0.00253477
5.329e-06
0.00253326
5.78268e-06
0.00253169
6.02151e-06
0.00253013
6.06164e-06
0.0025286
5.93575e-06
0.00252715
5.6864e-06
0.00252579
5.3596e-06
0.00252453
4.99956e-06
0.00252337
4.6446e-06
0.00252229
4.32469e-06
0.00252128
4.06031e-06
0.00252031
3.86249e-06
0.00251938
3.73379e-06
0.00251846
3.66982e-06
0.00251754
3.66114e-06
0.00251661
3.69514e-06
0.00251566
3.75787e-06
0.00251468
3.83558e-06
0.00251368
3.9159e-06
0.00251266
3.98875e-06
0.00251162
4.04675e-06
0.00251057
4.08537e-06
0.00250952
4.10276e-06
0.00250847
4.09933e-06
0.00250742
4.07721e-06
0.00250638
4.03956e-06
0.00250536
3.98997e-06
0.00250434
3.93189e-06
0.00250335
3.86814e-06
0.00250236
3.80064e-06
0.0025014
3.73023e-06
0.00250045
3.65669e-06
0.00249951
3.57886e-06
0.0024986
3.49476e-06
0.0024977
3.40194e-06
0.00249683
3.29708e-06
0.00249598
3.17667e-06
0.00249517
3.0344e-06
0.00249439
2.86421e-06
0.00249366
2.65029e-06
0.00249299
2.38438e-06
0.00249241
2.02699e-06
0.00249192
1.58937e-06
0.00249157
9.70292e-07
0.00249137
3.07245e-07
0.0024914
-7.19559e-07
0.0024916
-1.47383e-06
0.00249214
-3.0116e-06
-3.77892e-06
0.00250254
-1.3418e-05
0.00251021
-4.05128e-05
0.00252352
-6.94135e-05
0.00254315
-0.000100809
0.00256998
-0.000134947
0.0026048
-0.00017086
0.00264799
-0.00020643
0.00269875
-0.000236658
0.0027549
-0.0002561
0.00281176
-0.00025718
0.00286342
-0.000235971
0.00290638
-0.00019945
0.00293827
-0.000152554
0.00295793
-0.000100836
0.00296579
-5.12025e-05
0.00296414
-1.08524e-05
0.00295705
1.38614e-05
0.00294959
2.01186e-05
0.00294625
1.07678e-05
0.00294925
-5.29413e-06
0.00295719
-1.48216e-05
0.00296448
-3.67052e-06
0.00296263
3.70502e-05
0.00294385
0.000104176
0.00290489
0.00018211
0.00284819
0.000250732
0.00278034
0.000294009
0.00270969
0.000303424
0.00264463
0.000276827
0.00259294
0.000215603
0.00256185
0.000122838
0.00255816
3.24763e-06
0.00258775
-0.000134533
0.00265296
-0.000272405
0.00274772
-0.00037819
0.00285356
-0.000411326
0.00294283
-0.000344374
0.00299022
-0.000186955
0.00298478
1.30623e-05
0.00293288
0.000196967
0.00285112
0.000325644
0.00275698
0.000389026
0.0026637
0.000395174
0.00258012
0.000356014
0.0025131
0.00027869
0.0024702
0.000163136
0.00245963
6.24394e-06
0.0024875
-0.000189811
0.00255822
-0.000412064
0.00267718
-0.00063397
0.00284517
-0.000806117
0.00304484
-0.000854779
0.00323325
-0.000713751
0.00335275
-0.000382969
0.00336318
3.89686e-05
0.00327062
0.000403573
0.00312016
0.000609315
0.00296222
0.00064978
0.00282796
0.000580157
0.00272743
0.000460738
0.00265964
0.000328197
0.00262151
0.00019663
0.00261131
6.95578e-05
0.00262802
-4.94021e-05
0.00266868
-0.000150696
0.002726
-0.000219326
0.00278817
-0.000240844
0.00284135
-0.000209539
0.00287405
-0.000133675
0.00288068
-3.37832e-05
0.00286249
6.53727e-05
0.00282584
0.000143927
0.0027791
0.000192307
0.00272987
0.000210798
0.00268362
0.000205558
0.00264355
0.00018445
0.00261111
0.000154468
0.00258664
0.000120839
0.00256977
8.71211e-05
0.0025598
5.56395e-05
0.00255577
2.79135e-05
0.00255657
4.96586e-06
0.00256099
-1.2487e-05
0.0025677
-2.39894e-05
0.00257534
-2.94272e-05
0.00258261
-2.91509e-05
0.00258843
-2.40417e-05
0.00259205
-1.54538e-05
0.00259309
-5.02408e-06
0.00259159
5.59498e-06
0.00258792
1.49979e-05
0.00258265
2.22104e-05
0.00257646
2.67524e-05
0.00256998
2.85949e-05
0.00256377
2.80515e-05
0.00255822
2.56469e-05
0.0025536
2.19941e-05
0.00255
1.7698e-05
0.00254742
1.32902e-05
0.00254577
9.19273e-06
0.00254487
5.70495e-06
0.00254453
3.00692e-06
0.00254456
1.17201e-06
0.00254476
1.8474e-07
0.00254495
-3.98405e-08
0.00254501
3.63427e-07
0.00254484
1.22913e-06
0.00254438
2.38026e-06
0.00254362
3.64598e-06
0.00254258
4.87649e-06
0.00254129
5.95378e-06
0.00253982
6.79768e-06
0.00253824
7.36687e-06
0.0025366
7.65569e-06
0.00253498
7.68769e-06
0.0025334
7.50734e-06
0.00253192
7.17117e-06
0.00253054
6.73956e-06
0.00252927
6.26986e-06
0.0025281
5.81129e-06
0.00252703
5.40188e-06
0.00252602
5.06713e-06
0.00252506
4.82025e-06
0.00252413
4.66354e-06
0.00252321
4.59048e-06
0.00252228
4.58817e-06
0.00252134
4.63985e-06
0.00252037
4.72724e-06
0.00251937
4.8325e-06
0.00251835
4.93977e-06
0.0025173
5.03622e-06
0.00251624
5.11264e-06
0.00251516
5.16351e-06
0.00251407
5.18681e-06
0.00251299
5.1834e-06
0.00251191
5.1563e-06
0.00251084
5.10982e-06
0.00250978
5.04876e-06
0.00250874
4.97766e-06
0.0025077
4.90022e-06
0.00250669
4.81893e-06
0.00250568
4.73488e-06
0.00250469
4.64777e-06
0.00250371
4.55608e-06
0.00250275
4.45724e-06
0.0025018
4.34804e-06
0.00250088
4.22421e-06
0.00249997
4.08121e-06
0.0024991
3.91128e-06
0.00249825
3.70688e-06
0.00249745
3.44945e-06
0.00249671
3.12863e-06
0.00249604
2.69902e-06
0.00249545
2.17191e-06
0.00249499
1.43207e-06
0.00249467
6.34673e-07
0.00249453
-5.8511e-07
0.00249455
-1.49596e-06
0.00249486
-3.31505e-06
-4.25017e-06
0.00250239
-1.58108e-05
0.00250966
-4.77817e-05
0.00252238
-8.21286e-05
0.00254142
-0.000119854
0.00256794
-0.000161463
0.0026031
-0.000206018
0.00264778
-0.000251114
0.00270148
-0.000290364
0.00276213
-0.000316742
0.00282397
-0.00031902
0.00287962
-0.000291623
0.00292528
-0.000245109
0.0029584
-0.000185673
0.00297761
-0.000120048
0.0029833
-5.689e-05
0.00297803
-5.58974e-06
0.00296677
2.51244e-05
0.00295586
3.10283e-05
0.00295116
1.54639e-05
0.00295585
-9.98486e-06
0.00296856
-2.75236e-05
0.00298232
-1.74384e-05
0.00298607
3.33097e-05
0.00296947
0.000120775
0.00292823
0.000223347
0.00286551
0.000313456
0.00278947
0.000370047
0.00270996
0.000382926
0.00263638
0.000350415
0.00257708
0.000274895
0.0025399
0.00016002
0.00253277
1.03767e-05
0.00256397
-0.000165727
0.0026391
-0.000347543
0.002753
-0.000492081
0.00288232
-0.000540648
0.00299067
-0.000452728
0.00304596
-0.000242242
0.00303612
2.28996e-05
0.00297133
0.000261761
0.00287381
0.00042316
0.00276511
0.00049773
0.00265977
0.00050051
0.00256614
0.000449647
0.00249042
0.000354413
0.00243888
0.00021467
0.00241526
2.98624e-05
0.00242162
-0.000196168
0.0024682
-0.000458645
0.00257336
-0.000739128
0.00274304
-0.000975794
0.00295549
-0.00106723
0.00316602
-0.000924286
0.00331782
-0.000534768
0.00336095
-4.1575e-06
0.00328483
0.00047969
0.00312992
0.000764223
0.0029568
0.000822903
0.00280879
0.000728171
0.002701
0.000568521
0.00263143
0.000397772
0.00259456
0.000233494
0.00258775
7.6374e-05
0.00261043
-7.20871e-05
0.00266013
-0.000200397
0.00272902
-0.000288212
0.00280349
-0.000315316
0.00286704
-0.000273086
0.00290551
-0.000172145
0.00291215
-4.04239e-05
0.00288912
8.84034e-05
0.00284502
0.000188023
0.0027906
0.000246735
0.00273502
0.000266374
0.00268436
0.00025622
0.00264172
0.000227085
0.00260818
0.000188007
0.00258364
0.000145379
0.00256742
0.00010334
0.00255856
6.44999e-05
0.00255595
3.05272e-05
0.00255836
2.55098e-06
0.00256448
-1.86037e-05
0.00257287
-3.23741e-05
0.00258203
-3.85928e-05
0.00259056
-3.7676e-05
0.00259725
-3.07314e-05
0.00260128
-1.94891e-05
0.00260231
-6.05012e-06
0.00260043
7.47192e-06
0.00259613
1.92992e-05
0.00259011
2.82279e-05
0.00258316
3.37006e-05
0.00257602
3.57374e-05
0.00256929
3.47847e-05
0.0025634
3.15406e-05
0.00255859
2.67976e-05
0.00255497
2.13221e-05
0.00255248
1.5776e-05
0.002551
1.06761e-05
0.00255032
6.38165e-06
0.00255023
3.10176e-06
0.00255049
9.13752e-07
0.00255088
-2.13561e-07
0.00255124
-3.95208e-07
0.00255141
1.94116e-07
0.00255129
1.34373e-06
0.00255084
2.83038e-06
0.00255005
4.44028e-06
0.00254894
5.98754e-06
0.00254756
7.32741e-06
0.002546
8.36338e-06
0.00254432
9.04814e-06
0.00254259
9.37898e-06
0.00254089
9.38931e-06
0.00253926
9.13791e-06
0.00253774
8.69768e-06
0.00253633
8.14528e-06
0.00253505
7.55259e-06
0.00253388
6.98057e-06
0.0025328
6.47558e-06
0.0025318
6.06802e-06
0.00253085
5.77282e-06
0.00252992
5.59136e-06
0.002529
5.51419e-06
0.00252806
5.52422e-06
0.0025271
5.59986e-06
0.00252611
5.71792e-06
0.00252509
5.85608e-06
0.00252403
5.99471e-06
0.00252295
6.11813e-06
0.00252185
6.21532e-06
0.00252073
6.27991e-06
0.00251961
6.30989e-06
0.00251849
6.30681e-06
0.00251737
6.27485e-06
0.00251626
6.21971e-06
0.00251516
6.1476e-06
0.00251407
6.06428e-06
0.002513
5.97446e-06
0.00251194
5.88123e-06
0.00251088
5.78595e-06
0.00250984
5.68822e-06
0.00250881
5.58614e-06
0.00250779
5.47647e-06
0.00250679
5.35516e-06
0.0025058
5.21694e-06
0.00250482
5.0561e-06
0.00250387
4.86356e-06
0.00250294
4.63023e-06
0.00250206
4.33548e-06
0.00250122
3.9668e-06
0.00250044
3.47517e-06
0.00249975
2.8703e-06
0.00249915
2.02998e-06
0.00249867
1.1167e-06
0.00249834
-2.56345e-07
0.00249815
-1.30527e-06
0.00249817
-3.3371e-06
-4.42701e-06
0.0025022
-1.80146e-05
0.00250892
-5.45029e-05
0.00252083
-9.40378e-05
0.00253902
-0.000138037
0.00256495
-0.000187391
0.00260031
-0.000241381
0.00264664
-0.000297446
0.00270395
-0.000347673
0.00277041
-0.000383206
0.00283874
-0.00038735
0.00289944
-0.000352323
0.00294847
-0.000294132
0.00298309
-0.0002203
0.0030017
-0.000138649
0.00300453
-5.97205e-05
0.0029945
4.43158e-06
0.00297767
4.19595e-05
0.00296209
4.66106e-05
0.00295546
2.20873e-05
0.00296231
-1.68351e-05
0.00298142
-4.66346e-05
0.00300406
-4.00788e-05
0.00301555
2.18265e-05
0.00300201
0.000134311
0.0029578
0.000267563
0.00288718
0.000384074
0.0028006
0.000456625
0.00270992
0.000473609
0.00262568
0.000434652
0.00255681
0.000343764
0.00251156
0.00020527
0.00249929
2.26478e-05
0.00253209
-0.000198524
0.0026204
-0.000435859
0.00276024
-0.000631919
0.0029221
-0.000702504
0.00305688
-0.000587507
0.00312164
-0.00030701
0.00310345
4.10928e-05
0.00301959
0.000345624
0.00290077
0.000541983
0.00277366
0.000624831
0.00265388
0.000620292
0.00254884
0.000554684
0.00246336
0.000439901
0.00239939
0.000278638
0.00235428
7.49744e-05
0.00233401
-0.0001759
0.00236676
-0.000491392
0.00248086
-0.00085323
0.00267031
-0.00116525
0.00289602
-0.00129294
0.00311043
-0.00113869
0.00326867
-0.000693015
0.0033291
-6.45854e-05
0.0032717
0.000537094
0.00312304
0.000912881
0.00294289
0.00100306
0.00278382
0.000887234
0.00266857
0.000683777
0.00259661
0.000469732
0.00256094
0.000269165
0.00255769
7.96145e-05
0.00258572
-0.000100111
0.00264188
-0.000256559
0.00271868
-0.000365016
0.00280398
-0.000400614
0.00288094
-0.000350047
0.00293142
-0.000222622
0.00294383
-5.28378e-05
0.00291882
0.000113415
0.00286731
0.000239533
0.00280381
0.000310238
0.00274038
0.000329801
0.0026843
0.0003123
0.00263865
0.000272736
0.00260394
0.000222713
0.0025795
0.000169824
0.00256419
0.000118649
0.00255676
7.19285e-05
0.00255592
3.13728e-05
0.00256031
-1.84419e-06
0.00256851
-2.68041e-05
0.00257896
-4.28186e-05
0.00259
-4.96381e-05
0.00260006
-4.77355e-05
0.0026078
-3.84719e-05
0.00261233
-2.40191e-05
0.00261331
-7.02742e-06
0.00261093
9.84847e-06
0.00260583
2.44048e-05
0.00259886
3.51909e-05
0.00259098
4.15871e-05
0.00258302
4.36982e-05
0.00257565
4.21474e-05
0.00256935
3.78476e-05
0.00256434
3.18037e-05
0.0025607
2.4966e-05
0.00255833
1.81393e-05
0.00255707
1.19394e-05
0.00255667
6.78373e-06
0.00255686
2.90539e-06
0.0025574
3.78483e-07
0.00255804
-8.51499e-07
0.00255858
-9.37265e-07
0.00255887
-1.00638e-07
0.00255882
1.39578e-06
0.00255838
3.27666e-06
0.00255754
5.28063e-06
0.00255634
7.18256e-06
0.00255486
8.80944e-06
0.00255317
1.00486e-05
0.00255137
1.08481e-05
0.00254954
1.12107e-05
0.00254775
1.11826e-05
0.00254605
1.084e-05
0.00254447
1.02751e-05
0.00254303
9.58293e-06
0.00254173
8.85164e-06
0.00254056
8.15479e-06
0.00253949
7.54738e-06
0.00253849
7.06447e-06
0.00253754
6.72209e-06
0.00253661
6.51986e-06
0.00253568
6.44452e-06
0.00253473
6.47388e-06
0.00253375
6.58071e-06
0.00253273
6.7363e-06
0.00253168
6.91336e-06
0.00253058
7.08821e-06
0.00252946
7.24226e-06
0.00252831
7.36267e-06
0.00252715
7.44243e-06
0.00252598
7.47976e-06
0.00252481
7.4772e-06
0.00252364
7.44037e-06
0.00252249
7.37662e-06
0.00252134
7.29378e-06
0.0025202
7.19905e-06
0.00251908
7.09819e-06
0.00251797
6.995e-06
0.00251686
6.8911e-06
0.00251576
6.78599e-06
0.00251467
6.67732e-06
0.00251359
6.56115e-06
0.00251251
6.43251e-06
0.00251144
6.28505e-06
0.00251039
6.11185e-06
0.00250935
5.90253e-06
0.00250833
5.64645e-06
0.00250735
5.32157e-06
0.0025064
4.91319e-06
0.0025055
4.37115e-06
0.00250467
3.7018e-06
0.00250392
2.78387e-06
0.00250326
1.7754e-06
0.00250271
2.9469e-07
0.00250228
-8.72618e-07
0.00250197
-3.0345e-06
-4.26964e-06
0.00250196
-1.99736e-05
0.00250797
-6.05104e-05
0.0025188
-0.000104867
0.00253575
-0.000154995
0.0025607
-0.000212335
0.00259598
-0.000276659
0.00264399
-0.000345465
0.00270559
-0.000409272
0.00277952
-0.00045713
0.00285619
-0.000464027
0.00292315
-0.000419278
0.0029763
-0.000347282
0.00301285
-0.000256845
0.00303078
-0.000156584
0.00303002
-5.89593e-05
0.00301375
2.07022e-05
0.0029894
6.63028e-05
0.00296733
6.86861e-05
0.00295775
3.16701e-05
0.00296713
-2.62189e-05
0.00299471
-7.42138e-05
0.00302945
-7.48151e-05
0.00305164
-3.72838e-07
0.00304248
0.000143476
0.0029945
0.000315539
0.00291375
0.000464825
0.00281388
0.000556497
0.0027094
0.000578092
0.0026122
0.000531849
0.00253152
0.000424442
0.00247583
0.000260958
0.0024567
4.17812e-05
0.00248992
-0.000231744
0.00258693
-0.000532865
0.00274521
-0.000790199
0.00294024
-0.000897533
0.00311623
-0.000763501
0.00320736
-0.000398136
0.00318657
6.18786e-05
0.0030792
0.000452997
0.00293211
0.000689074
0.00278176
0.000775174
0.00264526
0.000756796
0.00252814
0.000671803
0.00243142
0.000536619
0.00234973
0.000360327
0.0022789
0.000145807
0.00224203
-0.000139024
0.00228541
-0.000534781
0.00242837
-0.000996189
0.00264043
-0.0013773
0.00287041
-0.00152291
0.00307464
-0.00134292
0.00322031
-0.000838689
0.00327869
-0.000122963
0.00323126
0.000584526
0.00309297
0.00105116
0.00291454
0.00118149
0.00275044
0.00105133
0.00262974
0.000804481
0.00255544
0.000544025
0.00252053
0.000304078
0.00251888
8.12625e-05
0.00254554
-0.000126773
0.00259542
-0.000306434
0.00266543
-0.000435032
0.00275254
-0.00048772
0.00284519
-0.000442693
0.0029204
-0.000297835
0.00295502
-8.74589e-05
0.00294102
0.000127416
0.00288879
0.000291768
0.00281785
0.000381178
0.00274586
0.000401791
0.00268331
0.000374849
0.00263405
0.000321994
0.00259808
0.000258679
0.00257394
0.000193969
0.00255987
0.000132715
0.00255425
7.75551e-05
0.00255555
3.00727e-05
0.0025623
-8.60006e-06
0.00257297
-3.7469e-05
0.00258584
-5.56904e-05
0.00259909
-6.28923e-05
0.00261095
-5.95884e-05
0.0026199
-4.74272e-05
0.00262498
-2.91013e-05
0.00262587
-7.91363e-06
0.00262287
1.28457e-05
0.00261679
3.04847e-05
0.0026087
4.32858e-05
0.0025997
5.05859e-05
0.00259078
5.26193e-05
0.00258269
5.02392e-05
0.00257591
4.46236e-05
0.00257068
3.70291e-05
0.00256703
2.86162e-05
0.00256483
2.03468e-05
0.00256383
1.29392e-05
0.00256374
6.86601e-06
0.00256427
2.3767e-06
0.00256512
-4.67083e-07
0.00256602
-1.75268e-06
0.00256676
-1.67955e-06
0.00256719
-5.2495e-07
0.00256719
1.38931e-06
0.00256674
3.72971e-06
0.00256584
6.18253e-06
0.00256454
8.48025e-06
0.00256293
1.04201e-05
0.00256111
1.18735e-05
0.00255917
1.27858e-05
0.00255721
1.31678e-05
0.00255531
1.30821e-05
0.00255353
1.26258e-05
0.00255189
1.19132e-05
0.00255041
1.10605e-05
0.00254909
1.01738e-05
0.0025479
9.34004e-06
0.00254683
8.62315e-06
0.00254583
8.06246e-06
0.00254488
7.67438e-06
0.00254394
7.45581e-06
0.002543
7.38864e-06
0.00254203
7.44463e-06
0.00254102
7.59008e-06
0.00253996
7.79011e-06
0.00253886
8.012e-06
0.00253772
8.2278e-06
0.00253655
8.41589e-06
0.00253535
8.56174e-06
0.00253414
8.65783e-06
0.00253291
8.70292e-06
0.00253169
8.70083e-06
0.00253047
8.65892e-06
0.00252926
8.58644e-06
0.00252806
8.49308e-06
0.00252687
8.3876e-06
0.00252569
8.27696e-06
0.00252452
8.1657e-06
0.00252336
8.05572e-06
0.0025222
7.94642e-06
0.00252104
7.83497e-06
0.00251988
7.71671e-06
0.00251873
7.58567e-06
0.00251758
7.43441e-06
0.00251644
7.2547e-06
0.00251531
7.03497e-06
0.00251419
6.76302e-06
0.0025131
6.41608e-06
0.00251203
5.9772e-06
0.00251101
5.39762e-06
0.00251003
4.67851e-06