/*--------------------------------*- C++ -*----------------------------------*\
  =========                 |
  \\      /  F ield         | OpenFOAM: The Open Source CFD Toolbox
   \\    /   O peration     | Website:  https://openfoam.org
    \\  /    A nd           | Version:  11
     \\/     M anipulation  |
\*---------------------------------------------------------------------------*/
FoamFile
{
    format      ascii;
    class       volVectorField;
    location    "9.177705";
    object      U;
}
// * * * * * * * * * * * * * * * * * * * * * * * * * * * * * * * * * * * * * //

dimensions      [0 1 -1 0 0 0 0];

internalField   nonuniform List<vector> 
7132
(
(1.00014 -0.000278316 1.85661e-18)
(1.00216 -0.000838364 6.86663e-18)
(1.00672 -0.00142649 7.42204e-18)
(1.01362 -0.00204935 9.43284e-18)
(1.02309 -0.00270487 1.22044e-17)
(1.03525 -0.00336747 1.2645e-17)
(1.05005 -0.00399175 1.21358e-17)
(1.06722 -0.00449414 1.15396e-17)
(1.08609 -0.00478503 1.10738e-17)
(1.10564 -0.00477347 1.06432e-17)
(1.12442 -0.0044103 1.00849e-17)
(1.14109 -0.00377391 9.79931e-18)
(1.15472 -0.00295 8.96e-18)
(1.16475 -0.00204201 9.05939e-18)
(1.17107 -0.00117132 1.059e-18)
(1.17408 -0.000455463 -6.9688e-18)
(1.17463 1.26384e-05 -1.48761e-17)
(1.17389 0.000200163 -1.19778e-17)
(1.17297 0.000161214 -1.56041e-17)
(1.1726 3.85727e-05 -2.0496e-17)
(1.17275 3.12691e-05 -2.16263e-17)
(1.17252 0.000336647 -2.31366e-17)
(1.17027 0.00106601 -2.56583e-17)
(1.16419 0.00216717 -2.90822e-17)
(1.15305 0.00342156 -2.77061e-17)
(1.1368 0.00453478 -2.97094e-17)
(1.11661 0.00524586 -3.17714e-17)
(1.09456 0.00538752 -3.48814e-17)
(1.07317 0.00489127 -3.95947e-17)
(1.05506 0.00376412 -4.47035e-17)
(1.0427 0.00207127 -4.90261e-17)
(1.03817 -6.04715e-05 -6.96821e-17)
(1.04296 -0.00241622 -1.59478e-16)
(1.05747 -0.0046455 -4.12136e-16)
(1.08034 -0.00624735 -7.365e-16)
(1.10791 -0.00667696 -6.55813e-16)
(1.13439 -0.00560176 1.47539e-16)
(1.15338 -0.00316725 1.0107e-15)
(1.16024 -1.15915e-05 1.12849e-15)
(1.15371 0.00304153 7.15614e-16)
(1.13585 0.00535784 2.82683e-16)
(1.11056 0.00665569 2.57236e-16)
(1.08219 0.00692826 6.09803e-16)
(1.05468 0.00628386 -1.70326e-15)
(1.03144 0.00482416 -7.85547e-15)
(1.01557 0.00259574 1.09705e-14)
(1.01012 -0.000387985 1.12187e-13)
(1.01815 -0.00406048 1.4472e-13)
(1.04228 -0.00814072 -7.7512e-13)
(1.08336 -0.0119681 -4.02659e-12)
(1.13865 -0.0144893 -9.47494e-12)
(1.20039 -0.014565 -1.40074e-11)
(1.25648 -0.011579 -1.4165e-11)
(1.29419 -0.00601319 -1.02185e-11)
(1.30535 0.000565154 -5.47587e-12)
(1.28982 0.00626586 -2.12053e-12)
(1.25475 0.00983257 -3.98604e-13)
(1.21034 0.0110481 1.73421e-13)
(1.16555 0.0104321 1.98555e-13)
(1.12626 0.00871076 9.03164e-14)
(1.09546 0.00646896 1.63515e-14)
(1.07424 0.0040645 -6.6755e-15)
(1.06276 0.00169834 -6.11105e-15)
(1.06056 -0.000475052 -1.78348e-15)
(1.06658 -0.00227118 8.52615e-16)
(1.07888 -0.00347219 2.32959e-15)
(1.09463 -0.00388988 2.0107e-15)
(1.11036 -0.0034586 -1.93078e-15)
(1.12267 -0.00229979 -8.4502e-15)
(1.12905 -0.000708064 -1.3545e-14)
(1.1285 0.000945476 -1.45189e-14)
(1.12152 0.00233859 -1.22574e-14)
(1.10971 0.00328365 -8.77811e-15)
(1.0951 0.00373901 -5.55435e-15)
(1.07963 0.00376742 -3.20442e-15)
(1.0648 0.00348008 -1.76334e-15)
(1.05165 0.00299324 -1.02534e-15)
(1.04076 0.00240535 -7.71941e-16)
(1.03234 0.00179058 -8.66639e-16)
(1.02638 0.00120123 -1.24622e-15)
(1.0227 0.000672939 -1.88646e-15)
(1.02099 0.000229646 -2.75625e-15)
(1.02087 -0.000112921 -3.79259e-15)
(1.02192 -0.000345902 -4.90177e-15)
(1.02368 -0.00046769 -5.96251e-15)
(1.0257 -0.000485 -6.85307e-15)
(1.0276 -0.000413354 -7.47987e-15)
(1.02905 -0.000275962 -7.80673e-15)
(1.02984 -0.000100773 -7.87159e-15)
(1.02988 8.36424e-05 -7.76306e-15)
(1.02918 0.000252269 -7.5829e-15)
(1.02786 0.000386773 -7.40941e-15)
(1.02608 0.000476875 -7.28431e-15)
(1.02403 0.000520069 -7.22279e-15)
(1.0219 0.000520138 -7.21777e-15)
(1.01985 0.000485117 -7.2545e-15)
(1.018 0.000425214 -7.3165e-15)
(1.01643 0.000351046 -7.38295e-15)
(1.01518 0.000272345 -7.43329e-15)
(1.01424 0.00019715 -7.44032e-15)
(1.0136 0.000131432 -7.37689e-15)
(1.01319 7.90291e-05 -7.22105e-15)
(1.01297 4.17986e-05 -6.95848e-15)
(1.01286 1.98963e-05 -6.59195e-15)
(1.01282 1.21135e-05 -6.13541e-15)
(1.01277 1.62379e-05 -5.61555e-15)
(1.01269 2.9418e-05 -5.06591e-15)
(1.01254 4.8518e-05 -4.51737e-15)
(1.01231 7.04462e-05 -3.99738e-15)
(1.01198 9.24312e-05 -3.51888e-15)
(1.01157 0.000112228 -3.0838e-15)
(1.01108 0.000128242 -2.68361e-15)
(1.01054 0.000139562 -2.29965e-15)
(1.00996 0.000145924 -1.91246e-15)
(1.00937 0.000147609 -1.49868e-15)
(1.00878 0.000145307 -1.03879e-15)
(1.0082 0.000139959 -5.181e-16)
(1.00766 0.000132618 7.50016e-17)
(1.00714 0.000124315 7.4403e-16)
(1.00666 0.000115964 1.49119e-15)
(1.00621 0.000108294 2.31414e-15)
(1.00579 0.000101824 3.20467e-15)
(1.0054 9.68505e-05 4.15307e-15)
(1.00502 9.34702e-05 5.14566e-15)
(1.00465 9.16122e-05 6.16856e-15)
(1.00428 9.10795e-05 7.20753e-15)
(1.00392 9.15931e-05 8.24822e-15)
(1.00355 9.28341e-05 9.28225e-15)
(1.00318 9.44815e-05 1.03059e-14)
(1.0028 9.62412e-05 1.13238e-14)
(1.00241 9.78676e-05 1.23461e-14)
(1.00201 9.91762e-05 1.33846e-14)
(1.00161 0.000100048 1.44538e-14)
(1.00121 0.000100426 1.55636e-14)
(1.00081 0.000100308 1.67199e-14)
(1.00041 9.97334e-05 1.79209e-14)
(1.00001 9.87687e-05 1.91551e-14)
(0.999614 9.74925e-05 2.04078e-14)
(0.999226 9.59819e-05 2.16605e-14)
(0.998844 9.43017e-05 2.28977e-14)
(0.998469 9.24964e-05 2.4108e-14)
(0.998102 9.05863e-05 2.52865e-14)
(0.997742 8.85666e-05 2.64411e-14)
(0.997391 8.64112e-05 2.75931e-14)
(0.997049 8.40744e-05 2.87829e-14)
(0.996716 8.15012e-05 3.00718e-14)
(0.996394 7.8613e-05 3.15435e-14)
(0.996084 7.53286e-05 3.33104e-14)
(0.995788 7.14828e-05 3.55105e-14)
(0.995509 6.69253e-05 3.8308e-14)
(0.995248 6.12104e-05 4.18867e-14)
(0.995015 5.41371e-05 4.64394e-14)
(0.994809 4.45572e-05 5.21614e-14)
(0.994655 3.2879e-05 5.92318e-14)
(0.994535 1.61108e-05 6.78016e-14)
(0.994526 -1.61029e-06 7.7978e-14)
(0.994523 -2.97013e-05 8.97166e-14)
(0.994783 -4.96429e-05 1.03414e-13)
(0.994843 -9.20985e-05 1.1629e-13)
(0.99562 -0.000111905 1.40882e-13)
(1.00014 -0.000832537 2.04831e-20)
(1.00214 -0.00250917 3.29119e-19)
(1.00667 -0.00427149 6.94388e-19)
(1.01353 -0.00614198 1.10058e-18)
(1.02299 -0.00811544 1.56372e-18)
(1.03517 -0.0101162 2.0228e-18)
(1.05006 -0.0120085 2.44565e-18)
(1.06741 -0.0135376 2.55658e-18)
(1.08655 -0.01443 5.57855e-18)
(1.10643 -0.0144016 6.35933e-18)
(1.12555 -0.0132988 4.9086e-18)
(1.14245 -0.0113682 8.34795e-18)
(1.15623 -0.00887006 3.93502e-18)
(1.16628 -0.00611765 4.17295e-18)
(1.17251 -0.00348026 1.22206e-17)
(1.17531 -0.00131708 2.61972e-17)
(1.1756 8.61583e-05 4.07593e-17)
(1.17459 0.00062786 5.01082e-17)
(1.17351 0.000473168 4.65369e-17)
(1.17314 5.86917e-05 2.5718e-17)
(1.1735 -3.92336e-06 -7.80859e-18)
(1.17364 0.000893741 -4.32038e-17)
(1.1718 0.0030992 -7.08384e-17)
(1.166 0.00645485 -8.72775e-17)
(1.15489 0.0102877 -9.43591e-17)
(1.13839 0.0136931 -9.67497e-17)
(1.11773 0.0158749 -9.88972e-17)
(1.09508 0.0163289 -1.06246e-16)
(1.07304 0.0148531 -1.2301e-16)
(1.0543 0.0114712 -1.14002e-16)
(1.04138 0.00637496 -5.05775e-17)
(1.03646 -6.7193e-05 -4.91672e-16)
(1.04114 -0.00722413 -1.94564e-15)
(1.05598 -0.0140425 4.11497e-15)
(1.07973 -0.0189891 3.4021e-14)
(1.10865 -0.0203728 7.22933e-14)
(1.13659 -0.0171457 7.76272e-14)
(1.15667 -0.00974125 4.96719e-14)
(1.16392 -0.00012185 2.08123e-14)
(1.15707 0.00918089 5.74585e-15)
(1.13842 0.0162255 6.53242e-16)
(1.11218 0.020166 9.06976e-16)
(1.08286 0.021004 1.3011e-15)
(1.05446 0.0190871 -1.18451e-14)
(1.03036 0.0147313 -1.88078e-14)
(1.01363 0.00806869 1.28154e-13)
(1.00734 -0.000890476 4.09449e-13)
(1.01475 -0.0119946 -7.04048e-13)
(1.03886 -0.0244377 -6.57397e-12)
(1.08099 -0.036219 -1.82056e-11)
(1.13858 -0.0440672 -3.17215e-11)
(1.20342 -0.0444128 -4.20908e-11)
(1.26238 -0.0353369 -4.40732e-11)
(1.30165 -0.0183447 -3.47059e-11)
(1.3126 0.00173117 -2.04524e-11)
(1.29545 0.0190939 -8.95606e-12)
(1.25815 0.0298995 -2.19957e-12)
(1.21169 0.0335167 4.5243e-13)
(1.16547 0.0315786 7.99753e-13)
(1.12533 0.0263261 4.27576e-13)
(1.0941 0.0195386 1.06561e-13)
(1.0727 0.0122834 -1.75435e-14)
(1.0612 0.00514477 -2.94136e-14)
(1.05918 -0.00143031 -1.61041e-14)
(1.0656 -0.00688885 -1.63692e-14)
(1.07855 -0.0105598 -3.93636e-14)
(1.09511 -0.0118547 -7.93186e-14)
(1.11165 -0.0105607 -1.1828e-13)
(1.12458 -0.00704281 -1.34761e-13)
(1.13127 -0.00220126 -1.20438e-13)
(1.13068 0.00282859 -8.66899e-14)
(1.12341 0.00706167 -5.21127e-14)
(1.11117 0.00992683 -2.70337e-14)
(1.09612 0.0113012 -1.26537e-14)
(1.08027 0.0113803 -5.93211e-15)
(1.06516 0.0105052 -3.42134e-15)
(1.05183 0.00902999 -2.81136e-15)
(1.04083 0.00725239 -2.98826e-15)
(1.03237 0.00539576 -3.6091e-15)
(1.02642 0.00361693 -4.65846e-15)
(1.02278 0.00202249 -6.16152e-15)
(1.02114 0.000684092 -8.05673e-15)
(1.02112 -0.000351002 -1.01536e-14)
(1.02226 -0.00105572 -1.21688e-14)
(1.02413 -0.00142458 -1.3771e-14)
(1.02626 -0.00147731 -1.46711e-14)
(1.02824 -0.00126046 -1.47359e-14)
(1.02975 -0.000844138 -1.40524e-14)
(1.03057 -0.000313018 -1.29346e-14)
(1.03061 0.000246233 -1.17996e-14)
(1.0299 0.000757669 -1.09565e-14)
(1.02854 0.00116561 -1.05284e-14)
(1.02671 0.00143886 -1.04734e-14)
(1.02462 0.00156987 -1.06639e-14)
(1.02244 0.00157017 -1.0951e-14)
(1.02036 0.00146418 -1.12063e-14)
(1.01848 0.00128288 -1.13392e-14)
(1.0169 0.00105845 -1.12841e-14)
(1.01564 0.000820354 -1.09936e-14)
(1.01471 0.000592919 -1.04267e-14)
(1.01407 0.000394191 -9.55182e-15)
(1.01368 0.00023576 -8.35903e-15)
(1.01347 0.000123233 -6.86648e-15)
(1.01337 5.70723e-05 -5.13292e-15)
(1.01334 3.36204e-05 -3.24924e-15)
(1.01331 4.61884e-05 -1.32564e-15)
(1.01323 8.61527e-05 5.24767e-16)
(1.01309 0.000144027 2.21114e-15)
(1.01285 0.000210455 3.67338e-15)
(1.01253 0.000277048 4.894e-15)
(1.01211 0.000337011 5.8959e-15)
(1.01162 0.000385513 6.73174e-15)
(1.01107 0.000419799 7.47621e-15)
(1.01049 0.000439071 8.20589e-15)
(1.00989 0.000444181 8.99294e-15)
(1.00929 0.000437217 9.89606e-15)
(1.00871 0.000421038 1.09545e-14)
(1.00816 0.00039883 1.21919e-14)
(1.00765 0.000373715 1.36117e-14)
(1.00716 0.00034846 1.5204e-14)
(1.00671 0.000325278 1.69491e-14)
(1.0063 0.000305731 1.8816e-14)
(1.0059 0.000290717 2.07716e-14)
(1.00552 0.000280529 2.27795e-14)
(1.00515 0.00027495 2.48033e-14)
(1.00479 0.000273383 2.68129e-14)
(1.00442 0.000274981 2.87836e-14)
(1.00405 0.00027878 3.07057e-14)
(1.00367 0.000283809 3.25818e-14)
(1.00329 0.000289176 3.44282e-14)
(1.0029 0.000294139 3.62742e-14)
(1.0025 0.000298141 3.81517e-14)
(1.0021 0.000300821 4.00956e-14)
(1.00169 0.000302009 4.21304e-14)
(1.00129 0.000301701 4.42662e-14)
(1.00088 0.000300015 4.64962e-14)
(1.00048 0.000297154 4.87924e-14)
(1.00009 0.000293358 5.11147e-14)
(0.999694 0.000288861 5.34123e-14)
(0.999309 0.000283862 5.56325e-14)
(0.99893 0.000278496 5.77305e-14)
(0.998559 0.000272826 5.96742e-14)
(0.998195 0.00026684 6.14595e-14)
(0.997839 0.000260459 6.31148e-14)
(0.997492 0.000253547 6.47131e-14)
(0.997154 0.000245935 6.63833e-14)
(0.996826 0.00023739 6.83147e-14)
(0.99651 0.000227666 7.07686e-14)
(0.996207 0.000216275 7.40725e-14)
(0.995921 0.000202771 7.86148e-14)
(0.995653 0.000185848 8.48316e-14)
(0.995411 0.000164901 9.31803e-14)
(0.995196 0.000136571 1.0412e-13)
(0.99503 0.000102005 1.18066e-13)
(0.994899 5.24575e-05 1.3536e-13)
(0.994873 -7.67146e-08 1.56221e-13)
(0.994855 -8.30866e-05 1.8054e-13)
(0.995088 -0.000142582 2.09013e-13)
(0.995135 -0.000267873 2.35945e-13)
(0.995861 -0.000328047 2.86644e-13)
(1.00014 -0.00138011 2.15959e-22)
(1.0021 -0.00416153 3.69011e-21)
(1.00657 -0.00709197 2.71707e-21)
(1.01336 -0.0102149 4.99171e-21)
(1.02278 -0.0135266 -1.28094e-19)
(1.03499 -0.0169049 1.55848e-19)
(1.05005 -0.020125 -6.3215e-19)
(1.06775 -0.022749 -1.28084e-18)
(1.08744 -0.0243059 4.01479e-18)
(1.10802 -0.0242817 9.83442e-19)
(1.1278 -0.0223992 -2.16033e-17)
(1.14519 -0.0191095 -2.97894e-17)
(1.15927 -0.0148558 1.63379e-17)
(1.16939 -0.0101666 1.10837e-16)
(1.17542 -0.00566988 2.05055e-16)
(1.17782 -0.00198455 2.47017e-16)
(1.17757 0.000385813 2.06088e-16)
(1.17604 0.00124968 6.82693e-17)
(1.17464 0.0008811 -1.68658e-16)
(1.17431 3.13937e-05 -4.54039e-16)
(1.17511 -0.000229599 -6.88765e-16)
(1.176 0.00117747 -7.97996e-16)
(1.17498 0.00488589 -7.81608e-16)
(1.16971 0.010634 -6.89043e-16)
(1.15859 0.017241 -5.78271e-16)
(1.1415 0.0231224 -4.85878e-16)
(1.11982 0.0269022 -4.24173e-16)
(1.09592 0.0277287 -4.02362e-16)
(1.07258 0.025276 -4.01232e-16)
(1.05263 0.0195928 -1.27762e-16)
(1.03869 0.0109926 2.73814e-16)
(1.03312 6.38972e-05 -3.65248e-15)
(1.03773 -0.0121704 -5.29326e-15)
(1.05338 -0.0239435 7.97086e-14)
(1.07904 -0.0325984 3.512e-13)
(1.11076 -0.0351282 6.59432e-13)
(1.14166 -0.0296226 6.82074e-13)
(1.16385 -0.016813 4.12088e-13)
(1.17165 -0.00017631 1.4743e-13)
(1.16383 0.0158191 2.5767e-14)
(1.14328 0.0278127 -4.97038e-15)
(1.11489 0.0344289 -8.93367e-16)
(1.08357 0.0357766 -8.83805e-15)
(1.05342 0.0325253 -4.53185e-14)
(1.02774 0.0252381 1.11345e-13)
(1.00949 0.0141104 5.71047e-13)
(1.00181 -0.000934161 -9.33712e-13)
(1.00835 -0.0197945 -8.2006e-12)
(1.03268 -0.0412368 -1.02676e-11)
(1.0766 -0.0618297 2.78149e-11)
(1.1378 -0.0757476 1.18141e-10)
(1.20811 -0.076531 1.98754e-10)
(1.27321 -0.0607018 1.92953e-10)
(1.3166 -0.0310366 1.13734e-10)
(1.32764 0.00378219 3.4955e-11)
(1.30691 0.0335593 -3.82569e-12)
(1.26447 0.0516999 -9.58928e-12)
(1.21341 0.0573505 -4.05883e-12)
(1.1641 0.0535854 1.24298e-13)
(1.12233 0.0443858 1.04613e-12)
(1.09043 0.0327847 5.82464e-13)
(1.06891 0.0205126 1.18183e-13)
(1.05764 0.00846393 -4.39014e-14)
(1.05621 -0.00266832 -7.80936e-14)
(1.06368 -0.0119588 -2.33728e-13)
(1.07812 -0.0182348 -6.50381e-13)
(1.09644 -0.0204455 -1.17295e-12)
(1.11465 -0.0181937 -1.44016e-12)
(1.12878 -0.0121042 -1.27734e-12)
(1.13595 -0.00375 -8.57769e-13)
(1.1351 0.00488728 -4.57827e-13)
(1.12702 0.0121018 -1.95354e-13)
(1.11375 0.0169277 -6.32746e-14)
(1.09772 0.0191857 -1.34382e-14)
(1.08107 0.0192415 -2.26498e-15)
(1.06541 0.0176967 -3.97309e-15)
(1.05175 0.0151602 -7.63092e-15)
(1.04061 0.0121352 -1.04722e-14)
(1.03215 0.00899377 -1.28444e-14)
(1.02629 0.00599431 -1.55854e-14)
(1.02281 0.00331152 -1.90391e-14)
(1.02138 0.00106279 -2.29321e-14)
(1.02159 -0.000673755 -2.65712e-14)
(1.02298 -0.00185251 -2.90338e-14)
(1.02509 -0.00246353 -2.94217e-14)
(1.02742 -0.00253951 -2.72125e-14)
(1.02957 -0.00215927 -2.25803e-14)
(1.03119 -0.00144222 -1.65018e-14)
(1.03205 -0.000532913 -1.05461e-14)
(1.03208 0.000420784 -6.29123e-15)
(1.0313 0.00128967 -4.48564e-15)
(1.02985 0.0019796 -4.9479e-15)
(1.02791 0.0024386 -6.93747e-15)
(1.02571 0.00265505 -9.54957e-15)
(1.02345 0.00264972 -1.19973e-14)
(1.0213 0.00246497 -1.37352e-14)
(1.01938 0.00215391 -1.44533e-14)
(1.01777 0.00177135 -1.40057e-14)
(1.01651 0.00136719 -1.23352e-14)
(1.0156 0.000982431 -9.43203e-15)
(1.01498 0.000647305 -5.33246e-15)
(1.01462 0.000381092 -1.45336e-16)
(1.01445 0.000192955 5.92114e-15)
(1.01439 8.34022e-05 1.25531e-14)
(1.01438 4.60295e-05 1.93568e-14)
(1.01437 6.93623e-05 2.59132e-14)
(1.01431 0.000138701 3.18451e-14)
(1.01417 0.00023793 3.68786e-14)
(1.01394 0.000351191 4.08821e-14)
(1.0136 0.000464302 4.38752e-14)
(1.01318 0.000565809 4.60088e-14)
(1.01267 0.000647609 4.75252e-14)
(1.01211 0.000705133 4.87096e-14)
(1.01151 0.000737125 4.98441e-14)
(1.0109 0.000745123 5.11724e-14)
(1.01029 0.000732738 5.28772e-14)
(1.00971 0.00070487 5.50719e-14)
(1.00915 0.000666946 5.78027e-14)
(1.00863 0.000624266 6.10574e-14)
(1.00814 0.000581508 6.47779e-14)
(1.0077 0.000542396 6.88741e-14)
(1.00728 0.000509544 7.32372e-14)
(1.00688 0.000484441 7.77514e-14)
(1.0065 0.000467546 8.23056e-14)
(1.00613 0.000458461 8.68023e-14)
(1.00577 0.000456149 9.11676e-14)
(1.0054 0.000459163 9.53583e-14)
(1.00503 0.000465858 9.93671e-14)
(1.00465 0.000474584 1.03224e-13)
(1.00426 0.000483838 1.06994e-13)
(1.00386 0.000492369 1.10764e-13)
(1.00346 0.000499242 1.14635e-13)
(1.00305 0.00050386 1.18696e-13)
(1.00264 0.000505948 1.23014e-13)
(1.00223 0.000505509 1.27612e-13)
(1.00182 0.000502757 1.32463e-13)
(1.00141 0.000498044 1.37489e-13)
(1.00101 0.000491781 1.42568e-13)
(1.00061 0.000484373 1.47544e-13)
(1.00022 0.000476157 1.52252e-13)
(0.999831 0.000467365 1.56538e-13)
(0.999452 0.000458107 1.60286e-13)
(0.99908 0.000448361 1.63443e-13)
(0.998715 0.000437994 1.66051e-13)
(0.998359 0.000426775 1.68278e-13)
(0.998011 0.000414419 1.70445e-13)
(0.997672 0.000400528 1.73051e-13)
(0.997344 0.000384689 1.76784e-13)
(0.997029 0.000366102 1.82518e-13)
(0.996729 0.000344027 1.91288e-13)
(0.996447 0.000316358 2.04246e-13)
(0.996189 0.000282092 2.22596e-13)
(0.995957 0.00023584 2.47526e-13)
(0.995771 0.000179354 2.80099e-13)
(0.995619 9.86367e-05 3.21168e-13)
(0.995563 1.27628e-05 3.71233e-13)
(0.99552 -0.000122296 4.29982e-13)
(0.995704 -0.000219993 4.98805e-13)
(0.99573 -0.000423544 5.64174e-13)
(0.996362 -0.000523632 6.85457e-13)
(1.00013 -0.00191632 -2.4861e-20)
(1.00205 -0.00578132 -4.7764e-19)
(1.00641 -0.00986902 -8.47784e-19)
(1.01308 -0.014251 -1.64123e-18)
(1.02242 -0.0189337 -1.91048e-18)
(1.03467 -0.0237553 -2.08955e-18)
(1.04997 -0.0284052 -9.46178e-18)
(1.0682 -0.0322424 1.10108e-17)
(1.08872 -0.0345757 5.36389e-18)
(1.11039 -0.0345929 -9.14412e-17)
(1.1312 -0.03186 -6.75236e-17)
(1.14935 -0.0271008 2.95085e-16)
(1.16388 -0.0209572 7.79776e-16)
(1.1741 -0.0141839 9.66133e-16)
(1.17985 -0.00768912 5.8365e-16)
(1.18162 -0.00238268 -3.58326e-16)
(1.18051 0.0009764 -1.70196e-15)
(1.17815 0.00208297 -3.28768e-15)
(1.17622 0.00132263 -4.7921e-15)
(1.17592 -0.000196461 -5.69524e-15)
(1.17741 -0.000873336 -5.46504e-15)
(1.17951 0.000940909 -4.18037e-15)
(1.17981 0.00624488 -2.60359e-15)
(1.1754 0.0146656 -1.32714e-15)
(1.16428 0.0244105 -5.74871e-16)
(1.14627 0.0330887 -2.55818e-16)
(1.123 0.03867 -1.72498e-16)
(1.09716 0.0399468 -1.67251e-16)
(1.07183 0.0364957 2.52454e-16)
(1.05002 0.0284138 1.59754e-15)
(1.03455 0.0161325 -1.14251e-15)
(1.02794 0.000423695 -3.31812e-16)
(1.03239 -0.0173491 1.06731e-13)
(1.04925 -0.0346998 2.87275e-13)
(1.07784 -0.0476954 -5.43621e-15)
(1.11396 -0.0517114 -6.90915e-13)
(1.14956 -0.0437025 -8.16659e-13)
(1.17509 -0.0247097 -4.37593e-13)
(1.1837 -7.0078e-05 -1.45868e-13)
(1.17424 0.0233944 -3.25663e-14)
(1.15061 0.0407015 -4.43497e-15)
(1.1188 0.0500131 -3.38988e-16)
(1.0844 0.0517303 -6.82441e-14)
(1.05161 0.0469996 3.03006e-14)
(1.02358 0.0366964 8.94531e-13)
(1.00312 0.0210345 -3.22753e-13)
(0.993503 -0.000302784 -1.16241e-11)
(0.998691 -0.0274003 -1.50507e-11)
(1.02214 -0.0585345 8.61138e-11)
(1.06526 -0.0887737 4.10353e-10)
(1.12686 -0.109876 9.19659e-10)
(1.20137 -0.112221 1.35385e-09)
(1.27552 -0.089651 1.41116e-09)
(1.32923 -0.045523 1.0441e-09)
(1.34573 0.00666888 5.30975e-10)
(1.32305 0.0507411 1.59691e-10)
(1.27389 0.0766377 -1.02158e-13)
(1.21569 0.0836625 -2.75662e-11)
(1.1614 0.0770903 -1.38772e-11)
(1.11711 0.0631497 -2.00549e-12)
(1.08432 0.0462481 1.49556e-12)
(1.06277 0.0286778 1.14465e-12)
(1.05197 0.0114975 3.5648e-13)
(1.05152 -0.00444381 -2.30319e-13)
(1.06066 -0.0178449 -1.42561e-12)
(1.0775 -0.0269475 -3.7889e-12)
(1.09863 -0.0301267 -6.33678e-12)
(1.11949 -0.0267343 -7.21591e-12)
(1.13546 -0.0176853 -5.80585e-12)
(1.14329 -0.00534579 -3.36663e-12)
(1.14192 0.00730402 -1.45366e-12)
(1.13249 0.0177379 -4.23514e-13)
(1.11755 0.0245794 -2.28103e-14)
(1.09993 0.0276417 6.28269e-14)
(1.08204 0.0275295 3.96128e-14)
(1.06554 0.0251607 2.33506e-15)
(1.05141 0.0214298 -2.16257e-14)
(1.04009 0.017055 -3.30105e-14)
(1.03166 0.0125547 -3.8801e-14)
(1.02598 0.00828323 -4.37808e-14)
(1.02277 0.00447748 -4.89893e-14)
(1.02168 0.0012966 -5.28359e-14)
(1.02227 -0.00115215 -5.27148e-14)
(1.02405 -0.00280445 -4.59596e-14)
(1.02653 -0.0036451 -3.09232e-14)
(1.02919 -0.00371999 -8.08382e-15)
(1.03159 -0.00314236 1.94552e-14)
(1.03337 -0.00208523 4.64416e-14)
(1.03429 -0.000758554 6.68767e-14)
(1.03428 0.000623213 7.62388e-14)
(1.03339 0.00187373 7.40025e-14)
(1.03179 0.00285874 6.30557e-14)
(1.02968 0.00350596 4.76885e-14)
(1.02732 0.00380178 3.19665e-14)
(1.02492 0.00377898 1.8864e-14)
(1.02266 0.00350072 1.00885e-14)
(1.02067 0.0030447 6.33277e-15)
(1.01904 0.00249014 7.67348e-15)
(1.01778 0.00190853 1.38852e-14)
(1.01689 0.00135809 2.46033e-14)
(1.01632 0.000881339 3.93295e-14)
(1.01601 0.000505023 5.73541e-14)
(1.01589 0.000241448 7.76949e-14)
(1.01588 9.06489e-05 9.9101e-14)
(1.01592 4.29182e-05 1.20169e-13)
(1.01594 8.14337e-05 1.39529e-13)
(1.0159 0.000184885 1.56054e-13)
(1.01577 0.000330043 1.69037e-13)
(1.01554 0.000494155 1.78267e-13)
(1.01519 0.000656963 1.84023e-13)
(1.01475 0.000802201 1.8697e-13)
(1.01423 0.000918466 1.88007e-13)
(1.01364 0.000999451 1.88111e-13)
(1.01302 0.00104361 1.88185e-13)
(1.01239 0.00105337 1.88969e-13)
(1.01177 0.00103411 1.90983e-13)
(1.01117 0.000992977 1.94512e-13)
(1.0106 0.000937832 1.99633e-13)
(1.01008 0.000876293 2.06241e-13)
(1.00959 0.000815037 2.14106e-13)
(1.00914 0.000759343 2.22913e-13)
(1.00873 0.000712877 2.32311e-13)
(1.00833 0.000677681 2.41953e-13)
(1.00795 0.000654325 2.51527e-13)
(1.00759 0.000642166 2.60784e-13)
(1.00722 0.000639658 2.69559e-13)
(1.00685 0.000644683 2.77782e-13)
(1.00647 0.000654862 2.85486e-13)
(1.00609 0.000667826 2.92799e-13)
(1.00569 0.000681428 2.99926e-13)
(1.00529 0.000693894 3.07125e-13)
(1.00488 0.000703911 3.14661e-13)
(1.00446 0.000710654 3.22774e-13)
(1.00404 0.000713759 3.31624e-13)
(1.00362 0.00071326 3.41258e-13)
(1.0032 0.000709489 3.51595e-13)
(1.00278 0.000702971 3.62409e-13)
(1.00237 0.000694311 3.73359e-13)
(1.00196 0.000684097 3.84015e-13)
(1.00156 0.000672819 3.93909e-13)
(1.00116 0.000660814 4.02596e-13)
(1.00077 0.000648236 4.09722e-13)
(1.00039 0.000635056 4.15102e-13)
(1.00001 0.000621084 4.18799e-13)
(0.999638 0.000605984 4.21202e-13)
(0.999275 0.000589344 4.23106e-13)
(0.99892 0.000570597 4.25763e-13)
(0.998575 0.000549149 4.3091e-13)
(0.998242 0.000523897 4.40749e-13)
(0.997922 0.000493811 4.57868e-13)
(0.997619 0.000456073 4.85126e-13)
(0.997339 0.000409278 5.25476e-13)
(0.997082 0.00034628 5.81784e-13)
(0.996868 0.000269254 6.56569e-13)
(0.996686 0.000159695 7.51799e-13)
(0.996588 4.26773e-05 8.68513e-13)
(0.99651 -0.000140163 1.00582e-12)
(0.996623 -0.000273729 1.16635e-12)
(0.996619 -0.000548918 1.31911e-12)
(0.997118 -0.000686959 1.59858e-12)
(1.00013 -0.00243517 -1.77573e-18)
(1.00197 -0.00735169 -7.25806e-18)
(1.00617 -0.0125784 -6.20481e-18)
(1.01267 -0.0182258 -9.18933e-18)
(1.02188 -0.0243232 -1.4334e-18)
(1.03413 -0.0306811 -2.67141e-17)
(1.04973 -0.036909 1.51459e-17)
(1.06866 -0.0421362 6.31185e-17)
(1.09033 -0.0454193 -3.2132e-16)
(1.11354 -0.045535 -6.60749e-17)
(1.13579 -0.0418415 1.54038e-15)
(1.15498 -0.0354498 2.40253e-15)
(1.17013 -0.027218 3.69163e-17)
(1.18048 -0.0181325 -5.50664e-15)
(1.18583 -0.0094046 -1.21862e-14)
(1.18669 -0.00228206 -1.79761e-14)
(1.18436 0.00214803 -2.20405e-14)
(1.18079 0.00341063 -2.35539e-14)
(1.1781 0.00199823 -2.07313e-14)
(1.17782 -0.000570351 -1.23612e-14)
(1.18029 -0.00204472 5.91293e-16)
(1.18416 -4.31927e-05 1.36243e-14)
(1.1864 0.00694 2.16911e-14)
(1.18326 0.0184169 2.35506e-14)
(1.17215 0.0318267 2.09459e-14)
(1.15284 0.0437749 1.65791e-14)
(1.12732 0.0514609 1.24568e-14)
(1.09879 0.0533081 1.00699e-14)
(1.07072 0.0488373 1.23188e-14)
(1.04638 0.0382316 9.37114e-15)
(1.02875 0.0220363 -1.34021e-14)
(1.02065 0.00114822 1.82396e-13)
(1.02473 -0.0228166 7.3897e-13)
(1.04311 -0.0466627 -1.60537e-12)
(1.07576 -0.0649663 -1.23504e-11)
(1.11822 -0.0710214 -2.65844e-11)
(1.16062 -0.0602026 -2.96374e-11)
(1.19089 -0.0338505 -1.92653e-11)
(1.20055 0.000299089 -7.6481e-12)
(1.18862 0.0324008 -1.64244e-12)
(1.16052 0.0555354 1.54193e-13)
(1.12392 0.0675246 2.16015e-13)
(1.08529 0.0693646 -5.58861e-14)
(1.04899 0.0629255 8.67879e-13)
(1.01787 0.0494795 1.76729e-12)
(0.994577 0.0291543 -1.0388e-11)
(0.982462 0.00129984 -3.1683e-11)
(0.984741 -0.0340775 6.0235e-11)
(1.00316 -0.0744826 5.04431e-10)
(1.03947 -0.114182 1.38338e-09)
(1.09624 -0.143853 2.44227e-09)
(1.17192 -0.150962 3.27885e-09)
(1.25511 -0.124717 3.52987e-09)
(1.32404 -0.0661373 2.98139e-09)
(1.35476 0.00693168 1.86687e-09)
(1.33755 0.0695061 7.91577e-10)
(1.28452 0.105337 1.56105e-10)
(1.21844 0.113539 -5.68058e-11)
(1.1575 0.102845 -6.11828e-11)
(1.10961 0.0829167 -2.28803e-11)
(1.07563 0.059955 -1.00416e-12)
(1.05413 0.0366918 3.7929e-12)
(1.04403 0.0140915 2.28662e-12)
(1.04495 -0.00701156 -2.30838e-13)
(1.05644 -0.024946 -3.18789e-12)
(1.0767 -0.0372231 -6.00753e-12)
(1.10189 -0.0414472 -7.21846e-12)
(1.12653 -0.0366132 -6.13711e-12)
(1.14504 -0.0239962 -3.33089e-12)
(1.15364 -0.00696089 -4.94001e-13)
(1.15137 0.0102971 7.18655e-13)
(1.13994 0.0242882 8.06112e-13)
(1.12257 0.0332079 5.45954e-13)
(1.10273 0.0369398 2.76815e-13)
(1.08312 0.0364338 8.5617e-14)
(1.06549 0.0330078 -2.45181e-14)
(1.05076 0.0278858 -7.54297e-14)
(1.03922 0.0220128 -9.38812e-14)
(1.03086 0.0160492 -1.0032e-13)
(1.02545 0.0104346 -1.03639e-13)
(1.02264 0.00545895 -1.01762e-13)
(1.02202 0.00131671 -8.63272e-14)
(1.02313 -0.00185827 -4.83023e-14)
(1.02544 -0.00398244 1.86285e-14)
(1.02843 -0.00503389 1.13888e-13)
(1.03155 -0.00507164 2.27513e-13)
(1.03429 -0.00424643 3.41292e-13)
(1.03628 -0.00279123 4.33527e-13)
(1.03727 -0.000989622 4.85535e-13)
(1.03721 0.000869353 4.88338e-13)
(1.03617 0.00253644 4.48143e-13)
(1.03434 0.00383488 3.81198e-13)
(1.032 0.004673 3.0558e-13)
(1.02941 0.00503834 2.35876e-13)
(1.02682 0.00498 1.81201e-13)
(1.02442 0.00458614 1.45638e-13)
(1.02235 0.00396266 1.29814e-13)
(1.02068 0.00321583 1.32526e-13)
(1.01943 0.00244032 1.51854e-13)
(1.01858 0.0017123 1.85633e-13)
(1.01807 0.00108664 2.31423e-13)
(1.01784 0.000597188 2.86273e-13)
(1.01779 0.000258742 3.46561e-13)
(1.01785 7.0087e-05 4.08084e-13)
(1.01794 1.73863e-05 4.66457e-13)
(1.01801 7.76561e-05 5.17677e-13)
(1.018 0.000222194 5.58718e-13)
(1.01788 0.000419965 5.87972e-13)
(1.01764 0.000640754 6.05392e-13)
(1.01728 0.000857828 6.12341e-13)
(1.01682 0.00104989 6.11203e-13)
(1.01626 0.00120221 6.04896e-13)
(1.01565 0.00130687 5.96389e-13)
(1.015 0.00136228 5.88307e-13)
(1.01434 0.00137209 5.82688e-13)
(1.0137 0.00134377 5.80869e-13)
(1.01308 0.00128704 5.83494e-13)
(1.01251 0.00121248 5.90604e-13)
(1.01197 0.00113021 6.0176e-13)
(1.01149 0.00104903 6.1619e-13)
(1.01104 0.000975845 6.32938e-13)
(1.01062 0.000915349 6.50993e-13)
(1.01023 0.00087009 6.69403e-13)
(1.00985 0.000840668 6.87364e-13)
(1.00949 0.000826088 7.04284e-13)
(1.00912 0.000824193 7.19826e-13)
(1.00874 0.000832101 7.3392e-13)
(1.00836 0.000846619 7.46757e-13)
(1.00797 0.000864594 7.58754e-13)
(1.00757 0.000883196 7.70496e-13)
(1.00715 0.000900109 7.82661e-13)
(1.00673 0.000913642 7.9592e-13)
(1.0063 0.000922755 8.10843e-13)
(1.00587 0.000927024 8.27792e-13)
(1.00543 0.000926543 8.46851e-13)
(1.005 0.000921801 8.67767e-13)
(1.00457 0.000913527 8.89952e-13)
(1.00414 0.000902551 9.12518e-13)
(1.00372 0.000889667 9.34359e-13)
(1.00331 0.000875533 9.5427e-13)
(1.0029 0.000860597 9.71098e-13)
(1.00249 0.000845067 9.83914e-13)
(1.00209 0.0008289 9.92203e-13)
(1.0017 0.000811841 9.96061e-13)
(1.00131 0.000793446 9.96391e-13)
(1.00093 0.000773157 9.9507e-13)
(1.00055 0.000750227 9.95074e-13)
(1.00018 0.000723864 1.00051e-12)
(0.999827 0.00069268 1.01656e-12)
(0.999482 0.000655348 1.04926e-12)
(0.999152 0.000608447 1.1052e-12)
(0.998841 0.000550168 1.19109e-12)
(0.998554 0.000471971 1.31331e-12)
(0.998302 0.000376196 1.47734e-12)
(0.998082 0.000240888 1.68727e-12)
(0.997931 9.55718e-05 1.94495e-12)
(0.997807 -0.00012918 2.24797e-12)
(0.99783 -0.000295665 2.60069e-12)
(0.997789 -0.000632954 2.93634e-12)
(0.998114 -0.000806456 3.5411e-12)
(1.00012 -0.00292974 2.25801e-18)
(1.00186 -0.00885245 8.44075e-18)
(1.00584 -0.0151899 5.98594e-18)
(1.01209 -0.022106 1.11057e-17)
(1.02108 -0.0296704 2.05239e-17)
(1.03329 -0.0376844 -7.59413e-17)
(1.04922 -0.0456901 3.79051e-16)
(1.069 -0.0525549 -7.702e-16)
(1.09218 -0.0570426 -4.44172e-16)
(1.11745 -0.057339 5.03321e-15)
(1.14161 -0.0525234 3.80326e-15)
(1.16214 -0.0442784 -1.51997e-14)
(1.1781 -0.0337028 -4.48332e-14)
(1.18864 -0.0220258 -6.75429e-14)
(1.19346 -0.0107946 -7.13825e-14)
(1.19312 -0.00165302 -5.49378e-14)
(1.18911 0.00391277 -2.20785e-14)
(1.18385 0.00519399 2.78822e-14)
(1.18003 0.00278049 9.64727e-14)
(1.17971 -0.00132471 1.80234e-13)
(1.18349 -0.00407441 2.54055e-13)
(1.18981 -0.0021369 2.79064e-13)
(1.19479 0.00669489 2.57626e-13)
(1.19348 0.0218137 2.13872e-13)
(1.18244 0.0396512 1.65283e-13)
(1.1614 0.0555208 1.22317e-13)
(1.13289 0.0656978 8.94356e-14)
(1.10083 0.0682409 7.22959e-14)
(1.06921 0.062696 7.08135e-14)
(1.04157 0.0493976 2.06576e-14)
(1.02111 0.0290032 8.14147e-14)
(1.01089 0.00244679 1.05002e-12)
(1.0142 -0.0285633 -1.10677e-13)
(1.0344 -0.0602104 -1.57433e-11)
(1.07285 -0.0852689 -5.06791e-11)
(1.12457 -0.0941714 -8.78886e-11)
(1.17652 -0.0800489 -1.00512e-10)
(1.21282 -0.0446304 -7.56756e-11)
(1.22324 0.00113414 -3.71428e-11)
(1.20744 0.0434546 -1.1291e-11)
(1.1731 0.073055 -6.20468e-13)
(1.13011 0.0876146 1.1559e-12)
(1.0861 0.0891828 9.38935e-13)
(1.04543 0.0807042 3.20501e-12)
(1.01057 0.0639025 -2.70387e-12)
(0.984032 0.0387445 -3.71468e-11)
(0.968312 0.00463948 -1.28489e-11)
(0.963978 -0.0377066 3.74246e-10)
(0.97205 -0.0858598 1.35531e-09)
(0.999374 -0.135309 2.66497e-09)
(1.05377 -0.176152 3.7923e-09)
(1.13286 -0.191734 4.54856e-09)
(1.2225 -0.165718 4.95477e-09)
(1.30195 -0.0952218 4.74136e-09)
(1.34729 7.15029e-05 3.6062e-09)
(1.34178 0.0859082 1.96803e-09)
(1.29118 0.136122 6.43903e-10)
(1.21995 0.147088 3.01733e-12)
(1.15223 0.131464 -1.31943e-10)
(1.09992 0.104073 -7.81127e-11)
(1.0643 0.0739855 -1.83024e-11)
(1.04285 0.0444805 5.20866e-12)
(1.03364 0.016094 6.11094e-12)
(1.0363 -0.0106442 3.06499e-12)
(1.05072 -0.0337182 1.22115e-11)
(1.07517 -0.0496777 4.37964e-11)
(1.10534 -0.0550476 8.60917e-11)
(1.13485 -0.0483129 1.09813e-10)
(1.15691 -0.0312335 9.99255e-11)
(1.1668 -0.00849478 6.86344e-11)
(1.16349 0.0141728 3.6071e-11)
(1.14938 0.0321445 1.41046e-11)
(1.12878 0.0431835 3.5353e-12)