/*--------------------------------*- C++ -*----------------------------------*\
  =========                 |
  \\      /  F ield         | OpenFOAM: The Open Source CFD Toolbox
   \\    /   O peration     | Website:  https://openfoam.org
    \\  /    A nd           | Version:  11
     \\/     M anipulation  |
\*---------------------------------------------------------------------------*/
FoamFile
{
    format      ascii;
    class       volVectorField;
    location    "10.885029";
    object      vorticity;
}
// * * * * * * * * * * * * * * * * * * * * * * * * * * * * * * * * * * * * * //

dimensions      [0 0 -1 0 0 0 0];

internalField   nonuniform List<vector> 
7132
(
(-4.77055e-17 -1.84103e-15 -0.0106169)
(-1.5841e-16 -1.79404e-15 -0.0108112)
(-1.51343e-16 -1.77934e-17 -0.0109254)
(-1.80645e-16 -1.78076e-15 -0.0109286)
(-2.33416e-16 -1.76529e-15 -0.0108439)
(-2.19714e-16 4.47532e-18 -0.0107191)
(-2.00033e-16 9.97252e-18 -0.0106102)
(-1.8229e-16 5.62839e-18 -0.0105633)
(-1.39075e-16 1.39837e-18 -0.010608)
(-1.26777e-16 1.03448e-18 -0.010749)
(-1.30537e-16 1.43456e-18 -0.0109641)
(-5.41906e-17 3.9682e-18 -0.0112279)
(-7.03363e-17 4.73739e-18 -0.0114895)
(-7.99002e-17 6.44379e-17 -0.0116927)
(5.66678e-17 -3.35397e-15 -0.0117861)
(1.93324e-16 -1.63644e-15 -0.0117315)
(3.32392e-16 -1.68573e-15 -0.011515)
(3.7736e-16 3.01084e-17 -0.0111593)
(4.49146e-16 -1.68661e-15 -0.0107385)
(4.93194e-16 -3.45004e-15 -0.0103711)
(4.50412e-16 1.33411e-18 -0.01017)
(3.67743e-16 7.66532e-18 -0.0102398)
(3.03918e-16 1.77753e-18 -0.0106476)
(2.42082e-16 -7.42906e-18 -0.0113434)
(1.89684e-16 1.73455e-15 -0.012163)
(1.33281e-16 2.06149e-17 -0.012902)
(-2.8413e-16 1.6154e-18 -0.0133752)
(4.51268e-17 -2.86811e-16 -0.0134451)
(5.53634e-15 4.71089e-17 -0.0130309)
(-1.70721e-15 6.20613e-15 -0.0121256)
(-1.05934e-13 7.6561e-15 -0.0108574)
(-8.94551e-14 -3.74617e-14 -0.00956096)
(1.6635e-12 -1.55746e-13 -0.00858818)
(6.55352e-12 -2.22561e-13 -0.00809431)
(1.11405e-11 -1.07916e-13 -0.00805027)
(1.04254e-11 9.13498e-14 -0.00843791)
(5.75982e-12 1.87892e-13 -0.00939851)
(1.85515e-12 1.52712e-13 -0.0110327)
(1.87258e-13 7.54165e-14 -0.0130349)
(-1.74884e-13 2.55327e-14 -0.0148671)
(-1.59753e-13 3.18612e-14 -0.0160938)
(-1.67042e-13 9.74103e-15 -0.0164807)
(1.30123e-13 -2.93798e-13 -0.0159722)
(1.46686e-12 -7.85367e-13 -0.014661)
(2.05021e-12 6.23825e-13 -0.0128288)
(-8.91951e-12 9.63591e-12 -0.011134)
(-5.17084e-11 3.13483e-11 -0.0107067)
(-1.29475e-10 5.7217e-11 -0.012367)
(-2.13725e-10 6.14994e-11 -0.0155615)
(-2.72535e-10 2.77393e-11 -0.0183341)
(-2.7686e-10 -2.38737e-11 -0.0188387)
(-2.1162e-10 -5.55076e-11 -0.0172949)
(-1.19627e-10 -5.41046e-11 -0.0158585)
(-5.18768e-11 -3.55742e-11 -0.0158961)
(-1.20058e-11 -1.71301e-11 -0.0169852)
(5.77537e-12 -4.96956e-12 -0.018194)
(7.69469e-12 2.73451e-12 -0.0187614)
(-7.05265e-12 9.13063e-12 -0.0184368)
(-3.27482e-11 3.5525e-12 -0.0173482)
(6.91765e-12 -5.02323e-11 -0.0151865)
(3.41485e-10 -2.00156e-10 -0.0102484)
(1.3339e-09 -4.63965e-10 0.000371381)
(3.23713e-09 -7.76604e-10 0.0187663)
(5.8538e-09 -9.76772e-10 0.043595)
(8.48657e-09 -8.9015e-10 0.0696662)
(1.02418e-08 -4.7104e-10 0.0897082)
(1.04186e-08 1.33123e-10 0.0964654)
(8.88274e-09 6.75379e-10 0.0859156)
(6.25545e-09 9.66067e-10 0.0607094)
(3.52672e-09 9.49186e-10 0.0293907)
(1.44449e-09 7.017e-10 0.00171503)
(2.61313e-10 3.85315e-10 -0.0159969)
(-1.96155e-10 1.34722e-10 -0.022906)
(-2.33278e-10 -4.28264e-11 -0.0219399)
(-1.37446e-11 -2.52738e-10 -0.0169087)
(5.14294e-10 -5.96644e-10 -0.0114148)
(1.46673e-09 -1.06991e-09 -0.00956606)
(2.79232e-09 -1.55562e-09 -0.0154107)
(4.20538e-09 -1.90387e-09 -0.0298637)
(5.35355e-09 -2.02428e-09 -0.0485584)
(6.03474e-09 -1.92198e-09 -0.063777)
(6.26806e-09 -1.66507e-09 -0.0687758)
(6.21033e-09 -1.32942e-09 -0.0605094)
(6.00796e-09 -9.58913e-10 -0.0400397)
(5.68832e-09 -5.05133e-10 -0.011821)
(5.21277e-09 1.80587e-10 0.0186528)
(4.52441e-09 1.19383e-09 0.0445176)
(3.59148e-09 2.36429e-09 0.0578592)
(2.48666e-09 3.21457e-09 0.0538127)
(1.39282e-09 3.26758e-09 0.0347969)
(5.09805e-10 2.48344e-09 0.0100708)
(-4.65873e-11 1.32214e-09 -0.00987507)
(-2.70438e-10 3.45025e-10 -0.019264)
(-2.26232e-10 -1.79767e-10 -0.0186802)
(-4.88961e-13 -3.13954e-10 -0.0122705)
(3.12227e-10 -2.48714e-10 -0.00423175)
(6.05294e-10 -1.35905e-10 0.00248499)
(7.80724e-10 -4.36983e-11 0.00612806)
(7.91628e-10 1.5791e-11 0.00596095)
(6.6092e-10 4.86976e-11 0.00216974)
(4.58362e-10 6.00795e-11 -0.00393057)
(2.59686e-10 5.47271e-11 -0.0102456)
(1.12192e-10 3.99659e-11 -0.0150597)
(2.70213e-11 2.32326e-11 -0.0175936)
(-8.79808e-12 9.79556e-12 -0.0179725)
(-1.58489e-11 1.73305e-12 -0.0168638)
(-1.12752e-11 -1.56085e-12 -0.0150653)
(-5.03829e-12 -1.93942e-12 -0.0132181)
(-9.35382e-13 -1.2057e-12 -0.0116965)
(7.61504e-13 -4.45716e-13 -0.0106342)
(1.02702e-12 -2.99181e-14 -0.0100121)
(8.19121e-13 6.80414e-14 -0.0097456)
(6.75575e-13 1.02436e-14 -0.00973678)
(7.56217e-13 -8.19925e-14 -0.00989347)
(1.01111e-12 -1.46017e-13 -0.0101396)
(1.32209e-12 -1.60101e-13 -0.0104194)
(1.57996e-12 -1.36133e-13 -0.0106947)
(1.71397e-12 -7.96472e-14 -0.0109391)
(1.69847e-12 -1.17921e-14 -0.011132)
(1.55212e-12 5.08704e-14 -0.0112559)
(1.32132e-12 1.00756e-13 -0.0113007)
(1.05915e-12 1.25999e-13 -0.0112664)
(8.10523e-13 1.27922e-13 -0.0111629)
(6.05226e-13 1.10862e-13 -0.0110084)
(4.57513e-13 7.97523e-14 -0.0108253)
(3.69743e-13 4.65388e-14 -0.0106367)
(3.37013e-13 1.13051e-14 -0.0104623)
(3.51133e-13 -2.08314e-14 -0.0103165)
(4.02984e-13 -4.80682e-14 -0.0102071)
(4.83416e-13 -7.13069e-14 -0.0101357)
(5.83378e-13 -8.49018e-14 -0.0100989)
(6.93741e-13 -9.38417e-14 -0.0100902)
(8.0564e-13 -9.63719e-14 -0.0101014)
(9.10785e-13 -9.26916e-14 -0.0101242)
(1.00182e-12 -8.50999e-14 -0.0101509)
(1.07301e-12 -6.94421e-14 -0.0101757)
(1.12081e-12 -5.25789e-14 -0.0101941)
(1.14459e-12 -3.48474e-14 -0.0102034)
(1.1465e-12 -1.83306e-14 -0.0102021)
(1.13084e-12 -6.50767e-15 -0.0101903)
(1.1032e-12 4.69805e-15 -0.0101686)
(1.06946e-12 9.61212e-15 -0.0101388)
(1.03508e-12 1.01342e-14 -0.0101029)
(1.00448e-12 6.94016e-15 -0.010063)
(9.80706e-13 -7.17354e-16 -0.0100212)
(9.65464e-13 -6.48707e-15 -0.00997938)
(9.59161e-13 -1.44922e-14 -0.00993895)
(9.61203e-13 -2.20894e-14 -0.00990078)
(9.70255e-13 -2.86009e-14 -0.00986524)
(9.84504e-13 -3.5348e-14 -0.00983227)
(1.00202e-12 -3.69213e-14 -0.0098014)
(1.02094e-12 -3.85534e-14 -0.00977201)
(1.03969e-12 -3.87167e-14 -0.00974316)
(1.05709e-12 -3.77295e-14 -0.00971424)
(1.07238e-12 -3.77799e-14 -0.00968413)
(1.08535e-12 -3.39092e-14 -0.00965279)
(1.09603e-12 -3.24831e-14 -0.00961874)
(1.10568e-12 -2.90204e-14 -0.00958377)
(1.1125e-12 -3.74247e-14 -0.00954016)
(1.1279e-12 -2.626e-14 -0.00948511)
(-4.80097e-17 -4.31237e-18 -0.0317795)
(-1.64481e-16 -7.28755e-18 -0.0323706)
(-1.66529e-16 -7.52301e-18 -0.0327239)
(-2.00134e-16 -8.38463e-18 -0.0327398)
(-2.60439e-16 -9.33561e-18 -0.0324777)
(-2.60017e-16 -8.82827e-18 -0.032072)
(-2.60286e-16 -8.73947e-18 -0.031687)
(-2.56172e-16 -2.48503e-17 -0.0314636)
(-1.73418e-16 1.70837e-15 -0.0315006)
(-2.26681e-16 -3.23461e-18 -0.0318287)
(-3.99143e-16 -3.48586e-17 -0.0323992)
(-4.94268e-16 1.70859e-15 -0.0331626)
(-3.78685e-16 1.75922e-17 -0.0340007)
(-7.34763e-17 1.78286e-18 -0.0347822)
(4.66502e-16 -2.02906e-17 -0.035407)
(9.65783e-16 -3.9576e-17 -0.0358055)
(1.2164e-15 -4.38664e-17 -0.0359468)
(8.98549e-16 -2.9063e-17 -0.0358437)
(1.21542e-16 -1.06468e-17 -0.0355605)
(-8.22736e-16 1.8717e-17 -0.0351987)
(-1.46765e-15 6.49071e-17 -0.0348219)
(-1.28166e-15 8.09119e-17 -0.0344692)
(-4.88975e-16 6.46077e-17 -0.0341994)
(1.11399e-16 4.62999e-17 -0.0340546)
(3.13668e-16 5.42254e-17 -0.0340257)
(-2.39705e-16 2.6091e-16 -0.0340598)
(-2.55806e-15 4.56927e-17 -0.0340791)
(2.56897e-15 -3.19705e-15 -0.0339975)
(2.46891e-14 9.1989e-16 -0.0337596)
(-6.49067e-14 6.02062e-14 -0.0334149)
(-4.08934e-13 5.15351e-14 -0.0332061)
(7.06145e-13 -9.25647e-13 -0.0335339)
(7.83145e-12 -3.47897e-12 -0.0345408)
(2.15052e-11 -4.96279e-12 -0.0358372)
(3.43132e-11 -2.04904e-12 -0.0367693)
(3.4917e-11 2.78168e-12 -0.0369543)
(2.16236e-11 4.47126e-12 -0.0365741)
(7.70808e-12 2.93725e-12 -0.036139)
(9.5027e-13 1.08869e-12 -0.0359688)
(-8.65315e-13 1.95564e-13 -0.0360564)
(-9.09069e-13 2.79368e-14 -0.0361522)
(-3.8204e-13 -1.36925e-13 -0.0359272)
(1.87849e-12 -1.11248e-12 -0.0351826)
(2.41469e-12 -1.74715e-12 -0.0341362)
(-1.65835e-11 5.81355e-12 -0.033723)
(-5.01661e-11 3.65152e-11 -0.0354813)
(7.08907e-11 9.16244e-11 -0.0401491)
(7.20772e-10 1.38224e-10 -0.0456531)
(1.95225e-09 1.33028e-10 -0.0493304)
(2.99066e-09 5.93033e-11 -0.0517697)
(2.95185e-09 -5.43328e-11 -0.0539938)
(1.96396e-09 -1.34122e-10 -0.0538784)
(8.6274e-10 -1.3398e-10 -0.0503436)
(1.834e-10 -8.93848e-11 -0.045428)
(-4.65731e-11 -4.59579e-11 -0.0411997)
(-4.67855e-11 -1.48233e-11 -0.0387093)
(-1.29752e-11 9.15026e-12 -0.0376361)
(-4.49743e-11 2.93504e-11 -0.037382)
(-1.06008e-10 -3.43265e-12 -0.0373593)
(1.65384e-10 -2.3735e-10 -0.0347049)
(1.59305e-09 -8.63649e-10 -0.0222125)
(5.06761e-09 -1.91178e-09 0.00826863)
(1.05914e-08 -3.03656e-09 0.057522)
(1.68974e-08 -3.60149e-09 0.117736)
(2.2358e-08 -3.08414e-09 0.180829)
(2.59047e-08 -1.43705e-09 0.239857)
(2.67943e-08 8.1264e-10 0.279667)
(2.43101e-08 2.75695e-09 0.277706)
(1.86337e-08 3.64408e-09 0.224103)
(1.15215e-08 3.35466e-09 0.136039)
(5.27126e-09 2.33441e-09 0.0466273)
(1.26896e-09 1.20564e-09 -0.0168112)
(-4.893e-10 3.82016e-10 -0.0459417)
(-7.29534e-10 -1.3403e-10 -0.0485588)
(1.04168e-11 -6.26525e-10 -0.039189)
(1.65812e-09 -1.33688e-09 -0.0341981)
(4.16288e-09 -2.20893e-09 -0.0501291)
(7.01319e-09 -2.92495e-09 -0.0962431)
(9.39183e-09 -3.18448e-09 -0.163816)
(1.0741e-08 -2.93896e-09 -0.227847)
(1.10553e-08 -2.37923e-09 -0.26343)
(1.07243e-08 -1.75286e-09 -0.259909)
(1.02497e-08 -1.19937e-09 -0.22036)
(1.00079e-08 -6.97905e-10 -0.152934)
(1.00312e-08 -1.07544e-10 -0.0664544)
(1.00581e-08 7.62547e-10 0.0289632)
(9.64218e-09 2.00448e-09 0.115808)
(8.37893e-09 3.38317e-09 0.169576)
(6.25188e-09 4.3139e-09 0.17179)
(3.72908e-09 4.25601e-09 0.125067)
(1.47144e-09 3.20315e-09 0.0541933)
(-4.48667e-11 1.71227e-09 -0.00947198)
(-6.60578e-10 4.34847e-10 -0.0456474)
(-4.34768e-10 -3.1474e-10 -0.050697)
(4.61079e-10 -5.83182e-10 -0.0318283)
(1.72836e-09 -5.51603e-10 -0.00042736)
(2.92805e-09 -3.70152e-10 0.0307479)
(3.6172e-09 -1.36865e-10 0.0502799)
(3.57762e-09 7.56965e-11 0.0521962)
(2.92725e-09 2.15333e-10 0.0379976)
(1.99602e-09 2.60698e-10 0.0147469)
(1.11215e-09 2.27814e-10 -0.00889964)
(4.70475e-10 1.56298e-10 -0.0266964)
(1.0753e-10 8.37292e-11 -0.0364295)
(-4.12469e-11 3.12324e-11 -0.0391785)
(-6.83337e-11 2.97507e-12 -0.0375783)
(-4.7704e-11 -6.96444e-12 -0.0342862)
(-2.10455e-11 -7.10932e-12 -0.031158)
(-3.72574e-12 -4.10387e-12 -0.0290869)
(3.44436e-12 -1.42518e-12 -0.0282335)
(4.6358e-12 -5.69929e-14 -0.0283642)
(3.85803e-12 2.455e-13 -0.0291224)
(3.35488e-12 4.16961e-14 -0.0301725)
(3.79019e-12 -2.48027e-13 -0.0312493)
(4.93629e-12 -4.27221e-13 -0.0321707)
(6.26604e-12 -4.42791e-13 -0.0328335)
(7.29619e-12 -3.30335e-13 -0.0332024)
(7.73078e-12 -1.38903e-13 -0.0332922)
(7.4925e-12 7.08694e-14 -0.0331463)
(6.70326e-12 2.41182e-13 -0.0328198)
(5.59405e-12 3.48974e-13 -0.0323707)
(4.40507e-12 3.83132e-13 -0.0318564)
(3.32324e-12 3.54883e-13 -0.0313307)
(2.4599e-12 2.89103e-13 -0.030841)
(1.85777e-12 1.99228e-13 -0.0304251)
(1.51192e-12 1.08523e-13 -0.0301087)
(1.39201e-12 2.23452e-14 -0.0299035)
(1.45859e-12 -5.38167e-14 -0.0298071)
(1.67179e-12 -1.12475e-13 -0.029805)
(1.9937e-12 -1.59769e-13 -0.0298742)
(2.38757e-12 -1.8833e-13 -0.0299877)
(2.81697e-12 -2.03238e-13 -0.0301182)
(3.24671e-12 -2.04894e-13 -0.0302419)
(3.64417e-12 -1.89048e-13 -0.0303401)
(3.98109e-12 -1.64476e-13 -0.0304008)
(4.23608e-12 -1.27202e-13 -0.0304183)
(4.39716e-12 -8.66339e-14 -0.0303926)
(4.46365e-12 -4.76915e-14 -0.0303278)
(4.44574e-12 -9.72392e-15 -0.0302311)
(4.36161e-12 1.68777e-14 -0.0301109)
(4.23377e-12 3.71249e-14 -0.0299763)
(4.0854e-12 4.54069e-14 -0.0298357)
(3.93731e-12 4.26249e-14 -0.0296964)
(3.80599e-12 3.58613e-14 -0.0295643)
(3.70253e-12 2.05236e-14 -0.029443)
(3.63266e-12 6.02013e-15 -0.0293344)
(3.59735e-12 -1.0627e-14 -0.0292384)
(3.59373e-12 -2.76363e-14 -0.0291537)
(3.61634e-12 -3.85167e-14 -0.0290775)
(3.65817e-12 -4.94972e-14 -0.0290065)
(3.7118e-12 -5.34054e-14 -0.0289374)
(3.7703e-12 -5.56537e-14 -0.0288668)
(3.82779e-12 -5.67926e-14 -0.0287916)
(3.87998e-12 -5.23382e-14 -0.0287102)
(3.92431e-12 -5.01753e-14 -0.02862)
(3.96017e-12 -4.40013e-14 -0.028522)
(3.98796e-12 -4.09116e-14 -0.0284131)
(4.01204e-12 -3.72543e-14 -0.0282996)
(4.02762e-12 -4.67983e-14 -0.0281602)
(4.06861e-12 -3.22235e-14 -0.027982)
(-1.33634e-18 -6.58093e-20 -0.0527426)
(-1.76899e-17 -5.80916e-20 -0.0537402)
(-3.30403e-17 3.27888e-20 -0.0543397)
(-5.56192e-17 9.21714e-19 -0.0543678)
(-7.0097e-17 -6.22579e-19 -0.0539149)
(-9.59706e-17 4.39888e-18 -0.0531987)
(-1.93232e-16 8.05016e-18 -0.0524907)
(6.31872e-17 -2.42531e-17 -0.0520284)
(-7.74627e-17 -1.33471e-17 -0.0519871)
(-1.10946e-15 1.00345e-16 -0.0524294)
(-1.21812e-15 1.42004e-16 -0.0532867)
(8.83184e-16 -6.26093e-18 -0.0545136)
(3.68149e-15 -2.12435e-16 -0.0559406)
(5.38592e-15 -3.58156e-16 -0.0574035)
(5.78094e-15 -4.04155e-16 -0.058786)
(3.72519e-15 -2.76665e-16 -0.0600044)
(-1.98439e-15 8.26153e-17 -0.0610052)
(-1.13969e-14 5.77539e-16 -0.0617479)
(-2.43633e-14 9.0876e-16 -0.0621945)
(-4.07575e-14 8.14001e-16 -0.0622708)
(-4.84455e-14 2.30795e-16 -0.0618106)
(-3.48599e-14 -4.81674e-16 -0.0606484)
(-1.41858e-14 -6.94751e-16 -0.058785)
(-1.9017e-15 -4.08751e-16 -0.0564391)
(1.78842e-15 1.75377e-16 -0.0539686)
(-2.50573e-15 1.45648e-15 -0.051795)
(2.45661e-16 -1.40272e-15 -0.0503183)
(3.40607e-14 -1.39104e-14 -0.0498342)
(-1.56837e-13 3.3785e-14 -0.0505295)
(-4.85752e-13 2.21281e-13 -0.0525514)
(3.61715e-12 -3.79608e-13 -0.0560047)
(1.00025e-11 -4.1594e-12 -0.0607638)
(-4.83916e-11 -1.05553e-11 -0.0662706)
(-2.49991e-10 -1.34652e-11 -0.0713978)
(-4.52703e-10 -6.81555e-12 -0.0742736)
(-4.25633e-10 6.43445e-12 -0.0734888)
(-2.28809e-10 1.37906e-11 -0.0694483)
(-6.89309e-11 1.04894e-11 -0.0634808)
(-4.81659e-12 4.36039e-12 -0.0569122)
(5.56719e-12 9.53454e-13 -0.0510012)
(2.00615e-12 -2.11525e-13 -0.0466253)
(2.86648e-12 -1.38575e-12 -0.0441119)
(7.66585e-12 -1.69216e-12 -0.043524)
(-2.81434e-11 8.44391e-12 -0.0456073)
(-1.40006e-10 2.69125e-11 -0.0520982)
(4.42841e-11 -3.4103e-11 -0.0619897)
(1.84486e-09 -3.54123e-10 -0.0642354)
(6.80555e-09 -8.83464e-10 -0.0413093)
(1.42574e-08 -1.07345e-09 0.00634574)
(2.03463e-08 -4.72061e-10 0.0468432)
(2.09026e-08 4.89479e-10 0.0458979)
(1.55945e-08 9.8905e-10 0.0066935)
(8.2725e-09 8.36175e-10 -0.0364266)
(2.79851e-09 4.19083e-10 -0.058224)
(2.25733e-10 9.79629e-11 -0.0582909)
(-3.69474e-10 -2.17685e-11 -0.0491208)
(-2.64001e-10 1.83243e-12 -0.0417641)
(-1.96933e-10 5.56468e-11 -0.0405579)
(-1.26946e-10 -1.01627e-10 -0.0430084)
(8.69042e-10 -8.99763e-10 -0.0392752)
(4.14636e-09 -2.65127e-09 -0.0172073)
(9.99871e-09 -4.96312e-09 0.0233847)
(1.64965e-08 -6.69148e-09 0.0659649)
(2.09702e-08 -6.86009e-09 0.102291)
(2.27638e-08 -5.39383e-09 0.152522)
(2.36285e-08 -2.68917e-09 0.241363)
(2.52178e-08 9.30431e-10 0.356774)
(2.65186e-08 4.75566e-09 0.441003)
(2.45885e-08 7.3604e-09 0.432422)
(1.83684e-08 7.63042e-09 0.323638)
(1.02405e-08 5.82796e-09 0.168663)
(3.49599e-09 3.2656e-09 0.0355399)
(-2.16697e-10 1.13397e-09 -0.0388139)
(-1.07356e-09 -2.92681e-10 -0.0587685)
(1.63132e-10 -1.44656e-09 -0.0561028)
(2.78217e-09 -2.67288e-09 -0.0735638)
(5.82634e-09 -3.74745e-09 -0.145047)
(8.06059e-09 -4.17009e-09 -0.268572)
(8.69919e-09 -3.76778e-09 -0.39771)
(7.91189e-09 -2.85601e-09 -0.473165)
(6.46783e-09 -1.91363e-09 -0.466262)
(5.07758e-09 -1.2623e-09 -0.392121)
(4.15526e-09 -9.71182e-10 -0.287353)
(3.99845e-09 -8.49651e-10 -0.177874)
(4.82617e-09 -5.30257e-10 -0.0654089)
(6.4533e-09 3.75115e-10 0.0569739)
(8.07399e-09 2.03342e-09 0.179769)
(8.60139e-09 4.05944e-09 0.269362)
(7.44062e-09 5.5395e-09 0.288549)
(4.9676e-09 5.6578e-09 0.228598)
(2.20665e-09 4.37041e-09 0.120017)
(1.45292e-10 2.38815e-09 0.0122212)
(-6.17604e-10 5.39976e-10 -0.0547202)
(1.41948e-10 -7.40596e-10 -0.0626827)
(2.26302e-09 -1.39551e-09 -0.0140847)
(5.11873e-09 -1.4822e-09 0.0712317)
(7.74551e-09 -1.08033e-09 0.160549)
(9.21402e-09 -3.68483e-10 0.219258)
(9.04554e-09 3.60768e-10 0.226495)
(7.44794e-09 8.39499e-10 0.185191)
(5.14301e-09 9.67629e-10 0.116845)
(2.9101e-09 8.17499e-10 0.0471295)
(1.25488e-09 5.42276e-10 -0.00574908)
(3.00355e-10 2.79094e-10 -0.0359631)
(-9.98474e-11 9.77291e-11 -0.047377)
(-1.78406e-10 4.96161e-12 -0.0477764)
(-1.27583e-10 -2.52032e-11 -0.0442538)
(-5.78649e-11 -2.39285e-11 -0.0412034)
(-1.11674e-11 -1.34506e-11 -0.0403481)
(9.17157e-12 -4.62475e-12 -0.0416737)
(1.35168e-11 -2.36752e-13 -0.0444145)
(1.23353e-11 7.10238e-13 -0.0477052)
(1.16953e-11 4.41649e-14 -0.0508628)
(1.34761e-11 -8.72697e-13 -0.0534463)
(1.70474e-11 -1.38221e-12 -0.0552258)
(2.08629e-11 -1.34005e-12 -0.0561343)
(2.34995e-11 -8.6677e-13 -0.0562276)
(2.41503e-11 -1.77802e-13 -0.0556478)
(2.27321e-11 5.01966e-13 -0.0545873)
(1.97684e-11 1.00183e-12 -0.0532505)
(1.60534e-11 1.24985e-12 -0.0518289)
(1.23281e-11 1.26141e-12 -0.0504846)
(9.10762e-12 1.10051e-12 -0.0493402)
(6.64903e-12 8.43593e-13 -0.0484741)
(5.00481e-12 5.55474e-13 -0.0479209)
(4.10456e-12 2.79421e-13 -0.0476759)
(3.8262e-12 3.79738e-14 -0.0477026)
(4.04046e-12 -1.60723e-13 -0.0479421)
(4.62936e-12 -3.15624e-13 -0.0483237)
(5.48722e-12 -4.2746e-13 -0.0487742)
(6.51471e-12 -4.96537e-13 -0.0492271)
(7.61495e-12 -5.23412e-13 -0.0496279)
(8.69556e-12 -5.09974e-13 -0.0499373)
(9.67189e-12 -4.5988e-13 -0.0501326)
(1.04727e-11 -3.79319e-13 -0.0502065)
(1.10471e-11 -2.7748e-13 -0.0501649)
(1.13704e-11 -1.66362e-13 -0.0500237)
(1.14481e-11 -5.91357e-14 -0.0498049)
(1.13125e-11 3.26859e-14 -0.0495332)
(1.10154e-11 1.01213e-13 -0.0492333)
(1.0617e-11 1.42807e-13 -0.0489272)
(1.01773e-11 1.57838e-13 -0.0486334)
(9.74835e-12 1.49837e-13 -0.0483653)
(9.36964e-12 1.24332e-13 -0.0481311)
(9.06665e-12 8.76835e-14 -0.0479338)
(8.85115e-12 4.61046e-14 -0.047772)
(8.72319e-12 4.97041e-15 -0.0476408)
(8.67387e-12 -3.15855e-14 -0.0475325)
(8.68835e-12 -6.08189e-14 -0.0474387)
(8.74871e-12 -8.13452e-14 -0.0473502)
(8.83652e-12 -9.29869e-14 -0.0472589)
(8.93487e-12 -9.65447e-14 -0.0471582)
(9.02987e-12 -9.35589e-14 -0.0470425)
(9.11171e-12 -8.59905e-14 -0.0469094)
(9.17487e-12 -7.61372e-14 -0.0467561)
(9.21857e-12 -6.57357e-14 -0.0465853)
(9.24453e-12 -5.84193e-14 -0.0463937)
(9.26233e-12 -4.88511e-14 -0.0461932)
(9.26679e-12 -6.57073e-14 -0.0459495)
(9.31027e-12 -4.50175e-14 -0.0456445)
(-4.67539e-17 5.20077e-18 -0.0733556)
(-1.54211e-16 8.56445e-18 -0.0747706)
(-1.31932e-16 1.14416e-17 -0.0756166)
(-1.85e-16 1.01437e-17 -0.0756454)
(-7.58286e-17 1.08401e-17 -0.0749824)
(-4.85674e-16 5.27392e-17 -0.0739348)
(3.05372e-16 -8.83184e-17 -0.0728881)
(5.90616e-16 -8.2735e-17 -0.0721787)
(-4.08048e-15 2.29469e-15 -0.0720625)
(-1.21675e-15 5.67094e-16 -0.0726262)
(1.37003e-14 -2.7659e-15 -0.0737641)
(2.58631e-14 9.93509e-16 -0.0754505)
(2.39938e-14 -2.23378e-15 -0.0774402)
(1.05282e-14 -1.04794e-15 -0.0794758)
(-1.38015e-14 8.10076e-16 -0.0814275)
(-5.20038e-14 3.84309e-15 -0.0832019)
(-1.03415e-13 7.5172e-15 -0.084723)
(-1.54653e-13 1.11604e-14 -0.0859038)
(-2.02996e-13 1.46696e-14 -0.0866492)
(-2.73991e-13 1.20598e-14 -0.0868627)
(-3.01301e-13 -2.88388e-15 -0.0863171)
(-1.82582e-13 -1.7049e-14 -0.0846895)
(-3.91263e-14 -1.64145e-14 -0.0819011)
(1.94055e-14 -7.94081e-15 -0.0782546)
(2.36062e-14 3.56237e-16 -0.0742883)
(6.10252e-15 1.03229e-15 -0.0706591)
(1.14024e-13 -1.82375e-14 -0.0680909)
(2.57e-14 7.53442e-14 -0.0672103)
(-1.95299e-12 2.60826e-13 -0.0684415)
(1.3838e-12 -1.82679e-12 -0.0719843)
(3.36933e-11 -5.1926e-12 -0.0776472)
(3.00271e-12 2.50787e-11 -0.0851169)
(-5.02666e-10 1.26518e-10 -0.0954283)
(-1.73032e-09 1.97193e-10 -0.108829)
(-2.96047e-09 8.57739e-11 -0.118831)
(-3.03619e-09 -1.09165e-10 -0.117238)
(-1.9237e-09 -1.7388e-10 -0.105629)
(-7.39003e-10 -1.09059e-10 -0.0915813)
(-1.24425e-10 -3.61603e-11 -0.0788611)
(4.55143e-11 -3.2158e-12 -0.0681404)
(4.18944e-11 1.37829e-12 -0.0599734)
(2.83461e-11 -2.96678e-12 -0.05504)
(2.28329e-12 1.43925e-11 -0.0543075)
(-1.89081e-10 7.2089e-11 -0.0603729)
(-3.39749e-10 -3.04002e-11 -0.0741296)
(1.33632e-09 -9.55917e-10 -0.0800183)
(8.16717e-09 -3.28901e-09 -0.0376715)
(2.14376e-08 -6.06802e-09 0.0845984)
(3.74171e-08 -6.63736e-09 0.261125)
(4.97299e-08 -3.26331e-09 0.410545)
(5.27832e-08 2.32158e-09 0.44514)
(4.41277e-08 6.18091e-09 0.338166)
(2.77525e-08 6.26402e-09 0.158997)
(1.20955e-08 3.934e-09 0.0103555)
(2.60045e-09 1.53803e-09 -0.0600612)
(-7.99827e-10 2.30045e-10 -0.0689676)
(-1.0642e-09 -7.71205e-11 -0.0566437)
(-6.49995e-10 -3.91768e-11 -0.0491316)
(6.0292e-11 -5.3642e-10 -0.0465299)
(2.42401e-09 -2.374e-09 -0.0340821)
(7.40779e-09 -5.42848e-09 -0.0110806)
(1.31338e-08 -8.08686e-09 -0.00892142)
(1.56955e-08 -8.52231e-09 -0.0536072)
(1.32779e-08 -6.73512e-09 -0.106868)
(8.05569e-09 -4.41328e-09 -0.0868288)
(4.1828e-09 -2.66409e-09 0.0515245)
(5.07236e-09 -6.32429e-10 0.277405)
(1.08832e-08 3.07161e-09 0.499333)
(1.71675e-08 7.71922e-09 0.606398)
(1.83928e-08 1.05287e-08 0.540476)
(1.35992e-08 9.77059e-09 0.34691)
(6.44628e-09 6.43424e-09 0.134453)
(1.03999e-09 2.66679e-09 -0.00905637)
(-8.22687e-10 -3.23944e-10 -0.0670836)
(4.97356e-10 -2.55439e-09 -0.0906332)
(3.40174e-09 -4.16848e-09 -0.157324)
(5.82202e-09 -4.84813e-09 -0.307407)
(6.33218e-09 -4.36137e-09 -0.49577)
(4.99043e-09 -3.11013e-09 -0.619234)
(2.92253e-09 -1.82328e-09 -0.601176)
(1.20261e-09 -9.62078e-10 -0.445979)
(1.79076e-10 -5.96579e-10 -0.224329)
(-3.97869e-10 -6.59804e-10 -0.0215419)
(-6.98199e-10 -1.03336e-09 0.112852)
(-2.83089e-10 -1.33497e-09 0.188416)
(1.35098e-09 -8.61361e-10 0.248323)
(3.87833e-09 9.30438e-10 0.320544)
(6.00126e-09 3.69985e-09 0.385909)
(6.41047e-09 6.1308e-09 0.394726)
(4.89693e-09 6.873e-09 0.317466)
(2.43477e-09 5.6143e-09 0.176534)
(4.39768e-10 3.12439e-09 0.0324593)
(1.03524e-10 4.36519e-10 -0.0517949)
(1.97329e-09 -1.75505e-09 -0.0378993)
(5.63158e-09 -3.07157e-09 0.0746898)
(9.88138e-09 -3.29285e-09 0.249607)
(1.34364e-08 -2.4178e-09 0.428699)
(1.53987e-08 -7.86882e-10 0.551882)
(1.52933e-08 9.58735e-10 0.577075)
(1.31312e-08 2.1666e-09 0.498988)
(9.5919e-09 2.52962e-09 0.352382)
(5.78938e-09 2.17188e-09 0.190968)
(2.7042e-09 1.46117e-09 0.0600195)
(7.69547e-10 7.61091e-10 -0.0209015)
(-1.2387e-10 2.70613e-10 -0.0565932)
(-3.49709e-10 1.68413e-11 -0.0638063)
(-2.7546e-10 -6.7235e-11 -0.0592998)
(-1.36343e-10 -6.53173e-11 -0.0539413)
(-3.32655e-11 -3.76221e-11 -0.0522566)
(1.71009e-11 -1.37673e-11 -0.0545692)
(3.23975e-11 -1.63884e-12 -0.0593925)
(3.42019e-11 1.15626e-12 -0.0650098)
(3.61875e-11 -5.28713e-13 -0.0701467)
(4.29808e-11 -2.92407e-12 -0.0740931)
(5.31608e-11 -4.12064e-12 -0.0765874)
(6.28545e-11 -3.66887e-12 -0.0776603)
(6.84821e-11 -1.97404e-12 -0.0775116)
(6.82289e-11 2.44803e-13 -0.0764254)
(6.23469e-11 2.26183e-12 -0.0747129)
(5.26771e-11 3.58051e-12 -0.0726677)
(4.15949e-11 4.06914e-12 -0.0705522)
(3.11098e-11 3.85604e-12 -0.0685914)
(2.24624e-11 3.19441e-12 -0.0669607)
(1.61348e-11 2.34051e-12 -0.0657746)
(1.20763e-11 1.47146e-12 -0.0650799)
(9.96404e-12 6.99563e-13 -0.0648597)
(9.39922e-12 5.43982e-14 -0.0650454)
(1.00118e-11 -4.55396e-13 -0.0655336)
(1.14902e-11 -8.35855e-13 -0.0662058)
(1.35691e-11 -1.10245e-12 -0.0669454)
(1.60057e-11 -1.25219e-12 -0.0676513)
(1.85667e-11 -1.29366e-12 -0.0682455)
(2.10323e-11 -1.23336e-12 -0.0686769)
(2.32032e-11 -1.0776e-12 -0.0689206)
(2.49173e-11 -8.52064e-13 -0.0689755)
(2.60665e-11 -5.76091e-13 -0.0688594)
(2.66091e-11 -2.87132e-13 -0.0686028)
(2.65747e-11 -1.87293e-14 -0.0682431)
(2.60544e-11 2.06627e-13 -0.067819)
(2.51792e-11 3.64635e-13 -0.0673668)
(2.40954e-11 4.56136e-13 -0.0669178)
(2.29425e-11 4.79735e-13 -0.0664967)
(2.18378e-11 4.46474e-13 -0.0661204)
(2.08669e-11 3.76711e-13 -0.0657979)
(2.00819e-11 2.79767e-13 -0.0655309)
(1.95034e-11 1.77749e-13 -0.065315)
(1.91262e-11 7.80112e-14 -0.0651409)
(1.89261e-11 -1.02156e-14 -0.0649965)
(1.88672e-11 -7.59365e-14 -0.0648685)
(1.89081e-11 -1.23583e-13 -0.0647439)
(1.90071e-11 -1.46482e-13 -0.0646112)
(1.91274e-11 -1.52328e-13 -0.0644617)
(1.92394e-11 -1.45216e-13 -0.0642886)
(1.93227e-11 -1.24838e-13 -0.0640897)
(1.93669e-11 -1.03602e-13 -0.0638621)
(1.93716e-11 -7.88327e-14 -0.0636106)
(1.93422e-11 -6.27929e-14 -0.0633315)
(1.92975e-11 -4.83826e-14 -0.0630425)
(1.92391e-11 -7.07689e-14 -0.0626935)
(1.9221e-11 -5.39641e-14 -0.0622834)
(5.14328e-17 1.83514e-15 -0.0934222)
(1.97386e-16 1.77725e-15 -0.0952714)
(1.37147e-16 1.54275e-17 -0.0963684)
(3.07716e-16 1.70759e-15 -0.096385)
(3.09456e-16 1.88444e-15 -0.0954818)
(-6.61338e-16 1.54852e-15 -0.0940589)
(5.87999e-15 -5.30095e-16 -0.0926212)
(-1.35231e-14 2.19578e-15 -0.0916078)
(-4.29097e-15 8.90337e-16 -0.0913647)
(7.03749e-14 -1.05654e-14 -0.0919951)
(6.99243e-14 -1.33844e-14 -0.0933361)
(-6.93669e-14 -5.13946e-15 -0.0954204)
(-2.3652e-13 7.44144e-15 -0.0978922)
(-3.5042e-13 1.85395e-14 -0.100452)
(-4.5212e-13 3.08619e-14 -0.102947)
(-5.37845e-13 4.62648e-14 -0.105235)
(-5.59007e-13 5.31421e-14 -0.107206)
(-4.17481e-13 5.0368e-14 -0.108772)
(-1.15684e-14 6.23124e-14 -0.109852)
(7.97669e-13 5.17012e-14 -0.110284)
(1.7603e-12 -4.54736e-14 -0.109692)
(1.88447e-12 -1.31569e-13 -0.107607)
(1.16609e-12 -1.01689e-13 -0.10393)
(4.79039e-13 -3.1775e-14 -0.0991496)
(1.28416e-13 6.82685e-15 -0.0939554)
(1.40035e-13 -4.54872e-14 -0.0891508)
(6.16847e-13 -1.12014e-14 -0.0856795)
(-1.41999e-12 1.0196e-12 -0.0844199)
(-4.9042e-12 -6.45266e-13 -0.086016)
(2.64629e-11 -1.76019e-11 -0.0906001)
(5.69279e-11 -1.19081e-12 -0.0976169)
(-2.92484e-10 2.64018e-10 -0.108348)
(-1.06833e-09 8.56108e-10 -0.128168)
(-1.29781e-09 1.21544e-09 -0.157184)
(-1.261e-09 6.46114e-10 -0.182144)
(-2.05819e-09 -5.11954e-10 -0.184516)
(-2.50665e-09 -1.1348e-09 -0.16062)
(-1.74226e-09 -8.89149e-10 -0.128386)
(-6.73069e-10 -3.87902e-10 -0.102597)
(-3.59957e-11 -8.22082e-11 -0.0850791)
(1.30023e-10 8.37076e-12 -0.0735775)
(1.0946e-10 1.84181e-11 -0.0668389)
(-7.68012e-11 1.07021e-10 -0.0671569)
(-5.42578e-10 1.79458e-10 -0.0792788)
(6.78632e-11 -7.3579e-10 -0.0938159)
(5.80789e-09 -4.28756e-09 -0.0645879)
(1.95209e-08 -1.04047e-08 0.064682)
(3.67258e-08 -1.55084e-08 0.288492)
(4.97601e-08 -1.52196e-08 0.546409)
(5.74766e-08 -8.15508e-09 0.783546)
(6.26679e-08 3.29058e-09 0.926165)
(6.19652e-08 1.35044e-08 0.868356)
(4.9258e-08 1.68523e-08 0.596221)
(2.82633e-08 1.29951e-08 0.256406)
(9.88965e-09 6.5456e-09 0.0149475)
(2.75642e-10 1.81056e-09 -0.0805557)
(-2.16358e-09 -7.3082e-11 -0.0858229)
(-1.52409e-09 -5.066e-10 -0.0670675)
(4.78051e-10 -1.63863e-09 -0.0470794)
(4.44164e-09 -4.57351e-09 -0.0289539)
(9.57358e-09 -8.00614e-09 -0.0498567)
(1.20112e-08 -9.10695e-09 -0.165384)
(8.76708e-09 -6.76357e-09 -0.347228)
(1.46593e-09 -3.04021e-09 -0.45598)
(-5.94866e-09 -8.46276e-10 -0.370912)
(-1.07947e-08 -1.19751e-09 -0.099369)
(-1.14153e-08 -2.41976e-09 0.256186)
(-6.28405e-09 -1.29192e-09 0.579875)
(3.29501e-09 3.60561e-09 0.769834)
(1.14142e-08 9.41455e-09 0.753786)
(1.28349e-08 1.18012e-08 0.547514)
(8.35181e-09 9.54523e-09 0.268016)
(2.80714e-09 4.76845e-09 0.0464778)
(1.5556e-10 -2.1362e-11 -0.0719729)
(1.03326e-09 -3.55878e-09 -0.152841)
(3.34874e-09 -5.33521e-09 -0.297138)
(4.52845e-09 -5.21266e-09 -0.520169)
(3.66015e-09 -3.7543e-09 -0.708828)
(1.72097e-09 -2.06295e-09 -0.719391)
(1.59381e-10 -9.62096e-10 -0.501975)
(-3.21006e-10 -5.419e-10 -0.125964)
(3.64268e-11 -4.62058e-10 0.279077)
(4.42737e-10 -5.32545e-10 0.591252)
(2.45343e-10 -9.07038e-10 0.742978)
(-3.23588e-10 -1.55485e-09 0.745826)
(-2.28997e-10 -1.70559e-09 0.674437)
(1.19475e-09 -2.91713e-10 0.608376)
(3.24209e-09 2.79337e-09 0.568647)
(4.37934e-09 6.09167e-09 0.512523)
(3.76058e-09 7.64565e-09 0.39245)
(2.01421e-09 6.599e-09 0.214918)
(7.87255e-10 3.55378e-09 0.0456956)
(1.63692e-09 -2.26786e-10 -0.0319447)
(4.85965e-09 -3.50462e-09 0.0305904)
(9.16759e-09 -5.34956e-09 0.219199)
(1.28674e-08 -5.3846e-09 0.474264)
(1.52324e-08 -3.839e-09 0.727665)
(1.65101e-08 -1.29693e-09 0.918589)
(1.68567e-08 1.49453e-09 0.992434)
(1.5771e-08 3.69018e-09 0.916063)
(1.2862e-08 4.63854e-09 0.708242)
(8.74135e-09 4.26135e-09 0.440337)
(4.66848e-09 3.05219e-09 0.195786)
(1.67114e-09 1.69313e-09 0.026891)
(4.61501e-11 6.57357e-10 -0.0591511)
(-5.06598e-10 8.07585e-11 -0.0854003)
(-4.81979e-10 -1.31886e-10 -0.0822096)
(-2.74114e-10 -1.45026e-10 -0.0722453)
(-8.78353e-11 -9.01727e-11 -0.0665959)
(1.99515e-11 -3.74563e-11 -0.0675737)
(6.59561e-11 -8.78555e-12 -0.0731789)
(8.46575e-11 -1.18472e-12 -0.0804454)
(1.01224e-10 -4.34525e-12 -0.0870731)
(1.24799e-10 -9.35937e-12 -0.0918622)
(1.52111e-10 -1.13191e-11 -0.0945282)
(1.74454e-10 -8.99896e-12 -0.0953381)
(1.84075e-10 -3.55401e-12 -0.0947818)
(1.77852e-10 2.88981e-12 -0.0933517)
(1.57852e-10 8.27791e-12 -0.0914384)
(1.29684e-10 1.13778e-11 -0.0893022)
(9.96603e-11 1.20352e-11 -0.0871352)
(7.26419e-11 1.08277e-11 -0.0851165)
(5.12658e-11 8.58798e-12 -0.0834186)
(3.62109e-11 6.03661e-12 -0.0821818)
(2.69235e-11 3.64086e-12 -0.0814838)
(2.23292e-11 1.61971e-12 -0.0813242)
(2.13077e-11 1.40962e-14 -0.0816303)
(2.29082e-11 -1.20622e-12 -0.0822766)
(2.63775e-11 -2.09429e-12 -0.0831136)
(3.10986e-11 -2.68518e-12 -0.083994)
(3.6518e-11 -2.9936e-12 -0.0847936)
(4.21128e-11 -3.03675e-12 -0.0854222)
(4.73913e-11 -2.82823e-12 -0.085827)
(5.19153e-11 -2.40234e-12 -0.085991)
(5.5341e-11 -1.81093e-12 -0.0859276)
(5.74582e-11 -1.12168e-12 -0.0856715)
(5.82116e-11 -4.20495e-13 -0.0852695)
(5.77029e-11 2.18219e-13 -0.0847715)
(5.61626e-11 7.30437e-13 -0.0842238)
(5.38977e-11 1.08075e-12 -0.0836662)
(5.12364e-11 1.26291e-12 -0.08313)
(4.84818e-11 1.28664e-12 -0.0826377)
(4.588e-11 1.18762e-12 -0.0822028)
(4.36037e-11 1.00225e-12 -0.0818304)
(4.17515e-11 7.69448e-13 -0.0815184)
(4.03547e-11 5.25725e-13 -0.0812582)
(3.9392e-11 2.93608e-13 -0.0810375)
(3.88045e-11 9.78701e-14 -0.0808412)