/*--------------------------------*- C++ -*----------------------------------*\
  =========                 |
  \\      /  F ield         | OpenFOAM: The Open Source CFD Toolbox
   \\    /   O peration     | Website:  https://openfoam.org
    \\  /    A nd           | Version:  11
     \\/     M anipulation  |
\*---------------------------------------------------------------------------*/
FoamFile
{
    format      ascii;
    class       volVectorField;
    location    "9.566813";
    object      U_0;
}
// * * * * * * * * * * * * * * * * * * * * * * * * * * * * * * * * * * * * * //

dimensions      [0 1 -1 0 0 0 0];

internalField   nonuniform List<vector> 
7132
(
(1.00013 -0.000258421 2.40772e-18)
(1.002 -0.000782828 8.54744e-18)
(1.00627 -0.00134419 8.8266e-18)
(1.0128 -0.00195301 1.00464e-17)
(1.02187 -0.00260967 1.34111e-17)
(1.03366 -0.00328968 1.3834e-17)
(1.0482 -0.00394801 1.27715e-17)
(1.06528 -0.00450094 1.15694e-17)
(1.08429 -0.00485872 1.05944e-17)
(1.10427 -0.00492866 9.89734e-18)
(1.12386 -0.00465618 9.35066e-18)
(1.1417 -0.00410583 9.20071e-18)
(1.15683 -0.00333152 8.74594e-18)
(1.16846 -0.00238311 9.39226e-18)
(1.17599 -0.00129526 2.14482e-18)
(1.1789 -9.27582e-05 -5.5717e-18)
(1.1768 0.00117402 -1.48456e-17)
(1.16954 0.00239433 -1.47483e-17)
(1.15761 0.00339192 -2.00522e-17)
(1.1423 0.00397364 -2.52336e-17)
(1.12564 0.00399892 -2.33743e-17)
(1.11008 0.00342398 -2.09179e-17)
(1.09803 0.00231127 -1.97217e-17)
(1.09143 0.000830009 -2.07474e-17)
(1.09134 -0.000756586 -2.43029e-17)
(1.09758 -0.00210981 -3.64778e-17)
(1.10849 -0.00286038 -5.35273e-17)
(1.12087 -0.0027142 -6.68076e-17)
(1.13067 -0.00160829 -6.71349e-17)
(1.13416 0.000202664 -5.86012e-17)
(1.12932 0.00224472 -5.10387e-17)
(1.11628 0.00403946 -4.77622e-17)
(1.09689 0.00526407 -4.97047e-17)
(1.07392 0.00577695 -5.93407e-17)
(1.05035 0.00555913 -3.24839e-17)
(1.02907 0.00464383 6.41301e-17)
(1.01279 0.00307342 -2.20557e-16)
(1.00406 0.000901975 -1.86011e-15)
(1.00519 -0.00175741 -1.4675e-15)
(1.01789 -0.00463819 2.3061e-14)
(1.04234 -0.00722599 1.05593e-13)
(1.07607 -0.00878907 2.29164e-13)
(1.11334 -0.00863864 2.97747e-13)
(1.14603 -0.00653537 2.46297e-13)
(1.1664 -0.00295185 1.32268e-13)
(1.17015 0.00109916 4.66502e-14)
(1.15774 0.00457392 7.8779e-15)
(1.13334 0.00684731 -3.11114e-15)
(1.10252 0.00779577 -7.33406e-15)
(1.07046 0.00759256 -1.08203e-14)
(1.04127 0.00646539 1.87718e-14)
(1.01822 0.00455549 9.80649e-14)
(1.00427 0.00189614 2.33813e-14)
(1.00248 -0.00151746 -7.55404e-13)
(1.01594 -0.00558013 -2.58978e-12)
(1.04695 -0.00989752 -4.13369e-12)
(1.09539 -0.0136888 -2.32598e-12)
(1.15721 -0.0158899 3.79557e-12)
(1.22367 -0.015495 1.02525e-11)
(1.28252 -0.0120359 1.23822e-11)
(1.32119 -0.00599301 9.86473e-12)
(1.33127 0.00115542 4.48057e-12)
(1.31211 0.00746089 -6.83173e-13)
(1.27105 0.0114193 -2.76995e-12)
(1.21976 0.0126042 -2.10417e-12)
(1.16919 0.0115603 -6.52025e-13)
(1.12652 0.00921819 2.18321e-13)
(1.09498 0.00637429 3.58756e-13)
(1.07527 0.0035048 1.88148e-13)
(1.06681 0.000842898 3.09982e-14)
(1.06848 -0.00146047 -3.7222e-14)
(1.07858 -0.00322616 -6.20786e-14)
(1.09452 -0.00423888 -8.99328e-14)
(1.11284 -0.00432682 -1.27295e-13)
(1.12956 -0.00347374 -1.53852e-13)
(1.14104 -0.00188473 -1.51517e-13)
(1.14494 5.18187e-05 -1.21825e-13)
(1.14076 0.00189749 -8.10309e-14)
(1.12973 0.00331401 -4.47381e-14)
(1.11411 0.0041453 -2.01398e-14)
(1.09637 0.004406 -7.0448e-15)
(1.07865 0.00421497 -1.80096e-15)
(1.06247 0.00372427 -5.64814e-16)
(1.04872 0.00307204 -8.05061e-16)
(1.0378 0.0023634 -1.37866e-15)
(1.02975 0.0016701 -2.01129e-15)
(1.0244 0.00103804 -2.75917e-15)
(1.02143 0.000495667 -3.69477e-15)
(1.02044 6.04899e-05 -4.80105e-15)
(1.02096 -0.000257239 -5.96699e-15)
(1.02253 -0.000453545 -7.03146e-15)
(1.02464 -0.000531629 -7.82601e-15)
(1.02683 -0.000503253 -8.2258e-15)
(1.02871 -0.000389061 -8.2021e-15)
(1.02998 -0.00021685 -7.83871e-15)
(1.03048 -1.78842e-05 -7.31419e-15)
(1.03014 0.000177793 -6.8275e-15)
(1.02906 0.000345696 -6.51228e-15)
(1.02737 0.000469611 -6.41756e-15)
(1.02529 0.000542328 -6.51281e-15)
(1.02301 0.000564651 -6.72398e-15)
(1.02075 0.000543374 -6.96755e-15)
(1.01864 0.000488904 -7.16953e-15)
(1.01682 0.000413051 -7.279e-15)
(1.01533 0.000327275 -7.25867e-15)
(1.01419 0.000241498 -7.08274e-15)
(1.01339 0.000163443 -6.733e-15)
(1.01288 9.84111e-05 -6.19693e-15)
(1.0126 4.9376e-05 -5.47785e-15)
(1.01249 1.72708e-05 -4.59326e-15)
(1.01247 1.36975e-06 -3.58133e-15)
(1.01249 -3.02276e-07 -2.49742e-15)
(1.01248 9.43521e-06 -1.40367e-15)
(1.01241 2.73004e-05 -3.63638e-16)
(1.01227 4.99074e-05 5.7507e-16)
(1.01202 7.40804e-05 1.38396e-15)
(1.01167 9.71049e-05 2.05751e-15)
(1.01124 0.000116899 2.61431e-15)
(1.01074 0.0001321 3.08684e-15)
(1.01018 0.000142062 3.52048e-15)
(1.0096 0.000146782 3.96237e-15)
(1.00901 0.000146775 4.453e-15)
(1.00842 0.000142919 5.02593e-15)
(1.00786 0.000136291 5.70258e-15)
(1.00733 0.000128019 6.49479e-15)
(1.00683 0.00011916 7.40417e-15)
(1.00637 0.00011061 8.42185e-15)
(1.00595 0.000103049 9.53443e-15)
(1.00555 9.69259e-05 1.07228e-14)
(1.00517 9.24591e-05 1.19665e-14)
(1.00481 8.96688e-05 1.32441e-14)
(1.00445 8.84157e-05 1.45328e-14)
(1.0041 8.84474e-05 1.58153e-14)
(1.00375 8.94455e-05 1.70783e-14)
(1.00339 9.1068e-05 1.83178e-14)
(1.00302 9.29853e-05 1.95377e-14)
(1.00264 9.49074e-05 2.0748e-14)
(1.00226 9.6602e-05 2.19669e-14)
(1.00187 9.79035e-05 2.32138e-14)
(1.00147 9.87147e-05 2.45082e-14)
(1.00108 9.90005e-05 2.58632e-14)
(1.00068 9.87776e-05 2.72809e-14)
(1.00028 9.81006e-05 2.87539e-14)
(0.999893 9.70464e-05 3.02634e-14)
(0.999506 9.56993e-05 3.17842e-14)
(0.999125 9.41385e-05 3.32869e-14)
(0.998751 9.24263e-05 3.4741e-14)
(0.998384 9.06053e-05 3.6125e-14)
(0.998024 8.86863e-05 3.74278e-14)
(0.997672 8.66709e-05 3.86584e-14)
(0.997329 8.45038e-05 3.98488e-14)
(0.996993 8.21942e-05 4.10589e-14)
(0.996669 7.95508e-05 4.23851e-14)
(0.996353 7.67744e-05 4.39639e-14)
(0.996055 7.31339e-05 4.59646e-14)
(0.995759 6.97581e-05 4.86379e-14)
(0.995502 6.37512e-05 5.20842e-14)
(0.995229 5.96813e-05 5.71878e-14)
(0.99505 4.91306e-05 6.17368e-14)
(0.99478 3.82353e-05 7.5995e-14)
(1.00013 -0.000772829 3.5077e-20)
(1.00198 -0.00234224 4.17079e-19)
(1.00622 -0.00402373 8.01574e-19)
(1.01271 -0.00585132 1.17828e-18)
(1.02176 -0.00782724 1.65402e-18)
(1.03356 -0.00987923 2.10785e-18)
(1.04818 -0.0118727 2.43998e-18)
(1.06542 -0.0135528 2.68945e-18)
(1.08467 -0.0146461 4.548e-18)
(1.10498 -0.0148641 5.18759e-18)
(1.12488 -0.0140381 4.35053e-18)
(1.14298 -0.0123752 6.72553e-18)
(1.15832 -0.0100417 4.62401e-18)
(1.17011 -0.00719002 6.06473e-18)
(1.17777 -0.00392243 1.06681e-17)
(1.18078 -0.00030725 1.44447e-17)
(1.17869 0.00351277 1.62325e-17)
(1.17131 0.00720715 1.65848e-17)
(1.15906 0.0102393 1.56963e-17)
(1.14325 0.0120172 1.36005e-17)
(1.126 0.0121089 9.53102e-18)
(1.10985 0.010378 -1.96923e-19)
(1.09732 0.00700937 -2.01547e-17)
(1.09044 0.00250978 -5.25545e-17)
(1.09038 -0.00232768 -1.10672e-16)
(1.09702 -0.00647489 -2.3958e-16)
(1.10866 -0.00879921 -4.2566e-16)
(1.12199 -0.00838696 -4.85052e-16)
(1.13264 -0.00503247 -3.32603e-16)
(1.13666 0.000487091 -1.50471e-16)
(1.13187 0.00671561 -6.81523e-17)
(1.11848 0.012186 -5.76747e-17)
(1.0985 0.0159178 -8.21751e-17)
(1.07483 0.0174915 -7.56196e-17)
(1.05054 0.016861 8.41844e-17)
(1.02854 0.0141329 -2.93647e-16)
(1.01157 0.0094316 -2.42249e-15)
(1.00221 0.0029023 2.60169e-15)
(1.00291 -0.00514282 4.1931e-14)
(1.01558 -0.0139211 6.16341e-14)
(1.04067 -0.0218718 -2.12351e-13)
(1.07578 -0.026737 -8.42629e-13)
(1.11489 -0.0263672 -1.23999e-12)
(1.14932 -0.0199983 -1.01584e-12)
(1.17074 -0.00907808 -5.35038e-13)
(1.17454 0.00327584 -1.82613e-13)
(1.16136 0.0138577 -2.53869e-14)
(1.1358 0.0207599 8.19706e-15)
(1.10381 0.0236289 -8.98216e-15)
(1.07072 0.0230217 5.44164e-15)
(1.04063 0.0196503 1.53227e-13)
(1.01671 0.0139446 9.83421e-14)
(1.00191 0.00598185 -1.45347e-12)
(0.999373 -0.0042996 -4.41451e-12)
(1.01237 -0.0166259 1.13732e-12)
(1.04329 -0.0298089 4.0672e-11)
(1.09209 -0.0414542 1.3675e-10)
(1.15492 -0.0482953 2.72745e-10)
(1.22333 -0.0472145 3.83211e-10)
(1.28493 -0.0367237 3.99462e-10)
(1.32622 -0.0183041 3.13877e-10)
(1.33758 0.00349306 1.84889e-10)
(1.31781 0.0227138 7.57842e-11)
(1.27475 0.0347446 1.42033e-11)
(1.22113 0.0382826 -6.63492e-12)
(1.16875 0.0350313 -7.03182e-12)
(1.12505 0.0278745 -2.73688e-12)
(1.0931 0.0192509 -6.91172e-14)
(1.07332 0.0105867 5.69414e-13)
(1.06499 0.00255325 3.51681e-13)
(1.06699 -0.0044201 5.93462e-15)
(1.07766 -0.00979439 -3.51055e-13)
(1.09443 -0.0129014 -7.61667e-13)
(1.11371 -0.0131987 -1.1037e-12)
(1.1313 -0.0106229 -1.17513e-12)
(1.14338 -0.00579504 -9.48906e-13)
(1.14747 9.75323e-05 -6.02694e-13)
(1.1431 0.00571343 -3.09406e-13)
(1.13162 0.0100176 -1.2295e-13)
(1.11545 0.0125358 -3.04359e-14)
(1.09721 0.0133176 2.71277e-15)
(1.0791 0.0127303 7.56224e-15)
(1.06266 0.0112393 3.38985e-15)
(1.04875 0.00926418 -1.2269e-15)
(1.03776 0.00712245 -4.15638e-15)
(1.0297 0.00502937 -5.88677e-15)
(1.02439 0.00312208 -7.30695e-15)
(1.02149 0.00148536 -8.86273e-15)
(1.02059 0.000171434 -1.05143e-14)
(1.02123 -0.000788772 -1.19317e-14)
(1.02291 -0.00138272 -1.26852e-14)
(1.02513 -0.00161935 -1.24264e-14)
(1.02743 -0.00153366 -1.10326e-14)
(1.02939 -0.00118775 -8.71724e-15)
(1.03071 -0.000665706 -6.02182e-15)
(1.03123 -6.22966e-05 -3.66667e-15)
(1.03089 0.000531286 -2.24475e-15)
(1.02977 0.00104066 -1.94711e-15)
(1.02804 0.00141657 -2.61681e-15)
(1.0259 0.00163717 -3.88985e-15)
(1.02358 0.00170494 -5.35124e-15)
(1.02127 0.00164058 -6.64957e-15)
(1.01913 0.00147568 -7.53961e-15)
(1.01728 0.00124608 -7.886e-15)
(1.01578 0.000986507 -7.62872e-15)
(1.01464 0.000727004 -6.75182e-15)
(1.01384 0.000490926 -5.26861e-15)
(1.01335 0.000294294 -3.21542e-15)
(1.01309 0.000146078 -6.67449e-16)
(1.01299 4.9083e-05 2.25723e-15)
(1.01298 1.10271e-06 5.39817e-15)
(1.01301 -3.83952e-06 8.56571e-15)
(1.01302 2.5728e-05 1.157e-14)
(1.01296 7.98797e-05 1.42446e-14)
(1.01281 0.000148372 1.64779e-14)
(1.01256 0.000221594 1.82265e-14)
(1.01222 0.000291328 1.95149e-14)
(1.01178 0.000351275 2.04286e-14)
(1.01127 0.000397306 2.10885e-14)
(1.01071 0.000427469 2.16325e-14)
(1.01012 0.000441758 2.21949e-14)
(1.00952 0.000441735 2.28857e-14)
(1.00893 0.000430062 2.37879e-14)
(1.00836 0.000410001 2.4949e-14)
(1.00783 0.000384971 2.63843e-14)
(1.00733 0.000358172 2.80832e-14)
(1.00687 0.000332316 3.00111e-14)
(1.00645 0.000309463 3.21228e-14)
(1.00605 0.000290967 3.43636e-14)
(1.00567 0.000277489 3.66767e-14)
(1.00531 0.000269089 3.901e-14)
(1.00495 0.000265341 4.13161e-14)
(1.0046 0.000265483 4.35634e-14)
(1.00424 0.000268547 4.5734e-14)
(1.00388 0.0002735 4.78276e-14)
(1.00351 0.000279344 4.98634e-14)
(1.00313 0.0002852 5.18727e-14)
(1.00275 0.000290368 5.39011e-14)
(1.00235 0.000294346 5.5995e-14)
(1.00196 0.000296842 5.81949e-14)
(1.00156 0.00029775 6.05283e-14)
(1.00116 0.000297123 6.29982e-14)
(1.00076 0.000295126 6.55865e-14)
(1.00036 0.000291994 6.82491e-14)
(0.999973 0.000287985 7.09223e-14)
(0.999589 0.000283338 7.3532e-14)
(0.999211 0.000278243 7.6e-14)
(0.99884 0.000272832 7.82626e-14)
(0.998476 0.000267138 8.02783e-14)
(0.99812 0.000261167 8.20437e-14)
(0.997772 0.000254755 8.36089e-14)
(0.997432 0.000247924 8.5088e-14)
(0.997102 0.000240108 8.66768e-14)
(0.99678 0.000231892 8.86616e-14)
(0.996476 0.000221124 9.14014e-14)
(0.996173 0.000211118 9.54244e-14)
(0.99591 0.000193355 1.00977e-13)
(0.995626 0.00018126 1.09821e-13)
(0.995443 0.000150156 1.17763e-13)
(0.995155 0.000117653 1.44431e-13)
(1.00013 -0.00128047 5.41975e-22)
(1.00195 -0.00388245 4.59658e-21)
(1.00612 -0.00667692 1.48112e-21)
(1.01253 -0.00972644 1.84815e-21)
(1.02152 -0.0130398 -1.23961e-19)
(1.03334 -0.0165006 1.32169e-19)
(1.0481 -0.0198865 -5.42912e-19)
(1.06566 -0.0227597 -1.46003e-18)
(1.08543 -0.024651 3.3867e-18)
(1.1064 -0.0250417 2.09212e-18)
(1.12695 -0.0236338 -1.65383e-17)
(1.14556 -0.0208184 -2.47457e-17)
(1.1613 -0.016888 6.00449e-18)
(1.17341 -0.0121038 5.99411e-17)
(1.18133 -0.00662702 9.45222e-17)
(1.18453 -0.000546631 8.81612e-17)
(1.18247 0.00592072 6.5217e-17)
(1.17482 0.0122229 3.72021e-17)
(1.16193 0.0174302 6.67859e-18)
(1.14513 0.0205068 -3.02061e-17)
(1.1267 0.020698 -8.56484e-17)
(1.10938 0.0177631 -1.81649e-16)
(1.09592 0.0120102 -3.23e-16)
(1.08857 0.00429199 -4.75972e-16)
(1.08864 -0.00405161 -7.07278e-16)
(1.09614 -0.0112609 -1.33308e-15)
(1.10934 -0.0153586 -2.25942e-15)
(1.12458 -0.0147147 -1.99388e-15)
(1.13694 -0.00893777 -3.1861e-16)
(1.14189 0.000607869 8.37912e-16)
(1.13703 0.0113526 9.13785e-16)
(1.12275 0.0207355 5.44517e-16)
(1.10141 0.0270913 1.62872e-16)
(1.07625 0.0297537 4.6145e-16)
(1.0505 0.0286949 7.60288e-16)
(1.02714 0.0241232 -7.13856e-15)
(1.00891 0.0162392 -1.17149e-14)
(0.998483 0.00523891 1.1266e-13)
(0.998513 -0.00842832 3.43453e-13)
(1.01136 -0.023504 -9.47884e-13)
(1.03797 -0.0373267 -7.06041e-12)
(1.07612 -0.0459245 -1.73646e-11)
(1.11914 -0.045441 -2.38706e-11)
(1.15703 -0.0344581 -2.04125e-11)
(1.18023 -0.0155209 -1.12102e-11)
(1.18368 0.00583583 -3.89894e-12)
(1.16847 0.0239682 -5.46174e-13)
(1.1402 0.0356191 2.80247e-13)
(1.10562 0.0403208 1.97299e-13)
(1.07041 0.0391722 2.56604e-13)
(1.03859 0.0334631 5.67055e-13)
(1.01317 0.0239118 -1.44486e-12)
(0.997026 0.0105724 -8.52361e-12)
(0.993292 -0.00672743 -4.76565e-12)
(1.00507 -0.0275086 6.99221e-11)
(1.03456 -0.0497389 2.9645e-10)
(1.08211 -0.0695154 6.91335e-10)
(1.14483 -0.0815602 1.157e-09)
(1.2152 -0.0805766 1.52123e-09)
(1.28115 -0.063521 1.61267e-09)
(1.32821 -0.0322749 1.3621e-09)
(1.34423 0.00544987 8.92131e-10)
(1.32565 0.038929 4.28836e-10)
(1.28025 0.0597381 1.23592e-10)
(1.22264 0.0655526 -7.4896e-12)
(1.16675 0.0595669 -3.13313e-11)
(1.121 0.0470329 -1.8073e-11)
(1.08836 0.032243 -4.40402e-12)
(1.0687 0.0175655 1.25328e-12)
(1.06095 0.00400945 1.75114e-12)
(1.06392 -0.00779335 4.55471e-13)
(1.07602 -0.0169457 -1.40815e-12)
(1.09466 -0.0222663 -3.44756e-12)
(1.11599 -0.0227682 -4.84175e-12)
(1.13537 -0.0183074 -4.75538e-12)
(1.14852 -0.00995799 -3.36662e-12)
(1.15278 0.000202076 -1.76474e-12)
(1.14777 0.0098308 -7.00572e-13)
(1.13515 0.0171423 -1.71927e-13)
(1.11771 0.0213486 2.18582e-14)
(1.09836 0.0225765 5.63921e-14)
(1.07944 0.0214891 3.66638e-14)
(1.0625 0.0188984 1.09822e-14)
(1.04835 0.0155208 -5.80212e-15)
(1.03731 0.0118879 -1.39078e-14)
(1.02933 0.00835484 -1.75171e-14)
(1.02418 0.00514496 -1.97895e-14)
(1.0215 0.00239563 -2.17018e-14)
(1.02085 0.000191558 -2.26731e-14)
(1.02176 -0.00141616 -2.15181e-14)
(1.02371 -0.00240589 -1.71025e-14)
(1.02618 -0.00279173 -8.96007e-15)
(1.02869 -0.00263213 2.3025e-15)
(1.0308 -0.00203242 1.49266e-14)
(1.03221 -0.00113593 2.63463e-14)
(1.03274 -0.000104514 3.39451e-14)
(1.03236 0.000906414 3.62014e-14)
(1.03115 0.00177042 3.34201e-14)
(1.0293 0.00240462 2.71296e-14)
(1.02705 0.00277312 1.92919e-14)
(1.02462 0.00288156 1.1682e-14)
(1.02222 0.00276625 5.56768e-15)
(1.02002 0.00248169 1.66253e-15)
(1.01813 0.00208913 2.42302e-16)
(1.01662 0.00164758 1.30977e-15)
(1.01549 0.0012078 4.72585e-15)
(1.01472 0.000809063 1.02725e-14)
(1.01426 0.000478096 1.76558e-14)
(1.01403 0.00022969 2.64797e-14)
(1.01397 6.82352e-05 3.62283e-14)
(1.014 -1.0287e-05 4.62858e-14)
(1.01405 -1.6199e-05 5.60015e-14)
(1.01408 3.59263e-05 6.47633e-14)
(1.01403 0.000129209 7.2093e-14)
(1.01389 0.000246275 7.77214e-14)
(1.01364 0.00037086 8.16131e-14)
(1.01329 0.000489097 8.39496e-14)
(1.01284 0.00059039 8.50771e-14)
(1.01231 0.000667844 8.54352e-14)
(1.01173 0.000718255 8.54823e-14)
(1.01113 0.000741717 8.5634e-14)
(1.01052 0.000740972 8.62196e-14)
(1.00992 0.000720596 8.74614e-14)
(1.00935 0.000686167 8.94714e-14)
(1.00881 0.0006435 9.22627e-14)
(1.00831 0.000598017 9.57683e-14)
(1.00785 0.000554293 9.9864e-14)
(1.00742 0.000515791 1.04392e-13)
(1.00702 0.000484764 1.0918e-13)
(1.00664 0.000462296 1.14065e-13)
(1.00628 0.00044845 1.189e-13)
(1.00593 0.000442476 1.23575e-13)
(1.00557 0.000443057 1.2802e-13)
(1.00522 0.000448544 1.32213e-13)
(1.00485 0.000457175 1.3618e-13)
(1.00448 0.000467261 1.3999e-13)
(1.00409 0.000477322 1.43747e-13)
(1.0037 0.000486177 1.47575e-13)
(1.0033 0.000492992 1.516e-13)
(1.0029 0.000497284 1.55923e-13)
(1.00249 0.000498887 1.60609e-13)
(1.00209 0.000497903 1.65664e-13)
(1.00168 0.000494624 1.7103e-13)
(1.00128 0.000489454 1.76585e-13)
(1.00089 0.000482835 1.82155e-13)
(1.00049 0.000475179 1.87531e-13)
(1.00011 0.000466812 1.92497e-13)
(0.999731 0.000457952 1.9686e-13)
(0.99936 0.000448663 2.00484e-13)
(0.998995 0.000438947 2.03329e-13)
(0.998638 0.00042854 2.05492e-13)
(0.998288 0.000417449 2.07237e-13)
(0.997949 0.00040478 2.09034e-13)
(0.997615 0.000391394 2.11585e-13)
(0.9973 0.000373918 2.1578e-13)
(0.996983 0.00035748 2.22906e-13)
(0.996708 0.00032868 2.33627e-13)
(0.996406 0.000308547 2.52043e-13)
(0.996215 0.000258347 2.68729e-13)
(0.995894 0.000204329 3.28092e-13)
(1.00012 -0.00177657 -3.49106e-20)
(1.00189 -0.00538898 -5.43074e-19)
(1.00595 -0.00928376 -9.834e-19)
(1.01223 -0.0135593 -1.78742e-18)
(1.02114 -0.0182394 -2.22481e-18)
(1.03296 -0.0231707 -1.98129e-18)
(1.04793 -0.0280463 -1.00503e-17)
(1.06597 -0.032227 8.34211e-18)
(1.08652 -0.0350266 1.16068e-17)
(1.10851 -0.0356318 -7.91081e-17)
(1.13005 -0.0335885 -7.91077e-17)
(1.14944 -0.0295498 1.97768e-16)
(1.16578 -0.0239595 5.10995e-16)
(1.17837 -0.0172018 4.91506e-16)
(1.18669 -0.00948389 1.17192e-16)
(1.1902 -0.000877336 -2.7404e-16)
(1.18821 0.00837051 -5.73795e-16)
(1.18018 0.0174877 -7.84111e-16)
(1.16631 0.0250955 -9.46141e-16)
(1.14797 0.0296366 -1.11796e-15)
(1.12771 0.0299792 -1.35933e-15)
(1.10859 0.0257607 -1.69236e-15)
(1.09369 0.0174126 -1.95826e-15)
(1.08556 0.00614629 -1.8608e-15)
(1.08583 -0.00612299 -1.11641e-15)
(1.09466 -0.0168366 3.56608e-15)
(1.11029 -0.0230359 1.62285e-14)
(1.12857 -0.0222023 2.83018e-14)
(1.14363 -0.0136799 2.81942e-14)
(1.15002 0.000464269 1.94548e-14)
(1.145 0.016308 1.11175e-14)
(1.12925 0.030008 5.66702e-15)
(1.10576 0.0391708 3.05781e-15)
(1.07826 0.0429459 4.66565e-15)
(1.05029 0.0414092 -1.67918e-15)
(1.02488 0.0349229 -3.9676e-14)
(1.00479 0.023762 5.10736e-14)
(0.992726 0.00811049 6.10416e-13)
(0.991688 -0.0115641 4.60927e-14)
(1.0048 -0.0336356 -7.83228e-12)
(1.03399 -0.054256 -2.71044e-11)
(1.07728 -0.0673437 -5.1248e-11)
(1.12676 -0.0668515 -6.75491e-11)
(1.1701 -0.0505436 -6.40162e-11)
(1.19573 -0.0223574 -4.17473e-11)
(1.19815 0.00920862 -1.83579e-11)
(1.17939 0.0356257 -4.40812e-12)
(1.14664 0.0521831 6.35032e-13)
(1.10798 0.0585092 1.23021e-12)
(1.06952 0.056527 1.43293e-12)
(1.03517 0.0482626 4.85361e-13)
(1.00769 0.034726 -9.19698e-12)
(0.989646 0.0159318 -1.95213e-11)
(0.983609 -0.00829593 4.58044e-11)
(0.992032 -0.0372245 3.29053e-10)
(1.01776 -0.0683074 8.99239e-10)
(1.06315 -0.0966041 1.63504e-09)
(1.1265 -0.114894 2.3261e-09)
(1.19956 -0.115434 2.83331e-09)
(1.26934 -0.0932445 3.05525e-09)
(1.32165 -0.0497885 2.83835e-09)
(1.34385 0.00485538 2.13889e-09)
(1.32955 0.05474 1.22188e-09)
(1.28419 0.0862175 4.65452e-10)
(1.22317 0.0949728 5.45377e-11)
(1.1631 0.0858098 -6.96962e-11)
(1.11449 0.0670551 -5.83768e-11)
(1.08076 0.0454051 -2.17545e-11)
(1.0613 0.0242978 -4.77048e-13)
(1.05451 0.00494852 4.76766e-12)
(1.05907 -0.0119525 2.82854e-12)
(1.07349 -0.0251669 3.54614e-14)
(1.09513 -0.0328917 -7.71575e-13)
(1.11972 -0.0335576 4.79954e-13)
(1.14189 -0.0268879 2.38352e-12)
(1.15667 -0.0144929 3.6621e-12)
(1.1611 0.000487363 3.5001e-12)
(1.15495 0.0145444 2.24183e-12)
(1.14042 0.0250535 1.04009e-12)
(1.12093 0.0309263 3.46589e-13)
(1.09982 0.0324455 6.34461e-14)
(1.07965 0.0306582 -1.99607e-14)
(1.06197 0.0267829 -3.6282e-14)
(1.0475 0.0218587 -3.79426e-14)
(1.03642 0.0166334 -3.89852e-14)
(1.02861 0.0115931 -4.13667e-14)
(1.02375 0.00703778 -4.35475e-14)
(1.02144 0.00314958 -4.20706e-14)
(1.0212 4.12967e-05 -3.26578e-14)
(1.02254 -0.0022172 -1.15778e-14)
(1.02491 -0.00359458 2.30469e-14)
(1.02777 -0.00410925 6.95741e-14)
(1.0306 -0.00384378 1.22231e-13)
(1.03295 -0.00294971 1.7204e-13)
(1.03448 -0.0016349 2.0916e-13)
(1.03502 -0.000134423 2.25907e-13)
(1.03455 0.00132656 2.20133e-13)
(1.0332 0.00256631 1.96369e-13)
(1.03117 0.00346749 1.62489e-13)
(1.02873 0.00398165 1.26498e-13)
(1.02613 0.00412035 9.45666e-14)
(1.02359 0.00393882 7.04035e-14)
(1.0213 0.0035175 5.557e-14)
(1.01937 0.0029455 5.01776e-14)
(1.01784 0.00230778 5.35731e-14)
(1.01673 0.00167679 6.47824e-14)
(1.016 0.00110801 8.26813e-14)
(1.01559 0.000638764 1.0598e-13)
(1.01543 0.000289242 1.33129e-13)
(1.01543 6.48398e-05 1.62284e-13)
(1.01551 -4.09054e-05 1.91414e-13)
(1.0156 -4.3292e-05 2.18514e-13)
(1.01566 3.64672e-05 2.41811e-13)
(1.01563 0.000173997 2.6003e-13)
(1.01549 0.000344333 2.7261e-13)
(1.01524 0.000524205 2.79717e-13)
(1.01487 0.000693865 2.82137e-13)
(1.0144 0.000838327 2.8109e-13)
(1.01385 0.000947958 2.77984e-13)
(1.01325 0.00101843 2.74209e-13)
(1.01262 0.00105015 2.70962e-13)
(1.01199 0.00104728 2.6914e-13)
(1.01137 0.00101654 2.69307e-13)
(1.01079 0.000966054 2.71698e-13)
(1.01024 0.000904214 2.76268e-13)
(1.00974 0.000838788 2.82756e-13)
(1.00928 0.000776288 2.90757e-13)
(1.00885 0.000721602 2.99792e-13)
(1.00846 0.000677862 3.09371e-13)
(1.00808 0.000646525 3.1904e-13)
(1.00772 0.00062759 3.28431e-13)
(1.00737 0.000619911 3.37278e-13)
(1.00701 0.00062154 3.45447e-13)
(1.00665 0.000630079 3.52931e-13)
(1.00628 0.000642989 3.59848e-13)
(1.0059 0.000657848 3.66419e-13)
(1.00551 0.000672551 3.72937e-13)
(1.00511 0.00068543 3.79732e-13)
(1.0047 0.00069532 3.87118e-13)
(1.00429 0.00070156 3.95346e-13)
(1.00388 0.000703947 4.04559e-13)
(1.00346 0.000702655 4.14754e-13)
(1.00305 0.000698126 4.25769e-13)
(1.00264 0.00069096 4.37283e-13)
(1.00223 0.000681801 4.4884e-13)
(1.00183 0.000671249 4.59899e-13)
(1.00143 0.000659773 4.6989e-13)
(1.00104 0.000647687 4.78302e-13)
(1.00066 0.000635087 4.84761e-13)
(1.00028 0.000621958 4.89131e-13)
(0.999915 0.000607956 4.91606e-13)
(0.999551 0.000593014 4.92802e-13)
(0.999197 0.000575996 4.93831e-13)
(0.998847 0.000557846 4.96363e-13)
(0.998515 0.000534339 5.02525e-13)
(0.998178 0.000511716 5.15347e-13)
(0.997887 0.00047304 5.36472e-13)
(0.997556 0.0004447 5.75188e-13)
(0.997354 0.000377651 6.10608e-13)
(0.996986 0.000302118 7.41526e-13)
(1.00012 -0.00225512 -2.55088e-18)
(1.00181 -0.00684469 -8.2238e-18)
(1.00571 -0.0118191 -7.15223e-18)
(1.0118 -0.0173235 -1.05827e-17)
(1.02055 -0.0234094 -3.67069e-18)
(1.03236 -0.0298982 -2.52326e-17)
(1.04757 -0.036405 5.36414e-19)
(1.06624 -0.0420635 8.20577e-17)
(1.08786 -0.0459412 -2.61081e-16)
(1.11131 -0.0468221 -2.05314e-16)
(1.13422 -0.0440549 1.09948e-15)
(1.15465 -0.038684 1.98498e-15)
(1.17178 -0.0313399 3.44255e-16)
(1.18498 -0.0225482 -3.4541e-15)
(1.19384 -0.0125387 -6.94151e-15)
(1.1978 -0.0013018 -7.83919e-15)
(1.19598 0.010939 -7.58284e-15)
(1.1875 0.0231956 -7.00993e-15)
(1.17229 0.0335539 -6.43901e-15)
(1.15183 0.0398145 -6.00049e-15)
(1.12901 0.0403885 -5.57939e-15)
(1.10736 0.0347686 -4.44533e-15)
(1.09042 0.0235157 -1.19367e-15)
(1.08118 0.00821715 4.73273e-15)
(1.08164 -0.0086065 2.07366e-14)
(1.09229 -0.0235066 1.09481e-13)
(1.11136 -0.0323323 3.19513e-13)
(1.13399 -0.0313993 4.51714e-13)
(1.15293 -0.0196551 3.37528e-13)
(1.16137 -5.0799e-05 1.54865e-13)
(1.15606 0.0217633 5.78947e-14)
(1.13817 0.0403701 2.33251e-14)
(1.11161 0.0525869 1.6508e-14)
(1.08088 0.0574833 1.64856e-14)
(1.0499 0.0553765 -3.37346e-14)
(1.02175 0.0468705 -2.67603e-14)
(0.999109 0.0323207 5.90159e-13)
(0.98474 0.0117973 3.6114e-13)
(0.982124 -0.0144465 -7.19008e-12)
(0.995481 -0.0446339 -1.5146e-11)
(1.02778 -0.0735648 1.97439e-11)
(1.07742 -0.0923364 1.1182e-10)
(1.13582 -0.0918795 1.75113e-10)
(1.18773 -0.0689358 1.36668e-10)
(1.2177 -0.0294892 5.17159e-11)
(1.21873 0.0140732 -1.28416e-12)
(1.19456 0.0497503 -1.17721e-11)
(1.1552 0.0713187 -5.1019e-12)
(1.11075 0.078867 9.06447e-13)
(1.06793 0.0755613 3.44161e-12)
(1.03038 0.0643736 -3.1696e-12)
(1.00034 0.0466763 -2.55705e-11)
(0.979511 0.0226216 -6.34637e-12)
(0.969202 -0.00789541 2.29507e-10)
(0.972272 -0.0445515 8.31385e-10)
(0.99495 -0.0852783 1.6771e-09)
(1.04252 -0.123906 2.44018e-09)
(1.11184 -0.149823 2.9359e-09)
(1.19041 -0.152047 3.25523e-09)
(1.26239 -0.124554 3.53635e-09)
(1.31462 -0.0694298 3.64575e-09)
(1.33785 0.00163528 3.22219e-09)
(1.32636 0.0688285 2.21147e-09)
(1.28266 0.112896 1.06509e-09)
(1.22028 0.126029 2.61035e-10)
(1.15696 0.113862 -7.89672e-11)
(1.10548 0.0881865 -1.19112e-10)
(1.07043 0.0588406 -6.08953e-11)
(1.05112 0.0306999 -1.16692e-11)
(1.04554 0.00513241 7.74094e-12)
(1.05218 -0.0172794 1.47411e-11)
(1.06954 -0.0349787 3.22126e-11)
(1.09488 -0.0453869 6.7346e-11)
(1.12359 -0.046152 1.02814e-10)
(1.14961 -0.0367837 1.14028e-10)
(1.16697 -0.0195521 9.53343e-11)
(1.17202 0.00107765 6.15532e-11)
(1.16455 0.02018 3.03461e-11)
(1.14746 0.0341586 1.05656e-11)
(1.1251 0.0416466 1.61613e-12)
(1.10155 0.0432084 -9.53615e-13)
(1.07967 0.0404121 -1.00412e-12)
(1.061 0.0349743 -5.40364e-13)
(1.04614 0.0282926 -2.14686e-13)
(1.03507 0.0213305 -8.45113e-14)
(1.02752 0.0146904 -5.98483e-14)
(1.02308 0.00873231 -6.15655e-14)
(1.02128 0.00367119 -4.39556e-14)
(1.02162 -0.000358902 1.60844e-14)
(1.02354 -0.00327128 1.28322e-13)
(1.0265 -0.00502362 2.90664e-13)
(1.02989 -0.00563691 4.86294e-13)
(1.03316 -0.00521843 6.84808e-13)
(1.03582 -0.0039703 8.49479e-13)
(1.03751 -0.00217264 9.48142e-13)
(1.03806 -0.00014293 9.63173e-13)
(1.03748 0.00181572 8.9895e-13)
(1.03592 0.00346137 7.80289e-13)
(1.03363 0.00464126 6.38665e-13)
(1.03092 0.00529665 5.01475e-13)
(1.02809 0.00544938 3.86976e-13)
(1.02537 0.00517852 3.04061e-13)
(1.02295 0.00459499 2.54641e-13)
(1.02095 0.00381933 2.36611e-13)
(1.01942 0.00296485 2.46176e-13)
(1.01834 0.00212697 2.79114e-13)
(1.01767 0.00137778 3.31135e-13)
(1.01734 0.000764946 3.97685e-13)
(1.01726 0.000313362 4.73641e-13)
(1.01733 2.85592e-05 5.53239e-13)
(1.01749 -9.93125e-05 6.30506e-13)
(1.01764 -9.14486e-05 6.99827e-13)
(1.01773 2.34359e-05 7.56494e-13)
(1.01773 0.000212695 7.97419e-13)
(1.01759 0.000443113 8.21663e-13)
(1.01733 0.000683913 8.3035e-13)
(1.01694 0.000909149 8.26244e-13)
(1.01644 0.00109932 8.13119e-13)
(1.01586 0.0012421 7.95078e-13)
(1.01523 0.00133226 7.75969e-13)
(1.01457 0.0013708 7.58963e-13)
(1.01391 0.00136366 7.4632e-13)
(1.01328 0.0013201 7.39343e-13)
(1.01268 0.00125109 7.38449e-13)
(1.01212 0.00116785 7.43327e-13)
(1.01162 0.00108068 7.5313e-13)
(1.01115 0.000998118 7.66681e-13)
(1.01073 0.000926511 7.82662e-13)
(1.01034 0.000869836 7.99775e-13)
(1.00996 0.000829844 8.16877e-13)
(1.0096 0.000806372 8.33078e-13)
(1.00925 0.000797761 8.478e-13)
(1.00889 0.000801331 8.60805e-13)
(1.00853 0.000813838 8.72187e-13)
(1.00815 0.000831887 8.8233e-13)
(1.00776 0.000852272 8.91849e-13)
(1.00736 0.000872229 9.01505e-13)
(1.00695 0.000889593 9.12103e-13)
(1.00653 0.000902875 9.24382e-13)
(1.00611 0.000911259 9.38908e-13)
(1.00568 0.000914533 9.55974e-13)
(1.00525 0.00091298 9.7553e-13)
(1.00482 0.000907229 9.97147e-13)
(1.0044 0.000898107 1.02003e-12)
(1.00398 0.000886491 1.04306e-12)
(1.00357 0.000873186 1.06493e-12)
(1.00316 0.000858821 1.08426e-12)
(1.00276 0.000843807 1.09982e-12)
(1.00236 0.000828281 1.11069e-12)
(1.00197 0.000812194 1.11653e-12)
(1.00158 0.000795137 1.11773e-12)
(1.0012 0.000776908 1.11568e-12)
(1.00082 0.000756231 1.11292e-12)
(1.00045 0.000733881 1.11321e-12)
(1.0001 0.000705259 1.12134e-12)
(0.999738 0.000676804 1.14403e-12)
(0.999423 0.000629819 1.18507e-12)
(0.999058 0.000593026 1.26435e-12)
(0.998841 0.000512184 1.33764e-12)
(0.998412 0.000414936 1.61462e-12)
(1.00011 -0.00270923 2.30266e-18)
(1.0017 -0.00822926 9.11474e-18)
(1.00538 -0.0142523 7.18493e-18)
(1.0112 -0.0209844 9.42586e-18)
(1.01972 -0.0285222 2.89707e-17)
(1.03144 -0.0366808 -9.43937e-17)
(1.04692 -0.0450093 3.80154e-16)
(1.06637 -0.0523836 -5.66973e-16)
(1.08938 -0.0575869 -8.91519e-16)
(1.11477 -0.0588269 4.13777e-15)
(1.13949 -0.0551959 4.49959e-15)
(1.16121 -0.0483339 -9.85652e-15)
(1.1793 -0.0391115 -2.94131e-14)
(1.19324 -0.0282299 -3.59637e-14)
(1.2028 -0.0159096 -2.50912e-14)
(1.20743 -0.0019631 -8.92707e-15)
(1.20593 0.0135235 3.3667e-15)
(1.19694 0.0293552 1.02183e-14)
(1.18002 0.0429492 1.3269e-14)
(1.15676 0.0512862 1.53518e-14)
(1.13054 0.0522109 2.01248e-14)
(1.10552 0.0450477 3.35535e-14)
(1.08584 0.0304959 5.97719e-14)
(1.07503 0.0105348 9.59724e-14)
(1.07563 -0.0116822 2.06828e-13)
(1.08861 -0.0317081 6.08751e-13)
(1.11228 -0.0439066 1.2449e-12)
(1.14088 -0.043012 1.48232e-12)
(1.16519 -0.0273633 9.41516e-13)
(1.1764 -0.00106204 2.75502e-13)
(1.17059 0.0279485 2.90947e-14)
(1.1497 0.0522508 8.86949e-15)
(1.11901 0.0678106 4.31422e-14)
(1.08407 0.0737941 1.30434e-14)
(1.04926 0.0709696 -9.1679e-14)
(1.01766 0.0603147 5.92076e-13)
(0.991745 0.0422713 1.28815e-12)
(0.974362 0.0166133 -8.35859e-12)
(0.969614 -0.016913 -2.3236e-11)
(0.982033 -0.0564336 6.65879e-11)
(1.01417 -0.095215 4.37372e-10)
(1.06587 -0.121398 1.03591e-09)
(1.13218 -0.122081 1.46199e-09)
(1.19766 -0.0915305 1.35269e-09)
(1.23953 -0.0378276 8.24288e-10)
(1.24369 0.0208385 3.09062e-10)
(1.21419 0.0674204 4.06497e-11)
(1.16611 0.0940733 -2.66121e-11)
(1.11382 0.102122 -1.56541e-11)
(1.06544 0.0966999 -9.57557e-13)
(1.02415 0.0820553 -1.47325e-11)
(0.991041 0.0601644 -3.83006e-11)
(0.966031 0.0315121 8.22586e-11)
(0.949738 -0.00465475 5.78426e-10)
(0.948477 -0.0500742 1.43143e-09)
(0.973519 -0.10342 2.2491e-09)
(1.02985 -0.155076 2.68492e-09)
(1.10881 -0.188904 2.78401e-09)
(1.19311 -0.190786 2.83753e-09)
(1.26531 -0.155391 3.09335e-09)
(1.31327 -0.0874735 3.50823e-09)
(1.33129 -0.000893137 3.6158e-09)
(1.31742 0.0824321 2.95907e-09)
(1.27397 0.139237 1.74005e-09)
(1.21162 0.157745 6.10118e-10)
(1.1469 0.143154 -1.35218e-11)
(1.09354 0.110304 -1.73797e-10)
(1.05742 0.0725859 -1.19324e-10)
(1.03828 0.0367517 -3.91085e-11)
(1.03395 0.00443036 1.134e-11)
(1.04248 -0.0239472 6.81927e-11)
(1.06188 -0.0465199 1.86035e-10)
(1.08946 -0.0599271 3.62643e-10)
(1.12138 -0.0609337 5.18468e-10)
(1.15199 -0.0485886 5.60661e-10)
(1.17421 -0.0256952 4.68539e-10)
(1.18235 0.00170999 3.06056e-10)
(1.17509 0.0268313 1.54291e-10)
(1.15576 0.0447795 5.51302e-11)