/*--------------------------------*- C++ -*----------------------------------*\
  =========                 |
  \\      /  F ield         | OpenFOAM: The Open Source CFD Toolbox
   \\    /   O peration     | Website:  https://openfoam.org
    \\  /    A nd           | Version:  11
     \\/     M anipulation  |
\*---------------------------------------------------------------------------*/
FoamFile
{
    format      ascii;
    class       volVectorField;
    location    "9.954111";
    object      U;
}
// * * * * * * * * * * * * * * * * * * * * * * * * * * * * * * * * * * * * * //

dimensions      [0 1 -1 0 0 0 0];

internalField   nonuniform List<vector> 
7132
(
(1.00014 -0.000275173 1.92865e-18)
(1.00213 -0.000826249 7.76116e-18)
(1.00662 -0.00139758 8.41751e-18)
(1.01336 -0.00199211 1.00057e-17)
(1.02254 -0.00260454 1.26391e-17)
(1.0342 -0.00320697 1.34048e-17)
(1.04822 -0.00375226 1.31684e-17)
(1.06427 -0.00415722 1.26328e-17)
(1.08158 -0.00433414 1.20606e-17)
(1.09908 -0.00420061 1.14616e-17)
(1.11532 -0.00372092 1.07457e-17)
(1.129 -0.00299907 1.03139e-17)
(1.1394 -0.00215314 9.51769e-18)
(1.14625 -0.00131735 9.30567e-18)
(1.1499 -0.000638198 2.13283e-18)
(1.15127 -0.00021732 -4.10872e-18)
(1.15156 -7.01955e-05 -1.0857e-17)
(1.15181 -0.000101068 -1.02054e-17)
(1.15243 -0.000123182 -1.39037e-17)
(1.15295 8.47701e-05 -1.83865e-17)
(1.15198 0.000689827 -1.89424e-17)
(1.14766 0.00169763 -1.93803e-17)
(1.13856 0.00292032 -1.98135e-17)
(1.12432 0.00406284 -1.98018e-17)
(1.10593 0.00484833 -1.77693e-17)
(1.0853 0.00509333 -1.78243e-17)
(1.06487 0.00471845 -1.83079e-17)
(1.04721 0.00372544 -2.01124e-17)
(1.03473 0.00217764 -2.18292e-17)
(1.02949 0.000201397 -2.38085e-17)
(1.03292 -0.00198834 -7.71167e-17)
(1.04537 -0.00404321 -5.04964e-16)
(1.06548 -0.00547858 -1.54232e-15)
(1.08965 -0.00579613 -2.29463e-15)
(1.11244 -0.00473188 -1.68875e-15)
(1.12811 -0.00247431 -4.49808e-16)
(1.13269 0.000371794 1.76813e-16)
(1.12534 0.00308225 1.95118e-16)
(1.10798 0.00512868 1.09192e-16)
(1.08406 0.00629002 1.93077e-16)
(1.05731 0.00656909 -2.69013e-16)
(1.03111 0.00605462 -2.48109e-15)
(1.00844 0.00482256 -2.81291e-16)
(0.992059 0.00290529 2.66994e-14)
(0.984706 0.000328176 6.48421e-14)
(0.989006 -0.002795 -1.01165e-13)
(1.00685 -0.00611586 -1.01821e-12)
(1.03809 -0.00895884 -3.06074e-12)
(1.0791 -0.0104331 -5.43519e-12)
(1.12244 -0.00980451 -6.4494e-12)
(1.1585 -0.00695402 -5.39531e-12)
(1.17889 -0.00258873 -3.28266e-12)
(1.17967 0.00204062 -1.44938e-12)
(1.16257 0.00574697 -3.79572e-13)
(1.13331 0.00790351 4.05167e-14)
(1.09877 0.00849427 1.38886e-13)
(1.06477 0.00783299 1.56308e-13)
(1.03556 0.0062514 -5.90528e-14)
(1.01424 0.00393378 -9.07963e-13)
(1.00355 0.000920426 -1.72843e-12)
(1.00634 -0.00276302 1.3459e-12)
(1.02519 -0.00691047 1.65529e-11)
(1.06128 -0.0109906 5.33707e-11)
(1.1129 -0.0141758 1.14692e-10)
(1.17462 -0.015581 1.9007e-10)
(1.23773 -0.0145881 2.56918e-10)
(1.29191 -0.0110865 2.90801e-10)
(1.32744 -0.00555701 2.78889e-10)
(1.33759 0.000972956 2.26404e-10)
(1.32069 0.00709199 1.51372e-10)
(1.28133 0.0114046 7.72721e-11)
(1.22927 0.0130969 2.37948e-11)
(1.17592 0.0122671 -2.42677e-12)
(1.1304 0.00972072 -8.16357e-12)
(1.09759 0.00642995 -5.07509e-12)
(1.07862 0.00311329 -1.33539e-12)
(1.07253 0.000153531 3.89817e-13)
(1.0774 -0.00225805 5.22063e-13)
(1.09075 -0.00396374 4.27153e-14)
(1.10942 -0.00478588 -4.59192e-13)
(1.12946 -0.00459015 -7.52975e-13)
(1.14661 -0.00340269 -7.89135e-13)
(1.15711 -0.00148377 -6.34986e-13)
(1.15878 0.000715985 -4.19323e-13)
(1.1515 0.00270886 -2.32154e-13)
(1.13703 0.00414015 -1.03473e-13)
(1.11818 0.0048737 -3.1018e-14)
(1.0978 0.00496733 4.60672e-16)
(1.0782 0.00458708 8.22591e-15)
(1.06091 0.00392134 5.90545e-15)
(1.04669 0.00312837 1.53095e-15)
(1.03579 0.00231931 -1.72846e-15)
(1.02808 0.00156322 -3.55754e-15)
(1.02325 0.000899589 -4.61452e-15)
(1.02088 0.000349996 -5.45967e-15)
(1.02047 -7.40613e-05 -6.26564e-15)
(1.0215 -0.000367282 -6.91525e-15)
(1.02345 -0.000530006 -7.1856e-15)
(1.02579 -0.000569625 -6.90731e-15)
(1.02806 -0.000502235 -6.0528e-15)
(1.02986 -0.000352788 -4.77788e-15)
(1.03092 -0.00015284 -3.39598e-15)
(1.03111 6.37989e-05 -2.27486e-15)
(1.03042 0.0002662 -1.68568e-15)
(1.02898 0.000430666 -1.70874e-15)
(1.02697 0.00054307 -2.25153e-15)
(1.02462 0.000598978 -3.11247e-15)
(1.02215 0.000602072 -4.0553e-15)
(1.01978 0.000561689 -4.87635e-15)
(1.01764 0.000490187 -5.42904e-15)
(1.01584 0.000400656 -5.63063e-15)
(1.01442 0.000305188 -5.44776e-15)
(1.01339 0.000213779 -4.87637e-15)
(1.0127 0.000133795 -3.93553e-15)
(1.01232 6.98847e-05 -2.65798e-15)
(1.01215 2.42165e-05 -1.09795e-15)
(1.01213 -3.11804e-06 6.66829e-16)
(1.01218 -1.36276e-05 2.54069e-15)
(1.01224 -9.94931e-06 4.41255e-15)
(1.01227 4.58904e-06 6.17441e-15)
(1.01221 2.63648e-05 7.73509e-15)
(1.01206 5.18113e-05 9.03336e-15)
(1.0118 7.77152e-05 1.00495e-14)
(1.01144 0.000101439 1.08022e-14)
(1.01099 0.000121064 1.13449e-14)
(1.01047 0.000135437 1.1753e-14)
(1.0099 0.000144144 1.21081e-14)
(1.00931 0.000147405 1.24901e-14)
(1.00872 0.000145931 1.29647e-14)
(1.00814 0.000140752 1.35802e-14)
(1.00759 0.000133052 1.43643e-14)
(1.00708 0.000124016 1.5323e-14)
(1.0066 0.000114717 1.64478e-14)
(1.00616 0.00010603 1.77165e-14)
(1.00575 9.85885e-05 1.91003e-14)
(1.00537 9.27795e-05 2.05661e-14)
(1.00501 8.8755e-05 2.20776e-14)
(1.00466 8.64698e-05 2.36031e-14)
(1.00431 8.57276e-05 2.51147e-14)
(1.00397 8.62308e-05 2.65943e-14)
(1.00362 8.76298e-05 2.80329e-14)
(1.00327 8.95649e-05 2.94306e-14)
(1.00291 9.17017e-05 3.08002e-14)
(1.00253 9.37547e-05 3.21625e-14)
(1.00216 9.55053e-05 3.35451e-14)
(1.00177 9.68026e-05 3.49765e-14)
(1.00138 9.7573e-05 3.64783e-14)
(1.00099 9.77913e-05 3.80643e-14)
(1.0006 9.75055e-05 3.97337e-14)
(1.00021 9.67575e-05 4.14722e-14)
(0.999821 9.56761e-05 4.32508e-14)
(0.999438 9.42821e-05 4.5028e-14)
(0.999066 9.27593e-05 4.67589e-14)
(0.998691 9.1023e-05 4.83999e-14)
(0.998341 8.92746e-05 4.99151e-14)
(0.997965 8.74001e-05 5.13013e-14)
(0.997658 8.52272e-05 5.25257e-14)
(0.997248 8.35675e-05 5.37915e-14)
(0.997047 8.00406e-05 5.46365e-14)
(0.996504 7.84077e-05 5.71758e-14)
(1.00014 -0.000823459 2.68209e-20)
(1.00212 -0.00247387 3.82137e-19)
(1.00658 -0.0041866 7.7133e-19)
(1.0133 -0.00597292 1.17419e-18)
(1.02247 -0.00781797 1.65965e-18)
(1.03416 -0.00963893 2.17762e-18)
(1.04829 -0.0112945 2.6288e-18)
(1.06453 -0.0125307 2.90697e-18)
(1.08212 -0.0130791 5.40067e-18)
(1.09997 -0.0126808 5.98868e-18)
(1.11652 -0.011222 4.77977e-18)
(1.1304 -0.00902718 8.11612e-18)
(1.14085 -0.00645597 5.24075e-18)
(1.14762 -0.00391763 4.53651e-18)
(1.15107 -0.00186371 9.07612e-18)
(1.15217 -0.000608934 1.78206e-17)
(1.15222 -0.00020171 2.67129e-17)
(1.15237 -0.000345845 3.09502e-17)
(1.1531 -0.000465054 2.68434e-17)
(1.15393 0.000125947 1.61914e-17)
(1.15337 0.00194816 4.58882e-18)
(1.14938 0.00502113 -4.77936e-18)
(1.14036 0.00876243 -1.14318e-17)
(1.12594 0.0122608 -1.61348e-17)
(1.10711 0.0146693 -1.96747e-17)
(1.08591 0.0154347 -2.51334e-17)
(1.06485 0.0143232 -3.64839e-17)
(1.04658 0.0113434 -3.19211e-17)
(1.03356 0.00668192 -1.43828e-17)
(1.02794 0.000706948 -4.38105e-16)
(1.03127 -0.00594891 -1.48983e-15)
(1.04406 -0.0122371 3.23201e-15)
(1.06501 -0.016672 2.32516e-14)
(1.09044 -0.0177054 4.46954e-14)
(1.11454 -0.0145036 4.37071e-14)
(1.13115 -0.00763567 2.57873e-14)
(1.13605 0.0010388 9.84423e-15)
(1.12839 0.00929459 2.07218e-15)
(1.11034 0.015516 5.15734e-17)
(1.0856 0.0190417 4.11298e-16)
(1.05802 0.0198996 -2.23237e-15)
(1.03105 0.0183741 -1.02674e-14)
(1.00761 0.0146997 1.20537e-14)
(0.990471 0.0089628 1.4003e-13)
(0.982414 0.00120938 1.81824e-13)
(0.986283 -0.00825867 -1.1349e-12)
(1.00432 -0.0184092 -6.17425e-12)
(1.03666 -0.0271711 -1.56102e-11)
(1.07963 -0.0317753 -2.57087e-11)
(1.12523 -0.0299297 -3.00359e-11)
(1.16309 -0.0212596 -2.52329e-11)
(1.18423 -0.00794674 -1.51515e-11)
(1.18463 0.00616821 -6.56137e-12)
(1.16633 0.017449 -1.69734e-12)
(1.1356 0.0239868 2.08738e-13)
(1.0997 0.0257612 6.40347e-13)
(1.06461 0.0237606 5.26956e-13)
(1.03451 0.019012 -7.10246e-13)
(1.0124 0.0120714 -3.75828e-12)
(1.00093 0.00303824 -2.84476e-12)
(1.00291 -0.00803619 2.30181e-11)
(1.02097 -0.020536 1.08262e-10)
(1.05645 -0.0328571 2.76749e-10)
(1.10789 -0.0425201 5.14473e-10)
(1.16998 -0.0468858 7.69541e-10)
(1.23388 -0.0440958 9.73943e-10)
(1.28915 -0.0337605 1.06233e-09)
(1.32607 -0.0172278 9.93906e-10)
(1.33771 0.00247568 7.8542e-10)
(1.32189 0.0210831 5.09602e-10)
(1.28272 0.0343011 2.53992e-10)
(1.22994 0.039569 7.91432e-11)
(1.17544 0.0371281 -4.39549e-12)
(1.1289 0.0294294 -2.41701e-11)
(1.09548 0.0194598 -1.64935e-11)
(1.07637 0.00942086 -5.43989e-12)
(1.07047 0.000464392 4.90582e-13)
(1.07583 -0.00684948 1.59292e-12)
(1.08994 -0.0120471 3.41358e-13)
(1.10959 -0.0145774 -1.3112e-12)
(1.1307 -0.0140131 -2.24849e-12)
(1.14876 -0.0104201 -2.12845e-12)
(1.15982 -0.0045876 -1.34378e-12)
(1.16158 0.00210774 -5.96769e-13)
(1.15398 0.00817302 -1.78144e-13)
(1.13893 0.0125222 -1.22562e-14)
(1.11943 0.014742 2.92494e-14)
(1.09849 0.015015 2.6982e-14)
(1.07849 0.0138529 1.53137e-14)
(1.06094 0.0118314 5.00969e-15)
(1.0466 0.00943084 -1.82945e-15)
(1.03565 0.00698619 -5.74057e-15)
(1.02797 0.00470404 -7.87566e-15)
(1.02321 0.00270187 -9.1645e-15)
(1.02092 0.00104354 -9.94852e-15)
(1.02062 -0.000236815 -1.00414e-14)
(1.02178 -0.00112303 -8.99655e-15)
(1.02386 -0.00161545 -6.40974e-15)
(1.02632 -0.00173562 -2.20946e-15)
(1.02869 -0.00153165 3.18693e-15)
(1.03057 -0.00107874 8.87844e-15)
(1.03168 -0.000472404 1.36731e-14)
(1.03188 0.0001848 1.64764e-14)
(1.03117 0.000798943 1.68009e-14)
(1.02968 0.00129801 1.48997e-14)
(1.02762 0.0016391 1.1507e-14)
(1.02521 0.00180877 7.51972e-15)
(1.02269 0.00181829 3.74902e-15)
(1.02027 0.00169604 7.76223e-16)
(1.0181 0.00147955 -1.06802e-15)
(1.01628 0.00120853 -1.65736e-15)
(1.01485 0.000919613 -1.00181e-15)
(1.01382 0.000643071 8.16265e-16)
(1.01315 0.000401174 3.66615e-15)
(1.01278 0.000207963 7.37847e-15)
(1.01263 6.99667e-05 1.17374e-14)
(1.01262 -1.25619e-05 1.64767e-14)
(1.01269 -4.42e-05 2.13031e-14)
(1.01277 -3.29305e-05 2.59123e-14)
(1.0128 1.11803e-05 3.00247e-14)
(1.01275 7.71745e-05 3.34295e-14)
(1.0126 0.000154262 3.6015e-14)
(1.01234 0.000232719 3.77835e-14)
(1.01198 0.000304565 3.88352e-14)
(1.01152 0.000363988 3.93443e-14)
(1.011 0.000407504 3.95268e-14)
(1.01042 0.000433857 3.96012e-14)
(1.00983 0.000443719 3.97664e-14)
(1.00923 0.000439246 4.0177e-14)
(1.00864 0.000423561 4.09342e-14)
(1.00809 0.00040025 4.20874e-14)
(1.00757 0.000372906 4.36347e-14)
(1.00709 0.000344774 4.55398e-14)
(1.00665 0.000318503 4.77379e-14)
(1.00624 0.000296013 5.01487e-14)
(1.00586 0.000278471 5.26884e-14)
(1.0055 0.000266334 5.52742e-14)
(1.00515 0.000259464 5.7838e-14)
(1.00481 0.000257264 6.03268e-14)
(1.00446 0.000258833 6.27088e-14)
(1.00412 0.00026311 6.4977e-14)
(1.00376 0.000269008 6.71448e-14)
(1.0034 0.000275514 6.92502e-14)
(1.00302 0.000281765 7.13456e-14)
(1.00264 0.0002871 7.34914e-14)
(1.00225 0.000291063 7.57477e-14)
(1.00186 0.000293433 7.81597e-14)
(1.00146 0.000294135 8.07544e-14)
(1.00107 0.000293315 8.35282e-14)
(1.00067 0.000291103 8.64457e-14)
(1.00029 0.000287886 8.94426e-14)
(0.9999 0.000283739 9.24279e-14)
(0.999525 0.0002792 9.53005e-14)
(0.999146 0.000274046 9.79604e-14)
(0.998793 0.000268839 1.00318e-13)
(0.998412 0.000263312 1.02345e-13)
(0.998101 0.000256826 1.03977e-13)
(0.997685 0.000252018 1.05534e-13)
(0.997482 0.000241411 1.06373e-13)
(0.996929 0.000236674 1.09479e-13)
(1.00013 -0.00136611 2.68589e-22)
(1.00209 -0.00410608 5.18936e-21)
(1.0065 -0.0069563 5.18179e-21)
(1.01316 -0.00994148 7.98358e-21)
(1.02231 -0.0130417 -1.12527e-19)
(1.03407 -0.0161225 9.44123e-20)
(1.0484 -0.0189492 -5.3693e-19)
(1.06503 -0.0210836 -1.1138e-18)
(1.08319 -0.0220612 2.99515e-18)
(1.10174 -0.0214083 1.18774e-18)
(1.11893 -0.0189119 -1.61244e-17)
(1.13321 -0.0151553 -2.62767e-17)
(1.14381 -0.0107529 -3.24624e-19)
(1.15043 -0.00640259 6.22223e-17)
(1.15345 -0.00289142 1.32953e-16)
(1.154 -0.000778433 1.76126e-16)
(1.15358 -0.000164209 1.63292e-16)
(1.15355 -0.00054492 8.54413e-17)
(1.15453 -0.000914865 -2.922e-17)
(1.15601 -5.9679e-05 -1.24246e-16)
(1.15627 0.00296268 -1.66036e-16)
(1.15291 0.00820753 -1.65123e-16)
(1.14401 0.0146525 -1.48913e-16)
(1.1291 0.020695 -1.36293e-16)
(1.10933 0.0248637 -1.32833e-16)
(1.08693 0.026219 -1.55814e-16)
(1.06461 0.0243796 -2.09608e-16)
(1.04514 0.0193702 -1.26954e-17)
(1.03114 0.0114971 1.33042e-16)
(1.02488 0.00134984 -5.04844e-15)
(1.02816 -0.0100434 -8.4713e-15)
(1.04176 -0.0209151 8.49002e-14)
(1.06455 -0.0286803 3.74787e-13)
(1.09259 -0.0305805 6.63324e-13)
(1.11935 -0.0250947 6.27609e-13)
(1.13774 -0.013208 3.40625e-13)
(1.14302 0.00178203 1.05937e-13)
(1.13444 0.0159556 1.03261e-14)
(1.11472 0.0265294 -7.75004e-15)
(1.08813 0.0324429 -4.78161e-15)
(1.05883 0.0338355 -1.46777e-14)
(1.03033 0.0312534 -1.34382e-14)
(1.00549 0.0251083 1.31922e-13)
(0.987019 0.015507 2.71756e-13)
(0.977824 0.00243239 -9.50966e-13)
(0.981139 -0.013729 -4.68073e-12)
(0.999782 -0.0312883 -4.64304e-12)
(1.03433 -0.0466184 1.09735e-11)
(1.08111 -0.0547508 3.64098e-11)
(1.13136 -0.0515664 4.54968e-11)
(1.17308 -0.0364389 2.96628e-11)
(1.19575 -0.0133054 8.52423e-12)
(1.195 0.0110432 -2.99706e-12)
(1.17372 0.0302838 -4.35115e-12)
(1.13951 0.041213 -1.61482e-12)
(1.10062 0.0439735 7.43268e-13)
(1.06331 0.0404142 8.81012e-13)
(1.03161 0.0323521 -3.67012e-12)
(1.00819 0.0207248 -1.01626e-11)
(0.995349 0.00567308 9.60257e-12)
(0.995684 -0.0127618 1.1945e-10)
(1.01214 -0.0336531 3.79455e-10)
(1.04701 -0.0544424 7.7739e-10)
(1.09956 -0.0709634 1.22194e-09)
(1.16402 -0.0786192 1.61573e-09)
(1.2302 -0.0742051 1.91007e-09)
(1.28663 -0.0571707 2.07322e-09)
(1.32389 -0.0297834 2.03611e-09)
(1.33601 0.00313537 1.73456e-09)
(1.32097 0.0346288 1.22051e-09)
(1.28214 0.0573629 6.64955e-10)
(1.22866 0.0666863 2.39772e-10)
(1.17266 0.0627484 1.28742e-11)
(1.12463 0.0496851 -5.52829e-11)
(1.09038 0.032697 -4.50716e-11)
(1.07125 0.0156263 -1.82335e-11)
(1.06604 0.000431179 -8.38504e-13)
(1.07266 -0.0119874 4.94997e-12)
(1.08855 -0.020846 5.08329e-12)
(1.11036 -0.0251727 4.62838e-12)
(1.1337 -0.0241828 5.21864e-12)
(1.15359 -0.0179607 6.17097e-12)
(1.16563 -0.00787867 6.32351e-12)
(1.16734 0.00365566 5.03135e-12)
(1.15882 0.0140425 3.0078e-12)
(1.14237 0.0214128 1.31275e-12)
(1.12141 0.0250894 3.43458e-13)
(1.09926 0.0254334 -3.52568e-14)
(1.07843 0.023359 -1.0472e-13)
(1.06043 0.0198665 -7.26507e-14)
(1.04592 0.0157721 -3.52822e-14)
(1.03501 0.0116333 -1.69707e-14)
(1.02747 0.00778739 -1.34021e-14)
(1.02294 0.00442293 -1.52258e-14)
(1.02092 0.00164127 -1.56905e-14)
(1.02091 -0.000503179 -1.12137e-14)
(1.02237 -0.00198379 -2.6127e-16)
(1.02473 -0.00280021 1.72139e-14)
(1.02745 -0.00298761 3.96683e-14)
(1.03003 -0.00262663 6.39496e-14)
(1.03205 -0.0018449 8.57792e-14)
(1.03322 -0.000805357 1.00784e-13)
(1.03341 0.000316895 1.05896e-13)
(1.03263 0.00136174 1.0088e-13)
(1.03104 0.00220708 8.81645e-14)
(1.02884 0.00278102 7.1399e-14)
(1.02631 0.00306221 5.41618e-14)
(1.02368 0.00307126 3.91793e-14)
(1.02117 0.00285758 2.80838e-14)
(1.01894 0.00248567 2.15521e-14)
(1.0171 0.00202326 1.96064e-14)
(1.01567 0.00153251 2.19076e-14)
(1.01466 0.00106446 2.79486e-14)
(1.01402 0.000656475 3.71329e-14)
(1.01368 0.000331862 4.87721e-14)
(1.01358 0.000101227 6.20601e-14)
(1.01361 -3.53858e-05 7.6081e-14)
(1.01371 -8.60174e-05 8.98819e-14)
(1.01382 -6.43802e-05 1.02544e-13)
(1.01387 1.23675e-05 1.13274e-13)
(1.01383 0.00012562 1.21529e-13)
(1.01368 0.000257103 1.27106e-13)
(1.01341 0.000390386 1.30144e-13)
(1.01304 0.000512022 1.31057e-13)
(1.01257 0.000612263 1.30445e-13)
(1.01203 0.000685315 1.28985e-13)
(1.01144 0.000729164 1.27331e-13)
(1.01082 0.000745056 1.26037e-13)
(1.01021 0.000736732 1.25513e-13)
(1.00962 0.000709554 1.26003e-13)
(1.00906 0.000669637 1.27598e-13)
(1.00854 0.000623086 1.30258e-13)
(1.00806 0.000575391 1.3384e-13)
(1.00761 0.000531013 1.38139e-13)
(1.00721 0.000493172 1.42918e-13)
(1.00683 0.0004638 1.47937e-13)
(1.00647 0.000443633 1.52982e-13)
(1.00612 0.000432397 1.57878e-13)
(1.00578 0.000429051 1.62507e-13)
(1.00543 0.000432047 1.66811e-13)
(1.00508 0.000439577 1.70798e-13)
(1.00472 0.000449792 1.74531e-13)
(1.00435 0.000460981 1.78123e-13)
(1.00397 0.000471688 1.81721e-13)
(1.00359 0.000480807 1.85481e-13)
(1.00319 0.000487579 1.89552e-13)
(1.00279 0.000491643 1.94043e-13)
(1.00239 0.000492888 1.99011e-13)
(1.00199 0.00049157 2.04438e-13)
(1.00159 0.000487923 2.10232e-13)
(1.0012 0.000482608 2.16221e-13)
(1.0008 0.000475756 2.2218e-13)
(1.00042 0.000468294 2.27843e-13)
(1.00003 0.000459814 2.32951e-13)
(0.999674 0.000451352 2.37265e-13)
(0.999285 0.000442274 2.40685e-13)
(0.998967 0.000431883 2.43061e-13)
(0.99854 0.000423887 2.45006e-13)
(0.99833 0.000406953 2.45484e-13)
(0.99776 0.000398743 2.49395e-13)
(1.00013 -0.00189904 -2.57159e-20)
(1.00204 -0.00571066 -4.86737e-19)
(1.00636 -0.00969107 -8.84594e-19)
(1.01293 -0.0138855 -1.645e-18)
(1.02204 -0.0182776 -2.02685e-18)
(1.03387 -0.0226876 -2.34376e-18)
(1.0485 -0.0267893 -8.75017e-18)
(1.06571 -0.0299388 8.40831e-18)
(1.08476 -0.0314495 5.35717e-18)
(1.10441 -0.0305616 -7.69248e-17)
(1.1226 -0.0269263 -7.62578e-17)
(1.1375 -0.0214585 1.91089e-16)
(1.14832 -0.0150517 5.83169e-16)
(1.1547 -0.00872071 8.04401e-16)
(1.15706 -0.00364617 6.44629e-16)
(1.15673 -0.000682614 5.83824e-17)
(1.15555 1.43379e-07 -8.84449e-16)
(1.1552 -0.000848177 -1.93653e-15)
(1.15655 -0.00172242 -2.59976e-15)
(1.15905 -0.000768099 -2.49639e-15)
(1.16064 0.00349021 -1.88261e-15)
(1.1583 0.0111625 -1.20074e-15)
(1.1496 0.020683 -7.19882e-16)
(1.13395 0.0296118 -4.92224e-16)
(1.1127 0.0357628 -4.49709e-16)
(1.08843 0.0377963 -5.74604e-16)
(1.06417 0.0352122 -5.38759e-16)
(1.04289 0.0280772 4.32675e-16)
(1.02738 0.0168154 -2.87573e-15)
(1.02013 0.00220259 -1.24273e-14)
(1.02328 -0.0143817 6.6303e-14)
(1.0381 -0.030432 3.37834e-13)
(1.06372 -0.0420984 5.67998e-13)
(1.09587 -0.0451268 6.64317e-13)
(1.12685 -0.0370901 7.04914e-13)
(1.14807 -0.0194509 4.94669e-13)
(1.15387 0.00272298 1.91828e-13)
(1.14372 0.0234645 2.38847e-14)
(1.12128 0.0386778 -2.26411e-14)
(1.09174 0.0469822 -3.13431e-14)
(1.05979 0.048792 -4.44652e-14)
(1.029 0.04504 1.44282e-13)
(1.0021 0.0363528 4.43536e-13)
(0.981694 0.0227994 -1.6095e-12)
(0.970851 0.00416158 -7.48222e-12)
(0.97313 -0.0192158 4.96634e-12)
(0.991576 -0.044986 1.0113e-10)
(1.02714 -0.0678391 3.26348e-10)
(1.07717 -0.0803245 5.95673e-10)
(1.13362 -0.0759574 7.20486e-10)
(1.18283 -0.0534569 6.02178e-10)
(1.21059 -0.0188607 3.46359e-10)
(1.21006 0.0172388 1.26971e-10)
(1.18489 0.0452146 1.59561e-11)
(1.14526 0.0605272 -1.23143e-11)
(1.10157 0.0638418 -7.73208e-12)
(1.06085 0.0582503 -3.22392e-12)
(1.02686 0.0465717 -1.13148e-11)
(1.00153 0.0302069 -1.19811e-11)
(0.986383 0.00930347 7.22429e-11)
(0.984052 -0.0164068 3.44188e-10)
(0.999066 -0.0461719 8.1681e-10)
(1.03572 -0.0765632 1.35677e-09)
(1.09338 -0.101057 1.79672e-09)
(1.164 -0.112249 2.07866e-09)
(1.23448 -0.105418 2.26745e-09)
(1.29159 -0.0805721 2.44631e-09)
(1.32623 -0.0418357 2.57606e-09)
(1.33475 0.00402658 2.46315e-09)
(1.31736 0.0480689 1.97193e-09)
(1.27761 0.08045 1.23042e-09)
(1.2235 0.0942641 5.31619e-10)
(1.16645 0.0890971 8.81356e-11)
(1.11722 0.0705468 -8.32025e-11)
(1.08227 0.0461502 -9.00919e-11)
(1.06329 0.0216026 -4.50965e-11)
(1.05912 -0.00023013 -6.38595e-12)
(1.06757 -0.0181017 1.7769e-11)
(1.08595 -0.0309032 3.99012e-11)
(1.11073 -0.037162 6.62316e-11)
(1.13724 -0.0356319 8.75554e-11)
(1.15994 -0.0263797 9.09973e-11)
(1.17374 -0.011453 7.49699e-11)
(1.17569 0.00552571 4.91633e-11)
(1.16595 0.0206701 2.51452e-11)
(1.14738 0.0312322 9.22272e-12)
(1.12413 0.0362942 1.48623e-12)
(1.1001 0.0364965 -9.80194e-13)
(1.078 0.0332627 -1.09587e-12)
(1.05934 0.028086 -6.10744e-13)
(1.04463 0.0221431 -2.17267e-13)
(1.03382 0.0162097 -3.57082e-14)
(1.02657 0.0107394 7.96237e-15)
(1.02242 0.00597787 2.09332e-15)
(1.02086 0.00205445 3.7049e-17)
(1.02132 -0.000960989 2.37055e-14)
(1.02325 -0.00303242 7.74256e-14)
(1.02606 -0.00415787 1.56163e-13)
(1.02918 -0.0043852 2.48459e-13)
(1.03207 -0.00382867 3.38453e-13)
(1.03429 -0.00267217 4.09146e-13)
(1.03555 -0.00115206 4.46744e-13)
(1.03571 0.000477329 4.44871e-13)
(1.03482 0.00198432 4.07894e-13)
(1.03304 0.00319395 3.48193e-13)
(1.03064 0.00400541 2.8017e-13)
(1.0279 0.00439167 2.15937e-13)
(1.0251 0.00438613 1.63399e-13)
(1.02246 0.00406287 1.26304e-13)
(1.02015 0.00351652 1.05329e-13)
(1.01827 0.00284528 9.93816e-14)
(1.01685 0.00213837 1.06595e-13)
(1.01587 0.0014684 1.24873e-13)
(1.01529 0.00088792 1.52028e-13)
(1.01502 0.000429193 1.85707e-13)
(1.01498 0.000106289 2.23295e-13)
(1.01507 -8.16804e-05 2.61963e-13)
(1.01523 -0.000146953 2.98909e-13)
(1.01537 -0.00010966 3.31546e-13)
(1.01545 5.32907e-06 3.57777e-13)
(1.01542 0.000171229 3.76314e-13)
(1.01527 0.000361851 3.86896e-13)
(1.015 0.000553749 3.90225e-13)
(1.0146 0.000727833 3.87734e-13)
(1.01411 0.000870374 3.81286e-13)
(1.01354 0.000973348 3.72851e-13)
(1.01293 0.00103416 3.64242e-13)
(1.01229 0.00105486 3.56927e-13)
(1.01166 0.00104104 3.51927e-13)
(1.01106 0.00100054 3.49801e-13)
(1.01049 0.000942252 3.50687e-13)
(1.00996 0.000874945 3.5438e-13)
(1.00948 0.00080647 3.60428e-13)
(1.00903 0.00074316 3.68232e-13)
(1.00863 0.000689538 3.77136e-13)
(1.00825 0.000648267 3.8651e-13)
(1.00789 0.000620298 3.95803e-13)
(1.00755 0.000605146 4.04599e-13)
(1.0072 0.000601246 4.1264e-13)
(1.00686 0.000606325 4.19832e-13)
(1.0065 0.000617763 4.26242e-13)
(1.00614 0.0006329 4.32078e-13)
(1.00576 0.00064929 4.37654e-13)
(1.00538 0.000664868 4.4335e-13)
(1.00498 0.000678077 4.49555e-13)
(1.00458 0.000687864 4.56619e-13)
(1.00417 0.000693745 4.64796e-13)
(1.00376 0.000695595 4.74198e-13)
(1.00335 0.000693809 4.84768e-13)
(1.00294 0.000688746 4.96259e-13)
(1.00253 0.000681376 5.08252e-13)
(1.00213 0.000671873 5.20184e-13)
(1.00174 0.000661639 5.3141e-13)
(1.00134 0.000649948 5.41291e-13)
(1.00097 0.000638599 5.49241e-13)
(1.00057 0.000626039 5.54982e-13)
(1.00024 0.000612553 5.58177e-13)
(0.999799 0.000601026 5.60041e-13)
(0.99958 0.000579422 5.58892e-13)
(0.998984 0.000566622 5.62924e-13)
(1.00013 -0.0024169 -1.91502e-18)
(1.00197 -0.00727266 -7.44581e-18)
(1.00615 -0.0123699 -6.4134e-18)
(1.01258 -0.0177854 -9.3183e-18)
(1.0216 -0.0235188 -2.40544e-18)
(1.0335 -0.0293561 -2.48373e-17)
(1.0485 -0.0348846 1.04513e-17)
(1.06649 -0.0392252 5.64226e-17)
(1.08676 -0.041432 -2.72528e-16)
(1.10798 -0.0403417 -1.24977e-16)
(1.12757 -0.0354123 1.23433e-15)
(1.14334 -0.0280095 2.42207e-15)
(1.15446 -0.0193313 1.45909e-15)
(1.16048 -0.0107337 -2.084e-15)
(1.16187 -0.00387154 -7.21011e-15)
(1.16026 1.51644e-05 -1.26507e-14)
(1.15795 0.000627985 -1.7233e-14)
(1.15715 -0.00103503 -1.92563e-14)
(1.15902 -0.00284238 -1.68365e-14)
(1.16303 -0.00211978 -1.01419e-14)
(1.16659 0.00333224 -3.09173e-15)
(1.16577 0.0137365 1.31645e-15)
(1.15737 0.0268432 2.98753e-15)
(1.14065 0.0391546 2.90034e-15)
(1.1173 0.0476232 1.9256e-15)
(1.09043 0.0504794 1.01668e-15)
(1.06348 0.0471427 2.8861e-15)
(1.03972 0.0377626 -2.54176e-15)
(1.02211 0.0228815 -2.85665e-14)
(1.0134 0.00340445 1.68044e-13)
(1.01625 -0.0190197 6.98666e-13)
(1.03263 -0.0411334 -1.80079e-12)
(1.06221 -0.0575813 -1.21745e-11)
(1.10026 -0.0621684 -2.38718e-11)
(1.13731 -0.0512006 -2.37063e-11)
(1.16255 -0.0266915 -1.33634e-11)
(1.16901 0.00399327 -4.34495e-12)
(1.15651 0.0322742 -5.02138e-13)
(1.13013 0.0525237 2.72778e-13)
(1.09645 0.0631809 9.75003e-14)
(1.06088 0.0651995 7.9138e-14)
(1.02703 0.060095 8.66118e-13)
(0.997424 0.0487578 -4.96089e-13)
(0.974527 0.0311327 -1.16786e-11)
(0.961357 0.00672934 -1.23892e-11)
(0.960951 -0.0240634 1.10187e-10)
(0.975729 -0.0582648 5.22425e-10)
(1.0078 -0.0894152 1.22928e-09)
(1.0577 -0.10803 1.96243e-09)
(1.11999 -0.10446 2.34072e-09)
(1.1804 -0.074958 2.12408e-09)
(1.21982 -0.026901 1.42847e-09)
(1.22526 0.0239284 6.71099e-10)
(1.19855 0.062695 1.76385e-10)
(1.15288 0.0828595 -1.73707e-11)
(1.10272 0.0861576 -4.09291e-11)
(1.05727 0.0777537 -2.55893e-11)
(1.02021 0.0620123 -2.4996e-11)
(0.992173 0.0409682 1.17444e-11)
(0.97378 0.0144229 2.18078e-10)
(0.968882 -0.0190816 6.72713e-10)
(0.985041 -0.0594671 1.25221e-09)
(1.02785 -0.101601 1.71678e-09)
(1.09423 -0.135135 1.94496e-09)
(1.17237 -0.149218 2.00242e-09)
(1.24683 -0.138037 2.03579e-09)
(1.30367 -0.103042 2.17524e-09)
(1.33403 -0.051317 2.44222e-09)
(1.33584 0.00764133 2.6329e-09)
(1.31224 0.0632534 2.42626e-09)
(1.26885 0.104293 1.74868e-09)
(1.21331 0.122223 8.94233e-10)
(1.15571 0.115841 2.33524e-10)
(1.1061 0.0917522 -8.38586e-11)
(1.07104 0.0596634 -1.39953e-10)
(1.05257 0.0272112 -8.53403e-11)
(1.04963 -0.00169892 -1.16727e-11)
(1.05977 -0.0253952 7.02319e-11)
(1.08 -0.0424271 1.80424e-10)
(1.10692 -0.0508272 3.09609e-10)
(1.13637 -0.0488001 4.06125e-10)
(1.16285 -0.0362172 4.18113e-10)
(1.18024 -0.0157472 3.42106e-10)
(1.18419 0.00756467 2.23687e-10)
(1.17419 0.0282085 1.14605e-10)
(1.15355 0.0423207 4.20495e-11)
(1.12753 0.048726 6.52563e-12)
(1.10099 0.0484924 -4.84829e-12)
(1.07717 0.0437324 -5.30466e-12)
(1.05762 0.0365523 -2.93677e-12)
(1.04267 0.0285326 -1.00309e-12)
(1.03205 0.0206614 -8.6894e-14)
(1.02524 0.0134843 1.56102e-13)
(1.02165 0.00728125 1.45616e-13)
(1.0207 0.00219428 1.3541e-13)
(1.02182 -0.00169881 2.2669e-13)
(1.02439 -0.00435398 4.34036e-13)
(1.02782 -0.00576571 7.27612e-13)
(1.03148 -0.00599272 1.05296e-12)
(1.0348 -0.00518402 1.34517e-12)
(1.0373 -0.00358522 1.54507e-12)
(1.03867 -0.00151509 1.61508e-12)
(1.03879 0.000682907 1.54935e-12)
(1.03772 0.00269754 1.37703e-12)
(1.03569 0.0042969 1.14727e-12)
(1.03299 0.00535148 9.08672e-13)
(1.02998 0.00583217 6.97052e-13)
(1.02694 0.00579033 5.32157e-13)
(1.02413 0.00533019 4.20305e-13)
(1.02171 0.00458127 3.59286e-13)
(1.01978 0.00367569 3.4286e-13)
(1.01837 0.00273197 3.63691e-13)
(1.01745 0.00184531 4.14609e-13)
(1.01694 0.00108352 4.88687e-13)
(1.01676 0.000487232 5.78819e-13)
(1.01681 7.30474e-05 6.77381e-13)
(1.01699 -0.000161947 7.7647e-13)
(1.01722 -0.000235273 8.685e-13)
(1.01742 -0.000174479 9.46744e-13)
(1.01753 -1.30335e-05 1.00608e-12)
(1.01752 0.000213341 1.04373e-12)
(1.01737 0.000469933 1.05975e-12)
(1.01707 0.000725846 1.05673e-12)
(1.01665 0.00095611 1.03901e-12)
(1.01613 0.00114297 1.01184e-12)
(1.01553 0.00127629 9.80516e-13)
(1.01488 0.00135316 9.49698e-13)
(1.01421 0.0013768 9.23002e-13)
(1.01356 0.00135502 9.02806e-13)
(1.01293 0.00129854 8.90274e-13)
(1.01235 0.0012193 8.85507e-13)
(1.01181 0.00112901 8.87781e-13)
(1.01133 0.00103802 8.95809e-13)
(1.01089 0.000954632 9.07993e-13)
(1.01048 0.000884653 9.22659e-13)
(1.01011 0.000831428 9.38244e-13)
(1.00975 0.000796026 9.53446e-13)
(1.00941 0.000777639 9.67323e-13)
(1.00906 0.000774056 9.7934e-13)
(1.00871 0.000782172 9.89379e-13)
(1.00836 0.000798459 9.97698e-13)
(1.00798 0.000819376 1.00487e-12)
(1.0076 0.000841695 1.0117e-12)
(1.0072 0.000862716 1.01909e-12)
(1.0068 0.000880429 1.02795e-12)
(1.00638 0.0008935 1.03905e-12)
(1.00596 0.000901348 1.05294e-12)
(1.00554 0.000903868 1.06981e-12)
(1.00511 0.000901636 1.0895e-12)
(1.00469 0.000895161 1.11139e-12)
(1.00427 0.000885776 1.1345e-12)
(1.00386 0.00087369 1.15753e-12)
(1.00345 0.000860871 1.179e-12)
(1.00304 0.000846131 1.19745e-12)
(1.00266 0.000832372 1.21155e-12)
(1.00224 0.000816452 1.22063e-12)
(1.0019 0.000800939 1.224e-12)
(1.00144 0.000785465 1.22405e-12)
(1.00121 0.000761427 1.21813e-12)
(1.00058 0.000742448 1.21979e-12)
(1.00012 -0.0029133 2.28305e-18)
(1.00187 -0.00877357 8.27676e-18)
(1.00587 -0.0149657 6.3257e-18)
(1.01207 -0.0216125 9.97726e-18)
(1.02094 -0.0287471 1.97512e-17)
(1.03288 -0.0361393 -6.65645e-17)
(1.04829 -0.0433004 3.42832e-16)
(1.06723 -0.0490801 -7.01766e-16)
(1.08911 -0.0522268 -4.53009e-16)
(1.11246 -0.0509866 4.50726e-15)
(1.13393 -0.0445437 4.76495e-15)
(1.15084 -0.0349068 -9.06333e-15)
(1.16237 -0.0236165 -3.29011e-14)
(1.16792 -0.0124146 -5.46555e-14)
(1.16799 -0.00355187 -6.56477e-14)
(1.16458 0.00124598 -6.30832e-14)
(1.16065 0.00151285 -4.4203e-14)
(1.15911 -0.00143414 -6.67882e-15)
(1.16163 -0.00471314 4.22184e-14)
(1.16773 -0.00459434 7.93674e-14)
(1.17408 0.00211073 8.75315e-14)
(1.17544 0.0157932 7.52181e-14)
(1.16754 0.0332769 5.69358e-14)
(1.1494 0.0496716 4.10173e-14)
(1.12325 0.0608799 2.87169e-14)
(1.09295 0.064701 2.46846e-14)
(1.06251 0.0605617 2.78505e-14)
(1.03551 0.0487671 -3.97212e-14)
(1.01512 0.0299786 2.87524e-14)
(1.00437 0.00513996 1.29808e-12)
(1.00655 -0.0239797 4.03081e-13)
(1.02486 -0.0534084 -1.85093e-11)
(1.06004 -0.0759316 -6.39e-11)
(1.10659 -0.0827037 -1.10732e-10)
(1.15203 -0.0682381 -1.17645e-10)
(1.18236 -0.035261 -7.79677e-11)
(1.18922 0.0057937 -3.21006e-11)
(1.17316 0.0429384 -6.65457e-12)
(1.14131 0.0687109 1.22988e-12)
(1.10215 0.0815954 1.43801e-12)
(1.06197 0.0834888 1.27577e-12)
(1.02436 0.0767613 1.97433e-12)
(0.991498 0.062606 -8.2185e-12)
(0.965607 0.0408386 -3.16527e-11)
(0.948753 0.0109686 3.81987e-11)
(0.942226 -0.0263676 4.57445e-10)
(0.94886 -0.0683819 1.36516e-09)
(0.974963 -0.108823 2.50302e-09)
(1.02467 -0.136449 3.45088e-09)
(1.09258 -0.137345 3.96432e-09)
(1.16351 -0.103364 3.86784e-09)
(1.21663 -0.0412359 3.03777e-09)
(1.23358 0.027915 1.76735e-09)
(1.2106 0.0814041 6.64023e-10)
(1.16107 0.108412 7.29031e-11)
(1.10404 0.111615 -9.08994e-11)
(1.05273 0.0994896 -8.19714e-11)
(1.0116 0.0791201 -4.57665e-11)
(0.979948 0.0534266 7.92613e-11)
(0.958072 0.0209617 4.38865e-10)
(0.952486 -0.0220145 1.00785e-09)
(0.973471 -0.0756307 1.52708e-09)
(1.02504 -0.131161 1.77644e-09)
(1.09956 -0.173365 1.78655e-09)
(1.18213 -0.188625 1.72951e-09)
(1.25723 -0.171141 1.73586e-09)
(1.31215 -0.124199 1.86964e-09)
(1.33859 -0.0578984 2.16438e-09)
(1.33438 0.0149596 2.51418e-09)
(1.30398 0.0815913 2.58086e-09)
(1.25548 0.129906 2.09791e-09)
(1.19769 0.150784 1.22965e-09)
(1.13985 0.142656 4.15381e-10)
(1.09078 0.112862 -5.23089e-11)
(1.05652 0.0729165 -1.82485e-10)
(1.03907 0.0323177 -1.27093e-10)
(1.03703 -0.00382094 1.25752e-11)
(1.04716 -0.0332787 2.30433e-10)
(1.06619 -0.0544778 5.31636e-10)
(1.09194 -0.0653613 8.546e-10)