/*--------------------------------*- C++ -*----------------------------------*\
  =========                 |
  \\      /  F ield         | OpenFOAM: The Open Source CFD Toolbox
   \\    /   O peration     | Website:  https://openfoam.org
    \\  /    A nd           | Version:  11
     \\/     M anipulation  |
\*---------------------------------------------------------------------------*/
FoamFile
{
    format      ascii;
    class       volVectorField;
    location    "9.954111";
    object      U_0;
}
// * * * * * * * * * * * * * * * * * * * * * * * * * * * * * * * * * * * * * //

dimensions      [0 1 -1 0 0 0 0];

internalField   nonuniform List<vector> 
7132
(
(1.00014 -0.000275163 1.89767e-18)
(1.00213 -0.00082604 7.90069e-18)
(1.00662 -0.00139703 8.42146e-18)
(1.01336 -0.00199115 9.97122e-18)
(1.02253 -0.00260323 1.26471e-17)
(1.03418 -0.00320549 1.34269e-17)
(1.0482 -0.00375089 1.31898e-17)
(1.06424 -0.00415636 1.26476e-17)
(1.08155 -0.0043343 1.20665e-17)
(1.09905 -0.00420247 1.14583e-17)
(1.11531 -0.00372528 1.07376e-17)
(1.12901 -0.00300695 1.03031e-17)
(1.13944 -0.00216547 9.49988e-18)
(1.14636 -0.00133472 9.27864e-18)
(1.15009 -0.000660134 2.18759e-18)
(1.15156 -0.000241348 -4.0497e-18)
(1.15194 -9.1425e-05 -1.093e-17)
(1.15226 -0.000112709 -1.02659e-17)
(1.15291 -0.000118319 -1.38505e-17)
(1.15337 0.00011085 -1.83624e-17)
(1.15225 0.000736529 -1.90602e-17)
(1.1477 0.00175712 -1.94604e-17)
(1.13834 0.00297973 -1.9874e-17)
(1.12388 0.00410924 -1.98328e-17)
(1.10533 0.00487237 -1.77762e-17)
(1.08466 0.00509025 -1.78236e-17)
(1.0643 0.00468731 -1.83227e-17)
(1.04682 0.00366815 -2.02073e-17)
(1.03462 0.00209887 -2.19769e-17)
(1.02973 0.00010937 -2.32564e-17)
(1.03355 -0.00208007 -8.11766e-17)
(1.04636 -0.00411456 -5.35928e-16)
(1.06669 -0.00550597 -1.59888e-15)
(1.09087 -0.00576199 -2.31872e-15)
(1.11339 -0.0046366 -1.66545e-15)
(1.12856 -0.00234054 -4.33769e-16)
(1.13256 0.000509464 1.66986e-16)
(1.12467 0.0031938 1.82206e-16)
(1.10694 0.00519871 1.06002e-16)
(1.08283 0.00631633 1.92241e-16)
(1.05605 0.00655593 -3.15292e-16)
(1.02998 0.0060068 -2.53707e-15)
(1.00757 0.00474271 1.35934e-16)
(0.991569 0.00279447 2.808e-14)
(0.984722 0.000189224 6.40476e-14)
(0.989634 -0.00295143 -1.17259e-13)
(1.00813 -0.00626475 -1.0646e-12)
(1.03993 -0.00906074 -3.11549e-12)
(1.08121 -0.0104465 -5.42485e-12)
(1.1244 -0.00970798 -6.32582e-12)
(1.15984 -0.00676438 -5.20684e-12)
(1.17931 -0.00235907 -3.11881e-12)
(1.17915 0.00224641 -1.35082e-12)
(1.16132 0.00588456 -3.37982e-13)
(1.13168 0.00796139 4.94331e-14)
(1.09706 0.00848458 1.3772e-13)
(1.06322 0.00777437 1.52535e-13)
(1.03432 0.00615691 -7.85158e-14)
(1.01344 0.00380774 -9.48874e-13)
(1.00332 0.000762409 -1.71857e-12)
(1.00681 -0.00294962 1.62763e-12)
(1.02646 -0.00710951 1.74508e-11)
(1.06335 -0.0111698 5.51079e-11)
(1.11561 -0.0142932 1.17017e-10)
(1.17764 -0.0155984 1.92111e-10)
(1.24061 -0.014485 2.5746e-10)
(1.29413 -0.0108678 2.88946e-10)
(1.32859 -0.00525569 2.74661e-10)
(1.3374 0.00129682 2.20736e-10)
(1.31922 0.00736238 1.4564e-10)
(1.27895 0.0115579 7.28332e-11)
(1.22653 0.0131123 2.13253e-11)
(1.17339 0.0121718 -3.19791e-12)
(1.12843 0.00956619 -8.04502e-12)
(1.09631 0.00626227 -4.77234e-12)
(1.07801 0.0029594 -1.15664e-12)
(1.07249 2.50745e-05 4.30052e-13)
(1.07782 -0.00235482 4.98415e-13)
(1.09149 -0.00402172 1.04546e-14)
(1.11031 -0.00479744 -4.78531e-13)
(1.1303 -0.00455243 -7.55909e-13)
(1.1472 -0.00332304 -7.79877e-13)
(1.15731 -0.00138075 -6.21127e-13)
(1.15853 0.000818179 -4.07102e-13)
(1.15086 0.0027892 -2.23618e-13)
(1.13614 0.00418745 -9.84926e-14)
(1.11716 0.00488753 -2.86828e-14)
(1.09679 0.00495457 1.18057e-15)
(1.07729 0.00455721 8.18255e-15)
(1.06014 0.00388303 5.64913e-15)
(1.04609 0.00308797 1.31674e-15)
(1.03535 0.00228084 -1.8459e-15)
(1.02779 0.00152894 -3.61063e-15)
(1.02309 0.000870705 -4.64531e-15)
(1.02082 0.0003271 -5.48991e-15)
(1.02049 -9.06991e-05 -6.29732e-15)
(1.02157 -0.000377624 -6.94063e-15)
(1.02355 -0.00053429 -7.1964e-15)
(1.0259 -0.000568456 -6.90024e-15)
(1.02815 -0.000496639 -6.0319e-15)
(1.02992 -0.000344161 -4.75422e-15)
(1.03095 -0.000142779 -3.38439e-15)
(1.03109 7.37346e-05 -2.28772e-15)
(1.03037 0.00027472 -1.72693e-15)
(1.02889 0.00043691 -1.7738e-15)
(1.02686 0.000546652 -2.33017e-15)
(1.0245 0.000599938 -3.19271e-15)
(1.02204 0.000600773 -4.12678e-15)
(1.01967 0.000558685 -4.93217e-15)
(1.01755 0.000486106 -5.46602e-15)
(1.01576 0.000396103 -5.6485e-15)
(1.01436 0.000300683 -5.44808e-15)
(1.01335 0.00020972 -4.86155e-15)
(1.01268 0.000130449 -3.90837e-15)
(1.01231 6.73935e-05 -2.6218e-15)
(1.01215 2.26148e-05 -1.05665e-15)
(1.01213 -3.87951e-06 7.08756e-16)
(1.01219 -1.36592e-05 2.57844e-15)
(1.01225 -9.4011e-06 4.4414e-15)
(1.01227 5.54709e-06 6.19039e-15)
(1.01221 2.75596e-05 7.73574e-15)
(1.01205 5.3082e-05 9.01808e-15)
(1.01179 7.89245e-05 1.00195e-14)
(1.01142 0.000102482 1.07605e-14)
(1.01097 0.000121871 1.12954e-14)
(1.01044 0.000135976 1.17e-14)
(1.00987 0.000144414 1.20557e-14)
(1.00928 0.000147432 1.24418e-14)
(1.00869 0.00014576 1.29228e-14)
(1.00812 0.000140437 1.35461e-14)
(1.00757 0.000132651 1.43382e-14)
(1.00705 0.000123584 1.53044e-14)
(1.00658 0.000114299 1.64354e-14)
(1.00614 0.000105661 1.77088e-14)
(1.00573 9.82919e-05 1.90957e-14)
(1.00535 9.25666e-05 2.05627e-14)
(1.00499 8.86271e-05 2.20739e-14)
(1.00464 8.642e-05 2.35977e-14)
(1.0043 8.57432e-05 2.51068e-14)
(1.00395 8.62957e-05 2.65832e-14)
(1.00361 8.77268e-05 2.80187e-14)
(1.00325 8.96773e-05 2.94138e-14)
(1.00289 9.18148e-05 3.07817e-14)
(1.00252 9.38566e-05 3.21433e-14)
(1.00214 9.55875e-05 3.35266e-14)
(1.00175 9.68601e-05 3.49598e-14)
(1.00136 9.76037e-05 3.64642e-14)
(1.00097 9.77959e-05 3.80529e-14)
(1.00058 9.74867e-05 3.97244e-14)
(1.00019 9.67191e-05 4.14638e-14)
(0.999802 9.56224e-05 4.32415e-14)
(0.999419 9.42173e-05 4.50159e-14)
(0.999048 9.26864e-05 4.67418e-14)
(0.998673 9.09451e-05 4.83762e-14)
(0.998324 8.91912e-05 4.98839e-14)
(0.997948 8.73138e-05 5.12632e-14)
(0.997641 8.51317e-05 5.24819e-14)
(0.997232 8.34689e-05 5.37473e-14)
(0.997031 7.99236e-05 5.45916e-14)
(0.996489 7.82785e-05 5.71599e-14)
(1.00014 -0.000823431 2.72552e-20)
(1.00212 -0.00247325 3.8263e-19)
(1.00658 -0.00418494 7.71584e-19)
(1.01329 -0.00597003 1.17454e-18)
(1.02246 -0.00781402 1.66162e-18)
(1.03415 -0.00963444 2.1809e-18)
(1.04827 -0.0112903 2.63198e-18)
(1.0645 -0.012528 2.91006e-18)
(1.08209 -0.0130794 5.40358e-18)
(1.09994 -0.0126861 5.98499e-18)
(1.11651 -0.0112348 4.7675e-18)
(1.1304 -0.00905056 8.20489e-18)
(1.1409 -0.00649275 5.19492e-18)
(1.14773 -0.00396979 4.48307e-18)
(1.15125 -0.00192993 9.117e-18)
(1.15245 -0.000681805 1.79571e-17)
(1.15261 -0.000266412 2.68601e-17)
(1.15284 -0.000381676 3.09694e-17)
(1.1536 -0.000450803 2.66906e-17)
(1.15437 0.000205095 1.6041e-17)
(1.15365 0.00209069 4.54312e-18)
(1.14943 0.00520306 -4.73194e-18)
(1.14014 0.00894414 -1.13429e-17)
(1.12548 0.0124027 -1.60386e-17)
(1.1065 0.014743 -1.96158e-17)
(1.08524 0.0154262 -2.52452e-17)
(1.06426 0.0142298 -3.66147e-17)
(1.04616 0.0111708 -3.15223e-17)
(1.03343 0.00644379 -1.90612e-17)
(1.02817 0.000427412 -4.58843e-16)
(1.03191 -0.00622938 -1.4446e-15)
(1.04508 -0.0124573 3.46644e-15)
(1.06628 -0.0167591 2.29324e-14)
(1.09172 -0.0176042 4.26664e-14)
(1.11554 -0.0142145 4.07648e-14)
(1.13163 -0.00722819 2.36571e-14)
(1.1359 0.0014583 8.91715e-15)
(1.12769 0.00963397 1.83485e-15)
(1.10926 0.0157286 6.8419e-17)
(1.08432 0.0191217 4.32878e-16)
(1.05673 0.0198608 -2.45289e-15)
(1.02989 0.0182315 -1.03904e-14)
(1.00671 0.014461 1.45218e-14)
(0.989947 0.00863025 1.46475e-13)
(0.982403 0.000789661 1.70437e-13)
(0.986906 -0.008735 -1.24499e-12)
(1.00563 -0.0188663 -6.47658e-12)
(1.03857 -0.0274868 -1.60625e-11)
(1.08184 -0.0318205 -2.60572e-11)
(1.12729 -0.0296375 -2.99752e-11)
(1.16449 -0.020682 -2.47535e-11)
(1.18466 -0.00724678 -1.45973e-11)
(1.18407 0.00679485 -6.19191e-12)
(1.16502 0.0178667 -1.52466e-12)
(1.1339 0.0241613 2.55847e-13)
(1.09793 0.0257312 6.39533e-13)
(1.06301 0.023584 5.01833e-13)
(1.03324 0.0187289 -8.03817e-13)
(1.01156 0.011694 -3.87622e-12)
(1.00066 0.00256383 -2.49203e-12)
(1.00335 -0.00859851 2.50478e-11)
(1.02221 -0.0211375 1.13374e-10)
(1.0585 -0.0334005 2.85249e-10)
(1.11061 -0.0428798 5.24844e-10)
(1.17302 -0.0469487 7.7896e-10)
(1.23679 -0.043799 9.79043e-10)
(1.29144 -0.0331134 1.05997e-09)
(1.32731 -0.0163237 9.83035e-10)
(1.33763 0.00345826 7.68843e-10)
(1.32049 0.0219118 4.92326e-10)
(1.28034 0.0347774 2.40662e-10)
(1.22717 0.039624 7.17187e-11)
(1.17286 0.0368426 -6.88494e-12)
(1.12689 0.0289615 -2.40459e-11)
(1.09419 0.0189517 -1.57063e-11)
(1.07576 0.00895499 -4.8959e-12)
(1.07045 7.52806e-05 6.64972e-13)
(1.07628 -0.00714357 1.5523e-12)
(1.09072 -0.0122245 2.37012e-13)
(1.11053 -0.0146141 -1.39417e-12)
(1.13158 -0.0138996 -2.27699e-12)
(1.14938 -0.0101783 -2.11025e-12)
(1.16003 -0.00427409 -1.31254e-12)
(1.16133 0.00241892 -5.78224e-13)
(1.15332 0.00841745 -1.71646e-13)
(1.13801 0.0126657 -1.12922e-14)
(1.11839 0.0147835 2.87927e-14)
(1.09747 0.0149758 2.64851e-14)
(1.07757 0.013762 1.49595e-14)
(1.06017 0.0117153 4.74899e-15)
(1.04599 0.00930869 -2.01779e-15)
(1.03521 0.00687003 -5.86456e-15)
(1.02768 0.00460064 -7.9543e-15)
(1.02305 0.00261475 -9.21652e-15)
(1.02087 0.00097445 -9.97865e-15)
(1.02065 -0.000287061 -1.00412e-14)
(1.02186 -0.0011543 -8.95293e-15)
(1.02396 -0.00162841 -6.31762e-15)
(1.02643 -0.00173209 -2.08087e-15)
(1.02879 -0.00151469 3.3203e-15)
(1.03064 -0.00105258 8.97073e-15)
(1.0317 -0.000441881 1.36776e-14)
(1.03186 0.000214951 1.63661e-14)
(1.03111 0.000824802 1.65852e-14)
(1.0296 0.00131696 1.46142e-14)
(1.02751 0.00164997 1.11974e-14)
(1.02509 0.00181169 7.22786e-15)
(1.02257 0.00181436 3.50488e-15)
(1.02016 0.00168695 5.95639e-16)
(1.01801 0.0014672 -1.18109e-15)
(1.01621 0.00119475 -1.70687e-15)
(1.0148 0.000905983 -9.95791e-16)
(1.01379 0.000630795 8.68083e-16)
(1.01313 0.000391058 3.75322e-15)
(1.01277 0.000200435 7.48929e-15)
(1.01263 6.51295e-05 1.18592e-14)
(1.01263 -1.48578e-05 1.65958e-14)
(1.0127 -4.4289e-05 2.1406e-14)
(1.01277 -3.12661e-05 2.59866e-14)
(1.0128 1.40839e-05 3.00609e-14)
(1.01275 8.07939e-05 3.34227e-14)
(1.01259 0.00015811 3.59657e-14)
(1.01233 0.000236381 3.76969e-14)
(1.01196 0.000307722 3.87204e-14)
(1.0115 0.000366432 3.92123e-14)
(1.01097 0.000409134 3.93889e-14)
(1.0104 0.000434673 3.94677e-14)
(1.0098 0.000443801 3.96454e-14)
(1.0092 0.000438727 4.00736e-14)
(1.00862 0.000422608 4.0851e-14)
(1.00807 0.000399037 4.20244e-14)
(1.00755 0.000371598 4.35899e-14)
(1.00707 0.000343509 4.55099e-14)
(1.00663 0.000317387 4.77187e-14)
(1.00622 0.000295117 5.0136e-14)
(1.00584 0.000277828 5.26781e-14)
(1.00548 0.000265949 5.52627e-14)
(1.00513 0.000259315 5.78226e-14)
(1.00479 0.000257313 6.03058e-14)
(1.00445 0.000259031 6.26816e-14)
(1.0041 0.000263406 6.49441e-14)
(1.00374 0.00026935 6.71076e-14)
(1.00338 0.000275858 6.9211e-14)
(1.003 0.000282075 7.13071e-14)
(1.00262 0.00028735 7.34564e-14)
(1.00223 0.000291239 7.57185e-14)
(1.00184 0.000293527 7.81378e-14)
(1.00144 0.000294151 8.07399e-14)
(1.00105 0.00029326 8.35198e-14)
(1.00066 0.00029099 8.64407e-14)
(1.00027 0.000287727 8.94371e-14)
(0.999882 0.000283546 9.24173e-14)
(0.999507 0.000278983 9.52801e-14)
(0.999128 0.000273814 9.7926e-14)
(0.998775 0.000268592 1.00267e-13)
(0.998395 0.000263057 1.02277e-13)
(0.998084 0.000256544 1.03893e-13)
(0.997669 0.000251726 1.05446e-13)
(0.997465 0.000241066 1.06278e-13)
(0.996913 0.000236292 1.09433e-13)
(1.00013 -0.00136607 2.70891e-22)
(1.00209 -0.00410505 5.19798e-21)
(1.0065 -0.00695353 5.18089e-21)
(1.01315 -0.00993665 7.97208e-21)
(1.0223 -0.0130351 -1.12902e-19)
(1.03405 -0.0161149 9.4395e-20)
(1.04838 -0.0189419 -5.3581e-19)
(1.065 -0.0210787 -1.11761e-18)
(1.08316 -0.0220612 3.00253e-18)
(1.10171 -0.0214166 1.18996e-18)
(1.11891 -0.0189324 -1.62172e-17)
(1.13321 -0.0151935 -2.63977e-17)
(1.14384 -0.0108138 -8.60065e-20)
(1.15052 -0.00649016 6.32487e-17)
(1.15363 -0.00300416 1.34771e-16)
(1.15428 -0.000904306 1.78124e-16)
(1.15398 -0.000278269 1.64589e-16)
(1.15405 -0.000610834 8.58726e-17)
(1.15506 -0.00089535 -2.84722e-17)
(1.15649 7.21761e-05 -1.22014e-16)
(1.15659 0.00320549 -1.62853e-16)
(1.15297 0.00851989 -1.62278e-16)
(1.14377 0.0149652 -1.47197e-16)
(1.12861 0.0209392 -1.35669e-16)
(1.10866 0.0249911 -1.33115e-16)
(1.08621 0.0262063 -1.57627e-16)
(1.06396 0.0242229 -2.0993e-16)
(1.04468 0.0190789 -1.72519e-18)
(1.03098 0.0110932 8.33214e-17)
(1.02511 0.000872184 -5.33683e-15)
(1.02883 -0.0105274 -7.57066e-15)
(1.04285 -0.0213004 9.0669e-14)
(1.06593 -0.0288378 3.80767e-13)
(1.09399 -0.0304106 6.5398e-13)
(1.12045 -0.0245962 6.0247e-13)
(1.13826 -0.0125037 3.18503e-13)
(1.14285 0.00250388 9.62538e-14)
(1.13367 0.0165343 8.13974e-15)
(1.11356 0.0268874 -7.44779e-15)
(1.08677 0.0325746 -4.52546e-15)
(1.05747 0.0337682 -1.52338e-14)
(1.0291 0.0310141 -1.18307e-14)
(1.00452 0.0247093 1.40623e-13)
(0.986438 0.0149486 2.67882e-13)
(0.977772 0.00172057 -1.03935e-12)
(0.981763 -0.0145475 -4.8578e-12)
(1.00117 -0.0320838 -4.70274e-12)
(1.03641 -0.0471739 1.08198e-11)
(1.08356 -0.0548333 3.50233e-11)
(1.13365 -0.0510569 4.23886e-11)
(1.17462 -0.0354334 2.63103e-11)
(1.19618 -0.0120946 6.48005e-12)
(1.19431 0.0121168 -3.66144e-12)
(1.17223 0.0309878 -4.28427e-12)
(1.13765 0.0414961 -1.41669e-12)
(1.09873 0.043911 8.44067e-13)
(1.06163 0.0401104 8.09274e-13)
(1.03028 0.0318758 -3.97928e-12)
(1.0073 0.0200949 -1.02089e-11)
(0.995015 0.0048828 1.18247e-11)
(0.99604 -0.0136999 1.27093e-10)
(1.01331 -0.034662 3.94079e-10)
(1.04905 -0.0553614 7.96752e-10)
(1.10232 -0.0715776 1.2417e-09)
(1.16712 -0.0787352 1.6328e-09)
(1.23312 -0.0737238 1.92277e-09)
(1.28888 -0.0561144 2.07807e-09)
(1.32511 -0.0282955 2.02742e-09)
(1.33597 0.00477866 1.71061e-09)
(1.31965 0.0360437 1.18834e-09)
(1.2798 0.0581993 6.35844e-10)
(1.22585 0.0668043 2.213e-10)
(1.17001 0.0622737 5.42334e-12)
(1.12256 0.0488899 -5.59424e-11)
(1.08907 0.0318314 -4.34414e-11)
(1.07066 0.0148347 -1.68072e-11)
(1.06607 -0.000229019 -2.27479e-13)
(1.07318 -0.0124874 5.00025e-12)
(1.08943 -0.0211488 4.93409e-12)
(1.11141 -0.025235 4.46333e-12)
(1.13469 -0.0239859 5.06336e-12)
(1.15428 -0.0175422 6.00412e-12)
(1.16585 -0.00733743 6.13139e-12)
(1.16706 0.00419039 4.8312e-12)
(1.1581 0.014459 2.85409e-12)
(1.14137 0.0216532 1.22608e-12)
(1.1203 0.0251542 3.09381e-13)
(1.09818 0.0253613 -4.14966e-14)
(1.07748 0.0232011 -1.0158e-13)
(1.05965 0.0196678 -6.89522e-14)
(1.04532 0.0155649 -3.33753e-14)
(1.03457 0.0114373 -1.65116e-14)
(1.02719 0.00761357 -1.3561e-14)
(1.02279 0.0042768 -1.54406e-14)
(1.02088 0.00152557 -1.57118e-14)
(1.02095 -0.000587173 -1.09743e-14)
(1.02246 -0.00203581 2.25388e-16)
(1.02485 -0.00282136 1.78789e-14)
(1.02758 -0.00298085 4.03862e-14)
(1.03014 -0.00259717 6.45491e-14)
(1.03212 -0.00179994 8.60775e-14)
(1.03324 -0.000753138 1.00639e-13)
(1.03339 0.000368283 1.05272e-13)
(1.03257 0.00140564 9.98792e-14)
(1.03094 0.00223907 8.69676e-14)
(1.02873 0.00279917 7.01913e-14)
(1.02618 0.00306683 5.30883e-14)
(1.02356 0.00306428 3.83265e-14)
(1.02106 0.0028419 2.74843e-14)
(1.01885 0.00246456 2.11999e-14)
(1.01702 0.00199982 1.94745e-14)
(1.01562 0.00150941 2.19602e-14)
(1.01462 0.00104374 2.8148e-14)
(1.014 0.000639457 3.74404e-14)
(1.01368 0.000319255 4.91472e-14)
(1.01358 9.31876e-05 6.24594e-14)
(1.01362 -3.91277e-05 7.64602e-14)
(1.01372 -8.6039e-05 9.01992e-14)
(1.01382 -6.14558e-05 1.02763e-13)
(1.01387 1.73638e-05 1.13369e-13)
(1.01383 0.000131801 1.2149e-13)
(1.01367 0.000263646 1.26941e-13)
(1.0134 0.00039659 1.29871e-13)
(1.01302 0.000517354 1.30707e-13)
(1.01254 0.000616372 1.30052e-13)
(1.012 0.000688038 1.28583e-13)
(1.01141 0.000730506 1.26948e-13)
(1.0108 0.000745155 1.25696e-13)
(1.01019 0.00073582 1.25225e-13)
(1.00959 0.000707914 1.25775e-13)
(1.00903 0.000667567 1.27428e-13)
(1.00851 0.000620864 1.30138e-13)
(1.00803 0.00057325 1.33761e-13)
(1.00759 0.000529132 1.38089e-13)
(1.00719 0.000491668 1.42884e-13)
(1.00681 0.000462729 1.47908e-13)
(1.00645 0.000442999 1.52949e-13)
(1.0061 0.000432162 1.57834e-13)
(1.00576 0.000429151 1.62449e-13)
(1.00541 0.000432397 1.66739e-13)
(1.00506 0.000440088 1.70713e-13)
(1.0047 0.000450379 1.74438e-13)
(1.00433 0.000461569 1.78029e-13)
(1.00396 0.000472216 1.81633e-13)
(1.00357 0.000481233 1.85406e-13)
(1.00317 0.000487878 1.89495e-13)
(1.00277 0.000491805 1.94008e-13)
(1.00237 0.000492917 1.98998e-13)
(1.00197 0.00049148 2.04444e-13)
(1.00157 0.000487736 2.10249e-13)
(1.00118 0.000482345 2.1624e-13)
(1.00078 0.000475438 2.22188e-13)
(1.0004 0.000467938 2.27829e-13)
(1.00002 0.000459435 2.32902e-13)
(0.999656 0.00045095 2.37174e-13)
(0.999268 0.000441859 2.40549e-13)
(0.998949 0.000431426 2.42882e-13)
(0.998523 0.000423415 2.44807e-13)
(0.998314 0.000406394 2.45262e-13)
(0.997744 0.000398122 2.49273e-13)
(1.00013 -0.001899 -2.63099e-20)
(1.00204 -0.00570924 -4.87122e-19)
(1.00636 -0.00968718 -8.85106e-19)
(1.01292 -0.0138787 -1.64584e-18)
(1.02203 -0.0182682 -2.03312e-18)
(1.03385 -0.0226767 -2.34276e-18)
(1.04848 -0.0267788 -8.76086e-18)
(1.06568 -0.0299314 8.41662e-18)
(1.08472 -0.0314486 5.41466e-18)
(1.10438 -0.0305719 -7.72111e-17)
(1.12257 -0.0269534 -7.64143e-17)
(1.13749 -0.0215103 1.92785e-16)
(1.14834 -0.015136 5.8813e-16)
(1.15477 -0.00884414 8.10897e-16)
(1.15722 -0.00380799 6.47854e-16)
(1.15701 -0.000866291 5.32206e-17)
(1.15596 -0.000169266 -8.97754e-16)
(1.15574 -0.000950522 -1.94461e-15)
(1.15714 -0.00170129 -2.58209e-15)
(1.1596 -0.000580664 -2.45689e-15)
(1.16101 0.00384449 -1.84549e-15)
(1.15838 0.0116219 -1.17742e-15)
(1.14934 0.0211428 -7.12266e-16)
(1.1334 0.0299697 -4.95541e-16)
(1.11195 0.0359494 -4.59019e-16)
(1.08762 0.03778 -5.87279e-16)
(1.06343 0.0349891 -5.32496e-16)
(1.04236 0.0276605 4.50294e-16)
(1.02716 0.0162343 -3.11902e-15)
(1.02033 0.00150899 -1.2487e-14)
(1.02398 -0.0150945 7.09017e-14)
(1.03929 -0.0310099 3.53203e-13)
(1.06527 -0.0423451 6.11017e-13)
(1.09748 -0.0448851 7.43288e-13)
(1.12811 -0.0363542 7.68951e-13)
(1.14864 -0.0184085 5.11331e-13)
(1.15365 0.00378338 1.8869e-13)
(1.14283 0.024302 1.96184e-14)
(1.11997 0.0391844 -2.35743e-14)
(1.09025 0.0471603 -3.17831e-14)
(1.05831 0.0486895 -4.31162e-14)
(1.02767 0.0446996 1.57303e-13)
(1.00104 0.0357904 4.353e-13)
(0.98103 0.0220085 -1.76445e-12)
(0.970738 0.00313978 -7.59935e-12)
(0.973736 -0.0204109 6.42331e-12)
(0.993012 -0.0461698 1.06313e-10)
(1.02938 -0.0686894 3.3353e-10)
(1.07996 -0.0804775 5.97151e-10)
(1.13639 -0.0752078 7.09413e-10)
(1.18481 -0.0519442 5.81802e-10)
(1.2112 -0.0170467 3.27437e-10)
(1.20928 0.01882 1.16133e-10)
(1.18316 0.0462194 1.2392e-11)
(1.14314 0.0609016 -1.2372e-11)
(1.09949 0.0637207 -7.12508e-12)
(1.05905 0.0577996 -3.17661e-12)
(1.02544 0.0458938 -1.18122e-11)
(1.00055 0.029328 -1.09528e-11)
(0.985932 0.00820672 7.93788e-11)
(0.984291 -0.0177232 3.61115e-10)
(1.00021 -0.0476175 8.41172e-10)
(1.03787 -0.0779003 1.38128e-09)
(1.09634 -0.101945 1.81606e-09)
(1.16725 -0.112389 2.09347e-09)
(1.2374 -0.104697 2.28192e-09)
(1.29366 -0.0790756 2.46147e-09)
(1.32719 -0.0397876 2.58354e-09)
(1.33452 0.00628211 2.45016e-09)
(1.31598 0.0500476 1.93745e-09)
(1.27528 0.0816622 1.18858e-09)
(1.2207 0.0944727 4.99152e-10)
(1.16376 0.0884447 7.19333e-11)
(1.11511 0.0694141 -8.66963e-11)
(1.08094 0.0449062 -8.79666e-11)
(1.06273 0.0204642 -4.23626e-11)
(1.05923 -0.00117956 -4.73502e-12)
(1.06821 -0.0188229 1.86527e-11)
(1.08697 -0.0313419 4.06213e-11)
(1.11194 -0.0372507 6.67011e-11)
(1.13839 -0.0353384 8.72051e-11)
(1.16076 -0.0257584 8.96236e-11)
(1.17403 -0.0106529 7.304e-11)
(1.17539 0.00631036 4.73531e-11)
(1.16515 0.0212731 2.38911e-11)
(1.14627 0.0315704 8.57278e-12)
(1.12292 0.0363737 1.25453e-12)
(1.09895 0.0363792 -1.00882e-12)
(1.07701 0.033026 -1.06316e-12)
(1.05854 0.027796 -5.79037e-13)
(1.04403 0.021845 -2.0109e-13)
(1.0334 0.0159305 -3.11527e-14)
(1.02631 0.0104933 7.53015e-15)
(1.0223 0.00577174 9.57558e-16)
(1.02084 0.00189172 -2.2419e-17)
(1.02138 -0.00107867 2.50635e-14)
(1.02336 -0.00310466 7.99391e-14)
(1.0262 -0.00418609 1.59291e-13)
(1.02932 -0.00437357 2.515e-13)
(1.03219 -0.00378464 3.40656e-13)
(1.03437 -0.00260612 4.09876e-13)
(1.03558 -0.001076 4.45656e-13)
(1.03569 0.000551674 4.42065e-13)
(1.03475 0.00204737 4.03928e-13)
(1.03294 0.00323944 3.43793e-13)
(1.03051 0.00403072 2.75981e-13)
(1.02777 0.00439743 2.12396e-13)
(1.02497 0.00437527 1.60715e-13)
(1.02235 0.00403969 1.24508e-13)
(1.02006 0.00348577 1.04346e-13)
(1.0182 0.00281144 9.90886e-14)
(1.0168 0.00210524 1.0686e-13)
(1.01584 0.00143885 1.25568e-13)
(1.01527 0.000863815 1.53028e-13)
(1.01502 0.000411482 1.86884e-13)
(1.01498 9.51452e-05 2.24515e-13)
(1.01508 -8.66815e-05 2.63095e-13)
(1.01524 -0.000146666 2.99834e-13)
(1.01538 -0.00010521 3.32164e-13)
(1.01545 1.26818e-05 3.58024e-13)
(1.01542 0.000180212 3.76171e-13)
(1.01527 0.000371288 3.86393e-13)
(1.01498 0.000562644 3.8943e-13)
(1.01458 0.00073543 3.8674e-13)
(1.01409 0.000876186 3.8019e-13)
(1.01352 0.000977155 3.71748e-13)
(1.0129 0.00103598 3.63208e-13)
(1.01227 0.0010549 3.56016e-13)
(1.01164 0.00103964 3.51172e-13)
(1.01103 0.000998132 3.49211e-13)
(1.01046 0.000939247 3.50254e-13)
(1.00994 0.000871744 3.54081e-13)
(1.00945 0.000803407 3.60234e-13)
(1.00901 0.000740487 3.6811e-13)
(1.00861 0.000687416 3.77054e-13)
(1.00823 0.000646772 3.86438e-13)
(1.00788 0.000619432 3.95719e-13)
(1.00753 0.000604852 4.04489e-13)
(1.00719 0.000601426 4.12496e-13)
(1.00684 0.000606858 4.19654e-13)
(1.00649 0.00061852 4.26039e-13)
(1.00612 0.000633759 4.31862e-13)
(1.00574 0.000650144 4.37442e-13)
(1.00536 0.000665632 4.4316e-13)
(1.00496 0.000678691 4.49405e-13)
(1.00456 0.000688294 4.56522e-13)
(1.00415 0.000693978 4.64758e-13)
(1.00374 0.000695639 4.7422e-13)
(1.00333 0.000693687 4.8484e-13)
(1.00292 0.000688486 4.96364e-13)
(1.00251 0.000681011 5.08365e-13)
(1.00211 0.000671436 5.20276e-13)
(1.00172 0.000661151 5.31451e-13)
(1.00132 0.000649433 5.41251e-13)
(1.00095 0.000638054 5.491e-13)
(1.00055 0.00062548 5.54731e-13)
(1.00022 0.000611939 5.57819e-13)
(0.999781 0.000600394 5.59624e-13)
(0.999563 0.000578673 5.58412e-13)
(0.998967 0.000565785 5.6265e-13)
(1.00013 -0.00241686 -1.92683e-18)
(1.00197 -0.00727085 -7.44918e-18)
(1.00615 -0.0123649 -6.41295e-18)
(1.01257 -0.0177766 -9.3199e-18)
(1.02159 -0.0235065 -2.43242e-18)
(1.03349 -0.0293417 -2.48353e-17)
(1.04848 -0.0348705 1.03607e-17)
(1.06645 -0.0392146 5.67747e-17)
(1.08672 -0.0414292 -2.73255e-16)
(1.10794 -0.0403527 -1.25926e-16)
(1.12753 -0.0354443 1.24113e-15)
(1.14331 -0.0280731 2.43607e-15)
(1.15446 -0.0194377 1.45647e-15)
(1.16053 -0.010894 -2.13964e-15)
(1.16202 -0.00408762 -7.34231e-15)
(1.16054 -0.00023684 -1.28445e-14)
(1.15839 0.00038916 -1.74251e-14)
(1.15774 -0.00118891 -1.93542e-14)
(1.15969 -0.00283034 -1.67505e-14)
(1.16368 -0.00187741 -9.96252e-15)
(1.16704 0.00381025 -3.0025e-15)
(1.16587 0.0143643 1.30719e-15)
(1.15708 0.0274724 2.92146e-15)
(1.14001 0.0396427 2.81348e-15)
(1.11644 0.0478774 1.83829e-15)
(1.0895 0.0504609 9.81403e-16)
(1.06264 0.0468493 2.9109e-15)
(1.03909 0.0372123 -3.08649e-15)
(1.02181 0.0221085 -2.76961e-14)
(1.01357 0.00247004 1.81475e-13)
(1.01699 -0.0199978 6.87536e-13)
(1.03396 -0.0419462 -1.9657e-12)
(1.06401 -0.0579472 -1.23065e-11)
(1.10215 -0.0618521 -2.33522e-11)
(1.1388 -0.050185 -2.25438e-11)
(1.1632 -0.0252476 -1.23608e-11)
(1.16872 0.00544712 -3.89316e-12)
(1.15545 0.0333985 -3.97985e-13)
(1.12861 0.0531815 2.62845e-13)
(1.09477 0.0633952 7.86297e-14)
(1.05925 0.0650507 9.03642e-14)
(1.02558 0.0596467 8.93165e-13)
(0.996246 0.0480277 -6.97802e-13)
(0.973753 0.0301014 -1.22119e-11)
(0.96114 0.00538344 -1.10408e-11)
(0.961439 -0.0256559 1.19463e-10)
(0.977048 -0.0598788 5.43663e-10)
(1.01004 -0.0906496 1.2558e-09)
(1.06075 -0.108377 1.9782e-09)
(1.12334 -0.103541 2.32988e-09)
(1.18314 -0.0728733 2.08375e-09)
(1.22103 -0.0243142 1.37678e-09)
(1.22466 0.0261748 6.31737e-10)
(1.19663 0.0640699 1.57636e-10)
(1.15043 0.083315 -2.15357e-11)
(1.10036 0.0859367 -3.98028e-11)
(1.0553 0.0771223 -2.47503e-11)
(1.01867 0.0611236 -2.48154e-11)
(0.991064 0.0398523 1.60098e-11)
(0.973175 0.013024 2.32833e-10)
(0.969044 -0.0208177 6.9805e-10)
(0.986306 -0.0614327 1.2791e-09)
(1.03029 -0.103424 1.736e-09)
(1.0975 -0.136297 1.95533e-09)
(1.17581 -0.149316 2.00918e-09)
(1.24976 -0.136968 2.04581e-09)
(1.30557 -0.101004 2.19335e-09)
(1.33464 -0.048675 2.46385e-09)
(1.33521 0.0104583 2.64033e-09)
(1.31059 0.0657155 2.40473e-09)
(1.26642 0.105834 1.70516e-09)
(1.21051 0.122518 8.50984e-10)
(1.15304 0.115019 2.07009e-10)
(1.10399 0.0902798 -9.24605e-11)
(1.06972 0.0580256 -1.38485e-10)
(1.05205 0.0257046 -8.1221e-11)
(1.04981 -0.00295851 -7.78959e-12)
(1.06051 -0.026356 7.43389e-11)
(1.08114 -0.0430178 1.85217e-10)
(1.10829 -0.0509531 3.13497e-10)
(1.13774 -0.0484061 4.06418e-10)
(1.16391 -0.0353659 4.137e-10)
(1.18072 -0.0146429 3.34731e-10)
(1.18395 0.00864492 2.16351e-10)
(1.17333 0.0290274 1.09313e-10)
(1.15232 0.0427639 3.92017e-11)
(1.12619 0.04881 5.46246e-12)
(1.09974 0.048312 -5.00419e-12)
(1.07612 0.0433996 -5.16842e-12)
(1.0568 0.0361578 -2.79332e-12)
(1.04208 0.0281354 -9.25768e-13)
(1.03165 0.0202943 -6.24872e-14)
(1.025 0.0131634 1.56353e-13)
(1.02155 0.00701397 1.41347e-13)
(1.02072 0.00198416 1.35149e-13)
(1.02191 -0.00184996 2.3221e-13)
(1.02454 -0.00444558 4.4408e-13)
(1.02799 -0.00579941 7.39622e-13)
(1.03164 -0.00597382 1.0639e-12)
(1.03493 -0.00512236 1.35218e-12)
(1.03738 -0.00349478 1.5462e-12)
(1.0387 -0.00141207 1.60976e-12)
(1.03876 0.000782712 1.5386e-12)
(1.03764 0.00278133 1.36315e-12)
(1.03557 0.00435649 1.13278e-12)
(1.03286 0.00538371 8.9555e-13)
(1.02983 0.00583818 6.86443e-13)
(1.0268 0.00577435 5.24455e-13)
(1.02401 0.00529815 4.15395e-13)
(1.02161 0.00453959 3.56795e-13)
(1.01971 0.00363037 3.42342e-13)
(1.01832 0.00268801 3.64718e-13)
(1.01742 0.00180642 4.16792e-13)
(1.01693 0.00105208 4.91662e-13)
(1.01676 0.000464401 5.82218e-13)
(1.01682 5.89612e-05 6.80828e-13)
(1.01701 -0.000167923 7.79609e-13)
(1.01723 -0.000234317 8.71012e-13)
(1.01743 -0.000168113 9.48378e-13)
(1.01753 -2.94098e-06 1.00668e-12)
(1.01751 0.000225471 1.04328e-12)
(1.01736 0.000482547 1.05836e-12)
(1.01706 0.000737639 1.0546e-12)
(1.01663 0.000966098 1.03639e-12)
(1.0161 0.00115053 1.009e-12)
(1.0155 0.00128116 9.77694e-13)
(1.01485 0.00135539 9.47087e-13)
(1.01418 0.00137668 9.20734e-13)
(1.01353 0.00135302 9.0095e-13)
(1.0129 0.00129523 8.88844e-13)
(1.01232 0.00121524 8.84473e-13)
(1.01179 0.00112473 8.87082e-13)
(1.01131 0.00103397 8.95366e-13)
(1.01087 0.000951128 9.07722e-13)
(1.01046 0.000881902 9.22479e-13)
(1.01009 0.00082952 9.38085e-13)
(1.00974 0.000794957 9.53256e-13)
(1.00939 0.000777324 9.67069e-13)
(1.00905 0.000774361 9.79008e-13)
(1.0087 0.000782933 9.88975e-13)
(1.00834 0.000799505 9.97245e-13)
(1.00797 0.000820544 1.0044e-12)
(1.00758 0.000842845 1.01126e-12)
(1.00719 0.000863738 1.01872e-12)
(1.00678 0.000881245 1.02768e-12)
(1.00636 0.000894069 1.03892e-12)
(1.00594 0.000901657 1.05295e-12)
(1.00552 0.000903929 1.06998e-12)
(1.00509 0.00090148 1.08979e-12)
(1.00467 0.00089483 1.11176e-12)
(1.00425 0.000885312 1.1349e-12)
(1.00384 0.000873138 1.15789e-12)
(1.00343 0.00086026 1.17925e-12)
(1.00303 0.000845491 1.19752e-12)
(1.00264 0.000831701 1.21139e-12)
(1.00222 0.00081577 1.22023e-12)
(1.00188 0.000800194 1.22335e-12)
(1.00142 0.000784699 1.22326e-12)
(1.00119 0.000760518 1.21719e-12)
(1.00056 0.000741426 1.21926e-12)
(1.00012 -0.00291328 2.28243e-18)
(1.00187 -0.0087714 8.26641e-18)
(1.00586 -0.0149596 6.33836e-18)
(1.01207 -0.0216016 9.93157e-18)
(1.02093 -0.0287317 1.99381e-17)
(1.03286 -0.0361212 -6.68941e-17)
(1.04826 -0.0432822 3.43295e-16)
(1.0672 -0.0490656 -7.01088e-16)
(1.08906 -0.0522208 -4.59972e-16)
(1.11241 -0.0509965 4.51982e-15)
(1.13388 -0.0445781 4.80975e-15)
(1.15079 -0.0349794 -9.09706e-15)
(1.16234 -0.0237425 -3.31796e-14)
(1.16795 -0.0126115 -5.52343e-14)
(1.16811 -0.00382606 -6.64055e-14)
(1.16486 0.00091539 -6.36604e-14)
(1.16112 0.00118888 -4.43524e-14)
(1.15977 -0.00165476 -6.42812e-15)
(1.16242 -0.00471973 4.22205e-14)
(1.16851 -0.00429263 7.8305e-14)
(1.17464 0.00273533 8.58524e-14)
(1.17559 0.0166244 7.36569e-14)
(1.16721 0.0341093 5.58539e-14)
(1.14865 0.0503124 4.03614e-14)
(1.12224 0.0612113 2.83472e-14)
(1.09187 0.0646805 2.47791e-14)
(1.06152 0.0601924 2.73973e-14)
(1.03475 0.0480723 -4.24992e-14)
(1.01472 0.0289952 4.60821e-14)
(1.00449 0.00393253 1.3505e-12)
(1.00733 -0.0252737 1.74405e-13)
(1.02638 -0.054516 -1.9576e-11)
(1.06218 -0.0764584 -6.54787e-11)
(1.10887 -0.082307 -1.11117e-10)
(1.15379 -0.0668837 -1.15416e-10)
(1.18309 -0.033329 -7.45582e-11)
(1.1888 0.00771544 -2.98577e-11)
(1.17184 0.0443859 -5.80395e-12)
(1.13951 0.0695205 1.32984e-12)
(1.10024 0.0818294 1.36122e-12)
(1.06016 0.0832773 1.28684e-12)
(1.02274 0.0761956 1.89848e-12)
(0.990179 0.0617029 -9.03063e-12)
(0.964691 0.0395676 -3.19415e-11)
(0.948335 0.00931635 4.61084e-11)
(0.942405 -0.0283306 4.83948e-10)
(0.949858 -0.0704413 1.40843e-09)
(0.97704 -0.11054 2.54742e-09)
(1.02779 -0.13716 3.48273e-09)
(1.09626 -0.13644 3.97325e-09)
(1.16686 -0.100779 3.83931e-09)
(1.2186 -0.0377506 2.97206e-09)
(1.23348 0.0310626 1.69508e-09)
(1.20872 0.0833282 6.16208e-10)
(1.15835 0.108998 5.49058e-11)
(1.10137 0.111259 -9.2232e-11)
(1.05053 0.0986333 -7.97671e-11)
(1.0099 0.078009 -4.28546e-11)
(0.978673 0.0520806 8.9341e-11)
(0.957334 0.0192299 4.61262e-10)
(0.952701 -0.0242655 1.03606e-09)
(0.975021 -0.0782175 1.5482e-09)
(1.02785 -0.1335 1.78553e-09)
(1.10309 -0.174754 1.78898e-09)
(1.18566 -0.188602 1.73246e-09)
(1.26013 -0.169642 1.74354e-09)
(1.31392 -0.121535 1.88545e-09)
(1.33895 -0.0545924 2.18872e-09)
(1.33342 0.0183431 2.53426e-09)
(1.30202 0.0844693 2.57492e-09)
(1.25289 0.131693 2.06101e-09)
(1.19486 0.151118 1.18177e-09)
(1.13722 0.141654 3.80114e-10)
(1.08874 0.11105 -6.70557e-11)
(1.05526 0.070879 -1.82855e-10)
(1.03861 0.0304331 -1.21358e-10)
(1.03724 -0.00539581 2.11652e-11)
(1.04788 -0.0344808 2.42155e-10)
(1.0673 -0.0552358 5.45358e-10)
(1.09336 -0.0655646 8.65896e-10)