/*--------------------------------*- C++ -*----------------------------------*\
  =========                 |
  \\      /  F ield         | OpenFOAM: The Open Source CFD Toolbox
   \\    /   O peration     | Website:  https://openfoam.org
    \\  /    A nd           | Version:  11
     \\/     M anipulation  |
\*---------------------------------------------------------------------------*/
FoamFile
{
    format      ascii;
    class       surfaceScalarField;
    location    "14.264432";
    object      phi_0;
}
// * * * * * * * * * * * * * * * * * * * * * * * * * * * * * * * * * * * * * //

dimensions      [0 3 -1 0 0 0 0];

internalField   nonuniform List<scalar> 
14638
(
0.00250216
-2.15685e-06
0.00250889
-6.7283e-06
0.00252074
-1.18508e-05
0.00253829
-1.75588e-05
0.00256201
-2.37172e-05
0.00259189
-2.98828e-05
0.00262727
-3.53798e-05
0.00266639
-3.91112e-05
0.00270636
-3.9974e-05
0.0027432
-3.68442e-05
0.00277243
-2.92241e-05
0.00279039
-1.79638e-05
0.00279479
-4.39887e-06
0.0027849
9.89571e-06
0.00276221
2.26852e-05
0.00273079
3.14197e-05
0.00269658
3.42131e-05
0.00266618
3.03939e-05
0.00264558
2.06057e-05
0.00263881
6.77161e-06
0.00264692
-8.11312e-06
0.00266711
-2.01879e-05
0.00269259
-2.54801e-05
0.00271413
-2.15426e-05
0.00272322
-9.09529e-06
0.00271514
8.08666e-06
0.00269002
2.51227e-05
0.0026519
3.81132e-05
0.00260699
4.49105e-05
0.00256223
4.47624e-05
0.00252456
3.7671e-05
0.00250052
2.40351e-05
0.00249572
4.80341e-06
0.00251363
-1.79094e-05
0.00255362
-3.99902e-05
0.00260906
-5.54456e-05
0.00266757
-5.85032e-05
0.00271445
-4.68826e-05
0.00273812
-2.3671e-05
0.00273403
4.09271e-06
0.00270506
2.89675e-05
0.00265897
4.60888e-05
0.00260517
5.3806e-05
0.00255266
5.25047e-05
0.00250953
4.31356e-05
0.00248305
2.64767e-05
0.00247957
3.475e-06
0.00250311
-2.35369e-05
0.00255271
-4.95968e-05
0.0026202
-6.74907e-05
0.00269071
-7.05095e-05
0.00274691
-5.6198e-05
0.0027752
-2.82961e-05
0.00277037
4.83541e-06
0.0027362
3.41669e-05
0.00268255
5.36471e-05
0.00262115
6.14061e-05
0.00256263
5.85152e-05
0.0025157
4.69295e-05
0.00248753
2.8173e-05
0.00248401
3.51729e-06
0.00250863
-2.46144e-05
0.00255996
-5.13378e-05
0.00262971
-6.97501e-05
0.00270319
-7.3471e-05
0.00276309
-5.99091e-05
0.00279517
-3.20733e-05
0.00279279
2.37912e-06
0.00275852
3.42647e-05
0.00270211
5.64115e-05
0.00263639
6.57223e-05
0.00257352
6.28746e-05
0.00252315
5.0367e-05
0.00249258
3.05719e-05
0.00248728
5.30058e-06
0.00251022
-2.29468e-05
0.00255983
-4.96088e-05
0.00262825
-6.84197e-05
0.00270194
-7.36867e-05
0.00276492
-6.29838e-05
0.00280338
-3.84581e-05
0.00280948
-6.10032e-06
0.00278314
2.63359e-05
0.00273139
5.17579e-05
0.00266574
6.56497e-05
0.00259893
6.68047e-05
0.00254231
5.66269e-05
0.00250476
3.75497e-05
0.00249275
1.20096e-05
0.00250981
-1.70593e-05
0.00255493
-4.51224e-05
0.00262113
-6.62062e-05
0.00269596
-7.48232e-05
0.00276434
-6.83811e-05
0.00281271
-4.8369e-05
0.00283237
-1.96658e-05
0.00282102
1.13562e-05
0.00278226
3.8758e-05
0.00272403
5.8234e-05
0.00265661
6.74127e-05
0.00259098
6.56318e-05
0.00253752
5.34628e-05
0.00250524
3.22802e-05
0.00250087
4.3628e-06
0.00252732
-2.64451e-05
0.00258185
-5.4534e-05
0.00265557
-7.37177e-05
0.00273499
-7.94146e-05
0.00280545
-7.04661e-05
0.00285499
-4.9533e-05
0.00287699
-2.2003e-05
0.00287107
5.91339e-06
0.00284206
2.90176e-05
0.00279784
4.42196e-05
0.0027473
5.05329e-05
0.00269903
4.82717e-05
0.00266083
3.8205e-05
0.00263946
2.13679e-05
0.00263982
-3.57443e-07
0.00266341
-2.35951e-05
0.00270712
-4.37106e-05
0.00276327
-5.61434e-05
0.00282139
-5.81273e-05
0.00287116
-4.97643e-05
0.00290507
-3.39071e-05
0.00292013
-1.50649e-05
0.00291809
2.04126e-06
0.00290438
1.37066e-05
0.00288645
1.79312e-05
0.00287196
1.44939e-05
0.00286739
4.57057e-06
0.00287723
-9.84442e-06
0.00290364
-2.64056e-05
0.00294626
-4.26226e-05
0.00300215
-5.5892e-05
0.00306577
-6.36212e-05
0.0031294
-6.36295e-05
0.00318415
-5.4748e-05
0.00322148
-3.73291e-05
0.00323488
-1.34025e-05
0.00322124
1.36373e-05
0.00318153
3.97143e-05
0.00312053
6.0996e-05
0.00304579
7.47408e-05
0.00296602
7.9775e-05
0.00288955
7.64681e-05
0.00282324
6.63061e-05
0.00277192
5.13252e-05
0.00273824
3.36792e-05
0.00272285
1.5385e-05
0.0027246
-1.74926e-06
0.00274084
-1.62355e-05
0.00276771
-2.68655e-05
0.00280066
-3.29555e-05
0.00283478
-3.41151e-05
0.0028655
-3.07221e-05
0.00288885
-2.33517e-05
0.00290179
-1.29414e-05
0.00290453
-2.73754e-06
1.57568e-05
0.00250214
-4.29346e-06
0.00250881
-1.3404e-05
0.0025206
-2.36378e-05
0.00253812
-3.50834e-05
0.00256189
-4.74857e-05
0.00259198
-5.99702e-05
0.00262779
-7.11896e-05
0.00266758
-7.89056e-05
0.00270847
-8.08625e-05
0.00274631
-7.46797e-05
0.00277637
-5.92881e-05
0.00279489
-3.64781e-05
0.00279944
-8.95152e-06
0.00278918
2.01587e-05
0.00276556
4.63012e-05
0.00273278
6.42037e-05
0.00269703
6.9963e-05
0.00266523
6.21911e-05
0.00264366
4.2179e-05
0.00263662
1.38056e-05
0.00264537
-1.68636e-05
0.00266708
-4.19004e-05
0.00269462
-5.30106e-05
0.00271808
-4.50053e-05
0.00272833
-1.9351e-05
0.00272037
1.60457e-05
0.00269448
5.10192e-05
0.00265502
7.75739e-05
0.00260849
9.14407e-05
0.00256202
9.12249e-05
0.0025227
7.69927e-05
0.00249725
4.94912e-05
0.00249158
1.04662e-05
0.00250966
-3.59891e-05
0.00255121
-8.15365e-05
0.00260947
-0.000113702
0.00267126
-0.000120297
0.00272081
-9.64364e-05
0.00274571
-4.85711e-05
0.00274126
8.54799e-06
0.00271077
5.94539e-05
0.00266263
9.42334e-05
0.00260668
0.000109759
0.00255211
0.000107067
0.00250706
8.81905e-05
0.00247895
5.45854e-05
0.00247454
7.8799e-06
0.00249846
-4.74486e-05
0.00255013
-0.00010127
0.00262114
-0.000138502
0.00269561
-0.000144975
0.00275488
-0.000115472
0.00278445
-5.78639e-05
0.00277895
1.03362e-05
0.00274273
7.03829e-05
0.00268647
0.000109912
0.0026225
0.000125372
0.00256173
0.00011929
0.0025128
9.5852e-05
0.00248286
5.81142e-05
0.002478
8.38311e-06
0.00250214
-4.87562e-05
0.00255435
-0.000103551
0.00262645
-0.000141848
0.00270328
-0.000150299
0.0027666
-0.00012323
0.0028011
-6.65759e-05
0.00279952
3.95681e-06
0.00276442
6.9368e-05
0.00270604
0.000114789
0.0026379
0.000133866
0.00257261
0.000128158
0.00252001
0.000102968
0.00248745
6.3135e-05
0.00248067
1.20796e-05
0.00250315
-4.54208e-05
0.00255365
-0.000100109
0.00262416
-0.000138938
0.00270048
-0.000150005
0.00276583
-0.000128334
0.00280587
-7.84956e-05
0.00281262
-1.28472e-05
0.00278609
5.28667e-05
0.00273347
0.000104371
0.00266649
0.000132631
0.00259804
0.000135253
0.00253965
0.000115018
0.00250055
7.66459e-05
0.00248777
2.47985e-05
0.0025054
-3.46901e-05
0.00255264
-9.23657e-05
0.00262203
-0.000135599
0.00270009
-0.000152878
0.0027707
-0.000138989
0.00281971
-9.73816e-05
0.00283852
-3.84784e-05
0.00282537
2.45075e-05
0.00278454
7.95883e-05
0.00272443
0.000118341
0.00265551
0.000136334
0.00258869
0.000132447
0.00253439
0.000107767
0.00250189
6.4783e-05
0.0024984
7.84747e-06
0.00252715
-5.51964e-05
0.0025852
-0.000112583
0.00266284
-0.000151351
0.00274552
-0.000162097
0.00281776
-0.000142705
0.00286721
-9.89829e-05
0.00288744
-4.22366e-05
0.00287862
1.47358e-05
0.00284625
6.1384e-05
0.0027989
9.15756e-05
0.0027459
0.00010353
0.00269608
9.80865e-05
0.00265742
7.68738e-05
0.00263685
4.19333e-05
0.00263945
-2.9564e-06
0.00266665
-5.07959e-05
0.00271479
-9.18551e-05
0.00277527
-0.000116618
0.00283664
-0.000119495
0.00288788
-0.000101003
0.00292131
-6.73463e-05
0.00293425
-2.80033e-05
0.00292897
7.31958e-06
0.00291152
3.11647e-05
0.00288982
3.96255e-05
0.0028719
3.24151e-05
0.00286445
1.20208e-05
0.00287212
-1.75127e-05
0.00289723
-5.15142e-05
0.00293963
-8.50269e-05
0.00299652
-0.000112777
0.00306228
-0.00012938
0.00312885
-0.000130206
0.00318681
-0.000112709
0.00322703
-7.75459e-05
0.00324254
-2.8907e-05
0.00322997
2.62056e-05
0.00319026
7.94243e-05
0.00312836
0.000122892
0.00305211
0.000150995
0.00297054
0.000161346
0.00289228
0.000154729
0.00282437
0.000134208
0.00277174
0.000103958
0.00273705
6.83672e-05
0.00272093
3.15068e-05
0.00272219
-3.00838e-06
0.00273817
-3.22127e-05
0.00276499
-5.36919e-05
0.00279809
-6.60517e-05
0.00283246
-6.84856e-05
0.00286345
-6.1713e-05
0.00288698
-4.6884e-05
0.00289995
-2.59062e-05
0.00290252
-5.30917e-06
3.18272e-05
0.0025021
-6.38907e-06
0.00250866
-1.99697e-05
0.00252032
-3.52933e-05
0.00253777
-5.25332e-05
0.00256163
-7.13483e-05
0.00259212
-9.04585e-05
0.00262878
-0.000107854
0.00266995
-0.000120069
0.00271268
-0.000123596
0.00275251
-0.000114511
0.00278424
-9.10206e-05
0.00280382
-5.6059e-05
0.00280864
-1.37676e-05
0.00279759
3.12037e-05
0.00277207
7.18232e-05
0.00273654
9.97383e-05
0.00269774
0.000108764
0.00266321
9.67157e-05
0.00263985
6.55454e-05
0.00263248
2.11705e-05
0.00264272
-2.71067e-05
0.00266769
-6.68645e-05
0.00269944
-8.47633e-05
0.0027267
-7.22636e-05
0.00273902
-3.16712e-05
0.0027309
2.41682e-05
0.002703
7.89188e-05
0.00266048
0.000120093
0.00261051
0.000141405
0.00256065
0.000141088
0.00251821
0.000119433
0.00249025
7.74547e-05
0.00248331
1.74069e-05
0.00250223
-5.49138e-05
0.00254741
-0.00012672
0.00261174
-0.000178027
0.00268032
-0.000188879
0.00273504
-0.000151158
0.00276184
-7.53662e-05
0.00275586
1.45302e-05
0.00272154
9.37743e-05
0.0026687
0.000147069
0.00260819
0.000170268
0.00254957
0.000165691
0.00250099
0.000136763
0.0024701
8.548e-05
0.00246425
1.37281e-05
0.00248899
-7.21891e-05
0.00254451
-0.000156788
0.00262222
-0.000216217
0.00270466
-0.000227412
0.0027705
-0.000181308
0.00280288
-9.02498e-05
0.00279585
1.73699e-05
0.00275496
0.000111269
0.00269287
0.000172007
0.00262346
0.000194783
0.0025582
0.000184548
0.00250558
0.000148471
0.00247244
9.12535e-05
0.00246508
1.57474e-05
0.00248828
-7.19591e-05
0.00254211
-0.000157381
0.00261863
-0.000218366
0.00270174
-0.00023341
0.00277142
-0.000192914
0.0028105
-0.000105652
0.00281048
3.97678e-06
0.00277381
0.000106041
0.00271165
0.000176944
0.00263884
0.000206678
0.00256899
0.000198006
0.00251236
0.000159598
0.0024766
9.88994e-05
0.00246813
2.05471e-05
0.00249138
-6.86717e-05
0.00254548
-0.000154207
0.00262149
-0.000214951
0.00270334
-0.000231851
0.00277251
-0.000197508
0.00281393
-0.000119912
0.0028199
-1.88151e-05
0.00279119
8.15741e-05
0.00273571
0.000159852
0.0026656
0.000202735
0.00259401
0.000206848
0.00253274
0.000176287
0.00249169
0.000117696
0.00247892
3.75681e-05
0.00249943
-5.51994e-05
0.00255231
-0.000145248
0.00262873
-0.000212019
0.00271312
-0.000237264
0.0027875
-0.000213371
0.00283682
-0.000146702
0.00285275
-5.44061e-05
0.00283471
4.25426e-05
0.0027885
0.000125798
0.00272369
0.000183155
0.00265123
0.00020879
0.00258208
0.000201605
0.00252668
0.000163163
0.00249481
9.6652e-05
0.00249435
8.30888e-06
0.00252865
-8.94987e-05
0.00259388
-0.000177811
0.00267864
-0.000236107
0.00276666
-0.000250123
0.00284132
-0.000217365
0.0028899
-0.00014756
0.0029063
-5.86436e-05
0.0028916
2.94403e-05
0.00285253
0.000100451
0.0027989
0.000145206
0.00274101
0.000161426
0.00268826
0.000150834
0.00264904
0.000116095
0.00263069
6.02817e-05
0.00263844
-1.07093e-05
0.00267322
-8.55698e-05
0.00272994
-0.000148582
0.0027981
-0.000184773
0.00286456
-0.00018596
0.00291742
-0.000153863
0.00294902
-9.89392e-05
0.00295732
-3.63096e-05
0.00294564
1.90004e-05
0.00292107
5.57382e-05
0.00289243
6.82604e-05
0.00286836
5.64884e-05
0.00285593
2.44502e-05
0.00286011
-2.16911e-05
0.00288359
-7.49977e-05
0.00292661
-0.000128043
0.00298645
-0.000172622
0.00305712
-0.000200048
0.00312965
-0.000202736
0.00319347
-0.000176525
0.00323842
-0.000122502
0.0032569
-4.73818e-05
0.00324529
3.78093e-05
0.00320466
0.000120053
0.00314038
0.000187178
0.00306085
0.000230526
0.00297573
0.000246467
0.00289415
0.000236302
0.0028235
0.00020486
0.00276881
0.000158651
0.00273273
0.000104444
0.0027158
4.84398e-05
0.00271673
-3.93595e-06
0.00273278
-4.82623e-05
0.00276
-8.09166e-05
0.00279371
-9.97659e-05
0.00282874
-0.000103513
0.00286026
-9.32286e-05
0.00288392
-7.05453e-05
0.00289666
-3.86522e-05
0.00289832
-6.96378e-06
4.88146e-05
0.00250203
-8.41928e-06
0.00250842
-2.63582e-05
0.00251986
-4.67297e-05
0.00253716
-6.98388e-05
0.00256113
-9.5313e-05
0.00259218
-0.000121511
0.00263011
-0.000145783
0.00267335
-0.000163312
0.00271894
-0.000169186
0.00276188
-0.000157453
0.00279621
-0.000125352
0.00281748
-7.73289e-05
0.00282277
-1.90547e-05
0.00281056
4.3414e-05
0.00278208
0.000100302
0.00274225
0.000139575
0.00269867
0.000152338
0.00265989
0.000135502
0.0026337
9.17327e-05
0.00262577
2.91005e-05
0.00263831
-3.96487e-05
0.0026684
-9.69498e-05
0.00270685
-0.000123221
0.00274013
-0.000105537
0.00275564
-4.71884e-05
0.00274713
3.26856e-05
0.00271593
0.000110111
0.00266855
0.000167482
0.00261324
0.000196709
0.00255819
0.000196144
0.00251102
0.000166596
0.00247923
0.000109243
0.00247032
2.63247e-05
0.00249063
-7.52315e-05
0.00254179
-0.000177875
0.00261603
-0.000252266
0.00269547
-0.000268321
0.00275813
-0.000213813
0.00278742
-0.000104664
0.00277851
2.34433e-05
0.00273776
0.000134526
0.00267737
0.000207457
0.00260977
0.000237868
0.00254504
0.000230424
0.00249126
0.000190542
0.00245599
0.000120749
0.00244695
2.2766e-05
0.00247072
-9.5961e-05
0.00252909
-0.000215153
0.00261455
-0.000301679
0.00270858
-0.000321436
0.00278612
-0.000258853
0.00282575
-0.000129881
0.00281901
2.41094e-05
0.00277246
0.000157818
0.0027019
0.000242563
0.00262418
0.000272507
0.00255205
0.000256683
0.00249374
0.000206776
0.00245556
0.000129437
0.00244426
2.70403e-05
0.00246636
-9.40578e-05
0.00252342
-0.000214442
0.00260714
-0.000302085
0.00269919
-0.000325453
0.00277692
-0.000270649
0.00282135
-0.000150084
0.00282309
2.23871e-06
0.0027845
0.000144628
0.0027176
0.000243843
0.00263864
0.000285643
0.00256252
0.000274128
0.00250033
0.000221783
0.00246061
0.000138626
0.00245116
2.99881e-05
0.00247771
-9.52194e-05
0.00253916
-0.000215656
0.0026244
-0.000300194
0.00271428
-0.000321731
0.00278791
-0.000271138
0.00282949
-0.000161486
0.0028322
-2.15308e-05
0.00279846
0.000115318
0.00273757
0.000220742
0.00266242
0.000277882
0.00258639
0.000282882
0.00252161
0.000241069
0.0024789
0.000160399
0.0024677
4.87723e-05
0.00249376
-8.12566e-05
0.00255534
-0.000206827
0.00264132
-0.000298006
0.00273356
-0.000329501
0.00281219
-0.000291997
0.00286133
-0.000195841
0.00287295
-6.60267e-05
0.00284779
6.77029e-05
0.00279354
0.000180048
0.0027215
0.000255194
0.0026436
0.00028669
0.00257106
0.000274141
0.00251458
0.000219644
0.00248449
0.000126742
0.00248917
3.63003e-06
0.0025315
-0.000131831
0.00260593
-0.000252236
0.00269882
-0.000328998
0.0027922
-0.000343502
0.00286866
-0.000293822
0.00291546
-0.000194368
0.00292697
-7.01469e-05
0.00290503
5.13737e-05
0.00285763
0.000147855
0.00279598
0.000206851
0.00273169
0.000225717
0.00267517
0.000207353
0.00263561
0.000155657
0.00262097
7.49216e-05
0.00263646
-2.61986e-05
0.00268176
-0.000130868
0.00274941
-0.000216228
0.00282624
-0.00026161
0.00289735
-0.000257062
0.00295027
-0.000206791
0.00297791
-0.000126575
0.00297934
-3.77348e-05
0.00295909
3.92457e-05
0.00292543
8.93999e-05
0.00288812
0.000105565
0.00285647
8.81392e-05
0.00283807
4.28543e-05
0.00283844
-2.20593e-05
0.00286095
-9.75086e-05
0.0029063
-0.000173394
0.00297156
-0.000237887
0.00304966
-0.00027814
0.00313005
-0.000283132
0.00320076
-0.000247228
0.00325072
-0.000172464
0.00327194
-6.86054e-05
0.00326081
4.89422e-05
0.0032186
0.000162258
0.00315115
0.000254633
0.0030675
0.000314178
0.002978
0.000335962
0.00289241
0.000321894
0.00281849
0.000278773
0.00276146
0.000215684
0.00272394
0.000141967
0.00270634
6.60418e-05
0.00270725
-4.85129e-06
0.00272384
-6.48507e-05
0.00275201
-0.000109088
0.00278687
-0.000134625
0.00282294
-0.000139584
0.00285515
-0.00012544
0.00287883
-9.42186e-05
0.00289105
-5.08718e-05
0.0028911
-7.01506e-06
6.72634e-05
0.00250194
-1.03549e-05
0.00250806
-3.24876e-05
0.00251917
-5.78322e-05
0.00253622
-8.68909e-05
0.00256024
-0.000119336
0.00259197
-0.000153242
0.00263155
-0.000185362
0.00267761
-0.00020937
0.00272718
-0.000218754
0.00277448
-0.000204759
0.00281243
-0.000163294
0.00283604
-0.000100941
0.00284203
-2.50448e-05
0.00282828
5.71661e-05
0.00279573
0.000132845
0.00274992
0.000185394
0.00269967
0.000202583
0.00265488
0.000180292
0.00262465
0.000121961
0.00261581
3.79392e-05
0.00263152
-5.53579e-05
0.0026689
-0.000134331
0.00271704
-0.000171356
0.002759
-0.000147497
0.00277903
-6.7224e-05
0.00276978
4.1935e-05
0.00273376
0.000146139
0.00267945
0.00022179
0.00261674
0.000259419
0.00255458
0.000258305
0.00250092
0.000220258
0.00246372
0.000146441
0.00245184
3.8206e-05
0.00247395
-9.73409e-05
0.00253354
-0.000237464
0.00262212
-0.000340846
0.00271748
-0.000363684
0.00279163
-0.000287965
0.00282411
-0.000137149
0.00281035
3.72106e-05
0.00275993
0.000184947
0.0026887
0.000278681
0.00261134
0.000315234
0.00253846
0.000303303
0.00247762
0.000251376
0.00243555
0.000162821
0.00241982
3.84966e-05
0.00243879
-0.000114925
0.00249757
-0.000273939
0.00259092
-0.000395025
0.00269917
-0.000429684
0.00279302
-0.000352708
0.00284538
-0.000182237
0.00284334
2.61482e-05
0.00279286
0.000208297
0.00271297
0.000322454
0.00262473
0.000360749
0.0025433
0.000338106
0.0024771
0.000272983
0.00243218
0.000174354
0.00241677
4.24558e-05
0.00243999
-0.00011728
0.00250442
-0.000278877
0.00259947
-0.000397126
0.00270266
-0.000428644
0.00278813
-0.000356127
0.00283589
-0.000197843
0.00283709
1.0473e-06
0.00279492
0.00018679
0.00272224
0.000316528
0.00263624
0.000371646
0.00255285
0.000357514
0.0024843
0.000290328
0.00244078
0.000182152
0.00243214
3.86312e-05
0.00246505
-0.000128135
0.002537
-0.000287601
0.00263357
-0.000396769
0.00273228
-0.000420439
0.0028101
-0.000348961
0.00285067
-0.000202058
0.00284814
-1.8997e-05
0.00280688
0.000156576
0.00273823
0.000289391
0.00265628
0.00035983
0.00257482
0.000364345
0.00250641
0.000309478
0.00246297
0.000203844
0.00245518
5.65548e-05
0.00248893
-0.000114997
0.00256064
-0.000278544
0.00265642
-0.00039378
0.00275577
-0.000428859
0.0028377
-0.000373928
0.00288606
-0.000244199
0.00289306
-7.30246e-05
0.00286031
0.000100453
0.00279712
0.00024324
0.00271663
0.000335678
0.00263216
0.000371165
0.00255566
0.000350643
0.00249838
0.000276923
0.00247125
0.00015387
0.00248268
-7.79504e-06
0.00253422
-0.000183378
0.00261792
-0.000335936
0.00271785
-0.000428924
0.00281482
-0.000440473
0.00289139
-0.000370387
0.00293534
-0.000238325
0.00294159
-7.63984e-05
0.00291254
8.04239e-05
0.00285697
0.000203428
0.00278728
0.000276536
0.00271645
0.000296551
0.00265624
0.000267565
0.00261709
0.000194809
0.00260776
8.4245e-05
0.00263305
-5.14843e-05
0.00269043
-0.00018825
0.00276915
-0.000294946
0.00285316
-0.000345626
0.00292623
-0.000330132
0.00297622
-0.00025678
0.00299727
-0.000147617
0.00298989
-3.03584e-05
0.0029599
6.92375e-05
0.00291654
0.00013276
0.00287031
0.00015179
0.00283108
0.000127369
0.00280706
6.68764e-05
0.00280464
-1.96363e-05
0.00282805
-0.000120922
0.00287813
-0.000223471
0.00295083
-0.00031059
0.00303712
-0.000364428
0.00312469
-0.000370702
0.00320066
-0.000323195
0.00325393
-0.000225738
0.00327679
-9.14679e-05
0.00326583
5.99085e-05
0.00322241
0.000205673
0.00315253
0.000324518
0.00306557
0.000401135
0.00297242
0.000429108
0.0028834
0.000410916
0.00280671
0.000355461
0.00274778
0.000274623
0.00270924
0.000180504
0.00269145
8.38331e-05
0.00269291
-6.31234e-06
0.00271064
-8.2582e-05
0.0027403
-0.000138748
0.00277665
-0.000170977
0.00281384
-0.000176774
0.00284658
-0.000158178
0.00286991
-0.000117553
0.00288122
-6.21736e-05
0.00287912
-4.92304e-06
8.74959e-05
0.00250181
-1.21606e-05
0.00250757
-3.82567e-05
0.00251819
-6.84502e-05
0.00253483
-0.000103525
0.00255879
-0.000143301
0.00259124
-0.000185691
0.00263281
-0.00022693
0.00268245
-0.000259015
0.00273729
-0.000273595
0.00279045
-0.000257909
0.0028332
-0.000206053
0.00286004
-0.000127775
0.00286717
-3.21754e-05
0.00285151
7.28201e-05
0.00281356
0.000170803
0.00275967
0.000239275
0.00270045
0.000261809
0.00264757
0.000233173
0.0026118
0.000157733
0.00260151
4.8229e-05
0.00262128
-7.51346e-05
0.00266855
-0.000181599
0.00273005
-0.00023286
0.00278405
-0.000201488
0.00281021
-9.33857e-05
0.00279973
5.2408e-05
0.00275695
0.00018892
0.00269333
0.000285409
0.00262094
0.00033181
0.00254964
0.000329611
0.00248755
0.000282344
0.00244311
0.000190881
0.00242662
5.46955e-05
0.00244897
-0.000119689
0.00251594
-0.000304436
0.00262032
-0.000445226
0.00273718
-0.000480537
0.00283027
-0.000381058
0.00287066
-0.000177544
0.00285198
5.5893e-05
0.00278864
0.000248282
0.00270275
0.000364573
0.00261268
0.000405308
0.0025296
0.000386379
0.00245957
0.000321403
0.00240748
0.000214913
0.00238138
6.4601e-05
0.00239389
-0.000127437
0.00245499
-0.000335037
0.00255972
-0.000499756
0.00268419
-0.000554155
0.00279438
-0.000462895
0.00285973
-0.000247589
0.00286429
2.1582e-05
0.00281222
0.000260371
0.00272399
0.000410687
0.00262447
0.000460269
0.00253194
0.000430631
0.00245598
0.000348945
0.00240375
0.000226583
0.00238615
6.00532e-05
0.00241473
-0.000145858
0.002491
-0.000355147
0.00260002
-0.000506144
0.00271471
-0.000543337
0.00280648
-0.000447895
0.00285489
-0.000246248
0.0028524
3.5359e-06
0.0028041
0.000235092
0.00272415
0.000396472
0.00263045
0.000465346
0.00253951
0.000448456
0.00246478
0.00036506
0.00241862
0.000228312
0.00241295
4.4298e-05
0.00245438
-0.000169566
0.00253764
-0.000370859
0.00264474
-0.000503868
0.00275073
-0.000526425
0.00283158
-0.000429811
0.00287072
-0.000241201
0.00286274
-1.10156e-05
0.00281341
0.000205909
0.00273605
0.000366749
0.00264637
0.000449505
0.00255904
0.000451678
0.00248737
0.00038115
0.0024444
0.00024681
0.00244162
5.93365e-05
0.002484
-0.000157375
0.00256539
-0.000359935
0.0026691
-0.000497491
0.00277315
-0.000532909
0.00285641
-0.000457191
0.00290319
-0.000290974
0.00290599
-7.58274e-05
0.00286673
0.00013971
0.00279557
0.000314399
0.0027071
0.000424148
0.00261612
0.000462146
0.00253579
0.000430974
0.00247832
0.000334399
0.00245516
0.000177026
0.00247413
-2.67634e-05
0.00253468
-0.000243935
0.00262613
-0.000427382
0.00273061
-0.000533405
0.0028285
-0.000538366
0.00290304
-0.000444919
0.00294301
-0.000278294
0.002944
-7.73896e-05
0.00290873
0.000115688
0.00284633
0.000265835
0.0027699
0.000352959
0.00269361
0.000372848
0.00263075
0.000330417
0.00259338
0.000232185
0.00259105
8.65762e-05
0.00262742
-8.78561e-05
0.00269674
-0.000257576
0.00278442
-0.000382625
0.00287195
-0.000433156
0.00294281
-0.000400991
0.00298621
-0.000300173
0.00299811
-0.000159525
0.00298065
-1.28919e-05
0.0029407
0.000109189
0.00288817
0.000185286
0.00283397
0.000205989
0.00278839
0.000172953
0.00276042
9.48493e-05
0.00275753
-1.67509e-05
0.00278453
-0.000147918
0.00284126
-0.000280201
0.00292133
-0.000390667
0.00301343
-0.000456526
0.00310431
-0.000461583
0.0031816
-0.000400479
0.00323533
-0.000279468
0.00325865
-0.000114796
0.00324837
7.01971e-05
0.00320553
0.000248506
0.0031357
0.000394347
0.00304808
0.000488763
0.00295369
0.000523495
0.00286325
0.000501356
0.00278538
0.000433331
0.00272577
0.000334226
0.00268723
0.000219052
0.00267012
0.000100937
0.00267291
-9.10413e-06
0.00269239
-0.000102057
0.00272379
-0.000170149
0.00276145
-0.000208636
0.00279922
-0.000214543
0.00283181
-0.000190766
0.00285423
-0.000139974
0.00286428
-7.22234e-05
0.00285991
-5.57544e-07
0.000109408
0.00250163
-1.37936e-05
0.00250692
-4.35409e-05
0.00251685
-7.83877e-05
0.00253283
-0.000119505
0.00255653
-0.000166992
0.00258962
-0.00021879
0.00263344
-0.000270748
0.00268747
-0.000313047
0.0027491
-0.000335225
0.00280984
-0.000318648
0.00285872
-0.000254931
0.00288962
-0.00015867
0.00289835
-4.09115e-05
0.00288056
9.06155e-05
0.00283587
0.000215491
0.0027717
0.000303448
0.00270088
0.000332628
0.00263743
0.000296624
0.00259421
0.000200953
0.00258163
6.08028e-05
0.00260639
-9.98955e-05
0.00266667
-0.000241872
0.00274621
-0.000312403
0.00281653
-0.000271805
0.00285078
-0.000127639
0.00283827
6.49228e-05
0.00278618
0.000241002
0.00271034
0.000361253
0.00262571
0.000416435
0.00254311
0.000412218
0.00247064
0.000354812
0.00241681
0.000244713
0.00239191
7.95944e-05
0.00240708
-0.000134861
0.00247166
-0.00036902
0.00258563
-0.000559194
0.00272728
-0.000622184
0.00285196
-0.000505734
0.00291469
-0.00024028
0.00289931
7.12743e-05
0.00282365
0.000323943
0.00271986
0.000468365
0.00261378
0.000511391
0.00251813
0.000482022
0.00243649
0.000403049
0.0023717
0.000279699
0.00233481
0.00010149
0.00234534
-0.00013797
0.00241637
-0.000406066
0.00253824
-0.000621621
0.00267948
-0.0006954
0.00280175
-0.000585158
0.00287423
-0.00032007
0.00288164
1.41669e-05
0.00282752
0.000314495
0.00273207
0.000506137
0.00262186
0.000570476
0.00251769
0.000534804
0.00243134
0.000435294
0.0023728
0.000285124
0.00235618
7.66756e-05
0.00239361
-0.000183294
0.00248305
-0.000444586
0.00260465
-0.000627743
0.00272833
-0.000667013
0.0028245
-0.000544065
0.00287255
-0.000294303
0.00286552
1.05689e-05
0.00281004
0.000290565
0.00272204
0.000484477
0.00262038
0.000567001
0.0025222
0.000546635
0.00244229
0.000444974
0.00239521
0.000275387
0.00239425
4.52624e-05
0.00244463
-0.000219945
0.00253762
-0.000463851
0.00265221
-0.000618461
0.00276236
-0.000636572
0.00284434
-0.000511785
0.00288193
-0.000278793
0.00286969
1.21707e-06
0.00281375
0.000261857
0.00272864
0.00045186
0.00263166
0.000546477
0.00253885
0.000544496
0.00246473
0.00045527
0.00242346
0.000288082
0.00242658
5.62145e-05
0.00247724
-0.000208041
0.00256637
-0.000449058
0.00267502
-0.000606141
0.00278068
-0.000638568
0.00286298
-0.0005395
0.00290726
-0.000335252
0.00290649
-7.50517e-05
0.00286249
0.00018371
0.00278549
0.000391391
0.00269083
0.000518812
0.00259458
0.000558401
0.00251134
0.000514208
0.00245458
0.000391164
0.00243613
0.000195476
0.00246257
-5.32104e-05
0.00253075
-0.000312116
0.00262737
-0.000523995
0.00273333
-0.000639369
0.00282935
-0.000634388
0.00289986
-0.000515424
0.00293488
-0.00031332
0.00293076
-7.3268e-05
0.00289042
0.000156035
0.00282295
0.0003333
0.00274175
0.000434156
0.00266186
0.000452739
0.00259817
0.000394105
0.00256442
0.000265941
0.0025706
8.03975e-05
0.00261825
-0.000135507
0.0026975
-0.000336829
0.00279004
-0.000475161
0.00287601
-0.000519134
0.00294
-0.000464977
0.00297344
-0.000333609
0.00297443
-0.000160518
0.00294651
1.50231e-05
0.00289733
0.000158372
0.00283705
0.000245563
0.0027767
0.000266345
0.00272696
0.000222685
0.00269783
0.000123984
0.00269766
-1.65763e-05
0.00273059
-0.000180855
0.00279386
-0.000343471
0.00287808
-0.000474888
0.00297066
-0.000549102
0.00305926
-0.000550185
0.00313349
-0.00047471
0.00318518
-0.000331159
0.00320843
-0.000138045
0.00320004
7.85905e-05
0.00316039
0.000288158
0.00309407
0.000460663
0.00300952
0.000573315
0.00291745
0.000615562
0.00282867
0.000590133
0.00275212
0.000509889
0.0026938
0.000392546
0.00265677
0.000256082
0.00264156
0.000116142
0.00264653
-1.40748e-05
0.00266805
-0.000123575
0.0027008
-0.0002029
0.00273879
-0.000246619
0.0027759
-0.00025166
0.00280728
-0.00022214
0.0028282
-0.000160901
0.00283695
-8.09737e-05
0.00283083
5.57019e-06
0.000132342
0.00250141
-1.52029e-05
0.00250606
-4.81889e-05
0.00251506
-8.73954e-05
0.00253006
-0.000134505
0.00255313
-0.00019006
0.00258666
-0.000252318
0.00263287
-0.000316958
0.00269212
-0.000372301
0.0027624
-0.000405504
0.00283291
-0.000389158
0.00288957
-0.000311587
0.00292589
-0.000194988
0.00293716
-5.21863e-05
0.0029169
0.00011088
0.00286348
0.000268906
0.00278592
0.00038101
0.00270019
0.000418357
0.0026232
0.000373618
0.00257021
0.000253938
0.00255415
7.68702e-05
0.00258484
-0.000130584
0.00266214
-0.000319181
0.00276592
-0.000416176
0.00285807
-0.000363964
0.00290273
-0.000172299
0.0028869
8.07609e-05
0.00282216
0.000305736
0.00273052
0.00045289
0.00263079
0.000516165
0.00253475
0.000508259
0.00245012
0.000439444
0.00238381
0.000311023
0.00234288
0.000120525
0.00233853
-0.000130514
0.00238937
-0.000419855
0.00250715
-0.000676977
0.00267364
-0.000788669
0.00283717
-0.000669271
0.00293701
-0.00034012
0.00294029
6.79924e-05
0.00286056
0.000403678
0.00273956
0.000589369
0.0026149
0.000636046
0.00250393
0.000592988
0.00240843
0.000498558
0.00233069
0.000357436
0.00228732
0.000144861
0.00230377
-0.000154418
0.00239083
-0.000493134
0.00253056
-0.000761345
0.00268525
-0.000850091
0.00281484
-0.000714747
0.00288939
-0.00039462
0.00289532
8.23478e-06
0.00283713
0.000372689
0.00273485
0.000608416
0.00261515
0.000690177
0.00250014
0.000649805
0.00240439
0.000531051
0.00234172
0.000347793
0.0023288
8.9599e-05
0.00237601
-0.000230512
0.00247635
-0.000544923
0.00260606
-0.000757451
0.00273432
-0.000795273
0.00283249
-0.000642237
0.00288031
-0.000342124
0.00287031
2.05685e-05
0.00280924
0.000351631
0.00271419
0.000579527
0.00260534
0.000675858
0.00250092
0.000651057
0.00241735
0.000528545
0.00237108
0.000321658
0.00237563
4.07113e-05
0.00243383
-0.000278151
0.00253355
-0.000563574
0.0026518
-0.000736704
0.00276264
-0.000747418
0.00284359
-0.000592734
0.00287933
-0.000314533
0.00286432
1.62315e-05
0.00280417
0.000322
0.00271364
0.000542394
0.0026111
0.00064902
0.00251409
0.000641498
0.00243876
0.000530606
0.00240022
0.000326617
0.00240938
4.70577e-05
0.00246692
-0.000265583
0.00256097
-0.000543108
0.00267121
-0.00071638
0.00277549
-0.000742853
0.00285481
-0.000618817
0.00289579
-0.000376234
0.002892
-7.1262e-05
0.00284505
0.000230662
0.00276471
0.000471731
0.00266634
0.000617188
0.00256684
0.000657894
0.00248227
0.000598779
0.00242736
0.000446076
0.00241403
0.000208804
0.00244713
-8.63076e-05
0.00252071
-0.000385699
0.00261941
-0.000622699
0.00272378
-0.000743738
0.0028155
-0.000726107
0.00288045
-0.000580376
0.00290993
-0.000342792
0.00290097
-6.4308e-05
0.00285664
0.000200365
0.00278586
0.000404074
0.00270199
0.000518026
0.00262071
0.000534027
0.0025584
0.000456415
0.00253027
0.000294072
0.00254592
6.47462e-05
0.00260361
-0.000193202
0.00268898
-0.000422195
0.00278095
-0.000567131
0.00285998
-0.000598167
0.00291301
-0.000518002
0.00293419
-0.000354796
0.00292364
-0.000149962
0.00288591
5.27454e-05
0.002829
0.000215291
0.00276298
0.000311576
0.0026989
0.000330432
0.00264802
0.000273558
0.00262129
0.000150715
0.00262689
-2.21784e-05
0.00266637
-0.000220332
0.00273315
-0.000410246
0.0028158
-0.00055754
0.00290274
-0.000636043
0.00298438
-0.000631826
0.00305284
-0.000543171
0.00310139
-0.000379706
0.00312463
-0.000161289
0.00311924
8.39815e-05