/*--------------------------------*- C++ -*----------------------------------*\
  =========                 |
  \\      /  F ield         | OpenFOAM: The Open Source CFD Toolbox
   \\    /   O peration     | Website:  https://openfoam.org
    \\  /    A nd           | Version:  11
     \\/     M anipulation  |
\*---------------------------------------------------------------------------*/
FoamFile
{
    format      ascii;
    class       volVectorField;
    location    "17.454364";
    object      vorticity;
}
// * * * * * * * * * * * * * * * * * * * * * * * * * * * * * * * * * * * * * //

dimensions      [0 0 -1 0 0 0 0];

internalField   nonuniform List<vector> 
7132
(
(-7.30474e-17 -1.88168e-15 -0.00934592)
(-2.10349e-16 -1.80902e-15 -0.00988595)
(-2.02169e-16 -3.30615e-17 -0.01042)
(-2.59062e-16 -1.81402e-15 -0.0108117)
(-3.40437e-16 -1.777e-15 -0.010991)
(-3.14574e-16 2.13272e-17 -0.0109434)
(-2.74609e-16 2.82262e-17 -0.0107081)
(-2.31531e-16 1.78699e-17 -0.0103597)
(-2.23088e-16 7.25544e-18 -0.00999)
(-2.12691e-16 -1.30281e-19 -0.00968374)
(-2.00914e-16 -5.67642e-18 -0.00950273)
(-1.57269e-16 -9.0203e-18 -0.00949541)
(-1.61204e-16 -7.7761e-18 -0.00966901)
(-1.56668e-16 2.45501e-17 -0.00997208)
(-8.42466e-17 -1.67514e-15 -0.0103308)
(-1.19177e-17 -1.68042e-15 -0.0106438)
(1.5995e-17 -1.7e-15 -0.0108073)
(-3.51845e-17 3.76239e-17 -0.0107407)
(-8.12733e-17 -3.43782e-15 -0.0104181)
(-5.81858e-17 -1.73213e-15 -0.00991638)
(3.72307e-16 -1.53383e-17 -0.00938051)
(1.1018e-15 -1.96021e-17 -0.00895022)
(1.34311e-15 -2.3169e-17 -0.00876175)
(9.84012e-16 1.27001e-18 -0.00894455)
(5.29724e-16 1.77375e-15 -0.00953032)
(2.01174e-16 -5.21413e-17 -0.0103693)
(1.08767e-15 -1.76754e-16 -0.0112306)
(1.29348e-15 9.86435e-16 -0.0119045)
(-1.29137e-14 2.46828e-15 -0.0122324)
(-2.3571e-14 -1.12552e-14 -0.012108)
(1.61495e-13 -4.87513e-14 -0.0114941)
(6.04572e-13 8.54314e-14 -0.0104794)
(-1.34205e-12 8.79458e-13 -0.00935466)
(-1.35178e-11 2.22304e-12 -0.00846032)
(-3.7604e-11 2.48956e-12 -0.00793735)
(-5.56244e-11 6.26786e-13 -0.00775269)
(-4.91733e-11 -1.6706e-12 -0.00791028)
(-2.66013e-11 -2.34154e-12 -0.00856543)
(-8.34828e-12 -1.58497e-12 -0.00981805)
(-4.91521e-13 -7.02446e-13 -0.0114061)
(1.37623e-12 -2.57007e-13 -0.012864)
(9.86679e-13 3.293e-13 -0.0138073)
(-8.93446e-13 2.02342e-12 -0.0140281)
(-3.77687e-12 2.94276e-12 -0.0135031)
(-2.61481e-12 -7.83718e-12 -0.0124007)
(1.66133e-11 -5.2713e-11 -0.0111203)
(8.22514e-11 -1.43928e-10 -0.0103323)
(1.93195e-10 -2.37173e-10 -0.0105544)
(3.02098e-10 -2.34446e-10 -0.0115776)
(3.69926e-10 -8.96569e-11 -0.0125964)
(3.5394e-10 1.09002e-10 -0.0129325)
(2.37332e-10 2.24293e-10 -0.0127494)
(1.17392e-10 2.16197e-10 -0.0128675)
(5.53238e-11 1.44435e-10 -0.0135974)
(1.25038e-11 6.70428e-11 -0.0145157)
(-1.01049e-12 4.7355e-12 -0.0151459)
(4.77312e-11 -2.31389e-11 -0.0151918)
(9.63445e-11 4.66606e-11 -0.0144834)
(-2.42294e-10 3.2475e-10 -0.0127259)
(-1.87839e-09 8.78962e-10 -0.00931557)
(-6.02248e-09 1.60691e-09 -0.00361738)
(-1.32142e-08 2.18003e-09 0.00435805)
(-2.20236e-08 2.17177e-09 0.013221)
(-2.90161e-08 1.3747e-09 0.0202154)
(-3.08101e-08 2.36314e-11 0.0225317)
(-2.66156e-08 -1.33893e-09 0.0189618)
(-1.86995e-08 -2.19442e-09 0.0105776)
(-1.0427e-08 -2.29701e-09 0.000203877)
(-4.16281e-09 -1.78506e-09 -0.00894811)
(-6.14246e-10 -1.01684e-09 -0.0147739)
(7.17408e-10 -1.98182e-10 -0.0167849)
(5.2835e-10 8.00427e-10 -0.0155427)
(-1.08424e-09 2.25024e-09 -0.01179)
(-4.69006e-09 4.17663e-09 -0.00606713)
(-1.08507e-08 6.14927e-09 0.00107694)
(-1.91962e-08 7.41099e-09 0.00893655)
(-2.80795e-08 7.24099e-09 0.0169613)
(-3.51311e-08 5.33871e-09 0.0247185)
(-3.82273e-08 2.00972e-09 0.0312067)
(-3.63466e-08 -1.94197e-09 0.0344044)
(-3.00711e-08 -5.51973e-09 0.032141)
(-2.13619e-08 -7.82902e-09 0.0239075)
(-1.25811e-08 -8.27105e-09 0.0117113)
(-5.58694e-09 -6.75577e-09 -0.000800292)
(-1.25961e-09 -3.79472e-09 -0.0100848)
(3.58431e-10 -2.39014e-10 -0.0143311)
(-3.94008e-10 3.12866e-09 -0.0140332)
(-3.09731e-09 5.80834e-09 -0.0112766)
(-7.21173e-09 7.53634e-09 -0.00834135)
(-1.19201e-08 8.17228e-09 -0.00631822)
(-1.62278e-08 7.66922e-09 -0.00447398)
(-1.92916e-08 6.09372e-09 -0.00112613)
(-2.06322e-08 3.61658e-09 0.00464449)
(-2.01111e-08 4.74283e-10 0.0118104)
(-1.78713e-08 -3.03405e-09 0.0176985)
(-1.43467e-08 -6.44135e-09 0.0196506)
(-1.0207e-08 -8.95415e-09 0.0166126)
(-6.20436e-09 -9.62403e-09 0.00951057)
(-2.98782e-09 -7.9676e-09 0.000738587)
(-9.73969e-10 -4.46952e-09 -0.00716943)
(-3.02658e-10 -3.98074e-10 -0.0129016)
(-8.44989e-10 2.95585e-09 -0.0167536)
(-2.23985e-09 4.92122e-09 -0.0198183)
(-3.97593e-09 5.51809e-09 -0.0225829)
(-5.54662e-09 5.12992e-09 -0.0241767)
(-6.60766e-09 4.16552e-09 -0.0230832)
(-7.03287e-09 2.89067e-09 -0.0184816)
(-6.8596e-09 1.39864e-09 -0.0110663)
(-6.20611e-09 -3.40065e-10 -0.0028288)
(-5.22043e-09 -2.33592e-09 0.00398021)
(-4.05634e-09 -4.36145e-09 0.00774656)
(-2.86211e-09 -5.86827e-09 0.00777596)
(-1.77542e-09 -6.24245e-09 0.00437237)
(-9.11114e-10 -5.25697e-09 -0.00148585)
(-3.38465e-10 -3.3049e-09 -0.00872189)
(-6.16488e-11 -1.15884e-09 -0.0165393)
(-2.19322e-11 5.11683e-10 -0.024328)
(-1.25583e-10 1.43659e-09 -0.0311648)
(-2.83284e-10 1.70421e-09 -0.0356078)
(-4.36793e-10 1.55174e-09 -0.0363027)
(-5.58904e-10 1.19287e-09 -0.0328113)
(-6.38034e-10 7.50107e-10 -0.0259542)
(-6.67393e-10 2.61036e-10 -0.0174415)
(-6.44773e-10 -2.77592e-10 -0.00907394)
(-5.7491e-10 -8.48415e-10 -0.00229318)
(-4.68836e-10 -1.37224e-09 0.00183828)
(-3.40656e-10 -1.72632e-09 0.00265498)
(-2.01459e-10 -1.81779e-09 -0.000110877)
(-5.34219e-11 -1.65191e-09 -0.0063114)
(1.10087e-10 -1.33041e-09 -0.0153114)
(2.95204e-10 -9.83493e-10 -0.0258998)
(4.94781e-10 -6.99605e-10 -0.0362214)
(6.83693e-10 -5.03468e-10 -0.0440699)
(8.26521e-10 -3.7748e-10 -0.0476652)
(8.9313e-10 -2.92193e-10 -0.0463678)
(8.72324e-10 -2.21681e-10 -0.0408487)
(7.75911e-10 -1.4241e-10 -0.0326354)
(6.3146e-10 -2.96382e-11 -0.0233592)
(4.70795e-10 1.33771e-10 -0.0144156)
(3.20834e-10 3.3665e-10 -0.00701555)
(1.99466e-10 5.26934e-10 -0.00226616)
(1.16348e-10 6.29843e-10 -0.00115298)
(7.53474e-11 5.92365e-10 -0.00433173)
(7.56798e-11 4.18319e-10 -0.0117987)
(1.11493e-10 1.64221e-10 -0.0226072)
(1.71298e-10 -9.65354e-11 -0.0347792)
(2.393e-10 -3.09166e-10 -0.0457292)
(2.99148e-10 -4.50823e-10 -0.0531328)
(3.38338e-10 -5.23509e-10 -0.0557232)
(3.51202e-10 -5.38975e-10 -0.0535679)
(3.39383e-10 -5.04812e-10 -0.0477565)
(3.09449e-10 -4.17018e-10 -0.0396678)
(2.69188e-10 -2.63831e-10 -0.0305344)
(2.24714e-10 -4.18416e-11 -0.021391)
(1.79763e-10 2.24499e-10 -0.0131878)
(1.3697e-10 4.79259e-10 -0.0070501)
(9.97756e-11 6.55918e-10 -0.00388652)
(7.33866e-11 6.97497e-10 -0.00480604)
(5.81751e-11 7.20294e-10 -0.0125107)
(7.11614e-11 3.81162e-10 -0.0264751)
(-7.36952e-17 -5.89552e-18 -0.027965)
(-2.20108e-16 -9.52607e-18 -0.0295989)
(-2.22122e-16 -9.97592e-18 -0.0312327)
(-2.86411e-16 -1.18586e-17 -0.0324563)
(-3.82145e-16 -1.28271e-17 -0.0330473)
(-3.69615e-16 -9.89244e-18 -0.0329412)
(-3.51287e-16 -1.32953e-17 -0.03223)
(-3.27259e-16 -7.89056e-18 -0.0311158)
(-2.45777e-16 1.73256e-15 -0.0298604)
(-2.93748e-16 -1.12175e-17 -0.0287158)
(-4.06015e-16 -3.33874e-17 -0.0278735)
(-4.67524e-16 1.70585e-15 -0.027502)
(-4.34428e-16 -8.07669e-18 -0.0276628)
(-3.23359e-16 -1.22346e-17 -0.0283019)
(-1.28999e-16 -1.10966e-17 -0.0293203)
(-4.65817e-18 5.87422e-18 -0.030544)
(-1.1476e-16 4.46618e-17 -0.0317653)
(-4.64784e-16 8.37169e-17 -0.0327745)
(-6.22299e-16 4.31318e-17 -0.0334034)
(2.28394e-16 -2.25043e-16 -0.0335984)
(1.06253e-15 -5.95331e-16 -0.0333734)
(1.92565e-16 -5.05003e-16 -0.0327123)
(1.84165e-15 3.57247e-17 -0.031644)
(3.64744e-15 4.07539e-16 -0.0303742)
(2.66611e-15 4.3045e-16 -0.0292177)
(2.02282e-15 -3.30689e-16 -0.0284038)
(6.07964e-15 -7.22907e-16 -0.0280259)
(-6.30698e-15 7.9871e-15 -0.0280561)
(-5.32658e-14 1.48972e-14 -0.028376)
(8.81744e-14 -1.00196e-13 -0.028845)
(4.4307e-13 -3.6282e-13 -0.0294136)
(-1.22713e-12 8.33737e-13 -0.030213)
(-4.52878e-12 7.93891e-12 -0.0315228)
(1.58537e-11 2.03523e-11 -0.0334187)
(7.88675e-11 2.35394e-11 -0.0353535)
(1.1813e-10 6.41315e-12 -0.0362981)
(8.10861e-11 -1.61839e-11 -0.0356687)
(2.4661e-11 -2.27558e-11 -0.0339529)
(-1.38418e-12 -1.46416e-11 -0.0321086)
(-3.80188e-12 -5.56818e-12 -0.0307373)
(2.19473e-13 -9.96107e-13 -0.0299709)
(-7.13992e-13 1.46241e-12 -0.0296128)
(-4.53518e-12 4.40346e-12 -0.0293879)
(1.93788e-11 3.80171e-12 -0.0292719)
(8.53502e-11 -1.80357e-11 -0.0296878)
(-7.1595e-11 -9.51461e-11 -0.031148)
(-1.37495e-09 -2.3222e-10 -0.0333721)
(-5.08828e-09 -3.47098e-10 -0.0348227)
(-1.07338e-08 -3.22814e-10 -0.0345807)
(-1.48928e-08 -1.15581e-10 -0.0341299)
(-1.43979e-08 1.75298e-10 -0.0350588)
(-9.9962e-09 3.42569e-10 -0.0365343)
(-4.91748e-09 3.07199e-10 -0.0370019)
(-1.45721e-09 1.96879e-10 -0.0360271)
(3.99585e-12 9.52082e-11 -0.0341075)
(3.19354e-10 -1.28816e-11 -0.0322293)
(4.12004e-10 -7.18146e-11 -0.0310167)
(3.7693e-10 1.91671e-10 -0.0301763)
(-1.32965e-09 1.31212e-09 -0.0280247)
(-8.2038e-09 3.76905e-09 -0.0213472)
(-2.41684e-08 7.27481e-09 -0.00668001)
(-4.97925e-08 1.01806e-08 0.0166866)
(-7.93143e-08 1.00727e-08 0.0446895)
(-1.02228e-07 5.76794e-09 0.0693778)
(-1.08786e-07 -1.17662e-09 0.0817305)
(-9.58757e-08 -7.39425e-09 0.0758125)
(-6.93476e-08 -1.02887e-08 0.0529463)
(-4.00245e-08 -9.56534e-09 0.0216792)
(-1.67621e-08 -6.69143e-09 -0.00729653)
(-3.02815e-09 -3.45694e-09 -0.0265847)
(2.3543e-09 -7.69476e-10 -0.0344212)
(1.84374e-09 1.70125e-09 -0.0330551)
(-3.63947e-09 4.85944e-09 -0.0259022)
(-1.48417e-08 9.05985e-09 -0.0159756)
(-3.19617e-08 1.34023e-08 -0.00546142)
(-5.25974e-08 1.60254e-08 0.00509382)
(-7.23434e-08 1.52084e-08 0.0179326)
(-8.70603e-08 1.04126e-08 0.0362141)
(-9.39508e-08 2.61749e-09 0.0592125)
(-9.12432e-08 -6.02003e-09 0.0797091)
(-7.86583e-08 -1.30121e-08 0.0874504)
(-5.87131e-08 -1.65741e-08 0.0764375)
(-3.6459e-08 -1.61585e-08 0.0495082)
(-1.72564e-08 -1.24165e-08 0.016559)
(-4.60331e-09 -6.76741e-09 -0.0112333)
(4.43277e-10 -6.71812e-10 -0.0275383)
(-1.47015e-09 4.85654e-09 -0.0335401)
(-8.75592e-09 9.2172e-09 -0.0355552)
(-1.90927e-08 1.19477e-08 -0.0394122)
(-2.96765e-08 1.26803e-08 -0.0454543)
(-3.81264e-08 1.1355e-08 -0.0479695)
(-4.33717e-08 8.29596e-09 -0.0399543)
(-4.55173e-08 4.02633e-09 -0.0189814)
(-4.48773e-08 -9.06189e-10 0.0103612)
(-4.13562e-08 -5.91626e-09 0.0384341)
(-3.48693e-08 -1.02735e-08 0.055405)
(-2.61278e-08 -1.30253e-08 0.0560369)
(-1.67051e-08 -1.32336e-08 0.0414704)
(-8.51797e-09 -1.05828e-08 0.0179732)
(-3.12274e-09 -5.8121e-09 -0.0071886)
(-1.20973e-09 -4.62562e-10 -0.0300223)
(-2.4468e-09 3.92445e-09 -0.0506673)
(-5.67422e-09 6.48669e-09 -0.07026)
(-9.40697e-09 7.17147e-09 -0.0870093)
(-1.24576e-08 6.44579e-09 -0.0957409)
(-1.43048e-08 4.90864e-09 -0.0914957)
(-1.50019e-08 3.01665e-09 -0.0732889)
(-1.48012e-08 9.85257e-10 -0.0450061)
(-1.38551e-08 -1.15965e-09 -0.0136975)
(-1.22076e-08 -3.4108e-09 0.0132136)
(-9.95521e-09 -5.5406e-09 0.0301307)
(-7.33155e-09 -7.00873e-09 0.0342497)
(-4.71064e-09 -7.21795e-09 0.0258178)
(-2.49993e-09 -5.97544e-09 0.0072076)
(-9.78782e-10 -3.72963e-09 -0.018594)
(-1.89407e-10 -1.31711e-09 -0.0486248)
(4.26602e-11 5.43652e-10 -0.0791895)
(-2.42275e-11 1.56727e-09 -0.104944)
(-1.93284e-10 1.85981e-09 -0.119853)
(-3.8863e-10 1.68956e-09 -0.119937)
(-6.129e-10 1.29349e-09 -0.105315)
(-8.66295e-10 8.04353e-10 -0.0799658)
(-1.10231e-09 2.64406e-10 -0.0498558)
(-1.24983e-09 -3.23832e-10 -0.0208001)
(-1.25725e-09 -9.36382e-10 0.00253938)
(-1.11412e-09 -1.48936e-09 0.0167101)
(-8.49174e-10 -1.86001e-09 0.0194203)
(-5.04555e-10 -1.96141e-09 0.00955367)
(-1.05518e-10 -1.80768e-09 -0.0125409)
(3.4774e-10 -1.50472e-09 -0.0443854)
(8.56982e-10 -1.17584e-09 -0.0808061)
(1.39395e-09 -8.93848e-10 -0.114353)
(1.89167e-09 -6.69339e-10 -0.137423)
(2.26539e-09 -4.82196e-10 -0.145163)
(2.44552e-09 -3.15091e-10 -0.137092)
(2.40358e-09 -1.6307e-10 -0.116542)
(2.16136e-09 -2.19759e-11 -0.0887213)
(1.78062e-09 1.2292e-10 -0.0587199)
(1.34093e-09 2.89086e-10 -0.0307881)
(9.16824e-10 4.72317e-10 -0.00855683)
(5.64523e-10 6.2918e-10 0.00459228)
(3.19711e-10 6.91905e-10 0.00558088)
(1.9943e-10 6.12699e-10 -0.00752044)
(2.02018e-10 4.00248e-10 -0.0340839)
(3.06149e-10 1.16414e-10 -0.0698606)
(4.73387e-10 -1.60437e-10 -0.107345)
(6.56888e-10 -3.7309e-10 -0.138096)
(8.13633e-10 -5.00342e-10 -0.155852)
(9.14487e-10 -5.49534e-10 -0.158449)
(9.48332e-10 -5.39496e-10 -0.1476)
(9.20221e-10 -4.83934e-10 -0.127265)
(8.45272e-10 -3.81919e-10 -0.101639)
(7.40965e-10 -2.21463e-10 -0.0742639)
(6.207e-10 2.87249e-12 -0.0479901)
(4.93398e-10 2.68372e-10 -0.0254924)
(3.67848e-10 5.19254e-10 -0.0101209)
(2.57338e-10 6.87712e-10 -0.0046963)
(1.80581e-10 7.18297e-10 -0.0119685)
(1.3927e-10 7.21408e-10 -0.0404292)
(1.85627e-10 3.74671e-10 -0.0821508)
(-2.19986e-18 -5.70395e-20 -0.0463853)
(-2.39881e-17 -8.50552e-20 -0.049142)
(-4.35065e-17 9.02189e-20 -0.0519129)
(-7.31112e-17 7.1286e-19 -0.054009)
(-8.98318e-17 -6.75386e-19 -0.0550462)
(-1.36939e-16 5.89828e-18 -0.054897)
(-2.29419e-16 7.04815e-18 -0.0536922)
(1.40258e-17 -2.13326e-17 -0.0517491)
(-5.91652e-17 -9.50008e-18 -0.0494943)
(-8.93854e-16 6.6436e-17 -0.0473449)
(-1.17837e-15 8.45995e-17 -0.0456234)
(-4.41609e-16 5.18637e-18 -0.0446444)
(4.202e-16 -8.32467e-17 -0.0445682)
(1.12948e-15 -1.28165e-16 -0.0453911)
(1.29272e-15 -9.97656e-17 -0.0470688)
(4.76453e-16 4.71815e-17 -0.0494356)
(-1.40856e-15 2.64786e-16 -0.0522361)
(-3.08699e-15 2.91394e-16 -0.055136)
(-5.43085e-16 -3.14958e-16 -0.0577627)
(-3.32124e-16 -8.39819e-16 -0.0597417)
(-6.66611e-14 2.57601e-18 -0.0606619)
(-1.91986e-13 -4.09161e-16 -0.060083)
(-1.96288e-13 -1.75061e-15 -0.0577333)
(-8.9606e-14 -4.1096e-16 -0.0538173)
(-2.04877e-14 8.51341e-16 -0.0490473)
(1.11098e-14 -1.75891e-15 -0.0443267)
(2.55409e-16 3.98815e-15 -0.0405153)
(-1.372e-13 3.06591e-14 -0.0382732)
(2.8313e-13 -4.47724e-14 -0.0379677)
(1.9437e-12 -2.61165e-13 -0.0397073)
(-6.44033e-12 6.07167e-13 -0.0434523)
(-3.84955e-11 2.56962e-12 -0.0490643)
(6.15493e-11 -7.66094e-12 -0.0564187)
(7.98525e-10 -3.94768e-11 -0.065396)
(2.30015e-09 -4.86506e-11 -0.0743948)
(3.42791e-09 -4.8425e-13 -0.0792383)
(3.02846e-09 4.50624e-11 -0.0766715)
(1.63216e-09 3.88936e-11 -0.0681543)
(4.98758e-10 1.26448e-11 -0.0576496)
(2.32104e-11 -1.50602e-12 -0.0479408)
(-6.44008e-11 -1.80269e-12 -0.040376)
(-5.19683e-11 2.70492e-12 -0.0355626)
(-5.31443e-12 -8.02298e-12 -0.0338196)
(2.4155e-10 -4.20017e-11 -0.0356379)
(5.01982e-10 3.7648e-11 -0.0412577)
(-1.5227e-09 6.77435e-10 -0.0479876)
(-1.16118e-08 2.36441e-09 -0.0475196)
(-3.51332e-08 4.44225e-09 -0.0308983)
(-6.73993e-08 4.6678e-09 -0.00145155)
(-9.12507e-08 1.74237e-09 0.022065)
(-9.0681e-08 -2.33929e-09 0.0220123)
(-6.67924e-08 -4.51589e-09 -3.09054e-05)
(-3.58324e-08 -4.0533e-09 -0.0264431)
(-1.26255e-08 -2.31631e-09 -0.0421553)
(-1.25083e-09 -8.21237e-10 -0.0445364)
(1.94547e-09 -1.99269e-10 -0.0398763)
(2.02092e-09 -5.19237e-11 -0.0354734)
(8.54038e-10 9.17486e-10 -0.0339369)
(-4.69231e-09 4.61512e-09 -0.0318643)
(-2.12278e-08 1.22983e-08 -0.0224643)
(-5.30592e-08 2.24013e-08 -0.00078361)
(-9.59452e-08 2.9753e-08 0.0325341)
(-1.38546e-07 2.83896e-08 0.0739962)
(-1.69744e-07 1.61106e-08 0.118936)
(-1.81596e-07 -3.15257e-09 0.156151)
(-1.68699e-07 -2.10582e-08 0.167773)
(-1.32225e-07 -3.012e-08 0.142874)
(-8.38144e-08 -2.85897e-08 0.089878)
(-3.95237e-08 -2.02832e-08 0.0311112)
(-9.96803e-09 -1.0575e-08 -0.0131563)
(3.21134e-09 -2.63413e-09 -0.0350977)
(3.26918e-09 3.79731e-09 -0.0387549)
(-6.85299e-09 1.0593e-08 -0.0341321)
(-2.52033e-08 1.83378e-08 -0.031712)
(-4.80122e-08 2.50271e-08 -0.0372589)
(-6.90439e-08 2.76018e-08 -0.0463842)
(-8.35174e-08 2.44725e-08 -0.0445686)
(-9.15427e-08 1.61424e-08 -0.0181457)
(-9.61011e-08 4.10116e-09 0.0324903)
(-9.77448e-08 -9.58823e-09 0.0902473)
(-9.27181e-08 -2.17848e-08 0.130713)
(-7.745e-08 -2.89287e-08 0.136572)
(-5.38971e-08 -2.89994e-08 0.107594)
(-2.89253e-08 -2.26836e-08 0.0589777)
(-9.95249e-09 -1.26445e-08 0.0108016)
(-1.30155e-09 -1.80559e-09 -0.0246746)
(-3.22451e-09 7.72827e-09 -0.0491504)
(-1.26159e-08 1.46196e-08 -0.0729985)
(-2.44302e-08 1.79966e-08 -0.102441)
(-3.385e-08 1.76892e-08 -0.130366)
(-3.8564e-08 1.45168e-08 -0.14038)
(-3.94597e-08 9.78916e-09 -0.120452)
(-3.91304e-08 4.3694e-09 -0.0721731)
(-3.93737e-08 -1.60626e-09 -0.00901077)
(-3.95941e-08 -8.03805e-09 0.0509042)
(-3.75225e-08 -1.40556e-08 0.0914718)
(-3.15999e-08 -1.80363e-08 0.103573)
(-2.24929e-08 -1.8429e-08 0.0875231)
(-1.28476e-08 -1.47588e-08 0.0516796)
(-5.69076e-09 -8.12364e-09 0.00635694)
(-2.74417e-09 -7.36047e-10 -0.0424391)
(-3.68464e-09 5.1881e-09 -0.0930456)
(-6.64812e-09 8.40131e-09 -0.141861)
(-9.53766e-09 8.90977e-09 -0.178687)
(-1.11889e-08 7.57882e-09 -0.190908)
(-1.16496e-08 5.43767e-09 -0.172611)
(-1.16464e-08 3.13892e-09 -0.128707)
(-1.18014e-08 8.2522e-10 -0.0712041)
(-1.21227e-08 -1.63688e-09 -0.0131666)
(-1.2081e-08 -4.28585e-09 0.0347763)
(-1.11116e-08 -6.79948e-09 0.0651134)
(-9.05919e-09 -8.49055e-09 0.0736558)
(-6.33064e-09 -8.65826e-09 0.0597588)
(-3.64833e-09 -7.12289e-09 0.0256177)
(-1.60413e-09 -4.46016e-09 -0.0247692)
(-3.61413e-10 -1.66956e-09 -0.0850731)
(2.98399e-10 4.29095e-10 -0.144878)
(6.92976e-10 1.55456e-09 -0.19026)
(9.93292e-10 1.88641e-09 -0.209157)
(1.17352e-09 1.76155e-09 -0.197681)
(1.1145e-09 1.4317e-09 -0.161445)
(7.48175e-10 9.94811e-10 -0.111351)
(1.4895e-10 4.52803e-10 -0.0582796)
(-4.90546e-10 -2.00122e-10 -0.0104146)
(-9.61673e-10 -9.16268e-10 0.0263746)
(-1.13611e-09 -1.57628e-09 0.0474084)
(-1.00269e-09 -2.0311e-09 0.0487102)
(-6.28455e-10 -2.18962e-09 0.0275821)
(-8.96695e-11 -2.07805e-09 -0.0156852)
(5.62724e-10 -1.81166e-09 -0.0754844)
(1.28397e-09 -1.5066e-09 -0.139849)
(2.00605e-09 -1.21695e-09 -0.19308)
(2.64097e-09 -9.39189e-10 -0.222051)
(3.10715e-09 -6.54403e-10 -0.221898)
(3.34717e-09 -3.61287e-10 -0.196759)
(3.33169e-09 -7.96007e-11 -0.155799)
(3.0648e-09 1.69073e-10 -0.108359)
(2.59304e-09 3.80578e-10 -0.0614309)
(2.00107e-09 5.65668e-10 -0.0200807)
(1.39066e-09 7.24855e-10 0.0110728)
(8.57928e-10 8.2549e-10 0.0267868)
(4.77022e-10 8.1239e-10 0.0216879)
(2.88769e-10 6.51212e-10 -0.0072694)
(2.92736e-10 3.6496e-10 -0.0574058)
(4.47934e-10 2.85386e-11 -0.118549)
(6.86236e-10 -2.71905e-10 -0.175427)
(9.34607e-10 -4.7929e-10 -0.213933)
(1.13567e-09 -5.79623e-10 -0.227101)
(1.25823e-09 -5.90859e-10 -0.216604)
(1.29631e-09 -5.41841e-10 -0.189508)
(1.26077e-09 -4.53282e-10 -0.153678)
(1.16939e-09 -3.2739e-10 -0.114822)
(1.03862e-09 -1.51544e-10 -0.0765155)
(8.78773e-10 8.19415e-11 -0.0414253)
(6.97726e-10 3.50926e-10 -0.0128411)
(5.09756e-10 5.97289e-10 0.0037314)
(3.40988e-10 7.49552e-10 0.00340543)
(2.26565e-10 7.56531e-10 -0.0170504)
(1.70627e-10 7.17771e-10 -0.0734619)
(2.58213e-10 3.57985e-10 -0.130441)
(-6.94106e-17 7.19846e-18 -0.0644586)
(-2.1344e-16 1.11272e-17 -0.0683749)
(-1.79321e-16 1.45856e-17 -0.0723103)
(-2.39477e-16 1.13041e-17 -0.0752874)
(-1.49783e-16 1.9087e-17 -0.0767596)
(-6.0216e-16 5.99011e-17 -0.0765425)
(2.82043e-16 -8.8778e-17 -0.0748177)
(5.48531e-16 -9.30175e-17 -0.0720305)
(-3.5037e-15 2.1865e-15 -0.0687899)
(-2.65653e-15 5.48386e-16 -0.0656848)
(6.12386e-15 -1.99423e-15 -0.0631622)
(1.34757e-14 9.06562e-16 -0.0617073)
(1.34248e-14 -7.9362e-16 -0.0615154)
(9.87814e-15 -4.48496e-16 -0.0625892)
(2.90763e-15 3.15416e-16 -0.0649227)
(-7.58975e-15 1.35652e-15 -0.0683166)
(-1.88672e-14 1.82638e-15 -0.0724334)
(-1.77271e-14 -3.4902e-16 -0.0767904)
(5.28573e-15 -1.3343e-15 -0.080785)
(-9.16206e-14 3.2834e-14 -0.0838271)
(-2.40418e-13 9.52318e-14 -0.0853654)
(-1.39318e-14 6.43084e-14 -0.0847639)
(-1.14921e-13 -5.11544e-14 -0.0815005)
(-3.50789e-13 -8.74926e-14 -0.0757318)
(-2.58332e-13 -4.99274e-14 -0.0684192)
(-5.32725e-14 -1.07022e-14 -0.0608756)
(-2.61432e-13 7.34318e-14 -0.0544599)
(-4.94577e-13 -1.3345e-13 -0.0503898)
(4.03884e-12 -1.02555e-12 -0.0495361)
(4.86801e-12 3.26153e-12 -0.0522755)
(-5.88763e-11 1.98568e-11 -0.0584627)
(-1.23149e-10 -3.31611e-11 -0.0677606)
(5.6944e-10 -4.10572e-10 -0.0806766)
(3.13367e-09 -1.09895e-09 -0.0981224)
(7.1614e-09 -1.29115e-09 -0.117084)
(1.04171e-08 -3.57746e-10 -0.129089)
(1.03708e-08 8.81691e-10 -0.126162)
(6.84877e-09 1.2421e-09 -0.109181)
(2.82831e-09 7.89833e-10 -0.0872497)
(5.03755e-10 2.76011e-10 -0.0676566)
(-2.53446e-10 3.65933e-11 -0.0528907)
(-2.89249e-10 -2.80808e-11 -0.0436037)
(5.45457e-11 -1.42356e-10 -0.0405664)
(1.01173e-09 -2.49847e-10 -0.0449008)
(8.1098e-10 8.6409e-10 -0.0543752)
(-9.0009e-09 5.96173e-09 -0.0563044)
(-4.26319e-08 1.6573e-08 -0.0282074)
(-1.05644e-07 2.75467e-08 0.0418777)
(-1.8109e-07 2.77359e-08 0.135896)
(-2.36337e-07 1.15253e-08 0.212498)
(-2.42716e-07 -1.20539e-08 0.230439)
(-1.94812e-07 -2.70817e-08 0.177139)
(-1.18363e-07 -2.67762e-08 0.084137)
(-5.02548e-08 -1.70939e-08 0.00160925)
(-1.01057e-08 -7.1903e-09 -0.0422691)
(4.67681e-09 -1.64876e-09 -0.0518511)
(6.17502e-09 4.73902e-10 -0.0466883)
(1.58873e-09 3.54829e-09 -0.0401369)
(-1.18702e-08 1.2353e-08 -0.0329518)
(-4.03784e-08 2.79525e-08 -0.0220567)
(-8.13137e-08 4.46335e-08 -0.00932332)
(-1.2054e-07 5.2924e-08 0.00517528)
(-1.4623e-07 4.69722e-08 0.03569)
(-1.60595e-07 2.72928e-08 0.0986401)
(-1.71705e-07 -1.69907e-09 0.184291)
(-1.76642e-07 -3.20794e-08 0.252087)
(-1.61486e-07 -5.27311e-08 0.2602)
(-1.20821e-07 -5.59162e-08 0.201228)
(-6.82985e-08 -4.36146e-08 0.107493)
(-2.40038e-08 -2.48245e-08 0.022428)
(2.06026e-10 -7.38809e-09 -0.0284249)
(3.2358e-09 6.73342e-09 -0.0467034)
(-1.0193e-08 1.90957e-08 -0.0534773)
(-3.22928e-08 2.96394e-08 -0.0732289)
(-5.2768e-08 3.53227e-08 -0.114115)
(-6.27522e-08 3.3778e-08 -0.155295)
(-6.06945e-08 2.64578e-08 -0.159391)
(-5.33126e-08 1.67044e-08 -0.104816)
(-5.02116e-08 5.71857e-09 -0.00433987)
(-5.609e-08 -7.71152e-09 0.105359)
(-6.59057e-08 -2.31595e-08 0.185425)
(-6.86527e-08 -3.59846e-08 0.211152)
(-5.78367e-08 -4.04209e-08 0.180921)
(-3.70995e-08 -3.43888e-08 0.114937)
(-1.65943e-08 -2.05793e-08 0.0416829)
(-5.28039e-09 -4.0358e-09 -0.0212108)
(-5.76534e-09 1.05137e-08 -0.0764754)
(-1.39678e-08 1.98201e-08 -0.136492)
(-2.26565e-08 2.25648e-08 -0.200757)
(-2.63461e-08 1.97472e-08 -0.245908)
(-2.41509e-08 1.41598e-08 -0.242863)
(-1.90505e-08 8.57916e-09 -0.183103)
(-1.52841e-08 3.98334e-09 -0.0855992)
(-1.57954e-08 -6.74326e-10 0.0185339)
(-2.03581e-08 -6.84189e-09 0.103505)
(-2.54462e-08 -1.42706e-08 0.154536)
(-2.67641e-08 -2.05401e-08 0.166028)
(-2.26236e-08 -2.26098e-08 0.140656)
(-1.51164e-08 -1.89839e-08 0.087609)
(-8.20326e-09 -1.08638e-08 0.0169925)
(-4.65218e-09 -1.46563e-09 -0.0650972)
(-4.42299e-09 5.87643e-09 -0.152985)
(-5.48831e-09 9.4132e-09 -0.232079)
(-5.87822e-09 9.44186e-09 -0.278115)
(-4.9924e-09 7.50174e-09 -0.271754)
(-3.48603e-09 5.1374e-09 -0.214088)
(-2.47669e-09 3.09259e-09 -0.126215)
(-2.80427e-09 1.22341e-09 -0.0347154)
(-4.51658e-09 -1.01985e-09 0.0417751)
(-6.75442e-09 -3.91635e-09 0.0951252)
(-8.23992e-09 -7.05153e-09 0.122643)
(-8.12463e-09 -9.39923e-09 0.122996)
(-6.51042e-09 -9.92338e-09 0.0951803)
(-4.22881e-09 -8.3387e-09 0.0394185)
(-2.13393e-09 -5.37309e-09 -0.0405784)
(-5.77422e-10 -2.26837e-09 -0.133591)
(5.54956e-10 1.64571e-11 -0.218495)
(1.48499e-09 1.21982e-09 -0.2699)
(2.29421e-09 1.61954e-09 -0.271689)
(2.90433e-09 1.62895e-09 -0.226827)
(3.15556e-09 1.50616e-09 -0.154192)
(2.90605e-09 1.28713e-09 -0.0761218)
(2.15117e-09 8.83766e-10 -0.00786425)
(1.0948e-09 2.31479e-10 0.0443211)
(7.77243e-11 -6.13597e-10 0.0785996)
(-5.98105e-10 -1.46886e-09 0.0927511)
(-7.99927e-10 -2.11384e-09 0.0822659)
(-5.65261e-10 -2.41792e-09 0.0423726)
(-1.49699e-11 -2.40327e-09 -0.0268399)
(7.18465e-10 -2.19154e-09 -0.114954)
(1.50575e-09 -1.8975e-09 -0.200345)
(2.22651e-09 -1.57235e-09 -0.257789)
(2.79843e-09 -1.21989e-09 -0.271373)
(3.19505e-09 -8.35298e-10 -0.242437)
(3.4206e-09 -4.27361e-10 -0.186286)
(3.46701e-09 -2.18839e-11 -0.121597)
(3.30407e-09 3.47351e-10 -0.0614099)
(2.9168e-09 6.54787e-10 -0.0111381)
(2.34346e-09 8.90272e-10 0.0277788)
(1.68024e-09 1.04389e-09 0.0531216)
(1.05558e-09 1.086e-09 0.05926)
(5.90204e-10 9.76484e-10 0.0387205)
(3.58396e-10 7.04843e-10 -0.0121684)
(3.65459e-10 3.20666e-10 -0.0867329)
(5.52633e-10 -8.03362e-11 -0.16613)
(8.2633e-10 -4.03772e-10 -0.226193)
(1.09515e-09 -5.97808e-10 -0.249774)
(1.29631e-09 -6.62155e-10 -0.235137)
(1.40399e-09 -6.29854e-10 -0.194296)
(1.42295e-09 -5.40767e-10 -0.143872)
(1.37384e-09 -4.20471e-10 -0.0961893)
(1.27767e-09 -2.70841e-10 -0.0559395)
(1.14558e-09 -7.6156e-11 -0.0226247)
(9.77957e-10 1.73319e-10 0.00497181)
(7.754e-10 4.52881e-10 0.0251874)
(5.54409e-10 6.97623e-10 0.0307811)
(3.5301e-10 8.29308e-10 0.0149066)
(2.21749e-10 8.03478e-10 -0.0244205)
(1.67119e-10 7.05584e-10 -0.112274)
(3.02153e-10 3.30878e-10 -0.155178)
(6.58194e-17 1.87609e-15 -0.0819933)
(2.61254e-16 1.78959e-15 -0.0871229)
(1.73787e-16 1.31089e-17 -0.092274)
(4.81838e-16 1.72067e-15 -0.0961674)
(1.37028e-16 1.91539e-15 -0.0980867)
(-2.12922e-16 1.52471e-15 -0.097787)
(6.1532e-15 -5.68297e-16 -0.0955028)
(-1.21393e-14 1.89864e-15 -0.0918113)
(-1.2886e-14 1.59303e-15 -0.0875183)
(4.80014e-14 -6.52272e-15 -0.0833849)
(6.947e-14 -7.96796e-15 -0.0799672)
(2.70242e-14 -3.63173e-15 -0.077955)
(-1.60493e-14 1.70197e-15 -0.0776322)
(-5.67822e-14 5.13041e-15 -0.0789596)
(-9.53468e-14 8.63418e-15 -0.0819589)
(-1.29017e-13 1.26693e-14 -0.0863661)
(-1.32488e-13 7.06816e-15 -0.0917358)
(-3.73088e-14 -1.17851e-14 -0.0974511)
(-1.26793e-13 3.83665e-14 -0.102802)
(-3.84547e-13 1.25482e-13 -0.107028)
(6.54168e-12 -3.88418e-14 -0.109305)
(2.1624e-11 -6.31576e-14 -0.108732)
(2.34109e-11 1.66678e-13 -0.104566)
(9.95646e-12 7.12942e-14 -0.0969905)
(8.97246e-13 -1.47907e-13 -0.0873396)
(-1.17681e-12 -1.94335e-15 -0.0773142)
(-2.0015e-12 2.2464e-13 -0.0686396)
(1.62271e-12 -2.11948e-12 -0.0629882)
(1.36866e-11 -2.72606e-12 -0.0616559)
(-3.14796e-11 3.11964e-11 -0.0651616)
(-1.27995e-10 6.46141e-11 -0.0734875)
(3.16174e-10 -3.1159e-10 -0.0871655)
(1.06689e-09 -1.63607e-09 -0.105298)
(-3.01641e-09 -3.33546e-09 -0.119006)
(-1.53968e-08 -3.69036e-09 -0.119847)
(-2.47304e-08 -1.60516e-09 -0.118376)
(-1.90555e-08 1.82921e-09 -0.125062)
(-6.18201e-09 3.81012e-09 -0.127415)
(1.20675e-09 3.18515e-09 -0.113999)
(1.94951e-09 1.53937e-09 -0.090561)
(4.5064e-10 3.94698e-10 -0.0678767)
(-3.69149e-10 -1.51293e-10 -0.0529898)
(4.23127e-10 -6.58511e-10 -0.0491354)
(2.26195e-09 -4.20221e-10 -0.05623)
(-1.91505e-09 5.04396e-09 -0.0635917)
(-2.96162e-08 2.23988e-08 -0.0450455)
(-9.50475e-08 5.0686e-08 0.0226685)
(-1.85462e-07 7.36713e-08 0.132828)
(-2.6932e-07 7.00144e-08 0.261565)
(-3.26975e-07 3.25555e-08 0.387351)
(-3.48463e-07 -2.31018e-08 0.46873)
(-3.1649e-07 -6.66925e-08 0.447513)
(-2.28523e-07 -7.6332e-08 0.31446)
(-1.2062e-07 -5.64449e-08 0.139062)
(-3.78743e-08 -2.8287e-08 0.00529393)
(2.83356e-09 -8.33963e-09 -0.0555906)
(1.18207e-08 1.49212e-09 -0.0637535)
(2.54592e-09 9.94012e-09 -0.0509386)
(-2.1589e-08 2.55987e-08 -0.0390169)
(-5.78737e-08 4.702e-08 -0.0461656)
(-9.12967e-08 6.24819e-08 -0.0833179)
(-1.02743e-07 6.22112e-08 -0.126061)
(-9.00025e-08 4.84174e-08 -0.114341)
(-7.20737e-08 2.88479e-08 -0.00961639)
(-7.24513e-08 4.87082e-09 0.159406)
(-9.66938e-08 -2.61676e-08 0.315536)
(-1.22849e-07 -5.80305e-08 0.385095)
(-1.2155e-07 -7.51834e-08 0.341581)
(-8.7517e-08 -6.86919e-08 0.219617)
(-4.15276e-08 -4.48273e-08 0.0859324)
(-8.46565e-09 -1.62539e-08 -0.00831867)
(-1.6748e-10 8.99683e-09 -0.056865)
(-1.30636e-08 2.83573e-08 -0.0934926)
(-3.34529e-08 3.96253e-08 -0.157095)
(-4.5954e-08 4.02568e-08 -0.247105)
(-4.28368e-08 3.15651e-08 -0.310246)
(-2.74491e-08 1.97527e-08 -0.284114)
(-9.6026e-09 1.09009e-08 -0.155898)
(3.97075e-10 5.48985e-09 0.0270192)
(-4.17553e-09 -1.74115e-09 0.196218)
(-2.17526e-08 -1.55035e-08 0.302596)
(-4.06503e-08 -3.29632e-08 0.327842)
(-4.72619e-08 -4.4776e-08 0.279542)
(-3.8113e-08 -4.33048e-08 0.185331)
(-2.18558e-08 -2.85541e-08 0.0787479)
(-1.03446e-08 -7.22008e-09 -0.0217899)
(-8.78278e-09 1.2072e-08 -0.121573)
(-1.3352e-08 2.30652e-08 -0.229613)
(-1.66218e-08 2.41858e-08 -0.327556)
(-1.43509e-08 1.84364e-08 -0.368389)
(-7.49769e-09 1.0869e-08 -0.315053)
(3.45253e-10 5.35578e-09 -0.176522)
(5.61913e-09 2.74185e-09 -0.0033825)
(5.73e-09 9.30746e-10 0.147548)
(-4.57666e-11 -3.21264e-09 0.243488)
(-9.15887e-09 -1.08526e-08 0.279271)
(-1.64954e-08 -1.94476e-08 0.263689)
(-1.82199e-08 -2.42528e-08 0.208896)
(-1.47577e-08 -2.1969e-08 0.125496)
(-9.74021e-09 -1.33557e-08 0.0199302)
(-6.30599e-09 -2.62618e-09 -0.103648)
(-4.79936e-09 5.60616e-09 -0.232165)
(-3.70214e-09 9.12892e-09 -0.333143)
(-1.82916e-09 8.66182e-09 -0.365208)
(7.60897e-10 6.38272e-09 -0.3078)
(3.28661e-09 4.17981e-09 -0.179793)
(4.88284e-09 2.79804e-09 -0.0282047)
(4.83421e-09 1.84517e-09 0.100854)
(2.84566e-09 3.38193e-10 0.183807)
(-4.94049e-10 -2.42418e-09 0.220337)
(-3.74775e-09 -6.11437e-09 0.220229)
(-5.52877e-09 -9.35531e-09 0.191115)
(-5.42399e-09 -1.06062e-08 0.133756)
(-4.05399e-09 -9.31114e-09 0.0454894)
(-2.32462e-09 -6.28586e-09 -0.0707277)
(-7.53985e-10 -3.014e-09 -0.196165)
(5.65779e-10 -6.02113e-10 -0.294848)
(1.68051e-09 6.84933e-10 -0.329318)
(2.6169e-09 1.17674e-09 -0.284991)
(3.37081e-09 1.33088e-09 -0.180639)
(3.87621e-09 1.43084e-09 -0.055895)
(3.97064e-09 1.497e-09 0.0521588)
(3.49004e-09 1.35843e-09 0.124965)
(2.47504e-09 8.36602e-10 0.162444)
(1.24033e-09 -6.98137e-11 0.172475)
(2.08508e-10 -1.13745e-09 0.159918)
(-3.23707e-10 -2.04753e-09 0.121833)
(-2.94334e-10 -2.5821e-09 0.0516923)
(1.72916e-10 -2.71992e-09 -0.0498195)
(8.69376e-10 -2.57202e-09 -0.164784)
(1.57748e-09 -2.26062e-09 -0.258981)
(2.13723e-09 -1.86329e-09 -0.298208)
(2.49792e-09 -1.42346e-09 -0.269292)
(2.71011e-09 -9.65486e-10 -0.18765)
(2.85341e-09 -4.97267e-10 -0.0860571)
(2.95333e-09 -2.13332e-11 0.00467634)
(2.95254e-09 4.44176e-10 0.0687894)
(2.76161e-09 8.60881e-10 0.105909)
(2.34022e-09 1.18395e-09 0.122757)
(1.74659e-09 1.3688e-09 0.123314)
(1.12424e-09 1.37051e-09 0.10359)
(6.38447e-10 1.16098e-09 0.0548719)
(4.01215e-10 7.63584e-10 -0.0256806)
(4.2778e-10 2.67842e-10 -0.124357)