/*--------------------------------*- C++ -*----------------------------------*\
  =========                 |
  \\      /  F ield         | OpenFOAM: The Open Source CFD Toolbox
   \\    /   O peration     | Website:  https://openfoam.org
    \\  /    A nd           | Version:  11
     \\/     M anipulation  |
\*---------------------------------------------------------------------------*/
FoamFile
{
    format      ascii;
    class       volScalarField;
    location    "18.784906";
    object      p;
}
// * * * * * * * * * * * * * * * * * * * * * * * * * * * * * * * * * * * * * //

dimensions      [0 2 -2 0 0 0 0];

internalField   nonuniform List<scalar> 
7132
(
0.060652
0.0592898
0.054665
0.0480557
0.039022
0.0275717
0.0139474
-0.00130066
-0.0172126
-0.0321189
-0.0444593
-0.0520762
-0.0547269
-0.0524847
-0.046508
-0.0385857
-0.0301903
-0.0224109
-0.0155322
-0.00920403
-0.00294947
0.00339693
0.00965564
0.0155394
0.0208431
0.0255314
0.0296605
0.0332499
0.0361261
0.0378442
0.0379505
0.0365001
0.0343504
0.0326632
0.0321123
0.0325851
0.0335402
0.0344862
0.0352039
0.0357551
0.036335
0.0370884
0.0378227
0.0378802
0.0365261
0.0337334
0.0305487
0.0283762
0.0278996
0.0287535
0.0300482
0.0310666
0.0315445
0.031612
0.0315904
0.031749
0.0319735
0.0316431
0.0300317
0.0271061
0.0239057
0.02187
0.0217269
0.0230657
0.0248403
0.0261755
0.0267481
0.0267116
0.0264427
0.0262497
0.0260595
0.025358
0.0235827
0.0207842
0.0178914
0.0161501
0.0162145
0.0177413
0.0197403
0.0212957
0.0220105
0.0219992
0.0216327
0.0212105
0.0206797
0.0196445
0.0177471
0.0151668
0.0127273
0.0114031
0.0116583
0.0131789
0.0151352
0.0167169
0.0175115
0.0175579
0.0171549
0.0165588
0.0157478
0.014467
0.0125565
0.0102934
0.00837976
0.00752159
0.00797693
0.00942252
0.0111847
0.01262
0.0133761
0.013439
0.0130058
0.0122647
0.0112366
0.00982648
0.00805366
0.00624053
0.00493169
0.00457428
0.00524405
0.00661087
0.00813991
0.00935367
0.00999062
0.0100229
0.00956678
0.00874885
0.00763004
0.00625309
0.00476766
0.00349255
0.00280534
0.00293149
0.00380912
0.00511841
0.0064456
0.00745212
0.00796138
0.00795427
0.00750448
0.00670353
0.00563507
0.00441231
0.0032352
0.00238231
0.00210658
0.00249547
0.00343184
0.00461056
0.00574532
0.00651467
0.0069345
0.00670519
0.00640031
0.00507475
0.00467009
0.00188055
0.00305622
-0.00257763
0.00419503
-0.00913141
0.061197
0.0598384
0.0552276
0.0486206
0.0395627
0.0280336
0.0142497
-0.00126361
-0.0175392
-0.0328522
-0.045558
-0.0532947
-0.0558835
-0.0533751
-0.0470189
-0.0387451
-0.0301053
-0.0222432
-0.0154177
-0.00919461
-0.00301676
0.00330928
0.00959046
0.0155185
0.0208738
0.0256155
0.0297966
0.0334329
0.0363451
0.0380645
0.0381063
0.0365208
0.0342123
0.0324138
0.0318305
0.0323322
0.0333393
0.0343376
0.0351008
0.0356915
0.0363046
0.037088
0.0378464
0.0378999
0.0364823
0.0335653
0.0302449
0.0279949
0.0275263
0.0284519
0.0298346
0.0309277
0.0314591
0.0315608
0.0315578
0.0317246
0.0319446
0.0315821
0.0298935
0.0268513
0.0235353
0.0214398
0.0213169
0.0227415
0.0246241
0.0260536
0.0266913
0.0266906
0.026435
0.0262404
0.0260292
0.0252743
0.0234067
0.0204952
0.0175086
0.0157306
0.0158251
0.0174355
0.0195401
0.0211939
0.0219807
0.0220096
0.0216561
0.0212271
0.020665
0.0195646
0.0175698
0.0148845
0.0123711
0.0110317
0.0113301
0.0129338
0.0149859
0.0166551
0.0175158
0.0176009
0.0172092
0.0165998
0.0157471
0.0143937
0.012389
0.0100361
0.00806922
0.00721321
0.00772104
0.00924972
0.0111
0.012611
0.0134215
0.0135144
0.0130856
0.0123226
0.0112441
0.00975873
0.00790051
0.00601641
0.00467507
0.00433389
0.00506071
0.00650637
0.00811392
0.00939097
0.0100694
0.0101198
0.00965781
0.00880934
0.00763576
0.00618747
0.00463044
0.0033043
0.00260281
0.0027549
0.00368902
0.00506798
0.00646044
0.00751635
0.00805437
0.00805467
0.00759101
0.00675512
0.00563333
0.00434778
0.00311346
0.00222543
0.00194718
0.00236613
0.00335542
0.0045949
0.00578429
0.00659334
0.00703464
0.00680784
0.00648897
0.00512909
0.0046879
0.0018339
0.0030179
-0.00273046
0.00429002
-0.00953093
0.062285
0.0609353
0.0563552
0.0497583
0.0406576
0.0289769
0.0148776
-0.00117015
-0.0181864
-0.0343392
-0.0478027
-0.0557783
-0.058233
-0.0551601
-0.0480046
-0.0390004
-0.0298643
-0.0218521
-0.0151641
-0.00918205
-0.00317481
0.00310729
0.00943659
0.0154566
0.0209171
0.025766
0.0300525
0.0337862
0.0367755
0.0385021
0.0384135
0.0365474
0.0339074
0.0318786
0.0312334
0.0318005
0.0329173
0.034022
0.0348751
0.0355417
0.0362195
0.0370634
0.0378723
0.0379185
0.0363702
0.0331943
0.0295905
0.0271805
0.0267338
0.0278149
0.0293833
0.0306301
0.0312675
0.0314339
0.0314655
0.0316491
0.0318621
0.0314344
0.0295844
0.0262977
0.0227412
0.0205235
0.0204479
0.0220546
0.0241635
0.0257875
0.0265555
0.0266224
0.0263896
0.0261916
0.0259418
0.025083
0.023031
0.0198915
0.0167159
0.0148643
0.0150215
0.0168026
0.0191215
0.0209722
0.0219009
0.0220067
0.0216773
0.0212355
0.0206134
0.0193839
0.0171936
0.0142973
0.0116361
0.0102679
0.0106572
0.0124316
0.0146779
0.0165216
0.0175119
0.0176718
0.0173027
0.0166679
0.0157324
0.0142316
0.0120339
0.00949699
0.00742176
0.00657149
0.00719006
0.00889097
0.010922
0.012586
0.0135053
0.0136578
0.0132389
0.0124331
0.0112527
0.00961238
0.00757674
0.00554486
0.00413607
0.00382905
0.00467544
0.00628449
0.00805361
0.00945997
0.0102229
0.0103105
0.0098383
0.0089291
0.00764397
0.00604808
0.00434145
0.00290804
0.00217605
0.00238179
0.00343345
0.00495651
0.00648329
0.00764044
0.0082376
0.00825406
0.00776397
0.00685821
0.00562761
0.00421213
0.00285817
0.00189587
0.00161134
0.00209209
0.00319074
0.00455541
0.00585704
0.00674742
0.00723315
0.00701235
0.00666671
0.00523719
0.00472151
0.00173381
0.00293156
-0.00304738
0.00447361
-0.0103276
0.0639131
0.0625791
0.058053
0.051483
0.042333
0.0304398
0.0158761
-0.000983709
-0.0191462
-0.0366294
-0.0513029
-0.0596461
-0.0618997
-0.0579452
-0.0495355
-0.0393866
-0.0294719
-0.021233
-0.0147784
-0.00918872
-0.00345191
0.00276646
0.00917538
0.0153381
0.020957
0.0259655
0.03041
0.034292
0.0374035
0.0391442
0.0388476
0.0365279
0.0333534
0.0309642
0.0302408
0.0309347
0.0322383
0.0335121
0.0345002
0.0352765
0.0360467
0.0369774
0.0378581
0.0378835
0.0361153
0.032513
0.0284479
0.0257922
0.0254105
0.0267686
0.0286498
0.0301429
0.0309404
0.0311966
0.0312693
0.0314674
0.0316632
0.0311328
0.0290317
0.0253629
0.021428
0.0190205
0.0190241
0.0209317
0.0234087
0.0253417
0.026308
0.0264694
0.0262624
0.0260555
0.0257477
0.0247298
0.0223917
0.0188981
0.0154319
0.0134744
0.0137414
0.0157982
0.0184524
0.0206043
0.0217443
0.0219618
0.0216677
0.0212087
0.0204953
0.0190616
0.0165587
0.0133264
0.0104346
0.00903184
0.00957977
0.0116343
0.0141882
0.0162996
0.0174837
0.0177548
0.0174216
0.0167507
0.0156855
0.0139466
0.011436
0.00860311
0.0063581
0.0055256
0.00633132
0.00831301
0.0106319
0.0125339
0.0136191
0.0138625
0.0134608
0.0125905
0.0112488
0.00935778
0.00703372
0.00476332
0.00324903
0.00300283
0.00404722
0.00592023
0.00794599
0.00955443
0.0104477
0.0105934
0.0101072
0.00910387
0.0076415
0.00580763
0.00385874
0.00225254
0.00147379
0.00176961
0.00301319
0.00476754
0.00650691
0.00782227
0.00851111
0.00855315
0.00802299
0.00700797
0.0056044
0.00398023
0.00243352
0.00135227
0.00105956
0.00164209
0.00291762
0.00448212
0.00596061
0.00697773
0.00753197
0.00732056
0.00693218
0.00539368
0.00475384
0.00155961
0.00275595
-0.00354412
0.00468428
-0.0114612
0.0660747
0.0647666
0.0603275
0.0538157
0.044629
0.0324828
0.0173196
-0.000639434
-0.0203951
-0.0397896
-0.0562131
-0.0650401
-0.0669783
-0.0617017
-0.0514444
-0.0396613
-0.0286855
-0.0202182
-0.0142142
-0.00927608
-0.00395796
0.00218131
0.00872551
0.0151028
0.0209452
0.0261706
0.0308282
0.0349137
0.0382004
0.0399669
0.0393673
0.0363747
0.03241
0.0295104
0.028714
0.0296366
0.0312356
0.032756
0.0339263
0.0348405
0.0357222
0.0367553
0.03772
0.0376997
0.0355964
0.0313572
0.0266096
0.0236079
0.0233663
0.0251792
0.0275495
0.0294078
0.0304231
0.0307803
0.0308771
0.0310676
0.0312297
0.0305637
0.0281322
0.0239507
0.019497
0.0168164
0.0169324
0.0192725
0.0222803
0.0246536
0.02589
0.0261662
0.0259816
0.0257633
0.0253823
0.0241424
0.0213911
0.0173865
0.0135132
0.0114298
0.011885
0.0143509
0.0174808
0.0200458
0.0214672
0.0218307
0.0215868
0.0211118
0.0202728
0.0185407
0.0155778
0.0118558
0.00863754
0.00720249
0.00800217
0.0104755
0.0134739
0.0159587
0.0174047
0.0178263
0.0175476
0.0168324
0.0155818
0.0134921
0.0105204
0.00725712
0.00477262
0.00397725
0.00506601
0.00745984
0.0101938
0.0124319
0.0137472
0.0141178
0.0137451
0.0127876
0.0112136
0.00895454
0.0062069
0.0035901
0.00192817
0.0017775
0.0031148
0.00537083
0.00776413
0.00965846
0.0107351
0.0109644
0.0104626
0.00932823
0.00761067
0.0054294
0.00312637
0.00126978
0.000427025
0.000858115
0.00238215
0.00446988
0.00651229
0.0080513
0.00887003
0.00895059
0.00836736
0.00719879
0.0055466
0.00361937
0.00179234
0.000539483
0.000237688
0.000970283
0.00250206
0.00435275
0.00608203
0.0072777
0.00792852
0.00773207
0.00728359
0.00559175
0.00476481
0.00128304
0.00244036
-0.00424691
0.00484737
-0.012853
0.0687601
0.0674915
0.0631858
0.056783
0.0475985
0.0351883
0.019312
-4.45943e-05
-0.0219003
-0.0439333
-0.0627977
-0.0722508
-0.0738036
-0.0667497
-0.0539669
-0.0399478
-0.0275217
-0.0187821
-0.0134684
-0.00948411
-0.00475559
0.00129306
0.00803956
0.0147084
0.0208364
0.0263286
0.0312476
0.0355881
0.0391094
0.0409156
0.0398893
0.0359352
0.0308466
0.0272605
0.0264364
0.0277601
0.0298156
0.0316833
0.0330845
0.0341517
0.0351333
0.0362363
0.0372609
0.0371762
0.0346635
0.0295978
0.0239063
0.0203951
0.0203564
0.022861
0.0259638
0.0283445
0.0296372
0.0300826
0.0301559
0.0303036
0.0304195
0.0295845
0.0267181
0.0218601
0.0167421
0.013748
0.014044
0.0169752
0.0206937
0.0236482
0.0252266
0.0256333
0.0254705
0.0252484
0.0247792
0.0232295
0.0198929
0.0151776
0.0107622
0.00854937
0.0093135
0.0123676
0.0161437
0.0192449
0.0210191
0.0215656
0.0213952
0.0209104
0.0198997
0.0177463
0.0141429
0.00975487
0.00610717
0.00465081
0.00581792
0.00887807
0.0124828
0.0154601
0.0172423
0.0178585
0.0176595
0.0168909
0.0153842
0.0128047
0.00919842
0.00535661
0.00256295
0.00183387
0.0033179
0.00627499
0.00956829
0.012252
0.0138681
0.014407
0.0140785
0.0130056
0.011112
0.00834416
0.00501795
0.00193842
9.05286e-05
8.18993e-05
0.00182211
0.00459591
0.00748028
0.00975289
0.0110714
0.0114132
0.0108944
0.00958398
0.00751639
0.00485792
0.00207339
-0.000116014
-0.00103426
-0.000410236
0.00149731
0.00403386
0.0064798
0.00831457
0.00930558
0.00943954
0.00878817
0.00741275
0.00542082
0.00307927
0.000872708
-0.000606702
-0.000911964
3.09215e-05
0.00191116
0.00414561
0.00620757
0.0076387
0.00841685
0.00824171
0.00771109
0.00581297
0.00471785
0.000860163
0.0019158
-0.00518648
0.00486335
-0.0143939
0.0719538
0.0707435
0.0666332
0.0604158
0.0513084
0.0386666
0.0219997
0.000943362
-0.02359
-0.0491895
-0.0713667
-0.0815208
-0.0824698
-0.0728714
-0.0566107
-0.0396668
-0.0254697
-0.0166191
-0.0125263
-0.0100297
-0.00613385
-0.000140527
0.00694925
0.0140369
0.0205335
0.0263427
0.0315631
0.0362069
0.0400278
0.0418774
0.0402466
0.0349225
0.0282521
0.0237905
0.0230799
0.0250947
0.0278469
0.0301949
0.0318755
0.0330799
0.0340757
0.0351219
0.0361307
0.0359813
0.0330836
0.0271247
0.0202705
0.016024
0.0161721
0.0196052
0.0237357
0.0268372
0.0284706
0.0289675
0.0289558
0.0290428
0.0291195
0.0280628
0.0245884
0.0188138
0.0128617
0.00954628
0.0101833
0.0139199
0.0185552
0.022237
0.0242271
0.0247827
0.0246541
0.0244472
0.0238654
0.0218892
0.0177663
0.0121275
0.00703459
0.00469487
0.00590482
0.00975441
0.0143705
0.0181408
0.0203411
0.021113
0.0210487
0.0205611
0.0193187
0.0166009
0.0121658
0.00693959
0.00277004
0.00130839
0.00296125
0.00678279
0.0111639
0.0147594
0.0169558
0.0178157
0.0177263
0.0168907
0.0150432
0.01182
0.0074012
0.00284052
-0.000319845
-0.000946585
0.00104674
0.00471968
0.00871898
0.0119606
0.0139521
0.0147043
0.0144362
0.0132125
0.0108971
0.00746679
0.00340425
-0.000246198
-0.00230658
-0.00211823
0.000138513
0.0035663
0.00706654
0.00981196
0.0114341
0.0119204
0.0113819
0.00984093
0.00731346
0.00403552
0.000639234
-0.00195872
-0.00295352
-0.00206984
0.000329663
0.00343358
0.00638568
0.00859073
0.00979941
0.010004
0.00926683
0.00762171
0.00518533
0.0023074
-0.00038054
-0.00213617
-0.00243048
-0.00120827
0.00111863
0.00383797
0.00631678
0.0080426
0.00898114
0.00883509
0.00819553
0.00602947
0.00456901
0.000243696
0.00111623
-0.00638575
0.00463423
-0.0159566
0.0756328
0.0745052
0.0706712
0.0647462
0.055836
0.0430535
0.0255711
0.00251717
-0.0253692
-0.0557838
-0.0824649
-0.0934658
-0.0938054
-0.0809072
-0.0600127
-0.0391212
-0.0225397
-0.0136324
-0.0113426
-0.0109776
-0.00821879
-0.0022369
0.00536279
0.0130044
0.0199388
0.0260885
0.031619
0.0365955
0.0407613
0.0426169
0.0400847
0.0328106
0.023941
0.0184076
0.0181311
0.0213308
0.025153
0.0281665
0.030169
0.0314349
0.0322565
0.0330439
0.0339589
0.0337681
0.0304885
0.0235353
0.0153655
0.0103037
0.010656
0.0152427
0.0207064
0.0247477
0.0267866
0.0272909
0.027147
0.0271871
0.0272348
0.0258645
0.0215627
0.0146139
0.00765891
0.00403828
0.00519385
0.00999557
0.0157778
0.0203334
0.0228009
0.0235311
0.0234644
0.0232945
0.0225614
0.0200288
0.014931
0.00819121
0.00231482
-0.00014901
0.00162532
0.00646414
0.0121085
0.0166767
0.0193745
0.0204171
0.0204959
0.0200077
0.0184647
0.0150411
0.00960666
0.00340726
-0.0013472
-0.00279361
-0.000554111
0.00417924
0.00948761
0.0138154
0.0164995
0.0176524
0.0177019
0.0167786
0.0144997
0.0104862
0.00510272
-0.000282585
-0.00384185
-0.00432543
-0.00172334
0.00279532
0.00762669
0.0115254
0.0139608
0.0149698
0.014775
0.0133571
0.0105124
0.00627362
0.00134111
-0.00295815
-0.00523653
-0.00479273
-0.00191763
0.00228184
0.00650554
0.00980704
0.0117897
0.012451
0.0118854
0.0100508
0.0069477
0.00291411
-0.00120472
-0.00426298
-0.00531903
-0.00410655
-0.00111534
0.00266121
0.00621001
0.00885241
0.0103213
0.0106124
0.0097672
0.00778169
0.00479089
0.00125911
-0.00199718
-0.00406051
-0.00431856
-0.00274524
0.00012087
0.00341701
0.00638843
0.00846314
0.00959316
0.00948334
0.00870168
0.00619914
0.00426746
-0.000608359
-5.99273e-06
-0.00784284
0.00408302
-0.0174036
0.0797649
0.0787506
0.0752946
0.0698059
0.0612707
0.0485214
0.0302838
0.00497103
-0.0270401
-0.0639465
-0.0966587
-0.108381
-0.107676
-0.0902007
-0.0630515
-0.037189
-0.0178495
-0.00938675
-0.0100887
-0.0129354
-0.0116901
-0.00550142
0.00296641
0.0114041
0.0188742
0.0253673
0.0311696
0.0364098
0.0408195
0.0426214
0.0390009
0.0292043
0.0173319
0.0103163
0.0108868
0.01604
0.0215049
0.0254453
0.0277973
0.0289705
0.0293642
0.0297343
0.0305632
0.0303603
0.0265367
0.0182891
0.00862432
0.00277903
0.0036028
0.00963728
0.0167394
0.0219324
0.0244399
0.0249221
0.0246321
0.0246589
0.0246758
0.022883
0.0175648
0.00925864
0.00118539
-0.00274764
-0.000936657
0.00516016
0.0123033
0.0178637
0.0208659
0.0218017
0.021832
0.0217162
0.0207889
0.0175927
0.0113923
0.00345124
-0.00325959
-0.00584216
-0.00342832
0.00253249
0.00934399
0.0148094
0.0180615
0.0194153
0.0196703
0.0191775
0.0172716
0.0130358
0.006496
-0.00074438
-0.00610268
-0.00750902
-0.00461738
0.00112304
0.0074576
0.0125961
0.0158223
0.017308
0.0175182
0.0164829
0.0136939
0.0087822
0.00234147
-0.0039151
-0.00787057
-0.00817091
-0.0048932
0.000552251
0.0062949
0.0109161
0.013845
0.015145
0.0150292
0.0133716
0.00990367
0.00474838
-0.00113338
-0.00610926
-0.00858558
-0.00783392
-0.00427007
0.000776318
0.00579166
0.00970466
0.0120894
0.0129487
0.0123431
0.0101513
0.00637071
0.00147947
-0.00342701
-0.00695858
-0.00804505
-0.00644429
-0.00278974
0.00173021
0.00593591
0.00906236
0.0108238
0.0112135
0.0102333
0.00783771
0.00419612
-7.78706e-05
-0.00395314
-0.00632731
-0.00651329
-0.00452976
-0.00105563
0.00288179
0.00639831
0.00886114
0.0102063
0.0101359
0.00917634
0.00627105
0.00377118
-0.00170968
-0.00145193
-0.00951038
0.00318112
-0.0186022
0.0843052
0.0834413
0.0804862
0.0756172
0.0677029
0.0552652
0.0364484
0.00868963
-0.028367
-0.0741384
-0.115058
-0.12761
-0.126064
-0.102454
-0.0668165
-0.0342772
-0.0112485
-0.0036013
-0.00871606
-0.0161431
-0.0168796
-0.010185
-0.000405562
0.00908894
0.0171573
0.0239334
0.029841
0.0349258
0.0390925
0.0407643
0.0364955
0.0245803
0.00912305
-0.000473884
0.00074533
0.00868329
0.0165986
0.0218474
0.0245684
0.0254409
0.0251745
0.0250834
0.0258909
0.0256484
0.0210445
0.0112111
-9.96176e-05
-0.00665181
-0.00509608
0.00271951
0.0117497
0.018274
0.0213051
0.0217598
0.0213395
0.0213884
0.0213658
0.0190748
0.0126514
0.00293704
-0.00627806
-0.0105281
-0.00801547
-0.000500056
0.00813874
0.0147881
0.0183603
0.0195264
0.0196831
0.0196311
0.0184817
0.0145743
0.00724138
-0.00189831
-0.00942539
-0.0121153
-0.00903724
-0.00191235
0.00611886
0.0125211
0.0163514
0.0180384
0.0184901
0.0179859
0.015682
0.010594
0.00293484
-0.00532769
-0.0112555
-0.0125936
-0.00903082
-0.00226496
0.00511623
0.0110839
0.0148692
0.0167059
0.0170856
0.0159183
0.0125754
0.0067267
-0.000777103
-0.00787662
-0.0121867
-0.0122699
-0.00829595
-0.00191159
0.00475167
0.0101058
0.0135429
0.0151488
0.0151083
0.0131751
0.00902916
0.0029182
-0.00391256
-0.00953024
-0.0121592
-0.0110628
-0.00678771
-0.000882371
0.00493223
0.0094662
0.0122664
0.0133323
0.0126687
0.0100701
0.00555138
-0.000234933
-0.00592562
-0.00989585
-0.0109713
-0.0089448
-0.00460124
0.000677769
0.00555121
0.00917303
0.0112391
0.0117307
0.0105881
0.00772925
0.00337988
-0.00166821
-0.00615774
-0.00881166
-0.00888708
-0.00645887
-0.00235029
0.00224661
0.00632117
0.00918425
0.0107533
0.0107193
0.00954824
0.00619174
0.00305966
-0.00302993
-0.00316102
-0.0112868
0.00196341
-0.0194386
0.0891947
0.0885244
0.0862134
0.0821927
0.0752263
0.063527
0.0444931
0.0142805
-0.0288372
-0.0868182
-0.138724
-0.151183
-0.148214
-0.116464
-0.0697109
-0.0287443
-0.0015304
0.00415422
-0.0077849
-0.0219762
-0.0252464
-0.0172861
-0.00530138
0.00573037
0.0145112
0.0214643
0.0270236
0.0309609
0.0340362
0.0353264
0.0311352
0.01833
-0.000352523
-0.0133093
-0.0121826
-0.0010552
0.0101259
0.0171569
0.0202878
0.0206632
0.0195938
0.0190797
0.0199344
0.0195984
0.0140824
0.00260052
-0.0103617
-0.0176005
-0.0152185
-0.00541298
0.00574499
0.0137144
0.0173021
0.017739
0.0172146
0.0173125
0.0172555
0.0144709
0.00699548
-0.00402766
-0.0143026
-0.0188608
-0.0156788
-0.00676463
0.00337502
0.0111146
0.0152489
0.0166465
0.0169409
0.0169588
0.0155963
0.0110182
0.002643
-0.00757882
-0.0158295
-0.0185953
-0.0148893
-0.0066619
0.00253085
0.00982415
0.0142021
0.0162109
0.0168604
0.0163442
0.0136565
0.00776765
-0.000914969
-0.0100856
-0.0164954
-0.0177362
-0.0135337
-0.00581145
0.00254043
0.00927518
0.0135814
0.0157541
0.0162973
0.0149944
0.0111117
0.00438071
-0.00408961
-0.0119234
-0.0165087
-0.016352
-0.0117159
-0.0044625
0.00304418
0.00906971
0.0129801
0.0148782
0.0149024
0.0126835
0.00786995
0.000857288
-0.0068292
-0.012989
-0.0157041
-0.0142502
-0.00930074
-0.00260227
0.00394236
0.00904556
0.0122346
0.0134961
0.0127578
0.00973726
0.00448839
-0.00214227
-0.00853384
-0.0128606
-0.0138785
-0.0114226
-0.00642512
-0.000442297
0.00504468
0.00912454
0.0114778
0.0120617
0.0107398
0.00740268
0.00235458
-0.00342176
-0.00845605
-0.0113263
-0.0112579
-0.00838791
-0.00367579
0.00153671
0.00612828
0.0093653
0.0111453
0.0111385
0.00973545
0.00591797
0.00214784
-0.00448618
-0.00500942
-0.0130222
0.000528201
-0.0198297
0.0943567
0.0939268
0.0924196
0.0895122
0.0839093
0.0735358
0.054884
0.0224962
-0.0279661
-0.102941
-0.169961
-0.182523
-0.178677
-0.135306
-0.0730263
-0.0207973
0.0120654
0.014496
-0.00781218
-0.0316341
-0.0378558
-0.0273911
-0.0120063
0.00111319
0.0106977
0.0175771
0.0219417
0.0234833
0.0248571
0.0258965
0.0222505
0.00876268
-0.0126808
-0.0286458
-0.0276113
-0.0131377
0.00192236
0.0111859
0.0147965
0.0145466
0.0126279
0.0117667
0.0127402
0.0123188
0.00596234
-0.0069645
-0.0213944
-0.0293058
-0.0261812
-0.0144282
-0.00113178
0.00828512
0.0124166
0.0128356
0.0122217
0.0123869
0.0123376
0.00917168
0.000849854
-0.0112359
-0.022385
-0.0272101
-0.0234568
-0.0133057
-0.00181204
0.0069073
0.0115292
0.0131178
0.0135359
0.0136331
0.0121204
0.00701553
-0.0021868
-0.0132634
-0.0220747
-0.0248736
-0.0206218
-0.0114539
-0.00127587
0.00676126
0.0115849
0.013858
0.0146839
0.0141724
0.0111794
0.00464516
-0.00485137
-0.0147243
-0.0214778
-0.0225923
-0.0178329
-0.00931226
-0.00016819
0.00717978
0.0119007
0.0143517
0.0150395
0.0136267
0.00929326
0.00183993
-0.00739628
-0.01578
-0.0205291
-0.0201238
-0.0149159
-0.00694829
0.00123105
0.00778388
0.0120724
0.0142152
0.0142923
0.0118204
0.0064336
-0.00132298
-0.00967932
-0.0162231
-0.0189434
-0.0171469
-0.011623
-0.00428055
0.00283973
0.00838946
0.0118926
0.0133177
0.0124998
0.00909545
0.00321255
-0.0041144
-0.0110456
-0.0156062
-0.0165186
-0.0136707
-0.00812149
-0.00156862
0.00440353
0.00884649
0.0114339
0.0120887
0.0105936
0.0068214
0.00116751
-0.00520601
-0.0106533
-0.0136505
-0.0134165
-0.0101513
-0.00493092
0.000782593
0.00578698
0.00932527
0.0112773
0.0112853
0.00965658
0.00542618
0.00108713
-0.00595407
-0.00683064
-0.014541
-0.000982623
-0.0197268
0.0996956
0.0995568
0.09902
0.0975329
0.0937985
0.0855906
0.0682962
0.0346553
-0.0244167
-0.12394
-0.21073
-0.219541
-0.215217
-0.157663
-0.0754069
-0.00867834
0.0301054
0.0269215
-0.0103112
-0.0483753
-0.0579154
-0.0424954
-0.0214254
-0.00517857
0.00542921
0.011818
0.0138598
0.0122336
0.0120654
0.0134534
0.0103801
-0.00420991
-0.0281022
-0.0464012
-0.0450724
-0.0271932
-0.00794506
0.00385216
0.00801463
0.00709537
0.00434267
0.00321828
0.00440896
0.00403976
-0.00286079
-0.0168031
-0.032345
-0.0408615
-0.0371979
-0.0237962
-0.00859211
0.00212118
0.00670813
0.00707043
0.00635441
0.00660304
0.00665767
0.00333688
-0.00548491
-0.0182591
-0.0300058
-0.0350208
-0.0308396
-0.0197328
-0.00717993
0.00228461
0.00723495
0.0089189
0.00941822
0.00961596
0.00807922
0.00269481
-0.00700448
-0.0186112
-0.0277604
-0.0305367
-0.0258615
-0.0160027
-0.0051271
0.00340199
0.00848861
0.0109155
0.0118756
0.0114112
0.0082639
0.0013422
-0.00865488
-0.0189448
-0.0258632
-0.0268246
-0.021636
-0.0125552
-0.00289519
0.00481906
0.00977519
0.0124018
0.0132067
0.0117489
0.00713597
-0.000777394
-0.0104855
-0.0191715
-0.023948
-0.0233006
-0.0176637
-0.00921652
-0.000626038
0.00622655
0.010735
0.0130415
0.0131663
0.0105284
0.00475328
-0.00349012
-0.01225
-0.0189736
-0.0216103
-0.0195141
-0.0135752
-0.00581797
0.00163952
0.00744086
0.0111341
0.0126715
0.011793
0.00810986
0.00178225
-0.00600219
-0.0132469
-0.017889
-0.0186546
-0.0154902
-0.00955528
-0.00264315
0.00361121
0.00826308
0.0109958
0.0116948
0.0100668
0.00597306
-0.000106549
-0.00686827
-0.0125463
-0.0155638
-0.0151574
-0.0115864
-0.00601644
1.25679e-05
0.00526077
0.00897943
0.0110393
0.0110532
0.00924432
0.00471778
-4.30484e-05
-0.00728955
-0.00844456
-0.015671
-0.0024112
-0.0191145
0.105096
0.105293
0.105892
0.106128
0.104858
0.0998008
0.0853106
0.0520256
-0.0177191
-0.150576
-0.26716
-0.272788
-0.267656
-0.187835
-0.0772022
0.00890354
0.0559652
0.0407846
-0.0209648
-0.078179
-0.0889416
-0.0640654
-0.0340221
-0.0133246
-0.00150797
0.00378929
0.00248379
-0.00247401
-0.00365936
-0.00119842
-0.00359183
-0.0190568
-0.0447222
-0.0648089
-0.0632867
-0.0423604
-0.0190817
-0.00472754
-2.05332e-06
-0.00158825
-0.00514184
-0.00644809
-0.00489064
-0.00491893
-0.0118719
-0.0262324
-0.0423983
-0.0513762
-0.0474326
-0.0328756
-0.0162278
-0.00454151
0.000311595
0.000516277
-0.000349549
4.37236e-06
0.000319696
-0.00282724
-0.0116901
-0.0246816
-0.0366805
-0.0417817
-0.0373362
-0.0256414
-0.0124473
-0.00259032
0.00243888
0.00406236
0.00457476
0.00491173
0.00353843
-0.00178877
-0.0115629
-0.0233012
-0.0325205
-0.0352093
-0.0302626
-0.0200302
-0.00883709
-0.000162233
0.00492662
0.0073454
0.00838181
0.00803556
0.00495311
-0.0020102
-0.0121119
-0.0224734
-0.0293485
-0.0301334
-0.0246799
-0.0153424
-0.00552498
0.00222595
0.00716993
0.00982843
0.0107206
0.0093245
0.00467955
-0.00334502
-0.0131582
-0.0218523
-0.0265044
-0.0256358
-0.0197562
-0.0111307
-0.00246842
0.00438232
0.00889551
0.0112573
0.0114382
0.00877764
0.00288186
-0.0055095
-0.014346
-0.0210139
-0.0234762
-0.0211486
-0.0150049
-0.00713033
0.000352901
0.00614694
0.00986264
0.0114483
0.0105614
0.00677202
0.000271848
-0.00765933
-0.0149448
-0.0194983
-0.0200844
-0.0167123
-0.0106128
-0.00361895
0.0026491
0.00730325
0.0100626
0.0107817
0.00910177
0.00486932
-0.00138052
-0.00826156
-0.0139531
-0.0168753
-0.0163046
-0.0125549
-0.00684872
-0.000752142
0.00451326
0.00824871
0.0103321
0.0103546
0.00845554
0.00381622
-0.00115205
-0.00835457
-0.00968603
-0.0162636
-0.00360869
-0.0180072
0.110421
0.110996
0.112865
0.115146
0.11696
0.116482
0.106882
0.0782472
-0.00432503
-0.193752
-0.33746
-0.330388
-0.333446
-0.227946
-0.0802216
0.0313381
0.0820721
0.0598344
-0.0305214
-0.117201
-0.134684
-0.0958831
-0.0512849
-0.0236488
-0.0102239
-0.00664955
-0.0119782
-0.0200933
-0.0215897
-0.0172844
-0.0184908
-0.0339264
-0.0602985
-0.0816501
-0.080369
-0.0573443
-0.0307695
-0.0141982
-0.00902921
-0.0113012
-0.0156438
-0.0170538
-0.0149137
-0.0141747
-0.0205507
-0.0346321
-0.0508533
-0.0600798
-0.0561182
-0.0410114
-0.0235627
-0.0113874
-0.00656905
-0.00669592
-0.00779274
-0.0072995
-0.00651186
-0.00908059
-0.0174538
-0.0301337
-0.0419987
-0.0470562
-0.0425231
-0.0306563
-0.0173247
-0.0075233
-0.00274608
-0.00139349
-0.000955692
-0.000421839
-0.00139426
-0.00626399
-0.0156319
-0.0270588
-0.0360555
-0.0385866
-0.0335381
-0.0232922
-0.0122255
-0.00382296
0.000943676
0.00315082
0.00419668
0.00406614
0.00132079
-0.00527649
-0.0150336
-0.025086
-0.031694
-0.0322836
-0.0267544
-0.0175077
-0.00794946
-0.000553024
0.00407899
0.00659545
0.0075473
0.00635634
0.00198532
-0.00574154
-0.0152466
-0.0236288
-0.0279984
-0.0269425
-0.021038
-0.0125825
-0.00424336
0.00224947
0.00651019
0.0088011
0.0090633
0.00657141
0.000884932
-0.00726029
-0.0158102
-0.0221712
-0.0243715
-0.0219019
-0.0158009
-0.00815572
-0.00101077
0.00447086
0.00801129
0.00957775
0.00876623
0.00509983
-0.0012403
-0.00896119
-0.0159887
-0.0202764
-0.0206602
-0.0172158
-0.0112134
-0.00446406
0.00150186
0.0059143
0.00856269
0.00928667
0.00767426
0.00354173
-0.00256981
-0.00926426
-0.0147337
-0.0174431
-0.0167296
-0.012957
-0.0073691
-0.00149884
0.00351528
0.00707381
0.00908553
0.0091347
0.00727663
0.00276034
-0.00215389
-0.00903645
-0.0104251
-0.0162144
-0.00445486
-0.0164457
0.115521
0.116492
0.119729
0.124244
0.129821
0.134983
0.133502
0.1126
0.0165729
-0.226806
-0.460126
-0.421025
-0.427607
-0.281688
-0.082722
0.0488085
0.110216
0.0787116
-0.027477
-0.135936
-0.176757
-0.133132
-0.0728651
-0.0362273
-0.020709
-0.0193706
-0.0290796
-0.0400803
-0.0410148
-0.0339289
-0.0329998
-0.0471684
-0.0730048
-0.0949878
-0.0944364
-0.0706688
-0.0420563
-0.0239858
-0.0186763
-0.0217374
-0.0269018
-0.0283335
-0.025328
-0.0232997
-0.028407
-0.0414882
-0.0571758
-0.0663989
-0.0626447
-0.0476202
-0.0301145
-0.0180543
-0.0136716
-0.0143714
-0.0158055
-0.0151244
-0.0136141
-0.015162
-0.0224912
-0.0343194
-0.0456564
-0.0505335
-0.0460788
-0.0344682
-0.0215427
-0.0123037
-0.00816698
-0.00733451
-0.00706988
-0.0062658
-0.00657029
-0.0105534
-0.0190145
-0.0296776
-0.0381553
-0.0404586
-0.0354826
-0.0255984
-0.0151312
-0.00745841
-0.003377
-0.00160972
-0.000624002
-0.000423098
-0.00252978
-0.00832577
-0.0172709
-0.0266252
-0.0327429
-0.0331239
-0.0277193
-0.0189295
-0.0100739
-0.00345445
0.000537406
0.0027226
0.00371149
0.00289269
-0.000866915
-0.00786046
-0.0166289
-0.0243748
-0.0283082
-0.0271092
-0.0214135
-0.0134982
-0.00590345
-0.000151053
0.00357938
0.00566705
0.00604982
0.00394809
-0.00116594
-0.0086473
-0.016537
-0.0223409
-0.0241998
-0.0216923
-0.0159017
-0.0088568
-0.0024383
0.00240471
0.00555954
0.00704315
0.00641418
0.00313452
-0.00268214
-0.00981776
-0.0162835
-0.0201322
-0.0203016
-0.0169373
-0.0113156
-0.00516065
0.000165887
0.00407626
0.00646999
0.00719477
0.00579645
0.00203546
-0.00360379
-0.00979278
-0.014802
-0.0171863
-0.016363
-0.012741
-0.00754818
-0.00222063
0.00225459
0.00542969
0.00727308
0.00738166
0.00572394
0.00159639
-0.00297918
-0.0092591
-0.0105789
-0.0154729
-0.00487121
-0.0144927
0.120232
0.121604
0.126206
0.133123
0.142861
0.155593
0.166234
0.170146
0.0638247
-0.214811
-0.53164
-0.489324
-0.560866
-0.363539
-0.10425
0.025096
0.0733582
0.0298529
-0.0365582
-0.14074
-0.203755
-0.167296
-0.0957523
-0.0501937
-0.0325812
-0.0339017
-0.048188
-0.0617779
-0.0611309
-0.0501097
-0.0458703
-0.0575342
-0.0816526
-0.103542
-0.104094
-0.0810104
-0.0519244
-0.033375
-0.0284217
-0.0324915
-0.0385582
-0.0399186
-0.0357137
-0.0318383
-0.035006
-0.0464214
-0.0610272
-0.0699819
-0.0666072
-0.0522558
-0.0354517
-0.0241694
-0.0206903
-0.0222505
-0.0241404
-0.0232098
-0.0207121
-0.0208015
-0.026561
-0.0370338
-0.0474734
-0.052034
-0.0478067
-0.0368578
-0.0248747
-0.0167184
-0.0136333
-0.0135855
-0.013593
-0.0124378
-0.011804
-0.0144818
-0.0215589
-0.0310316
-0.0387129
-0.0407235
-0.0359867
-0.0268254
-0.0174219
-0.0109367
-0.00790968
-0.00681397
-0.00595514
-0.0053018
-0.00646831
-0.0110384
-0.0187231
-0.0270114
-0.0324313
-0.0325967
-0.0275134
-0.0195375
-0.0118192
-0.00639477
-0.00337023
-0.00170404
-0.000695929
-0.000970536
-0.00378197
-0.00961666
-0.0172369
-0.0240407
-0.0273988
-0.0261073
-0.0208533
-0.0138419
-0.00740396
-0.0027677
0.000158885
0.00191522
0.0024649
0.000980983
-0.00319799
-0.00960777
-0.0164802
-0.0214944
-0.0229449
-0.020511
-0.0152989
-0.00921888
-0.00390558
-1.93278e-05
0.00254527
0.00388955
0.00355927
0.000937271
-0.00399408
-0.0101803
-0.0157962
-0.0190481
-0.0190019
-0.0158755
-0.0109177
-0.0057006
-0.00134173
0.0018136
0.00381518
0.00454467
0.00351666
0.000404289
-0.00443208
-0.00980763
-0.0141325
-0.0160917
-0.0152003
-0.011907
-0.00738514
-0.00291085
0.000745302
0.0033364
0.00492045
0.00512982
0.00384159
0.000372433
-0.00358157
-0.00898966
-0.0101175
-0.0140403
-0.00482463
-0.0122281
0.124392
0.126122
0.132008
0.141124
0.155345
0.175174
0.204793
0.20138
0.159438
-0.24961
-0.711453
-0.564842
-0.650349
-0.462061
-0.18678
-0.0756614
-0.0452176
-0.0451992
-0.0681146
-0.144208
-0.213896
-0.192201
-0.116581
-0.064214
-0.0451407
-0.0494914
-0.0684802
-0.0842521
-0.0808791
-0.0646639
-0.0560151
-0.0642046
-0.0856753
-0.106764
-0.108589
-0.087424
-0.0594631