/*--------------------------------*- C++ -*----------------------------------*\
  =========                 |
  \\      /  F ield         | OpenFOAM: The Open Source CFD Toolbox
   \\    /   O peration     | Website:  https://openfoam.org
    \\  /    A nd           | Version:  11
     \\/     M anipulation  |
\*---------------------------------------------------------------------------*/
FoamFile
{
    format      ascii;
    class       surfaceScalarField;
    location    "14.318037";
    object      phi_0;
}
// * * * * * * * * * * * * * * * * * * * * * * * * * * * * * * * * * * * * * //

dimensions      [0 3 -1 0 0 0 0];

internalField   nonuniform List<scalar> 
14638
(
0.00250207
-2.07002e-06
0.00250848
-6.40631e-06
0.00251975
-1.12759e-05
0.00253653
-1.67799e-05
0.00255939
-2.28606e-05
0.00258854
-2.9144e-05
0.00262355
-3.50099e-05
0.00266293
-3.93812e-05
0.00270407
-4.11434e-05
0.00274317
-3.91019e-05
0.00277579
-3.2621e-05
0.00279815
-2.2352e-05
0.00280744
-9.29175e-06
0.00280215
5.28836e-06
0.00278259
1.95616e-05
0.00275147
3.11153e-05
0.00271384
3.76335e-05
0.00267608
3.77588e-05
0.00264479
3.1293e-05
0.00262555
1.9234e-05
0.00262186
3.69673e-06
0.00263404
-1.21798e-05
0.00265842
-2.43799e-05
0.00268732
-2.89035e-05
0.0027109
-2.3583e-05
0.00272057
-9.66518e-06
0.00271197
8.60035e-06
0.00268583
2.61357e-05
0.00264672
3.91084e-05
0.00260118
4.55478e-05
0.00255631
4.48623e-05
0.00251917
3.71476e-05
0.00249632
2.28477e-05
0.00249335
2.96585e-06
0.00251359
-2.02414e-05
0.00255601
-4.2412e-05
0.00261335
-5.73431e-05
0.00267266
-5.93075e-05
0.00271904
-4.63819e-05
0.00274116
-2.21213e-05
0.00273503
6.1341e-06
0.00270411
3.09201e-05
0.00265656
4.75487e-05
0.00260197
5.45837e-05
0.00254941
5.256e-05
0.00250692
4.24902e-05
0.00248175
2.51712e-05
0.00248014
1.6068e-06
0.00250585
-2.57031e-05
0.00255742
-5.15687e-05
0.00262609
-6.86708e-05
0.00269656
-7.04739e-05
0.00275149
-5.4932e-05
0.0027777
-2.62047e-05
0.00277056
7.13718e-06
0.00273444
3.61158e-05
0.00267955
5.4898e-05
0.0026177
6.18449e-05
0.00255952
5.81794e-05
0.00251361
4.59148e-05
0.00248702
2.65923e-05
0.00248547
1.5451e-06
0.00251212
-2.66475e-05
0.00256505
-5.29364e-05
0.00263546
-7.04077e-05
0.00270838
-7.29181e-05
0.00276665
-5.82744e-05
0.00279649
-2.98325e-05
0.00279187
4.62175e-06
0.00275586
3.6006e-05
0.00269848
5.73786e-05
0.00263261
6.58655e-05
0.00257033
6.22801e-05
0.00252118
4.91582e-05
0.00249231
2.88686e-05
0.00248903
3.27769e-06
0.00251398
-2.4954e-05
0.00256509
-5.11006e-05
0.00263398
-6.88995e-05
0.0027069
-7.29113e-05
0.00276801
-6.11148e-05
0.00280402
-3.60074e-05
0.00280773
-3.7152e-06
0.00277962
2.81128e-05
0.00272698
5.26427e-05
0.00266135
6.56257e-05
0.00259533
6.60175e-05
0.00254009
5.52448e-05
0.00250439
3.56969e-05
0.00249456
9.8331e-06
0.00251381
-1.92548e-05
0.00256066
-4.68469e-05
0.0026276
-6.69404e-05
0.00270187
-7.42652e-05
0.00276847
-6.66073e-05
0.00281429
-4.58149e-05
0.00283124
-1.69554e-05
0.00281762
1.36214e-05
0.00277746
4.01659e-05
0.00271883
5.86287e-05
0.00265197
6.68577e-05
0.00258767
6.43019e-05
0.00253613
5.15354e-05
0.00250622
2.99138e-05
0.00250443
1.78823e-06
0.00253326
-2.88318e-05
0.00258948
-5.62214e-05
0.00266376
-7.42713e-05
0.00274244
-7.86804e-05
0.00281108
-6.86482e-05
0.0028582
-4.71177e-05
0.00287779
-1.95875e-05
0.00286999
7.79711e-06
0.00283997
3.0025e-05
0.00279574
4.42319e-05
0.00274611
4.96217e-05
0.00269948
4.66312e-05
0.00266338
3.60994e-05
0.00264426
1.91237e-05
0.0026466
-2.33903e-06
0.00267147
-2.48757e-05
0.00271541
-4.3932e-05
0.00277058
-5.51705e-05
0.0028267
-5.6125e-05
0.00287386
-4.71584e-05
0.00290511
-3.12525e-05
0.002918
-1.28867e-05
0.00291463
3.3728e-06
0.00290059
1.40354e-05
0.00288329
1.73024e-05
0.0028702
1.30929e-05
0.00286755
2.65071e-06
0.00287956
-1.20119e-05
0.0029081
-2.85437e-05
0.00295254
-4.44433e-05
0.00300965
-5.71036e-05
0.00307362
-6.39696e-05
0.00313658
-6.29656e-05
0.00318967
-5.30858e-05
0.00322453
-3.4865e-05
0.00323502
-1.04844e-05
0.00321844
1.65811e-05
0.00317617
4.22657e-05
0.00311333
6.28375e-05
0.00303762
7.57102e-05
0.00295775
7.98719e-05
0.00288193
7.58224e-05
0.00281681
6.51213e-05
0.00276697
4.98343e-05
0.00273488
3.20904e-05
0.002721
1.3886e-05
0.00272405
-3.04907e-06
0.00274126
-1.72139e-05
0.00276879
-2.75279e-05
0.002802
-3.32095e-05
0.00283608
-3.40868e-05
0.00286657
-3.04888e-05
0.0028892
-2.2629e-05
0.00290362
-1.44136e-05
4.2585e-06
0.00250205
-4.11857e-06
0.0025084
-1.2755e-05
0.0025196
-2.24777e-05
0.00253633
-3.35085e-05
0.00255921
-4.57472e-05
0.00258853
-5.84591e-05
0.00262393
-7.04095e-05
0.00266395
-7.94039e-05
0.00270598
-8.3168e-05
0.00274606
-7.91858e-05
0.00277956
-6.61172e-05
0.00280256
-4.53583e-05
0.00281219
-1.89225e-05
0.0028068
1.06772e-05
0.0027866
3.97679e-05
0.00275432
6.33899e-05
0.00271521
7.67522e-05
0.0026759
7.70652e-05
0.00264328
6.39162e-05
0.0026232
3.93081e-05
0.00261941
7.48594e-06
0.00263243
-2.52012e-05
0.00265854
-5.04883e-05
0.00268964
-5.99996e-05
0.00271518
-4.91204e-05
0.00272594
-2.04248e-05
0.00271735
1.71891e-05
0.00269032
5.31588e-05
0.00264978
7.96478e-05
0.00260256
9.2768e-05
0.00255597
9.14571e-05
0.00251715
7.59647e-05
0.00249288
4.7115e-05
0.0024891
6.74832e-06
0.00250961
-4.07542e-05
0.00255373
-8.65227e-05
0.00261401
-0.000117624
0.00267665
-0.000121956
0.00272566
-9.53859e-05
0.00274889
-4.53558e-05
0.00274227
1.27587e-05
0.00270973
6.34571e-05
0.00266007
9.7209e-05
0.00260332
0.000111338
0.00254869
0.000107184
0.00250429
8.68925e-05
0.00247752
5.19444e-05
0.00247505
4.07709e-06
0.00250122
-5.18781e-05
0.00255496
-0.000105309
0.00262721
-0.000140916
0.00270163
-0.000144896
0.00275958
-0.000112878
0.00278696
-5.35897e-05
0.00277907
1.50304e-05
0.00274084
7.4347e-05
0.00268329
0.000112447
0.00261888
0.000126256
0.00255844
0.000118612
0.00251054
9.38175e-05
0.00248219
5.49487e-05
0.00247931
4.42349e-06
0.00250552
-5.28594e-05
0.00255938
-0.000106795
0.00263215
-0.000143184
0.00270839
-0.000149159
0.00277
-0.000119878
0.00280217
-6.20071e-05
0.0027983
8.4903e-06
0.00276147
7.28444e-05
0.00270216
0.00011668
0.00263393
0.000134104
0.00256927
0.000126938
0.00251789
0.000100533
0.00248707
5.96901e-05
0.00248241
7.93396e-06
0.00250706
-4.96008e-05
0.00255923
-0.000103272
0.00263034
-0.000140009
0.00270588
-0.000148445
0.00276924
-0.000124474
0.00280664
-7.34138e-05
0.00281083
-7.90237e-06
0.0027824
5.65424e-05
0.00272885
0.000106194
0.00266189
0.00013258
0.00259427
0.000133643
0.00253732
0.000112192
0.00250018
7.28374e-05
0.00248973
2.02869e-05
0.00250975
-3.92753e-05
0.00255888
-9.59821e-05
0.00262908
-0.000137143
0.00270654
-0.000151722
0.00277525
-0.000135313
0.00282154
-9.21123e-05
0.0028375
-3.29109e-05
0.00282197
2.9148e-05
0.00277966
8.24748e-05
0.00271913
0.000119168
0.00265075
0.000135234
0.00258529
0.000129765
0.00253298
0.000103842
0.00250297
5.99225e-05
0.00250223
2.52979e-06
0.00253352
-6.01258e-05
0.00259334
-0.000116038
0.0026715
-0.00015243
0.00275332
-0.000160505
0.00282357
-0.000138899
0.00287045
-9.39909e-05
0.00288815
-3.72898e-05
0.00287738
1.8562e-05
0.002844
6.34087e-05
0.00279665
9.15786e-05
0.00274461
0.00010167
0.00269648
9.47527e-05
0.00266
7.25867e-05
0.00264178
3.73425e-05
0.00264647
-7.02883e-06
0.00267502
-5.34302e-05
0.00272339
-9.2295e-05
0.0027828
-0.000114583
0.00284201
-0.000115341
0.00289048
-9.56263e-05
0.00292113
-6.18997e-05
0.00293181
-2.35633e-05
0.00292517
1.0007e-05
0.00290741
3.17967e-05
0.0028864
3.83095e-05
0.00286996
2.95391e-05
0.00286451
8.10279e-06
0.00287442
-2.1925e-05
0.00290174
-5.58632e-05
0.00294602
-8.87281e-05
0.00300415
-0.000115231
0.00307024
-0.000130061
0.00313609
-0.000128809
0.00319227
-0.000109269
0.00322989
-7.24814e-05
0.00324234
-2.29433e-05
0.00322674
3.21885e-05
0.00318443
8.4576e-05
0.00312069
0.000126572
0.00304352
0.000152886
0.00296193
0.000161463
0.0028844
0.00015335
0.00281776
0.000131755
0.00276669
0.000100907
0.00273365
6.51349e-05
0.00271907
2.84649e-05
0.00272166
-5.64308e-06
0.00273865
-3.41982e-05
0.00276615
-5.50316e-05
0.0027995
-6.65599e-05
0.00283382
-6.84098e-05
0.00286454
-6.12038e-05
0.00288731
-4.53988e-05
0.00290169
-2.88005e-05
8.75848e-06
0.002502
-6.12354e-06
0.00250823
-1.89835e-05
0.00251928
-3.35273e-05
0.0025359
-5.01285e-05
0.00255884
-6.86794e-05
0.00258849
-8.81115e-05
0.00262467
-0.000106588
0.00266598
-0.000120718
0.00270979
-0.000126976
0.00275185
-0.000121249
0.00278709
-0.000101352
0.00281136
-6.96328e-05
0.00282161
-2.91736e-05
0.00281596
1.63281e-05
0.00279441
6.13216e-05
0.00275977
9.80282e-05
0.00271767
0.000118853
0.00267531
0.000119428
0.00264013
9.90969e-05
0.00261854
6.08928e-05
0.00261479
1.12407e-05
0.00262973
-4.01447e-05
0.00265951
-8.02685e-05
0.00269511
-9.55982e-05
0.00272449
-7.84973e-05
0.00273714
-3.3078e-05
0.00272812
2.62111e-05
0.00269884
8.24347e-05
0.00265507
0.000123418
0.00260432
0.000143517
0.00255428
0.000141498
0.00251233
0.000117914
0.00248558
7.38632e-05
0.00248063
1.16981e-05
0.00250223
-6.23482e-05
0.0025503
-0.000134599
0.00261693
-0.000184256
0.00268645
-0.000191473
0.00274047
-0.000149401
0.0027653
-7.01872e-05
0.00275685
2.12107e-05
0.00272026
0.000100039
0.00266581
0.000151665
0.00260447
0.000172675
0.0025458
0.000165853
0.00249792
0.000134776
0.00246841
8.14496e-05
0.00246456
7.93126e-06
0.0024916
-7.89218e-05
0.00254919
-0.000162899
0.00262812
-0.000219844
0.00271048
-0.000227254
0.00277494
-0.000177339
0.00280509
-8.37395e-05
0.00279561
2.45064e-05
0.00275268
0.000117278
0.0026893
0.000175826
0.00261947
0.000196087
0.00255458
0.0001835
0.002503
0.000145403
0.00247146
8.6487e-05
0.00246616
9.72166e-06
0.00249162
-7.83223e-05
0.00254735
-0.000162522
0.00262471
-0.000220546
0.00270719
-0.000231632
0.00277489
-0.000187586
0.00281131
-9.84229e-05
0.00280875
1.10477e-05
0.00277026
0.000111334
0.00270724
0.000179701
0.00263445
0.0002069
0.00256532
0.000196066
0.00251
0.000155854
0.00247612
9.35676e-05
0.00247006
1.39993e-05
0.00249586
-7.54093e-05
0.00255198
-0.000159386
0.00262873
-0.000216763
0.00270969
-0.000229403
0.00277657
-0.000191358
0.00281498
-0.000111821
0.00281804
-1.09663e-05
0.0027872
8.73845e-05
0.00273068
0.000162717
0.00266061
0.000202652
0.00258992
0.000204332
0.00253024
0.000171868
0.00249139
0.000111693
0.00248128
3.03938e-05
0.00250452
-6.25142e-05
0.00255952
-0.000150981
0.00263676
-0.00021439
0.00272037
-0.000235327
0.00279255
-0.000207495
0.00283885
-0.000138407
0.00285167
-4.57362e-05
0.00283111
4.97074e-05
0.00278336
0.000130225
0.00271811
0.000184418
0.00264624
0.000207108
0.00257852
0.000197485
0.00252528
0.000157077
0.00249616
8.90434e-05
0.00249874
-4.42778e-08
0.0025358
-9.71929e-05
0.00260285
-0.000183088
0.002688
-0.000237578
0.00277491
-0.000247409
0.00284727
-0.000211261
0.00289299
-0.000139713
0.00290667
-5.09729e-05
0.00288994
3.52928e-05
0.00284987
0.000103478
0.00279633
0.000145119
0.0027395
0.000158502
0.00268859
0.000145667
0.00265172
0.000109451
0.00263593
5.31355e-05
0.00264596
-1.70638e-05
0.00268219
-8.96523e-05
0.00273907
-0.000149183
0.00280597
-0.000181476
0.00287
-0.000179373
0.0029198
-0.00014543
0.00294837
-9.04726e-05
0.00295428
-2.94718e-05
0.00294121
2.30791e-05
0.00291639
5.66215e-05
0.00288855
6.6145e-05
0.00286609
5.19959e-05
0.00285581
1.83837e-05
0.00286239
-2.8499e-05
0.00288822
-8.16999e-05
0.00293323
-0.000133736
0.00299436
-0.000176362
0.00306531
-0.000201009
0.00313695
-0.000200451
0.00319876
-0.000171083
0.00324087
-0.000114589
0.00325608
-3.81496e-05
0.00324127
4.69931e-05
0.00319797
0.000127883
0.00313185
0.000192684
0.0030515
0.000233244
0.0029665
0.000246455
0.00288583
0.00023402
0.00281661
0.000200979
0.00276361
0.000153903
0.00272929
9.94613e-05
0.00271398
4.37726e-05
0.00271631
-7.96978e-06
0.00273341
-5.12968e-05
0.00276133
-8.29552e-05
0.00279527
-0.0001005
0.00283022
-0.000103358
0.00286132
-9.23014e-05
0.00288421
-6.82954e-05
0.00289807
-4.26578e-05
1.4029e-05
0.00250194
-8.05933e-06
0.00250797
-2.502e-05
0.00251877
-4.43276e-05
0.0025352
-6.6555e-05
0.00255816
-9.16416e-05
0.00258828
-0.000118233
0.00262561
-0.000143918
0.00266888
-0.00016399
0.00271545
-0.00017354
0.00276059
-0.000166389
0.00279852
-0.000139279
0.00282477
-9.58919e-05
0.00283605
-4.04449e-05
0.00283005
2.23256e-05
0.00280642
8.49543e-05
0.00276807
0.000136369
0.00272131
0.00016562
0.00267419
0.000166547
0.00263503
0.000138251
0.00261108
8.48461e-05
0.00260734
1.49853e-05
0.00262526
-5.8067e-05
0.00266083
-0.00011584
0.00270358
-0.000138345
0.00273902
-0.000113945
0.00275458
-4.86345e-05
0.00274472
3.6075e-05
0.00271175
0.000115406
0.00266284
0.000172325
0.00260661
0.000199745
0.00255132
0.00019679
0.00250463
0.000164604
0.0024741
0.000104393
0.00246736
1.84368e-05
0.00249076
-8.57508e-05
0.00254538
-0.000189218
0.00262241
-0.000261279
0.00270291
-0.000271979
0.00276458
-0.000211065
0.00279138
-9.69915e-05
0.00277947
3.31197e-05
0.0027361
0.000143411
0.00267393
0.000213836
0.00260548
0.000241127
0.00254074
0.000230589
0.0024877
0.000187819
0.00245381
0.000115341
0.00244667
1.50708e-05
0.00247263
-0.000104886
0.00253304
-0.00022331
0.00261975
-0.000306553
0.00271368
-0.000321177
0.00278975
-0.000253409
0.00282706
-0.000121055
0.0028179
3.36718e-05
0.0027694
0.000165774
0.00269768
0.000247543
0.00261964
0.00027413
0.00254793
0.000255214
0.00249067
0.00020266
0.00245416
0.000122991
0.00244525
1.86407e-05
0.00247018
-0.000103261
0.00252978
-0.000222117
0.0026147
-0.000305465
0.00270599
-0.000322925
0.00278123
-0.000262827
0.00282232
-0.000139511
0.00282094
1.24302e-05
0.00278022
0.000152051
0.00271242
0.000247504
0.00263359
0.000285726
0.00255836
0.000271303
0.00249767
0.000216534
0.00246016
0.000131087
0.00245361
2.0541e-05
0.00248327
-0.000105064
0.0025471
-0.000223215
0.0026331
-0.00030277
0.00272181
-0.000318103
0.00279268
-0.000262234
0.00283077
-0.000149904
0.00283018
-1.03801e-05
0.00279404
0.000123526
0.00273199
0.000224766
0.00265689
0.000277753
0.00258188
0.000279341
0.00251893
0.00023482
0.00247879
0.000151834
0.0024707
3.84844e-05
0.00249987
-9.16861e-05
0.00256372
-0.000214834
0.00265042
-0.000301086
0.00274155
-0.000326456
0.00281756
-0.000283509
0.00286329
-0.000184136
0.00287153
-5.39742e-05
0.0028437
7.75357e-05
0.00278789
0.000186036
0.00271547
0.000256834
0.00263826
0.000284322
0.00256732
0.000268424
0.00251325
0.000211144
0.00248625
0.000116044
0.0024943
-8.09696e-06
0.00253959
-0.000142484
0.00261581
-0.000259303
0.00270886
-0.000330625
0.00280077
-0.00033932
0.00287457
-0.000285061
0.00291821
-0.000183357
0.00292677
-5.95356e-05
0.00290272
5.935e-05
0.00285434
0.00015186
0.0027929
0.000206554
0.00272985
0.000221547
0.0026754
0.000200125
0.00263847
0.000146376
0.00262669
6.49177e-05
0.0026447
-3.50756e-05
0.00269152
-0.000136472
0.00275919
-0.000216854
0.00283447
-0.000256754
0.00290278
-0.000247684
0.00295232
-0.000194973
0.0029767
-0.000114844
0.00297558
-2.83555e-05
0.0029539
4.47559e-05
0.00292004
9.04823e-05
0.00288366
0.000102531
0.00285378
8.18713e-05
0.00283771
3.44576e-05
0.00284067
-3.14614e-05
0.00286573
-0.00010676
0.00291321
-0.000181221
0.00297979
-0.000242941
0.00305805
-0.000279268
0.00313734
-0.00027974
0.00320578
-0.000239521
0.00325264
-0.000161453
0.00327039
-5.58985e-05
0.00325591
6.14759e-05
0.00321095
0.000172844
0.00314168
0.000261955
0.00305729
0.000317629
0.00296809
0.000335658
0.0028836
0.000318513
0.00281131
0.000273269
0.00275614
0.000209071
0.0027205
0.000135099
0.00270463
5.96445e-05
0.00270702
-1.03652e-05
0.00272471
-6.89814e-05
0.00275359
-0.000111839
0.00278862
-0.000135527
0.00282455
-0.000139286
0.00285612
-0.000123878
0.00287904
-9.12141e-05
0.00289186
-5.54711e-05
2.05739e-05
0.00250184
-9.89566e-06
0.00250759
-3.07784e-05
0.00251802
-5.4755e-05
0.00253413
-8.26637e-05
0.00255706
-0.000114568
0.00258773
-0.000148906
0.00262655
-0.00018274
0.00267247
-0.000209907
0.00272286
-0.000223933
0.0027723
-0.000215822
0.00281394
-0.000180919
0.00284292
-0.000124872
0.00285562
-5.31457e-05
0.00284922
2.8721e-05
0.0028228
0.000111371
0.00277939
0.000179785
0.00272616
0.000218848
0.0026724
0.000220306
0.00262764
0.000183012
0.00260025
0.000112233
0.00259637
1.88646e-05
0.0026184
-8.00967e-05
0.00266222
-0.000159659
0.00271528
-0.000191404
0.00275948
-0.000158144
0.00277911
-6.82644e-05
0.00276786
4.73275e-05
0.00272948
0.000153789
0.00267329
0.000228514
0.00260948
0.000263552
0.00254701
0.000259255
0.00249381
0.000217813
0.00245793
0.000140272
0.00244846
2.79027e-05
0.00247405
-0.000111342
0.0025375
-0.000252665
0.00262916
-0.000352939
0.00272577
-0.000368585
0.00279887
-0.000284172
0.00282849
-0.000126614
0.0028112
5.04188e-05
0.00275771
0.000196898
0.00268448
0.000287062
0.00260625
0.000319359
0.00253344
0.000303402
0.00247334
0.000247918
0.00243249
0.00015619
0.00241852
2.90366e-05
0.00243993
-0.000126294
0.00250145
-0.00028483
0.00259667
-0.000401773
0.00270483
-0.00042934
0.0027966
-0.000345177
0.00284588
-0.000170335
0.00284098
3.85755e-05
0.00278854
0.00021821
0.00270772
0.000328364
0.00261939
0.000362457
0.00253851
0.000336097
0.00247343
0.000267745
0.00243047
0.000165946
0.00241813
3.09816e-05
0.00244517
-0.000130301
0.00251292
-0.000289871
0.00260939
-0.000401929
0.00271147
-0.000425006
0.00279373
-0.00034509
0.00283731
-0.000183092
0.00283465
1.50985e-05
0.00278987
0.000196821
0.00271613
0.000321252
0.00263035
0.000371507
0.00254806
0.000353591
0.00248135
0.00028324
0.00244055
0.000171891
0.00243545
2.56414e-05
0.002472
-0.000141617
0.0025465
-0.000297713
0.00264362
-0.000399889
0.00274068
-0.000415162
0.00281521
-0.000336771
0.00285183
-0.000186518
0.00284566
-4.20987e-06
0.00280182
0.000167368
0.00273196
0.000294626
0.00265011
0.000359599
0.00256984
0.000359608
0.00250357
0.000301087
0.00246315
0.00019226
0.00245897
4.26628e-05
0.00249615
-0.000128866
0.00257017
-0.000288849
0.00266639
-0.000397315
0.00276425
-0.000424309
0.00284315
-0.00036241
0.00288773
-0.00022872
0.00289108
-5.7321e-05
0.00285553
0.000113089
0.00279077
0.000250789
0.00271001
0.000337595
0.00262639
0.000367948
0.00255171
0.000343097
0.00249717
0.000265688
0.00247351
0.000139702
0.00248862
-2.32109e-05
0.00254324
-0.0001971
0.00262859
-0.000344654
0.00272836
-0.000430398
0.0028235
-0.000434461
0.00289708
-0.000358635
0.0029376
-0.000223882
0.00294072
-6.26519e-05
0.00290945
9.0623e-05
0.00285291
0.000208395
0.00278356
0.000275903
0.00271419
0.000290919
0.00265634
0.000257975
0.0026202
0.00018252
0.00261411
7.10057e-05
0.00264217
-6.31351e-05
0.00270108
-0.000195383
0.00277958
-0.000295355
0.00286165
-0.000338829
0.00293154
-0.000317574
0.00297784
-0.000241272
0.00299542
-0.000132419
0.00298539
-1.83317e-05
0.00295395
7.62018e-05
0.00291044
0.000133994
0.00286523
0.000147736
0.00282792
0.000119182
0.00280642
5.59607e-05
0.00280682
-3.18614e-05
0.002833
-0.00013294
0.00288532
-0.000233543
0.00295927
-0.000316896
0.00304552
-0.000365519
0.00313174
-0.000365959
0.00320526
-0.000313033
0.00325532
-0.000211519
0.00327465
-7.52267e-05
0.00326029
7.5836e-05
0.00321408
0.000219049
0.00314238
0.000333662
0.00305474
0.000405268
0.002962
0.000428401
0.00287423
0.000406281
0.00279933
0.000348167
0.00274241
0.000265992
0.00270589
0.000171621
0.00268993
7.56004e-05
0.00269295
-1.33844e-05
0.00271181
-8.78396e-05
0.00274216
-0.00014219
0.00277857
-0.00017194
0.00281552
-0.00017623
0.00284735
-0.00015571
0.00286995
-0.000113815
0.00288117
-6.66943e-05
2.87766e-05
0.0025017
-1.15964e-05
0.00250708
-3.61542e-05
0.00251697
-6.46517e-05
0.00253259
-9.82773e-05
0.00255534
-0.00013732
0.00258657
-0.000180138
0.00262718
-0.000223351
0.00267646
-0.000259184
0.00273191
-0.000279387
0.00278707
-0.000270978
0.00283361
-0.00022746
0.00286625
-0.00015751
0.00288104
-6.79386e-05
0.00287432
3.54385e-05
0.00284425
0.000141444
0.00279399
0.000230043
0.00273208
0.000280761
0.00266946
0.000282928
0.00261719
0.000235277
0.00258508
0.000144348
0.00258076
2.31811e-05
0.00260811
-0.000107451
0.00266312
-0.000214665
0.00273042
-0.000258702
0.00278672
-0.000214442
0.00281182
-9.33666e-05
0.00279841
6.07345e-05
0.00275249
0.000199704
0.00268653
0.000294475
0.00261285
0.000337238
0.00254117
0.000330934
0.00247953
0.000279452
0.00243646
0.000183336
0.00242234
4.20236e-05
0.00244766
-0.000136658
0.00251755
-0.000322557
0.00262434
-0.000459726
0.00274262
-0.000486863
0.00283554
-0.000377094
0.00287394
-0.000165011
0.00285208
7.22783e-05
0.00278561
0.000263368
0.00269757
0.000375098
0.00260661
0.000410316
0.00252364
0.000386378
0.00245424
0.000317313
0.00240324
0.000207189
0.00237934
5.29427e-05
0.00239571
-0.000142662
0.00246135
-0.000350479
0.00256906
-0.000509474
0.00269323
-0.000553511
0.00280003
-0.000451975
0.00286061
-0.000230917
0.00286098
3.81989e-05
0.0028064
0.000272795
0.00271732
0.000417441
0.00261803
0.000461749
0.00252629
0.000427832
0.00245172
0.00034232
0.00240205
0.000215619
0.00238853
4.45014e-05
0.0024219
-0.000163675
0.00250191
-0.000369883
0.0026121
-0.000512121
0.00272504
-0.000537943
0.00281286
-0.000432907
0.00285641
-0.000226645
0.00284951
2.20033e-05
0.00279821
0.000248117
0.00271704
0.000402422
0.00262362
0.00046493
0.00253402
0.000443185
0.00246158
0.000355679
0.00241879
0.000214687
0.00241731
2.71215e-05
0.00246273
-0.000187036
0.00254846
-0.000383444
0.0026557
-0.000507131
0.00275952
-0.000518984
0.0028366
-0.000413847
0.00287139
-0.000221313
0.00285952
7.66485e-06
0.0028075
0.00021939
0.00272895
0.000373173
0.0026395
0.000449052
0.00255358
0.000445521
0.00248442
0.000370245
0.00244497
0.000231718
0.00244624
4.13943e-05
0.00249225
-0.000174884
0.00257583
-0.000372426
0.00267967
-0.000501158
0.00278184
-0.000526474
0.00286173
-0.000442304
0.00290445
-0.000271442
0.00290339
-5.62566e-05
0.0028612
0.000155279
0.00278847
0.000323521
0.00269982
0.000426243
0.00260988
0.000457892
0.00253165
0.000421324
0.00247727
0.000320067
0.00245796
0.000159012
0.00248086
-4.61108e-05
0.00254448
-0.000260721
0.00263734
-0.000437518
0.00274133
-0.000534383
0.00283706
-0.00053019
0.00290834
-0.000429913
0.00294468
-0.000260225
0.0029424
-6.03699e-05
0.00290483
0.000128189
0.00284147
0.000271758
0.00276549
0.000351879
0.00269089
0.000365523
0.00263075
0.000318112
0.00259683
0.000216443
0.00259815
6.96821e-05
0.00263751
-0.00010249
0.00270825
-0.000266128
0.00279535
-0.000382452
0.00288049
-0.000423968
0.00294779
-0.000384876
0.00298725
-0.000280731
0.00299557
-0.000140741
0.00297542
1.81679e-06
0.00293404
0.000117587
0.00288141
0.000186617
0.00282832
0.00020083
0.00278479
0.000162715
0.00275953
8.12168e-05
0.00275971
-3.2037e-05
0.00278963
-0.000162866
0.00284858
-0.000292484
0.00292968
-0.000398
0.00302146
-0.0004573
0.00311081
-0.00045531
0.00318563
-0.000387853
0.00323628
-0.000262169
0.00325624
-9.51862e-05
0.00324268
8.93987e-05
0.0031971
0.000264628
0.00312544
0.000405323
0.00303711
0.000493595
0.00294314
0.000522369
0.00285401
0.00049541
0.00277802
0.000424162
0.00272053
0.000323483
0.00268409
0.000208061
0.0026689
9.07909e-05
0.00267329
-1.77795e-05
0.00269387
-0.000108422
0.00272588
-0.000174199
0.00276344
-0.000209496
0.00280082
-0.000213614
0.00283222
-0.00018711
0.00285394
-0.000135532
0.00286318
-7.5937e-05
3.87169e-05
0.00250152
-1.31181e-05
0.00250639
-4.10203e-05
0.00251555
-7.38161e-05
0.00253042
-0.000113149
0.00255277
-0.000159663
0.00258446
-0.000211831
0.00262707
-0.000265964
0.00268044
-0.000312556
0.00274239
-0.000341336
0.00280494
-0.000333519
0.00285764
-0.000280163
0.00289482
-0.00019469
0.00291231
-8.54345e-05
0.00290546
4.22893e-05
0.00287106
0.000175844
0.00281227
0.00028884
0.0027393
0.00035373
0.00266526
0.00035697
0.00260316
0.00029737
0.00256459
0.000182921
0.00255922
2.8556e-05
0.00259315
-0.000141386
0.0026629
-0.000284412
0.00274941
-0.000345216
0.00282209
-0.000287118
0.00285435
-0.000125626
0.00283763
7.74557e-05
0.00278139
0.000255939
0.00270265
0.000373217
0.00261653
0.00042336
0.00253353
0.000413936
0.00246156
0.000351418
0.00240894
0.000235956
0.00238539
6.55763e-05
0.00240166
-0.000152931
0.00246766
-0.000388553
0.00258364
-0.000575709
0.00272699
-0.000630209
0.00285217
-0.000502276
0.00291412
-0.000226959
0.00289693
8.94711e-05
0.00281905
0.000341245
0.00271349
0.000480658
0.00260662
0.000517186
0.00251102
0.000481977
0.00242987
0.000398466
0.00236649
0.000270568
0.00233328
8.61458e-05
0.00235
-0.000159377
0.00242734
-0.000427816
0.00255249
-0.000634625
0.00269259
-0.000693609
0.00281004
-0.000569431
0.00287612
-0.000296997
0.00287785
3.64752e-05
0.00282028
0.000330361
0.00272378
0.000513941
0.00261405
0.000571483
0.00251104
0.00053084
0.00242661
0.000426752
0.00237149
0.000270739
0.00235994
5.60446e-05
0.00240276
-0.000206489
0.0024958
-0.000462931
0.00261796
-0.000634278
0.00273917
-0.000659151
0.00283079
-0.000524529
0.00287356
-0.000269411
0.00286181
3.37511e-05
0.00280316
0.000306763
0.00271387
0.000491711
0.00261259
0.000566218
0.00251604
0.000539732
0.00243894
0.000432782
0.00239588
0.000257738
0.00239963
2.33765e-05
0.00245413
-0.000241533
0.00254933
-0.000478649
0.00266362
-0.000621423
0.00277117
-0.000626531
0.00284901
-0.000491691
0.00288198
-0.000254274
0.00286565
2.39907e-05
0.00280693
0.00027811
0.00272067
0.000459432
0.00262407
0.000545653
0.00253294
0.00053665
0.00246174
0.000441449
0.00242444
0.000269014
0.00243196
3.38773e-05
0.00248633
-0.000229251
0.00257742
-0.000463519
0.00268586
-0.0006096
0.00278932
-0.000629935
0.00286804
-0.000521019
0.00290811
-0.00031151
0.00290333
-5.14825e-05
0.0028563
0.000202314
0.0027777
0.00040212
0.00268292
0.000521019
0.00258788
0.000552934
0.00250704
0.000502167
0.00245373
0.000373371
0.00243946
0.000173289
0.00246997
-7.66281e-05
0.0025411
-0.000331848
0.00263883
-0.000535248
0.00274395
-0.000639506
0.00283753
-0.000623764
0.00290459
-0.000496978
0.00293588
-0.000291515
0.00292842
-5.29063e-05
0.00288573
0.000170879
0.00281732
0.000340172
0.00273667
0.00043253
0.0026587
0.000443492
0.00259811
0.000378695
0.0025683
0.000246253
0.00257854
5.94433e-05
0.00262927
-0.000153217
0.00270966
-0.00034652
0.00280112
-0.000473909
0.00288422
-0.000507073
0.00294433
-0.000444982
0.00297369
-0.000310095
0.00297109
-0.000138142
0.00294056
3.23505e-05
0.00289003
0.000168121
0.00282973
0.000246911
0.00277057
0.00025999
0.00272304
0.00021025
0.00269684
0.000107415
0.00269992
-3.51176e-05
0.00273578
-0.000198724
0.00280098
-0.000357689
0.00288584
-0.000482858
0.00297784
-0.000549297
0.00306491
-0.000542381
0.00313691
-0.000459853
0.00318588
-0.000311137
0.00320612
-0.000115434
0.00319474
0.000100787
0.00315248
0.000306884
0.00308434
0.000473459
0.00299903
0.000578908
0.00290731
0.000614094
0.00281979
0.000582928
0.00274509
0.000498863
0.00268889
0.000379679
0.002654
0.000242953
0.00264073
0.000104062
0.00264728
-2.43265e-05
0.00266979
-0.000130937
0.00270298
-0.000207391
0.00274065
-0.000247165
0.00277724
-0.000250202
0.00280719
-0.000217062
0.00282745
-0.000155792
0.00283475
-8.32317e-05
5.00135e-05
0.00250129
-1.44095e-05
0.0025055
-4.52242e-05
0.00251367
-8.19957e-05
0.00252747
-0.000126945
0.00254904
-0.000181235
0.00258095
-0.000243735
0.00262565
-0.000310671
0.00268388
-0.00037078
0.00275408
-0.000411536
0.00282607
-0.000405509
0.00288648
-0.000340574
0.0029295
-0.000237714
0.00295091
-0.000106841
0.00294434
4.8854e-05
0.00290443
0.000215758
0.00283446
0.000358811
0.00274724
0.000440945
0.00265873
0.000445484
0.00258417
0.000371928
0.00253706
0.000230032
0.00252966
3.59554e-05
0.00257174
-0.000183464
0.00266126
-0.000373931
0.0027738
-0.000457756
0.00286808
-0.000381401
0.00290902
-0.000166569
0.00288703
9.94508e-05
0.00281678
0.000326186
0.00272161
0.000468387
0.00262024
0.000524734
0.00252391
0.000510258
0.00243983
0.000435504
0.0023739
0.000301886
0.00233249
0.000106983
0.00232863
-0.000149073
0.00238326
-0.000443184
0.00250626
-0.0006987
0.00267498
-0.000798932
0.00283667
-0.000663972
0.00293323
-0.000323518
0.00293412
8.85828e-05
0.00285309
0.000422278
0.00273139
0.000602361
0.00260647
0.000642103
0.00249555
0.000592892
0.00240059
0.000493428
0.00232528
0.000345879
0.00228773
0.000123694
0.00231227
-0.000183912
0.00240598
-0.000521524
0.00254797
-0.000776623
0.00270022
-0.000845852
0.002824
-0.000693218
0.00289138
-0.000364377
0.00289086
3.70018e-05
0.00282856
0.00039266
0.00272494
0.000617558
0.00260585
0.000690578
0.00249245
0.000644238
0.00239934
0.000519856
0.00234105
0.000329033
0.00233395
6.3142e-05
0.00238665
-0.000259188
0.00249012
-0.000566395
0.00261972
-0.000763881
0.00274497
-0.000784401
0.00283822
-0.000617778
0.00288049
-0.00031168
0.0028656
4.86385e-05
0.00280129
0.000371077
0.00270497
0.000588024
0.00259662
0.000674573
0.00249415
0.000642203
0.00241392
0.000513011
0.00237225
0.000299403
0.00238186
1.37728e-05
0.00244412
-0.000303801
0.00254572
-0.000580244
0.00266326
-0.000738967
0.0027712
-0.000734471
0.00284782
-0.000568311
0.00287878
-0.000285233
0.00285954
4.32326e-05
0.00279654
0.000341108
0.00270488
0.000551098
0.00260284
0.000647686
0.0025078
0.000631689
0.00243578
0.000513472
0.00240162
0.000303175
0.00241538
2.01125e-05
0.00247655
-0.000290417
0.00257229
-0.00055926
0.00268201
-0.000719319
0.00278387
-0.000731797
0.00285948
-0.000596632
0.00289622
-0.000348241
0.00288839
-4.36607e-05
0.00283836
0.000252351
0.00275637
0.000484105
0.00265791
0.000619478
0.00255977
0.000651073
0.00247786
0.000584083
0.00242674
0.000424494
0.00241782
0.000182199
0.00245501
-0.00011381
0.00253131
-0.000408154
0.0026308
-0.000634732
0.00273401
-0.000742722
0.00282307
-0.000712824
0.00288448
-0.000558383
0.00291018
-0.000317217
0.00289787
-4.05974e-05
0.0028512
0.000217547
0.0027795
0.000411869
0.00269627
0.000515761
0.00261715
0.000522618
0.00255836
0.000437481
0.00253467
0.000269943
0.0025547
3.942e-05
0.00261537
-0.000213888
0.0027014
-0.000432552
0.0027917
-0.000564208
0.0028674
-0.000582772
0.00291632
-0.000493908
0.00293343
-0.000327204
0.0029194
-0.000124113
0.00287922
7.25283e-05
0.00282111
0.000226237
0.00275521
0.00031281
0.00269246
0.000322743
0.00264398
0.000258726
0.00262041
0.000130992
0.0026293
-4.40116e-05
0.00267139
-0.000240816
0.00273958
-0.000425874
0.00282245
-0.000565729
0.00290872
-0.000635574
0.00298907
-0.000622729
0.00305573
-0.000526508
0.00310203
-0.000357443
0.00312273
-0.000136134
0.00311472
0.000108799
0.00307802