/*--------------------------------*- C++ -*----------------------------------*\
  =========                 |
  \\      /  F ield         | OpenFOAM: The Open Source CFD Toolbox
   \\    /   O peration     | Website:  https://openfoam.org
    \\  /    A nd           | Version:  11
     \\/     M anipulation  |
\*---------------------------------------------------------------------------*/
FoamFile
{
    format      ascii;
    class       volVectorField;
    location    "14.318037";
    object      U;
}
// * * * * * * * * * * * * * * * * * * * * * * * * * * * * * * * * * * * * * //

dimensions      [0 1 -1 0 0 0 0];

internalField   nonuniform List<vector> 
7132
(
(1.0001 -0.000207232 3.64574e-18)
(1.00161 -0.000640792 1.24384e-17)
(1.00513 -0.00112707 1.21735e-17)
(1.01066 -0.00167591 1.54809e-17)
(1.01852 -0.00228153 2.02345e-17)
(1.0289 -0.00290658 1.8914e-17)
(1.0418 -0.00348913 1.63611e-17)
(1.05687 -0.00392258 1.41129e-17)
(1.07329 -0.00409658 1.23546e-17)
(1.08979 -0.00389439 1.12172e-17)
(1.10463 -0.00325353 1.06823e-17)
(1.11604 -0.00223631 1.07248e-17)
(1.12269 -0.000939277 1.10711e-17)
(1.12369 0.000512144 1.15117e-17)
(1.11869 0.00193671 9.35605e-18)
(1.10823 0.00309541 6.83171e-18)
(1.09389 0.00375764 4.66951e-18)
(1.07805 0.00378665 4.02496e-18)
(1.06344 0.00316069 1.83666e-18)
(1.05263 0.00197664 8.83232e-19)
(1.04756 0.000441733 2.10456e-19)
(1.04915 -0.00113644 3.49114e-19)
(1.05687 -0.00236359 3.35677e-18)
(1.06844 -0.00284426 8.52167e-18)
(1.0801 -0.00235656 8.06403e-18)
(1.08776 -0.00100967 4.95669e-18)
(1.08853 0.000787214 4.32486e-19)
(1.08162 0.002533 5.06817e-18)
(1.06822 0.00384102 3.50598e-17)
(1.0507 0.00450645 -4.2635e-17)
(1.03187 0.00446367 -4.30625e-16)
(1.01463 0.00371941 1.56115e-16)
(1.00174 0.00231821 5.61154e-15)
(0.99572 0.00036136 9.12907e-15)
(0.998576 -0.00192859 -4.94674e-14)
(1.01108 -0.00412785 -2.78926e-13)
(1.03182 -0.00563295 -6.39709e-13)
(1.05663 -0.00587784 -8.41498e-13)
(1.07946 -0.00465586 -6.97453e-13)
(1.09447 -0.00229373 -3.76544e-13)
(1.09821 0.000497246 -1.26507e-13)
(1.09061 0.00297578 -8.42932e-15)
(1.07426 0.00466319 2.78181e-14)
(1.05299 0.00540113 2.13702e-14)
(1.03066 0.00523289 -4.70528e-14)
(1.01069 0.0042574 -1.87203e-13)
(0.996142 0.00255802 -1.49615e-13)
(0.989793 0.000239482 9.89672e-13)
(0.993915 -0.00245194 4.9868e-12)
(1.00936 -0.00501499 1.29101e-11)
(1.03434 -0.00674029 2.24978e-11)
(1.06389 -0.00698181 2.82897e-11)
(1.09093 -0.00551549 2.64255e-11)
(1.10868 -0.00272159 1.87042e-11)
(1.11313 0.000570568 1.03114e-11)
(1.10422 0.00346972 4.19535e-12)
(1.08517 0.00538106 7.08006e-13)
(1.06077 0.00612143 -5.87611e-13)
(1.03572 0.00579779 -4.60618e-13)
(1.0139 0.00460614 -1.28239e-13)
(0.998393 0.00270412 -1.6442e-12)
(0.991806 0.000230502 -7.85239e-12)
(0.996172 -0.00255866 -2.11761e-11)
(1.0121 -0.00517138 -4.16022e-11)
(1.03766 -0.00693187 -6.48567e-11)
(1.06798 -0.00723124 -8.31849e-11)
(1.09616 -0.00583818 -8.93599e-11)
(1.1154 -0.00306325 -8.08326e-11)
(1.12126 0.000338432 -6.07696e-11)
(1.11302 0.00346903 -3.65498e-11)
(1.09351 0.00563044 -1.62718e-11)
(1.06769 0.00652091 -4.34811e-12)
(1.04089 0.00620543 1.29749e-12)
(1.01753 0.00492834 9.11079e-12)
(1.00093 0.00292769 3.01452e-11)
(0.993589 0.000395894 7.23115e-11)
(0.997313 -0.00240148 1.3621e-10)
(1.01253 -0.00500328 2.14738e-10)
(1.03733 -0.00679737 2.96152e-10)
(1.06717 -0.00724334 3.67688e-10)
(1.09573 -0.00612625 4.17446e-10)
(1.11672 -0.00367364 4.35058e-10)
(1.12564 -0.000479632 4.13049e-10)
(1.12096 0.00269779 3.49563e-10)
(1.10427 0.00517141 2.5283e-10)
(1.07959 0.00650556 1.44991e-10)
(1.05204 0.00658352 5.66475e-11)
(1.02658 0.00554106 1.32167e-11)
(1.00727 0.00361873 2.34001e-11)
(0.99718 0.00106756 7.85639e-11)
(0.998391 -0.00180538 1.61124e-10)
(1.01152 -0.00454293 2.53501e-10)
(1.03495 -0.00656396 3.42667e-10)
(1.0645 -0.00734859 4.20687e-10)
(1.09429 -0.0066621 4.83343e-10)
(1.11827 -0.00466181 5.28014e-10)
(1.13187 -0.00182889 5.51076e-10)
(1.13298 0.00121247 5.4533e-10)
(1.12209 0.00388366 5.00106e-10)
(1.10173 0.00576869 4.09213e-10)
(1.07571 0.00663929 2.83889e-10)
(1.04837 0.00643082 1.57253e-10)
(1.02401 0.00519817 6.97188e-11)
(1.00652 0.00307986 4.48795e-11)
(0.999172 0.000312016 7.80427e-11)
(1.00402 -0.00271321 1.45568e-10)
(1.02115 -0.00544212 2.2211e-10)
(1.04811 -0.00727895 2.91076e-10)
(1.08009 -0.0077919 3.45556e-10)
(1.1111 -0.006881 3.84868e-10)
(1.13556 -0.00481235 4.11109e-10)
(1.14972 -0.00211318 4.26722e-10)
(1.1523 0.000609582 4.3226e-10)
(1.14445 0.00284926 4.2404e-10)
(1.12899 0.00430858 3.94353e-10)
(1.10946 0.00489676 3.37012e-10)
(1.08937 0.00465 2.56058e-10)
(1.07194 0.00364948 1.69372e-10)
(1.06002 0.00200405 1.01125e-10)
(1.05595 -9.46428e-05 6.83085e-11)
(1.06107 -0.00231559 7.29463e-11)
(1.07504 -0.00421775 1.04911e-10)
(1.09558 -0.00537562 1.50141e-10)
(1.11886 -0.0055369 1.97097e-10)
(1.14055 -0.00471948 2.38905e-10)
(1.157 -0.00319906 2.72662e-10)
(1.16618 -0.00140677 2.97959e-10)
(1.16797 0.000205894 3.15694e-10)
(1.164 0.0012846 3.27203e-10)
(1.15702 0.00163978 3.33549e-10)
(1.15016 0.00125325 3.34918e-10)
(1.1463 0.000241833 3.30424e-10)
(1.14761 -0.00119676 3.1865e-10)
(1.15536 -0.00282769 2.98711e-10)
(1.16986 -0.00440048 2.71108e-10)
(1.19039 -0.00565578 2.37797e-10)
(1.21517 -0.00634135 2.01573e-10)
(1.24142 -0.00625278 1.65255e-10)
(1.2657 -0.00528974 1.31123e-10)
(1.28437 -0.00350114 1.0077e-10)
(1.29436 -0.00109653 7.5275e-11)
(1.29372 0.00158501 5.55499e-11)
(1.28209 0.00414219 4.26732e-11)
(1.26078 0.00620349 3.81004e-11)
(1.23245 0.00750817 4.34968e-11)
(1.20052 0.00795005 5.99771e-11)
(1.16854 0.00757313 8.69024e-11)
(1.13957 0.00652819 1.20955e-10)
(1.11595 0.00501844 1.56378e-10)
(1.09908 0.00325519 1.86567e-10)
(1.08963 0.00143822 2.06182e-10)
(1.08729 -0.00025831 2.12604e-10)
(1.09155 -0.00168266 2.06143e-10)
(1.10051 -0.00272583 1.8925e-10)
(1.11344 -0.00330829 1.65412e-10)
(1.12665 -0.00341211 1.38227e-10)
(1.14126 -0.00306838 1.10854e-10)
(1.15041 -0.00229738 8.59501e-11)
(1.16111 -0.00148631 6.55674e-11)
(1.16012 0.000371743 4.79905e-11)
(1.0001 -0.000619402 5.63301e-20)
(1.00159 -0.00191652 6.07378e-19)
(1.00508 -0.00337334 1.09924e-18)
(1.01058 -0.00502183 1.58618e-18)
(1.01843 -0.0068461 2.1879e-18)
(1.02884 -0.00873546 2.72011e-18)
(1.04185 -0.0105049 2.89688e-18)
(1.05712 -0.0118307 3.75349e-18)
(1.07385 -0.0123774 2.2849e-18)
(1.09075 -0.0117828 2.33749e-18)
(1.10597 -0.00985387 3.2793e-18)
(1.1177 -0.00678684 5.2252e-18)
(1.12456 -0.00287673 5.39017e-18)
(1.12562 0.00149981 6.07998e-18)
(1.12049 0.00580266 6.94302e-18)
(1.10966 0.00931193 7.78218e-18)
(1.09477 0.0113269 8.36244e-18)
(1.0783 0.0114292 8.14521e-18)
(1.06309 0.00954542 5.87534e-18)
(1.0518 0.00595986 1.62635e-18)
(1.04651 0.001293 1.77458e-18)
(1.04823 -0.00352465 1.19732e-18)
(1.05647 -0.00729014 -7.98571e-17)
(1.06887 -0.00878299 -1.85703e-16)
(1.08145 -0.0073086 -1.33005e-16)
(1.08978 -0.00319592 -2.51142e-17)
(1.09079 0.0022971 1.36531e-17)
(1.08369 0.00763056 5.60207e-17)
(1.0698 0.0116247 1.21514e-16)
(1.05163 0.0136657 -3.19513e-16)
(1.03212 0.0135651 -1.26527e-15)
(1.01418 0.0113475 2.15655e-15)
(1.00064 0.00713947 1.59525e-14)
(0.994116 0.00122589 7.20524e-15)
(0.996792 -0.00574438 -1.8176e-13)
(1.00965 -0.0124904 -7.35367e-13)
(1.03134 -0.0171513 -1.53261e-12)
(1.05751 -0.0179617 -2.07691e-12)
(1.08166 -0.0142655 -1.84683e-12)
(1.09749 -0.00706499 -1.0311e-12)
(1.10136 0.00145144 -3.49551e-13)
(1.0933 0.00900842 -2.50913e-14)
(1.07615 0.0141461 7.10394e-14)
(1.054 0.0163972 3.25309e-14)
(1.03081 0.0159116 -6.95345e-14)
(1.01004 0.012997 -2.41039e-14)
(0.994755 0.00789287 3.09919e-13)
(0.987842 0.000882606 6.44967e-14)
(0.9918 -0.00732073 -3.50509e-12)
(1.00773 -0.0151937 -1.44308e-11)
(1.0339 -0.020537 -3.06243e-11)
(1.06508 -0.0213337 -4.11017e-11)
(1.09366 -0.0168824 -3.86091e-11)
(1.11234 -0.00835854 -2.70608e-11)
(1.11688 0.00168752 -1.29376e-11)
(1.10734 0.0105265 -2.68238e-12)
(1.08726 0.0163433 9.98934e-13)
(1.06177 0.0185943 1.02504e-12)
(1.03575 0.0176277 9.03931e-13)
(1.01309 0.0140544 6.2806e-13)
(0.996822 0.00834557 -5.72743e-12)
(0.989571 0.000889157 -3.0186e-11)
(0.993511 -0.00757631 -8.58921e-11)
(1.00947 -0.0155703 -1.75379e-10)
(1.03568 -0.0210199 -2.78103e-10)
(1.06719 -0.0220345 -3.53961e-10)
(1.09681 -0.0178751 -3.67817e-10)
(1.1173 -0.00947239 -3.14666e-10)
(1.12384 0.000874449 -2.2089e-10)
(1.11559 0.0104242 -1.23451e-10)
(1.09548 0.0170355 -4.992e-11)
(1.06875 0.0197806 -9.43898e-12)
(1.04097 0.0188651 7.04186e-12)
(1.01668 0.0150464 2.03227e-11)
(0.999228 0.00904654 5.2931e-11)
(0.991166 0.00142173 1.18402e-10)
(0.994482 -0.00705782 2.14894e-10)
(1.00982 -0.0150025 3.27481e-10)
(1.03531 -0.0205318 4.38183e-10)
(1.06619 -0.0219723 5.33452e-10)
(1.09581 -0.0186541 6.02159e-10)
(1.11756 -0.0112685 6.29955e-10)
(1.12687 -0.00161965 6.01188e-10)
(1.12221 0.00800086 5.09736e-10)
(1.10527 0.0155161 3.68897e-10)
(1.08013 0.0196062 2.12655e-10)
(1.05198 0.0199123 8.46044e-11)
(1.02584 0.0168345 1.93012e-11)
(1.00585 0.0110802 2.85414e-11)
(0.995272 0.00338026 1.01149e-10)
(0.996441 -0.00535652 2.1306e-10)
(1.01018 -0.0137304 3.38332e-10)
(1.03478 -0.0199313 4.56081e-10)
(1.06574 -0.0223372 5.53136e-10)
(1.0967 -0.0202292 6.23542e-10)
(1.12125 -0.0141183 6.65735e-10)
(1.13473 -0.00550668 6.78221e-10)
(1.1352 0.00369707 6.55734e-10)
(1.12344 0.0117502 5.89414e-10)
(1.10223 0.0174163 4.7501e-10)
(1.07552 0.0200311 3.26296e-10)
(1.04764 0.0194137 1.7989e-10)
(1.02287 0.0157205 8.00643e-11)
(1.00516 0.00933974 5.30487e-11)
(0.997928 0.000951092 9.40398e-11)
(1.00344 -0.00826751 1.76203e-10)
(1.02183 -0.0166033 2.69135e-10)
(1.05038 -0.0221978 3.5148e-10)
(1.08388 -0.0237128 4.13484e-10)
(1.11592 -0.0208589 4.53856e-10)
(1.1407 -0.0144859 4.7568e-10)
(1.15442 -0.00623452 4.83182e-10)
(1.15598 0.00204043 4.7889e-10)
(1.14681 0.00880999 4.60856e-10)
(1.12999 0.0131853 4.22397e-10)
(1.1093 0.0149078 3.57575e-10)
(1.0884 0.0141031 2.70429e-10)
(1.07055 0.0110228 1.79144e-10)
(1.05869 0.00598917 1.08509e-10)
(1.05524 -0.000429615 7.59504e-11)
(1.06157 -0.00722806 8.32758e-11)
(1.07723 -0.0130397 1.1944e-10)
(1.09961 -0.016539 1.69138e-10)
(1.12447 -0.0169487 2.19722e-10)
(1.14711 -0.0143435 2.6363e-10)
(1.16373 -0.00959979 2.97705e-10)
(1.17232 -0.00406079 3.21649e-10)
(1.17297 0.000891332 3.36745e-10)
(1.16756 0.00419025 3.44909e-10)
(1.15905 0.00527492 3.47848e-10)
(1.15076 0.00410252 3.46279e-10)
(1.14564 0.00103374 3.39605e-10)
(1.14594 -0.0033345 3.26456e-10)
(1.15299 -0.0083008 3.05861e-10)
(1.16718 -0.0131174 2.78262e-10)
(1.18785 -0.017002 2.45675e-10)
(1.21325 -0.0191816 2.11009e-10)
(1.24054 -0.0190177 1.77072e-10)
(1.26606 -0.0161853 1.45842e-10)
(1.28596 -0.0108201 1.18298e-10)
(1.29694 -0.00355735 9.4757e-11)
(1.29692 0.00457081 7.55239e-11)
(1.28549 0.0123432 6.14724e-11)
(1.26399 0.0186258 5.43139e-11)
(1.23516 0.0226197 5.63117e-11)
(1.20257 0.0239974 6.92984e-11)
(1.16988 0.0228908 9.3243e-11)
(1.14025 0.0197584 1.25172e-10)
(1.11608 0.0152185 1.59366e-10)
(1.09876 0.00991222 1.89026e-10)
(1.08899 0.00444145 2.08524e-10)
(1.08641 -0.000671777 2.15018e-10)
(1.09054 -0.00497387 2.08758e-10)
(1.09944 -0.00813445 1.92321e-10)
(1.1124 -0.00991316 1.69411e-10)
(1.12569 -0.0102484 1.43784e-10)
(1.14041 -0.009235 1.18607e-10)
(1.14962 -0.00692348 9.62466e-11)
(1.1604 -0.00449746 7.84672e-11)
(1.15926 0.00110153 6.33511e-11)
(1.0001 -0.00102512 4.49835e-22)
(1.00156 -0.00317476 7.64563e-21)
(1.00499 -0.00559753 1.41908e-20)
(1.01042 -0.0083526 2.73937e-21)
(1.01825 -0.0114189 -6.6062e-20)
(1.02872 -0.0146162 7.46915e-20)
(1.04193 -0.017638 -4.83135e-19)
(1.05761 -0.0199312 -1.11474e-18)
(1.07497 -0.0209217 1.40845e-18)
(1.09266 -0.019963 2.51736e-18)
(1.10867 -0.0167096 -3.29336e-18)
(1.12101 -0.0115196 -8.87111e-18)
(1.12827 -0.00488796 -8.51305e-18)
(1.12944 0.00257017 -4.04673e-18)
(1.12401 0.0099429 1.7945e-18)
(1.11243 0.015977 7.86742e-18)
(1.09643 0.0194464 1.1954e-17)
(1.07869 0.0196309 8.95504e-18)
(1.06229 0.0164089 -6.5171e-18)
(1.05012 0.0102613 -1.68097e-17)
(1.04446 0.00222885 3.63254e-17)
(1.04652 -0.00611775 -2.19268e-16)
(1.0559 -0.0126967 -2.01835e-15)
(1.07006 -0.0153471 -4.15783e-15)
(1.08448 -0.0128143 -3.53754e-15)
(1.0941 -0.00567116 -1.35507e-15)
(1.09542 0.00384914 -1.31018e-16)
(1.08774 0.0130392 3.38613e-16)
(1.07268 0.019873 -3.12698e-16)
(1.05311 0.0233454 -2.03812e-15)
(1.03217 0.0231855 8.15956e-15)
(1.01289 0.0194564 2.25802e-14)
(0.99817 0.0123506 -1.49392e-13)
(0.990809 0.00229015 -5.26361e-13)
(0.993327 -0.00968643 1.62775e-12)
(1.00711 -0.0213993 1.3083e-11)
(1.03094 -0.0295754 3.28153e-11)
(1.06 -0.0310556 4.36402e-11)
(1.08679 -0.0246469 3.46173e-11)
(1.10409 -0.0121271 1.69126e-11)
(1.1079 0.00261694 4.60658e-12)
(1.09854 0.0155928 -5.54737e-14)
(1.07951 0.0243132 -7.33776e-13)
(1.05541 0.0280686 -5.42317e-13)
(1.03047 0.0272049 1.1458e-13)
(1.00819 0.0222796 2.97564e-12)
(0.991617 0.0136576 4.51673e-12)
(0.983773 0.00172538 -2.21858e-11)
(0.987488 -0.0123836 -1.38334e-10)
(1.00425 -0.0260596 -3.94353e-10)
(1.03254 -0.0354268 -7.23285e-10)
(1.06685 -0.0368802 -9.30943e-10)
(1.09864 -0.0291457 -8.734e-10)
(1.11943 -0.0143111 -6.07123e-10)
(1.12425 0.00309855 -3.06475e-10)
(1.11332 0.0182941 -9.7281e-11)
(1.09096 0.0281625 -2.50626e-12)
(1.0631 0.0318683 1.91497e-11)
(1.03508 0.0301302 1.49346e-11)
(1.01082 0.0240656 5.64378e-12)
(0.993182 0.0144642 -2.13763e-11)
(0.984735 0.00189544 -1.0375e-10)
(0.987895 -0.0124968 -2.78346e-10)
(1.00396 -0.0262522 -5.4165e-10)
(1.03145 -0.0358043 -8.27004e-10)
(1.06526 -0.0378139 -1.02907e-09)
(1.09754 -0.030892 -1.06163e-09)
(1.12027 -0.0165623 -9.1013e-10)
(1.12805 0.00121623 -6.42268e-10)
(1.11973 0.0176661 -3.61451e-10)
(1.09846 0.0290481 -1.47297e-10)
(1.06998 0.0337662 -2.69672e-11)
(1.04032 0.0322282 2.22802e-11)
(1.01433 0.0257926 4.93373e-11)
(0.995405 0.0156886 9.92615e-11)
(0.986322 0.00277762 1.90043e-10)
(0.98946 -0.0117168 3.08621e-10)
(1.0058 -0.0254143 4.29451e-10)
(1.03335 -0.0349955 5.37737e-10)
(1.06667 -0.0375062 6.34457e-10)
(1.09823 -0.0318127 7.22322e-10)
(1.12094 -0.0191872 7.87601e-10)
(1.13018 -0.00277922 7.95934e-10)
(1.12474 0.0135132 7.14628e-10)
(1.10668 0.026214 5.44994e-10)
(1.08029 0.0331419 3.31529e-10)
(1.0509 0.0337173 1.43154e-10)
(1.02355 0.0285963 3.89755e-11)
(1.00257 0.018902 4.25299e-11)
(0.991562 0.00578138 1.38939e-10)
(0.993345 -0.00924793 2.90537e-10)
(1.00894 -0.0237085 4.566e-10)
(1.0363 -0.034355 6.06353e-10)
(1.07013 -0.0383212 7.22653e-10)
(1.1032 -0.0344171 7.99794e-10)
(1.12853 -0.0236624 8.38907e-10)
(1.14135 -0.00878459 8.41681e-10)
(1.14008 0.00687603 8.04151e-10)
(1.12608 0.0203774 7.16813e-10)
(1.10274 0.029726 5.7485e-10)
(1.07435 0.0339251 3.94423e-10)
(1.04531 0.0327458 2.18676e-10)
(1.01985 0.0264334 1.00023e-10)
(1.00203 0.0155521 6.96293e-11)
(0.995543 0.0011793 1.21098e-10)
(1.00287 -0.0146544 2.20533e-10)
(1.02398 -0.0289107 3.29623e-10)
(1.05557 -0.0383133 4.2237e-10)
(1.09166 -0.0405751 4.884e-10)
(1.12527 -0.0352944 5.28014e-10)
(1.15029 -0.0240471 5.46068e-10)
(1.16296 -0.00973445 5.47837e-10)
(1.16245 0.00443093 5.36295e-10)
(1.15063 0.0158494 5.09945e-10)
(1.13112 0.0230566 4.62521e-10)
(1.10813 0.0256869 3.88424e-10)
(1.08563 0.024018 2.92524e-10)
(1.06707 0.018499 1.94613e-10)
(1.05552 0.00966127 1.21093e-10)
(1.05358 -0.00153138 8.97825e-11)
(1.06258 -0.0133081 1.01279e-10)
(1.08164 -0.0232387 1.42515e-10)
(1.10744 -0.0289971 1.96484e-10)
(1.13493 -0.0292856 2.49731e-10)
(1.1589 -0.0243419 2.9466e-10)
(1.17539 -0.0157912 3.28412e-10)
(1.18257 -0.00601838 3.50925e-10)
(1.18091 0.00259035 3.63568e-10)
(1.17271 0.00824314 3.68455e-10)
(1.16135 0.0100378 3.67731e-10)
(1.15042 0.00795712 3.62643e-10)
(1.14309 0.00264836 3.52965e-10)
(1.14169 -0.00487462 3.37449e-10)
(1.14771 -0.0134484 3.15164e-10)
(1.16167 -0.0218327 2.86767e-10)
(1.18306 -0.0286992 2.54769e-10)
(1.21007 -0.0326923 2.22623e-10)
(1.23957 -0.0326613 1.93288e-10)
(1.26749 -0.0280013 1.68177e-10)
(1.28952 -0.0189304 1.46998e-10)
(1.30201 -0.00655471 1.28488e-10)
(1.30274 0.00733325 1.11602e-10)
(1.29128 0.0206273 9.66073e-11)
(1.26907 0.0313766 8.55289e-11)
(1.23909 0.0382125 8.17006e-11)
(1.20513 0.040581 8.83618e-11)
(1.17109 0.0387194 1.06732e-10)
(1.14029 0.0334231 1.34564e-10)
(1.1152 0.025755 1.66235e-10)
(1.09724 0.0168086 1.94553e-10)
(1.08706 0.00759897 2.13338e-10)
(1.08429 -0.00100271 2.19368e-10)
(1.08838 -0.00824365 2.1289e-10)
(1.09739 -0.013573 1.96825e-10)
(1.11057 -0.0165831 1.75342e-10)
(1.12411 -0.0171659 1.52472e-10)
(1.13908 -0.0154616 1.31334e-10)
(1.14835 -0.011577 1.13728e-10)
(1.15921 -0.00745874 1.00819e-10)
(1.15753 0.00193507 9.06555e-11)
(1.00009 -0.0014198 -4.53871e-20)
(1.0015 -0.0044023 -6.81794e-19)
(1.00484 -0.00778256 -1.1626e-18)
(1.01017 -0.0116546 -2.07155e-18)
(1.01794 -0.0160009 -2.45512e-18)
(1.02849 -0.0205791 -3.58496e-18)
(1.042 -0.0249644 -8.44222e-18)
(1.05829 -0.028355 2.42481e-18)
(1.07659 -0.0299154 8.36609e-18)
(1.09552 -0.0286437 -3.08048e-17)
(1.11275 -0.0240087 -7.07164e-17)
(1.12605 -0.0165867 -3.69009e-17)
(1.13395 -0.00709311 2.41864e-17)
(1.13531 0.00362849 5.96772e-17)
(1.12944 0.0143031 7.50739e-17)
(1.11668 0.0230955 7.59967e-17)
(1.09893 0.0281775 5.27172e-17)
(1.07922 0.0284813 -2.07268e-17)
(1.06097 0.0238183 -1.23822e-16)
(1.04744 0.0148642 -1.31005e-17)
(1.04119 0.00309147 -3.93257e-16)
(1.04376 -0.00924606 -2.52625e-15)
(1.05491 -0.019072 8.04505e-15)
(1.07186 -0.0230891 2.67619e-14)
(1.08921 -0.0193301 2.03445e-14)
(1.10084 -0.00865657 4.65622e-15)
(1.10262 0.00549463 -3.20313e-16)
(1.09393 0.0190152 -2.81317e-16)
(1.07699 0.028941 -7.69126e-15)
(1.05522 0.0339174 -1.89944e-16)
(1.03209 0.0336709 1.11168e-13)
(1.01078 0.0283475 -1.89412e-15)
(0.994274 0.018183 -1.71143e-12)
(0.985622 0.00365548 -2.50598e-12)
(0.9879 -0.0138852 1.91486e-11)
(1.00322 -0.0312965 9.68603e-11)
(1.03059 -0.0436055 2.1597e-10)
(1.06433 -0.0459008 2.90176e-10)
(1.09527 -0.0363133 2.51872e-10)
(1.11472 -0.0176029 1.41264e-10)
(1.11819 0.00424991 4.81278e-11)
(1.10658 0.0232189 4.36672e-12)
(1.08444 0.0357138 -6.33419e-12)
(1.05726 0.0409087 -5.00433e-12)
(1.02967 0.0395141 1.81748e-12)
(1.00515 0.0324241 1.71024e-11)
(0.986653 0.0201052 9.16943e-12)
(0.97719 0.00295859 -1.62257e-10)
(0.979835 -0.0175439 -7.3859e-10)
(0.996685 -0.0377136 -1.83241e-09)
(1.02696 -0.0518493 -3.13427e-09)
(1.06531 -0.0544071 -3.98186e-09)
(1.10221 -0.0431783 -3.85677e-09)
(1.12726 -0.0211467 -2.84966e-09)
(1.1338 0.00476557 -1.5691e-09)
(1.12168 0.0271863 -5.80887e-10)
(1.09624 0.0414516 -7.03072e-11)
(1.06484 0.0465261 8.24759e-11)
(1.03375 0.0437617 7.5998e-11)
(1.00704 0.035 2.73193e-11)
(0.987284 0.02139 -6.57626e-11)
(0.976961 0.00354421 -2.76417e-10)
(0.979033 -0.0171745 -6.54317e-10)
(0.995632 -0.0373471 -1.14673e-09)
(1.02553 -0.0516835 -1.61525e-09)
(1.06288 -0.0550923 -1.92169e-09)
(1.09867 -0.0453846 -1.97768e-09)
(1.12399 -0.0247106 -1.75387e-09)
(1.13302 0.00117022 -1.30821e-09)
(1.12451 0.0252296 -7.87411e-10)
(1.10177 0.0419101 -3.50056e-10)
(1.07101 0.0488405 -7.95415e-11)
(1.03883 0.0466815 4.33962e-11)
(1.01046 0.0375014 9.91821e-11)
(0.989589 0.0230513 1.61037e-10)
(0.979461 0.00440448 2.51603e-10)
(0.98313 -0.0167882 3.52858e-10)
(1.00187 -0.0369482 4.47555e-10)
(1.03309 -0.0509742 5.38307e-10)
(1.07012 -0.0544254 6.34095e-10)
(1.10426 -0.0457925 7.36838e-10)
(1.12775 -0.0272248 8.357e-10)
(1.13609 -0.00349891 8.96195e-10)
(1.12872 0.0197676 8.64866e-10)
(1.10838 0.0377434 7.115e-10)
(1.07984 0.0474888 4.6917e-10)
(1.04855 0.0482737 2.26853e-10)
(1.01961 0.0409906 7.78016e-11)
(0.997552 0.0270747 6.79762e-11)
(0.986503 0.0080003 1.81955e-10)
(0.989809 -0.0140331 3.66693e-10)
(1.00849 -0.0352028 5.6613e-10)
(1.03977 -0.0505363 7.41911e-10)
(1.07726 -0.0558036 8.75281e-10)
(1.1128 -0.0494364 9.6044e-10)
(1.13888 -0.0331852 9.98807e-10)
(1.15066 -0.0112622 9.94189e-10)
(1.14689 0.0113504 9.45563e-10)
(1.12964 0.0304251 8.43326e-10)
(1.1031 0.0432788 6.79843e-10)
(1.07212 0.0487407 4.71025e-10)
(1.04131 0.0466548 2.6633e-10)
(1.01496 0.0373533 1.28077e-10)
(0.997277 0.0214946 9.30663e-11)
(0.992238 0.000538472 1.51705e-10)
(1.00239 -0.0224788 2.61421e-10)
(1.02718 -0.0429524 3.76894e-10)
(1.06242 -0.0560485 4.70497e-10)
(1.10126 -0.0585759 5.34155e-10)
(1.13624 -0.050179 5.71123e-10)
(1.16117 -0.0333231 5.87855e-10)
(1.17239 -0.0122986 5.89579e-10)
(1.16933 0.00821908 5.78196e-10)
(1.15426 0.0244804 5.5082e-10)
(1.13136 0.0344287 5.00007e-10)
(1.10541 0.0376441 4.19868e-10)
(1.08082 0.0346296 3.16647e-10)
(1.0614 0.0260716 2.1294e-10)
(1.05053 0.0127304 1.37562e-10)
(1.05097 -0.00395292 1.08504e-10)
(1.06383 -0.0212547 1.24353e-10)
(1.08744 -0.0354708 1.69509e-10)
(1.11735 -0.043188 2.25407e-10)
(1.14756 -0.0426845 2.78397e-10)
(1.17241 -0.0345696 3.21612e-10)
(1.18798 -0.0214244 3.53162e-10)
(1.19284 -0.00681007 3.73626e-10)
(1.18796 0.00582704 3.84457e-10)
(1.17614 0.0139699 3.87496e-10)
(1.16117 0.0164151 3.84657e-10)
(1.14698 0.013231 3.77166e-10)
(1.13693 0.00539855 3.64858e-10)
(1.13355 -0.00564353 3.46523e-10)
(1.13857 -0.0182879 3.21494e-10)
(1.15279 -0.030793 2.91252e-10)
(1.17578 -0.0412033 2.59624e-10)
(1.20544 -0.047444 2.31204e-10)
(1.23808 -0.0477355 2.09088e-10)
(1.26899 -0.0411609 1.93537e-10)
(1.29338 -0.0280754 1.82245e-10)
(1.30739 -0.0101539 1.71791e-10)
(1.30872 0.00995693 1.59397e-10)
(1.29699 0.0291913 1.44435e-10)
(1.2738 0.0447243 1.29122e-10)
(1.24233 0.0545834 1.18024e-10)
(1.20666 0.0579858 1.16246e-10)
(1.17096 0.0552994 1.26832e-10)
(1.13875 0.0476991 1.48713e-10)
(1.11259 0.0367362 1.76513e-10)
(1.09393 0.0239893 2.02528e-10)
(1.08338 0.0109033 2.19801e-10)
(1.08051 -0.00130096 2.24615e-10)
(1.08473 -0.0115736 2.17307e-10)
(1.09406 -0.0191443 2.0137e-10)
(1.10767 -0.0234214 1.81629e-10)
(1.12165 -0.0242524 1.62406e-10)
(1.13698 -0.021786 1.46602e-10)
(1.14628 -0.0162595 1.35194e-10)
(1.15718 -0.010269 1.28506e-10)
(1.15457 0.00297127 1.24928e-10)
(1.00009 -0.00179778 -3.28531e-18)
(1.00143 -0.00558343 -1.11047e-17)
(1.00461 -0.00990645 -9.47914e-18)
(1.00979 -0.014907 -1.28914e-17)
(1.01746 -0.0205844 -9.49395e-18)
(1.02807 -0.0266457 -2.78198e-17)
(1.04196 -0.0325554 -9.10365e-18)
(1.05906 -0.037236 8.01964e-17)
(1.07867 -0.039559 -1.25718e-16)
(1.09933 -0.0380501 -4.07471e-16)
(1.11825 -0.0319356 -1.68124e-16)
(1.13286 -0.0221055 3.12234e-16)
(1.14163 -0.00949712 5.84734e-16)
(1.14328 0.00486643 5.33057e-16)
(1.13684 0.019315 3.36963e-16)
(1.12248 0.0312841 9.7423e-17)
(1.10233 0.0382008 -2.33904e-16)
(1.07987 0.038618 -7.59472e-16)
(1.05905 0.0323029 -7.62643e-16)
(1.04356 0.020151 -1.37434e-16)
(1.03643 0.00407063 -1.10522e-14)
(1.03965 -0.0129803 1.21054e-14)
(1.0533 -0.02676 2.76129e-13)
(1.07424 -0.0325144 6.3599e-13)
(1.09584 -0.0273079 5.86632e-13)
(1.11035 -0.0123594 2.40563e-13)
(1.11271 0.00732381 3.45227e-14)
(1.10252 0.0258666 -2.21322e-14)
(1.08286 0.0392321 -4.60155e-14)
(1.058 0.0457906 8.79963e-14)
(1.03188 0.0454002 3.89388e-13)
(1.0078 0.0383657 -1.07361e-12)
(0.988812 0.0249323 -5.07792e-12)
(0.978295 0.00548532 4.75377e-12)
(0.980123 -0.0184718 5.49503e-11)
(0.997423 -0.0427379 1.10876e-10)
(1.02962 -0.0601406 1.24275e-10)
(1.07007 -0.0634158 1.58608e-10)
(1.10723 -0.0498406 2.26885e-10)
(1.1299 -0.0235587 2.18228e-10)
(1.13277 0.00671892 1.28735e-10)
(1.11771 0.0324847 3.90153e-11)
(1.09102 0.0489693 -7.68174e-12)
(1.05952 0.0554445 -1.46358e-11)
(1.02835 0.0532526 9.39448e-12)
(1.00089 0.0437854 4.85834e-11)
(0.97967 0.0276417 -3.97453e-11)
(0.967363 0.0051487 -6.42311e-10)
(0.967357 -0.0221121 -2.18637e-09)
(0.983074 -0.0496137 -4.60805e-09)
(1.01512 -0.0697538 -7.16845e-09)
(1.05825 -0.0745293 -8.86733e-09)
(1.1016 -0.060124 -8.92133e-09)
(1.13276 -0.0300856 -7.19306e-09)
(1.14297 0.00591097 -4.47455e-09)
(1.13093 0.0370826 -1.97665e-09)
(1.10255 0.0565764 -4.35571e-10)
(1.06693 0.0631016 1.62545e-10)
(1.03183 0.0590214 2.24708e-10)
(1.00174 0.0472964 9.05184e-11)
(0.979053 0.0295079 -1.55343e-10)
(0.966439 0.00603229 -5.80409e-10)
(0.967924 -0.0218208 -1.18678e-09)
(0.986581 -0.0495026 -1.81406e-09)
(1.02077 -0.069444 -2.27074e-09)
(1.06301 -0.0743961 -2.49608e-09)
(1.10262 -0.0614452 -2.52577e-09)
(1.12989 -0.0337168 -2.35024e-09)
(1.13911 0.000985803 -1.91934e-09)
(1.12949 0.0333077 -1.29065e-09)
(1.10469 0.0557966 -6.56102e-10)
(1.07128 0.0652221 -1.94826e-10)
(1.03622 0.0624909 5.08306e-11)
(1.00508 0.0504092 1.58621e-10)
(0.982095 0.0311889 2.21926e-10)
(0.97133 0.00601645 2.82097e-10)
(0.976603 -0.0229093 3.48301e-10)
(0.999073 -0.0503932 4.37733e-10)
(1.03501 -0.0691371 5.64982e-10)
(1.07626 -0.0731069 7.13875e-10)
(1.113 -0.0606271 8.48527e-10)
(1.13699 -0.0350886 9.47072e-10)
(1.14383 -0.00324459 1.00102e-09)
(1.13362 0.0273854 9.80861e-10)
(1.11 0.0506568 8.43178e-10)
(1.07846 0.063048 5.93559e-10)
(1.04472 0.0638191 3.17101e-10)
(1.01397 0.0540849 1.30634e-10)
(0.990992 0.0354551 1.04177e-10)
(0.980503 0.00966126 2.26432e-10)
(0.986224 -0.020231 4.32976e-10)
(1.00877 -0.0486861 6.55727e-10)
(1.04428 -0.0687497 8.5139e-10)
(1.08523 -0.07485 1.0013e-09)
(1.1228 -0.0652351 1.09944e-09)
(1.1493 -0.0425873 1.14426e-09)
(1.1599 -0.0127745 1.137e-09)
(1.15353 0.017399 1.07806e-09)
(1.13278 0.0422753 9.60661e-10)
(1.1026 0.0584806 7.77349e-10)
(1.06853 0.0648075 5.43907e-10)
(1.03559 0.0613145 3.14568e-10)
(1.00828 0.0484465 1.59874e-10)
(0.991048 0.0269168 1.2039e-10)
(0.988089 -0.00136528 1.81985e-10)
(1.00169 -0.0321175 2.94317e-10)
(1.03045 -0.058926 4.07921e-10)
(1.06908 -0.0753621 4.96171e-10)
(1.11001 -0.0775024 5.54223e-10)
(1.14561 -0.0652577 5.87879e-10)
(1.16986 -0.0421172 6.04478e-10)
(1.17936 -0.0138045 6.08809e-10)
(1.17375 0.013504 6.01533e-10)
(1.15552 0.0348335 5.77836e-10)
(1.12927 0.0474735 5.2817e-10)
(1.10031 0.0509468 4.45641e-10)
(1.07359 0.0460177 3.37884e-10)
(1.05345 0.0336429 2.30839e-10)
(1.04375 0.0148764 1.55975e-10)
(1.0474 -0.0081779 1.31038e-10)
(1.06496 -0.0315415 1.52006e-10)
(1.09352 -0.0500003 2.00498e-10)
(1.12724 -0.0590616 2.5663e-10)
(1.15925 -0.0568171 3.07046e-10)
(1.18375 -0.0445479 3.46088e-10)
(1.19723 -0.0260031 3.7323e-10)
(1.19886 -0.00600337 3.90055e-10)
(1.19015 0.0109449 3.98412e-10)
(1.17435 0.0216342 3.99887e-10)
(1.15562 0.0246105 3.95801e-10)
(1.1381 0.0200764 3.86753e-10)
(1.12537 0.00936368 3.72028e-10)
(1.12024 -0.00569329 3.50192e-10)
(1.12484 -0.0230664 3.2124e-10)
(1.14023 -0.0404365 2.88541e-10)
(1.16578 -0.0550289 2.58313e-10)
(1.19871 -0.0638545 2.36476e-10)
(1.23448 -0.0644429 2.25383e-10)
(1.26785 -0.0556557 2.22904e-10)
(1.29391 -0.0381312 2.23952e-10)
(1.30888 -0.0142157 2.22924e-10)
(1.31057 0.0125443 2.15741e-10)
(1.29864 0.0380968 2.01163e-10)
(1.27471 0.0587093 1.8155e-10)
(1.24207 0.0717702 1.62544e-10)
(1.205 0.0762511 1.51123e-10)
(1.16788 0.0726644 1.52424e-10)
(1.13444 0.0626035 1.66892e-10)
(1.10739 0.0481562 1.89581e-10)
(1.0882 0.0314239 2.12223e-10)
(1.07745 0.0142982 2.26938e-10)
(1.07468 -0.00164948 2.295e-10)
(1.07927 -0.0150697 2.20531e-10)
(1.08916 -0.0249615 2.04388e-10)
(1.10338 -0.0305245 1.86692e-10)
(1.11787 -0.0315657 1.71906e-10)
(1.13351 -0.0282118 1.62364e-10)
(1.14272 -0.0209329 1.57907e-10)
(1.15351 -0.0128239 1.57841e-10)
(1.14967 0.00430773 1.61261e-10)
(1.00008 -0.00215252 3.58324e-18)
(1.00132 -0.00669937 1.28866e-17)
(1.00431 -0.0119416 8.32462e-18)
(1.00925 -0.0180806 1.91846e-17)
(1.01676 -0.0251502 1.59727e-17)
(1.0274 -0.0328269 -4.55499e-17)
(1.04171 -0.0404767 2.41625e-16)
(1.05979 -0.0467155 -4.58969e-17)
(1.0811 -0.0500829 -1.42686e-15)
(1.10407 -0.048449 -1.80763e-16)
(1.12525 -0.0407271 3.60011e-15)
(1.14157 -0.0282838 3.63283e-15)
(1.15154 -0.0123256 2.38451e-16)
(1.15369 0.00599023 -2.43493e-15)
(1.14655 0.0246694 -3.87424e-15)
(1.13005 0.0403231 -4.61087e-15)
(1.10664 0.049443 -5.48643e-15)
(1.08052 0.0500924 -5.87738e-15)
(1.05625 0.0419601 -1.6101e-15)
(1.03814 0.0261616 -1.47786e-14)
(1.02975 0.00504497 -3.82705e-15)
(1.03372 -0.0176819 2.98624e-13)
(1.05068 -0.0363821 -7.67164e-14)
(1.07711 -0.0443813 -1.117e-12)
(1.1046 -0.0373876 -5.88248e-13)
(1.12307 -0.017071 2.07505e-13)
(1.12614 0.00943993 1.87363e-13)
(1.11377 0.0339603 -5.41345e-14)
(1.09038 0.0512017 -6.56238e-14)
(1.06145 0.0594017 4.60924e-13)
(1.03147 0.0587676 -4.81549e-13)
(1.00384 0.0498813 -4.60276e-12)
(0.981627 0.0329377 1.01117e-11)
(0.968525 0.00801161 5.15564e-11)
(0.969078 -0.0234293 -1.36532e-10)
(0.987199 -0.0560306 -1.11278e-09)
(1.02337 -0.0799407 -2.77763e-09)
(1.07157 -0.0847348 -3.80766e-09)
(1.11818 -0.0662338 -3.18402e-09)
(1.14754 -0.0303442 -1.61511e-09)
(1.15133 0.0103786 -4.03211e-10)
(1.13221 0.0441099 5.48425e-11)
(1.0994 0.0648051 7.57484e-11)
(1.06214 0.0722321 1.93627e-11)
(1.02644 0.0688218 4.00679e-11)
(0.9953 0.0567645 7.18611e-11)
(0.970321 0.036874 -2.81943e-10)
(0.953688 0.00913006 -1.67546e-09)
(0.949997 -0.0253817 -4.36965e-09)
(0.965133 -0.0615933 -7.67688e-09)
(1.00075 -0.089456 -1.05481e-08)
(1.05008 -0.0976705 -1.24151e-08)
(1.09998 -0.0804313 -1.2941e-08)
(1.13665 -0.0417973 -1.15861e-08)
(1.15052 0.00571919 -8.34585e-09)
(1.13928 0.0474091 -4.44922e-09)
(1.10866 0.0734382 -1.43256e-09)
(1.06887 0.0818735 7.9438e-11)
(1.02921 0.0763469 4.3204e-10)
(0.994967 0.0613839 2.10738e-10)
(0.968777 0.0390448 -2.85991e-10)
(0.954157 0.00911948 -9.93016e-10)
(0.956475 -0.0272341 -1.77143e-09)
(0.979113 -0.0637726 -2.34355e-09)
(1.01898 -0.0899169 -2.53795e-09)
(1.06654 -0.0960359 -2.45881e-09)
(1.10965 -0.0788278 -2.34545e-09)
(1.13806 -0.0429394 -2.28168e-09)
(1.14631 0.00139814 -2.10079e-09)
(1.13439 0.0424542 -1.63776e-09)
(1.10672 0.0710103 -9.79215e-10)
(1.07026 0.0830658 -3.71903e-10)
(1.03213 0.0797678 2.01083e-11)
(0.998188 0.0645555 2.03792e-10)
(0.973338 0.0399291 2.67328e-10)
(0.962675 0.00716213 2.9205e-10)
(0.970537 -0.0306486 3.46461e-10)
(0.997361 -0.0661514 4.83827e-10)
(1.0379 -0.0895815 7.06545e-10)
(1.08271 -0.0934419 9.55425e-10)
(1.12143 -0.0761687 1.14857e-09)
(1.14564 -0.0426332 1.23779e-09)
(1.15097 -0.00179606 1.23057e-09)
(1.13784 0.0366965 1.14566e-09)
(1.11065 0.0653213 9.69597e-10)
(1.07571 0.0801169 6.97672e-10)
(1.03922 0.0805078 3.96581e-10)
(1.00662 0.0678459 1.851e-10)