/*--------------------------------*- C++ -*----------------------------------*\
  =========                 |
  \\      /  F ield         | OpenFOAM: The Open Source CFD Toolbox
   \\    /   O peration     | Website:  https://openfoam.org
    \\  /    A nd           | Version:  11
     \\/     M anipulation  |
\*---------------------------------------------------------------------------*/
FoamFile
{
    format      ascii;
    class       volVectorField;
    location    "7.551435";
    object      U_0;
}
// * * * * * * * * * * * * * * * * * * * * * * * * * * * * * * * * * * * * * //

dimensions      [0 1 -1 0 0 0 0];

internalField   nonuniform List<vector> 
7132
(
(1.00014 -0.000286747 1.84053e-18)
(1.00222 -0.000865256 7.13252e-18)
(1.00693 -0.00147906 7.34646e-18)
(1.0141 -0.0021396 8.7307e-18)
(1.02402 -0.00284973 1.132e-17)
(1.03688 -0.00358895 1.20404e-17)
(1.05274 -0.00431742 1.16365e-17)
(1.07145 -0.00495696 1.08674e-17)
(1.09247 -0.00542361 1.01554e-17)
(1.11495 -0.00562843 9.65027e-18)
(1.13763 -0.00552084 9.17281e-18)
(1.15927 -0.005166 9.02022e-18)
(1.17906 -0.00462386 7.93695e-18)
(1.19635 -0.00395579 8.41792e-18)
(1.21076 -0.00321854 -7.34242e-19)
(1.22212 -0.00245517 -1.04572e-17)
(1.23041 -0.00170583 -2.02476e-17)
(1.23575 -0.00101417 -1.57153e-17)
(1.23848 -0.000430281 -2.22843e-17)
(1.23914 -5.16063e-06 -3.21077e-17)
(1.23844 0.000225641 -3.30848e-17)
(1.23724 0.000262132 -3.56228e-17)
(1.23626 0.000154501 -4.28698e-17)
(1.23595 3.79196e-06 -5.86332e-17)
(1.23622 -5.54253e-05 -6.64126e-17)
(1.23644 0.000111875 -8.49823e-17)
(1.23543 0.00059481 -1.04278e-16)
(1.2318 0.00139253 -1.20274e-16)
(1.22438 0.00239661 -1.32833e-16)
(1.21266 0.00341909 -1.31002e-16)
(1.19698 0.00425591 -1.21851e-16)
(1.17848 0.00474906 -1.09901e-16)
(1.15879 0.0048205 -1.04198e-16)
(1.1397 0.00447535 -9.00629e-17)
(1.12279 0.00378595 -7.26567e-17)
(1.10926 0.00286998 -4.6574e-17)
(1.09974 0.00186959 -9.42184e-18)
(1.09427 0.000931213 3.66547e-17)
(1.09232 0.000185692 1.01157e-16)
(1.09287 -0.000272229 1.76473e-16)
(1.09463 -0.000402843 2.58647e-16)
(1.09623 -0.000229958 3.40378e-16)
(1.09659 0.000167657 4.12705e-16)
(1.09498 0.000680033 4.77289e-16)
(1.09119 0.00119571 5.30837e-16)
(1.08542 0.00162588 5.74707e-16)
(1.07816 0.00191604 6.10276e-16)
(1.07004 0.00204596 6.3904e-16)
(1.06173 0.0020225 6.68442e-16)
(1.0538 0.0018702 6.98847e-16)
(1.04671 0.00162277 7.30965e-16)
(1.04077 0.00131677 7.66473e-16)
(1.03614 0.000987572 8.05128e-16)
(1.03285 0.00066684 8.39386e-16)
(1.0308 0.000380851 8.62007e-16)
(1.02981 0.000149298 8.64897e-16)
(1.02962 -1.55677e-05 8.42859e-16)
(1.02995 -0.000109437 7.96035e-16)
(1.03052 -0.000135827 7.23824e-16)
(1.03106 -0.000105087 6.31465e-16)
(1.03138 -3.25081e-05 5.26801e-16)
(1.03134 6.42039e-05 4.19476e-16)
(1.03088 0.000167599 3.16858e-16)
(1.03001 0.00026279 2.19228e-16)
(1.02878 0.000338948 1.27678e-16)
(1.02729 0.00038986 3.78832e-17)
(1.02565 0.00041368 -5.71039e-17)
(1.02397 0.000412125 -1.63073e-16)
(1.02234 0.000389431 -2.88463e-16)
(1.02084 0.000351273 -4.36977e-16)
(1.01952 0.000303819 -6.133e-16)
(1.01841 0.000252991 -8.19781e-16)
(1.0175 0.000203925 -1.05443e-15)
(1.01677 0.000160639 -1.31522e-15)
(1.01621 0.000125872 -1.59405e-15)
(1.01577 0.00010106 -1.88452e-15)
(1.0154 8.6443e-05 -2.17921e-15)
(1.01508 8.12422e-05 -2.46962e-15)
(1.01476 8.39154e-05 -2.75077e-15)
(1.01441 9.24372e-05 -3.01545e-15)
(1.01402 0.000104584 -3.26142e-15)
(1.01358 0.000118196 -3.48772e-15)
(1.01308 0.000131383 -3.69387e-15)
(1.01252 0.000142673 -3.88282e-15)
(1.01193 0.000151085 -4.05486e-15)
(1.01131 0.000156131 -4.21399e-15)
(1.01068 0.000157774 -4.36347e-15)
(1.01005 0.000156339 -4.50491e-15)
(1.00943 0.0001524 -4.64085e-15)
(1.00883 0.000146679 -4.76899e-15)
(1.00825 0.000139932 -4.88856e-15)
(1.00771 0.000132874 -4.99644e-15)
(1.00719 0.000126111 -5.08677e-15)
(1.0067 0.000120106 -5.15677e-15)
(1.00623 0.000115162 -5.20107e-15)
(1.00578 0.000111424 -5.21726e-15)
(1.00534 0.000108896 -5.20561e-15)
(1.0049 0.000107471 -5.16668e-15)
(1.00448 0.000106958 -5.10573e-15)
(1.00405 0.00010712 -5.02493e-15)
(1.00362 0.000107702 -4.92715e-15)
(1.00319 0.000108461 -4.81423e-15)
(1.00275 0.000109185 -4.68464e-15)
(1.00231 0.000109711 -4.53896e-15)
(1.00187 0.000109926 -4.37419e-15)
(1.00143 0.000109771 -4.18964e-15)
(1.00099 0.000109236 -3.98626e-15)
(1.00055 0.000108344 -3.7643e-15)
(1.00012 0.000107143 -3.52688e-15)
(0.999696 0.000105692 -3.27169e-15)
(0.999275 0.000104048 -2.99439e-15)
(0.998862 0.000102259 -2.68637e-15)
(0.998455 0.000100353 -2.33278e-15)
(0.998057 9.83394e-05 -1.91824e-15)
(0.997666 9.62025e-05 -1.42217e-15)
(0.997285 9.39073e-05 -8.26179e-16)
(0.996913 9.14029e-05 -1.1521e-16)
(0.996551 8.86299e-05 7.21619e-16)
(0.9962 8.5524e-05 1.68417e-15)
(0.995863 8.20119e-05 2.76598e-15)
(0.995541 7.79906e-05 3.94971e-15)
(0.995235 7.32847e-05 5.20675e-15)
(0.99495 6.75855e-05 6.50395e-15)
(0.99469 6.0386e-05 7.80462e-15)
(0.994462 5.09437e-05 9.07576e-15)
(0.994277 3.83105e-05 1.02895e-14)
(0.994149 2.14668e-05 1.14245e-14)
(0.994096 -4.25546e-07 1.24749e-14)
(0.994142 -2.7677e-05 1.34572e-14)
(0.994305 -5.97041e-05 1.44271e-14)
(0.994604 -9.47563e-05 1.54815e-14)
(0.995047 -0.000129861 1.6747e-14)
(0.995625 -0.000161078 1.83498e-14)
(0.996316 -0.000184091 2.03521e-14)
(0.997079 -0.000195031 2.26752e-14)
(0.997859 -0.000191386 2.50148e-14)
(0.998595 -0.00017272 2.67832e-14)
(0.999229 -0.000141008 2.71114e-14)
(0.999714 -0.000100432 2.4927e-14)
(1.00003 -5.66511e-05 1.91321e-14)
(1.00016 -1.57092e-05 8.86182e-15)
(1.00015 1.71556e-05 -6.21193e-15)
(1.00003 3.84934e-05 -2.56002e-14)
(0.999841 4.7179e-05 -4.78477e-14)
(0.999647 4.43963e-05 -7.05745e-14)
(0.999485 3.31182e-05 -9.07699e-14)
(0.999381 1.72624e-05 -1.05321e-13)
(0.999346 7.63251e-07 -1.11678e-13)
(0.999375 -1.3206e-05 -1.08493e-13)
(0.999452 -2.27022e-05 -9.6032e-14)
(0.999557 -2.712e-05 -7.62055e-14)
(0.99967 -2.69838e-05 -5.21943e-14)
(0.999774 -2.35452e-05 -2.77513e-14)
(0.999859 -1.83244e-05 -6.38384e-15)
(0.999921 -1.27166e-05 9.36954e-15)
(0.999961 -7.74757e-06 1.83693e-14)
(0.999983 -3.96921e-06 2.09272e-14)
(0.999993 -1.52295e-06 1.8435e-14)
(0.999996 -2.39213e-07 1.34679e-14)
(0.999994 2.27309e-07 4.65987e-15)
(1.00014 -0.000857424 2.83651e-20)
(1.0022 -0.0025886 3.36843e-19)
(1.00687 -0.00442691 6.62887e-19)
(1.014 -0.00640921 1.03368e-18)
(1.02388 -0.00854505 1.48958e-18)
(1.03674 -0.0107741 1.94837e-18)
(1.05266 -0.0129774 2.37684e-18)
(1.07151 -0.0149166 2.23952e-18)
(1.09276 -0.0163359 5.32098e-18)
(1.11554 -0.0169577 6.96078e-18)
(1.13851 -0.0166255 4.46409e-18)
(1.16039 -0.0155468 4.9647e-18)
(1.18034 -0.0139053 8.33085e-19)
(1.19773 -0.0118875 1.08804e-17)
(1.2122 -0.0096648 3.9899e-17)
(1.22357 -0.00736494 7.73985e-17)
(1.23183 -0.00510669 1.04448e-16)
(1.23709 -0.00301983 1.06399e-16)
(1.23969 -0.0012554 7.7291e-17)
(1.24016 3.04231e-05 1.94961e-17)
(1.23927 0.000726307 -6.01419e-17)
(1.23789 0.000828251 -1.57498e-16)
(1.23681 0.00048587 -2.67167e-16)
(1.23651 5.16261e-06 -3.78258e-16)
(1.23695 -0.000202373 -4.68792e-16)
(1.23743 0.000278338 -5.1725e-16)
(1.23674 0.00172401 -5.17121e-16)
(1.23338 0.00413626 -4.74218e-16)
(1.22609 0.00718543 -4.0299e-16)
(1.21429 0.0102961 -3.20739e-16)
(1.19836 0.0128436 -2.26561e-16)
(1.17948 0.0143456 -1.4882e-16)
(1.15937 0.0145655 -7.30659e-17)
(1.13989 0.0135205 2.07434e-17)
(1.12268 0.0114311 1.29705e-16)
(1.10896 0.00865415 2.85861e-16)
(1.0994 0.00562019 4.84229e-16)
(1.09404 0.00277268 7.24586e-16)
(1.09231 0.000509051 1.00041e-15)
(1.09315 -0.000881654 1.27599e-15)
(1.09521 -0.00127719 1.5251e-15)
(1.09709 -0.00074936 1.70733e-15)
(1.09763 0.000461596 1.81873e-15)
(1.0961 0.00202033 1.87789e-15)
(1.09229 0.00358746 1.89586e-15)
(1.08642 0.00489341 1.89418e-15)
(1.07902 0.00577357 1.87835e-15)
(1.07076 0.00616767 1.85898e-15)
(1.06231 0.00609749 1.84495e-15)
(1.05426 0.0056379 1.83423e-15)
(1.04708 0.00489099 1.82637e-15)
(1.04109 0.00396724 1.81131e-15)
(1.03644 0.00297338 1.76872e-15)
(1.03315 0.00200486 1.67635e-15)
(1.03113 0.00114097 1.50573e-15)
(1.03018 0.000441247 1.24045e-15)
(1.03006 -5.71525e-05 8.80019e-16)
(1.03045 -0.000340963 4.3795e-16)
(1.03108 -0.00042058 -5.95276e-17)
(1.03168 -0.00032717 -5.78832e-16)
(1.03203 -0.000106967 -1.07594e-15)
(1.03201 0.000186393 -1.51482e-15)
(1.03155 0.000499999 -1.88133e-15)
(1.03067 0.000788708 -2.17986e-15)
(1.02942 0.00101969 -2.42821e-15)
(1.02791 0.00117415 -2.64778e-15)
(1.02624 0.00124652 -2.87111e-15)
(1.02453 0.00124203 -3.12076e-15)
(1.02289 0.00117355 -3.41759e-15)
(1.02137 0.00105826 -3.77563e-15)
(1.02004 0.000914845 -4.19818e-15)
(1.01892 0.000761208 -4.68713e-15)
(1.01801 0.000612886 -5.22865e-15)
(1.01729 0.000482035 -5.80586e-15)
(1.01673 0.000376937 -6.39668e-15)
(1.0163 0.000301948 -6.97611e-15)
(1.01594 0.000257794 -7.52736e-15)
(1.01562 0.000242131 -8.02977e-15)
(1.01531 0.000250299 -8.47192e-15)
(1.01497 0.000276171 -8.84702e-15)
(1.01458 0.000313018 -9.15233e-15)
(1.01413 0.000354296 -9.39539e-15)
(1.01363 0.000394284 -9.57947e-15)
(1.01308 0.000428523 -9.71341e-15)
(1.01248 0.000454039 -9.80486e-15)
(1.01186 0.000469363 -9.86044e-15)
(1.01122 0.000474386 -9.89096e-15)
(1.01058 0.000470086 -9.89764e-15)
(1.00996 0.000458213 -9.88283e-15)
(1.00936 0.000440944 -9.84346e-15)
(1.00878 0.000420573 -9.77306e-15)
(1.00823 0.00039926 -9.667e-15)
(1.00771 0.000378843 -9.51315e-15)
(1.00722 0.00036072 -9.30418e-15)
(1.00675 0.000345808 -9.0345e-15)
(1.00629 0.000334543 -8.70257e-15)
(1.00585 0.000326943 -8.31365e-15)
(1.00542 0.00032268 -7.87419e-15)
(1.00499 0.000321178 -7.3964e-15)
(1.00456 0.000321718 -6.89052e-15)
(1.00413 0.000323531 -6.36327e-15)
(1.0037 0.000325879 -5.81841e-15)
(1.00326 0.000328124 -5.25193e-15)
(1.00282 0.000329768 -4.66047e-15)
(1.00237 0.000330473 -4.03887e-15)
(1.00193 0.000330063 -3.38396e-15)
(1.00149 0.000328503 -2.69757e-15)
(1.00105 0.000325867 -1.98142e-15)
(1.00061 0.000322302 -1.24147e-15)
(1.00018 0.000317987 -4.7936e-16)
(0.999758 0.000313097 3.09324e-16)
(0.99934 0.000307775 1.13529e-15)
(0.99893 0.000302114 2.02007e-15)
(0.998527 0.000296138 2.98766e-15)
(0.998133 0.000289806 4.06705e-15)
(0.997746 0.000283012 5.28774e-15)
(0.997369 0.000275604 6.67584e-15)
(0.997001 0.000267402 8.25675e-15)
(0.996645 0.000258213 1.00476e-14)
(0.996301 0.000247814 1.20619e-14)
(0.995972 0.000235898 1.43091e-14)
(0.995659 0.00022195 1.67926e-14)
(0.995366 0.000205063 1.95186e-14)
(0.995097 0.000183749 2.24953e-14)
(0.994859 0.000155821 2.57371e-14)
(0.994662 0.000118477 2.92667e-14)
(0.994521 6.86884e-05 3.31079e-14)
(0.994453 3.93738e-06 3.72906e-14)
(0.994479 -7.6754e-05 4.18562e-14)
(0.99462 -0.000171732 4.68807e-14)
(0.994892 -0.000275884 5.24716e-14)
(0.995304 -0.000380451 5.87298e-14)
(0.995849 -0.000473763 6.56819e-14)
(0.996505 -0.000542962 7.3161e-14)
(0.997232 -0.00057647 8.0676e-14)
(0.997978 -0.000566676 8.72978e-14)
(0.998682 -0.000512127 9.16051e-14)
(0.999289 -0.000418547 9.17498e-14)
(0.999752 -0.000298274 8.56494e-14)
(1.00005 -0.00016812 7.13298e-14)
(1.00017 -4.61197e-05 4.73904e-14)
(1.00015 5.20203e-05 1.35236e-14)
(1.00002 0.00011588 -2.90091e-14)
(0.999832 0.000141963 -7.71403e-14)
(0.999637 0.000133692 -1.26077e-13)
(0.999475 9.9884e-05 -1.69819e-13)
(0.999371 5.22378e-05 -2.02137e-13)
(0.999338 2.55649e-06 -2.17862e-13)
(0.999368 -3.95978e-05 -2.14167e-13)
(0.999447 -6.83331e-05 -1.91442e-13)
(0.999554 -8.17741e-05 -1.53402e-13)
(0.999669 -8.14579e-05 -1.06372e-13)
(0.999775 -7.11321e-05 -5.7902e-14)
(0.999861 -5.53782e-05 -1.51103e-14)
(0.999924 -3.84175e-05 1.67811e-14)
(0.999964 -2.33665e-05 3.53409e-14)
(0.999985 -1.19118e-05 4.10541e-14)
(0.999994 -4.49863e-06 3.65913e-14)
(0.999997 -6.07554e-07 2.70449e-14)
(0.999994 7.60584e-07 9.65523e-15)
(1.00014 -0.00142028 5.11517e-22)
(1.00216 -0.00428982 3.52657e-21)
(1.00675 -0.0073436 2.15059e-21)
(1.01378 -0.0106489 1.24054e-20)
(1.0236 -0.0142266 -1.4269e-19)
(1.03645 -0.0179801 2.45083e-19)
(1.05248 -0.0217131 -7.82128e-19)
(1.07161 -0.0250158 -1.51633e-18)
(1.09332 -0.0274486 6.06073e-18)
(1.11672 -0.0285108 -6.80727e-19)
(1.14028 -0.0279244 -3.57271e-17)
(1.16262 -0.0260776 -3.10324e-17)
(1.1829 -0.0232899 9.10875e-17)
(1.20051 -0.0198802 3.00821e-16)
(1.21509 -0.0161357 4.58911e-16)
(1.22649 -0.012265 4.24092e-16)
(1.23468 -0.0084615 1.4946e-16)
(1.23979 -0.00494049 -3.06567e-16)
(1.24212 -0.00195953 -8.36581e-16)
(1.24224 0.000208389 -1.34664e-15)
(1.24095 0.00136319 -1.80261e-15)
(1.23922 0.00148826 -2.16408e-15)
(1.23794 0.000833429 -2.38196e-15)
(1.23769 -7.65202e-05 -2.39121e-15)
(1.23845 -0.000528441 -2.09419e-15)
(1.23949 0.000205177 -1.45903e-15)
(1.23944 0.0026185 -6.33691e-16)
(1.23661 0.00672503 2.07253e-16)
(1.22953 0.0119534 9.19949e-16)
(1.21755 0.0172983 1.43675e-15)
(1.20104 0.0216721 1.77429e-15)
(1.18135 0.0242433 1.99979e-15)
(1.16037 0.0246124 2.19917e-15)
(1.14009 0.0228182 2.4555e-15)
(1.12228 0.0192446 2.83564e-15)
(1.10824 0.0145034 3.38415e-15)
(1.09866 0.00932852 4.09773e-15)
(1.09356 0.00447596 4.89206e-15)
(1.09232 0.000624935 5.61914e-15)
(1.09381 -0.00172814 6.15695e-15)
(1.09652 -0.00237295 6.34e-15)
(1.09893 -0.00143538 6.11295e-15)
(1.09981 0.000666778 5.66569e-15)
(1.09838 0.00335243 5.21641e-15)
(1.09447 0.00603704 4.84631e-15)
(1.08835 0.00826109 4.57233e-15)
(1.08062 0.00974894 4.37599e-15)
(1.07202 0.0104047 4.22297e-15)
(1.06327 0.0102715 4.07667e-15)
(1.05498 0.0094808 3.89934e-15)
(1.04764 0.00820767 3.6465e-15)
(1.04156 0.00663971 3.25733e-15)
(1.03689 0.00495701 2.64899e-15)
(1.03365 0.00332027 1.73673e-15)
(1.03172 0.00186287 4.50572e-16)
(1.0309 0.000684995 -1.22366e-15)
(1.03092 -0.000150807 -3.21005e-15)
(1.03146 -0.000622386 -5.37927e-15)
(1.03222 -0.000747786 -7.57059e-15)
(1.03292 -0.000580438 -9.60972e-15)
(1.03334 -0.000199413 -1.13405e-14)
(1.03335 0.000303726 -1.26686e-14)
(1.03288 0.000838901 -1.35969e-14)
(1.03196 0.00132956 -1.41986e-14)
(1.03066 0.0017204 -1.45858e-14)
(1.02909 0.00198015 -1.48746e-14)
(1.02736 0.00210006 -1.51749e-14)
(1.0256 0.00208965 -1.55742e-14)
(1.02391 0.00197117 -1.6129e-14)
(1.02237 0.00177405 -1.68671e-14)
(1.02102 0.00153006 -1.77803e-14)
(1.01989 0.00126955 -1.88359e-14)
(1.01899 0.00101872 -1.99779e-14)
(1.01829 0.00079803 -2.11354e-14)
(1.01775 0.000621345 -2.22359e-14)
(1.01733 0.00049588 -2.32104e-14)
(1.017 0.000422713 -2.40085e-14)
(1.0167 0.00039774 -2.45994e-14)
(1.01639 0.000412962 -2.4972e-14)
(1.01606 0.000457925 -2.51353e-14)
(1.01567 0.000521189 -2.51067e-14)
(1.01523 0.000591657 -2.49144e-14)
(1.01472 0.000659656 -2.45863e-14)
(1.01415 0.000717679 -2.41472e-14)
(1.01355 0.000760745 -2.36197e-14)
(1.01291 0.000786436 -2.30167e-14)
(1.01227 0.000794628 -2.23493e-14)
(1.01162 0.000787043 -2.16202e-14)
(1.01099 0.000766687 -2.08247e-14)
(1.01038 0.000737278 -1.99529e-14)
(1.0098 0.000702722 -1.89867e-14)
(1.00925 0.000666676 -1.79067e-14)
(1.00873 0.000632242 -1.66935e-14)
(1.00823 0.000601773 -1.53334e-14)
(1.00776 0.000576797 -1.38225e-14)
(1.00731 0.000558034 -1.217e-14)
(1.00687 0.00054549 -1.03982e-14)
(1.00643 0.00053859 -8.53836e-15)
(1.006 0.000536348 -6.62469e-15)
(1.00557 0.000537535 -4.68624e-15)
(1.00513 0.000540844 -2.74015e-15)
(1.00469 0.000545026 -7.88687e-16)
(1.00425 0.000549003 1.17988e-15)
(1.0038 0.000551938 3.18516e-15)
(1.00335 0.000553269 5.24664e-15)
(1.00291 0.000552707 7.37623e-15)
(1.00246 0.000550202 9.57373e-15)
(1.00201 0.000545891 1.18278e-14)
(1.00157 0.00054003 1.4121e-14)
(1.00113 0.000532929 1.64373e-14)
(1.0007 0.000524889 1.87702e-14)
(1.00028 0.000516157 2.11272e-14)
(0.999858 0.000506891 2.35303e-14)
(0.999447 0.000497138 2.60143e-14)
(0.999044 0.000486829 2.86228e-14)
(0.998648 0.000475791 3.14068e-14)
(0.998261 0.000463767 3.44257e-14)
(0.997883 0.000450454 3.77515e-14)
(0.997515 0.000435519 4.14747e-14)
(0.997159 0.000418586 4.57085e-14)
(0.996816 0.000399141 5.05925e-14)
(0.996489 0.000376338 5.62928e-14)
(0.996181 0.000348708 6.30009e-14)
(0.995895 0.000313843 7.09312e-14)
(0.995639 0.000268208 8.03131e-14)
(0.995423 0.000207253 9.1377e-14)
(0.995258 0.000126038 1.04331e-13)
(0.995163 2.04245e-05 1.19334e-13)
(0.995156 -0.000111256 1.36493e-13)
(0.995257 -0.000266405 1.55893e-13)
(0.995482 -0.000436777 1.7756e-13)
(0.995839 -0.000608142 2.01342e-13)
(0.996322 -0.000761445 2.26723e-13)
(0.996911 -0.000875602 2.52572e-13)
(0.997569 -0.000931545 2.76909e-13)
(0.998246 -0.000916642 2.96766e-13)
(0.998885 -0.000828335 3.0823e-13)
(0.999431 -0.000675869 3.06723e-13)
(0.999843 -0.000479412 2.8754e-13)
(1.0001 -0.000266565 2.46598e-13)
(1.00019 -6.70268e-05 1.8138e-13)
(1.00014 9.32717e-05 9.19661e-14)
(1 0.000197072 -1.80427e-14)
(0.999805 0.000238538 -1.41051e-13)
(0.999607 0.000223284 -2.65614e-13)
(0.999447 0.000165889 -3.77513e-13)
(0.999348 8.57494e-05 -4.61908e-13)
(0.99932 2.47556e-06 -5.06312e-13)
(0.999357 -6.80209e-05 -5.03672e-13)
(0.999442 -0.000115926 -4.5456e-13)
(0.999554 -0.000138128 -3.67574e-13)
(0.999673 -0.000137225 -2.57711e-13)
(0.999782 -0.000119528 -1.43089e-13)
(0.999869 -9.27557e-05 -4.09494e-14)
(0.999931 -6.40283e-05 3.59119e-14)
(0.99997 -3.86027e-05 8.13434e-14)
(0.999991 -1.93179e-05 9.62025e-14)
(0.999998 -6.92329e-06 8.66211e-14)
(0.999998 -4.75565e-07 6.46289e-14)
(0.999995 1.56258e-06 2.36201e-14)
(1.00014 -0.00196985 -3.15922e-20)
(1.00209 -0.00595243 -4.68834e-19)
(1.00656 -0.010206 -7.83427e-19)
(1.01344 -0.0148352 -1.56182e-18)
(1.02313 -0.0198805 -1.72612e-18)
(1.03595 -0.0252164 -1.66295e-18)
(1.05214 -0.0305725 -1.11668e-17)
(1.07169 -0.0353494 1.70594e-17)
(1.09412 -0.0389033 4.3107e-18)
(1.11847 -0.040446 -1.35333e-16)
(1.14295 -0.0395504 -3.56637e-17)
(1.16599 -0.036858 6.16752e-16)
(1.18677 -0.0328442 1.24958e-15)
(1.20469 -0.0279726 8.32217e-16)
(1.21943 -0.0226504 -1.17306e-15)
(1.23086 -0.017158 -4.34244e-15)
(1.23896 -0.0117544 -7.63737e-15)
(1.24383 -0.00673596 -1.00729e-14)
(1.24576 -0.00247348 -1.11511e-14)
(1.24533 0.000623689 -1.08969e-14)
(1.24342 0.00224149 -9.63201e-15)
(1.24114 0.0023322 -7.31989e-15)
(1.23955 0.00124556 -3.81748e-15)
(1.23936 -0.000254492 9.76277e-16)
(1.24062 -0.0011104 6.89299e-15)
(1.24253 -0.000225195 1.30654e-14)
(1.24351 0.00316321 1.82624e-14)
(1.24152 0.00909789 2.16461e-14)
(1.2348 0.0167321 2.29949e-14)
(1.2225 0.0245574 2.26517e-14)
(1.2051 0.0309497 2.12976e-14)
(1.18414 0.0346849 1.96182e-14)
(1.16179 0.0351947 1.81933e-14)
(1.14028 0.0325574 1.73804e-14)
(1.12156 0.0273481 1.73012e-14)
(1.10703 0.0204605 1.78739e-14)
(1.09743 0.0129584 1.86901e-14)
(1.09275 0.00593607 1.89691e-14)
(1.0923 0.000380963 1.80019e-14)
(1.09478 -0.00298058 1.56037e-14)
(1.09851 -0.00384119 1.15205e-14)
(1.10176 -0.00239242 6.34623e-15)
(1.10315 0.000740175 1.7623e-15)
(1.10187 0.00469322 -9.86295e-16)
(1.09777 0.00860732 -1.95598e-15)
(1.09124 0.0118182 -1.70077e-15)
(1.08299 0.0139387 -8.74818e-16)
(1.07385 0.0148462 -1.7195e-17)
(1.06463 0.0146171 5.00917e-16)
(1.05597 0.0134501 4.32452e-16)
(1.04839 0.0116018 -4.08475e-16)
(1.04218 0.00934228 -2.21888e-15)
(1.03749 0.00692856 -5.2194e-15)
(1.03433 0.00458889 -9.58937e-15)
(1.03256 0.00251236 -1.53739e-14)
(1.03195 0.000840861 -2.23586e-14)
(1.03219 -0.000337186 -3.00265e-14)
(1.03296 -0.000991055 -3.77129e-14)
(1.03392 -0.00114786 -4.47054e-14)
(1.03477 -0.000885858 -5.03879e-14)
(1.03529 -0.000320321 -5.44031e-14)
(1.03534 0.000415761 -5.67372e-14)
(1.03486 0.00119215 -5.76546e-14)
(1.03388 0.00189893 -5.75647e-14)
(1.03249 0.00245761 -5.69141e-14)
(1.03082 0.00282478 -5.61061e-14)
(1.029 0.00298957 -5.54673e-14)
(1.02716 0.0029672 -5.5209e-14)
(1.0254 0.00279078 -5.54327e-14)
(1.02382 0.00250325 -5.6133e-14)
(1.02245 0.00215052 -5.72094e-14)
(1.02132 0.00177609 -5.84972e-14)
(1.02043 0.00141732 -5.97813e-14)
(1.01975 0.00110317 -6.08409e-14)
(1.01924 0.000853103 -6.14817e-14)
(1.01886 0.000677038 -6.15639e-14)
(1.01856 0.000576131 -6.10286e-14)
(1.01828 0.000544162 -5.98837e-14)
(1.018 0.000569389 -5.82007e-14)
(1.01767 0.00063663 -5.60858e-14)
(1.01729 0.000729369 -5.36519e-14)
(1.01684 0.000831666 -5.10049e-14)
(1.01632 0.000929702 -4.82158e-14)
(1.01575 0.00101282 -4.53281e-14)
(1.01512 0.00107404 -4.23552e-14)
(1.01447 0.00111008 -3.92878e-14)
(1.01381 0.00112092 -3.61069e-14)
(1.01315 0.00110919 -3.27762e-14)
(1.01251 0.00107932 -2.92574e-14)
(1.01189 0.00103671 -2.55068e-14)
(1.0113 0.000986997 -2.14798e-14)
(1.01075 0.000935415 -1.71415e-14)
(1.01022 0.000886385 -1.24627e-14)
(1.00973 0.000843232 -7.43896e-15)
(1.00926 0.00080809 -2.09331e-15)
(1.0088 0.000781931 3.52057e-15)
(1.00836 0.00076471 9.32033e-15)
(1.00792 0.000755558 1.52123e-14)
(1.00749 0.000753026 2.11035e-14)
(1.00705 0.000755332 2.6926e-14)
(1.00661 0.000760591 3.26514e-14)
(1.00617 0.000767014 3.82949e-14)
(1.00572 0.000773065 4.39125e-14)
(1.00526 0.000777563 4.95773e-14)
(1.00481 0.000779723 5.53599e-14)
(1.00435 0.000779158 6.13059e-14)
(1.00389 0.000775819 6.74201e-14)
(1.00343 0.000769925 7.36699e-14)
(1.00298 0.000761862 7.99902e-14)
(1.00253 0.000752087 8.63067e-14)
(1.00209 0.000741043 9.25525e-14)
(1.00166 0.00072909 9.86807e-14)
(1.00123 0.000716458 1.04675e-13)
(1.00081 0.00070322 1.10542e-13)
(1.00039 0.000689283 1.16324e-13)
(0.999982 0.000674405 1.22102e-13)
(0.99958 0.000658222 1.28015e-13)
(0.999187 0.000640298 1.34293e-13)
(0.998802 0.000620151 1.4128e-13)
(0.998428 0.000597236 1.49459e-13)
(0.998066 0.000570826 1.59463e-13)
(0.997718 0.000539757 1.72056e-13)
(0.997387 0.000502037 1.88112e-13)
(0.997078 0.000454429 2.08573e-13)
(0.996796 0.000392178 2.34396e-13)
(0.996551 0.000309157 2.66486e-13)
(0.996353 0.000198681 3.0561e-13)
(0.996219 5.51099e-05 3.52298e-13)
(0.996165 -0.000123895 4.06757e-13)
(0.99621 -0.000334918 4.68892e-13)
(0.996368 -0.000566879 5.38174e-13)
(0.996647 -0.000800519 6.13293e-13)
(0.997041 -0.00100993 6.917e-13)
(0.997533 -0.00116634 7.69104e-13)
(0.998088 -0.00124362 8.39124e-13)
(0.998661 -0.00122435 8.93277e-13)
(0.999199 -0.00110489 9.21432e-13)
(0.999653 -0.000897763 9.12739e-13)
(0.999984 -0.000630532 8.56924e-13)
(1.00017 -0.000341049 7.45861e-13)
(1.00021 -7.0117e-05 5.75366e-13)
(1.00013 0.000146592 3.47154e-13)
(0.999964 0.000285329 7.06516e-14)
(0.999758 0.000338111 -2.36014e-13)
(0.999558 0.000312795 -5.46125e-13)
(0.999401 0.000229668 -8.26494e-13)
(0.99931 0.000115723 -1.04215e-12)
(0.999292 -1.75139e-06 -1.16312e-12)
(0.99934 -0.000100617 -1.17181e-12)
(0.999436 -0.000167264 -1.06846e-12)
(0.999557 -0.000197473 -8.72469e-13)
(0.999682 -0.000195043 -6.18848e-13)
(0.999794 -0.000168996 -3.50553e-13)
(0.999882 -0.000130321 -1.08949e-13)
(0.999944 -8.91427e-05 7.48237e-14)
(0.999981 -5.2913e-05 1.85261e-13)
(0.999998 -2.56275e-05 2.23542e-13)
(1 -8.30999e-06 2.03534e-13)
(1 5.39731e-07 1.53396e-13)
(0.999995 2.81699e-06 5.73915e-14)
(1.00013 -0.00249945 -2.34578e-18)
(1.002 -0.00755736 -6.9212e-18)
(1.00629 -0.0129857 -5.72721e-18)
(1.01295 -0.0189372 -8.83369e-18)
(1.02245 -0.0254842 5.12056e-19)
(1.03519 -0.032484 -2.93446e-17)
(1.05156 -0.0395989 1.99725e-17)
(1.07166 -0.0460152 8.30906e-17)
(1.09507 -0.0508566 -4.26996e-16)
(1.12077 -0.0529389 7.98476e-18)
(1.14653 -0.0516455 2.31831e-15)
(1.17051 -0.0479902 2.56992e-15)
(1.19196 -0.0426336 -4.25152e-15)
(1.21028 -0.0361998 -1.79877e-14)
(1.22522 -0.0292178 -3.28541e-14)
(1.23669 -0.0220275 -4.18454e-14)
(1.24468 -0.0149419 -4.10474e-14)
(1.24924 -0.00833411 -3.08039e-14)
(1.25062 -0.00270078 -1.40746e-14)
(1.24942 0.00138394 5.90594e-15)
(1.24664 0.00345782 2.78611e-14)
(1.24356 0.00341728 5.1652e-14)
(1.2415 0.00170984 7.74239e-14)
(1.24137 -0.00062918 1.05483e-13)
(1.24333 -0.00213519 1.32074e-13)
(1.24649 -0.00125677 1.48245e-13)
(1.24894 0.00311766 1.51466e-13)
(1.24819 0.0110893 1.44913e-13)
(1.24198 0.0214804 1.32094e-13)
(1.22927 0.0321633 1.16452e-13)
(1.21061 0.0408642 1.00623e-13)
(1.18786 0.0459048 8.63689e-14)
(1.16359 0.0465424 7.47007e-14)
(1.14037 0.0429252 6.5886e-14)
(1.1204 0.0358605 5.93811e-14)
(1.1052 0.0265637 5.35653e-14)
(1.09558 0.0164655 4.55429e-14)
(1.0915 0.00703511 3.13514e-14)
(1.09216 -0.00039446 9.2748e-15)
(1.09604 -0.00483314 -1.9355e-14)
(1.10119 -0.00586141 -5.13736e-14)
(1.1056 -0.00375262 -7.99697e-14)
(1.1077 0.000616172 -9.76168e-14)
(1.1066 0.00604484 -1.01547e-13)
(1.10222 0.0113542 -9.47567e-14)
(1.0951 0.0156529 -8.21439e-14)
(1.08611 0.0184419 -6.82025e-14)
(1.07624 0.0195852 -5.60738e-14)
(1.06636 0.0192106 -4.7503e-14)
(1.05721 0.0176008 -4.32552e-14)
(1.04929 0.0151057 -4.36438e-14)
(1.04291 0.0120859 -4.88804e-14)
(1.03821 0.00888009 -5.91226e-14)
(1.03517 0.00578729 -7.42226e-14)
(1.03361 0.00305464 -9.34032e-14)
(1.03328 0.000867381 -1.15083e-13)
(1.03385 -0.000659349 -1.37061e-13)
(1.03493 -0.00148675 -1.56856e-13)
(1.03617 -0.00165321 -1.72135e-13)
(1.03723 -0.00126572 -1.8147e-13)
(1.03788 -0.000480719 -1.84877e-13)
(1.03798 0.000522191 -1.83661e-13)
(1.03747 0.00156827 -1.79408e-13)
(1.03641 0.00251149 -1.73498e-13)
(1.0349 0.00324916 -1.67065e-13)
(1.0331 0.0037263 -1.60958e-13)
(1.03115 0.0039316 -1.55731e-13)
(1.02919 0.00388807 -1.51635e-13)
(1.02735 0.00364182 -1.48632e-13)
(1.0257 0.00325123 -1.46441e-13)
(1.02431 0.00277779 -1.44582e-13)
(1.02318 0.00227921 -1.42466e-13)
(1.02231 0.00180466 -1.39481e-13)
(1.02166 0.00139189 -1.35107e-13)
(1.0212 0.00106597 -1.29017e-13)
(1.02086 0.00083929 -1.2113e-13)
(1.0206 0.000712653 -1.11637e-13)
(1.02036 0.000677183 -1.00931e-13)
(1.0201 0.0007168 -8.952e-14)
(1.01979 0.000810999 -7.79132e-14)
(1.01942 0.000937666 -6.65178e-14)
(1.01896 0.00107561 -5.5589e-14)
(1.01843 0.00120658 -4.52039e-14)
(1.01783 0.00131666 -3.52886e-14)
(1.01719 0.00139688 -2.56658e-14)
(1.01652 0.00144318 -1.60993e-14)
(1.01583 0.00145588 -6.34976e-15)
(1.01516 0.00143872 3.80469e-15)
(1.0145 0.00139779 1.45459e-14)
(1.01387 0.0013404 2.60073e-14)
(1.01327 0.00127408 3.82764e-14)
(1.01271 0.00120578 5.13856e-14)
(1.01219 0.00114131 6.53132e-14)
(1.01169 0.00108499 7.9973e-14)
(1.01122 0.00103955 9.52141e-14)
(1.01076 0.00100616 1.10825e-13)
(1.01032 0.000984676 1.26557e-13)
(1.00988 0.00097385 1.42158e-13)
(1.00945 0.0009717 1.57419e-13)
(1.009 0.00097582 1.72218e-13)
(1.00856 0.00098369 1.86544e-13)
(1.0081 0.000992942 2.00512e-13)
(1.00764 0.00100156 2.1433e-13)
(1.00718 0.001008 2.28251e-13)
(1.00671 0.00101127 2.42504e-13)
(1.00624 0.00101089 2.57237e-13)
(1.00577 0.00100686 2.72475e-13)
(1.0053 0.000999498 2.88114e-13)
(1.00484 0.00098935 3.03938e-13)
(1.00438 0.000977046 3.19663e-13)
(1.00392 0.000963191 3.3498e-13)
(1.00347 0.000948272 3.49599e-13)
(1.00303 0.000932601 3.63279e-13)
(1.00259 0.00091628 3.75849e-13)
(1.00216 0.000899196 3.87247e-13)
(1.00173 0.000881034 3.97576e-13)
(1.00131 0.000861323 4.07182e-13)
(1.0009 0.000839482 4.16764e-13)
(1.00049 0.000814863 4.27468e-13)
(1.0001 0.000786736 4.40948e-13)
(0.999708 0.000754149 4.59381e-13)
(0.999333 0.000715625 4.85397e-13)
(0.998974 0.000668706 5.21952e-13)
(0.998633 0.000609428 5.72144e-13)
(0.998317 0.000531992 6.39005e-13)
(0.998034 0.000428916 7.25273e-13)
(0.997794 0.00029201 8.33142e-13)
(0.99761 0.000114322 9.63962e-13)
(0.997497 -0.000107092 1.11792e-12)
(0.99747 -0.000368124 1.29389e-12)
(0.997543 -0.000655218 1.48916e-12)
(0.997721 -0.000944662 1.69854e-12)
(0.998 -0.00120443 1.91332e-12)
(0.998363 -0.00139883 2.12045e-12)
(0.998783 -0.00149534 2.30218e-12)
(0.999217 -0.00147219 2.43671e-12)
(0.999621 -0.00132474 2.49992e-12)
(0.99995 -0.00106856 2.46778e-12)
(1.00017 -0.000738046 2.31925e-12)
(1.00027 -0.000380542 2.0392e-12)
(1.00024 -4.71376e-05 1.62155e-12)
(1.00011 0.000217497 1.07278e-12)
(0.999909 0.000383695 4.15234e-13)
(0.999688 0.000441666 -3.10505e-13)
(0.999486 0.000401641 -1.04525e-12)
(0.999336 0.000289585 -1.71502e-12)
(0.999258 0.000139935 -2.24068e-12)
(0.999255 -1.25247e-05 -2.55294e-12)
(0.999319 -0.000139644 -2.60925e-12)
(0.999429 -0.000224231 -2.40689e-12)
(0.999562 -0.000261182 -1.98709e-12)
(0.999695 -0.00025573 -1.42768e-12)
(0.999812 -0.000219831 -8.26139e-13)
(0.999902 -0.000167943 -2.77715e-13)
(0.999962 -0.000113336 1.44635e-13)
(0.999996 -6.57246e-05 4.03139e-13)
(1.00001 -3.02489e-05 4.98172e-13)
(1.00001 -8.14634e-06 4.59481e-13)
(1 2.83534e-06 3.50278e-13)
(0.999996 4.70543e-06 1.34412e-13)
(1.00012 -0.0030015 2.17202e-18)
(1.00188 -0.00908241 8.12958e-18)
(1.00592 -0.0156489 5.47422e-18)
(1.01227 -0.0229157 9.69409e-18)
(1.02148 -0.0310041 2.32203e-17)
(1.03407 -0.0397728 -9.72868e-17)
(1.05063 -0.0488296 4.60953e-16)
(1.0714 -0.0571161 -9.56824e-16)
(1.0961 -0.0634877 -5.02636e-16)
(1.12361 -0.0661913 6.69222e-15)
(1.15106 -0.0643621 2.72996e-15)
(1.17622 -0.0595767 -2.8819e-14)
(1.19848 -0.0527187 -7.09354e-14)
(1.21729 -0.0445964 -8.52242e-14)
(1.23246 -0.0358621 -4.54748e-14)
(1.24399 -0.0268909 4.52431e-14)
(1.25183 -0.018025 1.6147e-13)
(1.256 -0.00970061 2.73625e-13)
(1.25668 -0.00255371 3.62543e-13)
(1.25447 0.00263135 4.29321e-13)
(1.25051 0.00518576 4.81879e-13)
(1.24634 0.00490736 5.22397e-13)
(1.24361 0.00233792 5.49297e-13)
(1.24354 -0.00117694 5.64692e-13)
(1.24641 -0.00368017 5.5247e-13)
(1.25126 -0.00304324 4.81752e-13)
(1.25576 0.00231072 3.66602e-13)
(1.25673 0.0125886 2.60187e-13)
(1.25127 0.0262102 1.87587e-13)
(1.23801 0.0402649 1.49167e-13)
(1.21764 0.0516675 1.3152e-13)
(1.19251 0.058198 1.2058e-13)
(1.16569 0.0589359 1.08214e-13)
(1.14023 0.0541454 9.11769e-14)
(1.11862 0.0449245 6.66781e-14)
(1.10257 0.0328631 2.85011e-14)
(1.09293 0.0198053 -3.38741e-14)
(1.08965 0.00764297 -1.30797e-13)
(1.09178 -0.00189277 -2.61429e-13)
(1.09753 -0.00749918 -4.11657e-13)
(1.10457 -0.00862306 -5.48667e-13)
(1.11052 -0.00564313 -6.33842e-13)
(1.11353 0.000248002 -6.52747e-13)
(1.11264 0.00743568 -6.18316e-13)
(1.10787 0.0143597 -5.49757e-13)
(1.09994 0.0198739 -4.66928e-13)
(1.08998 0.0233706 -3.86469e-13)
(1.07913 0.0247212 -3.19396e-13)
(1.06842 0.0241306 -2.71024e-13)
(1.05863 0.0219871 -2.42691e-13)
(1.05029 0.0187496 -2.33795e-13)
(1.04371 0.0148787 -2.43053e-13)
(1.039 0.010801 -2.68579e-13)
(1.03611 0.00688992 -3.07051e-13)
(1.03484 0.00345342 -3.53025e-13)
(1.03489 0.000721959 -3.99756e-13)
(1.03587 -0.00116161 -4.40535e-13)
(1.03736 -0.00215079 -4.68502e-13)