/*--------------------------------*- C++ -*----------------------------------*\
  =========                 |
  \\      /  F ield         | OpenFOAM: The Open Source CFD Toolbox
   \\    /   O peration     | Website:  https://openfoam.org
    \\  /    A nd           | Version:  11
     \\/     M anipulation  |
\*---------------------------------------------------------------------------*/
FoamFile
{
    format      ascii;
    class       volScalarField;
    location    "5.5207";
    object      p;
}
// * * * * * * * * * * * * * * * * * * * * * * * * * * * * * * * * * * * * * //

dimensions      [0 2 -2 0 0 0 0];

internalField   nonuniform List<scalar> 
7132
(
0.0508909
0.0494376
0.0445344
0.0373507
0.0272753
0.0139693
-0.00270944
-0.0228486
-0.0460509
-0.0715178
-0.0980274
-0.1239
-0.148236
-0.170218
-0.189291
-0.205194
-0.217764
-0.226926
-0.232641
-0.234883
-0.233662
-0.229054
-0.221242
-0.210549
-0.197438
-0.182497
-0.166379
-0.14975
-0.13322
-0.1173
-0.102378
-0.0887104
-0.0764341
-0.0655891
-0.0561404
-0.0480021
-0.0410574
-0.035175
-0.0302202
-0.0260634
-0.0225845
-0.0196759
-0.0172426
-0.0152031
-0.013488
-0.0120388
-0.0108072
-0.00975341
-0.00884506
-0.00805599
-0.00736517
-0.00675585
-0.00621465
-0.00573092
-0.00529612
-0.00490335
-0.00454701
-0.00422244
-0.00392575
-0.00365364
-0.00340328
-0.00317221
-0.00295831
-0.00275973
-0.00257487
-0.00240233
-0.00224091
-0.0020896
-0.00194749
-0.00181383
-0.00168798
-0.00156938
-0.00145754
-0.00135205
-0.00125252
-0.00115864
-0.00107011
-0.000986655
-0.000908035
-0.000834031
-0.00076444
-0.000699081
-0.000637791
-0.000580419
-0.000526833
-0.000476909
-0.000430532
-0.000387591
-0.000347962
-0.000311494
-0.000277983
-0.000247152
-0.000218646
-0.000192049
-0.000166953
-0.000143057
-0.000120284
-9.88444e-05
-7.92038e-05
-6.19241e-05
-4.74378e-05
-3.58647e-05
-2.6969e-05
-2.02747e-05
-1.52574e-05
-1.14949e-05
-8.70485e-06
-6.69345e-06
-5.28469e-06
-4.2924e-06
-3.54202e-06
-2.90761e-06
-2.32931e-06
-1.80058e-06
-1.33941e-06
-9.6268e-07
-6.74237e-07
-4.65011e-07
-3.19197e-07
-2.20017e-07
-1.53211e-07
-1.07922e-07
-7.65968e-08
-5.41989e-08
-3.76595e-08
-2.51197e-08
-1.5577e-08
-8.3656e-09
-3.08153e-09
6.88122e-10
3.24286e-09
4.92815e-09
5.95909e-09
6.57718e-09
6.88354e-09
7.01684e-09
6.99476e-09
6.89926e-09
6.71166e-09
6.49486e-09
6.21866e-09
5.94001e-09
5.62271e-09
5.31955e-09
4.98917e-09
4.68145e-09
4.35128e-09
4.04789e-09
3.72308e-09
3.42811e-09
3.10976e-09
2.82613e-09
2.51194e-09
2.24562e-09
1.92337e-09
1.69658e-09
1.34075e-09
1.14257e-09
8.80422e-10
3.77059e-10
0.0514704
0.0500296
0.0451701
0.0380334
0.0279983
0.0146992
-0.00203052
-0.0223154
-0.0457564
-0.0715485
-0.098395
-0.124498
-0.148996
-0.171069
-0.190179
-0.206089
-0.218653
-0.227806
-0.233512
-0.235744
-0.234505
-0.229859
-0.221982
-0.211195
-0.197964
-0.182882
-0.166618
-0.149848
-0.133194
-0.117174
-0.102178
-0.0884615
-0.0761598
-0.065308
-0.0558664
-0.0477446
-0.0408224
-0.0349652
-0.0300365
-0.0259049
-0.0224496
-0.0195622
-0.0171477
-0.0151245
-0.0134232
-0.0119856
-0.0107637
-0.00971786
-0.00881594
-0.00803204
-0.00734536
-0.00673933
-0.00620076
-0.00571912
-0.005286
-0.0048946
-0.00453938
-0.00421575
-0.00391986
-0.00364844
-0.00339867
-0.00316811
-0.00295467
-0.00275648
-0.00257196
-0.00239971
-0.00223855
-0.00208745
-0.00194553
-0.00181203
-0.00168632
-0.00156783
-0.00145609
-0.00135068
-0.00125124
-0.00115742
-0.00106895
-0.000985551
-0.000906981
-0.00083302
-0.000763468
-0.000698144
-0.000636883
-0.000579537
-0.000525972
-0.000476067
-0.000429709
-0.000386788
-0.000347184
-0.000310748
-0.00027728
-0.000246503
-0.00021806
-0.000191529
-0.000166495
-0.000142649
-0.000119907
-9.84817e-05
-7.88437e-05
-6.15653e-05
-4.709e-05
-3.55436e-05
-2.66894e-05
-2.00437e-05
-1.50721e-05
-1.13448e-05
-8.57712e-06
-6.57834e-06
-5.17797e-06
-4.19482e-06
-3.45694e-06
-2.83847e-06
-2.27793e-06
-1.76667e-06
-1.32075e-06
-9.55738e-07
-6.74952e-07
-4.69549e-07
-3.24555e-07
-2.24328e-07
-1.55722e-07
-1.08704e-07
-7.6167e-08
-5.31721e-08
-3.65371e-08
-2.41986e-08
-1.49667e-08
-8.04186e-09
-2.96115e-09
6.99769e-10
3.21563e-09
4.90426e-09
5.95146e-09
6.58589e-09
6.89922e-09
7.03365e-09
7.00671e-09
6.90687e-09
6.71423e-09
6.4957e-09
6.21755e-09
5.93952e-09
5.62149e-09
5.31932e-09
4.98812e-09
4.68123e-09
4.35012e-09
4.04754e-09
3.72181e-09
3.42769e-09
3.10844e-09
2.82588e-09
2.51045e-09
2.2458e-09
1.92087e-09
1.69848e-09
1.33291e-09
1.15328e-09
8.45099e-10
4.40373e-10
0.052624
0.0512095
0.0464393
0.0394013
0.0294524
0.0161732
-0.000653085
-0.0212298
-0.0451544
-0.0716153
-0.0991527
-0.125717
-0.150536
-0.172788
-0.191965
-0.207885
-0.220433
-0.229568
-0.23526
-0.237477
-0.236204
-0.231486
-0.223483
-0.212507
-0.199031
-0.183665
-0.167103
-0.150047
-0.133141
-0.116917
-0.101772
-0.0879587
-0.0756067
-0.064742
-0.0553154
-0.0472278
-0.0403511
-0.0345451
-0.0296688
-0.025588
-0.0221799
-0.0193351
-0.0169582
-0.0149675
-0.0132939
-0.0118796
-0.010677
-0.0096469
-0.00875781
-0.00798423
-0.0073058
-0.00670635
-0.00617302
-0.00569556
-0.00526581
-0.00487714
-0.00452417
-0.00420242
-0.00390812
-0.00363807
-0.00338948
-0.00315996
-0.00294741
-0.00275001
-0.00256616
-0.0023945
-0.00223385
-0.00208318
-0.00194163
-0.00180845
-0.001683
-0.00156475
-0.00145321
-0.00134798
-0.00124868
-0.00115501
-0.00106666
-0.000983373
-0.000904903
-0.000831032
-0.00076156
-0.000696307
-0.000635108
-0.000577816
-0.000524299
-0.000474437
-0.00042812
-0.000385244
-0.000345695
-0.000309335
-0.000275969
-0.000245325
-0.000217039
-0.000190678
-0.000165805
-0.000142088
-0.000119423
-9.8016e-05
-7.83469e-05
-6.10123e-05
-4.64858e-05
-3.49188e-05
-2.60857e-05
-1.94986e-05
-1.46082e-05
-1.09679e-05
-8.28016e-06
-6.34865e-06
-5.0022e-06
-4.06118e-06
-3.3554e-06
-2.76064e-06
-2.21729e-06
-1.71897e-06
-1.28359e-06
-9.2784e-07
-6.55201e-07
-4.56506e-07
-3.16466e-07
-2.19448e-07
-1.5264e-07
-1.06481e-07
-7.43051e-08
-5.14821e-08
-3.50032e-08
-2.28685e-08
-1.38866e-08
-7.2251e-09
-2.38599e-09
1.08046e-09
3.45653e-09
5.05591e-09
6.05103e-09
6.65751e-09
6.95474e-09
7.0786e-09
7.04227e-09
6.93425e-09
6.73397e-09
6.5097e-09
6.22694e-09
5.94618e-09
5.62601e-09
5.32287e-09
4.99062e-09
4.68337e-09
4.35155e-09
4.04886e-09
3.72257e-09
3.42858e-09
3.10874e-09
2.82664e-09
2.51007e-09
2.24705e-09
1.91821e-09
1.70269e-09
1.32007e-09
1.17357e-09
7.82197e-10
5.53805e-10
0.0543416
0.0529687
0.0483391
0.0414597
0.0316538
0.0184202
0.00146205
-0.019553
-0.0442206
-0.0717335
-0.100351
-0.127609
-0.152904
-0.175412
-0.194677
-0.210603
-0.22312
-0.232223
-0.237893
-0.240087
-0.238765
-0.233941
-0.225747
-0.214486
-0.200639
-0.184842
-0.167826
-0.150336
-0.133048
-0.116517
-0.101147
-0.0871907
-0.0747655
-0.063884
-0.0544824
-0.0464479
-0.0396413
-0.0339134
-0.0291166
-0.0251126
-0.0217758
-0.0189952
-0.0166749
-0.0147331
-0.0131011
-0.0117216
-0.0105478
-0.00954138
-0.00867142
-0.0079132
-0.00724704
-0.00665734
-0.00613176
-0.00566048
-0.00523569
-0.00485106
-0.00450142
-0.00418245
-0.00389052
-0.0036225
-0.00337569
-0.00314771
-0.00293651
-0.00274029
-0.00255747
-0.00238669
-0.0022268
-0.00207678
-0.00193578
-0.00180307
-0.00167803
-0.00156012
-0.00144888
-0.00134391
-0.00124484
-0.00115137
-0.00106321
-0.000980086
-0.000901765
-0.000828028
-0.000758675
-0.000693526
-0.000632418
-0.000575205
-0.000521756
-0.000471953
-0.000425693
-0.000382877
-0.000343403
-0.000307143
-0.000273913
-0.000243444
-0.000215369
-0.000189237
-0.00016458
-0.000141037
-0.000118476
-9.70941e-05
-7.7386e-05
-5.99826e-05
-4.54005e-05
-3.38258e-05
-2.50485e-05
-1.85734e-05
-1.38288e-05
-1.03429e-05
-7.79823e-06
-5.98862e-06
-4.7401e-06
-3.87394e-06
-3.22228e-06
-2.66413e-06
-2.14429e-06
-1.66129e-06
-1.23718e-06
-8.91109e-07
-6.27268e-07
-4.36128e-07
-3.01924e-07
-2.08955e-07
-1.44756e-07
-1.00275e-07
-6.92857e-08
-4.74223e-08
-3.17909e-08
-2.04111e-08
-1.20786e-08
-5.94164e-09
-1.50031e-09
1.68512e-09
3.87195e-09
5.34962e-09
6.26497e-09
6.8183e-09
7.07596e-09
7.17017e-09
7.1094e-09
6.98325e-09
6.76829e-09
6.53435e-09
6.24384e-09
5.9587e-09
5.63454e-09
5.32954e-09
4.99495e-09
4.68697e-09
4.35358e-09
4.05077e-09
3.7233e-09
3.42961e-09
3.10863e-09
2.82736e-09
2.5089e-09
2.24836e-09
1.91386e-09
1.70808e-09
1.30224e-09
1.20056e-09
7.0003e-10
7.00604e-10
0.0566065
0.0552931
0.0508635
0.044215
0.0346265
0.0214846
0.00437714
-0.0172217
-0.0429123
-0.0719258
-0.102071
-0.130248
-0.156167
-0.178993
-0.198345
-0.214257
-0.226719
-0.235778
-0.241427
-0.243608
-0.242238
-0.237283
-0.22884
-0.217194
-0.202837
-0.186445
-0.168805
-0.150717
-0.132908
-0.11596
-0.100289
-0.0861418
-0.0736222
-0.0627226
-0.0533587
-0.0453992
-0.0386893
-0.033068
-0.0283794
-0.0244791
-0.0212381
-0.0185436
-0.0162989
-0.0144223
-0.0128456
-0.0115125
-0.010377
-0.00940182
-0.00855717
-0.00781925
-0.00716929
-0.00659245
-0.00607709
-0.00561396
-0.00519572
-0.00481642
-0.00447117
-0.0041559
-0.00386711
-0.0036018
-0.00335734
-0.00313143
-0.00292203
-0.00272737
-0.00254591
-0.00237632
-0.00221743
-0.00206827
-0.00192801
-0.00179592
-0.00167141
-0.00155396
-0.00144312
-0.00133849
-0.00123973
-0.00114653
-0.00105861
-0.000975711
-0.000897591
-0.000824033
-0.000754839
-0.00068983
-0.000628843
-0.000571733
-0.000518372
-0.000468646
-0.000422456
-0.000379714
-0.00034033
-0.000304189
-0.000271123
-0.000240869
-0.000213053
-0.000187204
-0.000162823
-0.000139505
-0.000117089
-9.5756e-05
-7.60174e-05
-5.85451e-05
-4.39082e-05
-3.23371e-05
-2.36419e-05
-1.73202e-05
-1.27744e-05
-9.50128e-06
-7.15816e-06
-5.52372e-06
-4.41694e-06
-3.65721e-06
-3.07817e-06
-2.56365e-06
-2.06652e-06
-1.59452e-06
-1.17743e-06
-8.38896e-07
-5.84129e-07
-4.02583e-07
-2.77061e-07
-1.91014e-07
-1.31875e-07
-9.09225e-08
-6.23699e-08
-4.22183e-08
-2.78322e-08
-1.73943e-08
-9.79972e-09
-4.24747e-09
-2.66041e-10
2.56869e-09
4.49644e-09
5.79047e-09
6.57791e-09
7.04419e-09
7.24087e-09
7.29239e-09
7.19956e-09
7.05003e-09
6.81672e-09
6.56977e-09
6.26901e-09
5.9772e-09
5.6476e-09
5.33945e-09
5.00188e-09
4.69247e-09
4.35728e-09
4.05393e-09
3.72521e-09
3.43152e-09
3.10935e-09
2.82876e-09
2.50824e-09
2.25039e-09
1.90937e-09
1.71482e-09
1.28237e-09
1.23173e-09
6.1078e-10
8.60232e-10
0.0593955
0.0581625
0.0540027
0.0476742
0.0384013
0.0254268
0.0081792
-0.0141445
-0.0411675
-0.0722318
-0.104437
-0.133749
-0.160425
-0.18361
-0.203028
-0.21889
-0.231262
-0.240252
-0.24587
-0.248034
-0.246615
-0.241511
-0.232762
-0.220631
-0.205625
-0.18847
-0.170027
-0.151173
-0.132696
-0.11522
-0.0991711
-0.0847896
-0.0721585
-0.0612438
-0.0519344
-0.0440748
-0.0374909
-0.0320069
-0.027456
-0.0236873
-0.0205674
-0.0179814
-0.0158317
-0.0140369
-0.0125294
-0.0112541
-0.0101662
-0.00922992
-0.00841659
-0.00770373
-0.00707366
-0.00651258
-0.00600968
-0.00555648
-0.00514621
-0.0047734
-0.00443353
-0.00412278
-0.00383787
-0.00357592
-0.0033344
-0.00311106
-0.00290393
-0.00271124
-0.0025315
-0.00236338
-0.00220575
-0.00205767
-0.00191832
-0.00178701
-0.00166316
-0.00154627
-0.00143591
-0.00133171
-0.00123333
-0.00114047
-0.00105285
-0.000970224
-0.000892352
-0.000819018
-0.000750022
-0.000685186
-0.000624347
-0.000567363
-0.000514107
-0.000464468
-0.000418356
-0.00037569
-0.000336395
-0.000300373
-0.000267469
-0.000237431
-0.000209881
-0.000184329
-0.000160244
-0.000137181
-0.000114942
-9.36959e-05
-7.39697e-05
-5.64771e-05
-4.18412e-05
-3.03368e-05
-2.17929e-05
-1.56973e-05
-1.14231e-05
-8.4324e-06
-6.35513e-06
-4.95233e-06
-4.03301e-06
-3.41243e-06
-2.92517e-06
-2.46178e-06
-1.98727e-06
-1.52302e-06
-1.10991e-06
-7.77584e-07
-5.3223e-07
-3.61499e-07
-2.46037e-07
-1.68107e-07
-1.15001e-07
-7.84004e-08
-5.30069e-08
-3.51915e-08
-2.25646e-08
-1.34665e-08
-6.89935e-09
-2.1307e-09
1.26072e-09
3.66228e-09
5.27786e-09
6.35184e-09
6.98374e-09
7.34061e-09
7.45791e-09
7.45214e-09
7.31613e-09
7.13531e-09
6.87809e-09
6.61445e-09
6.30083e-09
6.00058e-09
5.66413e-09
5.35186e-09
5.0105e-09
4.69915e-09
4.36168e-09
4.05754e-09
3.72729e-09
3.43352e-09
3.10996e-09
2.83009e-09
2.50723e-09
2.25235e-09
1.90424e-09
1.72182e-09
1.26156e-09
1.26378e-09
5.23659e-10
1.01515e-09
0.0626767
0.061549
0.0577416
0.0518436
0.0430158
0.0303254
0.0129862
-0.0101913
-0.0388926
-0.0727099
-0.107627
-0.138262
-0.165804
-0.189343
-0.208762
-0.224509
-0.236744
-0.245655
-0.251264
-0.253458
-0.252016
-0.246754
-0.237644
-0.224914
-0.209092
-0.190974
-0.171518
-0.151702
-0.132396
-0.11427
-0.0977636
-0.0831056
-0.07035
-0.0594284
-0.0501954
-0.0424656
-0.0360408
-0.0307274
-0.0263463
-0.0227384
-0.0197656
-0.0173107
-0.0152755
-0.0135788
-0.0121542
-0.0109479
-0.00991678
-0.00902657
-0.00825034
-0.00756707
-0.00696046
-0.00641792
-0.00592969
-0.00548815
-0.00508725
-0.00472209
-0.00438856
-0.00408318
-0.00380288
-0.00354495
-0.00330696
-0.00308672
-0.0028823
-0.00269199
-0.0025143
-0.00234794
-0.00219183
-0.00204502
-0.00190675
-0.00177636
-0.00165329
-0.00153706
-0.00142728
-0.00132358
-0.00122564
-0.00113318
-0.00104593
-0.00096364
-0.000886069
-0.000813004
-0.000744247
-0.000679617
-0.000618955
-0.000562117
-0.000508979
-0.000459436
-0.000413403
-0.00037081
-0.000331595
-0.000295678
-0.000262921
-0.000233081
-0.000205783
-0.000180523
-0.000156741
-0.000133957
-0.00011194
-9.08417e-05
-7.12011e-05
-5.37691e-05
-3.92173e-05
-2.78611e-05
-1.95456e-05
-1.37475e-05
-9.81166e-06
-7.16699e-06
-5.41708e-06
-4.30217e-06
-3.61672e-06
-3.16723e-06
-2.78725e-06
-2.37621e-06
-1.91704e-06
-1.45084e-06
-1.03425e-06
-7.04626e-07
-4.6859e-07
-3.10437e-07
-2.07315e-07
-1.39582e-07
-9.41845e-08
-6.32105e-08
-4.18967e-08
-2.70367e-08
-1.65498e-08
-9.00953e-09
-3.595e-09
3.08869e-10
3.04698e-09
4.95955e-09
6.21349e-09
7.02529e-09
7.4685e-09
7.69151e-09
7.71268e-09
7.63844e-09
7.45209e-09
7.23503e-09
6.9505e-09
6.66744e-09
6.33898e-09
6.02861e-09
5.68419e-09
5.36684e-09
5.02113e-09
4.7073e-09
4.36733e-09
4.06207e-09
3.7302e-09
3.43615e-09
3.11115e-09
2.83188e-09
2.50664e-09
2.25471e-09
1.89948e-09
1.72914e-09
1.24192e-09
1.29478e-09
4.45988e-10
1.15324e-09
0.0664085
0.0654155
0.0620571
0.0567251
0.0485107
0.0362761
0.0189495
-0.00518542
-0.035958
-0.0734573
-0.111904
-0.143985
-0.172467
-0.196328
-0.215653
-0.231191
-0.243205
-0.251987
-0.257574
-0.259806
-0.258381
-0.252977
-0.24347
-0.230042
-0.213242
-0.193953
-0.173261
-0.152276
-0.131969
-0.113068
-0.0960275
-0.0810558
-0.0681697
-0.0572564
-0.0481279
-0.0405625
-0.0343336
-0.0292269
-0.0250493
-0.0216327
-0.018834
-0.0165335
-0.0146327
-0.0130508
-0.0117229
-0.0105969
-0.00963152
-0.00879455
-0.00806094
-0.00741148
-0.00683152
-0.00630993
-0.00583819
-0.00540973
-0.00501934
-0.00466275
-0.00433639
-0.00403711
-0.0037621
-0.00350881
-0.00327492
-0.00305831
-0.00285709
-0.00266957
-0.0024943
-0.00233002
-0.00217567
-0.00203036
-0.00189334
-0.001764
-0.00164182
-0.00152635
-0.00141722
-0.00131409
-0.00121667
-0.00112467
-0.00103785
-0.000955938
-0.000878719
-0.00080597
-0.000737493
-0.000673105
-0.000612645
-0.000555972
-0.000502964
-0.00045352
-0.00040756
-0.000365025
-0.000325867
-0.000290021
-0.000257365
-0.000227672
-0.000200573
-0.000175561
-0.000152059
-0.000129563
-0.000107815
-8.69516e-05
-6.75158e-05
-5.0281e-05
-3.59515e-05
-2.48685e-05
-1.6886e-05
-1.14706e-05
-7.94549e-06
-5.71204e-06
-4.35308e-06
-3.58599e-06
-3.18452e-06
-2.93975e-06
-2.68125e-06
-2.32013e-06
-1.86475e-06
-1.38366e-06
-9.54504e-07
-6.23799e-07
-3.97093e-07
-2.53105e-07
-1.63935e-07
-1.07528e-07
-7.05848e-08
-4.58101e-08
-2.90823e-08
-1.76178e-08
-9.62589e-09
-3.90999e-09
1.59509e-10
3.06305e-09
5.05473e-09
6.41573e-09
7.266e-09
7.7865e-09
8.01959e-09
8.09214e-09
8.00418e-09
7.85139e-09
7.60711e-09
7.34827e-09
7.03253e-09
6.72731e-09
6.38211e-09
6.06024e-09
5.70688e-09
5.38368e-09
5.03308e-09
4.71636e-09
4.37359e-09
4.067e-09
3.73335e-09
3.43889e-09
3.11239e-09
2.83365e-09
2.50601e-09
2.25696e-09
1.89485e-09
1.73605e-09
1.22408e-09
1.3228e-09
3.81023e-10
1.26825e-09
0.070538
0.0697135
0.0669158
0.0623142
0.0549291
0.0433954
0.0262657
0.00112283
-0.0321696
-0.074615
-0.117641
-0.151186
-0.180606
-0.204643
-0.22369
-0.238897
-0.250626
-0.25929
-0.264915
-0.267282
-0.265941
-0.260424
-0.250467
-0.236203
-0.218211
-0.19749
-0.175289
-0.152887
-0.131382
-0.111569
-0.0939139
-0.0785959
-0.0655811
-0.0547003
-0.0457129
-0.0383539
-0.0323635
-0.0275038
-0.0235663
-0.0203732
-0.0177764
-0.015654
-0.0139072
-0.0124565
-0.0112385
-0.0102034
-0.00931218
-0.00853503
-0.00784915
-0.00723742
-0.00668711
-0.00618875
-0.00573526
-0.00532127
-0.00494251
-0.00459547
-0.00427711
-0.00398469
-0.00371567
-0.00346767
-0.00323847
-0.00302602
-0.00282846
-0.00264415
-0.00247164
-0.00230972
-0.00215737
-0.00201374
-0.00187812
-0.00174996
-0.00162877
-0.00151414
-0.00140574
-0.00130326
-0.00120642
-0.00111495
-0.0010286
-0.000947141
-0.000870329
-0.000797947
-0.000729793
-0.000665682
-0.000605453
-0.000548963
-0.000496093
-0.000446746
-0.000400848
-0.00035835
-0.000319214
-0.000283389
-0.000250772
-0.000221152
-0.000194177
-0.000169348
-0.000146089
-0.00012389
-0.000102479
-8.19722e-05
-6.29023e-05
-4.60443e-05
-3.21079e-05
-2.14413e-05
-1.38985e-05
-8.94005e-06
-5.88046e-06
-4.11075e-06
-3.19982e-06
-2.84017e-06
-2.77455e-06
-2.76758e-06
-2.63971e-06
-2.3173e-06
-1.84435e-06
-1.32736e-06
-8.71799e-07
-5.34392e-07
-3.16955e-07
-1.89204e-07
-1.16013e-07
-7.2281e-08
-4.46427e-08
-2.67032e-08
-1.5084e-08
-7.41835e-09
-2.18878e-09
1.54516e-09
4.17797e-09
6.02178e-09
7.22274e-09
7.99602e-09
8.41278e-09
8.61728e-09
8.62082e-09
8.5281e-09
8.32052e-09
8.08185e-09
7.77484e-09
7.4708e-09
7.12159e-09
6.79242e-09
6.42926e-09
6.09482e-09
5.73183e-09
5.40216e-09
5.04635e-09
4.72637e-09
4.38067e-09
4.07251e-09
3.73704e-09
3.44202e-09
3.11402e-09
2.83568e-09
2.50575e-09
2.25935e-09
1.89092e-09
1.7426e-09
1.20894e-09
1.34725e-09
3.29776e-10
1.35917e-09
0.0749984
0.0743806
0.0722697
0.0685929
0.0623074
0.0518121
0.0351728
0.00906512
-0.0272654
-0.0764324
-0.125372
-0.160169
-0.190492
-0.214555
-0.233093
-0.247748
-0.259009
-0.267453
-0.273111
-0.275693
-0.274556
-0.268998
-0.258599
-0.243402
-0.224015
-0.201587
-0.177581
-0.153493
-0.130579
-0.109713
-0.0913681
-0.0756808
-0.0625502
-0.0517362
-0.0429349
-0.0358304
-0.0301254
-0.025556
-0.0218969
-0.0189608
-0.0165946
-0.0146747
-0.0131023
-0.0117995
-0.0107051
-0.00977169
-0.00896314
-0.00825222
-0.0076188
-0.00704822
-0.00652996
-0.00605653
-0.0056225
-0.00522386
-0.00485745
-0.00452058
-0.00421083
-0.00392587
-0.00366344
-0.00342133
-0.00319742
-0.0029897
-0.00279633
-0.00261567
-0.00244632
-0.00228709
-0.00213699
-0.00199523
-0.00186117
-0.00173429
-0.00161418
-0.00150047
-0.00139287
-0.00129109
-0.00119488
-0.001104
-0.00101819
-0.000937234
-0.000860885
-0.000788923
-0.00072114
-0.000657347
-0.000597377
-0.000541089
-0.000488365
-0.00043911
-0.000393259
-0.000350767
-0.000311606
-0.000275738
-0.000243075
-0.00021343
-0.000186477
-0.000161744
-0.000138677
-0.000116786
-9.57968e-05
-7.58096e-05
-5.73261e-05
-4.10825e-05
-2.77567e-05
-1.76706e-05
-1.06698e-05
-6.22434e-06
-3.66208e-06
-2.39427e-06
-1.98339e-06
-2.09309e-06
-2.41964e-06
-2.68493e-06
-2.69275e-06
-2.3896e-06
-1.86856e-06
-1.28793e-06
-7.8893e-07
-4.38773e-07
-2.31153e-07
-1.22031e-07
-6.64799e-08
-3.59712e-08
-1.76708e-08
-6.59209e-09
-2.39908e-10
3.41305e-09
5.69995e-09
7.32372e-09
8.43007e-09
9.14765e-09
9.50893e-09
9.66031e-09
9.62071e-09
9.49354e-09
9.25632e-09
8.98981e-09
8.65601e-09
8.32626e-09
7.95263e-09
7.60051e-09
7.21579e-09
6.86119e-09
6.47908e-09
6.13132e-09
5.75821e-09
5.42165e-09
5.06037e-09
4.73687e-09
4.38811e-09
4.07824e-09
3.74091e-09
3.44521e-09
3.11573e-09
2.83765e-09
2.5056e-09
2.26157e-09
1.8875e-09
1.74841e-09
1.19644e-09
1.36766e-09
2.91022e-10
1.42801e-09
0.0797083
0.0793391
0.0780526
0.0755266
0.0706729
0.0616766
0.0459784
0.019128
-0.0208378
-0.0792456
-0.135926
-0.171417
-0.202292
-0.225935
-0.243649
-0.257616
-0.268368
-0.276654
-0.282466
-0.285424
-0.284615
-0.279095
-0.268215
-0.251915
-0.230847
-0.206351
-0.180169
-0.154067
-0.129497
-0.107423
-0.0883142
-0.0722446
-0.0590252
-0.0483273
-0.0397704
-0.0329795
-0.0276149
-0.0233845
-0.020046
-0.0174025
-0.0152963
-0.013603
-0.0122246
-0.0110854
-0.0101269
-0.00930492
-0.00858641
-0.00794731
-0.00737048
-0.00684406
-0.00636003
-0.00591311
-0.00549972
-0.00511738
-0.0047641
-0.00443812
-0.00413766
-0.00386084
-0.00360567
-0.00337011
-0.0031521
-0.00294966
-0.00276097
-0.00258439
-0.00241854
-0.00226227
-0.00211463
-0.00197491
-0.00184253
-0.00171704
-0.00159808
-0.00148536
-0.00137861
-0.0012776
-0.00118209
-0.00109185
-0.00100665
-0.000926261
-0.000850439
-0.000778957
-0.000711597
-0.000648165
-0.000588487
-0.000532421
-0.000479847
-0.000430679
-0.000384852
-0.00034233
-0.000303091
-0.000267107
-0.000234305
-0.000204528
-0.000177486
-0.000152761
-0.000129852
-0.000108297
-8.78562e-05
-6.86023e-05
-5.09644e-05
-3.56047e-05
-2.31133e-05
-1.37585e-05
-7.37448e-06
-3.45279e-06
-1.38205e-06
-6.25281e-07
-7.5288e-07
-1.39142e-06
-2.16751e-06
-2.73741e-06
-2.87791e-06
-2.56225e-06
-1.95004e-06
-1.26909e-06
-7.05592e-07
-3.3625e-07
-1.40038e-07
-5.27924e-08
-1.67017e-08
3.0389e-10
9.55043e-09
1.39517e-08
1.49679e-08
1.44665e-08
1.37125e-08
1.31857e-08
1.27514e-08
1.23324e-08
1.18428e-08
1.1362e-08
1.08578e-08
1.03922e-08
9.90848e-09
9.46323e-09
8.99964e-09
8.5763e-09
8.13449e-09
7.73317e-09
7.31229e-09
6.93168e-09
6.53029e-09
6.16885e-09
5.78544e-09
5.44175e-09
5.07493e-09
4.74776e-09
4.39593e-09
4.08423e-09
3.74506e-09
3.44859e-09
3.11769e-09
2.83979e-09
2.50576e-09
2.26378e-09
1.88483e-09
1.75361e-09
1.18663e-09
1.38436e-09
2.62903e-10
1.47851e-09
0.0845691
0.0844916
0.0841739
0.0830471
0.0800221
0.0731196
0.0590215
0.031933
-0.0123916
-0.0837327
-0.150235
-0.185322
-0.216683
-0.239523
-0.255824
-0.268587
-0.278462
-0.286449
-0.292469
-0.296015
-0.295861
-0.290606
-0.279323
-0.261814
-0.238782
-0.211823
-0.183039
-0.154552
-0.128057
-0.104617
-0.0846793
-0.0682309
-0.0549665
-0.0444478
-0.0362039
-0.0297923
-0.0248271
-0.020987
-0.0180125
-0.015698
-0.0138824
-0.0124409
-0.0112774
-0.0103186
-0.0095095
-0.00880919
-0.00818833
-0.00762645
-0.00710983
-0.00662984
-0.00618135
-0.0057616
-0.00536916
-0.00500327
-0.00466329
-0.00434842
-0.00405759
-0.00378937
-0.00354203
-0.00331364
-0.00310218
-0.00290567
-0.00272225
-0.00255027
-0.00238834
-0.00223536
-0.00209043
-0.00195292
-0.00182233
-0.00169831
-0.00158056
-0.00146887
-0.00136302
-0.00126281
-0.00116804
-0.00107851
-0.00099398
-0.000914223
-0.000838995
-0.000768058
-0.000701183
-0.000638163
-0.000578817
-0.000522997
-0.000470585
-0.000421497
-0.000375676
-0.000333088
-0.000293716
-0.00025754
-0.000224507
-0.000194491
-0.000167261
-0.000142471
-0.000119707
-9.85703e-05
-7.88283e-05
-6.05527e-05
-4.40776e-05
-2.98918e-05
-1.84599e-05
-9.95669e-06
-4.19319e-06
-7.44187e-07
8.85203e-07
1.1515e-06
4.59304e-07
-7.66403e-07
-2.05118e-06
-2.95622e-06
-3.21928e-06
-2.84941e-06
-2.09326e-06
-1.26991e-06
-6.20042e-07
-2.26922e-07
-4.58033e-08
1.53709e-08
3.04354e-08
3.44845e-08
3.57616e-08
3.41855e-08
3.00923e-08
2.5464e-08
2.16763e-08
1.90231e-08
1.70685e-08
1.55183e-08
1.41755e-08
1.30604e-08
1.20919e-08
1.1289e-08
1.05599e-08
9.93664e-09
9.34362e-09
8.82665e-09
8.31661e-09
7.86595e-09
7.40888e-09
7.0022e-09
6.58155e-09
6.2064e-09
5.81273e-09
5.46187e-09
5.08953e-09
4.75864e-09
4.40378e-09
4.0902e-09
3.74923e-09
3.45194e-09
3.11969e-09
2.84185e-09
2.50605e-09
2.26581e-09
1.88272e-09
1.75804e-09
1.17907e-09
1.39762e-09
2.43085e-10
1.51462e-09
0.0894653
0.0897224
0.0905148
0.0910571
0.0903165
0.0862974
0.0747538
0.0485034
-0.00101774
-0.0908509
-0.170695
-0.20247
-0.232879
-0.254291
-0.269145
-0.280812
-0.28989
-0.29771
-0.304097
-0.308438
-0.309062
-0.304195
-0.292487
-0.273544
-0.24813
-0.218168
-0.186231
-0.154894
-0.12615
-0.101163
-0.0803389
-0.0635349
-0.0502944
-0.0400431
-0.0322021
-0.0262523
-0.021758
-0.0183677
-0.0158058
-0.0138593
-0.0123654
-0.0112003
-0.0102707
-0.00950709
-0.00885838
-0.00828801
-0.00777078
-0.00729028
-0.00683668
-0.00640491
-0.00599307
-0.00560119
-0.00523017
-0.00488113
-0.00455484
-0.00425157
-0.00397093
-0.00371193
-0.00347309
-0.00325255
-0.00304831
-0.00285832
-0.00268069
-0.00251373
-0.00235607
-0.00220661
-0.00206457
-0.00192939
-0.00180067
-0.00167816
-0.00156167
-0.00145105
-0.00134614
-0.00124679
-0.00115283
-0.00106407
-0.000980278
-0.000901229
-0.000826671
-0.000756351
-0.000690026
-0.000627473
-0.000568501
-0.000512954
-0.000460716
-0.000411707
-0.000365874
-0.000323189
-0.00028364
-0.000247214
-0.000213877
-0.00018355
-0.000156073
-0.000131202
-0.000108626
-8.80379e-05
-6.92372e-05
-5.22041e-05
-3.71429e-05
-2.43756e-05
-1.41434e-05
-6.50476e-06
-1.30269e-06
1.77199e-06
3.06134e-06
2.88827e-06
1.62097e-06
-2.42531e-07
-2.08912e-06
-3.35194e-06
-3.71817e-06
-3.24445e-06
-2.28618e-06
-1.27795e-06
-5.23151e-07
-1.06129e-07
5.27114e-08
8.18667e-08
7.39512e-08
6.5781e-08
6.04411e-08
5.36686e-08
4.47435e-08
3.60679e-08
2.93243e-08
2.46402e-08
2.12432e-08
1.86084e-08
1.64386e-08
1.47072e-08
1.32888e-08
1.21598e-08
1.1193e-08
1.03967e-08
9.67768e-09
9.06968e-09
8.49343e-09
7.99487e-09
7.50275e-09
7.07078e-09
6.6315e-09
6.24301e-09
5.83942e-09
5.48155e-09
5.10389e-09
4.76935e-09
4.41157e-09
4.09611e-09
3.75344e-09
3.4553e-09
3.1218e-09
2.84395e-09
2.50658e-09
2.26774e-09
1.88123e-09
1.76185e-09
1.17352e-09
1.40805e-09
2.2954e-10
1.54005e-09
0.0942637
0.0948908
0.0969212
0.0993833
0.101436
0.101202
0.0935561
0.0698652
0.0139311
-0.101267
-0.197669
-0.224845
-0.254534
-0.272856
-0.284596
-0.294043
-0.301679
-0.309198
-0.316195
-0.321708
-0.323632
-0.319593
-0.307639
-0.287148
-0.258955
-0.225415
-0.189713
-0.155011
-0.123672
-0.096966
-0.075216
-0.0581037
-0.0449768
-0.0350953
-0.0277555
-0.0223543
-0.0184037
-0.0155231
-0.0134226
-0.011884
-0.0107442
-0.00988215
-0.00920816
-0.00865687
-0.00818174
-0.00775083
-0.00734366
-0.00694849
-0.00655991
-0.00617699
-0.00580153
-0.0054368
-0.00508634
-0.00475338
-0.00444025
-0.00414831
-0.00387791
-0.00362844
-0.0033986
-0.00318656
-0.00299023
-0.00280746
-0.00263625
-0.00247485
-0.00232187
-0.00217626
-0.00203731
-0.00190458
-0.00177781
-0.00165685
-0.00154164
-0.0014321
-0.00132815
-0.00122968
-0.00113656
-0.00104861
-0.000965614
-0.000887336
-0.000813516
-0.000743884
-0.000678176
-0.000616149
-0.000557599
-0.000502362
-0.000450323
-0.000401404
-0.000355562
-0.000312773
-0.000273031
-0.000236333
-0.000202674
-0.000172027
-0.000144323
-0.00011943
-9.716e-05
-7.72894e-05
-5.963e-05
-4.40854e-05
-3.06601e-05
-1.94159e-05
-1.0397e-05
-3.56085e-06
1.21964e-06
4.08788e-06
5.16568e-06
4.61367e-06
2.76541e-06
2.19312e-07
-2.2345e-06
-3.87133e-06
-4.31948e-06
-3.69612e-06
-2.48793e-06
-1.26539e-06
-3.99126e-07
3.32629e-08
1.57782e-07
1.4694e-07
1.13531e-07
9.38186e-08
8.3245e-08
7.20733e-08
5.86355e-08
4.6061e-08
3.6508e-08
2.99356e-08
2.52014e-08
2.15437e-08
1.8584e-08
1.62641e-08
1.44192e-08
1.29823e-08
1.17912e-08
1.08316e-08
9.99372e-09
9.29968e-09
8.66083e-09
8.11694e-09
7.59166e-09
7.13573e-09
6.67886e-09
6.27772e-09
5.86476e-09
5.50025e-09
5.11757e-09
4.77954e-09
4.41902e-09
4.10176e-09
3.75749e-09
3.4585e-09
3.12387e-09
2.84593e-09
2.50721e-09
2.26948e-09
1.88018e-09
1.76502e-09
1.16948e-09
1.41609e-09
2.20434e-10
1.5578e-09
0.0988165
0.0998411
0.103199
0.107822
0.113169
0.117932
0.116026
0.0988733
0.034569
-0.124213
-0.23856
-0.247804
-0.275749
-0.292568
-0.302031
-0.309116
-0.314772
-0.321478
-0.328651
-0.335302
-0.33852
-0.335607
-0.323676
-0.30174
-0.270618
-0.233131
-0.193192
-0.154693
-0.120457
-0.0918905
-0.0692082
-0.0518682
-0.0389758
-0.0295944
-0.0228762
-0.0181262
-0.0148024
-0.0124967
-0.0109079
-0.00981529
-0.00905817
-0.00851978
-0.00811584
-0.0077868
-0.00749187
-0.00720467
-0.00691013
-0.00660163
-0.00627863
-0.00594466
-0.00560545
-0.00526769
-0.00493766
-0.00462079
-0.00432096
-0.00404063
-0.00378085
-0.00354138
-0.00332103
-0.00311795
-0.00292994
-0.00275472
-0.00259019
-0.00243454
-0.00228637
-0.00214469
-0.00200889
-0.00187866
-0.00175387
-0.0016345
-0.00152061
-0.00141219
-0.00130925
-0.00121172
-0.00111949
-0.0010324
-0.000950249
-0.000872794
-0.000799763
-0.000730865
-0.000665817
-0.000604356
-0.000546261
-0.000491364
-0.00043955
-0.000390749
-0.000344923
-0.000302059
-0.000262157
-0.000225234
-0.000191318
-0.000160445
-0.000132638
-0.000107883
-8.60973e-05
-6.7129e-05
-5.07728e-05
-3.68048e-05
-2.50203e-05
-1.52376e-05
-7.29057e-06
-1.05476e-06
3.51004e-06
6.33802e-06
7.31055e-06
6.42118e-06
3.98309e-06
7.22509e-07
-2.36554e-06
-4.38217e-06
-4.89536e-06
-4.09531e-06
-2.61964e-06
-1.18252e-06
-2.20027e-07
2.06193e-07
2.77875e-07
2.15943e-07
1.52633e-07
1.20597e-07
1.04988e-07
8.96133e-08
7.17244e-08
5.53309e-08
4.31138e-08
3.48073e-08
2.88549e-08
2.42523e-08
2.05568e-08
1.76907e-08
1.54535e-08
1.37348e-08
1.23387e-08
1.12294e-08
1.02828e-08
9.51002e-09
8.81399e-09
8.22866e-09
7.67312e-09
7.19528e-09
6.72236e-09
6.30966e-09
5.88815e-09
5.51754e-09
5.13027e-09
4.78903e-09
4.426e-09
4.10707e-09
3.76135e-09
3.46156e-09
3.12591e-09
2.84781e-09
2.50795e-09
2.27109e-09
1.87955e-09
1.76768e-09
1.16668e-09
1.42227e-09
2.14399e-10
1.57023e-09
0.102964
0.104389
0.109116
0.116006
0.125152
0.135774
0.14235
0.134776
0.0628208
-0.134017
-0.305657
-0.293402
-0.307469
-0.312585
-0.315161
-0.317804
-0.320859
-0.32697
-0.334792
-0.343312
-0.348802
-0.347652
-0.33649
-0.313931
-0.280594
-0.239651
-0.19573
-0.153546
-0.11648
-0.0861264
-0.0626059
-0.0451459
-0.0325937
-0.0238049
-0.0177841
-0.0137449
-0.0110934
-0.00939658
-0.00834463
-0.00771685
-0.00735649
-0.00715255
-0.00702679
-0.00692559
-0.00681409
-0.00667196
-0.00649008
-0.00626739
-0.00600855
-0.00572176
-0.0054169
-0.00510424
-0.00479299
-0.0044908
-0.00420314
-0.00393357
-0.00368379
-0.00345388
-0.00324274
-0.00304845
-0.00286866
-0.00270096
-0.00254313
-0.00239325
-0.00224994
-0.00211225
-0.00197967
-0.00185201
-0.00172926
-0.00161156
-0.00149903
-0.00139178
-0.00128987
-0.00119328
-0.00110194
-0.0010157
-0.000934388
-0.000857745
-0.000785493
-0.000717325
-0.000652936
-0.000592047
-0.000534425
-0.000479897
-0.000428349
-0.000379719
-0.000333977
-0.000291122
-0.000251166
-0.000214151
-0.000180145
-0.000149246
-0.000121561
-9.7164e-05
-7.60502e-05
-5.8094e-05
-4.30436e-05
-3.05447e-05
-2.01894e-05
-1.15807e-05
-4.40665e-06