/*--------------------------------*- C++ -*----------------------------------*\
  =========                 |
  \\      /  F ield         | OpenFOAM: The Open Source CFD Toolbox
   \\    /   O peration     | Website:  https://openfoam.org
    \\  /    A nd           | Version:  11
     \\/     M anipulation  |
\*---------------------------------------------------------------------------*/
FoamFile
{
    format      ascii;
    class       volVectorField;
    location    "5.5207";
    object      U_0;
}
// * * * * * * * * * * * * * * * * * * * * * * * * * * * * * * * * * * * * * //

dimensions      [0 1 -1 0 0 0 0];

internalField   nonuniform List<vector> 
7132
(
(1.00014 -0.000289108 2.28402e-18)
(1.00224 -0.000872341 7.19126e-18)
(1.00699 -0.00149139 7.60724e-18)
(1.01422 -0.00215812 9.09722e-18)
(1.02422 -0.00287589 1.11293e-17)
(1.0372 -0.00362482 1.15974e-17)
(1.05323 -0.0043658 1.10048e-17)
(1.07216 -0.00502154 1.028e-17)
(1.09347 -0.00550923 9.7335e-18)
(1.11634 -0.00574107 9.41862e-18)
(1.13953 -0.00566787 9.12527e-18)
(1.16184 -0.0053558 9.06636e-18)
(1.18247 -0.00486567 7.92858e-18)
(1.20084 -0.00425856 8.20071e-18)
(1.21659 -0.00358802 -1.47397e-18)
(1.22957 -0.00288714 -1.01671e-17)
(1.23971 -0.00217461 -2.06593e-17)
(1.24698 -0.00145817 -1.36621e-17)
(1.25139 -0.000740243 -1.92315e-17)
(1.25292 -2.36144e-05 -3.26885e-17)
(1.25158 0.00068454 -3.54363e-17)
(1.24743 0.00137011 -3.91727e-17)
(1.24059 0.00201268 -4.57015e-17)
(1.23128 0.00258832 -5.78706e-17)
(1.21982 0.00307346 -5.75369e-17)
(1.20661 0.00344918 -6.916e-17)
(1.19213 0.0037044 -8.27715e-17)
(1.17688 0.00383745 -9.50766e-17)
(1.16134 0.00385557 -1.05812e-16)
(1.14595 0.00377295 -1.05733e-16)
(1.13108 0.00360815 -1.01709e-16)
(1.11702 0.00338136 -9.61654e-17)
(1.10399 0.0031124 -9.53185e-17)
(1.0921 0.00281921 -8.71931e-17)
(1.08141 0.0025171 -7.48688e-17)
(1.07195 0.00221852 -5.92808e-17)
(1.06366 0.00193307 -4.01616e-17)
(1.05649 0.00166775 -2.02964e-17)
(1.05032 0.00142725 5.76287e-18)
(1.04507 0.00121427 3.47962e-17)
(1.04062 0.0010298 6.73502e-17)
(1.03684 0.000873445 1.02131e-16)
(1.03364 0.000743665 1.3794e-16)
(1.0309 0.00063808 1.77301e-16)
(1.02854 0.000553737 2.17165e-16)
(1.02648 0.000487373 2.56944e-16)
(1.02465 0.000435664 2.94796e-16)
(1.02299 0.000395425 3.30087e-16)
(1.02149 0.000363782 3.64306e-16)
(1.02009 0.00033828 3.94473e-16)
(1.01878 0.000316944 4.19466e-16)
(1.01755 0.000298293 4.40621e-16)
(1.01639 0.000281305 4.58544e-16)
(1.0153 0.000265363 4.71223e-16)
(1.01427 0.000250169 4.78372e-16)
(1.0133 0.000235665 4.78601e-16)
(1.01238 0.000221944 4.71642e-16)
(1.01152 0.000209177 4.57985e-16)
(1.01071 0.000197551 4.35811e-16)
(1.00994 0.000187218 4.05533e-16)
(1.00921 0.00017827 3.66933e-16)
(1.00851 0.000170719 3.21511e-16)
(1.00784 0.000164495 2.7043e-16)
(1.0072 0.000159461 2.12797e-16)
(1.00657 0.000155424 1.51058e-16)
(1.00595 0.000152167 8.42512e-17)
(1.00535 0.000149465 1.20497e-17)
(1.00475 0.000147111 -6.481e-17)
(1.00417 0.000144932 -1.4716e-16)
(1.00359 0.000142796 -2.32122e-16)
(1.00303 0.000140614 -3.19991e-16)
(1.00247 0.00013834 -4.09988e-16)
(1.00192 0.000135955 -5.00986e-16)
(1.00138 0.000133463 -5.94108e-16)
(1.00085 0.00013088 -6.87467e-16)
(1.00033 0.000128228 -7.82508e-16)
(0.99982 0.000125525 -8.78903e-16)
(0.999322 0.000122781 -9.74691e-16)
(0.998836 0.000119995 -1.0681e-15)
(0.99836 0.000117146 -1.15264e-15)
(0.997896 0.000114191 -1.22386e-15)
(0.997444 0.00011106 -1.27531e-15)
(0.997004 0.000107671 -1.3004e-15)
(0.996579 0.00010394 -1.29581e-15)
(0.996169 9.9798e-05 -1.25885e-15)
(0.995777 9.51935e-05 -1.19626e-15)
(0.995404 9.00542e-05 -1.12138e-15)
(0.995052 8.41939e-05 -1.05613e-15)
(0.994725 7.71694e-05 -1.03163e-15)
(0.994429 6.81317e-05 -1.08025e-15)
(0.994174 5.57553e-05 -1.23731e-15)
(0.993976 3.83491e-05 -1.53155e-15)
(0.993858 1.42243e-05 -1.98223e-15)
(0.993851 -1.76898e-05 -2.6025e-15)
(0.993986 -5.71133e-05 -3.39218e-15)
(0.994291 -0.00010181 -4.34039e-15)
(0.994782 -0.000147395 -5.41715e-15)
(0.99545 -0.00018778 -6.5619e-15)
(0.996263 -0.000216285 -7.68065e-15)
(0.99716 -0.000227209 -8.64355e-15)
(0.998063 -0.00021742 -9.31287e-15)
(0.998885 -0.000187461 -9.58291e-15)
(0.999552 -0.000141751 -9.4287e-15)
(1.00001 -8.77359e-05 -8.95037e-15)
(1.00025 -3.42098e-05 -8.37424e-15)
(1.00028 1.07119e-05 -8.01776e-15)
(1.00016 4.13601e-05 -8.20036e-15)
(0.999952 5.55244e-05 -9.12728e-15)
(0.999717 5.44896e-05 -1.07887e-14)
(0.999514 4.22002e-05 -1.29016e-14)
(0.999378 2.3908e-05 -1.49517e-14)
(0.999321 4.75729e-06 -1.63219e-14)
(0.999338 -1.1303e-05 -1.64775e-14)
(0.999411 -2.20642e-05 -1.51501e-14)
(0.999515 -2.70493e-05 -1.24298e-14)
(0.999628 -2.70976e-05 -8.75522e-15)
(0.999733 -2.37649e-05 -4.78668e-15)
(0.999819 -1.87459e-05 -1.21519e-15)
(0.999884 -1.34599e-05 1.42134e-15)
(0.999928 -8.84563e-06 2.86924e-15)
(0.999955 -5.34501e-06 3.18223e-15)
(0.99997 -3.00669e-06 2.65317e-15)
(0.999979 -1.63907e-06 1.69218e-15)
(0.999983 -9.54462e-07 6.89244e-16)
(0.999986 -6.73505e-07 -8.12875e-17)
(0.999989 -5.81474e-07 -5.02389e-16)
(0.999991 -5.44117e-07 -5.98003e-16)
(0.999993 -4.97313e-07 -4.7515e-16)
(0.999995 -4.24951e-07 -2.64352e-16)
(0.999996 -3.35944e-07 -6.84882e-17)
(0.999997 -2.46515e-07 5.76351e-17)
(0.999998 -1.69825e-07 1.04092e-16)
(0.999999 -1.12135e-07 9.2892e-17)
(0.999999 -7.33445e-08 5.46637e-17)
(0.999999 -4.95106e-08 1.63665e-17)
(1 -3.55478e-08 -7.65165e-18)
(1 -2.70741e-08 -1.64674e-17)
(1 -2.11996e-08 -1.42184e-17)
(1 -1.6468e-08 -8.11578e-18)
(1 -1.24008e-08 -2.11311e-18)
(1 -8.9727e-09 2.08424e-18)
(1 -6.25556e-09 3.10847e-18)
(1 -4.24188e-09 2.55286e-18)
(1 -2.83181e-09 8.66126e-19)
(1 -1.87215e-09 -2.36341e-19)
(1 -1.21826e-09 -6.37822e-21)
(1 -7.5688e-10 9.22029e-20)
(1 -4.19947e-10 3.69605e-19)
(1 -1.66599e-10 -4.30394e-20)
(1 2.17833e-11 -2.1412e-19)
(1 1.60503e-10 3.98318e-19)
(1 2.57613e-10 4.75246e-19)
(1 3.25586e-10 5.66392e-19)
(1 3.68739e-10 -2.08531e-20)
(1 3.99785e-10 -2.83944e-19)
(1 4.12721e-10 3.09925e-19)
(1 4.32347e-10 4.15247e-19)
(1 4.16985e-10 5.00485e-19)
(1 4.6182e-10 8.37585e-20)
(1 3.87057e-10 -8.91604e-19)
(1.00014 -0.000864457 3.29847e-20)
(1.00222 -0.00260972 3.53404e-19)
(1.00693 -0.00446364 7.20324e-19)
(1.01411 -0.0064644 1.07746e-18)
(1.02408 -0.00862302 1.45502e-18)
(1.03706 -0.010881 1.83092e-18)
(1.05314 -0.0131216 2.21359e-18)
(1.07221 -0.0151091 2.09987e-18)
(1.09375 -0.0165912 5.31763e-18)
(1.11691 -0.0172939 6.99109e-18)
(1.14038 -0.0170646 4.20391e-18)
(1.16291 -0.0161141 4.40288e-18)
(1.1837 -0.0146289 7.87202e-20)
(1.20217 -0.0127952 1.30024e-17)
(1.21798 -0.0107754 4.92219e-17)
(1.23099 -0.00866861 9.63625e-17)
(1.24114 -0.00652967 1.29959e-16)
(1.24842 -0.00437984 1.29228e-16)
(1.25282 -0.00222459 8.5619e-17)
(1.25435 -7.03572e-05 8.16042e-18)
(1.25299 0.00206131 -8.10347e-17)
(1.24881 0.00412762 -1.69104e-16)
(1.24191 0.00606598 -2.47427e-16)
(1.23252 0.00780271 -3.10646e-16)
(1.22095 0.0092655 -3.54649e-16)
(1.20762 0.0103965 -3.78606e-16)
(1.19301 0.0111623 -3.82924e-16)
(1.17763 0.0115582 -3.68828e-16)
(1.16198 0.0116069 -3.38045e-16)
(1.14649 0.011352 -2.93856e-16)
(1.13155 0.0108503 -2.28931e-16)
(1.11743 0.010163 -1.65864e-16)
(1.10436 0.00935009 -9.59772e-17)
(1.09244 0.00846557 -1.39423e-17)
(1.08175 0.00755544 7.06195e-17)
(1.07229 0.0066569 1.68174e-16)
(1.06402 0.00579858 2.66199e-16)
(1.05686 0.0050013 3.64845e-16)
(1.05072 0.00427896 4.68342e-16)
(1.04549 0.00363954 5.71623e-16)
(1.04105 0.00308592 6.78392e-16)
(1.0373 0.00261682 7.79673e-16)
(1.03412 0.00222759 8.74821e-16)
(1.0314 0.00191106 9.63372e-16)
(1.02905 0.00165835 1.04055e-15)
(1.027 0.00145965 1.10678e-15)
(1.02518 0.00130496 1.1554e-15)
(1.02354 0.0011847 1.18737e-15)
(1.02204 0.00109023 1.20326e-15)
(1.02064 0.00101415 1.20086e-15)
(1.01934 0.000950528 1.18279e-15)
(1.01811 0.000894898 1.14874e-15)
(1.01695 0.000844192 1.09822e-15)
(1.01585 0.00079655 1.03208e-15)
(1.01482 0.000751091 9.47935e-16)
(1.01385 0.000707643 8.4695e-16)
(1.01293 0.000666501 7.2725e-16)
(1.01207 0.000628188 5.88172e-16)
(1.01125 0.000593277 4.31561e-16)
(1.01048 0.00056224 2.57906e-16)
(1.00975 0.000535361 7.21559e-17)
(1.00905 0.000512682 -1.23813e-16)
(1.00838 0.000494001 -3.27257e-16)
(1.00773 0.000478904 -5.36296e-16)
(1.0071 0.000466818 -7.48831e-16)
(1.00649 0.000457081 -9.62712e-16)
(1.00588 0.000449019 -1.18158e-15)
(1.00528 0.000442006 -1.40126e-15)
(1.0047 0.00043552 -1.62106e-15)
(1.00412 0.000429161 -1.8377e-15)
(1.00355 0.000422665 -2.0478e-15)
(1.00298 0.000415887 -2.2539e-15)
(1.00243 0.000408774 -2.45236e-15)
(1.00189 0.000401341 -2.64489e-15)
(1.00135 0.000393638 -2.83099e-15)
(1.00083 0.000385728 -3.00928e-15)
(1.00032 0.000377669 -3.18078e-15)
(0.999816 0.000369495 -3.33604e-15)
(0.999325 0.000361203 -3.46663e-15)
(0.998845 0.000352734 -3.55853e-15)
(0.998376 0.000343959 -3.59636e-15)
(0.997918 0.000334677 -3.56945e-15)
(0.997473 0.000324638 -3.46276e-15)
(0.997041 0.000313587 -3.27237e-15)
(0.996624 0.000301314 -3.00275e-15)
(0.996224 0.00028766 -2.6746e-15)
(0.995843 0.000272408 -2.33197e-15)
(0.995482 0.000255017 -2.03088e-15)
(0.995146 0.000234195 -1.84637e-15)
(0.99484 0.000207454 -1.85554e-15)
(0.994573 0.000170893 -2.13042e-15)
(0.994361 0.000119498 -2.73202e-15)
(0.994228 4.82216e-05 -3.69819e-15)
(0.9942 -4.62048e-05 -5.05436e-15)
(0.994311 -0.000163086 -6.80363e-15)
(0.994587 -0.000295933 -8.91532e-15)
(0.995043 -0.000431841 -1.13031e-14)
(0.995674 -0.000552762 -1.37946e-14)
(0.996448 -0.00063877 -1.61289e-14)
(0.997308 -0.000672729 -1.79817e-14)
(0.998175 -0.000645066 -1.90476e-14)
(0.998966 -0.000557126 -1.91593e-14)
(0.999607 -0.000421838 -1.84011e-14)
(1.00005 -0.000261269 -1.71786e-14)
(1.00027 -0.000101642 -1.61789e-14)
(1.00029 3.27087e-05 -1.62205e-14)
(1.00017 0.000124652 -1.80114e-14)
(0.99995 0.000167357 -2.18778e-14)
(0.999712 0.000164472 -2.75553e-14)
(0.999507 0.000127678 -3.41108e-14)
(0.999369 7.26688e-05 -4.00859e-14)
(0.999312 1.49043e-05 -4.38559e-14)
(0.999331 -3.36802e-05 -4.41076e-14)
(0.999405 -6.63504e-05 -4.02829e-14)
(0.999512 -8.15867e-05 -3.27814e-14)
(0.999627 -8.18631e-05 -2.28739e-14)
(0.999734 -7.18511e-05 -1.23472e-14)
(0.999822 -5.66765e-05 -3.00164e-15)
(0.999887 -4.0653e-05 3.81289e-15)
(0.99993 -2.665e-05 7.49642e-15)
(0.999957 -1.60275e-05 8.24042e-15)
(0.999972 -8.94493e-06 6.83389e-15)
(0.99998 -4.82239e-06 4.34268e-15)
(0.999984 -2.78148e-06 1.76549e-15)
(0.999986 -1.96637e-06 -2.07109e-16)
(0.999989 -1.71867e-06 -1.28443e-15)
(0.999991 -1.62749e-06 -1.53049e-15)
(0.999993 -1.49817e-06 -1.21905e-15)
(0.999995 -1.28404e-06 -6.80746e-16)
(0.999996 -1.01515e-06 -1.80015e-16)
(0.999998 -7.43343e-07 1.42861e-16)
(0.999998 -5.10182e-07 2.63172e-16)
(0.999999 -3.3532e-07 2.3627e-16)
(0.999999 -2.18418e-07 1.41223e-16)
(0.999999 -1.47187e-07 4.40032e-17)
(1 -1.05861e-07 -1.87481e-17)
(1 -8.09485e-08 -4.27002e-17)
(1 -6.36337e-08 -3.78638e-17)
(1 -4.95563e-08 -2.10147e-17)
(1 -3.73491e-08 -5.13231e-18)
(1 -2.70167e-08 4.9043e-18)
(1 -1.88198e-08 6.95356e-18)
(1 -1.27575e-08 5.22647e-18)
(1 -8.52463e-09 2.39114e-18)
(1 -5.65502e-09 4.58618e-20)
(1 -3.70251e-09 -2.46881e-19)
(1 -2.32604e-09 -7.33775e-19)
(1 -1.31724e-09 -4.19861e-19)
(1 -5.581e-10 -8.18466e-21)
(1 9.08091e-12 6.09863e-20)
(1 4.2579e-10 7.87811e-19)
(1 7.19167e-10 2.75841e-19)
(1 9.23175e-10 1.28147e-19)
(1 1.05447e-09 9.70174e-20)
(1 1.14754e-09 -7.10686e-20)
(1 1.18876e-09 6.08629e-19)
(1 1.24675e-09 1.55586e-19)
(1 1.20572e-09 4.81603e-20)
(1 1.33273e-09 1.92904e-19)
(1 1.12522e-09 -6.01126e-19)
(1.00014 -0.00143184 4.00946e-22)
(1.00218 -0.00432454 5.59088e-21)
(1.00681 -0.00740399 8.20446e-21)
(1.01389 -0.0107397 2.11141e-20)
(1.02379 -0.0143548 -1.40147e-19)
(1.03675 -0.0181559 2.62824e-19)
(1.05294 -0.0219502 -8.23502e-19)
(1.07228 -0.0253326 -1.51786e-18)
(1.09427 -0.0278691 6.50529e-18)
(1.11803 -0.029065 -1.23502e-18)
(1.14208 -0.0286493 -3.88935e-17)
(1.16506 -0.0270159 -3.03036e-17)
(1.18616 -0.0244893 1.11856e-16)
(1.20483 -0.0213899 3.53079e-16)
(1.22074 -0.0179933 5.2763e-16)
(1.2338 -0.0144633 4.57124e-16)
(1.24398 -0.0108887 7.27952e-17)
(1.25127 -0.00730077 -5.44333e-16)
(1.25568 -0.00370486 -1.21945e-15)
(1.2572 -0.000108835 -1.72832e-15)
(1.25582 0.00345382 -2.05161e-15)
(1.25156 0.00691184 -2.18824e-15)
(1.24455 0.0101594 -2.15386e-15)
(1.23498 0.013071 -1.97652e-15)
(1.2232 0.0155234 -1.68993e-15)
(1.20962 0.0174175 -1.3276e-15)
(1.19474 0.0186962 -9.19294e-16)
(1.17911 0.0193519 -4.89243e-16)
(1.16321 0.0194235 -5.56563e-17)
(1.14752 0.0189855 3.68308e-16)
(1.13242 0.0181344 7.75852e-16)
(1.11818 0.016974 1.16167e-15)
(1.10502 0.0156054 1.5242e-15)
(1.09306 0.0141192 1.86478e-15)
(1.08235 0.0125924 2.18424e-15)
(1.0729 0.0110871 2.48436e-15)
(1.06464 0.00965084 2.76502e-15)
(1.05752 0.0083181 3.025e-15)
(1.05143 0.00711186 3.26249e-15)
(1.04625 0.00604516 3.47342e-15)
(1.04186 0.00512262 3.6524e-15)
(1.03816 0.00434189 3.79169e-15)
(1.03502 0.00369501 3.88306e-15)
(1.03235 0.00316979 3.91927e-15)
(1.03004 0.00275122 3.89475e-15)
(1.02801 0.00242274 3.80682e-15)
(1.02622 0.00216752 3.65503e-15)
(1.02459 0.00196946 3.44152e-15)
(1.02309 0.00181403 3.17066e-15)
(1.0217 0.00168888 2.8477e-15)
(1.0204 0.00158407 2.47915e-15)
(1.01917 0.0014922 2.06957e-15)
(1.01801 0.0014082 1.62073e-15)
(1.01692 0.00132903 1.1354e-15)
(1.01588 0.0012533 6.12592e-16)
(1.0149 0.00118079 5.24291e-17)
(1.01399 0.00111206 -5.44702e-16)
(1.01312 0.00104803 -1.17625e-15)
(1.0123 0.000989697 -1.83382e-15)
(1.01153 0.000937885 -2.50854e-15)
(1.0108 0.000893075 -3.18907e-15)
(1.0101 0.000855344 -3.86639e-15)
(1.00943 0.000824348 -4.53313e-15)
(1.00878 0.00079938 -5.18398e-15)
(1.00814 0.000779466 -5.81802e-15)
(1.00752 0.000763484 -6.4318e-15)
(1.00691 0.000750289 -7.02497e-15)
(1.00631 0.000738827 -7.59396e-15)
(1.00572 0.000728215 -8.13279e-15)
(1.00514 0.000717788 -8.63688e-15)
(1.00456 0.000707107 -9.09994e-15)
(1.00399 0.000695936 -9.52287e-15)
(1.00343 0.000684199 -9.90832e-15)
(1.00288 0.000671927 -1.026e-14)
(1.00234 0.000659213 -1.05807e-14)
(1.00181 0.000646168 -1.08639e-14)
(1.00129 0.000632892 -1.10975e-14)
(1.00078 0.00061945 -1.12571e-14)
(1.00028 0.000605841 -1.13088e-14)
(0.99979 0.000591975 -1.12139e-14)
(0.999311 0.000577642 -1.09294e-14)
(0.998842 0.000562513 -1.04207e-14)
(0.998386 0.000546171 -9.66407e-15)
(0.997942 0.000528183 -8.65744e-15)
(0.997512 0.000508186 -7.43348e-15)
(0.997098 0.000485895 -6.06563e-15)
(0.996701 0.000460945 -4.68113e-15)
(0.996324 0.000432456 -3.45078e-15)
(0.99597 0.000398348 -2.57343e-15)
(0.995645 0.000354613 -2.24861e-15)
(0.995357 0.000294921 -2.64436e-15)
(0.995122 0.000211103 -3.88525e-15)
(0.994959 9.48623e-05 -6.05378e-15)
(0.994897 -5.92745e-05 -9.20152e-15)
(0.994966 -0.000250365 -1.33304e-14)
(0.995191 -0.000468002 -1.83386e-14)
(0.995587 -0.000691218 -2.39439e-14)
(0.996151 -0.000890485 -2.96143e-14)
(0.996853 -0.00103303 -3.45729e-14)
(0.997638 -0.00109047 -3.7939e-14)
(0.998433 -0.00104679 -3.90151e-14)
(0.999157 -0.000903844 -3.76466e-14)
(0.99974 -0.000682673 -3.45157e-14)
(1.00013 -0.000419484 -3.12183e-14)
(1.00032 -0.000157508 -3.00247e-14)
(1.00031 6.29929e-05 -3.33257e-14)
(1.00016 0.000213553 -4.28808e-14)
(0.999935 0.000282699 -5.91053e-14)
(0.99969 0.000276336 -8.05661e-14)
(0.999482 0.00021376 -1.03899e-13)
(0.999346 0.000121018 -1.2434e-13)
(0.999293 2.38584e-05 -1.36861e-13)
(0.999317 -5.77734e-05 -1.37631e-13)
(0.999397 -0.000112583 -1.25283e-13)
(0.99951 -0.000137998 -1.01442e-13)
(0.99963 -0.000138169 -7.03362e-14)
(0.99974 -0.000120975 -3.76284e-14)
(0.999829 -9.50913e-05 -8.87133e-15)
(0.999895 -6.78387e-05 1.18977e-14)
(0.999937 -4.40963e-05 2.2984e-14)
(0.999963 -2.61733e-05 2.50958e-14)
(0.999976 -1.43238e-05 2.07204e-14)
(0.999982 -7.53298e-06 1.31182e-14)
(0.999985 -4.27433e-06 5.30833e-15)
(0.999987 -3.06544e-06 -6.4345e-16)
(0.999989 -2.77218e-06 -3.88508e-15)
(0.999991 -2.69512e-06 -4.61796e-15)
(0.999993 -2.51291e-06 -3.67665e-15)
(0.999995 -2.16056e-06 -2.05532e-15)
(0.999996 -1.7029e-06 -5.47083e-16)
(0.999998 -1.23782e-06 4.24301e-16)
(0.999998 -8.40917e-07 7.90172e-16)
(0.999999 -5.46569e-07 7.11623e-16)
(0.999999 -3.52989e-07 4.26723e-16)
(0.999999 -2.37512e-07 1.34605e-16)
(1 -1.71988e-07 -5.69622e-17)
(1 -1.32924e-07 -1.28527e-16)
(1 -1.05409e-07 -1.14361e-16)
(1 -8.24436e-08 -6.39213e-17)
(1 -6.21441e-08 -1.5615e-17)
(1 -4.48408e-08 1.27973e-17)
(1 -3.1134e-08 2.0553e-17)
(1 -2.10652e-08 1.56803e-17)
(1 -1.40958e-08 7.10462e-18)
(1 -9.40972e-09 4.27288e-19)
(1 -6.23205e-09 -2.50194e-18)
(1 -3.98807e-09 -2.58904e-18)
(1 -2.33214e-09 -1.41614e-18)
(1 -1.07927e-09 -2.18378e-19)
(1 -1.38309e-10 4.20375e-19)
(1 5.52736e-10 6.13095e-19)
(1 1.04036e-09 4.85881e-19)
(1 1.37817e-09 2.84705e-19)
(1 1.59752e-09 1.52559e-19)
(1 1.75198e-09 7.46737e-20)
(1 1.82456e-09 1.26922e-19)
(1 1.91885e-09 1.60381e-19)
(1 1.86273e-09 1.57412e-19)
(1 2.05345e-09 1.7786e-19)
(1 1.74981e-09 6.66177e-20)
(1.00014 -0.00198572 -2.78826e-20)
(1.00211 -0.00600005 -4.31994e-19)
(1.00661 -0.0102888 -7.38369e-19)
(1.01355 -0.0149596 -1.51725e-18)
(1.02331 -0.0200563 -1.61624e-18)
(1.03624 -0.0254574 -1.53652e-18)
(1.05257 -0.0308978 -1.12707e-17)
(1.07231 -0.0357844 1.84366e-17)
(1.095 -0.0394815 3.27594e-18)
(1.1197 -0.041209 -1.43837e-16)
(1.14465 -0.0405508 -2.45341e-17)
(1.16829 -0.0381557 6.93837e-16)
(1.18987 -0.0345084 1.35724e-15)
(1.20882 -0.0300779 7.64308e-16)
(1.22489 -0.0252614 -1.7712e-15)
(1.23802 -0.0202845 -5.81994e-15)
(1.24822 -0.0152638 -1.01055e-14)
(1.25553 -0.0102327 -1.32073e-14)
(1.25995 -0.00518855 -1.41989e-14)
(1.26146 -0.000134147 -1.27598e-14)
(1.26003 0.0048856 -1.01293e-14)
(1.25567 0.00976951 -6.91356e-15)
(1.24848 0.0143638 -3.50495e-15)
(1.23866 0.0184855 -1.87661e-16)
(1.22655 0.0219541 2.84594e-15)
(1.21259 0.0246258 5.48567e-15)
(1.19732 0.0264184 7.69035e-15)
(1.18129 0.0273224 9.46769e-15)
(1.16503 0.0273959 1.0856e-14)
(1.14904 0.0267482 1.1907e-14)
(1.13368 0.025519 1.26865e-14)
(1.11926 0.0238575 1.3227e-14)
(1.10598 0.0219078 1.35907e-14)
(1.09395 0.0197983 1.38196e-14)
(1.08321 0.0176372 1.39321e-14)
(1.07376 0.0155112 1.39542e-14)
(1.06555 0.0134867 1.38806e-14)
(1.05848 0.0116113 1.37097e-14)
(1.05245 0.00991666 1.34378e-14)
(1.04734 0.0084205 1.3047e-14)
(1.04304 0.00712877 1.25238e-14)
(1.03941 0.00603766 1.18429e-14)
(1.03634 0.00513554 1.09902e-14)
(1.03373 0.00440487 9.96007e-15)
(1.03147 0.00382415 8.75376e-15)
(1.02949 0.0033698 7.38702e-15)
(1.02773 0.00301785 5.87595e-15)
(1.02612 0.00274546 4.24793e-15)
(1.02464 0.00253211 2.53047e-15)
(1.02326 0.00236033 7.46024e-16)
(1.02197 0.00221622 -1.08293e-15)
(1.02074 0.00208943 -2.94356e-15)
(1.01957 0.00197295 -4.83064e-15)
(1.01847 0.00186267 -6.74216e-15)
(1.01744 0.00175679 -8.68053e-15)
(1.01646 0.00165514 -1.0641e-14)
(1.01553 0.00155864 -1.26148e-14)
(1.01467 0.00146871 -1.45833e-14)
(1.01385 0.00138682 -1.65191e-14)
(1.01308 0.00131418 -1.83939e-14)
(1.01234 0.00125149 -2.01783e-14)
(1.01164 0.00119887 -2.18539e-14)
(1.01097 0.00115582 -2.34112e-14)
(1.01031 0.00112132 -2.48503e-14)
(1.00968 0.00109396 -2.6175e-14)
(1.00905 0.00107212 -2.73872e-14)
(1.00844 0.00105417 -2.84889e-14)
(1.00783 0.0010386 -2.94679e-14)
(1.00723 0.00102416 -3.03121e-14)
(1.00664 0.00100992 -3.10105e-14)
(1.00605 0.000995258 -3.15613e-14)
(1.00547 0.000979876 -3.19797e-14)
(1.0049 0.000963681 -3.22818e-14)
(1.00434 0.000946737 -3.24864e-14)
(1.00379 0.00092919 -3.25958e-14)
(1.00325 0.000911208 -3.25865e-14)
(1.00272 0.000892943 -3.24089e-14)
(1.0022 0.000874495 -3.19773e-14)
(1.00169 0.000855876 -3.11898e-14)
(1.00118 0.000836971 -2.9935e-14)
(1.00069 0.000817499 -2.81088e-14)
(1.00021 0.000797008 -2.56348e-14)
(0.999735 0.000774914 -2.24701e-14)
(0.999273 0.000750597 -1.86381e-14)
(0.998824 0.000723518 -1.42468e-14)
(0.998389 0.000693244 -9.51369e-15)
(0.997969 0.000659243 -4.77856e-15)
(0.997569 0.000620314 -4.72534e-16)
(0.997189 0.000573668 2.92354e-15)
(0.996837 0.000513923 4.96409e-15)
(0.996519 0.000432556 5.3072e-15)
(0.996249 0.000318492 3.73899e-15)
(0.996046 0.000160391 1.4773e-16)
(0.995936 -4.93568e-05 -5.54008e-15)
(0.995945 -0.000309724 -1.32968e-14)
(0.996098 -0.0006068 -2.28024e-14)
(0.99641 -0.000912191 -3.32313e-14)
(0.996877 -0.00118562 -4.30966e-14)
(0.997473 -0.00138214 -5.03679e-14)
(0.998147 -0.00146261 -5.29843e-14)
(0.998833 -0.00140467 -4.97408e-14)
(0.999454 -0.00121054 -4.12627e-14)
(0.999944 -0.000908857 -3.06367e-14)
(1.00026 -0.000549313 -2.33314e-14)
(1.00038 -0.000191466 -2.62146e-14)
(1.00033 0.000109065 -4.57962e-14)
(1.00015 0.000312868 -8.60917e-14)
(0.999902 0.00040401 -1.46825e-13)
(0.999648 0.000390665 -2.22275e-13)
(0.999439 0.000299658 -3.01293e-13)
(0.999307 0.000167289 -3.69037e-13)
(0.999262 2.95185e-05 -4.10406e-13)
(0.999295 -8.57505e-05 -4.14336e-13)
(0.999386 -0.000162708 -3.77439e-13)
(0.999508 -0.000197811 -3.05367e-13)
(0.999636 -0.000197024 -2.11448e-13)
(0.999751 -0.000171615 -1.13041e-13)
(0.999843 -0.000134008 -2.68617e-14)
(0.999908 -9.47002e-05 3.51353e-14)
(0.999949 -6.06828e-05 6.80998e-14)
(0.999971 -3.52344e-05 7.43317e-14)
(0.999982 -1.86542e-05 6.13395e-14)
(0.999985 -9.39951e-06 3.88372e-14)
(0.999987 -5.19411e-06 1.57555e-14)
(0.999987 -3.84641e-06 -1.82418e-15)
(0.999989 -3.69773e-06 -1.14056e-14)
(0.999991 -3.7461e-06 -1.35922e-14)
(0.999993 -3.55509e-06 -1.08411e-14)
(0.999995 -3.06533e-06 -6.07795e-15)
(0.999997 -2.40087e-06 -1.63739e-15)
(0.999998 -1.72333e-06 1.23067e-15)
(0.999999 -1.15109e-06 2.3176e-15)
(0.999999 -7.34689e-07 2.0948e-15)
(0.999999 -4.68171e-07 1.26059e-15)
(0.999999 -3.14705e-07 4.01192e-16)
(1 -2.30828e-07 -1.6393e-16)
(1 -1.81633e-07 -3.77399e-16)
(1 -1.45996e-07 -3.37434e-16)
(1 -1.14844e-07 -1.89602e-16)
(1 -8.64848e-08 -4.73276e-17)
(1 -6.20908e-08 3.7292e-17)
(1 -4.28486e-08 5.9998e-17)
(1 -2.88796e-08 4.57717e-17)
(1 -1.93533e-08 2.05756e-17)
(1 -1.30301e-08 8.47863e-19)
(1 -8.76476e-09 -7.26837e-18)
(1 -5.73871e-09 -8.07016e-18)
(1 -3.48137e-09 -4.71106e-18)
(1 -1.75652e-09 -1.16047e-18)
(1 -4.5365e-10 7.19299e-19)
(1 5.0382e-10 1.87587e-18)
(1 1.17874e-09 1.00953e-18)
(1 1.64523e-09 3.44192e-19)
(1 1.94951e-09 -1.94917e-20)
(1 2.1637e-09 -2.54898e-19)
(1 2.26995e-09 4.8433e-19)
(1 2.39762e-09 8.99241e-20)
(1 2.33927e-09 3.19751e-21)
(1 2.56998e-09 1.45596e-19)
(1 2.21541e-09 -6.01289e-19)
(1.00013 -0.0025193 -2.19342e-18)
(1.00202 -0.00761693 -6.36331e-18)
(1.00634 -0.0130893 -5.18031e-18)
(1.01304 -0.0190927 -8.53476e-18)
(1.02261 -0.0257039 1.03023e-18)
(1.03545 -0.0327853 -3.00389e-17)
(1.05195 -0.0400058 2.25259e-17)
(1.07223 -0.0465599 8.34609e-17)
(1.09588 -0.0515817 -4.49965e-16)
(1.1219 -0.0538979 4.63386e-17)
(1.14809 -0.0529063 2.50136e-15)
(1.17264 -0.0496308 2.56216e-15)
(1.19484 -0.0447458 -5.34653e-15)
(1.21416 -0.0388889 -2.11296e-14)
(1.2304 -0.032588 -3.82347e-14)
(1.2436 -0.0261266 -4.82608e-14)
(1.25384 -0.0196432 -4.58931e-14)
(1.26116 -0.0131641 -3.10162e-14)
(1.2656 -0.00666948 -7.62919e-15)
(1.26711 -0.000150776 1.75041e-14)
(1.26563 0.00634426 4.01251e-14)
(1.26114 0.0126844 5.84932e-14)
(1.25371 0.0186643 7.2044e-14)
(1.24355 0.0240369 8.09162e-14)
(1.23098 0.0285572 8.56727e-14)
(1.21651 0.0320299 8.7065e-14)
(1.20069 0.0343443 8.59314e-14)
(1.18413 0.0354888 8.30196e-14)
(1.16739 0.0355438 7.89671e-14)
(1.15099 0.0346577 7.4271e-14)
(1.1353 0.0330176 6.92814e-14)
(1.12064 0.0308223 6.42362e-14)
(1.1072 0.0282611 5.92755e-14)
(1.09507 0.0255017 5.44467e-14)
(1.08431 0.0226842 4.97522e-14)
(1.07487 0.0199201 4.51494e-14)
(1.0667 0.0172942 4.05697e-14)
(1.05971 0.014867 3.59365e-14)
(1.05377 0.0126784 3.1166e-14)
(1.04877 0.0107503 2.61897e-14)
(1.04457 0.00908953 2.09518e-14)
(1.04104 0.0076904 1.54194e-14)
(1.03807 0.00653711 9.59438e-15)
(1.03554 0.00560622 3.51367e-15)
(1.03335 0.00486925 -2.74728e-15)
(1.03143 0.00429507 -9.09492e-15)
(1.02971 0.00385218 -1.54298e-14)
(1.02814 0.00351068 -2.16623e-14)
(1.02668 0.00324378 -2.77231e-14)
(1.02531 0.00302884 -3.35637e-14)
(1.02401 0.00284793 -3.91631e-14)
(1.02278 0.00268784 -4.45279e-14)
(1.02162 0.00253976 -4.96815e-14)
(1.02051 0.00239867 -5.46465e-14)
(1.01947 0.0022625 -5.94388e-14)
(1.01849 0.00213136 -6.40447e-14)
(1.01756 0.00200665 -6.84246e-14)
(1.01669 0.00189039 -7.2513e-14)
(1.01587 0.00178463 -7.62299e-14)
(1.0151 0.00169101 -7.95081e-14)
(1.01436 0.00161051 -8.23017e-14)
(1.01366 0.00154324 -8.46055e-14)
(1.01298 0.00148854 -8.6447e-14)
(1.01233 0.00144502 -8.78736e-14)
(1.01168 0.00141079 -8.89363e-14)
(1.01105 0.00138369 -8.96623e-14)
(1.01043 0.00136155 -9.00565e-14)
(1.00981 0.00134238 -9.00944e-14)
(1.00921 0.00132454 -8.97462e-14)
(1.0086 0.00130682 -8.90026e-14)
(1.00801 0.00128847 -8.78859e-14)
(1.00742 0.00126912 -8.64617e-14)
(1.00684 0.00124869 -8.48066e-14)
(1.00626 0.00122729 -8.29765e-14)
(1.0057 0.00120514 -8.09683e-14)
(1.00514 0.00118249 -7.86878e-14)
(1.0046 0.00115954 -7.5958e-14)
(1.00406 0.00113645 -7.2529e-14)
(1.00353 0.00111324 -6.81211e-14)
(1.00301 0.00108979 -6.24661e-14)
(1.0025 0.00106575 -5.53368e-14)
(1.002 0.00104057 -4.6588e-14)
(1.00151 0.00101349 -3.61721e-14)
(1.00102 0.000983688 -2.41818e-14)
(1.00055 0.000950424 -1.08937e-14)
(1.00009 0.000913083 3.19729e-15)
(0.999638 0.000870941 1.73584e-14)
(0.999206 0.00082249 3.06866e-14)
(0.998793 0.00076432 4.22349e-14)
(0.998405 0.000689873 5.11979e-14)
(0.998048 0.000588723 5.70729e-14)
(0.997734 0.000447244 5.96884e-14)
(0.99748 0.000251365 5.90741e-14)
(0.997307 -8.52207e-06 5.526e-14)
(0.99724 -0.00033145 4.83851e-14)
(0.997302 -0.000700508 3.93045e-14)
(0.997504 -0.00108069 3.0116e-14)
(0.997845 -0.001422 2.43942e-14)
(0.998302 -0.00166828 2.66318e-14)
(0.99883 -0.00177041 4.06269e-14)
(0.999368 -0.00170003 6.70847e-14)
(0.99985 -0.00145954 1.01326e-13)
(1.00021 -0.00108461 1.32218e-13)
(1.00042 -0.000637532 1.43142e-13)
(1.00046 -0.000193211 1.15193e-13)
(1.00034 0.000178267 3.2127e-14)
(1.00012 0.000427192 -1.14125e-13)
(0.999847 0.00053353 -3.19255e-13)
(0.999582 0.000507827 -5.63949e-13)
(0.999373 0.00038438 -8.14332e-13)
(0.999248 0.000209607 -1.02704e-12)
(0.999216 2.95503e-05 -1.15889e-12)
(0.999265 -0.000120031 -1.17896e-12)
(0.999371 -0.000218926 -1.07864e-12)
(0.999507 -0.000262783 -8.75304e-13)
(0.999645 -0.000259609 -6.08107e-13)
(0.999767 -0.000224355 -3.27392e-13)
(0.999862 -0.000173486 -8.12741e-14)
(0.999926 -0.000120913 9.60453e-14)
(0.999964 -7.58712e-05 1.90773e-13)
(0.999983 -4.26197e-05 2.09474e-13)
(0.999989 -2.1413e-05 1.73471e-13)
(0.99999 -1.00339e-05 1.10284e-13)
(0.999988 -5.30246e-06 4.52029e-14)
(0.999988 -4.1975e-06 -4.52803e-15)
(0.999989 -4.46857e-06 -3.17815e-14)
(0.999991 -4.7961e-06 -3.81745e-14)
(0.999993 -4.65038e-06 -3.05843e-14)
(0.999995 -4.01596e-06 -1.72397e-14)
(0.999997 -3.11314e-06 -4.73246e-15)
(0.999998 -2.19303e-06 3.38194e-15)
(0.999999 -1.42857e-06 6.49067e-15)
(0.999999 -8.87416e-07 5.89866e-15)
(0.999999 -5.54573e-07 3.56625e-15)
(1 -3.73034e-07 1.14881e-15)
(1 -2.79641e-07 -4.50444e-16)
(1 -2.26134e-07 -1.05827e-15)
(1 -1.8519e-07 -9.50678e-16)
(1 -1.4665e-07 -5.36593e-16)
(1 -1.10123e-07 -1.35002e-16)
(1 -7.83931e-08 1.02522e-16)
(1 -5.35663e-08 1.68183e-16)
(1 -3.58686e-08 1.28887e-16)
(1 -2.40654e-08 5.79505e-17)
(1 -1.63784e-08 3.15905e-18)
(1 -1.12279e-08 -2.15842e-17)
(1 -7.5422e-09 -2.31557e-17)
(1 -4.74585e-09 -1.34847e-17)
(1 -2.57875e-09 -3.59069e-18)
(1 -9.30269e-10 2.56696e-18)
(1 2.80729e-10 4.0789e-18)
(1 1.13166e-09 2.42174e-18)
(1 1.71712e-09 7.98052e-19)
(1 2.10044e-09 -3.2774e-19)
(1 2.37007e-09 -1.35585e-19)
(1 2.51163e-09 1.95838e-19)
(1 2.66849e-09 -1.44907e-19)
(1 2.6212e-09 -9.1883e-20)
(1 2.86762e-09 -2.1629e-20)
(1 2.50867e-09 -1.34781e-19)
(1.00012 -0.00302493 2.19465e-18)
(1.00189 -0.0091527 8.15982e-18)
(1.00596 -0.0157711 5.68216e-18)
(1.01235 -0.0230991 9.84404e-18)
(1.02163 -0.0312631 2.27457e-17)
(1.0343 -0.0401281 -9.83833e-17)
(1.05097 -0.0493097 4.73057e-16)
(1.0719 -0.0577595 -1.0093e-15)
(1.09681 -0.064346 -4.43704e-16)
(1.12461 -0.0673294 7.06363e-15)
(1.15245 -0.0658638 2.27625e-15)
(1.17814 -0.0615375 -3.21581e-14)
(1.2011 -0.0552544 -7.70814e-14)
(1.22083 -0.0478478 -8.89293e-14)
(1.23726 -0.0399881 -3.57322e-14)
(1.25053 -0.0320061 8.26816e-14)
(1.26078 -0.0240477 2.38632e-13)
(1.26812 -0.0161148 3.92373e-13)
(1.27257 -0.00815679 5.09536e-13)
(1.27408 -0.000139746 5.62521e-13)
(1.27255 0.00788022 5.75864e-13)
(1.26791 0.0157403 5.60979e-13)
(1.2602 0.0231748 5.26462e-13)
(1.2496 0.029861 4.79904e-13)
(1.23648 0.0354794 4.27624e-13)
(1.22135 0.0397762 3.74308e-13)
(1.20484 0.0426103 3.23096e-13)
(1.1876 0.0439709 2.75784e-13)
(1.17025 0.0439663 2.33178e-13)
(1.15332 0.0427913 1.95413e-13)
(1.13723 0.0406875 1.62174e-13)
(1.12227 0.0379076 1.32898e-13)
(1.10863 0.0346899 1.06891e-13)
(1.0964 0.0312425 8.34409e-14)
(1.08559 0.0277379 6.18527e-14)
(1.07618 0.024312 4.1505e-14)
(1.06808 0.0210671 2.18726e-14)
(1.06119 0.0180761 2.54068e-15)
(1.05537 0.0153862 -1.67801e-14)
(1.0505 0.0130228 -3.62624e-14)
(1.04644 0.0109931 -5.59433e-14)
(1.04304 0.00928872 -7.57237e-14)
(1.04018 0.00788909 -9.53748e-14)
(1.03776 0.00676428 -1.1457e-13)
(1.03566 0.00587819 -1.32948e-13)
(1.03381 0.00519157 -1.50173e-13)
(1.03214 0.0046649 -1.65984e-13)
(1.03061 0.00426078 -1.80227e-13)
(1.02917 0.00394591 -1.92857e-13)
(1.02782 0.00369229 -2.03936e-13)
(1.02653 0.00347792 -2.13605e-13)
(1.0253 0.00328679 -2.22053e-13)
(1.02413 0.00310843 -2.29477e-13)
(1.02301 0.00293708 -2.36028e-13)
(1.02196 0.00277067 -2.41771e-13)
(1.02098 0.00260972 -2.46658e-13)
(1.02005 0.00245632 -2.50542e-13)
(1.01917 0.00231327 -2.5322e-13)
(1.01835 0.00218329 -2.54501e-13)
(1.01758 0.00206855 -2.5427e-13)
(1.01684 0.00197029 -2.5253e-13)
(1.01614 0.00188867 -2.49414e-13)
(1.01546 0.00182281 -2.45144e-13)
(1.0148 0.0017709 -2.39976e-13)
(1.01415 0.00173053 -2.34119e-13)
(1.01351 0.00169891 -2.27684e-13)
(1.01288 0.00167328 -2.20669e-13)
(1.01225 0.00165112 -2.1299e-13)
(1.01163 0.0016304 -2.04563e-13)
(1.01102 0.00160965 -1.95374e-13)
(1.01041 0.00158796 -1.85537e-13)
(1.0098 0.00156493 -1.75266e-13)
(1.00921 0.00154052 -1.64799e-13)
(1.00862 0.00151494 -1.54282e-13)