/*--------------------------------*- C++ -*----------------------------------*\
  =========                 |
  \\      /  F ield         | OpenFOAM: The Open Source CFD Toolbox
   \\    /   O peration     | Website:  https://openfoam.org
    \\  /    A nd           | Version:  11
     \\/     M anipulation  |
\*---------------------------------------------------------------------------*/
FoamFile
{
    format      ascii;
    class       volScalarField;
    location    "4.165689";
    object      p;
}
// * * * * * * * * * * * * * * * * * * * * * * * * * * * * * * * * * * * * * //

dimensions      [0 2 -2 0 0 0 0];

internalField   nonuniform List<scalar> 
7132
(
0.0506788
0.0492227
0.0443101
0.0371122
0.0270167
0.0136834
-0.00303015
-0.0232111
-0.0464583
-0.071964
-0.0984844
-0.124301
-0.148446
-0.169994
-0.188238
-0.202719
-0.21305
-0.218949
-0.220246
-0.216939
-0.209262
-0.197729
-0.183116
-0.166382
-0.148545
-0.130555
-0.113192
-0.097023
-0.0823967
-0.0694754
-0.0582771
-0.0487204
-0.0406638
-0.0339366
-0.0283596
-0.0237603
-0.0199799
-0.0168781
-0.0143335
-0.0122436
-0.0105229
-0.00910095
-0.00792034
-0.00693452
-0.00610602
-0.00540476
-0.00480674
-0.00429279
-0.00384763
-0.00345908
-0.00311745
-0.00281497
-0.00254542
-0.00230381
-0.0020861
-0.00188902
-0.00170992
-0.00154661
-0.00139732
-0.00126059
-0.00113518
-0.0010201
-0.0009145
-0.000817669
-0.000729006
-0.000647982
-0.000574101
-0.000506847
-0.000445631
-0.000389764
-0.000338479
-0.000291032
-0.000246878
-0.000205855
-0.000168264
-0.000134743
-0.00010594
-8.21585e-05
-6.31726e-05
-4.83256e-05
-3.68095e-05
-2.79205e-05
-2.11444e-05
-1.60929e-05
-1.24059e-05
-9.71905e-06
-7.70108e-06
-6.10571e-06
-4.79011e-06
-3.69267e-06
-2.79277e-06
-2.07825e-06
-1.53008e-06
-1.12147e-06
-8.22903e-07
-6.07146e-07
-4.51772e-07
-3.39598e-07
-2.58041e-07
-1.98174e-07
-1.53803e-07
-1.20671e-07
-9.58415e-08
-7.72297e-08
-6.33121e-08
-5.29194e-08
-4.51595e-08
-3.93287e-08
-3.49111e-08
-3.15073e-08
-2.88509e-08
-2.67302e-08
-2.50193e-08
-2.36007e-08
-2.2417e-08
-2.13939e-08
-2.05091e-08
-1.97106e-08
-1.89968e-08
-1.83276e-08
-1.77144e-08
-1.71225e-08
-1.65711e-08
-1.60273e-08
-1.55155e-08
-1.50029e-08
-1.45174e-08
-1.40255e-08
-1.35581e-08
-1.30806e-08
-1.26261e-08
-1.21585e-08
-1.17131e-08
-1.12524e-08
-1.08135e-08
-1.03575e-08
-9.9231e-09
-9.47015e-09
-9.03881e-09
-8.58764e-09
-8.15819e-09
-7.70783e-09
-7.27943e-09
-6.82915e-09
-6.40116e-09
-5.95039e-09
-5.5225e-09
-5.07064e-09
-4.64302e-09
-4.18905e-09
-3.76283e-09
-3.30403e-09
-2.88295e-09
-2.41176e-09
-2.00748e-09
-1.50243e-09
-1.14975e-09
-5.52255e-10
-2.90129e-10
2.99967e-10
0.0512594
0.0498158
0.0449471
0.0377963
0.0277412
0.0144147
-0.00235013
-0.0226781
-0.0461664
-0.0720025
-0.098869
-0.124932
-0.149262
-0.170936
-0.189261
-0.203799
-0.214171
-0.220092
-0.221382
-0.218026
-0.210246
-0.198557
-0.183745
-0.166793
-0.148742
-0.130564
-0.113053
-0.096779
-0.0820895
-0.0691399
-0.0579399
-0.0483998
-0.0403709
-0.0336768
-0.0281346
-0.0235688
-0.0198192
-0.0167447
-0.0142238
-0.012154
-0.01045
-0.00904189
-0.00787256
-0.00689587
-0.00607472
-0.00537938
-0.00478608
-0.0042759
-0.00383375
-0.00344761
-0.0031079
-0.00280695
-0.00253864
-0.00229802
-0.00208112
-0.00188469
-0.00170612
-0.00154325
-0.00139432
-0.00125787
-0.00113271
-0.00101783
-0.000912388
-0.000815694
-0.00072715
-0.000646235
-0.000572462
-0.000505322
-0.00044423
-0.000388494
-0.00033734
-0.000290009
-0.000245946
-0.000204982
-0.000167423
-0.000133921
-0.000105144
-8.14092e-05
-6.24956e-05
-4.77379e-05
-3.6313e-05
-2.75048e-05
-2.07936e-05
-1.57936e-05
-1.21507e-05
-9.50574e-06
-7.52891e-06
-5.97288e-06
-4.69264e-06
-3.6249e-06
-2.74831e-06
-2.0508e-06
-1.51405e-06
-1.11229e-06
-8.17259e-07
-6.02987e-07
-4.48093e-07
-3.36101e-07
-2.54794e-07
-1.95347e-07
-1.51518e-07
-1.18953e-07
-9.46294e-08
-7.64139e-08
-6.27746e-08
-5.25596e-08
-4.4907e-08
-3.91406e-08
-3.47659e-08
-3.13942e-08
-2.8765e-08
-2.66663e-08
-2.49736e-08
-2.35679e-08
-2.2394e-08
-2.13771e-08
-2.04972e-08
-1.97014e-08
-1.89904e-08
-1.83225e-08
-1.77111e-08
-1.71197e-08
-1.65695e-08
-1.60257e-08
-1.55149e-08
-1.50019e-08
-1.45173e-08
-1.4025e-08
-1.35584e-08
-1.30803e-08
-1.26265e-08
-1.21583e-08
-1.17136e-08
-1.12523e-08
-1.08141e-08
-1.03574e-08
-9.92382e-09
-9.47009e-09
-9.03957e-09
-8.58758e-09
-8.15898e-09
-7.70779e-09
-7.28024e-09
-6.8291e-09
-6.40199e-09
-5.95033e-09
-5.52333e-09
-5.07057e-09
-4.64386e-09
-4.18898e-09
-3.76373e-09
-3.30393e-09
-2.88401e-09
-2.41145e-09
-2.00923e-09
-1.50107e-09
-1.15506e-09
-5.4519e-10
-3.15221e-10
3.44684e-10
0.0524152
0.050998
0.0462188
0.0391671
0.0291984
0.0158918
-0.000970319
-0.0215922
-0.0455691
-0.0720839
-0.0996594
-0.126215
-0.150915
-0.172836
-0.191317
-0.205967
-0.216422
-0.222392
-0.223676
-0.220225
-0.212242
-0.200239
-0.185025
-0.167627
-0.149141
-0.130581
-0.112769
-0.0962837
-0.0814678
-0.0684628
-0.0572608
-0.0477552
-0.0397829
-0.0331561
-0.0276839
-0.0231856
-0.019498
-0.0164784
-0.0140049
-0.0119752
-0.0103047
-0.00892414
-0.0077773
-0.00681884
-0.00601237
-0.0053288
-0.00474492
-0.00424226
-0.00380611
-0.00342476
-0.00308887
-0.00279099
-0.00252514
-0.00228651
-0.00207121
-0.00187609
-0.00169858
-0.00153658
-0.00138836
-0.0012525
-0.00112782
-0.00101333
-0.000908227
-0.000811811
-0.000723508
-0.000642817
-0.00056927
-0.000502377
-0.000441562
-0.00038613
-0.000335283
-0.000288232
-0.000244381
-0.000203539
-0.000166013
-0.000132485
-0.000103671
-7.99369e-05
-6.1088e-05
-4.64585e-05
-3.52043e-05
-2.65812e-05
-2.0047e-05
-1.52041e-05
-1.1695e-05
-9.16012e-06
-7.27028e-06
-5.77957e-06
-4.54626e-06
-3.51197e-06
-2.66026e-06
-1.98259e-06
-1.4623e-06
-1.07404e-06
-7.89584e-07
-5.83145e-07
-4.33786e-07
-3.25605e-07
-2.46922e-07
-1.89336e-07
-1.46896e-07
-1.15418e-07
-9.19686e-08
-7.44512e-08
-6.13545e-08
-5.15448e-08
-4.4184e-08
-3.86217e-08
-3.43889e-08
-3.11168e-08
-2.85597e-08
-2.65142e-08
-2.48616e-08
-2.34858e-08
-2.23343e-08
-2.13334e-08
-2.04654e-08
-1.96778e-08
-1.89731e-08
-1.83095e-08
-1.77016e-08
-1.71123e-08
-1.65641e-08
-1.60214e-08
-1.55117e-08
-1.49993e-08
-1.45154e-08
-1.40232e-08
-1.35572e-08
-1.30791e-08
-1.26257e-08
-1.21573e-08
-1.1713e-08
-1.12515e-08
-1.08136e-08
-1.03567e-08
-9.92342e-09
-9.46948e-09
-9.03923e-09
-8.58702e-09
-8.15869e-09
-7.70727e-09
-7.27999e-09
-6.82861e-09
-6.40177e-09
-5.94987e-09
-5.52316e-09
-5.07015e-09
-4.64375e-09
-4.18858e-09
-3.76373e-09
-3.30351e-09
-2.88436e-09
-2.41068e-09
-2.01099e-09
-1.49846e-09
-1.16356e-09
-5.32089e-10
-3.58802e-10
4.22717e-10
0.0541361
0.0527606
0.0481224
0.0412297
0.0314045
0.0181436
0.00114884
-0.0199142
-0.0446408
-0.0722219
-0.100904
-0.128198
-0.153446
-0.175729
-0.194436
-0.209251
-0.21983
-0.225877
-0.227153
-0.223562
-0.215269
-0.202784
-0.186954
-0.168876
-0.149725
-0.130585
-0.112317
-0.0955161
-0.080514
-0.0674302
-0.0562298
-0.0467802
-0.0388961
-0.0323729
-0.0270075
-0.0226116
-0.0190177
-0.0160807
-0.0136784
-0.0117088
-0.0100883
-0.00874891
-0.00763561
-0.00670429
-0.00591966
-0.0052536
-0.00468372
-0.00419222
-0.00376498
-0.00339074
-0.00306053
-0.0027672
-0.002505
-0.00226932
-0.0020564
-0.00186322
-0.00168729
-0.00152658
-0.00137942
-0.00124443
-0.00112047
-0.00100657
-0.000901953
-0.000805946
-0.000717996
-0.000637628
-0.000564405
-0.00049786
-0.000437433
-0.000382424
-0.000332008
-0.000285346
-0.000241793
-0.000201125
-0.000163652
-0.000130099
-0.000101253
-7.75477e-05
-5.88247e-05
-4.44166e-05
-3.34466e-05
-2.51286e-05
-1.8886e-05
-1.43025e-05
-1.1013e-05
-8.65593e-06
-6.90281e-06
-5.51093e-06
-4.34538e-06
-3.35699e-06
-2.53802e-06
-1.88597e-06
-1.387e-06
-1.01645e-06
-7.46158e-07
-5.5057e-07
-4.09317e-07
-3.07159e-07
-2.32995e-07
-1.78844e-07
-1.39041e-07
-1.09591e-07
-8.76902e-08
-7.13373e-08
-5.91002e-08
-4.99137e-08
-4.30002e-08
-3.77577e-08
-3.37557e-08
-3.06513e-08
-2.82179e-08
-2.62636e-08
-2.46789e-08
-2.33526e-08
-2.22377e-08
-2.12628e-08
-2.04143e-08
-1.96403e-08
-1.89461e-08
-1.82895e-08
-1.76873e-08
-1.71017e-08
-1.65568e-08
-1.60158e-08
-1.5508e-08
-1.49963e-08
-1.45136e-08
-1.40216e-08
-1.35564e-08
-1.30782e-08
-1.26255e-08
-1.21569e-08
-1.17131e-08
-1.12512e-08
-1.08139e-08
-1.03566e-08
-9.92381e-09
-9.46938e-09
-9.03967e-09
-8.58695e-09
-8.15916e-09
-7.70721e-09
-7.28048e-09
-6.82856e-09
-6.40228e-09
-5.94982e-09
-5.52369e-09
-5.07011e-09
-4.64432e-09
-4.18854e-09
-3.76445e-09
-3.30341e-09
-2.88555e-09
-2.41011e-09
-2.01409e-09
-1.49534e-09
-1.17534e-09
-5.15162e-10
-4.13831e-10
5.20067e-10
0.0564053
0.0550894
0.0506518
0.0439906
0.0343835
0.0212147
0.00407011
-0.0175798
-0.0433374
-0.0724365
-0.10268
-0.130954
-0.156921
-0.179663
-0.198648
-0.213674
-0.224424
-0.230591
-0.231881
-0.228123
-0.219422
-0.206281
-0.1896
-0.170576
-0.150504
-0.130565
-0.111678
-0.0944519
-0.0792046
-0.0660225
-0.0548322
-0.0454647
-0.0377044
-0.0313238
-0.0261041
-0.021847
-0.018379
-0.0155529
-0.0132456
-0.0113561
-0.00980214
-0.00851732
-0.00744845
-0.00655303
-0.00579727
-0.00515433
-0.00460292
-0.00412616
-0.00371066
-0.00334579
-0.00302307
-0.00273574
-0.00247837
-0.00224657
-0.00203681
-0.00184618
-0.00167234
-0.00151333
-0.00136757
-0.00123373
-0.00111071
-0.000997596
-0.000893619
-0.000798148
-0.000710657
-0.000630707
-0.000557895
-0.000491791
-0.000431854
-0.00037738
-0.00032751
-0.000281349
-0.000238189
-0.000197761
-0.000160378
-0.000126819
-9.79578e-05
-7.43116e-05
-5.57719e-05
-4.16692e-05
-3.10874e-05
-2.3188e-05
-1.73495e-05
-1.31285e-05
-1.01456e-05
-8.03289e-06
-6.46096e-06
-5.19255e-06
-4.10506e-06
-3.16533e-06
-2.37998e-06
-1.75572e-06
-1.28221e-06
-9.34742e-07
-6.84123e-07
-5.04303e-07
-3.75124e-07
-2.81958e-07
-2.144e-07
-1.65083e-07
-1.28833e-07
-1.02019e-07
-8.20897e-08
-6.72161e-08
-5.60848e-08
-4.7717e-08
-4.14033e-08
-3.65961e-08
-3.29091e-08
-3.00324e-08
-2.7765e-08
-2.59317e-08
-2.44362e-08
-2.3175e-08
-2.21082e-08
-2.11682e-08
-2.03454e-08
-1.95898e-08
-1.89094e-08
-1.82624e-08
-1.76677e-08
-1.70871e-08
-1.65463e-08
-1.60078e-08
-1.55024e-08
-1.49919e-08
-1.45105e-08
-1.40191e-08
-1.35548e-08
-1.30767e-08
-1.26246e-08
-1.21559e-08
-1.17127e-08
-1.12505e-08
-1.08137e-08
-1.0356e-08
-9.92369e-09
-9.46893e-09
-9.03963e-09
-8.58655e-09
-8.15917e-09
-7.70683e-09
-7.28052e-09
-6.82821e-09
-6.40235e-09
-5.9495e-09
-5.5238e-09
-5.0698e-09
-4.6445e-09
-4.18826e-09
-3.76481e-09
-3.30305e-09
-2.88649e-09
-2.40921e-09
-2.01726e-09
-1.49153e-09
-1.18813e-09
-4.96174e-10
-4.71031e-10
6.21047e-10
0.0591995
0.0579643
0.0537972
0.047457
0.0381666
0.025166
0.0078811
-0.0144965
-0.0415945
-0.0727641
-0.105106
-0.134587
-0.16143
-0.184712
-0.204012
-0.219287
-0.230251
-0.236582
-0.237904
-0.233944
-0.224727
-0.210742
-0.192958
-0.172708
-0.151445
-0.130479
-0.110805
-0.0930483
-0.0775038
-0.0642122
-0.0530487
-0.0437964
-0.0362011
-0.0300065
-0.0249741
-0.0208936
-0.017585
-0.0148981
-0.0127099
-0.0109202
-0.0094489
-0.00823177
-0.00721785
-0.00636677
-0.0056466
-0.00503213
-0.00450343
-0.00404478
-0.00364371
-0.00329034
-0.00297682
-0.00269685
-0.0024454
-0.00221838
-0.00201249
-0.00182501
-0.00165374
-0.00149684
-0.00135281
-0.00122039
-0.00109853
-0.000986372
-0.000883183
-0.000788363
-0.000701425
-0.000621968
-0.000549631
-0.000484024
-0.000424632
-0.000370751
-0.000321491
-0.0002759
-0.0002332
-0.00019308
-0.000155854
-0.00012236
-9.35649e-05
-7.00765e-05
-5.1835e-05
-3.81644e-05
-2.81019e-05
-2.07489e-05
-1.54339e-05
-1.16819e-05
-9.09474e-06
-7.29448e-06
-5.9492e-06
-4.82933e-06
-3.83061e-06
-2.94287e-06
-2.19277e-06
-1.59895e-06
-1.1548e-06
-8.34701e-07
-6.07673e-07
-4.46844e-07
-3.32308e-07
-2.50189e-07
-1.9088e-07
-1.4769e-07
-1.15985e-07
-9.25457e-08
-7.51254e-08
-6.21135e-08
-5.23573e-08
-4.49982e-08
-3.94209e-08
-3.51492e-08
-3.18519e-08
-2.92591e-08
-2.71995e-08
-2.55181e-08
-2.41343e-08
-2.29546e-08
-2.19478e-08
-2.10511e-08
-2.02604e-08
-1.95276e-08
-1.88643e-08
-1.82294e-08
-1.7644e-08
-1.70696e-08
-1.65339e-08
-1.59987e-08
-1.54961e-08
-1.49871e-08
-1.45075e-08
-1.40166e-08
-1.35534e-08
-1.30755e-08
-1.26242e-08
-1.21553e-08
-1.17127e-08
-1.12503e-08
-1.08139e-08
-1.03559e-08
-9.92406e-09
-9.46891e-09
-9.04006e-09
-8.58656e-09
-8.15963e-09
-7.70686e-09
-7.28099e-09
-6.82824e-09
-6.40285e-09
-5.94953e-09
-5.52431e-09
-5.06983e-09
-4.64507e-09
-4.18828e-09
-3.76557e-09
-3.30299e-09
-2.88786e-09
-2.40854e-09
-2.02094e-09
-1.48778e-09
-1.2013e-09
-4.77318e-10
-5.24361e-10
7.14079e-10
0.0624868
0.0613572
0.0575433
0.0516349
0.0427911
0.0300762
0.0127005
-0.0105327
-0.0393164
-0.0732588
-0.108354
-0.139241
-0.167091
-0.190948
-0.210563
-0.226115
-0.237356
-0.243938
-0.245369
-0.241218
-0.231388
-0.216347
-0.197156
-0.175338
-0.152561
-0.130305
-0.109657
-0.0912595
-0.0753696
-0.0619656
-0.0508547
-0.0417592
-0.0343768
-0.0284163
-0.0236163
-0.0197524
-0.0166376
-0.0141191
-0.0120738
-0.0104037
-0.00903094
-0.00789428
-0.00694554
-0.00614693
-0.00546882
-0.00488794
-0.00438602
-0.0039487
-0.00356462
-0.0032248
-0.0029221
-0.0026508
-0.00240632
-0.00218494
-0.00198362
-0.00179986
-0.00163163
-0.00147722
-0.00133523
-0.00120448
-0.001084
-0.000972964
-0.000870697
-0.000776636
-0.000690333
-0.00061143
-0.000539615
-0.000474538
-0.00041572
-0.000362461
-0.000313847
-0.000268873
-0.0002267
-0.00018697
-0.000149998
-0.000116678
-8.80699e-05
-6.48679e-05
-4.70578e-05
-3.39528e-05
-2.45391e-05
-1.7856e-05
-1.31824e-05
-1.00073e-05
-7.90696e-06
-6.48637e-06
-5.4077e-06
-4.45184e-06
-3.54137e-06
-2.69909e-06
-1.97907e-06
-1.41489e-06
-1.00303e-06
-7.14954e-07
-5.16209e-07
-3.7834e-07
-2.81552e-07
-2.12807e-07
-1.63429e-07
-1.27538e-07
-1.0117e-07
-8.16412e-08
-6.71019e-08
-5.62206e-08
-4.80402e-08
-4.18427e-08
-3.71181e-08
-3.34693e-08
-3.06263e-08
-2.8364e-08
-2.65456e-08
-2.50401e-08
-2.37853e-08
-2.26996e-08
-2.17619e-08
-2.09154e-08
-2.01616e-08
-1.94554e-08
-1.8812e-08
-1.8191e-08
-1.76163e-08
-1.70493e-08
-1.65194e-08
-1.59879e-08
-1.54886e-08
-1.49814e-08
-1.45036e-08
-1.40137e-08
-1.35516e-08
-1.30739e-08
-1.26233e-08
-1.21545e-08
-1.17124e-08
-1.12498e-08
-1.0814e-08
-1.03557e-08
-9.92423e-09
-9.46876e-09
-9.04029e-09
-8.58645e-09
-8.1599e-09
-7.70676e-09
-7.28128e-09
-6.82815e-09
-6.40315e-09
-5.94945e-09
-5.52463e-09
-5.06976e-09
-4.64546e-09
-4.18821e-09
-3.76615e-09
-3.30282e-09
-2.88906e-09
-2.40774e-09
-2.0244e-09
-1.48397e-09
-1.21347e-09
-4.59678e-10
-5.69834e-10
7.92899e-10
0.0662256
0.0652309
0.0618672
0.0565264
0.0482981
0.0360412
0.0186801
-0.00551042
-0.0363704
-0.0740129
-0.112679
-0.145102
-0.174051
-0.198493
-0.218399
-0.234236
-0.245794
-0.252697
-0.254293
-0.249954
-0.239416
-0.223104
-0.202189
-0.178436
-0.153796
-0.129971
-0.10816
-0.0890177
-0.0727467
-0.0592417
-0.0482227
-0.039337
-0.0322239
-0.0265517
-0.0220327
-0.0184276
-0.0155421
-0.0132213
-0.0113429
-0.00981142
-0.00855255
-0.00750853
-0.00663461
-0.00589609
-0.00526602
-0.00472345
-0.00425203
-0.00383897
-0.00347421
-0.00314978
-0.00285937
-0.00259794
-0.0023614
-0.00214643
-0.00195031
-0.00177081
-0.00160606
-0.0014545
-0.00131485
-0.00118602
-0.00106711
-0.000957362
-0.000856141
-0.000762933
-0.000677333
-0.000599028
-0.000527753
-0.000463206
-0.000404943
-0.000352284
-0.000304302
-0.000259955
-0.000218357
-0.000179112
-0.000142533
-0.000109561
-8.13299e-05
-5.86063e-05
-4.14068e-05
-2.90258e-05
-2.0404e-05
-1.45198e-05
-1.06101e-05
-8.12538e-06
-6.60869e-06
-5.638e-06
-4.86428e-06
-4.08217e-06
-3.2525e-06
-2.44334e-06
-1.74499e-06
-1.20854e-06
-8.31675e-07
-5.79904e-07
-4.13321e-07
-3.01329e-07
-2.24414e-07
-1.70656e-07
-1.32455e-07
-1.04812e-07
-8.4487e-08
-6.93859e-08
-5.81032e-08
-4.9623e-08
-4.3212e-08
-3.83143e-08
-3.45417e-08
-3.15882e-08
-2.92528e-08
-2.73607e-08
-2.58128e-08
-2.45048e-08
-2.33946e-08
-2.24144e-08
-2.15542e-08
-2.07639e-08
-2.00515e-08
-1.93751e-08
-1.87538e-08
-1.81486e-08
-1.75858e-08
-1.7027e-08
-1.65036e-08
-1.59764e-08
-1.54806e-08
-1.49755e-08
-1.44998e-08
-1.40108e-08
-1.35499e-08
-1.30726e-08
-1.26228e-08
-1.2154e-08
-1.17125e-08
-1.12498e-08
-1.08143e-08
-1.03558e-08
-9.92473e-09
-9.46895e-09
-9.04085e-09
-8.58667e-09
-8.16047e-09
-7.70698e-09
-7.28185e-09
-6.82836e-09
-6.40371e-09
-5.94964e-09
-5.52521e-09
-5.06994e-09
-4.64608e-09
-4.18837e-09
-3.76694e-09
-3.30288e-09
-2.89046e-09
-2.40718e-09
-2.02786e-09
-1.48058e-09
-1.22442e-09
-4.44286e-10
-6.06543e-10
8.55643e-10
0.0703626
0.0695368
0.0667352
0.0621267
0.0547303
0.0431778
0.0260171
0.00082121
-0.03256
-0.075162
-0.118445
-0.152425
-0.182486
-0.207409
-0.227506
-0.243641
-0.255631
-0.263044
-0.264992
-0.260543
-0.249196
-0.231327
-0.208261
-0.182096
-0.155157
-0.12943
-0.106241
-0.0862479
-0.0695707
-0.0559914
-0.0451192
-0.0365089
-0.0297315
-0.0244085
-0.0202237
-0.0169222
-0.0143027
-0.0122091
-0.0105213
-0.00914739
-0.00801725
-0.00707755
-0.00628758
-0.00561629
-0.00503987
-0.00454002
-0.00410256
-0.00371649
-0.00337319
-0.00306587
-0.00278914
-0.00253866
-0.00231095
-0.00210312
-0.00191282
-0.00173807
-0.00157721
-0.00142884
-0.00129181
-0.00116513
-0.00104798
-0.00093966
-0.000839597
-0.000747324
-0.000662481
-0.000584799
-0.000514062
-0.000450015
-0.000392257
-0.000340137
-0.000292741
-0.000249011
-0.000208037
-0.000169397
-0.000133396
-0.000100999
-7.33907e-05
-5.13748e-05
-3.49805e-05
-2.34796e-05
-1.57764e-05
-1.08069e-05
-7.77631e-06
-6.09611e-06
-5.26328e-06
-4.81252e-06
-4.37449e-06
-3.76186e-06
-2.98958e-06
-2.18804e-06
-1.49495e-06
-9.81025e-07
-6.41319e-07
-4.30451e-07
-3.00171e-07
-2.17016e-07
-1.62043e-07
-1.24786e-07
-9.8886e-08
-8.02838e-08
-6.65358e-08
-5.62184e-08
-4.84371e-08
-4.25333e-08
-3.80203e-08
-3.45179e-08
-3.17688e-08
-2.95639e-08
-2.77754e-08
-2.62821e-08
-2.50255e-08
-2.39298e-08
-2.2975e-08
-2.21082e-08
-2.1331e-08
-2.06011e-08
-1.99331e-08
-1.92888e-08
-1.86912e-08
-1.8103e-08
-1.75529e-08
-1.70031e-08
-1.64866e-08
-1.5964e-08
-1.54719e-08
-1.49692e-08
-1.44956e-08
-1.40077e-08
-1.3548e-08
-1.30712e-08
-1.26222e-08
-1.21535e-08
-1.17125e-08
-1.12497e-08
-1.08146e-08
-1.03559e-08
-9.92516e-09
-9.46914e-09
-9.04133e-09
-8.58688e-09
-8.16096e-09
-7.70718e-09
-7.28234e-09
-6.82855e-09
-6.40419e-09
-5.94981e-09
-5.52569e-09
-5.0701e-09
-4.6466e-09
-4.18851e-09
-3.76764e-09
-3.30291e-09
-2.8917e-09
-2.40663e-09
-2.03091e-09
-1.4775e-09
-1.23364e-09
-4.31253e-10
-6.34822e-10
9.03577e-10
0.0748311
0.0742125
0.072099
0.0684177
0.0621242
0.0516145
0.0349497
0.00879497
-0.0276204
-0.0769496
-0.126174
-0.161493
-0.192636
-0.217923
-0.238065
-0.254421
-0.266855
-0.27489
-0.277338
-0.272888
-0.260694
-0.241023
-0.215376
-0.186283
-0.156566
-0.128574
-0.103791
-0.0828529
-0.0657658
-0.0521621
-0.0415118
-0.0332588
-0.0268945
-0.021989
-0.0181957
-0.0152444
-0.0129283
-0.0110915
-0.00961723
-0.00841869
-0.00743114
-0.00660646
-0.00590872
-0.00531105
-0.00479322
-0.00433989
-0.00393937
-0.00358262
-0.00326263
-0.00297387
-0.00271197
-0.00247339
-0.00225527
-0.00205524
-0.00187129
-0.00170173
-0.00154515
-0.0014003
-0.00126616
-0.00114185
-0.00102663
-0.000919872
-0.00082107
-0.000729803
-0.000645758
-0.00056871
-0.000498486
-0.000434879
-0.000377536
-0.000325856
-0.00027896
-0.000235812
-0.000195511
-0.000157627
-0.000122453
-9.09411e-05
-6.42709e-05
-4.32433e-05
-2.78671e-05
-1.73985e-05
-1.07162e-05
-6.75958e-06
-4.71858e-06
-3.96345e-06
-3.92465e-06
-4.06871e-06
-3.99216e-06
-3.53151e-06
-2.77745e-06
-1.94554e-06
-1.23481e-06
-7.36557e-07
-4.36488e-07
-2.71298e-07
-1.80838e-07
-1.28413e-07
-9.64291e-08
-7.64562e-08
-6.35138e-08
-5.44615e-08
-4.76518e-08
-4.2373e-08
-3.8279e-08
-3.50885e-08
-3.25726e-08
-3.05362e-08
-2.88606e-08
-2.74406e-08
-2.62254e-08
-2.51505e-08
-2.41995e-08
-2.33269e-08
-2.25352e-08
-2.17873e-08
-2.10972e-08
-2.04307e-08
-1.98093e-08
-1.91987e-08
-1.8626e-08
-1.80557e-08
-1.75189e-08
-1.69785e-08
-1.6469e-08
-1.59514e-08
-1.54632e-08
-1.4963e-08
-1.44915e-08
-1.40048e-08
-1.35464e-08
-1.30701e-08
-1.26218e-08
-1.21532e-08
-1.17127e-08
-1.12498e-08
-1.08151e-08
-1.03563e-08
-9.92583e-09
-9.4696e-09
-9.04204e-09
-8.58734e-09
-8.16166e-09
-7.70762e-09
-7.28302e-09
-6.82896e-09
-6.40485e-09
-5.95019e-09
-5.52633e-09
-5.07044e-09
-4.64727e-09
-4.18882e-09
-3.76845e-09
-3.30311e-09
-2.89299e-09
-2.40629e-09
-2.03373e-09
-1.47495e-09
-1.24133e-09
-4.20699e-10
-6.56084e-10
9.39099e-10
0.0795492
0.0791798
0.0778924
0.0753645
0.0705067
0.0615016
0.0457854
0.0188977
-0.0211423
-0.0797062
-0.136682
-0.172773
-0.204649
-0.229892
-0.249865
-0.266505
-0.27964
-0.28869
-0.292018
-0.287744
-0.274584
-0.252698
-0.223833
-0.19111
-0.157999
-0.127307
-0.100685
-0.0787183
-0.0612408
-0.0476892
-0.0373597
-0.0295641
-0.0237034
-0.0192919
-0.0159523
-0.0134004
-0.0114259
-0.00987522
-0.00863708
-0.00763106
-0.00679912
-0.00609934
-0.00550136
-0.00498305
-0.00452821
-0.00412482
-0.00376386
-0.0034385
-0.00314343
-0.00287453
-0.00262849
-0.00240266
-0.00219484
-0.00200316
-0.00182604
-0.0016621
-0.00151014
-0.00136911
-0.0012381
-0.00111636
-0.00100322
-0.000898154
-0.000800698
-0.000710494
-0.000627273
-0.000550853
-0.000481098
-0.000417849
-0.000360807
-0.000309438
-0.000262938
-0.00022034
-0.000180784
-0.000143861
-0.000109828
-7.95791e-05
-5.42198e-05
-3.44733e-05
-2.03091e-05
-1.09705e-05
-5.36322e-06
-2.48031e-06
-1.52084e-06
-1.81096e-06
-2.68272e-06
-3.49676e-06
-3.79524e-06
-3.44672e-06
-2.64721e-06
-1.72854e-06
-9.68056e-07
-4.76555e-07
-2.19507e-07
-1.05581e-07
-5.83061e-08
-3.78285e-08
-2.92451e-08
-2.69149e-08
-2.73164e-08
-2.81126e-08
-2.84156e-08
-2.82748e-08
-2.79345e-08
-2.75078e-08
-2.70264e-08
-2.64827e-08
-2.59001e-08
-2.52793e-08
-2.46481e-08
-2.39994e-08
-2.33596e-08
-2.27139e-08
-2.20881e-08
-2.14612e-08
-2.08597e-08
-2.02577e-08
-1.96835e-08
-1.91072e-08
-1.85597e-08
-1.80076e-08
-1.74843e-08
-1.69535e-08
-1.64513e-08
-1.59386e-08
-1.54544e-08
-1.49568e-08
-1.44874e-08
-1.4002e-08
-1.35447e-08
-1.3069e-08
-1.26214e-08
-1.2153e-08
-1.17129e-08
-1.12501e-08
-1.08157e-08
-1.03567e-08
-9.9265e-09
-9.4701e-09
-9.04274e-09
-8.58784e-09
-8.16235e-09
-7.7081e-09
-7.28367e-09
-6.82939e-09
-6.40547e-09
-5.95059e-09
-5.52693e-09
-5.0708e-09
-4.64789e-09
-4.18915e-09
-3.76919e-09
-3.30333e-09
-2.89415e-09
-2.40602e-09
-2.03612e-09
-1.4728e-09
-1.24747e-09
-4.12279e-10
-6.71709e-10
9.65004e-10
0.0844184
0.0843412
0.0840245
0.0828987
0.0798738
0.0729691
0.0588625
0.0317508
-0.012629
-0.0841044
-0.150885
-0.186617
-0.219123
-0.243942
-0.263242
-0.279842
-0.293622
-0.303928
-0.308542
-0.304843
-0.290833
-0.266444
-0.233716
-0.196567
-0.159352
-0.125473
-0.0967644
-0.0737079
-0.0558969
-0.0425103
-0.0326301
-0.0254131
-0.0201601
-0.0163269
-0.0135068
-0.0114045
-0.0098093
-0.00857297
-0.00759184
-0.00679386
-0.00612904
-0.00556272
-0.00507084
-0.00463663
-0.00424832
-0.00389752
-0.00357817
-0.00328576
-0.00301684
-0.00276877
-0.00253938
-0.00232694
-0.00212994
-0.0019471
-0.00177722
-0.00161927
-0.00147225
-0.00133531
-0.00120769
-0.00108871
-0.000977817
-0.000874551
-0.000778524
-0.000689435
-0.00060706
-0.000531253
-0.000461912
-0.000398921
-0.000342045
-0.000290844
-0.000244632
-0.000202567
-0.000163871
-0.000128168
-9.56903e-05
-6.71735e-05
-4.35392e-05
-2.53829e-05
-1.25762e-05
-4.38293e-06
1.62709e-07
1.96045e-06
1.76227e-06
2.98828e-07
-1.6148e-06
-3.18005e-06
-3.85728e-06
-3.55892e-06
-2.62589e-06
-1.54699e-06
-6.97943e-07
-2.04591e-07
3.93393e-09
6.02932e-08
6.20302e-08
5.09963e-08
3.71376e-08
2.23446e-08
8.70508e-09
-1.9189e-09
-9.29074e-09
-1.42412e-08
-1.76301e-08
-1.99587e-08
-2.15075e-08
-2.24514e-08
-2.29565e-08
-2.31304e-08
-2.308e-08
-2.28551e-08
-2.25246e-08
-2.21047e-08
-2.16439e-08
-2.11374e-08
-2.06239e-08
-2.0086e-08
-1.95588e-08
-1.90167e-08
-1.84942e-08
-1.79602e-08
-1.74503e-08
-1.6929e-08
-1.6434e-08
-1.59264e-08
-1.5446e-08
-1.49509e-08
-1.44836e-08
-1.39994e-08
-1.35433e-08
-1.30682e-08
-1.26213e-08
-1.21531e-08
-1.17134e-08
-1.12506e-08
-1.08165e-08
-1.03574e-08
-9.92737e-09
-9.47083e-09
-9.04362e-09
-8.58855e-09
-8.16319e-09
-7.70876e-09
-7.28447e-09
-6.83e-09
-6.40622e-09
-5.95114e-09
-5.52764e-09
-5.0713e-09
-4.64859e-09
-4.18959e-09
-3.76999e-09
-3.30366e-09
-2.89528e-09
-2.40593e-09
-2.03824e-09
-1.47113e-09
-1.25237e-09
-4.05771e-10
-6.83112e-10
9.8366e-10
0.0893228
0.0895809
0.0903761
0.0909224
0.0901865
0.0861724
0.0746313
0.0483755
-0.00117367
-0.0910946
-0.171168
-0.203613
-0.235285
-0.259078
-0.277801
-0.29479
-0.309819
-0.322107
-0.328596
-0.325712
-0.31067
-0.28312
-0.245501
-0.202805
-0.160553
-0.122887
-0.0918207
-0.0676418
-0.0495997
-0.0365363
-0.0272705
-0.0207796
-0.0162552
-0.0130946
-0.0108653
-0.00926528
-0.00808791
-0.00719375
-0.00648969
-0.0059142
-0.00542688
-0.00500149
-0.00462111
-0.00427493
-0.00395604
-0.00366001
-0.0033839
-0.00312571
-0.00288396
-0.0026575
-0.00244543
-0.00224691
-0.00206121
-0.00188759
-0.00172532
-0.00157366
-0.00143189
-0.0012993
-0.00117526
-0.00105921
-0.000950699
-0.000849331
-0.000754799
-0.000666863
-0.000585345
-0.000510129
-0.000441142
-0.000378306
-0.000321467
-0.000270306
-0.00022431
-0.000182814
-0.000145192
-0.000111085
-8.06057e-05
-5.43092e-05
-3.28315e-05
-1.64753e-05
-5.04598e-06
2.07667e-06
5.67394e-06
6.44123e-06
5.03804e-06
2.27633e-06
-8.14625e-07
-3.20756e-06
-4.24825e-06
-3.91023e-06
-2.72831e-06
-1.39974e-06
-4.19791e-07
8.04877e-08
2.30754e-07
2.21526e-07
1.75946e-07
1.35144e-07
1.00878e-07
7.00057e-08
4.3546e-08
2.33575e-08
9.16519e-09
-6.72753e-10
-7.65493e-09
-1.26526e-08
-1.61703e-08
-1.85545e-08
-2.01113e-08
-2.10537e-08
-2.15648e-08
-2.17497e-08
-2.17183e-08
-2.15166e-08
-2.12152e-08
-2.08249e-08
-2.03964e-08
-1.99205e-08
-1.94386e-08
-1.89295e-08
-1.84311e-08
-1.79146e-08
-1.74176e-08
-1.69056e-08
-1.64175e-08
-1.59147e-08
-1.5438e-08
-1.49454e-08
-1.44801e-08
-1.39972e-08
-1.35422e-08
-1.30676e-08
-1.26212e-08
-1.21533e-08
-1.1714e-08
-1.12512e-08
-1.08173e-08
-1.03582e-08
-9.92828e-09
-9.47162e-09
-9.04452e-09
-8.58931e-09
-8.16405e-09
-7.70947e-09
-7.28527e-09
-6.83065e-09
-6.40696e-09
-5.95173e-09
-5.52834e-09
-5.07184e-09
-4.64928e-09
-4.19007e-09
-3.77074e-09
-3.30403e-09
-2.8963e-09
-2.40592e-09
-2.04001e-09
-1.46983e-09
-1.25617e-09
-4.0078e-10
-6.91338e-10
9.9704e-10
0.0941292
0.0947577
0.0967928
0.0992619
0.101324
0.101102
0.0934709
0.069796
0.0138718
-0.101341
-0.197845
-0.225632
-0.256596
-0.277646
-0.294207
-0.310761
-0.326978
-0.341868
-0.351081
-0.349865
-0.334182
-0.303072
-0.259477
-0.209895
-0.161467
-0.11931
-0.0856058
-0.0603181
-0.0422107
-0.0296863
-0.0212432
-0.0156544
-0.0119965
-0.00961129
-0.00804701
-0.00700196
-0.00627927
-0.00575292
-0.00534374
-0.00500307
-0.0047018
-0.00442323
-0.00415841
-0.00390304
-0.00365548
-0.00341554
-0.00318363
-0.00296034
-0.00274627
-0.00254187
-0.00234744
-0.00216315
-0.00198902
-0.00182491
-0.00167051
-0.00152543
-0.00138916
-0.00126116
-0.00114093
-0.001028
-0.000921995
-0.000822627
-0.000729664
-0.000642927
-0.000562285
-0.00048765
-0.000418971
-0.000356217
-0.000299327
-0.000248147
-0.00020238
-0.000161596
-0.000125328
-9.32502e-05
-6.53044e-05
-4.16768e-05
-2.26108e-05
-8.1477e-06
1.9858e-06
8.25507e-06
1.11114e-05
1.0948e-05
8.3043e-06
4.11382e-06
-2.96885e-07
-3.59192e-06
-4.97031e-06
-4.49054e-06
-2.93435e-06
-1.26718e-06
-1.22226e-07
3.80477e-07
4.56693e-07
3.72284e-07
2.78694e-07
2.11509e-07
1.60042e-07
1.14719e-07
7.62338e-08
4.70288e-08
2.64815e-08
1.21064e-08
1.75864e-09
-5.76126e-09
-1.11424e-08
-1.48863e-08
-1.74335e-08
-1.90993e-08
-2.0139e-08
-2.07097e-08
-2.09598e-08
-2.09635e-08
-2.08121e-08
-2.05314e-08
-2.01829e-08
-1.97653e-08
-1.9326e-08
-1.88479e-08
-1.83723e-08
-1.78722e-08
-1.73873e-08
-1.6884e-08
-1.64024e-08
-1.59042e-08
-1.54308e-08
-1.49406e-08
-1.44771e-08
-1.39954e-08
-1.35413e-08
-1.30673e-08
-1.26215e-08
-1.21539e-08
-1.17148e-08
-1.12521e-08
-1.08183e-08
-1.03592e-08
-9.92936e-09
-9.47261e-09
-9.04558e-09
-8.59024e-09
-8.16504e-09
-7.71032e-09
-7.28618e-09
-6.83142e-09
-6.40781e-09
-5.95243e-09
-5.52912e-09
-5.07247e-09
-4.65003e-09
-4.19063e-09
-3.77153e-09
-3.30448e-09
-2.89728e-09
-2.40603e-09
-2.04153e-09
-1.4689e-09
-1.25913e-09
-3.9706e-10
-6.97277e-10
1.00657e-09
0.0986892
0.0997159
0.10308
0.107713
0.113074
0.117856
0.115975
0.0988592
0.0346053
-0.124079
-0.238414
-0.24816
-0.277312
-0.297145
-0.312464
-0.328772
-0.346223
-0.363866
-0.375958
-0.376587
-0.360436
-0.325534
-0.275137
-0.2175
-0.161813
-0.114478
-0.0778823
-0.0515503
-0.0336027
-0.0218856
-0.014513
-0.0100285
-0.00739024
-0.00589151
-0.0050701
-0.00463337
-0.00440134
-0.00426678
-0.00416821
-0.00407255
-0.00396378
-0.00383607
-0.00368925
-0.00352615
-0.0033508
-0.00316748
-0.00298011
-0.00279199
-0.0026058
-0.00242361
-0.00224698
-0.00207707
-0.00191466
-0.0017602
-0.00161385
-0.00147551
-0.00134491
-0.00122167
-0.00110536
-0.000995648
-0.00089224
-0.000794934
-0.000703586
-0.000618086
-0.000538346
-0.000464301
-0.00039593
-0.000333258
-0.000276342
-0.000225222
-0.000179852
-0.00014005
-0.000105506
-7.58571e-05
-5.07908e-05
-3.00766e-05
-1.34964e-05
-7.77548e-07
8.36508e-06
1.4112e-05
1.64844e-05
1.55094e-05
1.1601e-05
5.86866e-06
2.01212e-08
-4.2286e-06
-5.90688e-06
-5.18742e-06
-3.15231e-06
-1.08695e-06
2.29596e-07
7.10933e-07
6.8712e-07
5.13965e-07
3.70514e-07
2.79955e-07
2.13998e-07
1.55731e-07
1.06064e-07
6.85289e-08
4.2232e-08
2.37773e-08
1.03688e-08
5.32942e-10
-6.5591e-09
-1.15455e-08
-1.49955e-08
-1.73202e-08
-1.88415e-08
-1.97636e-08
-2.027e-08
-2.04606e-08
-2.04458e-08
-2.02647e-08
-1.9989e-08
-1.96244e-08
-1.92239e-08
-1.87741e-08
-1.83191e-08
-1.7834e-08
-1.73601e-08
-1.68648e-08
-1.6389e-08
-1.58949e-08
-1.54247e-08
-1.49366e-08
-1.44747e-08
-1.3994e-08
-1.35409e-08
-1.30674e-08
-1.2622e-08
-1.21546e-08
-1.17158e-08
-1.12531e-08
-1.08195e-08
-1.03603e-08
-9.93052e-09
-9.47368e-09
-9.04668e-09
-8.59124e-09
-8.16606e-09
-7.71124e-09
-7.28713e-09
-6.83226e-09
-6.40867e-09
-5.95318e-09
-5.52991e-09
-5.07314e-09
-4.65077e-09
-4.19122e-09
-3.77228e-09
-3.30497e-09
-2.89816e-09
-2.40622e-09
-2.04281e-09
-1.46824e-09
-1.2614e-09
-3.94311e-10
-7.01522e-10
1.01335e-09
0.102844
0.104271
0.109006
0.115908
0.125072
0.135719
0.142329
0.134813
0.0629688
-0.133586
-0.304818
-0.292815
-0.307511
-0.315518
-0.324431
-0.337777
-0.355348
-0.376093
-0.392645
-0.397028
-0.382106
-0.345088
-0.289058
-0.223841
-0.160907
-0.1083
-0.068822
-0.0415936
-0.0240368
-0.0133729