/*--------------------------------*- C++ -*----------------------------------*\
  =========                 |
  \\      /  F ield         | OpenFOAM: The Open Source CFD Toolbox
   \\    /   O peration     | Website:  https://openfoam.org
    \\  /    A nd           | Version:  11
     \\/     M anipulation  |
\*---------------------------------------------------------------------------*/
FoamFile
{
    format      ascii;
    class       surfaceScalarField;
    location    "12.876844";
    object      phi;
}
// * * * * * * * * * * * * * * * * * * * * * * * * * * * * * * * * * * * * * //

dimensions      [0 3 -1 0 0 0 0];

internalField   nonuniform List<scalar> 
14638
(
0.0025022
-2.20066e-06
0.00250871
-6.50705e-06
0.00251971
-1.10047e-05
0.00253558
-1.58693e-05
0.00255678
-2.11954e-05
0.0025836
-2.68213e-05
0.00261595
-3.23565e-05
0.00265294
-3.69835e-05
0.00269273
-3.97916e-05
0.00273256
-3.98309e-05
0.00276909
-3.65244e-05
0.00279967
-3.05859e-05
0.00282222
-2.25462e-05
0.002835
-1.27837e-05
0.00283645
-1.45352e-06
0.0028251
1.13568e-05
0.00280047
2.46262e-05
0.00276421
3.62568e-05
0.00272023
4.39823e-05
0.00267406
4.61729e-05
0.00263194
4.21168e-05
0.00259994
3.19981e-05
0.00258308
1.68664e-05
0.00258439
-1.30674e-06
0.00260381
-1.94236e-05
0.00263704
-3.32302e-05
0.00267535
-3.83111e-05
0.00270757
-3.22228e-05
0.00272393
-1.63545e-05
0.00271946
4.47006e-06
0.002695
2.44586e-05
0.00265571
3.92877e-05
0.00260883
4.68768e-05
0.00256205
4.67819e-05
0.00252276
3.92938e-05
0.00249782
2.49434e-05
0.00249315
4.66819e-06
0.00251258
-1.94328e-05
0.00255568
-4.30998e-05
0.00261564
-5.99562e-05
0.00267933
-6.36975e-05
0.00273094
-5.16086e-05
0.00275767
-2.67303e-05
0.00275424
3.42736e-06
0.00272359
3.06539e-05
0.00267414
4.94474e-05
0.00261618
5.79639e-05
0.00255939
5.67891e-05
0.0025122
4.71934e-05
0.00248208
3.01168e-05
0.00247571
6.37316e-06
0.00249779
-2.20813e-05
0.00254844
-5.06493e-05
0.00262048
-7.20419e-05
0.00269917
-7.86935e-05
0.00276584
-6.6669e-05
0.00280423
-3.83922e-05
0.00280623
-1.99469e-06
0.00277383
3.23987e-05
0.00271684
5.69881e-05
0.00264824
6.86058e-05
0.00258019
6.80509e-05
0.0025224
5.77815e-05
0.00248255
3.98578e-05
0.00246715
1.53937e-05
0.00248143
-1.42795e-05
0.00252716
-4.57297e-05
0.00259986
-7.26946e-05
0.00268747
-8.76128e-05
0.00277226
-8.47931e-05
0.00283555
-6.32874e-05
0.00286333
-2.77766e-05
0.00285038
1.29452e-05
0.00280133
4.90505e-05
0.00272824
7.30871e-05
0.00264613
8.2112e-05
0.00256862
7.75149e-05
0.00250586
6.27601e-05
0.00246511
4.07424e-05
0.0024522
1.29123e-05
0.00247138
-1.91797e-05
0.00252307
-5.16895e-05
0.00260124
-7.81644e-05
0.00269296
-9.17212e-05
0.00278111
-8.81515e-05
0.00284891
-6.78013e-05
0.0028842
-3.52907e-05
0.0028819
2.3035e-06
0.00284439
3.75095e-05
0.0027803
6.40838e-05
0.00270223
7.80696e-05
0.0026239
7.83354e-05
0.00255771
6.6193e-05
0.00251368
4.40275e-05
0.00249941
1.42661e-05
0.00251941
-1.99968e-05
0.00257309
-5.36852e-05
0.00265308
-7.99868e-05
0.00274576
-9.268e-05
0.00283464
-8.88759e-05
0.0029049
-7.02615e-05
0.00294722
-4.23182e-05
0.00295944
-1.22206e-05
0.00294595
1.34881e-05
0.00291539
3.05597e-05
0.0028779
3.74861e-05
0.00284314
3.47661e-05
0.00281938
2.37526e-05
0.0028134
5.98152e-06
0.00283003
-1.66228e-05
0.00287115
-4.11273e-05
0.00293453
-6.3378e-05
0.00301316
-7.86289e-05
0.003096
-8.28413e-05
0.00317001
-7.40103e-05
0.0032229
-5.28913e-05
0.00324578
-2.28815e-05
0.00323495
1.0833e-05
0.00319246
4.24917e-05
0.00312538
6.70772e-05
0.00304403
8.13472e-05
0.00295973
8.43074e-05
0.00288262
7.71105e-05
0.00282012
6.25018e-05
0.00277619
4.39275e-05
0.00275167
2.45225e-05
0.00274526
6.40689e-06
0.00275461
-9.35302e-06
0.00277684
-2.22326e-05
0.00280853
-3.16843e-05
0.00284544
-3.69156e-05
0.00288252
-3.70713e-05
0.00291412
-3.16055e-05
0.00293473
-2.06087e-05
0.00293972
-4.99272e-06
0.00292627
1.34498e-05
0.00289415
3.2123e-05
0.00284617
4.79792e-05
0.00278796
5.82089e-05
0.00272685
6.11082e-05
0.00267016
5.66925e-05
0.0026235
4.66588e-05
0.00258982
3.36828e-05
0.00256936
2.04627e-05
0.00256036
9.00047e-06
0.00256
3.51944e-07
0.00256524
-5.2382e-06
0.00257328
-8.03964e-06
0.00258184
-8.55746e-06
0.00258919
-7.35308e-06
0.00259416
-4.96985e-06
0.00259608
-1.91572e-06
0.00259474
1.33623e-06
0.00259038
4.36645e-06
0.00258353
6.84258e-06
0.002575
8.5363e-06
0.00256561
9.38972e-06
0.00255627
9.3324e-06
0.00254743
8.8453e-06
6.69406e-06
0.00250218
-4.38335e-06
0.00250864
-1.29622e-05
0.00251957
-2.19376e-05
0.00253538
-3.16802e-05
0.00255658
-4.23931e-05
0.00258352
-5.37655e-05
0.00261619
-6.50201e-05
0.00265369
-7.44832e-05
0.00269418
-8.02894e-05
0.00273478
-8.04293e-05
0.00277196
-7.36999e-05
0.00280306
-6.16846e-05
0.00282602
-4.55058e-05
0.00283917
-2.59342e-05
0.00284091
-3.19966e-06
0.0028296
2.26734e-05
0.00280456
4.96627e-05
0.00276739
7.34224e-05
0.00272212
8.92566e-05
0.00267447
9.38253e-05
0.00263089
8.56917e-05
0.00259767
6.52203e-05
0.00258005
3.44832e-05
0.00258137
-2.6193e-06
0.00260179
-3.98507e-05
0.00263701
-6.84438e-05
0.00267782
-7.9127e-05
0.00271228
-6.66826e-05
0.0027299
-3.39702e-05
0.00272546
8.90936e-06
0.00270002
4.98977e-05
0.00265916
8.01436e-05
0.00261049
9.55542e-05
0.00256187
9.54005e-05
0.00252081
8.03532e-05
0.00249433
5.14191e-05
0.00248871
1.02905e-05
0.00250828
-3.90045e-05
0.00255302
-8.78378e-05
0.00261599
-0.000122927
0.00268325
-0.000130959
0.00273779
-0.000106142
0.00276589
-5.48384e-05
0.0027621
7.21711e-06
0.00272981
6.2951e-05
0.00267813
0.000101124
0.00261787
0.000118224
0.00255892
0.000115736
0.00250973
9.63831e-05
0.00247786
6.19871e-05
0.00247031
1.39248e-05
0.00249235
-4.41218e-05
0.00254459
-0.00010289
0.00261987
-0.000147323
0.00270273
-0.000161547
0.00277318
-0.000137121
0.00281374
-7.89525e-05
0.00281576
-4.01217e-06
0.00278157
6.65857e-05
0.00272185
0.00011671
0.00265041
0.000140044
0.00257986
0.000138601
0.00251989
0.000117749
0.00247796
8.1796e-05
0.00246056
3.27894e-05
0.00247328
-2.70041e-05
0.00251853
-9.09757e-05
0.00259226
-0.000146426
0.00268234
-0.000177693
0.00277041
-0.000172863
0.00283694
-0.000129814
0.00286714
-5.79817e-05
0.00285531
2.47813e-05
0.00280594
9.84189e-05
0.00273141
0.000147621
0.00264723
0.000166292
0.00256744
0.000157298
0.00250241
0.000127793
0.00245955
8.36046e-05
0.0024451
2.7359e-05
0.00246403
-3.81069e-05
0.00251721
-0.000104874
0.00259833
-0.000159284
0.00269344
-0.000186825
0.00278419
-0.000178909
0.00285311
-0.000136722
0.0028881
-7.02781e-05
0.00288465
5.75114e-06
0.00284578
7.63823e-05
0.00278046
0.000129406
0.00270129
0.000157239
0.00262185
0.000157778
0.00255453
0.000133512
0.00250973
8.88243e-05
0.00249581
2.81897e-05
0.00251798
-4.21683e-05
0.00257573
-0.000111439
0.00266082
-0.000165077
0.00275823
-0.000190086
0.00285015
-0.000180794
0.00292105
-0.000141161
0.00296159
-8.28641e-05
0.0029702
-2.0828e-05
0.00295212
3.15674e-05
0.00291688
6.58017e-05
0.00287534
7.90298e-05
0.00283758
7.25259e-05
0.00281211
4.92236e-05
0.00280582
1.22619e-05
0.00282375
-3.45523e-05
0.00286792
-8.52945e-05
0.00293589
-0.00013135
0.00302003
-0.000162769
0.00310832
-0.00017113
0.00318671
-0.000152401
0.00324221
-0.00010839
0.00326568
-4.63549e-05
0.0032536
2.29181e-05
0.00320844
8.76465e-05
0.00313787
0.000137655
0.00305277
0.000166445
0.00296493
0.00017215
0.00288476
0.000157274
0.00281977
0.000127494
0.00277389
8.98065e-05
0.00274793
5.04871e-05
0.00274061
1.37289e-05
0.00274961
-1.83584e-05
0.00277205
-4.46681e-05
0.00280435
-6.39881e-05
0.00284206
-7.46297e-05
0.00287985
-7.48614e-05
0.00291192
-6.3673e-05
0.0029327
-4.13895e-05
0.00293767
-9.96153e-06
0.00292414
2.69769e-05
0.002892
6.42647e-05
0.0028441
9.58767e-05
0.00278605
0.00011626
0.00272512
0.000122037
0.00266859
0.000113226
0.00262207
9.31775e-05
0.00258855
6.72032e-05
0.00256833
4.06841e-05
0.00255969
1.7644e-05
0.0025598
2.35649e-07
0.00256558
-1.10126e-05
0.00257416
-1.66194e-05
0.0025832
-1.75966e-05
0.00259093
-1.50833e-05
0.00259614
-1.01873e-05
0.00259817
-3.9437e-06
0.00259682
2.68427e-06
0.00259234
8.8463e-06
0.00258532
1.38669e-05
0.00257656
1.72919e-05
0.00256696
1.89989e-05
0.00255742
1.88666e-05
0.00254841
1.78544e-05
1.3475e-05
0.00250215
-6.529e-06
0.00250849
-1.93064e-05
0.00251927
-3.27189e-05
0.00253495
-4.73631e-05
0.00255615
-6.3585e-05
0.00258333
-8.09506e-05
0.00261662
-9.83058e-05
0.00265517
-0.000113041
0.00269713
-0.000122247
0.00273931
-0.000122609
0.00277781
-0.000112196
0.00280992
-9.37936e-05
0.00283366
-6.92469e-05
0.00284748
-3.97555e-05
0.00284975
-5.46749e-06
0.00283844
3.39792e-05
0.0028125
7.56022e-05
0.00277343
0.000112492
0.00272551
0.000137179
0.00267488
0.000144452
0.00262845
0.000132126
0.00259292
0.000100751
0.00257402
5.33825e-05
0.00257562
-4.21601e-06
0.00259834
-6.25788e-05
0.00263779
-0.000107892
0.00268378
-0.00012511
0.00272265
-0.000105558
0.00274246
-5.37817e-05
0.00273756
1.38097e-05
0.00270961
7.78544e-05
0.00266518
0.00012457
0.00261268
0.000148056
0.00256039
0.000147686
0.00251602
0.00012473
0.00248685
8.05799e-05
0.00247983
1.73146e-05
0.0025003
-5.94711e-05
0.00254901
-0.000136548
0.00261863
-0.000192548
0.0026933
-0.000205633
0.00275345
-0.000166288
0.00278359
-8.49838e-05
0.00277811
1.27012e-05
0.00274159
9.94666e-05
0.00268479
0.000157928
0.00261963
0.000183384
0.00255642
0.000178943
0.00250358
0.000149223
0.00246865
9.69149e-05
0.00245895
2.36251e-05
0.00248048
-6.56483e-05
0.00253478
-0.000157194
0.00261529
-0.000227828
0.0027059
-0.000252152
0.00278438
-0.00021561
0.00283033
-0.000124897
0.00283322
-6.90597e-06
0.00279569
0.000104118
0.00273029
0.000182105
0.00265293
0.000217413
0.00257733
0.000214199
0.00251321
0.000181866
0.00246753
0.000127472
0.00244676
5.35666e-05
0.00245734
-3.75912e-05
0.00250302
-0.000136648
0.00258026
-0.000223667
0.00267597
-0.000273403
0.00276998
-0.000266873
0.00284125
-0.000201083
0.00287426
-9.09931e-05
0.00286307
3.59688e-05
0.00281229
0.0001492
0.00273475
0.00022516
0.00264671
0.000254332
0.00256287
0.000241136
0.00249402
0.000196649
0.00244812
0.000129498
0.00243253
4.29522e-05
0.00245345
-5.90215e-05
0.00251204
-0.000163471
0.00260066
-0.000247905
0.00270295
-0.000289114
0.00279831
-0.000274264
0.00286808
-0.000206499
0.0029005
-0.000102694
0.00289247
1.37782e-05
0.00284868
0.000120173
0.00277922
0.000198865
0.00269696
0.000239499
0.00261521
0.000239529
0.00254628
0.000202442
0.00250124
0.000133871
0.00248968
3.97442e-05
0.00251768
-7.01704e-05
0.00258411
-0.000177864
0.00267863
-0.000259603
0.00278376
-0.00029521
0.00287988
-0.000276912
0.00295075
-0.000212032
0.00298727
-0.000119392
0.00298879
-2.23444e-05
0.00296191
5.84491e-05
0.00291768
0.000110028
0.00286832
0.000128396
0.00282482
0.000116025
0.00279625
7.77885e-05
0.00278997
1.85485e-05
0.00281136
-5.59432e-05
0.00286243
-0.000136364
0.00293987
-0.000208795
0.00303435
-0.000257247
0.00313189
-0.000268667
0.00321693
-0.000237446
0.00327576
-0.000167219
0.0032992
-6.97924e-05
0.00328413
3.79915e-05
0.00323375
0.000138017
0.00315667
0.000214735
0.00306477
0.000258346
0.00297064
0.000266281
0.00288519
0.000242731
0.00281603
0.00019665
0.00276705
0.000138786
0.00273897
7.8568e-05
0.00273052
2.21757e-05
0.00273943
-2.72674e-05
0.00276272
-6.79514e-05
0.0027965
-9.77741e-05
0.00283584
-0.000113966
0.00287489
-0.00011391
0.00290753
-9.63189e-05
0.0029282
-6.20523e-05
0.00293259
-1.43574e-05
0.00291839
4.11803e-05
0.00288577
9.68846e-05
0.00283774
0.000143903
0.00277991
0.000174094
0.00271945
0.000182499
0.00266352
0.000169149
0.0026177
0.000139
0.00258497
9.99337e-05
0.00256567
5.9983e-05
0.0025581
2.52134e-05
0.00255941
-1.07205e-06
0.0025664
-1.80081e-05
0.00257612
-2.63385e-05
0.00258612
-2.75914e-05
0.00259455
-2.35142e-05
0.00260018
-1.58167e-05
0.00260233
-6.09772e-06
0.00260086
4.15784e-06
0.00259606
1.36456e-05
0.0025886
2.13303e-05
0.00257936
2.65334e-05
0.00256928
2.907e-05
0.00255936
2.8793e-05
0.00255005
2.71626e-05
2.03835e-05
0.00250209
-8.61493e-06
0.00250825
-2.54719e-05
0.00251878
-4.32518e-05
0.00253425
-6.28246e-05
0.00255539
-8.47332e-05
0.00258291
-0.000108466
0.00261712
-0.000132514
0.00265729
-0.000153213
0.00270152
-0.000166474
0.00274616
-0.000167249
0.00278666
-0.000152704
0.00282029
-0.000127415
0.0028452
-9.41632e-05
0.00286009
-5.4641e-05
0.00286324
-8.62259e-06
0.00285202
4.51986e-05
0.00282468
0.000102942
0.0027826
0.00015457
0.00273052
0.000189263
0.00267528
0.000199698
0.00262444
0.00018296
0.00258536
0.000139828
0.00256447
7.42797e-05
0.00256646
-6.21058e-06
0.00259275
-8.88714e-05
0.00263887
-0.000154013
0.00269306
-0.000179293
0.00273891
-0.000151413
0.00276209
-7.69582e-05
0.00275627
1.96331e-05
0.00272415
0.000109971
0.00267402
0.000174703
0.00261556
0.000206511
0.00255769
0.000205557
0.00250831
0.00017411
0.00247508
0.000113806
0.00246593
2.64657e-05
0.00248786
-8.1401e-05
0.00254294
-0.000191624
0.00262326
-0.000272865
0.00270985
-0.00029223
0.00277885
-0.00023529
0.00281185
-0.000117978
0.00280312
2.14302e-05
0.00275944
0.000143144
0.0026943
0.000223069
0.00262149
0.000256198
0.00255189
0.000248538
0.00249366
0.000207454
0.00245384
0.000136739
0.00243962
3.78426e-05
0.00245795
-8.39745e-05
0.00251239
-0.000211638
0.00259816
-0.0003136
0.00269898
-0.000352969
0.00278991
-0.000306545
0.00284624
-0.000181226
0.00285371
-1.43742e-05
0.00281395
0.00014388
0.0027416
0.000254451
0.00265585
0.000303169
0.00257269
0.000297353
0.00250226
0.000252296
0.00245106
0.000178678
0.00242593
7.86901e-05
0.00243524
-4.69013e-05
0.00248452
-0.000185929
0.00256983
-0.000308978
0.0026752
-0.000378771
0.00277705
-0.000368726
0.00285247
-0.000276503
0.00288609
-0.000124614
0.00287306
4.9001e-05
0.00281886
0.000203399
0.00273685
0.000307177
0.00264371
0.000347471
0.00255463
0.000330218
0.00248102
0.000270258
0.00243207
0.000178448
0.00241693
5.80867e-05
0.0024431
-8.51927e-05
0.00251105
-0.000231417
0.00261045
-0.000347311
0.00272184
-0.000400498
0.00282235
-0.000374779
0.0028924
-0.000276544
0.00292051
-0.000130806
0.00290512
2.91653e-05
0.00285313
0.000172163
0.00277653
0.000275467
0.00268899
0.000327034
0.00260374
0.00032478
0.00253307
0.000273114
0.00248889
0.000178051
0.00248212
4.652e-05
0.00251908
-0.000107137
0.00259691
-0.000255692
0.00270222
-0.000364917
0.00281482
-0.000407805
0.00291378
-0.000375873
0.00298286
-0.000281113
0.00301364
-0.000150171
0.00300637
-1.50785e-05
0.00296887
9.59513e-05
0.00291368
0.000165218
0.00285455
0.000187529
0.00280379
0.000166785
0.00277153
0.000110044
0.00276607
2.40125e-05
0.00279333
-8.32013e-05
0.00285469
-0.00019773
0.00294476
-0.000298861
0.00305133
-0.000363814
0.00315812
-0.000375458
0.0032486
-0.000327931
0.00330923
-0.000227845
0.00333144
-9.20003e-05
0.00331267
5.67589e-05
0.00325665
0.000194032
0.00317263
0.000298756
0.00307334
0.000357642
0.0029722
0.000367413
0.00288074
0.000334194
0.00280682
0.000270569
0.00275432
0.000191285
0.00272394
0.000108947
0.00271449
3.16283e-05
0.00272375
-3.65275e-05
0.00274858
-9.27832e-05
0.00278461
-0.000133805
0.00282616
-0.00015551
0.00286668
-0.000154432
0.0028997
-0.000129335
0.00291971
-8.20642e-05
0.00292288
-1.7532e-05
0.00290747
5.65951e-05
0.00287411
0.000130243
0.00282603
0.000191986
0.00276877
0.000231347
0.00270935
0.000241927
0.00265471
0.000223787
0.00261029
0.000183415
0.00257906
0.000131163
0.00256139
7.76587e-05
0.00255558
3.10214e-05
0.00255874
-4.23258e-06
0.00256757
-2.68366e-05
0.00257896
-3.77306e-05
0.00259034
-3.89726e-05
0.00259978
-3.29562e-05
0.00260601
-2.2039e-05
0.00260834
-8.42833e-06
0.00260667
5.82497e-06
0.00260139
1.8927e-05
0.00259326
2.94545e-05
0.00258329
3.65041e-05
0.00257253
3.98286e-05
0.00256203
3.92975e-05
0.0025523
3.68958e-05
2.74643e-05
0.002502
-1.06135e-05
0.0025079
-3.13764e-05
0.00251807
-5.34139e-05
0.00253317
-7.79342e-05
0.00255419
-0.000105753
0.00258209
-0.000136358
0.0026175
-0.000167923
0.00265986
-0.000195581
0.00270727
-0.000213879
0.00275535
-0.000215329
0.00279858
-0.000195936
0.00283416
-0.000162996
0.00286056
-0.000120558
0.00287685
-7.09339e-05
0.00288133
-1.30984e-05
0.00287042
5.61066e-05
0.00284132
0.000132043
0.00279518
0.000200702
0.0027374
0.00024705
0.00267577
0.000261324
0.00261881
0.00023992
0.00257471
0.000183929
0.00255084
9.81523e-05
0.00255315
-8.52059e-06
0.00258428
-0.000120008
0.00263985
-0.000209578
0.00270583
-0.000245278
0.00276176
-0.000207339
0.00278968
-0.000104877
0.00278233
2.69818e-05
0.00274411
0.000148192
0.00268586
0.000232948
0.00261916
0.000273211
0.00255368
0.00027104
0.00249748
0.000230315
0.00245857
0.000152713
0.00244604
3.89953e-05
0.00246873
-0.000104088
0.00253046
-0.000253357
0.00262383
-0.000366231
0.00272725
-0.000395657
0.00281076
-0.000318795
0.00284994
-0.000157161
0.00283764
3.37285e-05
0.00278389
0.000196897
0.00270683
0.00030013
0.00262338
0.000339646
0.00254524
0.00032668
0.00247968
0.000273015
0.00243237
0.000184052
0.00241029
5.99156e-05
0.00242276
-9.64455e-05
0.0024771
-0.00026597
0.0025701
-0.000406609
0.00268349
-0.000466358
0.00278865
-0.000411704
0.00285732
-0.00024989
0.002872
-2.90556e-05
0.00283231
0.000183572
0.00275372
0.000333039
0.00265859
0.000398295
0.00256597
0.000389978
0.00248718
0.00033108
0.0024291
0.000236759
0.00240015
0.000107644
0.00241132
-5.80725e-05
0.00246911
-0.00024372
0.00256708
-0.000406946
0.0026848
-0.000496492
0.00279495
-0.000478872
0.00287294
-0.000354499
0.00290405
-0.000155718
0.0028855
6.75532e-05
0.00282484
0.000264058
0.00273646
0.000395553
0.00263723
0.000446696
0.00254236
0.000425091
0.00246393
0.00034869
0.00241289
0.000229487
0.00240048
7.0501e-05
0.00243466
-0.000119378
0.00251378
-0.000310534
0.00262405
-0.000457587
0.00274333
-0.000519774
0.00284766
-0.000479105
0.00291729
-0.000346177
0.00294096
-0.000154475
0.00291785
5.22738e-05
0.00285658
0.000233435
0.00277125
0.000360798
0.00267695
0.000421329
0.00258738
0.000414356
0.00251517
0.000345316
0.00247323
0.000219996
0.00247333
4.64225e-05
0.00252101
-0.000154817
0.00261052
-0.000345205
0.00272507
-0.000479467
0.00284229
-0.000525021
0.00294094
-0.000474523
0.00300568
-0.000345857
0.00302926
-0.000173746
0.00301281
1.37112e-06
0.00296491
0.000143842
0.00289912
0.000231008
0.00283045
0.000256199
0.00277268
0.000224562
0.00273751
0.000145208
0.00273467
2.68575e-05
0.00277034
-0.000118876
0.00284403
-0.000271415
0.00294672
-0.000401553
0.00306286
-0.000479951
0.0031747
-0.000487296
0.00326626
-0.000419497
0.00332552
-0.000287106
0.00334521
-0.000111687
0.00332328
7.86935e-05
0.0032634
0.000253908
0.00317473
0.00038743
0.0030702
0.000462169
0.00296378
0.000473834
0.00286752
0.000430454
0.00278964
0.000348447
0.00273419
0.000246736
0.00270204
0.0001411
0.00269222
4.144e-05
0.00270266
-4.69585e-05
0.00272991
-0.000120034
0.00276886
-0.000172764
0.0028129
-0.000199549
0.00285474
-0.000196265
0.00288759
-0.000162189
0.00290621
-0.000100688
0.00290743
-1.87466e-05
0.00289027
7.37561e-05
0.002856
0.000164513
0.0028081
0.000239885
0.00275203
0.00028742
0.00269445
0.000299504
0.00264199
0.000276248
0.00259985
0.000225558
0.0025709
0.000160105
0.00255555
9.30135e-05
0.00255211
3.44561e-05
0.00255765
-9.77387e-06
0.00256876
-3.79425e-05
0.00258219
-5.11645e-05
0.00259527
-5.20469e-05
0.00260598
-4.36627e-05
0.00261299
-2.90496e-05
0.00261562
-1.10583e-05
0.00261379
7.6504e-06
0.00260797
2.4745e-05
0.00259906
3.83667e-05
0.00258819
4.73746e-05
0.00257657
5.14501e-05
0.00256533
5.05347e-05
0.00255507
4.71615e-05
3.47563e-05
0.00250188
-1.24907e-05
0.00250742
-3.69188e-05
0.00251705
-6.30484e-05
0.00253163
-9.25109e-05
0.00255237
-0.000126496
0.00258062
-0.000164607
0.00261748
-0.000204777
0.00266266
-0.000240768
0.00271431
-0.000265529
0.00276699
-0.000268003
0.00281371
-0.000242658
0.00285169
-0.000200978
0.00287989
-0.000148758
0.0028981
-8.91429e-05
0.00290459
-1.95925e-05
0.00289438
6.63242e-05
0.00286303
0.00016339
0.00281145
0.00025228
0.00274603
0.000312472
0.00267597
0.000331387
0.00261095
0.000304936
0.00256016
0.000234717
0.00253212
0.000126196
0.00253448
-1.08819e-05
0.00257183
-0.000157354
0.00264015
-0.0002779
0.00272239
-0.000327521
0.00279221
-0.000277162
0.0028265
-0.000139165
0.00281676
3.67225e-05
0.00276999
0.000194959
0.00270082
0.000302123
0.00262336
0.000350668
0.00254816
0.000346243
0.00248326
0.000295211
0.00243675
0.000199232
0.00241795
5.77955e-05
0.00243644
-0.000122581
0.00249872
-0.00031564
0.00260178
-0.000469285
0.00272534
-0.000519221
0.00283291
-0.000426367
0.00288868
-0.000212929
0.00287849
4.39135e-05
0.00281464
0.000260747
0.00272263
0.000392146
0.00262534
0.000436932
0.00253626
0.00041576
0.00246111
0.00034817
0.00240357
0.000241593
0.00237177
9.17121e-05
0.00237999
-0.000104667
0.00243964
-0.000325615
0.00254586
-0.000512833
0.00267448
-0.000594979
0.00279205
-0.000529269
0.00286893
-0.000326773
0.00288782
-4.79463e-05
0.00284772
0.000223674
0.00276369
0.000417061
0.00265954
0.000502448
0.0025567
0.000492815
0.00246838
0.000419402
0.00240326
0.000301885
0.00237256
0.000138346
0.00238945
-7.49656e-05
0.00245912
-0.000313389
0.00257072
-0.000518551
0.00269963
-0.000625404
0.00281639
-0.000595633
0.00289582
-0.000433927
0.00292341
-0.000183308
0.00289778
9.31811e-05
0.00282877
0.000333075
0.00273255
0.00049177
0.00262653
0.000552721
0.00252584
0.000525776
0.00244331
0.000431223
0.00239178
0.000281014
0.00238408
7.82017e-05
0.00242738
-0.000162679
0.00251684
-0.000399993
0.00263537
-0.000576115
0.00275926
-0.000643669
0.00286481
-0.000584655
0.00293307
-0.000414433
0.00295304
-0.000174449
0.00292385
8.14634e-05
0.00285469
0.000302597
0.00276116
0.000454325
0.00266001
0.000522488
0.00256604
0.000508325
0.00249288
0.000418476
0.00245445
0.00025842
0.0024627
3.81761e-05
0.00252118
-0.000213298
0.00262057
-0.00044459
0.00274092
-0.000599825
0.00285869
-0.00064279
0.00295333
-0.000569165
0.00301111
-0.000403629
0.00302623
-0.000188875
0.00300076
2.68458e-05
0.00294371
0.00020089
0.00286907
0.000305652
0.00279267
0.000332602
0.00272971
0.000287521
0.00269385
0.000181061
0.00269627
2.44442e-05
0.00274232
-0.00016493
0.00282782
-0.000356912
0.00293925
-0.000512985
0.00305861
-0.000599305
0.00316869
-0.000597376
0.00325588
-0.000506692
0.00331062
-0.000341843
0.0033271
-0.00012817
0.00330352
0.000102268
0.00324294
0.00031449
0.00315362
0.000476752
0.00304795
0.000567839
0.00293985
0.000581931
0.00284167
0.000528636
0.00276197
0.000428147
0.00270516
0.000303544
0.00267257
0.000173694
0.00266368
5.03272e-05
0.0026765
-5.97737e-05
0.00270705
-0.000150587
0.00274922
-0.000214931
0.0027954
-0.000245729
0.0028378
-0.000238663
0.00286969
-0.000194079
0.00288628
-0.000117279
0.0028851
-1.7566e-05
0.00286598
9.28761e-05
0.00283086
0.000199631
0.00278354
0.0002872
0.00272937
0.000341595
0.00267458
0.00035429
0.00262531
0.000325519
0.0025864
0.00026447
0.00256057
0.000185933
0.00254819
0.000105393
0.00254759
3.50569e-05
0.00255578
-1.79631e-05
0.00256927
-5.14367e-05
0.00258478
-6.6675e-05
0.00259961
-6.68693e-05
0.00261172
-5.5776e-05
0.00261976
-3.70857e-05
0.00262297
-1.42721e-05
0.00262125
9.37235e-06
0.00261508
3.09169e-05
0.00260546
4.79857e-05
0.00259368
5.91532e-05
0.00258113
6.39963e-05
0.00256908
6.25859e-05
0.00255822
5.80232e-05
4.22819e-05
0.00250171
-1.42046e-05
0.00250677
-4.19743e-05
0.00251568
-7.19556e-05
0.00252947
-0.000106307
0.0025497
-0.00014672
0.00257819
-0.000193099
0.00261667
-0.000243259
0.00266534
-0.000289438
0.00272252
-0.00032271
0.00278117
-0.000326653
0.00283217
-0.000293653
0.00287283
-0.000241635
0.00290291
-0.000178839
0.0029234
-0.000109634
0.00293277
-2.89633e-05
0.00292399
7.51041e-05
0.00289023
0.000197148
0.00283194
0.000310573
0.00275688
0.000387532
0.0026761
0.00041216
0.00260079
0.00038025
0.00254125
0.000294262
0.00250732
0.00016012
0.00250906
-1.26191e-05
0.00255428
-0.000202579
0.00264001
-0.000363626
0.00274451
-0.000432021
0.00283276
-0.000365412
0.00287478
-0.00018118
0.002861
5.05034e-05
0.00280241
0.000253549
0.00271889
0.000385637
0.0026279
0.000441657
0.00254089
0.000433257
0.00246552
0.000370581
0.00240863
0.000256117
0.0023776
8.88282e-05
0.00238241
-0.000127391
0.00243595
-0.000369178
0.00254363
-0.000576971
0.00268803
-0.000663613
0.00282692
-0.000565259
0.0029118
-0.000297813
0.0029158
3.99158e-05
0.00284802
0.000328528
0.0027412
0.000498963
0.00262757
0.00055056
0.00252487
0.000518466
0.00243769
0.000435344
0.00236848
0.000310804
0.00232887
0.000131324
0.00233911
-0.000114905
0.00241152
-0.000398022
0.00253528
-0.000636594
0.00267906
-0.000738758
0.00280562
-0.000655837
0.00288535
-0.000406495
0.002903
-6.56009e-05
0.00285923
0.000267446
0.00276922
0.000507074
0.00265671
0.000614957
0.00254407
0.000605455
0.00244641
0.000517064
0.00237542
0.000372866
0.00234559
0.000168178
0.00237063
-9.99998e-05
0.00245214
-0.000394904
0.00257443
-0.000640844
0.00271027
-0.000761241
0.0028303
-0.000715661
0.00291014
-0.000513763
0.00293525
-0.000208426
0.00290413
0.000124309
0.00282764
0.000409562
0.00272377
0.000595644
0.00261104
0.00066545
0.00250507
0.000631739
0.00241967
0.000516632
0.00236933
0.000331351
0.00236747
8.00637e-05
0.00241929
-0.0002145
0.0025165
-0.000497209
0.00263956
-0.000699169
0.00276438
-0.000768495
0.00286842
-0.000688692
0.0029341
-0.000480117
0.00295101
-0.000191359
0.00291787
0.000114609
0.00284345
0.000377018
0.00274386
0.000553917
0.00263712
0.000629219
0.0025396
0.000605847
0.00246642
0.000491653
0.00243254
0.000292305
0.00244922
2.14994e-05
0.0025171
-0.000281178
0.00262312
-0.000550613
0.00274502
-0.000721729
0.00285916
-0.000756923
0.00294646
-0.000656473
0.00299514
-0.000452307
0.00300098
-0.000194715
0.00296689
6.09403e-05
0.00290217
0.000265612
0.00282087
0.000386953
0.00273929
0.000414181
0.00267402
0.000352783
0.00264071
0.000214374
0.00265112
1.40358e-05
0.00270784
-0.000221646
0.00280144
-0.000450521
0.00291456
-0.000626106
0.00302912
-0.000713866
0.00313081
-0.000699062
0.00320945
-0.000585327
0.00325787
-0.000390264
0.00327133
-0.000141636
0.00324796
0.000125644
0.00318989
0.000372557
0.00310413
0.000562515
0.00300194
0.000670026
0.00289661
0.000687256
0.00280034
0.00062491
0.00272188
0.000506603
0.00266615
0.000359275
0.00263519
0.000204655
0.00262904
5.6477e-05
0.00264555
-7.62757e-05
0.00267979
-0.000184828
0.0027245
-0.000259642
0.00277147
-0.000292697
0.00281304
-0.000280236
0.00284308
-0.000224121
0.00285744
-0.000131635
0.00285417
-1.43036e-05
0.00283365
0.000113399
0.00279833
0.000234957
0.00275231
0.000333215
0.00270088
0.000393024
0.00264986
0.000405312
0.0026048
0.000370579
0.00257008
0.000299195
0.00254814
0.000207867
0.00253924
0.000114299
0.00254161
3.26826e-05
0.00255222
-2.85717e-05
0.00256761
-6.68267e-05
0.00258465
-8.37205e-05
0.00260087
-8.30896e-05
0.00261439
-6.92952e-05
0.00262382
-4.65096e-05
0.00262823
-1.8682e-05
0.0026273
1.02988e-05
0.0026214
3.68214e-05
0.00261153
5.78485e-05
0.00259913
7.15525e-05
0.00258581
7.73225e-05
0.00257299
7.54e-05
0.00256155
6.9466e-05
5.00364e-05
0.0025015
-1.57048e-05
0.00250592
-4.63916e-05
0.00251385
-7.9885e-05
0.00252653
-0.000118992
0.00254588
-0.000166067
0.00257437
-0.000221589
0.00261456
-0.00028345
0.00266742
-0.000342301
0.00273176
-0.000387042
0.00279811
-0.000393011
0.00285424
-0.000349782
0.00289779
-0.000285183
0.00292981
-0.000210861
0.00295324
-0.000133065
0.00296688
-4.26024e-05
0.00296059
8.13937e-05
0.00292398
0.000233758
0.00285701
0.000377548
0.00276961
0.000474933
0.00267541
0.00050636
0.00258732
0.00046834
0.00251669
0.000364886
0.00247472
0.000202092
0.00247491
-1.28075e-05
0.00253063
-0.000258301
0.00264088
-0.000473877
0.00277649
-0.000567625
0.00288889
-0.000477819
0.00293892
-0.00023121
0.00291742
7.20007e-05
0.00284205
0.000328925
0.00273987
0.00048781
0.00263236
0.000549173
0.00253168
0.000533935
0.00244402
0.000458238
0.00237257
0.000327567
0.00232185
0.000139548
0.00230722
-0.000112756
0.00235351
-0.000415474
0.00247112
-0.000694579
0.00263711
-0.000829604
0.00280311
-0.000731257
0.00291592
-0.000410621
0.00294011
1.57284e-05
0.0028766
0.000392029
0.00275948
0.000616085
0.00262958
0.000680465
0.0025112
0.000636843
0.0024102
0.000536346
0.00233017
0.000390832
0.00228767
0.000173827
0.00230629
-0.000133523
0.00239423
-0.000485968
0.00253304
-0.000775399
0.00268712
-0.000892838
0.00281894
-0.000787659
0.00289945
-0.000487006
0.00291417
-8.03267e-05
0.00286518
0.000316441
0.00276873
0.000603529
0.0026486
0.000735078
0.00252734
0.000726714
0.00242179
0.000622619
0.00234704
0.000447614
0.00232017
0.000195053
0.00235358
-0.00013341
0.00244426
-0.000485589
0.00257254
-0.000769122
0.00271036
-0.000899062
0.00282997
-0.000835273
0.0029088
-0.000592592
0.00293262
-0.00023224
0.00289886
0.000158067
0.00281787
0.000490554
0.00270841
0.0007051
0.00259029
0.000783566
0.00248027
0.000741766
0.00239349
0.000603411
0.00234571
0.000379125
0.00234987
7.59133e-05
0.00240846
-0.000273093
0.00251015
-0.000598899
0.002634
-0.00082302
0.00275654
-0.000891033
0.00285681
-0.00078896
0.00291882
-0.000542125
0.00293292
-0.000205464
0.00289752
0.000150013
0.00282051
0.000454026
0.00271761
0.000656817
0.00260749
0.000739335
0.00250802
0.000705322
0.00243607
0.000563604
0.00240739
0.000320977
0.00243183
-2.93889e-06
0.00250656
-0.000355909
0.00261523
-0.000659281
0.00273435
-0.000840851
0.0028412
-0.000863766
0.00291866
-0.000733938
0.0029569
-0.000490547
0.00295314
-0.000190949
0.00291103
0.000103042
0.0028401
0.000336544
0.00275432
0.000472736
0.00267036
0.00049814
0.00260622
0.000416926
0.00257896
0.000241636
0.00259911
-6.11449e-06
0.00266426
-0.000286797
0.00275961
-0.000545873
0.00286633
-0.000732822
0.00296922
-0.000816762
0.00305834
-0.000788176
0.00312671
-0.000653703
0.00316866
-0.000432209
0.00317978
-0.000152757
0.00315796
0.000147458
0.00310465
0.000425869
0.00302568
0.00064149
0.00293097
0.000764734
0.00283267
0.000785553
0.0027423
0.000715281
0.00266855
0.000580359
0.00261685
0.000410966
0.00259009
0.000231421
0.00258862
5.79416e-05
0.00260962
-9.72701e-05
0.00264688
-0.000222093
0.00269233
-0.000305085
0.00273796
-0.000338332
0.00277712
-0.000319399
0.00280473
-0.00025173
0.00281727
-0.000144175
0.00281303
-1.00638e-05
0.00279247
0.000133959
0.00275824
0.000269188
0.00271467
0.000376791
0.002667
0.000440688
0.00262072
0.000451593
0.00258082
0.000410483
0.00255112
0.000328895
0.00253366