/*--------------------------------*- C++ -*----------------------------------*\
  =========                 |
  \\      /  F ield         | OpenFOAM: The Open Source CFD Toolbox
   \\    /   O peration     | Website:  https://openfoam.org
    \\  /    A nd           | Version:  11
     \\/     M anipulation  |
\*---------------------------------------------------------------------------*/
FoamFile
{
    format      ascii;
    class       volVectorField;
    location    "12.876844";
    object      U;
}
// * * * * * * * * * * * * * * * * * * * * * * * * * * * * * * * * * * * * * //

dimensions      [0 1 -1 0 0 0 0];

internalField   nonuniform List<vector> 
7132
(
(1.00012 -0.000220419 3.00154e-18)
(1.0017 -0.000651861 1.11707e-17)
(1.00523 -0.00110218 1.21009e-17)
(1.01055 -0.00158843 1.50235e-17)
(1.01792 -0.00211974 1.99979e-17)
(1.0275 -0.00267966 2.04911e-17)
(1.03937 -0.00322894 1.89796e-17)
(1.05337 -0.00368671 1.69311e-17)
(1.06894 -0.00396286 1.47115e-17)
(1.0852 -0.00396483 1.2611e-17)
(1.1008 -0.00363617 1.09186e-17)
(1.11446 -0.00304458 9.8839e-18)
(1.12528 -0.00224108 9.22108e-18)
(1.13251 -0.00126245 8.94941e-18)
(1.13552 -0.000124695 5.09583e-18)
(1.13366 0.0011587 1.87028e-18)
(1.12643 0.00248267 -3.62824e-19)
(1.11397 0.00363773 3.53198e-19)
(1.09743 0.00439962 -1.36426e-18)
(1.07878 0.00460819 -2.29984e-18)
(1.06049 0.00419499 -1.3912e-18)
(1.04508 0.00318092 -1.06097e-18)
(1.03488 0.00167321 -4.12926e-19)
(1.03159 -0.000129539 3.24884e-18)
(1.03594 -0.00191849 -2.33072e-17)
(1.04713 -0.00327431 -1.46565e-16)
(1.0625 -0.00376626 -2.77128e-16)
(1.07775 -0.00315891 -2.39707e-16)
(1.08827 -0.00159121 -1.05406e-16)
(1.09085 0.000463561 -2.13149e-17)
(1.08471 0.00243642 1.16673e-17)
(1.0713 0.00390073 1.17763e-17)
(1.05329 0.00464833 -6.93587e-17)
(1.03379 0.00463214 -1.48301e-16)
(1.01585 0.00387955 3.84623e-16)
(1.00235 0.00244521 1.95223e-15)
(0.9959 0.000428018 1.26147e-15)
(0.998627 -0.00195674 -1.63744e-14)
(1.01146 -0.00428473 -7.51847e-14)
(1.03311 -0.00593083 -1.71084e-13)
(1.0594 -0.00628251 -2.41671e-13)
(1.08403 -0.00507904 -2.24926e-13)
(1.10067 -0.00262059 -1.4189e-13)
(1.10543 0.000356566 -6.27053e-14)
(1.09797 0.00304579 -1.8212e-14)
(1.08093 0.00490425 -8.42793e-16)
(1.05841 0.00574603 1.20761e-14)
(1.03455 0.00562407 3.28398e-14)
(1.01296 0.0046615 2.11112e-14)
(0.996785 0.00295397 -7.13403e-14)
(0.988871 0.000590464 -1.46979e-13)
(0.991701 -0.00222523 5.12334e-14)
(1.00656 -0.00503529 8.77411e-13)
(1.03223 -0.0071269 2.34359e-12)
(1.06417 -0.00776508 3.80991e-12)
(1.09513 -0.00656821 4.58891e-12)
(1.11747 -0.00377364 4.37064e-12)
(1.12587 -0.000179408 2.93765e-12)
(1.11912 0.0032175 9.92903e-13)
(1.09998 0.00564871 -1.2885e-13)
(1.07353 0.00679962 -5.10281e-13)
(1.04508 0.00674323 -1.08015e-12)
(1.01907 0.00571632 -1.32069e-12)
(0.998844 0.00392088 3.18825e-12)
(0.987178 0.00147283 2.09564e-11)
(0.986541 -0.00148473 6.09764e-11)
(0.998626 -0.00460219 1.26748e-10)
(1.02314 -0.00725654 2.1103e-10)
(1.05677 -0.00870357 2.95307e-10)
(1.09319 -0.00838912 3.55726e-10)
(1.12456 -0.00622887 3.73006e-10)
(1.14381 -0.0026925 3.4088e-10)
(1.14682 0.00134646 2.68313e-10)
(1.13351 0.00491597 1.75294e-10)
(1.10761 0.00728328 8.66795e-11)
(1.07503 0.00816185 2.27964e-11)
(1.04189 0.0076898 -7.91324e-12)
(1.013 0.0062074 -7.15076e-12)
(0.99167 0.00400153 2.08602e-11)
(0.980404 0.0012233 7.35637e-11)
(0.981357 -0.00196301 1.4791e-10)
(0.995774 -0.00517322 2.36802e-10)
(1.02272 -0.00777674 3.29107e-10)
(1.05829 -0.00910482 4.1285e-10)
(1.09605 -0.00874582 4.7798e-10)
(1.12877 -0.00672728 5.16746e-10)
(1.15029 -0.0034964 5.22731e-10)
(1.15704 0.000248176 4.90493e-10)
(1.1485 0.00375879 4.16837e-10)
(1.12706 0.00640727 3.06933e-10)
(1.09723 0.00779438 1.81818e-10)
(1.06458 0.0078067 7.53417e-11)
(1.03454 0.00657977 1.82767e-11)
(1.01161 0.00436087 2.18473e-11)
(0.999315 0.0014028 7.50398e-11)
(1.00022 -0.00198128 1.55518e-10)
(1.01534 -0.00529573 2.42195e-10)
(1.04317 -0.00788417 3.21274e-10)
(1.0793 -0.00914582 3.86325e-10)
(1.11727 -0.00879612 4.36077e-10)
(1.15037 -0.00699041 4.7216e-10)
(1.17349 -0.0042555 4.97233e-10)
(1.18426 -0.00129143 5.13216e-10)
(1.1833 0.00125391 5.19088e-10)
(1.1735 0.00295522 5.08891e-10)
(1.15886 0.00365799 4.73311e-10)
(1.1435 0.00340597 4.06089e-10)
(1.13103 0.00232887 3.11648e-10)
(1.12449 0.000578774 2.06804e-10)
(1.12625 -0.00164905 1.13563e-10)
(1.13779 -0.00405968 4.86209e-11)
(1.15915 -0.00624277 1.76477e-11)
(1.18847 -0.00773507 1.67132e-11)
(1.22202 -0.00814476 3.72987e-11)
(1.25471 -0.00727702 7.06754e-11)
(1.28121 -0.00520296 1.10026e-10)
(1.29704 -0.00224969 1.50831e-10)
(1.29955 0.00107588 1.90487e-10)
(1.28842 0.00420375 2.27603e-10)
(1.2656 0.00663592 2.6166e-10)
(1.23477 0.00804958 2.93148e-10)
(1.20051 0.0083437 3.2304e-10)
(1.1673 0.00762975 3.50474e-10)
(1.1388 0.00617828 3.70031e-10)
(1.11729 0.00433151 3.72243e-10)
(1.10366 0.0024025 3.48708e-10)
(1.09768 0.000604074 2.98133e-10)
(1.09853 -0.000956804 2.28399e-10)
(1.10516 -0.00222904 1.53362e-10)
(1.11632 -0.00316081 8.71789e-11)
(1.1305 -0.00367563 3.9697e-11)
(1.14584 -0.00368886 1.46488e-11)
(1.16015 -0.00314422 1.03166e-11)
(1.17112 -0.00204744 2.13557e-11)
(1.17664 -0.000487018 4.06285e-11)
(1.17513 0.00135787 6.05294e-11)
(1.1659 0.00322604 7.40087e-11)
(1.14944 0.00481094 7.60029e-11)
(1.12752 0.0058307 6.52829e-11)
(1.10287 0.00611534 4.54631e-11)
(1.07862 0.00566798 2.35401e-11)
(1.05751 0.00466032 6.22621e-12)
(1.04129 0.00336148 -3.29445e-12)
(1.03056 0.00204153 -5.87388e-12)
(1.02492 0.000899701 -4.50408e-12)
(1.02336 3.99317e-05 -2.06473e-12)
(1.02464 -0.000514868 -1.84127e-13)
(1.02755 -0.00079263 7.23956e-13)
(1.03107 -0.000844016 9.04483e-13)
(1.0344 -0.000724793 7.50489e-13)
(1.03696 -0.000488733 5.42838e-13)
(1.03837 -0.000186128 4.00659e-13)
(1.03849 0.000136149 3.32401e-13)
(1.03729 0.000436433 3.03006e-13)
(1.03502 0.000681856 2.78347e-13)
(1.03177 0.000849581 2.42105e-13)
(1.02829 0.0009342 1.94407e-13)
(1.02408 0.000928113 1.43984e-13)
(1.02118 0.00087982 1.00532e-13)
(1.01637 0.000666056 6.13454e-14)
(1.00011 -0.000659353 4.45888e-20)
(1.00169 -0.00195059 5.78299e-19)
(1.00519 -0.00329955 1.14525e-18)
(1.01048 -0.0047596 1.71345e-18)
(1.01783 -0.00635927 2.4211e-18)
(1.02743 -0.00805039 3.10033e-18)
(1.03938 -0.00971574 3.4573e-18)
(1.05354 -0.0111089 4.32722e-18)
(1.06937 -0.0119556 3.43548e-18)
(1.08593 -0.011968 2.75589e-18)
(1.10183 -0.0109726 3.95775e-18)
(1.11572 -0.0091885 6.53404e-18)
(1.12673 -0.00677611 4.63273e-18)
(1.13411 -0.00385009 2.94964e-18)
(1.13726 -0.00045634 2.86906e-18)
(1.13549 0.00338449 3.9177e-18)
(1.1282 0.00736805 5.04051e-18)
(1.11547 0.0108645 5.94632e-18)
(1.09847 0.0131922 6.53364e-18)
(1.07925 0.0138595 6.6054e-18)
(1.06034 0.0126502 5.16913e-18)
(1.04439 0.00961674 4.76371e-18)
(1.03376 0.00507185 6.42755e-18)
(1.03029 -0.000394556 -4.34033e-17)
(1.03482 -0.00585204 -9.83383e-17)
(1.04664 -0.010018 3.30536e-16)
(1.06297 -0.0115567 7.93598e-16)
(1.07926 -0.00972685 5.23922e-16)
(1.09052 -0.00494635 1.65351e-16)
(1.09336 0.00132822 4.52081e-17)
(1.087 0.0073494 4.10649e-17)
(1.07303 0.0118155 -4.51606e-17)
(1.05432 0.0141029 -1.81186e-16)
(1.03408 0.0140809 6.68489e-16)
(1.01541 0.0118382 1.37895e-15)
(1.00123 0.00753249 -9.40076e-15)
(0.994236 0.00143967 -2.71922e-14)
(0.996743 -0.00581605 8.83675e-14)
(1.00991 -0.0129548 6.46606e-13)
(1.03254 -0.0180504 1.58832e-12)
(1.06026 -0.0191934 2.11835e-12)
(1.0863 -0.0155596 1.71771e-12)
(1.10387 -0.00806616 8.76714e-13)
(1.10881 0.00101877 2.44897e-13)
(1.10088 0.00921833 -2.17931e-14)
(1.083 0.0148758 -4.20249e-14)
(1.05953 0.0174399 3.53667e-14)
(1.03478 0.0170919 -2.79623e-14)
(1.01236 0.0142164 -6.00826e-13)
(0.995416 0.00909369 -1.01023e-12)
(0.986866 0.00196001 3.42001e-12)
(0.989389 -0.006606 2.33157e-11)
(1.00452 -0.0152229 6.94197e-11)
(1.03119 -0.0216872 1.34727e-10)
(1.06472 -0.0237077 1.86717e-10)
(1.09742 -0.0200928 1.92623e-10)
(1.12105 -0.0115761 1.51608e-10)
(1.12989 -0.000612661 9.10217e-11)
(1.12272 0.00974574 3.89331e-11)
(1.10258 0.0171483 8.44302e-12)
(1.07494 0.0206433 -3.36852e-12)
(1.04541 0.0204774 -6.11696e-12)
(1.01848 0.0173969 -4.60418e-12)
(0.997424 0.0120235 9.2631e-12)
(0.984926 0.00468656 5.64519e-11)
(0.983519 -0.00422483 1.59565e-10)
(0.99513 -0.0136873 3.24134e-10)
(1.01973 -0.0218183 5.2658e-10)
(1.0541 -0.0263375 7.20657e-10)
(1.09175 -0.0255233 8.5408e-10)
(1.12451 -0.0190813 8.8422e-10)
(1.14497 -0.00841427 7.95315e-10)
(1.14872 0.00383414 6.11914e-10)
(1.13556 0.0147054 3.8909e-10)
(1.10925 0.0219518 1.87753e-10)
(1.07592 0.0246828 4.94113e-11)
(1.04188 0.0233163 -1.53577e-11)
(1.01207 0.0188976 -1.71038e-11)
(0.98984 0.0122972 3.07483e-11)
(0.97778 0.00394402 1.20032e-10)
(0.978301 -0.00570624 2.42151e-10)
(0.992949 -0.0154995 3.8044e-10)
(1.02086 -0.0234848 5.12756e-10)
(1.05782 -0.0275784 6.21216e-10)
(1.0969 -0.0265092 6.97177e-10)
(1.13039 -0.0203884 7.3682e-10)
(1.15203 -0.0106167 7.33988e-10)
(1.15842 0.000674737 6.79645e-10)
(1.14933 0.0112449 5.69374e-10)
(1.12735 0.0192253 4.13358e-10)
(1.09707 0.0234322 2.42113e-10)
(1.06399 0.0235266 9.94965e-11)
(1.03349 0.0198972 2.31916e-11)
(1.01012 0.0132506 2.64383e-11)
(0.99765 0.00430448 9.52507e-11)
(0.998999 -0.0060163 2.00391e-10)
(1.01541 -0.016176 3.12012e-10)
(1.04521 -0.0241058 4.0887e-10)
(1.08346 -0.0279189 4.8101e-10)
(1.12309 -0.0267454 5.27924e-10)
(1.15696 -0.0211056 5.54709e-10)
(1.17982 -0.0126651 5.68121e-10)
(1.18943 -0.00359295 5.73204e-10)
(1.18674 0.00414227 5.70459e-10)
(1.175 0.00926769 5.54112e-10)
(1.15855 0.0113348 5.138e-10)
(1.14175 0.0104991 4.41686e-10)
(1.12833 0.00717154 3.41238e-10)
(1.12137 0.00181419 2.29668e-10)
(1.12331 -0.00499854 1.30527e-10)
(1.13571 -0.0123881 6.23194e-11)
(1.15864 -0.0191031 3.18103e-11)
(1.19007 -0.0237085 3.49158e-11)
(1.22592 -0.0249814 6.18279e-11)
(1.26067 -0.0223152 1.01983e-10)
(1.28861 -0.0159414 1.46872e-10)
(1.30508 -0.00689196 1.90818e-10)
(1.30743 0.00326582 2.30655e-10)
(1.29546 0.0127983 2.65082e-10)
(1.27135 0.0201974 2.94246e-10)
(1.23902 0.0244896 3.19659e-10)
(1.20326 0.0253783 3.43438e-10)
(1.16872 0.0232132 3.65733e-10)
(1.13911 0.0188217 3.81678e-10)
(1.11671 0.0132394 3.81701e-10)
(1.1024 0.00740709 3.56826e-10)
(1.09594 0.00195969 3.05304e-10)
(1.09654 -0.00278313 2.35221e-10)
(1.10315 -0.00666253 1.61377e-10)
(1.11449 -0.00951128 9.9057e-11)
(1.12898 -0.0110889 5.86141e-11)
(1.14465 -0.011138 4.31198e-11)
(1.15921 -0.00949656 4.90027e-11)
(1.1703 -0.00619509 6.8383e-11)
(1.17584 -0.00150969 9.17863e-11)
(1.17429 0.00402185 1.10335e-10)
(1.16503 0.00962251 1.172e-10)
(1.14859 0.0143798 1.09006e-10)
(1.12672 0.0174517 8.70159e-11)
(1.10214 0.0183268 5.71631e-11)
(1.07796 0.0170081 2.78664e-11)
(1.05691 0.0140025 6.186e-12)
(1.04075 0.0101112 -5.16266e-12)
(1.03009 0.00614334 -7.89128e-12)
(1.02457 0.00270037 -5.86199e-12)
(1.02318 0.000100791 -2.59925e-12)
(1.02466 -0.00158041 -7.76943e-14)
(1.0278 -0.00242318 1.19196e-12)
(1.03153 -0.00257888 1.50298e-12)
(1.03503 -0.00221633 1.34334e-12)
(1.03771 -0.00149908 1.07429e-12)
(1.0392 -0.000580032 8.59862e-13)
(1.03934 0.000398453 7.23312e-13)
(1.03811 0.00131024 6.29701e-13)
(1.03578 0.00205522 5.42391e-13)
(1.03244 0.002565 4.45296e-13)
(1.02887 0.00282168 3.4168e-13)
(1.02457 0.00280492 2.44589e-13)
(1.02161 0.00265834 1.66477e-13)
(1.01673 0.00201142 1.01234e-13)
(1.00011 -0.00109284 5.44738e-22)
(1.00166 -0.0032333 6.00689e-21)
(1.0051 -0.00547505 5.36399e-21)
(1.01033 -0.00791286 7.50157e-21)
(1.01764 -0.0105995 -8.1982e-20)
(1.02727 -0.0134586 -2.72201e-20)
(1.03939 -0.0162963 1.17244e-19)
(1.05388 -0.0186886 -1.85427e-18)
(1.07022 -0.0201637 -1.53489e-18)
(1.08743 -0.0202043 8.16806e-18)
(1.10395 -0.0185047 1.07691e-17)
(1.1183 -0.0154816 -1.46053e-17)
(1.12965 -0.0114211 -4.85571e-17)
(1.13731 -0.00651655 -5.27315e-17)
(1.14071 -0.000813531 -2.87052e-17)
(1.1391 0.00569825 -5.4138e-18)
(1.13166 0.0125106 7.80254e-18)
(1.11836 0.0185147 1.31985e-17)
(1.10042 0.022516 1.52868e-17)
(1.08002 0.0236721 1.11055e-17)
(1.05991 0.0216254 -1.86929e-18)
(1.04287 0.016469 4.73405e-17)
(1.03148 0.00871856 -6.19646e-17)
(1.02775 -0.000655823 -1.60162e-15)
(1.03276 -0.0100902 3.0778e-15)
(1.04594 -0.0173594 3.6717e-14)
(1.0643 -0.0200902 7.55098e-14)
(1.08269 -0.0169382 6.58127e-14)
(1.09538 -0.00863194 2.79351e-14)
(1.09855 0.00224387 5.20704e-15)
(1.09149 0.0126147 -9.04812e-16)
(1.0762 0.0202441 -1.74058e-15)
(1.05595 0.0241194 2.16489e-16)
(1.0342 0.0240793 1.00878e-14)
(1.01412 0.0203029 -3.96801e-15)
(0.99869 0.013035 -1.46399e-13)
(0.990791 0.0026767 -2.1076e-13)
(0.993084 -0.00978535 1.46243e-12)
(1.00718 -0.0221791 7.71002e-12)
(1.03206 -0.0311166 1.78431e-11)
(1.06285 -0.0331821 2.47571e-11)
(1.09175 -0.0268852 2.2191e-11)
(1.11095 -0.0138561 1.30153e-11)
(1.11589 0.00187831 4.75338e-12)
(1.1066 0.0159676 5.8579e-13)
(1.0867 0.0255756 -4.26767e-13)
(1.06116 0.02985 -1.47393e-13)
(1.03456 0.0292025 -7.40502e-13)
(1.01058 0.0243373 -3.91137e-12)
(0.992279 0.0157023 -3.46876e-12)
(0.982635 0.00361187 2.94609e-11)
(0.984534 -0.0110398 1.48738e-10)
(0.999881 -0.025929 3.91062e-10)
(1.02799 -0.0372353 7.07477e-10)
(1.06426 -0.0409015 9.57193e-10)
(1.10042 -0.0347429 9.99804e-10)
(1.12702 -0.0199914 8.1185e-10)
(1.1372 -0.000981444 5.07326e-10)
(1.12938 0.0168955 2.31412e-10)
(1.10721 0.0295385 5.96519e-11)
(1.07707 0.0353749 -1.21154e-11)
(1.04529 0.0349632 -2.67559e-11)
(1.01657 0.0297036 -1.55185e-11)
(0.993987 0.0206968 2.92027e-11)
(0.980026 0.00843245 1.44853e-10)
(0.977378 -0.00657264 3.59078e-10)
(0.988521 -0.0226979 6.51504e-10)
(1.01393 -0.0367453 9.61316e-10)
(1.0503 -0.0447303 1.23136e-09)
(1.09045 -0.043611 1.4268e-09)
(1.12546 -0.0328338 1.51028e-09)
(1.14747 -0.0147701 1.43097e-09)
(1.15191 0.00608324 1.17051e-09)
(1.13857 0.0246636 7.90609e-10)
(1.11132 0.037096 4.07882e-10)
(1.07653 0.0418328 1.24524e-10)
(1.04086 0.0396024 -1.82425e-11)
(1.00944 0.0322207 -3.27074e-11)
(0.985759 0.0211469 5.00873e-11)
(0.972723 0.00700223 2.00222e-10)
(0.973304 -0.00953389 3.85305e-10)
(0.989482 -0.0264465 5.6688e-10)
(1.02019 -0.0402217 7.12771e-10)
(1.06036 -0.0471406 8.11448e-10)
(1.10197 -0.0450405 8.71444e-10)
(1.1366 -0.0342864 9.05934e-10)
(1.1578 -0.0174833 9.13634e-10)
(1.16257 0.00163254 8.72217e-10)
(1.15143 0.0193104 7.56597e-10)
(1.12757 0.0325365 5.67118e-10)
(1.09586 0.0394614 3.4251e-10)
(1.06174 0.0395829 1.47165e-10)
(1.03043 0.0335069 3.8745e-11)
(1.00658 0.0222793 3.92902e-11)
(0.994394 0.00697192 1.29321e-10)
(0.997355 -0.0108497 2.64556e-10)
(1.01682 -0.0283952 3.99974e-10)
(1.0505 -0.0419152 5.06679e-10)
(1.09241 -0.0481006 5.75494e-10)
(1.13455 -0.0455553 6.11022e-10)
(1.16928 -0.0353436 6.23793e-10)
(1.19126 -0.02047 6.24792e-10)
(1.19854 -0.00473357 6.21781e-10)
(1.19251 0.00848417 6.16054e-10)
(1.17706 0.0170494 6.00614e-10)
(1.15714 0.0202728 5.61992e-10)
(1.13755 0.0185079 4.88913e-10)
(1.12232 0.0125166 3.83375e-10)
(1.11469 0.0030916 2.64214e-10)
(1.11729 -0.00881854 1.58646e-10)
(1.13181 -0.0217221 8.85261e-11)
(1.15815 -0.0334245 6.17425e-11)
(1.19375 -0.0413813 7.2822e-11)
(1.23369 -0.0434489 1.0913e-10)
(1.27174 -0.0386221 1.57308e-10)
(1.30171 -0.0273928 2.07115e-10)
(1.31882 -0.0116319 2.52453e-10)
(1.3205 0.00591422 2.90513e-10)
(1.30681 0.0222672 3.20548e-10)
(1.28025 0.0348661 3.43287e-10)
(1.24516 0.0420866 3.60949e-10)
(1.20672 0.0434783 3.76678e-10)
(1.16983 0.0396932 3.91807e-10)
(1.13833 0.032174 4.02202e-10)
(1.1145 0.0226828 3.98115e-10)
(1.09914 0.0127887 3.69899e-10)
(1.09203 0.00353371 3.15756e-10)
(1.09239 -0.00455778 2.4506e-10)
(1.09916 -0.0112017 1.74739e-10)
(1.11101 -0.0160806 1.21611e-10)
(1.12618 -0.0187593 9.57968e-11)
(1.14247 -0.0188031 9.82324e-11)
(1.15741 -0.0159698 1.21988e-10)
(1.16859 -0.010359 1.55444e-10)
(1.17395 -0.00247434 1.8575e-10)
(1.17212 0.00676844 2.019e-10)
(1.1626 0.0160819 1.97102e-10)
(1.14603 0.0239688 1.70548e-10)
(1.12419 0.02905 1.27795e-10)
(1.09976 0.0304858 7.91282e-11)
(1.07581 0.0282804 3.58553e-11)
(1.05501 0.0232672 5.87773e-12)
(1.03914 0.0167692 -8.90918e-12)
(1.02883 0.0101298 -1.1856e-11)
(1.02371 0.00435697 -8.49201e-12)
(1.02277 -6.60854e-06 -3.56659e-12)
(1.02475 -0.00282451 2.89199e-13)
(1.02837 -0.00422429 2.3684e-12)
(1.03253 -0.00445937 3.03203e-12)
(1.03636 -0.00381655 2.92553e-12)
(1.03927 -0.00257537 2.55249e-12)
(1.04087 -0.000997038 2.16679e-12)
(1.041 0.000675578 1.83465e-12)
(1.03968 0.00222849 1.5393e-12)
(1.03719 0.00349166 1.25456e-12)
(1.03366 0.00435175 9.74539e-13)
(1.02989 0.0047779 7.12688e-13)
(1.02542 0.00474157 4.90729e-13)
(1.02231 0.00448368 3.23917e-13)
(1.01733 0.00337817 1.96172e-13)
(1.00011 -0.00151692 -4.43034e-20)
(1.00161 -0.00448767 -6.72912e-19)
(1.00496 -0.00761173 -1.32843e-18)
(1.01008 -0.0110328 -2.15292e-18)
(1.01732 -0.0148368 -3.36469e-18)
(1.02699 -0.0189259 -2.11118e-18)
(1.03933 -0.0230323 -9.18313e-18)
(1.05433 -0.0265348 -1.1633e-17)
(1.07146 -0.0287411 3.4514e-17)
(1.08969 -0.0288409 2.33017e-17)
(1.10715 -0.0263701 -1.41981e-16)
(1.12219 -0.022032 -3.23495e-16)
(1.13405 -0.0162744 -3.76941e-16)
(1.14214 -0.00938378 -2.5147e-16)
(1.14597 -0.00137316 -5.13391e-17)
(1.14464 0.00789464 6.06664e-17)
(1.13699 0.0177314 8.4777e-17)
(1.12278 0.0264812 6.98234e-17)
(1.10334 0.0323528 4.34639e-17)
(1.08112 0.0341043 -2.96504e-17)
(1.05913 0.03122 -4.564e-17)
(1.04044 0.0238266 2.39446e-16)
(1.02786 0.0126301 -1.88544e-15)
(1.02373 -0.00103434 -4.90729e-15)
(1.02947 -0.014944 2.93205e-14)
(1.04476 -0.0257969 1.13927e-13)
(1.06635 -0.0299476 2.18358e-13)
(1.08807 -0.0252719 2.5606e-13)
(1.103 -0.0128648 1.55911e-13)
(1.10662 0.00329352 4.55783e-14)
(1.09838 0.0185351 -2.51569e-15)
(1.08095 0.0295875 -1.15515e-14)
(1.05828 0.0351043 7.61644e-15)
(1.03418 0.0349956 3.89771e-14)
(1.01197 0.0295897 -1.05617e-13)
(0.994673 0.0191979 -5.58163e-13)
(0.985392 0.00425065 6.2084e-14)
(0.987366 -0.0140013 5.50273e-12)
(1.00296 -0.0324371 1.75761e-11)
(1.03143 -0.0458958 3.3371e-11)
(1.06718 -0.0490577 4.77763e-11)
(1.10065 -0.0396102 5.15425e-11)
(1.12236 -0.0201157 3.89198e-11)
(1.12708 0.00321913 1.96795e-11)
(1.11542 0.0238283 5.53032e-12)
(1.09217 0.0375992 -3.23559e-13)
(1.0633 0.0435046 -1.15632e-12)
(1.0339 0.0423755 -4.54606e-12)
(1.00761 0.0353539 -1.31548e-11)
(0.987306 0.023067 3.43476e-12)
(0.975754 0.00584382 1.35541e-10)
(0.975948 -0.0152114 4.91212e-10)
(0.990442 -0.0369389 1.07264e-09)
(1.01951 -0.0538843 1.72742e-09)
(1.05903 -0.0599465 2.23965e-09)
(1.10011 -0.0514881 2.4113e-09)
(1.13174 -0.0299555 2.1296e-09)
(1.1452 -0.00177189 1.49088e-09)
(1.13777 0.0247578 7.82408e-10)
(1.11343 0.0433065 2.59453e-10)
(1.0799 0.0515913 -1.99393e-12)
(1.0448 0.0507172 -7.27874e-11)
(1.01335 0.0430451 -4.17654e-11)
(0.988445 0.0302962 6.95977e-11)
(0.972383 0.0130003 2.86466e-10)
(0.968361 -0.00845727 5.99896e-10)
(0.979859 -0.0319545 9.34122e-10)
(1.0078 -0.0527124 1.20985e-09)
(1.04809 -0.0646172 1.41361e-09)
(1.09204 -0.0631199 1.58454e-09)
(1.12952 -0.0475798 1.73668e-09)
(1.15238 -0.0216117 1.79553e-09)
(1.15647 0.00831271 1.63964e-09)
(1.14201 0.035018 1.24071e-09)
(1.11314 0.0529662 7.22338e-10)
(1.07639 0.0598979 2.69777e-10)
(1.0386 0.0568517 7.66185e-12)
(1.0051 0.0464405 -4.17595e-11)
(0.979694 0.0306557 7.55884e-11)
(0.965939 0.0101822 2.88147e-10)
(0.967609 -0.0140714 5.20823e-10)
(0.986906 -0.0389363 7.1295e-10)
(1.02198 -0.0589299 8.36372e-10)
(1.0664 -0.068489 8.97252e-10)
(1.11103 -0.0646463 9.2173e-10)
(1.14677 -0.0482958 9.38145e-10)
(1.16707 -0.0235815 9.57256e-10)
(1.16931 0.00388632 9.54439e-10)
(1.15482 0.0287614 8.7973e-10)
(1.12774 0.0470089 7.02682e-10)
(1.09353 0.0563361 4.52412e-10)
(1.0577 0.0562268 2.12043e-10)
(1.02531 0.0474691 6.89752e-11)
(1.00114 0.0312691 6.24082e-11)
(0.98996 0.00892632 1.67694e-10)
(0.99574 -0.017216 3.22383e-10)
(1.01956 -0.042743 4.66968e-10)
(1.058 -0.0619117 5.69928e-10)
(1.10377 -0.0699643 6.275e-10)
(1.14803 -0.0651908 6.5031e-10)
(1.18291 -0.0494552 6.51874e-10)
(1.20331 -0.0272803 6.44208e-10)
(1.20758 -0.00420455 6.36581e-10)
(1.19754 0.0148904 6.32246e-10)
(1.17761 0.0269549 6.23875e-10)
(1.15339 0.0310797 5.94267e-10)
(1.13029 0.0278982 5.27062e-10)
(1.11277 0.0185982 4.21759e-10)
(1.10448 0.00433042 2.99374e-10)
(1.1084 -0.0135521 1.92104e-10)
(1.12629 -0.0328114 1.25694e-10)
(1.15749 -0.0500746 1.0824e-10)
(1.19831 -0.0614925 1.31334e-10)
(1.2427 -0.0639905 1.78533e-10)
(1.28371 -0.0563308 2.3362e-10)
(1.31507 -0.0394748 2.85109e-10)
(1.33222 -0.0162727 3.2726e-10)
(1.33288 0.00928721 3.58894e-10)
(1.31727 0.0329383 3.81118e-10)
(1.28812 0.0510225 3.958e-10)
(1.25007 0.0612444 4.05537e-10)
(1.20866 0.0630271 4.13708e-10)
(1.16914 0.0573945 4.22104e-10)
(1.13547 0.0464839 4.2683e-10)
(1.10999 0.032832 4.17713e-10)
(1.09347 0.0186411 3.84717e-10)
(1.08568 0.00534048 3.27064e-10)
(1.08591 -0.00634466 2.56806e-10)
(1.09309 -0.0159739 1.93527e-10)
(1.10577 -0.0230238 1.54532e-10)
(1.12191 -0.026822 1.47706e-10)
(1.139 -0.0267561 1.70414e-10)
(1.15432 -0.0225543 2.12555e-10)
(1.16541 -0.0144603 2.6018e-10)
(1.17034 -0.00326891 2.98184e-10)
(1.16796 0.00970171 3.13091e-10)
(1.15802 0.0226687 2.96787e-10)
(1.14129 0.0335885 2.49832e-10)
(1.11956 0.0405838 1.8207e-10)
(1.09548 0.0425104 1.09324e-10)
(1.07201 0.0393764 4.73042e-11)
(1.05176 0.0323308 5.74465e-12)
(1.03647 0.023203 -1.40795e-11)
(1.02678 0.0138627 -1.75124e-11)
(1.02233 0.00572803 -1.22849e-11)
(1.02213 -0.000422294 -4.83553e-12)
(1.02486 -0.00437859 1.23576e-12)
(1.02919 -0.00631077 4.84909e-12)
(1.03397 -0.00657674 6.35056e-12)
(1.0383 -0.00558862 6.52401e-12)
(1.04153 -0.00375081 6.04149e-12)
(1.04327 -0.00144157 5.30257e-12)
(1.0434 0.000987944 4.48536e-12)
(1.04193 0.00323002 3.65791e-12)
(1.0392 0.00504058 2.85687e-12)
(1.03538 0.00626163 2.11967e-12)
(1.03131 0.00685008 1.48478e-12)
(1.02659 0.00677552 9.85083e-13)
(1.02328 0.00638165 6.30594e-13)
(1.01817 0.00477478 3.80369e-13)
(1.00011 -0.00192647 -3.37694e-18)
(1.00154 -0.00569881 -1.04833e-17)
(1.00476 -0.00968779 -9.77582e-18)
(1.00971 -0.0140974 -1.35234e-17)
(1.01684 -0.0190593 -1.15446e-17)
(1.02652 -0.0244663 -1.04414e-17)
(1.03915 -0.0299817 -6.18194e-17)
(1.05482 -0.0347601 8.9533e-17)
(1.07303 -0.0378566 2.0188e-16)
(1.0927 -0.0380594 -6.3602e-16)
(1.11147 -0.0347045 -1.45187e-15)
(1.12742 -0.0289256 -4.19749e-17)
(1.13993 -0.0213798 2.84253e-15)
(1.14856 -0.0124571 4.08598e-15)
(1.15297 -0.00205359 2.98826e-15)
(1.15209 0.0102153 1.40127e-15)
(1.14423 0.0234759 2.8967e-16)
(1.12884 0.0353688 -2.24748e-16)
(1.10735 0.0433633 -4.79983e-16)
(1.08261 0.0457775 -6.88348e-16)
(1.05803 0.0419617 1.38734e-16)
(1.03703 0.0321001 -4.77112e-15)
(1.02275 0.0170771 -8.07419e-15)
(1.01794 -0.00145406 1.2257e-13)
(1.02461 -0.0206074 -1.59183e-13)
(1.04285 -0.0358068 -2.73409e-12)
(1.06904 -0.0417598 -5.80848e-12)
(1.09559 -0.0352733 -5.0195e-12)
(1.11375 -0.0178945 -1.99398e-12)
(1.11794 0.00457951 -2.72681e-13)
(1.10792 0.0254646 8.75915e-14)
(1.08739 0.0402986 4.75393e-14)
(1.06132 0.0475018 5.33037e-14)
(1.03402 0.0472281 -3.84026e-14)
(1.00892 0.0400554 -4.52323e-13)
(0.989055 0.0263264 4.33406e-13)
(0.977797 0.00633884 3.86953e-12)
(0.979047 -0.0185543 -6.05008e-12)
(0.995975 -0.0442051 -6.80605e-11)
(1.02844 -0.0632369 -1.80427e-10)
(1.07063 -0.0678121 -2.51989e-10)
(1.11112 -0.0544755 -2.06634e-10)
(1.1374 -0.0270437 -9.55032e-11)
(1.1425 0.00537729 -1.35037e-11)
(1.12763 0.0334425 1.26861e-11)
(1.09953 0.0516332 9.34252e-12)
(1.06597 0.0589757 3.42053e-13)
(1.03275 0.0570405 -1.45656e-11)
(1.00344 0.0476305 -2.43469e-11)
(0.980295 0.0316349 5.88984e-11)
(0.965587 0.00930358 3.86986e-10)
(0.962653 -0.0183651 1.00446e-09)
(0.975594 -0.0477016 1.72307e-09)
(1.00613 -0.0715391 2.32532e-09)
(1.04997 -0.0812211 2.79322e-09)
(1.09678 -0.0711079 3.14778e-09)
(1.13405 -0.0425164 3.18696e-09)
(1.15174 -0.00396773 2.66221e-09)
(1.14587 0.0327965 1.69677e-09)
(1.12004 0.0584727 7.34711e-10)
(1.083 0.0696745 1.16031e-10)
(1.04391 0.0682241 -1.17293e-10)
(1.00887 0.0578763 -8.39144e-11)
(0.980864 0.041181 1.1991e-10)
(0.962401 0.0184828 4.38087e-10)
(0.957717 -0.010297 7.83866e-10)
(0.971369 -0.0424103 1.05501e-09)
(1.00397 -0.0708674 1.21875e-09)
(1.04972 -0.0868718 1.32367e-09)
(1.09809 -0.0843452 1.44171e-09)
(1.13778 -0.0629956 1.61539e-09)
(1.16049 -0.0282139 1.79997e-09)
(1.16272 0.0112986 1.83597e-09)
(1.14571 0.0463435 1.57193e-09)
(1.11422 0.0699017 1.04342e-09)
(1.075 0.0790867 4.68867e-10)
(1.03481 0.0752341 7.78116e-11)
(0.999071 0.0616644 -2.94298e-11)
(0.972051 0.0407266 1.0527e-10)
(0.958241 0.0130553 3.62543e-10)
(0.962147 -0.0200024 6.20094e-10)
(0.985621 -0.053623 8.04105e-10)
(1.02545 -0.0799803 9.00925e-10)
(1.07381 -0.091691 9.33771e-10)
(1.12081 -0.0852461 9.34421e-10)
(1.15723 -0.0623071 9.31447e-10)
(1.17653 -0.0287333 9.44035e-10)
(1.17621 0.00778154 9.6173e-10)
(1.1581 0.0401019 9.30461e-10)
(1.12723 0.0631739 7.90481e-10)
(1.08983 0.0744734 5.44824e-10)
(1.05177 0.0736825 2.80325e-10)
(1.01814 0.0617753 1.1069e-10)
(0.993985 0.0399514 9.49413e-11)
(0.984587 0.00968288 2.0583e-10)
(0.994088 -0.0256339 3.66324e-10)
(1.02275 -0.0595217 5.07988e-10)
(1.06569 -0.084036 6.01026e-10)
(1.11435 -0.093136 6.47786e-10)
(1.15941 -0.0851413 6.62901e-10)
(1.19324 -0.0629826 6.59869e-10)
(1.21123 -0.0327918 6.48617e-10)
(1.21216 -0.00183859 6.37881e-10)
(1.19812 0.0234747 6.33304e-10)
(1.17387 0.0391177 6.29753e-10)
(1.14549 0.0439215 6.08461e-10)
(1.11892 0.0388107 5.4848e-10)
(1.09925 0.0254194 4.4658e-10)
(1.09078 0.00527947 3.26082e-10)
(1.09698 -0.0197177 2.2411e-10)
(1.11932 -0.0462621 1.69002e-10)
(1.15592 -0.0694437 1.67005e-10)
(1.20145 -0.0840029 2.05508e-10)
(1.24878 -0.0861644 2.64497e-10)
(1.29088 -0.0748217 3.25918e-10)
(1.32202 -0.0516553 3.77706e-10)
(1.33831 -0.0205319 4.14356e-10)
(1.33782 0.0134022 4.36014e-10)
(1.32082 0.0446548 4.46216e-10)
(1.28997 0.0684589 4.4928e-10)
(1.2499 0.0817936 4.49181e-10)
(1.20633 0.0839243 4.49547e-10)
(1.16473 0.0762749 4.51816e-10)
(1.1293 0.061741 4.51255e-10)
(1.10242 0.0436832 4.36623e-10)
(1.08493 0.0249418 3.97926e-10)
(1.0767 0.00731625 3.36787e-10)
(1.07708 -0.00826016 2.68938e-10)
(1.08504 -0.0211326 2.15881e-10)
(1.09888 -0.0304912 1.93123e-10)
(1.1162 -0.0353751 2.04193e-10)
(1.1341 -0.035011 2.42535e-10)
(1.14966 -0.0291759 2.96669e-10)
(1.16039 -0.0183639 3.53393e-10)
(1.16457 -0.00374512 3.98012e-10)
(1.16137 0.0129328 4.15126e-10)
(1.15085 0.0294234 3.93302e-10)
(1.13397 0.0432003 3.31345e-10)
(1.11254 0.0519492 2.41242e-10)
(1.0891 0.0542557 1.44193e-10)
(1.06647 0.0501349 6.1552e-11)
(1.04712 0.0410329 6.33175e-12)
(1.03275 0.0292609 -1.99253e-11)
(1.02397 0.0172001 -2.42981e-11)
(1.02047 0.0066803 -1.68317e-11)
(1.02122 -0.00127061 -5.90739e-12)
(1.0249 -0.0063556 3.61447e-12)
(1.03011 -0.00878082 9.98544e-12)
(1.03565 -0.00901156 1.32768e-11)
(1.04057 -0.0075931 1.42414e-11)
(1.04421 -0.00506405 1.36774e-11)
(1.04617 -0.00192914 1.22075e-11)
(1.04632 0.00134251 1.0272e-11)
(1.0447 0.00434107 8.18684e-12)
(1.04169 0.0067413 6.18137e-12)
(1.03753 0.00833997 4.41381e-12)
(1.03309 0.00908127 2.97541e-12)
(1.02804 0.00894329 1.90614e-12)
(1.02447 0.00837699 1.18409e-12)
(1.01919 0.00621045 7.12522e-13)
(1.0001 -0.00231545 3.08699e-18)
(1.00144 -0.00684868 1.09347e-17)
(1.00447 -0.011676 1.06267e-17)
(1.00919 -0.0170765 6.27396e-18)
(1.01613 -0.0232454 5.17874e-17)
(1.02578 -0.0300843 -9.4983e-17)
(1.03873 -0.0371989 1.23253e-16)
(1.05522 -0.0434862 6.35972e-16)
(1.07487 -0.0477069 -1.74864e-15)
(1.09647 -0.0480735 -2.91416e-15)
(1.11696 -0.043661 4.06548e-15)
(1.13404 -0.0362653 1.94324e-14)
(1.14734 -0.0268389 3.73694e-14)
(1.15665 -0.0159169 4.26831e-14)
(1.16191 -0.00318807 2.84555e-14)
(1.16176 0.0122302 1.15816e-14)
(1.15371 0.0293466 7.04537e-16)
(1.13673 0.0449138 -3.90891e-15)
(1.11248 0.0554536 -5.51621e-15)
(1.08439 0.058746 -2.90527e-15)
(1.05641 0.0539995 -2.13868e-15)
(1.03236 0.0414652 -5.31657e-14)
(1.01578 0.0221788 1.12533e-13)
(1.00994 -0.00195812 7.20956e-13)
(1.01769 -0.0273978 -2.41436e-12)
(1.03982 -0.0480206 -1.40092e-11)
(1.07231 -0.0563359 -2.80258e-11)
(1.10555 -0.0476323 -3.0226e-11)
(1.12813 -0.0240201 -1.74135e-11)
(1.13301 0.00624249 -4.96443e-12)
(1.1204 0.033828 4.7703e-14)
(1.09563 0.0528864 7.3643e-13)
(1.06505 0.0617846 2.88832e-13)
(1.03365 0.0611894 -6.71412e-13)
(1.00488 0.0520735 2.38602e-13)
(0.981728 0.0347632 9.32845e-12)
(0.967665 0.00926715 5.64816e-12)
(0.966705 -0.0230672 -1.14363e-10)
(0.982493 -0.0571178 -4.82608e-10)
(1.01654 -0.0832324 -1.04599e-09)
(1.06489 -0.0904278 -1.4727e-09)
(1.11531 -0.0730192 -1.42068e-09)
(1.1509 -0.0357969 -9.30545e-10)
(1.15998 0.00813516 -3.84336e-10)
(1.14284 0.04533 -6.13393e-11)
(1.10894 0.0684238 3.63439e-11)
(1.06921 0.0768841 2.21364e-11)
(1.03108 0.0736332 -2.21007e-11)
(0.997927 0.0615807 -1.36467e-11)
(0.970948 0.0419961 2.06232e-10)
(0.951892 0.014677 7.33791e-10)
(0.945528 -0.020199 1.35348e-09)
(0.958505 -0.058674 1.6977e-09)
(0.993261 -0.0910894 1.74226e-09)
(1.04345 -0.105297 1.84964e-09)
(1.09608 -0.0935379 2.31449e-09)
(1.13744 -0.0574045 2.9572e-09)
(1.15762 -0.00763388 3.16742e-09)
(1.15264 0.0406356 2.55145e-09)
(1.1256 0.0747378 1.42671e-09)
(1.08542 0.0896384 4.24928e-10)
(1.04225 0.0877659 -8.79432e-11)
(1.00312 0.0745596 -1.19412e-10)
(0.971571 0.0535296 1.56438e-10)
(0.951013 0.0245819 5.41559e-10)
(0.947031 -0.0129265 8.67174e-10)
(0.964565 -0.0550703 1.06527e-09)
(1.00279 -0.0918964 1.18337e-09)
(1.05382 -0.111703 1.29413e-09)
(1.10584 -0.107179 1.42686e-09)
(1.14717 -0.0787839 1.58876e-09)
(1.16939 -0.0340615 1.77488e-09)
(1.1693 0.0157264 1.89335e-09)
(1.14896 0.0592772 1.7603e-09)
(1.11412 0.0883135 1.29749e-09)
(1.07198 0.0995862 6.73694e-10)
(1.02927 0.0948001 1.81428e-10)
(0.991399 0.0778127 9.19157e-12)
(0.963223 0.0510711 1.39891e-10)
(0.95018 0.015148 4.18175e-10)
(0.957096 -0.0277439 6.83722e-10)
(0.984856 -0.0705805 8.56366e-10)
(1.02867 -0.103038 9.36549e-10)
(1.07963 -0.1162 9.59504e-10)
(1.12772 -0.106381 9.56894e-10)
(1.16403 -0.0761578 9.4855e-10)
(1.18234 -0.0330603 9.50318e-10)
(1.18007 0.0131177 9.64321e-10)
(1.15905 0.0532597 9.50348e-10)
(1.12477 0.0811348 8.3944e-10)