/*--------------------------------*- C++ -*----------------------------------*\
  =========                 |
  \\      /  F ield         | OpenFOAM: The Open Source CFD Toolbox
   \\    /   O peration     | Website:  https://openfoam.org
    \\  /    A nd           | Version:  11
     \\/     M anipulation  |
\*---------------------------------------------------------------------------*/
FoamFile
{
    format      ascii;
    class       volVectorField;
    location    "12.876844";
    object      U_0;
}
// * * * * * * * * * * * * * * * * * * * * * * * * * * * * * * * * * * * * * //

dimensions      [0 1 -1 0 0 0 0];

internalField   nonuniform List<vector> 
7132
(
(1.00011 -0.000219913 3.06563e-18)
(1.0017 -0.000650771 1.12111e-17)
(1.00522 -0.00110112 1.21247e-17)
(1.01054 -0.00158808 1.50427e-17)
(1.0179 -0.00212077 1.99982e-17)
(1.0275 -0.00268256 2.04832e-17)
(1.03938 -0.00323398 1.89463e-17)
(1.05341 -0.00369375 1.68813e-17)
(1.06901 -0.00397135 1.46547e-17)
(1.0853 -0.00397354 1.256e-17)
(1.10094 -0.00364317 1.08818e-17)
(1.11462 -0.00304713 9.86251e-18)
(1.12544 -0.00223592 9.21479e-18)
(1.13263 -0.00124673 8.96387e-18)
(1.13555 -9.73131e-05 5.15387e-18)
(1.13357 0.00119505 1.91322e-18)
(1.12617 0.0025205 -3.3678e-19)
(1.11357 0.00366725 3.87114e-19)
(1.09693 0.00441238 -1.3598e-18)
(1.07828 0.00459902 -2.26451e-18)
(1.06006 0.00416238 -1.38216e-18)
(1.04484 0.00312707 -1.06467e-18)
(1.03489 0.00160445 -3.63927e-19)
(1.0319 -0.000202274 3.18918e-18)
(1.03653 -0.00197896 -2.54404e-17)
(1.04793 -0.00330327 -1.49553e-16)
(1.06334 -0.00374895 -2.72202e-16)
(1.07842 -0.00309476 -2.28144e-16)
(1.08858 -0.00149699 -9.73722e-17)
(1.09075 0.000561954 -1.85649e-17)
(1.08423 0.00251614 1.2272e-17)
(1.07055 0.00394895 1.07022e-17)
(1.05242 0.00466124 -7.39998e-17)
(1.03294 0.0046107 -1.46942e-16)
(1.01515 0.00382623 4.27015e-16)
(1.00192 0.00236355 2.04365e-15)
(0.995856 0.000324956 1.08219e-15)
(0.999034 -0.00206661 -1.8099e-14)
(1.01231 -0.00437645 -7.99845e-14)
(1.03427 -0.00597421 -1.77824e-13)
(1.06061 -0.00625641 -2.45998e-13)
(1.08498 -0.00498561 -2.24418e-13)
(1.10112 -0.00248713 -1.38858e-13)
(1.1053 0.000491384 -6.01133e-14)
(1.09733 0.00314993 -1.67721e-14)
(1.07996 0.00496252 -2.80499e-16)
(1.0573 0.00575778 1.2695e-14)
(1.03348 0.00559508 3.3755e-14)
(1.01208 0.00459728 2.09615e-14)
(0.996226 0.00285816 -7.4012e-14)
(0.988757 0.000468674 -1.58582e-13)
(0.992124 -0.0023584 7.07146e-15)
(1.00753 -0.00515198 7.5851e-13)
(1.0336 -0.00719139 2.09958e-12)
(1.06566 -0.0077494 3.43414e-12)
(1.09639 -0.00646889 4.15239e-12)
(1.11817 -0.00361722 3.96033e-12)
(1.12586 -1.11456e-05 2.60315e-12)
(1.11845 0.00335417 8.0284e-13)
(1.09886 0.00572905 -1.84902e-13)
(1.07221 0.00682041 -5.15212e-13)
(1.04379 0.00671422 -1.09429e-12)
(1.01798 0.00564892 -1.26468e-12)
(0.998095 0.00382197 3.58953e-12)
(0.986883 0.00134678 2.20851e-11)
(0.986802 -0.00162796 6.30982e-11)
(0.999484 -0.00474008 1.29757e-10)
(1.02452 -0.00735582 2.14303e-10)
(1.05844 -0.00873197 2.97818e-10)
(1.09481 -0.00833033 3.56429e-10)
(1.12577 -0.0060918 3.71317e-10)
(1.14434 -0.00250982 3.36972e-10)
(1.14656 0.00152939 2.63046e-10)
(1.13256 0.00505709 1.69926e-10)
(1.1062 0.00735802 8.24397e-11)
(1.07347 0.00816804 2.0358e-11)
(1.04043 0.00764117 -8.57888e-12)
(1.01182 0.00612041 -6.4117e-12)
(0.990899 0.00388613 2.2715e-11)
(0.980147 0.00108498 7.63905e-11)
(0.981698 -0.00211295 1.51518e-10)
(0.996727 -0.0053111 2.40814e-10)
(1.02418 -0.00787103 3.33021e-10)
(1.06 -0.00912914 4.16175e-10)
(1.09771 -0.00869075 4.80294e-10)
(1.13004 -0.00660403 5.17671e-10)
(1.15096 -0.00333186 5.21915e-10)
(1.15699 0.000420242 4.87655e-10)
(1.14778 0.00390609 4.11948e-10)
(1.12583 0.00650508 3.00657e-10)
(1.09573 0.0078298 1.75651e-10)
(1.06307 0.00778022 7.10421e-11)
(1.03325 0.00650123 1.6917e-11)
(1.01072 0.00424235 2.33146e-11)
(0.998972 0.00125656 7.83704e-11)
(1.00051 -0.00213747 1.59595e-10)
(1.01626 -0.00543512 2.46201e-10)
(1.04459 -0.00797662 3.24778e-10)
(1.08097 -0.00916985 3.89182e-10)
(1.11888 -0.00874835 4.38315e-10)
(1.15165 -0.00688676 4.73882e-10)
(1.17425 -0.00412466 4.98543e-10)
(1.18447 -0.00116471 5.14123e-10)
(1.18304 0.00135192 5.1939e-10)
(1.17291 0.00301195 5.08133e-10)
(1.15814 0.00367175 4.70996e-10)
(1.14281 0.00338089 4.02085e-10)
(1.13053 0.00227037 3.06495e-10)
(1.12428 0.000492905 2.01577e-10)
(1.12644 -0.00175279 1.09358e-10)
(1.13842 -0.00416594 4.60824e-11)
(1.1602 -0.00633115 1.68472e-11)
(1.18983 -0.00778477 1.7332e-11)
(1.22348 -0.00814091 3.88854e-11)
(1.25604 -0.00721561 7.28176e-11)
(1.28217 -0.0050924 1.12415e-10)
(1.29746 -0.00210883 1.53263e-10)
(1.29937 0.00122216 1.9284e-10)
(1.28766 0.00433042 2.29809e-10)
(1.26439 0.00672357 2.63702e-10)
(1.2333 0.00808802 2.95071e-10)
(1.19899 0.00833286 3.24874e-10)
(1.16592 0.0075785 3.52087e-10)
(1.13769 0.00610129 3.7103e-10)
(1.11653 0.00424462 3.72117e-10)
(1.10325 0.00231816 3.47147e-10)
(1.09759 0.000529187 2.95269e-10)
(1.09873 -0.0010196 2.24788e-10)
(1.10558 -0.00227835 1.49748e-10)
(1.11691 -0.00319418 8.42171e-11)
(1.1312 -0.0036892 3.77726e-11)
(1.14655 -0.00367874 1.38428e-11)
(1.16077 -0.00310829 1.04653e-11)
(1.17154 -0.00198687 2.21429e-11)
(1.17677 -0.000407204 4.16686e-11)
(1.17491 0.00144693 6.14284e-11)
(1.16531 0.00331055 7.44311e-11)
(1.14855 0.00487584 7.57679e-11)
(1.12642 0.00586394 6.44539e-11)
(1.10171 0.0061121 4.434e-11)
(1.07754 0.00563251 2.25082e-11)
(1.05662 0.00460395 5.55165e-12)
(1.04066 0.00329799 -3.56661e-12)
(1.03019 0.00198269 -5.86638e-12)
(1.02477 0.000852763 -4.38261e-12)
(1.02337 7.5947e-06 -1.94648e-12)
(1.02474 -0.000533169 -1.15401e-13)
(1.0277 -0.000799136 7.4564e-13)
(1.03123 -0.000841472 8.99655e-13)
(1.03453 -0.000715862 7.37804e-13)
(1.03704 -0.00047585 5.32281e-13)
(1.0384 -0.000171513 3.94712e-13)
(1.03846 0.000150484 3.29723e-13)
(1.0372 0.0004488 3.01486e-13)
(1.03489 0.000691032 2.76612e-13)
(1.03161 0.000854899 2.39783e-13)
(1.02811 0.000935639 1.91779e-13)
(1.02391 0.000925971 1.41539e-13)
(1.02101 0.000875226 9.85656e-14)
(1.01625 0.000658936 6.04106e-14)
(1.00011 -0.000657822 4.51512e-20)
(1.00168 -0.00194728 5.80462e-19)
(1.00518 -0.00329631 1.14545e-18)
(1.01047 -0.00475849 1.7112e-18)
(1.01782 -0.00636227 2.41743e-18)
(1.02743 -0.00805904 3.09476e-18)
(1.03939 -0.00973085 3.44765e-18)
(1.05358 -0.0111302 4.31601e-18)
(1.06943 -0.0119813 3.40533e-18)
(1.08604 -0.0119946 2.73735e-18)
(1.10198 -0.0109943 3.91666e-18)
(1.11589 -0.00919705 6.46856e-18)
(1.1269 -0.00676152 4.64307e-18)
(1.13424 -0.00380357 3.02877e-18)
(1.1373 -0.000374193 2.98538e-18)
(1.1354 0.00349441 4.0214e-18)
(1.12794 0.00748304 5.11171e-18)
(1.11506 0.0109549 5.99362e-18)
(1.09796 0.0132322 6.56804e-18)
(1.07872 0.0138332 6.61449e-18)
(1.0599 0.0125527 5.13877e-18)
(1.04412 0.00945439 4.69301e-18)
(1.03376 0.00486319 6.20826e-18)
(1.0306 -0.000616709 -4.21266e-17)
(1.03544 -0.00603824 -1.03594e-16)
(1.04747 -0.0101088 2.38462e-16)
(1.06386 -0.0115059 5.651e-16)
(1.07996 -0.00953206 3.19461e-16)
(1.09086 -0.00465898 8.26898e-17)
(1.09326 0.0016284 3.07331e-17)
(1.0865 0.00759241 4.37582e-17)
(1.07225 0.0119626 -4.73749e-17)
(1.05341 0.014143 -1.78764e-16)
(1.03319 0.0140174 6.99323e-16)
(1.01468 0.0116785 1.30094e-15)
(1.00078 0.0072865 -9.77584e-15)
(0.994174 0.00112712 -2.61738e-14)
(0.997153 -0.00615187 9.62475e-14)
(1.01079 -0.0132375 6.57371e-13)
(1.03375 -0.0181864 1.56759e-12)
(1.06153 -0.0191163 2.03791e-12)
(1.08731 -0.0152754 1.61096e-12)
(1.10434 -0.00765886 7.98618e-13)
(1.10867 0.0014301 2.09826e-13)
(1.1002 0.00953556 -2.88194e-14)
(1.08198 0.0150531 -3.81406e-14)
(1.05838 0.0174762 3.90253e-14)
(1.03366 0.0170055 -3.72806e-14)
(1.01144 0.0140242 -6.26118e-13)
(0.994825 0.00880549 -9.69131e-13)
(0.98673 0.00159096 3.7911e-12)
(0.989813 -0.00701297 2.43947e-11)
(1.00552 -0.0155824 7.11624e-11)
(1.03263 -0.0218881 1.36001e-10)
(1.0663 -0.0236625 1.85878e-10)
(1.09876 -0.0197907 1.89236e-10)
(1.12179 -0.0110989 1.47007e-10)
(1.12988 -9.919e-05 8.69563e-11)
(1.12201 0.0101624 3.63758e-11)
(1.10141 0.0173926 7.35908e-12)
(1.07357 0.0207063 -3.60122e-12)
(1.04408 0.0203901 -6.07361e-12)
(1.01735 0.0171949 -4.33194e-12)
(0.996637 0.0117274 1.04106e-11)
(0.984594 0.0043078 5.95379e-11)
(0.983751 -0.00465815 1.65361e-10)
(0.995979 -0.0141079 3.32321e-10)
(1.02113 -0.0221249 5.35567e-10)
(1.05582 -0.0264306 7.28106e-10)
(1.09343 -0.0253514 8.57573e-10)
(1.12578 -0.0186698 8.82058e-10)
(1.14555 -0.0078616 7.87559e-10)
(1.14848 0.00439048 6.00712e-10)
(1.1346 0.0151368 3.77627e-10)
(1.10782 0.0221822 1.78845e-10)
(1.07432 0.024705 4.4351e-11)
(1.04037 0.0231723 -1.68332e-11)
(1.01085 0.0186378 -1.58915e-11)
(0.989029 0.0119514 3.39779e-11)
(0.977491 0.00352704 1.24918e-10)
(0.978631 -0.00616155 2.48207e-10)
(0.993924 -0.0159206 3.86816e-10)
(1.02237 -0.0237738 5.18547e-10)
(1.05959 -0.0276535 6.25837e-10)
(1.09859 -0.0263422 7.00359e-10)
(1.13167 -0.0200155 7.38261e-10)
(1.15268 -0.0101208 7.33144e-10)
(1.15834 0.00119196 6.75979e-10)
(1.14858 0.0116874 5.62882e-10)
(1.1261 0.0195199 4.05054e-10)
(1.09555 0.0235408 2.3402e-10)
(1.06246 0.0234501 9.38576e-11)
(1.03217 0.0196638 2.13549e-11)
(1.00921 0.0128944 2.83056e-11)
(0.997307 0.00386074 9.96364e-11)
(0.999325 -0.0064937 2.05797e-10)
(1.01641 -0.0166031 3.1721e-10)
(1.04672 -0.0243877 4.13143e-10)
(1.08521 -0.0279885 4.84137e-10)
(1.12475 -0.0265937 5.30031e-10)
(1.15824 -0.0207838 5.56085e-10)
(1.18054 -0.0122629 5.69053e-10)
(1.18957 -0.0032066 5.73819e-10)
(1.18639 0.00443875 5.70595e-10)
(1.17432 0.00943695 5.53282e-10)
(1.15776 0.0113727 5.11423e-10)
(1.14101 0.0104192 4.37545e-10)
(1.12779 0.00699093 3.35848e-10)
(1.12116 0.00155092 2.24155e-10)
(1.12352 -0.00531659 1.26087e-10)
(1.13641 -0.0127147 5.96894e-11)
(1.15978 -0.0193754 3.11055e-11)
(1.19154 -0.0238619 3.5796e-11)
(1.22749 -0.0249695 6.3771e-11)
(1.26208 -0.0221258 1.04491e-10)
(1.28963 -0.0156015 1.49563e-10)
(1.30552 -0.00646062 1.9344e-10)
(1.30723 0.00371239 2.33062e-10)
(1.29466 0.0131842 2.67212e-10)
(1.27008 0.0204641 2.96117e-10)
(1.23748 0.0246063 3.21361e-10)
(1.20167 0.0253455 3.45056e-10)
(1.16728 0.0230583 3.67178e-10)
(1.13795 0.0185891 3.82574e-10)
(1.11591 0.012977 3.81523e-10)
(1.10196 0.00715194 3.55235e-10)
(1.09584 0.00173242 3.02422e-10)
(1.09673 -0.00297451 2.31633e-10)
(1.10357 -0.00681337 1.57886e-10)
(1.1151 -0.00961356 9.63678e-11)
(1.1297 -0.0111306 5.71194e-11)
(1.14537 -0.0111076 4.2846e-11)
(1.15983 -0.00938822 4.96775e-11)
(1.17073 -0.00601302 6.95616e-11)
(1.17597 -0.00127036 9.29803e-11)
(1.17407 0.00428867 1.11111e-10)
(1.16445 0.00987583 1.17261e-10)
(1.1477 0.0145748 1.08275e-10)
(1.12562 0.0175523 8.56812e-11)
(1.10099 0.0183183 5.56233e-11)
(1.07689 0.0169029 2.65547e-11)
(1.05603 0.0138341 5.36737e-12)
(1.04012 0.00992078 -5.47579e-12)
(1.02972 0.00596619 -7.86502e-12)
(1.02442 0.00255862 -5.70007e-12)
(1.02319 2.86688e-06 -2.44344e-12)
(1.02478 -0.00163594 1.52871e-14)
(1.02796 -0.00244294 1.22422e-12)
(1.03169 -0.00257113 1.49939e-12)
(1.03517 -0.00218917 1.32738e-12)
(1.0378 -0.00145994 1.05926e-12)
(1.03923 -0.000535645 8.49702e-13)
(1.03931 0.000441986 7.16944e-13)
(1.03802 0.0013478 6.24845e-13)
(1.03564 0.00208309 5.37532e-13)
(1.03228 0.00258116 4.40094e-13)
(1.02869 0.00282607 3.36565e-13)
(1.0244 0.00279844 2.4021e-13)
(1.02143 0.00264444 1.6315e-13)
(1.01661 0.00198987 9.97812e-14)
(1.00011 -0.00109025 5.52054e-22)
(1.00165 -0.00322769 5.94847e-21)
(1.00509 -0.0054695 5.43736e-21)
(1.01032 -0.00791083 7.43235e-21)
(1.01763 -0.0106043 -8.18481e-20)
(1.02727 -0.0134729 -2.45086e-20)
(1.03939 -0.0163215 1.10932e-19)
(1.05392 -0.0187243 -1.86588e-18)
(1.07028 -0.0202072 -1.47709e-18)
(1.08754 -0.0202498 8.25086e-18)
(1.10409 -0.0185428 1.05431e-17)
(1.11847 -0.0154981 -1.49239e-17)
(1.12983 -0.0113987 -4.78816e-17)
(1.13746 -0.0064393 -5.09474e-17)
(1.14078 -0.000673856 -2.71068e-17)
(1.13902 0.00588759 -4.57162e-18)
(1.1314 0.0127101 8.07643e-18)
(1.11792 0.0186721 1.32442e-17)
(1.09986 0.0225867 1.52648e-17)
(1.07945 0.0236294 1.08367e-17)
(1.05941 0.021461 -1.82489e-18)
(1.04257 0.016193 4.82583e-17)
(1.03146 0.00836162 -8.05996e-17)
(1.02807 -0.00103918 -1.60947e-15)
(1.03343 -0.0104151 3.54581e-15)
(1.04685 -0.0175211 3.70105e-14)
(1.06528 -0.0200055 7.2982e-14)
(1.08347 -0.0166014 6.13794e-14)
(1.09575 -0.00813413 2.51178e-14)
(1.09843 0.00276162 4.40427e-15)
(1.09094 0.0130306 -9.41086e-16)
(1.07536 0.0204935 -1.67534e-15)
(1.05498 0.0241864 4.22412e-16)
(1.03324 0.0239719 1.03546e-14)
(1.01333 0.0200336 -6.17694e-15)
(0.998189 0.0126184 -1.53062e-13)
(0.990704 0.00214256 -1.94219e-13)
(0.993511 -0.0103656 1.59689e-12)
(1.00814 -0.0226728 8.0122e-12)
(1.0334 -0.0313572 1.80905e-11)
(1.06426 -0.0330505 2.45794e-11)
(1.09285 -0.0263914 2.15775e-11)
(1.11145 -0.0131494 1.23724e-11)
(1.1157 0.00258767 4.38034e-12)
(1.10584 0.016509 4.60686e-13)
(1.08558 0.0258734 -4.24364e-13)
(1.05991 0.0299076 -1.28646e-13)
(1.03337 0.0290549 -8.06733e-13)
(1.00959 0.0240133 -4.04438e-12)
(0.991633 0.0152157 -3.0605e-12)
(0.982461 0.00298322 3.21198e-11)
(0.984952 -0.0117408 1.55774e-10)
(1.00093 -0.0265559 4.02251e-10)
(1.02955 -0.0375927 7.18063e-10)
(1.06601 -0.0408313 9.59954e-10)
(1.10193 -0.034221 9.90758e-10)
(1.12788 -0.0191617 7.94367e-10)
(1.13721 -9.06097e-05 4.89374e-10)
(1.12862 0.0176127 2.18783e-10)
(1.10592 0.0299523 5.35527e-11)
(1.07558 0.0354754 -1.37705e-11)
(1.04387 0.0348104 -2.65225e-11)
(1.01537 0.0293626 -1.4323e-11)
(0.993134 0.0202019 3.24743e-11)
(0.979631 0.00779764 1.52071e-10)
(0.977566 -0.0073062 3.70778e-10)
(0.989372 -0.0234188 6.65898e-10)
(1.01539 -0.0372787 9.7568e-10)
(1.05211 -0.0449021 1.24369e-09)
(1.09223 -0.0433302 1.43537e-09)
(1.12681 -0.0321423 1.51226e-09)
(1.14809 -0.0138333 1.42363e-09)
(1.1517 0.00703169 1.15455e-09)
(1.1376 0.0254031 7.70992e-10)
(1.10983 0.0374943 3.90832e-10)
(1.07486 0.041876 1.13947e-10)
(1.03928 0.0393633 -2.18583e-11)
(1.00814 0.0317865 -3.08344e-11)
(0.984887 0.0205652 5.57762e-11)
(0.972405 0.00629321 2.08295e-10)
(0.973662 -0.010316 3.94176e-10)
(0.990549 -0.0271722 5.74899e-10)
(1.02183 -0.0407152 7.18924e-10)
(1.06225 -0.0472587 8.15738e-10)
(1.10374 -0.0447403 8.74491e-10)
(1.13788 -0.0336398 9.08071e-10)
(1.15838 -0.0166399 9.14128e-10)
(1.1624 0.00249928 8.69515e-10)
(1.15059 0.0200438 7.49761e-10)
(1.12625 0.0330213 5.57021e-10)
(1.09429 0.0396389 3.3192e-10)
(1.06017 0.0394552 1.3944e-10)
(1.02909 0.0331161 3.60567e-11)
(1.00566 0.0216752 4.16851e-11)
(0.994087 0.0062097 1.35112e-10)
(0.997783 -0.0116744 2.71461e-10)
(1.01797 -0.029129 4.06169e-10)
(1.05218 -0.0423881 5.11266e-10)
(1.0943 -0.0481985 5.78392e-10)
(1.13629 -0.0452694 6.12608e-10)
(1.17055 -0.0347694 6.24592e-10)
(1.1919 -0.0197666 6.2528e-10)
(1.19853 -0.00406783 6.22206e-10)
(1.19199 0.00898604 6.16268e-10)
(1.17621 0.017326 6.00027e-10)
(1.15619 0.0203209 5.59827e-10)
(1.1367 0.0183546 4.84786e-10)
(1.12172 0.0121927 3.77775e-10)
(1.11448 0.00262752 2.58397e-10)
(1.11758 -0.00937635 1.54001e-10)
(1.13264 -0.0222934 8.59251e-11)
(1.15948 -0.0338983 6.13097e-11)
(1.19542 -0.041643 7.41206e-11)
(1.23545 -0.0434187 1.11504e-10)
(1.27329 -0.0382828 1.6015e-10)
(1.3028 -0.0267956 2.09997e-10)
(1.31926 -0.0108822 2.55129e-10)
(1.32025 0.00668415 2.92858e-10)
(1.30592 0.0229279 3.2252e-10)
(1.27886 0.0353187 3.44918e-10)
(1.2435 0.042281 3.6236e-10)
(1.20502 0.043418 3.78004e-10)
(1.1683 0.0394268 3.93009e-10)
(1.1371 0.0317783 4.02923e-10)
(1.11364 0.0222379 3.97805e-10)
(1.09866 0.0123559 3.68195e-10)
(1.0919 0.00314652 3.12807e-10)
(1.09257 -0.00488577 2.41545e-10)
(1.0996 -0.0114611 1.71567e-10)
(1.11165 -0.0162558 1.19536e-10)
(1.12692 -0.0188293 9.51671e-11)
(1.14322 -0.018749 9.89448e-11)
(1.15805 -0.0157841 1.23595e-10)
(1.169 -0.0100511 1.57311e-10)
(1.17407 -0.00207341 1.87232e-10)
(1.17188 0.00721261 2.02484e-10)
(1.16201 0.016502 1.96536e-10)
(1.14514 0.0242915 1.68924e-10)
(1.1231 0.029216 1.25526e-10)
(1.09861 0.0304712 7.68057e-11)
(1.07475 0.0281051 3.4014e-11)
(1.05415 0.0229865 4.78695e-12)
(1.03853 0.0164511 -9.29764e-12)
(1.02848 0.00983321 -1.1791e-11)
(1.02358 0.00411915 -8.24958e-12)
(1.02281 -0.000170954 -3.33475e-12)
(1.02489 -0.00291731 4.33719e-13)
(1.02855 -0.00425648 2.426e-12)
(1.03271 -0.00444491 3.03449e-12)
(1.03652 -0.00376927 2.90471e-12)
(1.03937 -0.00250793 2.52789e-12)
(1.0409 -0.000920989 2.14574e-12)
(1.04097 0.000749864 1.81744e-12)
(1.03958 0.00229232 1.52415e-12)
(1.03704 0.00353879 1.24025e-12)
(1.03348 0.00437884 9.61073e-13)
(1.02969 0.00478491 7.00835e-13)
(1.02524 0.00473018 4.81369e-13)
(1.02213 0.00445965 3.17241e-13)
(1.01721 0.00334147 1.93555e-13)
(1.00011 -0.00151321 -4.41666e-20)
(1.0016 -0.00447961 -6.76154e-19)
(1.00495 -0.00760367 -1.33097e-18)
(1.01007 -0.0110297 -2.15293e-18)
(1.01731 -0.0148432 -3.34938e-18)
(1.02698 -0.0189457 -2.1245e-18)
(1.03934 -0.0230676 -9.21174e-18)
(1.05436 -0.0265852 -1.13816e-17)
(1.07152 -0.0288034 3.43882e-17)
(1.0898 -0.0289071 2.23781e-17)
(1.1073 -0.0264273 -1.41812e-16)
(1.12238 -0.02206 -3.22691e-16)
(1.13426 -0.0162475 -3.76319e-16)
(1.14233 -0.0092773 -2.49012e-16)
(1.14606 -0.00117375 -4.91084e-17)
(1.14457 0.00817053 6.10968e-17)
(1.13671 0.0180249 8.43717e-17)
(1.1223 0.0267145 6.94112e-17)
(1.10272 0.0324602 4.26458e-17)
(1.08047 0.0340469 -3.21674e-17)
(1.05857 0.0309859 -4.2822e-17)
(1.04008 0.0234292 2.40898e-16)
(1.02782 0.0121109 -2.02145e-15)
(1.02406 -0.0015989 -4.99277e-15)
(1.03021 -0.01543 3.20804e-14)
(1.04581 -0.026045 1.26627e-13)
(1.06747 -0.0298274 2.39527e-13)
(1.08897 -0.0247723 2.6594e-13)
(1.10342 -0.0121257 1.52683e-13)
(1.10647 0.0040562 4.17395e-14)
(1.09774 0.0191396 -3.82162e-15)
(1.07999 0.0299438 -1.13453e-14)
(1.05719 0.0351966 8.98876e-15)
(1.03313 0.0348401 3.88592e-14)
(1.01109 0.029205 -1.17941e-13)
(0.994099 0.0185999 -5.74682e-13)
(0.985267 0.00347436 1.49301e-13)
(0.987821 -0.0148581 5.90902e-12)
(1.00404 -0.0331767 1.8456e-11)
(1.03298 -0.0462606 3.47233e-11)
(1.06882 -0.0488618 4.91042e-11)
(1.10192 -0.0388706 5.19314e-11)
(1.1229 -0.0190639 3.82729e-11)
(1.12682 0.00426276 1.88283e-11)
(1.11451 0.024611 5.00128e-12)
(1.09089 0.0380176 -4.62576e-13)
(1.06192 0.0435754 -1.17761e-12)
(1.0326 0.0421581 -4.81171e-12)
(1.00654 0.0348915 -1.3359e-11)
(0.986573 0.0223748 5.72328e-12)
(0.9755 0.00494337 1.45124e-10)
(0.97631 -0.0162293 5.11493e-10)
(0.9915 -0.0378695 1.10066e-09)
(1.02119 -0.0544405 1.7548e-09)
(1.061 -0.0598794 2.25621e-09)
(1.10189 -0.0507393 2.40747e-09)
(1.13283 -0.0287277 2.10311e-09)
(1.14532 -0.000442202 1.4528e-09)
(1.13697 0.0258233 7.48837e-10)
(1.11201 0.0439088 2.3949e-10)
(1.07825 0.0517247 -9.31123e-12)
(1.04324 0.0504863 -7.29732e-11)
(1.01204 0.0425569 -3.83424e-11)
(0.987492 0.0295994 7.69443e-11)
(0.971902 0.0121017 2.98865e-10)
(0.968512 -0.00951349 6.1571e-10)
(0.980762 -0.0330093 9.49521e-10)
(1.00939 -0.0535 1.22258e-09)
(1.05006 -0.0648741 1.42461e-09)
(1.09394 -0.0627178 1.5955e-09)
(1.13092 -0.0465895 1.74596e-09)
(1.153 -0.020274 1.79695e-09)
(1.15621 0.00966915 1.62787e-09)
(1.14098 0.0360814 1.2181e-09)
(1.11158 0.0535449 6.97718e-10)
(1.07463 0.0599689 2.51863e-10)
(1.03692 0.0565186 2.13213e-13)
(1.00372 0.0458267 -3.97167e-11)
(0.978759 0.0298226 8.39593e-11)
(0.965618 0.00915068 2.99233e-10)
(0.968055 -0.0152189 5.31352e-10)
(0.988138 -0.0399961 7.20809e-10)
(1.0238 -0.059633 8.41101e-10)
(1.06845 -0.0686283 8.99703e-10)
(1.11288 -0.0641729 9.23311e-10)
(1.14805 -0.0473318 9.39979e-10)
(1.16756 -0.0223584 9.59091e-10)
(1.16899 0.00511433 9.54128e-10)
(1.15382 0.0297787 8.74724e-10)
(1.12629 0.0476677 6.92596e-10)
(1.09187 0.0565677 4.40169e-10)
(1.05607 0.0560377 2.02319e-10)
(1.02393 0.0469092 6.52626e-11)
(1.00023 0.0303946 6.5116e-11)
(0.989736 0.00781109 1.74512e-10)
(0.99633 -0.018422 3.30151e-10)
(1.02092 -0.0437992 4.73414e-10)
(1.05988 -0.0625648 5.74234e-10)
(1.1058 -0.0700586 6.29875e-10)
(1.14981 -0.0647291 6.51341e-10)
(1.18415 -0.0485871 6.52169e-10)
(1.20384 -0.0262402 6.44307e-10)
(1.20742 -0.0032342 6.36857e-10)
(1.19682 0.0156088 6.32652e-10)
(1.17655 0.0273345 6.23749e-10)
(1.15226 0.0311205 5.9259e-10)
(1.1293 0.0276445 5.2321e-10)
(1.1121 0.0180974 4.16174e-10)
(1.10428 0.00362581 2.93484e-10)
(1.1088 -0.0143919 1.87534e-10)
(1.12732 -0.033663 1.23429e-10)
(1.15907 -0.0507671 1.08335e-10)
(1.20023 -0.0618563 1.33182e-10)
(1.24464 -0.0639168 1.81312e-10)
(1.28536 -0.0558068 2.36632e-10)
(1.31619 -0.0385848 2.87913e-10)
(1.33266 -0.0151729 3.29672e-10)
(1.33257 0.0104066 3.60892e-10)
(1.31627 0.033892 3.82737e-10)
(1.2866 0.0516697 3.971e-10)
(1.24827 0.0615159 4.06638e-10)
(1.20684 0.0629317 4.14752e-10)
(1.16749 0.0570062 4.23069e-10)
(1.13415 0.0459141 4.27352e-10)
(1.10906 0.0321945 4.17213e-10)
(1.09294 0.0180204 3.82835e-10)
(1.08553 0.00478209 3.24046e-10)
(1.08609 -0.00682078 2.53483e-10)
(1.09356 -0.0163511 1.9091e-10)
(1.10645 -0.0232763 1.53345e-10)
(1.12269 -0.026918 1.48152e-10)
(1.13976 -0.026671 1.72221e-10)
(1.15496 -0.0222822 2.1514e-10)
(1.16581 -0.0140198 2.62797e-10)
(1.17042 -0.00270394 3.00051e-10)
(1.1677 0.0103212 3.13568e-10)
(1.15742 0.0232507 2.95596e-10)
(1.14039 0.0340334 2.47193e-10)
(1.11848 0.0408111 1.78651e-10)
(1.09436 0.0424871 1.05981e-10)
(1.07097 0.0391301 4.47411e-11)
(1.05092 0.0319373 4.26658e-12)
(1.03589 0.0227565 -1.45852e-11)
(1.02645 0.0134454 -1.73995e-11)
(1.02224 0.00539291 -1.19264e-11)
(1.0222 -0.000653645 -4.4848e-12)
(1.02503 -0.00450811 1.47016e-12)
(1.02941 -0.00635362 4.95967e-12)
(1.03418 -0.00655286 6.37385e-12)
(1.03847 -0.00551793 6.50089e-12)
(1.04164 -0.00365169 6.00022e-12)
(1.04331 -0.00133072 5.25727e-12)
(1.04336 0.00109555 4.44113e-12)
(1.04182 0.0033219 3.6163e-12)
(1.03904 0.00510784 2.81882e-12)
(1.03519 0.00629969 2.08646e-12)
(1.03111 0.006859 1.45773e-12)
(1.0264 0.00675811 9.651e-13)
(1.02309 0.00634593 6.1715e-13)
(1.01804 0.00472169 3.75659e-13)
(1.00011 -0.00192157 -3.32255e-18)
(1.00154 -0.00568811 -1.03675e-17)
(1.00474 -0.00967692 -9.82228e-18)
(1.0097 -0.0140928 -1.35734e-17)
(1.01682 -0.019067 -1.14735e-17)
(1.02651 -0.0244913 -1.06486e-17)
(1.03915 -0.0300271 -6.17572e-17)
(1.05484 -0.0348256 9.19753e-17)
(1.07309 -0.0379389 1.98854e-16)
(1.09281 -0.0381488 -6.51701e-16)
(1.11163 -0.0347849 -1.44905e-15)
(1.12763 -0.0289702 -1.97598e-17)
(1.14018 -0.0213531 2.7916e-15)
(1.14879 -0.0123225 3.92881e-15)
(1.15311 -0.00178776 2.82684e-15)
(1.15205 0.0105927 1.29971e-15)
(1.14394 0.0238822 2.46722e-16)
(1.1283 0.0356935 -2.34964e-16)
(1.10665 0.043516 -4.84659e-16)
(1.08187 0.0457071 -6.87639e-16)
(1.05738 0.0416529 1.30197e-16)
(1.0366 0.0315696 -4.98241e-15)
(1.02266 0.0163758 -7.04763e-15)
(1.01829 -0.00222911 1.23825e-13)
(1.02544 -0.0212886 -1.90411e-13)
(1.04408 -0.036166 -2.74045e-12)
(1.07039 -0.0416029 -5.57505e-12)
(1.09666 -0.0345796 -4.62867e-12)
(1.11423 -0.0168671 -1.75237e-12)
(1.11773 0.00562842 -2.10421e-13)
(1.10714 0.0262805 8.46092e-14)
(1.08628 0.040767 4.09162e-14)
(1.06008 0.0476152 5.31315e-14)
(1.03284 0.047018 -4.73336e-14)
(1.00792 0.0395474 -4.64348e-13)
(0.98838 0.0255329 5.0317e-13)
(0.977612 0.00529078 3.91632e-12)
(0.979523 -0.0197367 -6.90283e-12)
(0.9972 -0.0452469 -7.022e-11)
(1.03028 -0.0637612 -1.80748e-10)
(1.07265 -0.0675391 -2.4604e-10)
(1.11271 -0.05343 -1.95957e-10)
(1.13808 -0.0255709 -8.66187e-11)
(1.14216 0.00681292 -9.60309e-12)
(1.12651 0.0344904 1.31019e-11)
(1.09802 0.0521686 8.78548e-12)
(1.06439 0.0590443 -2.42483e-13)
(1.0313 0.056739 -1.5354e-11)
(1.00224 0.0470229 -2.37549e-11)
(0.979433 0.0307369 6.65757e-11)
(0.965189 0.00812815 4.07922e-10)
(0.9629 -0.019722 1.0367e-09)
(0.976639 -0.0489838 1.75727e-09)
(1.00792 -0.0723538 2.35697e-09)
(1.05215 -0.081205 2.82364e-09)
(1.09881 -0.0701468 3.16985e-09)
(1.13538 -0.0408584 3.18282e-09)
(1.15202 -0.00212894 2.62534e-09)
(1.14508 0.0342837 1.6456e-09)
(1.11851 0.0593072 6.93635e-10)
(1.08118 0.0698483 9.5503e-11)
(1.04217 0.0679039 -1.2102e-10)
(1.00741 0.0572301 -7.76332e-11)
(0.979781 0.0402728 1.32626e-10)
(0.961834 0.0172963 4.54502e-10)
(0.957885 -0.0117227 7.99449e-10)
(0.972413 -0.0438501 1.06623e-09)
(1.00577 -0.0719347 1.226e-09)
(1.0519 -0.0872003 1.33002e-09)
(1.10012 -0.0837803 1.4504e-09)
(1.13921 -0.0616619 1.62722e-09)
(1.16104 -0.0264476 1.80976e-09)
(1.16235 0.0130726 1.83397e-09)
(1.14456 0.0477327 1.55368e-09)
(1.11256 0.070663 1.01577e-09)
(1.07314 0.079188 4.44439e-10)
(1.03304 0.0748068 6.55709e-11)
(0.997596 0.0608614 -2.81919e-11)
(0.971067 0.0396141 1.15568e-10)
(0.95796 0.0116558 3.75666e-10)
(0.962736 -0.0215609 6.31166e-10)
(0.987057 -0.0550395 8.11116e-10)
(1.02747 -0.0808846 9.0428e-10)
(1.076 -0.0918202 9.34872e-10)
(1.12273 -0.0845572 9.34726e-10)
(1.15849 -0.0609807 9.32254e-10)
(1.17694 -0.0270913 9.45854e-10)
(1.17575 0.00939294 9.62981e-10)
(1.15692 0.0414019 9.27736e-10)
(1.12561 0.0639888 7.81722e-10)
(1.08805 0.0747371 5.32193e-10)
(1.05006 0.073412 2.69313e-10)
(1.01674 0.0610234 1.06109e-10)
(0.993118 0.0387723 9.7679e-11)
(0.984488 0.00817346 2.13073e-10)
(0.994878 -0.0272508 3.7426e-10)
(1.02433 -0.0609017 5.14168e-10)
(1.06774 -0.0848421 6.04853e-10)
(1.11645 -0.093184 6.49732e-10)
(1.16118 -0.0844611 6.63651e-10)
(1.1944 -0.0617851 6.59959e-10)
(1.21163 -0.0313874 6.48499e-10)
(1.21183 -0.000543249 6.37987e-10)
(1.19721 0.0244202 6.33753e-10)
(1.17263 0.0395978 6.29944e-10)
(1.14418 0.0439384 6.0722e-10)
(1.1178 0.0384268 5.44959e-10)
(1.09853 0.024699 4.41181e-10)
(1.09064 0.00428156 3.20418e-10)
(1.09754 -0.0208913 2.20006e-10)
(1.12061 -0.0474266 1.67454e-10)
(1.15775 -0.0703557 1.67896e-10)
(1.20355 -0.0844413 2.08027e-10)
(1.25082 -0.0860069 2.67694e-10)
(1.29255 -0.074076 3.29047e-10)
(1.32312 -0.0504453 3.80327e-10)
(1.33869 -0.0190626 4.1633e-10)
(1.33745 0.0148865 4.37426e-10)
(1.31976 0.0459144 4.47237e-10)
(1.28837 0.0693092 4.5007e-10)
(1.24801 0.0821441 4.49889e-10)
(1.20441 0.0837893 4.50301e-10)
(1.163 0.0757558 4.52559e-10)
(1.1279 0.0609872 4.51567e-10)
(1.10143 0.0428427 4.35882e-10)
(1.08436 0.0241217 3.95826e-10)
(1.07653 0.00657322 3.33743e-10)
(1.07728 -0.00889813 2.65953e-10)
(1.08555 -0.0216378 2.13987e-10)
(1.09961 -0.0308235 1.92884e-10)
(1.11703 -0.0354915 2.05588e-10)
(1.13489 -0.0348832 2.45146e-10)
(1.15028 -0.0288047 2.99903e-10)
(1.16075 -0.017782 3.56551e-10)
(1.16461 -0.00301437 4.0028e-10)
(1.16107 0.0137225 4.15715e-10)
(1.15023 0.0301581 3.91771e-10)
(1.13308 0.0437579 3.27899e-10)
(1.11149 0.0522305 2.36738e-10)
(1.08802 0.0542198 1.3978e-10)
(1.06548 0.0498161 5.8171e-11)
(1.04633 0.0405263 4.38194e-12)
(1.03221 0.0286857 -2.05931e-11)
(1.02369 0.0166614 -2.41396e-11)
(1.02041 0.00624709 -1.63257e-11)
(1.02134 -0.00156908 -5.38569e-12)
(1.02511 -0.00652073 3.9969e-12)
(1.03036 -0.00883189 1.01994e-11)
(1.03589 -0.00897472 1.33531e-11)
(1.04076 -0.00749481 1.42253e-11)
(1.04434 -0.0049288 1.36075e-11)
(1.04621 -0.00177926 1.21108e-11)
(1.04628 0.001487 1.01665e-11)
(1.04459 0.00446355 8.08444e-12)
(1.04152 0.00683 6.08978e-12)
(1.03732 0.0083891 4.3377e-12)
(1.03287 0.00909112 2.91685e-12)
(1.02784 0.00891831 1.86517e-12)
(1.02427 0.00832742 1.15796e-12)
(1.01906 0.00613925 7.04404e-13)
(1.0001 -0.00230928 3.11745e-18)
(1.00144 -0.0068351 1.10261e-17)
(1.00446 -0.0116619 1.05877e-17)
(1.00918 -0.0170699 6.48661e-18)
(1.01611 -0.0232539 5.15189e-17)
(1.02576 -0.0301141 -9.48289e-17)
(1.03873 -0.0372541 1.244e-16)
(1.05524 -0.0435672 6.35456e-16)
(1.07493 -0.0478106 -1.75577e-15)
(1.09658 -0.0481892 -2.9447e-15)
(1.11714 -0.04377 4.07418e-15)
(1.13428 -0.0363339 1.96732e-14)
(1.14762 -0.0268202 3.76067e-14)
(1.15694 -0.0157588 4.22414e-14)
(1.16211 -0.00285258 2.75463e-14)
(1.16175 0.0127231 1.08362e-14)
(1.1534 0.0298853 2.9723e-16)
(1.13612 0.0453476 -4.05945e-15)
(1.11167 0.0556627 -5.55015e-15)
(1.08352 0.0586659 -2.78253e-15)
(1.05564 0.0536116 -2.66857e-15)
(1.03183 0.0407878 -5.41423e-14)
(1.01563 0.0212695 1.26898e-13)
(1.0103 -0.00298392 7.22719e-13)
(1.01864 -0.0283227 -2.66269e-12)
(1.04129 -0.0485275 -1.47105e-11)
(1.07396 -0.0561417 -2.8687e-11)
(1.10687 -0.0466992 -2.98789e-11)
(1.1287 -0.0226363 -1.65141e-11)
(1.13272 0.00763537 -4.45348e-12)
(1.11944 0.0348846 1.6129e-13)
(1.0943 0.0534716 7.10874e-13)
(1.06362 0.061912 2.50233e-13)
(1.03229 0.0609158 -7.05315e-13)
(1.00372 0.0514331 3.90596e-13)
(0.980919 0.0337583 9.7057e-12)
(0.967375 0.00791568 4.16628e-12)
(0.967128 -0.0246292 -1.22798e-10)
(0.983777 -0.0585401 -4.99713e-10)
(1.01865 -0.0839985 -1.06148e-09)
(1.06743 -0.0901088 -1.46858e-09)
(1.1175 -0.0716035 -1.39085e-09)
(1.15199 -0.0337755 -8.91561e-10)
(1.1597 0.0100754 -3.56938e-10)
(1.14152 0.0466946 -5.04843e-11)
(1.10713 0.0690734 3.72763e-11)
(1.06737 0.076925 1.99164e-11)
(1.02944 0.0732269 -2.399e-11)
(0.996563 0.060825 -1.01763e-11)
(0.969903 0.0409022 2.22634e-10)
(0.9513 0.0132227 7.62773e-10)
(0.945667 -0.0219387 1.38096e-09)
(0.959616 -0.0603785 1.71333e-09)
(0.995258 -0.0922173 1.75517e-09)
(1.04586 -0.105349 1.87714e-09)
(1.09828 -0.0923601 2.35959e-09)
(1.13889 -0.0553004 2.99588e-09)
(1.15797 -0.00524707 3.16623e-09)
(1.15187 0.0426052 2.50774e-09)
(1.12399 0.0758579 1.3708e-09)
(1.08344 0.0898763 3.86443e-10)
(1.04032 0.0873552 -1.00373e-10)
(1.00148 0.0737441 -1.12097e-10)
(0.970348 0.0523864 1.73707e-10)
(0.950397 0.0230583 5.59744e-10)
(0.947291 -0.0147878 8.80239e-10)
(0.96582 -0.0569445 1.07281e-09)
(1.00483 -0.0932516 1.18865e-09)
(1.05619 -0.112073 1.29965e-09)
(1.10799 -0.1064 1.4336e-09)
(1.14862 -0.0770516 1.5978e-09)
(1.16987 -0.0318249 1.78507e-09)
(1.1688 0.0179338 1.89694e-09)
(1.14766 0.0609876 1.74814e-09)
(1.11232 0.0892471 1.2709e-09)
(1.07 0.0997118 6.45422e-10)
(1.02739 0.0942734 1.64871e-10)
(0.989844 0.0768035 8.88112e-12)
(0.962221 0.049641 1.50969e-10)
(0.949982 0.0133301 4.32255e-10)
(0.957855 -0.02975 6.94773e-10)
(0.986484 -0.072358 8.62683e-10)
(1.03084 -0.10412 9.39272e-10)
(1.08191 -0.116285 9.60346e-10)
(1.12965 -0.105445 9.57028e-10)
(1.16528 -0.0744395 9.48837e-10)
(1.18269 -0.0309693 9.51489e-10)
(1.1795 0.0151375 9.65715e-10)
(1.15773 0.0548513 9.48873e-10)
(1.12301 0.0820956 8.32038e-10)
(1.08232 0.0943248 5.97763e-10)