/*--------------------------------*- C++ -*----------------------------------*\
  =========                 |
  \\      /  F ield         | OpenFOAM: The Open Source CFD Toolbox
   \\    /   O peration     | Website:  https://openfoam.org
    \\  /    A nd           | Version:  11
     \\/     M anipulation  |
\*---------------------------------------------------------------------------*/
FoamFile
{
    format      ascii;
    class       volScalarField;
    location    "4.730365";
    object      p;
}
// * * * * * * * * * * * * * * * * * * * * * * * * * * * * * * * * * * * * * //

dimensions      [0 2 -2 0 0 0 0];

internalField   nonuniform List<scalar> 
7132
(
0.0507731
0.0493182
0.0444097
0.0372177
0.0271305
0.0138082
-0.00289198
-0.0230583
-0.0462929
-0.0717948
-0.0983347
-0.124219
-0.148521
-0.17038
-0.189179
-0.204569
-0.216284
-0.224133
-0.227972
-0.227718
-0.223397
-0.215211
-0.203581
-0.18915
-0.172733
-0.155218
-0.137462
-0.120196
-0.103972
-0.0891535
-0.07593
-0.0643521
-0.0543699
-0.0458686
-0.0386977
-0.0326931
-0.0276915
-0.0235397
-0.0200997
-0.0172507
-0.014889
-0.0129271
-0.0112922
-0.00992427
-0.008774
-0.00780128
-0.00697351
-0.00626433
-0.00565241
-0.00512052
-0.00465477
-0.00424396
-0.00387903
-0.00355269
-0.00325901
-0.00299322
-0.00275142
-0.00253045
-0.0023277
-0.00214104
-0.00196869
-0.00180917
-0.00166124
-0.00152385
-0.00139608
-0.00127716
-0.00116642
-0.00106329
-0.00096727
-0.000877919
-0.000794862
-0.000717768
-0.000646345
-0.000580336
-0.000519501
-0.000463601
-0.000412366
-0.00036546
-0.000322453
-0.000282823
-0.000245992
-0.000211458
-0.000178929
-0.00014846
-0.000120468
-9.55904e-05
-7.43954e-05
-5.71119e-05
-4.35183e-05
-3.30511e-05
-2.50441e-05
-1.89344e-05
-1.4326e-05
-1.09331e-05
-8.49422e-06
-6.73994e-06
-5.42167e-06
-4.35654e-06
-3.44623e-06
-2.65969e-06
-1.99842e-06
-1.46696e-06
-1.05925e-06
-7.58329e-07
-5.4219e-07
-3.89281e-07
-2.81617e-07
-2.0546e-07
-1.5099e-07
-1.11404e-07
-8.22107e-08
-6.04298e-08
-4.41492e-08
-3.20149e-08
-2.3089e-08
-1.65894e-08
-1.19426e-08
-8.63066e-09
-6.30764e-09
-4.65598e-09
-3.50707e-09
-2.68429e-09
-2.12728e-09
-1.73167e-09
-1.48692e-09
-1.31826e-09
-1.23749e-09
-1.18363e-09
-1.18174e-09
-1.17904e-09
-1.20926e-09
-1.22397e-09
-1.26209e-09
-1.27686e-09
-1.31032e-09
-1.31606e-09
-1.33831e-09
-1.3304e-09
-1.33813e-09
-1.31451e-09
-1.30647e-09
-1.26652e-09
-1.24257e-09
-1.18652e-09
-1.14723e-09
-1.07581e-09
-1.02223e-09
-9.36432e-10
-8.70118e-10
-7.70765e-10
-6.93998e-10
-5.8103e-10
-4.97656e-10
-3.68658e-10
-2.85845e-10
-1.34109e-10
-5.85784e-11
1.13378e-10
2.32289e-10
2.65044e-10
0.0513533
0.0499108
0.0450461
0.0379013
0.0278545
0.0145391
-0.00221206
-0.0225245
-0.0459986
-0.0718277
-0.0987081
-0.124829
-0.149302
-0.171267
-0.190123
-0.205544
-0.217279
-0.225142
-0.228989
-0.228725
-0.224364
-0.216095
-0.204337
-0.18974
-0.173132
-0.155426
-0.137496
-0.120087
-0.103758
-0.0888719
-0.0756139
-0.0640279
-0.0540563
-0.0455778
-0.0384365
-0.032464
-0.0274943
-0.0233725
-0.0199595
-0.0171341
-0.0147927
-0.0128479
-0.0112273
-0.00987119
-0.0087306
-0.00776578
-0.00694445
-0.00624048
-0.00563279
-0.00510432
-0.00464134
-0.00423276
-0.00386964
-0.00354476
-0.00325227
-0.00298744
-0.00274643
-0.00252609
-0.00232387
-0.00213764
-0.00196565
-0.00180644
-0.00165876
-0.00152158
-0.001394
-0.00127524
-0.00116464
-0.00106162
-0.000965702
-0.000876436
-0.000793451
-0.000716418
-0.000645048
-0.000579088
-0.0005183
-0.000462452
-0.000411278
-0.000364444
-0.000321522
-0.000281984
-0.000245244
-0.000210787
-0.000178315
-0.000147877
-0.000119898
-9.50261e-05
-7.38457e-05
-5.65963e-05
-4.30573e-05
-3.2657e-05
-2.47167e-05
-1.86634e-05
-1.4097e-05
-1.07343e-05
-8.31988e-06
-6.58944e-06
-5.29668e-06
-4.25825e-06
-3.37388e-06
-2.61053e-06
-1.96822e-06
-1.45085e-06
-1.05241e-06
-7.56579e-07
-5.42421e-07
-3.89596e-07
-2.81197e-07
-2.04239e-07
-1.49283e-07
-1.09605e-07
-8.06246e-08
-5.92082e-08
-4.33116e-08
-3.14946e-08
-2.27902e-08
-1.64203e-08
-1.18391e-08
-8.55402e-09
-6.24344e-09
-4.59953e-09
-3.46097e-09
-2.64837e-09
-2.1025e-09
-1.71472e-09
-1.47681e-09
-1.31134e-09
-1.23369e-09
-1.18054e-09
-1.18041e-09
-1.17767e-09
-1.20929e-09
-1.22367e-09
-1.26295e-09
-1.27715e-09
-1.31159e-09
-1.31667e-09
-1.33974e-09
-1.33105e-09
-1.33964e-09
-1.31517e-09
-1.30799e-09
-1.26714e-09
-1.24406e-09
-1.18709e-09
-1.14866e-09
-1.07632e-09
-1.0236e-09
-9.36857e-10
-8.71428e-10
-7.71105e-10
-6.95284e-10
-5.81245e-10
-4.99054e-10
-3.68531e-10
-2.88045e-10
-1.32682e-10
-6.50686e-11
1.21668e-10
2.03164e-10
3.1677e-10
0.0525081
0.0510921
0.0463168
0.0392709
0.0293105
0.0160152
-0.00083257
-0.0214374
-0.0453969
-0.0718985
-0.0994767
-0.126072
-0.150886
-0.173059
-0.19202
-0.207501
-0.219273
-0.227169
-0.231035
-0.230759
-0.226322
-0.21789
-0.205874
-0.190938
-0.173944
-0.155847
-0.137563
-0.119864
-0.103323
-0.0883019
-0.0749758
-0.0633745
-0.0534255
-0.0449938
-0.0379125
-0.032005
-0.0270996
-0.023038
-0.0196792
-0.0169013
-0.0146005
-0.01269
-0.0110979
-0.00976535
-0.00864408
-0.00769504
-0.00688653
-0.00619298
-0.00559371
-0.00507205
-0.00461458
-0.00421046
-0.00385094
-0.00352897
-0.00323884
-0.00297593
-0.00273647
-0.00251741
-0.00231624
-0.00213087
-0.00195961
-0.001801
-0.00165384
-0.00151709
-0.00138988
-0.00127144
-0.00116111
-0.00105833
-0.00096261
-0.000873517
-0.000790679
-0.000713773
-0.000642514
-0.000576654
-0.000515966
-0.000460229
-0.000409189
-0.000362522
-0.0003198
-0.000280481
-0.000243969
-0.000209709
-0.000177372
-0.000146995
-0.000119007
-9.40855e-05
-7.28535e-05
-5.55873e-05
-4.20856e-05
-3.17741e-05
-2.39559e-05
-1.80351e-05
-1.3594e-05
-1.03406e-05
-8.01707e-06
-6.36009e-06
-5.12459e-06
-4.12884e-06
-3.27509e-06
-2.53379e-06
-1.9083e-06
-1.40475e-06
-1.01806e-06
-7.31926e-07
-5.25242e-07
-3.77738e-07
-2.72876e-07
-1.98168e-07
-1.44646e-07
-1.05942e-07
-7.76972e-08
-5.68942e-08
-4.15319e-08
-3.01726e-08
-2.1842e-08
-1.57579e-08
-1.13818e-08
-8.23569e-09
-6.01683e-09
-4.43322e-09
-3.33669e-09
-2.55469e-09
-2.03281e-09
-1.66335e-09
-1.43983e-09
-1.28465e-09
-1.21475e-09
-1.16668e-09
-1.17049e-09
-1.17018e-09
-1.20395e-09
-1.21952e-09
-1.26007e-09
-1.27481e-09
-1.31004e-09
-1.31524e-09
-1.33888e-09
-1.33017e-09
-1.33916e-09
-1.31456e-09
-1.3077e-09
-1.26667e-09
-1.24387e-09
-1.18669e-09
-1.14852e-09
-1.07595e-09
-1.0235e-09
-9.36507e-10
-8.71367e-10
-7.70754e-10
-6.95336e-10
-5.80819e-10
-4.99505e-10
-3.6767e-10
-2.90249e-10
-1.2958e-10
-7.53561e-11
1.37349e-10
1.52099e-10
4.08221e-10
0.0542276
0.0528532
0.0482188
0.0413318
0.0315149
0.0182655
0.00128583
-0.0197581
-0.0444629
-0.0720217
-0.100691
-0.127996
-0.153316
-0.175789
-0.194898
-0.21046
-0.222285
-0.230228
-0.234127
-0.233833
-0.229283
-0.220607
-0.2082
-0.192746
-0.175162
-0.156469
-0.137646
-0.119509
-0.102649
-0.0874268
-0.0740019
-0.0623818
-0.0524706
-0.0441125
-0.0371238
-0.0313157
-0.0265081
-0.0225375
-0.0192604
-0.0165537
-0.0143138
-0.0124545
-0.0109051
-0.00960767
-0.00851522
-0.00758966
-0.00680026
-0.00612219
-0.00553546
-0.00502396
-0.0045747
-0.0041772
-0.00382305
-0.00350542
-0.0032188
-0.00295874
-0.0027216
-0.00250444
-0.00230482
-0.00212075
-0.00195055
-0.00179284
-0.00164644
-0.00151034
-0.00138368
-0.00126572
-0.0011558
-0.00105337
-0.000957947
-0.000869109
-0.00078649
-0.00070977
-0.000638671
-0.000572955
-0.000512409
-0.000456826
-0.000405971
-0.000359532
-0.000317085
-0.000278073
-0.000241868
-0.000207876
-0.000175726
-0.000145433
-0.000117439
-9.24571e-05
-7.11698e-05
-5.39042e-05
-4.04852e-05
-3.03336e-05
-2.27247e-05
-1.70286e-05
-1.28002e-05
-9.73297e-06
-7.564e-06
-6.02955e-06
-4.88619e-06
-3.95546e-06
-3.1452e-06
-2.43282e-06
-1.82797e-06
-1.34102e-06
-9.6857e-07
-6.94466e-07
-4.97343e-07
-3.56983e-07
-2.57269e-07
-1.86273e-07
-1.3551e-07
-9.89341e-08
-7.23766e-08
-5.29179e-08
-3.8614e-08
-2.80652e-08
-2.03368e-08
-1.4685e-08
-1.06134e-08
-7.67883e-09
-5.60932e-09
-4.13215e-09
-3.11472e-09
-2.39108e-09
-1.9138e-09
-1.57671e-09
-1.37777e-09
-1.23951e-09
-1.18261e-09
-1.14298e-09
-1.15377e-09
-1.15763e-09
-1.19536e-09
-1.2129e-09
-1.25584e-09
-1.27136e-09
-1.30811e-09
-1.31346e-09
-1.33816e-09
-1.32924e-09
-1.33906e-09
-1.31407e-09
-1.30793e-09
-1.2664e-09
-1.24425e-09
-1.18653e-09
-1.14899e-09
-1.07585e-09
-1.02402e-09
-9.36428e-10
-8.71958e-10
-7.70677e-10
-6.9609e-10
-5.80649e-10
-5.00833e-10
-3.66902e-10
-2.93942e-10
-1.25698e-10
-8.96164e-11
1.57967e-10
8.64209e-11
5.24316e-10
0.056495
0.0551802
0.0507461
0.0440905
0.0344915
0.0213343
0.00420559
-0.0174228
-0.0431532
-0.072219
-0.102428
-0.130678
-0.15666
-0.179509
-0.198787
-0.214437
-0.226327
-0.23434
-0.238301
-0.238009
-0.23333
-0.224333
-0.211393
-0.195226
-0.176824
-0.157306
-0.137741
-0.119005
-0.101714
-0.0862248
-0.0726732
-0.0610346
-0.0511805
-0.0429264
-0.036066
-0.0303938
-0.0257189
-0.0218712
-0.0187038
-0.0160924
-0.0139337
-0.0121427
-0.0106499
-0.00939915
-0.00834486
-0.00745041
-0.00668626
-0.00602867
-0.00545852
-0.00496042
-0.00452198
-0.00413324
-0.00378616
-0.00347425
-0.00319227
-0.00293597
-0.00270189
-0.00248724
-0.00228968
-0.0021073
-0.00193853
-0.00178201
-0.00163662
-0.00150138
-0.00137545
-0.00125812
-0.00114874
-0.00104677
-0.00095175
-0.000863252
-0.000780921
-0.000704445
-0.000633556
-0.000568026
-0.00050766
-0.000452269
-0.000401642
-0.000355486
-0.000313379
-0.000274752
-0.000238936
-0.000205288
-0.000173387
-0.000143221
-0.000115237
-9.02014e-05
-6.88642e-05
-5.16176e-05
-3.83208e-05
-2.83898e-05
-2.10668e-05
-1.56798e-05
-1.17482e-05
-8.94404e-06
-6.99384e-06
-5.62986e-06
-4.60912e-06
-3.75839e-06
-2.99561e-06
-2.31071e-06
-1.72431e-06
-1.25356e-06
-8.97294e-07
-6.38753e-07
-4.55274e-07
-3.25885e-07
-2.34474e-07
-1.69554e-07
-1.23181e-07
-8.97806e-08
-6.55463e-08
-4.78162e-08
-3.48198e-08
-2.52661e-08
-1.82922e-08
-1.32034e-08
-9.54517e-09
-6.90807e-09
-5.05151e-09
-3.72565e-09
-2.81751e-09
-2.17274e-09
-1.75405e-09
-1.4596e-09
-1.29275e-09
-1.17738e-09
-1.13779e-09
-1.11004e-09
-1.13008e-09
-1.13997e-09
-1.18275e-09
-1.2033e-09
-1.24912e-09
-1.26605e-09
-1.30452e-09
-1.31042e-09
-1.33623e-09
-1.3274e-09
-1.33801e-09
-1.31287e-09
-1.30734e-09
-1.26554e-09
-1.24393e-09
-1.18585e-09
-1.14881e-09
-1.07527e-09
-1.02395e-09
-9.35925e-10
-8.71991e-10
-7.7021e-10
-6.96361e-10
-5.80101e-10
-5.01825e-10
-3.6568e-10
-2.97742e-10
-1.20895e-10
-1.05303e-10
1.81434e-10
1.65663e-11
6.47732e-10
0.0592869
0.0580527
0.0538889
0.0475539
0.0382713
0.0252823
0.00801395
-0.0143398
-0.0414049
-0.0725286
-0.104812
-0.134225
-0.161012
-0.184292
-0.203742
-0.219477
-0.231431
-0.239532
-0.243579
-0.243304
-0.238476
-0.229083
-0.215468
-0.198383
-0.178921
-0.158334
-0.137813
-0.118312
-0.100479
-0.0846616
-0.0709622
-0.0593128
-0.0495421
-0.0414281
-0.0347357
-0.029239
-0.0247337
-0.0210418
-0.0180125
-0.0155206
-0.0134634
-0.0117572
-0.0103347
-0.00914161
-0.0081345
-0.00727844
-0.00654548
-0.00591315
-0.00536345
-0.00488188
-0.00445682
-0.00407888
-0.00374053
-0.00343568
-0.00315941
-0.00290775
-0.00267745
-0.00246588
-0.00227085
-0.00209057
-0.00192355
-0.0017685
-0.00162435
-0.00149018
-0.00136516
-0.00124861
-0.00113991
-0.00103852
-0.000943988
-0.000855908
-0.00077393
-0.000697752
-0.000627115
-0.000561804
-0.000501642
-0.000446464
-0.000396083
-0.000350227
-0.000308483
-0.000270268
-0.000234877
-0.000201615
-0.000170009
-0.000140016
-0.000112096
-8.70619e-05
-6.57411e-05
-4.85923e-05
-3.55081e-05
-2.58959e-05
-1.89591e-05
-1.39784e-05
-1.04339e-05
-7.97287e-06
-6.30754e-06
-5.16323e-06
-4.2964e-06
-3.5411e-06
-2.83041e-06
-2.17248e-06
-1.60335e-06
-1.14911e-06
-8.10899e-07
-5.70518e-07
-4.03215e-07
-2.86924e-07
-2.0553e-07
-1.48083e-07
-1.07252e-07
-7.79646e-08
-5.67904e-08
-4.13449e-08
-3.00595e-08
-2.17839e-08
-1.57584e-08
-1.13648e-08
-8.21204e-09
-5.93914e-09
-4.34578e-09
-3.20972e-09
-2.44044e-09
-1.89669e-09
-1.55288e-09
-1.31272e-09
-1.18632e-09
-1.09971e-09
-1.08173e-09
-1.06892e-09
-1.10055e-09
-1.11811e-09
-1.16724e-09
-1.19165e-09
-1.24106e-09
-1.25982e-09
-1.30041e-09
-1.30705e-09
-1.3342e-09
-1.32554e-09
-1.33708e-09
-1.31179e-09
-1.30699e-09
-1.26488e-09
-1.24388e-09
-1.18541e-09
-1.14894e-09
-1.07496e-09
-1.02419e-09
-9.35684e-10
-8.72357e-10
-7.70005e-10
-6.96988e-10
-5.79801e-10
-5.03243e-10
-3.64635e-10
-3.02118e-10
-1.16033e-10
-1.21628e-10
2.05141e-10
-5.0196e-11
7.64455e-10
0.0625716
0.0614428
0.0576319
0.0517283
0.0428918
0.0301881
0.0128292
-0.0103783
-0.0391237
-0.0730071
-0.108018
-0.138786
-0.166493
-0.190217
-0.209796
-0.225587
-0.237608
-0.24584
-0.250046
-0.249854
-0.244894
-0.235037
-0.220582
-0.20233
-0.181516
-0.159572
-0.137847
-0.117397
-0.0989035
-0.0826978
-0.0688355
-0.0571911
-0.0475374
-0.039606
-0.0331265
-0.0278485
-0.023552
-0.0200501
-0.0171883
-0.0148404
-0.0129048
-0.0113
-0.00996121
-0.00883679
-0.00788565
-0.0070751
-0.00637903
-0.00577659
-0.00525105
-0.00478902
-0.00437974
-0.00401455
-0.00368649
-0.00338996
-0.00312043
-0.00287424
-0.00264839
-0.00244045
-0.00224842
-0.00207062
-0.00190566
-0.00175236
-0.00160969
-0.00147678
-0.00135285
-0.00123724
-0.00112934
-0.00102864
-0.000934697
-0.000847114
-0.000765553
-0.000689721
-0.000619373
-0.000554308
-0.000494366
-0.000439409
-0.000389275
-0.000343716
-0.000302332
-0.000264533
-0.000229581
-0.000196737
-0.000165476
-0.000135724
-0.000107948
-8.30091e-05
-6.18049e-05
-4.48577e-05
-3.20899e-05
-2.28975e-05
-1.6444e-05
-1.19618e-05
-8.89264e-06
-6.85541e-06
-5.54241e-06
-4.66623e-06
-3.98007e-06
-3.32771e-06
-2.66451e-06
-2.0248e-06
-1.46613e-06
-1.02588e-06
-7.06905e-07
-4.87748e-07
-3.40024e-07
-2.39801e-07
-1.70772e-07
-1.22566e-07
-8.85543e-08
-6.42538e-08
-4.67108e-08
-3.39165e-08
-2.45844e-08
-1.77582e-08
-1.28111e-08
-9.21515e-09
-6.64905e-09
-4.80338e-09
-3.52041e-09
-2.60845e-09
-2.00212e-09
-1.5763e-09
-1.31914e-09
-1.14182e-09
-1.06199e-09
-1.00884e-09
-1.01585e-09
-1.02062e-09
-1.06563e-09
-1.0923e-09
-1.14868e-09
-1.17774e-09
-1.23117e-09
-1.25222e-09
-1.29513e-09
-1.3028e-09
-1.33136e-09
-1.32306e-09
-1.33553e-09
-1.31025e-09
-1.30614e-09
-1.26384e-09
-1.2434e-09
-1.18465e-09
-1.14868e-09
-1.07436e-09
-1.02407e-09
-9.35181e-10
-8.72395e-10
-7.69565e-10
-6.97319e-10
-5.79284e-10
-5.04415e-10
-3.63376e-10
-3.06224e-10
-1.11027e-10
-1.36906e-10
2.27688e-10
-1.08555e-10
8.66006e-10
0.0663073
0.0653134
0.0619522
0.0566155
0.0483938
0.0361474
0.0188026
-0.0053611
-0.0361785
-0.0737498
-0.112305
-0.144553
-0.173262
-0.197411
-0.217048
-0.232838
-0.244895
-0.253272
-0.257683
-0.257634
-0.252569
-0.2422
-0.22675
-0.20708
-0.184602
-0.160986
-0.13779
-0.116196
-0.096925
-0.0802796
-0.0662514
-0.0546399
-0.045148
-0.0374508
-0.0312356
-0.0262237
-0.0221777
-0.0189015
-0.0162368
-0.0140572
-0.0122629
-0.0107754
-0.00953304
-0.00848747
-0.00760053
-0.00684209
-0.00618826
-0.00562002
-0.00512215
-0.00468249
-0.00429129
-0.00394069
-0.00362443
-0.00333742
-0.0030756
-0.00283565
-0.00261488
-0.0024111
-0.00222248
-0.00204751
-0.00188492
-0.00173361
-0.00159264
-0.00146119
-0.00133852
-0.00122399
-0.00111702
-0.00101712
-0.000923858
-0.000836847
-0.000755763
-0.000680323
-0.000610295
-0.000545492
-0.000485774
-0.000431026
-0.000381114
-0.000335815
-0.000294747
-0.000257321
-0.000222781
-0.000190357
-0.000159483
-0.000130059
-0.000102553
-7.78633e-05
-5.69397e-05
-4.03527e-05
-2.80431e-05
-1.93921e-05
-1.35277e-05
-9.63923e-06
-7.13677e-06
-5.60851e-06
-4.71992e-06
-4.16263e-06
-3.68242e-06
-3.13578e-06
-2.50985e-06
-1.87511e-06
-1.31767e-06
-8.88195e-07
-5.89587e-07
-3.94464e-07
-2.68992e-07
-1.86807e-07
-1.31538e-07
-9.36372e-08
-6.73017e-08
-4.86696e-08
-3.52763e-08
-2.55155e-08
-1.84139e-08
-1.32354e-08
-9.50622e-09
-6.80583e-09
-4.89523e-09
-3.52645e-09
-2.59049e-09
-1.93017e-09
-1.50746e-09
-1.21503e-09
-1.05585e-09
-9.49601e-10
-9.22246e-10
-9.06802e-10
-9.41852e-10
-9.66446e-10
-1.02646e-09
-1.06346e-09
-1.12796e-09
-1.16233e-09
-1.22023e-09
-1.24392e-09
-1.28938e-09
-1.29827e-09
-1.32835e-09
-1.32052e-09
-1.33398e-09
-1.30877e-09
-1.30535e-09
-1.26292e-09
-1.24303e-09
-1.18402e-09
-1.14854e-09
-1.0739e-09
-1.02409e-09
-9.34837e-10
-8.72579e-10
-7.69289e-10
-6.97806e-10
-5.78935e-10
-5.05724e-10
-3.62302e-10
-3.10277e-10
-1.06434e-10
-1.50762e-10
2.47718e-10
-1.56709e-10
9.48842e-10
0.070441
0.0696158
0.0668162
0.0622111
0.0548202
0.0432768
0.0261313
0.000961822
-0.0323746
-0.0748953
-0.118043
-0.151789
-0.181503
-0.205943
-0.225483
-0.241195
-0.253294
-0.261911
-0.266683
-0.266931
-0.261836
-0.250896
-0.234241
-0.212813
-0.188268
-0.162591
-0.137605
-0.114648
-0.0944762
-0.0773461
-0.063161
-0.0516237
-0.0423505
-0.0349482
-0.0290556
-0.024362
-0.0206112
-0.0175981
-0.0151609
-0.0131742
-0.011541
-0.0101864
-0.00905307
-0.00809628
-0.00728143
-0.00658143
-0.0059749
-0.00544491
-0.00497796
-0.00456329
-0.00419226
-0.00385795
-0.00355482
-0.00327843
-0.00302518
-0.00279219
-0.00257708
-0.00237793
-0.00219313
-0.00202132
-0.00186138
-0.00171232
-0.00157327
-0.00144346
-0.00132221
-0.00120891
-0.00110301
-0.00100402
-0.00091153
-0.000825165
-0.000744612
-0.000669604
-0.000599919
-0.000535388
-0.000475886
-0.000421323
-0.000371587
-0.000326486
-0.000285659
-0.000248535
-0.000214358
-0.000182344
-0.000151911
-0.000122932
-9.58687e-05
-7.16325e-05
-5.11989e-05
-3.51591e-05
-2.34587e-05
-1.54633e-05
-1.02777e-05
-7.06508e-06
-5.21372e-06
-4.27992e-06
-3.89063e-06
-3.70278e-06
-3.44754e-06
-2.99806e-06
-2.38625e-06
-1.73254e-06
-1.16062e-06
-7.36144e-07
-4.58744e-07
-2.90894e-07
-1.90706e-07
-1.28673e-07
-8.85923e-08
-6.20499e-08
-4.42e-08
-3.18235e-08
-2.29714e-08
-1.64941e-08
-1.1787e-08
-8.37137e-09
-5.94535e-09
-4.20533e-09
-2.99993e-09
-2.14614e-09
-1.58577e-09
-1.19817e-09
-9.74123e-10
-8.25816e-10
-7.72117e-10
-7.424e-10
-7.71373e-10
-7.96587e-10
-8.61741e-10
-9.07798e-10
-9.83911e-10
-1.03215e-09
-1.10532e-09
-1.1455e-09
-1.20814e-09
-1.23477e-09
-1.28287e-09
-1.29319e-09
-1.32482e-09
-1.31759e-09
-1.33202e-09
-1.30699e-09
-1.30423e-09
-1.26175e-09
-1.24237e-09
-1.18319e-09
-1.14814e-09
-1.07327e-09
-1.02386e-09
-9.34333e-10
-8.72533e-10
-7.68867e-10
-6.98078e-10
-5.78467e-10
-5.06789e-10
-3.61174e-10
-3.13804e-10
-1.02158e-10
-1.62532e-10
2.64952e-10
-1.94502e-10
1.01345e-09
0.0749059
0.0742877
0.0721756
0.0684967
0.0622073
0.051705
0.0350531
0.00892257
-0.0274485
-0.0766908
-0.125759
-0.16079
-0.191473
-0.216064
-0.235299
-0.250758
-0.262785
-0.271642
-0.276873
-0.277579
-0.272595
-0.261107
-0.243088
-0.219567
-0.192517
-0.164341
-0.137212
-0.112658
-0.0914654
-0.073821
-0.059508
-0.0481058
-0.0391246
-0.0320908
-0.0265875
-0.0222695
-0.0188615
-0.0161496
-0.0139703
-0.0122002
-0.0107464
-0.00953929
-0.0085261
-0.00766694
-0.00693121
-0.00629526
-0.00574055
-0.00525249
-0.00481947
-0.00443221
-0.00408332
-0.00376689
-0.00347818
-0.00321341
-0.00296956
-0.00274417
-0.00253524
-0.00234114
-0.0021605
-0.00199215
-0.00183511
-0.00168851
-0.00155157
-0.00142359
-0.00130393
-0.00119201
-0.0010873
-0.000989333
-0.000897707
-0.000812063
-0.000732098
-0.000657558
-0.000588237
-0.000523978
-0.000464676
-0.000410256
-0.000360631
-0.000315637
-0.000274944
-0.000238015
-0.000204124
-0.0001725
-0.000142567
-0.00011419
-8.78066e-05
-6.43006e-05
-4.46277e-05
-2.93612e-05
-1.84283e-05
-1.11893e-05
-6.74792e-06
-4.27736e-06
-3.15611e-06
-2.90633e-06
-3.0984e-06
-3.33363e-06
-3.31781e-06
-2.94608e-06
-2.31265e-06
-1.60629e-06
-9.99292e-07
-5.72944e-07
-3.18078e-07
-1.81018e-07
-1.08666e-07
-6.79643e-08
-4.35717e-08
-2.87708e-08
-1.98028e-08
-1.40364e-08
-9.99014e-09
-6.98209e-09
-4.80391e-09
-3.25105e-09
-2.20098e-09
-1.47265e-09
-1.00816e-09
-6.94779e-10
-5.28552e-10
-4.27525e-10
-4.12468e-10
-4.16034e-10
-4.73467e-10
-5.2445e-10
-6.12703e-10
-6.80748e-10
-7.77526e-10
-8.46204e-10
-9.39204e-10
-9.99318e-10
-1.08156e-09
-1.12791e-09
-1.19548e-09
-1.22526e-09
-1.27611e-09
-1.28796e-09
-1.32117e-09
-1.31464e-09
-1.33003e-09
-1.30524e-09
-1.30312e-09
-1.26064e-09
-1.24174e-09
-1.18243e-09
-1.14778e-09
-1.07272e-09
-1.02369e-09
-9.33916e-10
-8.72541e-10
-7.68541e-10
-6.9839e-10
-5.78109e-10
-5.07835e-10
-3.60226e-10
-3.1698e-10
-9.84708e-11
-1.7236e-10
2.79146e-10
-2.23301e-10
1.06213e-09
0.0796203
0.0792511
0.0779644
0.0754378
0.0705824
0.0615822
0.0458755
0.0190077
-0.0209925
-0.0794699
-0.136279
-0.172031
-0.203333
-0.227638
-0.246279
-0.261403
-0.273416
-0.282717
-0.288704
-0.290163
-0.285451
-0.27337
-0.253704
-0.227603
-0.197462
-0.166234
-0.136539
-0.110122
-0.0877896
-0.0696172
-0.0552268
-0.0440414
-0.0354425
-0.0288629
-0.0238243
-0.0199448
-0.0169303
-0.0145595
-0.0126692
-0.0111397
-0.00988389
-0.00883826
-0.00795618
-0.00720311
-0.00655311
-0.00598642
-0.00548768
-0.00504485
-0.00464838
-0.00429065
-0.00396559
-0.00366837
-0.00339514
-0.00314285
-0.00290907
-0.00269183
-0.00248954
-0.00230087
-0.00212471
-0.0019601
-0.00180621
-0.00166229
-0.00152765
-0.00140167
-0.00128376
-0.00117337
-0.00106998
-0.000973157
-0.00088249
-0.00079764
-0.000718315
-0.000644276
-0.000575331
-0.00051134
-0.000452209
-0.00039788
-0.000348287
-0.000303291
-0.000262607
-0.000225753
-0.000192066
-0.000160823
-0.000131489
-0.000103927
-7.85138e-05
-5.60702e-05
-3.74639e-05
-2.31944e-05
-1.31638e-05
-6.73505e-06
-3.05652e-06
-1.35865e-06
-1.03013e-06
-1.55273e-06
-2.41215e-06
-3.12338e-06
-3.35135e-06
-3.02056e-06
-2.31114e-06
-1.50466e-06
-8.35262e-07
-3.9893e-07
-1.68914e-07
-6.70206e-08
-2.50669e-08
-6.38775e-09
2.30604e-09
5.31011e-09
5.17904e-09
4.1165e-09
3.22383e-09
2.69682e-09
2.30724e-09
1.96673e-09
1.61612e-09
1.31408e-09
1.0239e-09
7.86267e-10
5.50255e-10
3.5851e-10
1.60199e-10
1.61379e-12
-1.69053e-10
-3.02291e-10
-4.50843e-10
-5.62552e-10
-6.91482e-10
-7.83266e-10
-8.93422e-10
-9.65701e-10
-1.05713e-09
-1.10984e-09
-1.18238e-09
-1.21543e-09
-1.269e-09
-1.2825e-09
-1.31725e-09
-1.3115e-09
-1.32781e-09
-1.30333e-09
-1.3018e-09
-1.25939e-09
-1.24091e-09
-1.18155e-09
-1.14724e-09
-1.07205e-09
-1.02334e-09
-9.33393e-10
-8.72381e-10
-7.68123e-10
-6.98533e-10
-5.77681e-10
-5.08641e-10
-3.59296e-10
-3.19588e-10
-9.52431e-11
-1.80198e-10
2.90653e-10
-2.44661e-10
1.09806e-09
0.0844858
0.0844085
0.0840917
0.0829659
0.0799416
0.0730387
0.0589371
0.0318386
-0.0125104
-0.0839086
-0.150528
-0.18589
-0.217728
-0.241361
-0.258837
-0.273156
-0.284882
-0.294634
-0.301619
-0.304254
-0.300218
-0.287721
-0.266238
-0.237057
-0.203149
-0.168215
-0.135459
-0.106893
-0.0833131
-0.0646286
-0.0502452
-0.0393887
-0.0312861
-0.0252634
-0.0207753
-0.0174026
-0.0148341
-0.0128442
-0.0112724
-0.0100052
-0.00896342
-0.00809123
-0.00734922
-0.00670912
-0.00615025
-0.00565713
-0.00521787
-0.00482317
-0.00446565
-0.00413941
-0.00383978
-0.00356305
-0.00330631
-0.00306729
-0.0028442
-0.0026356
-0.00244032
-0.00225738
-0.00208596
-0.0019253
-0.00177475
-0.00163368
-0.00150152
-0.00137771
-0.00126171
-0.00115299
-0.00105107
-0.000955502
-0.0008659
-0.000781924
-0.000703297
-0.000629794
-0.00056124
-0.000497508
-0.00043852
-0.000384225
-0.000334574
-0.00028946
-0.000248654
-0.000211754
-0.000178198
-0.000147368
-0.000118766
-9.22735e-05
-6.82149e-05
-4.72249e-05
-3.0012e-05
-1.69609e-05
-7.90338e-06
-2.25849e-06
6.95517e-07
1.63056e-06
1.11873e-06
-2.67374e-07
-1.88801e-06
-3.12992e-06
-3.5973e-06
-3.25437e-06
-2.39747e-06
-1.43213e-06
-6.69238e-07
-2.15899e-07
-1.52011e-08
4.62724e-08
5.58899e-08
5.31159e-08
4.72171e-08
3.90816e-08
3.00249e-08
2.21597e-08
1.63578e-08
1.23344e-08
9.40033e-09
7.17227e-09
5.42091e-09
4.08952e-09
3.04732e-09
2.26129e-09
1.62499e-09
1.14175e-09
7.30921e-10
4.17821e-10
1.34307e-10
-8.09647e-11
-2.89592e-10
-4.44844e-10
-6.0577e-10
-7.20606e-10
-8.47819e-10
-9.3225e-10
-1.0328e-09
-1.09188e-09
-1.16933e-09
-1.20568e-09
-1.26193e-09
-1.27709e-09
-1.31336e-09
-1.3084e-09
-1.32561e-09
-1.30146e-09
-1.30049e-09
-1.25818e-09
-1.24009e-09
-1.18071e-09
-1.1467e-09
-1.07142e-09
-1.023e-09
-9.32918e-10
-8.72224e-10
-7.67754e-10
-6.98659e-10
-5.77323e-10
-5.09358e-10
-3.58523e-10
-3.21786e-10
-9.25755e-11
-1.86402e-10
2.99708e-10
-2.60315e-10
1.12417e-09
0.0893864
0.0896442
0.0904385
0.0909835
0.0902461
0.0862304
0.074689
0.0484374
-0.00109462
-0.0909605
-0.170895
-0.202954
-0.233883
-0.256221
-0.272516
-0.286205
-0.29788
-0.308476
-0.316919
-0.321143
-0.318033
-0.305101
-0.281388
-0.248363
-0.209757
-0.170266
-0.133843
-0.1028
-0.0778728
-0.0587243
-0.0444692
-0.0340858
-0.026618
-0.0212713
-0.0174302
-0.0146392
-0.0125735
-0.0110066
-0.00978402
-0.00880165
-0.00799015
-0.00730331
-0.00671015
-0.00618958
-0.00572684
-0.00531116
-0.00493444
-0.00459029
-0.00427363
-0.0039804
-0.00370738
-0.00345206
-0.00321253
-0.00298734
-0.00277537
-0.00257576
-0.00238779
-0.00221086
-0.00204441
-0.00188792
-0.0017409
-0.00160287
-0.00147337
-0.00135189
-0.00123795
-0.00113106
-0.00103075
-0.000936567
-0.00084813
-0.000765107
-0.000687231
-0.000614295
-0.000546142
-0.000482663
-0.000423786
-0.000369472
-0.000319683
-0.000274348
-0.000233311
-0.000196283
-0.000162844
-0.00013251
-0.000104883
-7.98008e-05
-5.7453e-05
-3.8298e-05
-2.27706e-05
-1.10401e-05
-2.92543e-06
2.02966e-06
4.37463e-06
4.60573e-06
3.22839e-06
8.93464e-07
-1.58065e-06
-3.40091e-06
-4.089e-06
-3.66366e-06
-2.572e-06
-1.38139e-06
-4.94089e-07
-2.08367e-08
1.42135e-07
1.56136e-07
1.31546e-07
1.08655e-07
8.99717e-08
7.16677e-08
5.40483e-08
3.95507e-08
2.9005e-08
2.16381e-08
1.6267e-08
1.22155e-08
9.10483e-09
6.7754e-09
5.00566e-09
3.6892e-09
2.66545e-09
1.89985e-09
1.28329e-09
8.20578e-10
4.27891e-10
1.3323e-10
-1.33466e-10
-3.30854e-10
-5.22689e-10
-6.5985e-10
-8.03531e-10
-8.99752e-10
-1.0091e-09
-1.07437e-09
-1.15654e-09
-1.19612e-09
-1.25493e-09
-1.27173e-09
-1.30943e-09
-1.30529e-09
-1.3233e-09
-1.29954e-09
-1.29908e-09
-1.25691e-09
-1.23915e-09
-1.17979e-09
-1.14604e-09
-1.07072e-09
-1.02253e-09
-9.32364e-10
-8.71942e-10
-7.67318e-10
-6.98643e-10
-5.76914e-10
-5.09861e-10
-3.57788e-10
-3.23491e-10
-9.03257e-11
-1.9113e-10
3.06789e-10
-2.71618e-10
1.14303e-09
0.0941891
0.0948171
0.0968505
0.0993171
0.101376
0.101149
0.0935111
0.0698294
0.0139026
-0.101292
-0.197723
-0.225161
-0.255376
-0.274736
-0.288191
-0.300171
-0.311275
-0.322826
-0.333255
-0.339888
-0.338508
-0.325579
-0.299446
-0.261789
-0.217385
-0.172303
-0.13149
-0.0976119
-0.0712647
-0.0517533
-0.0378037
-0.0280853
-0.0214251
-0.0168963
-0.0138111
-0.011682
-0.010176
-0.00907165
-0.00822537
-0.00754601
-0.00697717
-0.00648415
-0.00604582
-0.0056492
-0.00528602
-0.00495062
-0.00463883
-0.00434729
-0.00407326
-0.00381452
-0.00356932
-0.00333635
-0.00311473
-0.00290386
-0.00270338
-0.00251303
-0.00233257
-0.00216179
-0.00200044
-0.00184824
-0.00170487
-0.00157001
-0.00144329
-0.00132428
-0.00121256
-0.00110765
-0.00100908
-0.000916417
-0.000829259
-0.000747277
-0.000670218
-0.000597891
-0.000530164
-0.000466943
-0.000408168
-0.000353803
-0.00030383
-0.000258222
-0.000216913
-0.000179758
-0.00014651
-0.000116847
-9.04533e-05
-6.71391e-05
-4.68948e-05
-2.98453e-05
-1.61244e-05
-5.71794e-06
1.57605e-06
6.04762e-06
7.9608e-06
7.5739e-06
5.31454e-06
1.94725e-06
-1.4699e-06
-3.91015e-06
-4.79372e-06
-4.21272e-06
-2.80087e-06
-1.32688e-06
-2.95266e-07
1.91306e-07
3.02492e-07
2.59999e-07
1.99459e-07
1.58515e-07
1.29444e-07
1.02245e-07
7.66297e-08
5.58422e-08
4.08588e-08
3.03982e-08
2.27569e-08
1.69836e-08
1.2582e-08
9.30717e-09
6.85104e-09
5.035e-09
3.64624e-09
2.61451e-09
1.80403e-09
1.20029e-09
7.047e-10
3.35164e-10
1.37364e-11
-2.23392e-10
-4.44342e-10
-6.02567e-10
-7.61749e-10
-8.691e-10
-9.86714e-10
-1.05785e-09
-1.14445e-09
-1.18708e-09
-1.24829e-09
-1.26665e-09
-1.30568e-09
-1.30235e-09
-1.32111e-09
-1.29771e-09
-1.2977e-09
-1.25568e-09
-1.23823e-09
-1.17891e-09
-1.14538e-09
-1.07004e-09
-1.02205e-09
-9.31835e-10
-8.71641e-10
-7.66904e-10
-6.9859e-10
-5.76543e-10
-5.10253e-10
-3.57168e-10
-3.24844e-10
-8.8518e-11
-1.94723e-10
3.12203e-10
-2.79754e-10
1.15656e-09
0.0987457
0.0997716
0.103133
0.107763
0.113118
0.117892
0.115999
0.0988654
0.0345878
-0.124135
-0.238457
-0.247924
-0.276379
-0.29431
-0.305709
-0.315839
-0.32596
-0.338209
-0.350531
-0.359661
-0.36034
-0.347814
-0.319357
-0.276668
-0.225656
-0.174095
-0.128226
-0.0911801
-0.0633718
-0.0436353
-0.0302011
-0.0213638
-0.0157002
-0.0121401
-0.0099247
-0.00854025
-0.00765235
-0.00705074
-0.00660809
-0.00625
-0.00593593
-0.00564478
-0.00536668
-0.0050977
-0.00483667
-0.00458343
-0.00433793
-0.00410001
-0.00386934
-0.00364557
-0.0034285
-0.00321809
-0.0030145
-0.00281806
-0.00262914
-0.00244812
-0.00227527
-0.00211075
-0.00195461
-0.00180681
-0.00166722
-0.00153564
-0.00141181
-0.0012954
-0.00118601
-0.00108319
-0.000986484
-0.000895427
-0.000809623
-0.000728745
-0.00065255
-0.000580872
-0.000513601
-0.000450663
-0.000392008
-0.000337612
-0.00028748
-0.000241645
-0.000200147
-0.000163001
-0.000130141
-0.000101402
-7.65273e-05
-5.52304e-05
-3.72533e-05
-2.23819e-05
-1.04087e-05
-1.12561e-06
5.62196e-06
9.86681e-06
1.15318e-05
1.06074e-05
7.45162e-06
2.98449e-06
-1.44186e-06
-4.52636e-06
-5.57737e-06
-4.78091e-06
-2.9928e-06
-1.20941e-06
-3.96971e-08
4.36887e-07
4.73644e-07
3.61851e-07
2.61844e-07
2.03806e-07
1.65806e-07
1.30586e-07
9.74193e-08
7.07085e-08
5.16571e-08
3.84098e-08
2.87096e-08
2.13528e-08
1.57599e-08
1.16168e-08
8.53376e-09
6.2622e-09
4.54051e-09
3.26599e-09
2.27871e-09
1.54641e-09
9.57053e-10
5.19272e-10
1.47996e-10
-1.2535e-10
-3.72805e-10
-5.50228e-10
-7.23515e-10
-8.41027e-10
-9.6616e-10
-1.04265e-09
-1.13327e-09
-1.17871e-09
-1.24207e-09
-1.26186e-09
-1.3021e-09
-1.29952e-09
-1.31903e-09
-1.29595e-09
-1.29629e-09
-1.25444e-09
-1.23724e-09
-1.17798e-09
-1.14464e-09
-1.06931e-09
-1.02149e-09
-9.31238e-10
-8.71241e-10
-7.66431e-10
-6.98417e-10
-5.7613e-10
-5.10466e-10
-3.56579e-10
-3.25816e-10
-8.70258e-11
-1.97348e-10
3.16338e-10
-2.85534e-10
1.16624e-09
0.102897
0.104324
0.109055
0.115952
0.125109
0.135746
0.14234
0.134794
0.062894
-0.133795
-0.305228
-0.29312
-0.307499
-0.313717
-0.318351
-0.324317
-0.332468
-0.345215
-0.359885
-0.372643
-0.376494
-0.365574
-0.336198
-0.289651
-0.23269
-0.174842
-0.123898
-0.08367
-0.0544771
-0.0346759
-0.0219514
-0.0141831
-0.0096723
-0.00719885
-0.00593535
-0.00534875
-0.00511098
-0.00502975
-0.00499914
-0.00496513
-0.00490576
-0.00481498
-0.00469513
-0.00455187
-0.0043914
-0.00421908
-0.00403903
-0.00385415
-0.00366646
-0.00347743
-0.00328829