/*--------------------------------*- C++ -*----------------------------------*\
  =========                 |
  \\      /  F ield         | OpenFOAM: The Open Source CFD Toolbox
   \\    /   O peration     | Website:  https://openfoam.org
    \\  /    A nd           | Version:  11
     \\/     M anipulation  |
\*---------------------------------------------------------------------------*/
FoamFile
{
    format      ascii;
    class       surfaceScalarField;
    location    "4.730365";
    object      phi;
}
// * * * * * * * * * * * * * * * * * * * * * * * * * * * * * * * * * * * * * //

dimensions      [0 3 -1 0 0 0 0];

internalField   nonuniform List<scalar> 
14638
(
0.00250289
-2.88765e-06
0.0025116
-8.71445e-06
0.0025265
-1.49028e-05
0.00254808
-2.15776e-05
0.00257686
-2.87758e-05
0.00261316
-3.63014e-05
0.00265692
-4.37644e-05
0.00270731
-5.03817e-05
0.00276262
-5.53118e-05
0.00282026
-5.76436e-05
0.00287712
-5.68586e-05
0.00293074
-5.36252e-05
0.00297928
-4.85356e-05
0.00302145
-4.21698e-05
0.00305647
-3.50211e-05
0.00308384
-2.73715e-05
0.00310321
-1.93636e-05
0.00311426
-1.10537e-05
0.00311675
-2.49267e-06
0.00311055
6.19805e-06
0.00309578
1.47736e-05
0.00307292
2.28637e-05
0.00304289
3.0023e-05
0.00300708
3.5819e-05
0.00296714
3.99309e-05
0.00292492
4.22203e-05
0.00288218
4.27494e-05
0.00284043
4.17485e-05
0.00280087
3.9553e-05
0.00276434
3.65354e-05
0.00273129
3.30489e-05
0.0027019
2.93918e-05
0.00267611
2.57911e-05
0.0026537
2.24022e-05
0.00263439
1.93171e-05
0.00261781
1.65783e-05
0.00260362
1.41923e-05
0.00259147
1.21424e-05
0.00258108
1.03986e-05
0.00257215
8.92524e-06
0.00256446
7.68574e-06
0.00255782
6.64576e-06
0.00255204
5.77473e-06
0.002547
5.04628e-06
0.00254256
4.43822e-06
0.00253863
3.93194e-06
0.00253512
3.51184e-06
0.00253195
3.16465e-06
0.00252907
2.87889e-06
0.00252643
2.64448e-06
0.00252398
2.45248e-06
0.00252168
2.29495e-06
0.00251952
2.16495e-06
0.00251746
2.0565e-06
0.00251549
1.96461e-06
0.00251361
1.88527e-06
0.00251179
1.81536e-06
0.00251004
1.75252e-06
0.00250835
1.69504e-06
0.0025067
1.64169e-06
0.00250511
1.59158e-06
0.00250357
1.5441e-06
0.00250207
1.49883e-06
0.00250061
1.45543e-06
0.0024992
1.41363e-06
0.00249783
1.37308e-06
0.00249649
1.33328e-06
0.0024952
1.29346e-06
0.00249395
1.25259e-06
0.00249274
1.20946e-06
0.00249158
1.16298e-06
0.00249046
1.1124e-06
0.00248941
1.05736e-06
0.00248841
9.97371e-07
0.00248748
9.30359e-07
0.00248663
8.50518e-07
0.00248588
7.46217e-07
0.00248528
5.99353e-07
0.00248489
3.87705e-07
0.0024848
9.11515e-08
0.0024851
-2.98996e-07
0.00248587
-7.70208e-07
0.00248716
-1.28262e-06
0.00248893
-1.77055e-06
0.00249108
-2.15357e-06
0.00249343
-2.35548e-06
0.00249576
-2.32602e-06
0.00249782
-2.05787e-06
0.00249941
-1.59264e-06
0.00250042
-1.01265e-06
0.00250084
-4.20808e-07
0.00250076
8.51036e-08
0.00250032
4.35402e-07
0.00249972
6.01768e-07
0.00249912
5.97826e-07
0.00249866
4.68559e-07
0.00249838
2.73533e-07
0.00249831
6.99521e-08
0.00249841
-9.96219e-08
0.00249862
-2.12645e-07
0.00249889
-2.6548e-07
0.00249916
-2.68015e-07
0.0024994
-2.36812e-07
0.00249958
-1.89058e-07
0.00249972
-1.38612e-07
0.00249982
-9.43512e-08
0.00249988
-6.033e-08
0.00249991
-3.69663e-08
0.00249994
-2.25368e-08
0.00249995
-1.44919e-08
0.00249996
-1.03653e-08
0.00249997
-8.25197e-09
0.00249998
-6.93958e-09
0.00249998
-5.81964e-09
0.00249999
-4.69934e-09
0.00249999
-3.60454e-09
0.00249999
-2.62796e-09
0.0025
-1.84123e-09
0.0025
-1.26443e-09
0.0025
-8.72862e-10
0.0025
-6.19224e-10
0.0025
-4.54905e-10
0.0025
-3.42553e-10
0.0025
-2.59293e-10
0.0025
-1.939e-10
0.0025
-1.41928e-10
0.0025
-1.01589e-10
0.0025
-7.14395e-11
0.0025
-4.9666e-11
0.0025
-3.42478e-11
0.0025
-2.33397e-11
0.0025
-1.55169e-11
0.0025
-9.80919e-12
0.0025
-5.60267e-12
0.0025
-2.50706e-12
0.0025
-2.54508e-13
0.0025
1.35927e-12
0.0025
2.49576e-12
0.0025
3.2833e-12
0.0025
3.8182e-12
0.0025
4.17169e-12
0.0025
4.39352e-12
0.0025
4.52028e-12
0.0025
4.57729e-12
0.0025
4.58438e-12
0.0025
4.55501e-12
0.0025
4.5005e-12
0.0025
4.42771e-12
0.0025
4.34342e-12
0.0025
4.25031e-12
0.0025
4.15366e-12
0.0025
4.05183e-12
0.0025
3.95381e-12
0.0025
3.84626e-12
0.0025
3.76135e-12
0.0025
3.63342e-12
0.0025
3.61152e-12
0.0025
3.37417e-12
0.0025
3.63241e-12
2.96912e-12
0.00250286
-5.74869e-06
0.0025115
-1.7355e-05
0.0025263
-2.96997e-05
0.00254777
-4.30534e-05
0.0025765
-5.7502e-05
0.00261287
-7.26665e-05
0.00265687
-8.77725e-05
0.00270771
-0.000101217
0.00276367
-0.000111276
0.00282205
-0.000116017
0.00287954
-0.000114352
0.00293366
-0.000107745
0.00298255
-9.74225e-05
0.00302495
-8.45729e-05
0.00306013
-7.01979e-05
0.00308761
-5.48542e-05
0.00310706
-3.88139e-05
0.00311818
-2.21707e-05
0.00312069
-5.00961e-06
0.00311445
1.24376e-05
0.00309955
2.96811e-05
0.00307644
4.59691e-05
0.00304607
6.03906e-05
0.00300983
7.20594e-05
0.00296945
8.03181e-05
0.00292678
8.4885e-05
0.00288364
8.58914e-05
0.00284158
8.38116e-05
0.0028018
7.9332e-05
0.00276512
7.3211e-05
0.00273201
6.61642e-05
0.00270261
5.87923e-05
0.00267685
5.15505e-05
0.0026545
4.47475e-05
0.00263525
3.85648e-05
0.00261875
3.30837e-05
0.00260463
2.83143e-05
0.00259255
2.42207e-05
0.00258221
2.07411e-05
0.00257333
1.78029e-05
0.00256568
1.53319e-05
0.00255907
1.32593e-05
0.00255332
1.15235e-05
0.00254829
1.00719e-05
0.00254387
8.86023e-06
0.00253995
7.85137e-06
0.00253645
7.01428e-06
0.00253329
6.32256e-06
0.00253042
5.75338e-06
0.00252778
5.28666e-06
0.00252532
4.90454e-06
0.00252303
4.59119e-06
0.00252086
4.33268e-06
0.0025188
4.11709e-06
0.00251683
3.93444e-06
0.00251494
3.77672e-06
0.00251312
3.63771e-06
0.00251136
3.51273e-06
0.00250965
3.39838e-06
0.002508
3.29222e-06
0.0025064
3.19253e-06
0.00250485
3.0981e-06
0.00250334
3.00809e-06
0.00250187
2.92187e-06
0.00250045
2.8389e-06
0.00249906
2.75852e-06
0.00249771
2.67975e-06
0.00249641
2.6011e-06
0.00249514
2.52051e-06
0.00249391
2.4356e-06
0.00249273
2.3441e-06
0.0024916
2.24445e-06
0.00249052
2.13591e-06
0.0024895
2.01747e-06
0.00248855
1.88511e-06
0.00248767
1.72758e-06
0.00248689
1.5222e-06
0.00248626
1.23349e-06
0.00248583
8.17621e-07
0.00248568
2.34523e-07
0.00248592
-5.33712e-07
0.00248661
-1.46337e-06
0.00248781
-2.47671e-06
0.00248948
-3.44451e-06
0.00249153
-4.20767e-06
0.00249379
-4.61459e-06
0.00249603
-4.56434e-06
0.00249802
-4.0408e-06
0.00249955
-3.12499e-06
0.00250051
-1.97934e-06
0.0025009
-8.07929e-07
0.00250079
1.94546e-07
0.00250034
8.88628e-07
0.00249972
1.21692e-06
0.00249912
1.20565e-06
0.00249864
9.43948e-07
0.00249836
5.50567e-07
0.00249829
1.40016e-07
0.0024984
-2.02135e-07
0.00249861
-4.30285e-07
0.00249888
-5.36825e-07
0.00249916
-5.41522e-07
0.0024994
-4.77799e-07
0.00249959
-3.80518e-07
0.00249973
-2.77896e-07
0.00249982
-1.88057e-07
0.00249988
-1.19272e-07
0.00249992
-7.23489e-08
0.00249994
-4.36855e-08
0.00249995
-2.79828e-08
0.00249996
-2.01365e-08
0.00249997
-1.62297e-08
0.00249998
-1.38005e-08
0.00249998
-1.16459e-08
0.00249999
-9.41859e-09
0.00249999
-7.21024e-09
0.00249999
-5.23463e-09
0.0025
-3.64858e-09
0.0025
-2.49414e-09
0.0025
-1.71782e-09
0.0025
-1.2198e-09
0.0025
-8.9917e-10
0.0025
-6.79745e-10
0.0025
-5.15962e-10
0.0025
-3.86266e-10
0.0025
-2.82676e-10
0.0025
-2.02186e-10
0.0025
-1.42142e-10
0.0025
-9.89171e-11
0.0025
-6.84051e-11
0.0025
-4.68505e-11
0.0025
-3.13887e-11
0.0025
-2.00841e-11
0.0025
-1.17372e-11
0.0025
-5.58229e-12
0.0025
-1.10176e-12
0.0025
2.11206e-12
0.0025
4.37502e-12
0.0025
5.94831e-12
0.0025
7.01844e-12
0.0025
7.7322e-12
0.0025
8.18277e-12
0.0025
8.44775e-12
0.0025
8.5718e-12
0.0025
8.59947e-12
0.0025
8.55207e-12
0.0025
8.45738e-12
0.0025
8.32365e-12
0.0025
8.16962e-12
0.0025
7.99526e-12
0.0025
7.81629e-12
0.0025
7.62431e-12
0.0025
7.44209e-12
0.0025
7.23871e-12
0.0025
7.08069e-12
0.0025
6.83895e-12
0.0025
6.79672e-12
0.0025
6.35495e-12
0.0025
6.82001e-12
5.61565e-12
0.00250281
-8.55601e-06
0.00251129
-2.58404e-05
0.00252587
-4.42778e-05
0.00254713
-6.43126e-05
0.00257574
-8.61135e-05
0.00261222
-0.000109144
0.00265671
-0.00013226
0.00270845
-0.000152964
0.00276575
-0.000168572
0.00282561
-0.000175882
0.00288439
-0.000173131
0.0029395
-0.000162857
0.00298909
-0.000147005
0.00303195
-0.000127433
0.00306743
-0.000105676
0.00309512
-8.25529e-05
0.00311475
-5.84356e-05
0.00312599
-3.34172e-05
0.00312856
-7.57979e-06
0.00312224
1.87576e-05
0.00310706
4.48609e-05
0.00308346
6.95718e-05
0.00305238
9.14712e-05
0.00301527
0.000109173
0.00297393
0.00012165
0.00293035
0.000128468
0.0028864
0.000129842
0.00284369
0.00012652
0.00280345
0.000119573
0.00276649
0.000110171
0.00273324
9.94126e-05
0.00270383
8.82086e-05
0.00267813
7.72434e-05
0.00265591
6.69754e-05
0.0026368
5.76692e-05
0.00262045
4.94386e-05
0.00260647
4.22909e-05
0.00259453
3.61659e-05
0.0025843
3.09663e-05
0.00257552
2.65797e-05
0.00256796
2.28933e-05
0.00256142
1.98023e-05
0.00255573
1.72142e-05
0.00255075
1.50502e-05
0.00254637
1.32438e-05
0.00254248
1.174e-05
0.002539
1.04924e-05
0.00253586
9.46196e-06
0.002533
8.61452e-06
0.00253037
7.92013e-06
0.00252792
7.35213e-06
0.00252562
6.88674e-06
0.00252345
6.5031e-06
0.00252139
6.18328e-06
0.00251941
5.91235e-06
0.00251751
5.67833e-06
0.00251567
5.47196e-06
0.0025139
5.28631e-06
0.00251218
5.11637e-06
0.00251051
4.95857e-06
0.0025089
4.8104e-06
0.00250732
4.6701e-06
0.0025058
4.53646e-06
0.00250431
4.40858e-06
0.00250286
4.28572e-06
0.00250145
4.16695e-06
0.00250008
4.05089e-06
0.00249875
3.93534e-06
0.00249745
3.81727e-06
0.00249619
3.69309e-06
0.00249498
3.55933e-06
0.00249381
3.41352e-06
0.00249269
3.25437e-06
0.00249163
3.08031e-06
0.00249063
2.8855e-06
0.0024897
2.65376e-06
0.00248887
2.35226e-06
0.00248818
1.92934e-06
0.00248767
1.32075e-06
0.00248744
4.67176e-07
0.00248757
-6.58836e-07
0.00248813
-2.024e-06
0.00248917
-3.5155e-06
0.00249066
-4.94409e-06
0.00249253
-6.07528e-06
0.0024946
-6.68444e-06
0.00249666
-6.62065e-06
0.00249848
-5.85795e-06
0.00249987
-4.51434e-06
0.00250071
-2.82911e-06
0.00250101
-1.10442e-06
0.00250084
3.70553e-07
0.00250034
1.3879e-06
0.00249969
1.86144e-06
0.00249907
1.82957e-06
0.00249859
1.42491e-06
0.00249831
8.24882e-07
0.00249825
2.01154e-07
0.00249837
-3.17551e-07
0.0024986
-6.62383e-07
0.00249888
-8.21807e-07
0.00249917
-8.25904e-07
0.00249942
-7.25745e-07
0.00249961
-5.74809e-07
0.00249975
-4.16512e-07
0.00249984
-2.7875e-07
0.00249989
-1.74155e-07
0.00249993
-1.03724e-07
0.00249994
-6.15798e-08
0.00249996
-3.92435e-08
0.00249996
-2.86344e-08
0.00249997
-2.3636e-08
0.00249998
-2.04939e-08
0.00249998
-1.74661e-08
0.00249999
-1.41462e-08
0.00249999
-1.07806e-08
0.00249999
-7.76265e-09
0.0025
-5.35887e-09
0.0025
-3.63365e-09
0.0025
-2.49385e-09
0.0025
-1.77535e-09
0.0025
-1.31752e-09
0.0025
-1.00308e-09
0.0025
-7.64865e-10
0.0025
-5.73369e-10
0.0025
-4.19159e-10
0.0025
-2.99236e-10
0.0025
-2.10146e-10
0.0025
-1.46415e-10
0.0025
-1.01677e-10
0.0025
-7.01556e-11
0.0025
-4.75169e-11
0.0025
-3.09066e-11
0.0025
-1.85945e-11
0.0025
-9.49353e-12
0.0025
-2.86034e-12
0.0025
1.89804e-12
0.0025
5.25206e-12
0.0025
7.58828e-12
0.0025
9.18617e-12
0.0025
1.026e-11
0.0025
1.09489e-11
0.0025
1.13638e-11
0.0025
1.15726e-11
0.0025
1.16381e-11
0.0025
1.15941e-11
0.0025
1.1479e-11
0.0025
1.13073e-11
0.0025
1.11043e-11
0.0025
1.08722e-11
0.0025
1.06316e-11
0.0025
1.03729e-11
0.0025
1.01262e-11
0.0025
9.8506e-12
0.0025
9.63567e-12
0.0025
9.30835e-12
0.0025
9.24515e-12
0.0025
8.65868e-12
0.0025
9.24067e-12
7.68187e-12
0.00250272
-1.12787e-05
0.00251096
-3.40806e-05
0.00252519
-5.85055e-05
0.00254609
-8.52157e-05
0.00257449
-0.000114514
0.0026111
-0.000145754
0.00265629
-0.000177447
0.00270942
-0.000206094
0.00276878
-0.000227932
0.00283096
-0.000238061
0.0028917
-0.000233873
0.0029483
-0.000219458
0.00299892
-0.000197616
0.00304244
-0.000170954
0.00307835
-0.000141586
0.00310635
-0.000110561
0.00312623
-7.83092e-05
0.00313767
-4.48597e-05
0.00314033
-1.02368e-05
0.0031339
2.51904e-05
0.00311831
6.04441e-05
0.00309396
9.39223e-05
0.0030618
0.000123632
0.00302336
0.000147614
0.00298059
0.000164419
0.00293561
0.000173447
0.00289043
0.00017502
0.00284675
0.000170205
0.00280581
0.000160508
0.00276843
0.000147556
0.00273498
0.000132856
0.00270555
0.000117642
0.00267996
0.000102831
0.00265792
8.90229e-05
0.00263903
7.65562e-05
0.0026229
6.55666e-05
0.00260914
5.60492e-05
0.0025974
4.79118e-05
0.00258735
4.10161e-05
0.00257872
3.52061e-05
0.00257129
3.03278e-05
0.00256485
2.62397e-05
0.00255924
2.28177e-05
0.00255434
1.99566e-05
0.00255001
1.75687e-05
0.00254617
1.55811e-05
0.00254273
1.39328e-05
0.00253962
1.25721e-05
0.00253678
1.14541e-05
0.00253416
1.0539e-05
0.00253172
9.7915e-06
0.00252943
9.17982e-06
0.00252726
8.67613e-06
0.00252518
8.2565e-06
0.0025232
7.90102e-06
0.00252128
7.59382e-06
0.00251943
7.32268e-06
0.00251764
7.07855e-06
0.0025159
6.85492e-06
0.00251421
6.6472e-06
0.00251257
6.45217e-06
0.00251097
6.2676e-06
0.00250942
6.09196e-06
0.0025079
5.92416e-06
0.00250642
5.76331e-06
0.00250498
5.60831e-06
0.00250357
5.45741e-06
0.0025022
5.30782e-06
0.00250086
5.15557e-06
0.00249956
4.99584e-06
0.0024983
4.8239e-06
0.00249707
4.6362e-06
0.0024959
4.43072e-06
0.00249477
4.20521e-06
0.00249371
3.95218e-06
0.00249271
3.65108e-06
0.0024918
3.26014e-06
0.00249102
2.71319e-06
0.00249041
1.92735e-06
0.00249005
8.2528e-07
0.00249002
-6.30028e-07
0.0024904
-2.39753e-06
0.00249121
-4.33294e-06
0.00249246
-6.19184e-06
0.00249406
-7.66939e-06
0.00249584
-8.47186e-06
0.00249762
-8.40028e-06
0.00249918
-7.41832e-06
0.00250035
-5.6781e-06
0.00250101
-3.49159e-06
0.00250116
-1.2543e-06
0.00250088
6.54101e-07
0.0025003
1.96006e-06
0.00249962
2.54988e-06
0.00249897
2.47426e-06
0.00249849
1.90873e-06
0.00249822
1.08874e-06
0.00249818
2.42776e-07
0.00249832
-4.574e-07
0.00249858
-9.19788e-07
0.00249889
-1.12934e-06
0.00249919
-1.12737e-06
0.00249945
-9.83915e-07
0.00249964
-7.72547e-07
0.00249978
-5.53099e-07
0.00249987
-3.6395e-07
0.00249991
-2.22187e-07
0.00249994
-1.28596e-07
0.00249995
-7.4348e-08
0.00249996
-4.70959e-08
0.00249997
-3.52614e-08
0.00249997
-3.02585e-08
0.00249998
-2.70003e-08
0.00249998
-2.33136e-08
0.00249999
-1.88949e-08
0.00249999
-1.42882e-08
0.00249999
-1.01556e-08
0.0025
-6.90761e-09
0.0025
-4.62693e-09
0.0025
-3.16083e-09
0.0025
-2.26137e-09
0.0025
-1.6968e-09
0.0025
-1.30574e-09
0.0025
-1.0019e-09
0.0025
-7.51937e-10
0.0025
-5.48368e-10
0.0025
-3.9006e-10
0.0025
-2.73298e-10
0.0025
-1.90608e-10
0.0025
-1.33056e-10
0.0025
-9.26479e-11
0.0025
-6.35579e-11
0.0025
-4.20909e-11
0.0025
-2.60878e-11
0.0025
-1.42197e-11
0.0025
-5.56142e-12
0.0025
6.4665e-13
0.0025
5.02401e-12
0.0025
8.07914e-12
0.0025
1.01812e-11
0.0025
1.16069e-11
0.0025
1.2537e-11
0.0025
1.31123e-11
0.0025
1.34214e-11
0.0025
1.35437e-11
0.0025
1.35246e-11
0.0025
1.34122e-11
0.0025
1.32272e-11
0.0025
1.3e-11
0.0025
1.27357e-11
0.0025
1.24587e-11
0.0025
1.21589e-11
0.0025
1.18718e-11
0.0025
1.15502e-11
0.0025
1.12986e-11
0.0025
1.09172e-11
0.0025
1.08339e-11
0.0025
1.01693e-11
0.0025
1.0773e-11
9.06496e-12
0.0025026
-1.38808e-05
0.00251049
-4.19711e-05
0.00252421
-7.22251e-05
0.00254458
-0.000105584
0.00257262
-0.000142558
0.00260934
-0.000182466
0.00265541
-0.000223524
0.00271041
-0.000261095
0.00277266
-0.000290181
0.00283808
-0.000303482
0.00290151
-0.0002973
0.0029601
-0.000278049
0.00301205
-0.000249561
0.0030564
-0.000215307
0.00309284
-0.000178025
0.00312124
-0.000138958
0.00314145
-9.85202e-05
0.00315318
-5.65906e-05
0.00315599
-1.30514e-05
0.00314945
3.17337e-05
0.00313335
7.65449e-05
0.00310799
0.000119279
0.00307435
0.000157272
0.00303408
0.000187883
0.00298933
0.000209167
0.00294244
0.00022034
0.00289559
0.000221866
0.0028506
0.000215202
0.00280874
0.000202362
0.00277081
0.000185489
0.00273713
0.000166535
0.0027077
0.000147076
0.00268227
0.000128257
0.00266048
0.000110813
0.00264189
9.5141e-05
0.00262608
8.13836e-05
0.00261262
6.95113e-05
0.00260114
5.93895e-05
0.00259132
5.08312e-05
0.0025829
4.36321e-05
0.00257563
3.75942e-05
0.00256933
3.25374e-05
0.00256384
2.83059e-05
0.00255903
2.47684e-05
0.00255479
2.18162e-05
0.00255101
1.93594e-05
0.00254762
1.7323e-05
0.00254455
1.56433e-05
0.00254174
1.42648e-05
0.00253914
1.31383e-05
0.00253671
1.22197e-05
0.00253442
1.14693e-05
0.00253224
1.08523e-05
0.00253016
1.03386e-05
0.00252816
9.90352e-06
0.00252622
9.5272e-06
0.00252435
9.19465e-06
0.00252254
8.89485e-06
0.00252077
8.61996e-06
0.00251905
8.36451e-06
0.00251738
8.12469e-06
0.00251575
7.89789e-06
0.00251416
7.68234e-06
0.00251261
7.47684e-06
0.00251109
7.28044e-06
0.00250961
7.09197e-06
0.00250815
6.90944e-06
0.00250673
6.72954e-06
0.00250534
6.5474e-06
0.00250398
6.357e-06
0.00250265
6.15223e-06
0.00250136
5.92827e-06
0.00250011
5.68215e-06
0.0024989
5.41077e-06
0.00249775
5.10512e-06
0.00249666
4.74097e-06
0.00249565
4.26901e-06
0.00249475
3.61066e-06
0.00249401
2.66677e-06
0.0024935
1.34383e-06
0.00249327
-4.04374e-07
0.0024934
-2.53091e-06
0.00249393
-4.86436e-06
0.00249485
-7.11131e-06
0.00249609
-8.90339e-06
0.0024975
-9.88355e-06
0.00249891
-9.8081e-06
0.00250012
-8.63034e-06
0.00250097
-6.53346e-06
0.00250138
-3.89663e-06
0.00250133
-1.20241e-06
0.0025009
1.08493e-06
0.00250023
2.63042e-06
0.00249948
3.29515e-06
0.00249881
3.14265e-06
0.00249833
2.39088e-06
0.00249809
1.33257e-06
0.00249808
2.52427e-07
0.00249826
-6.35029e-07
0.00249855
-1.21497e-06
0.00249889
-1.46961e-06
0.00249922
-1.45293e-06
0.00249949
-1.25593e-06
0.00249969
-9.74327e-07
0.00249982
-6.86044e-07
0.0024999
-4.40843e-07
0.00249994
-2.60295e-07
0.00249995
-1.44308e-07
0.00249996
-8.00928e-08
0.00249996
-5.0438e-08
0.00249997
-3.9547e-08
0.00249997
-3.60154e-08
0.00249998
-3.34029e-08
0.00249999
-2.92861e-08
0.00249999
-2.3707e-08
0.00249999
-1.77122e-08
0.0025
-1.23537e-08
0.0025
-8.22528e-09
0.0025
-5.4155e-09
0.0025
-3.67944e-09
0.0025
-2.65619e-09
0.0025
-2.02701e-09
0.0025
-1.58345e-09
0.0025
-1.22451e-09
0.0025
-9.19354e-10
0.0025
-6.67402e-10
0.0025
-4.71847e-10
0.0025
-3.29255e-10
0.0025
-2.29769e-10
0.0025
-1.61363e-10
0.0025
-1.13541e-10
0.0025
-7.89617e-11
0.0025
-5.32182e-11
0.0025
-3.38752e-11
0.0025
-1.94744e-11
0.0025
-8.96538e-12
0.0025
-1.44342e-12
0.0025
3.85603e-12
0.0025
7.56029e-12
0.0025
1.01242e-11
0.0025
1.18799e-11
0.0025
1.30444e-11
0.0025
1.37826e-11
0.0025
1.42016e-11
0.0025
1.43944e-11
0.0025
1.44178e-11
0.0025
1.43275e-11
0.0025
1.41506e-11
0.0025
1.39214e-11
0.0025
1.36483e-11
0.0025
1.33577e-11
0.0025
1.30407e-11
0.0025
1.27356e-11
0.0025
1.23924e-11
0.0025
1.21225e-11
0.0025
1.17169e-11
0.0025
1.16145e-11
0.0025
1.09317e-11
0.0025
1.14796e-11
9.79699e-12
0.00250244
-1.63204e-05
0.00250986
-4.93882e-05
0.00252288
-8.52437e-05
0.00254248
-0.000125186
0.00256995
-0.000170028
0.00260666
-0.000219178
0.00265377
-0.000270634
0.00271115
-0.000318477
0.00277725
-0.000356277
0.00284699
-0.000373224
0.00291388
-0.000364188
0.00297495
-0.000339123
0.0030285
-0.000303109
0.00307381
-0.000260617
0.00311084
-0.000215056
0.00313967
-0.000167792
0.00316029
-0.000119135
0.00317239
-6.86941e-05
0.00317544
-1.60976e-05
0.0031688
3.83721e-05
0.00315209
9.32587e-05
0.00312548
0.000145887
0.00308996
0.000192787
0.00304735
0.000230493
0.00300006
0.000256457
0.00295072
0.000269685
0.00290175
0.000270837
0.0028551
0.000261853
0.0028121
0.000245355
0.00277351
0.000224081
0.00273957
0.000200476
0.00271017
0.000176475
0.00268498
0.00015345
0.00266354
0.000132256
0.00264535
0.000113329
0.00262993
9.67993e-05
0.00261685
8.25954e-05
0.00260571
7.05278e-05
0.00259619
6.03514e-05
0.00258801
5.18079e-05
0.00258096
4.46512e-05
0.00257483
3.86617e-05
0.00256949
3.36513e-05
0.00256479
2.94629e-05
0.00256064
2.59678e-05
0.00255694
2.30598e-05
0.00255361
2.06508e-05
0.00255059
1.86658e-05
0.00254782
1.70394e-05
0.00254524
1.57129e-05
0.00254283
1.46337e-05
0.00254054
1.37541e-05
0.00253836
1.30321e-05
0.00253627
1.24316e-05
0.00253425
1.19229e-05
0.00253229
1.14824e-05
0.0025304
1.10925e-05
0.00252855
1.07404e-05
0.00252675
1.04171e-05
0.002525
1.01165e-05
0.00252329
9.83437e-06
0.00252162
9.56776e-06
0.00251999
9.31478e-06
0.00251839
9.07422e-06
0.00251683
8.84519e-06
0.00251529
8.62658e-06
0.00251379
8.41629e-06
0.00251231
8.21061e-06
0.00251085
8.00384e-06
0.00250942
7.78873e-06
0.00250801
7.5577e-06
0.00250664
7.30447e-06
0.00250529
7.02483e-06
0.00250399
6.71463e-06
0.00250273
6.36344e-06
0.00250153
5.94407e-06
0.0025004
5.40125e-06
0.00249936
4.64646e-06
0.00249846
3.56716e-06
0.00249775
2.05612e-06
0.00249728
5.88332e-08
0.00249713
-2.37367e-06
0.00249731
-5.0477e-06
0.00249783
-7.62828e-06
0.00249862
-9.69217e-06
0.00249956
-1.08268e-05
0.0025005
-1.07487e-05
0.00250127
-9.40177e-06
0.00250173
-6.9969e-06
0.00250181
-3.97381e-06
0.0025015
-8.93873e-07
0.00250089
1.70184e-06
0.00250009
3.42289e-06
0.00249928
4.10846e-06
0.00249859
3.83586e-06
0.00249811
2.86499e-06
0.0024979
1.54485e-06
0.00249794
2.15673e-07
0.00249817
-8.65647e-07
0.00249851
-1.56197e-06
0.0024989
-1.85391e-06
0.00249926
-1.81018e-06
0.00249955
-1.54543e-06
0.00249975
-1.18034e-06
0.00249988
-8.13131e-07
0.00249994
-5.06017e-07
0.00249997
-2.84957e-07
0.00249997
-1.47973e-07
0.00249997
-7.68911e-08
0.00249997
-4.82835e-08
0.00249997
-4.11982e-08
0.00249997
-4.09973e-08
0.00249998
-3.99134e-08
0.00249999
-3.55539e-08
0.00249999
-2.86519e-08
0.00249999
-2.10315e-08
0.0025
-1.4286e-08
0.0025
-9.23238e-09
0.0025
-5.9365e-09
0.0025
-4.01125e-09
0.0025
-2.94191e-09
0.0025
-2.30246e-09
0.0025
-1.83521e-09
0.0025
-1.43195e-09
0.0025
-1.07372e-09
0.0025
-7.73447e-10
0.0025
-5.41653e-10
0.0025
-3.75543e-10
0.0025
-2.62097e-10
0.0025
-1.85384e-10
0.0025
-1.32004e-10
0.0025
-9.31009e-11
0.0025
-6.37556e-11
0.0025
-4.1474e-11
0.0025
-2.48149e-11
0.0025
-1.26711e-11
0.0025
-4.01082e-12
0.0025
2.07485e-12
0.0025
6.33167e-12
0.0025
9.29487e-12
0.0025
1.13435e-11
0.0025
1.27232e-11
0.0025
1.36166e-11
0.0025
1.41456e-11
0.0025
1.44145e-11
0.0025
1.449e-11
0.0025
1.44345e-11
0.0025
1.42806e-11
0.0025
1.40658e-11
0.0025
1.38011e-11
0.0025
1.35147e-11
0.0025
1.31989e-11
0.0025
1.28931e-11
0.0025
1.25477e-11
0.0025
1.22739e-11
0.0025
1.18676e-11
0.0025
1.17481e-11
0.0025
1.10915e-11
0.0025
1.15365e-11
9.9963e-12
0.00250223
-1.85477e-05
0.00250902
-5.61849e-05
0.0025211
-9.73243e-05
0.00253964
-0.000143721
0.00256622
-0.000196614
0.00260273
-0.000255682
0.00265094
-0.000318843
0.00271123
-0.000378769
0.00278233
-0.000427375
0.00285769
-0.000448586
0.00292889
-0.000435385
0.00299292
-0.000403154
0.00304827
-0.000358461
0.00309459
-0.000306931
0.00313221
-0.000252679
0.00316151
-0.00019709
0.00318262
-0.000140246
0.00319524
-8.13169e-05
0.00319867
-1.95273e-05
0.00319201
4.50289e-05
0.00317461
0.000110663
0.00314647
0.000174023
0.00310861
0.000230649
0.00306306
0.00027605
0.00301257
0.000306937
0.00296018
0.000322083
0.00290859
0.000322419
0.00285995
0.0003105
0.00281562
0.000289686
0.00277629
0.000263411
0.0027421
0.000234667
0.0027128
0.000205769
0.00268794
0.000178309
0.00266696
0.000153239
0.00264928
0.000131008
0.00263437
0.00011171
0.00262176
9.52107e-05
0.00261103
8.12497e-05
0.00260187
6.9513e-05
0.002594
5.96811e-05
0.00258719
5.14566e-05
0.00258128
4.45784e-05
0.0025761
3.88259e-05
0.00257155
3.40172e-05
0.00256751
3.00045e-05
0.00256391
2.66666e-05
0.00256065
2.39035e-05
0.00255769
2.16296e-05
0.00255496
1.977e-05
0.00255241
1.82572e-05
0.00255002
1.70299e-05
0.00254774
1.60324e-05
0.00254556
1.52155e-05
0.00254345
1.45368e-05
0.00254141
1.39615e-05
0.00253943
1.34627e-05
0.0025375
1.30201e-05
0.00253563
1.26195e-05
0.00253379
1.22512e-05
0.002532
1.19084e-05
0.00253025
1.15867e-05
0.00252853
1.1283e-05
0.00252685
1.09954e-05
0.0025252
1.07228e-05
0.00252358
1.04645e-05
0.00252199
1.02196e-05
0.00252042
9.98607e-06
0.00251887
9.75989e-06
0.00251734
9.53464e-06
0.00251583
9.30184e-06
0.00251433
9.05233e-06
0.00251286
8.77815e-06
0.00251141
8.47356e-06
0.00250999
8.13313e-06
0.00250861
7.74508e-06
0.00250727
7.27996e-06
0.002506
6.67822e-06
0.0025048
5.84408e-06
0.00250371
4.65501e-06
0.00250278
2.99321e-06
0.00250204
7.9734e-07
0.00250154
-1.87886e-06
0.00250132
-4.82453e-06
0.00250136
-7.67178e-06
0.00250162
-9.95294e-06
0.00250201
-1.121e-05
0.00250238
-1.11268e-05
0.00250262
-9.63987e-06
0.00250261
-6.98437e-06
0.00250229
-3.6526e-06
0.00250167
-2.74411e-07
0.00250083
2.54242e-06
0.00249989
4.35969e-06
0.002499
4.99908e-06
0.00249828
4.55298e-06
0.00249783
3.32255e-06
0.00249766
1.71194e-06
0.00249776
1.16052e-07
0.00249806
-1.16628e-06
0.00249847
-1.97622e-06
0.00249891
-2.29434e-06
0.00249931
-2.20679e-06
0.00249962
-1.85556e-06
0.00249983
-1.38993e-06
0.00249995
-9.31146e-07
0.0025
-5.55175e-07
0.0025
-2.92043e-07
0.00249999
-1.36423e-07
0.00249998
-6.28156e-08
0.00249997
-3.98196e-08
0.00249997
-4.0161e-08
0.00249997
-4.55126e-08
0.00249998
-4.68932e-08
0.00249999
-4.23631e-08
0.00249999
-3.38178e-08
0.0025
-2.42128e-08
0.0025
-1.58614e-08
0.0025
-9.83421e-09
0.0025
-6.12111e-09
0.0025
-4.11947e-09
0.0025
-3.10589e-09
0.0025
-2.52292e-09
0.0025
-2.06392e-09
0.0025
-1.62556e-09
0.0025
-1.2138e-09
0.0025
-8.63682e-10
0.0025
-5.96382e-10
0.0025
-4.09627e-10
0.0025
-2.85853e-10
0.0025
-2.04022e-10
0.0025
-1.47316e-10
0.0025
-1.05415e-10
0.0025
-7.31911e-11
0.0025
-4.83889e-11
0.0025
-2.97694e-11
0.0025
-1.62409e-11
0.0025
-6.65619e-12
0.0025
4.62939e-14
0.0025
4.73314e-12
0.0025
8.01414e-12
0.0025
1.03045e-11
0.0025
1.18684e-11
0.0025
1.28987e-11
0.0025
1.35283e-11
0.0025
1.38699e-11
0.0025
1.3999e-11
0.0025
1.39832e-11
0.0025
1.38599e-11
0.0025
1.36687e-11
0.0025
1.34233e-11
0.0025
1.31523e-11
0.0025
1.28498e-11
0.0025
1.25548e-11
0.0025
1.22205e-11
0.0025
1.19526e-11
0.0025
1.15618e-11
0.0025
1.14276e-11
0.0025
1.0824e-11
0.0025
1.11494e-11
9.80897e-12
0.00250196
-2.05046e-05
0.00250796
-6.21875e-05
0.00251881
-0.000108178
0.0025359
-0.000160802
0.00256116
-0.000221878
0.00259711
-0.00029163
0.00264636
-0.000368098
0.00271011
-0.000442517
0.00278765
-0.000504917
0.00287024
-0.000531172
0.00294666
-0.000511812
0.00301409
-0.000470581
0.00307138
-0.000415747
0.00311866
-0.000354217
0.0031568
-0.000290816
0.00318651
-0.000226804
0.00320815
-0.00016188
0.0032214
-9.4568e-05
0.00322536
-2.34951e-05
0.00321881
5.15824e-05
0.00320071
0.000128766
0.00317083
0.000203903
0.00313018
0.000271303
0.00308105
0.000325175
0.00302669
0.0003613
0.00297059
0.000378182
0.00291588
0.000377132
0.00286488
0.000361494
0.00281902
0.000335544
0.0027789
0.000303531
0.0027445
0.000269067
0.00271541
0.00023486
0.00269102
0.000202706
0.00267063
0.000173627
0.00265358
0.00014805
0.00263929
0.000126003
0.00262724
0.000107261
0.00261702
9.14749e-05
0.00260828
7.82504e-05
0.00260076
6.71988e-05
0.00259425
5.79675e-05
0.00258858
5.02525e-05
0.0025836
4.3801e-05
0.00257921
3.84074e-05
0.00257531
3.39061e-05
0.00257181
3.01628e-05
0.00256865
2.70665e-05
0.00256576
2.45226e-05
0.00256308
2.24471e-05
0.00256057
2.07639e-05
0.0025582
1.94032e-05
0.00255593
1.83011e-05
0.00255375
1.74009e-05
0.00255163
1.66539e-05
0.00254957
1.60204e-05
0.00254756
1.54699e-05
0.0025456
1.498e-05
0.00254369
1.45353e-05
0.00254181
1.41255e-05
0.00253998
1.37439e-05
0.00253818
1.33858e-05
0.00253641
1.30481e-05
0.00253468
1.27291e-05
0.00253298
1.24279e-05
0.0025313
1.21441e-05
0.00252964
1.18772e-05
0.002528
1.16255e-05
0.00252637
1.13849e-05
0.00252476
1.11482e-05
0.00252316
1.09058e-05
0.00252156
1.06468e-05
0.00251998
1.03613e-05
0.00251841
1.00418e-05
0.00251686
9.68136e-06
0.00251534
9.26683e-06
0.00251385
8.76717e-06
0.00251241
8.1202e-06
0.00251103
7.22576e-06
0.00250973
5.9551e-06
0.00250854
4.18362e-06
0.00250749
1.84549e-06
0.00250662
-1.00366e-06
0.00250593
-4.14097e-06
0.00250544
-7.17505e-06
0.00250509
-9.6063e-06
0.00250482
-1.09438e-05
0.00250454
-1.08483e-05
0.00250416
-9.25243e-06
0.00250358
-6.41231e-06
0.0025028
-2.86343e-06
0.00250181
7.08585e-07
0.00250071
3.64189e-06
0.00249961
5.46027e-06
0.00249864
5.9734e-06
0.0024979
5.29027e-06
0.00249747
3.75248e-06
0.00249736
1.81785e-06
0.00249755
-6.49331e-08
0.00249793
-1.55552e-06
0.00249843
-2.47408e-06
0.00249894
-2.80312e-06
0.00249938
-2.64987e-06
0.00249972
-2.18829e-06
0.00249993
-1.60093e-06
0.00250003
-1.03546e-06
0.00250006
-5.82913e-07
0.00250005
-2.76758e-07
0.00250002
-1.06262e-07
0.00249999
-3.60475e-08
0.00249997
-2.45197e-08
0.00249997
-3.67025e-08
0.00249997
-5.01284e-08
0.00249998
-5.48618e-08
0.00249999
-5.00224e-08
0.0025
-3.92917e-08
0.0025
-2.71937e-08
0.0025
-1.69586e-08
0.0025
-9.91748e-09
0.0025
-5.89551e-09
0.0025
-3.9714e-09
0.0025
-3.14306e-09
0.0025
-2.69503e-09
0.0025
-2.27684e-09
0.0025
-1.80855e-09
0.0025
-1.33874e-09
0.0025
-9.35079e-10
0.0025
-6.32737e-10
0.0025
-4.28985e-10
0.0025
-2.99491e-10
0.0025
-2.16441e-10
0.0025
-1.5899e-10
0.0025
-1.15514e-10
0.0025
-8.11236e-11
0.0025
-5.41994e-11
0.0025
-3.39234e-11
0.0025
-1.92898e-11
0.0025
-9.03051e-12
0.0025
-1.9123e-12
0.0025
3.05922e-12
0.0025
6.56096e-12
0.0025
9.03076e-12
0.0025
1.07385e-11
0.0025
1.18791e-11
0.0025
1.25916e-11
0.0025
1.29948e-11
0.0025
1.31716e-11
0.0025
1.31936e-11
0.0025
1.31022e-11
0.0025
1.2938e-11
0.0025
1.27166e-11
0.0025
1.24668e-11
0.0025
1.21843e-11
0.0025
1.19067e-11
0.0025
1.15912e-11
0.0025
1.13349e-11
0.0025
1.09691e-11
0.0025
1.08234e-11
0.0025
1.0285e-11
0.0025
1.04965e-11
9.36721e-12
0.00250162
-2.21242e-05
0.00250663
-6.71947e-05
0.00251591
-0.000117459
0.00253105
-0.000175942
0.00255439
-0.000245222
0.00258923
-0.000326471
0.00263928
-0.000418149
0.00270704
-0.000510273
0.00279287
-0.00059075
0.00288472
-0.000623014
0.00296738
-0.000594481
0.00303857
-0.000541764
0.00309775
-0.000474932
0.00314581
-0.000402277
0.00318427
-0.000329269
0.0032143
-0.00025684
0.00323653
-0.000184108
0.00325064
-0.000108678
0.00325545
-2.83025e-05
0.00324922
5.78116e-05
0.00323042
0.000147563
0.00319851
0.000235816
0.00315449
0.000315323
0.00310103
0.000378633
0.00304197
0.000420359
0.00298145
0.000438704
0.00292306
0.000435516
0.00286939
0.000415168
0.00282187
0.000383067
0.00278096
0.000344436
0.00274646
0.000303571
0.00271773
0.000263589
0.00269397
0.000226467
0.00267435
0.000193249
0.00265809
0.000164303
0.00264455
0.000139544
0.00263318
0.000118635
0.00262354
0.000101114
0.0026153
8.64923e-05
0.00260819
7.43042e-05
0.00260202
6.41383e-05
0.00259663
5.56471e-05
0.00259188
4.85461e-05
0.00258768
4.26077e-05
0.00258394