/*--------------------------------*- C++ -*----------------------------------*\
  =========                 |
  \\      /  F ield         | OpenFOAM: The Open Source CFD Toolbox
   \\    /   O peration     | Website:  https://openfoam.org
    \\  /    A nd           | Version:  11
     \\/     M anipulation  |
\*---------------------------------------------------------------------------*/
FoamFile
{
    format      ascii;
    class       surfaceScalarField;
    location    "6.818493";
    object      phi_0;
}
// * * * * * * * * * * * * * * * * * * * * * * * * * * * * * * * * * * * * * //

dimensions      [0 3 -1 0 0 0 0];

internalField   nonuniform List<scalar> 
14638
(
0.00250288
-2.87683e-06
0.00251156
-8.68258e-06
0.00252641
-1.48477e-05
0.0025479
-2.14951e-05
0.00257656
-2.86594e-05
0.0026127
-3.6143e-05
0.00265626
-4.35553e-05
0.00270638
-5.01152e-05
0.00276136
-5.49863e-05
0.00281863
-5.72721e-05
0.00287511
-5.64771e-05
0.00292842
-5.33123e-05
0.00297685
-4.84254e-05
0.00301932
-4.24674e-05
0.00305532
-3.60082e-05
0.00308472
-2.9392e-05
0.00310751
-2.27896e-05
0.00312374
-1.62329e-05
0.00313343
-9.69188e-06
0.0031366
-3.16556e-06
0.00313336
3.23525e-06
0.00312411
9.24975e-06
0.0031096
1.45066e-05
0.00309097
1.86375e-05
0.00306955
2.14162e-05
0.00304669
2.2865e-05
0.00302341
2.32779e-05
0.00300025
2.31527e-05
0.00297721
2.30492e-05
0.00295378
2.34228e-05
0.00292929
2.44891e-05
0.00290312
2.61702e-05
0.00287498
2.81399e-05
0.00284504
2.9945e-05
0.00281389
3.11447e-05
0.00278247
3.14191e-05
0.00275185
3.06219e-05
0.00272307
2.87806e-05
0.00269701
2.60625e-05
0.00267428
2.27259e-05
0.00265521
1.907e-05
0.00263982
1.53938e-05
0.00262786
1.19623e-05
0.00261887
8.98429e-06
0.00261228
6.59738e-06
0.00260741
4.86298e-06
0.00260364
3.76913e-06
0.0026004
3.24129e-06
0.00259724
3.15988e-06
0.00259386
3.38162e-06
0.0025901
3.76129e-06
0.00258593
4.16994e-06
0.00258142
4.50746e-06
0.00257671
4.70835e-06
0.00257197
4.74161e-06
0.00256737
4.60622e-06
0.00256304
4.32405e-06
0.00255911
3.93195e-06
0.00255564
3.47409e-06
0.00255264
2.99537e-06
0.0025501
2.5363e-06
0.00254798
2.12941e-06
0.00254618
1.7972e-06
0.00254463
1.55151e-06
0.00254323
1.39403e-06
0.00254191
1.31784e-06
0.00254061
1.30947e-06
0.00253925
1.35145e-06
0.00253783
1.42476e-06
0.00253632
1.5111e-06
0.00253472
1.59465e-06
0.00253306
1.66325e-06
0.00253135
1.70895e-06
0.00252962
1.728e-06
0.0025279
1.72037e-06
0.00252621
1.68901e-06
0.00252457
1.63887e-06
0.002523
1.57601e-06
0.00252149
1.50671e-06
0.00252006
1.43682e-06
0.00251868
1.3712e-06
0.00251737
1.31348e-06
0.0025161
1.26591e-06
0.00251488
1.22939e-06
0.00251367
1.20365e-06
0.00251248
1.18748e-06
0.00251131
1.17902e-06
0.00251013
1.17605e-06
0.00250895
1.17628e-06
0.00250778
1.17759e-06
0.0025066
1.17821e-06
0.00250542
1.17685e-06
0.00250425
1.1727e-06
0.00250308
1.1654e-06
0.00250193
1.155e-06
0.00250079
1.1418e-06
0.00249966
1.12625e-06
0.00249855
1.10886e-06
0.00249746
1.09007e-06
0.00249639
1.07016e-06
0.00249534
1.04928e-06
0.00249431
1.02733e-06
0.00249331
1.004e-06
0.00249233
9.78807e-07
0.00249138
9.51125e-07
0.00249046
9.20298e-07
0.00248957
8.85674e-07
0.00248873
8.46523e-07
0.00248793
8.01708e-07
0.00248718
7.49059e-07
0.00248649
6.84523e-07
0.00248589
6.01367e-07
0.0024854
4.89906e-07
0.00248506
3.38303e-07
0.00248493
1.34857e-07
0.00248506
-1.28233e-07
0.00248551
-4.50272e-07
0.00248632
-8.179e-07
0.00248753
-1.20299e-06
0.00248909
-1.56407e-06
0.00249094
-1.85199e-06
0.00249296
-2.01922e-06
0.00249499
-2.03083e-06
0.00249687
-1.87421e-06
0.00249843
-1.5646e-06
0.00249958
-1.14422e-06
0.00250025
-6.74712e-07
0.00250048
-2.24674e-07
0.00250033
1.44574e-07
0.00249994
3.91119e-07
0.00249944
4.994e-07
0.00249896
4.80522e-07
0.00249859
3.66445e-07
0.00249839
2.00217e-07
0.00249837
2.52483e-08
0.00249849
-1.23592e-07
0.00249872
-2.25194e-07
0.00249899
-2.7321e-07
0.00249926
-2.73521e-07
0.0024995
-2.39607e-07
0.00249969
-1.87496e-07
0.00249982
-1.31596e-07
0.0024999
-8.21864e-08
0.00249995
-4.4657e-08
0.00249997
-2.01112e-08
0.00249998
-6.73567e-09
0.00249998
-1.32725e-09
0.00249998
-5.49792e-10
0.00249998
-1.71822e-09
0.00249998
-3.10436e-09
0.00249999
-3.88472e-09
0.00249999
-3.89328e-09
0.00249999
-3.32619e-09
0.0025
-2.49434e-09
0.0025
-1.66688e-09
0.0025
-1.00551e-09
0.0025
-5.60325e-10
0.0025
-3.12254e-10
0.0025
-1.94366e-10
-1.52689e-10
0.00250285
-5.72731e-06
0.00251146
-1.7292e-05
0.0025262
-2.95908e-05
0.0025476
-4.28898e-05
0.00257621
-5.7271e-05
0.00261242
-7.23516e-05
0.00265622
-8.73555e-05
0.00270679
-0.000100683
0.00276242
-0.000110621
0.00282041
-0.000115263
0.0028775
-0.000113568
0.00293127
-0.000107084
0.00298
-9.715e-05
0.00302263
-8.50989e-05
0.00305871
-7.20893e-05
0.00308813
-5.88075e-05
0.00311092
-4.55857e-05
0.00312716
-3.24694e-05
0.00313685
-1.93778e-05
0.00313997
-6.29102e-06
0.00313663
6.57666e-06
0.00312719
1.86941e-05
0.0031124
2.92938e-05
0.00309343
3.76085e-05
0.00307168
4.31627e-05
0.00304855
4.59947e-05
0.00302512
4.6708e-05
0.00300194
4.63292e-05
0.00297898
4.60151e-05
0.00295569
4.67072e-05
0.00293133
4.88499e-05
0.00290522
5.22786e-05
0.00287705
5.63166e-05
0.00284697
6.00268e-05
0.00281561
6.25029e-05
0.00278394
6.30915e-05
0.00275306
6.1498e-05
0.00272406
5.77837e-05
0.00269783
5.22933e-05
0.002675
4.55535e-05
0.0026559
3.81732e-05
0.00264053
3.07573e-05
0.00262865
2.38422e-05
0.00261979
1.78489e-05
0.00261333
1.3055e-05
0.00260861
9.58312e-06
0.00260497
7.40754e-06
0.00260184
6.37566e-06
0.00259875
6.24364e-06
0.00259541
6.72007e-06
0.00259167
7.5101e-06
0.00258748
8.35265e-06
0.00258294
9.04564e-06
0.0025782
9.45764e-06
0.00257341
9.52726e-06
0.00256876
9.25373e-06
0.0025644
8.68245e-06
0.00256045
7.88883e-06
0.00255696
6.96277e-06
0.00255396
5.99541e-06
0.00255143
5.06874e-06
0.00254931
4.24849e-06
0.00254752
3.57999e-06
0.00254599
3.08695e-06
0.00254461
2.77256e-06
0.00254331
2.6225e-06
0.00254201
2.60936e-06
0.00254066
2.69758e-06
0.00253924
2.84858e-06
0.00253772
3.02527e-06
0.00253612
3.19566e-06
0.00253445
3.33524e-06
0.00253273
3.42803e-06
0.00253099
3.4666e-06
0.00252926
3.45105e-06
0.00252756
3.38744e-06
0.00252591
3.2859e-06
0.00252433
3.15876e-06
0.00252282
3.01878e-06
0.00252138
2.87778e-06
0.00252
2.7456e-06
0.00251869
2.62956e-06
0.00251742
2.53414e-06
0.00251619
2.46116e-06
0.00251498
2.41001e-06
0.00251379
2.37821e-06
0.00251261
2.36197e-06
0.00251143
2.35677e-06
0.00251025
2.35797e-06
0.00250906
2.36129e-06
0.00250788
2.36316e-06
0.00250669
2.36097e-06
0.00250551
2.35309e-06
0.00250434
2.33886e-06
0.00250318
2.31837e-06
0.00250203
2.29226e-06
0.00250089
2.26149e-06
0.00249977
2.22706e-06
0.00249867
2.18988e-06
0.00249759
2.15057e-06
0.00249653
2.10939e-06
0.00249549
2.0662e-06
0.00249448
2.02038e-06
0.00249348
1.97095e-06
0.00249252
1.91667e-06
0.00249158
1.8562e-06
0.00249068
1.78821e-06
0.00248982
1.71122e-06
0.00248899
1.62295e-06
0.00248822
1.51916e-06
0.00248752
1.39195e-06
0.00248689
1.22818e-06
0.00248637
1.0089e-06
0.002486
7.10867e-07
0.00248582
3.10948e-07
0.0024859
-2.06489e-07
0.00248629
-8.4051e-07
0.00248704
-1.56531e-06
0.00248816
-2.32591e-06
0.00248964
-3.04079e-06
0.0024914
-3.61289e-06
0.00249333
-3.94794e-06
0.00249527
-3.97619e-06
0.00249707
-3.67186e-06
0.00249857
-3.06429e-06
0.00249966
-2.23639e-06
0.0025003
-1.31e-06
0.00250049
-4.21113e-07
0.00250033
3.0829e-07
0.00249993
7.94506e-07
0.00249942
1.0061e-06
0.00249894
9.64757e-07
0.00249857
7.33853e-07
0.00249837
3.99134e-07
0.00249835
4.73053e-08
0.00249848
-2.51812e-07
0.00249871
-4.5583e-07
0.00249899
-5.51926e-07
0.00249926
-5.51871e-07
0.00249951
-4.82802e-07
0.0024997
-3.77058e-07
0.00249983
-2.63777e-07
0.00249991
-1.63782e-07
0.00249995
-8.79997e-08
0.00249997
-3.86534e-08
0.00249998
-1.20253e-08
0.00249998
-1.55904e-09
0.00249998
-4.2676e-10
0.00249998
-3.13813e-09
0.00249998
-6.1712e-09
0.00249999
-7.86622e-09
0.00249999
-7.91548e-09
0.00249999
-6.752e-09
0.0025
-5.03699e-09
0.0025
-3.33612e-09
0.0025
-1.98563e-09
0.0025
-1.08648e-09
0.0025
-5.94954e-10
0.0025
-3.68553e-10
-2.99406e-10
0.0025028
-8.52458e-06
0.00251125
-2.57476e-05
0.00252578
-4.41172e-05
0.00254696
-6.40711e-05
0.00257546
-8.57715e-05
0.00261179
-0.000108677
0.00265607
-0.000131638
0.00270755
-0.000152162
0.0027645
-0.000167579
0.00282397
-0.000174725
0.0028823
-0.000171903
0.002937
-0.000161779
0.00298631
-0.000146467
0.00302926
-0.000128048
0.00306548
-0.000108304
0.00309493
-8.82604e-05
0.00311773
-6.83892e-05
0.00313398
-4.87125e-05
0.00314365
-2.90555e-05
0.0031467
-9.34102e-06
0.00314315
1.01284e-05
0.00313332
2.85307e-05
0.00311796
4.46492e-05
0.00309832
5.72534e-05
0.00307591
6.55706e-05
0.00305226
6.96452e-05
0.00302854
7.04236e-05
0.00300534
6.95284e-05
0.00298257
6.87918e-05
0.00295957
6.97042e-05
0.00293546
7.29631e-05
0.00290944
7.82961e-05
0.00288114
8.46197e-05
0.00285071
9.04476e-05
0.00281886
9.43555e-05
0.00278662
9.53298e-05
0.0027552
9.29259e-05
0.00272572
8.72545e-05
0.00269916
7.8861e-05
0.00267614
6.85659e-05
0.00265701
5.73082e-05
0.00264175
4.60165e-05
0.00263008
3.55102e-05
0.0026215
2.64302e-05
0.00261536
1.91966e-05
0.00261095
1.39922e-05
0.00260759
1.07716e-05
0.00260467
9.2954e-06
0.00260173
9.18477e-06
0.00259846
9.98916e-06
0.00259471
1.12548e-05
0.00259048
1.25821e-05
0.00258586
1.36638e-05
0.00258102
1.43026e-05
0.00257614
1.44088e-05
0.00257141
1.39855e-05
0.00256698
1.31057e-05
0.00256298
1.18873e-05
0.00255948
1.04694e-05
0.00255648
8.99202e-06
0.00255397
7.58057e-06
0.00255188
6.33509e-06
0.00255014
5.3241e-06
0.00254864
4.5829e-06
0.0025473
4.11535e-06
0.00254602
3.89867e-06
0.00254474
3.89013e-06
0.00254341
4.03477e-06
0.00254198
4.27325e-06
0.00254046
4.54876e-06
0.00253884
4.81251e-06
0.00253715
5.02732e-06
0.00253541
5.16923e-06
0.00253365
5.22735e-06
0.00253189
5.20231e-06
0.00253018
5.10381e-06
0.00252852
4.94767e-06
0.00252692
4.75295e-06
0.0025254
4.53926e-06
0.00252396
4.32468e-06
0.00252258
4.12421e-06
0.00252126
3.94887e-06
0.00251999
3.80542e-06
0.00251875
3.69645e-06
0.00251754
3.62092e-06
0.00251634
3.5749e-06
0.00251515
3.55248e-06
0.00251396
3.54672e-06
0.00251277
3.55049e-06
0.00251157
3.55724e-06
0.00251038
3.56156e-06
0.00250918
3.5595e-06
0.00250798
3.54866e-06
0.00250679
3.52807e-06
0.00250561
3.49799e-06
0.00250445
3.45945e-06
0.00250329
3.41397e-06
0.00250216
3.36312e-06
0.00250104
3.30832e-06
0.00249994
3.25053e-06
0.00249886
3.19021e-06
0.0024978
3.12712e-06
0.00249676
3.06038e-06
0.00249574
2.98854e-06
0.00249475
2.9097e-06
0.00249378
2.82181e-06
0.00249285
2.72279e-06
0.00249195
2.61035e-06
0.00249109
2.48107e-06
0.00249028
2.32874e-06
0.00248953
2.1419e-06
0.00248886
1.90154e-06
0.00248828
1.58016e-06
0.00248785
1.1439e-06
0.0024876
5.58883e-07
0.0024876
-1.98129e-07
0.00248788
-1.12638e-06
0.0024885
-2.18883e-06
0.00248948
-3.30557e-06
0.0024908
-4.35741e-06
0.00249239
-5.2018e-06
0.00249414
-5.69966e-06
0.00249591
-5.74748e-06
0.00249755
-5.30627e-06
0.0024989
-4.41828e-06
0.00249987
-3.20519e-06
0.00250041
-1.84658e-06
0.00250053
-5.43496e-07
0.00250031
5.23361e-07
0.00249988
1.22974e-06
0.00249936
1.52889e-06
0.00249887
1.45301e-06
0.00249851
1.09656e-06
0.00249832
5.87496e-07
0.00249831
5.54236e-08
0.00249845
-3.95202e-07
0.0024987
-7.00993e-07
0.00249899
-8.42997e-07
0.00249928
-8.3934e-07
0.00249952
-7.3139e-07
0.00249972
-5.6841e-07
0.00249985
-3.9479e-07
0.00249993
-2.42234e-07
0.00249996
-1.27296e-07
0.00249998
-5.31881e-08
0.00249998
-1.39999e-08
0.00249998
5.21729e-10
0.00249998
1.00235e-09
0.00249998
-4.05492e-09
0.00249998
-9.24516e-09
0.00249999
-1.20846e-08
0.00249999
-1.21987e-08
0.00249999
-1.03527e-08
0.0025
-7.63994e-09
0.0025
-4.97472e-09
0.0025
-2.88751e-09
0.0025
-1.52712e-09
0.0025
-8.095e-10
0.0025
-4.99624e-10
-4.3343e-10
0.00250271
-1.1238e-05
0.00251093
-3.39603e-05
0.00252511
-5.82969e-05
0.00254594
-8.49011e-05
0.00257423
-0.000114067
0.00261069
-0.000145139
0.00265568
-0.000176624
0.00270854
-0.000205024
0.00276755
-0.000226591
0.0028293
-0.000236472
0.00288954
-0.000232142
0.00294562
-0.000217861
0.00299581
-0.000196657
0.00303921
-0.000171447
0.0030756
-0.000144694
0.00310509
-0.000117748
0.00312789
-9.11915e-05
0.00314414
-6.49634e-05
0.00315381
-3.87273e-05
0.00315676
-1.22882e-05
0.0031529
1.39882e-05
0.00314247
3.89584e-05
0.00312625
6.08728e-05
0.00310557
7.79353e-05
0.00308214
8.89984e-05
0.00305769
9.40956e-05
0.00303354
9.45684e-05
0.00301033
9.27419e-05
0.00298787
9.12485e-05
0.00296535
9.22282e-05
0.00294164
9.66708e-05
0.00291578
0.000104161
0.00288728
0.000113118
0.00285633
0.000121402
0.00282369
0.000126986
0.00279057
0.000128456
0.00275828
0.000125216
0.00272808
0.000117451
0.002701
0.000105947
0.00267771
9.18568e-05
0.00265853
7.64831e-05
0.00264344
6.11041e-05
0.00263211
4.68407e-05
0.00262398
3.45653e-05
0.00261833
2.48446e-05
0.0026144
1.79186e-05
0.00261146
1.37135e-05
0.00260887
1.18888e-05
0.00260614
1.19134e-05
0.00260297
1.31605e-05
0.00259922
1.50029e-05
0.00259491
1.68926e-05
0.00259016
1.84129e-05
0.00258516
1.93005e-05
0.00258013
1.94413e-05
0.00257527
1.88481e-05
0.00257074
1.76277e-05
0.00256669
1.5947e-05
0.00256316
1.39995e-05
0.00256017
1.19785e-05
0.00255769
1.00558e-05
0.00255566
8.3671e-06
0.00255398
7.00474e-06
0.00255255
6.01499e-06
0.00255126
5.40106e-06
0.00255003
5.12981e-06
0.00254878
5.14108e-06
0.00254746
5.35842e-06
0.00254603
5.69983e-06
0.00254449
6.08733e-06
0.00254285
6.45439e-06
0.00254113
6.75075e-06
0.00253935
6.94453e-06
0.00253756
7.02183e-06
0.00253577
6.98452e-06
0.00253403
6.84671e-06
0.00253235
6.63077e-06
0.00253074
6.36319e-06
0.00252921
6.07104e-06
0.00252775
5.77907e-06
0.00252637
5.50766e-06
0.00252505
5.27167e-06
0.00252377
5.08002e-06
0.00252253
4.93596e-06
0.00252132
4.83775e-06
0.00252011
4.77978e-06
0.00251891
4.75376e-06
0.00251771
4.75005e-06
0.0025165
4.75885e-06
0.00251528
4.7712e-06
0.00251407
4.77977e-06
0.00251285
4.77924e-06
0.00251163
4.76649e-06
0.00251042
4.74038e-06
0.00250921
4.70137e-06
0.00250802
4.65104e-06
0.00250684
4.59156e-06
0.00250568
4.52517e-06
0.00250454
4.45383e-06
0.00250341
4.37893e-06
0.0025023
4.3011e-06
0.0025012
4.22009e-06
0.00250013
4.13476e-06
0.00249907
4.04316e-06
0.00249804
3.94274e-06
0.00249703
3.83068e-06
0.00249605
3.70407e-06
0.0024951
3.55969e-06
0.00249419
3.39297e-06
0.00249332
3.19582e-06
0.00249251
2.9536e-06
0.00249177
2.6421e-06
0.00249112
2.22631e-06
0.00249061
1.66292e-06
0.00249026
9.08317e-07
0.00249013
-6.77394e-08
0.00249026
-1.26499e-06
0.00249071
-2.63657e-06
0.00249149
-4.08019e-06
0.00249257
-5.44233e-06
0.00249391
-6.53857e-06
0.0024954
-7.18819e-06
0.00249691
-7.25604e-06
0.00249829
-6.69047e-06
0.00249942
-5.54556e-06
0.00250019
-3.97922e-06
0.00250057
-2.22538e-06
0.00250057
-5.46506e-07
0.00250027
8.21255e-07
0.00249979
1.71551e-06
0.00249924
2.07557e-06
0.00249875
1.94461e-06
0.0024984
1.44794e-06
0.00249823
7.55161e-07
0.00249825
3.8046e-08
0.00249842
-5.65013e-07
0.00249869
-9.70355e-07
0.002499
-1.15371e-06
0.0024993
-1.14047e-06
0.00249956
-9.87267e-07
0.00249975
-7.61228e-07
0.00249988
-5.2275e-07
0.00249995
-3.14825e-07
0.00249998
-1.5967e-07
0.00249999
-6.11835e-08
0.00249999
-1.07575e-08
0.00249998
6.11229e-09
0.00249998
4.31697e-09
0.00249998
-4.32968e-09
0.00249998
-1.24308e-08
0.00249999
-1.67231e-08
0.00249999
-1.68992e-08
0.00249999
-1.42114e-08
0.0025
-1.03128e-08
0.0025
-6.54302e-09
0.0025
-3.65189e-09
0.0025
-1.82689e-09
0.0025
-9.16081e-10
0.0025
-5.65372e-10
-5.49357e-10
0.00250259
-1.38319e-05
0.00251046
-4.18262e-05
0.00252414
-7.19732e-05
0.00254444
-0.000105203
0.00257238
-0.000142013
0.00260896
-0.000181713
0.00265484
-0.000222507
0.00270958
-0.00025976
0.00277147
-0.000288481
0.00283642
-0.000301426
0.00289927
-0.00029499
0.00295721
-0.0002758
0.00300852
-0.000247974
0.00305247
-0.000215391
0.00308904
-0.000181261
0.00311853
-0.000147243
0.00314132
-0.000113977
0.00315759
-8.12375e-05
0.00316729
-4.84267e-05
0.00317014
-1.51403e-05
0.0031659
1.8233e-05
0.00315467
5.01824e-05
0.00313724
7.83004e-05
0.00311511
0.000100072
0.00309024
0.000113862
0.00306467
0.000119667
0.00303994
0.0001193
0.00301674
0.000115944
0.00299477
0.000113213
0.00297296
0.000114043
0.00294986
0.000119771
0.00292424
0.000129785
0.00289548
0.000141876
0.00286379
0.000153094
0.00283007
0.000160697
0.00279572
0.000162811
0.00276224
0.000158693
0.00273105
0.000148642
0.00270326
0.000133738
0.0026796
0.00011552
0.00266038
9.57011e-05
0.00264554
7.59452e-05
0.00263468
5.76992e-05
0.00262716
4.20815e-05
0.0026222
2.98112e-05
0.00261893
2.11814e-05
0.00261657
1.60776e-05
0.00261442
1.40386e-05
0.00261198
1.43572e-05
0.00260893
1.6206e-05
0.00260517
1.87646e-05
0.00260074
2.13228e-05
0.0025958
2.33485e-05
0.00259059
2.45131e-05
0.00258535
2.46836e-05
0.00258031
2.38905e-05
0.00257565
2.2284e-05
0.00257151
2.00883e-05
0.00256795
1.75591e-05
0.00256498
1.49483e-05
0.00256256
1.2478e-05
0.0025606
1.03219e-05
0.00255901
8.5965e-06
0.00255767
7.3582e-06
0.00255646
6.6077e-06
0.00255529
6.29887e-06
0.00255408
6.35117e-06
0.00255278
6.66374e-06
0.00255135
7.12937e-06
0.00254979
7.64688e-06
0.00254811
8.13074e-06
0.00254634
8.51708e-06
0.00254452
8.76622e-06
0.00254268
8.8619e-06
0.00254086
8.80819e-06
0.00253908
8.62481e-06
0.00253737
8.34173e-06
0.00253574
7.99395e-06
0.00253419
7.61676e-06
0.00253273
7.24217e-06
0.00253134
6.89625e-06
0.00253001
6.59779e-06
0.00252874
6.3578e-06
0.00252749
6.17994e-06
0.00252627
6.06148e-06
0.00252505
5.99472e-06
0.00252384
5.96864e-06
0.00252262
5.97058e-06
0.00252139
5.98775e-06
0.00252015
6.00862e-06
0.00251891
6.0238e-06
0.00251766
6.02666e-06
0.00251641
6.01337e-06
0.00251517
5.98273e-06
0.00251394
5.93562e-06
0.00251271
5.87428e-06
0.0025115
5.80167e-06
0.00251031
5.72083e-06
0.00250913
5.63435e-06
0.00250796
5.5441e-06
0.00250681
5.45091e-06
0.00250568
5.35456e-06
0.00250456
5.25366e-06
0.00250346
5.14577e-06
0.00250237
5.02767e-06
0.00250131
4.89571e-06
0.00250027
4.74603e-06
0.00249925
4.57438e-06
0.00249827
4.37495e-06
0.00249733
4.13789e-06
0.00249643
3.84577e-06
0.00249561
3.47004e-06
0.00249486
2.96938e-06
0.00249423
2.29256e-06
0.00249375
1.38772e-06
0.00249347
2.18512e-07
0.00249342
-1.21539e-06
0.00249364
-2.85882e-06
0.00249415
-4.59014e-06
0.00249493
-6.22582e-06
0.00249594
-7.5444e-06
0.00249708
-8.32812e-06
0.00249824
-8.41344e-06
0.00249928
-7.73739e-06
0.0025001
-6.36492e-06
0.00250061
-4.48712e-06
0.00250077
-2.38779e-06
0.00250061
-3.8572e-07
0.0025002
1.23216e-06
0.00249965
2.26897e-06
0.00249907
2.65234e-06
0.00249858
2.43734e-06
0.00249825
1.77997e-06
0.00249811
8.90724e-07
0.00249817
-1.74609e-08
0.00249838
-7.73368e-07
0.00249868
-1.27422e-06
0.00249902
-1.49171e-06
0.00249934
-1.45995e-06
0.0024996
-1.25224e-06
0.0024998
-9.54953e-07
0.00249992
-6.4546e-07
0.00249998
-3.7854e-07
0.0025
-1.82017e-07
0.0025
-5.99806e-08
0.00249999
-3.7344e-10
0.00249998
1.63514e-08
0.00249998
9.99305e-09
0.00249998
-3.93603e-09
0.00249998
-1.59275e-08
0.00249999
-2.20291e-08
0.00249999
-2.22046e-08
0.00249999
-1.84176e-08
0.0025
-1.30572e-08
0.0025
-7.98896e-09
0.0025
-4.20906e-09
0.0025
-1.92469e-09
0.0025
-8.73559e-10
0.0025
-5.45761e-10
-6.43869e-10
0.00250243
-1.62644e-05
0.00250983
-4.92223e-05
0.00252281
-8.49544e-05
0.00254235
-0.000124746
0.00256974
-0.000169397
0.00260632
-0.000218298
0.00265325
-0.000269435
0.00271037
-0.000316882
0.0027761
-0.000354211
0.00284534
-0.000370667
0.00291157
-0.000361213
0.00297183
-0.000336061
0.00302449
-0.000300637
0.00306903
-0.000259926
0.00310573
-0.000217961
0.00313516
-0.000176672
0.00315788
-0.0001367
0.00317418
-9.75366e-05
0.00318394
-5.81912e-05
0.00318672
-1.79223e-05
0.00318204
2.29199e-05
0.00316982
6.24007e-05
0.00315084
9.72839e-05
0.00312679
0.000124122
0.00310002
0.000140626
0.00307297
0.000146718
0.00304749
0.000144785
0.00302435
0.000139081
0.00300311
0.000134454
0.00298231
0.000134838
0.00296009
0.000141995
0.00293483
0.000155042
0.00290576
0.000170952
0.0028731
0.000185755
0.00283796
0.000195831
0.00280199
0.00019878
0.00276697
0.000193718
0.00273449
0.000181117
0.0027058
0.000162427
0.00268168
0.000139646
0.00266242
0.000114956
0.00264792
9.04495e-05
0.00263769
6.79317e-05
0.00263098
4.87857e-05
0.0026269
3.38895e-05
0.0026245
2.35843e-05
0.00262288
1.76981e-05
0.0026213
1.5623e-05
0.00261921
1.6444e-05
0.00261631
1.91019e-05
0.00261252
2.25565e-05
0.00260793
2.59187e-05
0.00260274
2.85333e-05
0.00259725
3.00081e-05
0.00259173
3.01989e-05
0.00258646
2.91649e-05
0.00258163
2.71116e-05
0.00257738
2.43319e-05
0.00257379
2.11529e-05
0.00257085
1.78926e-05
0.0025685
1.48282e-05
0.00256664
1.21741e-05
0.00256517
1.00712e-05
0.00256394
8.58517e-06
0.00256284
7.71149e-06
0.00256175
7.38764e-06
0.00256059
7.50886e-06
0.00255931
7.94603e-06
0.00255788
8.56338e-06
0.00255629
9.23404e-06
0.00255457
9.85183e-06
0.00255275
1.03387e-05
0.00255086
1.06472e-05
0.00254897
1.07599e-05
0.00254709
1.06841e-05
0.00254527
1.04468e-05
0.00254352
1.00869e-05
0.00254187
9.64932e-06
0.00254031
9.1786e-06
0.00253883
8.71467e-06
0.00253744
8.28972e-06
0.00253611
7.92656e-06
0.00253483
7.63815e-06
0.00253358
7.42827e-06
0.00253235
7.29273e-06
0.00253113
7.22132e-06
0.00252989
7.19977e-06
0.00252865
7.21195e-06
0.0025274
7.24176e-06
0.00252613
7.27481e-06
0.00252486
7.29958e-06
0.00252358
7.30807e-06
0.00252229
7.29588e-06
0.00252101
7.2619e-06
0.00251974
7.2076e-06
0.00251848
7.13612e-06
0.00251723
7.0514e-06
0.00251599
6.95739e-06
0.00251477
6.85744e-06
0.00251356
6.75394e-06
0.00251236
6.64802e-06
0.00251118
6.53947e-06
0.00251001
6.42668e-06
0.00250884
6.30676e-06
0.0025077
6.17578e-06
0.00250656
6.02917e-06
0.00250545
5.86203e-06
0.00250435
5.66893e-06
0.00250328
5.44273e-06
0.00250225
5.17191e-06
0.00250126
4.83669e-06
0.00250032
4.40505e-06
0.00249946
3.83082e-06
0.0024987
3.05663e-06
0.00249806
2.02424e-06
0.00249759
6.92553e-07
0.00249731
-9.39145e-07
0.00249726
-2.80887e-06
0.00249745
-4.77905e-06
0.00249787
-6.64124e-06
0.00249847
-8.14315e-06
0.00249917
-9.03596e-06
0.00249989
-9.13249e-06
0.00250052
-8.36068e-06
0.00250095
-6.79569e-06
0.00250112
-4.65822e-06
0.00250101
-2.27625e-06
0.00250064
-1.82857e-08
0.00250009
1.78428e-06
0.00249945
2.90507e-06
0.00249884
3.26317e-06
0.00249835
2.92689e-06
0.00249805
2.08281e-06
0.00249796
9.81335e-07
0.00249806
-1.24806e-07
0.00249832
-1.03309e-06
0.00249867
-1.62324e-06
0.00249905
-1.86469e-06
0.00249939
-1.80217e-06
0.00249966
-1.52767e-06
0.00249986
-1.14848e-06
0.00249997
-7.602e-07
0.00250002
-4.29941e-07
0.00250003
-1.90967e-07
0.00250002
-4.68244e-08
0.0025
1.90341e-08
0.00249998
3.22457e-08
0.00249998
1.83393e-08
0.00249997
-3.00436e-09
0.00249998
-2.00526e-08
0.00249998
-2.83189e-08
0.00249999
-2.83287e-08
0.0025
-2.3058e-08
0.0025
-1.58584e-08
0.0025
-9.24208e-09
0.0025
-4.4762e-09
0.0025
-1.75383e-09
0.0025
-6.40915e-10
0.0025
-4.24938e-10
-7.16707e-10
0.00250222
-1.84862e-05
0.002509
-5.60022e-05
0.00252105
-9.70047e-05
0.00253954
-0.000143233
0.00256605
-0.000195909
0.00260244
-0.000254692
0.00265049
-0.000317479
0.00271053
-0.000376928
0.00278127
-0.000424943
0.0028561
-0.000445496
0.00292654
-0.000431653
0.00298957
-0.000399098
0.00304373
-0.000354797
0.00308882
-0.000305016
0.00312554
-0.000254678
0.00315479
-0.000205927
0.00317741
-0.000159314
0.00319377
-0.000113902
0.00320371
-6.8127e-05
0.00320651
-2.0728e-05
0.00320136
2.8072e-05
0.00318793
7.58352e-05
0.00316696
0.000118255
0.00314042
0.000150654
0.00311119
0.000169865
0.00308222
0.000175681
0.0030558
0.000171207
0.00303282
0.000162056
0.00301263
0.00015465
0.00299327
0.000154199
0.00297227
0.00016299
0.00294755
0.000179761
0.0029181
0.000200405
0.00288421
0.000219646
0.00284726
0.000232779
0.00280925
0.000236793
0.00277228
0.000230687
0.00273821
0.000215188
0.00270842
0.000192217
0.00268374
0.00016432
0.00266447
0.000134225
0.00265042
0.000104505
0.00264099
7.73601e-05
0.00263532
5.44595e-05
0.00263236
3.68482e-05
0.00263103
2.49087e-05
0.00263034
1.83916e-05
0.00262945
1.65091e-05
0.0026278
1.80982e-05
0.00262507
2.18272e-05
0.00262123
2.64031e-05
0.00261641
3.07361e-05
0.0026109
3.40399e-05
0.00260505
3.58616e-05
0.00259919
3.60562e-05
0.00259363
3.47264e-05
0.00258859
3.2148e-05
0.00258423
2.86968e-05
0.0025806
2.47828e-05
0.00257769
2.07991e-05
0.00257544
1.70836e-05
0.00257372
1.38942e-05
0.00257239
1.13973e-05
0.00257131
9.66564e-06
0.00257034
8.68643e-06
0.00256935
8.3764e-06
0.00256826
8.60173e-06
0.002567
9.20031e-06
0.00256556
1.00037e-05
0.00256394
1.08561e-05
0.00256216
1.16287e-05
0.00256027
1.22286e-05
0.00255832
1.26012e-05
0.00255635
1.27285e-05
0.00255441
1.26232e-05
0.00255254
1.23212e-05
0.00255075
1.18724e-05
0.00254907
1.13331e-05
0.00254749
1.07583e-05
0.002546
1.01969e-05
0.00254461
9.68745e-06
0.00254328
9.25701e-06
0.00254199
8.92029e-06
0.00254074
8.68074e-06
0.0025395
8.53223e-06
0.00253826
8.46136e-06
0.00253701
8.45004e-06
0.00253575
8.47812e-06
0.00253446
8.52577e-06
0.00253316
8.57545e-06
0.00253185
8.61336e-06
0.00253052
8.63012e-06
0.0025292
8.6209e-06
0.00252788
8.58489e-06
0.00252656
8.52439e-06
0.00252525
8.4437e-06
0.00252396
8.34796e-06
0.00252267
8.24221e-06
0.0025214
8.13068e-06
0.00252014
8.01637e-06
0.00251888
7.90073e-06
0.00251764
7.78363e-06
0.0025164
7.66325e-06
0.00251517
7.53625e-06
0.00251395
7.39797e-06
0.00251274
7.24287e-06
0.00251153
7.06489e-06
0.00251035
6.85727e-06
0.00250918
6.61145e-06
0.00250803
6.31429e-06
0.00250693
5.94408e-06
0.00250587
5.46628e-06
0.00250487
4.83136e-06
0.00250394
3.97792e-06
0.00250312
2.84351e-06
0.00250243
1.38409e-06
0.00250189
-4.00831e-07
0.00250153
-2.44374e-06
0.00250135
-4.59476e-06
0.00250133
-6.62641e-06
0.00250145
-8.26294e-06
0.00250165
-9.23213e-06
0.00250184
-9.32939e-06
0.00250196
-8.47704e-06
0.00250192
-6.76011e-06
0.00250169
-4.42487e-06
0.00250125
-1.8365e-06
0.00250064
5.95105e-07
0.00249992
2.50214e-06
0.00249919
3.63518e-06
0.00249854
3.90882e-06
0.00249806
3.4063e-06
0.0024978
2.34463e-06
0.00249777
1.01286e-06
0.00249794
-2.9831e-07
0.00249827
-1.35702e-06
0.00249867
-2.0276e-06
0.00249909
-2.27951e-06
0.00249946
-2.17057e-06
0.00249974
-1.81386e-06
0.00249993
-1.33975e-06
0.00250004
-8.63508e-07
0.00250007
-4.65113e-07
0.00250006
-1.82939e-07
0.00250004
-1.89693e-08
0.00250001
4.9185e-08
0.00249998
5.45667e-08
0.00249997
2.94267e-08
0.00249997
-1.85726e-09
0.00249998
-2.52484e-08
0.00249998
-3.59683e-08
0.00249999
-3.54952e-08
0.0025
-2.82004e-08
0.0025
-1.86736e-08
0.0025
-1.02087e-08
0.0025
-4.35714e-09
0.0025
-1.24416e-09
0.0025
-1.80081e-10
0.0025
-1.93723e-10
-7.71491e-10
0.00250195
-2.04393e-05
0.00250794
-6.19931e-05
0.00251878
-0.000107837
0.00253582
-0.000160278
0.00256103
-0.000221115
0.00259689
-0.000290549
0.002646
-0.000366592
0.00270952
-0.000440452
0.00278671
-0.00050213
0.00286874
-0.000527529
0.00294432
-0.000507233
0.00301056
-0.000465333
0.0030663
-0.000410538
0.00311182
-0.00035054
0.00314835
-0.000291201
0.00317721
-0.000234794
0.00319959
-0.00018169
0.00321601
-0.000130329
0.00322623
-7.83416e-05
0.0032292
-2.36999e-05
0.00322363
3.36426e-05
0.00320881
9.06584e-05
0.00318541
0.000141651
0.00315577
0.000180299
0.00312339
0.000202244
0.003092
0.00020707
0.00306443
0.000198778
0.00304176
0.000184726
0.00302304
0.00017337
0.00300567
0.00017157
0.00298638
0.000182279
0.00296244
0.000203701
0.00293255
0.000230293
0.00289711
0.000255081
0.00285789
0.000272008
0.00281732
0.000277356
0.00277796
0.000270053
0.00274194
0.000251201
0.00271084
0.000223319
0.00268554
0.000189622
0.0026663
0.000153467
0.00265283
0.000117971
0.00264442
8.57702e-05
0.00264003
5.88465e-05
0.00263846
3.84206e-05
0.00263846
2.49081e-05
0.0026389
1.79558e-05
0.00263885
1.65551e-05
0.00263771
1.92441e-05
0.00263517
2.43679e-05
0.00263123
3.03396e-05
0.00262612
3.58435e-05
0.00262021
3.99532e-05
0.00261391
4.21598e-05
0.00260763
4.2332e-05
0.00260173
4.06341e-05
0.00259644
3.74316e-05
0.00259194
3.32e-05
0.00258828
2.84467e-05
0.00258543
2.36499e-05
0.00258329
1.92149e-05
0.00258174
1.54468e-05
0.0025806
1.25373e-05
0.0025797
1.05645e-05
0.00257889
9.50303e-06
0.00257802
9.24344e-06
0.002577
9.61681e-06
0.00257578
1.04222e-05
0.00257433
1.14534e-05
0.00257267
1.25221e-05
0.00257082
1.34746e-05
0.00256885
1.42021e-05
0.0025668
1.46436e-05
0.00256475
1.47821e-05
0.00256274
1.46377e-05
0.0025608
1.42577e-05
0.00255897
1.37051e-05
0.00255725
1.30495e-05
0.00255565
1.23582e-05
0.00255416
1.16896e-05
0.00255276
1.10895e-05
0.00255142
1.0589e-05
0.00255014
1.02045e-05
0.00254888
9.93846e-06
0.00254763
9.78213e-06
0.00254638
9.7182e-06
0.0025451
9.72401e-06
0.00254381
9.77476e-06
0.00254248
9.84636e-06
0.00254114
9.91783e-06
0.00253978
9.97292e-06
0.00253841
1.00009e-05
0.00253704
9.99671e-06
0.00253566
9.96004e-06
0.00253429
9.89435e-06
0.00253293
9.80537e-06
0.00253158
9.6997e-06
0.00253024
9.58368e-06
0.0025289
9.46258e-06
0.00252758
9.34007e-06
0.00252626
9.21802e-06
0.00252495
9.09637e-06
0.00252364
8.97314e-06
0.00252233
8.84454e-06
0.00252103
8.70516e-06
0.00251972
8.54845e-06
0.00251842
8.36706e-06
0.00251712
8.15281e-06
0.00251584
7.89557e-06
0.00251457
7.58067e-06
0.00251333
7.18485e-06
0.00251212
6.67194e-06
0.00251097
5.99067e-06
0.00250987
5.07776e-06
0.00250884
3.86915e-06
0.0025079
2.32001e-06
0.00250707
4.31139e-07
0.00250635
-1.72543e-06
0.00250575
-3.99116e-06
0.00250525
-6.12604e-06
0.00250483
-7.83943e-06
0.00250444
-8.84492e-06
0.00250404
-8.92841e-06
0.00250357
-8.01124e-06
0.002503
-6.18848e-06
0.0025023
-3.7274e-06
0.00250149
-1.0221e-06
0.0025006
1.48627e-06
0.0024997
3.40341e-06
0.00249887
4.4647e-06
0.00249819
4.58525e-06
0.00249773
3.8652e-06
0.00249752
2.55166e-06
0.00249757
9.70559e-07
0.00249782
-5.51732e-07
0.00249822
-1.75654e-06
0.00249869
-2.49545e-06
0.00249915
-2.74075e-06
0.00249954
-2.56631e-06
0.00249984
-2.10921e-06
0.00250003
-1.52529e-06
0.00250011
-9.5103e-07
0.00250013
-4.79759e-07
0.0025001
-1.54375e-07
0.00250005
2.60441e-08
0.00250001
9.13952e-08
0.00249998
8.36849e-08
0.00249997
4.30057e-08
0.00249997
-1.02458e-09
0.00249998
-3.20551e-08
0.00249998
-4.53687e-08
0.00249999
-4.38962e-08
0.0025
-3.38666e-08
0.0025
-2.14201e-08
0.0025
-1.07705e-08
0.0025
-3.74754e-09
0.0025
-3.28983e-10
0.0025
5.38445e-10
0.0025
1.47117e-10
-8.16221e-10
0.00250162