/*--------------------------------*- C++ -*----------------------------------*\
  =========                 |
  \\      /  F ield         | OpenFOAM: The Open Source CFD Toolbox
   \\    /   O peration     | Website:  https://openfoam.org
    \\  /    A nd           | Version:  11
     \\/     M anipulation  |
\*---------------------------------------------------------------------------*/
FoamFile
{
    format      ascii;
    class       volVectorField;
    location    "6.818493";
    object      U;
}
// * * * * * * * * * * * * * * * * * * * * * * * * * * * * * * * * * * * * * //

dimensions      [0 1 -1 0 0 0 0];

internalField   nonuniform List<vector> 
7132
(
(1.00014 -0.000288321 2.00188e-18)
(1.00223 -0.000870017 7.01892e-18)
(1.00697 -0.00148735 7.2189e-18)
(1.01418 -0.00215202 8.81202e-18)
(1.02416 -0.00286721 1.10549e-17)
(1.0371 -0.00361286 1.1684e-17)
(1.05307 -0.00434976 1.12454e-17)
(1.07192 -0.00500064 1.05473e-17)
(1.09314 -0.00548287 9.92091e-18)
(1.11589 -0.00570935 9.4786e-18)
(1.13894 -0.00563204 9.04856e-18)
(1.1611 -0.00531927 8.85158e-18)
(1.1816 -0.00483457 7.64077e-18)
(1.19985 -0.00424228 7.91129e-18)
(1.21558 -0.00359888 -1.59841e-18)
(1.22867 -0.00293879 -1.05758e-17)
(1.2391 -0.00227938 -1.92476e-17)
(1.24691 -0.00162427 -1.24522e-17)
(1.25211 -0.00097089 -1.7282e-17)
(1.25469 -0.000319416 -2.98597e-17)
(1.25467 0.000319134 -3.44602e-17)
(1.25212 0.000919137 -3.95489e-17)
(1.24727 0.00144409 -4.69508e-17)
(1.2405 0.00185758 -6.02153e-17)
(1.23232 0.00213694 -6.0778e-17)
(1.22331 0.0022838 -7.36357e-17)
(1.21396 0.00232664 -8.86108e-17)
(1.20462 0.00231432 -1.03593e-16)
(1.1954 0.00230232 -1.18502e-16)
(1.18618 0.0023363 -1.19764e-16)
(1.1767 0.00243861 -1.15891e-16)
(1.16667 0.00260264 -1.04994e-16)
(1.15588 0.00279693 -9.84376e-17)
(1.14429 0.00297685 -8.12253e-17)
(1.13204 0.00309845 -5.99553e-17)
(1.11946 0.00312933 -3.52146e-17)
(1.10696 0.00305415 -7.65002e-18)
(1.09497 0.00287488 1.8156e-17)
(1.08391 0.00260759 5.22149e-17)
(1.07407 0.00227759 9.08436e-17)
(1.06566 0.00191457 1.34628e-16)
(1.05874 0.00154831 1.84595e-16)
(1.05327 0.0012054 2.38668e-16)
(1.0491 0.000906875 3.00726e-16)
(1.04602 0.000666752 3.65786e-16)
(1.04378 0.000491441 4.32533e-16)
(1.04211 0.00038002 4.97438e-16)
(1.04077 0.000325291 5.5726e-16)
(1.03954 0.000315505 6.1314e-16)
(1.03826 0.000336476 6.61374e-16)
(1.03686 0.000373748 7.00135e-16)
(1.03528 0.000414415 7.31185e-16)
(1.03355 0.000448387 7.56821e-16)
(1.0317 0.000468997 7.75414e-16)
(1.02979 0.000473012 7.87002e-16)
(1.02791 0.000460203 7.90358e-16)
(1.0261 0.00043266 7.84484e-16)
(1.02444 0.000393997 7.69709e-16)
(1.02295 0.000348592 7.42785e-16)
(1.02165 0.000300923 7.02457e-16)
(1.02054 0.000255051 6.46886e-16)
(1.0196 0.000214253 5.75764e-16)
(1.01882 0.000180814 4.89736e-16)
(1.01816 0.000155958 3.87525e-16)
(1.01757 0.000139895 2.72151e-16)
(1.01704 0.000131967 1.44435e-16)
(1.01652 0.000130858 5.62499e-18)
(1.01599 0.00013484 -1.41343e-16)
(1.01544 0.000142023 -2.96071e-16)
(1.01486 0.000150579 -4.54687e-16)
(1.01424 0.00015892 -6.16742e-16)
(1.01359 0.000165819 -7.81878e-16)
(1.01291 0.000170468 -9.49029e-16)
(1.01222 0.000172475 -1.11975e-15)
(1.01153 0.000171821 -1.29242e-15)
(1.01085 0.000168789 -1.46874e-15)
(1.01018 0.000163864 -1.64951e-15)
(1.00953 0.000157645 -1.83391e-15)
(1.00892 0.000150758 -2.02238e-15)
(1.00833 0.000143786 -2.21105e-15)
(1.00776 0.000137221 -2.39847e-15)
(1.00723 0.000131428 -2.58176e-15)
(1.00671 0.000126637 -2.75733e-15)
(1.00621 0.000122943 -2.92401e-15)
(1.00573 0.000120325 -3.07828e-15)
(1.00525 0.000118666 -3.22091e-15)
(1.00478 0.000117782 -3.35232e-15)
(1.00431 0.000117454 -3.47254e-15)
(1.00384 0.000117454 -3.58306e-15)
(1.00337 0.000117571 -3.6815e-15)
(1.0029 0.000117627 -3.76824e-15)
(1.00242 0.00011749 -3.84244e-15)
(1.00195 0.000117078 -3.90216e-15)
(1.00149 0.000116353 -3.94942e-15)
(1.00102 0.000115318 -3.98352e-15)
(1.00056 0.000114002 -4.00532e-15)
(1.00011 0.000112449 -4.01513e-15)
(0.99966 0.000110708 -4.00945e-15)
(0.99922 0.000108824 -3.98481e-15)
(0.998788 0.000106826 -3.93058e-15)
(0.998364 0.000104727 -3.83436e-15)
(0.997948 0.00010252 -3.68167e-15)
(0.997541 0.000100174 -3.45593e-15)
(0.997144 9.76404e-05 -3.14539e-15)
(0.996757 9.48576e-05 -2.73918e-15)
(0.996382 9.17603e-05 -2.23557e-15)
(0.99602 8.8284e-05 -1.64365e-15)
(0.995672 8.4357e-05 -9.84198e-16)
(0.995341 7.98677e-05 -2.95226e-16)
(0.995029 7.46022e-05 3.76092e-16)
(0.99474 6.81593e-05 9.72331e-16)
(0.994479 5.98692e-05 1.43322e-15)
(0.994255 4.87644e-05 1.70337e-15)
(0.994082 3.3657e-05 1.73246e-15)
(0.993978 1.33648e-05 1.48591e-15)
(0.993965 -1.29139e-05 9.45963e-16)
(0.994069 -4.51393e-05 1.25608e-16)
(0.994312 -8.20084e-05 -9.14989e-16)
(0.994709 -0.000120736 -2.06161e-15)
(0.99526 -0.000157189 -3.14026e-15)
(0.995947 -0.000186439 -3.94457e-15)
(0.996732 -0.00020369 -4.28906e-15)
(0.997558 -0.000205376 -4.08188e-15)
(0.998359 -0.000190153 -3.41186e-15)
(0.999066 -0.000159457 -2.60866e-15)
(0.999625 -0.000117449 -2.25532e-15)
(0.999999 -7.02698e-05 -3.1213e-15)
(1.00018 -2.48055e-05 -6.0033e-15)
(1.0002 1.27436e-05 -1.15043e-14)
(1.00008 3.80904e-05 -1.97873e-14)
(0.99989 4.95776e-05 -3.03906e-14)
(0.999682 4.82299e-05 -4.21652e-14)
(0.999503 3.71889e-05 -5.33856e-14)
(0.999383 2.0744e-05 -6.20605e-14)
(0.999336 3.25557e-06 -6.63793e-14)
(0.999356 -1.17454e-05 -6.51889e-14)
(0.999429 -2.20929e-05 -5.83456e-14)
(0.999533 -2.70995e-05 -4.68071e-14)
(0.999647 -2.73121e-05 -3.2438e-14)
(0.999753 -2.40544e-05 -1.75684e-14)
(0.999841 -1.8921e-05 -4.44417e-15)
(0.999905 -1.33577e-05 5.27112e-15)
(0.999948 -8.40521e-06 1.08109e-14)
(0.999973 -4.61784e-06 1.23511e-14)
(0.999985 -2.12023e-06 1.08162e-14)
(0.99999 -7.41693e-07 7.52201e-15)
(0.999991 -1.68149e-07 3.78504e-15)
(0.999991 -6.82501e-08 6.17892e-16)
(0.999991 -1.72816e-07 -1.43247e-15)
(0.999992 -3.06697e-07 -2.27885e-15)
(0.999994 -3.8468e-07 -2.17167e-15)
(0.999995 -3.87601e-07 -1.52162e-15)
(0.999997 -3.33244e-07 -7.29304e-16)
(0.999998 -2.5171e-07 -7.91071e-17)
(0.999999 -1.69621e-07 3.01278e-16)
(0.999999 -1.03318e-07 4.1674e-16)
(0.999999 -5.8163e-08 3.48908e-16)
(1 -3.25973e-08 2.02859e-16)
(1 -2.02024e-08 6.02873e-17)
(1 -1.54961e-08 -4.61136e-17)
(1.00014 -0.000862118 3.17124e-20)
(1.00221 -0.0026028 3.36378e-19)
(1.00691 -0.00445163 6.59264e-19)
(1.01407 -0.00644623 1.02673e-18)
(1.02402 -0.00859712 1.46101e-18)
(1.03696 -0.0108453 1.89087e-18)
(1.05298 -0.0130736 2.29923e-18)
(1.07197 -0.0150465 2.1847e-18)
(1.09342 -0.016512 5.47523e-18)
(1.11646 -0.0171983 6.92143e-18)
(1.13979 -0.0169561 4.25255e-18)
(1.16217 -0.0160029 4.12637e-18)
(1.18281 -0.0145332 -3.2529e-19)
(1.20116 -0.0127434 1.2072e-17)
(1.21693 -0.0108049 4.73684e-17)
(1.23003 -0.00882103 9.42355e-17)
(1.24047 -0.00684256 1.29366e-16)
(1.24828 -0.00487803 1.31836e-16)
(1.25348 -0.00291698 9.19545e-17)
(1.25605 -0.000957572 1.62617e-17)
(1.256 0.000968023 -7.52241e-17)
(1.2534 0.00278151 -1.6739e-16)
(1.24846 0.00436997 -2.52027e-16)
(1.24156 0.00562021 -3.24371e-16)
(1.23324 0.00646127 -3.79756e-16)
(1.2241 0.00689715 -4.14882e-16)
(1.21466 0.00701489 -4.26162e-16)
(1.20528 0.00696434 -4.10155e-16)
(1.19608 0.00691578 -3.64352e-16)
(1.18691 0.00700946 -2.90568e-16)
(1.17749 0.00731396 -1.81002e-16)
(1.16751 0.00780895 -6.92986e-17)
(1.15672 0.00839808 4.87228e-17)
(1.1451 0.00894501 1.75294e-16)
(1.13278 0.00931574 2.91742e-16)
(1.1201 0.00941186 4.12709e-16)
(1.10749 0.009187 5.24313e-16)
(1.09541 0.00864739 6.29391e-16)
(1.08427 0.00784181 7.41761e-16)
(1.07437 0.00684692 8.58022e-16)
(1.06593 0.00575237 9.89099e-16)
(1.05901 0.00464806 1.12552e-15)
(1.05356 0.00361421 1.26416e-15)
(1.04944 0.00271428 1.4023e-15)
(1.04641 0.00199061 1.52698e-15)
(1.04423 0.00146267 1.634e-15)
(1.04262 0.00112777 1.70965e-15)
(1.04132 0.000964271 1.75159e-15)
(1.04013 0.000936669 1.76209e-15)
(1.03888 0.00100204 1.74112e-15)
(1.03749 0.00111658 1.69578e-15)
(1.03591 0.00124119 1.63078e-15)
(1.03417 0.00134531 1.54788e-15)
(1.0323 0.00140878 1.45045e-15)
(1.03038 0.00142187 1.33494e-15)
(1.02847 0.00138394 1.2005e-15)
(1.02666 0.00130134 1.04193e-15)
(1.02498 0.00118502 8.52834e-16)
(1.02348 0.00104823 6.29832e-16)
(1.02217 0.000904521 3.6778e-16)
(1.02106 0.000766164 6.79366e-17)
(1.02013 0.000643079 -2.68912e-16)
(1.01936 0.000542186 -6.39062e-16)
(1.0187 0.000467197 -1.03574e-15)
(1.01812 0.00041876 -1.45072e-15)
(1.01759 0.000394901 -1.87296e-15)
(1.01708 0.000391652 -2.29857e-15)
(1.01656 0.000403799 -2.71706e-15)
(1.01601 0.00042563 -3.12338e-15)
(1.01542 0.000451616 -3.51335e-15)
(1.0148 0.000476954 -3.8834e-15)
(1.01415 0.000497931 -4.23856e-15)
(1.01347 0.000512096 -4.57782e-15)
(1.01277 0.000518266 -4.90494e-15)
(1.01208 0.000516386 -5.22253e-15)
(1.01139 0.000507303 -5.53181e-15)
(1.01072 0.00049249 -5.83837e-15)
(1.01007 0.000473756 -6.13819e-15)
(1.00945 0.000452997 -6.42898e-15)
(1.00886 0.000431979 -6.70436e-15)
(1.00829 0.000412184 -6.95621e-15)
(1.00775 0.000394722 -7.18162e-15)
(1.00724 0.000380288 -7.37188e-15)
(1.00674 0.000369172 -7.52514e-15)
(1.00625 0.00036131 -7.64047e-15)
(1.00577 0.000356348 -7.71949e-15)
(1.0053 0.000353733 -7.77017e-15)
(1.00483 0.000352801 -7.79309e-15)
(1.00436 0.000352863 -7.79163e-15)
(1.00388 0.000353279 -7.76461e-15)
(1.00341 0.000353511 -7.70966e-15)
(1.00293 0.000353161 -7.62803e-15)
(1.00246 0.000351978 -7.51589e-15)
(1.00199 0.000349852 -7.37557e-15)
(1.00152 0.00034679 -7.20977e-15)
(1.00106 0.000342881 -7.02103e-15)
(1.0006 0.000338262 -6.81099e-15)
(1.00015 0.000333082 -6.57303e-15)
(0.999707 0.000327475 -6.29708e-15)
(0.999271 0.000321534 -5.9641e-15)
(0.998842 0.000315301 -5.54877e-15)
(0.998422 0.000308753 -5.02386e-15)
(0.998011 0.000301802 -4.35927e-15)
(0.997608 0.000294302 -3.53258e-15)
(0.997216 0.00028607 -2.5279e-15)
(0.996835 0.000276906 -1.34158e-15)
(0.996466 0.000266616 1.21583e-17)
(0.996112 0.000254981 1.50265e-15)
(0.995773 0.000241672 3.07555e-15)
(0.995453 0.000226061 4.66153e-15)
(0.995155 0.000206973 6.18207e-15)
(0.994885 0.000182442 7.55803e-15)
(0.99465 0.000149617 8.72295e-15)
(0.994465 0.000104979 9.62138e-15)
(0.994346 4.50016e-05 1.02159e-14)
(0.994315 -3.27473e-05 1.04917e-14)
(0.994398 -0.000128235 1.04798e-14)
(0.994615 -0.000237695 1.02908e-14)
(0.994981 -0.000352955 1.01242e-14)
(0.995498 -0.000461791 1.02625e-14)
(0.996149 -0.000549556 1.10115e-14)
(0.996897 -0.000601912 1.25811e-14)
(0.997688 -0.00060811 1.49374e-14)
(0.998456 -0.000563956 1.76452e-14)
(0.999135 -0.000473541 1.97802e-14)
(0.999669 -0.000349101 1.99599e-14)
(1.00003 -0.000208864 1.6527e-14)
(1.0002 -7.33636e-05 7.89906e-15)
(1.0002 3.88137e-05 -6.98001e-15)
(1.00008 0.000114726 -2.81677e-14)
(0.999883 0.00014926 -5.43894e-14)
(0.999673 0.000145339 -8.29508e-14)
(0.999493 0.000112266 -1.09982e-13)
(0.999373 6.28473e-05 -1.31089e-13)
(0.999327 1.01666e-05 -1.423e-13)
(0.999349 -3.51294e-05 -1.41094e-13)
(0.999424 -6.64667e-05 -1.27172e-13)
(0.999531 -8.17127e-05 -1.02662e-13)
(0.999646 -8.24658e-05 -7.16873e-14)
(0.999754 -7.26907e-05 -3.93958e-14)
(0.999843 -5.71951e-05 -1.07467e-14)
(0.999908 -4.03589e-05 1.05826e-14)
(0.999951 -2.5349e-05 2.28771e-14)
(0.999975 -1.38626e-05 2.64816e-14)
(0.999987 -6.29148e-06 2.33711e-14)
(0.999991 -2.12473e-06 1.6381e-14)
(0.999991 -4.09509e-07 8.36123e-15)
(0.999991 -1.35887e-07 1.51381e-15)
(0.999991 -4.81229e-07 -2.95741e-15)
(0.999992 -9.09511e-07 -4.84378e-15)
(0.999993 -1.16021e-06 -4.66718e-15)
(0.999995 -1.17574e-06 -3.30173e-15)
(0.999997 -1.01219e-06 -1.60864e-15)
(0.999998 -7.63491e-07 -2.03986e-16)
(0.999999 -5.12504e-07 6.27287e-16)
(0.999999 -3.10047e-07 8.88466e-16)
(1 -1.72743e-07 7.51615e-16)
(1 -9.57234e-08 4.41753e-16)
(1 -5.89117e-08 1.36639e-16)
(1 -4.59631e-08 -9.43017e-17)
(1.00014 -0.00142801 4.85603e-22)
(1.00217 -0.00431321 3.58117e-21)
(1.00679 -0.00738428 4.65533e-22)
(1.01386 -0.0107098 6.36863e-21)
(1.02373 -0.0143121 -1.56801e-19)
(1.03665 -0.018097 2.41572e-19)
(1.05278 -0.0218708 -8.20632e-19)
(1.07205 -0.0252286 -1.5052e-18)
(1.09395 -0.0277368 6.398e-18)
(1.11759 -0.0289043 -1.08223e-18)
(1.1415 -0.0284654 -3.83071e-17)
(1.16431 -0.0268251 -3.12419e-17)
(1.18525 -0.024322 1.06802e-16)
(1.20377 -0.0212935 3.45553e-16)
(1.21962 -0.0180315 5.25864e-16)
(1.23275 -0.0147075 4.71207e-16)
(1.24319 -0.0114034 1.0545e-16)
(1.251 -0.00812799 -5.04275e-16)
(1.2562 -0.00485729 -1.19211e-15)
(1.25877 -0.0015824 -1.75293e-15)
(1.25867 0.00164571 -2.10028e-15)
(1.25596 0.00469412 -2.2576e-15)
(1.25082 0.00736715 -2.24639e-15)
(1.24366 0.00946645 -2.08782e-15)
(1.23506 0.0108661 -1.79756e-15)
(1.22567 0.0115705 -1.38433e-15)
(1.21606 0.0117295 -8.54002e-16)
(1.20662 0.011603 -2.17805e-16)
(1.19745 0.0114871 4.99259e-16)
(1.18839 0.0116258 1.25411e-15)
(1.17909 0.0121381 1.99313e-15)
(1.16919 0.0129873 2.66048e-15)
(1.15841 0.0140044 3.21593e-15)
(1.14669 0.0149515 3.64475e-15)
(1.1342 0.0155968 3.95465e-15)
(1.1213 0.0157713 4.1729e-15)
(1.10846 0.0153972 4.33352e-15)
(1.09617 0.0144868 4.46903e-15)
(1.08486 0.0131253 4.60514e-15)
(1.07486 0.011444 4.75425e-15)
(1.06637 0.00959592 4.9149e-15)
(1.05946 0.00773364 5.06934e-15)
(1.05408 0.00599289 5.18668e-15)
(1.05005 0.0044808 5.22976e-15)
(1.04716 0.00326857 5.16351e-15)
(1.0451 0.00238851 4.96579e-15)
(1.04361 0.00183539 4.63293e-15)
(1.04241 0.00157178 4.18101e-15)
(1.04129 0.00153683 3.64078e-15)
(1.04009 0.00165731 3.04758e-15)
(1.03871 0.00185871 2.43322e-15)
(1.03713 0.00207484 1.81792e-15)
(1.03535 0.0022542 1.20552e-15)
(1.03345 0.0023631 5.90566e-16)
(1.03149 0.00238556 -4.49206e-17)
(1.02955 0.00232099 -7.2342e-16)
(1.0277 0.00218058 -1.46909e-15)
(1.026 0.00198319 -2.30438e-15)
(1.02449 0.00175145 -3.24106e-15)
(1.02318 0.00150841 -4.28321e-15)
(1.02207 0.00127486 -5.42251e-15)
(1.02116 0.00106754 -6.64081e-15)
(1.02039 0.000898095 -7.91123e-15)
(1.01975 0.00077269 -9.19931e-15)
(1.01919 0.000692313 -1.04715e-14)
(1.01868 0.000653509 -1.16921e-14)
(1.01817 0.000649465 -1.28346e-14)
(1.01765 0.000671275 -1.38793e-14)
(1.01711 0.000709223 -1.4814e-14)
(1.01652 0.000753934 -1.56378e-14)
(1.01589 0.000797288 -1.63537e-14)
(1.01523 0.000833033 -1.69742e-14)
(1.01454 0.000857073 -1.75142e-14)
(1.01384 0.000867461 -1.79886e-14)
(1.01313 0.000864164 -1.84128e-14)
(1.01244 0.000848667 -1.8794e-14)
(1.01176 0.000823503 -1.91369e-14)
(1.01111 0.000791766 -1.94372e-14)
(1.01048 0.000756677 -1.96824e-14)
(1.00989 0.000721227 -1.98565e-14)
(1.00932 0.000687921 -1.99379e-14)
(1.00878 0.000658623 -1.99116e-14)
(1.00827 0.000634491 -1.9768e-14)
(1.00776 0.000616004 -1.95067e-14)
(1.00728 0.000603032 -1.91387e-14)
(1.0068 0.000594963 -1.86782e-14)
(1.00632 0.000590848 -1.81456e-14)
(1.00584 0.000589557 -1.75557e-14)
(1.00537 0.000589919 -1.69163e-14)
(1.00489 0.00059085 -1.62282e-14)
(1.00441 0.000591445 -1.5484e-14)
(1.00393 0.000591034 -1.46775e-14)
(1.00345 0.000589201 -1.38057e-14)
(1.00298 0.000585771 -1.28725e-14)
(1.0025 0.000580764 -1.18873e-14)
(1.00203 0.000574341 -1.08605e-14)
(1.00157 0.00056674 -9.79643e-15)
(1.00111 0.000558218 -8.6864e-15)
(1.00066 0.000549005 -7.50464e-15)
(1.00021 0.000539265 -6.20877e-15)
(0.999778 0.000529071 -4.74419e-15)
(0.999349 0.000518389 -3.05144e-15)
(0.998928 0.000507076 -1.07354e-15)
(0.998516 0.00049489 1.23707e-15)
(0.998113 0.000481522 3.91348e-15)
(0.997721 0.000466636 6.97019e-15)
(0.99734 0.000449894 1.03993e-14)
(0.996972 0.000430926 1.41681e-14)
(0.996619 0.000409181 1.82201e-14)
(0.996284 0.000383638 2.24814e-14)
(0.99597 0.000352397 2.68742e-14)
(0.995682 0.000312283 3.13341e-14)
(0.995428 0.000258677 3.58225e-14)
(0.99522 0.000185855 4.03276e-14)
(0.995075 8.8041e-05 4.48541e-14)
(0.995014 -3.88066e-05 4.94218e-14)
(0.995059 -0.000194748 5.41141e-14)
(0.99523 -0.00037377 5.91455e-14)
(0.995544 -0.000562632 6.48756e-14)
(0.996 -0.000741405 7.17517e-14)
(0.996584 -0.000886091 8.01369e-14)
(0.997262 -0.000973087 9.00228e-14)
(0.997982 -0.000984581 1.00685e-13)
(0.998681 -0.000913468 1.10393e-13)
(0.999297 -0.000766265 1.16313e-13)
(0.999777 -0.000562935 1.14703e-13)
(1.00009 -0.000333397 1.01462e-13)
(1.00022 -0.000111477 7.29797e-14)
(1.0002 7.21172e-05 2.72034e-14)
(1.00006 0.00019593 -3.53088e-14)
(0.99986 0.000251417 -1.1069e-13)
(0.999646 0.000243339 -1.91597e-13)
(0.999466 0.000187071 -2.6783e-13)
(0.999349 0.000103849 -3.27922e-13)
(0.999308 1.54288e-05 -3.61525e-13)
(0.999336 -6.04524e-05 -3.62055e-13)
(0.999417 -0.000112821 -3.28708e-13)
(0.999529 -0.000138119 -2.67038e-13)
(0.99965 -0.000139039 -1.87832e-13)
(0.99976 -0.00012226 -1.04583e-13)
(0.99985 -9.58913e-05 -3.03154e-14)
(0.999916 -6.73333e-05 2.52905e-14)
(0.999958 -4.19409e-05 5.76533e-14)
(0.99998 -2.25816e-05 6.75559e-14)
(0.99999 -9.90526e-06 6.00251e-14)
(0.999993 -3.02477e-06 4.23373e-14)
(0.999992 -2.99783e-07 2.18422e-14)
(0.999991 4.74888e-09 4.23578e-15)
(0.999991 -7.01216e-07 -7.33816e-15)
(0.999992 -1.50402e-06 -1.22953e-14)
(0.999993 -1.96672e-06 -1.19428e-14)
(0.999995 -2.00259e-06 -8.5013e-15)
(0.999997 -1.71943e-06 -4.18307e-15)
(0.999998 -1.28725e-06 -5.77113e-16)
(0.999999 -8.53451e-07 1.57296e-15)
(0.999999 -5.06878e-07 2.26129e-15)
(1 -2.75424e-07 1.92675e-15)
(1 -1.48914e-07 1.14014e-15)
(1 -9.10217e-08 3.59035e-16)
(1 -7.44017e-08 -2.35091e-16)
(1.00014 -0.00198051 -3.48073e-20)
(1.00211 -0.00598461 -4.88447e-19)
(1.0066 -0.0102619 -8.33446e-19)
(1.01351 -0.0149187 -1.62732e-18)
(1.02325 -0.0199977 -1.77956e-18)
(1.03614 -0.0253762 -1.7089e-18)
(1.05242 -0.0307879 -1.1309e-17)
(1.0721 -0.0356394 1.80719e-17)
(1.0947 -0.0392958 3.7574e-18)
(1.11928 -0.0409814 -1.41964e-16)
(1.14407 -0.040287 -2.79644e-17)
(1.16753 -0.0378776 6.79462e-16)
(1.18892 -0.0342575 1.35674e-15)
(1.2077 -0.0299216 8.33702e-16)
(1.22366 -0.0252917 -1.59e-15)
(1.23681 -0.020606 -5.55685e-15)
(1.24725 -0.0159713 -9.8748e-15)
(1.25507 -0.011386 -1.31559e-14)
(1.26027 -0.00680083 -1.44264e-14)
(1.26283 -0.00218973 -1.3344e-14)
(1.26266 0.00238111 -1.06949e-14)
(1.25977 0.00671753 -7.37475e-15)
(1.25434 0.0105259 -3.79018e-15)
(1.24679 0.0135054 -1.3585e-16)
(1.23775 0.0154623 3.51395e-15)
(1.22797 0.0163995 7.13747e-15)
(1.2181 0.0165384 1.07021e-14)
(1.20856 0.0162669 1.41122e-14)
(1.19946 0.0160274 1.71949e-14)
(1.19058 0.016184 1.97343e-14)
(1.18149 0.0169122 2.1559e-14)
(1.17172 0.0181535 2.25593e-14)
(1.16094 0.0196519 2.2792e-14)
(1.14908 0.0210517 2.24111e-14)
(1.13632 0.0220095 2.16001e-14)
(1.12307 0.0222794 2.0574e-14)
(1.10987 0.0217513 1.94813e-14)
(1.09725 0.0204481 1.84289e-14)
(1.08568 0.0184966 1.74666e-14)
(1.07552 0.0160897 1.65645e-14)
(1.06697 0.0134489 1.56475e-14)
(1.06008 0.0107937 1.45779e-14)
(1.0548 0.00831844 1.32096e-14)
(1.05094 0.00617564 1.14202e-14)
(1.04824 0.00446611 9.14245e-15)
(1.04638 0.0032347 6.40934e-15)
(1.04508 0.00247229 3.33677e-15)
(1.04404 0.00212351 1.13087e-16)
(1.04303 0.00209947 -3.05854e-15)
(1.04188 0.00229378 -6.01697e-15)
(1.04052 0.00259883 -8.66624e-15)
(1.03892 0.00291956 -1.09945e-14)
(1.0371 0.00318274 -1.30623e-14)
(1.03514 0.00334108 -1.49723e-14)
(1.03312 0.00337297 -1.68517e-14)
(1.03112 0.00327881 -1.88194e-14)
(1.02922 0.00307567 -2.09743e-14)
(1.02749 0.00279135 -2.33815e-14)
(1.02596 0.00245873 -2.60608e-14)
(1.02465 0.00211102 -2.89911e-14)
(1.02355 0.00177801 -3.21057e-14)
(1.02265 0.00148356 -3.5309e-14)
(1.02192 0.00124407 -3.84854e-14)
(1.0213 0.00106811 -4.15144e-14)
(1.02077 0.000956786 -4.42864e-14)
(1.02027 0.000904886 -4.67119e-14)
(1.01978 0.00090242 -4.87379e-14)
(1.01927 0.000936464 -5.03354e-14)
(1.01873 0.000992996 -5.15086e-14)
(1.01814 0.00105856 -5.22852e-14)
(1.0175 0.00112156 -5.27089e-14)
(1.01683 0.00117313 -5.28394e-14)
(1.01613 0.00120753 -5.27306e-14)
(1.01541 0.00122212 -5.24347e-14)
(1.01469 0.001217 -5.1991e-14)
(1.01398 0.00119442 -5.14206e-14)
(1.0133 0.00115809 -5.07298e-14)
(1.01264 0.00111252 -4.98964e-14)
(1.01201 0.00106234 -4.88838e-14)
(1.01141 0.00101184 -4.76438e-14)
(1.01084 0.000964593 -4.61289e-14)
(1.0103 0.000923226 -4.43114e-14)
(1.00978 0.000889361 -4.21815e-14)
(1.00928 0.000863633 -3.97631e-14)
(1.00879 0.000845817 -3.71048e-14)
(1.0083 0.000835 -3.42696e-14)
(1.00782 0.000829798 -3.13244e-14)
(1.00734 0.000828571 -2.83123e-14)
(1.00686 0.000829635 -2.52535e-14)
(1.00638 0.000831438 -2.21391e-14)
(1.00589 0.000832693 -1.89425e-14)
(1.0054 0.000832458 -1.56388e-14)
(1.00492 0.00083016 -1.22102e-14)
(1.00443 0.000825568 -8.66436e-15)
(1.00395 0.000818734 -5.02745e-15)
(1.00347 0.000809908 -1.33231e-15)
(1.00299 0.000799448 2.39798e-15)
(1.00252 0.000787733 6.17174e-15)
(1.00206 0.000775099 1.0031e-14)
(1.00161 0.000761787 1.40543e-14)
(1.00116 0.000747907 1.83433e-14)
(1.00072 0.000733421 2.3005e-14)
(1.00028 0.000718131 2.81437e-14)
(0.999858 0.000701702 3.38481e-14)
(0.99944 0.000683696 4.01985e-14)
(0.999031 0.000663629 4.72715e-14)
(0.998632 0.000641008 5.51447e-14)
(0.998245 0.000615292 6.39045e-14)
(0.997872 0.000585705 7.36427e-14)
(0.997514 0.000550852 8.4468e-14)
(0.997176 0.000508174 9.65173e-14)
(0.996863 0.000453404 1.0997e-13)
(0.996581 0.000380328 1.25057e-13)
(0.996342 0.000281212 1.42033e-13)
(0.99616 0.000148203 1.61134e-13)
(0.996055 -2.42635e-05 1.82523e-13)
(0.996047 -0.000236408 2.06364e-13)
(0.996155 -0.000480223 2.32972e-13)
(0.996392 -0.000737838 2.62773e-13)
(0.996761 -0.000982187 2.96099e-13)
(0.997249 -0.00118052 3.32723e-13)
(0.997822 -0.00130048 3.71193e-13)
(0.998436 -0.00131751 4.08153e-13)
(0.999031 -0.00122165 4.37896e-13)
(0.99955 -0.00102165 4.52436e-13)
(0.999945 -0.000744759 4.42244e-13)
(1.00018 -0.000432014 3.97653e-13)
(1.00026 -0.000129943 3.10836e-13)
(1.0002 0.000119146 1.78147e-13)
(1.00003 0.000285654 2.4061e-15)
(0.999817 0.000357809 -2.05626e-13)
(0.999598 0.000342265 -4.26845e-13)
(0.99942 0.000260415 -6.35187e-13)
(0.99931 0.000141827 -8.01397e-13)
(0.999278 1.68154e-05 -8.98925e-13)
(0.999317 -8.98947e-05 -9.10622e-13)
(0.999409 -0.000163033 -8.34002e-13)
(0.99953 -0.00019773 -6.82896e-13)
(0.999657 -0.000197913 -4.84746e-13)
(0.999772 -0.000173131 -2.74173e-13)
(0.999864 -0.000134952 -8.48129e-14)
(0.999929 -9.39208e-05 5.81091e-14)
(0.999969 -5.76582e-05 1.42368e-13)
(0.999989 -3.02173e-05 1.69486e-13)
(0.999996 -1.24658e-05 1.51922e-13)
(0.999996 -3.06366e-06 1.08017e-13)
(0.999993 4.05277e-07 5.64402e-14)
(0.999991 4.78645e-07 1.17713e-14)
(0.999991 -7.94733e-07 -1.78421e-14)
(0.999991 -2.10225e-06 -3.07526e-14)
(0.999993 -2.83475e-06 -3.01544e-14)
(0.999995 -2.8962e-06 -2.16208e-14)
(0.999997 -2.47075e-06 -1.07533e-14)
(0.999998 -1.82549e-06 -1.60883e-15)
(0.999999 -1.18559e-06 3.88726e-15)
(0.999999 -6.82872e-07 5.68637e-15)
(1 -3.55638e-07 4.87862e-15)
(1 -1.8428e-07 2.9056e-15)
(1 -1.11901e-07 9.30949e-16)
(1 -9.94862e-08 -5.84041e-16)
(1.00013 -0.00251284 -2.28177e-18)
(1.00201 -0.00759778 -7.09335e-18)
(1.00632 -0.0130558 -6.07293e-18)
(1.01301 -0.0190417 -9.07752e-18)
(1.02256 -0.0256306 5.29274e-19)
(1.03536 -0.0326831 -3.0189e-17)
(1.05182 -0.0398667 2.17476e-17)
(1.07203 -0.046375 8.32775e-17)
(1.09559 -0.0513425 -4.45047e-16)
(1.12149 -0.053601 3.67396e-17)
(1.14752 -0.0525566 2.47753e-15)
(1.17187 -0.0492542 2.63704e-15)
(1.19385 -0.0443944 -5.00205e-15)
(1.21294 -0.0386502 -2.05122e-14)
(1.22902 -0.0325854 -3.76733e-14)
(1.2422 -0.0265029 -4.83082e-14)
(1.25262 -0.0205286 -4.69575e-14)
(1.26043 -0.0146382 -3.30223e-14)
(1.26566 -0.00874153 -1.00435e-14)
(1.26822 -0.00278041 1.57566e-14)
(1.26798 0.00317175 3.92202e-14)
(1.26487 0.0088552 5.86512e-14)
(1.25903 0.0138606 7.38797e-14)
(1.25092 0.01776 8.54635e-14)
(1.24127 0.0202728 9.41667e-14)
(1.23094 0.0213939 1.0055e-13)
(1.2207 0.0214274 1.04817e-13)
(1.21105 0.0209135 1.06722e-13)
(1.20206 0.0204706 1.0585e-13)
(1.19345 0.0206079 1.01996e-13)
(1.18466 0.0215679 9.54556e-14)
(1.17509 0.023263 8.70544e-14)
(1.16433 0.0253287 7.78487e-14)
(1.15226 0.0272654 6.87372e-14)
(1.13913 0.0285979 6.02904e-14)
(1.12541 0.0289928 5.2715e-14)
(1.1117 0.0283072 4.59598e-14)
(1.09863 0.0265805 3.98154e-14)
(1.08671 0.0239911 3.39474e-14)
(1.07632 0.0208022 2.79363e-14)
(1.06768 0.0173123 2.12872e-14)
(1.06084 0.0138139 1.3493e-14)
(1.05571 0.0105646 4.1539e-15)
(1.05207 0.0077652 -6.88184e-15)
(1.04963 0.00554714 -1.93895e-14)
(1.04806 0.00396713 -3.27602e-14)
(1.04701 0.00300999 -4.61126e-14)
(1.04618 0.00259894 -5.85108e-14)
(1.04532 0.00261291 -6.92017e-14)
(1.04426 0.00290829 -7.77733e-14)
(1.04292 0.00334096 -8.42084e-14)
(1.04129 0.00378475 -8.88275e-14)
(1.03941 0.00414356 -9.21644e-14)
(1.03736 0.00435659 -9.48187e-14)
(1.03525 0.00439741 -9.7356e-14)
(1.03317 0.00426876 -1.00219e-13)
(1.03121 0.00399512 -1.03693e-13)
(1.02943 0.00361472 -1.07894e-13)
(1.02788 0.00317202 -1.12764e-13)
(1.02656 0.00271144 -1.18104e-13)
(1.02548 0.00227246 -1.23605e-13)
(1.02461 0.00188642 -1.28904e-13)
(1.02391 0.00157465 -1.33637e-13)
(1.02333 0.00134796 -1.37484e-13)
(1.02283 0.0012073 -1.40218e-13)
(1.02236 0.00114521 -1.41711e-13)
(1.02189 0.001148 -1.41945e-13)
(1.0214 0.00119822 -1.40987e-13)
(1.02086 0.00127709 -1.3896e-13)
(1.02026 0.0013667 -1.36029e-13)
(1.01961 0.00145176 -1.32357e-13)
(1.01893 0.0015207 -1.28109e-13)
(1.01821 0.00156615 -1.23418e-13)
(1.01747 0.00158486 -1.18384e-13)
(1.01673 0.00157724 -1.1307e-13)
(1.01601 0.0015465 -1.07489e-13)
(1.01531 0.00149774 -1.01612e-13)
(1.01464 0.00143705 -9.53644e-14)
(1.014 0.00137062 -8.86443e-14)
(1.0134 0.00130414 -8.13441e-14)
(1.01283 0.0012423 -7.33736e-14)
(1.01229 0.00118852 -6.47018e-14)
(1.01177 0.00114488 -5.53662e-14)
(1.01126 0.00111211 -4.54819e-14)
(1.01077 0.00108986 -3.5225e-14)
(1.01028 0.00107684 -2.47891e-14)
(1.0098 0.00107116 -1.43508e-14)
(1.00931 0.00107063 -4.01713e-15)
(1.00882 0.00107298 6.1904e-15)
(1.00833 0.00107617 1.63301e-14)
(1.00783 0.00107851 2.65133e-14)
(1.00734 0.00107879 3.68511e-14)
(1.00684 0.00107627 4.74154e-14)
(1.00634 0.0010707 5.82073e-14)
(1.00584 0.00106219 6.91619e-14)
(1.00535 0.00105111 8.01753e-14)
(1.00486 0.00103795 9.11495e-14)
(1.00438 0.00102324 1.02035e-13)
(1.00391 0.00100743 1.12849e-13)
(1.00344 0.000990853 1.2367e-13)
(1.00297 0.000973668 1.34619e-13)
(1.00252 0.00095583 1.45827e-13)
(1.00207 0.000937097 1.57433e-13)
(1.00162 0.000917038 1.69594e-13)
(1.00118 0.000895083 1.82533e-13)
(1.00075 0.000870588 1.96592e-13)
(1.00033 0.000842884 2.1228e-13)
(0.99992 0.000811239 2.30302e-13)
(0.999519 0.000774639 2.51556e-13)
(0.999133 0.000731335 2.77103e-13)
(0.998764 0.000678186 3.08137e-13)
(0.998417 0.000609986 3.45934e-13)
(0.998099 0.000519148 3.91796e-13)
(0.997819 0.000396199 4.46943e-13)
(0.99759 0.000231463 5.12349e-13)
(0.997429 1.80062e-05 5.8856e-13)
(0.997353 -0.000244589 6.75679e-13)
(0.997379 -0.00054661 7.73674e-13)
(0.99752 -0.000866112 8.8219e-13)
(0.997776 -0.00116965 9.99896e-13)
(0.998137 -0.00141658 1.12337e-12)
(0.998573 -0.00156655 1.24576e-12)
(0.999045 -0.00158882 1.3556e-12)
(0.999501 -0.00147078 1.43649e-12)
(0.999889 -0.00122318 1.46792e-12)
(1.00017 -0.000880024 1.42739e-12)
(1.00031 -0.000492704 1.29371e-12)
(1.00031 -0.000119571 1.05113e-12)
(1.00019 0.000186256 6.94099e-13)
(0.99999 0.00038765 2.31949e-13)
(0.999752 0.000469983 -3.08026e-13)
(0.999527 0.000441946 -8.79314e-13)
(0.999353 0.000330924 -1.4189e-12)
(0.999254 0.000174685 -1.85569e-12)
(0.999237 1.19321e-05 -2.12434e-12)
(0.999292 -0.000125801 -2.18155e-12)
(0.999398 -0.000219135 -2.0193e-12)
(0.999532 -0.000262095 -1.66962e-12)
(0.999668 -0.000260074 -1.19853e-12)
(0.999789 -0.000225737 -6.90601e-13)
(0.999883 -0.000174338 -2.2896e-13)
(0.999947 -0.000119747 1.23203e-13)
(0.999984 -7.19442e-05 3.34229e-13)
(1 -3.61734e-05 4.06176e-13)
(1 -1.34456e-05 3.68229e-13)
(1 -1.84546e-06 2.64472e-13)
(0.999995 1.95311e-06 1.40336e-13)
(0.999991 1.40264e-06 3.16725e-14)
(0.99999 -7.37896e-07 -4.11426e-14)
(0.999991 -2.73113e-06 -7.35683e-14)
(0.999993 -3.80683e-06 -7.29973e-14)
(0.999995 -3.89211e-06 -5.27996e-14)
(0.999997 -3.28508e-06 -2.65907e-14)
(0.999998 -2.38075e-06 -4.33024e-15)
(0.999999 -1.50058e-06 9.17706e-15)
(1 -8.25376e-07 1.37071e-14)
(1 -4.01576e-07 1.18571e-14)
(1 -1.9341e-07 7.11446e-15)
(1 -1.16974e-07 2.32273e-15)
(1 -1.20188e-07 -1.38589e-15)
(1.00012 -0.00301742 1.95629e-18)
(1.00189 -0.00913036 8.1423e-18)
(1.00595 -0.0157319 5.67821e-18)
(1.01233 -0.0230392 9.7548e-18)
(1.02158 -0.0311766 2.28397e-17)
(1.03423 -0.0400068 -9.82355e-17)
(1.05086 -0.0491432 4.69631e-16)
(1.07173 -0.0575362 -9.98398e-16)
(1.09654 -0.0640536 -4.57398e-16)
(1.12423 -0.066961 7.01744e-15)
(1.15189 -0.065421 2.49207e-15)
(1.17736 -0.0610486 -3.15146e-14)
(1.20006 -0.0547804 -7.69528e-14)
(1.21951 -0.0474974 -9.15466e-14)
(1.2357 -0.03992 -4.33127e-14)
(1.24886 -0.0324088 6.99456e-14)
(1.25925 -0.0250945 2.23647e-13)
(1.26705 -0.0179081 3.80216e-13)
(1.27231 -0.0106955 5.04816e-13)
(1.27489 -0.00334511 5.70464e-13)
(1.27458 0.00406953 5.85795e-13)
(1.2712 0.0112083 5.7193e-13)
(1.26484 0.0175139 5.40372e-13)
(1.25601 0.0223952 4.98686e-13)
(1.24555 0.0254582 4.51287e-13)
(1.2345 0.0266857 3.99733e-13)
(1.22378 0.026484 3.43675e-13)
(1.21397 0.0255826 2.82344e-13)
(1.20517 0.0248192 2.16411e-13)
(1.19695 0.0248821 1.49293e-13)
(1.18859 0.0260937 8.6766e-14)
(1.17931 0.0283245 3.48557e-14)
(1.16858 0.0310708 -2.77618e-15)
(1.15625 0.0336534 -2.61325e-14)
(1.14262 0.0354382 -3.83619e-14)
(1.12827 0.0359913 -4.4044e-14)
(1.11391 0.035138 -4.75885e-14)
(1.10025 0.0329432 -5.24117e-14)
(1.08788 0.0296491 -6.08619e-14)
(1.07721 0.0256021 -7.45471e-14)
(1.06847 0.0211876 -9.45748e-14)
(1.06169 0.0167797 -1.2154e-13)
(1.05675 0.0127043 -1.55242e-13)
(1.05341 0.00921404 -1.94332e-13)
(1.05132 0.00647215 -2.36216e-13)
(1.05011 0.00454657 -2.77387e-13)
(1.04939 0.00341345 -3.1417e-13)
(1.04883 0.00297033 -3.43599e-13)
(1.04816 0.00305857 -3.64062e-13)
(1.0472 0.00349172 -3.75513e-13)
(1.04589 0.00408437 -3.79224e-13)
(1.04421 0.00467596 -3.77284e-13)
(1.04224 0.00514605 -3.72038e-13)
(1.04009 0.00542044 -3.65641e-13)
(1.03786 0.0054692 -3.59766e-13)
(1.03568 0.00529936 -3.55476e-13)
(1.03363 0.00494495 -3.53205e-13)
(1.0318 0.00445661 -3.52816e-13)
(1.03022 0.00389205 -3.53716e-13)
(1.0289 0.00330815 -3.54986e-13)
(1.02784 0.002755 -3.55563e-13)