/*--------------------------------*- C++ -*----------------------------------*\
  =========                 |
  \\      /  F ield         | OpenFOAM: The Open Source CFD Toolbox
   \\    /   O peration     | Website:  https://openfoam.org
    \\  /    A nd           | Version:  11
     \\/     M anipulation  |
\*---------------------------------------------------------------------------*/
FoamFile
{
    format      ascii;
    class       surfaceScalarField;
    location    "19.102965";
    object      phi;
}
// * * * * * * * * * * * * * * * * * * * * * * * * * * * * * * * * * * * * * //

dimensions      [0 3 -1 0 0 0 0];

internalField   nonuniform List<scalar> 
14638
(
0.0025022
-2.19798e-06
0.00250907
-6.87119e-06
0.00252116
-1.20909e-05
0.00253902
-1.7858e-05
0.00256302
-2.40004e-05
0.00259306
-3.00446e-05
0.00262835
-3.52907e-05
0.00266699
-3.864e-05
0.00270599
-3.90009e-05
0.0027413
-3.53018e-05
0.00276842
-2.71245e-05
0.00278387
-1.54467e-05
0.00278566
-1.78731e-06
0.00277352
1.21377e-05
0.0027496
2.39151e-05
0.00271857
3.1034e-05
0.00268665
3.19134e-05
0.00266039
2.62691e-05
0.00264518
1.52022e-05
0.00264412
1.06677e-06
0.00265688
-1.27617e-05
0.00267914
-2.22624e-05
0.00270302
-2.38766e-05
0.00271933
-1.6314e-05
0.00272096
-1.62767e-06
0.00270519
1.57644e-05
0.00267391
3.12833e-05
0.00263213
4.17817e-05
0.00258637
4.57559e-05
0.00254357
4.2803e-05
0.0025105
3.3068e-05
0.0024934
1.71029e-05
0.00249719
-3.7852e-06
0.00252395
-2.67696e-05
0.00257084
-4.68886e-05
0.00262876
-5.79188e-05
0.00268392
-5.5161e-05
0.00272237
-3.84448e-05
0.0027351
-1.27327e-05
0.00272066
1.4438e-05
0.00268414
3.65196e-05
0.0026341
5.00411e-05
0.00257977
5.4335e-05
0.00252967
5.01002e-05
0.0024915
3.81698e-05
0.00247229
1.92118e-05
0.00247782
-5.53776e-06
0.00251071
-3.28902e-05
0.0025676
-5.68849e-05
0.00263768
-7.00782e-05
0.00270463
-6.69527e-05
0.00275192
-4.7287e-05
0.00276873
-1.68186e-05
0.00275325
1.54827e-05
0.00271175
4.15016e-05
0.00265493
5.68174e-05
0.00259409
6.08471e-05
0.00253897
5.51185e-05
0.00249759
4.13788e-05
0.00247676
2.08286e-05
0.0024819
-5.14091e-06
0.00251526
-3.33585e-05
0.00257331
-5.80476e-05
0.0026454
-7.20971e-05
0.00271553
-7.01308e-05
0.00276702
-5.14856e-05
0.00278807
-2.1045e-05
0.00277537
1.2697e-05
0.00273427
4.11014e-05
0.00267577
5.84992e-05
0.00261244
6.3329e-05
0.00255534
5.70947e-05
0.00251304
4.23033e-05
0.00249198
2.10567e-05
0.00249666
-4.6787e-06
0.00252832
-3.16566e-05
0.00258295
-5.46268e-05
0.00265048
-6.75325e-05
0.00271655
-6.60712e-05
0.00276643
-4.98757e-05
0.00278934
-2.29161e-05
0.00278139
7.95352e-06
0.00274603
3.53606e-05
0.00269235
5.36775e-05
0.00263206
6.02928e-05
0.00257655
5.55118e-05
0.00253517
4.13744e-05
0.00251475
2.04218e-05
0.00251927
-4.51782e-06
0.0025489
-2.96352e-05
0.00259883
-4.99323e-05
0.00265925
-6.04178e-05
0.00271738
-5.8127e-05
0.0027609
-4.35248e-05
0.00278127
-2.03646e-05
0.00277553
5.73921e-06
0.00274643
2.91022e-05
0.00270106
4.53723e-05
0.00264889
5.21689e-05
0.00259984
4.9042e-05
0.00256282
3.70233e-05
0.00254464
1.81835e-05
0.00254907
-4.43514e-06
0.00257578
-2.6703e-05
0.00261962
-4.38488e-05
0.00267139
-5.17616e-05
0.00271993
-4.85395e-05
0.00275521
-3.528e-05
0.00277081
-1.56048e-05
0.00276509
5.71661e-06
0.00274084
2.42561e-05
0.00270394
3.68937e-05
0.00266191
4.2029e-05
0.00262259
3.93197e-05
0.00259321
2.93884e-05
0.00257942
1.37868e-05
0.00258425
-4.83286e-06
0.00260701
-2.27621e-05
0.00264295
-3.59343e-05
0.00268412
-4.11739e-05
0.00272149
-3.73676e-05
0.00274735
-2.58644e-05
0.00275724
-9.88873e-06
0.00275059
6.65462e-06
0.00273022
2.03727e-05
0.00270114
2.90809e-05
0.00266928
3.18524e-05
0.00264059
2.86976e-05
0.0026203
2.02894e-05
0.00261232
7.97689e-06
0.00261837
-6.0541e-06
0.00263726
-1.88903e-05
0.0026648
-2.75347e-05
0.00269468
-2.98825e-05
0.00272019
-2.55081e-05
0.002736
-1.58081e-05
0.00273944
-3.44006e-06
0.00273082
8.61756e-06
0.00271288
1.79364e-05
0.00268979
2.3092e-05
0.00266615
2.36382e-05
0.00264632
1.98311e-05
0.00263391
1.24157e-05
0.00263128
2.62811e-06
0.00263901
-7.7317e-06
0.00265547
-1.64621e-05
0.00267696
-2.14924e-05
0.00269854
-2.158e-05
0.00271535
-1.68027e-05
0.00272388
-8.53213e-06
0.00272284
1.04248e-06
0.00271315
9.68563e-06
0.0026975
1.56528e-05
0.00267938
1.8116e-05
0.00266253
1.6857e-05
0.00265015
1.23711e-05
0.00264475
5.40172e-06
0.00264804
-3.28502e-06
0.00265845
-1.04152e-05
-2.04441e-05
0.00250218
-4.37666e-06
0.002509
-1.36931e-05
0.00252103
-2.41242e-05
0.00253887
-3.56918e-05
0.00256293
-4.80664e-05
0.0025932
-6.0312e-05
0.00262894
-7.10318e-05
0.00266828
-7.79824e-05
0.00270821
-7.89275e-05
0.0027445
-7.15892e-05
0.00277243
-5.5055e-05
0.00278835
-3.13723e-05
0.00279019
-3.6179e-06
0.00277754
2.47832e-05
0.00275257
4.88895e-05
0.0027201
6.34993e-05
0.00268667
6.534e-05
0.00265913
5.38128e-05
0.00264319
3.11386e-05
0.00264218
2.07656e-06
0.00265592
-2.65016e-05
0.00267994
-4.62809e-05
0.00270585
-4.97896e-05
0.0027238
-3.42628e-05
0.00272616
-3.98624e-06
0.00271013
3.17972e-05
0.00267781
6.35981e-05
0.00263457
8.50297e-05
0.00258716
9.31616e-05
0.00254268
8.72858e-05
0.00250804
6.771e-05
0.0024897
3.54411e-05
0.00249298
-7.07213e-06
0.00252046
-5.42402e-05
0.00256944
-9.58747e-05
0.00263046
-0.000118937
0.00268876
-0.000113464
0.00272934
-7.90275e-05
0.00274265
-2.60375e-05
0.00272734
2.97498e-05
0.00268905
7.4805e-05
0.00263692
0.000102173
0.00258049
0.000110761
0.0025284
0.000102193
0.0024884
7.81762e-05
0.00246774
3.98643e-05
0.00247275
-1.05448e-05
0.0025066
-6.67451e-05
0.00256615
-0.000116426
0.00264002
-0.000143951
0.00271072
-0.00013765
0.00276047
-9.7036e-05
0.00277782
-3.41774e-05
0.00276112
3.21907e-05
0.00271732
8.52976e-05
0.00265791
0.000116227
0.00259465
0.00012411
0.0025374
0.00011237
0.00249409
8.46811e-05
0.00247159
4.33365e-05
0.00247561
-9.16927e-06
0.00250895
-6.66942e-05
0.00256845
-0.00011755
0.00264338
-0.000147024
0.00271701
-0.000143761
0.00277161
-0.000106089
0.00279448
-4.39082e-05
0.00278191
2.52636e-05
0.00273948
8.35315e-05
0.0026788
0.000119175
0.00261306
0.000129069
0.00255367
0.000116489
0.00250929
8.66854e-05
0.0024865
4.38419e-05
0.00249016
-8.3326e-06
0.00252194
-6.34396e-05
0.00257801
-0.000110693
0.00264793
-0.000137454
0.0027166
-0.000134745
0.00276858
-0.000101852
0.00279268
-4.70212e-05
0.00278493
1.57048e-05
0.00274893
7.13608e-05
0.00269401
0.000108595
0.00263212
0.000122184
0.00257487
0.000112768
0.00253185
8.43959e-05
0.00251024
4.20276e-05
0.0025145
-8.77883e-06
0.00254512
-6.02531e-05
0.00259713
-0.000101941
0.00266007
-0.00012336
0.00272033
-0.000118388
0.002765
-8.81913e-05
0.00278538
-4.07463e-05
0.00277879
1.23271e-05
0.00274838
5.9511e-05
0.00270159
9.21656e-05
0.00264807
0.000105686
0.00259784
9.92701e-05
0.00255993
7.49383e-05
0.00254142
3.66922e-05
0.00254643
-9.44187e-06
0.00257473
-5.50068e-05
0.00262092
-9.00407e-05
0.0026751
-0.000105944
0.0027254
-9.88357e-05
0.00276129
-7.11732e-05
0.00277632
-3.06334e-05
0.00276916
1.28843e-05
0.00274304
5.03669e-05
0.00270432
7.56144e-05
0.00266078
8.55736e-05
0.00262041
7.96886e-05
0.00259056
5.92349e-05
0.00257707
2.72821e-05
0.00258307
-1.08338e-05
0.0026078
-4.74948e-05
0.00264612
-7.42547e-05
0.00268948
-8.45361e-05
0.00272825
-7.61307e-05
0.00275438
-5.19959e-05
0.00276343
-1.89371e-05
0.00275513
1.49527e-05
0.00273274
4.27597e-05
0.00270169
6.01326e-05
0.00266822
6.53186e-05
0.00263848
5.84384e-05
0.00261788
4.08928e-05
0.00261044
1.54215e-05
0.00261788
-1.34977e-05
0.00263882
-3.98311e-05
0.00266864
-5.73493e-05
0.00270047
-6.17187e-05
0.00272713
-5.21635e-05
0.00274304
-3.17208e-05
0.0027456
-5.99793e-06
0.00273539
1.88268e-05
0.00271553
3.77981e-05
0.00269054
4.80776e-05
0.00266534
4.88423e-05
0.00264449
4.06758e-05
0.00263179
2.51219e-05
0.00262969
4.72112e-06
0.00263876
-1.6795e-05
0.00265712
-3.4827e-05
0.00268068
-4.50467e-05
0.00270399
-4.4894e-05
0.0027218
-3.46114e-05
0.00273042
-1.71532e-05
0.0027286
2.86318e-06
0.0027175
2.0785e-05
0.00270011
3.30389e-05
0.00268026
3.79669e-05
0.00266195
3.51732e-05
0.0026486
2.57183e-05
0.00264294
1.10626e-05
0.00264662
-6.96964e-06
0.00265846
-2.22516e-05
-4.2424e-05
0.00250214
-6.51624e-06
0.00250886
-2.04117e-05
0.00252077
-3.60386e-05
0.00253855
-5.34704e-05
0.00256274
-7.22537e-05
0.00259344
-9.10146e-05
0.00263008
-0.000107666
0.00267082
-0.00011873
0.00271262
-0.00012072
0.00275089
-0.000109861
0.00278042
-8.45867e-05
0.00279727
-4.82243e-05
0.00279915
-5.49662e-06
0.00278545
3.84873e-05
0.00275831
7.60211e-05
0.00272298
9.88368e-05
0.00268656
0.000101754
0.00265657
8.38081e-05
0.00263932
4.83857e-05
0.00263862
2.77142e-06
0.00265453
-4.24086e-05
0.00268224
-7.39849e-05
0.00271228
-7.98351e-05
0.00273337
-5.53513e-05
0.00273686
-7.47749e-06
0.00271985
4.8809e-05
0.00268505
9.83986e-05
0.00263857
0.000131506
0.00258775
0.000143982
0.00253999
0.000135053
0.00250244
0.000105254
0.00248201
5.58703e-05
0.00248477
-9.82905e-06
0.00251415
-8.3625e-05
0.00256784
-0.000149557
0.00263542
-0.000186517
0.00270007
-0.000178113
0.00274459
-0.000123554
0.00275837
-3.98121e-05
0.00274049
4.76287e-05
0.00269795
0.000117345
0.00264118
0.000158944
0.00258043
0.000171504
0.00252452
0.000158109
0.00248123
0.000121463
0.00245818
6.29154e-05
0.00246245
-1.48126e-05
0.00249817
-0.000102469
0.00256268
-0.000180938
0.00264396
-0.000225226
0.00272238
-0.000216073
0.00277746
-0.00015211
0.00279598
-5.27026e-05
0.00277643
5.17393e-05
0.00272742
0.000134312
0.0026623
0.000181343
0.00259401
0.000192402
0.00253263
0.000173752
0.0024858
0.000131505
0.00246026
6.8884e-05
0.00246224
-1.11557e-05
0.00249558
-0.000100027
0.00255792
-0.00017989
0.00263826
-0.000227373
0.00271848
-0.000223981
0.0027789
-0.000166504
0.00280513
-7.01446e-05
0.00279275
3.76444e-05
0.00274771
0.000128578
0.00268278
0.000184105
0.00261237
0.000199471
0.00254867
0.000180194
0.00250064
0.000134713
0.00247526
6.92265e-05
0.00247812
-1.11976e-05
0.00251167
-9.69893e-05
0.00257197
-0.00017099
0.00264735
-0.000212834
0.00272094
-0.000208333
0.00277593
-0.000156848
0.00280075
-7.18424e-05
0.00279178
2.46836e-05
0.00275328
0.000109855
0.00269524
0.000166632
0.00263007
0.000187364
0.00256969
0.000173145
0.00252415
0.000129939
0.00250133
6.48422e-05
0.00250651
-1.39624e-05
0.00254052
-9.42574e-05
0.00259771
-0.000159129
0.00266607
-0.00019172
0.00273027
-0.000182594
0.00277633
-0.000134254
0.0027955
-5.99155e-05
0.00278586
2.19671e-05
0.00275164
9.3732e-05
0.00270117
0.000142638
0.00264459
0.000162264
0.00259212
0.000151738
0.00255303
0.000114029
0.00253487
5.48578e-05
0.00254218
-1.67592e-05
0.00257471
-8.75299e-05
0.00262616
-0.000141496
0.00268522
-0.000165002
0.00273861
-0.000152227
0.00277504
-0.000107599
0.00278809
-4.36886e-05
0.00277719
2.37854e-05
0.00274664
8.09157e-05
0.00270375
0.000118513
0.00265693
0.00013239
0.00261455
0.000122065
0.00258422
8.95628e-05
0.00257203
3.94792e-05
0.00258118
-1.99898e-05
0.00261053
-7.68378e-05
0.00265393
-0.000117663
0.00270158
-0.000132186
0.00274274
-0.000117288
0.00276885
-7.81081e-05
0.00277563
-2.57172e-05
0.00276351
2.70739e-05
0.00273668
6.95963e-05
0.00270142
9.53845e-05
0.00266467
0.000102075
0.002633
9.01102e-05
0.00261214
6.17517e-05
0.00260629
2.12676e-05
0.00261708
-2.42844e-05
0.00264254
-6.52943e-05
0.00267707
-9.18743e-05
0.00271267
-9.73227e-05
0.00274127
-8.07622e-05
0.00275694
-4.73938e-05
0.00275729
-6.34391e-06
0.00274352
3.25941e-05
0.00271955
6.17647e-05
0.00269067
7.69583e-05
0.00266239
7.71277e-05
0.00263973
6.33369e-05
0.00262679
3.80556e-05
0.00262621
5.30598e-06
0.00263835
-2.89372e-05
0.00266079
-5.72681e-05
0.00268851
-7.27705e-05
0.00271512
-7.14976e-05
0.00273461
-5.40988e-05
0.00274301
-2.55595e-05
0.00273927
6.60699e-06
0.00272506
3.49923e-05
0.00270405
5.40475e-05
0.00268071
6.13119e-05
0.00265959
5.62899e-05
0.00264452
4.0789e-05
0.00263869
1.68884e-05
0.00264351
-1.17901e-05
0.00265861
-3.73433e-05
-6.75076e-05
0.00250208
-8.59323e-06
0.00250863
-2.69627e-05
0.00252034
-4.77525e-05
0.00253801
-7.11338e-05
0.00256234
-9.65839e-05
0.00259365
-0.000122334
0.00263161
-0.000145624
0.0026745
-0.000161614
0.00271918
-0.000165405
0.00276055
-0.000151232
0.00279259
-0.000116621
0.00281092
-6.65537e-05
0.00281293
-7.51196e-06
0.00279763
5.37922e-05
0.00276714
0.000106506
0.00272731
0.000138669
0.00268622
0.000142844
0.00265238
0.000117646
0.00263305
6.77179e-05
0.0026328
3.02677e-06
0.00265208
-6.16924e-05
0.00268561
-0.000107521
0.00272223
-0.000116448
0.00274827
-8.13915e-05
0.00275345
-1.26612e-05
0.00273475
6.75076e-05
0.00269593
0.000137221
0.00264437
0.000183068
0.00258829
0.000200065
0.00253553
0.00018781
0.00249358
0.000147198
0.00246995
7.95081e-05
0.00247189
-1.17742e-05
0.00250441
-0.00011614
0.00256578
-0.000210933
0.002644
-0.000264735
0.00271867
-0.000252778
0.00276907
-0.00017396
0.00278308
-5.38168e-05
0.00276068
7.0027e-05
0.00271114
0.000166886
0.002647
0.000223084
0.00257963
0.000238875
0.00251802
0.000219717
0.00246983
0.000169646
0.00244275
8.9999e-05
0.00244448
-1.65435e-05
0.00248051
-0.000138499
0.00254975
-0.000250179
0.00264056
-0.000316029
0.00273111
-0.000306631
0.00279658
-0.000217581
0.00281975
-7.58696e-05
0.00279798
7.35072e-05
0.00274196
0.00019034
0.0026683
0.000254999
0.00259228
0.000268422
0.00252457
0.000241461
0.00247231
0.000183764
0.002442
9.91947e-05
0.00244096
-1.01139e-05
0.00247487
-0.000133938
0.0025423
-0.000247321
0.00263103
-0.000316097
0.00272026
-0.000313217
0.00278786
-0.000234097
0.00281796
-0.000100247
0.00280563
4.99763e-05
0.00275722
0.000176984
0.00268673
0.000254598
0.00261001
0.000276191
0.0025403
0.000249901
0.00248731
0.000187706
0.00245895
9.75863e-05
0.00246217
-1.44202e-05
0.0025002
-0.000135022
0.00256823
-0.000239023
0.00265216
-0.000296763
0.00273238
-0.000288545
0.00279037
-0.000214842
0.00281442
-9.58962e-05
0.00280193
3.71733e-05
0.00275856
0.000153233
0.00269534
0.000229844
0.00262531
0.000257402
0.00256076
0.000237694
0.00251232
0.000178375
0.00248893
8.8237e-05
0.00249685
-2.18884e-05
0.00253695
-0.000134359
0.00260217
-0.000224342
0.00267814
-0.000267689
0.00274734
-0.000251803
0.0027946
-0.000181506
0.0028112
-7.65157e-05
0.00279634
3.68279e-05
0.00275583
0.000134234
0.00269943
0.000199044
0.0026381
0.000223588
0.00258248
0.00020736
0.00254222
0.000154287
0.00252545
7.16279e-05
0.00253709
-2.83957e-05
0.00257635
-0.000126788
0.00263541
-0.000200559
0.00270094
-0.000230532
0.00275801
-0.000209299
0.00279455
-0.000144133
0.00280434
-5.34823e-05
0.00278781
4.03213e-05
0.00275066
0.00011806
0.00270157
0.000167604
0.00264995
0.000184006
0.0026048
0.000167222
0.00257416
0.000120204
0.00256443
4.92019e-05
0.00257875
-3.43061e-05
0.00261506
-0.000113145
0.00266563
-0.00016824
0.00271889
-0.000185444
0.0027628
-0.000161194
0.00278832
-0.000103633
0.00279153
-2.89227e-05
0.0027738
4.48021e-05
0.00274057
0.000102829
0.00269933
0.000136619
0.00265796
0.000143444
0.00262374
0.00012433
0.0026029
8.26004e-05
0.00259983
2.43302e-05
0.00261586
-4.03142e-05
0.00264801
-9.74425e-05
0.00268912
-0.000132987
0.00272966
-0.000137858
0.00276047
-0.00011157
0.00277531
-6.22382e-05
0.00277219
-3.22089e-06
0.0027532
5.15811e-05
0.00272336
9.16065e-05
0.00268899
0.000111325
0.00265647
0.00010965
0.00263149
8.83186e-05
0.00261862
5.09212e-05
0.00262065
3.27801e-06
0.00263758
-4.58684e-05
0.00266601
-8.56973e-05
0.00269955
-0.000106308
0.00273045
-0.000102402
0.00275184
-7.54829e-05
0.00275949
-3.32096e-05
0.00275269
1.34078e-05
0.00273388
5.37942e-05
0.00270768
8.02554e-05
0.00267942
8.95654e-05
0.00265449
8.12276e-05
0.00263725
5.80294e-05
0.00263156
2.25765e-05
0.00263843
-1.86614e-05
0.00265851
-5.74216e-05
-9.70295e-05
0.00250199
-1.05792e-05
0.00250829
-3.32671e-05
0.00251969
-5.91564e-05
0.00253714
-8.85817e-05
0.00256158
-0.000121026
0.00259365
-0.000154401
0.00263334
-0.000185314
0.00267912
-0.000207396
0.00272784
-0.000214126
0.00277358
-0.000196963
0.0028091
-0.000152148
0.0028295
-8.69487e-05
0.00283176
-9.7769e-06
0.00281429
7.12652e-05
0.00277915
0.000141641
0.00273305
0.000184778
0.00268539
0.000190497
0.00264611
0.000156926
0.00262376
9.007e-05
0.00262403
2.75779e-06
0.00264806
-8.57269e-05
0.00268997
-0.000149431
0.00273609
-0.000162563
0.00276925
-0.000114549
0.00277674
-2.01543e-05
0.00275546
8.87865e-05
0.00271082
0.000181858
0.00265211
0.000241778
0.00258878
0.000263397
0.0025292
0.000247392
0.00248115
0.000195249
0.00245289
0.000107765
0.00245351
-1.23879e-05
0.00249036
-0.000152997
0.00256281
-0.000283379
0.00265657
-0.0003585
0.00274588
-0.000342085
0.00280455
-0.000232626
0.00281827
-6.75355e-05
0.00278876
9.95355e-05
0.0027289
0.000226748
0.00265436
0.000297617
0.002578
0.000315233
0.00250883
0.00028889
0.00245377
0.000224705
0.00241984
0.000123935
0.0024153
-1.20088e-05
0.00244827
-0.00017147
0.00252093
-0.000322833
0.00262258
-0.000417684
0.00272884
-0.000412886
0.00280976
-0.000298505
0.0028427
-0.000108811
0.00282201
9.42022e-05
0.00275948
0.000252872
0.00267569
0.000338786
0.00258957
0.00035454
0.0025132
0.00031783
0.00245347
0.000243497
0.00241718
0.000135481
0.00241378
-6.71014e-06
0.00245126
-0.000171424
0.00252798
-0.000324041
0.0026285
-0.000416612
0.00272803
-0.000412745
0.00280191
-0.000307978
0.00283384
-0.000132176
0.00281956
6.42581e-05
0.00276636
0.000230184
0.00268925
0.0003317
0.0026052
0.000360246
0.00252845
0.000326649
0.00246988
0.000246281
0.00243909
0.000128369
0.00244476
-2.00891e-05
0.00249031
-0.000180569
0.00256886
-0.000317568
0.002663
-0.000390903
0.00275024
-0.000375794
0.00281059
-0.000275191
0.00283236
-0.000117662
0.00281423
5.52971e-05
0.00276373
0.000203738
0.00269345
0.000300125
0.00261724
0.000333609
0.00254789
0.000307047
0.00249677
0.000229494
0.00247401
0.000110992
0.00248672
-3.45947e-05
0.00253507
-0.000182713
0.0026098
-0.000299066
0.00269389
-0.000351784
0.00276789
-0.000325797
0.00281571
-0.000229331
0.00282884
-8.9641e-05
0.00280751
5.81565e-05
0.00275921
0.000182536
0.00269534
0.000262911
0.00262808
0.000290848
0.00256877
0.000266671
0.0025277
0.000195353
0.00251362
8.57107e-05
0.00253146
-4.62315e-05
0.00257923
-0.000174565
0.00264697
-0.000268292
0.00271913
-0.000302695
0.00277939
-0.000269559
0.00281524
-0.000179983
0.00282086
-5.91002e-05
0.00279766
6.3521e-05
0.00275278
0.000162934
0.00269638
0.000224004
0.00263911
0.000241276
0.00259087
0.000215468
0.00256039
0.000150681
0.00255443
5.51636e-05
0.00257566
-5.55402e-05
0.00262055
-0.000158037
0.00267925
-0.000226934
0.00273822
-0.000244414
0.00278432
-0.000207298
0.00280836
-0.000127671
0.00280696
-2.75175e-05
0.00278254
6.92169e-05
0.00274185
0.000143517
0.0026937
0.000184769
0.0026471
0.000190052
0.00261024
0.000161189
0.00259002
0.000102819
0.00259105
2.32962e-05
0.00261401
-6.32722e-05
0.00265437
-0.000137804
0.00270299
-0.000181602
0.00274859
-0.000183465
0.00278111
-0.000144082
0.00279422
-7.53503e-05
0.00278653
4.46222e-06
0.00276119
7.69233e-05
0.00272441
0.000128391
0.00268368
0.000152054
0.0026464
0.000146931
0.00261911
0.000115608
0.00260698
6.30484e-05
0.00261289
-2.63354e-06
0.00263618
-6.91533e-05
0.002672
-0.000121516
0.0027122
-0.000146512
0.00274756
-0.000137767
0.0027704
-9.83156e-05
0.00277644
-3.92484e-05
0.00276551
2.43309e-05
0.002741
7.83086e-05
0.00270855
0.000112703
0.00267456
0.000123558
0.00264532
0.000110461
0.00262595
7.74006e-05
0.00262105
2.74816e-05
0.0026311
-2.87148e-05
0.00265771
-8.40283e-05
-0.000131875
0.00250186
-1.24396e-05
0.00250782
-3.92262e-05
0.00251877
-7.01048e-05
0.00253584
-0.000105658
0.0025603
-0.000145478
0.00259317
-0.000187275
0.00263496
-0.000227101
0.00268444
-0.000256878
0.00273852
-0.000268209
0.00279011
-0.000248555
0.00283032
-0.000192359
0.00285359
-0.000110217
0.00285639
-1.25751e-05
0.00283616
9.14922e-05
0.00279481
0.000182995
0.00274023
0.000239362
0.00268371
0.000247009
0.00263705
0.000203587
0.00261047
0.000116654
0.0026112
2.02225e-06
0.00264153
-0.000116054
0.00269492
-0.000202816
0.00275421
-0.000221853
0.00279719
-0.00015753
0.0028077
-3.0669e-05
0.00278268
0.000113808
0.00273006
0.000234479
0.00266186
0.00030998
0.00258914
0.00033612
0.00252076
0.000315763
0.00246471
0.0002513
0.00243009
0.000142389
0.00242787
-1.01721e-05
0.00246785
-0.000192973
0.00255139
-0.000366924
0.00266406
-0.000471164
0.00277476
-0.000452783
0.00284816
-0.000306029
0.00286401
-8.33906e-05
0.00282555
0.000137998
0.00275161
0.000300691
0.00266318
0.000386048
0.00257536
0.000403052
0.0024967
0.000367549
0.00243229
0.000289118
0.00238795
0.000168276
0.002374
1.94096e-06
0.00240369
-0.000201162
0.00248268
-0.000401825
0.00259845
-0.000533457
0.00272165
-0.000536079
0.00281799
-0.00039485
0.0028616
-0.000152418
0.00284413
0.000111668
0.00277688
0.000320126
0.00268311
0.000432549
0.00258558
0.000452074
0.00249861
0.000404797
0.00242992
0.000312194
0.00238793
0.000177464
0.00238499
-3.76219e-06
0.00243038
-0.000216819
0.00252
-0.000413659
0.00263378
-0.000530399
0.0027431
-0.000522056
0.00282144
-0.000386317
0.00285261
-0.000163347
0.00283374
8.31258e-05
0.00277379
0.000290133
0.00268899
0.000416503
0.00259703
0.000452198
0.00251298
0.000410698
0.00244919
0.00031008
0.00241741
0.000160142
0.00242775
-3.04312e-05
0.00248267
-0.000235489
0.0025722
-0.000407097
0.00267571
-0.000494405
0.00276873
-0.000468819
0.00283053
-0.000336995
0.00284949
-0.000136613
0.00282514
7.96443e-05
0.00276664
0.000262238
0.00268833
0.000378431
0.00260526
0.000416677
0.00253101
0.000381306
0.00247792
0.000282576
0.00245728
0.000131635
0.00247639
-5.37018e-05
0.00253386
-0.000240187
0.00261772
-0.000382921
0.0027086
-0.000442669
0.00278588
-0.00040308
0.00283332
-0.000276767
0.00284268
-9.90047e-05
0.00281494
8.59056e-05
0.0027588
0.000238672
0.00268722
0.000334488
0.00261376
0.000364315
0.00255083
0.000329595
0.00250968
0.000236506
0.00249958
9.58113e-05
0.00252492
-7.15773e-05
0.00258181
-0.000231449
0.00265772
-0.000344203
0.00273521
-0.000380183
0.00279718
-0.000331533
0.00283128
-0.00021408
0.00283226
-6.00777e-05
0.00280236
9.34159e-05
0.00274986
0.000215435
0.00268622
0.000287649
0.00262338
0.000304112
0.00257241
0.00026644
0.00254296
0.000180134
0.00254203
5.60892e-05
0.00257139
-8.48976e-05
0.00262538
-0.000212032
0.00269174
-0.000293291
0.00275523
-0.000307902
0.00280213
-0.000254203
0.00282356
-0.000149101
0.00281689
-2.08502e-05
0.00278554
0.000100567
0.00273738
0.000191682
0.00268241
0.000239736
0.00263083
0.000241638
0.00259191
0.000200101
0.00257337
0.000121364
0.00257986
1.68027e-05
0.00261098
-9.43859e-05
0.00266012
-0.000186944
0.00271591
-0.000237392
0.00276557
-0.000233126
0.00279852
-0.000177032
0.00280878
-8.56127e-05
0.00279575
1.74876e-05
0.00276361
0.000109071
0.00271968
0.000172319
0.00267259
0.000199139
0.00263082
0.000188704
0.00260188
0.00014455
0.00259159
7.3337e-05
0.00260275
-1.3795e-05
0.0026336
-9.99975e-05
0.0026774
-0.00016532
0.00272407
-0.00019318
0.00276305
-0.000176751
0.00278621
-0.000121475
0.00278956
-4.26003e-05
0.00277367
4.02275e-05
0.00274286
0.00010912
0.00270383
0.000151731
0.002664
0.000163385
0.00263068
0.000143778
0.00260982
9.82686e-05
0.00260672
3.05757e-05
0.00262125
-4.32382e-05
0.00265549
-0.00011827
-0.000172251
0.00250169
-1.41321e-05
0.00250718
-4.47172e-05
0.00251748
-8.04055e-05
0.00253396
-0.000122133
0.00255822
-0.000169734
0.00259185
-0.000220906
0.00263602
-0.000271275
0.00269004
-0.000310898
0.00275104
-0.000329213
0.00281027
-0.000307786
0.00285647
-0.000238558
0.00288341
-0.000137154
0.00288709
-1.62522e-05
0.00286357
0.000115012
0.00281435
0.000232215
0.00274887
0.00030484
0.00268086
0.000315015
0.00262448
0.000259968
0.0025921
0.000149034
0.00259308
1.04411e-06
0.00263147
-0.000154443
0.00270017
-0.000271521
0.00277734
-0.000299018
0.00283358
-0.000213773
0.00284787
-4.49595e-05
0.00281744
0.000144238
0.00275406
0.000297859
0.00267361
0.00039043
0.00258915
0.000420577
0.00250995
0.000394965
0.00244394
0.000317308
0.00240044
0.000185889
0.00239051
-2.39503e-07
0.00242518
-0.000227646
0.00251108
-0.000452823
0.0026402
-0.000600279
0.00278006
-0.000592647
0.00288249
-0.00040846
0.00291248
-0.00011338
0.00286939
0.000181088
0.00277958
0.00039051
0.00267364
0.000491986
0.00257152
0.00050517
0.00248118
0.000457888
0.00240482
0.000365483
0.0023479
0.000225194
0.00232586
2.39759e-05
0.00235831
-0.000233612
0.0024509
-0.000494415
0.00258454
-0.000667095
0.00272318
-0.000674721
0.00282991
-0.000501572
0.00287912
-0.000201633
0.00286261
0.00012818
0.00279101
0.000391722
0.00268825
0.000535311
0.00257934
0.00056098
0.00248101
0.000503136
0.00240317
0.000390034
0.0023573
0.00022333
0.00235823
-4.69697e-06
0.00241425
-0.000272833
0.00251683
-0.000516238
0.00264168
-0.000655254
0.0027582
-0.000638577
0.00283942
-0.000467532
0.00286909
-0.000193023
0.00284501
0.000107206
0.00277763
0.000357513
0.00268468
0.000509454
0.00258479
0.000552088
0.0024939
0.000501588
0.00242605
0.000377934
0.00239506
0.000191131
0.00241153
-4.69093e-05
0.00247579
-0.000299744
0.00257444
-0.000505743
0.00268444
-0.000604409
0.00278073
-0.000565105
0.00284281
-0.000399081
0.00285924
-0.000153036
0.00282971
0.000109171
0.00276417
0.000327774
0.00267837
0.000464235
0.00258875
0.000506293
0.00251014
0.00045992
0.00245616
0.000336553
0.00243895
0.000148847
0.00246521
-7.99619e-05
0.00253123
-0.000306206
0.00262228
-0.000473973
0.00271738
-0.00053777
0.00279572
-0.000481414
0.00284159
-0.000322641
0.00284728
-0.000104697
0.0028141
0.000119084
0.00275139
0.000301386
0.00267314
0.000412733
0.00259425
0.00044321
0.00252851
0.000395337
0.0024883
0.00027671
0.00248325
0.000100861
0.00251656
-0.000104891
0.00258184
-0.000296723
0.00266408
-0.000426444
0.00274455
-0.000460658
0.00280622
-0.0003932
0.00283744
-0.0002453
0.00283371
-5.63412e-05
0.00279786
0.000129263
0.00273885
0.000274442
0.00266908
0.000357415
0.0026017
0.000371492
0.00254906
0.000319079
0.00252183
0.000207368
0.00252703
5.08921e-05
0.00256491
-0.000122781
0.00262728
-0.000274397
0.00269952
-0.000365537
0.00276533
-0.000373708
0.00281114
-0.000300015
0.00282886
-0.00016682
0.00281673
-8.72075e-06
0.00277896
0.00013834
0.00272422
0.000246419
0.00266347
0.000300484
0.00260801
0.000297103
0.00256829
0.000239818
0.0025528
0.000136849
0.00256597
3.63338e-06
0.00260573
-0.000134142
0.00266302
-0.000244239
0.00272439
-0.000298759
0.00277611
-0.000284843
0.00280776
-0.000208679
0.0028141
-9.19552e-05
0.00279542
3.61695e-05
0.00275675
0.000147733
0.00270634
0.00022273
0.00265377
0.000251717
0.00260854
0.000233927
0.00257922
0.000173871
0.00257221
8.03518e-05
0.00258987
-3.1453e-05
0.00262881
-0.000138944
0.00268013
-0.000216633
0.0027319
-0.000244958
0.00277278
-0.000217625
0.00279471
-0.000143407
0.00279434
-4.22312e-05
0.00277304
6.15287e-05
0.002736
0.000146156
0.00269081
0.000196923
0.00264582
0.000208378
0.00260932
0.000180271
0.00258817
0.000119425
0.0025882
3.05486e-05
0.00260842
-6.34597e-05
0.00265061
-0.000160467
-0.000217479
0.00250147
-1.56062e-05
0.00250635
-4.95897e-05
0.00251575
-8.98117e-05
0.00253131
-0.000137686
0.00255503
-0.000193458
0.00258922
-0.000255094
0.00263595
-0.000318007
0.00269539
-0.000370335
0.00276523
-0.000399054
0.00283434
-0.000376896
0.00288822
-0.000292435
0.00292014
-0.000169078
0.00292538
-2.1489e-05
0.00289787
0.000142521
0.00283846
0.000291623
0.00275882
0.000384479
0.00267599
0.000397843
0.00260704
0.000328919
0.00256685
0.000189224
0.00256755
3.49863e-07
0.00261606
-0.000202955
0.00270507
-0.000360532
0.00280627
-0.000400222
0.00288018
-0.000287676
0.00289906
-6.38395e-05
0.00286092
0.000182371
0.00278324
0.000375544
0.00268727
0.000486399
0.00258856
0.000519287
0.00249661
0.000486913
0.00241867
0.000395254
0.00236184
0.000242711
0.00233444
2.71684e-05
0.0023509
-0.000244105
0.00242943
-0.00053136
0.00257146
-0.000742304
0.00274366
-0.000764853
0.00288654
-0.000551336
0.00294709
-0.000173933
0.00291213
0.000216056
0.00281079
0.000491842
0.00268591
0.000616867
0.00256663
0.000624451
0.00246207
0.000562444
0.00237206
0.000455495
0.00230387
0.000293385
0.00227978
4.80664e-05
0.00232268
-0.000276514
0.00243278
-0.000604516
0.00258288
-0.000817193
0.00273274
-0.00082458
0.00284502
-0.000613854
0.00289526
-0.000251869
0.00287649
0.000146949
0.00279975
0.000468466
0.00268888
0.00064618
0.00256962
0.000680233
0.00246061
0.00061215
0.00237495
0.000475696
0.0023277
0.000270578
0.00233475
-1.17472e-05
0.00240112
-0.000339205
0.00251342
-0.000628531
0.00264469
-0.000786526
0.00276455
-0.000758436
0.00284701
-0.000549997
0.00287585
-0.000221861
0.00284828
0.00013478
0.00277502
0.000430774
0.00267496
0.000609507
0.002568
0.000659051
0.00247141
0.000598174
0.00240111
0.000448235
0.00237244
0.000219802
0.00239538
-6.98499e-05
0.00246735
-0.000371711
0.00257192
-0.000610314
0.0026848
-0.00071729
0.00278144
-0.000661744
0.00284242
-0.000460055
0.00285671
-0.000167326
0.00282375
0.000142131
0.00275335
0.000398174
0.00266189
0.000555688
0.00256712
0.000601069
0.00248539
0.000541649
0.00243179
0.000390147
0.00241892
0.000161716
0.00245211
-0.000113146
0.00252492
-0.000379018
0.00262033
-0.000569379
0.00271662
-0.000634064
0.00279365
-0.000558445
0.00283682
-0.000365804
0.00283907
-0.000106949
0.00280184
0.000156313
0.0027345
0.000368727
0.00265152
0.000495713
0.00256884
0.000525887
0.0025017
0.000462473
0.00246368
0.000314731
0.00246436
0.000100183
0.00250516
-0.000145692
0.00257698
-0.00036854
0.00266281
-0.000512276
0.0027435
-0.000541346
0.0028028
-0.0004525
0.0028302
-0.000272704
0.002822
-4.81356e-05
0.0027814
0.000169863
0.00271761
0.000338229
0.00264356
0.00043147
0.00257336
0.000441691
0.00252065
0.00037179
0.00249699
0.000231023
0.002509
3.88886e-05
0.00255485
-0.000168638
0.00262367
-0.000343216
0.00269907
-0.000440939
0.00276451
-0.000439147
0.00280731
-0.000342812
0.0028205
-0.000180011
0.00280318
8.60169e-06
0.00276008
0.00018144
0.00270033
0.000306171
0.00263551
0.000365297
0.00257791
0.000354702
0.00253912
0.000278611
0.00252821
0.000147759
0.00254883
-1.69862e-05
0.00259672
-0.000182032
0.00266032
-0.000307837
0.00272464
-0.000363085
0.00277588
-0.000336084
0.00280446
-0.000237252
0.00280615
-9.36514e-05
0.00278207
6.02513e-05
0.00273787
0.000191937
0.00268235
0.000278247
0.00262584
0.000308229
0.00257884
0.000280928
0.00255087
0.00020184