/*--------------------------------*- C++ -*----------------------------------*\
  =========                 |
  \\      /  F ield         | OpenFOAM: The Open Source CFD Toolbox
   \\    /   O peration     | Website:  https://openfoam.org
    \\  /    A nd           | Version:  11
     \\/     M anipulation  |
\*---------------------------------------------------------------------------*/
FoamFile
{
    format      ascii;
    class       volVectorField;
    location    "19.102965";
    object      U_0;
}
// * * * * * * * * * * * * * * * * * * * * * * * * * * * * * * * * * * * * * //

dimensions      [0 1 -1 0 0 0 0];

internalField   nonuniform List<vector> 
7132
(
(1.0001 -0.000220992 3.64153e-18)
(1.00172 -0.000690505 1.05837e-17)
(1.00552 -0.00121403 1.02651e-17)
(1.01147 -0.0017907 1.27239e-17)
(1.01983 -0.00240255 1.71778e-17)
(1.03069 -0.00300169 1.70403e-17)
(1.04389 -0.00351785 1.5372e-17)
(1.0589 -0.00384236 1.39076e-17)
(1.07475 -0.00386759 1.30108e-17)
(1.09001 -0.00349015 1.27278e-17)
(1.10286 -0.00267104 1.28649e-17)
(1.11158 -0.0015073 1.33205e-17)
(1.11507 -0.000150155 1.37166e-17)
(1.11285 0.0012264 1.40294e-17)
(1.10526 0.0023824 1.07695e-17)
(1.09372 0.00307097 7.5691e-18)
(1.08055 0.00313909 4.94685e-18)
(1.06845 0.00256358 3.96995e-18)
(1.05992 0.00145993 1.4216e-18)
(1.05675 6.67057e-05 3.40336e-19)
(1.05952 -0.00127846 5.89829e-19)
(1.06728 -0.00217868 2.39373e-18)
(1.07738 -0.00229234 4.04632e-18)
(1.0861 -0.00150855 5.27737e-18)
(1.08988 -4.27272e-05 3.41992e-18)
(1.08672 0.00166751 6.11833e-19)
(1.07662 0.00317694 4.58802e-18)
(1.0612 0.00418188 2.30746e-17)
(1.04293 0.0045372 -4.20258e-17)
(1.02459 0.00420401 -2.9064e-16)
(1.00894 0.00319835 4.67512e-16)
(0.998633 0.00158067 4.61848e-15)
(0.995972 -0.000508172 2.08402e-15)
(1.00251 -0.00277395 -5.66793e-14)
(1.01821 -0.00471789 -2.19468e-13)
(1.04058 -0.00573311 -3.99259e-13)
(1.06462 -0.00538007 -4.26371e-13)
(1.08424 -0.0036704 -2.8905e-13)
(1.0945 -0.00110985 -1.25716e-13)
(1.0934 0.00155966 -2.86704e-14)
(1.08203 0.00370592 8.87855e-15)
(1.06354 0.00499961 2.22712e-14)
(1.04169 0.00537992 6.43018e-15)
(1.02009 0.00491481 -1.11305e-13)
(1.00193 0.00368574 -3.15377e-13)
(0.990155 0.00176471 6.41645e-15)
(0.987417 -0.000710662 2.7714e-12)
(0.995614 -0.00340615 1.07728e-11)
(1.01475 -0.00572421 2.41897e-11)
(1.04183 -0.00694105 3.71615e-11)
(1.07095 -0.0065398 4.12599e-11)
(1.09488 -0.00452875 3.40261e-11)
(1.10776 -0.00149258 2.11829e-11)
(1.10712 0.00168241 9.84744e-12)
(1.09428 0.00420985 2.64759e-12)
(1.07315 0.00567176 -4.88813e-13)
(1.04848 0.0060202 -3.43401e-13)
(1.02452 0.00540553 1.43093e-12)
(1.00476 0.00399675 -5.62504e-13)
(0.992077 0.0019154 -1.84976e-11)
(0.988998 -0.000686468 -6.85161e-11)
(0.997259 -0.003475 -1.60393e-10)
(1.01674 -0.0058672 -2.84443e-10)
(1.04446 -0.00716705 -4.05875e-10)
(1.07462 -0.00686903 -4.78908e-10)
(1.10011 -0.00494045 -4.73664e-10)
(1.11482 -0.00188839 -3.92606e-10)
(1.1157 0.00143958 -2.66401e-10)
(1.10348 0.00420021 -1.38703e-10)
(1.08195 0.00585515 -4.2892e-11)
(1.05627 0.00626842 9.51105e-12)
(1.03132 0.005595 1.80503e-11)
(1.01099 0.00408043 -2.73815e-11)
(0.99817 0.00193293 -1.53912e-10)
(0.995057 -0.000642088 -3.8926e-10)
(1.00295 -0.00330705 -7.34753e-10)
(1.02137 -0.00553423 -1.14774e-09)
(1.04735 -0.00673208 -1.54551e-09)
(1.0756 -0.00649571 -1.83079e-09)
(1.09984 -0.00481275 -1.92642e-09)
(1.11466 -0.0020947 -1.80208e-09)
(1.11707 0.000970365 -1.48292e-09)
(1.10718 0.00365387 -1.04156e-09)
(1.0879 0.0054102 -5.83366e-10)
(1.06375 0.00599643 -2.17981e-10)
(1.03962 0.0054559 -2.53644e-11)
(1.0197 0.00399859 -3.78956e-11)
(1.00719 0.00188239 -2.45291e-10)
(1.00425 -0.000603802 -6.09402e-10)
(1.01178 -0.00307493 -1.07522e-09)
(1.02885 -0.00503758 -1.57668e-09)
(1.05233 -0.00601023 -2.04316e-09)
(1.07734 -0.00571698 -2.40811e-09)
(1.09849 -0.00421809 -2.6165e-09)
(1.11143 -0.00189274 -2.62889e-09)
(1.11385 0.000700275 -2.42471e-09)
(1.1059 0.0029987 -2.01116e-09)
(1.08981 0.00457546 -1.4464e-09)
(1.06914 0.00520056 -8.52059e-10)
(1.04798 0.00483673 -3.82755e-10)
(1.03018 0.00359525 -1.59741e-10)
(1.01894 0.00169198 -2.17247e-10)
(1.01643 -0.000560802 -5.02139e-10)
(1.02337 -0.00274874 -9.17128e-10)
(1.03858 -0.00440473 -1.36691e-09)
(1.05894 -0.00513557 -1.78159e-09)
(1.08007 -0.0047683 -2.11808e-09)
(1.09745 -0.0034217 -2.35078e-09)
(1.10767 -0.00145753 -2.4599e-09)
(1.10917 0.000652921 -2.42271e-09)
(1.10235 0.00247444 -2.21537e-09)
(1.08916 0.00370196 -1.83588e-09)
(1.07247 0.00417975 -1.3355e-09)
(1.05547 0.00387658 -8.25262e-10)
(1.04123 0.00285911 -4.36641e-10)
(1.03243 0.00128925 -2.58796e-10)
(1.03086 -0.000561216 -3.01711e-10)
(1.03701 -0.00232109 -5.09087e-10)
(1.04968 -0.00359276 -7.99872e-10)
(1.06612 -0.00407309 -1.10385e-09)
(1.08266 -0.00366352 -1.37551e-09)
(1.09573 -0.00250471 -1.59068e-09)
(1.10284 -0.000917541 -1.73566e-09)
(1.10303 0.000713258 -1.7963e-09)
(1.09694 0.00205577 -1.75307e-09)
(1.0863 0.00289798 -1.58955e-09)
(1.07344 0.00315086 -1.31183e-09)
(1.0608 0.00281722 -9.63675e-10)
(1.05068 0.0019665 -6.19442e-10)
(1.04495 0.000737059 -3.54222e-10)
(1.0448 -0.000649592 -2.12047e-10)
(1.05032 -0.00190391 -1.94446e-10)
(1.06034 -0.00273402 -2.71948e-10)
(1.07257 -0.00293992 -4.04471e-10)
(1.08422 -0.00248729 -5.56565e-10)
(1.09272 -0.00151853 -7.02885e-10)
(1.09646 -0.000296882 -8.26376e-10)
(1.09502 0.000885084 -9.13449e-10)
(1.08916 0.00179103 -9.50339e-10)
(1.08039 0.00228373 -9.24325e-10)
(1.07056 0.00232152 -8.3024e-10)
(1.06152 0.00193138 -6.77902e-10)
(1.05489 0.00118908 -4.93437e-10)
(1.0519 0.000219779 -3.11301e-10)
(1.05316 -0.000796166 -1.61588e-10)
(1.05845 -0.00164198 -6.08431e-11)
(1.06661 -0.00211761 -1.07716e-11)
(1.07576 -0.00210673 -2.97183e-12)
(1.08379 -0.00162243 -2.50234e-11)
(1.08897 -0.000802709 -6.46639e-11)
(1.09029 0.000136538 -1.11356e-10)
(1.08781 0.000977073 -1.56142e-10)
(1.08223 0.00155001 -1.91114e-10)
(1.07519 0.0017772 -2.09584e-10)
(1.06755 0.00163862 -2.07279e-10)
(1.06209 0.00118596 -1.83773e-10)
(1.05727 0.000492711 -1.43194e-10)
(1.05915 -0.000361638 -9.15733e-11)
(1.05811 -0.0010544 -4.24704e-11)
(1.07139 -0.0020213 2.96048e-11)
(1.0001 -0.000660877 5.04763e-20)
(1.00171 -0.00206647 5.02977e-19)
(1.00549 -0.00363591 9.2969e-19)
(1.01141 -0.00536914 1.37155e-18)
(1.01978 -0.00721368 1.94794e-18)
(1.03069 -0.00902698 2.49918e-18)
(1.04401 -0.0105986 2.78874e-18)
(1.05926 -0.0115978 3.60271e-18)
(1.07544 -0.0116966 3.36545e-18)
(1.0911 -0.0105718 3.76307e-18)
(1.10434 -0.00809976 4.55924e-18)
(1.11332 -0.00458113 7.194e-18)
(1.11691 -0.000478186 7.41026e-18)
(1.11462 0.00369176 7.89154e-18)
(1.1067 0.00719746 8.48112e-18)
(1.09463 0.0092865 9.00222e-18)
(1.08083 0.00949307 8.55404e-18)
(1.06815 0.00774299 5.91819e-18)
(1.0592 0.00438037 1.03912e-18)
(1.05588 0.00012616 -1.45784e-18)
(1.05888 -0.00399293 1.30822e-17)
(1.06722 -0.00676289 5.19484e-17)
(1.07815 -0.00712816 8.06216e-17)
(1.08766 -0.00473921 7.18913e-17)
(1.09193 -0.000255912 4.49134e-17)
(1.08883 0.00497515 1.75576e-17)
(1.07842 0.00958835 4.21945e-17)
(1.06246 0.0126621 1.22162e-16)
(1.04355 0.0137653 -3.64077e-16)
(1.02453 0.0127883 -1.64935e-15)
(1.00822 0.00977926 3.50351e-15)
(0.997327 0.00490821 2.82575e-14)
(0.994284 -0.00142246 3.01318e-15)
(1.00084 -0.00833998 -4.28253e-13)
(1.01714 -0.014322 -1.61917e-12)
(1.04064 -0.0174875 -2.98257e-12)
(1.06604 -0.0164601 -3.24123e-12)
(1.08678 -0.0112625 -2.17845e-12)
(1.09758 -0.00345137 -8.91921e-13)
(1.09634 0.00469192 -1.77911e-13)
(1.08437 0.0112304 6.09453e-14)
(1.06505 0.0151679 9.03746e-14)
(1.04235 0.016337 6.56992e-15)
(1.01994 0.0149592 -2.29083e-13)
(1.00101 0.011281 -4.36685e-13)
(0.988539 0.00549852 3.02906e-13)
(0.98536 -0.00200829 4.35482e-12)
(0.993622 -0.0102487 1.42103e-11)
(1.01353 -0.0173886 2.79339e-11)
(1.04202 -0.0211759 3.97511e-11)
(1.07278 -0.0199957 4.32318e-11)
(1.09803 -0.0138702 3.50078e-11)
(1.1115 -0.0046045 2.07844e-11)
(1.11063 0.00508062 1.01717e-11)
(1.09698 0.0127795 3.33461e-12)
(1.07481 0.0172236 -2.64255e-13)
(1.04911 0.0182865 1.1228e-12)
(1.02426 0.0164469 6.33866e-12)
(1.0037 0.012225 -1.56643e-12)
(0.990279 0.00597076 -7.09096e-11)
(0.986604 -0.00189338 -2.78051e-10)
(0.994605 -0.0103856 -6.82905e-10)
(1.01438 -0.0177333 -1.2488e-09)
(1.04302 -0.0217885 -1.7987e-09)
(1.07457 -0.0209716 -2.09345e-09)
(1.10149 -0.0151572 -1.99496e-09)
(1.11723 -0.0058864 -1.56252e-09)
(1.11847 0.00425374 -9.92842e-10)
(1.10593 0.0126832 -4.82769e-10)
(1.08361 0.017749 -1.39925e-10)
(1.05695 0.0190374 2.80611e-11)
(1.03105 0.0170335 5.82062e-11)
(1.00985 0.0124945 -3.92213e-11)
(0.996243 0.00604083 -3.09665e-10)
(0.992544 -0.00173732 -8.17029e-10)
(1.00024 -0.00984289 -1.56849e-09)
(1.01901 -0.0166705 -2.46055e-09)
(1.04584 -0.0203956 -3.29366e-09)
(1.07517 -0.0197594 -3.84473e-09)
(1.1004 -0.0147114 -3.95253e-09)
(1.11588 -0.00650083 -3.58083e-09)
(1.11854 0.00278515 -2.83376e-09)
(1.10854 0.0109385 -1.90832e-09)
(1.08884 0.0163023 -1.0255e-09)
(1.06409 0.0181357 -3.65212e-10)
(1.03927 0.0165643 -2.70899e-11)
(1.01864 0.0122138 -3.36806e-11)
(1.00553 0.00584583 -3.56956e-10)
(1.00227 -0.00168709 -9.36402e-10)
(1.00996 -0.00922245 -1.67919e-09)
(1.02771 -0.0152389 -2.46293e-09)
(1.0522 -0.0182401 -3.15842e-09)
(1.07821 -0.0173707 -3.65738e-09)
(1.10004 -0.0128241 -3.88536e-09)
(1.11317 -0.00577298 -3.80296e-09)
(1.11538 0.00207784 -3.40894e-09)
(1.10694 0.00902972 -2.74783e-09)
(1.09028 0.0138012 -1.92498e-09)
(1.06905 0.0157077 -1.10739e-09)
(1.04737 0.0146393 -4.83699e-10)
(1.02914 0.0109209 -1.93536e-10)
(1.01764 0.00518313 -2.72795e-10)
(1.01516 -0.00164924 -6.52841e-10)
(1.02256 -0.00831947 -1.20524e-09)
(1.03862 -0.013384 -1.79574e-09)
(1.06002 -0.0156194 -2.32102e-09)
(1.08204 -0.0144901 -2.71957e-09)
(1.0999 -0.0103718 -2.96232e-09)
(1.11009 -0.00438729 -3.03519e-09)
(1.11112 0.00202025 -2.92558e-09)
(1.10358 0.00753194 -2.62207e-09)
(1.08962 0.0112326 -2.13622e-09)
(1.07225 0.0126635 -1.53347e-09)
(1.05473 0.0117388 -9.38813e-10)
(1.04019 0.00865772 -4.9545e-10)
(1.03135 0.0038984 -2.98815e-10)
(1.03008 -0.00172747 -3.56993e-10)
(1.0369 -0.00709127 -6.03482e-10)
(1.05051 -0.0109673 -9.42259e-10)
(1.06793 -0.0124174 -1.28906e-09)
(1.08521 -0.0111401 -1.5894e-09)
(1.09861 -0.00757783 -1.81582e-09)
(1.10556 -0.00272462 -1.95553e-09)
(1.10521 0.00224131 -1.99761e-09)
(1.09833 0.00631231 -1.92656e-09)
(1.08686 0.00885072 -1.72992e-09)
(1.07326 0.00959515 -1.4176e-09)
(1.06009 0.00856057 -1.03727e-09)
(1.04969 0.00595817 -6.67064e-10)
(1.04401 0.00220375 -3.8464e-10)
(1.04427 -0.00203291 -2.34459e-10)
(1.05052 -0.00586583 -2.16335e-10)
(1.06146 -0.00839441 -2.97906e-10)
(1.07459 -0.0090016 -4.36337e-10)
(1.08688 -0.00758643 -5.94304e-10)
(1.09563 -0.00459601 -7.45433e-10)
(1.09917 -0.000845774 -8.72115e-10)
(1.09719 0.00276795 -9.60403e-10)
(1.09058 0.00552557 -9.96265e-10)
(1.08101 0.00701368 -9.66865e-10)
(1.07047 0.00711087 -8.67233e-10)
(1.06091 0.00590272 -7.07824e-10)
(1.05401 0.00361986 -5.15686e-10)
(1.05108 0.000641864 -3.26072e-10)
(1.05275 -0.00248079 -1.69444e-10)
(1.05873 -0.00507987 -6.23614e-11)
(1.06773 -0.00653524 -6.53822e-12)
(1.07768 -0.0064869 6.1285e-12)
(1.08628 -0.00497874 -1.25232e-11)
(1.09166 -0.00244233 -5.07881e-11)
(1.09281 0.000453772 -9.83139e-11)
(1.08985 0.00303831 -1.45803e-10)
(1.0836 0.00479553 -1.84569e-10)
(1.07584 0.00548798 -2.06966e-10)
(1.06754 0.00505823 -2.07864e-10)
(1.06159 0.00366424 -1.86279e-10)
(1.05649 0.00152666 -1.46145e-10)
(1.0585 -0.00109828 -9.34274e-11)
(1.05762 -0.00326834 -4.24996e-11)
(1.07203 -0.00619885 3.48778e-11)
(1.0001 -0.00109503 3.72926e-22)
(1.00168 -0.00342768 5.25943e-21)
(1.0054 -0.00604109 7.47752e-21)
(1.01129 -0.00894106 -9.97595e-21)
(1.01965 -0.0120453 -7.08368e-20)
(1.03066 -0.0151199 7.14592e-20)
(1.04424 -0.0178149 -6.22591e-19)
(1.05994 -0.0195638 -6.65913e-19)
(1.07679 -0.0198018 1.62027e-18)
(1.09328 -0.017945 6.73363e-19)
(1.10728 -0.0137609 -4.88859e-18)
(1.11678 -0.00778135 -8.221e-18)
(1.12058 -0.000786262 -6.11282e-18)
(1.11809 0.00636173 -7.38714e-19)
(1.1095 0.0124016 6.11486e-18)
(1.09636 0.0160134 1.07064e-17)
(1.08134 0.0163829 6.63542e-18)
(1.0675 0.0133795 -9.70674e-18)
(1.05777 0.00758732 -2.54956e-17)
(1.05424 0.000225782 1.23134e-18)
(1.05775 -0.00695266 -6.77104e-18)
(1.06736 -0.0118286 -3.40489e-16)
(1.08 -0.012522 -4.89734e-16)
(1.09108 -0.00839416 -1.43657e-16)
(1.09622 -0.000613543 8.16513e-17)
(1.09307 0.00843433 1.00964e-16)
(1.08187 0.0163649 2.63757e-16)
(1.06469 0.0216167 2.93408e-17)
(1.04441 0.0235002 -2.05532e-15)
(1.02403 0.0218663 1.62064e-15)
(1.00646 0.0168004 1.8329e-14)
(0.994523 0.00855254 -4.54052e-14)
(0.990893 -0.00225893 -2.3993e-13)
(0.997694 -0.0141939 7.23509e-13)
(1.01538 -0.0246198 5.24574e-12)
(1.04134 -0.0302017 1.07092e-11)
(1.06956 -0.0284639 1.06649e-11)
(1.09249 -0.0194294 5.78958e-12)
(1.10413 -0.00586801 1.61781e-12)
(1.1023 0.00818338 -1.89146e-14)
(1.08878 0.0193584 -1.53644e-13)
(1.06758 0.0260043 -5.08866e-14)
(1.04306 0.0279307 -2.30809e-13)
(1.01903 0.0255828 2.50439e-13)
(0.998676 0.0193818 3.30659e-12)
(0.985031 0.00959159 2.66015e-12)
(0.981158 -0.00324126 -3.65277e-11)
(0.98961 -0.0174791 -1.82789e-10)
(1.01094 -0.0299278 -4.63483e-10)
(1.04211 -0.0365855 -7.52262e-10)
(1.07618 -0.0345566 -8.41605e-10)
(1.10425 -0.0238766 -6.73965e-10)
(1.11901 -0.00776677 -3.90107e-10)
(1.11761 0.00896365 -1.51573e-10)
(1.10209 0.0221286 -2.50982e-11)
(1.07756 0.0296028 1.38476e-11)
(1.04967 0.0312869 2.11357e-11)
(1.02302 0.0281057 2.64534e-11)
(1.00098 0.0209836 -1.48608e-11)
(0.986244 0.0104656 -2.56919e-10)
(0.981479 -0.00283755 -9.26059e-10)
(0.988993 -0.017352 -2.15529e-09)
(1.00935 -0.0300783 -3.77508e-09)
(1.03979 -0.0372756 -5.28674e-09)
(1.07395 -0.0361133 -6.0932e-09)
(1.10353 -0.0262689 -5.83585e-09)
(1.1212 -0.0103605 -4.62614e-09)
(1.12311 0.00711268 -2.98144e-09)
(1.10993 0.0216381 -1.47667e-09)
(1.08607 0.0303398 -4.51588e-10)
(1.05751 0.0325387 5.35303e-11)
(1.02977 0.0291391 1.55574e-10)
(1.00697 0.0214813 -6.82897e-11)
(0.99208 0.0105882 -6.59743e-10)
(0.987639 -0.00262969 -1.68753e-09)
(0.995524 -0.0165319 -3.08851e-09)
(1.01561 -0.0283366 -4.61533e-09)
(1.04458 -0.0348257 -5.94228e-09)
(1.07615 -0.0337874 -6.78919e-09)
(1.10302 -0.0251618 -6.96134e-09)
(1.1192 -0.0111468 -6.37323e-09)
(1.12166 0.00466272 -5.11877e-09)
(1.11082 0.0185158 -3.49593e-09)
(1.08993 0.027628 -1.90717e-09)
(1.06387 0.0307731 -7.01116e-10)
(1.03773 0.0281748 -7.01338e-11)
(1.01593 0.0208651 -5.12136e-11)
(1.002 0.010071 -5.76082e-10)
(0.998652 -0.00281357 -1.50211e-09)
(1.00726 -0.0157888 -2.6242e-09)
(1.02688 -0.0261596 -3.71651e-09)
(1.05368 -0.0312694 -4.60338e-09)
(1.08169 -0.0296427 -5.19292e-09)
(1.1046 -0.0216944 -5.44377e-09)
(1.11767 -0.00954508 -5.31716e-09)
(1.11888 0.00383032 -4.78091e-09)
(1.10896 0.0155542 -3.86601e-09)
(1.09073 0.02352 -2.71307e-09)
(1.06814 0.0266455 -1.56357e-09)
(1.0454 0.0247834 -6.87902e-10)
(1.02647 0.0184607 -2.81518e-10)
(1.01477 0.00868357 -3.89747e-10)
(1.01283 -0.00301829 -9.04977e-10)
(1.02162 -0.0144748 -1.6303e-09)
(1.03972 -0.0231385 -2.36813e-09)
(1.0633 -0.0268522 -2.98518e-09)
(1.087 -0.0247102 -3.4252e-09)
(1.10557 -0.0174366 -3.67805e-09)
(1.11537 -0.00705147 -3.73851e-09)
(1.11513 0.00391831 -3.58664e-09)
(1.10583 0.0132252 -3.20156e-09)
(1.09008 0.0193629 -2.59694e-09)
(1.07119 0.0216211 -1.85666e-09)
(1.05261 0.0199016 -1.13577e-09)
(1.03758 0.0145468 -6.06582e-10)
(1.02891 0.00634503 -3.78971e-10)
(1.02858 -0.00333322 -4.54503e-10)
(1.03704 -0.0125333 -7.44691e-10)
(1.05273 -0.0191088 -1.12984e-09)
(1.07213 -0.0214282 -1.51198e-09)
(1.09081 -0.0190055 -1.83481e-09)
(1.10465 -0.0126717 -2.07462e-09)
(1.11105 -0.00420505 -2.22032e-09)
(1.10936 0.00433591 -2.25819e-09)
(1.10072 0.0112318 -2.16915e-09)
(1.08745 0.0154302 -1.93968e-09)
(1.07232 0.0165329 -1.5834e-09)
(1.05809 0.0145996 -1.15631e-09)
(1.04726 0.0100016 -7.46242e-10)
(1.04188 0.00344859 -4.37314e-10)
(1.04318 -0.00390249 -2.74457e-10)
(1.05111 -0.0105021 -2.53113e-10)
(1.06402 -0.0147727 -3.35529e-10)
(1.07894 -0.0156509 -4.75738e-10)
(1.09241 -0.013001 -6.36201e-10)
(1.10145 -0.00765466 -7.91564e-10)
(1.10442 -0.00107033 -9.24325e-10)
(1.10118 0.00518439 -1.01893e-09)
(1.09294 0.00987998 -1.05882e-09)
(1.08171 0.0123345 -1.02886e-09)
(1.06974 0.0123713 -9.23236e-10)
(1.05918 0.0101584 -7.53495e-10)
(1.05188 0.00609911 -5.4907e-10)
(1.04924 0.000851596 -3.47452e-10)
(1.05189 -0.00461903 -1.80121e-10)
(1.0594 -0.00913175 -6.34978e-11)
(1.07015 -0.0115929 1.12716e-12)
(1.08167 -0.0113828 2.17082e-11)
(1.09129 -0.00860922 9.17867e-12)
(1.09693 -0.00406556 -2.59431e-11)
(1.09758 0.00105273 -7.40403e-11)
(1.09353 0.00556694 -1.256e-10)
(1.08585 0.00859142 -1.70735e-10)
(1.07661 0.00973333 -2.00027e-10)
(1.06701 0.00891129 -2.06628e-10)
(1.06015 0.00641546 -1.88407e-10)
(1.05462 0.00260101 -1.48928e-10)
(1.05701 -0.00199487 -9.41706e-11)
(1.05664 -0.00596247 -3.99958e-11)
(1.07337 -0.0108554 4.6038e-11)
(1.00009 -0.00151935 -4.78645e-20)
(1.00163 -0.00476263 -6.43257e-19)
(1.00527 -0.00841591 -1.12012e-18)
(1.01108 -0.0124982 -2.01297e-18)
(1.01943 -0.0169062 -2.15847e-18)
(1.03057 -0.0213209 -3.64892e-18)
(1.04452 -0.0252548 -7.77994e-18)
(1.06091 -0.0278836 4.9379e-18)
(1.07878 -0.0283788 3.05016e-18)
(1.09655 -0.025821 -3.77313e-17)
(1.11174 -0.0198298 -5.37965e-17)
(1.12206 -0.0112259 -1.40236e-17)
(1.12621 -0.00113759 2.6732e-17)
(1.12345 0.00924077 6.09209e-17)
(1.11382 0.0180635 7.59888e-17)
(1.09902 0.0233574 5.14045e-17)
(1.08205 0.023909 -2.89608e-17)
(1.06643 0.0195134 -1.35228e-16)
(1.05545 0.0110015 -8.0739e-17)
(1.05156 0.000125348 1.42377e-16)
(1.05587 -0.0105644 -2.26478e-15)
(1.06747 -0.0179022 -9.71548e-15)
(1.08283 -0.0190009 -1.39897e-14)
(1.0964 -0.0128476 -9.10258e-15)
(1.1029 -0.00123884 -2.97933e-15)
(1.09963 0.0121661 -3.57135e-17)
(1.08711 0.0237882 7.21696e-16)
(1.06797 0.0313937 -5.27052e-15)
(1.04556 0.0340927 5.34159e-16)
(1.02311 0.0317594 8.69606e-14)
(1.00364 0.0245321 -6.66254e-14)
(0.990118 0.0126958 -1.57205e-12)
(0.985572 -0.00299798 -7.84334e-13)
(0.992763 -0.0205755 2.43603e-11)
(1.01273 -0.0361467 9.68959e-11)
(1.0427 -0.0445945 1.80847e-10)
(1.07545 -0.0420525 1.97294e-10)
(1.10176 -0.0285373 1.32976e-10)
(1.11452 -0.00833272 5.4303e-11)
(1.11156 0.0123862 1.02715e-11)
(1.09544 0.0286006 -2.92986e-12)
(1.07119 0.0380257 -3.64665e-12)
(1.04384 0.0406061 -2.07802e-12)
(1.01738 0.0371479 6.06741e-12)
(0.994935 0.0282784 2.47678e-11)
(0.979492 0.0142633 -1.14429e-11)
(0.974237 -0.00428298 -3.36493e-10)
(0.982132 -0.025126 -1.28558e-09)
(1.00442 -0.0436392 -2.87448e-09)
(1.03862 -0.053813 -4.43544e-09)
(1.07744 -0.0510843 -4.99899e-09)
(1.11048 -0.0352823 -4.19585e-09)
(1.12842 -0.0112624 -2.60999e-09)
(1.12728 0.0135614 -1.14395e-09)
(1.10949 0.0328112 -2.69e-10)
(1.08149 0.0434318 6.13541e-11)
(1.05022 0.0455475 1.17813e-10)
(1.02082 0.0407853 9.13799e-11)
(0.996518 0.0306131 -8.17695e-11)
(0.979721 0.0157267 -7.36137e-10)
(0.973244 -0.0032542 -2.25762e-09)
(0.980144 -0.0243088 -4.68204e-09)
(1.00173 -0.0431342 -7.49943e-09)
(1.03516 -0.0541045 -9.92724e-09)
(1.0731 -0.0528573 -1.12718e-08)
(1.10609 -0.0387801 -1.10689e-08)
(1.12601 -0.0156529 -9.25314e-09)
(1.12864 0.00991174 -6.38042e-09)
(1.11465 0.0312119 -3.42621e-09)
(1.0888 0.0439563 -1.20673e-09)
(1.05771 0.0471732 -9.0857e-12)
(1.02744 0.0422937 2.91145e-10)
(1.0024 0.0313401 -1.27571e-10)
(0.985825 0.0157123 -1.20753e-09)
(0.98078 -0.00344897 -2.87392e-09)
(0.989699 -0.0238223 -4.84334e-09)
(1.01248 -0.0412005 -6.68983e-09)
(1.04501 -0.0506784 -8.09881e-09)
(1.07983 -0.0489926 -8.96569e-09)
(1.10865 -0.0362298 -9.23786e-09)
(1.12514 -0.0158024 -8.76486e-09)
(1.12656 0.00699484 -7.41944e-09)
(1.11389 0.0268129 -5.36998e-09)
(1.0909 0.0397747 -3.11989e-09)
(1.0628 0.044229 -1.26513e-09)
(1.03483 0.0405276 -2.24897e-10)
(1.01155 0.0300745 -1.34586e-10)
(0.996845 0.0144878 -8.75589e-10)
(0.993915 -0.00430908 -2.14441e-09)
(1.00443 -0.0233321 -3.54952e-09)
(1.02712 -0.0384523 -4.7567e-09)
(1.05729 -0.0456541 -5.60973e-09)
(1.08796 -0.0428354 -6.12472e-09)
(1.11209 -0.0308105 -6.36594e-09)
(1.12475 -0.0129007 -6.31513e-09)
(1.1242 0.00644965 -5.8575e-09)
(1.11179 0.0231125 -4.9113e-09)
(1.09102 0.0342081 -3.57065e-09)
(1.06626 0.0383636 -2.13445e-09)
(1.04195 0.0354659 -9.93363e-10)
(1.02214 0.0262349 -4.46044e-10)
(1.01046 0.012006 -5.63234e-10)
(1.00972 -0.00506769 -1.18008e-09)
(1.02087 -0.021762 -2.00937e-09)
(1.04206 -0.0342298 -2.79365e-09)
(1.06863 -0.0392653 -3.39846e-09)
(1.09443 -0.0356289 -3.80786e-09)
(1.11372 -0.0245524 -4.05591e-09)
(1.12276 -0.00915281 -4.15274e-09)
(1.12056 0.00680047 -4.05397e-09)
(1.10865 0.0200601 -3.69361e-09)
(1.09023 0.0285521 -3.05264e-09)
(1.06909 0.0313929 -2.21839e-09)
(1.04899 0.0285409 -1.38338e-09)
(1.03334 0.0205075 -7.65224e-10)
(1.02513 0.00840064 -4.97417e-10)
(1.02642 -0.00579347 -5.72914e-10)
(1.03748 -0.0191666 -8.76432e-10)
(1.05618 -0.0285155 -1.26652e-09)
(1.07828 -0.0314616 -1.64121e-09)
(1.09866 -0.0273987 -1.95489e-09)
(1.11288 -0.0176931 -2.19756e-09)
(1.11832 -0.00506939 -2.36341e-09)
(1.11463 0.00741312 -2.43083e-09)
(1.10345 0.017271 -2.36466e-09)
(1.0876 0.0230518 -2.13719e-09)
(1.07029 0.0242719 -1.75857e-09)
(1.05461 0.021087 -1.29378e-09)
(1.04328 0.0140621 -8.45478e-10)
(1.03851 0.00424104 -5.08582e-10)
(1.04154 -0.00665199 -3.29573e-10)
(1.05202 -0.016287 -2.98641e-10)
(1.06775 -0.0223105 -3.72196e-10)
(1.08508 -0.0231932 -5.02339e-10)
(1.09999 -0.018839 -6.54009e-10)
(1.10925 -0.0105965 -8.06192e-10)
(1.11123 -0.000702607 -9.44018e-10)
(1.10612 0.00850859 -1.05052e-09)
(1.09554 0.0152599 -1.10403e-09)
(1.08195 0.0186133 -1.08331e-09)
(1.06798 0.0183742 -9.78733e-10)
(1.05608 0.0148298 -8.02048e-10)
(1.04835 0.00858923 -5.85975e-10)
(1.04629 0.000638037 -3.71732e-10)
(1.05054 -0.00756112 -1.92874e-10)
(1.06035 -0.0142119 -6.59944e-11)
(1.07361 -0.0176718 8.25418e-12)
(1.08724 -0.0170554 3.80883e-11)
(1.09811 -0.0126035 3.37475e-11)
(1.10392 -0.00558471 4.24923e-12)
(1.1037 0.00216715 -4.23403e-11)
(1.098 0.00888804 -9.71033e-11)
(1.08826 0.0132905 -1.4922e-10)
(1.07691 0.014835 -1.87074e-10)
(1.06551 0.0134355 -2.01271e-10)
(1.05744 0.00955899 -1.87767e-10)
(1.05146 0.00367343 -1.49372e-10)
(1.05453 -0.00321693 -9.21526e-11)
(1.0551 -0.00950062 -3.38857e-11)
(1.07517 -0.0162823 6.19328e-11)
(1.00009 -0.00192859 -3.17851e-18)
(1.00156 -0.00605719 -1.04776e-17)
(1.00508 -0.0107416 -8.90365e-18)
(1.01076 -0.0160252 -1.15383e-17)
(1.01907 -0.0217965 -7.68644e-18)
(1.03034 -0.0276623 -2.89321e-17)
(1.04476 -0.033003 1.33489e-17)
(1.06207 -0.0367058 3.20336e-17)
(1.08136 -0.0376412 -1.76668e-16)
(1.10092 -0.03443 -1.46526e-16)
(1.1178 -0.0264809 2.77153e-16)
(1.12924 -0.014996 6.54835e-16)
(1.13389 -0.00146016 6.67981e-16)
(1.13078 0.0126075 5.12826e-16)
(1.11973 0.0246681 2.31794e-16)
(1.1026 0.0319269 -2.07527e-16)
(1.08292 0.0326909 -7.80257e-16)
(1.06477 0.0266852 -1.01336e-15)
(1.05202 0.0150209 3.79168e-17)
(1.04758 1.32435e-05 -3.06129e-15)
(1.05299 -0.0149136 -6.34216e-15)
(1.06742 -0.0253202 4.32618e-14)
(1.0867 -0.0270031 7.74462e-14)
(1.10389 -0.0184282 3.07939e-14)
(1.11231 -0.00220717 -6.31896e-15)
(1.10878 0.0163514 -6.89091e-15)
(1.09432 0.0321996 -8.40498e-15)
(1.07241 0.0423887 -3.29021e-14)
(1.04704 0.0459288 9.88812e-14)
(1.02176 0.0428239 3.93909e-13)
(0.999687 0.0332964 -1.41981e-12)
(0.983927 0.0175904 -6.43119e-12)
(0.97801 -0.00356984 8.61405e-12)
(0.985681 -0.0277633 9.82087e-11)
(1.0089 -0.0495927 2.70478e-10)
(1.04471 -0.0615791 4.50373e-10)
(1.08411 -0.0580049 5.28156e-10)
(1.1153 -0.0389506 4.28945e-10)
(1.12947 -0.0107365 2.26972e-10)
(1.12457 0.0177519 6.97592e-11)
(1.10453 0.039549 -1.5371e-12)
(1.07591 0.0517985 -1.70263e-11)
(1.04466 0.0548306 -8.10442e-12)
(1.01496 0.0500313 3.08534e-11)
(0.989739 0.0383233 7.27022e-11)
(0.971591 0.019948 -1.70899e-10)
(0.963567 -0.0045434 -1.39126e-09)
(0.969291 -0.0325536 -4.2107e-09)
(0.991499 -0.0581678 -8.25273e-09)
(1.02878 -0.0731141 -1.19682e-08)
(1.07345 -0.0705093 -1.35373e-08)
(1.1133 -0.0493647 -1.20482e-08)
(1.13668 -0.0161446 -8.27037e-09)
(1.13764 0.0184536 -4.16547e-09)
(1.11827 0.0450262 -1.29224e-09)
(1.08641 0.0592268 3.3051e-11)
(1.05082 0.0616108 3.57856e-10)
(1.0177 0.0549503 2.49297e-10)
(0.990246 0.0415335 -2.64151e-10)
(0.970656 0.0221089 -1.63852e-09)
(0.962271 -0.00303594 -4.20197e-09)
(0.969365 -0.0315859 -7.55783e-09)
(0.993842 -0.0575921 -1.07801e-08)
(1.03197 -0.0729783 -1.31842e-08)
(1.07465 -0.0715917 -1.45776e-08)
(1.11102 -0.0527143 -1.47694e-08)
(1.13244 -0.0216069 -1.33194e-08)
(1.1349 0.0128199 -1.0146e-08)
(1.11942 0.0415649 -6.11524e-09)
(1.09114 0.0588001 -2.55086e-09)
(1.05714 0.0632056 -3.35683e-10)
(1.0239 0.056788 3.64147e-10)
(0.996215 0.0422872 -2.45942e-10)
(0.977895 0.0214011 -1.87891e-09)
(0.97281 -0.00455621 -4.11073e-09)
(0.983921 -0.0323766 -6.33436e-09)
(1.01068 -0.0559997 -8.02443e-09)
(1.04769 -0.0685148 -9.04138e-09)
(1.08613 -0.0656155 -9.59402e-09)
(1.11681 -0.0478103 -9.88653e-09)
(1.13314 -0.0200845 -9.78417e-09)
(1.13274 0.0103091 -8.87338e-09)
(1.1173 0.0363537 -6.9524e-09)
(1.09136 0.0531662 -4.39859e-09)
(1.06058 0.0588003 -2.01016e-09)
(1.03039 0.0537912 -5.38284e-10)
(1.00555 0.0398522 -3.26332e-10)
(0.99036 0.0188925 -1.22311e-09)
(0.988566 -0.00659766 -2.7187e-09)
(1.00192 -0.0323895 -4.21783e-09)
(1.02847 -0.0525971 -5.32379e-09)
(1.06239 -0.0616968 -5.95957e-09)
(1.09571 -0.0570469 -6.27761e-09)
(1.12086 -0.0400852 -6.46075e-09)
(1.1328 -0.0155869 -6.53754e-09)
(1.13006 0.0103212 -6.32625e-09)
(1.1146 0.0321507 -5.5877e-09)
(1.09062 0.0462813 -4.28267e-09)
(1.06313 0.0511716 -2.70603e-09)
(1.03688 0.0468387 -1.36482e-09)
(1.01615 0.0342001 -6.86502e-10)
(1.00487 0.0148967 -7.81391e-10)
(1.00602 -0.00821606 -1.42697e-09)
(1.02035 -0.0306429 -2.25583e-09)
(1.04522 -0.0470234 -2.97851e-09)
(1.075 -0.0530479 -3.48509e-09)
(1.10279 -0.0472601 -3.8093e-09)
(1.12251 -0.0315951 -4.03099e-09)
(1.13044 -0.0104598 -4.18237e-09)
(1.12589 0.0109811 -4.20077e-09)
(1.11093 0.0283932 -3.96257e-09)
(1.08937 0.0391395 -3.38678e-09)
(1.06556 0.0422358 -2.53818e-09)
(1.04368 0.0377734 -1.6379e-09)
(1.02745 0.0264725 -9.52825e-10)
(1.02009 0.00980515 -6.4471e-10)
(1.02367 -0.00950673 -7.00163e-10)
(1.03807 -0.0274132 -9.82368e-10)
(1.06032 -0.0395102 -1.33753e-09)
(1.0853 -0.0426717 -1.66796e-09)
(1.10725 -0.0363036 -1.94298e-09)
(1.12152 -0.0224922 -2.16959e-09)
(1.12559 -0.00507364 -2.35261e-09)
(1.11948 0.0117752 -2.46651e-09)
(1.10532 0.02475 -2.45605e-09)
(1.08648 0.0320054 -2.2686e-09)
(1.06667 0.0330211 -1.90038e-09)
(1.04938 0.0281008 -1.42072e-09)
(1.03766 0.0180502 -9.47911e-10)
(1.03392 0.00432162 -5.89991e-10)
(1.03932 -0.010657 -3.96512e-10)
(1.05305 -0.02361 -3.53399e-10)
(1.07212 -0.0313056 -4.12203e-10)
(1.09205 -0.0317714 -5.23809e-10)
(1.1083 -0.0250811 -6.56244e-10)
(1.11745 -0.0132695 -7.94491e-10)
(1.11804 0.0005015 -9.29504e-10)
(1.11059 0.0130346 -1.04587e-09)
(1.09721 0.0219656 -1.11716e-09)
(1.08086 0.0261119 -1.11355e-09)
(1.0646 0.0252988 -1.01818e-09)
(1.05126 0.0199723 -8.40792e-10)
(1.04323 0.0109935 -6.17089e-10)
(1.04219 -0.000243643 -3.92848e-10)
(1.04864 -0.0116482 -2.04672e-10)
(1.0614 -0.0206689 -6.99018e-11)
(1.07763 -0.0250378 1.15143e-11)
(1.09356 -0.023633 4.87493e-11)
(1.1056 -0.0169433 5.22912e-11)
(1.11128 -0.00685774 3.00999e-11)
(1.10979 0.00402534 -1.18803e-11)
(1.10198 0.0132744 -6.66113e-11)
(1.08974 0.0191684 -1.23499e-10)
(1.0759 0.0210302 -1.69098e-10)
(1.06244 0.0187905 -1.91014e-10)
(1.05306 0.0131409 -1.82521e-10)
(1.04677 0.00465022 -1.45132e-10)
(1.05091 -0.00497597 -8.50401e-11)
(1.05296 -0.0142206 -2.20518e-11)
(1.07706 -0.0227164 8.27526e-11)
(1.00008 -0.00231658 3.52143e-18)
(1.00146 -0.00729396 1.14481e-17)
(1.0048 -0.0129933 6.67537e-18)
(1.0103 -0.0194976 2.04533e-17)
(1.01851 -0.0267045 2.15653e-18)
(1.0299 -0.0341656 -2.26977e-17)
(1.04486 -0.0411393 2.96168e-16)
(1.0633 -0.046189 -5.07662e-16)
(1.08442 -0.0478366 -8.46681e-16)
(1.10641 -0.044052 2.00359e-15)
(1.12554 -0.0339485 3.39837e-15)
(1.13851 -0.0192731 1.23819e-15)
(1.14389 -0.00194056 -8.36861e-16)
(1.14041 0.0163098 -2.59457e-15)
(1.12748 0.0321375 -4.19958e-15)
(1.10722 0.0417294 -5.76102e-15)
(1.08387 0.0427928 -6.64271e-15)
(1.06232 0.0349434 -3.09633e-15)
(1.04712 0.0195817 -3.17306e-15)
(1.04186 -0.000368624 -3.11102e-14)
(1.04864 -0.0204937 2.12582e-13)
(1.06691 -0.0347785 1.0794e-12)
(1.09163 -0.0372563 1.67084e-12)
(1.11384 -0.0256464 1.1166e-12)
(1.12488 -0.00365651 2.96945e-13)
(1.1209 0.0211898 -2.62173e-14)
(1.10371 0.0419833 -1.05018e-13)
(1.07806 0.0550296 -4.28176e-14)
(1.04883 0.0594123 5.43506e-13)
(1.01992 0.055435 -2.80794e-13)
(0.994474 0.0434517 -5.51415e-12)
(0.975728 0.0235397 4.58585e-12)
(0.967801 -0.0038595 4.80787e-11)
(0.97542 -0.0360021 -6.18974e-11)
(1.0015 -0.0656579 -6.53872e-10)
(1.0437 -0.0822204 -1.42108e-09)
(1.09208 -0.0773645 -1.49914e-09)
(1.13128 -0.0512024 -8.19354e-10)
(1.14875 -0.0129336 -1.56456e-10)
(1.14173 0.0248891 8.90623e-11)
(1.11632 0.0529389 6.29479e-11)
(1.08173 0.067955 -4.02118e-12)
(1.04541 0.0710697 -4.22983e-12)
(1.01172 0.0646021 8.93645e-11)
(0.982946 0.0499654 8.57302e-11)
(0.960838 0.0273585 -7.83268e-10)
(0.948422 -0.00311384 -3.66132e-09)
(0.951121 -0.039076 -8.80686e-09)
(0.974024 -0.0733896 -1.4814e-08)
(1.01601 -0.0948105 -1.97331e-08)
(1.06745 -0.0933622 -2.2158e-08)
(1.1141 -0.0668858 -2.10631e-08)
(1.14295 -0.0233918 -1.62807e-08)
(1.14678 0.0227983 -9.59761e-09)
(1.12683 0.0584262 -3.80805e-09)
(1.09151 0.0771402 -4.78359e-10)
(1.05127 0.0798899 6.57353e-10)
(1.01365 0.0710673 5.12717e-10)
(0.982252 0.0541334 -5.84709e-10)
(0.959513 0.0297198 -2.89568e-09)
(0.949883 -0.00259579 -6.30956e-09)
(0.95885 -0.0400851 -9.85159e-09)
(0.988025 -0.0744416 -1.24574e-08)
(1.03187 -0.0945312 -1.39221e-08)
(1.07938 -0.0924031 -1.47802e-08)
(1.11857 -0.0676709 -1.53455e-08)
(1.14054 -0.0275679 -1.50072e-08)
(1.14169 0.0164498 -1.27908e-08)
(1.12376 0.053096 -8.75854e-09)
(1.09249 0.0750847 -4.30318e-09)
(1.0553 0.0807804 -1.02854e-09)
(1.01893 0.0727469 2.41075e-10)
(0.98857 0.0543403 -4.64457e-10)