/*--------------------------------*- C++ -*----------------------------------*\
  =========                 |
  \\      /  F ield         | OpenFOAM: The Open Source CFD Toolbox
   \\    /   O peration     | Website:  https://openfoam.org
    \\  /    A nd           | Version:  11
     \\/     M anipulation  |
\*---------------------------------------------------------------------------*/
FoamFile
{
    format      ascii;
    class       volScalarField;
    location    "2.021538";
    object      p;
}
// * * * * * * * * * * * * * * * * * * * * * * * * * * * * * * * * * * * * * //

dimensions      [0 2 -2 0 0 0 0];

internalField   nonuniform List<scalar> 
7132
(
0.0520138
0.0505927
0.045799
0.0387884
0.0289805
0.0160763
-4.27271e-06
-0.019258
-0.0411453
-0.0646766
-0.0883472
-0.110139
-0.128696
-0.142754
-0.151315
-0.153956
-0.150786
-0.142543
-0.130473
-0.116053
-0.100695
-0.0855481
-0.0714144
-0.0587613
-0.0477872
-0.0384996
-0.0307874
-0.0244776
-0.0193741
-0.0152827
-0.0120249
-0.00944383
-0.00740647
-0.00580179
-0.00453873
-0.00354372
-0.00275861
-0.00213862
-0.00164982
-0.00126616
-0.000966777
-0.000734456
-0.000555113
-0.000417505
-0.000312751
-0.000233695
-0.000174467
-0.000130268
-9.72931e-05
-7.26375e-05
-5.41527e-05
-4.02755e-05
-2.98652e-05
-2.20756e-05
-1.62676e-05
-1.1953e-05
-8.7583e-06
-6.39864e-06
-4.65872e-06
-3.377e-06
-2.43335e-06
-1.73884e-06
-1.22796e-06
-8.52363e-07
-5.76511e-07
-3.74093e-07
-2.25785e-07
-1.17258e-07
-3.8042e-08
1.96486e-08
6.14575e-08
9.16131e-08
1.13147e-07
1.28367e-07
1.38895e-07
1.46e-07
1.50543e-07
1.53231e-07
1.54513e-07
1.54791e-07
1.54295e-07
1.5326e-07
1.51795e-07
1.50047e-07
1.4806e-07
1.4593e-07
1.43668e-07
1.41342e-07
1.38944e-07
1.36525e-07
1.3407e-07
1.3162e-07
1.29152e-07
1.26705e-07
1.24253e-07
1.21829e-07
1.19407e-07
1.17018e-07
1.14636e-07
1.12289e-07
1.09951e-07
1.0765e-07
1.05359e-07
1.03105e-07
1.00862e-07
9.86549e-08
9.64604e-08
9.42994e-08
9.21516e-08
9.00358e-08
8.79331e-08
8.58608e-08
8.38013e-08
8.17706e-08
7.97523e-08
7.7761e-08
7.57817e-08
7.38276e-08
7.18851e-08
6.9966e-08
6.80579e-08
6.61716e-08
6.42958e-08
6.244e-08
6.05942e-08
5.87668e-08
5.6949e-08
5.51479e-08
5.33559e-08
5.15792e-08
4.98111e-08
4.80567e-08
4.63106e-08
4.45768e-08
4.28508e-08
4.11358e-08
3.94281e-08
3.77303e-08
3.60393e-08
3.4357e-08
3.2681e-08
3.10126e-08
2.93501e-08
2.76942e-08
2.60435e-08
2.43987e-08
2.27581e-08
2.11232e-08
1.94905e-08
1.78648e-08
1.62377e-08
1.46222e-08
1.29928e-08
1.14065e-08
9.72884e-09
8.24496e-09
6.39673e-09
5.33165e-09
2.65889e-09
2.54841e-09
0.0525804
0.0511707
0.0464175
0.0394487
0.0296731
0.0167636
0.000614184
-0.0188113
-0.0409741
-0.0648823
-0.0889585
-0.111069
-0.129883
-0.144123
-0.152762
-0.15537
-0.152045
-0.143547
-0.131166
-0.116434
-0.100806
-0.0854531
-0.0711822
-0.0584529
-0.04745
-0.0381665
-0.0304787
-0.0242039
-0.0191391
-0.0150856
-0.0118624
-0.00931182
-0.00730023
-0.00571691
-0.00447125
-0.00349021
-0.00271621
-0.002105
-0.00162314
-0.00124499
-0.000950011
-0.000721217
-0.000544691
-0.000409325
-0.000306351
-0.000228717
-0.000170628
-0.000127339
-9.50829e-05
-7.09825e-05
-5.29187e-05
-3.93571e-05
-2.91827e-05
-2.15693e-05
-1.58928e-05
-1.16759e-05
-8.55338e-06
-6.24693e-06
-4.54628e-06
-3.29363e-06
-2.3716e-06
-1.6932e-06
-1.19431e-06
-8.27607e-07
-5.5832e-07
-3.60727e-07
-2.15965e-07
-1.10039e-07
-3.27363e-08
2.35494e-08
6.43224e-08
9.37186e-08
1.14692e-07
1.29503e-07
1.39728e-07
1.46612e-07
1.50991e-07
1.5356e-07
1.54753e-07
1.54968e-07
1.54423e-07
1.53354e-07
1.51862e-07
1.50096e-07
1.48094e-07
1.45955e-07
1.43684e-07
1.41354e-07
1.3895e-07
1.3653e-07
1.34071e-07
1.3162e-07
1.29151e-07
1.26704e-07
1.2425e-07
1.21826e-07
1.19404e-07
1.17015e-07
1.14632e-07
1.12285e-07
1.09948e-07
1.07646e-07
1.05356e-07
1.03101e-07
1.00859e-07
9.86517e-08
9.64569e-08
9.42963e-08
9.21482e-08
9.00328e-08
8.79298e-08
8.58579e-08
8.37982e-08
8.17679e-08
7.97494e-08
7.77584e-08
7.5779e-08
7.38252e-08
7.18825e-08
6.99637e-08
6.80555e-08
6.61694e-08
6.42935e-08
6.24379e-08
6.05922e-08
5.87649e-08
5.69471e-08
5.51461e-08
5.33541e-08
5.15775e-08
4.98094e-08
4.80551e-08
4.6309e-08
4.45753e-08
4.28493e-08
4.11344e-08
3.94268e-08
3.7729e-08
3.60381e-08
3.43558e-08
3.26799e-08
3.10116e-08
2.93492e-08
2.76932e-08
2.60427e-08
2.43978e-08
2.27573e-08
2.11224e-08
1.94898e-08
1.7864e-08
1.6237e-08
1.46215e-08
1.29922e-08
1.1406e-08
9.72806e-09
8.24494e-09
6.39438e-09
5.33434e-09
2.64413e-09
2.57747e-09
0.0537085
0.0523233
0.0476529
0.0407727
0.0310674
0.0181538
0.00187272
-0.0178959
-0.0406156
-0.0652957
-0.0902011
-0.112952
-0.132285
-0.146894
-0.155693
-0.158234
-0.154594
-0.145575
-0.132562
-0.117195
-0.10102
-0.0852523
-0.0707067
-0.0578264
-0.0467682
-0.0374954
-0.0298587
-0.0236554
-0.0186688
-0.0146918
-0.0115384
-0.00904867
-0.00708871
-0.00554816
-0.00433732
-0.00338421
-0.00263236
-0.00203856
-0.00157038
-0.00120303
-0.000916669
-0.000694812
-0.000523887
-0.000393031
-0.000293677
-0.00021894
-0.000163159
-0.000121691
-9.08454e-05
-6.78158e-05
-5.05517e-05
-3.75841e-05
-2.7853e-05
-2.05731e-05
-1.51486e-05
-1.11219e-05
-8.14236e-06
-5.9427e-06
-4.32141e-06
-3.12753e-06
-2.24898e-06
-1.60273e-06
-1.12762e-06
-7.78493e-07
-5.22182e-07
-3.34154e-07
-1.96434e-07
-9.56853e-08
-2.21892e-08
3.12995e-08
7.00162e-08
9.79018e-08
1.17765e-07
1.3176e-07
1.41385e-07
1.4783e-07
1.51885e-07
1.54217e-07
1.55235e-07
1.55322e-07
1.54683e-07
1.53545e-07
1.52002e-07
1.50199e-07
1.4817e-07
1.46011e-07
1.43725e-07
1.41384e-07
1.38972e-07
1.36546e-07
1.34083e-07
1.31629e-07
1.29158e-07
1.26709e-07
1.24254e-07
1.21829e-07
1.19406e-07
1.17017e-07
1.14633e-07
1.12286e-07
1.09948e-07
1.07647e-07
1.05356e-07
1.03102e-07
1.00859e-07
9.86522e-08
9.64572e-08
9.42967e-08
9.21485e-08
9.00332e-08
8.79301e-08
8.58583e-08
8.37985e-08
8.17682e-08
7.97497e-08
7.77588e-08
7.57793e-08
7.38255e-08
7.18828e-08
6.9964e-08
6.80558e-08
6.61697e-08
6.42939e-08
6.24383e-08
6.05925e-08
5.87652e-08
5.69474e-08
5.51464e-08
5.33544e-08
5.15778e-08
4.98097e-08
4.80555e-08
4.63093e-08
4.45756e-08
4.28497e-08
4.11347e-08
3.94271e-08
3.77293e-08
3.60384e-08
3.43561e-08
3.26802e-08
3.10118e-08
2.93495e-08
2.76935e-08
2.6043e-08
2.43981e-08
2.27576e-08
2.11226e-08
1.94901e-08
1.78643e-08
1.62373e-08
1.46217e-08
1.29923e-08
1.14064e-08
9.72756e-09
8.2462e-09
6.3907e-09
5.34061e-09
2.61967e-09
2.62134e-09
0.0553887
0.0540425
0.0495034
0.0427668
0.0331815
0.0202786
0.00381412
-0.0164685
-0.04004
-0.0659265
-0.0921231
-0.115842
-0.135965
-0.15114
-0.160188
-0.162629
-0.158503
-0.148672
-0.134672
-0.118325
-0.101311
-0.0849138
-0.0699579
-0.0568575
-0.0457242
-0.0364748
-0.0289206
-0.0228289
-0.0179627
-0.014102
-0.0110542
-0.00865635
-0.00677383
-0.00529722
-0.00413828
-0.00322673
-0.00250776
-0.0019398
-0.00149189
-0.00114056
-0.000866995
-0.000655453
-0.000492869
-0.000368742
-0.000274796
-0.000204391
-0.000152062
-0.000113314
-8.45723e-05
-6.31345e-05
-4.70555e-05
-3.49656e-05
-2.58883e-05
-1.90996e-05
-1.40458e-05
-1.02991e-05
-7.53018e-06
-5.48841e-06
-3.98497e-06
-2.87876e-06
-2.06528e-06
-1.46724e-06
-1.02779e-06
-7.05008e-07
-4.68129e-07
-2.94413e-07
-1.67225e-07
-7.42214e-08
-6.42055e-09
4.28828e-08
7.85226e-08
1.04148e-07
1.2235e-07
1.35126e-07
1.43855e-07
1.49642e-07
1.53213e-07
1.55191e-07
1.55948e-07
1.55845e-07
1.55065e-07
1.53824e-07
1.52206e-07
1.50348e-07
1.48277e-07
1.46089e-07
1.43781e-07
1.41424e-07
1.39001e-07
1.36567e-07
1.34097e-07
1.31639e-07
1.29164e-07
1.26713e-07
1.24256e-07
1.21831e-07
1.19406e-07
1.17017e-07
1.14633e-07
1.12286e-07
1.09947e-07
1.07646e-07
1.05355e-07
1.03101e-07
1.00858e-07
9.86515e-08
9.64564e-08
9.42961e-08
9.21478e-08
9.00327e-08
8.79295e-08
8.58579e-08
8.3798e-08
8.17679e-08
7.97493e-08
7.77586e-08
7.5779e-08
7.38254e-08
7.18826e-08
6.99639e-08
6.80557e-08
6.61697e-08
6.42938e-08
6.24383e-08
6.05924e-08
5.87653e-08
5.69474e-08
5.51465e-08
5.33545e-08
5.15779e-08
4.98097e-08
4.80555e-08
4.63094e-08
4.45757e-08
4.28497e-08
4.11348e-08
3.94272e-08
3.77294e-08
3.60385e-08
3.43561e-08
3.26803e-08
3.10118e-08
2.93495e-08
2.76935e-08
2.6043e-08
2.43981e-08
2.27576e-08
2.11226e-08
1.949e-08
1.78642e-08
1.62371e-08
1.46216e-08
1.2992e-08
1.14064e-08
9.72638e-09
8.24725e-09
6.38563e-09
5.34781e-09
2.59321e-09
2.66901e-09
0.0576057
0.0563154
0.0519644
0.0454397
0.0360423
0.0231863
0.00650631
-0.0144581
-0.039195
-0.0667878
-0.094798
-0.119821
-0.141014
-0.156966
-0.166361
-0.168674
-0.163874
-0.152909
-0.137531
-0.119821
-0.101651
-0.084401
-0.0688992
-0.0555155
-0.0442953
-0.0350899
-0.0276561
-0.0217209
-0.0170202
-0.0133179
-0.0104124
-0.00813748
-0.00635821
-0.00496652
-0.00387632
-0.00301967
-0.00234407
-0.00181012
-0.00138888
-0.00105861
-0.000801861
-0.000603867
-0.000452245
-0.000336969
-0.000250146
-0.000185451
-0.000137669
-0.000102492
-7.64961e-05
-5.71197e-05
-4.25634e-05
-3.15955e-05
-2.33533e-05
-1.71936e-05
-1.26168e-05
-9.23172e-06
-6.73593e-06
-4.89925e-06
-3.54901e-06
-2.55672e-06
-1.82767e-06
-1.29207e-06
-8.98766e-07
-6.1003e-07
-3.98255e-07
-2.43031e-07
-1.29456e-07
-4.64653e-08
1.39728e-08
5.78648e-08
8.9527e-08
1.12231e-07
1.28285e-07
1.39484e-07
1.47054e-07
1.5199e-07
1.54937e-07
1.56456e-07
1.56876e-07
1.56526e-07
1.55564e-07
1.5419e-07
1.52474e-07
1.50545e-07
1.48421e-07
1.46195e-07
1.43859e-07
1.41481e-07
1.39042e-07
1.36597e-07
1.3412e-07
1.31656e-07
1.29176e-07
1.26722e-07
1.24263e-07
1.21836e-07
1.1941e-07
1.1702e-07
1.14635e-07
1.12288e-07
1.09949e-07
1.07648e-07
1.05356e-07
1.03102e-07
1.00859e-07
9.86525e-08
9.64572e-08
9.42971e-08
9.21485e-08
9.00336e-08
8.79302e-08
8.58588e-08
8.37988e-08
8.17687e-08
7.975e-08
7.77593e-08
7.57796e-08
7.38261e-08
7.18832e-08
6.99646e-08
6.80563e-08
6.61704e-08
6.42944e-08
6.24389e-08
6.0593e-08
5.87659e-08
5.69479e-08
5.5147e-08
5.3355e-08
5.15784e-08
4.98102e-08
4.8056e-08
4.63098e-08
4.45761e-08
4.28501e-08
4.11352e-08
3.94276e-08
3.77298e-08
3.60389e-08
3.43565e-08
3.26806e-08
3.10122e-08
2.93498e-08
2.76938e-08
2.60433e-08
2.43984e-08
2.27579e-08
2.11229e-08
1.94903e-08
1.78645e-08
1.62373e-08
1.46219e-08
1.29919e-08
1.14068e-08
9.72536e-09
8.24877e-09
6.38068e-09
5.35551e-09
2.56977e-09
2.71073e-09
0.0603374
0.0591233
0.0550282
0.0488011
0.0396844
0.0269427
0.0100436
-0.0117637
-0.0380063
-0.0679056
-0.0983406
-0.125002
-0.147558
-0.164527
-0.174388
-0.176549
-0.170856
-0.158373
-0.141157
-0.121649
-0.101981
-0.0836454
-0.0674687
-0.0537513
-0.0424467
-0.0333187
-0.0260532
-0.0203265
-0.0158412
-0.0123417
-0.0096167
-0.00749629
-0.00584591
-0.00455965
-0.00355442
-0.0027654
-0.00214311
-0.00165092
-0.00126241
-0.000957981
-0.000721879
-0.000540531
-0.000402379
-0.000297985
-0.00021993
-0.000162275
-0.000120103
-8.93274e-05
-6.67016e-05
-4.98394e-05
-3.7127e-05
-2.75133e-05
-2.02783e-05
-1.48793e-05
-1.08808e-05
-7.93478e-06
-5.77077e-06
-4.18334e-06
-3.01931e-06
-2.16552e-06
-1.53913e-06
-1.07945e-06
-7.42214e-07
-4.94833e-07
-3.13535e-07
-1.8075e-07
-8.36846e-08
-1.28347e-08
3.86778e-08
7.6011e-08
1.02853e-07
1.22016e-07
1.35469e-07
1.44757e-07
1.50924e-07
1.54831e-07
1.57021e-07
1.57984e-07
1.57997e-07
1.57347e-07
1.56165e-07
1.54631e-07
1.52797e-07
1.50781e-07
1.48593e-07
1.46321e-07
1.4395e-07
1.41548e-07
1.3909e-07
1.36633e-07
1.34145e-07
1.31674e-07
1.29189e-07
1.26732e-07
1.24269e-07
1.2184e-07
1.19413e-07
1.17022e-07
1.14636e-07
1.12289e-07
1.09949e-07
1.07648e-07
1.05356e-07
1.03103e-07
1.00859e-07
9.86527e-08
9.64572e-08
9.42972e-08
9.21485e-08
9.00338e-08
8.79303e-08
8.5859e-08
8.37989e-08
8.1769e-08
7.97501e-08
7.77596e-08
7.57798e-08
7.38264e-08
7.18834e-08
6.99649e-08
6.80565e-08
6.61706e-08
6.42946e-08
6.24392e-08
6.05932e-08
5.87661e-08
5.69481e-08
5.51473e-08
5.33552e-08
5.15786e-08
4.98104e-08
4.80562e-08
4.631e-08
4.45763e-08
4.28503e-08
4.11354e-08
3.94278e-08
3.77299e-08
3.6039e-08
3.43566e-08
3.26808e-08
3.10123e-08
2.93499e-08
2.76939e-08
2.60434e-08
2.43984e-08
2.27579e-08
2.11229e-08
1.94903e-08
1.78645e-08
1.62372e-08
1.46219e-08
1.29915e-08
1.1407e-08
9.72407e-09
8.25004e-09
6.37583e-09
5.36241e-09
2.55077e-09
2.74381e-09
0.0635538
0.0624404
0.0586819
0.0528602
0.0441497
0.0316327
0.0145534
-0.008242
-0.0363637
-0.0693191
-0.102915
-0.131537
-0.155762
-0.174006
-0.184475
-0.18648
-0.179663
-0.165219
-0.14562
-0.123805
-0.102247
-0.0825764
-0.0655982
-0.0515102
-0.0401399
-0.0311372
-0.0240994
-0.0186411
-0.0144261
-0.0111767
-0.00867142
-0.00673747
-0.00524144
-0.0040807
-0.00317613
-0.00246697
-0.00190745
-0.00146438
-0.00111435
-0.000840288
-0.00062843
-0.00046661
-0.000344245
-0.000252601
-0.000184828
-0.000135439
-9.98542e-05
-7.42327e-05
-5.55258e-05
-4.1555e-05
-3.09403e-05
-2.28559e-05
-1.67597e-05
-1.22253e-05
-8.88797e-06
-6.44584e-06
-4.66321e-06
-3.3624e-06
-2.41244e-06
-1.71769e-06
-1.20905e-06
-8.36348e-07
-5.6327e-07
-3.63181e-07
-2.16718e-07
-1.09575e-07
-3.13765e-08
2.56004e-08
6.69138e-08
9.6752e-08
1.18086e-07
1.33203e-07
1.43683e-07
1.50789e-07
1.55352e-07
1.58081e-07
1.59406e-07
1.59735e-07
1.59281e-07
1.58289e-07
1.56856e-07
1.55138e-07
1.53168e-07
1.51053e-07
1.48793e-07
1.46467e-07
1.44057e-07
1.41626e-07
1.39148e-07
1.36675e-07
1.34176e-07
1.31697e-07
1.29206e-07
1.26744e-07
1.24279e-07
1.21848e-07
1.19418e-07
1.17027e-07
1.1464e-07
1.12292e-07
1.09952e-07
1.0765e-07
1.05358e-07
1.03104e-07
1.00861e-07
9.86542e-08
9.64585e-08
9.42987e-08
9.21498e-08
9.00351e-08
8.79315e-08
8.58603e-08
8.38e-08
8.17702e-08
7.97512e-08
7.77607e-08
7.57809e-08
7.38275e-08
7.18844e-08
6.9966e-08
6.80575e-08
6.61716e-08
6.42955e-08
6.24401e-08
6.05941e-08
5.8767e-08
5.69489e-08
5.51481e-08
5.3356e-08
5.15794e-08
4.98112e-08
4.80569e-08
4.63107e-08
4.4577e-08
4.28509e-08
4.1136e-08
3.94283e-08
3.77305e-08
3.60395e-08
3.43571e-08
3.26813e-08
3.10128e-08
2.93504e-08
2.76943e-08
2.60438e-08
2.43988e-08
2.27583e-08
2.11232e-08
1.94906e-08
1.78647e-08
1.62374e-08
1.46221e-08
1.29914e-08
1.14073e-08
9.72306e-09
8.25143e-09
6.37178e-09
5.36856e-09
2.53647e-09
2.76855e-09
0.067215
0.0662313
0.0629051
0.0576226
0.0494841
0.0373594
0.0201973
-0.00370131
-0.0341166
-0.071101
-0.10876
-0.139614
-0.165822
-0.185662
-0.196928
-0.198779
-0.190532
-0.173569
-0.150925
-0.12621
-0.102333
-0.0810766
-0.0631883
-0.0487178
-0.0373255
-0.0285167
-0.0217812
-0.0166614
-0.0127776
-0.00982887
-0.00758405
-0.00586854
-0.00455167
-0.00353551
-0.00274623
-0.00212811
-0.00163998
-0.00125268
-0.00094633
-0.000706765
-0.000522427
-0.000382806
-0.000278374
-0.000201213
-0.000145142
-0.000105188
-7.71361e-05
-5.73972e-05
-4.31298e-05
-3.23935e-05
-2.40944e-05
-1.7687e-05
-1.28426e-05
-9.26586e-06
-6.66537e-06
-4.78638e-06
-3.43002e-06
-2.44929e-06
-1.73808e-06
-1.2205e-06
-8.42852e-07
-5.66813e-07
-3.64978e-07
-2.17362e-07
-1.09525e-07
-3.07995e-08
2.65014e-08
6.81172e-08
9.81415e-08
1.19686e-07
1.34927e-07
1.45568e-07
1.52761e-07
1.57453e-07
1.60243e-07
1.61671e-07
1.62039e-07
1.61667e-07
1.60697e-07
1.59328e-07
1.57617e-07
1.55696e-07
1.53576e-07
1.51352e-07
1.49012e-07
1.46627e-07
1.44174e-07
1.41712e-07
1.3921e-07
1.36721e-07
1.34209e-07
1.31722e-07
1.29224e-07
1.26757e-07
1.24288e-07
1.21855e-07
1.19424e-07
1.17031e-07
1.14643e-07
1.12295e-07
1.09954e-07
1.07652e-07
1.0536e-07
1.03106e-07
1.00862e-07
9.86554e-08
9.64595e-08
9.42997e-08
9.21507e-08
9.00361e-08
8.79324e-08
8.58612e-08
8.38009e-08
8.17711e-08
7.97521e-08
7.77616e-08
7.57817e-08
7.38283e-08
7.18852e-08
6.99668e-08
6.80582e-08
6.61724e-08
6.42962e-08
6.24409e-08
6.05948e-08
5.87677e-08
5.69496e-08
5.51488e-08
5.33566e-08
5.158e-08
4.98117e-08
4.80575e-08
4.63112e-08
4.45775e-08
4.28514e-08
4.11364e-08
3.94288e-08
3.77309e-08
3.60399e-08
3.43575e-08
3.26816e-08
3.10131e-08
2.93507e-08
2.76946e-08
2.6044e-08
2.4399e-08
2.27585e-08
2.11234e-08
1.94907e-08
1.78649e-08
1.62374e-08
1.46222e-08
1.29912e-08
1.14076e-08
9.72203e-09
8.25256e-09
6.36829e-09
5.37355e-09
2.52584e-09
2.78651e-09
0.0712702
0.0704499
0.0676672
0.0630877
0.0557361
0.0442475
0.0271847
0.00212612
-0.0310457
-0.0733607
-0.116221
-0.149486
-0.177974
-0.199749
-0.212067
-0.213865
-0.203893
-0.183736
-0.157209
-0.128853
-0.102145
-0.0790245
-0.0601289
-0.0452911
-0.0339485
-0.0254257
-0.0190839
-0.0143837
-0.0108983
-0.00830411
-0.00636156
-0.00489655
-0.00378315
-0.00292992
-0.00226974
-0.00175311
-0.00134432
-0.00101892
-0.000761034
-0.000559737
-0.000405979
-0.000290813
-0.000206139
-0.000144948
-0.000101807
-7.23094e-05
-5.26189e-05
-3.93862e-05
-2.99721e-05
-2.27043e-05
-1.68397e-05
-1.2179e-05
-8.64619e-06
-6.08617e-06
-4.27621e-06
-3.00401e-06
-2.10716e-06
-1.47107e-06
-1.01654e-06
-6.89097e-07
-4.51781e-07
-2.7913e-07
-1.53414e-07
-6.18202e-08
4.79928e-09
5.32112e-08
8.82239e-08
1.13458e-07
1.31445e-07
1.44145e-07
1.52888e-07
1.58758e-07
1.62444e-07
1.64562e-07
1.65461e-07
1.65501e-07
1.6485e-07
1.6373e-07
1.62211e-07
1.60439e-07
1.58432e-07
1.56293e-07
1.54014e-07
1.51673e-07
1.49247e-07
1.468e-07
1.443e-07
1.41805e-07
1.39278e-07
1.36771e-07
1.34246e-07
1.31749e-07
1.29244e-07
1.26773e-07
1.243e-07
1.21864e-07
1.19431e-07
1.17036e-07
1.14647e-07
1.12299e-07
1.09957e-07
1.07655e-07
1.05362e-07
1.03108e-07
1.00864e-07
9.86576e-08
9.64615e-08
9.43018e-08
9.21526e-08
9.0038e-08
8.79342e-08
8.5863e-08
8.38025e-08
8.17728e-08
7.97536e-08
7.77632e-08
7.57831e-08
7.38298e-08
7.18866e-08
6.99681e-08
6.80595e-08
6.61737e-08
6.42974e-08
6.24421e-08
6.05959e-08
5.87688e-08
5.69506e-08
5.51498e-08
5.33575e-08
5.1581e-08
4.98126e-08
4.80583e-08
4.6312e-08
4.45783e-08
4.28521e-08
4.11371e-08
3.94294e-08
3.77315e-08
3.60405e-08
3.4358e-08
3.26821e-08
3.10136e-08
2.93512e-08
2.7695e-08
2.60445e-08
2.43994e-08
2.27589e-08
2.11238e-08
1.9491e-08
1.78652e-08
1.62376e-08
1.46224e-08
1.29911e-08
1.14079e-08
9.72127e-09
8.25366e-09
6.36558e-09
5.37767e-09
2.51821e-09
2.79947e-09
0.0756546
0.075036
0.072923
0.0692412
0.0629478
0.0524341
0.0357662
0.00959192
-0.0268587
-0.076307
-0.125779
-0.161406
-0.192501
-0.216698
-0.230387
-0.232192
-0.220062
-0.195855
-0.164428
-0.131578
-0.101485
-0.0762385
-0.056278
-0.0411326
-0.0299508
-0.0218357
-0.0159992
-0.0118118
-0.00879878
-0.00661539
-0.00501721
-0.00383366
-0.00294631
-0.00227245
-0.00175337
-0.0013471
-0.00102433
-0.000765977
-0.000560583
-0.000400771
-0.000280006
-0.000191476
-0.000128143
-8.42453e-05
-5.51634e-05
-3.70984e-05
-2.65848e-05
-2.04705e-05
-1.62917e-05
-1.26726e-05
-9.30225e-06
-6.4122e-06
-4.22424e-06
-2.72716e-06
-1.754e-06
-1.12603e-06
-7.16142e-07
-4.443e-07
-2.60398e-07
-1.32944e-07
-4.29173e-08
2.14028e-08
6.74592e-08
1.0048e-07
1.24037e-07
1.40798e-07
1.52552e-07
1.607e-07
1.66135e-07
1.69617e-07
1.7159e-07
1.72488e-07
1.72524e-07
1.71961e-07
1.70891e-07
1.69486e-07
1.67774e-07
1.65875e-07
1.63784e-07
1.61593e-07
1.59277e-07
1.56914e-07
1.54468e-07
1.52006e-07
1.49491e-07
1.46979e-07
1.44431e-07
1.41901e-07
1.39349e-07
1.36823e-07
1.34284e-07
1.31777e-07
1.29265e-07
1.26789e-07
1.24311e-07
1.21873e-07
1.19437e-07
1.17042e-07
1.14652e-07
1.12302e-07
1.0996e-07
1.07658e-07
1.05365e-07
1.03111e-07
1.00866e-07
9.86597e-08
9.64635e-08
9.43037e-08
9.21544e-08
9.00399e-08
8.79359e-08
8.58648e-08
8.38041e-08
8.17745e-08
7.97552e-08
7.77648e-08
7.57846e-08
7.38313e-08
7.18879e-08
6.99695e-08
6.80608e-08
6.6175e-08
6.42986e-08
6.24433e-08
6.0597e-08
5.877e-08
5.69517e-08
5.51509e-08
5.33585e-08
5.15819e-08
4.98135e-08
4.80592e-08
4.63128e-08
4.45791e-08
4.28529e-08
4.11379e-08
3.94301e-08
3.77322e-08
3.60411e-08
3.43586e-08
3.26827e-08
3.10141e-08
2.93516e-08
2.76955e-08
2.60449e-08
2.43998e-08
2.27592e-08
2.11241e-08
1.94913e-08
1.78654e-08
1.62377e-08
1.46226e-08
1.2991e-08
1.14082e-08
9.72059e-09
8.25455e-09
6.36341e-09
5.38088e-09
2.51266e-09
2.80873e-09
0.0802888
0.079914
0.0786092
0.0760526
0.0711521
0.0620787
0.0462636
0.0192048
-0.0211138
-0.0802342
-0.138222
-0.175804
-0.209611
-0.236725
-0.252398
-0.254637
-0.239944
-0.210546
-0.172817
-0.134332
-0.100167
-0.0725136
-0.0514678
-0.0361272
-0.0252639
-0.0177123
-0.0125147
-0.00894612
-0.00648582
-0.00477243
-0.00356132
-0.0026897
-0.00205002
-0.00157081
-0.00120376
-0.00091576
-0.000684879
-0.000498063
-0.000348663
-0.000233044
-0.000147482
-8.69852e-05
-4.62142e-05
-2.05785e-05
-6.41459e-06
-5.72317e-07
8.61796e-08
-1.40266e-06
-2.69696e-06
-2.74783e-06
-1.78585e-06
-5.82289e-07
2.93398e-07
7.17655e-07
8.29983e-07
7.92935e-07
7.0183e-07
6.00304e-07
5.0758e-07
4.3114e-07
3.7138e-07
3.25743e-07
2.91042e-07
2.64728e-07
2.44684e-07
2.2941e-07
2.1763e-07
2.08491e-07
2.01229e-07
1.95386e-07
1.90511e-07
1.86379e-07
1.82722e-07
1.79447e-07
1.76386e-07
1.73519e-07
1.70733e-07
1.68046e-07
1.65377e-07
1.62761e-07
1.60134e-07
1.57542e-07
1.54929e-07
1.52344e-07
1.49738e-07
1.4716e-07
1.44565e-07
1.41999e-07
1.39421e-07
1.36876e-07
1.34323e-07
1.31807e-07
1.29287e-07
1.26805e-07
1.24324e-07
1.21883e-07
1.19445e-07
1.17049e-07
1.14657e-07
1.12307e-07
1.09964e-07
1.07662e-07
1.05368e-07
1.03114e-07
1.00869e-07
9.86626e-08
9.64661e-08
9.43064e-08
9.21569e-08
9.00423e-08
8.79382e-08
8.58671e-08
8.38063e-08
8.17766e-08
7.97572e-08
7.77668e-08
7.57864e-08
7.38331e-08
7.18897e-08
6.99712e-08
6.80624e-08
6.61766e-08
6.43001e-08
6.24448e-08
6.05984e-08
5.87714e-08
5.6953e-08
5.51521e-08
5.33597e-08
5.15831e-08
4.98146e-08
4.80603e-08
4.63138e-08
4.458e-08
4.28538e-08
4.11387e-08
3.94309e-08
3.77329e-08
3.60418e-08
3.43593e-08
3.26833e-08
3.10147e-08
2.93522e-08
2.7696e-08
2.60454e-08
2.44003e-08
2.27597e-08
2.11245e-08
1.94917e-08
1.78657e-08
1.62379e-08
1.46229e-08
1.29909e-08
1.14085e-08
9.72011e-09
8.25537e-09
6.3618e-09
5.38345e-09
2.50873e-09
2.81541e-09
0.0850763
0.0849887
0.0846378
0.0834571
0.0803508
0.0733194
0.0590286
0.0316084
-0.013278
-0.0857545
-0.154365
-0.192902
-0.229858
-0.260606
-0.278712
-0.281646
-0.263862
-0.227939
-0.182264
-0.136849
-0.0978892
-0.0675908
-0.0455141
-0.0301636
-0.0198336
-0.0130402
-0.00863826
-0.00580643
-0.00398357
-0.00279922
-0.00201548
-0.00148287
-0.0011089
-0.000836379
-0.000629458
-0.000465395
-0.000330582
-0.000218545
-0.000127733
-5.8346e-05
-9.45361e-06
2.17769e-05
3.90752e-05
4.56723e-05
4.41453e-05
3.69739e-05
2.70549e-05
1.74496e-05
1.04736e-05
6.81599e-06
5.55129e-06
5.22247e-06
4.85121e-06
4.203e-06
3.43548e-06
2.71937e-06
2.12084e-06
1.64338e-06
1.273e-06
9.92453e-07
7.83165e-07
6.27989e-07
5.12942e-07
4.27646e-07
3.64295e-07
3.17224e-07
2.82098e-07
2.55819e-07
2.35974e-07
2.20893e-07
2.09235e-07
2.00124e-07
1.9281e-07
1.86851e-07
1.81819e-07
1.77506e-07
1.73658e-07
1.70192e-07
1.6695e-07
1.63915e-07
1.6098e-07
1.58162e-07
1.55384e-07
1.52678e-07
1.49983e-07
1.4734e-07
1.44696e-07
1.42096e-07
1.39492e-07
1.36929e-07
1.34362e-07
1.31836e-07
1.29308e-07
1.26822e-07
1.24337e-07
1.21893e-07
1.19453e-07
1.17055e-07
1.14663e-07
1.12312e-07
1.09968e-07
1.07666e-07
1.05371e-07
1.03117e-07
1.00872e-07
9.86655e-08
9.64689e-08
9.43091e-08
9.21595e-08
9.00449e-08
8.79407e-08
8.58695e-08
8.38086e-08
8.17789e-08
7.97594e-08
7.77689e-08
7.57885e-08
7.38352e-08
7.18916e-08
6.99732e-08
6.80642e-08
6.61784e-08
6.43019e-08
6.24465e-08
6.06001e-08
5.87729e-08
5.69545e-08
5.51536e-08
5.33611e-08
5.15844e-08
4.98158e-08
4.80615e-08
4.63149e-08
4.45811e-08
4.28548e-08
4.11397e-08
3.94318e-08
3.77338e-08
3.60427e-08
3.43601e-08
3.26841e-08
3.10154e-08
2.93529e-08
2.76966e-08
2.6046e-08
2.44008e-08
2.27602e-08
2.11249e-08
1.9492e-08
1.78661e-08
1.62382e-08
1.46232e-08
1.2991e-08
1.14089e-08
9.71976e-09
8.25605e-09
6.36059e-09
5.38542e-09
2.50591e-09
2.82019e-09
0.0899033
0.0901463
0.0908924
0.0913606
0.0905099
0.0863208
0.0745257
0.0478489
-0.00240614
-0.0938116
-0.176564
-0.213147
-0.252558
-0.288226
-0.310606
-0.315407
-0.2938
-0.249222
-0.193102
-0.138936
-0.0942771
-0.0611267
-0.038173
-0.0230961
-0.0135862
-0.00779056
-0.00436619
-0.00240132
-0.00130568
-0.000710686
-0.000393996
-0.000226114
-0.000134295
-7.89472e-05
-3.89217e-05
-3.33383e-06
3.21496e-05
6.69192e-05
9.72342e-05
0.00011902
0.000130351
0.000131856
0.000125413
0.000112684
9.50323e-05
7.42657e-05
5.31832e-05
3.50895e-05
2.24182e-05
1.54523e-05
1.23624e-05
1.08045e-05
9.32522e-06
7.63473e-06
5.98556e-06
4.59305e-06
3.49625e-06
2.65248e-06
2.01223e-06
1.53377e-06
1.17992e-06
9.19067e-07
7.26575e-07
5.84453e-07
4.79396e-07
4.01715e-07
3.44122e-07
3.01352e-07
2.694e-07
2.45432e-07
2.27249e-07
2.13348e-07
2.02516e-07
1.93975e-07
1.87047e-07
1.81342e-07
1.76473e-07
1.72257e-07
1.68465e-07
1.65026e-07
1.61795e-07
1.58759e-07
1.55821e-07
1.52999e-07
1.50218e-07
1.47513e-07
1.44823e-07
1.4219e-07
1.39561e-07
1.3698e-07
1.344e-07
1.31864e-07
1.2933e-07
1.26839e-07
1.2435e-07
1.21904e-07
1.19462e-07
1.17062e-07
1.14669e-07
1.12317e-07
1.09973e-07
1.0767e-07
1.05375e-07
1.03121e-07
1.00876e-07
9.8669e-08
9.64722e-08
9.43123e-08
9.21626e-08
9.00479e-08
8.79435e-08
8.58723e-08
8.38113e-08
8.17815e-08
7.97619e-08
7.77714e-08
7.57908e-08
7.38374e-08
7.18938e-08
6.99752e-08
6.80662e-08
6.61803e-08
6.43037e-08
6.24482e-08
6.06017e-08
5.87746e-08
5.69561e-08
5.51551e-08
5.33625e-08
5.15857e-08
4.98171e-08
4.80627e-08
4.63161e-08
4.45822e-08
4.28558e-08
4.11407e-08
3.94328e-08
3.77347e-08
3.60435e-08
3.43609e-08
3.26848e-08
3.10161e-08
2.93535e-08
2.76973e-08
2.60466e-08
2.44014e-08
2.27607e-08
2.11254e-08
1.94925e-08
1.78665e-08
1.62385e-08
1.46235e-08
1.29911e-08
1.14092e-08
9.71954e-09
8.25666e-09
6.35974e-09
5.38698e-09
2.50393e-09
2.82366e-09
0.0946382
0.0952477
0.0972207
0.0995923
0.101513
0.101079
0.0931454
0.0689692
0.0121877
-0.104931
-0.204867
-0.237918
-0.2805
-0.321353
-0.348632
-0.356479
-0.330518
-0.27492
-0.205321
-0.140236
-0.088886
-0.0527591
-0.0292134
-0.0148103
-0.00648853
-0.00197842
0.000263357
0.00122362
0.00150361
0.00145453
0.00127148
0.00105584
0.000855144
0.000687867
0.000558151
0.000463603
0.000398496
0.000354851
0.000323683
0.000297204
0.000270711
0.00024253
0.000212449
0.000180312
0.00014613
0.000111078
7.80852e-05
5.10262e-05
3.26701e-05
2.28299e-05
1.84713e-05
1.60854e-05
1.36657e-05
1.09603e-05
8.42764e-06
6.3712e-06
4.79766e-06
3.60654e-06
2.71032e-06
2.04421e-06
1.5537e-06
1.19314e-06
9.2762e-07
7.31934e-07
5.87593e-07
4.81103e-07
4.02378e-07
3.44105e-07
3.00777e-07
2.68461e-07
2.44151e-07
2.25752e-07
2.11619e-07
2.00655e-07
1.91948e-07
1.84938e-07
1.7911e-07
1.74191e-07
1.69883e-07
1.66066e-07
1.62557e-07
1.59318e-07
1.56231e-07
1.53299e-07
1.50438e-07
1.47674e-07
1.44942e-07
1.42277e-07
1.39626e-07
1.37028e-07
1.34436e-07
1.31891e-07
1.29351e-07
1.26855e-07
1.24362e-07
1.21914e-07
1.1947e-07
1.17069e-07
1.14675e-07
1.12322e-07
1.09978e-07
1.07674e-07
1.0538e-07
1.03125e-07
1.00879e-07
9.86727e-08
9.64757e-08
9.43158e-08
9.21659e-08
9.00512e-08
8.79467e-08
8.58754e-08
8.38143e-08
8.17844e-08
7.97646e-08
7.77741e-08
7.57934e-08
7.38399e-08
7.18962e-08
6.99776e-08
6.80685e-08
6.61826e-08
6.43058e-08
6.24503e-08
6.06037e-08
5.87765e-08
5.69579e-08
5.51569e-08
5.33642e-08
5.15873e-08
4.98186e-08
4.80641e-08
4.63175e-08
4.45835e-08
4.2857e-08
4.11418e-08
3.94339e-08
3.77357e-08
3.60445e-08
3.43618e-08
3.26857e-08
3.10169e-08
2.93543e-08
2.7698e-08
2.60472e-08
2.4402e-08
2.27612e-08
2.11259e-08
1.94929e-08
1.78669e-08
1.62388e-08
1.46238e-08
1.29912e-08
1.14095e-08
9.71943e-09
8.25719e-09
6.35915e-09
5.38818e-09
2.50253e-09
2.82617e-09
0.0991344
0.100139
0.10343
0.107951
0.11315
0.117698
0.115489
0.0978457
0.0326175
-0.128491
-0.246913
-0.262901
-0.30996
-0.362338
-0.39841
-0.410133
-0.377752
-0.307064
-0.219299
-0.140204
-0.0809533
-0.0418773
-0.0182501
-0.00510067
0.00155238
0.00442779
0.0052518
0.00505659
0.00442773
0.003679
0.00296437
0.00234795
0.00184612
0.00145239
0.00115144
0.000926155
0.000760024
0.000637565
0.000544753
0.000470325
0.00040683
0.000350058
0.000297345
0.000246389
0.000195695
0.000145886
0.000100366
6.40327e-05
4.02807e-05
2.83476e-05
2.35762e-05
2.09273e-05
1.77804e-05
1.40883e-05
1.06773e-05
7.98878e-06
5.97961e-06
4.47439e-06
3.345e-06
2.50771e-06
1.89296e-06
1.44193e-06
1.11011e-06
8.65766e-07
6.85753e-07
5.53117e-07
4.55219e-07
3.82882e-07
3.29236e-07
2.89348e-07
2.5948e-07
2.37002e-07
2.19875e-07
2.06713e-07
1.96393e-07
1.88198e-07
1.81501e-07
1.75945e-07
1.71169e-07
1.67008e-07
1.63248e-07
1.59825e-07
1.56602e-07
1.53572e-07
1.50638e-07
1.47821e-07
1.4505e-07
1.42357e-07
1.39685e-07
1.37072e-07
1.34469e-07
1.31916e-07
1.2937e-07
1.2687e-07
1.24374e-07
1.21924e-07
1.19478e-07
1.17076e-07
1.14681e-07
1.12328e-07
1.09983e-07
1.07679e-07
1.05384e-07
1.03129e-07
1.00884e-07
9.86768e-08
9.64796e-08
9.43196e-08
9.21696e-08
9.00548e-08
8.79501e-08
8.58787e-08
8.38175e-08
8.17876e-08
7.97676e-08
7.7777e-08
7.57962e-08
7.38426e-08
7.18987e-08
6.99801e-08
6.80709e-08
6.61849e-08
6.43081e-08
6.24525e-08
6.06058e-08
5.87785e-08
5.69598e-08
5.51587e-08
5.33659e-08
5.1589e-08
4.98202e-08
4.80656e-08
4.63189e-08
4.45848e-08
4.28583e-08
4.11431e-08
3.9435e-08
3.77368e-08
3.60455e-08
3.43628e-08
3.26866e-08
3.10178e-08
2.93551e-08
2.76987e-08
2.60479e-08
2.44026e-08
2.27619e-08
2.11265e-08
1.94934e-08
1.78674e-08
1.62392e-08
1.46242e-08
1.29914e-08
1.14098e-08
9.71944e-09
8.25768e-09
6.35879e-09
5.38916e-09
2.50157e-09
2.82802e-09
0.103234
0.104636
0.109291
0.116068
0.12506
0.135461
0.14175
0.133722
0.060892
-0.138474
-0.313824
-0.307654
-0.344796
-0.400357
-0.44573
-0.465441
-0.428684
-0.342295
-0.233723
-0.13822
-0.0699995
-0.0281155
-0.00506333
0.00611535
0.0105253
0.0113674
0.010521
0.00902083
0.00740014
0.00590921
0.00464383
0.00362027
0.00281739
0.00219996
0.00173102
0.00137755
0.00111198
0.000911607
0.000757949
0.000636739
0.000537853
0.000454246
0.000380349
0.000311352
0.000244114
0.000178873
0.000119965
7.39244e-05
4.50717e-05
3.19083e-05
2.76972e-05
2.53647e-05
2.16508e-05
1.69571e-05
1.26691e-05
9.39892e-06
7.01364e-06
5.23753e-06
3.90294e-06
2.9146e-06
2.19076e-06
1.66038e-06
1.27029e-06
9.83151e-07
7.71797e-07
6.16213e-07
5.01499e-07
4.16833e-07
3.54146e-07
3.07626e-07
2.72891e-07
2.46842e-07
2.27094e-07
2.12009e-07
2.00277e-07
1.91047e-07
1.8359e-07
1.77476e-07
1.72291e-07
1.67831e-07
1.63851e-07
1.60266e-07
1.56926e-07
1.53809e-07
1.50812e-07
1.47949e-07
1.45144e-07
1.42426e-07
1.39736e-07
1.3711e-07
1.34498e-07
1.31938e-07
1.29387e-07
1.26883e-07
1.24385e-07
1.21933e-07
1.19486e-07
1.17083e-07
1.14687e-07
1.12334e-07
1.09988e-07
1.07684e-07
1.05389e-07