/*--------------------------------*- C++ -*----------------------------------*\
  =========                 |
  \\      /  F ield         | OpenFOAM: The Open Source CFD Toolbox
   \\    /   O peration     | Website:  https://openfoam.org
    \\  /    A nd           | Version:  11
     \\/     M anipulation  |
\*---------------------------------------------------------------------------*/
FoamFile
{
    format      ascii;
    class       volVectorField;
    location    "2.021538";
    object      U_0;
}
// * * * * * * * * * * * * * * * * * * * * * * * * * * * * * * * * * * * * * //

dimensions      [0 1 -1 0 0 0 0];

internalField   nonuniform List<vector> 
7132
(
(1.00014 -0.00028245 2.13978e-18)
(1.00219 -0.000850879 7.7415e-18)
(1.00682 -0.00145116 8.2906e-18)
(1.01384 -0.00209285 9.31263e-18)
(1.02353 -0.00277614 1.17457e-17)
(1.03604 -0.00347669 1.23308e-17)
(1.05136 -0.00414926 1.18425e-17)
(1.06927 -0.00470794 1.10918e-17)
(1.08912 -0.00505861 1.0461e-17)
(1.10987 -0.0050984 1.00132e-17)
(1.13006 -0.00476155 9.55566e-18)
(1.14816 -0.00409537 9.44594e-18)
(1.16297 -0.00315073 8.91476e-18)
(1.17349 -0.00198841 9.68847e-18)
(1.17897 -0.000696356 1.60067e-18)
(1.1791 0.000622664 -6.93804e-18)
(1.17399 0.00185055 -1.76761e-17)
(1.16424 0.00287565 -1.66684e-17)
(1.15088 0.0036196 -2.31421e-17)
(1.13515 0.0040541 -2.95111e-17)
(1.11831 0.00419846 -2.89136e-17)
(1.10144 0.00410486 -2.71004e-17)
(1.08538 0.00383997 -2.47424e-17)
(1.07067 0.00346986 -2.27616e-17)
(1.05759 0.00305061 -1.72305e-17)
(1.04626 0.00262435 -1.54968e-17)
(1.03661 0.00221935 -1.3939e-17)
(1.02852 0.00185224 -1.22249e-17)
(1.02181 0.00153097 -1.001e-17)
(1.01629 0.00125715 -6.72067e-18)
(1.01177 0.00102725 -4.78306e-18)
(1.00808 0.000832837 -4.86679e-18)
(1.00511 0.000661466 -5.55031e-18)
(1.00279 0.000499728 -3.41183e-18)
(1.00111 0.000338542 9.67768e-19)
(1.00007 0.000178475 6.97421e-18)
(0.999662 3.15052e-05 1.04825e-17)
(0.999795 -8.3081e-05 9.26977e-18)
(1.0003 -0.000147535 3.82082e-18)
(1.00096 -0.000154835 -4.23061e-18)
(1.00153 -0.000113164 -9.91549e-18)
(1.00185 -4.32346e-05 -1.11574e-17)
(1.00187 2.98593e-05 -7.21583e-18)
(1.00161 8.57263e-05 -4.18525e-19)
(1.00118 0.000114308 4.43442e-18)
(1.00069 0.000116229 6.01495e-18)
(1.00025 9.91018e-05 3.76712e-18)
(0.999894 7.2602e-05 3.77744e-19)
(0.999658 4.48023e-05 -1.70142e-18)
(0.999529 2.0695e-05 -3.25432e-18)
(0.999488 2.44456e-06 -4.2834e-18)
(0.999508 -9.65322e-06 -3.46016e-18)
(0.999564 -1.62908e-05 -1.45331e-18)
(0.999638 -1.86105e-05 -1.79493e-19)
(0.999714 -1.7919e-05 5.49696e-19)
(0.999782 -1.54922e-05 8.25404e-20)
(0.999838 -1.2405e-05 -3.92973e-19)
(0.999881 -9.4101e-06 -1.80086e-19)
(0.999913 -6.90823e-06 -3.77528e-19)
(0.999936 -5.01006e-06 -4.37533e-19)
(0.999952 -3.64882e-06 -1.05306e-18)
(0.999965 -2.69016e-06 -1.14449e-18)
(0.999974 -2.0053e-06 -9.16795e-19)
(0.999981 -1.5012e-06 -1.55083e-18)
(0.999986 -1.12103e-06 -1.04821e-18)
(0.99999 -8.32103e-07 -8.3144e-19)
(0.999992 -6.13977e-07 -7.79554e-19)
(0.999994 -4.51356e-07 -5.79854e-19)
(0.999996 -3.31414e-07 -1.25864e-18)
(0.999997 -2.43416e-07 -7.83872e-19)
(0.999998 -1.78861e-07 -5.83585e-19)
(0.999999 -1.31388e-07 -5.47717e-19)
(0.999999 -9.63978e-08 -3.67706e-19)
(0.999999 -7.05897e-08 -1.06724e-18)
(1 -5.15659e-08 -6.10046e-19)
(1 -3.75617e-08 -4.22363e-19)
(1 -2.72629e-08 -3.95523e-19)
(1 -1.96953e-08 -2.23598e-19)
(1 -1.41359e-08 -9.31321e-19)
(1 -1.00548e-08 -4.80226e-19)
(1 -7.05982e-09 -2.91536e-19)
(1 -4.86532e-09 -2.51255e-19)
(1 -3.25857e-09 -5.12096e-20)
(1 -2.08536e-09 -7.1959e-19)
(1 -1.22981e-09 -2.27325e-19)
(1 -6.08913e-10 -8.20728e-21)
(1 -1.59336e-10 4.0579e-20)
(1 1.6328e-10 2.21988e-19)
(1 3.93746e-10 -4.89378e-19)
(1 5.55517e-10 -5.76519e-20)
(1 6.67965e-10 1.17178e-19)
(1 7.43249e-10 1.17294e-20)
(1 7.92356e-10 7.44125e-19)
(1 8.21364e-10 3.08639e-19)
(1 8.36708e-10 2.27163e-19)
(1 8.41198e-10 2.80753e-19)
(1 8.38783e-10 1.35824e-19)
(1 8.30529e-10 8.44467e-19)
(1 8.19013e-10 3.84165e-19)
(1 8.04378e-10 2.72708e-19)
(1 7.88436e-10 2.93068e-19)
(1 7.70856e-10 1.1691e-19)
(1 7.53009e-10 8.01987e-19)
(1 7.34333e-10 3.29096e-19)
(1 7.15938e-10 2.15654e-19)
(1 6.97159e-10 2.41145e-19)
(1 6.78938e-10 7.25647e-20)
(1 6.60581e-10 7.63856e-19)
(1 6.42912e-10 2.94035e-19)
(1 6.25243e-10 1.80707e-19)
(1 6.08312e-10 2.0463e-19)
(1 5.91456e-10 3.41773e-20)
(1 5.75343e-10 7.24182e-19)
(1 5.59346e-10 2.53926e-19)
(1 5.44068e-10 1.40973e-19)
(1 5.28928e-10 1.65437e-19)
(1 5.14474e-10 -2.76186e-21)
(1 5.00167e-10 6.82835e-19)
(1 4.86503e-10 2.40437e-19)
(1 4.72986e-10 7.65959e-21)
(1 4.60068e-10 6.03248e-19)
(1 4.47298e-10 6.94082e-19)
(1 4.35081e-10 8.02045e-19)
(1 4.2301e-10 2.16687e-19)
(1 4.11446e-10 -6.54271e-20)
(1 4.00025e-10 4.93709e-19)
(1 3.89071e-10 5.45655e-19)
(1 3.78253e-10 6.16502e-19)
(1 3.67861e-10 6.1605e-21)
(1 3.57604e-10 -2.7947e-19)
(1 3.47735e-10 3.00838e-19)
(1 3.37998e-10 3.93771e-19)
(1 3.28616e-10 5.14319e-19)
(1 3.19363e-10 -5.02711e-20)
(1 3.1043e-10 -3.03407e-19)
(1 3.01624e-10 2.93001e-19)
(1 2.93112e-10 3.8836e-19)
(1 2.84725e-10 5.03605e-19)
(1 2.76603e-10 -6.80507e-20)
(1 2.68606e-10 -3.26198e-19)
(1 2.60852e-10 2.68415e-19)
(1 2.53219e-10 3.64472e-19)
(1 2.45806e-10 4.81513e-19)
(1 2.38515e-10 -8.83892e-20)
(1 2.31427e-10 -3.45326e-19)
(1 2.24458e-10 2.50039e-19)
(1 2.17675e-10 3.4681e-19)
(1 2.11006e-10 4.64936e-19)
(1 2.04511e-10 -1.03515e-19)
(1 1.98121e-10 -3.59463e-19)
(1 1.91913e-10 2.34636e-19)
(1 1.8577e-10 3.25563e-19)
(1 1.79917e-10 4.31596e-19)
(1 1.73895e-10 -1.54932e-19)
(1 1.68763e-10 -4.31179e-19)
(1 1.62078e-10 1.4387e-19)
(1 1.59926e-10 2.334e-19)
(1 1.47589e-10 3.11203e-19)
(1 1.61611e-10 -1.05604e-19)
(1 1.2249e-10 -1.06872e-18)
(1.00014 -0.000844693 2.69647e-20)
(1.00217 -0.00254598 3.78669e-19)
(1.00676 -0.0043442 7.58278e-19)
(1.01375 -0.00627062 1.12263e-18)
(1.02341 -0.00832694 1.55463e-18)
(1.03593 -0.0104414 1.99558e-18)
(1.05133 -0.0124789 2.38359e-18)
(1.06941 -0.0141781 2.45517e-18)
(1.08952 -0.0152528 5.46126e-18)
(1.11063 -0.0153834 6.24442e-18)
(1.13118 -0.0143672 4.63306e-18)
(1.14959 -0.0123567 8.35453e-18)
(1.16466 -0.00950648 6.42648e-18)
(1.17535 -0.00599855 7.79102e-18)
(1.18092 -0.00209798 1.13643e-17)
(1.18101 0.00188532 1.37656e-17)
(1.17575 0.00559311 1.37273e-17)
(1.16575 0.00868557 1.20036e-17)
(1.15209 0.0109245 8.83662e-18)
(1.13605 0.0122247 4.62964e-18)
(1.11894 0.0126471 4.83374e-19)
(1.10186 0.0123519 -2.88837e-18)
(1.08565 0.0115426 -5.35532e-18)
(1.07085 0.0104196 -7.13351e-18)
(1.05773 0.00915242 -8.02864e-18)
(1.04639 0.00786751 -8.15118e-18)
(1.03676 0.00664926 -7.44209e-18)
(1.02869 0.00554687 -5.99419e-18)
(1.02202 0.00458344 -4.6636e-18)
(1.01653 0.00376328 -4.07614e-18)
(1.01203 0.00307548 -5.58498e-18)
(1.00837 0.00249473 -1.08787e-17)
(1.00541 0.00198378 -1.19451e-17)
(1.00309 0.00150237 -5.73274e-18)
(1.0014 0.00102282 7.74299e-18)
(1.00034 0.000545989 2.28195e-17)
(0.999899 0.000106907 2.63935e-17)
(0.999995 -0.000237102 1.52183e-17)
(1.00046 -0.000432608 -7.3261e-18)
(1.00108 -0.000457691 -2.87138e-17)
(1.00163 -0.000335759 -3.55993e-17)
(1.00193 -0.000128022 -2.5326e-17)
(1.00193 9.05914e-05 -6.98922e-19)
(1.00167 0.00025866 2.56573e-17)
(1.00122 0.000345397 4.28215e-17)
(1.00072 0.000352049 4.55411e-17)
(1.00027 0.000301045 3.31262e-17)
(0.999905 0.000221322 1.45168e-17)
(0.999662 0.000137243 -3.64284e-18)
(0.99953 6.40379e-05 -1.73082e-17)
(0.999487 8.44153e-06 -2.22201e-17)
(0.999508 -2.85009e-05 -2.02994e-17)
(0.999566 -4.8809e-05 -1.37826e-17)
(0.999641 -5.59344e-05 -5.766e-18)
(0.999717 -5.38674e-05 -1.07752e-19)
(0.999786 -4.65166e-05 3.64702e-18)
(0.999842 -3.71717e-05 4.07944e-18)
(0.999884 -2.81286e-05 2.61622e-18)
(0.999915 -2.06004e-05 9.12705e-19)
(0.999938 -1.49126e-05 -1.04943e-18)
(0.999954 -1.08512e-05 -1.04841e-18)
(0.999966 -8.00081e-06 -8.81126e-19)
(0.999975 -5.96781e-06 -4.37847e-19)
(0.999981 -4.47083e-06 -8.32099e-19)
(0.999986 -3.34012e-06 -5.57489e-19)
(0.99999 -2.4795e-06 8.7943e-19)
(0.999993 -1.82927e-06 -1.31771e-19)
(0.999995 -1.34451e-06 -2.3497e-19)
(0.999996 -9.87142e-07 -9.04118e-19)
(0.999997 -7.25089e-07 -7.11078e-19)
(0.999998 -5.32908e-07 7.53506e-19)
(0.999999 -3.91587e-07 -2.01633e-19)
(0.999999 -2.8741e-07 -2.64759e-19)
(0.999999 -2.10557e-07 -9.16561e-19)
(1 -1.53902e-07 -7.17536e-19)
(1 -1.12192e-07 7.52548e-19)
(1 -8.15196e-08 -1.94265e-19)
(1 -5.89795e-08 -2.48405e-19)
(1 -4.24207e-08 -8.9288e-19)
(1 -3.02623e-08 -6.87195e-19)
(1 -2.13392e-08 7.93159e-19)
(1 -1.47984e-08 -1.34857e-19)
(1 -1.00088e-08 -1.59559e-19)
(1 -6.50914e-09 -7.66939e-19)
(1 -3.95638e-09 -5.245e-19)
(1 -2.10126e-09 9.82151e-19)
(1 -7.57305e-10 6.10631e-20)
(1 2.09658e-10 2.29714e-20)
(1 9.01268e-10 -6.24127e-19)
(1 1.38935e-09 -3.98938e-19)
(1 1.72961e-09 9.54e-19)
(1 1.96017e-09 4.33642e-19)
(1 2.11185e-09 8.75121e-19)
(1 2.20459e-09 8.95374e-19)
(1 2.25571e-09 7.93548e-19)
(1 2.27537e-09 8.50452e-19)
(1 2.27356e-09 9.95981e-20)
(1 2.25514e-09 5.49009e-19)
(1 2.22612e-09 6.15297e-19)
(1 2.18854e-09 5.52602e-19)
(1 2.14619e-09 6.36549e-19)
(1 2.09964e-09 -9.43013e-20)
(1 2.05146e-09 3.74216e-19)
(1 2.00142e-09 4.62297e-19)
(1 1.95141e-09 4.24087e-19)
(1 1.90083e-09 5.32561e-19)
(1 1.85114e-09 -1.77072e-19)
(1 1.80156e-09 3.07117e-19)
(1 1.75329e-09 4.05021e-19)
(1 1.7055e-09 3.72082e-19)
(1 1.65922e-09 4.83231e-19)
(1 1.6136e-09 -2.2465e-19)
(1 1.56953e-09 2.61342e-19)
(1 1.52621e-09 3.61376e-19)
(1 1.48443e-09 3.30858e-19)
(1 1.44341e-09 4.44166e-19)
(1 1.40388e-09 -2.60436e-19)
(1 1.3651e-09 2.22569e-19)
(1 1.32773e-09 3.48687e-19)
(1 1.29109e-09 2.06083e-19)
(1 1.25576e-09 8.74957e-19)
(1 1.22112e-09 3.9711e-19)
(1 1.18771e-09 3.01069e-19)
(1 1.15496e-09 2.9665e-19)
(1 1.12333e-09 1.20181e-19)
(1 1.09233e-09 7.66793e-19)
(1 1.06237e-09 2.61114e-19)
(1 1.03299e-09 1.34899e-19)
(1 1.00457e-09 1.08039e-19)
(1 9.76699e-10 -7.32473e-20)
(1 9.49707e-10 5.90739e-19)
(1 9.23236e-10 1.21473e-19)
(1 8.97573e-10 4.11309e-20)
(1 8.72401e-10 5.77921e-20)
(1 8.47969e-10 -9.1583e-20)
(1 8.24004e-10 5.8902e-19)
(1 8.00722e-10 1.23057e-19)
(1 7.7788e-10 3.8061e-20)
(1 7.55666e-10 4.78185e-20)
(1 7.33873e-10 -1.06855e-19)
(1 7.12661e-10 5.7141e-19)
(1 6.91851e-10 1.05543e-19)
(1 6.71576e-10 2.18093e-20)
(1 6.51687e-10 3.28904e-20)
(1 6.32296e-10 -1.20923e-19)
(1 6.13274e-10 5.57777e-19)
(1 5.94718e-10 9.22951e-20)
(1 5.76508e-10 9.28237e-21)
(1 5.58745e-10 2.14362e-20)
(1 5.41289e-10 -1.31694e-19)
(1 5.24323e-10 5.45653e-19)
(1 5.07519e-10 7.46151e-20)
(1 4.91535e-10 -1.97591e-20)
(1 4.74995e-10 -2.45912e-20)
(1 4.61035e-10 -1.9696e-19)
(1 4.42539e-10 4.62331e-19)
(1 4.36823e-10 -1.12652e-20)
(1 4.0329e-10 -1.29877e-19)
(1 4.40172e-10 1.3083e-20)
(1 3.40307e-10 -7.69129e-19)
(1.00014 -0.00139956 3.27386e-22)
(1.00213 -0.00422041 4.96183e-21)
(1.00665 -0.00720891 3.52075e-21)
(1.01355 -0.0104232 8.37955e-21)
(1.02316 -0.0138714 -1.16721e-19)
(1.03569 -0.0174383 1.62329e-19)
(1.05124 -0.0209012 -5.94803e-19)
(1.06965 -0.0238124 -1.23373e-18)
(1.09031 -0.0256816 3.98785e-18)
(1.11213 -0.0259377 2.45371e-19)
(1.13342 -0.0242235 -2.01128e-17)
(1.15245 -0.0208307 -2.10906e-17)
(1.16803 -0.016024 2.13229e-17)
(1.17907 -0.0101039 7.757e-17)
(1.1848 -0.00351431 9.87154e-17)
(1.18482 0.00322251 8.45484e-17)
(1.17924 0.00949278 5.73379e-17)
(1.16873 0.0147107 2.86179e-17)
(1.15444 0.0184673 4.11932e-18)
(1.13777 0.020622 -1.39025e-17)
(1.1201 0.0212867 -2.49717e-17)
(1.10258 0.0207426 -2.97664e-17)
(1.08607 0.0193408 -3.00557e-17)
(1.07108 0.0174234 -2.79123e-17)
(1.05789 0.0152762 -2.43584e-17)
(1.04654 0.0131107 -1.89575e-17)
(1.03695 0.011066 -1.13886e-17)
(1.02895 0.00922193 -3.76545e-18)
(1.02234 0.00761462 -1.09336e-18)
(1.01691 0.00624941 -7.61447e-18)
(1.01248 0.00510687 -2.07816e-17)
(1.00886 0.00414426 -2.89197e-17)
(1.00593 0.0032995 -1.69208e-17)
(1.00363 0.0025054 1.88261e-17)
(1.00193 0.0017153 6.02475e-17)
(1.00085 0.000929407 7.55927e-17)
(1.00036 0.000204468 4.38699e-17)
(1.00039 -0.000365314 -2.30789e-17)
(1.00079 -0.000691332 -8.42368e-17)
(1.00134 -0.000736393 -9.5466e-17)
(1.00182 -0.000538069 -3.94306e-17)
(1.00207 -0.000196792 6.3551e-17)
(1.00203 0.000163689 1.7251e-16)
(1.00173 0.000441369 2.51785e-16)
(1.00126 0.000584615 2.8374e-16)
(1.00074 0.000594831 2.67175e-16)
(1.00027 0.000508772 2.09494e-16)
(0.999898 0.000374349 1.22645e-16)
(0.999649 0.000232241 2.35264e-17)
(0.999515 0.000108189 -6.59047e-17)
(0.999475 1.38435e-05 -1.22374e-16)
(0.999501 -4.875e-05 -1.34306e-16)
(0.999565 -8.28898e-05 -1.06603e-16)
(0.999645 -9.44825e-05 -5.70452e-17)
(0.999725 -9.04533e-05 -9.51688e-18)
(0.999795 -7.75905e-05 2.06516e-17)
(0.99985 -6.1561e-05 2.88123e-17)
(0.999891 -4.62579e-05 2.10809e-17)
(0.999921 -3.36753e-05 8.89593e-18)
(0.999942 -2.42818e-05 -7.17499e-19)
(0.999957 -1.76449e-05 -4.18903e-18)
(0.999968 -1.30205e-05 -3.84827e-18)
(0.999976 -9.72887e-06 -1.87452e-18)
(0.999982 -7.29927e-06 -3.96109e-20)
(0.999987 -5.45664e-06 2.16808e-20)
(0.99999 -4.04987e-06 6.4124e-19)
(0.999993 -2.98599e-06 5.06887e-19)
(0.999995 -2.19341e-06 2.6596e-19)
(0.999996 -1.60997e-06 2.29806e-19)
(0.999997 -1.18271e-06 -5.35291e-19)
(0.999998 -8.69573e-07 6.04128e-20)
(0.999999 -6.39293e-07 2.0064e-19)
(0.999999 -4.69478e-07 1.89565e-19)
(0.999999 -3.44161e-07 2.40658e-19)
(0.999999 -2.51766e-07 -5.33342e-19)
(1 -1.83745e-07 2.92191e-20)
(1 -1.33727e-07 1.50998e-19)
(1 -9.69699e-08 1.40337e-19)
(1 -6.99649e-08 2.00691e-19)
(1 -5.01319e-08 -5.62777e-19)
(1 -3.55732e-08 1.11899e-20)
(1 -2.48969e-08 1.48642e-19)
(1 -1.70761e-08 1.59949e-19)
(1 -1.13572e-08 2.46326e-19)
(1 -7.18258e-09 -4.93265e-19)
(1 -4.14431e-09 9.556e-20)
(1 -1.93996e-09 2.32634e-19)
(1 -3.49239e-10 2.35219e-19)
(1 7.91939e-10 2.74774e-19)
(1 1.60221e-09 -3.75342e-19)
(1 2.17081e-09 -3.79368e-19)
(1 2.56139e-09 -3.11351e-19)
(1 2.82268e-09 -1.92047e-19)
(1 2.9886e-09 -7.1112e-20)
(1 3.08595e-09 2.16932e-20)
(1 3.13261e-09 1.21887e-19)
(1 3.14351e-09 1.23306e-19)
(1 3.12786e-09 1.44045e-19)
(1 3.09413e-09 1.71159e-19)
(1 3.04689e-09 1.83602e-19)
(1 2.99108e-09 2.1951e-19)
(1 2.92879e-09 1.74156e-19)
(1 2.86303e-09 1.6567e-19)
(1 2.79456e-09 1.78763e-19)
(1 2.72535e-09 1.87732e-19)
(1 2.65544e-09 2.25043e-19)
(1 2.58622e-09 1.81129e-19)
(1 2.51738e-09 1.71436e-19)
(1 2.44995e-09 1.80376e-19)
(1 2.38344e-09 1.83536e-19)
(1 2.31868e-09 2.15094e-19)
(1 2.25512e-09 1.66703e-19)
(1 2.19343e-09 1.54226e-19)
(1 2.13304e-09 1.6185e-19)
(1 2.07453e-09 1.64707e-19)
(1 2.01734e-09 1.96358e-19)
(1 1.96198e-09 1.48662e-19)
(1 1.90792e-09 1.35136e-19)
(1 1.85558e-09 1.48355e-19)
(1 1.80449e-09 1.36676e-19)
(1 1.75502e-09 2.03105e-19)
(1 1.70672e-09 2.31671e-19)
(1 1.65995e-09 2.36364e-19)
(1 1.61427e-09 2.3805e-19)
(1 1.57e-09 2.00934e-19)
(1 1.52676e-09 2.32025e-19)
(1 1.48482e-09 2.17639e-19)
(1 1.44384e-09 1.77407e-19)
(1 1.40407e-09 1.41319e-19)
(1 1.36518e-09 8.2912e-20)
(1 1.32742e-09 1.1444e-19)
(1 1.29048e-09 1.20651e-19)
(1 1.25457e-09 1.13281e-19)
(1 1.21944e-09 1.11514e-19)
(1 1.18526e-09 7.96221e-20)
(1 1.15181e-09 1.25299e-19)
(1 1.11924e-09 1.34007e-19)
(1 1.08734e-09 1.21712e-19)
(1 1.05627e-09 1.12618e-19)
(1 1.02584e-09 7.4642e-20)
(1 9.96167e-10 1.16942e-19)
(1 9.67099e-10 1.24675e-19)
(1 9.38743e-10 1.12704e-19)
(1 9.10956e-10 1.04198e-19)
(1 8.83835e-10 6.65271e-20)
(1 8.57254e-10 1.08819e-19)
(1 8.31305e-10 1.16526e-19)
(1 8.05857e-10 1.04844e-19)
(1 7.81029e-10 9.69574e-20)
(1 7.5663e-10 5.95842e-20)
(1 7.32932e-10 1.00375e-19)
(1 7.09425e-10 1.02823e-19)
(1 6.87132e-10 8.06369e-20)
(1 6.63919e-10 5.71476e-20)
(1 6.44554e-10 1.89983e-21)
(1 6.18503e-10 2.65583e-20)
(1 6.10491e-10 2.2742e-20)
(1 5.64662e-10 -3.69898e-21)
(1 6.10806e-10 1.01112e-20)
(1 4.82912e-10 -8.87402e-20)
(1.00013 -0.00194187 -2.8149e-20)
(1.00207 -0.0058586 -4.98074e-19)
(1.00647 -0.0100239 -8.93926e-19)
(1.01324 -0.0145301 -1.61133e-18)
(1.02274 -0.0194005 -1.90848e-18)
(1.03528 -0.024484 -1.7586e-18)
(1.05104 -0.0294748 -9.44704e-18)
(1.06995 -0.0337211 1.14346e-17)
(1.09143 -0.0365087 5.72223e-18)
(1.11437 -0.0369496 -9.04349e-17)
(1.13678 -0.0345018 -4.83239e-17)
(1.15676 -0.0296608 2.89069e-16)
(1.17311 -0.0228118 6.11886e-16)
(1.1847 -0.0143688 5.82592e-16)
(1.19067 -0.00495797 2.55847e-16)
(1.19058 0.00467923 -9.6627e-17)
(1.18452 0.0136494 -3.4662e-16)
(1.17321 0.0210906 -4.74435e-16)
(1.15796 0.0264031 -5.0318e-16)
(1.14031 0.0293918 -4.68001e-16)
(1.12177 0.0302364 -3.9926e-16)
(1.10359 0.0293613 -3.16882e-16)
(1.08662 0.0272844 -2.33839e-16)
(1.07138 0.0245017 -1.59193e-16)
(1.05807 0.021421 -9.62312e-17)
(1.04672 0.0183389 -4.16882e-17)
(1.03718 0.0154471 7.37549e-18)
(1.02928 0.0128522 4.18928e-17)
(1.02277 0.0106 4.25065e-17)
(1.01745 0.00869363 4.48389e-18)
(1.0131 0.00710312 -3.72973e-17)
(1.00955 0.00576718 -1.8134e-17)
(1.00668 0.00459857 1.04426e-16)
(1.0044 0.00350325 2.71938e-16)
(1.0027 0.00241531 3.40096e-16)
(1.00158 0.00133332 1.92162e-16)
(1.00103 0.000334067 -1.28815e-16)
(1.00097 -0.0004532 -3.96143e-16)
(1.00126 -0.000905938 -3.61293e-16)
(1.0017 -0.000971835 5.27418e-17)
(1.00208 -0.000701665 6.80163e-16)
(1.00225 -0.000233425 1.23486e-15)
(1.00214 0.000262008 1.52785e-15)
(1.00178 0.000643234 1.56208e-15)
(1.00128 0.000838198 1.46242e-15)
(1.00073 0.000848231 1.32809e-15)
(1.00024 0.000723884 1.14705e-15)
(0.999855 0.000531633 8.42888e-16)
(0.999603 0.000328419 3.79131e-16)
(0.999473 0.000150796 -1.61706e-16)
(0.999443 1.57754e-05 -6.04003e-16)
(0.999481 -7.32947e-05 -7.96158e-16)
(0.999557 -0.000121 -7.0399e-16)
(0.999648 -0.000136015 -4.2403e-16)
(0.999734 -0.000128667 -1.14659e-16)
(0.999807 -0.000109054 9.98255e-17)
(0.999862 -8.54803e-05 1.74524e-16)
(0.999901 -6.34963e-05 1.42201e-16)
(0.999929 -4.57904e-05 6.80073e-17)
(0.999947 -3.28267e-05 4.30645e-18)
(0.999961 -2.38193e-05 -2.48306e-17)
(0.999971 -1.76094e-05 -2.58211e-17)
(0.999978 -1.31978e-05 -1.39341e-17)
(0.999984 -9.92477e-06 -3.07195e-18)
(0.999988 -7.42503e-06 2.80401e-18)
(0.999991 -5.50768e-06 4.91631e-18)
(0.999994 -4.05612e-06 2.37594e-18)
(0.999995 -2.97647e-06 7.1323e-19)
(0.999997 -2.18378e-06 -6.53556e-19)
(0.999997 -1.60448e-06 -5.65718e-19)
(0.999998 -1.18027e-06 1.09107e-18)
(0.999999 -8.68241e-07 2.94063e-19)
(0.999999 -6.37991e-07 2.56756e-19)
(0.999999 -4.67985e-07 -3.85118e-19)
(0.999999 -3.42618e-07 -2.65946e-19)
(1 -2.50333e-07 1.1796e-18)
(1 -1.82483e-07 2.15774e-19)
(1 -1.32624e-07 1.25426e-19)
(1 -9.59912e-08 -4.98486e-19)
(1 -6.90811e-08 -3.44417e-19)
(1 -4.93221e-08 1.1279e-18)
(1 -3.48269e-08 1.82055e-19)
(1 -2.42041e-08 1.07338e-19)
(1 -1.6431e-08 -5.00812e-19)
(1 -1.07521e-08 -3.33912e-19)
(1 -6.61361e-09 1.14381e-18)
(1 -3.60585e-09 1.92552e-19)
(1 -1.4298e-09 1.0786e-19)
(1 1.36738e-10 -5.27762e-19)
(1 1.25487e-09 -3.30054e-19)
(1 2.04531e-09 9.9188e-19)
(1 2.59459e-09 4.308e-19)
(1 2.96848e-09 7.94892e-19)
(1 3.2132e-09 7.53301e-19)
(1 3.36479e-09 6.32187e-19)
(1 3.44769e-09 6.93796e-19)
(1 3.48185e-09 -6.29098e-20)
(1 3.47996e-09 3.37406e-19)
(1 3.45326e-09 3.66149e-19)
(1 3.40809e-09 3.08118e-19)
(1 3.35096e-09 4.22272e-19)
(1 3.28483e-09 -2.8784e-19)
(1 3.21361e-09 1.57051e-19)
(1 3.13847e-09 2.29197e-19)
(1 3.06189e-09 2.11374e-19)
(1 2.98409e-09 3.59298e-19)
(1 2.90677e-09 -3.25964e-19)
(1 2.82967e-09 1.344e-19)
(1 2.75402e-09 2.14283e-19)
(1 2.67931e-09 1.99258e-19)
(1 2.60651e-09 3.47795e-19)
(1 2.53501e-09 -3.37169e-19)
(1 2.46561e-09 1.23978e-19)
(1 2.39765e-09 2.05132e-19)
(1 2.33181e-09 1.91594e-19)
(1 2.26745e-09 3.41225e-19)
(1 2.20515e-09 -3.41979e-19)
(1 2.1443e-09 1.1521e-19)
(1 2.08543e-09 2.18118e-19)
(1 2.02794e-09 9.82771e-20)
(1 1.97229e-09 7.86008e-19)
(1 1.91796e-09 2.94731e-19)
(1 1.86535e-09 1.70425e-19)
(1 1.81398e-09 1.5727e-19)
(1 1.7642e-09 2.43729e-20)
(1 1.71558e-09 7.11477e-19)
(1 1.66843e-09 2.10737e-19)
(1 1.62235e-09 6.77692e-20)
(1 1.57764e-09 3.45227e-20)
(1 1.53393e-09 -1.10044e-19)
(1 1.49148e-09 5.80843e-19)
(1 1.44996e-09 1.00321e-19)
(1 1.4096e-09 -1.12798e-20)
(1 1.37012e-09 -1.08795e-20)
(1 1.33171e-09 -1.27927e-19)
(1 1.29411e-09 5.79635e-19)
(1 1.25751e-09 1.04895e-19)
(1 1.22168e-09 -8.4529e-21)
(1 1.18676e-09 -1.28923e-20)
(1 1.15257e-09 -1.34403e-19)
(1 1.11923e-09 5.70673e-19)
(1 1.08657e-09 9.53963e-20)
(1 1.05472e-09 -1.73836e-20)
(1 1.0235e-09 -2.10282e-20)
(1 9.93042e-10 -1.42012e-19)
(1 9.63182e-10 5.63276e-19)
(1 9.34039e-10 8.81448e-20)
(1 9.05455e-10 -2.42622e-20)
(1 8.77578e-10 -2.72881e-20)
(1 8.50173e-10 -1.47998e-19)
(1 8.23586e-10 5.55871e-19)
(1 7.97171e-10 7.58192e-20)
(1 7.72206e-10 -4.63821e-20)
(1 7.46083e-10 -6.39966e-20)
(1 7.2448e-10 -2.01278e-19)
(1 6.95239e-10 4.8671e-19)
(1 6.85702e-10 4.5155e-21)
(1 6.36472e-10 -1.41899e-19)
(1 6.78822e-10 -1.97054e-20)
(1 5.499e-10 -7.49924e-19)
(1.00013 -0.00246517 -2.09144e-18)
(1.00198 -0.0074423 -7.47367e-18)
(1.00621 -0.0127624 -6.47062e-18)
(1.01278 -0.018563 -9.15533e-18)
(1.02212 -0.0248957 -1.26496e-18)
(1.03462 -0.0315862 -2.4727e-17)
(1.05063 -0.0382534 1.1114e-17)
(1.07019 -0.0440175 7.24094e-17)
(1.09281 -0.047913 -3.17312e-16)
(1.11731 -0.0486262 -6.45712e-17)
(1.14127 -0.0453857 1.46672e-15)
(1.16255 -0.0390002 1.93714e-15)
(1.17995 -0.0299886 -6.34508e-16)
(1.19229 -0.018865 -4.87656e-15)
(1.19859 -0.00643885 -7.40261e-15)
(1.19836 0.00631805 -7.62132e-15)
(1.19163 0.0181916 -6.7439e-15)
(1.17922 0.0279969 -5.42619e-15)
(1.16262 0.0349161 -4.02748e-15)
(1.14362 0.038704 -2.75966e-15)
(1.12391 0.0396351 -1.72073e-15)
(1.10483 0.0383096 -9.17977e-16)
(1.08726 0.0354396 -3.23412e-16)
(1.07168 0.0316916 9.96486e-17)
(1.05824 0.0276023 3.87317e-16)
(1.0469 0.0235537 5.74797e-16)
(1.03746 0.0197859 6.92939e-16)
(1.02969 0.0164275 7.23532e-16)
(1.02333 0.0135284 6.3218e-16)
(1.01814 0.0110858 4.60302e-16)
(1.01391 0.0090558 4.04104e-16)
(1.01046 0.00735727 7.12751e-16)
(1.00765 0.00587742 1.38173e-15)
(1.00541 0.00449556 1.93925e-15)
(1.0037 0.00312638 1.68686e-15)
(1.00254 0.00176567 3.78091e-16)
(1.0019 0.000508045 -1.24268e-15)
(1.00173 -0.000484786 -1.75597e-15)
(1.00188 -0.00105832 -1.66111e-16)
(1.00217 -0.00114569 3.14505e-15)
(1.00241 -0.000809786 6.54343e-15)
(1.00246 -0.000224004 8.3676e-15)
(1.00225 0.000396089 8.16471e-15)
(1.00182 0.000871532 6.84325e-15)
(1.00127 0.00111064 5.75192e-15)
(1.00068 0.0011145 5.53709e-15)
(1.00017 0.000946802 5.70395e-15)
(0.999772 0.000692004 5.15435e-15)
(0.99952 0.00042324 3.1967e-15)
(0.9994 0.000188299 1.80892e-16)
(0.999386 1.01697e-05 -2.71541e-15)
(0.999445 -0.000106104 -4.30951e-15)
(0.999542 -0.000166474 -4.15743e-15)
(0.999648 -0.000182915 -2.71274e-15)
(0.999744 -0.000169895 -9.12169e-16)
(0.999821 -0.000141471 4.27492e-16)
(0.999877 -0.000108954 9.67253e-16)
(0.999914 -7.96089e-05 8.47989e-16)
(0.999938 -5.66547e-05 4.38733e-16)
(0.999954 -4.0307e-05 6.31182e-17)
(0.999965 -2.9214e-05 -1.27677e-16)
(0.999974 -2.16737e-05 -1.49666e-16)
(0.99998 -1.63211e-05 -8.83914e-17)
(0.999985 -1.23131e-05 -2.16943e-17)
(0.999989 -9.21877e-06 1.36513e-17)
(0.999992 -6.83016e-06 2.12228e-17)
(0.999994 -5.02037e-06 1.27688e-17)
(0.999996 -3.67828e-06 3.45276e-18)
(0.999997 -2.69693e-06 -1.25259e-18)
(0.999998 -1.98192e-06 -2.82727e-18)
(0.999998 -1.45886e-06 -5.93546e-19)
(0.999999 -1.07392e-06 7.82953e-20)
(0.999999 -7.89554e-07 4.24114e-19)
(0.999999 -5.79433e-07 5.13671e-19)
(1 -4.24461e-07 -4.81244e-19)
(1 -3.1041e-07 6.15496e-19)
(1 -2.26583e-07 2.20022e-19)
(1 -1.64994e-07 1.21e-19)
(1 -1.1974e-07 2.1705e-19)
(1 -8.64901e-08 -6.30971e-19)
(1 -6.20699e-08 5.76634e-19)
(1 -4.41498e-08 2.24558e-19)
(1 -3.10124e-08 1.32277e-19)
(1 -2.13942e-08 2.27821e-19)
(1 -1.43623e-08 -6.18915e-19)
(1 -9.23234e-09 5.88725e-19)
(1 -5.49858e-09 2.28258e-19)
(1 -2.7914e-09 1.32422e-19)
(1 -8.36857e-10 1.69082e-19)
(1 5.64396e-10 -4.64784e-19)
(1 1.56097e-09 -3.7914e-19)
(1 2.2601e-09 -8.86832e-19)
(1 2.74255e-09 -8.11404e-19)
(1 3.06574e-09 -7.76134e-19)
(1 3.27373e-09 -1.12451e-19)
(1 3.39705e-09 1.96496e-19)
(1 3.45989e-09 -3.52513e-19)
(1 3.47826e-09 -3.72434e-19)
(1 3.4656e-09 -4.33341e-19)
(1 3.4301e-09 1.46821e-19)
(1 3.37938e-09 3.89045e-19)
(1 3.31742e-09 -2.08396e-19)
(1 3.24869e-09 -2.59137e-19)
(1 3.17493e-09 -3.36476e-19)
(1 3.09888e-09 2.36381e-19)
(1 3.0211e-09 4.74672e-19)
(1 2.94337e-09 -1.27798e-19)
(1 2.86565e-09 -1.86715e-19)
(1 2.78917e-09 -2.75035e-19)
(1 2.71358e-09 2.85794e-19)
(1 2.63981e-09 5.12946e-19)
(1 2.56735e-09 -9.85356e-20)
(1 2.49694e-09 -1.64041e-19)
(1 2.42803e-09 -2.56933e-19)
(1 2.36122e-09 3.00712e-19)
(1 2.29595e-09 5.25304e-19)
(1 2.23275e-09 -8.8026e-20)
(1 2.17105e-09 -1.57093e-19)
(1 2.11133e-09 -2.46919e-19)
(1 2.05305e-09 2.93784e-19)
(1 1.99662e-09 5.51273e-19)
(1 1.94156e-09 1.35029e-20)
(1 1.88823e-09 -3.59451e-20)
(1 1.83618e-09 -1.32983e-19)
(1 1.78573e-09 3.89637e-19)
(1 1.73647e-09 6.21093e-19)
(1 1.6887e-09 4.93429e-20)
(1 1.64204e-09 -3.92712e-20)
(1 1.59674e-09 -1.73947e-19)
(1 1.55248e-09 3.21014e-19)
(1 1.50948e-09 5.41158e-19)
(1 1.46745e-09 -2.43708e-20)
(1 1.42658e-09 -9.37888e-20)
(1 1.38661e-09 -2.04421e-19)
(1 1.34772e-09 3.11361e-19)
(1 1.30966e-09 5.44151e-19)
(1 1.27261e-09 -1.76312e-20)
(1 1.23633e-09 -8.96705e-20)
(1 1.20099e-09 -2.05558e-19)
(1 1.16638e-09 3.05383e-19)
(1 1.13264e-09 5.35217e-19)
(1 1.09959e-09 -2.76177e-20)
(1 1.06735e-09 -9.95418e-20)
(1 1.03576e-09 -2.14945e-19)
(1 1.00493e-09 2.96376e-19)
(1 9.74718e-10 5.26405e-19)
(1 9.4523e-10 -3.62295e-20)
(1 9.16312e-10 -1.07709e-19)
(1 8.88113e-10 -2.22436e-19)
(1 8.60387e-10 2.89207e-19)
(1 8.33514e-10 5.17894e-19)
(1 8.06782e-10 -4.94947e-20)
(1 7.81593e-10 -1.30465e-19)
(1 7.5513e-10 -2.59351e-19)
(1 7.33368e-10 2.36268e-19)
(1 7.03905e-10 4.49426e-19)
(1 6.93386e-10 -1.19299e-19)
(1 6.46373e-10 -2.25843e-19)
(1 6.78656e-10 -2.12718e-19)
(1 5.64846e-10 -2.95576e-19)
(1.00012 -0.00296209 2.29252e-18)
(1.00186 -0.00894997 8.24291e-18)
(1.00586 -0.0153918 6.22305e-18)
(1.01213 -0.0224851 8.79435e-18)
(1.02122 -0.0303272 2.52413e-17)
(1.03363 -0.0387408 -8.84649e-17)
(1.04991 -0.047283 3.93362e-16)
(1.07026 -0.0548184 -7.32419e-16)
(1.09433 -0.060095 -5.98319e-16)
(1.12091 -0.0612009 4.99426e-15)
(1.14693 -0.0570722 3.33217e-15)
(1.16985 -0.0490079 -1.53251e-14)
(1.1886 -0.0376771 -3.9148e-14)
(1.2019 -0.0236728 -4.9872e-14)
(1.20867 -0.00798397 -4.20887e-14)
(1.20826 0.00818237 -2.66344e-14)
(1.20066 0.0232392 -1.27703e-14)
(1.18678 0.0356071 -2.91463e-15)
(1.16841 0.044204 3.17109e-15)
(1.14765 0.0487393 6.56599e-15)
(1.12643 0.0496223 8.25646e-15)
(1.10621 0.0476786 8.88397e-15)
(1.08791 0.0438529 8.85305e-15)
(1.07193 0.0390052 8.43328e-15)
(1.05836 0.0338092 7.81104e-15)
(1.04705 0.0287308 7.09556e-15)
(1.03775 0.0240525 6.33544e-15)
(1.03016 0.0199172 5.50229e-15)
(1.024 0.016372 4.61241e-15)
(1.01899 0.013402 3.98544e-15)
(1.01492 0.0109459 4.31637e-15)
(1.01158 0.00890034 6.11108e-15)
(1.00885 0.00712673 8.64743e-15)
(1.00665 0.00547804 9.64086e-15)
(1.00494 0.00384964 6.77545e-15)
(1.00373 0.00223332 4.89845e-16)
(1.00299 0.000738877 -4.75368e-15)
(1.00267 -0.00044292 -3.06323e-15)
(1.00264 -0.0011284 7.71999e-15)
(1.00275 -0.00123713 2.30044e-14)
(1.00281 -0.000843016 3.41225e-14)
(1.0027 -0.000152047 3.5036e-14)
(1.00237 0.000578786 2.70846e-14)
(1.00185 0.00113556 1.7597e-14)
(1.00123 0.00140819 1.40649e-14)
(1.0006 0.00139741 1.83631e-14)
(1.00006 0.00117919 2.54809e-14)
(0.99965 0.000855248 2.75638e-14)
(0.9994 0.000514816 1.99418e-14)
(0.999296 0.000217515 4.52208e-15)
(0.999307 -6.85115e-06 -1.17303e-14)
(0.999396 -0.000151031 -2.16348e-14)
(0.99952 -0.000222515 -2.21182e-14)
(0.999648 -0.000237372 -1.52028e-14)
(0.999758 -0.000215272 -5.79358e-15)
(0.99984 -0.000175139 1.57697e-15)
(0.999895 -0.000131776 4.85051e-15)
(0.999929 -9.41948e-05 4.55058e-15)
(0.999949 -6.58823e-05 2.526e-15)
(0.999962 -4.64446e-05 5.23912e-16)
(0.99997 -3.36662e-05 -5.84188e-16)
(0.999977 -2.51322e-05 -7.87702e-16)
(0.999983 -1.90598e-05 -5.05242e-16)
(0.999987 -1.44406e-05 -1.54573e-16)
(0.999991 -1.08173e-05 5.50357e-17)
(0.999993 -7.99756e-06 1.05619e-16)
(0.999995 -5.86116e-06 7.04739e-17)
(0.999996 -4.2848e-06 2.1927e-17)
(0.999997 -3.13912e-06 -6.92868e-18)
(0.999998 -2.30777e-06 -1.26069e-17)
(0.999999 -1.70022e-06 -7.69801e-18)
(0.999999 -1.25257e-06 -1.92818e-18)
(0.999999 -9.21318e-07 1.11656e-18)
(0.999999 -6.76297e-07 8.04068e-19)
(1 -4.95568e-07 5.77871e-19)
(1 -3.62625e-07 1.85785e-19)
(1 -2.64964e-07 -2.14547e-20)
(1 -1.93228e-07 1.24636e-19)
(1 -1.40516e-07 -4.92573e-19)
(1 -1.0178e-07 -4.88329e-20)
(1 -7.33232e-08 1.40117e-19)
(1 -5.24367e-08 1.52089e-19)
(1 -3.7121e-08 2.87062e-19)
(1 -2.59042e-08 -3.96429e-19)
(1 -1.76995e-08 7.15446e-21)
(1 -1.17092e-08 1.85337e-19)
(1 -7.34464e-09 1.93911e-19)
(1 -4.17507e-09 3.21568e-19)
(1 -1.88176e-09 -3.82184e-19)
(1 -2.32328e-10 2.10894e-20)
(1 9.45999e-10 1.65603e-19)
(1 1.7783e-09 2.03768e-20)
(1 2.35835e-09 6.75429e-19)
(1 2.75319e-09 1.76332e-19)
(1 3.01385e-09 7.16343e-20)
(1 3.17603e-09 1.24061e-19)
(1 3.26765e-09 -3.36709e-20)
(1 3.30749e-09 6.19006e-19)
(1 3.31098e-09 1.15227e-19)
(1 3.28778e-09 3.84388e-21)
(1 3.24657e-09 5.09763e-20)
(1 3.19213e-09 -1.07164e-19)
(1 3.12944e-09 5.51849e-19)
(1 3.06069e-09 6.04662e-20)
(1 2.98888e-09 -3.54082e-20)
(1 2.91481e-09 2.64636e-20)
(1 2.84038e-09 -1.20874e-19)
(1 2.76568e-09 5.43687e-19)
(1 2.69199e-09 5.32537e-20)
(1 2.61905e-09 -4.43882e-20)
(1 2.54778e-09 1.50363e-20)
(1 2.47774e-09 -1.34033e-19)
(1 2.40966e-09 5.30022e-19)
(1 2.34301e-09 4.01174e-20)
(1 2.2784e-09 -5.63781e-20)
(1 2.21528e-09 3.99489e-21)
(1 2.15417e-09 -1.43167e-19)
(1 2.09452e-09 5.16338e-19)
(1 2.03679e-09 5.04229e-20)
(1 1.98047e-09 -1.59883e-19)
(1 1.92594e-09 4.54505e-19)
(1 1.87275e-09 5.32612e-19)
(1 1.82124e-09 6.14701e-19)
(1 1.77097e-09 2.54824e-20)
(1 1.72225e-09 -2.05293e-19)
(1 1.67469e-09 4.04497e-19)
(1 1.62857e-09 4.72525e-19)
(1 1.58353e-09 5.36964e-19)
(1 1.53981e-09 -7.19397e-20)
(1 1.49709e-09 -3.16402e-19)
(1 1.4556e-09 2.92009e-19)
(1 1.41504e-09 3.72566e-19)
(1 1.3756e-09 4.59764e-19)
(1 1.33704e-09 -1.2313e-19)
(1 1.29952e-09 -3.45338e-19)
(1 1.26281e-09 2.77319e-19)
(1 1.22707e-09 3.63613e-19)
(1 1.19208e-09 4.50427e-19)
(1 1.15799e-09 -1.35542e-19)