/*--------------------------------*- C++ -*----------------------------------*\
  =========                 |
  \\      /  F ield         | OpenFOAM: The Open Source CFD Toolbox
   \\    /   O peration     | Website:  https://openfoam.org
    \\  /    A nd           | Version:  11
     \\/     M anipulation  |
\*---------------------------------------------------------------------------*/
FoamFile
{
    format      ascii;
    class       surfaceScalarField;
    location    "0.0484167";
    object      phi_0;
}
// * * * * * * * * * * * * * * * * * * * * * * * * * * * * * * * * * * * * * //

dimensions      [0 3 -1 0 0 0 0];

internalField   nonuniform List<scalar> 
14638
(
0.00250423
-4.22604e-06
0.00251562
-1.13925e-05
0.00252939
-1.3773e-05
0.00254376
-1.43701e-05
0.00255894
-1.5178e-05
0.00257485
-1.59104e-05
0.00259065
-1.57955e-05
0.0026048
-1.41559e-05
0.00261524
-1.04412e-05
0.00262006
-4.81584e-06
0.00261776
2.29707e-06
0.00260926
8.49666e-06
0.00259676
1.25014e-05
0.00258241
1.43486e-05
0.002568
1.44104e-05
0.00255472
1.32803e-05
0.00254317
1.15546e-05
0.00253352
9.64795e-06
0.00252571
7.81192e-06
0.00251953
6.181e-06
0.00251472
4.80629e-06
0.00251103
3.68816e-06
0.00250823
2.80159e-06
0.00250612
2.11168e-06
0.00250454
1.58222e-06
0.00250336
1.18011e-06
0.00250248
8.77127e-07
0.00250183
6.50189e-07
0.00250135
4.80981e-07
0.002501
3.55253e-07
0.00250073
2.62078e-07
0.00250054
1.93167e-07
0.0025004
1.42278e-07
0.00250029
1.04742e-07
0.00250022
7.70786e-08
0.00250016
5.67062e-08
0.00250012
4.17106e-08
0.00250009
3.06772e-08
0.00250006
2.25616e-08
0.00250005
1.65935e-08
0.00250004
1.22054e-08
0.00250003
8.97921e-09
0.00250002
6.6076e-09
0.00250001
4.86431e-09
0.00250001
3.58305e-09
0.00250001
2.64133e-09
0.00250001
1.94924e-09
0.00250001
1.44053e-09
0.0025
1.06664e-09
0.0025
7.91782e-10
0.0025
5.89736e-10
0.0025
4.41043e-10
0.0025
3.31668e-10
0.0025
2.51024e-10
0.0025
1.9172e-10
0.0025
1.47947e-10
0.0025
1.1568e-10
0.0025
9.16899e-11
0.0025
7.39475e-11
0.0025
6.06266e-11
0.0025
5.07318e-11
0.0025
4.31863e-11
0.0025
3.75193e-11
0.0025
3.30807e-11
0.0025
2.9734e-11
0.0025
2.7045e-11
0.0025
2.50116e-11
0.0025
2.32862e-11
0.0025
2.19558e-11
0.0025
2.07623e-11
0.0025
1.98412e-11
0.0025
1.89578e-11
0.0025
1.82703e-11
0.0025
1.75669e-11
0.0025
1.70202e-11
0.0025
1.64303e-11
0.0025
1.5974e-11
0.0025
1.5457e-11
0.0025
1.5059e-11
0.0025
1.45899e-11
0.0025
1.4229e-11
0.0025
1.37933e-11
0.0025
1.34587e-11
0.0025
1.3048e-11
0.0025
1.27347e-11
0.0025
1.23451e-11
0.0025
1.20497e-11
0.0025
1.16788e-11
0.0025
1.13999e-11
0.0025
1.10464e-11
0.0025
1.0783e-11
0.0025
1.04461e-11
0.0025
1.0197e-11
0.0025
9.87596e-12
0.0025
9.64007e-12
0.0025
9.33405e-12
0.0025
9.11087e-12
0.0025
8.81923e-12
0.0025
8.60812e-12
0.0025
8.33005e-12
0.0025
8.13016e-12
0.0025
7.86468e-12
0.0025
7.67507e-12
0.0025
7.42145e-12
0.0025
7.24133e-12
0.0025
6.99887e-12
0.0025
6.82758e-12
0.0025
6.59547e-12
0.0025
6.43252e-12
0.0025
6.2103e-12
0.0025
6.05503e-12
0.0025
5.84219e-12
0.0025
5.694e-12
0.0025
5.48975e-12
0.0025
5.34824e-12
0.0025
5.15205e-12
0.0025
5.01693e-12
0.0025
4.8285e-12
0.0025
4.69963e-12
0.0025
4.5185e-12
0.0025
4.39544e-12
0.0025
4.22127e-12
0.0025
4.1035e-12
0.0025
3.93582e-12
0.0025
3.82307e-12
0.0025
3.66163e-12
0.0025
3.55366e-12
0.0025
3.39815e-12
0.0025
3.29468e-12
0.0025
3.1448e-12
0.0025
3.0456e-12
0.0025
2.90114e-12
0.0025
2.80595e-12
0.0025
2.66672e-12
0.0025
2.5754e-12
0.0025
2.44108e-12
0.0025
2.35345e-12
0.0025
2.22379e-12
0.0025
2.13953e-12
0.0025
2.0143e-12
0.0025
1.93315e-12
0.0025
1.81203e-12
0.0025
1.73381e-12
0.0025
1.61661e-12
0.0025
1.54113e-12
0.0025
1.42787e-12
0.0025
1.35545e-12
0.0025
1.24652e-12
0.0025
1.17814e-12
0.0025
1.0748e-12
0.0025
1.01205e-12
0.0025
9.16325e-13
0.0025
8.58159e-13
0.0025
7.7518e-13
0.0025
7.08815e-13
0.0025
6.2564e-13
0.0025
6.08082e-13
0.0025
5.09082e-13
0.0025
5.43161e-13
4.6277e-13
0.00250419
-8.41962e-06
0.00251551
-2.27089e-05
0.00252923
-2.74948e-05
0.00254363
-2.87656e-05
0.00255894
-3.04884e-05
0.00257512
-3.20906e-05
0.00259133
-3.20054e-05
0.002606
-2.88306e-05
0.00261693
-2.13647e-05
0.00262202
-9.91016e-06
0.00261956
4.75971e-06
0.0026106
1.74564e-05
0.00259756
2.55369e-05
0.00258274
2.91666e-05
0.002568
2.91583e-05
0.00255451
2.67622e-05
0.00254286
2.3205e-05
0.00253319
1.93203e-05
0.0025254
1.56061e-05
0.00251925
1.23239e-05
0.00251449
9.5678e-06
0.00251085
7.33266e-06
0.00250809
5.56441e-06
0.00250601
4.19079e-06
0.00250445
3.13806e-06
0.00250329
2.3394e-06
0.00250243
1.73811e-06
0.00250179
1.28802e-06
0.00250132
9.52599e-07
0.00250097
7.0346e-07
0.00250072
5.18881e-07
0.00250053
3.82398e-07
0.00250039
2.81627e-07
0.00250029
2.07305e-07
0.00250021
1.52539e-07
0.00250015
1.12209e-07
0.00250011
8.25247e-08
0.00250008
6.06848e-08
0.00250006
4.4621e-08
0.00250004
3.28083e-08
0.00250003
2.41234e-08
0.00250002
1.77381e-08
0.00250002
1.30445e-08
0.00250001
9.59455e-09
0.00250001
7.05911e-09
0.00250001
5.19571e-09
0.00250001
3.82646e-09
0.0025
2.82011e-09
0.0025
2.08067e-09
0.0025
1.5372e-09
0.0025
1.13788e-09
0.0025
8.44152e-10
0.0025
6.28318e-10
0.0025
4.69282e-10
0.0025
3.52457e-10
0.0025
2.66316e-10
0.0025
2.03042e-10
0.0025
1.56155e-10
0.0025
1.21647e-10
0.0025
9.58686e-11
0.0025
7.68876e-11
0.0025
6.25165e-11
0.0025
5.18691e-11
0.0025
4.36609e-11
0.0025
3.76205e-11
0.0025
3.28447e-11
0.0025
2.93439e-11
0.0025
2.64348e-11
0.0025
2.43349e-11
0.0025
2.24782e-11
0.0025
2.11592e-11
0.0025
1.98832e-11
0.0025
1.89995e-11
0.0025
1.80679e-11
0.0025
1.74509e-11
0.0025
1.67289e-11
0.0025
1.62656e-11
0.0025
1.56605e-11
0.0025
1.5282e-11
0.0025
1.47497e-11
0.0025
1.44234e-11
0.0025
1.39374e-11
0.0025
1.36424e-11
0.0025
1.31861e-11
0.0025
1.29121e-11
0.0025
1.2478e-11
0.0025
1.22195e-11
0.0025
1.18045e-11
0.0025
1.15603e-11
0.0025
1.11631e-11
0.0025
1.09329e-11
0.0025
1.05532e-11
0.0025
1.03358e-11
0.0025
9.97291e-12
0.0025
9.76714e-12
0.0025
9.42041e-12
0.0025
9.2264e-12
0.0025
8.89568e-12
0.0025
8.7133e-12
0.0025
8.39787e-12
0.0025
8.22625e-12
0.0025
7.92496e-12
0.0025
7.76286e-12
0.0025
7.47512e-12
0.0025
7.32173e-12
0.0025
7.04672e-12
0.0025
6.9013e-12
0.0025
6.63802e-12
0.0025
6.50024e-12
0.0025
6.2483e-12
0.0025
6.11743e-12
0.0025
5.87639e-12
0.0025
5.75172e-12
0.0025
5.52019e-12
0.0025
5.40152e-12
0.0025
5.17906e-12
0.0025
5.06632e-12
0.0025
4.8524e-12
0.0025
4.74565e-12
0.0025
4.53991e-12
0.0025
4.4388e-12
0.0025
4.2407e-12
0.0025
4.14441e-12
0.0025
3.95337e-12
0.0025
3.86167e-12
0.0025
3.67754e-12
0.0025
3.59016e-12
0.0025
3.41281e-12
0.0025
3.32954e-12
0.0025
3.15875e-12
0.0025
3.0793e-12
0.0025
2.91486e-12
0.0025
2.83899e-12
0.0025
2.68063e-12
0.0025
2.60832e-12
0.0025
2.45572e-12
0.0025
2.38693e-12
0.0025
2.23986e-12
0.0025
2.17439e-12
0.0025
2.03271e-12
0.0025
1.9704e-12
0.0025
1.83368e-12
0.0025
1.77464e-12
0.0025
1.64264e-12
0.0025
1.5869e-12
0.0025
1.45976e-12
0.0025
1.40804e-12
0.0025
1.2869e-12
0.0025
1.24123e-12
0.0025
1.12851e-12
0.0025
1.09185e-12
0.0025
9.89965e-13
0.0025
9.63246e-13
0.0025
8.7724e-13
0.0025
8.51826e-13
0.0025
7.77024e-13
0.0025
8.0657e-13
0.0025
7.14111e-13
0.0025
8.26804e-13
8.1466e-13
0.00250412
-1.25415e-05
0.00251523
-3.38175e-05
0.00252877
-4.10365e-05
0.00254313
-4.3124e-05
0.00255862
-4.5975e-05
0.00257525
-4.8724e-05
0.00259221
-4.8967e-05
0.00260787
-4.44865e-05
0.00261972
-3.32213e-05
0.00262536
-1.55422e-05
0.00262253
7.58869e-06
0.00261262
2.73605e-05
0.00259854
3.96198e-05
0.00258284
4.48657e-05
0.0025675
4.4501e-05
0.0025537
4.05611e-05
0.00254194
3.49654e-05
0.00253229
2.89704e-05
0.00252459
2.33065e-05
0.00251857
1.8344e-05
0.00251393
1.42039e-05
0.0025104
1.08626e-05
0.00250774
8.22924e-06
0.00250574
6.18954e-06
0.00250425
4.62989e-06
0.00250314
3.44874e-06
0.00250232
2.56069e-06
0.00250171
1.89666e-06
0.00250126
1.4022e-06
0.00250093
1.03517e-06
0.00250068
7.63382e-07
0.0025005
5.62486e-07
0.00250037
4.14199e-07
0.00250027
3.04856e-07
0.0025002
2.24296e-07
0.00250015
1.6498e-07
0.00250011
1.21325e-07
0.00250008
8.92089e-08
0.00250006
6.55878e-08
0.00250004
4.82187e-08
0.00250003
3.54491e-08
0.00250002
2.6061e-08
0.00250002
1.91603e-08
0.00250001
1.40881e-08
0.00250001
1.03607e-08
0.00250001
7.62133e-09
0.0025
5.60851e-09
0.0025
4.12926e-09
0.0025
3.04241e-09
0.0025
2.24369e-09
0.0025
1.65693e-09
0.0025
1.22545e-09
0.0025
9.08407e-10
0.0025
6.74854e-10
0.0025
5.03418e-10
0.0025
3.77201e-10
0.0025
2.84488e-10
0.0025
2.15845e-10
0.0025
1.65409e-10
0.0025
1.27783e-10
0.0025
1.00164e-10
0.0025
7.93623e-11
0.0025
6.40495e-11
0.0025
5.22962e-11
0.0025
4.37012e-11
0.0025
3.69592e-11
0.0025
3.2113e-11
0.0025
2.81583e-11
0.0025
2.53648e-11
0.0025
2.29202e-11
0.0025
2.12529e-11
0.0025
1.96576e-11
0.0025
1.86261e-11
0.0025
1.75138e-11
0.0025
1.68475e-11
0.0025
1.60194e-11
0.0025
1.55698e-11
0.0025
1.49089e-11
0.0025
1.45801e-11
0.0025
1.40161e-11
0.0025
1.37493e-11
0.0025
1.3239e-11
0.0025
1.30046e-11
0.0025
1.25261e-11
0.0025
1.23116e-11
0.0025
1.18558e-11
0.0025
1.16538e-11
0.0025
1.12168e-11
0.0025
1.1026e-11
0.0025
1.06057e-11
0.0025
1.04261e-11
0.0025
1.0023e-11
0.0025
9.8537e-12
0.0025
9.46764e-12
0.0025
9.30779e-12
0.0025
8.93829e-12
0.0025
8.78847e-12
0.0025
8.43551e-12
0.0025
8.29591e-12
0.0025
7.95907e-12
0.0025
7.82909e-12
0.0025
7.50705e-12
0.0025
7.3854e-12
0.0025
7.07763e-12
0.0025
6.9634e-12
0.0025
6.66919e-12
0.0025
6.5619e-12
0.0025
6.27987e-12
0.0025
6.17935e-12
0.0025
5.90924e-12
0.0025
5.81455e-12
0.0025
5.55601e-12
0.0025
5.46629e-12
0.0025
5.2178e-12
0.0025
5.13294e-12
0.0025
4.89381e-12
0.0025
4.81377e-12
0.0025
4.58389e-12
0.0025
4.50914e-12
0.0025
4.28792e-12
0.0025
4.21791e-12
0.0025
4.00496e-12
0.0025
3.93866e-12
0.0025
3.73327e-12
0.0025
3.67063e-12
0.0025
3.47267e-12
0.0025
3.41358e-12
0.0025
3.22282e-12
0.0025
3.16703e-12
0.0025
2.98317e-12
0.0025
2.93056e-12
0.0025
2.75341e-12
0.0025
2.7039e-12
0.0025
2.53339e-12
0.0025
2.48711e-12
0.0025
2.32291e-12
0.0025
2.2799e-12
0.0025
2.12194e-12
0.0025
2.0819e-12
0.0025
1.92998e-12
0.0025
1.89277e-12
0.0025
1.74657e-12
0.0025
1.71239e-12
0.0025
1.572e-12
0.0025
1.54106e-12
0.0025
1.40712e-12
0.0025
1.38079e-12
0.0025
1.25481e-12
0.0025
1.23584e-12
0.0025
1.12144e-12
0.0025
1.11366e-12
0.0025
1.01452e-12
0.0025
1.02132e-12
0.0025
9.40599e-13
0.0025
9.57543e-13
0.0025
8.95021e-13
0.0025
9.71307e-13
0.0025
9.00366e-13
0.0025
1.08437e-12
1.12444e-12
0.00250401
-1.65482e-05
0.00251479
-4.45968e-05
0.00252804
-5.42858e-05
0.00254231
-5.74036e-05
0.00255805
-6.17061e-05
0.00257536
-6.60335e-05
0.00259347
-6.70833e-05
0.00261067
-6.1689e-05
0.00262404
-4.6585e-05
0.00263056
-2.20606e-05
0.00262712
1.10255e-05
0.00261569
3.8791e-05
0.00259995
5.53585e-05
0.00258289
6.19245e-05
0.00256666
6.07362e-05
0.0025524
5.48166e-05
0.0025405
4.68676e-05
0.0025309
3.85664e-05
0.00252336
3.08504e-05
0.00251753
2.41701e-05
0.00251309
1.86459e-05
0.00250974
1.42177e-05
0.00250722
1.07457e-05
0.00250534
8.06741e-06
0.00250395
6.02587e-06
0.00250291
4.48354e-06
0.00250215
3.32612e-06
0.00250158
2.46194e-06
0.00250116
1.81917e-06
0.00250086
1.34246e-06
0.00250063
9.89681e-07
0.00250046
7.29058e-07
0.00250034
5.36759e-07
0.00250025
3.95004e-07
0.00250018
2.90589e-07
0.00250014
2.13721e-07
0.0025001
1.57156e-07
0.00250007
1.15547e-07
0.00250005
8.49456e-08
0.00250004
6.24453e-08
0.00250003
4.59041e-08
0.00250002
3.37436e-08
0.00250002
2.48053e-08
0.00250001
1.82358e-08
0.00250001
1.3408e-08
0.00250001
9.86005e-09
0.0025
7.25318e-09
0.0025
5.33744e-09
0.0025
3.92996e-09
0.0025
2.89564e-09
0.0025
2.13585e-09
0.0025
1.5772e-09
0.0025
1.16683e-09
0.0025
8.64656e-10
0.0025
6.42681e-10
0.0025
4.79292e-10
0.0025
3.59397e-10
0.0025
2.70746e-10
0.0025
2.0563e-10
0.0025
1.5715e-10
0.0025
1.21554e-10
0.0025
9.47924e-11
0.0025
7.51379e-11
0.0025
6.01366e-11
0.0025
4.92096e-11
0.0025
4.06881e-11
0.0025
3.45723e-11
0.0025
2.96232e-11
0.0025
2.6146e-11
0.0025
2.31739e-11
0.0025
2.11704e-11
0.0025
1.92889e-11
0.0025
1.80901e-11
0.0025
1.68381e-11
0.0025
1.6129e-11
0.0025
1.52561e-11
0.0025
1.48134e-11
0.0025
1.41331e-11
0.0025
1.38296e-11
0.0025
1.32563e-11
0.0025
1.30272e-11
0.0025
1.25163e-11
0.0025
1.23254e-11
0.0025
1.18484e-11
0.0025
1.16762e-11
0.0025
1.12198e-11
0.0025
1.10562e-11
0.0025
1.06161e-11
0.0025
1.04602e-11
0.0025
1.00363e-11
0.0025
9.88961e-12
0.0025
9.48217e-12
0.0025
9.34402e-12
0.0025
8.95251e-12
0.0025
8.82214e-12
0.0025
8.44646e-12
0.0025
8.32501e-12
0.0025
7.96605e-12
0.0025
7.85442e-12
0.0025
7.51228e-12
0.0025
7.40936e-12
0.0025
7.08242e-12
0.0025
6.98684e-12
0.0025
6.6744e-12
0.0025
6.5853e-12
0.0025
6.2867e-12
0.0025
6.20361e-12
0.0025
5.9172e-12
0.0025
5.84016e-12
0.0025
5.56609e-12
0.0025
5.49425e-12
0.0025
5.23229e-12
0.0025
5.16443e-12
0.0025
4.91226e-12
0.0025
4.84862e-12
0.0025
4.60596e-12
0.0025
4.54654e-12
0.0025
4.31293e-12
0.0025
4.25861e-12
0.0025
4.03379e-12
0.0025
3.98421e-12
0.0025
3.76746e-12
0.0025
3.72101e-12
0.0025
3.51157e-12
0.0025
3.46835e-12
0.0025
3.26625e-12
0.0025
3.22627e-12
0.0025
3.03136e-12
0.0025
2.9946e-12
0.0025
2.80661e-12
0.0025
2.77288e-12
0.0025
2.59172e-12
0.0025
2.56086e-12
0.0025
2.38639e-12
0.0025
2.35857e-12
0.0025
2.1906e-12
0.0025
2.16588e-12
0.0025
2.00437e-12
0.0025
1.98272e-12
0.0025
1.82776e-12
0.0025
1.80902e-12
0.0025
1.66029e-12
0.0025
1.64486e-12
0.0025
1.50244e-12
0.0025
1.49063e-12
0.0025
1.35516e-12
0.0025
1.34844e-12
0.0025
1.22212e-12
0.0025
1.22439e-12
0.0025
1.1123e-12
0.0025
1.12934e-12
0.0025
1.03574e-12
0.0025
1.07229e-12
0.0025
1.00187e-12
0.0025
1.05534e-12
0.0025
1.01059e-12
0.0025
1.12457e-12
0.0025
1.08272e-12
0.0025
1.326e-12
1.40779e-12
0.00250384
-2.03893e-05
0.00251415
-5.49073e-05
0.00252697
-6.71068e-05
0.00254111
-7.15368e-05
0.00255713
-7.77277e-05
0.00257533
-8.42382e-05
0.00259504
-8.67929e-05
0.00261445
-8.1102e-05
0.00263005
-6.21803e-05
0.00263792
-2.99271e-05
0.00263355
1.53901e-05
0.00261987
5.24768e-05
0.00260175
7.34726e-05
0.00258281
8.087e-05
0.00256538
7.81627e-05
0.00255055
6.96478e-05
0.0025385
5.89178e-05
0.00252901
4.80548e-05
0.0025217
3.81608e-05
0.00251615
2.97216e-05
0.00251197
2.28207e-05
0.00250886
1.73357e-05
0.00250654
1.30635e-05
0.00250482
9.78468e-06
0.00250355
7.29528e-06
0.00250261
5.42036e-06
0.00250192
4.0167e-06
0.00250141
2.97059e-06
0.00250104
2.19358e-06
0.00250077
1.61794e-06
0.00250056
1.19232e-06
0.00250041
8.78071e-07
0.0025003
6.46321e-07
0.00250022
4.75549e-07
0.00250016
3.49794e-07
0.00250012
2.57237e-07
0.00250009
1.89139e-07
0.00250007
1.39051e-07
0.00250005
1.02219e-07
0.00250004
7.51384e-08
0.00250003
5.52313e-08
0.00250002
4.05971e-08
0.00250001
2.98409e-08
0.00250001
2.19354e-08
0.00250001
1.6126e-08
0.00250001
1.18568e-08
0.0025
8.72003e-09
0.0025
6.41494e-09
0.0025
4.72147e-09
0.0025
3.47699e-09
0.0025
2.56288e-09
0.0025
1.89082e-09
0.0025
1.39712e-09
0.0025
1.03371e-09
0.0025
7.66717e-10
0.0025
5.70324e-10
0.0025
4.26156e-10
0.0025
3.19594e-10
0.0025
2.4132e-10
0.0025
1.83107e-10
0.0025
1.4037e-10
0.0025
1.08312e-10
0.0025
8.48064e-11
0.0025
6.69294e-11
0.0025
5.39195e-11
0.0025
4.38266e-11
0.0025
3.65967e-11
0.0025
3.07809e-11
0.0025
2.67059e-11
0.0025
2.32859e-11
0.0025
2.09715e-11
0.0025
1.88504e-11
0.0025
1.75342e-11
0.0025
1.61743e-11
0.0025
1.54158e-11
0.0025
1.44779e-11
0.0025
1.40279e-11
0.0025
1.33252e-11
0.0025
1.30489e-11
0.0025
1.2484e-11
0.0025
1.2297e-11
0.0025
1.17959e-11
0.0025
1.16427e-11
0.0025
1.11716e-11
0.0025
1.10352e-11
0.0025
1.05825e-11
0.0025
1.04516e-11
0.0025
1.00141e-11
0.0025
9.88841e-12
0.0025
9.46628e-12
0.0025
9.3478e-12
0.0025
8.94124e-12
0.0025
8.82883e-12
0.0025
8.43721e-12
0.0025
8.33264e-12
0.0025
7.95553e-12
0.0025
7.85878e-12
0.0025
7.49816e-12
0.0025
7.40875e-12
0.0025
7.0661e-12
0.0025
6.98529e-12
0.0025
6.65757e-12
0.0025
6.58367e-12
0.0025
6.27082e-12
0.0025
6.20268e-12
0.0025
5.90402e-12
0.0025
5.84144e-12
0.0025
5.55484e-12
0.0025
5.4979e-12
0.0025
5.22367e-12
0.0025
5.1711e-12
0.0025
4.90911e-12
0.0025
4.85962e-12
0.0025
4.60761e-12
0.0025
4.56173e-12
0.0025
4.31902e-12
0.0025
4.27656e-12
0.0025
4.04312e-12
0.0025
4.00559e-12
0.0025
3.78107e-12
0.0025
3.74781e-12
0.0025
3.53148e-12
0.0025
3.50047e-12
0.0025
3.29159e-12
0.0025
3.26321e-12
0.0025
3.06188e-12
0.0025
3.03623e-12
0.0025
2.84224e-12
0.0025
2.81922e-12
0.0025
2.63222e-12
0.0025
2.61179e-12
0.0025
2.43167e-12
0.0025
2.41396e-12
0.0025
2.24058e-12
0.0025
2.22603e-12
0.0025
2.05921e-12
0.0025
2.04818e-12
0.0025
1.88806e-12
0.0025
1.88025e-12
0.0025
1.72686e-12
0.0025
1.72214e-12
0.0025
1.57491e-12
0.0025
1.57385e-12
0.0025
1.43296e-12
0.0025
1.43643e-12
0.0025
1.30333e-12
0.0025
1.31256e-12
0.0025
1.19052e-12
0.0025
1.20986e-12
0.0025
1.1046e-12
0.0025
1.14168e-12
0.0025
1.05891e-12
0.0025
1.12002e-12
0.0025
1.0643e-12
0.0025
1.14784e-12
0.0025
1.12278e-12
0.0025
1.26702e-12
0.0025
1.25588e-12
0.0025
1.53435e-12
1.65355e-12
0.00250361
-2.4004e-05
0.00251329
-6.45848e-05
0.00252552
-7.93302e-05
0.0025394
-8.54171e-05
0.00255572
-9.40475e-05
0.00257502
-0.000103543
0.0025968
-0.000108575
0.00261923
-0.000103526
0.00263801
-8.0963e-05
0.00264786
-3.97759e-05
0.00264212
2.11292e-05
0.00262522
6.93725e-05
0.00260385
9.48422e-05
0.00258243
0.00010229
0.00256353
9.70715e-05
0.00254804
8.51371e-05
0.00253587
7.10824e-05
0.00252658
5.73501e-05
0.0025196
4.51383e-05
0.00251441
3.49054e-05
0.00251059
2.66486e-05
0.00250777
2.01522e-05
0.0025057
1.5132e-05
0.00250418
1.13024e-05
0.00250307
8.40863e-06
0.00250225
6.23708e-06
0.00250166
4.61592e-06
0.00250122
3.41032e-06
0.00250089
2.51636e-06
0.00250066
1.85492e-06
0.00250048
1.36634e-06
0.00250035
1.00588e-06
0.00250026
7.40199e-07
0.00250019
5.44511e-07
0.00250014
4.00458e-07
0.0025001
2.94459e-07
0.00250008
2.16486e-07
0.00250006
1.59144e-07
0.00250004
1.16982e-07
0.00250003
8.59853e-08
0.00250002
6.3201e-08
0.00250002
4.64525e-08
0.00250001
3.41428e-08
0.00250001
2.50959e-08
0.00250001
1.84477e-08
0.0025
1.35623e-08
0.0025
9.97287e-09
0.0025
7.33519e-09
0.0025
5.39743e-09
0.0025
3.97343e-09
0.0025
2.92748e-09
0.0025
2.15854e-09
0.0025
1.5937e-09
0.0025
1.17803e-09
0.0025
8.7251e-10
0.0025
6.4775e-10
0.0025
4.82842e-10
0.0025
3.6105e-10
0.0025
2.7157e-10
0.0025
2.05101e-10
0.0025
1.56276e-10
0.0025
1.19687e-10
0.0025
9.28734e-11
0.0025
7.25395e-11
0.0025
5.7755e-11
0.0025
4.63507e-11
0.0025
3.8149e-11
0.0025
3.15914e-11
0.0025
2.69895e-11
0.0025
2.31633e-11
0.0025
2.0598e-11
0.0025
1.82883e-11
0.0025
1.68467e-11
0.0025
1.53711e-11
0.0025
1.4589e-11
0.0025
1.36328e-11
0.0025
1.32238e-11
0.0025
1.25223e-11
0.0025
1.22964e-11
0.0025
1.1721e-11
0.0025
1.15725e-11
0.0025
1.10639e-11
0.0025
1.09548e-11
0.0025
1.04862e-11
0.0025
1.03924e-11
0.0025
9.94439e-12
0.0025
9.85004e-12
0.0025
9.41353e-12
0.0025
9.31728e-12
0.0025
8.89602e-12
0.0025
8.803e-12
0.0025
8.39717e-12
0.0025
8.31019e-12
0.0025
7.918e-12
0.0025
7.83911e-12
0.0025
7.45834e-12
0.0025
7.38726e-12
0.0025
7.02267e-12
0.0025
6.96161e-12
0.0025
6.61581e-12
0.0025
6.56018e-12
0.0025
6.23245e-12
0.0025
6.18139e-12
0.0025
5.86736e-12
0.0025
5.82022e-12
0.0025
5.52101e-12
0.0025
5.47879e-12
0.0025
5.19172e-12
0.0025
5.1543e-12
0.0025
4.88021e-12
0.0025
4.84685e-12
0.0025
4.58563e-12
0.0025
4.55394e-12
0.0025
4.30286e-12
0.0025
4.27341e-12
0.0025
4.03237e-12
0.0025
4.00489e-12
0.0025
3.77348e-12
0.0025
3.7504e-12
0.0025
3.52883e-12
0.0025
3.50973e-12
0.0025
3.29636e-12
0.0025
3.27828e-12
0.0025
3.07254e-12
0.0025
3.05621e-12
0.0025
2.85825e-12
0.0025
2.84428e-12
0.0025
2.65373e-12
0.0025
2.64215e-12
0.0025
2.45869e-12
0.0025
2.44955e-12
0.0025
2.273e-12
0.0025
2.26647e-12
0.0025
2.09665e-12
0.0025
2.09333e-12
0.0025
1.93008e-12
0.0025
1.93012e-12
0.0025
1.77307e-12
0.0025
1.7776e-12
0.0025
1.626e-12
0.0025
1.63564e-12
0.0025
1.48922e-12
0.0025
1.50411e-12
0.0025
1.36363e-12
0.0025
1.38361e-12
0.0025
1.25101e-12
0.0025
1.27682e-12
0.0025
1.15608e-12
0.0025
1.19309e-12
0.0025
1.09353e-12
0.0025
1.14979e-12
0.0025
1.077e-12
0.0025
1.16155e-12
0.0025
1.1223e-12
0.0025
1.23267e-12
0.0025
1.23012e-12
0.0025
1.39951e-12
0.0025
1.41966e-12
0.0025
1.71749e-12
1.87e-12
0.00250332
-2.73198e-05
0.00251217
-7.34355e-05
0.00252358
-9.07444e-05
0.00253705
-9.88853e-05
0.00255362
-0.000110616
0.0025742
-0.00012412
0.00259857
-0.000132952
0.00262499
-0.000129945
0.00264827
-0.000104238
0.00266099
-5.25003e-05
0.00265323
2.88873e-05
0.00263184
9.07676e-05
0.00260611
0.000120571
0.00258156
0.000126841
0.0025609
0.00011773
0.00254473
0.00010131
0.00253254
8.32717e-05
0.00252356
6.63241e-05
0.00251704
5.16568e-05
0.00251234
3.96132e-05
0.00250894
3.00428e-05
0.00250649
2.26002e-05
0.00250472
1.69006e-05
0.00250344
1.25831e-05
0.00250251
9.33822e-06
0.00250184
6.91332e-06
0.00250135
5.10883e-06
0.00250099
3.7702e-06
0.00250072
2.77948e-06
0.00250053
2.04751e-06
0.00250039
1.50743e-06
0.00250029
1.10931e-06
0.00250021
8.16072e-07
0.00250015
6.00188e-07
0.00250011
4.41328e-07
0.00250008
3.24467e-07
0.00250006
2.38523e-07
0.00250004
1.75329e-07
0.00250003
1.2887e-07
0.00250002
9.47187e-08
0.00250002
6.96167e-08
0.00250001
5.11657e-08
0.00250001
3.76051e-08
0.00250001
2.76392e-08
0.00250001
2.0316e-08
0.0025
1.49346e-08
0.0025
1.09808e-08
0.0025
8.0755e-09
0.0025
5.94111e-09
0.0025
4.37265e-09
0.0025
3.22058e-09
0.0025
2.37369e-09
0.0025
1.75156e-09
0.0025
1.2938e-09
0.0025
9.57388e-10
0.0025
7.09911e-10
0.0025
5.28272e-10
0.0025
3.94156e-10
0.0025
2.95614e-10
0.0025
2.22479e-10
0.0025
1.68719e-10
0.0025
1.2851e-10
0.0025
9.90214e-11
0.0025
7.6744e-11
0.0025
6.05315e-11
0.0025
4.80824e-11
0.0025
3.90888e-11
0.0025
3.19631e-11
0.0025
2.69241e-11
0.0025
2.2823e-11
0.0025
2.0071e-11
0.0025
1.76116e-11
0.0025
1.60976e-11
0.0025
1.45762e-11
0.0025
1.37817e-11
0.0025
1.27968e-11
0.0025
1.23959e-11
0.0025
1.16931e-11
0.0025
1.14735e-11
0.0025
1.09251e-11
0.0025
1.08137e-11
0.0025
1.03438e-11
0.0025
1.02618e-11
0.0025
9.81682e-12
0.0025
9.73938e-12
0.0025
9.31046e-12
0.0025
9.22964e-12
0.0025
8.81076e-12
0.0025
8.73004e-12
0.0025
8.32848e-12
0.0025
8.24875e-12
0.0025
7.86194e-12
0.0025
7.78276e-12
0.0025
7.41131e-12
0.0025
7.33762e-12
0.0025
6.97914e-12
0.0025
6.90787e-12
0.0025
6.56728e-12
0.0025
6.50014e-12
0.0025
6.18117e-12
0.0025
6.1208e-12
0.0025
5.81601e-12
0.0025
5.75936e-12
0.0025
5.47197e-12
0.0025
5.4205e-12
0.0025
5.14795e-12
0.0025
5.10065e-12
0.0025
4.83945e-12
0.0025
4.7966e-12
0.0025
4.54804e-12
0.0025
4.50907e-12
0.0025
4.27276e-12
0.0025
4.23482e-12
0.0025
4.00898e-12
0.0025
3.97217e-12
0.0025
3.75701e-12
0.0025
3.71999e-12
0.0025
3.51551e-12
0.0025
3.48229e-12
0.0025
3.28833e-12
0.0025
3.25886e-12
0.0025
3.07269e-12
0.0025
3.04358e-12
0.0025
2.86477e-12
0.0025
2.83721e-12
0.0025
2.66585e-12
0.0025
2.64078e-12
0.0025
2.4764e-12
0.0025
2.45373e-12
0.0025
2.29584e-12
0.0025
2.27566e-12
0.0025
2.12449e-12
0.0025
2.10686e-12
0.0025
1.96213e-12
0.0025
1.94755e-12
0.0025
1.8092e-12
0.0025
1.79931e-12
0.0025
1.66608e-12
0.0025
1.66402e-12
0.0025
1.53398e-12
0.0025
1.53939e-12
0.0025
1.41072e-12
0.0025
1.42426e-12
0.0025
1.29853e-12
0.0025
1.3226e-12
0.0025
1.20155e-12
0.0025
1.23508e-12
0.0025
1.12434e-12
0.0025
1.17114e-12
0.0025
1.08293e-12
0.0025
1.15358e-12
0.0025
1.09579e-12
0.0025
1.19926e-12
0.0025
1.17879e-12
0.0025
1.31264e-12
0.0025
1.33312e-12
0.0025
1.52089e-12
0.0025
1.5719e-12
0.0025
1.87757e-12
2.0622e-12
0.00250293
-3.02503e-05
0.00251073
-8.12322e-05
0.00252107
-0.000101087
0.0025339
-0.000111713
0.00255058
-0.000127301
0.00257255
-0.000146084
0.00260007
-0.000160476
0.0026317
-0.000161577
0.0026613
-0.000133834
0.00267818
-6.93784e-05
0.00266745
3.96143e-05
0.00263977
0.000118444
0.00260828
0.000152065
0.00257987
0.000155251
0.00255724
0.000140356
0.00254044
0.000118108
0.0025284
9.53191e-05
0.00251993
7.47955e-05
0.00251402
5.7558e-05
0.00250992
4.37199e-05
0.00250705
3.29092e-05
0.00250504
2.46111e-05
0.00250362
1.83199e-05
0.00250261
1.35914e-05
0.00250189
1.00587e-05
0.00250138
7.43093e-06
0.002501
5.48239e-06
0.00250073
4.04084e-06
0.00250053
2.97615e-06
0.00250039
2.19079e-06
0.00250029
1.61201e-06
0.00250021
1.18577e-06
0.00250015
8.72037e-07
0.00250011
6.4119e-07
0.00250008
4.71388e-07
0.00250006
3.46517e-07
0.00250004
2.54705e-07
0.00250003
1.87207e-07
0.00250002
1.37591e-07
0.00250002
1.01123e-07
0.00250001
7.432e-08
0.00250001
5.46201e-08
0.00250001
4.01422e-08
0.00250001
2.95027e-08
0.0025
2.16846e-08
0.0025
1.59398e-08
0.0025
1.1719e-08
0.0025
8.61754e-09
0.0025
6.33908e-09
0.0025
4.6648e-09
0.0025
3.43499e-09
0.0025
2.53101e-09
0.0025
1.86693e-09
0.0025
1.37835e-09
0.0025
1.0192e-09
0.0025
7.54997e-10
0.0025
5.61101e-10
0.0025
4.18025e-10
0.0025
3.12847e-10
0.0025
2.34822e-10
0.0025
1.77432e-10
0.0025
1.34599e-10
0.0025
1.03157e-10
0.0025
7.94554e-11
0.0025
6.21754e-11
0.0025
4.89642e-11
0.0025
3.93804e-11
0.0025
3.18618e-11
0.0025
2.6563e-11
0.0025
2.2255e-11
0.0025
1.93299e-11
0.0025
1.67753e-11
0.0025
1.51828e-11
0.0025
1.36424e-11
0.0025
1.28255e-11
0.0025
1.18878e-11
0.0025
1.15023e-11
0.0025
1.08794e-11
0.0025
1.0692e-11
0.0025
1.02028e-11
0.0025
1.00797e-11
0.0025
9.64572e-12
0.0025
9.55268e-12
0.0025
9.15479e-12
0.0025
9.07409e-12
0.0025
8.69326e-12
0.0025
8.60161e-12
0.0025
8.22531e-12
0.0025
8.13079e-12
0.0025
7.77738e-12
0.0025
7.67981e-12
0.0025
7.33653e-12
0.0025
7.23701e-12
0.0025
6.90919e-12
0.0025
6.81224e-12
0.0025
6.50217e-12
0.0025
6.40445e-12
0.0025
6.11293e-12
0.0025
6.01945e-12
0.0025
5.74896e-12
0.0025
5.66338e-12
0.0025
5.4128e-12
0.0025
5.33427e-12
0.0025
5.09159e-12
0.0025
5.01543e-12
0.0025
4.78462e-12
0.0025
4.71506e-12
0.0025
4.49575e-12
0.0025
4.43041e-12
0.0025
4.22352e-12
0.0025
4.16312e-12
0.0025
3.96751e-12
0.0025
3.90837e-12
0.0025
3.72185e-12
0.0025
3.66444e-12
0.0025
3.48603e-12
0.0025
3.4297e-12
0.0025
3.25969e-12
0.0025
3.20926e-12
0.0025
3.04962e-12
0.0025
3.00441e-12
0.0025
2.85056e-12
0.0025
2.80599e-12
0.0025
2.65778e-12
0.0025
2.6153e-12
0.0025
2.47354e-12
0.0025
2.43422e-12
0.0025
2.29895e-12
0.0025
2.26244e-12
0.0025
2.13339e-12
0.0025
2.09962e-12
0.0025
1.97684e-12
0.0025
1.94606e-12
0.0025
1.82959e-12
0.0025
1.8023e-12
0.0025
1.69239e-12
0.0025
1.66976e-12
0.0025
1.56329e-12
0.0025
1.54706e-12
0.0025
1.4432e-12
0.0025
1.43869e-12
0.0025
1.33847e-12
0.0025
1.33934e-12
0.0025
1.24091e-12
0.0025
1.25593e-12
0.0025
1.15658e-12
0.0025
1.18552e-12
0.0025
1.09243e-12
0.0025
1.14157e-12
0.0025
1.07158e-12
0.0025
1.14935e-12
0.0025
1.11119e-12
0.0025
1.22554e-12
0.0025
1.23035e-12
0.0025
1.38267e-12
0.0025
1.43007e-12
0.0025
1.63271e-12
0.0025
1.71519e-12
0.0025
2.02203e-12
2.23309e-12
0.00250244
-3.26948e-05
0.00250892
-8.77124e-05
0.00251788
-0.000110038
0.00252975
-0.000123583
0.0025463
-0.00014385
0.00256965
-0.000169438
0.00260088
-0.000191703
0.00263923
-0.000199931
0.00267776
-0.000172361
0.00270064
-9.22569e-05
0.00268552
5.47339e-05
0.00264906
0.000154898
0.00261
0.000191129
0.00257694
0.000188307
0.00255223
0.000165073
0.00253499
0.000135344
0.00252335
0.000106957
0.00251563
8.25178e-05
0.00251054
6.26479e-05
0.00250718
4.70837e-05
0.00250494
3.51481e-05
0.00250343
2.61158e-05
0.00250241
1.93427e-05
0.00250171
1.42948e-05
0.00250122
1.05479e-05
0.00250087
7.77454e-06
0.00250063
5.7259e-06
0.00250046
4.21468e-06
0.00250033
3.10103e-06
0.00250024
2.28095e-06
0.00250018
1.67736e-06
0.00250013
1.23329e-06
0.00250009
9.06666e-07
0.00250007
6.66478e-07
0.00250005
4.89882e-07
0.00250004
3.60057e-07
0.00250003
2.64626e-07
0.00250002
1.94482e-07
0.00250001
1.42928e-07
0.00250001
1.05039e-07
0.00250001
7.71946e-08
0.00250001
5.67305e-08
0.0025
4.16917e-08
0.0025
3.06404e-08
0.0025
2.25199e-08
0.0025
1.6553e-08
0.0025
1.21691e-08
0.0025
8.94794e-09
0.0025
6.58153e-09
0.0025
4.84265e-09
0.0025
3.56536e-09
0.0025
2.62654e-09
0.0025
1.93682e-09
0.0025
1.42944e-09
0.0025
1.05647e-09
0.0025
7.82042e-10
0.0025
5.80629e-10
0.0025
4.32019e-10
0.0025
3.22755e-10
0.0025
2.41771e-10
0.0025
1.82185e-10
0.0025
1.37728e-10
0.0025
1.05059e-10
0.0025
8.0515e-11
0.0025
6.25868e-11
0.0025
4.89007e-11
0.0025
3.89945e-11
0.0025
3.12804e-11
0.0025
2.57762e-11
0.0025
2.13393e-11
0.0025
1.83192e-11
0.0025
1.5763e-11
0.0025
1.4168e-11
0.0025
1.27026e-11
0.0025
1.19346e-11
0.0025
1.10398e-11
0.0025
1.06562e-11
0.0025
1.00468e-11
0.0025
9.83151e-12
0.0025
9.40011e-12
0.0025
9.29697e-12
0.0025
8.93089e-12
0.0025
8.84013e-12
0.0025
8.495e-12
0.0025
8.40275e-12
0.0025
8.06251e-12
0.0025
7.96991e-12
0.0025
7.64826e-12
0.0025
7.55139e-12
0.0025
7.23091e-12
0.0025
7.11545e-12
0.0025
6.80164e-12
0.0025
6.69199e-12
0.0025
6.40952e-12
0.0025
6.30607e-12
0.0025
6.0273e-12
0.0025
5.91018e-12
0.0025
5.65745e-12
0.0025
5.55333e-12
0.0025
5.31848e-12
0.0025
5.2246e-12
0.0025
4.99507e-12
0.0025
4.90764e-12
0.0025
4.69103e-12
0.0025
4.6121e-12
0.0025
4.40722e-12
0.0025
4.3343e-12
0.0025
4.13934e-12
0.0025
4.07136e-12
0.0025
3.88715e-12
0.0025
3.82378e-12
0.0025
3.65012e-12
0.0025
3.58844e-12
0.0025
3.42299e-12
0.0025
3.36283e-12
0.0025
3.20579e-12
0.0025
3.14608e-12
0.0025
2.99646e-12
0.0025
2.94312e-12
0.0025
2.80404e-12
0.0025
2.75647e-12
0.0025
2.62195e-12
0.0025
2.5745e-12
0.0025
2.44473e-12
0.0025
2.39975e-12
0.0025
2.27614e-12
0.0025
2.2343e-12
0.0025
2.11693e-12
0.0025
2.07755e-12
0.0025
1.9655e-12
0.0025
1.92917e-12
0.0025
1.82336e-12
0.0025
1.79043e-12
0.0025
1.68967e-12
0.0025
1.66009e-12
0.0025
1.56389e-12
0.0025
1.54018e-12
0.0025
1.4497e-12
0.0025
1.43546e-12
0.0025
1.34976e-12
0.0025
1.342e-12
0.0025
1.26033e-12
0.0025
1.25561e-12
0.0025
1.17939e-12
0.0025
1.18985e-12
0.0025
1.11279e-12
0.0025
1.13551e-12
0.0025
1.06038e-12
0.0025
1.10961e-12
0.0025
1.05564e-12
0.0025
1.13979e-12
0.0025
1.12379e-12
0.0025
1.24654e-12
0.0025
1.27588e-12
0.0025
1.44441e-12
0.0025
1.51927e-12
0.0025
1.73446e-12
0.0025
1.847e-12
0.0025
2.15034e-12
2.38652e-12
0.00250184
-3.45393e-05
0.00250671
-9.25803e-05
0.00251389
-0.000117214
0.00252437
-0.00013407
0.00254037
-0.000159845
0.00256494
-0.000194007
0.00260036
-0.000227124
0.00264731
-0.000246879
0.00269855
-0.000223605
0.00273013
-0.000123832
0.00270846
7.64003e-05
0.00265966
0.000203695
0.00261069
0.000240099
0.00257219
0.000226808
0.00254544
0.000191827
0.00252813
0.000152649
0.0025173
0.000117788
0.00251065
8.91695e-05
0.0025066
6.66953e-05
0.00250414
4.95476e-05
0.00250263
3.66561e-05
0.0025017
2.70473e-05
0.00250112