/*--------------------------------*- C++ -*----------------------------------*\
  =========                 |
  \\      /  F ield         | OpenFOAM: The Open Source CFD Toolbox
   \\    /   O peration     | Website:  https://openfoam.org
    \\  /    A nd           | Version:  11
     \\/     M anipulation  |
\*---------------------------------------------------------------------------*/
FoamFile
{
    format      ascii;
    class       surfaceScalarField;
    location    "19.262799";
    object      phi_0;
}
// * * * * * * * * * * * * * * * * * * * * * * * * * * * * * * * * * * * * * //

dimensions      [0 3 -1 0 0 0 0];

internalField   nonuniform List<scalar> 
14638
(
0.00250202
-2.02279e-06
0.00250816
-6.13281e-06
0.00251882
-1.06594e-05
0.00253459
-1.57773e-05
0.00255613
-2.15341e-05
0.0025838
-2.76722e-05
0.00261748
-3.36806e-05
0.00265605
-3.85731e-05
0.00269733
-4.12802e-05
0.00273795
-4.06207e-05
0.00277381
-3.5859e-05
0.00280132
-2.75104e-05
0.0028175
-1.61767e-05
0.00282015
-2.65497e-06
0.00280817
1.19794e-05
0.00278217
2.60084e-05
0.00274512
3.70472e-05
0.00270213
4.29846e-05
0.00265952
4.26126e-05
0.00262379
3.57293e-05
0.00260065
2.31377e-05
0.00259403
6.6234e-06
0.00260504
-1.10057e-05
0.00263089
-2.58498e-05
0.00266443
-3.35477e-05
0.00269547
-3.10302e-05
0.00271398
-1.85142e-05
0.00271377
2.11327e-07
0.00269404
1.97302e-05
0.00265858
3.54608e-05
0.00261376
4.48173e-05
0.00256685
4.69087e-05
0.00252511
4.17375e-05
0.00249547
2.96452e-05
0.00248413
1.13378e-05
0.00249566
-1.15268e-05
0.00253103
-3.53706e-05
0.00258539
-5.43597e-05
0.00264741
-6.20236e-05
0.00270198
-5.45649e-05
0.00273548
-3.35049e-05
0.00274073
-5.2494e-06
0.00271853
2.21969e-05
0.00267576
4.27728e-05
0.00262191
5.38528e-05
0.00256646
5.54514e-05
0.00251786
4.85935e-05
0.00248368
3.41791e-05
0.00247072
1.29594e-05
0.00248414
-1.34194e-05
0.0025251
-4.09584e-05
0.00258808
-6.29798e-05
0.00266022
-7.21419e-05
0.00272434
-6.41124e-05
0.00276472
-4.03856e-05
0.00277271
-7.98341e-06
0.00274886
2.38475e-05
0.00270123
4.76248e-05
0.00264133
5.99055e-05
0.00258044
6.08849e-05
0.00252799
5.24492e-05
0.0024916
3.63909e-05
0.00247764
1.39659e-05
0.00249068
-1.30445e-05
0.00253145
-4.07696e-05
0.0025944
-6.29539e-05
0.00266722
-7.28151e-05
0.00273342
-6.61995e-05
0.00277741
-4.39878e-05
0.00278953
-1.21246e-05
0.00276879
2.07446e-05
0.00272216
4.66235e-05
0.00266135
6.08094e-05
0.00259882
6.25362e-05
0.00254513
5.36855e-05
0.00250833
3.67995e-05
0.00249432
1.40129e-05
0.00250666
-1.23424e-05
0.00254507
-3.84069e-05
0.00260368
-5.86118e-05
0.00267105
-6.7364e-05
0.00273261
-6.15683e-05
0.00277485
-4.22366e-05
0.00278907
-1.42231e-05
0.00277353
1.55411e-05
0.00273323
4.03022e-05
0.00267788
5.53547e-05
0.002619
5.88744e-05
0.00256743
5.15683e-05
0.00253189
3.55457e-05
0.00251848
1.34045e-05
0.00253018
-1.17015e-05
0.00256569
-3.55069e-05
0.0026186
-5.29075e-05
0.00267809
-5.94901e-05
0.00273149
-5.34042e-05
0.00276774
-3.62438e-05
0.00278014
-1.24074e-05
0.00276764
1.25079e-05
0.00273427
3.33673e-05
0.00268768
4.65844e-05
0.00263724
5.04471e-05
0.00259233
4.49105e-05
0.00256114
3.11896e-05
0.00254962
1.15142e-05
0.00256042
-1.08022e-05
0.00259183
-3.14019e-05
0.00263748
-4.56513e-05
0.00268757
-5.00923e-05
0.00273136
-4.37858e-05
0.00276004
-2.86793e-05
0.00276883
-8.79156e-06
0.00275759
1.12394e-05
0.00273009
2.74941e-05
0.00269262
3.74704e-05
0.00265254
4.0079e-05
0.00261723
3.53111e-05
0.00259322
2.40111e-05
0.00258527
7.9487e-06
0.00259528
-1.00065e-05
0.00262138
-2.60978e-05
0.00265794
-3.65639e-05
0.00269683
-3.88927e-05
0.0027296
-3.27624e-05
0.00274972
-2.01188e-05
0.00275409
-4.37699e-06
0.00274331
1.07789e-05
0.00272088
2.24311e-05
0.00269198
2.89021e-05
0.00266233
2.96534e-05
0.00263738
2.49466e-05
0.00262174
1.56422e-05
0.00261846
3.27358e-06
0.00262831
-9.84463e-06
0.00264918
-2.08712e-05
0.00267636
-2.7175e-05
0.0027036
-2.72447e-05
0.00272486
-2.12627e-05
0.00273588
-1.10137e-05
0.00273508
7.97484e-07
0.00272363
1.1453e-05
0.00270468
1.8946e-05
0.00268242
2.22599e-05
0.00266118
2.12423e-05
0.00264484
1.63333e-05
0.00263643
8.41696e-06
0.00263757
-1.14662e-06
0.00264808
-1.05062e-05
0.00266567
-1.75934e-05
0.00268636
-2.06888e-05
0.00270541
-1.90468e-05
0.00271861
-1.31997e-05
0.00272337
-4.7591e-06
0.0027193
4.07096e-06
0.00270785
1.14501e-05
0.00269221
1.56332e-05
0.00267515
1.70633e-05
0.00266168
1.34742e-05
0.00265052
1.11543e-05
-3.79219e-06
0.002502
-4.02427e-06
0.00250807
-1.2206e-05
0.00251865
-2.12378e-05
0.00253436
-3.14885e-05
0.0025559
-4.30688e-05
0.0025837
-5.54772e-05
0.00261772
-6.76981e-05
0.00265687
-7.77218e-05
0.00269896
-8.33681e-05
0.00274049
-8.21571e-05
0.00277719
-7.25576e-05
0.0028054
-5.57136e-05
0.00282207
-3.28504e-05
0.00282495
-5.53293e-06
0.00281278
2.41475e-05
0.00278606
5.27266e-05
0.00274783
7.52775e-05
0.00270337
8.74447e-05
0.00265922
8.67635e-05
0.00262213
7.28231e-05
0.00259804
4.72242e-05
0.00259114
1.35189e-05
0.0026028
-2.26585e-05
0.00263027
-5.33246e-05
0.0026661
-6.9377e-05
0.00269938
-6.43105e-05
0.00271939
-3.85187e-05
0.00271953
6.43172e-08
0.00269912
4.01387e-05
0.00266231
7.22742e-05
0.00261582
9.13057e-05
0.00256715
9.55863e-05
0.00252366
8.52221e-05
0.00249243
6.08761e-05
0.00247996
2.38094e-05
0.00249128
-2.28469e-05
0.00252783
-7.19204e-05
0.0025848
-0.000111327
0.00265022
-0.000127446
0.00270786
-0.000112209
0.00274313
-6.87745e-05
0.00274846
-1.05814e-05
0.00272498
4.56838e-05
0.00268018
8.75666e-05
0.00262413
0.000109908
0.00256656
0.000113023
0.00251598
9.91687e-05
0.00248003
7.01313e-05
0.0024658
2.71883e-05
0.002479
-2.66164e-05
0.0025213
-8.32579e-05
0.00258723
-0.000128915
0.00266326
-0.000148172
0.00273097
-0.000131818
0.00277349
-8.29041e-05
0.00278163
-1.61301e-05
0.00275625
4.9225e-05
0.00270617
9.77129e-05
0.00264362
0.000122448
0.00258035
0.000124163
0.00252579
0.000107003
0.0024875
7.46867e-05
0.00247191
2.95539e-05
0.00248401
-2.51419e-05
0.00252503
-8.17912e-05
0.0025897
-0.000127632
0.00266544
-0.000148553
0.00273497
-0.000135729
0.00278172
-9.0739e-05
0.0027953
-2.57059e-05
0.00277447
4.15779e-05
0.00272649
9.46093e-05
0.00266359
0.000123704
0.00259876
0.000127366
0.00254287
0.000109581
0.00250409
7.55741e-05
0.00248858
2.95225e-05
0.00250033
-2.40911e-05
0.00253941
-7.74861e-05
0.0025999
-0.000119103
0.00266978
-0.000137244
0.00273371
-0.000125502
0.00277757
-8.60901e-05
0.00279244
-2.90983e-05
0.00277668
3.13082e-05
0.00273549
8.14847e-05
0.00267884
0.000112011
0.00261843
0.000119286
0.00256526
0.000104737
0.00252831
7.2497e-05
0.0025141
2.76122e-05
0.00252604
-2.36448e-05
0.00256301
-7.24745e-05
0.00261826
-0.000108161
0.00268023
-0.000121456
0.00273544
-0.000108615
0.00277236
-7.31674e-05
0.00278434
-2.43891e-05
0.00277066
2.61941e-05
0.0027358
6.82298e-05
0.00268773
9.46538e-05
0.00263597
0.000102206
0.00259001
9.08725e-05
0.00255818
6.30177e-05
0.00254671
2.29802e-05
0.00255851
-2.26e-05
0.00259184
-6.47363e-05
0.00263994
-9.37475e-05
0.00269228
-0.000102435
0.00273746
-8.8959e-05
0.00276632
-5.7546e-05
0.00277418
-1.66514e-05
0.00276127
2.41515e-05
0.00273184
5.69279e-05
0.00269256
7.67476e-05
0.00265106
8.15781e-05
0.00261487
7.15058e-05
0.00259064
4.82349e-05
0.0025833
1.52942e-05
0.00259478
-2.14895e-05
0.00262304
-5.43597e-05
0.00266198
-7.55045e-05
0.00270284
-7.97542e-05
0.00273665
-6.65692e-05
0.00275667
-4.01397e-05
0.00275993
-7.63272e-06
0.00274735
2.33521e-05
0.00272288
4.69004e-05
0.00269208
5.97016e-05
0.00266096
6.07801e-05
0.00263516
5.07431e-05
0.00261944
3.13604e-05
0.00261696
5.75987e-06
0.0026284
-2.12888e-05
0.00265141
-4.38809e-05
0.00268079
-5.65496e-05
0.00270975
-5.62116e-05
0.00273185
-4.33635e-05
0.00274268
-2.1837e-05
0.00274079
2.68759e-06
0.00272765
2.45939e-05
0.00270679
3.98054e-05
0.00268273
4.63182e-05
0.00266007
4.38967e-05
0.00264292
3.34843e-05
0.00263444
1.69033e-05
0.00263633
-3.04046e-06
0.00264832
-2.24924e-05
0.00266784
-3.71194e-05
0.00269048
-4.33291e-05
0.00271104
-3.96042e-05
0.00272498
-2.71356e-05
0.00272958
-9.36483e-06
0.00272457
9.0838e-06
0.00271165
2.43711e-05
0.00269431
3.29759e-05
0.00267563
3.5735e-05
0.00266083
2.82747e-05
0.00264885
2.31324e-05
-7.78396e-06
0.00250196
-5.98222e-06
0.00250791
-1.81541e-05
0.00251832
-3.16488e-05
0.00253389
-4.70606e-05
0.00255542
-6.45986e-05
0.00258349
-8.35456e-05
0.00261818
-0.000102395
0.0026585
-0.000118039
0.00270224
-0.000127104
0.00274563
-0.000125551
0.002784
-0.000110931
0.00281356
-8.52641e-05
0.00283116
-5.04531e-05
0.00283441
-8.78202e-06
0.00282179
3.67694e-05
0.00279357
8.09379e-05
0.00275292
0.000115932
0.00270549
0.000134879
0.00265829
0.000133959
0.00261857
0.000112544
0.00259276
7.30301e-05
0.00258556
2.07196e-05
0.00259878
-3.5875e-05
0.00262976
-8.43082e-05
0.00267033
-0.000109948
0.00270811
-0.000102092
0.00273086
-6.12594e-05
0.00273126
-3.44758e-07
0.00270897
6.24335e-05
0.002669
0.000112243
0.0026189
0.000141406
0.00256663
0.000147855
0.0025198
0.000132049
0.00248573
9.4953e-05
0.00247145
3.80903e-05
0.00248291
-3.43152e-05
0.00252246
-0.000111467
0.00258525
-0.000174118
0.00265783
-0.000200025
0.00272154
-0.000175921
0.00275978
-0.000107013
0.00276442
-1.52135e-05
0.00273744
7.2658e-05
0.00268789
0.000137116
0.00262704
0.000170758
0.00256519
0.000174877
0.0025109
0.000153454
0.00247183
0.000109202
0.00245542
4.35972e-05
0.00246814
-3.93342e-05
0.00251257
-0.000127683
0.00258367
-0.000200017
0.00266713
-0.00023164
0.00274236
-0.000207044
0.0027898
-0.000130343
0.00279866
-2.49957e-05
0.00277013
7.77598e-05
0.00271472
0.000153119
0.00264656
0.000190615
0.0025784
0.000192323
0.00251982
0.000165581
0.00247807
0.000116437
0.00245965
4.79753e-05
0.00247028
-3.5775e-05
0.00251224
-0.000123754
0.00258067
-0.000196055
0.00266216
-0.000230046
0.0027378
-0.000211367
0.0027893
-0.000142239
0.00280512
-4.15241e-05
0.0027837
6.29895e-05
0.00273287
0.000145446
0.00266588
0.000190691
0.0025967
0.000196551
0.00253679
0.000169487
0.00249475
0.000117616
0.00247732
4.69539e-05
0.00248933
-3.61034e-05
0.00253132
-0.000119477
0.00259678
-0.000184564
0.00267211
-0.000212574
0.00274023
-0.000193624
0.00278599
-0.000131849
0.00280047
-4.3576e-05
0.00278264
4.91332e-05
0.00273854
0.000125594
0.00267869
0.000171859
0.00261517
0.000182805
0.00255925
0.000160657
0.00252037
0.000111378
0.00250581
4.21766e-05
0.00251966
-3.74963e-05
0.0025608
-0.000113621
0.0026215
-0.000168859
0.00268851
-0.000188469
0.00274683
-0.000166932
0.00278417
-0.000110504
0.00279411
-3.43259e-05
0.00277684
4.34594e-05
0.00273795
0.000107115
0.00268624
0.000146368
0.00263163
0.000156816
0.00258381
0.000138696
0.00255139
9.54383e-05
0.00254103
3.33388e-05
0.0025559
-3.74766e-05
0.00259395
-0.000102779
0.0026473
-0.0001471
0.002704
-0.000159138
0.00275144
-0.000136399
0.00277998
-8.60821e-05
0.0027852
-2.18746e-05
0.0027682
4.11472e-05
0.00273428
9.08488e-05
0.002691
0.000120034
0.00264654
0.000126038
0.00260877
0.000109277
0.00258462
7.23853e-05
0.0025792
2.07146e-05
0.00259438
-3.66687e-05
0.0026275
-8.74817e-05
0.00267136
-0.000119365
0.00271596
-0.000124356
0.00275141
-0.000102022
0.00277069
-5.9418e-05
0.00277116
-8.10093e-06
0.00275453
3.9983e-05
0.00272564
7.57844e-05
0.00269088
9.44674e-05
0.00265683
9.48326e-05
0.00262956
7.80138e-05
0.0026141
4.68157e-05
0.00261372
6.14141e-06
0.00262887
-3.64363e-05
0.00265647
-7.14895e-05
0.0026903
-9.03717e-05
0.0027225
-8.84109e-05
0.00274589
-6.67593e-05
0.00275589
-3.18387e-05
0.00275141
7.17539e-06
0.00273457
4.14322e-05
0.00270969
6.46834e-05
0.00268199
7.40175e-05
0.00265662
6.92662e-05
0.00263809
5.2013e-05
0.00262984
2.51511e-05
0.00263366
-6.85475e-06
0.00264897
-3.78028e-05
0.00267255
-6.0705e-05
0.00269907
-6.98418e-05
0.00272242
-6.29525e-05
0.00273747
-4.21887e-05
0.00274139
-1.32825e-05
0.00273415
1.63206e-05
0.00271806
4.04606e-05
0.00269718
5.38575e-05
0.00267535
5.75671e-05
0.002658
4.56169e-05
0.00264478
3.63593e-05
-1.24067e-05
0.00250189
-7.87109e-06
0.00250764
-2.39032e-05
0.00251778
-4.17882e-05
0.00253311
-6.23945e-05
0.0025546
-8.60846e-05
0.00258303
-0.000111974
0.00261873
-0.000138095
0.00266082
-0.00016013
0.0027071
-0.000173386
0.00275337
-0.000171825
0.00279432
-0.000151878
0.00282595
-0.000116891
0.00284502
-6.95283e-05
0.00284891
-1.26728e-05
0.00283563
5.00505e-05
0.00280508
0.000111485
0.00276061
0.000160403
0.00270853
0.000186961
0.00265662
0.00018587
0.00261285
0.00015631
0.00258438
0.0001015
0.00257667
2.84292e-05
0.0025923
-5.14962e-05
0.00262879
-0.000120804
0.00267688
-0.000158037
0.00272179
-0.000147003
0.00274878
-8.82512e-05
0.00274944
-9.99004e-07
0.00272398
8.789e-05
0.00267893
0.00015729
0.00262318
0.000197163
0.00256541
0.000205623
0.00251353
0.000183926
0.00247515
0.000133337
0.00245811
5.51253e-05
0.0024699
-4.60997e-05
0.00251436
-0.000155925
0.00258664
-0.000246402
0.00267078
-0.000284163
0.00274404
-0.000249185
0.00278656
-0.000149533
0.00278949
-1.81383e-05
0.00275648
0.00010567
0.00269913
0.000194465
0.00263071
0.000239169
0.00256236
0.000243228
0.00250259
0.000213232
0.0024587
0.000153091
0.00243814
6.41529e-05
0.00244821
-4.9401e-05
0.00249319
-0.000172667
0.00256965
-0.000276475
0.00266309
-0.000325084
0.00275022
-0.000294173
0.00280728
-0.000187397
0.00282001
-3.77309e-05
0.00278891
0.000108865
0.00272659
0.000215434
0.00265024
0.00026697
0.00257468
0.000267876
0.00250995
0.000230315
0.00246294
0.000163449
0.00244042
7.04889e-05
0.0024496
-4.49542e-05
0.0024943
-0.00016845
0.00256954
-0.000271292
0.0026598
-0.00032031
0.00274339
-0.000294957
0.00280009
-0.000198943
0.00281768
-5.91142e-05
0.00279477
8.59043e-05
0.00273987
0.000200344
0.00266735
0.000263211
0.00259226
0.000271646
0.0025269
0.000234838
0.0024807
0.000163815
0.0024616
6.60568e-05
0.00247568
-5.01792e-05
0.00252366
-0.000167456
0.00259748
-0.000258385
0.00268086
-0.00029596
0.00275429
-0.000267053
0.00280144
-0.000178992
0.00281371
-5.58446e-05
0.00279137
7.14698e-05
0.00274189
0.00017507
0.00267684
0.000236914
0.00260876
0.000250878
0.00254928
0.000220144
0.00250847
0.000152188
0.00249462
5.6022e-05
0.00251254
-5.54175e-05
0.00256063
-0.000161712
0.00262936
-0.00023759
0.00270318
-0.000262283
0.00276521
-0.000228961
0.00280238
-0.000147681
0.00280869
-4.06323e-05
0.0027856
6.65436e-05
0.0027403
0.000152422
0.00268285
0.000203819
0.00262392
0.000215743
0.0025736
0.00018902
0.00254092
0.000128114
0.00253305
4.12123e-05
0.00255321
-5.76403e-05
0.00259845
-0.00014802
0.00265917
-0.000207815
0.00272148
-0.000221453
0.00277142
-0.000186342
0.00279892
-0.000113575
0.00280002
-2.29807e-05
0.00277697
6.41984e-05
0.00273646
0.000131359
0.00268731
0.000169187
0.00263859
0.000174758
0.00259875
0.00014912
0.00257514
9.5992e-05
0.00257308
2.27693e-05
0.0025941
-5.76826e-05
0.00263438
-0.000127761
0.00268502
-0.000170008
0.00273438
-0.00017372
0.00277154
-0.00013918
0.00278927
-7.71483e-05
0.00278549
-4.32284e-06
0.00276297
6.25051e-05
0.00272778
0.000110975
0.00268741
0.000134838
0.00264932
0.000132923
0.00262022
0.000107119
0.00260556
6.14743e-05
0.00260868
3.01833e-06
0.00262952
-5.72752e-05
0.00266381
-0.000105785
0.00270375
-0.000130309
0.00274008
-0.000124736
0.00276477
-9.14565e-05
0.00277316
-4.02283e-05
0.0027647
1.56364e-05
0.00274248
6.36545e-05
0.00271188
9.5287e-05
0.00267908
0.000106812
0.00265004
9.83128e-05
0.00262986
7.21941e-05
0.00262237
3.26359e-05
0.00262938
-1.38648e-05
0.00264978
-5.82011e-05
0.00267925
-9.01762e-05
0.00271108
-0.000101675
0.00273799
-8.98606e-05
0.00275415
-5.83481e-05
0.00275667
-1.58002e-05
0.00274598
2.70103e-05
0.00272523
6.12056e-05
0.00269929
7.97977e-05
0.00267306
8.37991e-05
0.00265228
6.63977e-05
0.00263768
5.09634e-05
-1.82533e-05
0.00250179
-9.66065e-06
0.00250725
-2.93654e-05
0.00251699
-5.15267e-05
0.00253195
-7.73536e-05
0.0025533
-0.000107439
0.00258214
-0.000140812
0.00261914
-0.000175091
0.00266362
-0.000204616
0.00271344
-0.000223207
0.00276373
-0.000222106
0.00280819
-0.000196341
0.00284261
-0.000151313
0.00286368
-9.05935e-05
0.00286851
-1.75048e-05
0.00285445
6.41099e-05
0.0028208
0.000145133
0.00277113
0.00021007
0.00271265
0.000245446
0.00265419
0.00024433
0.00260473
0.000205768
0.00257241
0.000133824
0.00256379
3.70439e-05
0.00258263
-7.03383e-05
0.0026269
-0.000165072
0.00268579
-0.000216928
0.00274099
-0.000202204
0.00277403
-0.000121289
0.00277485
-1.8225e-06
0.0027447
0.000118048
0.00269238
0.000209608
0.00262874
0.000260801
0.00256345
0.000270909
0.00250469
0.000242695
0.00246032
0.000177702
0.00243923
7.62162e-05
0.00245079
-5.76593e-05
0.00250085
-0.000205984
0.0025852
-0.000330753
0.00268554
-0.000384501
0.00277353
-0.000337182
0.00282347
-0.00019947
0.0028245
-1.91701e-05
0.00278276
0.000147417
0.00271412
0.000263101
0.00263511
0.000318178
0.002558
0.000320334
0.00249084
0.000280396
0.00243984
0.000204095
0.00241203
9.19578e-05
0.00241637
-5.3741e-05
0.00246051
-0.00021681
0.00254327
-0.000359229
0.00264906
-0.000430876
0.00275095
-0.000396056
0.00282082
-0.000257275
0.00284067
-5.7577e-05
0.00280915
0.000140383
0.00274018
0.000284401
0.00265428
0.000352874
0.00256924
0.000352919
0.00249621
0.000303342
0.0024423
0.000217358
0.00241543
9.73613e-05
0.00242507
-5.45949e-05
0.00247627
-0.000219652
0.00256236
-0.000357379
0.00266402
-0.000421972
0.00275603
-0.000386962
0.00281651
-0.000259422
0.00283349
-7.60992e-05
0.00280677
0.000112621
0.0027461
0.00026102
0.00266683
0.000342482
0.00258482
0.000353648
0.00251325
0.000306413
0.00246279
0.000214274
0.00244317
8.56777e-05
0.00246172
-6.87295e-05
0.0025185
-0.00022424
0.00260285
-0.000342729
0.00269531
-0.000388427
0.00277405
-0.000345787
0.00282177
-0.000226712
0.00283031
-6.439e-05
0.00280145
0.00010033
0.00274452
0.000232002
0.00267252
0.000308918
0.00259875
0.000324649
0.0025353
0.000283587
0.00249311
0.000194383
0.0024815
6.76281e-05
0.0025056
-7.95133e-05
0.00256255
-0.000218662
0.00264039
-0.000315438
0.00272117
-0.000343061
0.00278648
-0.000294272
0.00282279
-0.000183984
0.00282451
-4.23561e-05
0.00279436
9.66889e-05
0.00274119
0.000205594
0.00267663
0.000268382
0.00261241
0.000279965
0.00255931
0.000242116
0.00252703
0.000160399
0.00252314
4.51024e-05
0.00255048
-8.49803e-05
0.0026045
-0.000202041
0.00267334
-0.00027666
0.00274118
-0.000289293
0.002793
-0.000238154
0.00281859
-0.000139163
0.00281462
-1.90128e-05
0.00278446
9.43542e-05
0.00273626
0.000179563
0.00268022
0.00022522
0.00262657
0.000228413
0.00258459
0.000191097
0.00256227
0.000118317
0.00256504
1.9996e-05
0.00259365
-8.62903e-05
0.00264253
-0.000176645
0.00270065
-0.000228129
0.00275467
-0.000227734
0.00279285
-0.000177362
0.00280806
-9.23646e-05
0.00279897
4.7716e-06
0.00276947
9.20055e-05
0.00272695
0.000153498
0.00268013
0.000181654
0.00263754
0.000175514
0.00260673
0.000137931
0.00259371
7.44924e-05
0.00260179
-5.06645e-06
0.00263
-8.5483e-05
0.00267236
-0.000148142
0.00271911
-0.000177058
0.0027595
-0.00016513
0.00278486
-0.000116818
0.00279066
-4.60281e-05
0.0027771
2.91942e-05
0.00274836
9.23929e-05
0.00271101
0.000132639
0.00267234
0.000145481
0.00263925
0.000131407
0.00261762
9.38215e-05
0.00261176
3.84998e-05
0.00262334
-2.54502e-05
0.00265037
-8.523e-05
0.00268699
-0.000126793
0.0027248
-0.000139487
0.00275525
-0.000120307
0.00277194
-7.5038e-05
0.00277213
-1.59901e-05
0.00275689
4.22481e-05
0.00273039
8.77058e-05
0.00269839
0.000111792
0.00266707
0.000115123
0.00264247
9.09982e-05
0.00262687
6.65645e-05
-2.61269e-05
0.00250165
-1.13148e-05
0.00250672
-3.44348e-05
0.0025159
-6.07015e-05
0.00253029
-9.17501e-05
0.00255136
-0.000128505
0.00258059
-0.000170036
0.00261913
-0.000213633
0.00266666
-0.000252145
0.00272115
-0.000277705
0.00277676
-0.000277708
0.00282579
-0.000245378
0.00286386
-0.00018938
0.00288766
-0.000114395
0.00289397
-2.3815e-05
0.00287905
7.90297e-05
0.00284127
0.000182913
0.0027846
0.000266746
0.00271756
0.00031248
0.00265045
0.000311445
0.00259346
0.000262757
0.0025559
0.000171385
0.00254579
4.71478e-05
0.00256866
-9.32059e-05
0.00262333
-0.000219739
0.00269704
-0.000290645
0.00276648
-0.000271642
0.00280777
-0.000162573
0.00280856
-2.61805e-06
0.00277174
0.000154874
0.00270954
0.000271808
0.00263554
0.000334795
0.0025606
0.00034585
0.00249303
0.000310266
0.00244083
0.000229907
0.00241344
0.000103605
0.00242127
-6.54919e-05
0.00247229
-0.000257008
0.00256576
-0.000424221
0.0026848
-0.000503541
0.00279578
-0.000448162
0.0028625
-0.000266191
0.00286684
-2.35073e-05
0.00281621
0.000198045
0.00273319
0.000346126
0.00264025
0.000411112
0.00255193
0.000408657
0.00247525
0.000357077
0.00241446
0.000264887
0.00237676
0.000129659
0.002375
-5.1989e-05
0.00242152
-0.000263328
0.00251542
-0.000453128
0.00263661
-0.00055206
0.00275298
-0.000512433
0.00283364
-0.000337929
0.00285931
-8.32484e-05
0.00282768
0.00017201
0.00275281
0.000359271
0.00265731
0.000448374
0.00256169
0.000448544
0.00247887
0.000386156
0.00241737
0.000278857
0.00238746
0.000127276
0.00240091
-6.80435e-05
0.00246234
-0.000281084
0.00256151
-0.00045655
0.00267486
-0.000535315
0.00277429
-0.000486393
0.00283687
-0.00032201
0.00285113
-9.03582e-05
0.00281842
0.000145338
0.00275024
0.000329202
0.00266316
0.000429554
0.00257374
0.000443074
0.00249592
0.000384229
0.00244199
0.000268204
0.00242359
0.000104077
0.00244866
-9.38014e-05
0.00251547
-0.00029104
0.0026101
-0.000437369
0.00271043
-0.000488751
0.00279321
-0.000428567
0.00284079
-0.000274294
0.00284528
-6.88826e-05
0.00280948
0.000136134
0.00274439
0.000297095
0.00266464
0.000388661
0.00258467
0.000404625
0.00251739
0.000350859
0.00247476
0.000237014
0.00246695
7.54466e-05
0.00249862
-0.000111192
0.00256488
-0.000284922
0.0026511
-0.00040165
0.00273736
-0.000429327
0.00280455
-0.000361463
0.0028392
-0.000218626
0.00283618
-3.93359e-05
0.00279906
0.000133807
0.002738
0.000266647
0.00266613
0.000340252
0.00259648
0.000349616
0.0025409
0.0002977
0.00250992
0.00019138
0.00251136
4.36656e-05
0.00254701
-0.00012063
0.00261007
-0.00026511
0.00268628
-0.000352864
0.00275824
-0.000361253
0.00281053
-0.00029044
0.00283329
-0.000161932
0.0028239
-9.62008e-06
0.00278665
0.000131607
0.00273085
0.000235359
0.00266803
0.000288045
0.00260963
0.000286814
0.00256605
0.000234671
0.00254604
0.000138331
0.00255496
1.10734e-05
0.00259222
-0.000123551
0.00264996
-0.000234385
0.00271487
-0.000293037
0.00277225
-0.000285109
0.0028101
-0.000215217
0.00282179
-0.000104055
0.00280682
1.97419e-05
0.00277014
0.000128689
0.00272028
0.000203359
0.00266715
0.000234781
0.00262042
0.00022225
0.00258864
0.000169709
0.00257845
8.46836e-05
0.00259289
-1.95059e-05
0.00262956
-0.000122156
0.00268032
-0.000198898
0.00273335
-0.000230092
0.00277671
-0.000208488
0.00280149
-0.000141598
0.00280365
-4.81913e-05
0.00278428
4.85672e-05
0.00274861
0.00012806
0.00270434
0.000176913
0.00265985
0.000189969
0.00262308
0.00016818
0.0026008
0.0001161
0.00259777
4.15283e-05
0.00261531
-4.29852e-05
0.00265005
-0.000119969
0.0026942
-0.000170951
0.00273762
-0.000182901
0.00277068
-0.000153369
0.00278678
-9.11392e-05
0.00278361
-1.28199e-05
0.00276302
6.284e-05
0.00273022
0.000120508
0.00269186
0.000150149
0.00265545
0.000151537
0.0026273
0.000119146
0.00261168
8.21792e-05
-3.70195e-05
0.00250148
-1.27904e-05
0.00250602
-3.89836e-05
0.00251443
-6.91079e-05
0.00252801
-0.00010533
0.00254854
-0.000149034
0.00257803
-0.000199522
0.00261828
-0.000253892
0.00266952
-0.000303385
0.00273004
-0.000338215
0.00279248
-0.000340156
0.00284719
-0.000300085
0.00288965
-0.000231837
0.00291678
-0.000141528
0.00292515
-3.21889e-05
0.00290957
9.46094e-05
0.00286692
0.000225568
0.00280152
0.000332141
0.00272366
0.000390345
0.00264546
0.00038964
0.00257869
0.000329536
0.00253403
0.000216045
0.00252141
5.97611e-05
0.00254903
-0.00012082
0.00261736
-0.000288073
0.00271111
-0.000384392
0.00279974
-0.000360278
0.00285182
-0.000214653
0.00285206
-2.8541e-06
0.00280591
0.000201021
0.0027306
0.000347118
0.00264343
0.000421965
0.00255662
0.000432662
0.00247841
0.000388477
0.00241615
0.000292165
0.00237797
0.000141781
0.00237381
-6.13242e-05
0.00241589
-0.000299087
0.00251168
-0.000520016
0.00264911
-0.000640967
0.00279035
-0.000589404
0.0028867
-0.000362539
0.00290662
-4.34307e-05
0.00285332
0.000251343
0.00275594
0.000443505
0.00264639
0.000520669
0.00254409
0.000510954
0.00245546
0.000445704
0.00238285
0.000337497
0.00233547
0.000177037
0.00233201
-4.85234e-05
0.0023878
-0.000319121
0.00249805
-0.000563371
0.00263565
-0.000689665
0.00276379
-0.000640574
0.00285044
-0.000424576
0.00287734
-0.000110145
0.0028431
0.000206249
0.00276203
0.000440339
0.00265741
0.000552991
0.00255125
0.000554705
0.00245841
0.000478997
0.00239001
0.000347251
0.0023594
0.000157892
0.0023795
-8.81459e-05
0.00245236
-0.00035394
0.00256326
-0.000567453
0.00268551
-0.00065757
0.00279004
-0.000590915
0.00285375
-0.000385727
0.00286519
-0.000101794
0.0028264
0.000184125
0.00275043
0.000405178
0.00265531
0.00052467
0.00255855
0.000539836
0.00247516
0.000467621
0.00241914
0.000324224
0.00240364
0.000119568
0.00243617
-0.000126323
0.00251224
-0.000367118
0.00261488
-0.000540002
0.00272021
-0.000594088
0.00280488
-0.000513231
0.00285158
-0.000320999
0.00285261
-6.99096e-05
0.00281102
0.000177718
0.00273876
0.000369361
0.00265185
0.000475574
0.00256608
0.000490387
0.00249569
0.000421254
0.00245378
0.000278925
0.00245092
7.8304e-05
0.00249054
-0.000150806
0.00256509
-0.000359471
0.00265748
-0.000494049
0.00274672
-0.000518567
0.00281385
-0.000428584
0.00284601
-0.000250795
0.00283861
-3.19296e-05
0.00279561
0.000176805
0.00272791
0.000334352
0.00264973
0.000418423
0.00257547
0.000423883
0.00251829
0.000354876
0.00248971
0.000219958
0.00249742
3.59567e-05
0.00254151
-0.000164723
0.00261255
-0.000336145
0.00269406
-0.000434379
0.00276785
-0.000435041
0.00281883
-0.00034142
0.00283795
-0.000181056
0.0028233
5.03348e-06
0.0027798
0.000175104
0.00271754
0.000297626
0.00264902
0.000356565
0.00258691
0.000348914
0.00254288
0.000278703
0.00252642
0.000154795
0.00254246
-4.96953e-06
0.00258849
-0.00016958
0.00265403
-0.000299927
0.00272378
-0.000362787
0.00278236
-0.000343689
0.0028182
-0.000251055
0.00282551
-0.000111365
0.00280466
4.05931e-05
0.0027614
0.000171946
0.00270513
0.000259634
0.00264673
0.000293181
0.00259699
0.000271986
0.00256557
0.000201126
0.00255963
9.06314e-05
0.00258151
-4.13938e-05
0.00262687
-0.000167517
0.00268513
-0.000257158
0.00274272
-0.000287678
0.0027871
-0.000252864
0.00280973
-0.000164233
0.00280739
-4.58456e-05
0.00278203
7.39237e-05
0.00273979
0.000170295
0.00268928
0.000227429
0.00263985
0.000239395
0.0026005
0.000207536
0.00257891
0.000137685
0.00258016
4.02785e-05
0.00260476
-6.75863e-05
0.00264751
-0.00016272
0.00269851
-0.000221945
0.00274607
-0.000230461
0.00278006
-0.000187367
0.00279416
-0.000105238
0.00278675
-5.40688e-06
0.00276048
8.91084e-05
0.0027215
0.000159488
0.00267722
0.000194426
0.00263644
0.000192325
0.00260569
0.00014989
0.00259158
9.62952e-05
-5.19745e-05
0.00250125
-1.40362e-05
0.00250512
-4.28592e-05
0.00251251
-7.64925e-05
0.00252493
-0.000117756
0.00254455
-0.000168654
0.00257403
-0.000229003
0.00261606
-0.000295921
0.0026717
-0.000359026
0.00273986
-0.000406377
0.00281104
-0.000411334
0.00287269
-0.000361738
0.00292052
-0.000279662
0.0029521
-0.000173105
0.00296363
-4.37249e-05
0.00294755
0.000110688
0.00289857
0.000274547
0.00282183
0.000408887
0.00273018
0.000481993
0.00263816
0.000481662
0.00255914
0.00040855
0.00250521
0.00026998
0.00248865
7.63197e-05
0.00252208
-0.000154251
0.00260936
-0.00037535
0.00273105
-0.000506085
0.00284517
-0.000474393
0.00290997
-0.000279458
0.00290764
-5.21615e-07
0.00284815
0.000260512
0.00275562
0.00043965
0.0026521
0.000525484
0.00255129
0.000533465
0.00246077
0.000478996
0.0023853
0.000367636
0.0023295
0.000197588
0.00230509
-3.69215e-05
0.00233492
-0.000328914
0.00243543
-0.000620521
0.00259293
-0.000798471
0.00276309
-0.000759559
0.00289035
-0.000489799
0.00293332
-8.64072e-05
0.0028863
0.000298369
0.00277926
0.000550544
0.00265305
0.000646876
0.0025346
0.000629398
0.00243186
0.00054845
0.00234718
0.000422176
0.0022937
0.00023052
0.00229486
-4.96831e-05
0.00236444
-0.000388707
0.0024906
-0.000689526
0.0026407
-0.000839772
0.00277647
-0.000776342
0.00286614
-0.000514243
0.00289199
-0.000135998
0.00285356
0.000244679
0.00276597
0.000527925
0.00265294
0.000666028
0.00253716
0.00067048
0.00243538
0.000580782
0.00236193
0.000420703
0.00233292
0.000186901
0.00236073
-0.000115955
0.00244338
-0.000436596
0.00256214
-0.00068621
0.00268891
-0.000784337
0.00279537
-0.000697383
0.00285934
-0.00044969
0.00286911
-0.000111564
0.00282623
0.000227003
0.00274416
0.000487252
0.00264214
0.000626683
0.00253901
0.000642963
0.00245131
0.000555328
0.00239477
0.000380761
0.00238333
0.000131006
0.00242298
-0.000165964
0.00250617
-0.00045031
0.00261346
-0.000647298
0.00272045
-0.000701071
0.00280457
-0.000597354
0.00284953
-0.000365959
0.00284787
-6.82524e-05
0.0028024
0.000223189
0.0027251
0.000446668
0.00263278
0.000567889
0.00254261
0.000580559
0.00247036
0.0004935
0.00243037
0.000318919
0.00243306
7.5614e-05
0.0024799
-0.000197645
0.00256059
-0.00044017
0.00265624
-0.000589692
0.00274562
-0.000607951
0.0028107
-0.000493659
0.00283967
-0.00027977
0.00282846
-2.07177e-05
0.00278114
0.000224127
0.00270874
0.000406754
0.00262612
0.000501039
0.00254884
0.000501168
0.00249148
0.000412231
0.00246644
0.000244999
0.0024808
2.15913e-05
0.00253244
-0.000216356
0.00260925
-0.000412959
0.00269325
-0.000518378
0.00276626
-0.000508054
0.00281421
-0.000389362
0.00282912
-0.000195965
0.00280975
2.44009e-05
0.00276137
0.000223479
0.00269439
0.000364606
0.00262197
0.000428984
0.00255788
0.000413013
0.00251497
0.00032161
0.00250331
0.000166454
0.00252686
-2.85246e-05
0.00258071
-0.000223422
0.00265183
-0.000371052
0.00272363
-0.000434581
0.0027809
-0.000400963
0.00281311
-0.000283267
0.00281555
-0.000113805
0.00278934
6.68018e-05
0.00274074
0.000220544
0.00267965
0.000320732
0.00261768
0.000355143
0.0025667
0.000322972
0.00253737
0.000230456
0.00253706
9.09432e-05
0.00256687
-7.12076e-05
0.00262003
-0.00022068
0.00268369
-0.000320809
0.00274318
-0.000347176
0.00278624
-0.000295918
0.00280525
-0.000183246
0.00279795
-3.8548e-05
0.00276707
0.000104807
0.00271933
0.000218029
0.00266397
0.000282792