/*--------------------------------*- C++ -*----------------------------------*\
  =========                 |
  \\      /  F ield         | OpenFOAM: The Open Source CFD Toolbox
   \\    /   O peration     | Website:  https://openfoam.org
    \\  /    A nd           | Version:  11
     \\/     M anipulation  |
\*---------------------------------------------------------------------------*/
FoamFile
{
    format      ascii;
    class       volScalarField;
    location    "18.145138";
    object      p;
}
// * * * * * * * * * * * * * * * * * * * * * * * * * * * * * * * * * * * * * //

dimensions      [0 2 -2 0 0 0 0];

internalField   nonuniform List<scalar> 
7132
(
0.0711066
0.0698489
0.0655201
0.0593073
0.0507179
0.0396766
0.0263163
0.0110236
-0.0053359
-0.0212808
-0.0351457
-0.0448293
-0.0495478
-0.0491026
-0.0438804
-0.0353306
-0.0251093
-0.0147649
-0.00552322
0.00186963
0.00723875
0.0110774
0.0142679
0.017527
0.0210585
0.0246798
0.0281231
0.0312266
0.0340027
0.0365365
0.0388543
0.0407358
0.0416412
0.0410303
0.0389595
0.0363617
0.0344445
0.0338369
0.0343224
0.035266
0.0361331
0.0367078
0.037079
0.0374758
0.0380681
0.0386593
0.038571
0.037066
0.0341579
0.0309478
0.0288577
0.028536
0.0295513
0.0309588
0.0320202
0.0324824
0.032498
0.0324086
0.0324869
0.032608
0.0321544
0.0304403
0.027488
0.0243546
0.0224447
0.0224354
0.0238822
0.0257248
0.027087
0.0276551
0.0275961
0.0272938
0.0270451
0.0267591
0.0259329
0.0240634
0.0212697
0.0184903
0.0169058
0.017093
0.0186768
0.0206844
0.0222288
0.022929
0.0229031
0.0225147
0.0220428
0.021419
0.0202687
0.0182995
0.0157546
0.0134575
0.0123093
0.0126881
0.0142409
0.0161614
0.0176871
0.0184382
0.0184572
0.0180253
0.017372
0.0164687
0.0150968
0.0131657
0.0110028
0.00929102
0.00865323
0.00926032
0.0107502
0.0124725
0.0138369
0.0145344
0.0145646
0.0141091
0.0133311
0.0122504
0.0108112
0.00909271
0.00744918
0.00639303
0.00629229
0.00714709
0.00859549
0.0101221
0.0112941
0.011891
0.011906
0.0114543
0.0106501
0.00954828
0.00820097
0.00677588
0.00559985
0.00503519
0.00527643
0.00623366
0.00757694
0.00890199
0.00988989
0.0103829
0.0103753
0.00994429
0.00917962
0.0081554
0.0069863
0.00586832
0.00510833
0.00494218
0.00550449
0.00658324
0.00798237
0.0091785
0.0101553
0.0104345
0.0103084
0.00963676
0.00773291
0.00747572
0.00061992
0.00785443
0.0716155
0.0703638
0.0660566
0.0598578
0.0512617
0.0401651
0.0266756
0.0111488
-0.00554402
-0.0218904
-0.0361394
-0.0460293
-0.0507989
-0.0502396
-0.0447161
-0.0357795
-0.0251793
-0.0145361
-0.00511894
0.00230705
0.00757644
0.0112397
0.0142658
0.0174285
0.0209329
0.0245701
0.0280493
0.0311959
0.0340186
0.0365994
0.0389624
0.040881
0.04179
0.0411168
0.0389146
0.0361673
0.0341534
0.0335295
0.0340574
0.035062
0.0359859
0.0366071
0.0370156
0.0374416
0.0380586
0.0386671
0.0385672
0.0369932
0.0339602
0.0306193
0.0284594
0.0281531
0.029247
0.0307481
0.031888
0.0324049
0.0324538
0.0323805
0.0324636
0.0325746
0.0320816
0.0302848
0.0272161
0.0239734
0.0220116
0.0220274
0.0235623
0.0255144
0.0269726
0.0276069
0.0275834
0.0272933
0.0270409
0.0267303
0.0258455
0.0238798
0.0209739
0.018107
0.016494
0.0167173
0.0183862
0.020498
0.0221386
0.0229095
0.0229228
0.0225463
0.0220649
0.0214057
0.0201859
0.0181178
0.0154713
0.0131074
0.0119517
0.0123793
0.0140172
0.0160322
0.0176423
0.018456
0.0185108
0.0180874
0.0174169
0.0164671
0.015019
0.0129942
0.010747
0.00899026
0.00836213
0.00902653
0.0106005
0.012409
0.0138452
0.0145927
0.0146485
0.014193
0.0133885
0.0122532
0.0107371
0.0089357
0.00722771
0.00614701
0.00606864
0.00698304
0.00850881
0.0101099
0.0113402
0.011974
0.0120034
0.0115431
0.0107064
0.009549
0.00813096
0.00663666
0.00541324
0.00483786
0.0051072
0.00612113
0.00753238
0.00891994
0.00995436
0.0104739
0.0104722
0.0100265
0.00922625
0.00814777
0.00691468
0.00573843
0.00494305
0.00477538
0.00537041
0.00650597
0.00797211
0.0092284
0.0102558
0.0105602
0.0104584
0.00976239
0.00787003
0.00751512
0.000659523
0.00782455
0.0726305
0.0713923
0.0671304
0.0609648
0.052361
0.04116
0.0274167
0.0114197
-0.00594986
-0.0231218
-0.0381614
-0.0484648
-0.0533302
-0.0525289
-0.0463762
-0.0366413
-0.0252655
-0.0140156
-0.00425154
0.00322835
0.00827756
0.0115658
0.0142438
0.0172052
0.020656
0.0243278
0.0278809
0.0311146
0.0340303
0.0367061
0.0391625
0.0411606
0.0420813
0.0412811
0.0388056
0.0357457
0.0335313
0.0328784
0.0335
0.0346333
0.0356729
0.0363856
0.0368656
0.037348
0.0380147
0.0386592
0.0385357
0.0368191
0.0335257
0.0299108
0.0276064
0.027339
0.028603
0.030302
0.0316034
0.0322291
0.0323406
0.0322968
0.0323896
0.0324829
0.0319111
0.0299427
0.0266314
0.0231624
0.0210947
0.0211669
0.0228867
0.0250666
0.0267217
0.027488
0.0275317
0.0272625
0.0270031
0.0266464
0.0256472
0.0234898
0.0203587
0.0173163
0.0156468
0.015945
0.0177876
0.0201098
0.0219423
0.0228516
0.0229402
0.0225859
0.0220869
0.0213588
0.0200005
0.0177332
0.0148815
0.0123837
0.0112149
0.0117449
0.013558
0.015765
0.0175438
0.0184807
0.0186051
0.018199
0.0174952
0.0164524
0.014849
0.0126315
0.0102108
0.00836219
0.00775548
0.00854018
0.0102884
0.0122734
0.0138553
0.0147031
0.0148101
0.014356
0.0134991
0.0122531
0.0105782
0.00860427
0.00676167
0.00562974
0.0055981
0.00663715
0.00832312
0.0100773
0.0114269
0.012136
0.0121954
0.0117196
0.0108182
0.00954715
0.00798252
0.00634336
0.00502009
0.00442155
0.00474906
0.00588086
0.0074327
0.008949
0.0100789
0.0106531
0.010665
0.0101913
0.00931979
0.00813022
0.00676406
0.00546523
0.00459442
0.00442212
0.00508448
0.00633744
0.00794171
0.00932143
0.0104523
0.0108083
0.010756
0.0100128
0.00814368
0.00758951
0.000751866
0.00770938
0.0741466
0.0729311
0.0687446
0.0626397
0.0540386
0.042696
0.0285825
0.0118731
-0.00654023
-0.0250151
-0.0413086
-0.0522545
-0.0572852
-0.0561286
-0.0489926
-0.0380038
-0.0254135
-0.0132171
-0.00290779
0.00465384
0.00934449
0.0120244
0.0141479
0.0168035
0.0201883
0.0239275
0.0275996
0.030965
0.0340184
0.0368351
0.039432
0.0415533
0.042492
0.0414853
0.0385648
0.0350003
0.0324754
0.0317993
0.0325935
0.0339433
0.0351661
0.0360158
0.0365985
0.0371606
0.0378964
0.0385891
0.0384175
0.0364601
0.0327384
0.0286803
0.0261561
0.0259794
0.0275428
0.029574
0.0311347
0.0319246
0.0321217
0.0321106
0.0322079
0.0322693
0.0315758
0.0293442
0.0256583
0.0218372
0.0196046
0.0197694
0.0217899
0.0243349
0.0262995
0.0272656
0.027404
0.0271597
0.0268882
0.0264627
0.0252872
0.0228301
0.0193468
0.0160342
0.0142869
0.0147163
0.0168399
0.0194913
0.0216159
0.022731
0.0229293
0.0226087
0.0220856
0.0212515
0.0196724
0.0170854
0.0139064
0.0111999
0.0100208
0.0107277
0.0128274
0.0153387
0.0173766
0.0184984
0.0187268
0.0183492
0.0175967
0.0164072
0.0145525
0.0120223
0.00932227
0.00733041
0.006766
0.00775249
0.00978331
0.0120492
0.0138575
0.0148587
0.0150444
0.0145947
0.0136577
0.0122358
0.0103038
0.00804954
0.0059898
0.00477852
0.00482739
0.00607165
0.00801579
0.0100129
0.0115486
0.0123739
0.0124805
0.0119823
0.0109803
0.00952835
0.00772717
0.00585342
0.00436937
0.00373593
0.00416066
0.00548464
0.00726205
0.00898212
0.0102615
0.0109207
0.0109542
0.0104384
0.0094549
0.00808784
0.00650687
0.00500954
0.00401715
0.00383887
0.00461178
0.0060546
0.00787883
0.0094529
0.0107433
0.0111791
0.0112004
0.0103841
0.00854857
0.00767381
0.000918572
0.00740173
0.0761551
0.0749739
0.0709021
0.0648992
0.0563294
0.0448284
0.0302435
0.0125747
-0.00728078
-0.027615
-0.0456985
-0.0575076
-0.0627412
-0.0610685
-0.0525099
-0.0397397
-0.0254491
-0.0119488
-0.000915938
0.00670977
0.0108307
0.0125861
0.0138916
0.0161211
0.0194398
0.0232975
0.0271469
0.0306957
0.0339335
0.0369376
0.0397237
0.0420186
0.0429832
0.0416701
0.0380855
0.033773
0.0308104
0.0301422
0.0312338
0.0329231
0.0344128
0.0354469
0.036156
0.0368074
0.0376145
0.0383545
0.0381062
0.0358032
0.0314609
0.0267521
0.0239091
0.0238907
0.0259321
0.0284776
0.0304222
0.0314349
0.0317266
0.0317297
0.0318128
0.0318269
0.0309719
0.0283854
0.024189
0.0198874
0.0174327
0.017734
0.020184
0.0232483
0.025647
0.0268829
0.0271384
0.0269201
0.0266363
0.0261222
0.0246969
0.0218033
0.0178092
0.014117
0.012283
0.0129317
0.0154743
0.0185941
0.0211194
0.0225081
0.0228511
0.0225803
0.0220313
0.0210488
0.0191458
0.0160879
0.0124328
0.00943158
0.0082542
0.00923663
0.0117625
0.014713
0.0171129
0.0184857
0.0188563
0.0185237
0.0177082
0.0163078
0.0140827
0.011092
0.00798627
0.00579342
0.00530074
0.00658967
0.00903378
0.0117034
0.0138314
0.0150458
0.0153427
0.0149042
0.013857
0.0121811
0.00987208
0.00720632
0.00483141
0.00351009
0.0036825
0.0052288
0.00754683
0.00989121
0.0116902
0.0126794
0.0128547
0.0123292
0.0111864
0.00947347
0.00732696
0.00511051
0.00339384
0.00271349
0.0032834
0.00488765
0.00698997
0.00900057
0.0104915
0.011272
0.0113391
0.010767
0.00962547
0.008002
0.00610775
0.00432064
0.00315207
0.00296734
0.00390217
0.00561913
0.00775697
0.00960575
0.0111179
0.0116655
0.0117858
0.0108695
0.00907484
0.00773972
0.00117886
0.00677736
0.0786427
0.0775113
0.073605
0.0677635
0.0592791
0.0476315
0.0324972
0.0136156
-0.0081298
-0.0310154
-0.0515639
-0.0645075
-0.0700599
-0.0677559
-0.0572541
-0.0420482
-0.0254607
-0.0102193
0.00177612
0.0094602
0.0127479
0.0131682
0.0133239
0.0150054
0.0182991
0.0223659
0.0264705
0.0302558
0.0337168
0.0369441
0.0399624
0.0424809
0.0434691
0.0417081
0.0371583
0.0317762
0.0282428
0.0276767
0.0292702
0.0314777
0.0333419
0.0346082
0.0354487
0.0361557
0.0369819
0.0377363
0.0373961
0.0346997
0.0295961
0.0240183
0.0207008
0.0208725
0.023601
0.0268953
0.0293824
0.0306791
0.0310534
0.0310321
0.0310808
0.0310401
0.0299757
0.0269029
0.0220124
0.017089
0.0143901
0.014928
0.0179728
0.0217301
0.0246949
0.0262694
0.0266625
0.0264776
0.0261905
0.0255637
0.0237868
0.0202773
0.015577
0.0113811
0.00946638
0.0104603
0.0136017
0.0173583
0.0204044
0.022137
0.0226635
0.0224672
0.0218934
0.020706
0.0183468
0.0146359
0.010336
0.00695028
0.0057958
0.0071738
0.0102922
0.0138393
0.0167169
0.0184134
0.0189694
0.018704
0.0178083
0.0161164
0.0133754
0.00975248
0.00610276
0.00365309
0.00327266
0.00498104
0.00798799
0.0112001
0.0137513
0.0152453
0.0156901
0.0152715
0.0140772
0.0120518
0.00922232
0.00599531
0.00320009
0.00174281
0.00209413
0.00405478
0.00687767
0.00968579
0.0118331
0.013039
0.0133077
0.0127493
0.0114166
0.00934569
0.00672541
0.00404393
0.00201883
0.00128561
0.00206103
0.00404773
0.00658719
0.00898482
0.0107562
0.0116981
0.0118126
0.0111677
0.00981206
0.00783698
0.00551368
0.00333391
0.00193213
0.0017467
0.00290648
0.00499428
0.00754969
0.00976096
0.0115606
0.0122548
0.0124976
0.0114517
0.00969499
0.00774404
0.00152614
0.00572507
0.0815901
0.0805282
0.0768534
0.0712563
0.0629448
0.0512047
0.0354805
0.0151362
-0.00900086
-0.0353055
-0.0591424
-0.0734283
-0.0793216
-0.0761923
-0.0630911
-0.0446953
-0.0251539
-0.00771932
0.00543862
0.0130943
0.0151439
0.0136545
0.0122304
0.0132375
0.0165926
0.0210023
0.0254634
0.0295438
0.0332598
0.0367338
0.0400189
0.0428023
0.0437836
0.0413534
0.0354175
0.0285325
0.0242916
0.0240382
0.0264743
0.0294708
0.0318545
0.0333972
0.034334
0.0349898
0.0357131
0.036427
0.035997
0.0328972
0.0269373
0.0203171
0.0163852
0.0167631
0.0203828
0.0246866
0.0279012
0.0295446
0.0299753
0.0298896
0.0299051
0.0298134
0.0284629
0.0247092
0.0188823
0.0131758
0.0102423
0.0111802
0.0150417
0.0196937
0.0233621
0.0253423
0.0258978
0.0257668
0.0254931
0.0247166
0.022459
0.0181318
0.0125234
0.00770329
0.00571888
0.00719492
0.0111373
0.0157186
0.0194145
0.021564
0.0223182
0.0222293
0.0216304
0.020167
0.0172004
0.0126462
0.00753891
0.00368956
0.00258494
0.00448035
0.00836273
0.0126708
0.0161473
0.0182438
0.0190334
0.0188614
0.0178621
0.015783
0.0123663
0.00793575
0.00361202
0.000861428
0.000641041
0.00288829
0.00660916
0.0105047
0.0135855
0.0154289
0.0160623
0.0156723
0.0142852
0.0117993
0.00829319
0.00435283
0.00104004
-0.000568139
2.55809e-05
0.00251689
0.00597781
0.00936794
0.0119513
0.01343
0.0138196
0.0132207
0.0116393
0.00909887
0.00586515
0.00259434
0.000191818
-0.000590211
0.000459242
0.00293546
0.00602719
0.00891054
0.0110337
0.0121806
0.0123581
0.0116209
0.00998512
0.00754958
0.00467124
0.00199398
0.000307878
0.000135698
0.00159072
0.00415017
0.0072284
0.00989055
0.0120433
0.0129209
0.0133074
0.0121003
0.0103649
0.00763994
0.00192788
0.0041883
0.0849702
0.0840026
0.0806417
0.0754002
0.0673915
0.055669
0.0393668
0.0173194
-0.00979142
-0.0406817
-0.0689117
-0.0848516
-0.0913282
-0.0872765
-0.0706745
-0.0480188
-0.024637
-0.00441256
0.0102041
0.0177446
0.0180223
0.013827
0.0102337
0.0104499
0.0140677
0.0190544
0.0240168
0.0284497
0.0324265
0.0361302
0.0396425
0.0426482
0.0435782
0.0402845
0.0324971
0.0235412
0.0183538
0.0187149
0.0225251
0.0267212
0.0298255
0.0316779
0.0326133
0.0330423
0.0335312
0.0341881
0.0336787
0.0300682
0.0230353
0.0152083
0.0106563
0.0113853
0.0161348
0.0217176
0.0258503
0.027902
0.028364
0.0281947
0.0282009
0.0280542
0.0263057
0.0216522
0.0146519
0.00801245
0.00485686
0.00636511
0.0112933
0.0170601
0.0215697
0.0240198
0.0247698
0.0247253
0.0244813
0.0235043
0.0206288
0.0152994
0.00861865
0.00308328
0.00103904
0.00311609
0.00804366
0.0136277
0.0180966
0.0207337
0.0217626
0.0218168
0.0211867
0.0193682
0.0156472
0.0100846
0.00404402
-0.00032026
-0.00134441
0.00117271
0.00596635
0.0111798
0.0153645
0.0179329
0.0190038
0.0189487
0.0178157
0.0152485
0.0110046
0.00561762
0.000523465
-0.00254881
-0.00255835
0.000332476
0.00489641
0.00959679
0.0133013
0.0155588
0.0164198
0.0160629
0.014429
0.0113663
0.00703599
0.00225399
-0.00164511
-0.00340067
-0.00249935
0.000626932
0.00484173
0.00891679
0.0120142
0.013818
0.0143545
0.0137026
0.0118056
0.00867938
0.00469989
0.000735059
-0.00209101
-0.00290381
-0.00151043
0.00155342
0.00529972
0.00875622
0.0112958
0.0126886
0.012944
0.0120893
0.0100995
0.0070904
0.00353714
0.000273849
-0.00172926
-0.00186343
-4.3071e-05
0.00308053
0.00677429
0.00996448
0.012527
0.0136217
0.0141667
0.0127655
0.0110182
0.00737814
0.00232382
0.00219008
0.0887462
0.0879032
0.0849574
0.0802161
0.0726934
0.0611775
0.0443922
0.0204462
-0.0102944
-0.0473132
-0.081314
-0.0989322
-0.105979
-0.100876
-0.0797631
-0.051708
-0.0235509
5.27621e-05
0.0163739
0.0236005
0.0213158
0.0133068
0.00681434
0.00619248
0.0104163
0.0163118
0.0219568
0.0267952
0.0310063
0.0348235
0.0382879
0.0412543
0.042128
0.0381919
0.0285857
0.0170024
0.010201
0.0111899
0.0170044
0.0229842
0.0270955
0.0292799
0.0300601
0.0300745
0.0302719
0.0309108
0.0302921
0.025942
0.017521
0.00830826
0.00320076
0.00454589
0.010736
0.0178751
0.0231039
0.0256211
0.0261066
0.0258623
0.0258919
0.0256728
0.0234116
0.0176856
0.00935588
0.00168931
-0.00169031
0.00050741
0.00670711
0.0137819
0.0192523
0.0222276
0.0232068
0.023285
0.0230808
0.0218521
0.0182497
0.0117966
0.003954
-0.00233654
-0.00442674
-0.0016751
0.00436118
0.0110755
0.0164097
0.0195899
0.0209343
0.0211623
0.0204891
0.0182456
0.0136613
0.00698761
-4.70716e-05
-0.00493726
-0.0058495
-0.00264241
0.00315538
0.00936819
0.0143357
0.017429
0.0188199
0.0188976
0.0175979
0.0144554
0.00927342
0.00284067
-0.00306389
-0.00644806
-0.00620058
-0.00259572
0.00289248
0.00847442
0.012865
0.0155839
0.0167029
0.0163769
0.0144409
0.0107009
0.0054379
-0.000260791
-0.00476867
-0.00664755
-0.0053831
-0.00154985
0.00349379
0.00832017
0.0119846
0.0141524
0.0148553
0.0141328
0.011854
0.00804172
0.00321912
-0.00149976
-0.00475994
-0.00557377
-0.00377749
-5.55886e-05
0.00441409
0.0085022
0.0115036
0.0131737
0.0135177
0.0125164
0.0101005
0.00642022
0.00210327
-0.00179718
-0.0041221
-0.00418554
-0.00194334
0.00181
0.00618033
0.00994869
0.0129578
0.0142941
0.0150025
0.0133761
0.0115737
0.0069208
0.00264578
-0.000158119
0.0928689
0.0921864
0.089775
0.0857139
0.0789225
0.0678999
0.0508363
0.0248721
-0.0102821
-0.0556317
-0.0973208
-0.116921
-0.125122
-0.11893
-0.0915521
-0.0562338
-0.0219637
0.00581982
0.0241792
0.0308393
0.0249251
0.0115318
0.0010613
-0.000383483
0.00510454
0.0124881
0.0190933
0.0243922
0.028742
0.032315
0.0350743
0.0375145
0.0382696
0.0341933
0.0233794
0.00911832
8.23956e-05
0.00133458
0.009584
0.0179872
0.0234687
0.0260148
0.0264763
0.0259424
0.0258659
0.0265326
0.0257251
0.0204239
0.0104083
-0.000303091
-0.00593233
-0.00377406
0.00415078
0.0130977
0.0195674
0.0225964
0.0231152
0.0228227
0.0229034
0.0225933
0.0197506
0.0128843
0.00319391
-0.00550973
-0.00911352
-0.00618786
0.00138158
0.00987448
0.0163759
0.0199079
0.0211413
0.0213696
0.0212095
0.0196979
0.0153232
0.00772268
-0.00127319
-0.00829565
-0.0104129
-0.0069659
0.000214389
0.00810205
0.0143346
0.0180797
0.019761
0.02018
0.0194525
0.0167458
0.0112586
0.00346294
-0.00454343
-0.00992321
-0.0106939
-0.00677697
4.19748e-05
0.00727152
0.0130381
0.0166732
0.0184019
0.0186173
0.0171244
0.0133581
0.00719881
-0.000282943
-0.00696677
-0.01062
-0.0100811
-0.00574124
0.00068328
0.00715567
0.0122429
0.0154377
0.0168276
0.0165228
0.0142424
0.00976729
0.00353363
-0.00307939
-0.00816115
-0.0101205
-0.00845799
-0.00389574
0.00198958
0.00757629
0.0118183
0.0143636
0.0152402
0.0144259
0.0117157
0.00715997
0.00146131
-0.00400614
-0.00766693
-0.00844314
-0.00621018
-0.00180657
0.00340168
0.00813253
0.0116075
0.0135666
0.0140012
0.0128247
0.00992941
0.00552185
0.000410366
-0.00412268
-0.00674017
-0.006698
-0.00400507
0.000398171
0.00545559
0.00980849
0.013268
0.0148526
0.015716
0.0138416
0.0119436
0.00625039
0.00283581
-0.00267793
0.0972753
0.0967942
0.0950539
0.0918929
0.0861515
0.0760474
0.059085
0.0311641
-0.00926385
-0.0660018
-0.11777
-0.138489
-0.147834
-0.141006
-0.105815
-0.0614159
-0.0196777
0.0130106
0.0337518
0.0394284
0.028308
0.00727756
-0.00839129
-0.0102567
-0.00241362
0.00726992
0.0151851
0.0209982
0.0252691
0.0279556
0.0291881
0.0307524
0.0315181
0.0275509
0.0156018
-0.00117801
-0.0123524
-0.0108085
0.000158205
0.0115307
0.0187498
0.0217063
0.021729
0.0205923
0.0202983
0.0210313
0.0199748
0.0136532
0.00205389
-0.0101271
-0.0162796
-0.0132734
-0.0034806
0.00741658
0.0152042
0.0187659
0.019331
0.0190158
0.0191666
0.0187691
0.0153628
0.0074262
-0.00351724
-0.0131734
-0.0169885
-0.013371
-0.00446668
0.00542963
0.0129493
0.0170243
0.0185104
0.0188977
0.0187853
0.017002
0.011901
0.00324745
-0.00678503
-0.0144494
-0.0165671
-0.0124596
-0.00420031
0.00479689
0.0118772
0.0161548
0.0181611
0.0187696
0.0179879
0.0148337
0.00849834
-0.000320955
-0.00918595
-0.0149711
-0.0155753
-0.0109834
-0.00321433
0.00495503
0.011459
0.0155995
0.0176523
0.0179983
0.0163073
0.0119314
0.00485203
-0.00358091
-0.0109376
-0.0147863
-0.0139394
-0.00890302
-0.00161318
0.0056738
0.0113991
0.0150382
0.0166864
0.0163903
0.0137545
0.0085566
0.00140876
-0.00602636
-0.0115886
-0.0135716
-0.0115061
-0.00625513
0.000407367
0.00668956
0.0114626
0.0143621
0.0154033
0.0144807
0.0113264
0.00603983
-0.000481557
-0.00661629
-0.0106016
-0.0112984
-0.00863133
-0.00358291
0.00230991
0.00763181
0.0115451
0.0137767
0.0142916
0.012924
0.00953593
0.00441257
-0.00144613
-0.00654277
-0.00939246
-0.00921578
-0.00608146
-0.00106739
0.0046217
0.00950734
0.0133762
0.0151913
0.0161872
0.0140613
0.0120483
0.00537901
0.00286359
-0.00515983
0.101885
0.101649
0.10073
0.098719
0.0944246
0.085811
0.0695469
0.0400035
-0.00681563
-0.0794071
-0.144687
-0.166824
-0.178671
-0.171188
-0.124537
-0.0677817
-0.0166793
0.0218524
0.0452653
0.0490376
0.0304299
-0.0014639
-0.0241675
-0.0254532
-0.013235
0.000184331
0.00998997
0.0163798
0.0201817
0.0211762
0.0204008
0.0211743
0.0222739
0.0182607
0.00477344
-0.0144307
-0.0273347
-0.0251107
-0.0111641
0.00356013
0.0128035
0.0162288
0.015761
0.0140268
0.0135811
0.0144309
0.0131611
0.00594909
-0.00700144
-0.020465
-0.0271332
-0.0233829
-0.0118178
0.000986282
0.010059
0.0141242
0.0147275
0.0143967
0.0146313
0.0141951
0.0103521
0.00155979
-0.0103937
-0.0208258
-0.0248151
-0.020604
-0.0105299
0.000612922
0.0090301
0.0135671
0.0152614
0.0157925
0.0157397
0.0137547
0.00807879
-0.00141105
-0.0122583
-0.0204113
-0.0224949
-0.0178136
-0.00863889
0.00128974
0.00906884
0.0137765
0.0160508
0.0168287
0.0160149
0.0124988
0.00547658
-0.00415627
-0.0136799
-0.0197427
-0.0201619
-0.0149848
-0.00642638
0.00250464
0.00959477
0.0141388
0.0164624
0.0169237
0.0150653
0.0101755
0.00234046
-0.00684407
-0.0146972
-0.0186426
-0.0174923
-0.0118592
-0.00386233
0.00407074
0.0102962
0.0142914
0.0161562
0.0158611
0.012909
0.00708939
-0.000812058
-0.00888861
-0.0147865
-0.0167304
-0.0142884
-0.00845514
-0.00116346
0.0056667
0.0108568
0.0140434
0.0152212
0.0141905
0.0106362
0.00471955
-0.00247711
-0.00912474
-0.0133221
-0.0139014
-0.0108427
-0.00525248
0.0011941
0.00698335
0.0112442
0.0136976
0.0142726
0.0127219
0.00888742
0.0031441
-0.00332976
-0.00885944
-0.0118545
-0.0115258
-0.00800363
-0.00248348
0.00370825
0.00900803
0.013193
0.0151916
0.0162875
0.013938
0.0118283
0.00434708
0.00272985
-0.00740234
0.106602
0.106657
0.10671
0.106136
0.103763
0.0974451
0.0828226
0.0526138
-0.00171877
-0.097063
-0.179719
-0.198786
-0.214012
-0.208856
-0.148215
-0.0759162
-0.0135184
0.0317485
0.0577592
0.058281
0.0284358
-0.0187453
-0.0501856
-0.0484072
-0.0284264
-0.00918011
0.00328451
0.0102807
0.0131103
0.0117298
0.00888041
0.00919207
0.0109321
0.00678336
-0.00821243
-0.0295181
-0.0438639
-0.0408855
-0.0239375
-0.00575474
0.00563009
0.00955456
0.0085945
0.00629257
0.00575706
0.0068128
0.00550309
-0.00226941
-0.0161502
-0.030568
-0.0376892
-0.0333973
-0.0203679
-0.0059152
0.00426602
0.00872842
0.00931598
0.00894756
0.00928295
0.00891604
0.00487553
-0.00442498
-0.0170275
-0.0279787
-0.0320791
-0.0274174
-0.0164494
-0.00435396
0.00472226
0.00955697
0.011361
0.0119953
0.0120309
0.00998171
0.00398652
-0.00601046
-0.0173589
-0.0257937
-0.0278017
-0.0226771
-0.012838
-0.00226432
0.00596316
0.01092
0.0133554
0.0142666
0.0134736
0.0097585
0.00231489
-0.00781981
-0.0177274
-0.0239048
-0.0241282
-0.0185055
-0.0094009
1.64764e-05
0.00745064
0.0122257
0.0147257
0.0152848
0.0133362
0.00811574
-0.000206518
-0.00985266
-0.017968
-0.0218932
-0.0204655
-0.014393
-0.00592996
0.00239011
0.00889677
0.0131013
0.0151134
0.0148262
0.011658
0.0054127
-0.00298341
-0.0114447
-0.017493
-0.0193306
-0.0165742
-0.0103275
-0.00263536
0.00451296
0.00993737
0.0132979
0.0145687
0.0134599
0.00961841
0.00326415
-0.00437341
-0.0113187
-0.0155892
-0.0160211
-0.0126519
-0.0066862
0.000107802
0.00616791
0.0106278
0.013218
0.0138292
0.012139
0.00797531
0.00179466
-0.00508497
-0.0108666
-0.013903
-0.0134187
-0.00960462
-0.00374641
0.00274608
0.00827386
0.0126285
0.0147358
0.0158956
0.0133922
0.0112511
0.0032163
0.00246162
-0.00923666
0.111309
0.111694
0.112868
0.114004
0.114107
0.111011
0.099401
0.0700977
0.00628084
-0.120127
-0.227882
-0.244778
-0.265028
-0.262038
-0.179769
-0.0863605
-0.0102469
0.0425555
0.0690131
0.0670245
0.0277512
-0.0363783
-0.0832021
-0.0813125
-0.0499904
-0.0215264
-0.00509853
0.0025694
0.0039034
-0.000251139
-0.00503701
-0.00474664
-0.00202639
-0.0060454
-0.0219422
-0.0446781
-0.0602306
-0.056811
-0.037321
-0.0159822
-0.00258595
0.00178885
0.000334867
-0.00251515
-0.00308351
-0.00167337
-0.00270794
-0.0105434
-0.0247915
-0.0397259
-0.047181
-0.0425893
-0.0285609
-0.012915
-0.00195685
0.00269845
0.00315376
0.0026936
0.00315767
0.00303075
-0.000869471
-0.010225
-0.0230258
-0.0341781
-0.0383038
-0.0333622
-0.021858
-0.00921808
0.000167803
0.00504947
0.00680743
0.00748238
0.00765726
0.00574592
-0.000222964
-0.0103084
-0.0217745
-0.0302446
-0.0321312
-0.0267269
-0.016543
-0.00570094
0.0026332
0.00758333
0.0100248
0.0110226
0.0103371
0.00665805
-0.000852582
-0.011097
-0.021058
-0.0271627
-0.0271874
-0.0212988
-0.0119587
-0.00241273
0.00504224
0.00981088
0.0123563
0.0129996
0.011087
0.00580003
-0.00265419
-0.0124021
-0.0205038
-0.0242815
-0.0226221
-0.0163158
-0.00769674
0.000673106
0.00717014
0.0113847
0.0134538
0.0132028
0.0099818
0.00359164
-0.00496038
-0.0134935
-0.01948
-0.0211458
-0.0181656
-0.0117279
-0.0039331
0.00323181
0.0086465
0.0120282
0.0133409
0.012219
0.00827176
0.00175296
-0.00602276
-0.0130068
-0.0171954
-0.0174591
-0.0138944
-0.00777384
-0.000904389
0.00516581
0.00962506
0.0122383
0.0128656
0.0111207
0.00681421
0.000453783
-0.00656245
-0.0123795
-0.0153429
-0.0147132
-0.0107395
-0.00476553
0.00176264
0.00727314
0.0116047
0.0137239
0.0149167
0.0123735
0.0103119
0.0020578
0.00210126
-0.0105365
0.115873
0.116624
0.119032
0.122165
0.125306
0.126773
0.12013
0.0959378
0.0204289
-0.158571
-0.288007
-0.287422
-0.321791
-0.331739
-0.222829
-0.101971
-0.00896785
0.0467125
0.0675573
0.064535
0.0229478
-0.0448604
-0.108205
-0.116538
-0.0766817
-0.0370856
-0.0153143
-0.00679988
-0.00736277
-0.0144475
-0.020929
-0.0201538
-0.0159603
-0.019187
-0.0350143
-0.0582622
-0.0747054
-0.0713145
-0.0501957
-0.0264541
-0.0114674
-0.00682161
-0.00882583
-0.0122387
-0.0127813
-0.0108006
-0.011127
-0.0184156
-0.0323839
-0.0473301
-0.0549468
-0.0503016
-0.0358281
-0.0195919
-0.00832762
-0.00378639
-0.00364755
-0.00428173
-0.00364514
-0.00330714
-0.00665777
-0.0155481
-0.0280435
-0.0390431
-0.0430922
-0.0380528
-0.0264186
-0.0137218
-0.00446402
0.000137836
0.00164329
0.00227781
0.00266811
0.00114859
-0.00438509
-0.0140827
-0.0252414
-0.0334786
-0.0351961
-0.0296965
-0.0195314
-0.00886095
-0.000831271
0.00379563
0.00605018
0.007083
0.00662253
0.00327027
-0.00389098
-0.0138013
-0.0234526
-0.0292848
-0.029116
-0.0231692
-0.0139503
-0.00469233
0.00239981
0.00687481
0.00930874
0.0100305
0.00832215
0.00329427
-0.00487679
-0.0143229
-0.0221126
-0.0256129
-0.0237841
-0.0174839
-0.00906856
-0.00104241
0.00510133
0.00908813
0.0111122
0.0109492
0.0078912
0.00170033
-0.0066157
-0.0148742
-0.0205737
-0.022006
-0.0189165
-0.0125498
-0.00499999
0.00182807
0.00694473
0.0101679
0.0114723
0.0104353
0.00661962
0.000267357
-0.00729995
-0.0140394
-0.0179842
-0.0180688
-0.0144498
-0.00843506
-0.00181016
0.00396265
0.00818467
0.0106889
0.0113218
0.00964558
0.00543789
-0.000791837
-0.00763771
-0.0132538
-0.0160265
-0.0152737
-0.0113002
-0.0054727
0.00078022
0.00598601
0.01007
0.0120922
0.0132965
0.0108668
0.00903044
0.000941796
0.00169615
-0.0112182
0.120147
0.121273
0.124992
0.130271
0.137062
0.144029
0.145388
0.128941
0.0409829
-0.187434
-0.393739
-0.364588
-0.407454
-0.432854
-0.280811
-0.122369
-0.0116575
0.0373087
0.0463031
0.0337298
0.0032996
-0.0555558
-0.127293
-0.147822
-0.104904
-0.0548307
-0.0270994
-0.0176436
-0.020361
-0.0304267
-0.0383244
-0.0364797
-0.0301017
-0.0316019
-0.046254
-0.0690042
-0.0858889
-0.0829975
-0.0613984
-0.0363615
-0.020483
-0.0159048
-0.0186076
-0.022641
-0.0230894
-0.0202611
-0.0193725
-0.0254592
-0.0384823
-0.0529183
-0.0604922
-0.0560139
-0.0416719
-0.0255273
-0.0145278
-0.0104948
-0.0109146
-0.0118241
-0.0109551
-0.00989145
-0.0122488
-0.0201324
-0.0318082
-0.0422945
-0.0461579
-0.0412
-0.0298552
-0.0176266
-0.00898784
-0.00504456
-0.00403196
-0.00352284
-0.00282778
-0.00367215
-0.00833344
-0.0171483
-0.0275653
-0.0352986
-0.0368011
-0.0313975
-0.0216314
-0.0116016
-0.00432513
-0.000373721
0.00147942
0.00249565
0.0023979
-0.000306465
-0.00667441
-0.0157894
-0.0247607
-0.0301225
-0.0297723
-0.0239879
-0.0152675
-0.0067414
-0.000426451
0.00344123
0.0055943
0.00639748
0.00508809
0.000677936
-0.00676859
-0.0154953
-0.0226721
-0.025771
-0.0238467
-0.0178106
-0.00998208
-0.0027194
0.002702
0.0062053
0.00807909
0.00807488
0.00542835
-0.000186201
-0.00785228
-0.0154809
-0.0206692
-0.0218152
-0.0187457
-0.0127324
-0.00579964
0.00031416
0.00482424
0.00769829
0.00895012
0.00811991
0.00470645
-0.00111936
-0.00811493
-0.0143213
-0.0178639
-0.0177683
-0.0142523
-0.00862566
-0.00258886
0.00255747
0.00628934
0.00854685
0.00918556
0.00772788
0.0038932
-0.00186954
-0.00822388
-0.0133987
-0.0158667
-0.0150229
-0.0112256
-0.00582767
-0.000182492
0.00441301
0.0080124
0.00982694
0.0110315
0.00889334
0.00744609
-7.04856e-05
0.0012899
-0.0112393
0.123974
0.125474
0.130478
0.138031
0.148798
0.163057
0.176137
0.184016
0.0830599
-0.18036
-0.455244
-0.404501
-0.512496
-0.575606
-0.370005
-0.152987
-0.0249137
0.00465909
0.0056103
-0.0120417
-0.024948
-0.0713031
-0.141647
-0.171491
-0.130837
-0.0730841
-0.0398351
-0.0295663
-0.0345827
-0.0476534
-0.0566473
-0.0530431
-0.0435892
-0.0423429
-0.0547777
-0.0760824
-0.0928887
-0.0908522
-0.0699285
-0.044883
-0.0290151
-0.0249958
-0.0286451
-0.0333932
-0.0336634
-0.0296703
-0.0270425
-0.0313002
-0.0427632
-0.0562013
-0.0635187
-0.0593853
-0.045715
-0.030351
-0.0202314
-0.0171542
-0.0184103
-0.0197041
-0.0185301
-0.0164696
-0.0173984
-0.0237618
-0.0341373
-0.0437722
-0.0473435
-0.0426302
-0.0319741
-0.020731
-0.0132127
-0.0103248
-0.0100569
-0.00976037
-0.00866116
-0.00854487
-0.0119079
-0.0193675
-0.028633
-0.0356091
-0.0368558
-0.0317324
-0.022733
-0.0138042
-0.00772908
-0.00480961
-0.00357431
-0.0026227
-0.00221489
-0.00395102
-0.00909276
-0.0169698
-0.0249112
-0.0296196
-0.029106
-0.0237017
-0.0158483
-0.00848959
-0.00336133
-0.000412864
0.00129242
0.0021854
0.00147504
-0.00195975
-0.00825071
-0.0158574
-0.0221387
-0.024726
-0.0227865
-0.0172712
-0.0104057
-0.00431733
1.98372e-05
0.0027884
0.00441104
0.00464536
0.00266518
-0.00199739
-0.0086101
-0.0152695
-0.0197389
-0.0205574
-0.0176424
-0.0122641
-0.00631382
-0.00128261
0.00231995
0.00466013
0.00582229
0.00532924
0.00259432
-0.00234793
-0.00841921
-0.0138185
-0.0168141
-0.0165465
-0.0132956
-0.00833853
-0.00322747
0.000971323
0.00396674
0.00584536
0.006498
0.00541785
0.00223548
-0.00272686
-0.00827797
-0.0127831
-0.0148432
-0.0139476
-0.010506
-0.00581885
-0.00110647
0.00258291
0.00546912
0.00697217
0.00817203
0.00650955
0.00561356
-0.00093173
0.000916078
-0.0105988
0.127203
0.129028
0.135213
0.144799
0.159788
0.180734
0.212082
0.211219
0.174125
-0.220269
-0.607623
-0.43883
-0.508731
-0.693114
-0.459604
-0.196623
-0.0634719
-0.0439453
-0.0528021
-0.0541733
-0.0506755
-0.0833516
-0.14622
-0.182093
-0.148914
-0.0888997
-0.0521997
-0.0417773
-0.0493074
-0.0654355
-0.0751494
-0.0689883
-0.0555109
-0.0506205
-0.060035
-0.0791437
-0.0953598
-0.0943645
-0.0750984
-0.0513104
-0.036441
-0.0335771
-0.038496
-0.0440701
-0.0440612
-0.0385793
-0.0337339
-0.0356342
-0.0450359
-0.0570704
-0.0639339
-0.0602711
-0.0477295
-0.0337743
-0.0251313
-0.0234636
-0.0258378
-0.0276179
-0.0260625
-0.0227528
-0.0218697
-0.0262752
-0.0349451
-0.0434414
-0.0466265
-0.042294
-0.032675
-0.0228837
-0.0169512
-0.0154941
-0.0162087
-0.016203
-0.0146056