/*--------------------------------*- C++ -*----------------------------------*\
  =========                 |
  \\      /  F ield         | OpenFOAM: The Open Source CFD Toolbox
   \\    /   O peration     | Website:  https://openfoam.org
    \\  /    A nd           | Version:  11
     \\/     M anipulation  |
\*---------------------------------------------------------------------------*/
FoamFile
{
    format      ascii;
    class       surfaceScalarField;
    location    "18.145138";
    object      phi_0;
}
// * * * * * * * * * * * * * * * * * * * * * * * * * * * * * * * * * * * * * //

dimensions      [0 3 -1 0 0 0 0];

internalField   nonuniform List<scalar> 
14638
(
0.00250259
-2.59379e-06
0.00251055
-7.96054e-06
0.00252415
-1.35912e-05
0.00254349
-1.93419e-05
0.00256843
-2.49417e-05
0.00259834
-2.99104e-05
0.00263193
-3.35897e-05
0.002667
-3.50674e-05
0.00270042
-3.3424e-05
0.00272848
-2.80575e-05
0.0027474
-1.89185e-05
0.00275522
-7.8247e-06
0.00275203
3.19501e-06
0.00274005
1.19756e-05
0.00272384
1.62056e-05
0.00270902
1.48296e-05
0.00270055
8.4659e-06
0.00270126
-7.116e-07
0.00271068
-9.41783e-06
0.00272466
-1.39812e-05
0.0027363
-1.16402e-05
0.00273843
-2.12786e-06
0.00272646
1.19712e-05
0.00269983
2.66245e-05
0.00266161
3.82192e-05
0.00261713
4.44793e-05
0.00257275
4.4382e-05
0.00253503
3.77179e-05
0.00251024
2.47978e-05
0.00250368
6.55501e-06
0.00251866
-1.49832e-05
0.00255466
-3.60004e-05
0.00260562
-5.09505e-05
0.00266002
-5.44033e-05
0.00270409
-4.40668e-05
0.00272672
-2.26373e-05
0.00272331
3.41704e-06
0.00269616
2.71441e-05
0.00265227
4.38937e-05
0.00260034
5.19311e-05
0.00254895
5.13908e-05
0.00250597
4.29754e-05
0.00247866
2.73084e-05
0.00247342
5.24142e-06
0.00249446
-2.10411e-05
0.00254127
-4.68034e-05
0.00260628
-6.50113e-05
0.00267523
-6.89505e-05
0.00273118
-5.59555e-05
0.00276062
-2.94399e-05
0.00275805
2.57563e-06
0.0027267
3.13455e-05
0.00267574
5.09608e-05
0.00261624
5.94963e-05
0.00255845
5.77987e-05
0.00251091
4.75337e-05
0.00248095
2.99634e-05
0.00247481
6.14091e-06
0.00249652
-2.17097e-05
0.00254534
-4.8824e-05
0.00261356
-6.82205e-05
0.00268679
-7.32316e-05
0.00274772
-6.09304e-05
0.00278185
-3.41239e-05
0.00278227
-4.25097e-07
0.00275127
3.10024e-05
0.00269821
5.30654e-05
0.00263546
6.27458e-05
0.00257478
6.06811e-05
0.00252557
4.92067e-05
0.00249504
3.05292e-05
0.00248867
6.37483e-06
0.00250948
-2.08092e-05
0.00255603
-4.65551e-05
0.00262075
-6.47204e-05
0.00269046
-6.97088e-05
0.00274963
-5.91651e-05
0.00278497
-3.53481e-05
0.00278938
-4.40297e-06
0.0027635
2.58784e-05
0.00271482
4.86805e-05
0.00265475
6.00699e-05
0.00259531
5.94377e-05
0.0025468
4.8508e-05
0.00251699
2.98082e-05
0.00251107
5.92605e-06
0.00253101
-1.99446e-05
0.00257428
-4.3272e-05
0.00263301
-5.87295e-05
0.0026951
-6.20862e-05
0.00274725
-5.21508e-05
0.00277865
-3.14026e-05
0.00278368
-5.02648e-06
0.0027628
2.08819e-05
0.00272176
4.10418e-05
0.00266969
5.20689e-05
0.00261693
5.27599e-05
0.00257318
4.37439e-05
0.00254632
2.68668e-05
0.00254147
4.85186e-06
0.00256005
-1.85799e-05
0.00259882
-3.87709e-05
0.00264988
-5.10651e-05
0.00270229
-5.2411e-05
0.00274492
-4.26316e-05
0.00276942
-2.44994e-05
0.00277204
-2.62102e-06
0.00275391
1.81362e-05
0.00271999
3.39148e-05
0.00267759
4.24028e-05
0.00263485
4.27368e-05
0.00259966
3.51912e-05
0.00257865
2.10131e-05
0.00257613
2.5164e-06
0.00259296
-1.68268e-05
0.00262577
-3.2812e-05
0.00266739
-4.16163e-05
0.00270853
-4.11418e-05
0.00274034
-3.18149e-05
0.00275671
-1.6362e-05
0.00275544
1.265e-06
0.00273824
1.72052e-05
0.00270959
2.86505e-05
0.00267546
3.41282e-05
0.0026422
3.32549e-05
0.00261581
2.63953e-05
0.00260122
1.45843e-05
0.0026015
-2.75021e-07
0.00261682
-1.53201e-05
0.00264399
-2.71761e-05
0.00267694
-3.29441e-05
0.00270819
-3.12543e-05
0.00273097
-2.27818e-05
0.00274092
-9.94219e-06
0.00273689
4.02373e-06
0.00272079
1.60989e-05
0.00269658
2.42116e-05
0.00266918
2.73999e-05
0.00264362
2.55634e-05
0.00262446
1.91602e-05
0.00261531
9.14752e-06
0.00261816
-2.84991e-06
0.00263265
-1.44893e-05
0.00265576
-2.3113e-05
0.00268232
-2.65596e-05
0.0027063
-2.39769e-05
0.00272247
-1.61697e-05
0.00272776
-5.29188e-06
0.00272184
5.92035e-06
0.00270683
1.50146e-05
0.00268646
2.03699e-05
0.0026651
2.13616e-05
0.00264708
1.8016e-05
0.00263609
1.0986e-05
0.00263513
9.58349e-07
0.00264525
-1.01113e-05
0.00266648
-2.12302e-05
0.0026945
-2.80225e-05
0.00272777
-3.32688e-05
-2.50718e-05
0.00250258
-5.17496e-06
0.00251051
-1.58921e-05
0.00252408
-2.71594e-05
0.00254345
-3.87089e-05
0.00256852
-5.00104e-05
0.00259872
-6.01105e-05
0.00263281
-6.76875e-05
0.00266861
-7.0863e-05
0.00270291
-6.77281e-05
0.0027318
-5.69462e-05
0.00275121
-3.83297e-05
0.00275906
-1.56701e-05
0.00275535
6.90203e-06
0.00274237
2.49599e-05
0.00272491
3.36666e-05
0.00270894
3.07958e-05
0.00269982
1.75884e-05
0.00270062
-1.51139e-06
0.00271094
-1.97431e-05
0.00272643
-2.94641e-05
0.00273964
-2.4855e-05
0.00274284
-5.32234e-06
0.00273109
2.37149e-05
0.00270388
5.38359e-05
0.0026645
7.75997e-05
0.00261855
9.04309e-05
0.00257258
9.03508e-05
0.00253331
7.69886e-05
0.00250718
5.09295e-05
0.00249981
1.39185e-05
0.00251494
-3.01073e-05
0.00255236
-7.34237e-05
0.00260592
-0.000104505
0.00266341
-0.000111893
0.00271002
-9.06815e-05
0.00273388
-4.65013e-05
0.00273021
7.0928e-06
0.0027017
5.56494e-05
0.00265591
8.96901e-05
0.00260194
0.000105896
0.00254856
0.000104773
0.00250369
8.7841e-05
0.00247475
5.62545e-05
0.00246853
1.14601e-05
0.00248986
-4.2372e-05
0.00253864
-9.55821e-05
0.00260707
-0.000133442
0.00267988
-0.000141764
0.00273885
-0.000114926
0.00276957
-6.0155e-05
0.00276641
5.73488e-06
0.00273315
6.46006e-05
0.00267973
0.00010439
0.00261778
0.000121439
0.00255778
0.0001178
0.00250827
9.70461e-05
0.00247654
6.16883e-05
0.00246909
1.35978e-05
0.00249041
-4.30289e-05
0.00254025
-9.86638e-05
0.002611
-0.000138971
0.00268775
-0.00014999
0.00275217
-0.000125347
0.00278865
-7.05994e-05
0.00278967
-1.44693e-06
0.00275758
6.30858e-05
0.00270236
0.000108285
0.00263711
0.000128003
0.00257402
0.000123767
0.00252264
0.000100583
0.0024902
6.29705e-05
0.00248239
1.41924e-05
0.00250267
-4.10945e-05
0.00255
-9.38842e-05
0.00261673
-0.000131452
0.00268912
-0.0001421
0.00275086
-0.000120904
0.00278805
-7.25342e-05
0.00279325
-9.60443e-06
0.00276713
5.19969e-05
0.00271738
9.84284e-05
0.00265572
0.000121737
0.00259443
0.000120723
0.00254407
9.88694e-05
0.0025127
6.11764e-05
0.00250594
1.26911e-05
0.00252619
-4.01976e-05
0.00257102
-8.81033e-05
0.00263214
-0.000119844
0.00269664
-0.000126586
0.00275048
-0.000105992
0.00278249
-6.34173e-05
0.00278715
-9.68162e-06
0.00276525
4.27758e-05
0.00272291
8.33796e-05
0.0026695
0.000105486
0.00261545
0.00010681
0.00257058
8.8612e-05
0.00254299
5.44558e-05
0.00253818
9.66175e-06
0.00255785
-3.82494e-05
0.00259868
-7.95984e-05
0.00265223
-0.000104618
0.00270678
-0.000106965
0.00275057
-8.64191e-05
0.002775
-4.89306e-05
0.00277652
-4.14147e-06
0.00275669
3.79657e-05
0.00272096
6.96512e-05
0.00267694
8.64199e-05
0.00263298
8.67005e-05
0.00259706
7.11075e-05
0.00257598
4.20981e-05
0.00257422
4.27253e-06
0.00259269
-3.52997e-05
0.00262779
-6.79091e-05
0.00267178
-8.56031e-05
0.00271472
-8.40847e-05
0.00274729
-6.43838e-05
0.00276323
-3.23056e-05
0.00276059
3.90528e-06
0.00274147
3.63301e-05
0.00271079
5.93225e-05
0.0026749
7.0025e-05
0.00264036
6.7788e-05
0.00261335
5.3411e-05
0.00259894
2.89889e-05
0.00260028
-1.61466e-06
0.00261747
-3.25055e-05
0.00264697
-5.66764e-05
0.00268215
-6.81235e-05
0.00271498
-6.40897e-05
0.00273832
-4.61201e-05
0.00274773
-1.93542e-05
0.00274231
9.44968e-06
0.00272431
3.41003e-05
0.00269809
5.0427e-05
0.00266892
5.65671e-05
0.00264209
5.24015e-05
0.00262234
3.89027e-05
0.00261346
1.80314e-05
0.00261748
-6.86533e-06
0.0026339
-3.09113e-05
0.00265934
-4.85542e-05
0.00268809
-5.53089e-05
0.0027136
-4.9484e-05
0.0027303
-3.28789e-05
0.00273509
-1.00775e-05
0.00272781
1.32031e-05
0.00271091
3.19153e-05
0.00268849
4.27836e-05
0.00266526
4.45988e-05
0.0026458
3.74728e-05
0.00263404
2.27496e-05
0.00263314
1.85211e-06
0.00264425
-2.12214e-05
0.00266731
-4.42893e-05
0.00269761
-5.83205e-05
0.00273344
-6.9096e-05
-5.14677e-05
0.00250256
-7.73021e-06
0.00251042
-2.37588e-05
0.00252394
-4.06737e-05
0.00254334
-5.81112e-05
0.00256864
-7.53128e-05
0.0025994
-9.08681e-05
0.0026345
-0.000102785
0.00267175
-0.000108114
0.00270784
-0.000103816
0.00273842
-8.75314e-05
0.00275884
-5.87465e-05
0.00276673
-2.35649e-05
0.002762
1.16336e-05
0.00274699
3.99675e-05
0.00272703
5.3628e-05
0.00270884
4.89852e-05
0.00269851
2.79218e-05
0.00269963
-2.6291e-06
0.00271191
-3.20305e-05
0.0027305
-4.80535e-05
0.00274686
-4.12078e-05
0.00275201
-1.04727e-05
0.0027404
3.53244e-05
0.00271164
8.25915e-05
0.00266963
0.000119614
0.00262055
0.000139504
0.0025714
0.000139506
0.00252917
0.000119216
0.00250066
7.94421e-05
0.00249206
2.25133e-05
0.0025079
-4.59477e-05
0.00254861
-0.000114129
0.00260774
-0.000163636
0.00267159
-0.000175745
0.00272318
-0.000142273
0.00274903
-7.23458e-05
0.00274412
1.19989e-05
0.00271217
8.76055e-05
0.00266202
0.000139833
0.00260373
0.000164184
0.0025464
0.000162102
0.00249804
0.000136202
0.00246629
8.80056e-05
0.00245865
1.91014e-05
0.00248097
-6.46924e-05
0.0025339
-0.000148507
0.00260929
-0.00020883
0.00269003
-0.000222512
0.0027552
-0.000180096
0.00278828
-9.32339e-05
0.00278332
1.06945e-05
0.00274541
0.000102515
0.00268633
0.000163462
0.00261914
0.000188631
0.00255477
0.000182177
0.00250159
0.000150225
0.00246667
9.66064e-05
0.00245671
2.35565e-05
0.00247706
-6.33798e-05
0.0025285
-0.000150107
0.00260381
-0.000214274
0.0026872
-0.00023338
0.0027584
-0.000196551
0.00279968
-0.000111882
0.00280215
-3.91271e-06
0.00276812
9.71155e-05
0.00270871
0.0001677
0.0026385
0.000198208
0.00257076
0.000191511
0.00251538
0.000155964
0.00247972
9.86259e-05
0.00246999
2.39253e-05
0.00249053
-6.16393e-05
0.00254079
-0.000144139
0.0026125
-0.000203163
0.00269035
-0.000219948
0.00275637
-0.000186928
0.00279574
-0.000111899
0.00280093
-1.47972e-05
0.00277306
7.98643e-05
0.00272045
0.000151036
0.0026554
0.000186789
0.00259067
0.000185459
0.00253721
0.000152327
0.0025037
9.46811e-05
0.0024966
1.97927e-05
0.00251899
-6.25828e-05
0.00256826
-0.000137378
0.00263491
-0.000186491
0.00270425
-0.000195928
0.00276078
-0.000162519
0.0027928
-9.54438e-05
0.00279526
-1.21384e-05
0.00276996
6.80801e-05
0.00272397
0.000129363
0.00266729
0.000162171
0.00261061
0.000163488
0.00256395
0.000135272
0.00253581
8.25915e-05
0.00253228
1.32e-05
0.00255531
-6.12878e-05
0.00260111
-0.000125396
0.00265995
-0.000163459
0.00271857
-0.000165581
0.00276406
-0.000131906
0.00278752
-7.23924e-05
0.00278592
-2.54406e-06
0.00276184
6.20491e-05
0.00272177
0.00010972
0.00267411
0.000134075
0.00262763
0.000133181
0.00259058
0.000108161
0.00257
6.26718e-05
0.00257063
3.64789e-06
0.00259321
-5.78823e-05
0.0026334
-0.000108096
0.00268222
-0.000134425
0.00272848
-0.000130344
0.00276203
-9.79377e-05
0.00277652
-4.6794e-05
0.00277052
9.90759e-06
0.00274703
5.98191e-05
0.00271194
9.44126e-05
0.00267233
0.000109639
0.00263529
0.000104828
0.00260733
8.13726e-05
0.00259379
4.25241e-05
0.00259787
-5.69806e-06
0.00261933
-5.39577e-05
0.00265376
-9.11123e-05
0.00269338
-0.000107742
0.00272908
-9.97912e-05
0.00275309
-7.01281e-05
0.00276096
-2.72262e-05
0.0027523
1.81149e-05
0.00273016
5.62402e-05
0.00269974
8.08464e-05
0.002667
8.93067e-05
0.00263774
8.1656e-05
0.00261714
5.95087e-05
0.00260921
2.59588e-05
0.00261601
-1.36684e-05
0.00263664
-5.15402e-05
0.00266685
-7.87615e-05
0.00269983
-8.82894e-05
0.00272806
-7.77127e-05
0.00274543
-5.02489e-05
0.0027488
-1.34512e-05
0.00273848
2.35262e-05
0.00271761
5.27818e-05
0.00269105
6.9342e-05
0.00266415
7.15031e-05
0.00264203
5.9591e-05
0.00262906
3.57208e-05
0.00262872
2.19522e-06
0.00264223
-3.47296e-05
0.00266918
-7.12422e-05
0.00270402
-9.31656e-05
0.00274462
-0.000109697
-8.00892e-05
0.00250251
-1.02421e-05
0.00251027
-3.15143e-05
0.00252368
-5.40828e-05
0.0025431
-7.75327e-05
0.00256871
-0.000100927
0.00260027
-0.00012243
0.00263687
-0.00013938
0.00267635
-0.000147595
0.00271523
-0.0001427
0.00274851
-0.000120806
0.00277053
-8.07724e-05
0.00277856
-3.15897e-05
0.00277228
1.79171e-05
0.00275411
5.81323e-05
0.0027302
7.75342e-05
0.00270848
7.07136e-05
0.00269617
4.02311e-05
0.00269771
-4.1748e-06
0.00271307
-4.73873e-05
0.0027366
-7.15828e-05
0.00275795
-6.25635e-05
0.00276619
-1.8706e-05
0.00275472
4.67891e-05
0.00272345
0.00011386
0.00267726
0.000165804
0.00262333
0.000193433
0.0025693
0.000193546
0.00252257
0.000165944
0.00249041
0.000111598
0.00247989
3.30396e-05
0.00249681
-6.28747e-05
0.00254272
-0.000160036
0.00261077
-0.000231688
0.00268475
-0.00024972
0.00274411
-0.000201636
0.00277283
-0.000101061
0.00276564
1.91825e-05
0.00272796
0.000125293
0.00267083
0.000196957
0.00260581
0.000229209
0.00254251
0.000225399
0.00248897
0.000189745
0.00245294
0.000124029
0.00244255
2.94995e-05
0.00246476
-8.69081e-05
0.00252162
-0.000205362
0.00260566
-0.000292869
0.00269832
-0.000315171
0.00277468
-0.000256461
0.00281382
-0.000132375
0.0028079
1.66115e-05
0.00276355
0.000146868
0.00269582
0.000231192
0.00262045
0.000264006
0.00254937
0.000253253
0.0024906
0.000208996
0.00245058
0.000136631
0.00243633
3.77974e-05
0.00245488
-8.19267e-05
0.00250879
-0.000204015
0.00259098
-0.000296464
0.00268377
-0.000326167
0.0027641
-0.000276881
0.00281185
-0.000159635
0.00281668
-8.74522e-06
0.00278069
0.00013311
0.00271607
0.000232315
0.00263923
0.000275046
0.00256492
0.000265821
0.00250382
0.000217071
0.00246388
0.000138567
0.00245243
3.5368e-05
0.00247515
-8.43573e-05
0.00253161
-0.000200595
0.00261181
-0.000283361
0.00269761
-0.000305752
0.0027687
-0.000258021
0.00280937
-0.000152561
0.00281261
-1.80422e-05
0.00278074
0.000111739
0.0027232
0.000208573
0.00265307
0.000256915
0.0025836
0.000254936
0.00252625
0.000209669
0.00249065
0.000130288
0.00248444
2.60018e-05
0.00251137
-8.95178e-05
0.0025681
-0.000194102
0.00264298
-0.000261379
0.00271887
-0.000271816
0.00277846
-0.000222111
0.00280957
-0.000126545
0.00280785
-1.04272e-05
0.00277665
9.9286e-05
0.00272458
0.000181433
0.00266267
0.000224083
0.00260211
0.000224048
0.00255324
0.000184134
0.00252515
0.000110683
0.00252453
1.38196e-05
0.00255337
-9.01228e-05
0.00260672
-0.000178742
0.00267289
-0.000229636
0.00273666
-0.000229345
0.00278385
-0.000179102
0.00280536
-9.39051e-05
0.00279889
3.92561e-06
0.00276837
9.2573e-05
0.00272177
0.000156316
0.00266867
0.000187179
0.00261854
0.000183307
0.00258012
0.000146587
0.00256085
8.19428e-05
0.00256561
-1.11247e-06
0.00259465
-8.69223e-05
0.00264225
-0.000155702
0.00269764
-0.000189809
0.002748
-0.000180707
0.00278234
-0.000132278
0.00279432
-5.87751e-05
0.00278329
2.09432e-05
0.00275345
8.96551e-05
0.00271199
0.00013587
0.00266707
0.000154561
0.00262657
0.000145334
0.00259754
0.000110396
0.00258571
5.43526e-05
0.00259423
-1.42163e-05
0.00262212
-8.18488e-05
0.00266359
-0.000132584
0.00270917
-0.000153321
0.00274839
-0.000139013
0.00277282
-9.4558e-05
0.00277814
-3.25436e-05
0.00276469
3.15699e-05
0.00273661
8.43187e-05
0.00270024
0.000117217
0.00266252
0.000127029
0.00263002
0.000114152
0.00260851
8.10211e-05
0.00260236
3.21016e-05
0.00261354
-2.48451e-05
0.00264037
-7.83644e-05
0.00267723
-0.00011563
0.0027158
-0.000126859
0.00274733
-0.000109235
0.00276511
-6.80349e-05
0.00276613
-1.44728e-05
0.00275134
3.83177e-05
0.00272484
7.92784e-05
0.0026925
0.000101684
0.00266057
0.000103436
0.00263494
8.52226e-05
0.00262062
5.00407e-05
0.00262149
1.32666e-06
0.00263878
-5.20191e-05
0.00267137
-0.00010384
0.00271246
-0.000134254
0.00275911
-0.000156341
-0.000111193
0.00250245
-1.26874e-05
0.00251003
-3.90951e-05
0.00252325
-6.73052e-05
0.00254263
-9.69144e-05
0.00256858
-0.000126879
0.00260115
-0.000154999
0.00263973
-0.000177958
0.00268227
-0.000190137
0.00272511
-0.000185538
0.00276224
-0.000157937
0.00278657
-0.000105098
0.0027948
-3.98236e-05
0.00278634
2.63784e-05
0.00276367
8.07987e-05
0.00273411
0.000107095
0.00270729
9.75314e-05
0.00269213
5.53936e-05
0.00269428
-6.32688e-06
0.00271409
-6.71898e-05
0.00274482
-0.000102314
0.00277347
-9.12117e-05
0.00278613
-3.13663e-05
0.00277476
5.81536e-05
0.00273979
0.000148829
0.00268766
0.000217941
0.00262697
0.00025412
0.00256622
0.000254292
0.00251329
0.000218872
0.00247598
0.000148916
0.00246252
4.64922e-05
0.00248087
-8.12192e-05
0.00253444
-0.000213606
0.00261577
-0.000313024
0.00270454
-0.000338487
0.00277473
-0.000271831
0.00280686
-0.000133183
0.00279574
3.02963e-05
0.0027495
0.000171536
0.00268242
0.000264032
0.00260812
0.000303511
0.00253683
0.000296689
0.00247632
0.000250255
0.00243389
0.000166463
0.00241758
4.58095e-05
0.00243568
-0.000105015
0.00249319
-0.000262871
0.0025853
-0.000384976
0.00269291
-0.000422776
0.00278646
-0.000350017
0.00283834
-0.00018425
0.00283597
1.89808e-05
0.00278616
0.000196673
0.00270807
0.000309282
0.00262187
0.000350212
0.0025416
0.000333517
0.00247502
0.00027558
0.00242791
0.000183737
0.00240846
5.72458e-05
0.00242651
-9.99729e-05
0.00248638
-0.000263884
0.00257942
-0.000389506
0.00268404
-0.000430784
0.00277366
-0.000366498
0.00282656
-0.000212535
0.00283226
-1.44537e-05
0.00279329
0.000172085
0.00272272
0.000302884
0.00263832
0.000359445
0.00255623
0.000347915
0.00248825
0.000285049
0.00244373
0.000183084
0.0024319
4.72023e-05
0.00245966
-0.000112119
0.00252566
-0.000266597
0.0026169
-0.0003746
0.00271182
-0.000400673
0.00278777
-0.000333974
0.00282838
-0.000193163
0.00282752
-1.71817e-05
0.00278923
0.000150026
0.00272466
0.000273141
0.00264794
0.00033364
0.0025728
0.000330068
0.00251136
0.000271112
0.00247438
0.000167268
0.00247082
2.9563e-05
0.00250461
-0.000123313
0.00257079
-0.000260278
0.002655
-0.000345588
0.00273759
-0.000354409
0.00279982
-0.000284339
0.00282918
-0.000155906
0.00282209
-3.33423e-06
0.0027834
0.000137973
0.00272355
0.000241283
0.00265496
0.000292675
0.00258964
0.00028937
0.00253854
0.000235237
0.00251143
0.000137787
0.00251549
9.76058e-06
0.00255211
-0.000126745
0.0026145
-0.000241127
0.00268859
-0.000303728
0.00275727
-0.000298025
0.00280549
-0.000227325
0.00282418
-0.000112596
0.00281182
1.62842e-05
0.00277369
0.00013071
0.00271933
0.000210676
0.0026597
0.000246807
0.00260531
0.000237697
0.00256564
0.000186258
0.00254867
9.89104e-05
0.00255925
-1.16894e-05
0.00259655
-0.00012423
0.00265289
-0.000212037
0.00271531
-0.000252225
0.00276948
-0.000234882
0.00280385
-0.000166646
0.00281235
-6.72799e-05
0.00279522
3.8076e-05
0.00275793
0.000126943
0.00270905
0.000184752
0.00265798
0.000205631
0.00261361
0.0001897
0.00258381
0.000140203
0.00257472
6.34404e-05
0.00258926
-2.87545e-05
0.00262524
-0.000117825
0.00267492
-0.000182268
0.00272688
-0.000205285
0.00276935
-0.00018148
0.00279346
-0.00011867
0.00279525
-3.43311e-05
0.00277594
5.08836e-05
0.00274085
0.000119405
0.00269756
0.000160503
0.00265415
0.000170447
0.00261814
0.000150155
0.00259609
0.000103077
0.00259276
3.54289e-05
0.00260979
-4.1879e-05
0.00264431
-0.000112877
0.00268888
-0.000160204
0.00273339
-0.00017137
0.00276791
-0.000143756
0.00278538
-8.5498e-05
0.00278307
-1.21704e-05
0.00276275
5.86357e-05
0.00272958
0.000112449
0.00269053
0.000140742
0.00265288
0.000141084
0.00262346
0.000114639
0.00260811
6.53969e-05
0.00261111
-1.67347e-06
0.00263351
-7.44196e-05
0.00267301
-0.000143347
0.00272119
-0.000182429
0.00277389
-0.000209043
-0.000144174
0.00250235
-1.5036e-05
0.00250967
-4.64155e-05
0.00252258
-8.02192e-05
0.00254181
-0.000116139
0.00256805
-0.000153123
0.00260177
-0.000188714
0.00264279
-0.000218985
0.0026893
-0.000236646
0.00273749
-0.000233722
0.00277993
-0.000200377
0.00280745
-0.000132625
0.00281613
-4.84981e-05
0.00280487
3.76327e-05
0.00277612
0.00010955
0.00273879
0.000144428
0.00270489
0.000131433
0.0026856
7.46765e-05
0.00268834
-9.06638e-06
0.00271414
-9.29894e-05
0.00275488
-0.000143049
0.00279373
-0.000130065
0.00281254
-5.01705e-05
0.00280123
6.9455e-05
0.00276115
0.000188914
0.00270102
0.000278068
0.00263147
0.000323674
0.00256204
0.000323726
0.00250101
0.000279901
0.0024567
0.000193224
0.00243898
6.42085e-05
0.00245876
-0.000101
0.00252218
-0.000277024
0.00262142
-0.000412259
0.00273095
-0.000448014
0.0028166
-0.000357482
0.00285319
-0.000169782
0.0028359
4.75874e-05
0.00277736
0.000230082
0.00269674
0.000344649
0.00261045
0.000389801
0.00252921
0.000377929
0.00245976
0.000319709
0.00240777
0.000218447
0.00238098
7.26041e-05
0.00239088
-0.000114917
0.00244784
-0.000319831
0.00254952
-0.000486657
0.00267426
-0.000547514
0.0027874
-0.000463161
0.00285571
-0.000252554
0.00286147
1.32145e-05
0.00280948
0.000248664
0.00272165
0.000397113
0.00262318
0.000448682
0.0025315
0.0004252
0.00245496
0.00035212
0.00239969
0.000239001
0.00237635
8.05866e-05
0.00239788
-0.000121496
0.00246853
-0.000334536
0.00257569
-0.000496672
0.00269286
-0.000547948
0.00279027
-0.000463913
0.00284547
-0.000267731
0.00284895
-1.7941e-05
0.00280472
0.000216322
0.00272701
0.00038059
0.00263449
0.000451968
0.00254417
0.000438238
0.00246914
0.000360076
0.00242083
0.00023139
0.00241066
5.73728e-05
0.00244595
-0.000147404
0.002523
-0.000343647
0.0026252
-0.000476805
0.00272818
-0.000503654
0.00280791
-0.0004137
0.00284767
-0.000232925
0.00284192
-1.14285e-05
0.00279616
0.000195781
0.0027234
0.000345901
0.00263915
0.000417889
0.00255797
0.000411255
0.00249278
0.0003363
0.00245565
0.000204402
0.00245647
2.87341e-05
0.00249853
-0.000165365
0.0025744
-0.00033615
0.00266696
-0.000438145
0.00275474
-0.000442195
0.00281839
-0.000347988
0.00284548
-0.000182999
0.00283295
9.20341e-06
0.00278672
0.000184194
0.0027188
0.000309206
0.00264312
0.000368359
0.00257286
0.00035963
0.00251994
0.000288155
0.00249496
0.000162766
0.00250516
-4.40785e-07
0.0025506
-0.000172181
0.002622
-0.000312535
0.00270297
-0.000384693
0.00277507
-0.000370121
0.00282304
-0.000275296
0.00283822
-0.00012778
0.00281982
3.46893e-05
0.00277413
0.000176395
0.00271204
0.000272766
0.00264588
0.000312973
0.00258738
0.000296191
0.00254708
0.000226556
0.00253357
0.00011242
0.00255131
-2.94227e-05
0.00259776
-0.000170686
0.00266277
-0.000277047
0.00273127
-0.000320723
0.0027879
-0.000291506
0.00282107
-0.000199817
0.00282532
-7.15325e-05
0.00280176
6.16364e-05
0.00275696
0.000171746
0.00270069
0.00024102
0.00264359
0.000262725
0.00259573
0.000237566
0.00256592
0.000170007
0.00256078
6.85782e-05
0.00258263
-5.06001e-05
0.0026275
-0.000162699
0.00268536
-0.000240123
0.00274287
-0.000262795
0.00278735
-0.000225967
0.00281
-0.000141312
0.00280744
-3.1771e-05
0.00278181
7.65088e-05
0.00273953
0.00016169
0.0026893
0.000210732
0.00264033
0.000219413
0.00260126
0.000189224
0.00257952
0.000124819
0.00258023
3.47224e-05
0.00260435
-6.60004e-05
0.0026473
-0.000155824
0.00269952
-0.000212429
0.00274918
-0.000221033
0.00278553
-0.000180103
0.00280152
-0.000101486
0.002795
-5.65603e-06
0.00276859
8.5047e-05
0.00272844
0.000152597
0.00268256
0.000186623
0.0026393
0.000184347
0.00260652
0.000147423
0.00259096
8.09552e-05
0.00259724
-7.95867e-06
0.00262588
-0.000103051
0.00267282
-0.000190291
0.00272783
-0.00023744
0.00278524
-0.000266449
-0.000177597
0.00250221
-1.72486e-05
0.00250916
-5.33618e-05
0.00252159
-9.26513e-05
0.00254046
-0.000135009
0.00256685
-0.000179512
0.00260175
-0.000223611
0.00264564
-0.000262875
0.0026971
-0.000288107
0.00275232
-0.000288944
0.00280186
-0.000249922
0.00283363
-0.000164388
0.00284295
-5.78194e-05
0.00282813
5.24537e-05
0.00279137
0.000146312
0.00274369
0.000192103
0.00270028
0.000174839
0.00267539
9.95699e-05
0.0026788
-1.24759e-05
0.00271265
-0.00012684
0.00276705
-0.000197447
0.00281988
-0.000182894
0.00284692
-7.72158e-05
0.00283542
8.09613e-05
0.00278824
0.00023609
0.00271757
0.000348741
0.00263674
0.000404506
0.00255648
0.000403981
0.00248529
0.000351087
0.00243193
0.000246584
0.0024078
8.83421e-05
0.00242597
-0.000119172
0.00249524
-0.000346292
0.002611
-0.000528022
0.00274692
-0.000583928
0.00285874
-0.000469303
0.00290819
-0.000219238
0.00288638
6.94023e-05
0.00281229
0.00030417
0.00271388
0.000443062
0.00261251
0.000491165
0.00251934
0.000471099
0.00243867
0.000400384
0.00237366
0.00028346
0.00233361
0.000112651
0.00233694
-0.000118246
0.00239963
-0.00038252
0.00251703
-0.000604054
0.00266022
-0.000690704
0.00278936
-0.0005923
0.00286963
-0.000332824
0.00288206
7.76305e-07
0.00282939
0.000301337
0.00273364
0.000492869
0.0026232
0.000559121
0.00251896
0.00052944
0.00243124
0.000439835
0.00236834
0.0003019
0.00234423
0.000104698
0.00237338
-0.000150646
0.00245713
-0.000418285
0.00257773
-0.00061727
0.00270507
-0.000675287
0.00280806
-0.000566902
0.00286398
-0.000323652
0.00286387
-1.78322e-05
0.00281311
0.000267083
0.00272749
0.000466204
0.00262665
0.000552805
0.00252834
0.000536557
0.00244704
0.000441372
0.00239653
0.000281901
0.00238995
6.39534e-05
0.00243372
-0.000191179
0.00252086
-0.00043078
0.00263145
-0.000587403
0.00273963
-0.000611833
0.00282131
-0.000495376
0.00285996
-0.00027158
0.0028501
-1.56827e-06
0.0027978
0.000248087
0.00271736
0.000426335
0.0026258
0.000509449
0.0025389
0.00049816
0.00247082
0.000404376
0.0024349
0.000240329
0.00244132
2.2311e-05
0.00249173
-0.00021578
0.00257589
-0.000420306
0.00267432
-0.000536574
0.00276474
-0.000532619
0.00282811
-0.000411356
0.00285254
-0.000207429
0.00283529
2.64502e-05
0.00278277
0.000236716
0.00270789
0.000384085
0.00262591
0.000450346
0.00255139
0.000434146
0.00249757
0.000341976
0.00247586
0.000184473
0.00249306
-1.76337e-05
0.00254714
-0.000226263
0.00262613
-0.000391524
0.00271169
-0.000470257
0.00278492
-0.000443353
0.00283109
-0.000321467
0.0028423
-0.000138984
0.00281835
5.86399e-05
0.00276617
0.000228572
0.0026975
0.000341434
0.00262582
0.000384653
0.0025642
0.00035781
0.00252439
0.000266365
0.00251552
0.000121294
0.00254116
-5.50632e-05
0.0025965
-0.000226026
0.00266876
-0.000349302
0.00274121
-0.000393175
0.0027982
-0.000348503
0.00282878
-0.000230392
0.00282831
-7.10642e-05
0.00279868
9.12713e-05
0.00274721
0.000223213
0.00268458
0.00030365
0.0026225
0.000324805
0.00257224
0.000287825
0.0025437
0.000198552
0.00254376
6.85181e-05
0.00257365
-8.04992e-05
0.00262717
-0.000216211
0.00269186
-0.000304813
0.00275296
-0.000323897
0.00279757
-0.000270583
0.00281745
-0.00016119
0.00281005
-2.43706e-05
0.00277832
0.000108238
0.00272949
0.000210518
0.00267318
0.000267043
0.00261964
0.000272957
0.00257863
0.000230237
0.0025585
0.000144947
0.0025645
2.87249e-05
0.00259644
-9.79398e-05
0.00264758
-0.000206967
0.00270621
-0.000271059
0.0027592
-0.000274023
0.00279558
-0.000216489
0.00280881
-0.000114715
0.00279749
5.66462e-06
0.00276501
0.000117526
0.00271834
0.000199273
0.00266632
0.000238639
0.00261831
0.00023236
0.00258323
0.000182498
0.00256875
9.54371e-05
0.00257953
-1.87371e-05
0.00261502
-0.000138541
0.00266894
-0.000244213
0.00272933
-0.000297826
0.00278893
-0.000326052
-0.000209468
0.00250203
-1.92759e-05
0.00250845
-5.97881e-05
0.00252017
-0.000104366
0.00253839
-0.000153232
0.00256464
-0.000205761
0.00260061
-0.000259583
0.00264769
-0.00030995
0.00270519
-0.000345608
0.00276959
-0.00035335
0.00282861
-0.000308934
0.00286607
-0.000201849
0.00287661
-6.83632e-05
0.00285749
7.15731e-05
0.00281025
0.000193551
0.00274882
0.00025354
0.00269263
0.000231022
0.00265989
0.000132314
0.00266364
-1.62229e-05
0.0027079
-0.000171107
0.0027807
-0.000270244
0.00285255
-0.000254741
0.00289065
-0.000115323
0.0028786
9.30139e-05
0.00282183
0.000292858
0.00273754
0.000433037
0.0026427
0.000499346
0.00254932
0.00049736
0.00246589
0.00043451
0.00240119
0.000311289
0.00236587
0.000123657
0.00237174
-0.000125037
0.00243163
-0.000406184
0.00255251
-0.0006489
0.00271598
-0.000747397
0.00286939
-0.000622709
0.00295245
-0.0003023
0.00293996
8.18863e-05
0.00285344
0.000390693
0.0027343
0.000562205
0.00261436
0.000611099
0.00250685
0.000578615
0.00241262
0.000494611
0.00233284
0.000363243
0.00228193
0.000163553
0.00228671
-0.000123021
0.00236398
-0.000459789
0.00250092
-0.000741
0.00266038
-0.000850164
0.00279955
-0.000731469
0.00288465
-0.000417922
0.00289842
-1.29997e-05
0.00284351
0.000356251
0.00274102
0.000595361
0.00262002
0.00068012
0.00250365
0.000645811
0.00240517
0.000538316
0.0023366
0.000370472
0.00231491
0.000126386
0.00235352
-0.000189257
0.0024488
-0.000513564
0.00257851
-0.000746983
0.00271137
-0.000808142
0.00281713
-0.000672664
0.00287349
-0.000380012
0.00287099
-1.53303e-05
0.00281501
0.000323061
0.0027224
0.000558818
0.00261399
0.000661214
0.00250863
0.000641915
0.00242253
0.000527467
0.00237163
0.000332805
0.0023698
6.57811e-05
0.00242141
-0.000242785
0.00251595
-0.000525321
0.0026312
-0.000702649
0.00274107
-0.000721712
0.00282252
-0.000576817
0.00285975
-0.000308816
0.00284715
1.10303e-05
0.00279045
0.000304792
0.00270433
0.000512459
0.00260692
0.000606856
0.0025155
0.000589582
0.00244582
0.000474051
0.00241233
0.000273823
0.00242476
9.87614e-06
0.00248245
-0.000273469
0.00257237
-0.000510222
0.00267352
-0.000637726
0.00276377
-0.000622871
0.0028251
-0.000472689
0.00284653
-0.000228856
0.00282558
4.73991e-05
0.00276861
0.000293684
0.0026888
0.000463898
0.00260226
0.000536883
0.00252496
0.00051145
0.00247156
0.000395377
0.00245412
0.000201911
0.00247839
-4.19033e-05
0.00253982
-0.000287691
0.00262389
-0.000475599
0.00271114
-0.000557507
0.00278304
-0.000515251
0.00282595
-0.000364384
0.00283296
-0.000145987
0.00280436
8.72428e-05
0.00274731
0.00028562
0.00267393
0.000414813
0.00259852
0.000460063
0.0025354
0.000420925
0.00249755
0.000304217
0.00249432
0.000124523
0.00252784
-8.85822e-05
0.00259064
-0.000288822
0.00266762
-0.00042628
0.00274121
-0.000466768
0.00279631
-0.000403603
0.00282306
-0.000257145
0.0028178
-6.5802e-05
0.00278298
0.000126088
0.00272635
0.000279849
0.00265908
0.000370922
0.00259374
0.000390141
0.00254277
0.00033879
0.00251704
0.000224282
0.00252334
6.22183e-05
0.00256125
-0.000118405
0.00262198
-0.000276943
0.00269107
-0.000373904
0.00275312
-0.000385944
0.00279578
-0.000313244
0.00281181
-0.00017722
0.00279954
-1.2099e-05
0.00276252
0.000145256
0.00270848
0.000264561
0.00264764
0.000327884
0.00259114
0.00032946
0.00254983
0.00027154
0.00253287
0.000161912
0.00254518
1.64116e-05
0.00258488
-0.000137641
0.00264285
-0.000264938