/*--------------------------------*- C++ -*----------------------------------*\
  =========                 |
  \\      /  F ield         | OpenFOAM: The Open Source CFD Toolbox
   \\    /   O peration     | Website:  https://openfoam.org
    \\  /    A nd           | Version:  11
     \\/     M anipulation  |
\*---------------------------------------------------------------------------*/
FoamFile
{
    format      ascii;
    class       volVectorField;
    location    "0.306938";
    object      U_0;
}
// * * * * * * * * * * * * * * * * * * * * * * * * * * * * * * * * * * * * * //

dimensions      [0 1 -1 0 0 0 0];

internalField   nonuniform List<vector> 
7132
(
(1.00011 -0.00021574 2.72512e-18)
(1.00167 -0.000629223 9.76785e-18)
(1.00505 -0.00104499 1.02834e-17)
(1.01007 -0.00151811 1.48478e-17)
(1.01718 -0.00207577 2.28109e-17)
(1.02668 -0.00262165 2.68339e-17)
(1.03818 -0.00296965 2.72456e-17)
(1.05051 -0.00296716 2.57302e-17)
(1.06202 -0.00256973 2.28609e-17)
(1.07123 -0.00183286 1.80983e-17)
(1.0768 -0.000830861 1.13936e-17)
(1.07802 0.000217589 4.34423e-18)
(1.07506 0.00116203 -7.93296e-19)
(1.0687 0.00183812 -3.1783e-18)
(1.06025 0.0022089 -4.92935e-18)
(1.05094 0.00230355 -5.45428e-18)
(1.04175 0.00218946 -5.17516e-18)
(1.03337 0.00194845 -3.39422e-18)
(1.02613 0.00165071 -2.06478e-18)
(1.02014 0.00134748 6.43921e-19)
(1.01533 0.00106981 3.37382e-18)
(1.01157 0.000832097 3.99026e-18)
(1.00867 0.000637593 3.25766e-18)
(1.00647 0.000483276 2.9333e-18)
(1.0048 0.000363415 2.55974e-18)
(1.00356 0.00027169 1.28691e-18)
(1.00263 0.000202238 4.91058e-19)
(1.00194 0.000150055 -1.66012e-19)
(1.00143 0.00011107 -3.00167e-20)
(1.00106 8.20668e-05 6.08437e-19)
(1.00078 6.0556e-05 9.96445e-19)
(1.00057 4.46389e-05 5.52778e-19)
(1.00042 3.2881e-05 2.47378e-19)
(1.00031 2.42068e-05 5.25231e-19)
(1.00023 1.78135e-05 2.64787e-19)
(1.00017 1.31049e-05 2.79799e-19)
(1.00012 9.63886e-06 -2.07889e-19)
(1.00009 7.08856e-06 -3.50293e-19)
(1.00007 5.21263e-06 1.69143e-19)
(1.00005 3.83306e-06 1.2103e-19)
(1.00004 2.8187e-06 2.52306e-19)
(1.00003 2.07295e-06 -2.06113e-19)
(1.00002 1.52474e-06 -3.50638e-19)
(1.00001 1.12176e-06 1.68805e-19)
(1.00001 8.25544e-07 1.25269e-19)
(1.00001 6.07814e-07 2.54002e-19)
(1.00001 4.47772e-07 -2.05961e-19)
(1 3.30129e-07 -3.7301e-19)
(1 2.43651e-07 2.29607e-19)
(1 1.80074e-07 -1.59438e-19)
(1 1.33332e-07 -1.45277e-18)
(1 9.89581e-08 -1.72732e-18)
(1 7.36784e-08 -1.01668e-18)
(1 5.50772e-08 -7.08449e-19)
(1 4.13898e-08 -3.13392e-19)
(1 3.13078e-08 -5.35252e-19)
(1 2.38817e-08 -5.14458e-19)
(1 1.84009e-08 1.28915e-19)
(1 1.43567e-08 2.01879e-19)
(1 1.13613e-08 3.10461e-19)
(1 9.14398e-09 -2.10445e-19)
(1 7.49133e-09 -3.20446e-19)
(1 6.26118e-09 -2.16707e-19)
(1 5.33425e-09 -9.80904e-19)
(1 4.63793e-09 -5.2042e-19)
(1 4.1038e-09 -2.40053e-19)
(1 3.69668e-09 -5.48406e-20)
(1 3.37553e-09 2.84531e-19)
(1 3.12533e-09 -3.35883e-19)
(1 2.92009e-09 6.01545e-20)
(1 2.7557e-09 1.03406e-19)
(1 2.61434e-09 4.19348e-20)
(1 2.49752e-09 2.4703e-19)
(1 2.39201e-09 -3.95602e-19)
(1 2.30227e-09 2.46655e-20)
(1 2.21777e-09 8.89191e-20)
(1 2.14434e-09 3.4857e-20)
(1 2.07306e-09 2.42864e-19)
(1 2.01023e-09 -3.94521e-19)
(1 1.94799e-09 3.17029e-20)
(1 1.89259e-09 9.7995e-20)
(1 1.83687e-09 4.07693e-20)
(1 1.78667e-09 2.43228e-19)
(1 1.73547e-09 -3.98218e-19)
(1 1.6887e-09 2.72183e-20)
(1 1.64058e-09 9.44943e-20)
(1 1.59618e-09 3.74054e-20)
(1 1.55054e-09 2.39222e-19)
(1 1.50826e-09 -4.01425e-19)
(1 1.46505e-09 2.48508e-20)
(1 1.42497e-09 1.13112e-19)
(1 1.38432e-09 -4.56484e-20)
(1 1.34651e-09 7.38525e-19)
(1 1.30844e-09 3.95652e-19)
(1 1.27282e-09 3.24492e-19)
(1 1.23713e-09 2.52355e-19)
(1 1.20344e-09 -9.78274e-20)
(1 1.16984e-09 4.39696e-19)
(1 1.1378e-09 -7.51924e-20)
(1 1.10605e-09 -1.36664e-19)
(1 1.07549e-09 -4.99362e-20)
(1 1.04546e-09 -2.16886e-19)
(1 1.01627e-09 4.3369e-19)
(1 9.87885e-10 -4.84074e-20)
(1 9.60029e-10 -1.18259e-19)
(1 9.33234e-10 -4.52879e-20)
(1 9.06635e-10 -2.18331e-19)
(1 8.81302e-10 4.31967e-19)
(1 8.55801e-10 -4.92444e-20)
(1 8.31747e-10 -1.1897e-19)
(1 8.07187e-10 -4.60993e-20)
(1 7.8429e-10 -2.18707e-19)
(1 7.60612e-10 4.32249e-19)
(1 7.38838e-10 -4.89816e-20)
(1 7.16028e-10 -1.19624e-19)
(1 6.95345e-10 -4.81784e-20)
(1 6.73364e-10 -2.20285e-19)
(1 6.53704e-10 4.25265e-19)
(1 6.32491e-10 -2.75621e-20)
(1 6.13789e-10 -2.19283e-19)
(1 5.93302e-10 4.18106e-19)
(1 5.75511e-10 5.08646e-19)
(1 5.55713e-10 5.93029e-19)
(1 5.3879e-10 -1.55529e-20)
(1 5.19655e-10 -3.44082e-19)
(1 5.03564e-10 1.34754e-19)
(1 4.85073e-10 1.40009e-19)
(1 4.69785e-10 2.74954e-19)
(1 4.51918e-10 -1.95289e-19)
(1 4.37403e-10 -3.95782e-19)
(1 4.20137e-10 1.46368e-19)
(1 4.06354e-10 1.6051e-19)
(1 3.89658e-10 2.8449e-19)
(1 3.76566e-10 -1.94509e-19)
(1 3.60407e-10 -3.97459e-19)
(1 3.47957e-10 1.45204e-19)
(1 3.32293e-10 1.60072e-19)
(1 3.20431e-10 2.84394e-19)
(1 3.05214e-10 -1.94282e-19)
(1 2.93878e-10 -3.96753e-19)
(1 2.79063e-10 1.46264e-19)
(1 2.68204e-10 1.61059e-19)
(1 2.53763e-10 2.84961e-19)
(1 2.43363e-10 -1.94124e-19)
(1 2.29303e-10 -3.96745e-19)
(1 2.1936e-10 1.46313e-19)
(1 2.05689e-10 1.61099e-19)
(1 1.96195e-10 2.84824e-19)
(1 1.8291e-10 -1.94477e-19)
(1 1.73844e-10 -3.97159e-19)
(1 1.60941e-10 1.46023e-19)
(1 1.52285e-10 1.60978e-19)
(1 1.39842e-10 2.84779e-19)
(1 1.31708e-10 -1.94585e-19)
(1 1.20137e-10 -3.97106e-19)
(1 1.12518e-10 1.44935e-19)
(1 1.02732e-10 1.66219e-19)
(1 9.34568e-11 2.57808e-19)
(1 9.16466e-11 -6.34746e-20)
(1 6.58602e-11 -1.01021e-18)
(1.00011 -0.000645991 3.67528e-20)
(1.00166 -0.00188548 4.24764e-19)
(1.00503 -0.0031329 9.22919e-19)
(1.01005 -0.00455414 1.90583e-18)
(1.01717 -0.00623271 3.4865e-18)
(1.02672 -0.00788364 4.99194e-18)
(1.03832 -0.00894967 5.58881e-18)
(1.05084 -0.00896563 6.40641e-18)
(1.06261 -0.00778759 5.54672e-18)
(1.07211 -0.00556965 3.9114e-18)
(1.07787 -0.00252833 2.55004e-18)
(1.07911 0.000656259 1.33886e-18)
(1.07598 0.00352204 -2.6348e-18)
(1.06935 0.00555982 -5.34336e-18)
(1.06063 0.00666618 -5.95423e-18)
(1.05107 0.00693892 -5.22301e-18)
(1.04172 0.00658717 -4.15016e-18)
(1.03323 0.00585864 -2.8302e-18)
(1.02594 0.00496231 -1.22545e-18)
(1.01994 0.00405012 2.99564e-19)
(1.01515 0.00321452 1.17991e-18)
(1.01141 0.00249897 1.27008e-18)
(1.00854 0.00191364 9.49345e-19)
(1.00636 0.00144959 6.55978e-19)
(1.00472 0.0010895 4.95238e-19)
(1.0035 0.000814183 3.43251e-19)
(1.00259 0.000605879 1.73905e-19)
(1.00191 0.000449457 4.60437e-20)
(1.00141 0.00033264 -1.63012e-19)
(1.00104 0.000245756 4.62333e-19)
(1.00076 0.000181327 3.42306e-19)
(1.00056 0.000133659 -9.20859e-19)
(1.00041 9.84491e-05 -5.4377e-19)
(1.0003 7.24748e-05 -5.82393e-19)
(1.00022 5.33315e-05 -2.02407e-19)
(1.00016 3.92327e-05 7.90982e-19)
(1.00012 2.88547e-05 -3.76521e-20)
(1.00009 2.12187e-05 -8.31276e-20)
(1.00007 1.56019e-05 -2.15773e-19)
(1.00005 1.14713e-05 2.02373e-20)
(1.00004 8.43414e-06 7.92698e-19)
(1.00003 6.20128e-06 -2.00976e-19)
(1.00002 4.55987e-06 -2.72774e-19)
(1.00001 3.35331e-06 -3.30117e-19)
(1.00001 2.46644e-06 -3.15111e-21)
(1.00001 1.81457e-06 8.11629e-19)
(1.00001 1.33543e-06 -1.71608e-19)
(1 9.83252e-07 -3.02162e-19)
(1 7.24387e-07 -1.48608e-19)
(1 5.34097e-07 -8.97366e-19)
(1 3.94214e-07 -5.20941e-19)
(1 2.91369e-07 -3.98581e-19)
(1 2.15753e-07 -2.74373e-19)
(1 1.6014e-07 2.78944e-20)
(1 1.19235e-07 -5.21427e-19)
(1 8.91326e-08 -1.32808e-21)
(1 6.69776e-08 8.86649e-20)
(1 5.0655e-08 5.96207e-20)
(1 3.86286e-08 2.12322e-19)
(1 2.97506e-08 -4.26424e-19)
(1 2.31963e-08 5.68935e-20)
(1 1.83405e-08 8.65989e-20)
(1 1.47433e-08 1.97355e-19)
(1 1.20616e-08 -4.2594e-19)
(1 1.00636e-08 -2.32411e-19)
(1 8.55857e-09 1.19427e-18)
(1 7.42665e-09 2.12504e-19)
(1 6.55965e-09 1.73696e-19)
(1 5.89797e-09 -4.66842e-19)
(1 5.37803e-09 -3.60623e-19)
(1 4.97266e-09 9.56837e-19)
(1 4.64259e-09 -4.58836e-20)
(1 4.37793e-09 -1.83077e-21)
(1 4.15278e-09 -5.33185e-19)
(1 3.96629e-09 -3.61515e-19)
(1 3.79999e-09 9.6978e-19)
(1 3.65764e-09 -4.17908e-20)
(1 3.52508e-09 -5.4447e-21)
(1 3.40825e-09 -5.37567e-19)
(1 3.29571e-09 -3.63576e-19)
(1 3.19434e-09 9.68787e-19)
(1 3.09463e-09 -4.42528e-20)
(1 3.00369e-09 -1.02871e-20)
(1 2.9134e-09 -5.43245e-19)
(1 2.83055e-09 -3.67912e-19)
(1 2.74802e-09 9.66138e-19)
(1 2.67188e-09 -4.72427e-20)
(1 2.59582e-09 -1.29569e-20)
(1 2.52515e-09 -5.52238e-19)
(1 2.45441e-09 -3.47753e-19)
(1 2.38813e-09 8.79915e-19)
(1 2.32174e-09 3.01698e-19)
(1 2.25902e-09 8.3501e-19)
(1 2.19633e-09 9.84118e-19)
(1 2.1367e-09 8.86583e-19)
(1 2.07737e-09 7.88574e-19)
(1 2.02062e-09 -1.84717e-19)
(1 1.96452e-09 8.31501e-20)
(1 1.91053e-09 6.88107e-20)
(1 1.85751e-09 3.28429e-20)
(1 1.8061e-09 2.07712e-19)
(1 1.75596e-09 -4.43045e-19)
(1 1.70691e-09 4.39707e-20)
(1 1.65939e-09 1.09696e-19)
(1 1.61245e-09 6.99494e-20)
(1 1.56731e-09 2.21488e-19)
(1 1.52231e-09 -4.4269e-19)
(1 1.47941e-09 4.15943e-20)
(1 1.43628e-09 1.08163e-19)
(1 1.39559e-09 6.88933e-20)
(1 1.35427e-09 2.20422e-19)
(1 1.31569e-09 -4.43376e-19)
(1 1.27608e-09 4.1682e-20)
(1 1.23944e-09 1.08661e-19)
(1 1.20138e-09 6.90615e-20)
(1 1.16654e-09 2.19611e-19)
(1 1.12992e-09 -4.43803e-19)
(1 1.09678e-09 3.61277e-20)
(1 1.06153e-09 1.28495e-19)
(1 1.02999e-09 -2.53505e-20)
(1 9.96041e-10 6.7515e-19)
(1 9.66026e-10 2.39927e-19)
(1 9.33291e-10 1.52858e-19)
(1 9.04707e-10 1.02635e-19)
(1 8.7312e-10 -1.58669e-19)
(1 8.45877e-10 4.18375e-19)
(1 8.15362e-10 -8.07324e-20)
(1 7.89374e-10 -1.19902e-19)
(1 7.59862e-10 -5.02899e-20)
(1 7.35052e-10 -2.02024e-19)
(1 7.06493e-10 4.28716e-19)
(1 6.82798e-10 -6.32703e-20)
(1 6.55143e-10 -1.12e-19)
(1 6.32512e-10 -4.97571e-20)
(1 6.05734e-10 -2.03427e-19)
(1 5.84126e-10 4.27802e-19)
(1 5.58208e-10 -6.36133e-20)
(1 5.37603e-10 -1.12153e-19)
(1 5.12538e-10 -4.9757e-20)
(1 4.9292e-10 -2.03078e-19)
(1 4.68714e-10 4.28553e-19)
(1 4.50065e-10 -6.26983e-20)
(1 4.26695e-10 -1.11423e-19)
(1 4.08967e-10 -4.93956e-20)
(1 3.86394e-10 -2.03026e-19)
(1 3.69536e-10 4.28421e-19)
(1 3.47739e-10 -6.29776e-20)
(1 3.3174e-10 -1.11842e-19)
(1 3.10744e-10 -4.98583e-20)
(1 2.95611e-10 -2.03401e-19)
(1 2.75463e-10 4.28176e-19)
(1 2.61221e-10 -6.31319e-20)
(1 2.42119e-10 -1.11924e-19)
(1 2.28962e-10 -4.98787e-20)
(1 2.11672e-10 -2.03148e-19)
(1 1.99425e-10 4.27476e-19)
(1 1.85545e-10 -5.85097e-20)
(1 1.70701e-10 -1.34463e-19)
(1 1.71217e-10 6.12977e-20)
(1 1.31996e-10 -7.44178e-19)
(1.00011 -0.0010728 -5.71462e-22)
(1.00164 -0.0031335 5.12631e-21)
(1.00498 -0.00521424 1.32371e-20)
(1.00999 -0.00759399 2.9602e-20)
(1.01714 -0.010414 -1.95718e-19)
(1.02678 -0.0132039 8.04413e-21)
(1.03859 -0.0150377 -1.98754e-19)
(1.05147 -0.0151254 -2.35758e-18)
(1.06374 -0.0132006 -4.18833e-19)
(1.07379 -0.00947619 1.88173e-18)
(1.07992 -0.00428532 1.01382e-18)
(1.08114 0.00116398 -5.89619e-19)
(1.07765 0.00606763 -1.87108e-18)
(1.07044 0.00951686 -2.35308e-18)
(1.06112 0.0113521 -2.0409e-18)
(1.05108 0.0117591 -1.54669e-18)
(1.04139 0.0111093 -1.30829e-18)
(1.03272 0.00983456 -1.12831e-18)
(1.02537 0.00829339 -7.09185e-19)
(1.01938 0.00674239 -1.74547e-19)
(1.01465 0.00533384 1.64518e-19)
(1.01099 0.00413592 2.18506e-19)
(1.0082 0.00316115 1.29187e-19)
(1.0061 0.00239131 4.81251e-20)
(1.00452 0.00179551 1.89781e-20)
(1.00334 0.00134081 1.50536e-20)
(1.00247 0.000997225 8.74402e-21)
(1.00182 0.000739458 4.72315e-21)
(1.00134 0.000547092 -2.29373e-20)
(1.00099 0.000404093 1.86957e-20)
(1.00073 0.000298098 8.93188e-20)
(1.00053 0.0002197 7.91685e-21)
(1.00039 0.000161807 -8.56584e-20)
(1.00029 0.000119106 -2.02204e-19)
(1.00021 8.7639e-05 -2.60982e-19)
(1.00016 6.44667e-05 -1.01219e-19)
(1.00011 4.7411e-05 4.90368e-20)
(1.00008 3.48622e-05 1.39941e-19)
(1.00006 2.56321e-05 9.49134e-20)
(1.00005 1.88445e-05 -2.81834e-20)
(1.00003 1.38538e-05 -1.75161e-20)
(1.00002 1.01848e-05 -4.91443e-22)
(1.00002 7.48769e-06 4.12249e-20)
(1.00001 5.50517e-06 2.16075e-20)
(1.00001 4.04796e-06 -5.44086e-20)
(1.00001 2.9769e-06 -1.58035e-20)
(1.00001 2.18967e-06 1.07096e-20)
(1 1.61106e-06 3.39549e-20)
(1 1.18578e-06 6.47358e-20)
(1 8.7318e-07 -1.80198e-19)
(1 6.43407e-07 2.46487e-19)
(1 4.74499e-07 4.22306e-19)
(1 3.50328e-07 -9.39915e-20)
(1 2.5903e-07 -7.29801e-20)
(1 1.91898e-07 -2.28718e-19)
(1 1.4252e-07 2.28633e-19)
(1 1.06197e-07 3.67729e-19)
(1 7.94629e-08 -1.85143e-19)
(1 5.97819e-08 -1.54119e-19)
(1 4.52789e-08 -2.73841e-19)
(1 3.45884e-08 2.43542e-19)
(1 2.66939e-08 2.81944e-19)
(1 2.08616e-08 2.87901e-19)
(1 1.65388e-08 4.37898e-19)
(1 1.33326e-08 -2.82596e-19)
(1 1.09411e-08 2.21022e-19)
(1 9.15543e-09 2.4395e-19)
(1 7.80923e-09 2.01815e-19)
(1 6.79304e-09 2.93438e-19)
(1 6.01378e-09 -4.75523e-19)
(1 5.41557e-09 1.66339e-20)
(1 4.94505e-09 8.0025e-20)
(1 4.57502e-09 1.10127e-19)
(1 4.27376e-09 2.66119e-19)
(1 4.02946e-09 -4.7013e-19)
(1 3.8223e-09 2.72829e-20)
(1 3.64858e-09 8.5102e-20)
(1 3.49509e-09 1.10416e-19)
(1 3.36224e-09 2.65014e-19)
(1 3.24058e-09 -4.71043e-19)
(1 3.13243e-09 2.61516e-20)
(1 3.03047e-09 8.25663e-20)
(1 2.93772e-09 1.05802e-19)
(1 2.84825e-09 2.59011e-19)
(1 2.76526e-09 -4.76761e-19)
(1 2.68395e-09 2.22266e-20)
(1 2.60754e-09 7.95009e-20)
(1 2.53218e-09 1.08991e-19)
(1 2.46086e-09 2.39246e-19)
(1 2.39051e-09 -3.79272e-19)
(1 2.32367e-09 -4.48299e-19)
(1 2.25789e-09 -4.49606e-19)
(1 2.19521e-09 -3.06422e-19)
(1 2.13369e-09 -8.22874e-20)
(1 2.07479e-09 9.78593e-20)
(1 2.0171e-09 2.01876e-19)
(1 1.96152e-09 1.29995e-19)
(1 1.90717e-09 4.73795e-20)
(1 1.85444e-09 -1.09481e-20)
(1 1.80305e-09 -3.45043e-20)
(1 1.75288e-09 1.65162e-20)
(1 1.7042e-09 3.54746e-21)
(1 1.65641e-09 2.70946e-21)
(1 1.61028e-09 -8.14365e-21)
(1 1.56475e-09 -2.1762e-20)
(1 1.52107e-09 2.31669e-20)
(1 1.47766e-09 4.40409e-21)
(1 1.43625e-09 2.01606e-21)
(1 1.39474e-09 -8.30905e-21)
(1 1.35534e-09 -2.15242e-20)
(1 1.31552e-09 2.32377e-20)
(1 1.27796e-09 4.26027e-21)
(1 1.23972e-09 1.96459e-21)
(1 1.20392e-09 -8.11156e-21)
(1 1.16721e-09 -2.12051e-20)
(1 1.1331e-09 2.33494e-20)
(1 1.09785e-09 4.43439e-21)
(1 1.06533e-09 5.05531e-22)
(1 1.03143e-09 -4.1119e-21)
(1 1.0004e-09 -3.3055e-20)
(1 9.67767e-10 4.23501e-20)
(1 9.38149e-10 9.82774e-20)
(1 9.06731e-10 1.16385e-19)
(1 8.78455e-10 9.31803e-20)
(1 8.48192e-10 2.03753e-21)
(1 8.21197e-10 -8.35044e-21)
(1 7.92046e-10 -1.24023e-20)
(1 7.66288e-10 4.34619e-21)
(1 7.38217e-10 2.37387e-20)
(1 7.13645e-10 -2.06756e-20)
(1 6.8661e-10 -5.7697e-21)
(1 6.63172e-10 -5.21063e-21)
(1 6.37128e-10 7.93127e-21)
(1 6.14771e-10 2.4224e-20)
(1 5.89676e-10 -2.10119e-20)
(1 5.68346e-10 -5.89458e-21)
(1 5.44156e-10 -5.12135e-21)
(1 5.23798e-10 8.04192e-21)
(1 5.00464e-10 2.43314e-20)
(1 4.81022e-10 -2.08223e-20)
(1 4.5851e-10 -5.60754e-21)
(1 4.39954e-10 -4.84312e-21)
(1 4.18255e-10 8.20465e-21)
(1 4.00591e-10 2.43774e-20)
(1 3.79745e-10 -2.08358e-20)
(1 3.63016e-10 -5.66726e-21)
(1 3.43086e-10 -4.97866e-21)
(1 3.27345e-10 8.00195e-21)
(1 3.08408e-10 2.41701e-20)
(1 2.93733e-10 -2.09968e-20)
(1 2.75926e-10 -5.78078e-21)
(1 2.62436e-10 -5.06484e-21)
(1 2.46076e-10 7.94351e-21)
(1 2.34009e-10 2.41466e-20)
(1 2.1999e-10 -2.08946e-20)
(1 2.09148e-10 -5.99515e-21)
(1 1.99017e-10 -3.68248e-21)
(1 1.86686e-10 2.70274e-21)
(1 1.88892e-10 4.29376e-20)
(1 1.61518e-10 -7.64978e-20)
(1.00011 -0.00149349 -5.38395e-20)
(1.00161 -0.00436601 -5.33311e-19)
(1.0049 -0.00728233 -1.04334e-18)
(1.00988 -0.0106371 -1.9929e-18)
(1.01706 -0.0146323 -3.79888e-18)
(1.02683 -0.0186176 -8.67354e-18)
(1.03895 -0.0213041 2.54719e-18)
(1.05238 -0.0215564 -5.22148e-18)
(1.06542 -0.0189485 -4.63203e-17)
(1.07637 -0.0136767 -2.3252e-17)
(1.08307 -0.00614656 4.33927e-18)
(1.08426 0.00177792 6.09605e-18)
(1.08019 0.00889463 -3.68018e-19)
(1.07204 0.0138044 -1.80255e-18)
(1.06179 0.0163286 1.90429e-19)
(1.05099 0.0167884 1.49918e-18)
(1.04079 0.0157541 8.01304e-19)
(1.03186 0.0138629 -5.38498e-19)
(1.02443 0.0116272 -9.87266e-19)
(1.01849 0.0094065 -6.13416e-19)
(1.01387 0.00740903 -2.14798e-19)
(1.01034 0.00572366 -1.32322e-19)
(1.00768 0.00436143 -2.39681e-19)
(1.00569 0.0032915 -3.07093e-19)
(1.00421 0.00246702 -2.82658e-19)
(1.0031 0.00183984 -2.10707e-19)
(1.00229 0.00136704 -1.17357e-19)
(1.00169 0.00101294 -2.48208e-20)
(1.00124 0.000749029 -9.99059e-20)
(1.00091 0.000553026 5.44645e-19)
(1.00067 0.000407844 3.08808e-19)
(1.00049 0.000300516 -1.06274e-18)
(1.00036 0.000221289 -7.23148e-19)
(1.00027 0.00016287 -7.64579e-19)
(1.0002 0.000119829 -3.21237e-19)
(1.00014 8.81387e-05 7.1091e-19)
(1.00011 6.48161e-05 -7.69963e-20)
(1.00008 4.7658e-05 -6.04755e-20)
(1.00006 3.50383e-05 -1.67582e-19)
(1.00004 2.57586e-05 8.373e-20)
(1.00003 1.89358e-05 8.06794e-19)
(1.00002 1.39201e-05 -2.27655e-19)
(1.00002 1.02331e-05 -2.82781e-19)
(1.00001 7.52292e-06 -3.24996e-19)
(1.00001 5.53093e-06 2.36931e-20)
(1.00001 4.06682e-06 8.00162e-19)
(1 2.99072e-06 -2.13707e-19)
(1 2.1998e-06 -3.16702e-19)
(1 1.61848e-06 -1.43437e-19)
(1 1.19121e-06 -8.74727e-19)
(1 8.77151e-07 -3.74736e-19)
(1 6.46295e-07 -1.00145e-19)
(1 4.76593e-07 9.91947e-20)
(1 3.5183e-07 4.33638e-19)
(1 2.60098e-07 -2.39739e-19)
(1 1.92638e-07 1.36868e-19)
(1 1.43023e-07 1.42238e-19)
(1 1.06517e-07 6.25827e-20)
(1 7.96531e-08 2.41665e-19)
(1 5.98697e-08 -4.38776e-19)
(1 4.52975e-08 2.83199e-20)
(1 3.45492e-08 6.70022e-20)
(1 2.66188e-08 2.13758e-19)
(1 2.07534e-08 -2.85267e-19)
(1 1.64135e-08 -6.73563e-20)
(1 1.31886e-08 1.36027e-18)
(1 1.07911e-08 3.22175e-19)
(1 8.9955e-09 1.97531e-19)
(1 7.65005e-09 -4.44795e-19)
(1 6.62925e-09 -3.83828e-19)
(1 5.85461e-09 9.44513e-19)
(1 5.25491e-09 -5.35591e-20)
(1 4.7911e-09 -3.00011e-20)
(1 4.42142e-09 -5.20906e-19)
(1 4.12791e-09 -3.76635e-19)
(1 3.88485e-09 9.69369e-19)
(1 3.68543e-09 -3.87661e-20)
(1 3.51286e-09 -2.5209e-20)
(1 3.36614e-09 -5.19422e-19)
(1 3.23354e-09 -3.75231e-19)
(1 3.11704e-09 9.70358e-19)
(1 3.00805e-09 -3.96897e-20)
(1 2.90997e-09 -2.88698e-20)
(1 2.81617e-09 -5.24947e-19)
(1 2.73049e-09 -3.80619e-19)
(1 2.6475e-09 9.66639e-19)
(1 2.57085e-09 -4.23429e-20)
(1 2.49594e-09 -2.69787e-20)
(1 2.426e-09 -5.33193e-19)
(1 2.35718e-09 -3.42401e-19)
(1 2.29228e-09 8.57674e-19)
(1 2.22815e-09 2.32808e-19)
(1 2.16711e-09 6.82258e-19)
(1 2.10676e-09 7.78054e-19)
(1 2.04893e-09 7.01352e-19)
(1 1.99191e-09 6.87066e-19)
(1 1.93702e-09 -1.90796e-19)
(1 1.88317e-09 1.08822e-19)
(1 1.83109e-09 7.94418e-20)
(1 1.78025e-09 2.03021e-20)
(1 1.73079e-09 1.9711e-19)
(1 1.68274e-09 -4.25787e-19)
(1 1.63566e-09 6.11435e-20)
(1 1.59013e-09 1.06878e-19)
(1 1.54516e-09 4.88006e-20)
(1 1.5019e-09 2.06893e-19)
(1 1.45883e-09 -4.26871e-19)
(1 1.41769e-09 5.91628e-20)
(1 1.37645e-09 1.07492e-19)
(1 1.33739e-09 5.08644e-20)
(1 1.29796e-09 2.08457e-19)
(1 1.2609e-09 -4.26427e-19)
(1 1.22314e-09 5.91531e-20)
(1 1.18791e-09 1.07882e-19)
(1 1.15167e-09 5.18857e-20)
(1 1.11812e-09 2.09451e-19)
(1 1.08329e-09 -4.25056e-19)
(1 1.05133e-09 5.54448e-20)
(1 1.01785e-09 1.2584e-19)
(1 9.87411e-10 -3.77739e-20)
(1 9.5521e-10 6.53563e-19)
(1 9.26196e-10 2.11077e-19)
(1 8.95201e-10 1.1619e-19)
(1 8.67538e-10 5.52219e-20)
(1 8.3768e-10 -1.85618e-19)
(1 8.11289e-10 4.2167e-19)
(1 7.82497e-10 -5.82766e-20)
(1 7.57296e-10 -1.05963e-19)
(1 7.29506e-10 -6.74826e-20)
(1 7.05427e-10 -2.20314e-19)
(1 6.78592e-10 4.29471e-19)
(1 6.55585e-10 -4.48529e-20)
(1 6.29672e-10 -9.97697e-20)
(1 6.077e-10 -6.66075e-20)
(1 5.8269e-10 -2.20589e-19)
(1 5.61732e-10 4.2969e-19)
(1 5.37625e-10 -4.4272e-20)
(1 5.17681e-10 -9.92078e-20)
(1 4.94497e-10 -6.61254e-20)
(1 4.75585e-10 -2.20081e-19)
(1 4.53357e-10 4.30182e-19)
(1 4.35495e-10 -4.40002e-20)
(1 4.14244e-10 -9.92226e-20)
(1 3.97437e-10 -6.6223e-20)
(1 3.77179e-10 -2.20053e-19)
(1 3.61442e-10 4.30283e-19)
(1 3.42232e-10 -4.4007e-20)
(1 3.27642e-10 -9.93721e-20)
(1 3.09615e-10 -6.64048e-20)
(1 2.9632e-10 -2.20191e-19)
(1 2.79692e-10 4.30178e-19)
(1 2.67872e-10 -4.41151e-20)
(1 2.53041e-10 -9.94737e-20)
(1 2.42982e-10 -6.64754e-20)
(1 2.31014e-10 -2.19968e-19)
(1 2.22621e-10 4.29528e-19)
(1 2.15109e-10 -3.9608e-20)
(1 2.06092e-10 -1.20683e-19)
(1 2.09377e-10 3.86523e-20)
(1 1.92363e-10 -7.41906e-19)
(1.0001 -0.00190425 -3.2311e-18)
(1.00156 -0.00557327 -9.837e-18)
(1.00478 -0.00932567 -8.04014e-18)
(1.0097 -0.0136763 -1.47847e-17)
(1.01689 -0.0188928 6.77832e-18)
(1.02681 -0.024155 -7.48772e-17)
(1.03932 -0.0278213 -1.31256e-17)
(1.0535 -0.028383 3.9488e-16)
(1.06766 -0.0251978 -3.62115e-16)
(1.07991 -0.0183189 -7.7602e-16)
(1.08745 -0.00814981 -3.2956e-16)
(1.0886 0.00259838 -8.24265e-18)
(1.08368 0.0122416 6.6753e-17)
(1.07417 0.0187246 4.52574e-17)
(1.06261 0.0218923 2.02131e-17)
(1.05079 0.0222665 9.84309e-18)
(1.03992 0.0206789 4.66095e-18)
(1.03065 0.0180197 1.19257e-18)
(1.02314 0.0149784 8.98577e-19)
(1.01727 0.0120216 5.5681e-19)
(1.01281 0.00940594 -4.70226e-19)
(1.00947 0.00722817 -9.91617e-19)
(1.00699 0.00548615 -1.27989e-18)
(1.00515 0.0041284 -1.12601e-18)
(1.00379 0.00308782 -1.31574e-18)
(1.00279 0.00229927 -1.17616e-18)
(1.00206 0.00170643 -2.41429e-19)
(1.00151 0.00126332 5.08309e-20)
(1.00111 0.000933548 2.34094e-19)
(1.00082 0.000688914 -6.65555e-20)
(1.0006 0.000507865 -6.94809e-19)
(1.00044 0.000374108 -2.77095e-19)
(1.00032 0.000275419 -1.62956e-19)
(1.00024 0.000202676 -7.69727e-19)
(1.00018 0.000149097 -7.5926e-19)
(1.00013 0.000109655 -6.02539e-19)
(1.00009 8.0633e-05 1.55114e-19)
(1.00007 5.92841e-05 4.66507e-19)
(1.00005 4.35836e-05 -7.27376e-20)
(1.00004 3.20391e-05 -1.81344e-19)
(1.00003 2.35517e-05 -2.76413e-19)
(1.00002 1.73124e-05 2.40987e-19)
(1.00001 1.27261e-05 4.27424e-19)
(1.00001 9.355e-06 -1.2297e-19)
(1.00001 6.87726e-06 -2.00635e-19)
(1.00001 5.05616e-06 -2.78476e-19)
(1 3.7177e-06 2.35292e-19)
(1 2.73396e-06 4.14745e-19)
(1 2.01094e-06 -1.56898e-19)
(1 1.47953e-06 -5.03217e-20)
(1 1.08893e-06 1.56549e-18)
(1 8.01829e-07 1.77581e-18)
(1 5.9079e-07 1.03749e-18)
(1 4.35648e-07 9.49488e-19)
(1 3.21593e-07 -8.69453e-20)
(1 2.37729e-07 5.84283e-19)
(1 1.76059e-07 5.71581e-19)
(1 1.30696e-07 -1.28601e-19)
(1 9.73236e-08 -2.61057e-21)
(1 7.27578e-08 -7.20852e-19)
(1 5.46717e-08 2.96557e-19)
(1 4.13426e-08 4.01076e-19)
(1 3.15166e-08 3.64309e-19)
(1 2.426e-08 5.03139e-19)
(1 1.88988e-08 -3.3318e-19)
(1 1.4925e-08 7.85834e-19)
(1 1.1978e-08 3.00754e-19)
(1 9.78023e-09 1.37639e-19)
(1 8.14009e-09 2.23834e-19)
(1 6.90451e-09 -6.64913e-19)
(1 5.9731e-09 4.42666e-19)
(1 5.26008e-09 2.53411e-20)
(1 4.71411e-09 -1.95765e-20)
(1 4.28595e-09 1.70669e-19)
(1 3.95065e-09 -6.64313e-19)
(1 3.67893e-09 4.55798e-19)
(1 3.45992e-09 3.51309e-20)
(1 3.27535e-09 -1.36733e-20)
(1 3.12168e-09 1.74848e-19)
(1 2.98679e-09 -6.6132e-19)
(1 2.87085e-09 4.57084e-19)
(1 2.76514e-09 3.42044e-20)
(1 2.6715e-09 -1.64474e-20)
(1 2.58327e-09 1.71727e-19)
(1 2.50299e-09 -6.63318e-19)
(1 2.4255e-09 4.56638e-19)
(1 2.35361e-09 3.21553e-20)
(1 2.2833e-09 -9.97953e-21)
(1 2.21735e-09 1.32683e-19)
(1 2.15258e-09 -4.76334e-19)
(1 2.09144e-09 -4.6939e-19)
(1 2.03141e-09 -1.05048e-18)
(1 1.97449e-09 -9.46092e-19)
(1 1.91871e-09 -7.95001e-19)
(1 1.86551e-09 -5.7889e-21)
(1 1.81344e-09 3.9397e-19)
(1 1.76338e-09 -1.05765e-19)
(1 1.71443e-09 -1.32615e-19)
(1 1.667e-09 -2.67742e-19)
(1 1.62074e-09 2.12501e-19)
(1 1.5756e-09 4.06336e-19)
(1 1.53179e-09 -1.64156e-19)
(1 1.48875e-09 -1.78452e-19)
(1 1.44725e-09 -2.83249e-19)
(1 1.40624e-09 2.13381e-19)
(1 1.36697e-09 4.09692e-19)
(1 1.32788e-09 -1.62779e-19)
(1 1.29068e-09 -1.78149e-19)
(1 1.25332e-09 -2.82731e-19)
(1 1.21794e-09 2.14202e-19)
(1 1.18209e-09 4.10258e-19)
(1 1.14837e-09 -1.62783e-19)
(1 1.11393e-09 -1.78465e-19)
(1 1.08182e-09 -2.82875e-19)
(1 1.04875e-09 2.14414e-19)
(1 1.01819e-09 4.10505e-19)
(1 9.86437e-10 -1.62376e-19)
(1 9.57324e-10 -1.79675e-19)
(1 9.26787e-10 -2.78697e-19)
(1 8.9903e-10 2.02571e-19)
(1 8.69638e-10 4.29284e-19)
(1 8.43165e-10 -6.90166e-20)
(1 8.14861e-10 -6.44834e-20)
(1 7.89606e-10 -1.82059e-19)
(1 7.62339e-10 2.37355e-19)
(1 7.38256e-10 3.7874e-19)
(1 7.11997e-10 -1.79268e-19)
(1 6.89047e-10 -1.76138e-19)
(1 6.63773e-10 -2.51387e-19)
(1 6.41924e-10 2.14428e-19)
(1 6.17606e-10 3.80872e-19)
(1 5.96816e-10 -1.72584e-19)
(1 5.73423e-10 -1.72984e-19)
(1 5.53656e-10 -2.51192e-19)
(1 5.31167e-10 2.1398e-19)
(1 5.12391e-10 3.80824e-19)
(1 4.9078e-10 -1.72291e-19)
(1 4.72963e-10 -1.72615e-19)
(1 4.52213e-10 -2.50778e-19)
(1 4.35331e-10 2.14529e-19)
(1 4.1544e-10 3.81438e-19)
(1 3.99505e-10 -1.71847e-19)
(1 3.80518e-10 -1.7248e-19)
(1 3.65592e-10 -2.5084e-19)
(1 3.47611e-10 2.14476e-19)
(1 3.33807e-10 3.81458e-19)
(1 3.16973e-10 -1.7182e-19)
(1 3.04438e-10 -1.72473e-19)
(1 2.88941e-10 -2.50829e-19)
(1 2.77874e-10 2.14439e-19)
(1 2.64001e-10 3.81266e-19)
(1 2.54663e-10 -1.72183e-19)
(1 2.42909e-10 -1.72869e-19)
(1 2.35667e-10 -2.51106e-19)
(1 2.27221e-10 2.14626e-19)
(1 2.22136e-10 3.80584e-19)
(1 2.1846e-10 -1.67218e-19)
(1 2.13793e-10 -1.94931e-19)
(1 2.19454e-10 -1.45233e-19)
(1 2.13953e-10 -2.92133e-19)
(1.0001 -0.00230031 3.43366e-18)
(1.00149 -0.00674216 9.66298e-18)
(1.00459 -0.0113271 1.462e-17)
(1.00941 -0.0166964 -1.21752e-17)
(1.01657 -0.0231912 7.40547e-17)
(1.02663 -0.0298392 1.96396e-16)
(1.03961 -0.0346648 -1.23075e-15)
(1.05476 -0.0357492 7.16376e-16)
(1.07043 -0.0321623 5.32299e-15)
(1.08454 -0.023611 -2.43946e-16)
(1.09328 -0.0103911 -4.05473e-15)
(1.09438 0.00361723 -2.27804e-15)
(1.08826 0.016142 2.48073e-17)
(1.07687 0.0242677 7.30041e-16)
(1.06355 0.0279779 4.52041e-16)
(1.05037 0.0281005 1.04987e-16)
(1.03866 0.0257968 -3.02978e-17)
(1.029 0.0222446 -3.42523e-17)
(1.02142 0.0183128 -1.28033e-17)
(1.0157 0.0145694 -5.72284e-19)
(1.01147 0.0113115 2.62673e-18)
(1.00838 0.00863638 2.10967e-18)
(1.00613 0.00652159 1.12749e-18)
(1.00449 0.00488881 1.11401e-18)
(1.00329 0.00364632 1.10098e-18)
(1.00241 0.00270956 3.0318e-19)
(1.00177 0.00200788 2.12818e-20)
(1.0013 0.00148481 -2.52341e-19)
(1.00095 0.0010963 7.55376e-20)
(1.0007 0.000808505 7.16814e-19)
(1.00051 0.000595747 9.68354e-19)
(1.00038 0.00043869 3.96272e-19)
(1.00028 0.000322879 4.94413e-20)
(1.0002 0.000237554 3.37149e-19)
(1.00015 0.000174728 1.60181e-19)
(1.00011 0.000128492 2.2615e-19)
(1.00008 9.44755e-05 -2.3154e-19)
(1.00006 6.94569e-05 -3.33847e-19)
(1.00004 5.10595e-05 1.98905e-19)
(1.00003 3.75331e-05 1.7132e-19)
(1.00002 2.75892e-05 2.65857e-19)
(1.00002 2.02796e-05 -2.2715e-19)
(1.00001 1.49067e-05 -3.55945e-19)
(1.00001 1.09576e-05 1.80368e-19)
(1.00001 8.05505e-06 1.67841e-19)
(1.00001 5.92175e-06 2.66302e-19)
(1 4.35384e-06 -2.27471e-19)
(1 3.20148e-06 -3.76927e-19)
(1 2.35453e-06 2.40898e-19)
(1 1.73203e-06 -1.26781e-19)
(1 1.2745e-06 -1.29144e-18)
(1 9.38195e-07 -1.41163e-18)
(1 6.90992e-07 -6.24955e-19)
(1 5.09269e-07 -2.85068e-19)
(1 3.75673e-07 -1.90869e-20)
(1 2.77444e-07 -3.92726e-19)
(1 2.05213e-07 -4.62036e-19)
(1 1.52086e-07 1.31159e-19)
(1 1.13006e-07 2.33545e-19)
(1 8.42453e-08 3.01193e-19)
(1 6.3076e-08 -2.38101e-19)
(1 4.7481e-08 -3.41165e-19)
(1 3.59898e-08 -2.01e-19)
(1 2.75097e-08 -8.38466e-19)
(1 2.12497e-08 -3.52716e-19)
(1 1.66165e-08 -7.56795e-20)
(1 1.31859e-08 4.60628e-20)
(1 1.06339e-08 2.96975e-19)
(1 8.73451e-09 -3.19728e-19)
(1 7.30956e-09 3.9297e-20)
(1 6.23982e-09 9.69364e-20)
(1 5.42619e-09 3.83224e-20)
(1 4.80709e-09 2.2115e-19)
(1 4.32626e-09 -3.78675e-19)
(1 3.95303e-09 1.9031e-20)
(1 3.65437e-09 1.00464e-19)
(1 3.41613e-09 4.72884e-20)
(1 3.21801e-09 2.26567e-19)
(1 3.05458e-09 -3.77988e-19)
(1 2.91266e-09 1.68275e-20)
(1 2.79135e-09 9.70756e-20)
(1 2.68167e-09 4.3429e-20)
(1 2.58504e-09 2.22662e-19)
(1 2.49497e-09 -3.81083e-19)
(1 2.41389e-09 1.53056e-20)
(1 2.33678e-09 9.70464e-20)
(1 2.26622e-09 4.36753e-20)
(1 2.19814e-09 2.24699e-19)
(1 2.13493e-09 -3.84096e-19)
(1 2.07326e-09 2.86379e-20)
(1 2.01523e-09 8.94937e-20)
(1 1.95822e-09 -1.16982e-19)
(1 1.90398e-09 5.81686e-19)
(1 1.85054e-09 1.84897e-19)
(1 1.79929e-09 1.3554e-19)
(1 1.74892e-09 1.4859e-19)
(1 1.70037e-09 -1.05249e-19)
(1 1.65289e-09 4.64366e-19)
(1 1.60692e-09 -6.55517e-20)
(1 1.5622e-09 -1.50428e-19)
(1 1.51865e-09 -6.21008e-20)
(1 1.47648e-09 -2.01047e-19)
(1 1.43511e-09 4.50512e-19)
(1 1.39521e-09 -5.0138e-20)
(1 1.35574e-09 -1.37406e-19)
(1 1.31784e-09 -5.7942e-20)
(1 1.28005e-09 -2.01321e-19)
(1 1.24401e-09 4.49949e-19)
(1 1.20784e-09 -4.98847e-20)
(1 1.17363e-09 -1.36923e-19)
(1 1.13906e-09 -5.79508e-20)
(1 1.10661e-09 -2.02063e-19)
(1 1.07353e-09 4.48539e-19)
(1 1.04269e-09 -5.17812e-20)
(1 1.01093e-09 -1.38753e-19)
(1 9.81553e-10 -5.90984e-20)
(1 9.51031e-10 -2.00892e-19)
(1 9.23044e-10 4.45669e-19)
(1 8.93704e-10 -2.98998e-20)
(1 8.67043e-10 -2.32265e-19)
(1 8.38828e-10 3.95776e-19)
(1 8.13424e-10 4.7916e-19)
(1 7.86276e-10 5.55764e-19)
(1 7.62065e-10 -6.31289e-20)
(1 7.35932e-10 -3.6999e-19)
(1 7.12851e-10 1.39945e-19)
(1 6.87674e-10 1.63606e-19)
(1 6.65649e-10 2.88551e-19)
(1 6.41369e-10 -2.13022e-19)
(1 6.20346e-10 -4.13005e-19)
(1 5.96929e-10 1.49634e-19)
(1 5.76873e-10 1.80808e-19)
(1 5.54304e-10 2.967e-19)
(1 5.35197e-10 -2.12219e-19)
(1 5.13471e-10 -4.14348e-19)
(1 4.95311e-10 1.48703e-19)
(1 4.7445e-10 1.80577e-19)
(1 4.5726e-10 2.96838e-19)
(1 4.37309e-10 -2.11906e-19)
(1 4.21138e-10 -4.13925e-19)
(1 4.02164e-10 1.49132e-19)
(1 3.87073e-10 1.80849e-19)
(1 3.69144e-10 2.96829e-19)
(1 3.55191e-10 -2.12184e-19)
(1 3.38382e-10 -4.14299e-19)
(1 3.25651e-10 1.4886e-19)
(1 3.10095e-10 1.80745e-19)
(1 2.98754e-10 2.96834e-19)
(1 2.84692e-10 -2.12124e-19)
(1 2.75011e-10 -4.14194e-19)
(1 2.62804e-10 1.48988e-19)
(1 2.55107e-10 1.80829e-19)
(1 2.4532e-10 2.96819e-19)
(1 2.40039e-10 -2.12253e-19)
(1 2.3396e-10 -4.14112e-19)
(1 2.31355e-10 1.48013e-19)
(1 2.3047e-10 1.85984e-19)
(1 2.2916e-10 2.71128e-19)
(1 2.36876e-10 -8.72104e-20)
(1 2.39833e-10 -1.00784e-18)
(1.00009 -0.00267527 -2.73683e-20)
(1.00139 -0.00785488 2.52817e-18)
(1.00432 -0.0132611 -2.79521e-17)
(1.00897 -0.0196698 2.74496e-16)
(1.01604 -0.0275076 -1.72809e-15)
(1.02619 -0.0356797 6.11075e-15)
(1.03969 -0.0419043 -3.53767e-15)
(1.05603 -0.0438154 -4.38591e-14)
(1.07369 -0.0400959 7.04691e-14)
(1.09037 -0.0297848 9.9725e-14)
(1.10076 -0.0129001 7.74122e-15)
(1.10178 0.00508806 -2.88129e-14)
(1.094 0.0211413 -1.6885e-14)
(1.08009 0.0310854 -8.84889e-16)
(1.06452 0.0351848 3.46121e-15)
(1.04968 0.03474 1.71156e-15)
(1.03698 0.0313761 5.28082e-17)
(1.0269 0.0266461 -2.89041e-16)
(1.01929 0.0216313 -1.2519e-16)