/*--------------------------------*- C++ -*----------------------------------*\
  =========                 |
  \\      /  F ield         | OpenFOAM: The Open Source CFD Toolbox
   \\    /   O peration     | Website:  https://openfoam.org
    \\  /    A nd           | Version:  11
     \\/     M anipulation  |
\*---------------------------------------------------------------------------*/
FoamFile
{
    format      ascii;
    class       volScalarField;
    location    "14.156309";
    object      p;
}
// * * * * * * * * * * * * * * * * * * * * * * * * * * * * * * * * * * * * * //

dimensions      [0 2 -2 0 0 0 0];

internalField   nonuniform List<scalar> 
7132
(
0.0750935
0.0739163
0.0698737
0.0640314
0.0559033
0.0453446
0.0324275
0.0173967
0.00103961
-0.0153712
-0.0301597
-0.0413581
-0.047931
-0.0495253
-0.0461642
-0.0389346
-0.0293504
-0.0189065
-0.00891114
-0.000332762
0.00623742
0.0106984
0.0135832
0.0158327
0.0182366
0.0210466
0.0240799
0.027042
0.0297402
0.0321656
0.0344013
0.0364863
0.0382277
0.039093
0.03849
0.0363797
0.0336387
0.0315297
0.0307821
0.0312366
0.0322338
0.0331841
0.0338267
0.0342257
0.0346057
0.0351486
0.0356908
0.0355838
0.0340752
0.0311219
0.0277969
0.0255831
0.0252216
0.0263201
0.0278908
0.0291289
0.0297376
0.0298526
0.0298131
0.0298991
0.0300064
0.0295417
0.0278206
0.024839
0.0216445
0.0196944
0.0197443
0.0213775
0.0234791
0.0250893
0.0258419
0.0258986
0.025672
0.0255096
0.0253617
0.0247073
0.0229431
0.0200748
0.0170394
0.0151886
0.015333
0.017222
0.0197981
0.0219574
0.0231256
0.0233531
0.0230684
0.0227131
0.0223589
0.0215812
0.0197848
0.0168577
0.0135608
0.0111979
0.010778
0.0124078
0.0152908
0.0182653
0.0204047
0.0213486
0.0212907
0.0207285
0.0200637
0.0192323
0.0176952
0.0149102
0.0109724
0.00681893
0.00375793
0.00268051
0.00359653
0.00572701
0.00799976
0.00954214
0.0099186
0.00912288
0.00741306
0.00505986
0.00215918
-0.00132949
-0.00530356
-0.00925682
-0.0123496
-0.0138167
-0.0133928
-0.0114359
-0.00873348
-0.00615022
-0.0043714
-0.00383497
-0.00479708
-0.00743101
-0.0118496
-0.0180182
-0.0255755
-0.033666
-0.0409575
-0.0459294
-0.047377
-0.044877
-0.0389731
-0.0309694
-0.0224187
-0.0146158
-0.0083027
-0.00368458
-0.000577337
0.00129964
0.00228305
0.00245161
0.00210036
0.000931033
-0.000203264
-0.00241854
-0.00283114
-0.00591914
-0.00236696
-0.00903207
0.0054494
-0.017637
0.0755694
0.0743998
0.0703841
0.0645642
0.0564421
0.0458453
0.0328223
0.0175827
0.000920792
-0.0158752
-0.0310407
-0.0424759
-0.0491504
-0.0507124
-0.0471358
-0.0395693
-0.0296148
-0.0188364
-0.00859477
0.000116509
0.0066925
0.0110391
0.0137389
0.0158156
0.0181164
0.0208971
0.023947
0.0269465
0.0296893
0.0321619
0.0344452
0.0365756
0.0383557
0.0392295
0.0385712
0.0363339
0.0334402
0.0312274
0.0304584
0.0309571
0.032021
0.0330341
0.0337277
0.0341668
0.034577
0.0351433
0.0357002
0.035579
0.034
0.030919
0.0274568
0.025166
0.024816
0.0259963
0.0276683
0.0289931
0.029663
0.0298154
0.0297937
0.0298835
0.0299773
0.0294685
0.0276596
0.0245562
0.021246
0.0192376
0.019308
0.0210296
0.0232457
0.0249586
0.0257832
0.025879
0.0256657
0.0254996
0.0253265
0.0246108
0.0227425
0.019748
0.0166087
0.0147156
0.014888
0.0168606
0.0195461
0.0218122
0.0230642
0.0233428
0.0230786
0.0227214
0.0223402
0.021496
0.0195875
0.0165235
0.0131096
0.0106928
0.0102965
0.0120093
0.015002
0.0180835
0.020313
0.0213243
0.0213084
0.0207627
0.0200883
0.01921
0.0175785
0.0146592
0.0105803
0.00632469
0.00323619
0.00221503
0.00325203
0.00553323
0.00794901
0.00960361
0.0100534
0.00929124
0.00757354
0.00516618
0.00215939
-0.00147863
-0.00561577
-0.0097014
-0.0128549
-0.0142914
-0.013753
-0.0116275
-0.00873772
-0.00598433
-0.00407808
-0.0034713
-0.00442489
-0.00711386
-0.0116518
-0.0180024
-0.0257924
-0.0341381
-0.0416649
-0.0468066
-0.0483237
-0.0457814
-0.0397353
-0.0315265
-0.0227524
-0.0147469
-0.00827576
-0.00355158
-0.000387225
0.00150592
0.00247251
0.00260071
0.00219074
0.000955217
-0.000252084
-0.00252732
-0.00300006
-0.00610263
-0.00257763
-0.00917785
0.00531359
-0.0176647
0.0765176
0.0753648
0.0714049
0.0656347
0.0575303
0.0468636
0.0336336
0.0179752
0.00069528
-0.0168919
-0.0328312
-0.0447419
-0.0516145
-0.0531045
-0.0490785
-0.0408187
-0.0301099
-0.0186535
-0.00791574
0.00105827
0.00763712
0.0117389
0.0140482
0.0157631
0.017852
0.0205757
0.0236616
0.0267371
0.0295686
0.0321349
0.0345134
0.036737
0.0385993
0.0394946
0.0387239
0.0362224
0.0330099
0.0305816
0.0297728
0.0303688
0.0315737
0.0327151
0.0335098
0.034026
0.0344945
0.0351079
0.0356951
0.0355452
0.03382
0.0304729
0.0267233
0.0242723
0.0239534
0.0253108
0.0271972
0.0287009
0.029493
0.0297165
0.0297276
0.0298248
0.0298943
0.0292977
0.0273073
0.0239502
0.0204004
0.0182721
0.0183894
0.0202965
0.0227501
0.0246736
0.0256421
0.0258117
0.0256208
0.0254467
0.0252264
0.0243914
0.0223166
0.0190706
0.0157241
0.0137477
0.0139787
0.0161217
0.0190271
0.0215057
0.0229213
0.0232972
0.0230712
0.0227107
0.0222764
0.021298
0.0191606
0.0158177
0.0121664
0.00964259
0.00929872
0.0111877
0.0144082
0.0177084
0.020118
0.0212611
0.021327
0.0208153
0.0201235
0.0191492
0.0173192
0.0141158
0.00973962
0.00527014
0.00212639
0.00122665
0.00252126
0.00511787
0.0078308
0.00971712
0.0103179
0.00962647
0.00789693
0.00538115
0.00215466
-0.00179855
-0.00628316
-0.0106521
-0.0139362
-0.0153086
-0.0145281
-0.0120446
-0.00876414
-0.00566
-0.00349412
-0.00274536
-0.00368228
-0.00648304
-0.0112634
-0.0179845
-0.0262493
-0.0351163
-0.043124
-0.0486129
-0.0502723
-0.047643
-0.0413058
-0.0326759
-0.0234437
-0.0150236
-0.00823033
-0.00329129
-1.2156e-05
0.00191292
0.00284589
0.00289379
0.00236758
0.00100019
-0.000351704
-0.00274759
-0.00333772
-0.0064732
-0.00299414
-0.00947769
0.00506321
-0.0177371
0.077932
0.0768064
0.0729374
0.0672522
0.0591882
0.0484317
0.0349025
0.018611
0.000379679
-0.0184544
-0.0356162
-0.0482634
-0.0554578
-0.0568627
-0.052141
-0.0427893
-0.0308947
-0.0183779
-0.00686759
0.00251783
0.00909793
0.012803
0.0144794
0.0156153
0.0173786
0.0200311
0.0231888
0.0263895
0.0293576
0.0320635
0.0345835
0.0369467
0.0389355
0.0398638
0.0389102
0.0359779
0.0322486
0.0294832
0.0286335
0.0294101
0.0308529
0.0321987
0.0331457
0.0337733
0.034324
0.0350027
0.035629
0.0354228
0.0334514
0.0296662
0.0254511
0.0227531
0.0225121
0.0241807
0.0264271
0.0282188
0.0291972
0.0295198
0.0295685
0.0296672
0.0296951
0.0289636
0.0266961
0.0229492
0.0190278
0.0167122
0.0169046
0.0191103
0.021943
0.0241971
0.0253835
0.0256576
0.0254932
0.0253057
0.0250154
0.0239966
0.0215982
0.0179579
0.014291
0.0121963
0.0125369
0.0149592
0.01821
0.0210109
0.0226683
0.0231858
0.0230174
0.0226561
0.02214
0.0209428
0.0184304
0.0146343
0.010604
0.00791918
0.00767667
0.00986618
0.0134615
0.0171107
0.0197971
0.021137
0.0213265
0.0208718
0.020157
0.0190257
0.0168655
0.0131933
0.00833406
0.00352534
0.000303344
-0.000389591
0.00132735
0.00443201
0.00761746
0.00986783
0.0107044
0.0101255
0.0083828
0.00569797
0.00211704
-0.00235121
-0.00740293
-0.0122288
-0.0157153
-0.0169719
-0.0157914
-0.0127298
-0.00882827
-0.00517611
-0.00261225
-0.00165107
-0.00256825
-0.00554602
-0.010705
-0.0180049
-0.0270118
-0.0366928
-0.0454499
-0.0514774
-0.0533522
-0.0505782
-0.0437792
-0.0344858
-0.0245354
-0.0154698
-0.00817858
-0.00291006
0.0005437
0.00251712
0.00339975
0.00332727
0.00262655
0.00106077
-0.000509248
-0.00308686
-0.00385456
-0.00703721
-0.00363161
-0.00992675
0.00466259
-0.0178093
0.079802
0.0787167
0.0749821
0.0694304
0.0614472
0.0506011
0.0366968
0.0195555
1.2825e-05
-0.0205972
-0.0394956
-0.053136
-0.0607471
-0.062025
-0.0563029
-0.0454039
-0.0318558
-0.0178761
-0.00531348
0.00461696
0.0111638
0.0142612
0.0149897
0.01528
0.0165958
0.0191807
0.0224655
0.025852
0.0290086
0.0318998
0.0346062
0.0371554
0.0393199
0.0402935
0.0390663
0.0354895
0.0309928
0.0277485
0.0268803
0.0279679
0.0297849
0.0314305
0.0325849
0.0333513
0.0339946
0.0347375
0.0353971
0.0351037
0.0327846
0.028372
0.0234764
0.0204145
0.0203041
0.0224638
0.0252654
0.0274845
0.028719
0.0291558
0.0292264
0.0293071
0.0292754
0.0283656
0.0257248
0.0214476
0.0170213
0.0144539
0.014757
0.0173848
0.0207519
0.0234674
0.0249481
0.0253523
0.0252166
0.0250165
0.0246371
0.0233567
0.0204837
0.0162664
0.0121439
0.00990569
0.0104423
0.0132914
0.0170396
0.020284
0.0222622
0.0229658
0.0228801
0.0225278
0.0218959
0.0203704
0.0172987
0.012839
0.00826557
0.00536178
0.00528414
0.00792765
0.0120799
0.0162367
0.0193122
0.0209209
0.0212817
0.020915
0.0201714
0.0188067
0.0161551
0.0117989
0.0062509
0.000971015
-0.00234751
-0.00273864
-0.000419275
0.00340779
0.00726321
0.0100281
0.0111987
0.0107841
0.00903103
0.0061056
0.00200679
-0.0032144
-0.00908384
-0.0145518
-0.0183045
-0.0193734
-0.017612
-0.013732
-0.00896537
-0.00456164
-0.00146131
-0.000220066
-0.00111729
-0.00434216
-0.0100268
-0.0181309
-0.0281671
-0.0389717
-0.0487568
-0.055517
-0.057676
-0.0546909
-0.0472458
-0.0370286
-0.0260807
-0.0161215
-0.00814478
-0.00242633
0.00126371
0.00330203
0.00411811
0.00388647
0.0029547
0.00112518
-0.000735423
-0.00355519
-0.00455946
-0.00780195
-0.00449949
-0.0105249
0.00408087
-0.0178301
0.082112
0.0810833
0.0775378
0.0721853
0.0643477
0.0534408
0.0391095
0.0208987
-0.000357316
-0.0233985
-0.0446737
-0.0596133
-0.0678201
-0.069011
-0.0619418
-0.0489149
-0.0331185
-0.017179
-0.00322469
0.00742455
0.0139037
0.0161265
0.0154963
0.0145984
0.0153318
0.0178892
0.0214001
0.0250593
0.0284643
0.0315821
0.0345103
0.0372857
0.0396732
0.0406928
0.0390604
0.034543
0.0289404
0.0250584
0.0242604
0.025877
0.028268
0.0303378
0.0317572
0.0326723
0.0333774
0.0341285
0.0347815
0.0343801
0.0316676
0.0264983
0.0207101
0.0171144
0.0171397
0.0199893
0.0235894
0.0264111
0.0279768
0.0285245
0.0285818
0.0286247
0.0285251
0.0273863
0.0242349
0.0192342
0.0141512
0.0113029
0.0118129
0.0150251
0.0191006
0.0224139
0.0242635
0.0248225
0.0247251
0.0245241
0.0240313
0.0223804
0.0188354
0.0138182
0.00908498
0.00668649
0.00753983
0.01101
0.015445
0.0192712
0.0216531
0.0225913
0.0226229
0.0222943
0.0214991
0.0195055
0.0156586
0.0103066
0.00502256
0.00184478
0.00200175
0.00526702
0.010181
0.0150253
0.0186158
0.0205724
0.0211586
0.0209157
0.0201314
0.0184385
0.0151145
0.00985114
0.00341674
-0.00245015
-0.00587347
-0.00586389
-0.00276255
0.00200212
0.00672965
0.0101669
0.0117776
0.0115848
0.00982131
0.00656405
0.00175156
-0.00448734
-0.0114286
-0.0177019
-0.0217503
-0.0225309
-0.0199949
-0.0150603
-0.00919866
-0.00385819
-9.9451e-05
0.00147907
0.000595464
-0.00295176
-0.00931677
-0.0184558
-0.029802
-0.0420178
-0.053077
-0.0607345
-0.0632335
-0.0599731
-0.0517084
-0.0403191
-0.0281028
-0.0170065
-0.0081593
-0.00187192
0.00211545
0.00423624
0.00497246
0.00454684
0.00333138
0.00117646
-0.00104342
-0.00416084
-0.00545684
-0.00876543
-0.00560127
-0.0112592
0.00327827
-0.0177277
0.0848397
0.0838884
0.0806002
0.0755352
0.0679403
0.0570428
0.0422707
0.022778
-0.000638828
-0.0269306
-0.0513542
-0.067845
-0.0767269
-0.0778192
-0.068974
-0.0531709
-0.034499
-0.0160856
-0.000402291
0.011117
0.0174396
0.0184041
0.0158496
0.0133271
0.0133531
0.0159867
0.0198744
0.0239163
0.0276303
0.0310051
0.0341748
0.037202
0.0398422
0.0408802
0.0386379
0.0327717
0.025615
0.0209136
0.0203803
0.0228845
0.0261534
0.028818
0.0305614
0.0315976
0.0322628
0.0329027
0.0334921
0.0329769
0.0298487
0.0238206
0.0169717
0.0127055
0.0128727
0.0165996
0.0212593
0.0248825
0.0268576
0.0274997
0.0275074
0.0275152
0.0273519
0.0259061
0.0220424
0.0160615
0.0101444
0.00701498
0.00789366
0.0119147
0.0169032
0.0209557
0.0232461
0.0239891
0.0239539
0.0237712
0.0231266
0.020967
0.0165309
0.0104887
0.00499639
0.00242308
0.00371756
0.00802022
0.0133527
0.017911
0.0207834
0.0220093
0.0222001
0.0219089
0.0208894
0.0182725
0.0134349
0.00698223
0.000845193
-0.00264984
-0.00219608
0.00184271
0.00771244
0.0134221
0.0176556
0.0200423
0.0209106
0.0208268
0.0199799
0.0178554
0.0136838
0.00731812
-0.000158569
-0.00669233
-0.0102128
-0.00971439
-0.00567851
0.000208805
0.00598924
0.010248
0.0124058
0.0124949
0.0107137
0.007012
0.00126969
-0.00624669
-0.0144737
-0.0216558
-0.0259793
-0.026352
-0.0228641
-0.0166818
-0.00954981
-0.00313881
0.00136259
0.00331432
0.0024318
-0.00151266
-0.00870051
-0.0190675
-0.0319328
-0.0457499
-0.0582322
-0.0668849
-0.0697636
-0.0661952
-0.0569978
-0.0442584
-0.0305647
-0.0181323
-0.00825718
-0.00129681
0.00304317
0.00526494
0.00591322
0.00526666
0.00372362
0.00119176
-0.00144355
-0.00490002
-0.00653019
-0.00990106
-0.00691351
-0.0120976
0.00223261
-0.0174273
0.0879552
0.0871063
0.0841593
0.0794963
0.0722814
0.0615183
0.0463444
0.0253721
-0.000721879
-0.0313618
-0.0599605
-0.0783443
-0.0882225
-0.0894068
-0.0782036
-0.0586427
-0.0361877
-0.0146156
0.00322446
0.0158197
0.021881
0.021077
0.0158281
0.0110891
0.010274
0.0131877
0.0177049
0.0222934
0.0263867
0.03003
0.0334196
0.0366341
0.0394477
0.0404679
0.0375163
0.0299462
0.0206725
0.0147925
0.0147166
0.0186387
0.0232419
0.0267414
0.0288636
0.0299362
0.0303968
0.0308029
0.031314
0.0306902
0.0270247
0.0198974
0.0118043
0.00685681
0.00732188
0.0121605
0.0181467
0.0227713
0.0252308
0.0259522
0.0258949
0.0258928
0.0256631
0.0237965
0.0189931
0.0117803
0.00486313
0.00145397
0.0028695
0.00795414
0.0140815
0.0190154
0.0218147
0.0227775
0.0228404
0.0226938
0.021844
0.0190305
0.0135065
0.00625928
-0.000101885
-0.00286059
-0.00102493
0.00429354
0.010717
0.0161495
0.0195948
0.0211611
0.0215525
0.0213051
0.0199932
0.0166092
0.0106058
0.00290211
-0.0041783
-0.00801227
-0.00721469
-0.00229219
0.00468082
0.011399
0.0163836
0.0192728
0.0204737
0.0205749
0.0196362
0.0169842
0.0118268
0.00422714
-0.00437773
-0.0116047
-0.0151923
-0.0141362
-0.00906335
-0.00192746
0.00503626
0.0102333
0.0130302
0.0134539
0.0116335
0.00735929
0.000478925
-0.00852082
-0.0181551
-0.0262556
-0.0307753
-0.0306214
-0.0260513
-0.0185094
-0.0100246
-0.00249275
0.00277537
0.00510357
0.00419616
-0.000212069
-0.00831961
-0.02001
-0.0344595
-0.0499083
-0.0638253
-0.0734853
-0.0767643
-0.0729023
-0.062756
-0.0486099
-0.0333455
-0.0194696
-0.00847013
-0.00076674
0.00396752
0.00630906
0.00687143
0.00598632
0.00408664
0.00114601
-0.00193599
-0.005746
-0.00773014
-0.0111445
-0.00837443
-0.0129787
0.000953969
-0.0168638
0.0914181
0.0907021
0.0881969
0.0840818
0.0774348
0.0670073
0.0515521
0.0289515
-0.000398392
-0.0368372
-0.0708747
-0.091235
-0.102101
-0.103541
-0.0894059
-0.0651182
-0.0379918
-0.0125825
0.00782465
0.0216847
0.0273158
0.0240235
0.0149957
0.00727268
0.00556703
0.00915954
0.014692
0.020035
0.0245702
0.0284563
0.0319353
0.0350239
0.0377015
0.0386547
0.0352543
0.0262039
0.0144441
0.00668987
0.00686642
0.0127255
0.0192668
0.0239372
0.026495
0.0274708
0.0275528
0.0276737
0.0281457
0.0273816
0.0229489
0.0143957
0.00485579
-0.000724376
0.000293358
0.00655644
0.0141467
0.0199553
0.0229655
0.0237657
0.0236552
0.0236772
0.0233638
0.0209588
0.0150347
0.00642259
-0.00159972
-0.00529744
-0.00322979
0.0031266
0.0105917
0.0165303
0.0198957
0.0211145
0.021313
0.0212131
0.0201041
0.0165227
0.00978389
0.00123671
-0.00604072
-0.00898508
-0.00655019
-0.000102239
0.00754313
0.0139513
0.0180305
0.0199779
0.0206004
0.0203937
0.0187309
0.014481
0.00721595
-0.00179888
-0.00984268
-0.0140087
-0.0128414
-0.00698659
0.00116005
0.0089629
0.0147614
0.0181988
0.0197648
0.0200625
0.0190024
0.0157575
0.00954473
0.000672351
-0.00905694
-0.0169423
-0.0205551
-0.0188981
-0.0127471
-0.00431835
0.00388201
0.0100785
0.0135748
0.0143676
0.012471
0.0075009
-0.000673396
-0.0112537
-0.022283
-0.0312028
-0.0357939
-0.035018
-0.0293186
-0.0204203
-0.0106244
-0.00203
0.00395143
0.0066161
0.00564236
0.00073279
-0.00830095
-0.021259
-0.0371741
-0.0541112
-0.0693417
-0.0799405
-0.0836151
-0.0795109
-0.0684999
-0.0530312
-0.0362524
-0.0209534
-0.00882453
-0.000361621
0.00478556
0.00726295
0.00774839
0.00662492
0.00436329
0.00101483
-0.00250578
-0.00664495
-0.00897193
-0.0123941
-0.00988188
-0.0138128
-0.000504075
-0.0159942
0.0951762
0.0946282
0.0926818
0.089293
0.0834599
0.0736633
0.0581552
0.0338584
0.000564164
-0.0437413
-0.0849663
-0.107596
-0.120175
-0.12243
-0.104206
-0.0733661
-0.0401365
-0.0099715
0.0135046
0.028845
0.0338022
0.0270201
0.0127217
0.000985871
-0.00160817
0.00333595
0.0105066
0.0169226
0.0219832
0.0260284
0.0292428
0.0315544
0.0336179
0.0344215
0.030957
0.0209305
0.00677029
-0.00326883
-0.00318863
0.00489299
0.013966
0.0202028
0.0232663
0.0240081
0.0235876
0.0234423
0.0239212
0.0229409
0.0175334
0.00734671
-0.00376054
-0.00995478
-0.00820682
-0.000233808
0.0092088
0.0163456
0.0199555
0.0208472
0.0207117
0.0207859
0.0203691
0.0173535
0.0102351
0.000186878
-0.00895401
-0.0129439
-0.0101859
-0.00245869
0.00645642
0.0134706
0.0174325
0.0189309
0.019291
0.0192403
0.0178386
0.0134431
0.0054681
-0.00436509
-0.012531
-0.0156446
-0.0126006
-0.00500246
0.00389843
0.0113113
0.0160408
0.0183821
0.0192463
0.0190705
0.0170275
0.0118877
0.00337272
-0.00690499
-0.0158533
-0.0203144
-0.0187741
-0.0120089
-0.00271383
0.00615807
0.0127639
0.0167493
0.0186828
0.0191716
0.0179719
0.014122
0.00687729
-0.00319691
-0.0139513
-0.0223988
-0.0259741
-0.0237075
-0.016514
-0.00684486
0.00254932
0.00972969
0.0139353
0.0151023
0.0130814
0.0073277
-0.00219507
-0.014301
-0.0265615
-0.0361007
-0.0406134
-0.039164
-0.032391
-0.0222737
-0.0113482
-0.00187012
0.00468469
0.00759694
0.00650778
0.00111406
-0.0087322
-0.0227383
-0.0398324
-0.0579719
-0.0742883
-0.0856868
-0.0897179
-0.0854369
-0.0737197
-0.057138
-0.0390522
-0.0224938
-0.00934026
-0.00016961
0.00537733
0.00799994
0.00842523
0.00708479
0.00448918
0.00077761
-0.00312565
-0.00752669
-0.0101529
-0.0135307
-0.0113125
-0.0144964
-0.00205193
-0.0148053
0.0991634
0.098823
0.0975673
0.0951194
0.0904141
0.0816761
0.0665107
0.0406331
0.00263734
-0.0523997
-0.102977
-0.1271
-0.141056
-0.145091
-0.122217
-0.0833074
-0.0426439
-0.00685462
0.0201145
0.0372166
0.0411082
0.0294477
0.00763614
-0.00950852
-0.0125203
-0.00494481
0.00483456
0.012745
0.0184095
0.0224064
0.0247576
0.0255713
0.0267489
0.0275569
0.0241534
0.0129978
-0.00351594
-0.0156393
-0.0154529
-0.00491134
0.00717336
0.015348
0.0189984
0.0194109
0.0184379
0.0180806
0.0186064
0.0173563
0.0109077
-0.000899472
-0.0135386
-0.0203493
-0.017843
-0.00804412
0.00337988
0.0119132
0.0161379
0.0171314
0.0169957
0.0171399
0.0166212
0.0130104
0.00476676
-0.0066079
-0.0167786
-0.0210441
-0.0176309
-0.0085691
0.00177849
0.00985131
0.0143904
0.016161
0.0166866
0.0166853
0.0150003
0.00984019
0.000734217
-0.0102523
-0.0192003
-0.0224486
-0.0188323
-0.0101645
-9.17652e-05
0.00825678
0.0135861
0.0162902
0.0173801
0.0172266
0.0148223
0.00886587
-0.000765321
-0.012144
-0.0218592
-0.0265474
-0.0246551
-0.0170741
-0.00675866
0.0030608
0.0103801
0.0148511
0.0171151
0.0177744
0.0164416
0.0120462
0.00389994
-0.00719148
-0.0187778
-0.0276369
-0.0311065
-0.028255
-0.0201281
-0.00937401
0.00106257
0.00911901
0.0139794
0.0154902
0.0133006
0.00674737
-0.00403812
-0.0174455
-0.0306322
-0.0405156
-0.044798
-0.0426841
-0.035001
-0.023939
-0.0122045
-0.00214015
0.00476548
0.00779268
0.00655277
0.000764867
-0.00966125
-0.0243612
-0.0422222
-0.0611684
-0.0782497
-0.0902379
-0.0945475
-0.0901576
-0.0779449
-0.0605622
-0.0415113
-0.0239942
-0.0100337
-0.000281775
0.00561374
0.00837995
0.00877056
0.00725911
0.00439767
0.000415728
-0.00376722
-0.00832459
-0.0111772
-0.0144443
-0.0125456
-0.0149322
-0.00358198
-0.013314
0.103297
0.103206
0.102783
0.101517
0.0983251
0.091212
0.0769947
0.0499231
0.00624592
-0.0637351
-0.126695
-0.152462
-0.169668
-0.176674
-0.146488
-0.0959663
-0.0456896
-0.00323866
0.027721
0.0465692
0.0484195
0.0293918
-0.00295926
-0.0270147
-0.0291653
-0.0168124
-0.00285328
0.00722665
0.0136056
0.0172125
0.0179874
0.0169129
0.0173222
0.0184229
0.0149393
0.00227072
-0.0165825
-0.0304385
-0.0297848
-0.016531
-0.0011163
0.0092579
0.0135656
0.0136123
0.0120916
0.0115818
0.0122047
0.0107265
0.00337046
-0.00981797
-0.0237857
-0.0311833
-0.0280209
-0.0165071
-0.00316697
0.00671067
0.0115065
0.012585
0.0124518
0.0126768
0.0121025
0.00802385
-0.00112505
-0.013573
-0.0245852
-0.0290803
-0.0251065
-0.0148783
-0.00326284
0.00573777
0.0107618
0.0127498
0.0134168
0.013471
0.0115723
0.00580681
-0.00419498
-0.0160872
-0.0256369
-0.0289649
-0.0248579
-0.0152975
-0.00425793
0.00484613
0.0106413
0.0136212
0.014892
0.0147626
0.0120785
0.00548452
-0.00500749
-0.0172187
-0.0274916
-0.0323122
-0.0301105
-0.0218758
-0.0107671
-0.000229717
0.00761378
0.0124359
0.0149485
0.0157471
0.0143234
0.00952349
0.000713983
-0.0111041
-0.0232478
-0.0323217
-0.0356122
-0.0322365
-0.0233593
-0.0117767
-0.000560064
0.00816532
0.0135532
0.0153422
0.0129647
0.00569712
-0.00610907
-0.0204366
-0.0341349
-0.0440415
-0.0479565
-0.0452508
-0.0369236
-0.0253154
-0.0132164
-0.00296206
0.00400801
0.0069938
0.00559977
-0.000423455
-0.01111
-0.0260633
-0.0441925
-0.0634565
-0.0808885
-0.0931823
-0.0976562
-0.0932312
-0.0807799
-0.0629913
-0.0434272
-0.0253693
-0.0109209
-0.000785204
0.00536808
0.00826282
0.00865255
0.00704433
0.00402584
-9.08712e-05
-0.00441268
-0.00899171
-0.0119733
-0.0150507
-0.0134805
-0.0150437
-0.0049875
-0.0115628
0.10748
0.10768
0.108232
0.108418
0.107195
0.102492
0.0901544
0.0628886
0.0125221
-0.0788265
-0.15776
-0.180669
-0.200148
-0.214499
-0.177106
-0.112201
-0.0500937
-6.7608e-06
0.0352275
0.0553686
0.0547687
0.0268153
-0.0196464
-0.0538747
-0.0543017
-0.0336582
-0.0130083
0.000192887
0.00736617
0.0101404
0.00875337
0.00572425
0.00566371
0.00733393
0.00373952
-0.0103347
-0.0311933
-0.0465245
-0.0453952
-0.029456
-0.0106772
0.00196384
0.00694588
0.00662373
0.00457939
0.00396833
0.00477383
0.00324416
-0.00468238
-0.018818
-0.0337626
-0.0416568
-0.0380217
-0.0251096
-0.010137
0.000879924
0.00611748
0.00721198
0.00705088
0.00736894
0.00684594
0.00254305
-0.00715146
-0.0202941
-0.0318726
-0.0365207
-0.0321233
-0.0210089
-0.00843149
0.00124256
0.00657089
0.00866254
0.009418
0.00954894
0.00757422
0.00147087
-0.00907284
-0.0215231
-0.0314313
-0.0347697
-0.0302875
-0.0200955
-0.0084054
0.00116344
0.00720086
0.0103083
0.0116884
0.0116036
0.00878917
0.00183886
-0.00915045
-0.0218354
-0.0323985
-0.0372377
-0.0347864
-0.0261161
-0.0145278
-0.00360137
0.00448395
0.00944983
0.0120852
0.0129875
0.0115573
0.00657415
-0.00256341
-0.0147283
-0.027089
-0.0361464
-0.0391823
-0.0353778
-0.0260015
-0.0139403
-0.00231064
0.00677991
0.0124964
0.0144697
0.0119327
0.00415115
-0.00828832
-0.0230328
-0.0367573
-0.0463469
-0.0497842
-0.0466188
-0.0380017
-0.026349
-0.0144229
-0.00443957
0.00227714
0.00506953
0.00355042
-0.00250365
-0.0130874
-0.0278095
-0.0456488
-0.0646614
-0.0819441
-0.0941933
-0.09869
-0.0943166
-0.081928
-0.0641961
-0.0446528
-0.026559
-0.0120197
-0.0017565
0.00452821
0.00752339
0.00795504
0.00635054
0.00331792
-0.000766069
-0.00505909
-0.00950405
-0.0124958
-0.0152939
-0.0140417
-0.0147811
-0.00617481
-0.00961408
0.111593
0.112121
0.113781
0.115675
0.116942
0.115546
0.106425
0.0805647
0.0217592
-0.0988522
-0.200091
-0.221212
-0.246757
-0.269752
-0.218799
-0.132797
-0.0559174
0.00270325
0.0406164
0.0589819
0.0573098
0.024607
-0.0321034
-0.0812907
-0.0865033
-0.0567034
-0.0264186
-0.00861356
-0.000445202
0.00107562
-0.00281422
-0.00768039
-0.00783305
-0.00527311
-0.00868343
-0.02354
-0.0457097
-0.0622417
-0.0609091
-0.0427879
-0.0210259
-0.00631666
-0.000747013
-0.00145767
-0.00401921
-0.00468867
-0.00355989
-0.00482447
-0.0128131
-0.0273126
-0.0427687
-0.0510071
-0.0471168
-0.0332696
-0.0171451
-0.00535486
8.96743e-05
0.00106272
0.000807159
0.00124038
0.000939917
-0.00324023
-0.0130088
-0.0263715
-0.0381752
-0.0428729
-0.0382153
-0.0265771
-0.013461
-0.00348331
0.00187735
0.00389751
0.00466355
0.0049132
0.00306576
-0.003015
-0.0136525
-0.0262374
-0.0362145
-0.0394787
-0.0347664
-0.0242678
-0.0123339
-0.00268753
0.00328526
0.00631445
0.00771113
0.00771506
0.00498279
-0.0019577
-0.0129969
-0.0257301
-0.036274
-0.0410032
-0.0383768
-0.0295318
-0.017844
-0.00693788
0.00102767
0.00586576
0.00846215
0.00943362
0.00812171
0.00324486
-0.00580981
-0.0178761
-0.0300675
-0.0388562
-0.0415678
-0.0374596
-0.02789
-0.0157777
-0.00419028
0.00487837
0.0106633
0.0127127
0.0101036
0.00211673
-0.0104559
-0.0250377
-0.0382707
-0.0472058
-0.0500855
-0.0466454
-0.038163
-0.0270382
-0.0158701
-0.00663804
-0.00048877
0.00197775
0.000383692
-0.00548003
-0.0155891
-0.0295826
-0.046542
-0.0646819
-0.0812577
-0.0930682
-0.0974305
-0.0932085
-0.0812185
-0.0640497
-0.0451101
-0.0275356
-0.01335
-0.00325425
0.00300918
0.006066
0.00658961
0.00510879
0.00222843
-0.00163504
-0.00571407
-0.00985485
-0.012721
-0.0151437
-0.0141808
-0.0141228
-0.0070706
-0.00754469
0.115506
0.116392
0.119259
0.12312
0.127401
0.130589
0.126567
0.106262
0.036917
-0.133118
-0.254168
-0.25517
-0.289406
-0.338342
-0.275686
-0.161954
-0.0656029
0.00214158
0.0369148
0.048064
0.0429708
0.0132433
-0.0410719
-0.10187
-0.11813
-0.0834261
-0.0428004
-0.0192394
-0.00984291
-0.00988339
-0.0164216
-0.022931
-0.0227436
-0.0188257
-0.0213996
-0.0360903
-0.0586452
-0.0759808
-0.0748169
-0.0553964
-0.0314608
-0.0151807
-0.00925816
-0.0104459
-0.0135598
-0.0142468
-0.0125895
-0.013155
-0.0205808
-0.0347717
-0.0502038
-0.058581
-0.0546525
-0.0404172
-0.0237646
-0.0117083
-0.00639859
-0.00575676
-0.00620475
-0.00561918
-0.00546935
-0.00910398
-0.0184031
-0.0314539
-0.0431022
-0.047728
-0.0429839
-0.0312329
-0.0180825
-0.00826213
-0.00322034
-0.00150003
-0.000818804
-0.000386838
-0.0018513
-0.00748381
-0.017707
-0.0299584
-0.0396888
-0.0427899
-0.0380064
-0.0275654
-0.015855
-0.00658878
-0.00105246
0.00164845
0.00295588
0.00311521
0.000726093
-0.00578049
-0.0163701
-0.0286879
-0.0388811
-0.0433646
-0.0406476
-0.0319149
-0.0205488
-0.0101254
-0.00269666
0.00169631
0.00406775
0.00507891
0.00404206
-0.000392041
-0.00890583
-0.0203909
-0.032004
-0.0402648
-0.0425905
-0.038328
-0.028912
-0.0172308
-0.0062028
0.0023972
0.0079487
0.00996597
0.00742655
-0.000374161
-0.0125118
-0.0263223
-0.0385487
-0.0465139
-0.0487873
-0.0453039
-0.0374266
-0.0274271
-0.017596
-0.00956882
-0.00427335
-0.00224713
-0.00385994
-0.00931584
-0.0185901
-0.0313693
-0.0468622
-0.0635013
-0.0787988
-0.0897644
-0.0938293
-0.0898683
-0.0786266
-0.0625398
-0.044796
-0.0283057
-0.01493
-0.00531157
0.000762369
0.00383247
0.00449997
0.0032732
0.000725015
-0.0027185
-0.00638806
-0.0100478
-0.0126436
-0.0145962
-0.0138787
-0.0130777
-0.00762737
-0.00544035
0.119074
0.120323
0.124454
0.130403
0.138254
0.146896
0.150867
0.138795
0.0584452
-0.157702
-0.348845
-0.327884
-0.366948
-0.440556
-0.352141
-0.198684
-0.0781453
-0.0042166
0.0184614
0.0202828
0.0094923
-0.0092873
-0.0558738
-0.12074
-0.146324
-0.110858
-0.061079
-0.0313941
-0.0206518
-0.0224253
-0.0316621
-0.0395997
-0.0385697
-0.0326276
-0.0334652
-0.0469166
-0.0688529
-0.0864753
-0.085822
-0.0661542
-0.0411679
-0.0240845
-0.0182109
-0.0200653
-0.0238163
-0.0244729
-0.0220228
-0.0213804
-0.0275701
-0.0407586
-0.0556129
-0.0638911
-0.060118
-0.0460607
-0.0295786
-0.0178614
-0.013117
-0.013077
-0.0138367
-0.0130453
-0.0121793
-0.0148081
-0.02307
-0.0352643
-0.0463682
-0.0507924
-0.0461318
-0.0346924
-0.0220493
-0.0129014
-0.00858305
-0.00742646
-0.00693447
-0.00623845
-0.00703376
-0.0117634
-0.0210451
-0.0324852
-0.0416503
-0.0444995
-0.0398076
-0.0298003
-0.0188053
-0.0104123
-0.00572029
-0.0036218
-0.00251392
-0.00211545
-0.00387454
-0.0094995
-0.0191252
-0.0305575
-0.0400681
-0.0441731
-0.041454
-0.0331264
-0.0225155
-0.0130564
-0.00660554
-0.00299567
-0.00104399
-1.62753e-05
-0.000604243
-0.00424015
-0.0117416
-0.0221574
-0.0327852
-0.040267
-0.0421562
-0.0379061
-0.0290112
-0.0182687
-0.00834469
-0.000688256
0.00430894
0.00619401
0.00390258
-0.00327535
-0.0143896
-0.0268349
-0.0375758
-0.0442977
-0.0459507
-0.042688
-0.035895
-0.0275869
-0.0196107
-0.0131836
-0.00899544
-0.00751631
-0.00909609
-0.0139383
-0.0220389
-0.0331515
-0.0466358
-0.0611918
-0.0746766
-0.084414
-0.0880315
-0.0844363
-0.0742791
-0.0597678
-0.0437787
-0.0289033
-0.0167689
-0.00793013
-0.00222129
0.000802542
0.0016609
0.00082118
-0.0012084
-0.00402689
-0.00708842
-0.0100935
-0.0122769
-0.0136756
-0.0131513
-0.0116857
-0.00782788
-0.0033891
0.122148
0.123752
0.129102
0.13723
0.148922
0.164673
0.180217
0.192164
0.098058
-0.151344
-0.40288
-0.353486
-0.438787
-0.576894
-0.470465
-0.256069
-0.0972738
-0.0216561
-0.014952
-0.019541
-0.0281022
-0.034594
-0.0719393
-0.134256
-0.166614
-0.134682
-0.0791746
-0.044277
-0.0324261
-0.0360579
-0.0480273
-0.0571511
-0.0546899
-0.0458906
-0.0440061
-0.0552014
-0.0755841
-0.0929259
-0.0930125
-0.0741245
-0.0493482
-0.0324137
-0.0271408
-0.0299546
-0.034468
-0.0350327
-0.0314859
-0.0291075
-0.033413
-0.0449547
-0.0587139
-0.0666511
-0.0631869
-0.0498361
-0.0342244
-0.0234912
-0.0197936
-0.0206617
-0.0218601
-0.0207965
-0.0189365
-0.0201056
-0.0267899
-0.0376172
-0.047811
-0.051907
-0.0474839
-0.036759
-0.0251561
-0.0172047
-0.0140316
-0.0137133
-0.013512
-0.0124628
-0.0123002
-0.0156843
-0.0235217
-0.0337004
-0.0420015
-0.0445166
-0.0400711
-0.0308576
-0.0210559
-0.0140233
-0.0105839
-0.00936148
-0.00855831
-0.00783077
-0.00867434
-0.0129841
-0.0211558
-0.0312591
-0.0397774
-0.0433824
-0.0407472
-0.0331042
-0.0236626
-0.0156323
-0.0105882
-0.00809104
-0.00674681
-0.00572042
-0.005687
-0.00818125
-0.0142211
-0.0231074
-0.0323712
-0.038847
-0.0402631
-0.0361986
-0.0281896
-0.0188823
-0.0105936
-0.00434809
-0.000223412
0.00143653
-0.000417918
-0.00653355
-0.0160607
-0.0266004
-0.0354443
-0.040711
-0.0417692
-0.0389996
-0.0337287
-0.0275889
-0.0218856
-0.0173839
-0.0145324
-0.0137091
-0.0152125
-0.0192468
-0.0258593
-0.0349045
-0.0459191
-0.0579051
-0.0691279
-0.077311
-0.080351
-0.0772185
-0.0684422
-0.0559363
-0.0421831
-0.0293768
-0.0188593
-0.011079
-0.00591492
-0.00301073
-0.00192445
-0.00224652
-0.00356935
-0.00555745
-0.00781724
-0.010008
-0.0116522
-0.0124332
-0.0120486
-0.0100156
-0.00768669
-0.00147187
0.124581
0.126487
0.132934
0.142969
0.15867
0.180843
0.214041
0.216734
0.187273
-0.187186
-0.535623
-0.378418
-0.416188
-0.647524
-0.560244
-0.315242
-0.124697
-0.0551779
-0.0571307
-0.0686702
-0.0619378
-0.0561653
-0.0836068
-0.139707
-0.175761
-0.150442
-0.0942522
-0.056494
-0.0443303
-0.0500734
-0.0648524
-0.0748836
-0.0703102
-0.0577616
-0.0522718
-0.0604158
-0.0785082