/*--------------------------------*- C++ -*----------------------------------*\
  =========                 |
  \\      /  F ield         | OpenFOAM: The Open Source CFD Toolbox
   \\    /   O peration     | Website:  https://openfoam.org
    \\  /    A nd           | Version:  11
     \\/     M anipulation  |
\*---------------------------------------------------------------------------*/
FoamFile
{
    format      ascii;
    class       surfaceScalarField;
    location    "11.482587";
    object      phi_0;
}
// * * * * * * * * * * * * * * * * * * * * * * * * * * * * * * * * * * * * * //

dimensions      [0 3 -1 0 0 0 0];

internalField   nonuniform List<scalar> 
14638
(
0.00250268
-2.68387e-06
0.00251062
-7.93854e-06
0.00252382
-1.31939e-05
0.00254228
-1.84614e-05
0.00256597
-2.36911e-05
0.0025946
-2.86354e-05
0.00262746
-3.28601e-05
0.00266309
-3.5623e-05
0.00269922
-3.61294e-05
0.00273302
-3.38023e-05
0.00276151
-2.84863e-05
0.00278326
-2.17537e-05
0.00279825
-1.49882e-05
0.00280784
-9.58829e-06
0.00281419
-6.35806e-06
0.0028189
-4.71069e-06
0.00282191
-3.0071e-06
0.00282102
8.96073e-07
0.00281254
8.4758e-06
0.00279326
1.92815e-05
0.00276227
3.09916e-05
0.00272161
4.0656e-05
0.00267572
4.58886e-05
0.00263039
4.53333e-05
0.00259181
3.8581e-05
0.00256584
2.59677e-05
0.00255729
8.55175e-06
0.00256895
-1.16666e-05
0.00260025
-3.12958e-05
0.00264575
-4.54969e-05
0.00269504
-4.92953e-05
0.00273523
-4.01832e-05
0.00275541
-2.01818e-05
0.00275057
4.8344e-06
0.00272244
2.81345e-05
0.00267747
4.49731e-05
0.00262408
5.33903e-05
0.00257075
5.33297e-05
0.00252532
4.54225e-05
0.00249505
3.02731e-05
0.00248652
8.5314e-06
0.00250482
-1.8304e-05
0.0025514
-4.65804e-05
0.00262124
-6.98404e-05
0.00270156
-8.03149e-05
0.00277417
-7.26151e-05
0.00282151
-4.73335e-05
0.00283305
-1.15455e-05
0.00280845
2.46068e-05
0.00275577
5.26719e-05
0.002687
6.87715e-05
0.00261387
7.31353e-05
0.00254603
6.78322e-05
0.00249131
5.47215e-05
0.00245668
3.46313e-05
0.00244882
7.8636e-06
0.00247314
-2.43243e-05
0.00253114
-5.79961e-05
0.00261718
-8.60368e-05
0.00271709
-9.99161e-05
0.00281041
-9.33181e-05
0.00287611
-6.57037e-05
0.00289966
-2.35429e-05
0.0028777
2.19559e-05
0.00281821
5.94916e-05
0.00273604
8.21666e-05
0.00264702
8.90192e-05
0.00256386
8.31617e-05
0.00249537
6.84897e-05
0.00244814
4.72302e-05
0.00242851
1.96314e-05
0.00244268
-1.41664e-05
0.0024941
-5.14231e-05
0.00257973
-8.56356e-05
0.00268802
-0.000108281
0.00280054
-0.000112522
0.00289686
-9.63201e-05
0.00295999
-6.3129e-05
0.00298038
-2.03892e-05
0.00295768
2.26996e-05
0.00290045
5.72287e-05
0.00282393
7.65168e-05
0.00274616
7.77749e-05
0.00268357
6.25881e-05
0.00264824
3.53252e-05
0.00264753
7.11359e-07
0.00268455
-3.70171e-05
0.00275772
-7.31756e-05
0.00285965
-0.000101925
0.0029769
-0.000117249
0.00309196
-0.000115067
0.00318692
-9.49545e-05
0.0032475
-6.05801e-05
0.00326629
-1.8796e-05
0.0032441
2.21967e-05
0.00318899
5.51121e-05
0.00311324
7.57489e-05
0.00302931
8.39222e-05
0.00294687
8.24433e-05
0.00287225
7.46168e-05
0.00281015
6.21089e-05
0.00276525
4.49001e-05
0.0027422
2.30439e-05
0.00274386
-1.66266e-06
0.00276936
-2.54945e-05
0.00281331
-4.39511e-05
0.0028665
-5.31938e-05
0.00291756
-5.10576e-05
0.00295515
-3.75932e-05
0.00297042
-1.52659e-05
0.00295907
1.13492e-05
0.00292247
3.65974e-05
0.00286706
5.54166e-05
0.00280212
6.49373e-05
0.00273701
6.51088e-05
0.00267891
5.8103e-05
0.00263189
4.70222e-05
0.00259719
3.47e-05
0.00257411
2.30794e-05
0.00256093
1.31735e-05
0.0025556
5.33345e-06
0.00255604
-4.42486e-07
0.00256034
-4.29415e-06
0.00256673
-6.39775e-06
0.00257368
-6.94568e-06
0.00257985
-6.16851e-06
0.00258421
-4.36228e-06
0.0025861
-1.89307e-06
0.00258527
8.32111e-07
0.00258185
3.41998e-06
0.0025763
5.55051e-06
0.00256928
7.01834e-06
0.00256154
7.74516e-06
0.00255377
7.76568e-06
0.00254657
7.19722e-06
0.00254037
6.20424e-06
0.0025354
4.96597e-06
0.00253175
3.65098e-06
0.00252935
2.39982e-06
0.00252804
1.31552e-06
0.00252758
4.61013e-07
0.00252772
-1.3785e-07
0.0025282
-4.85555e-07
0.00252881
-6.0863e-07
0.00252936
-5.47396e-07
0.00252971
-3.48994e-07
0.00252977
-6.1744e-08
0.0025295
2.68689e-07
0.0025289
6.02673e-07
0.00252799
9.07871e-07
0.00252683
1.1617e-06
0.00252548
1.3494e-06
0.00252401
1.46739e-06
0.00252249
1.51571e-06
0.00252099
1.50701e-06
0.00251954
1.44719e-06
0.00251818
1.36149e-06
0.00251693
1.24652e-06
0.00251578
1.15218e-06
9.87216e-07
0.00250267
-5.35505e-06
0.00251058
-1.58439e-05
0.00252373
-2.6351e-05
0.00254219
-3.69184e-05
0.00256596
-4.74576e-05
0.0025948
-5.7482e-05
0.00262806
-6.61202e-05
0.00266428
-7.18385e-05
0.00270114
-7.29857e-05
0.00273562
-6.82885e-05
0.0027645
-5.73646e-05
0.00278629
-4.3546e-05
0.00280099
-2.96856e-05
0.00281012
-1.87203e-05
0.00281614
-1.23742e-05
0.00282087
-9.43936e-06
0.00282435
-6.48774e-06
0.00282422
1.02037e-06
0.00281643
1.62655e-05
0.00279737
3.83467e-05
0.00276596
6.24029e-05
0.00272432
8.22931e-05
0.00267709
9.31205e-05
0.00263026
9.21605e-05
0.00259022
7.86175e-05
0.00256304
5.31549e-05
0.00255377
1.78213e-05
0.00256557
-2.34646e-05
0.00259814
-6.38667e-05
0.00264601
-9.33736e-05
0.00269822
-0.000101506
0.00274092
-8.28844e-05
0.00276243
-4.16898e-05
0.00275749
9.77297e-06
0.00272814
5.74924e-05
0.00268135
9.17621e-05
0.00262596
0.000108776
0.00257065
0.000108643
0.00252331
9.2763e-05
0.00249127
6.23067e-05
0.00248144
1.83605e-05
0.00249949
-3.63508e-05
0.00254747
-9.45545e-05
0.00262048
-0.000142855
0.00270503
-0.000164862
0.00278158
-0.000149167
0.00283128
-9.70393e-05
0.00284309
-2.33534e-05
0.00281695
5.07468e-05
0.00276179
0.000107838
0.00269036
0.000140194
0.00261483
0.000148665
0.0025449
0.000137769
0.00248823
0.000111391
0.00245174
7.1115e-05
0.00244227
1.73334e-05
0.00246562
-4.76738e-05
0.00252381
-0.000116182
0.0026117
-0.000173923
0.00271521
-0.000203433
0.00281318
-0.000191289
0.00288316
-0.000135679
0.00290914
-4.95196e-05
0.00288713
4.39591e-05
0.00282556
0.000121068
0.00274037
0.000167357
0.0026484
0.00018099
0.00256276
0.000168801
0.00249204
0.000139206
0.00244244
9.6832e-05
0.00242031
4.17573e-05
0.00243258
-2.64361e-05
0.00248371
-0.000102553
0.00257107
-0.000172997
0.00268242
-0.000219624
0.00279798
-0.000228082
0.00289623
-0.00019457
0.00295999
-0.000126892
0.00298021
-4.06138e-05
0.00295708
4.58389e-05
0.0028993
0.000115008
0.002822
0.00015381
0.0027431
0.000156678
0.0026791
0.000126585
0.00264249
7.19335e-05
0.00264143
1.77609e-06
0.00268
-7.55884e-05
0.00275719
-0.000150368
0.00286521
-0.000209941
0.00298934
-0.000241378
0.00311046
-0.000236188
0.00320932
-0.000193816
0.00327098
-0.000122238
0.00328805
-3.58643e-05
0.00326185
4.83904e-05
0.00320131
0.000115652
0.00311971
0.000157356
0.00303045
0.000173179
0.00294388
0.000169013
0.00286664
0.000151855
0.00280335
0.000125398
0.00275842
8.9831e-05
0.00273612
4.53471e-05
0.00273893
-4.47475e-06
0.0027657
-5.22584e-05
0.00281087
-8.9125e-05
0.00286523
-0.000107551
0.00291746
-0.000103293
0.00295626
-7.63888e-05
0.0029726
-3.16053e-05
0.00296193
2.20216e-05
0.0029254
7.31275e-05
0.00286944
0.000111376
0.00280356
0.000130809
0.00273744
0.000131231
0.00267851
0.000117034
0.00263098
9.45495e-05
0.00259612
6.95664e-05
0.00257315
4.60488e-05
0.00256027
2.60491e-05
0.00255534
1.0263e-05
0.00255623
-1.33341e-06
0.00256098
-9.0392e-06
0.0025678
-1.32187e-05
0.00257512
-1.42616e-05
0.00258158
-1.26314e-05
0.00258614
-8.92404e-06
0.00258813
-3.88055e-06
0.00258729
1.67241e-06
0.00258377
6.93488e-06
0.00257807
1.12567e-05
0.00257086
1.42227e-05
0.00256293
1.5678e-05
0.002555
1.56979e-05
0.00254767
1.45248e-05
0.00254138
1.24955e-05
0.00253637
9.97522e-06
0.00253271
7.30629e-06
0.00253034
4.77318e-06
0.00252907
2.58351e-06
0.00252867
8.63127e-07
0.00252887
-3.37433e-07
0.00252941
-1.02896e-06
0.00253007
-1.26655e-06
0.00253066
-1.13276e-06
0.00253103
-7.23508e-07
0.00253111
-1.36722e-07
0.00253084
5.35303e-07
0.00253023
1.21261e-06
0.00252931
1.83011e-06
0.00252813
2.34244e-06
0.00252676
2.72012e-06
0.00252527
2.95622e-06
0.00252373
3.05129e-06
0.00252221
3.03092e-06
0.00252075
2.90788e-06
0.00251938
2.73227e-06
0.00251812
2.49949e-06
0.00251697
2.30656e-06
1.97494e-06
0.00250264
-7.99974e-06
0.00251047
-2.3674e-05
0.00252355
-3.9423e-05
0.00254198
-5.53483e-05
0.00256587
-7.13542e-05
0.00259512
-8.67336e-05
0.00262918
-0.000100176
0.0026666
-0.000109258
0.00270496
-0.000111347
0.00274088
-0.000104207
0.00277059
-8.70786e-05
0.0027925
-6.54481e-05
0.00280662
-4.38096e-05
0.00281483
-2.69297e-05
0.00282015
-1.76993e-05
0.00282493
-1.42167e-05
0.00282939
-1.0948e-05
0.00283083
-4.19446e-07
0.00282437
2.27289e-05
0.0028056
5.71186e-05
0.00277314
9.48563e-05
0.00272935
0.00012609
0.0026793
0.000143166
0.00262947
0.000141992
0.00258663
0.000121461
0.00255722
8.25644e-05
0.00254681
2.82256e-05
0.00255922
-3.58707e-05
0.00259469
-9.93413e-05
0.00264764
-0.000146321
0.00270585
-0.000159719
0.0027535
-0.000130532
0.00277725
-6.54422e-05
0.00277147
1.55584e-05
0.00273899
8.99675e-05
0.00268806
0.000142696
0.00262843
0.000168409
0.00256916
0.000167911
0.00251823
0.000143688
0.00248312
9.74203e-05
0.00247128
3.01971e-05
0.00248951
-5.45754e-05
0.00254101
-0.000146053
0.00262107
-0.000222915
0.00271459
-0.000258391
0.00279911
-0.000233682
0.00285301
-0.000150944
0.00286426
-3.45984e-05
0.00283379
8.12173e-05
0.00277257
0.000169053
0.00269521
0.000217556
0.00261473
0.000229151
0.00254081
0.000211687
0.00248072
0.000171476
0.00244096
0.000110877
0.00242819
3.01062e-05
0.00244865
-6.81376e-05
0.0025056
-0.000173133
0.00259539
-0.000263706
0.00270458
-0.000312623
0.00281109
-0.000297804
0.00289005
-0.000214638
0.00292235
-8.1815e-05
0.0029019
6.44049e-05
0.0028373
0.000185665
0.00274657
0.000258096
0.00264883
0.000278727
0.00255836
0.00025927
0.00248354
0.000214029
0.00242999
0.000150375
0.00240457
6.71809e-05
0.002416
-3.78644e-05
0.00247045
-0.000157007
0.00256501
-0.00026755
0.00268482
-0.000339436
0.0028068
-0.000350066
0.00290728
-0.00029505
0.00296907
-0.00018868
0.00298487
-5.64181e-05
0.00295697
7.37394e-05
0.0028953
0.000176682
0.00281507
0.000234038
0.00273375
0.000238003
0.00266764
0.000192695
0.00262985
0.000109717
0.00263009
1.53939e-06
0.00267402
-0.000119518
0.00276085
-0.000237204
0.00288108
-0.000330168
0.00301718
-0.000377478
0.00314754
-0.000366541
0.00325147
-0.000297748
0.0033136
-0.000184375
0.00332675
-4.90135e-05
0.00329292
8.22211e-05
0.00322224
0.000186331
0.00312964
0.000249964
0.00303022
0.000272595
0.00293566
0.000263569
0.00285329
0.000234223
0.00278777
0.000190921
0.00274305
0.000134554
0.00272261
6.57895e-05
0.00272796
-9.83254e-06
0.00275708
-8.13725e-05
0.00280397
-0.000136017
0.0028596
-0.000163176
0.0029132
-0.000156897
0.00295384
-0.000117027
0.00297229
-5.0056e-05
0.00296333
3.09797e-05
0.00292749
0.000108969
0.00287102
0.000167845
0.00280379
0.00019804
0.00273608
0.000198945
0.00267588
0.000177232
0.00262771
0.000142715
0.00259287
0.000104404
0.00257047
6.84555e-05
0.0025585
3.80209e-05
0.00255463
1.41263e-05
0.00255662
-3.31963e-06
0.0025624
-1.48202e-05
0.00257014
-2.09581e-05
0.00257821
-2.23348e-05
0.00258523
-1.96533e-05
0.00259013
-1.38197e-05
0.00259222
-5.96892e-06
0.00259127
2.62591e-06
0.00258747
1.07316e-05
0.00258138
1.73499e-05
0.00257375
2.18511e-05
0.00256541
2.40116e-05
0.00255715
2.3963e-05
0.00254958
2.20915e-05
0.00254315
1.89238e-05
0.0025381
1.50254e-05
0.00253449
1.09224e-05
0.00253221
7.04864e-06
0.00253108
3.71814e-06
0.00253082
1.11803e-06
0.00253116
-6.80198e-07
0.00253183
-1.69846e-06
0.00253259
-2.02529e-06
0.00253325
-1.78981e-06
0.00253367
-1.14017e-06
0.00253376
-2.26472e-07
0.00253348
8.10584e-07
0.00253284
1.84961e-06
0.00253188
2.79221e-06
0.00253065
3.57022e-06
0.00252923
4.13986e-06
0.0025277
4.4917e-06
0.00252612
4.62772e-06
0.00252457
4.58795e-06
0.00252308
4.39267e-06
0.00252169
4.11881e-06
0.00252043
3.76011e-06
0.00251928
3.46295e-06
2.95918e-06
0.0025026
-1.06e-05
0.0025103
-3.13768e-05
0.00252322
-5.23436e-05
0.00254158
-7.37053e-05
0.00256564
-9.54088e-05
0.00259546
-0.000116563
0.00263071
-0.000135423
0.00266998
-0.000148528
0.00271071
-0.000152074
0.0027489
-0.000142396
0.00277992
-0.000118103
0.00280198
-8.75069e-05
0.00281516
-5.69918e-05
0.00282185
-3.36213e-05
0.00282602
-2.18638e-05
0.00283082
-1.90207e-05
0.00283683
-1.69559e-05
0.0028408
-4.38465e-06
0.0028365
2.70266e-05
0.00281823
7.5385e-05
0.00278414
0.000128944
0.00273696
0.000173279
0.00268253
0.000197593
0.00262806
0.00019646
0.00258091
0.00016861
0.00254808
0.0001154
0.00253587
4.04308e-05
0.00254914
-4.9141e-05
0.00258909
-0.000139292
0.00265001
-0.000207241
0.00271775
-0.000227454
0.00277323
-0.000186011
0.00280041
-9.26267e-05
0.00279306
2.29114e-05
0.00275544
0.000127588
0.00269787
0.000200265
0.00263162
0.000234654
0.00256636
0.000233178
0.00251008
0.000199964
0.00247039
0.000137116
0.00245546
4.51238e-05
0.00247343
-7.25477e-05
0.00252896
-0.000201582
0.00261813
-0.000312085
0.00272484
-0.000365099
0.00282276
-0.000331599
0.00288502
-0.000213211
0.0028966
-4.61701e-05
0.00285955
0.000118262
0.00278855
0.000240052
0.00270165
0.000304453
0.00261352
0.000317283
0.00253378
0.000291428
0.00246868
0.000236573
0.00242351
0.000156053
0.00240447
4.91414e-05
0.00241928
-8.2944e-05
0.00247412
-0.000227979
0.00256731
-0.000356887
0.00268465
-0.000429973
0.00280178
-0.000414926
0.00289156
-0.000304423
0.00293262
-0.00012287
0.00291633
8.06949e-05
0.0028501
0.000251891
0.00275337
0.000354826
0.00264816
0.000383939
0.0025508
0.000356633
0.00247001
0.00029481
0.00241148
0.00020891
0.00238359
9.50664e-05
0.00239779
-5.20656e-05
0.00246129
-0.000220507
0.00256875
-0.000375011
0.0027009
-0.00047158
0.00283077
-0.000479938
0.00293272
-0.000397001
0.0029897
-0.000245663
0.00299652
-6.32362e-05
0.00295862
0.000111639
0.00288853
0.000246775
0.00280236
0.000320211
0.00271708
0.000323279
0.00264852
0.00026126
0.00261054
0.000147695
0.00261479
-2.7127e-06
0.00266825
-0.000172976
0.00276889
-0.000337841
0.00290371
-0.000464998
0.00305169
-0.000525449
0.00318935
-0.000504207
0.00329599
-0.000404383
0.00335689
-0.000245278
0.0033653
-5.74237e-05
0.00332339
0.000124128
0.00324184
0.000267884
0.00313685
0.000354959
0.00302536
0.000384081
0.00292084
0.000368087
0.00283184
0.000323225
0.00276341
0.000259348
0.00271907
0.000178895
0.00270109
8.37731e-05
0.00270936
-1.81031e-05
0.00274048
-0.000112494
0.00278804
-0.000183579
0.00284363
-0.000218764
0.0028977
-0.000210968
0.00294028
-0.000159602
0.00296214
-7.19207e-05
0.00295706
3.60645e-05
0.00292419
0.000141835
0.00286897
0.000223068
0.00280134
0.000265667
0.00273235
0.000267933
0.0026709
0.000238684
0.00262211
0.0001915
0.0025875
0.000139019
0.00256606
8.98962e-05
0.00255555
4.85278e-05
0.00255339
1.62855e-05
0.00255711
-7.04119e-06
0.00256452
-2.22257e-05
0.00257368
-3.01192e-05
0.00258291
-3.1562e-05
0.00259076
-2.751e-05
0.00259614
-1.91953e-05
0.00259835
-8.17564e-06
0.00259718
3.78942e-06
0.00259292
1.49932e-05
0.00258621
2.4062e-05
0.00257792
3.01455e-05
0.00256896
3.29644e-05
0.00256019
3.27326e-05
0.00255227
3.00104e-05
0.00254566
2.55423e-05
0.00254057
2.01162e-05
0.00253703
1.44566e-05
0.00253492
9.15531e-06
0.00253401
4.63402e-06
0.00253399
1.13805e-06
0.00253455
-1.24673e-06
0.00253542
-2.56125e-06
0.00253633
-2.93533e-06
0.00253709
-2.55139e-06
0.00253756
-1.61503e-06
0.00253767
-3.32296e-07
0.00253738
1.1052e-06
0.00253669
2.53316e-06
0.00253566
3.81924e-06
0.00253436
4.87264e-06
0.00253287
5.63596e-06
0.00253126
6.0988e-06
0.00252962
6.26593e-06
0.00252801
6.19429e-06
0.00252649
5.91253e-06
0.00252509
5.52757e-06
0.00252382
5.03061e-06
0.00252266
4.62065e-06
3.93724e-06
0.00250253
-1.3132e-05
0.00251004
-3.88841e-05
0.00252271
-6.50173e-05
0.00254091
-9.19026e-05
0.0025651
-0.000119602
0.00259564
-0.000147103
0.00263247
-0.000172247
0.00267429
-0.000190346
0.00271838
-0.000196165
0.00275982
-0.000183843
0.00279269
-0.000150969
0.00281491
-0.000109724
0.00282662
-6.87018e-05
0.00283097
-3.79701e-05
0.00283332
-2.42183e-05
0.00283811
-2.38057e-05
0.00284642
-2.52665e-05
0.0028542
-1.21699e-05
0.0028532
2.80273e-05
0.00283576
9.28289e-05
0.00279937
0.000165333
0.0027474
0.000225249
0.00268686
0.000258126
0.00262599
0.000257337
0.00257287
0.00022173
0.00253518
0.000153088
0.00252023
5.53781e-05
0.00253441
-6.33193e-05
0.00258047
-0.000185358
0.00265273
-0.000279495
0.00273418
-0.00030891
0.00280093
-0.000252758
0.00283291
-0.00012461
0.00282308
3.27493e-05
0.00277792
0.000172747
0.00271092
0.000267259
0.00263554
0.000310033
0.00256217
0.000306551
0.00249874
0.000263393
0.0024528
0.000183061
0.00243275
6.51733e-05
0.0024471
-8.69014e-05
0.00250184
-0.000256318
0.00259617
-0.000406421
0.00271674
-0.000485669
0.00283491
-0.000449771
0.00291542
-0.000293721
0.00293467
-6.5415e-05
0.00289295
0.000159979
0.00280989
0.000323116
0.0027099
0.000404446
0.00261124
0.000415938
0.00252374
0.000378932
0.00245173
0.000308577
0.00239857
0.000209219
0.00237104
7.66674e-05
0.00238092
-9.28241e-05
0.00243859
-0.00028565
0.00254197
-0.00046027
0.00267207
-0.000560066
0.00279969
-0.000542547
0.00289638
-0.000401118
0.00294189
-0.000168378
0.00292784
9.4747e-05
0.00286031
0.000319417
0.00275831
0.000456825
0.00264544
0.000496816
0.00254004
0.000462028
0.00245207
0.000382785
0.00238859
0.00027239
0.00236075
0.000122907
0.00238223
-7.35438e-05
0.00245892
-0.000297198
0.00258086
-0.000496954
0.00272421
-0.000614933
0.00285979
-0.000615516
0.0029616
-0.000498813
0.00301293
-0.000296987
0.00300957
-5.98778e-05
0.00295934
0.000161865
0.00287785
0.000328273
0.00278316
0.000414899
0.00269249
0.000413942
0.00262149
0.000332264
0.00258501
0.000184176
0.00259637
-1.40695e-05
0.00266231
-0.000238923
0.00277741
-0.000452942
0.00292412
-0.000611702
0.00307866
-0.00067999
0.0032177
-0.000643252
0.00332234
-0.000509016
0.00337965
-0.000302592
0.00338355
-6.13191e-05
0.00333577
0.000171908
0.00324638
0.000357264
0.00313177
0.000469578
0.00301005
0.000505797
0.00289647
0.000481662
0.00280123
0.000418473
0.00273023
0.000330343
0.00268667
0.000222455
0.00267133
9.91186e-05
0.00268215
-2.89296e-05
0.00271442
-0.000144766
0.00276159
-0.000230747
0.00281608
-0.00027325
0.00286961
-0.000264496
0.0029134
-0.000203395
0.0029388
-9.73245e-05
0.00293896
3.59046e-05
0.00291145
0.000169351
0.0028601
0.000274414
0.00279424
0.000331529
0.00272535
0.000336818
0.00266335
0.000300689
0.00261428
0.000240571
0.00258014
0.000173155
0.00256001
0.000110025
0.00255145
5.70929e-05
0.00255156
1.61707e-05
0.00255762
-1.30939e-05
0.00256721
-3.18164e-05
0.00257827
-4.11868e-05
0.00258904
-4.23287e-05
0.00259801
-3.64741e-05
0.00260401
-2.52025e-05
0.00260637
-1.0531e-05
0.00260491
5.24285e-06
0.00260002
1.98857e-05
0.00259247
3.1611e-05
0.00258328
3.93378e-05
0.0025735
4.27483e-05
0.00256406
4.21745e-05
0.00255567
3.83921e-05
0.00254881
3.24021e-05
0.00254368
2.52452e-05
0.00254028
1.78652e-05
0.00253841
1.10219e-05
0.0025378
5.2469e-06
0.0025381
8.38215e-07
0.00253896
-2.11349e-06
0.00254008
-3.67957e-06
0.00254119
-4.04202e-06
0.00254208
-3.44571e-06
0.00254263
-2.16054e-06
0.00254275
-4.53196e-07
0.00254242
1.43083e-06
0.00254167
3.28264e-06
0.00254056
4.93535e-06
0.00253915
6.27587e-06
0.00253756
7.2342e-06
0.00253585
7.80094e-06
0.00253413
7.98557e-06
0.00253246
7.86523e-06
0.0025309
7.47793e-06
0.00252946
6.965e-06
0.00252818
6.3135e-06
0.00252702
5.77985e-06
4.90717e-06
0.00250243
-1.55648e-05
0.00250965
-4.61048e-05
0.00252195
-7.73093e-05
0.00253984
-0.000109797
0.00256408
-0.000143844
0.0025954
-0.000178425
0.00263417
-0.000211016
0.00267931
-0.00023548
0.00272797
-0.000244827
0.0027739
-0.000229773
0.00280925
-0.000186321
0.00283164
-0.000132111
0.00284122
-7.82839e-05
0.00284215
-3.88974e-05
0.00284176
-2.38274e-05
0.00284631
-2.83574e-05
0.00285776
-3.67218e-05
0.002871
-2.5405e-05
0.00287482
2.42073e-05
0.00285873
0.000108917
0.00281933
0.000204737
0.00276097
0.000283608
0.00269234
0.00032675
0.00262305
0.000326628
0.00256208
0.000282702
0.00251784
0.000197331
0.00249885
7.4367e-05
0.00251379
-7.82587e-05
0.00256812
-0.000239686
0.00265636
-0.000367741
0.00275702
-0.000409563
0.00283891
-0.000334654
0.00287668
-0.000162381
0.0028627
4.6727e-05
0.0028069
0.00022855
0.00272722
0.000346945
0.00263998
0.00039727
0.0025564
0.000390127
0.00248413
0.000335668
0.00242989
0.000237303
0.00240054
9.45178e-05
0.0024037
-9.00593e-05
0.00244856
-0.000301175
0.00254133
-0.000499196
0.00267384
-0.000618179
0.00281642
-0.000592344
0.00292551
-0.000402818
0.0029651
-0.000105003
0.00292755
0.000197527
0.00283486
0.000415804
0.00271998
0.000519334
0.00260807
0.000527843
0.00251055
0.00047645
0.00242952
0.000389614
0.00236669
0.000272045
0.00233187
0.000111487
0.00234276
-0.000103713
0.00241176
-0.00035465
0.00253191
-0.000580418
0.00267695
-0.000705112
0.00281321
-0.000678798
0.00291176
-0.000499671
0.00295499
-0.000211611
0.00293756
0.000112183
0.00286624
0.000390733
0.00275902
0.000564041
0.00263912
0.000616724
0.00252574
0.000575405
0.00243053
0.000477993
0.00236336
0.000339555
0.00233851
0.000147757
0.00237011
-0.000105139
0.00246024
-0.000387332
0.00259365
-0.00063036
0.00274339
-0.000764669
0.00288023
-0.000752361
0.00297956
-0.00059814
0.00302547
-0.000342896
0.00301373
-4.8136e-05
0.00295272
0.000222868
0.0028601
0.000420898
0.00275624
0.000518757
0.00265964
0.000510546
0.00258672
0.00040518
0.00255371
0.000217192
0.00257454
-3.48997e-05
0.0026534
-0.00031779
0.00277966
-0.0005792
0.00293158
-0.000763618
0.00308477
-0.000833179
0.00321821
-0.000776693
0.00331609
-0.000606897
0.00336774
-0.000354241
0.00336775
-6.13331e-05
0.00331714
0.000222517
0.0032246
0.000449803
0.00310552
0.000588666
0.00297816
0.000633148
0.00285903
0.0006008
0.00275996
0.000517544
0.00268799
0.000402308
0.0026461
0.000264349
0.00263361
0.000111606
0.00264688
-4.21988e-05
0.00268038
-0.000178264
0.00272761
-0.000277984
0.00278145
-0.000327084
0.00283421
-0.000317261
0.00287804
-0.000247223
0.00290536
-0.000124646
0.0029098
3.14606e-05
0.00288812
0.000191039
0.00284244
0.000320094
0.00278065
0.000393311
0.00271392
0.000403556
0.00265275
0.000361854
0.00260418
0.000289139
0.00257097
0.000206372
0.00255249
0.000128502
0.00254625
6.33361e-05
0.00254908
1.3335e-05
0.00255794
-2.19526e-05
0.00257017
-4.4043e-05
0.00258353
-5.45528e-05
0.00259616
-5.49547e-05
0.00260647
-4.67889e-05
0.00261327
-3.20032e-05
0.00261585
-1.31081e-05
0.00261409
7.00441e-06
0.00260847
2.55093e-05
0.00259992
4.01556e-05
0.00258965
4.96125e-05
0.00257885
5.35408e-05
0.0025686
5.24323e-05
0.00255966
4.73309e-05
0.00255252
3.95438e-05
0.00254736
3.04041e-05
0.00254412
2.11019e-05
0.00254256
1.2579e-05
0.00254233
5.4782e-06
0.00254303
1.4281e-07
0.00254426
-3.34511e-06
0.00254568
-5.1026e-06
0.00254702
-5.37809e-06
0.00254806
-4.49024e-06
0.00254868
-2.78129e-06
0.00254881
-5.8365e-07
0.00254844
1.80041e-06
0.00254761
4.11604e-06
0.00254638
6.16139e-06
0.00254486
7.80167e-06
0.00254314
8.95558e-06
0.00254132
9.61708e-06
0.0025395
9.80253e-06
0.00253776
9.61321e-06
0.00253614
9.09754e-06
0.00253466
8.43703e-06
0.00253337
7.61137e-06
0.0025322
6.94233e-06
5.86831e-06
0.00250229
-1.7858e-05
0.00250911
-5.29205e-05
0.00252083
-8.9035e-05
0.00253821
-0.000127173
0.00256232
-0.00016795
0.00259439
-0.000210503
0.00263543
-0.000252048
0.00268473
-0.000284779
0.00273946
-0.000299559
0.00279142
-0.000281734
0.00283001
-0.000224907
0.00285246
-0.000154564
0.00285889
-8.47178e-05
0.00285485
-3.48506e-05
0.00285046
-1.94393e-05
0.00285459
-3.24895e-05
0.00287049
-5.26204e-05
0.00289153
-4.64447e-05
0.00290225
1.34876e-05
0.00288813
0.000123032
0.00284471
0.000248162
0.00277796
0.000350353
0.00269896
0.000405748
0.00261906
0.000406533
0.00254816
0.000353605
0.0024953
0.000250188
0.00247046
9.92009e-05
0.00248585
-9.36459e-05
0.00255134
-0.000305176
0.00266202
-0.000478423
0.00278953
-0.000537067
0.00289157
-0.000436699
0.00293543
-0.00020624
0.00291402
6.81382e-05
0.002843
0.000299567
0.00274654
0.000443406
0.0026445
0.000499309
0.00254882
0.000485811
0.00246615
0.00041834
0.00240059
0.000302861
0.00235574
0.000139368
0.00234076
-7.50788e-05
0.00237385
-0.00033427
0.00246885
-0.000594197
0.00261607
-0.000765396
0.00278059
-0.000756862
0.00291548
-0.00053771
0.00297893
-0.000168454
0.0029539
0.000222557
0.00285825
0.000511458
0.0027304
0.00064718
0.002604
0.000654243
0.0024943
0.000586151
0.00240246
0.000481451
0.00233048
0.000344028
0.00229302
0.000148947
0.00231206
-0.00012275
0.00239702
-0.000439613
0.00253325
-0.000716644
0.00268926
-0.000861122
0.00283051
-0.00082005
0.0029289
-0.000598068
0.00296794
-0.000250645
0.00294436
0.000135763
0.00286701
0.000468087
0.00275409
0.00067696
0.00262789
0.000742916
0.00250747
0.00069583
0.00240618
0.000579279
0.0023373
0.000408433
0.00231756
0.000167504
0.00235949
-0.000147071
0.00246019
-0.000488034
0.00259999
-0.000770158
0.0027507
-0.000915376
0.00288447
-0.000886132
0.00297884
-0.000692518
0.00301925
-0.000383304
0.00300129
-3.01688e-05
0.0029327
0.000291457
0.00283159
0.000522002
0.00272
0.000630351
0.00261825
0.000612294
0.00254464
0.000478789
0.00251691
0.000244923
0.00254802
-6.60115e-05
0.00263735
-0.000407117
0.00276853
-0.000710381
0.00291746
-0.000912544
0.00306161
-0.00097733
0.00318382
-0.000898902
0.00327167
-0.000694754
0.00331645
-0.000399017
0.00331324
-5.81255e-05
0.00326236
0.000273395
0.00317098
0.000541185
0.00305287
0.000706776
0.00292551
0.000760512
0.00280578
0.000720529
0.00270678
0.000616545
0.00263653
0.000472557
0.00259786
0.00030302
0.00258911
0.00012035
0.00260574
-5.88251e-05
0.00264176
-0.000214281
0.00269045
-0.000326676
0.00274455
-0.000381189
0.00279657
-0.000369275
0.0028393
-0.000289957
0.00286642
-0.000151762
0.00287282
2.50634e-05
0.00285557
0.000208282
0.00281577
0.000359894
0.00275961
0.000449473
0.00269705
0.000466113
0.00263851
0.000420394
0.00259166
0.000335988
0.00256007
0.000237968
0.00254364
0.000144927
0.00254
6.69784e-05
0.0025458
7.53908e-06
0.00255766
-3.38203e-05
0.00257268
-5.90613e-05
0.00258847
-7.03423e-05
0.00260309
-6.95734e-05
0.00261493
-5.86275e-05
0.00262273
-3.98074e-05
0.00262574
-1.61194e-05
0.00262384
8.90571e-06
0.00261758
3.17728e-05
0.00260805
4.96878e-05
0.00259663
6.10251e-05
0.00258475
6.54276e-05
0.00257359
6.35897e-05
0.00256404
5.68846e-05
0.00255659
4.69878e-05
0.00255142
3.55764e-05
0.0025484
2.41223e-05
0.00254721
1.3767e-05
0.00254742
5.26679e-06
0.00254857
-1.0005e-06
0.0025502
-4.97922e-06
0.00255195
-6.85198e-06
0.00255352
-6.95124e-06
0.00255472
-5.68255e-06
0.0025554
-3.46869e-06
0.00255553
-7.12091e-07
0.00255511
2.22643e-06
0.00255418
5.04564e-06
0.00255283
7.509e-06
0.00255117
9.46086e-06
0.00254932
1.08099e-05
0.00254738
1.15559e-05
0.00254545
1.17241e-05
0.00254362
1.14443e-05
0.00254195
1.07759e-05
0.00254043
9.94784e-06
0.00253912
8.92658e-06
0.00253795
8.11223e-06
6.82201e-06
0.0025021
-1.99609e-05
0.00250836
-5.91809e-05
0.00251928
-9.99504e-05
0.00253582
-0.000143717
0.00255948
-0.000191607
0.00259216
-0.000243181
0.00263569
-0.00029558
0.0026901
-0.000339188
0.00275282
-0.000362285
0.00281285
-0.000341758
0.00285566
-0.000267723
0.00287819
-0.000177093
0.0028803
-8.6826e-05
0.00286918
-2.3731e-05
0.00285878
-9.0378e-06
0.00286175
-3.54544e-05
0.00288344
-7.43101e-05
0.00291532
-7.83331e-05
0.00293593
-7.11596e-06
0.00292495
0.000134005
0.00287647
0.000296643
0.00279893
0.000427892
0.00270681
0.00049787
0.00261374
0.000499605
0.00253051
0.000436833
0.00246656
0.00031414
0.00243365
0.00013211
0.00244791
-0.000107906
0.00252306
-0.000380325
0.00265659
-0.000611955
0.0028179
-0.000698371
0.00295165
-0.000570448
0.00300887
-0.000263459
0.00297903
9.79696e-05
0.00288728
0.000391324
0.00276867
0.000562011
0.00264851
0.000619466
0.00253912
0.000595209
0.0024444
0.000513052
0.00236363
0.00038364
0.00229877
0.000204226
0.00226796
-4.42687e-05
0.0023019
-0.000368216
0.00241387
-0.000706166
0.00258148
-0.000933004
0.00276077
-0.000936156
0.00290663
-0.00068357
0.00298215
-0.00024397
0.00296769
0.000237017
0.00287381
0.000605338
0.00273758
0.00078341
0.00259801
0.00079381
0.00247519
0.000708971
0.00237204
0.000584602
0.00229344
0.000422629
0.00225868
0.000183713
0.00228966
-0.00015373
0.00238889
-0.00053885
0.00253477
-0.000862524
0.00269442
-0.00102077
0.00283593
-0.000961566
0.0029335
-0.000695633
0.00297045
-0.000287602
0.0029429
0.000163315
0.00286051
0.000550478
0.00274253
0.000794938
0.00261111
0.000874335
0.00248512
0.00082182
0.00237966
0.000684745
0.00231109
0.000476995
0.00229729
0.000181306
0.00234779
-0.000197567
0.00245483
-0.000595079
0.00259592
-0.00091125
0.00274313
-0.00106258
0.00287059
-0.00101359
0.00295807
-0.000779996
0.00299248
-0.00041772
0.00296958
-7.26545e-06
0.00289623
0.000364811
0.00278989
0.000628335
0.0026732
0.000747043
0.00256828
0.000717219
0.00249581
0.000551249
0.00247468
0.000266053
0.00251503
-0.000106355
0.00261007
-0.000502161
0.00273878
-0.000839091
0.00287722
-0.00105098
0.00300667
-0.00110678
0.00311431
-0.00100654
0.00319061
-0.000771052
0.00322811
-0.000436517
0.00322216
-5.21784e-05
0.00317262
0.000322935
0.00308548
0.000628322
0.00297285
0.000819405
0.00285079
0.000882574
0.00273576
0.000835556
0.00264138
0.00071093
0.00257622
0.000537715
0.00254308
0.00033616
0.00253986
0.00012357
0.00256143
-8.03939e-05
0.00260109
-0.000253937
0.0026515
-0.000377089
0.00270539
-0.000435083
0.0027559
-0.00041978
0.00279675
-0.000330811
0.00282262
-0.000177635
0.00282953
1.81589e-05
0.00281535
0.000222462
0.00278093
0.000394316
0.00273112
0.000499285
0.00267435
0.00052288
0.00262023
0.000474517
0.00257654
0.000379675
0.00254748
0.000267023
0.00253357
0.000158837
0.00253266
6.78897e-05
0.00254129
-1.08569e-06
0.00255582
-4.8349e-05
0.00257315
-7.63929e-05
0.00259091
-8.81011e-05
0.00260726
-8.593e-05
0.00262068
-7.20463e-05
0.00262985
-4.89784e-05
0.00263386
-2.01255e-05
0.00263243
1.03402e-05
0.00262605
3.81509e-05
0.00261591
5.98295e-05
0.00260358
7.33498e-05
0.00259071
7.83006e-05
0.00257869
7.56077e-05
0.00256853
6.70409e-05
0.0025608
5.47216e-05
0.00255564
4.0739e-05
0.00255286
2.68948e-05
0.00255208
1.45554e-05
0.00255275
4.59324e-06
0.00255434
-2.5936e-06
0.00255636
-6.99938e-06
0.00255841
-8.89741e-06
0.00256018
-8.7249e-06
0.00256149
-6.98766e-06
0.00256221