/*--------------------------------*- C++ -*----------------------------------*\
  =========                 |
  \\      /  F ield         | OpenFOAM: The Open Source CFD Toolbox
   \\    /   O peration     | Website:  https://openfoam.org
    \\  /    A nd           | Version:  11
     \\/     M anipulation  |
\*---------------------------------------------------------------------------*/
FoamFile
{
    format      ascii;
    class       surfaceScalarField;
    location    "18.623376";
    object      phi;
}
// * * * * * * * * * * * * * * * * * * * * * * * * * * * * * * * * * * * * * //

dimensions      [0 3 -1 0 0 0 0];

internalField   nonuniform List<scalar> 
14638
(
0.00250233
-2.329e-06
0.00250912
-6.78815e-06
0.00252037
-1.12548e-05
0.00253624
-1.58666e-05
0.00255695
-2.07087e-05
0.0025826
-2.56484e-05
0.00261295
-3.03545e-05
0.00264707
-3.4115e-05
0.00268321
-3.61495e-05
0.00271893
-3.5716e-05
0.0027514
-3.24675e-05
0.00277883
-2.74288e-05
0.00280017
-2.13459e-05
0.0028148
-1.46256e-05
0.0028218
-7.0043e-06
0.00281944
2.36326e-06
0.00280558
1.38592e-05
0.00277922
2.63588e-05
0.00274166
3.75665e-05
0.00269653
4.51246e-05
0.00264915
4.73795e-05
0.00260558
4.35678e-05
0.00257186
3.37249e-05
0.00255322
1.86385e-05
0.00255324
-2.45695e-08
0.00257265
-1.94068e-05
0.0026079
-3.52503e-05
0.00265064
-4.27365e-05
0.00268931
-3.86679e-05
0.00271298
-2.36699e-05
0.00271524
-2.26644e-06
0.00269579
1.94559e-05
0.0026592
3.65849e-05
0.00261264
4.65652e-05
0.0025639
4.87315e-05
0.0025206
4.33056e-05
0.00248987
3.07295e-05
0.00247817
1.16976e-05
0.00249031
-1.21428e-05
0.0025274
-3.70861e-05
0.00258441
-5.70128e-05
0.00264954
-6.51311e-05
0.002707
-5.74512e-05
0.00274252
-3.55273e-05
0.00274855
-6.03029e-06
0.00272592
2.26383e-05
0.00268186
4.40576e-05
0.0026264
5.54618e-05
0.00256943
5.69627e-05
0.00251964
4.97939e-05
0.00248461
3.50246e-05
0.00247114
1.34698e-05
0.00248437
-1.32268e-05
0.00252546
-4.10852e-05
0.00258891
-6.34554e-05
0.00266192
-7.30049e-05
0.00272724
-6.53213e-05
0.00276895
-4.17164e-05
0.00277801
-9.05483e-06
0.00275463
2.3377e-05
0.0027068
4.78291e-05
0.00264626
6.05479e-05
0.00258465
6.16014e-05
0.00253167
5.29843e-05
0.00249496
3.67075e-05
0.00248076
1.42004e-05
0.00249345
-1.26928e-05
0.00253361
-4.0157e-05
0.00259572
-6.2105e-05
0.0026677
-7.19817e-05
0.00273348
-6.57784e-05
0.00277777
-4.42888e-05
0.0027909
-1.31365e-05
0.00277152
1.93854e-05
0.00272611
4.54106e-05
0.00266605
6.00565e-05
0.00260382
6.22345e-05
0.0025502
5.36164e-05
0.00251343
3.67661e-05
0.00249943
1.40039e-05
0.00251157
-1.21463e-05
0.00254934
-3.77639e-05
0.00260675
-5.74101e-05
0.00267251
-6.57648e-05
0.00273252
-6.0005e-05
0.00277377
-4.12489e-05
0.00278797
-1.42033e-05
0.00277343
1.45454e-05
0.00273481
3.86125e-05
0.00268133
5.34823e-05
0.00262408
5.7252e-05
0.0025737
5.03818e-05
0.00253892
3.4779e-05
0.00252589
1.30259e-05
0.00253749
-1.16016e-05
0.00257225
-3.47586e-05
0.00262369
-5.14354e-05
0.00268115
-5.74642e-05
0.0027324
-5.12516e-05
0.00276692
-3.45174e-05
0.00277851
-1.15918e-05
0.00276635
1.21645e-05
0.00273442
3.19332e-05
0.00269001
4.44066e-05
0.002642
4.80081e-05
0.00259934
4.26617e-05
0.00256988
2.94634e-05
0.00255933
1.05497e-05
0.00257013
-1.08083e-05
0.00260046
-3.0327e-05
0.00264401
-4.35539e-05
0.0026913
-4.729e-05
0.00273212
-4.0818e-05
0.00275828
-2.61622e-05
0.00276553
-7.24329e-06
0.002754
1.15283e-05
0.00272749
2.65118e-05
0.00269203
3.54558e-05
0.00265459
3.7442e-05
0.00262205
3.25394e-05
0.00260045
2.15975e-05
0.00259411
6.34694e-06
0.00260454
-1.0433e-05
0.0026297
-2.51627e-05
0.00266405
-3.43474e-05
0.00269981
-3.57636e-05
0.00272911
-2.92955e-05
0.00274604
-1.69337e-05
0.00274802
-1.97368e-06
0.00273589
1.21263e-05
0.00271319
2.26983e-05
0.00268493
2.8262e-05
0.00265654
2.83919e-05
0.00263315
2.33832e-05
0.00261907
1.40803e-05
0.0026171
1.97619e-06
0.00262777
-1.06737e-05
0.00264889
-2.11152e-05
0.00267572
-2.68308e-05
0.00270214
-2.6426e-05
0.00272231
-2.01673e-05
0.00273218
-9.86597e-06
0.00273037
1.80577e-06
0.00271817
1.2203e-05
0.00269877
1.94015e-05
0.00267632
2.24476e-05
0.00265511
2.12122e-05
0.00263899
1.61169e-05
0.00263099
8.00368e-06
0.00263279
-1.79921e-06
0.00264421
-1.14234e-05
0.00266296
-1.87505e-05
0.00268491
-2.19497e-05
0.00270518
-2.027e-05
0.0027193
-1.41179e-05
0.00272468
-5.38668e-06
0.00272068
4.0085e-06
0.00270926
1.14168e-05
0.00269301
1.62528e-05
1.60751e-05
0.00250231
-4.64391e-06
0.00250906
-1.35353e-05
0.00252026
-2.24549e-05
0.00253609
-3.16964e-05
0.00255683
-4.14435e-05
0.00258262
-5.1441e-05
0.00261329
-6.10276e-05
0.00264791
-6.87356e-05
0.00268472
-7.29553e-05
0.0027211
-7.20926e-05
0.00275404
-6.54081e-05
0.00278174
-5.51374e-05
0.00280327
-4.28663e-05
0.00281811
-2.94746e-05
0.00282548
-1.43734e-05
0.00282352
4.32624e-06
0.00280982
2.75611e-05
0.00278314
5.30377e-05
0.00274474
7.59689e-05
0.00269839
9.14753e-05
0.00264958
9.61881e-05
0.00260456
8.85816e-05
0.00256956
6.87249e-05
0.00255005
3.81508e-05
0.00254991
1.20938e-07
0.00257015
-3.96482e-05
0.0026073
-7.24071e-05
0.00265263
-8.80587e-05
0.00269376
-7.98056e-05
0.00271899
-4.88987e-05
0.00272154
-4.81674e-06
0.00270125
3.9745e-05
0.00266315
7.46871e-05
0.00261478
9.49337e-05
0.00256419
9.93272e-05
0.00251906
8.8435e-05
0.00248667
6.31174e-05
0.00247378
2.45856e-05
0.00248572
-2.40792e-05
0.00252408
-7.54446e-05
0.00258387
-0.000116804
0.00265258
-0.000133843
0.00271323
-0.000118105
0.00275056
-7.28555e-05
0.00275663
-1.20978e-05
0.0027326
4.66693e-05
0.0026864
9.02572e-05
0.00262864
0.000113225
0.0025695
0.000116102
0.0025177
0.00010159
0.00248089
7.18383e-05
0.00246609
2.82695e-05
0.00247894
-2.60795e-05
0.00252112
-8.32636e-05
0.00258727
-0.000129603
0.00266402
-0.000149761
0.00273302
-0.000134323
0.00277715
-8.58428e-05
0.00278669
-1.85998e-05
0.00276203
4.80452e-05
0.00271183
9.80283e-05
0.00264862
0.000123752
0.00258457
0.000125657
0.00252942
0.000108129
0.00249077
7.53608e-05
0.00247491
3.00578e-05
0.00248662
-2.44034e-05
0.00252698
-8.05166e-05
0.00259071
-0.000125835
0.00266544
-0.000146709
0.00273433
-0.000134666
0.00278122
-9.11787e-05
0.0027958
-2.77257e-05
0.0027765
3.86909e-05
0.00272999
9.19213e-05
0.00266809
0.000121953
0.00260372
0.000126605
0.00254797
0.000109363
0.0025093
7.54441e-05
0.00249391
2.9395e-05
0.00250563
-2.38694e-05
0.00254425
-7.63855e-05
0.00260366
-0.00011682
0.00267193
-0.000134037
0.00273415
-0.000122223
0.00277676
-8.38588e-05
0.00279134
-2.87809e-05
0.00277635
2.9531e-05
0.00273676
7.82031e-05
0.002682
0.000108245
0.00262332
0.000115934
0.00257149
0.000102207
0.00253549
7.07806e-05
0.00252186
2.66609e-05
0.00253388
-2.36234e-05
0.00257022
-7.11028e-05
0.00262405
-0.00010526
0.00268395
-0.000117364
0.0027369
-0.000104207
0.00277196
-6.95744e-05
0.00278297
-2.26003e-05
0.00276947
2.5663e-05
0.00273591
6.54924e-05
0.00268994
9.03781e-05
0.00264061
9.7336e-05
0.00259697
8.63028e-05
0.00256701
5.94246e-05
0.00255668
2.08782e-05
0.00256863
-2.27629e-05
0.00260097
-6.26664e-05
0.00264696
-8.95439e-05
0.00269642
-9.67513e-05
0.00273852
-8.29144e-05
0.00276477
-5.24075e-05
0.00277099
-1.34712e-05
0.00275773
2.47934e-05
0.00272923
5.50137e-05
0.00269193
7.27548e-05
0.00265305
7.63159e-05
0.00261966
6.5935e-05
0.00259792
4.33363e-05
0.00259227
1.19932e-05
0.00260427
-2.24278e-05
0.00263163
-5.25255e-05
0.00266833
-7.10445e-05
0.00270599
-7.34229e-05
0.00273624
-5.95497e-05
0.00275301
-3.37021e-05
0.00275383
-2.79069e-06
0.0027399
2.60531e-05
0.00271517
4.74237e-05
0.00268503
5.84057e-05
0.00265518
5.8242e-05
0.00263096
4.75995e-05
0.00261683
2.8213e-05
0.00261567
3.13524e-06
0.00262797
-2.29742e-05
0.00265124
-4.43823e-05
0.00268027
-5.58556e-05
0.00270839
-5.45538e-05
0.00272937
-4.11485e-05
0.00273903
-1.95235e-05
0.00273613
4.71227e-06
0.00272223
2.60934e-05
0.00270093
4.07112e-05
0.00267669
4.66867e-05
0.00265407
4.38269e-05
0.00263716
3.30318e-05
0.00262912
1.60356e-05
0.00263174
-4.41819e-06
0.00264475
-2.44317e-05
0.00266556
-3.95593e-05
0.00268959
-4.59763e-05
0.00271147
-4.21515e-05
0.00272638
-2.90292e-05
0.00273162
-1.06301e-05
0.00272661
9.0219e-06
0.00271368
2.43436e-05
0.00269544
3.4501e-05
3.35617e-05
0.00250229
-6.92932e-06
0.00250894
-2.01921e-05
0.00252002
-3.3535e-05
0.00253576
-4.74378e-05
0.00255654
-6.22157e-05
0.00258261
-7.75137e-05
0.00261393
-9.23447e-05
0.00264959
-0.000104397
0.00268776
-0.000111131
0.00272552
-0.000109853
0.00275945
-9.93309e-05
0.00278772
-8.34076e-05
0.00280956
-6.47057e-05
0.0028248
-4.47231e-05
0.00283285
-2.24234e-05
0.00283164
5.54033e-06
0.00281817
4.10264e-05
0.00279074
8.04715e-05
0.00275054
0.000116174
0.00270163
0.000140385
0.00264992
0.000147898
0.00260206
0.000136441
0.00256465
0.000106128
0.00254363
5.91709e-05
0.00254345
3.01632e-07
0.0025657
-6.18918e-05
0.00260698
-0.000113691
0.00265768
-0.000138763
0.00270375
-0.000125876
0.00273181
-7.69498e-05
0.00273439
-7.40026e-06
0.00271182
6.23111e-05
0.00267018
0.000116333
0.00261791
0.000147204
0.00256353
0.000153703
0.00251493
0.000137039
0.00247958
9.84625e-05
0.00246482
3.93437e-05
0.00247699
-3.62402e-05
0.00251861
-0.000117074
0.00258465
-0.000182842
0.00266094
-0.000210133
0.00272792
-0.000185084
0.00276824
-0.000113168
0.00277341
-1.7274e-05
0.00274559
7.44945e-05
0.00269432
0.000141527
0.00263153
0.000176015
0.00256799
0.000179637
0.00251245
0.000157131
0.00247245
0.000111835
0.00245524
4.54818e-05
0.00246713
-3.7966e-05
0.00251074
-0.000126876
0.00258134
-0.000200204
0.00266506
-0.000233482
0.00274161
-0.000210868
0.00279124
-0.000135477
0.00280241
-2.97721e-05
0.00277541
7.50444e-05
0.00272037
0.00015307
0.00265166
0.000192463
0.00258264
0.000194676
0.00252336
0.000167414
0.0024812
0.000117518
0.0024626
4.86637e-05
0.00247309
-3.48976e-05
0.00251472
-0.000122144
0.00258239
-0.000193507
0.00266273
-0.000227053
0.00273723
-0.000209164
0.00278823
-0.000142177
0.0028046
-4.40927e-05
0.00278463
5.86538e-05
0.00273553
0.00014103
0.00266991
0.000187567
0.0026015
0.000195014
0.00254196
0.000168903
0.00250023
0.000117181
0.00248321
4.6409e-05
0.00249559
-3.62437e-05
0.00253748
-0.000118277
0.00260205
-0.000181389
0.00267572
-0.000207708
0.00274185
-0.000188355
0.00278593
-0.000127944
0.00279963
-4.24755e-05
0.00278217
4.69941e-05
0.0027394
0.000120972
0.0026814
0.000166244
0.00261975
0.000177586
0.00256543
0.000156522
0.00252784
0.000108374
0.0025142
4.02971e-05
0.00252843
-3.78476e-05
0.0025691
-0.00011178
0.00262836
-0.000164513
0.00269316
-0.000182165
0.00274901
-0.000160062
0.00278427
-0.000104832
0.00279303
-3.13626e-05
0.00277577
4.29295e-05
0.00273802
0.00010324
0.00268829
0.000140103
0.0026361
0.000149525
0.00259072
0.000131687
0.0025604
8.9748e-05
0.00255145
2.98247e-05
0.0025667
-3.80156e-05
0.00260383
-9.97976e-05
0.00265501
-0.000140721
0.00270866
-0.000150399
0.00275282
-0.000127074
0.00277856
-7.8153e-05
0.00278205
-1.69545e-05
0.00276464
4.21984e-05
0.00273162
8.80312e-05
0.0026903
0.000114076
0.00264848
0.000118138
0.00261357
0.000100844
0.00259203
6.48814e-05
0.00258845
1.55701e-05
0.00260425
-3.82237e-05
0.00263648
-8.47605e-05
0.00267801
-0.000112573
0.00271926
-0.000114672
0.002751
-9.12957e-05
0.00276692
-4.96209e-05
0.00276492
-7.83127e-07
0.00274696
4.40136e-05
0.00271787
7.6505e-05
0.00268383
9.24509e-05
0.00265111
9.09626e-05
0.00262546
7.32429e-05
0.00261164
4.20382e-05
0.00261262
2.15123e-06
0.00262864
-3.89955e-05
0.00265649
-7.22322e-05
0.00268992
-8.92806e-05
0.00272122
-8.58542e-05
0.00274345
-6.33752e-05
0.00275226
-2.83356e-05
0.00274676
1.02119e-05
0.0027292
4.36564e-05
0.0027039
6.60069e-05
0.00267605
7.45355e-05
0.00265075
6.91254e-05
0.00263251
5.12798e-05
0.00262479
2.37507e-05
0.00262946
-9.0843e-06
0.00264596
-4.09386e-05
0.00267103
-6.46272e-05
0.00269912
-7.40695e-05
0.00272395
-6.69759e-05
0.00274006
-4.51445e-05
0.00274463
-1.5199e-05
0.00273729
1.63673e-05
0.00272114
4.04893e-05
0.00269881
5.683e-05
5.37596e-05
0.00250224
-9.1661e-06
0.00250875
-2.67003e-05
0.00251962
-4.44134e-05
0.0025352
-6.30169e-05
0.002556
-8.30101e-05
0.00258246
-0.000103979
0.00261474
-0.000124624
0.002652
-0.000141658
0.00269232
-0.000151453
0.00273225
-0.000149782
0.00276767
-0.000134751
0.00279675
-0.000112485
0.00281901
-8.6966e-05
0.00283485
-6.05615e-05
0.00284401
-3.15796e-05
0.00284405
5.49795e-06
0.00283101
5.40681e-05
0.00280238
0.000109101
0.0027593
0.000159246
0.00270638
0.000193314
0.00265017
0.000204102
0.00259795
0.000188659
0.00255688
0.000147205
0.00253352
8.25248e-05
0.00253324
5.80223e-07
0.00255857
-8.72195e-05
0.00260634
-0.000161459
0.00266558
-0.000198
0.00271946
-0.00017976
0.00275188
-0.000109371
0.00275431
-9.83075e-06
0.00272793
8.86957e-05
0.00268057
0.000163694
0.00262218
0.000205594
0.00256202
0.00021386
0.00250818
0.000190873
0.0024684
0.000138248
0.0024508
5.69449e-05
0.0024632
-4.86419e-05
0.00250961
-0.000163488
0.00258512
-0.000258347
0.00267336
-0.000298379
0.00275069
-0.000262413
0.00279599
-0.000158463
0.00279964
-2.0928e-05
0.00276546
0.000108672
0.00270589
0.000201104
0.00263513
0.000246772
0.00256491
0.000249863
0.00250379
0.000218243
0.00245881
0.000156824
0.00243706
6.72313e-05
0.00244581
-4.67211e-05
0.00248961
-0.000170673
0.00256522
-0.000275815
0.00265835
-0.000326614
0.00274613
-0.000298649
0.00280519
-0.000194537
0.00282089
-4.54723e-05
0.00279251
0.000103423
0.00273163
0.000213951
0.00265528
0.000268812
0.00257895
0.000271009
0.00251342
0.000232946
0.00246607
0.00016487
0.00244382
7.09077e-05
0.00245369
-4.477e-05
0.00249895
-0.000167402
0.00257397
-0.000268524
0.00266299
-0.000316071
0.00274472
-0.000290897
0.00279982
-0.00019728
0.00281688
-6.11509e-05
0.00279475
8.07881e-05
0.00274146
0.000194314
0.0026706
0.000258431
0.00259669
0.00026892
0.00253212
0.000233478
0.00248667
0.000162632
0.00246851
6.45695e-05
0.00248346
-5.11983e-05
0.00253167
-0.000166482
0.00260462
-0.000254342
0.00268611
-0.000289201
0.00275717
-0.000259415
0.00280221
-0.000172976
0.00281323
-5.34984e-05
0.00279082
6.94066e-05
0.00274236
0.00016943
0.00267903
0.000229571
0.00261293
0.000243683
0.00255537
0.000214089
0.00251629
0.00014745
0.00250383
5.27553e-05
0.00252245
-5.64679e-05
0.00257017
-0.000159495
0.00263731
-0.000231661
0.00270863
-0.000253486
0.0027679
-0.000219323
0.00280274
-0.00013968
0.0028077
-3.63178e-05
0.00278448
6.61466e-05
0.0027402
0.000147519
0.00268467
0.000195637
0.00262818
0.000206012
0.00258045
0.000179418
0.00255016
0.000120044
0.00254402
3.59646e-05
0.00256479
-5.879e-05
0.00260918
-0.000144187
0.0026676
-0.000199141
0.00272662
-0.000209422
0.00277302
-0.00017347
0.0027975
-0.000102636
0.00279674
-1.6189e-05
0.00277323
6.57064e-05
0.00273363
0.000127633
0.00268647
0.000161235
0.00264044
0.000164162
0.00260357
0.000137715
0.00258274
8.57188e-05
0.0025827
1.56091e-05
0.00260443
-5.99596e-05
0.00264381
-0.000124142
0.002692
-0.000160763
0.00273783
-0.000160502
0.00277111
-0.000124571
0.00278536
-6.38688e-05
0.00277906
5.51477e-06
0.00275524
6.78327e-05
0.00271993
0.000111811
0.00268038
0.000132006
0.00264371
0.000127634
0.0026163
0.000100647
0.00260333
5.50088e-05
0.00260785
-2.3685e-06
0.00262955
-6.06939e-05
0.00266402
-0.000106704
0.00270347
-0.000128727
0.0027388
-0.00012119
0.00276228
-8.6849e-05
0.00276947
-3.5529e-05
0.00276003
1.96493e-05
0.00273715
6.65435e-05
0.00270619
9.69633e-05
0.0026733
0.000107423
0.00264438
9.80505e-05
0.00262454
7.11193e-05
0.00261768
3.06081e-05
0.00262568
-1.70875e-05
0.00264746
-6.27156e-05
0.00267861
-9.57774e-05
0.00271221
-0.000107669
0.00274074
-9.55031e-05
0.00275805
-6.24548e-05
0.00276124
-1.83895e-05
0.00275033
2.72715e-05
0.00272951
6.13176e-05
0.00270143
8.49021e-05
7.76449e-05
0.00250216
-1.13297e-05
0.00250845
-3.29866e-05
0.00251902
-5.49818e-05
0.00253432
-7.8323e-05
0.00255508
-0.000103767
0.00258201
-0.000130911
0.00261556
-0.000158171
0.00265502
-0.000181115
0.00269838
-0.000194811
0.00274137
-0.00019278
0.00277882
-0.000172194
0.00280886
-0.000142529
0.00283149
-0.000109599
0.002848
-7.70683e-05
0.00285871
-4.22934e-05
0.0028607
3.51232e-06
0.00284849
6.62798e-05
0.00281836
0.000139225
0.00277139
0.000206217
0.00271293
0.000251782
0.00265051
0.000266515
0.00259224
0.000246933
0.00254598
0.000193466
0.00251919
0.000109317
0.00251851
1.26122e-06
0.00254795
-0.000116666
0.00260485
-0.000218356
0.00267634
-0.000269494
0.00274151
-0.000244923
0.00278014
-0.000148006
0.00278215
-1.18449e-05
0.0027501
0.000120747
0.00269455
0.000219244
0.00262764
0.000272505
0.00255961
0.000281895
0.0024987
0.000251784
0.00245278
0.000184159
0.0024307
7.90255e-05
0.00244158
-5.95206e-05
0.00249122
-0.000213126
0.00257634
-0.000343468
0.00268003
-0.000402071
0.0027739
-0.000356282
0.00282988
-0.000214435
0.00283431
-2.53618e-05
0.00279246
0.000150519
0.00272142
0.000272147
0.00263952
0.000328669
0.00256017
0.000329211
0.00249147
0.000286946
0.00243917
0.000209129
0.0024102
9.62012e-05
0.00241399
-5.05133e-05
0.0024584
-0.000215089
0.00254151
-0.000358925
0.00264685
-0.000431949
0.00274769
-0.000399493
0.00281733
-0.000264171
0.00283877
-6.69174e-05
0.00281011
0.000132086
0.00274361
0.000280452
0.0026587
0.000353723
0.00257336
0.00035635
0.00249971
0.000306592
0.00244585
0.000218733
0.00242014
9.66135e-05
0.00243166
-5.62859e-05
0.00248431
-0.000220056
0.00257038
-0.000354594
0.00267036
-0.000416053
0.0027597
-0.000380234
0.00281757
-0.000255151
0.00283296
-7.65372e-05
0.00280614
0.000107608
0.00274664
0.000253813
0.00266908
0.000335988
0.00258867
0.000349334
0.00251844
0.000303702
0.0024694
0.000211672
0.00245138
8.25887e-05
0.00247126
-7.10755e-05
0.00252834
-0.000223562
0.00261152
-0.000337525
0.00270161
-0.000379291
0.0027775
-0.000335304
0.00282274
-0.000218217
0.00282977
-6.05283e-05
0.00280061
9.85738e-05
0.0027445
0.00022554
0.00267413
0.000299934
0.00260245
0.00031537
0.00254126
0.000275278
0.00250128
0.000187425
0.00249154
6.24974e-05
0.00251662
-8.15492e-05
0.0025732
-0.000216075
0.00264923
-0.000307693
0.00272716
-0.000331411
0.00278934
-0.0002815
0.00282302
-0.000173367
0.00282323
-3.65217e-05
0.00279288
9.64969e-05
0.00274071
0.000199684
0.00267808
0.000258272
0.00261638
0.000267713
0.00256608
0.000229719
0.00253648
0.000149637
0.00253466
3.77893e-05
0.00256283
-8.69656e-05
0.00261605
-0.000197401
0.00268247
-0.000265563
0.00274677
-0.000273728
0.00279476
-0.00022145
0.00281707
-0.000124955
0.00281105
-1.01689e-05
0.00278036
9.63967e-05
0.00273308
0.000174921
0.0026791
0.000215209
0.00262825
0.00021501
0.00258941
0.000176554
0.00257007
0.000105064
0.00257505
1.06241e-05
0.00260449
-8.93955e-05
0.00265246
-0.000172111
0.00270802
-0.000216319
0.00275834
-0.00021083
0.00279249
-0.00015872
0.00280411
-7.54882e-05
0.00279244
1.71865e-05
0.00276165
9.86213e-05
0.00271907
0.000154389
0.00267316
0.000177918
0.00263208
0.000168715
0.00260305
0.000129678
0.00259178
6.62826e-05
0.00260127
-1.18554e-05
0.00263027
-8.96978e-05
0.00267268
-0.000149119
0.00271881
-0.000174854
0.00275813
-0.000160505
0.00278224
-0.00011096
0.00278688
-4.01695e-05
0.00277242
3.41038e-05
0.00274312
9.58504e-05
0.0027055
0.000134579
0.00266681
0.000146115
0.00263389
0.000130969
0.00261266
9.23485e-05
0.0026075
3.57644e-05
0.00262019
-2.97766e-05
0.00264873
-9.12545e-05
0.00268716
-0.000134202
0.00272685
-0.000147365
0.00275901
-0.000127662
0.00277693
-8.03689e-05
0.00277782
-1.92832e-05
0.0027623
4.27906e-05
0.00273573
8.78883e-05
0.00270089
0.000119744
0.000105676
0.00250206
-1.33889e-05
0.00250803
-3.89573e-05
0.00251814
-6.50966e-05
0.00253302
-9.31937e-05
0.00255361
-0.000124362
0.00258102
-0.000158323
0.00261612
-0.000193269
0.00265843
-0.000223424
0.0027059
-0.000242278
0.00275305
-0.000239935
0.00279309
-0.000212228
0.00282419
-0.00017363
0.00284703
-0.000132448
0.00286429
-9.43191e-05
0.00287721
-5.52186e-05
0.00288213
-1.40381e-06
0.0028713
7.7103e-05
0.00283926
0.000171271
0.00278703
0.000258441
0.00272117
0.000317642
0.00265059
0.000337095
0.00258441
0.000313119
0.00253128
0.000246589
0.0024997
0.000140901
0.00249807
2.88745e-06
0.00253278
-0.000151369
0.00260216
-0.000287737
0.00269065
-0.000357985
0.00277128
-0.000325556
0.00281812
-0.000194841
0.0028191
-1.28233e-05
0.00277898
0.00016086
0.0027123
0.000285926
0.00263421
0.000350597
0.00255613
0.000359976
0.0024863
0.000321609
0.00243225
0.000238211
0.00240239
0.000108885
0.00240622
-6.33449e-05
0.0024525
-0.000259404
0.00254298
-0.000433952
0.00266325
-0.000522347
0.00278078
-0.000473806
0.00285761
-0.00029127
0.00287103
-3.87741e-05
0.00282458
0.000196967
0.00274081
0.000355916
0.00264489
0.000424588
0.00255375
0.000420351
0.00247512
0.000365578
0.00241316
0.000271091
0.00237559
0.000133764
0.00237595
-5.08657e-05
0.00242563
-0.00026477
0.00252146
-0.000454754
0.00264179
-0.000552281
0.00275501
-0.000512712
0.00283227
-0.000341433
0.00285655
-9.12e-05
0.0028262
0.000162433
0.00275389
0.000352765
0.00266031
0.000447308
0.00256526
0.0004514
0.00248249
0.000389358
0.00242186
0.000279362
0.00239421
0.000124264
0.00241045
-7.25245e-05
0.00247353
-0.000283134
0.00257212
-0.000453182
0.00268285
-0.000526789
0.00277875
-0.000476136
0.00283811
-0.000314508
0.00285029
-8.87108e-05
0.00281702
0.000140878
0.00274969
0.000321136
0.00266432
0.000421359
0.00257683
0.000436822
0.00250101
0.000379523
0.00244927
0.000263413
0.00243311
9.87448e-05
0.00245978
-9.77381e-05
0.00252669
-0.000290476
0.00261968
-0.000430514
0.00271704
-0.000476647
0.00279644
-0.00041471
0.00284119
-0.000262963
0.002844
-6.33423e-05
0.00280785
0.00013472
0.00274359
0.000289801
0.00266554
0.000377986
0.00258782
0.000393091
0.00252315
0.000339946
0.00248322
0.000227359
0.0024777
6.80192e-05
0.00251058
-0.000114436
0.00257643
-0.000281925
0.00266059
-0.000391844
0.00274365
-0.000414471
0.00280732
-0.000345178
0.00283902
-0.000205068
0.00283427
-3.17682e-05
0.00279687
0.000133899
0.00273684
0.000259709
0.00266699
0.000328125
0.00260002
0.000334683
0.00254749
0.000282248
0.00251955
0.000177583
0.00252338
3.39534e-05
0.00256008
-0.000123666
0.00262239
-0.000259707
0.00269606
-0.000339237
0.00276428
-0.000341941
0.00281246
-0.000269632
0.00283167
-0.000144169
0.00281999
1.51336e-06
0.00278206
0.000134324
0.00272716
0.000229829
0.00266646
0.000275907
0.00261102
0.000270452
0.00257081
0.000216764
0.00255404
0.000121835
0.00256539
-7.34202e-07
0.0026036
-0.0001276
0.00266042
-0.000228937
0.0027227
-0.000278595
0.0027763
-0.000264431
0.00281004
-0.000192457
0.00281805
-8.35001e-05
0.00280044
3.47991e-05
0.00276244
0.000136623
0.00271253
0.000204289
0.00266036
0.000230091
0.00261521
0.00021387
0.00258528
0.000159605
0.00257686
7.4696e-05
0.00259267
-2.76578e-05
0.00263002
-0.000127046
0.00268067
-0.000199773
0.00273295
-0.000227135
0.00277518
-0.000202731
0.00279874
-0.000134528
0.00279985
-4.1275e-05
0.00277971
5.42441e-05
0.0027436
0.000131961
0.00269916
0.00017902
0.00265471
0.000190565
0.00261814
0.000167533
0.00259629
0.000114205
0.002594
3.80545e-05
0.00261267
-4.84536e-05
0.00264896
-0.000127543
0.00269496
-0.000180201
0.0027403
-0.0001927
0.00277511
-0.000162474
0.00279249
-9.77549e-05
0.00279007
-1.68577e-05
0.00276919
6.36725e-05
0.00273635
0.000120722
0.0026945
0.000161593
0.000137692
0.00250191
-1.53038e-05
0.00250745
-4.44936e-05
0.00251692
-7.4569e-05
0.00253113
-0.000107399
0.00255135
-0.000144584
0.00257917
-0.000186142
0.00261605
-0.000230153
0.00266194
-0.000269308
0.00271484
-0.00029518
0.0027675
-0.000292593
0.00281071
-0.000255436
0.00284274
-0.000205659
0.00286528
-0.00015499
0.00288309
-0.00011213
0.00289896
-7.10892e-05
0.00290822
-1.06635e-05
0.00289981
8.55175e-05
0.00286565
0.000205422
0.00280682
0.000317272
0.00273157
0.000392899
0.00265064
0.000418024
0.0025744
0.000389356
0.00251236
0.000308635
0.0024741
0.000179155
0.00247058
6.40653e-06
0.00251215
-0.000192942
0.00259911
-0.000374692
0.00271142
-0.0004703
0.00281267
-0.0004268
0.00286912
-0.00025129
0.00286716
-1.08625e-05
0.00281539
0.000212628
0.00273387
0.000367449
0.00264163
0.000442836
0.00255138
0.000450221
0.00247088
0.000402114
0.00240589
0.000303197
0.00236275
0.000152025
0.00235219
-5.27817e-05
0.00238995
-0.00029717
0.00248487
-0.000528871
0.00262298
-0.000660451
0.00276654
-0.000617372
0.00286969
-0.000394412
0.00290029
-6.9379e-05
0.00285608
0.00024118
0.00276206
0.000449938
0.00265103
0.000535609
0.00254571
0.000525679
0.00245476
0.000456524
0.00238181
0.00034404
0.00233714
0.00017843
0.00233899
-5.2708e-05
0.00239974
-0.000325521
0.00251149
-0.000566504
0.0026465
-0.000687295
0.00276955
-0.000635758
0.00285089
-0.000422777
0.00287436
-0.00011467
0.00283971
0.000197079
0.00276061
0.000431868
0.00265841
0.000549506
0.00255382
0.000555992
0.00246213
0.000481052
0.00239575
0.000345739
0.00236836
0.000151657
0.00239155
-9.57189e-05
0.00246554
-0.000357125
0.00257486
-0.000562501
0.00269345
-0.000645376
0.00279361
-0.000576296
0.00285363
-0.000374531
0.00286287
-9.79454e-05
0.00282356
0.000180179
0.00274851
0.000396194
0.00265524
0.000514629
0.00256079
0.000531267
0.00248004
0.000460275
0.00242694
0.000316512
0.00241421
0.000111476
0.00244842
-0.000131946
0.00252433
-0.000366383
0.00262483
-0.000531014
0.00272667
-0.000578491
0.00280747
-0.000495508
0.00285095
-0.000306443
0.00285009
-6.24834e-05
0.00280815
0.000176656
0.00273684
0.000361118
0.0026518
0.000463024
0.00256856
0.000476333
0.00250115
0.000407355
0.00246238
0.000266125
0.00246219
6.82112e-05
0.00250318
-0.000155424
0.00257726
-0.000356008
0.00266739
-0.000481969
0.00275312
-0.000500205
0.00281639
-0.000408447
0.00284528
-0.000233959
0.00283587
-2.23628e-05
0.00279246
0.000177316
0.00272579
0.000326379
0.00264975
0.000404157
0.00257839
0.000406045
0.00252459
0.000336048
0.00249942
0.00020275
0.00250987
2.3507e-05
0.00255522
-0.000169014
0.00262553
-0.000330021
0.00270442
-0.000418129
0.00277428
-0.000411799
0.00282091
-0.000316263
0.0028362
-0.000159461
0.00281899
1.87235e-05
0.00277463
0.000178689
0.00271317
0.000291284
0.00264683
0.000342247
0.00258787
0.000329416
0.00254748
0.000257153
0.00253457
0.000134743
0.0025533
-1.94598e-05
0.00260039
-0.000174692
0.00266503
-0.000293577
0.00273212
-0.000345686
0.00278691
-0.000319221
0.00281862
-0.00022417
0.00282223
-8.71101e-05
0.0027987
5.83388e-05
0.00275407
0.000181252
0.00269771
0.000260641
0.00264027
0.00028754
0.00259214
0.000261998
0.0025626
0.000189138
0.00255842
7.88785e-05
0.00258157
-5.08068e-05
0.00262743
-0.000172904
0.00268541
-0.000257751
0.00274215
-0.000283874
0.00278542
-0.000246002
0.00280697
-0.000156079
0.00280374
-3.80486e-05
0.00277779
8.01925e-05
0.00273525
0.000174503
0.00268465
0.00022962
0.00263529
0.000239924
0.00259613
0.000206692
0.00257493
0.000135404
0.00257687
3.61173e-05
0.00260255
-7.41352e-05
0.00264679
-0.000171779
0.00269956
-0.000232977
0.00274902
-0.000242157
0.00278478
-0.00019823
0.00280023
-0.000113203
0.00279361
-1.0238e-05
0.0027671
9.01809e-05
0.00272811
0.000159706
0.00267984
0.000209867
0.000172923
0.00250172
-1.70249e-05
0.00250668
-4.9448e-05
0.00251526
-8.31567e-05
0.00252849
-0.000120626
0.00254801
-0.000164101
0.00257603
-0.000214168
0.00261486
-0.000268976
0.00266512
-0.00031957
0.00272516
-0.000355222
0.00278507
-0.0003525
0.00283211
-0.000302483
0.0028648
-0.000238344
0.00288623
-0.000176422
0.0029043
-0.000130202
0.00292417
-9.09592e-05
0.00293979
-2.62838e-05
0.00293517
9.01381e-05
0.00289851
0.000242078
0.00283112
0.00038467
0.00274386
0.000480152
0.00265005
0.000511841
0.00256144
0.000477961
0.00248816
0.000381915
0.00244092
0.000226399
0.00243416
1.31639e-05
0.00248362
-0.000242405
0.00259249
-0.00048356
0.00273651
-0.000614316
0.00286675
-0.000557042
0.00293648
-0.000321026
0.00292927
-3.65195e-06
0.00286056
0.000281343
0.00275919
0.000468814
0.00264944
0.000552591
0.0025451
0.000554556
0.00245212
0.000495097
0.00237249
0.000382825
0.00231081
0.000213706
0.00228433
-2.63053e-05
0.00231981
-0.000332644
0.00242825
-0.00063731
0.00258738
-0.000819582
0.00275188
-0.000781873
0.00287392
-0.000516454
0.00291939
-0.000114845
0.00288081
0.000279759
0.00278081
0.000549935
0.00265632
0.000660097
0.0025359
0.000646104
0.00243117
0.00056125
0.00234768
0.000427533
0.00229962
0.000226491
0.00230796
-6.10464e-05
0.002382
-0.000399558
0.00250737
-0.000691881
0.00265238
-0.000832301
0.00278136
-0.00076474
0.002865
-0.000506421
0.00288711
-0.000136774
0.00284786
0.000236324
0.00276199
0.00051774
0.00265171
0.000659784
0.00253845
0.000669253
0.00243908
0.000580421
0.00236885
0.000415974
0.0023437
0.000176808
0.0023744
-0.000126423
0.00245741
-0.000440131
0.00257367
-0.00067876
0.00269597
-0.000767676
0.00279741
-0.000677739
0.0028572
-0.000434322
0.0028646
-0.00010534
0.00282134
0.000223438
0.00274046
0.000477068
0.00264064
0.000614453
0.0025403
0.00063161
0.00245586
0.000544715
0.00240287
0.0003695
0.00239456
0.000119786
0.00243588
-0.000173268
0.00251863
-0.00044913
0.00262342
-0.000635806
0.00272652
-0.000681597
0.0028064
-0.00057538
0.00284776
-0.000347806
0.00284394
-5.86611e-05
0.00279802
0.000222575
0.00272176
0.00043738
0.00263155
0.000553234
0.00254422
0.000563658
0.00247537
0.000476206
0.00243894
0.000302558
0.0024446
6.2548e-05
0.00249293
-0.000203749
0.00257309
-0.000436175
0.00266628
-0.000575155
0.00275191
-0.000585839
0.00281285
-0.000469389
0.00283825
-0.000259356
0.00282476
-8.87507e-06
0.00277684
0.000225241
0.00270543
0.000397783
0.00262507
0.000484518
0.00255095
0.00048017
0.00249734
0.000389662
0.00247611
0.000223975
0.00249354
6.07497e-06
0.0025466
-0.000222072
0.0026227
-0.000406122
0.00270397
-0.0004994
0.00277289
-0.000480716
0.00281628
-0.000359653
0.00282712
-0.0001703
0.00280495
4.08949e-05
0.0027555
0.000228137
0.00268922
0.000357559
0.00261902
0.000412448
0.00255826
0.000390181
0.00251931
0.000296097
0.00251155
0.000142507
0.00253803
-4.59386e-05
0.00259303
-0.000229689
0.00266325
-0.000363802
0.00273239
-0.000414826
0.00278593
-0.000372759
0.0028141
-0.00025234
0.0028129
-8.59121e-05
0.00278401
8.72271e-05
0.002734
0.00023126
0.00267277
0.000321873
0.00261172
0.000348592
0.00256233
0.000311389
0.00253487
0.000216601
0.00253624
7.75053e-05
0.00256714
-8.17069e-05
0.00262058
-0.000226347
0.0026838
-0.000320966
0.00274243
-0.000342511
0.00278452
-0.000288086
0.00280267
-0.000174234
0.00279474
-3.01176e-05
0.00276348