/*--------------------------------*- C++ -*----------------------------------*\
  =========                 |
  \\      /  F ield         | OpenFOAM: The Open Source CFD Toolbox
   \\    /   O peration     | Website:  https://openfoam.org
    \\  /    A nd           | Version:  11
     \\/     M anipulation  |
\*---------------------------------------------------------------------------*/
FoamFile
{
    format      ascii;
    class       volVectorField;
    location    "18.359591";
    object      U_0;
}
// * * * * * * * * * * * * * * * * * * * * * * * * * * * * * * * * * * * * * //

dimensions      [0 1 -1 0 0 0 0];

internalField   nonuniform List<vector> 
7132
(
(1.0001 -0.000207677 3.44233e-18)
(1.00161 -0.000644597 1.19637e-17)
(1.00516 -0.00113587 1.17165e-17)
(1.01073 -0.00168957 1.42207e-17)
(1.01866 -0.00229754 1.97387e-17)
(1.02911 -0.00291991 1.94105e-17)
(1.04205 -0.00349242 1.70229e-17)
(1.0571 -0.00390678 1.4868e-17)
(1.07341 -0.00405209 1.32562e-17)
(1.08968 -0.00381239 1.22874e-17)
(1.1041 -0.00312915 1.19217e-17)
(1.11492 -0.00206987 1.21417e-17)
(1.12083 -0.000742882 1.26422e-17)
(1.12099 0.000715092 1.31343e-17)
(1.11519 0.00210649 1.0796e-17)
(1.10415 0.00318314 8.2414e-18)
(1.08965 0.00372584 6.11863e-18)
(1.0742 0.00361963 5.69375e-18)
(1.06054 0.0028683 3.84823e-18)
(1.05113 0.00159721 3.04376e-18)
(1.04772 4.05295e-05 2.5041e-18)
(1.0509 -0.0014678 3.43286e-18)
(1.05973 -0.00252161 7.92039e-18)
(1.07149 -0.00275362 1.31536e-17)
(1.08224 -0.00202039 1.13415e-17)
(1.0881 -0.000520885 7.07017e-18)
(1.08671 0.00129321 2.4979e-18)
(1.07786 0.0029415 1.17112e-17)
(1.06309 0.00408846 3.76911e-17)
(1.04493 0.00457285 -9.60179e-17)
(1.0262 0.00435198 -4.66175e-16)
(1.00975 0.00344075 8.21136e-16)
(0.998293 0.00189196 7.26014e-15)
(0.994263 -0.000171761 4.52629e-15)
(0.999438 -0.0024839 -8.2941e-14)
(1.01413 -0.00456703 -3.47005e-13)
(1.03626 -0.00580121 -6.81031e-13)
(1.06107 -0.00568477 -7.89478e-13)
(1.08237 -0.00414166 -5.83345e-13)
(1.09476 -0.00161784 -2.80193e-13)
(1.09564 0.00114143 -7.8494e-14)
(1.08568 0.00344948 7.23096e-15)
(1.06786 0.00491614 3.24476e-14)
(1.04602 0.00544701 1.35581e-14)
(1.02388 0.00510628 -1.07524e-13)
(1.00473 0.0039847 -3.18294e-13)
(0.991546 0.00215591 -7.81421e-14)
(0.987063 -0.000261971 2.38109e-12)
(0.993375 -0.00297574 9.94267e-12)
(1.01089 -0.00542692 2.34648e-11)
(1.03716 -0.00689053 3.78668e-11)
(1.06666 -0.00678555 4.42499e-11)
(1.09218 -0.00501496 3.84558e-11)
(1.10741 -0.00207586 2.53098e-11)
(1.10915 0.00116494 1.27641e-11)
(1.09812 0.00386937 4.26601e-12)
(1.07794 0.00553951 5.12773e-14)
(1.05339 0.00606973 -3.65331e-13)
(1.02891 0.00559469 1.51458e-12)
(1.00815 0.0042968 -4.42796e-14)
(0.994063 0.00231076 -1.85908e-11)
(0.989211 -0.000223109 -7.30703e-11)
(0.995497 -0.00301063 -1.76647e-10)
(1.01317 -0.00551083 -3.2186e-10)
(1.03976 -0.00703508 -4.72175e-10)
(1.06993 -0.00702922 -5.74317e-10)
(1.09667 -0.00536915 -5.87812e-10)
(1.11358 -0.00247051 -5.07658e-10)
(1.11698 0.000865349 -3.63914e-10)
(1.10691 0.00377473 -2.06015e-10)
(1.08671 0.00564905 -7.80159e-11)
(1.0614 0.00627686 -8.86236e-13)
(1.03603 0.00577099 2.21329e-11)
(1.01472 0.00437607 -1.5251e-11)
(1.00051 0.00231618 -1.3482e-10)
(0.995708 -0.000203291 -3.62424e-10)
(1.00176 -0.00287105 -7.02301e-10)
(1.0185 -0.00519023 -1.11791e-09)
(1.04337 -0.00657364 -1.5327e-09)
(1.07143 -0.00658003 -1.85181e-09)
(1.09651 -0.00513195 -1.99385e-09)
(1.11302 -0.00257447 -1.91777e-09)
(1.11757 0.000446985 -1.63464e-09)
(1.10975 0.00320855 -1.20426e-09)
(1.092 0.00513165 -7.25567e-10)
(1.06859 0.00591898 -3.13882e-10)
(1.04438 0.0055636 -6.41649e-11)
(1.0237 0.00424947 -2.31128e-11)
(1.00995 0.00223073 -1.8628e-10)
(1.00546 -0.000205636 -5.13879e-10)
(1.01135 -0.00268745 -9.48218e-10)
(1.02694 -0.00473497 -1.4241e-09)
(1.04945 -0.00586154 -1.87546e-09)
(1.07422 -0.00575951 -2.24155e-09)
(1.09595 -0.00444205 -2.47185e-09)
(1.11011 -0.00224565 -2.52817e-09)
(1.11413 0.000295855 -2.38617e-09)
(1.10782 0.00262369 -2.0421e-09)
(1.09309 0.004297 -1.53436e-09)
(1.0733 0.00506119 -9.62921e-10)
(1.05239 0.0048504 -4.71114e-10)
(1.03423 0.00375059 -1.86513e-10)
(1.02212 0.00195885 -1.6185e-10)
(1.01835 -0.00022807 -3.62487e-10)
(1.02387 -0.00240964 -7.02106e-10)
(1.03776 -0.00412481 -1.08956e-09)
(1.05719 -0.00497018 -1.45639e-09)
(1.07793 -0.00474527 -1.76112e-09)
(1.09552 -0.00353387 -1.981e-09)
(1.10644 -0.0016689 -2.10049e-09)
(1.10894 0.000392911 -2.10179e-09)
(1.1032 0.00221632 -1.96325e-09)
(1.091 0.00348787 -1.67514e-09)
(1.07504 0.00404107 -1.26685e-09)
(1.05841 0.00383345 -8.19366e-10)
(1.04414 0.00291873 -4.41031e-10)
(1.03489 0.00144285 -2.1719e-10)
(1.03253 -0.000340741 -1.72759e-10)
(1.03769 -0.00207652 -2.74119e-10)
(1.04939 -0.00337276 -4.59763e-10)
(1.06504 -0.00391785 -6.71466e-10)
(1.08112 -0.00359236 -8.69283e-10)
(1.09409 -0.00251214 -1.03135e-09)
(1.10138 -0.000978679 -1.14636e-09)
(1.1019 0.000631843 -1.20494e-09)
(1.09615 0.00198566 -1.1945e-09)
(1.08574 0.00286311 -1.10264e-09)
(1.07292 0.00316618 -9.28748e-10)
(1.06011 0.00288827 -6.9536e-10)
(1.04958 0.00208722 -4.47038e-10)
(1.04327 0.000886778 -2.33572e-10)
(1.04248 -0.000505544 -8.89353e-11)
(1.04747 -0.00180575 -2.10502e-11)
(1.05722 -0.00271327 -1.65839e-11)
(1.06956 -0.00300613 -5.31327e-11)
(1.08165 -0.00262292 -1.09442e-10)
(1.09082 -0.00168487 -1.69835e-10)
(1.09525 -0.000447485 -2.24033e-10)
(1.09435 0.0007902 -2.65018e-10)
(1.08872 0.00177592 -2.87097e-10)
(1.07984 0.0023549 -2.85607e-10)
(1.06955 0.00247062 -2.58442e-10)
(1.05977 0.00213741 -2.08119e-10)
(1.05222 0.00141797 -1.42261e-10)
(1.0483 0.000424506 -7.13861e-11)
(1.04884 -0.00066844 -5.19472e-12)
(1.05383 -0.00163442 5.02606e-11)
(1.06224 -0.00224539 9.31105e-11)
(1.07218 -0.00234768 1.24402e-10)
(1.08141 -0.00192007 1.46394e-10)
(1.08779 -0.00108717 1.61356e-10)
(1.09026 -6.99805e-05 1.71007e-10)
(1.08821 0.000880779 1.76269e-10)
(1.08315 0.00156884 1.77158e-10)
(1.07507 0.0018781 1.72933e-10)
(1.06829 0.00176968 1.62749e-10)
(1.05963 0.00131814 1.46529e-10)
(1.05916 0.000436283 1.26008e-10)
(1.05301 -0.000281011 1.04889e-10)
(1.06629 -0.00216319 7.97924e-11)
(1.0001 -0.000620758 5.38738e-20)
(1.0016 -0.00192804 5.83418e-19)
(1.00511 -0.0034 1.064e-18)
(1.01066 -0.00506328 1.56979e-18)
(1.01857 -0.00689491 2.23443e-18)
(1.02906 -0.00877662 2.81594e-18)
(1.04211 -0.0105163 3.02295e-18)
(1.05737 -0.011785 3.88521e-18)
(1.074 -0.0122456 2.76051e-18)
(1.09066 -0.011538 2.82055e-18)
(1.10548 -0.00948066 3.65996e-18)
(1.11661 -0.00628502 5.65008e-18)
(1.12271 -0.00228231 6.08958e-18)
(1.12291 0.00211834 6.83666e-18)
(1.11692 0.00632596 7.47861e-18)
(1.10548 0.00958973 8.13137e-18)
(1.0904 0.0112425 8.68364e-18)
(1.07432 0.0109321 8.30196e-18)
(1.06007 0.00866317 5.47697e-18)
(1.05024 0.00480679 8.88824e-19)
(1.04669 6.69905e-05 1.85698e-18)
(1.05009 -0.0045438 3.445e-18)
(1.05953 -0.00778308 -3.94847e-17)
(1.07217 -0.00851445 -6.40035e-17)
(1.08379 -0.00628533 -1.21702e-17)
(1.09021 -0.00170333 2.5293e-17)
(1.08894 0.00384179 2.40606e-17)
(1.0798 0.0088759 7.25974e-17)
(1.0645 0.0123792 1.07582e-16)
(1.04568 0.0138718 -5.3721e-16)
(1.02626 0.0132339 -1.38387e-15)
(1.00912 0.0105119 4.41637e-15)
(0.997045 0.00585378 2.29554e-14)
(0.992575 -0.000393404 -5.21057e-15)
(0.997686 -0.0074444 -3.29952e-13)
(1.01289 -0.0138468 -1.19041e-12)
(1.0361 -0.0176824 -2.27647e-12)
(1.0623 -0.0173828 -2.7327e-12)
(1.08481 -0.0126985 -2.09418e-12)
(1.09786 -0.00500087 -9.96463e-13)
(1.0987 0.00341704 -2.6994e-13)
(1.08818 0.0104501 2.76732e-14)
(1.06953 0.0149137 8.98694e-14)
(1.04682 0.0165374 1.09851e-14)
(1.02385 0.0155331 -1.51677e-13)
(1.00391 0.0121791 -1.44428e-13)
(0.990021 0.0066802 3.0479e-13)
(0.985034 -0.000642285 9.26061e-13)
(0.991298 -0.00892759 8.04373e-14)
(1.00945 -0.0164679 -5.68479e-12)
(1.03703 -0.0210105 -1.47562e-11)
(1.06817 -0.0207407 -1.96621e-11)
(1.09513 -0.0153536 -1.79761e-11)
(1.1111 -0.00638488 -1.26799e-11)
(1.11277 0.00350264 -5.00075e-12)
(1.10101 0.0117441 -5.11205e-14)
(1.0798 0.0168235 8.46278e-13)
(1.05419 0.0184365 2.45777e-12)
(1.02878 0.0170155 7.24077e-12)
(1.00721 0.0131261 6.62731e-13)
(0.992366 0.00716355 -6.51078e-11)
(0.986872 -0.000483446 -2.69409e-10)
(0.992804 -0.00895794 -6.80842e-10)
(1.01064 -0.0166228 -1.27789e-09)
(1.03803 -0.0213587 -1.89524e-09)
(1.06949 -0.021439 -2.28345e-09)
(1.09765 -0.0164552 -2.26648e-09)
(1.11568 -0.00766399 -1.86242e-09)
(1.11959 0.00249128 -1.25637e-09)
(1.10936 0.0113709 -6.66744e-10)
(1.08847 0.0171075 -2.36893e-10)
(1.06223 0.0190524 -2.82752e-12)
(1.03592 0.017559 6.53143e-11)
(1.01372 0.0133817 -1.02172e-11)
(0.998711 0.00719409 -2.5724e-10)
(0.993291 -0.000410751 -7.30268e-10)
(0.99909 -0.00851702 -1.44196e-09)
(1.01612 -0.0156167 -2.30643e-09)
(1.04178 -0.0199007 -3.1448e-09)
(1.0709 -0.0199992 -3.74698e-09)
(1.09697 -0.0156636 -3.94771e-09)
(1.11416 -0.00794264 -3.68571e-09)
(1.11899 0.00120466 -3.02833e-09)
(1.11108 0.00958613 -2.14318e-09)
(1.09295 0.0154478 -1.24104e-09)
(1.06899 0.0178858 -5.15084e-10)
(1.04411 0.0168739 -9.10837e-11)
(1.02276 0.0129587 -1.29261e-11)
(1.0084 0.00689076 -2.59787e-10)
(1.00357 -0.000484022 -7.69098e-10)
(1.00955 -0.00804559 -1.44763e-09)
(1.02576 -0.0143173 -2.17886e-09)
(1.04925 -0.0177865 -2.843e-09)
(1.07505 -0.0174982 -3.34076e-09)
(1.0975 -0.0134997 -3.604e-09)
(1.11191 -0.00683468 -3.59376e-09)
(1.11574 0.00086357 -3.29977e-09)
(1.10894 0.00790459 -2.74703e-09)
(1.09363 0.0129645 -2.01237e-09)
(1.07325 0.0152856 -1.23523e-09)
(1.05183 0.0146738 -5.90873e-10)
(1.03325 0.0113808 -2.26228e-10)
(1.02086 0.00598203 -1.9871e-10)
(1.01711 -0.000645798 -4.62967e-10)
(1.02305 -0.00729199 -9.07915e-10)
(1.03775 -0.0125349 -1.40981e-09)
(1.0582 -0.0151198 -1.87081e-09)
(1.07986 -0.0144248 -2.23205e-09)
(1.09798 -0.0107161 -2.46647e-09)
(1.10892 -0.00502848 -2.56277e-09)
(1.11099 0.00123655 -2.51142e-09)
(1.10455 0.00675793 -2.3006e-09)
(1.09156 0.0105933 -1.93082e-09)
(1.07489 0.012251 -1.44178e-09)
(1.05771 0.0116119 -9.24503e-10)
(1.04311 0.00883832 -4.95984e-10)
(1.0338 0.00436183 -2.4671e-10)
(1.03171 -0.00106119 -2.0127e-10)
(1.03751 -0.00635168 -3.20087e-10)
(1.05012 -0.0103037 -5.32251e-10)
(1.06676 -0.011953 -7.70283e-10)
(1.08363 -0.0109332 -9.87846e-10)
(1.09698 -0.00760967 -1.16014e-09)
(1.10416 -0.00291727 -1.27555e-09)
(1.10417 0.00199059 -1.32604e-09)
(1.09765 0.00609938 -1.30116e-09)
(1.08641 0.00874734 -1.19081e-09)
(1.07284 0.00964542 -9.96628e-10)
(1.05945 0.00878038 -7.43308e-10)
(1.04861 0.00632889 -4.77306e-10)
(1.04231 0.00266259 -2.49576e-10)
(1.04188 -0.00159178 -9.42192e-11)
(1.04757 -0.00556613 -1.85721e-11)
(1.05825 -0.00833343 -8.66337e-12)
(1.07151 -0.00920838 -4.18999e-11)
(1.0843 -0.00800609 -9.72381e-11)
(1.09378 -0.00510872 -1.59124e-10)
(1.09807 -0.00130874 -2.16878e-10)
(1.09666 0.00247621 -2.62534e-10)
(1.0903 0.00547787 -2.89224e-10)
(1.08061 0.00722905 -2.91253e-10)
(1.06959 0.00756325 -2.65891e-10)
(1.05924 0.00652803 -2.15492e-10)
(1.05139 0.00431445 -1.47814e-10)
(1.04749 0.00126234 -7.35766e-11)
(1.04842 -0.00209642 -2.65632e-12)
(1.05412 -0.00506442 5.85963e-11)
(1.06344 -0.00693491 1.0771e-10)
(1.07428 -0.00723204 1.44807e-10)
(1.08418 -0.00589423 1.71131e-10)
(1.09085 -0.00331262 1.88204e-10)
(1.0932 -0.000173824 1.97526e-10)
(1.09067 0.00275222 2.00353e-10)
(1.0849 0.00486399 1.97386e-10)
(1.07601 0.00581136 1.88681e-10)
(1.06848 0.00547783 1.74102e-10)
(1.05916 0.00408872 1.54094e-10)
(1.05843 0.00139375 1.30825e-10)
(1.05196 -0.000841118 1.07929e-10)
(1.06609 -0.00658191 8.30996e-11)
(1.00009 -0.00102747 3.54792e-22)
(1.00156 -0.0031944 6.608e-21)
(1.00502 -0.00564295 1.17245e-20)
(1.01051 -0.00842341 -3.21816e-21)
(1.0184 -0.0115029 -7.271e-20)
(1.02895 -0.0146884 6.66889e-20)
(1.04222 -0.0176615 -5.46278e-19)
(1.05791 -0.0198601 -1.06889e-18)
(1.07517 -0.0207067 1.49098e-18)
(1.09263 -0.0195574 1.98719e-18)
(1.10824 -0.0160856 -3.81324e-18)
(1.11997 -0.0106737 -8.79636e-18)
(1.12644 -0.00387764 -8.18804e-18)
(1.12669 0.00363122 -3.87476e-18)
(1.12032 0.0108479 2.01436e-18)
(1.10804 0.0164631 8.17045e-18)
(1.0918 0.0193118 1.13626e-17)
(1.07445 0.0187892 5.41227e-18)
(1.05906 0.0149049 -1.32036e-17)
(1.04846 0.00828553 -1.64517e-17)
(1.0447 0.000112492 4.55551e-17)
(1.04864 -0.00789451 -3.72165e-16)
(1.05939 -0.0135708 -2.25684e-15)
(1.07386 -0.0148943 -3.61785e-15)
(1.08721 -0.0110409 -2.3815e-15)
(1.09466 -0.00308407 -6.66151e-16)
(1.09345 0.00651271 6.81811e-17)
(1.08355 0.0151696 3.39367e-16)
(1.067 0.0211522 -6.06689e-16)
(1.04677 0.0236906 -1.70721e-15)
(1.02595 0.0226252 1.11422e-14)
(1.00751 0.0180452 1.26383e-14)
(0.994322 0.0101676 -2.0354e-13)
(0.989149 -0.000484875 -4.09967e-13)
(0.994341 -0.0126316 2.78391e-12)
(1.01078 -0.0237742 1.51164e-11)
(1.03638 -0.0305205 3.18699e-11)
(1.06548 -0.0300563 3.66608e-11)
(1.09039 -0.0219173 2.52839e-11)
(1.10453 -0.00854354 1.05848e-11)
(1.10497 0.00600171 2.15475e-12)
(1.09296 0.0180437 -4.05366e-13)
(1.0724 0.0255925 -5.63036e-13)
(1.04781 0.0282822 -4.74795e-13)
(1.02317 0.0265536 5.54672e-13)
(1.00178 0.020896 4.71447e-12)
(0.986649 0.0115988 3.47164e-12)
(0.980837 -0.000890223 -4.81244e-11)
(0.987043 -0.0151704 -2.38445e-10)
(1.00629 -0.0282907 -6.15312e-10)
(1.03624 -0.0362675 -1.0407e-09)
(1.07061 -0.0358505 -1.23796e-09)
(1.10061 -0.0264757 -1.07197e-09)
(1.11832 -0.0108753 -6.8442e-10)
(1.11989 0.00623393 -3.1004e-10)
(1.10651 0.0203668 -7.95979e-11)
(1.08298 0.0289489 1.06815e-11)
(1.0551 0.031567 3.0585e-11)
(1.02781 0.0290779 3.37976e-11)
(1.00469 0.0225031 -4.74833e-12)
(0.988501 0.0124809 -2.26525e-10)
(0.981859 -0.000431796 -8.5526e-10)
(0.987181 -0.0148839 -2.0416e-09)
(1.00542 -0.0281224 -3.65747e-09)
(1.03442 -0.0364701 -5.25073e-09)
(1.06836 -0.0368543 -6.23906e-09)
(1.09916 -0.0284666 -6.21081e-09)
(1.1192 -0.0134217 -5.1667e-09)
(1.12397 0.0040496 -3.53852e-09)
(1.11335 0.0193433 -1.91139e-09)
(1.09111 0.029208 -7.04395e-10)
(1.06306 0.0325457 -4.08844e-11)
(1.03492 0.0300218 1.61829e-10)
(1.01109 0.022975 -5.60126e-14)
(0.994758 0.0125315 -5.296e-10)
(0.988526 -0.000384236 -1.47509e-09)
(0.99441 -0.0142755 -2.78577e-09)
(1.01264 -0.0265365 -4.24415e-09)
(1.04039 -0.0339761 -5.55134e-09)
(1.07177 -0.0341852 -6.44703e-09)
(1.09956 -0.0267611 -6.74762e-09)
(1.11752 -0.0135671 -6.35056e-09)
(1.12219 0.0020083 -5.29138e-09)
(1.11346 0.0162378 -3.79642e-09)
(1.09415 0.026177 -2.22796e-09)
(1.06889 0.0303308 -9.45497e-10)
(1.04273 0.0286713 -1.84486e-10)
(1.02021 0.0221009 -2.23192e-11)
(1.00502 0.011828 -4.10704e-10)
(1.00001 -0.000771037 -1.21393e-09)
(1.00679 -0.0137814 -2.23417e-09)
(1.02478 -0.0245923 -3.25379e-09)
(1.05056 -0.0305148 -4.10094e-09)
(1.07843 -0.0298879 -4.6856e-09)
(1.10209 -0.0228653 -4.97359e-09)
(1.11657 -0.011349 -4.93628e-09)
(1.11948 0.0017949 -4.53976e-09)
(1.1112 0.0136874 -3.78904e-09)
(1.09427 0.0221419 -2.77971e-09)
(1.07248 0.0259544 -1.70817e-09)
(1.04995 0.024846 -8.21131e-10)
(1.03064 0.0192316 -3.20939e-10)
(1.01801 0.0100294 -2.82713e-10)
(1.01473 -0.0013178 -6.35774e-10)
(1.02197 -0.0127303 -1.21437e-09)
(1.03867 -0.0217054 -1.83925e-09)
(1.0613 -0.0260291 -2.38183e-09)
(1.08472 -0.0246371 -2.78266e-09)
(1.10368 -0.018058 -3.02896e-09)
(1.11435 -0.00816094 -3.11891e-09)
(1.11523 0.00259135 -3.0397e-09)
(1.10706 0.0119373 -2.7721e-09)
(1.09224 0.0183163 -2.31608e-09)
(1.07399 0.0209594 -1.72229e-09)
(1.05568 0.0197157 -1.10243e-09)
(1.04051 0.0148721 -5.95399e-10)
(1.0313 0.0071429 -3.04645e-10)
(1.03007 -0.00219664 -2.53266e-10)
(1.03747 -0.0112809 -3.88632e-10)
(1.05213 -0.0179994 -6.24262e-10)
(1.07079 -0.0206729 -8.82775e-10)
(1.08913 -0.0186981 -1.11556e-09)
(1.10304 -0.0127697 -1.29942e-09)
(1.10978 -0.00456588 -1.42323e-09)
(1.10853 0.00389293 -1.47658e-09)
(1.10028 0.0108699 -1.44597e-09)
(1.08723 0.0152676 -1.31985e-09)
(1.07208 0.0166392 -1.10128e-09)
(1.05757 0.0149978 -8.19258e-10)
(1.0462 0.0106574 -5.25496e-10)
(1.04009 0.00425222 -2.74655e-10)
(1.04063 -0.00313643 -1.01612e-10)
(1.04794 -0.00999071 -1.23764e-11)
(1.06059 -0.0146851 8.44155e-12)
(1.07571 -0.0160339 -1.64742e-11)
(1.0898 -0.013753 -6.72391e-11)
(1.09971 -0.00856126 -1.29548e-10)
(1.10354 -0.00188105 -1.92807e-10)
(1.10094 0.00467882 -2.47527e-10)
(1.09298 0.0098012 -2.84295e-10)
(1.0816 0.0127103 -2.94802e-10)
(1.06908 0.0131531 -2.74512e-10)
(1.05766 0.0112338 -2.25158e-10)
(1.04932 0.00728865 -1.54794e-10)
(1.04564 0.00190604 -7.48137e-11)
(1.04752 -0.00398197 4.19831e-12)
(1.05478 -0.00914198 7.50768e-11)
(1.06598 -0.012326 1.34246e-10)
(1.07856 -0.0127092 1.80465e-10)
(1.08967 -0.0102162 2.13626e-10)
(1.09678 -0.00557347 2.34245e-10)
(1.09872 -1.43093e-05 2.43405e-10)
(1.0951 0.00510834 2.42623e-10)
(1.08782 0.00875892 2.33449e-10)
(1.07729 0.0103474 2.17104e-10)
(1.06829 0.0097121 1.94669e-10)
(1.05775 0.00720178 1.67655e-10)
(1.05662 0.00251785 1.39221e-10)
(1.04968 -0.00159043 1.13018e-10)
(1.06571 -0.0114009 8.88755e-11)
(1.00009 -0.00142329 -6.40256e-20)
(1.00151 -0.00443075 -7.14476e-19)
(1.00487 -0.00784823 -1.22335e-18)
(1.01026 -0.0117573 -2.14898e-18)
(1.01811 -0.0161239 -2.52294e-18)
(1.02874 -0.0206875 -3.79538e-18)
(1.04233 -0.0250065 -8.37356e-18)
(1.05864 -0.0282657 2.18034e-18)
(1.07687 -0.0296237 6.72059e-18)
(1.09559 -0.0280811 -3.04843e-17)
(1.11242 -0.0231315 -6.32666e-17)
(1.12509 -0.0153831 -2.8094e-17)
(1.13215 -0.00564032 2.26435e-17)
(1.1325 0.00517652 5.34043e-17)
(1.12556 0.0156468 6.99889e-17)
(1.11196 0.0238406 7.09384e-17)
(1.0939 0.0280192 3.97385e-17)
(1.07457 0.0272876 -4.83125e-17)
(1.05742 0.0216469 -1.3945e-16)
(1.04561 0.0119821 3.83933e-17)
(1.0415 -2.8332e-05 -4.22556e-16)
(1.04627 -0.0118991 -2.65965e-15)
(1.05909 -0.0204034 2.58821e-15)
(1.07645 -0.0224354 7.82773e-15)
(1.09255 -0.0166898 1.99915e-15)
(1.10161 -0.00481064 -1.89685e-15)
(1.10043 0.00941834 -6.9173e-16)
(1.08925 0.0221104 -5.21487e-16)
(1.07071 0.0307685 -9.07999e-15)
(1.04828 0.0343933 1.1844e-14)
(1.02532 0.0328595 1.32497e-13)
(1.00491 0.026326 -1.81198e-13)
(0.990037 0.0150386 -2.25249e-12)
(0.983777 -0.000393341 -8.78578e-13)
(0.989115 -0.0182498 3.13257e-11)
(1.0076 -0.0348653 1.24283e-10)
(1.03713 -0.0450463 2.42736e-10)
(1.07092 -0.0444072 2.89353e-10)
(1.09956 -0.0322191 2.21546e-10)
(1.1152 -0.012266 1.07849e-10)
(1.11476 0.00922281 2.96427e-11)
(1.10023 0.0267433 -1.1466e-12)
(1.07655 0.0374884 -6.406e-12)
(1.04901 0.0411477 -4.00328e-12)
(1.02185 0.0385449 6.31912e-12)
(0.998312 0.030438 2.78709e-11)
(0.981314 0.0171546 -7.73897e-12)
(0.973946 -0.000825744 -3.48154e-10)
(0.979259 -0.0216367 -1.36334e-09)
(0.998969 -0.0410629 -3.12781e-09)
(1.03143 -0.0531885 -5.00661e-09)
(1.07022 -0.0529481 -5.93877e-09)
(1.10529 -0.0392118 -5.33095e-09)
(1.12675 -0.016003 -3.61318e-09)
(1.12935 0.00943173 -1.78785e-09)
(1.11428 0.0302084 -5.5031e-10)
(1.08751 0.0425265 5.12652e-12)
(1.0562 0.0460119 1.43071e-10)
(1.02602 0.0422106 1.23613e-10)
(1.00055 0.0327785 -4.13598e-11)
(0.982267 0.0185862 -6.36276e-10)
(0.973872 0.00018955 -2.03823e-09)
(0.978462 -0.0207271 -4.32476e-09)
(0.997758 -0.0402439 -7.05248e-09)
(1.0296 -0.0528442 -9.49831e-09)
(1.06725 -0.053821 -1.10197e-08)
(1.10143 -0.0418711 -1.11629e-08)
(1.12373 -0.0200525 -9.74982e-09)
(1.12932 0.00543914 -7.12788e-09)
(1.11806 0.0278131 -4.1545e-09)
(1.09404 0.0422468 -1.71035e-09)
(1.06359 0.0471362 -2.39814e-10)
(1.03296 0.0435352 2.73015e-10)
(1.00687 0.0334605 8.14099e-13)
(0.988791 0.0184819 -9.52816e-10)
(0.981822 -0.000226845 -2.49028e-09)
(0.98855 -0.0205674 -4.34857e-09)
(1.00931 -0.0386079 -6.12607e-09)
(1.04058 -0.0494768 -7.50905e-09)
(1.0753 -0.0495951 -8.39397e-09)
(1.10521 -0.0385342 -8.75982e-09)
(1.12365 -0.019239 -8.49138e-09)
(1.12736 0.0032563 -7.43116e-09)
(1.11679 0.0236135 -5.63843e-09)
(1.09535 0.03773 -3.51008e-09)
(1.06802 0.0435894 -1.61142e-09)
(1.04002 0.0412048 -4.06878e-10)
(1.01602 0.0318091 -1.01415e-10)
(0.999986 0.0169943 -6.30672e-10)
(0.995252 -0.00136106 -1.72525e-09)
(1.00376 -0.0204254 -3.01263e-09)
(1.02471 -0.0362045 -4.15862e-09)
(1.05386 -0.0446196 -4.98897e-09)
(1.0845 -0.0432686 -5.50109e-09)
(1.10959 -0.032566 -5.76149e-09)
(1.12386 -0.0155184 -5.77883e-09)
(1.12515 0.00356231 -5.46319e-09)
(1.11441 0.0205147 -4.71887e-09)
(1.09488 0.0323232 -3.58148e-09)
(1.07083 0.0374408 -2.27593e-09)
(1.04663 0.0355868 -1.1448e-09)
(1.02636 0.0273461 -4.87695e-10)
(1.01367 0.0139386 -4.18546e-10)
(1.01146 -0.00262042 -8.32322e-10)
(1.02096 -0.0192592 -1.49101e-09)
(1.0407 -0.032203 -2.15929e-09)
(1.06637 -0.0381508 -2.69844e-09)
(1.09203 -0.0356136 -3.07604e-09)
(1.11187 -0.0255283 -3.31488e-09)
(1.12196 -0.0107954 -3.42997e-09)
(1.12099 0.00489541 -3.39454e-09)
(1.11024 0.0182589 -3.15568e-09)
(1.09271 0.0271271 -2.68427e-09)
(1.07212 0.0305256 -2.02679e-09)
(1.05218 0.0283441 -1.31815e-09)
(1.03627 0.0210267 -7.31119e-10)
(1.0274 0.00958229 -3.91183e-10)
(1.02768 -0.00414326 -3.21136e-10)
(1.03759 -0.0173775 -4.52926e-10)
(1.05526 -0.0269684 -6.851e-10)
(1.0767 -0.0304574 -9.35691e-10)
(1.09689 -0.0270556 -1.1614e-09)
(1.11134 -0.0179275 -1.34736e-09)
(1.11727 -0.00565657 -1.48624e-09)
(1.11413 0.00674326 -1.56294e-09)
(1.10338 0.0167532 -1.55334e-09)
(1.08773 0.0228479 -1.4355e-09)
(1.07033 0.0244721 -1.20823e-09)
(1.05426 0.021716 -9.04143e-10)
(1.04225 0.0150647 -5.83029e-10)
(1.03659 0.00545095 -3.06506e-10)
(1.03871 -0.0055148 -1.12115e-10)
(1.0485 -0.015549 -5.14033e-12)
(1.06399 -0.0222213 3.11492e-11)
(1.08163 -0.0238128 1.94999e-11)
(1.09734 -0.0200024 -2.1697e-11)
(1.10765 -0.0119744 -8.03555e-11)
(1.11066 -0.00191906 -1.47375e-10)
(1.10629 0.00776072 -2.12659e-10)
(1.09602 0.0151521 -2.63795e-10)
(1.08224 0.0191766 -2.88257e-10)
(1.06764 0.0195298 -2.77873e-10)
(1.05476 0.0164089 -2.3254e-10)
(1.04584 0.0103254 -1.60345e-10)
(1.04263 0.00216064 -7.38293e-11)
(1.04605 -0.00667194 1.48429e-11)
(1.05566 -0.0142938 9.68114e-11)
(1.06951 -0.018826 1.6687e-10)
(1.08443 -0.0190741 2.22454e-10)
(1.09704 -0.0150101 2.62571e-10)
(1.10453 -0.00780943 2.87169e-10)
(1.10574 0.000628513 2.96922e-10)
(1.1005 0.00827656 2.93193e-10)
(1.09106 0.0136277 2.77863e-10)
(1.07823 0.0158398 2.53052e-10)
(1.06719 0.0147624 2.21192e-10)
(1.05501 0.0108094 1.85326e-10)
(1.05343 0.00384806 1.50209e-10)
(1.04605 -0.00274692 1.19781e-10)
(1.06494 -0.016885 9.68357e-11)
(1.00009 -0.00180261 -4.05786e-18)
(1.00143 -0.00562161 -1.18236e-17)
(1.00465 -0.00999443 -1.00337e-17)
(1.00989 -0.0150452 -1.24895e-17)
(1.01766 -0.0207517 -9.42726e-18)
(1.02837 -0.0267978 -2.8761e-17)
(1.04235 -0.0326255 -3.12671e-18)
(1.05949 -0.037139 6.9902e-17)
(1.07905 -0.0392008 -1.51265e-16)
(1.09952 -0.0373367 -3.41208e-16)
(1.11806 -0.0308024 -3.56437e-17)
(1.13202 -0.0205253 4.20591e-16)
(1.13989 -0.00755779 6.21716e-16)
(1.14041 0.0069729 5.34222e-16)
(1.1327 0.0211738 3.3483e-16)
(1.11732 0.0323371 7.86037e-17)
(1.09674 0.0380263 -3.03807e-16)
(1.07465 0.0370379 -8.40445e-16)
(1.05502 0.0293881 -5.65823e-16)
(1.04148 0.0162438 -3.91987e-16)
(1.03683 -0.000217095 -1.22986e-14)
(1.0427 -0.016692 3.54072e-14)
(1.05845 -0.0286725 3.1007e-13)
(1.07998 -0.0316404 5.4528e-13)
(1.10006 -0.0236247 3.85622e-13)
(1.11141 -0.00700554 1.12165e-13)
(1.1102 0.0127179 1.18619e-15)
(1.09711 0.0300403 -2.5646e-14)
(1.07572 0.0416359 -3.87262e-14)
(1.05024 0.0463793 1.57689e-13)
(1.02436 0.0443041 3.61014e-13)
(1.00126 0.0356879 -1.88852e-12)
(0.984026 0.020739 -5.81504e-12)
(0.97617 -1.35145e-05 1.15102e-11)
(0.98159 -0.02453 8.1194e-11)
(1.00278 -0.0477778 1.70506e-10)
(1.03775 -0.0621935 2.39999e-10)
(1.07835 -0.0612895 3.10457e-10)
(1.11259 -0.0440532 3.30404e-10)
(1.13046 -0.0161141 2.37451e-10)
(1.12858 0.01352 1.07681e-10)
(1.11022 0.0371603 1.86203e-11)
(1.08202 0.0511979 -1.56871e-11)
(1.05038 0.0556251 -1.25181e-11)
(1.01986 0.0518958 2.84908e-11)
(0.993482 0.0411616 7.60847e-11)
(0.973732 0.0237871 -1.51995e-10)
(0.96348 0.000153868 -1.33898e-09)
(0.966376 -0.0276636 -4.13377e-09)
(0.98563 -0.054369 -8.24728e-09)
(1.02073 -0.0719084 -1.22537e-08)
(1.06491 -0.0728018 -1.4392e-08)
(1.10651 -0.0547432 -1.35477e-08)
(1.13358 -0.0228848 -1.00431e-08)
(1.13896 0.0124934 -5.62271e-09)
(1.12313 0.0412918 -2.1159e-09)
(1.09301 0.0579829 -2.40404e-10)
(1.05748 0.0623022 3.64675e-10)
(1.02346 0.0568936 3.3248e-10)
(0.994746 0.044376 -1.4294e-10)
(0.97364 0.025825 -1.39934e-09)
(0.963271 0.00148295 -3.76366e-09)
(0.967873 -0.0268166 -6.92671e-09)
(0.989841 -0.0536945 -1.00279e-08)
(1.02626 -0.0712314 -1.23828e-08)
(1.0687 -0.0727818 -1.38265e-08)
(1.10637 -0.0567032 -1.42795e-08)
(1.13025 -0.0273443 -1.33436e-08)
(1.13568 0.00691162 -1.07257e-08)
(1.12296 0.0369974 -6.97313e-09)
(1.0966 0.0564384 -3.30728e-09)
(1.06334 0.0630738 -7.66136e-10)
(1.02981 0.0583722 2.79887e-10)
(1.00109 0.045053 -5.36975e-11)
(0.981165 0.0250584 -1.47567e-09)
(0.973939 -0.000254347 -3.5566e-09)
(0.982586 -0.0280143 -5.7042e-09)
(1.00713 -0.0525546 -7.38287e-09)
(1.04285 -0.0669815 -8.40684e-09)
(1.08132 -0.0665123 -8.9513e-09)
(1.11333 -0.0509341 -9.25413e-09)
(1.13186 -0.0246236 -9.27332e-09)
(1.13391 0.0054561 -8.64481e-09)
(1.12062 0.0322489 -7.07695e-09)
(1.09617 0.0505592 -4.77544e-09)
(1.06608 0.0579861 -2.4241e-09)
(1.03581 0.0546639 -7.84306e-10)
(1.01018 0.0421151 -2.93576e-10)
(0.993546 0.022214 -9.07835e-10)
(0.989754 -0.00265105 -2.19391e-09)
(1.00091 -0.0285035 -3.58521e-09)
(1.02562 -0.0496434 -4.6656e-09)
(1.05857 -0.0604241 -5.3124e-09)
(1.09204 -0.0577607 -5.63795e-09)
(1.11835 -0.0425379 -5.81782e-09)
(1.13212 -0.0191158 -5.91688e-09)
(1.13138 0.00652887 -5.80876e-09)
(1.11765 0.0288232 -5.27155e-09)
(1.09488 0.0439307 -4.21024e-09)
(1.06799 0.0500727 -2.8168e-09)
(1.04172 0.0470733 -1.51507e-09)
(1.0204 0.0357096 -7.20249e-10)
(1.00795 0.0174827 -6.00865e-10)
(1.00748 -0.00495723 -1.02056e-09)
(1.02006 -0.0273458 -1.67683e-09)
(1.04349 -0.0444163 -2.29981e-09)
(1.07249 -0.0517026 -2.76242e-09)
(1.10031 -0.0473902 -3.06842e-09)
(1.12077 -0.0330161 -3.27751e-09)
(1.1299 -0.0127084 -3.42607e-09)
(1.12669 0.00845822 -3.47919e-09)
(1.11292 0.0260789 -3.34319e-09)
(1.09221 0.0373711 -2.93808e-09)
(1.06885 0.0412205 -2.28419e-09)
(1.04699 0.0376342 -1.52997e-09)
(1.03035 0.0272588 -8.84037e-10)
(1.02215 0.0114417 -4.98873e-10)
(1.02459 -0.00728935 -4.00295e-10)
(1.03777 -0.0250714 -5.08791e-10)
(1.05904 -0.0375574 -7.13608e-10)
(1.0835 -0.0414907 -9.32937e-10)
(1.10547 -0.0360169 -1.1311e-09)
(1.12016 -0.022952 -1.30374e-09)
(1.12489 -0.00595551 -1.45153e-09)
(1.11944 0.0108412 -1.55867e-09)
(1.10574 0.0240732 -1.58905e-09)
(1.08706 0.0317888 -1.50362e-09)
(1.06706 0.0333698 -1.28933e-09)
(1.04923 0.0290359 -9.78158e-10)
(1.03664 0.0194877 -6.37957e-10)
(1.0318 0.00602385 -3.39459e-10)
(1.03612 -0.00908749 -1.25157e-10)
(1.04907 -0.0226304 -1.20713e-12)
(1.06793 -0.0312533 4.99461e-11)
(1.08833 -0.0327095 5.18025e-11)
(1.10559 -0.0267597 2.24928e-11)
(1.11603 -0.0152191 -2.77624e-11)
(1.11784 -0.00119705 -9.28174e-11)
(1.11126 0.0120045 -1.64456e-10)
(1.09824 0.0218284 -2.28905e-10)
(1.08166 0.0268973 -2.69227e-10)
(1.06466 0.0268888 -2.72008e-10)
(1.05018 0.022131 -2.33547e-10)
(1.04077 0.0133523 -1.61031e-10)
(1.03841 0.00180117 -6.83194e-11)
(1.04395 -0.0104979 2.9965e-11)
(1.05654 -0.0208706 1.22296e-10)
(1.07351 -0.0267119 2.01415e-10)
(1.09098 -0.0264709 2.63841e-10)
(1.10502 -0.0202746 3.08685e-10)
(1.11262 -0.00989513 3.36281e-10)
(1.1127 0.00196938 3.47223e-10)
(1.1054 0.0125239 3.42251e-10)
(1.09337 0.0197517 3.22644e-10)
(1.07784 0.022545 2.90599e-10)
(1.06446 0.0208221 2.49608e-10)
(1.05048 0.0149931 2.04537e-10)
(1.04855 0.00534569 1.62331e-10)
(1.04097 -0.00454542 1.2758e-10)
(1.06352 -0.0232814 1.06871e-10)
(1.00008 -0.00215893 3.3362e-18)
(1.00133 -0.00674842 1.31036e-17)
(1.00435 -0.0120544 7.8047e-18)
(1.00937 -0.0182587 2.01634e-17)
(1.01698 -0.0253687 1.28476e-17)
(1.02773 -0.0330322 -4.04285e-17)
(1.04216 -0.0405869 2.46994e-16)
(1.06032 -0.0466252 -9.81123e-17)
(1.08161 -0.0496725 -1.3347e-15)
(1.10443 -0.0475952 7.77045e-17)
(1.12523 -0.0393385 3.31252e-15)
(1.1409 -0.0263069 2.6742e-15)
(1.1499 -0.00985705 -2.20699e-16)
(1.15075 0.00873757 -2.30787e-15)
(1.14209 0.0271599 -3.5429e-15)
(1.12429 0.0417926 -4.40534e-15)
(1.10031 0.0493128 -5.49992e-15)
(1.07454 0.0481186 -5.32943e-15)
(1.05161 0.0382195 -4.69585e-16)
(1.0357 0.0210695 -1.85409e-14)
(1.03024 -0.000641488 1.08037e-14)
(1.03747 -0.0227125 3.64105e-13)
(1.05716 -0.039056 3.65421e-13)
(1.08443 -0.0432611 2.62484e-13)
(1.11005 -0.0324061 6.1754e-13)
(1.12451 -0.00985151 4.68359e-13)
(1.12314 0.0165982 9.75382e-14)
(1.10736 0.0393587 -1.20044e-13)
(1.08211 0.0542049 -3.38099e-15)
(1.05262 0.0600688 5.52526e-13)
(1.02301 0.0573424 -1.11202e-12)
(0.996451 0.0464949 -4.76219e-12)
(0.97611 0.0275893 1.63632e-11)
(0.965941 0.000839095 4.77631e-11)
(0.970561 -0.0315343 -2.33557e-10)
(0.993318 -0.0629361 -1.32614e-09)
(1.03329 -0.0828473 -2.84006e-09)
(1.08239 -0.0818544 -3.3945e-09)
(1.12574 -0.0582743 -2.44195e-09)
(1.14888 -0.0202296 -1.01374e-09)
(1.1464 0.0193781 -1.42855e-10)
(1.12321 0.0500351 8.79288e-11)
(1.08889 0.0674025 4.43894e-11)
(1.05185 0.0722178 9.85259e-12)
(1.01712 0.0669868 8.38647e-11)
(0.98715 0.0535011 9.19295e-11)
(0.963495 0.0321622 -7.01751e-10)
(0.948909 0.00286758 -3.40602e-09)
(0.948733 -0.0326956 -8.31885e-09)
(0.968533 -0.0682393 -1.41313e-08)
(1.00815 -0.092849 -1.90186e-08)
(1.05888 -0.0958588 -2.18065e-08)
(1.10689 -0.0735401 -2.16187e-08)
(1.13904 -0.032192 -1.7872e-08)
(1.14733 0.0146907 -1.15788e-08)
(1.13144 0.0531915 -5.33404e-09)
(1.09845 0.0753415 -1.20983e-09)
(1.05857 0.0807718 5.19871e-10)
(1.02008 0.0735682 6.43946e-10)
(0.987368 0.0576851 -3.20229e-10)
(0.963041 0.0343274 -2.45345e-09)
(0.951237 0.0030845 -5.65646e-09)
(0.957393 -0.0340016 -9.06632e-09)
(0.983776 -0.0694421 -1.16369e-08)
(1.02581 -0.092291 -1.307e-08)
(1.07315 -0.0938935 -1.38543e-08)
(1.11385 -0.0726501 -1.44433e-08)
(1.13851 -0.0346903 -1.44584e-08)
(1.14276 0.00910778 -1.2909e-08)
(1.1276 0.0473658 -9.47233e-09)
(1.09823 0.0720516 -5.18697e-09)
(1.06182 0.080519 -1.65613e-09)
(1.02521 0.074652 5.8096e-11)
(0.993812 0.0577764 -2.26252e-10)
(0.97235 0.0320594 -2.02823e-09)
(0.965638 -0.000926301 -4.47603e-09)