/*--------------------------------*- C++ -*----------------------------------*\
  =========                 |
  \\      /  F ield         | OpenFOAM: The Open Source CFD Toolbox
   \\    /   O peration     | Website:  https://openfoam.org
    \\  /    A nd           | Version:  11
     \\/     M anipulation  |
\*---------------------------------------------------------------------------*/
FoamFile
{
    format      ascii;
    class       volVectorField;
    location    "18.040163";
    object      vorticity;
}
// * * * * * * * * * * * * * * * * * * * * * * * * * * * * * * * * * * * * * //

dimensions      [0 0 -1 0 0 0 0];

internalField   nonuniform List<vector> 
7132
(
(-4.99669e-17 -1.84726e-15 -0.0109225)
(-1.6825e-16 -1.80155e-15 -0.0107472)
(-1.67e-16 -2.60227e-17 -0.0103953)
(-2.02818e-16 -1.79634e-15 -0.00993575)
(-2.68159e-16 -1.79343e-15 -0.00947262)
(-2.8431e-16 -2.72536e-17 -0.00910306)
(-2.87042e-16 -1.17888e-17 -0.00889834)
(-2.7261e-16 -2.54244e-18 -0.00889643)
(-2.36657e-16 4.20565e-18 -0.00909866)
(-2.34218e-16 1.10542e-17 -0.00947358)
(-2.33063e-16 1.60038e-17 -0.00994379)
(-1.43305e-16 1.89167e-17 -0.0104314)
(-1.12492e-16 2.18846e-17 -0.0108298)
(-9.78507e-17 5.60185e-17 -0.0110556)
(-7.07701e-17 -1.64658e-15 -0.0110555)
(-1.04668e-16 -1.65421e-15 -0.0108274)
(-1.63867e-16 -1.68252e-15 -0.0104325)
(-1.86226e-16 3.33297e-17 -0.0099792)
(-8.0515e-17 -1.72253e-15 -0.00961484)
(3.26699e-17 -1.75871e-15 -0.00949156)
(8.29303e-17 -3.51305e-17 -0.00968283)
(9.1204e-17 -2.99848e-17 -0.0101368)
(4.58848e-17 -2.61716e-17 -0.0107194)
(4.70289e-17 -2.25035e-17 -0.0112692)
(3.45704e-16 1.61803e-15 -0.0116326)
(-1.28834e-15 7.39636e-17 -0.0116795)
(-3.78005e-15 1.98224e-15 -0.0113216)
(3.13581e-14 1.3624e-15 -0.0105596)
(8.02045e-14 -3.43743e-14 -0.00957482)
(-5.19821e-13 -1.31777e-13 -0.00867415)
(-2.5811e-12 -1.92956e-13 -0.00806032)
(-4.40679e-12 -7.53039e-14 -0.00777153)
(-3.76642e-12 1.17324e-13 -0.00782685)
(-1.81238e-12 1.79936e-13 -0.00835916)
(-4.7287e-13 1.15121e-13 -0.00946747)
(-2.05624e-14 3.88583e-14 -0.0109302)
(7.90386e-14 -3.86348e-14 -0.0123238)
(3.51787e-13 -6.10342e-14 -0.0132906)
(3.147e-13 3.8002e-13 -0.0136239)
(-2.93279e-12 1.3973e-12 -0.0132602)
(-1.08326e-11 -1.64928e-13 -0.0122812)
(-9.87424e-14 -1.3938e-11 -0.0109849)
(1.2299e-10 -4.93703e-11 -0.0100132)
(4.94896e-10 -9.28074e-11 -0.0100623)
(1.08219e-09 -1.00016e-10 -0.0111034)
(1.54372e-09 -4.35311e-11 -0.0121912)
(1.51857e-09 4.08695e-11 -0.0124229)
(1.04807e-09 9.1495e-11 -0.0120183)
(5.07391e-10 8.84899e-11 -0.0119753)
(1.57407e-10 5.65893e-11 -0.0127149)
(-1.55347e-13 2.41288e-11 -0.0138111)
(-3.61086e-11 1.49688e-12 -0.0146721)
(-1.63789e-13 -1.10897e-11 -0.0149084)
(7.02665e-11 8.55781e-13 -0.014403)
(-1.98398e-12 8.21076e-11 -0.0131202)
(-7.67271e-10 2.75879e-10 -0.0108259)
(-3.16229e-09 5.61904e-10 -0.00710844)
(-7.9048e-09 8.18432e-10 -0.00177663)
(-1.4262e-08 8.59885e-10 0.00438198)
(-1.95929e-08 5.75471e-10 0.0092458)
(-2.10238e-08 4.4641e-11 0.0105246)
(-1.7883e-08 -5.14107e-10 0.00743247)
(-1.20892e-08 -8.72759e-10 0.00107668)
(-6.30332e-09 -8.97921e-10 -0.0062813)
(-2.21215e-09 -6.61913e-10 -0.0123125)
(-1.09544e-10 -3.6257e-10 -0.0157735)
(5.76355e-10 -5.7188e-11 -0.0166341)
(3.94346e-10 4.55382e-10 -0.0153692)
(-7.97372e-10 1.48038e-09 -0.0122087)
(-3.89984e-09 3.10483e-09 -0.00698597)
(-9.92929e-09 4.97611e-09 0.000373049)
(-1.89293e-08 6.3534e-09 0.00934563)
(-2.92397e-08 6.42949e-09 0.0189016)
(-3.78818e-08 4.78664e-09 0.0277099)
(-4.1881e-08 1.699e-09 0.0340404)
(-3.97433e-08 -1.95513e-09 0.0357858)
(-3.22888e-08 -5.09879e-09 0.0313788)
(-2.21799e-08 -6.87416e-09 0.0212296)
(-1.23849e-08 -6.88844e-09 0.00808334)
(-4.98092e-09 -5.30816e-09 -0.00420522)
(-7.06763e-10 -2.71439e-09 -0.0124514)
(6.55416e-10 2.70014e-10 -0.0153981)
(-4.40386e-10 3.23406e-09 -0.0138445)
(-3.69763e-09 5.91168e-09 -0.00981234)
(-8.80323e-09 7.98894e-09 -0.00541074)
(-1.50166e-08 9.06503e-09 -0.00181035)
(-2.11187e-08 8.80196e-09 0.00138875)
(-2.58243e-08 7.09321e-09 0.00557104)
(-2.81958e-08 4.11354e-09 0.0115426)
(-2.77857e-08 2.59713e-10 0.0182573)
(-2.46854e-08 -3.92343e-09 0.0230181)
(-1.95754e-08 -7.73799e-09 0.0232107)
(-1.35689e-08 -1.02543e-08 0.0180878)
(-7.87989e-09 -1.05204e-08 0.00912485)
(-3.48022e-09 -8.17875e-09 -0.000737819)
(-9.23192e-10 -3.89692e-09 -0.00867061)
(-3.51991e-10 9.07952e-10 -0.0134399)
(-1.56922e-09 4.86052e-09 -0.0157363)
(-4.0786e-09 7.23989e-09 -0.0171845)
(-7.1418e-09 8.01997e-09 -0.0187602)
(-9.96526e-09 7.5464e-09 -0.0198142)
(-1.19573e-08 6.21793e-09 -0.0186967)
(-1.28573e-08 4.32117e-09 -0.0142698)
(-1.26741e-08 1.98668e-09 -0.00700054)
(-1.15619e-08 -7.67844e-10 0.00108512)
(-9.75343e-09 -3.86851e-09 0.00749348)
(-7.53566e-09 -6.88718e-09 0.010464)
(-5.22622e-09 -8.93191e-09 0.00940129)
(-3.1442e-09 -9.0611e-09 0.00492764)
(-1.56912e-09 -6.99476e-09 -0.0015787)
(-6.87016e-10 -3.45712e-09 -0.0087838)
(-5.38505e-10 2.43309e-10 -0.0159384)
(-9.97772e-10 3.00787e-09 -0.0227664)
(-1.80722e-09 4.4186e-09 -0.0287918)
(-2.67045e-09 4.65278e-09 -0.0328559)
(-3.35436e-09 4.12744e-09 -0.0335908)
(-3.73832e-09 3.20755e-09 -0.030346)
(-3.80145e-09 2.08271e-09 -0.0237264)
(-3.58531e-09 7.68654e-10 -0.0153719)
(-3.16182e-09 -7.95207e-10 -0.00716882)
(-2.61005e-09 -2.56038e-09 -0.000635128)
(-2.00335e-09 -4.21557e-09 0.00317714)
(-1.40759e-09 -5.24743e-09 0.00374163)
(-8.80783e-10 -5.24223e-09 0.00103324)
(-4.64811e-10 -4.19731e-09 -0.00457486)
(-1.74086e-10 -2.54723e-09 -0.0123909)
(5.3725e-12 -8.82662e-10 -0.0213962)
(1.02059e-10 3.72059e-10 -0.0301253)
(1.41155e-10 1.08372e-09 -0.036758)
(1.35235e-10 1.33301e-09 -0.0397162)
(8.93015e-11 1.2733e-09 -0.0383468)
(1.1968e-11 1.03238e-09 -0.0331817)
(-7.9345e-11 6.79142e-10 -0.0256128)
(-1.62716e-10 2.37498e-10 -0.0172162)
(-2.19341e-10 -2.73005e-10 -0.0093629)
(-2.38678e-10 -7.97617e-10 -0.0032058)
(-2.19586e-10 -1.23973e-09 0.000307107)
(-1.66908e-10 -1.49975e-09 0.000465191)
(-8.5737e-11 -1.53229e-09 -0.00306994)
(2.19751e-11 -1.37233e-09 -0.010061)
(1.54611e-10 -1.10866e-09 -0.0195398)
(3.04074e-10 -8.31494e-10 -0.0297773)
(4.52129e-10 -5.96037e-10 -0.0386048)
(5.73691e-10 -4.18276e-10 -0.0441104)
(6.458e-10 -2.9014e-10 -0.0452971)
(6.56738e-10 -1.94583e-10 -0.0423159)
(6.09981e-10 -1.11873e-10 -0.036175)
(5.20952e-10 -2.12966e-11 -0.0281657)
(4.10357e-10 9.3275e-11 -0.0195564)
(2.97912e-10 2.32153e-10 -0.0115571)
(1.98726e-10 3.71206e-10 -0.00533857)
(1.22781e-10 4.68032e-10 -0.00200095)
(7.58018e-11 4.84264e-10 -0.00240233)
(5.96451e-11 4.08375e-10 -0.00686397)
(7.19516e-11 2.61171e-10 -0.0148847)
(1.0546e-10 8.33304e-11 -0.0250422)
(1.49403e-10 -9.36688e-11 -0.0350348)
(1.90152e-10 -2.10419e-10 -0.0439471)
(2.21852e-10 -4.28088e-10 -0.043949)
(2.2746e-10 -3.07587e-10 -0.0473623)
(-5.02521e-17 -4.48228e-18 -0.0327311)
(-1.74682e-16 -8.09468e-18 -0.032208)
(-1.83909e-16 -9.58605e-18 -0.0311413)
(-2.26932e-16 -1.27269e-17 -0.0297232)
(-3.07973e-16 -1.62666e-17 -0.0282567)
(-3.46128e-16 -1.61178e-17 -0.0270344)
(-3.69666e-16 -1.76389e-17 -0.026284)
(-3.68549e-16 -2.77351e-17 -0.0261451)
(-3.47422e-16 1.71973e-15 -0.0266574)
(-4.17759e-16 9.25701e-18 -0.0277708)
(-4.38455e-16 -2.94527e-17 -0.0292902)
(-2.76754e-16 1.69335e-15 -0.0310247)
(-1.2345e-16 -8.42496e-19 -0.0326768)
(-2.56845e-16 3.53692e-17 -0.0339984)
(-6.33682e-16 9.16026e-17 -0.0347948)
(-8.39132e-16 1.26423e-16 -0.0349565)
(-2.41837e-16 9.29339e-17 -0.0344885)
(1.10187e-15 -8.34654e-18 -0.0334815)
(2.24561e-15 -9.7151e-17 -0.0321055)
(2.41582e-15 -1.0529e-16 -0.0306111)
(1.88003e-15 -6.45034e-17 -0.0292734)
(1.06231e-15 -1.1462e-17 -0.0283054)
(1.30601e-16 -4.08411e-18 -0.0278183)
(1.41674e-15 -1.75801e-16 -0.0278185)
(3.35083e-15 5.50993e-16 -0.0282131)
(-3.20795e-14 2.14023e-15 -0.028845)
(-3.37652e-14 -1.4341e-14 -0.0295672)
(6.53091e-13 -4.06299e-14 -0.030343)
(8.70449e-13 2.41217e-13 -0.0312994)
(-1.18526e-11 1.19715e-12 -0.0325095)
(-5.01208e-11 1.75053e-12 -0.0336531)
(-8.67246e-11 5.13882e-13 -0.0341473)
(-8.00791e-11 -1.18162e-12 -0.0336437)
(-4.19051e-11 -1.46857e-12 -0.0323826)
(-1.15962e-11 -7.8426e-13 -0.0309867)
(-1.56941e-13 -2.371e-13 -0.0299277)
(1.83089e-12 -2.26543e-13 -0.0293539)
(2.0153e-12 -1.80599e-13 -0.0291533)
(-4.71768e-13 2.02057e-12 -0.0290999)
(-1.20388e-11 6.96746e-12 -0.0290688)
(-1.96287e-11 -1.58195e-12 -0.0292938)
(4.52908e-11 -8.08511e-11 -0.030506)
(2.76319e-10 -2.96869e-10 -0.0336985)
(5.76443e-10 -5.72408e-10 -0.0390691)
(7.20574e-10 -6.24431e-10 -0.0451244)
(8.17992e-10 -2.61719e-10 -0.0494282)
(1.00292e-09 2.88694e-10 -0.0499553)
(9.97461e-10 5.9708e-10 -0.0464679)
(7.10171e-10 5.33818e-10 -0.0410684)
(3.66009e-10 3.10359e-10 -0.0361944)
(7.45684e-11 1.20885e-10 -0.032841)
(-5.44055e-11 1.50284e-12 -0.0310123)
(5.8698e-11 -6.4279e-11 -0.0302635)
(3.18088e-10 1.76588e-12 -0.030102)
(-1.86505e-10 5.00875e-10 -0.0295961)
(-4.0769e-09 1.85603e-09 -0.026356)
(-1.53605e-08 4.13067e-09 -0.0165607)
(-3.62838e-08 6.36831e-09 0.00219391)
(-6.29022e-08 6.70395e-09 0.0268843)
(-8.47635e-08 3.95634e-09 0.0486169)
(-9.10384e-08 -8.1033e-10 0.057377)
(-7.85276e-08 -4.98138e-09 0.0486219)
(-5.41075e-08 -6.6626e-09 0.0264962)
(-2.88969e-08 -5.83646e-09 0.000642198)
(-1.05589e-08 -3.7588e-09 -0.0201057)
(-8.88024e-10 -1.75682e-09 -0.0316941)
(2.31786e-09 -3.09131e-10 -0.0349093)
(1.57834e-09 1.14224e-09 -0.0324045)
(-2.91598e-09 3.62748e-09 -0.0259437)
(-1.32565e-08 7.67079e-09 -0.0159588)
(-3.12319e-08 1.24908e-08 -0.00271229)
(-5.53314e-08 1.60086e-08 0.013092)
(-8.04423e-08 1.59057e-08 0.0314424)
(-1.0037e-07 1.11073e-08 0.052838)
(-1.10078e-07 2.62978e-09 0.0750091)
(-1.06543e-07 -6.75122e-09 0.0907038)
(-8.99366e-08 -1.38805e-08 0.091124)
(-6.47078e-08 -1.68261e-08 0.0728425)
(-3.80155e-08 -1.54879e-08 0.0412268)
(-1.63522e-08 -1.11472e-08 0.00737283)
(-3.08905e-09 -5.53256e-09 -0.0181524)
(1.46109e-09 1.36827e-10 -0.0305308)
(-1.58027e-09 5.41058e-09 -0.0320572)
(-1.07487e-08 1.00931e-08 -0.0294116)
(-2.40196e-08 1.36484e-08 -0.0287128)
(-3.8417e-08 1.52228e-08 -0.0310838)
(-5.08211e-08 1.42058e-08 -0.0315367)
(-5.9332e-08 1.06318e-08 -0.0229863)
(-6.34944e-08 5.09426e-09 -0.00240912)
(-6.32562e-08 -1.49549e-09 0.025845)
(-5.82634e-08 -8.02859e-09 0.051729)
(-4.85198e-08 -1.32962e-08 0.0649299)
(-3.54345e-08 -1.6102e-08 0.0605743)
(-2.1687e-08 -1.55647e-08 0.0411718)
(-1.02221e-08 -1.16571e-08 0.0146886)
(-3.21092e-09 -5.46103e-09 -0.0104858)
(-1.50086e-09 1.23097e-09 -0.0304552)
(-4.53568e-09 6.72383e-09 -0.0466956)
(-1.0596e-08 1.00262e-08 -0.0622642)
(-1.73979e-08 1.09633e-08 -0.0768691)
(-2.29991e-08 9.95414e-09 -0.0855537)
(-2.64793e-08 7.66394e-09 -0.0823766)
(-2.78972e-08 4.67959e-09 -0.0651129)
(-2.76707e-08 1.33898e-09 -0.0370409)
(-2.6021e-08 -2.22818e-09 -0.00549742)
(-2.29485e-08 -5.88162e-09 0.0212262)
(-1.8602e-08 -9.15078e-09 0.0368999)
(-1.34874e-08 -1.11276e-08 0.0387907)
(-8.44905e-09 -1.08896e-08 0.0279606)
(-4.42633e-09 -8.22335e-09 0.00792668)
(-2.10201e-09 -3.97243e-09 -0.0175998)
(-1.62867e-09 3.98688e-10 -0.0459083)
(-2.59196e-09 3.64222e-09 -0.0743967)
(-4.24618e-09 5.25494e-09 -0.0988958)
(-5.88677e-09 5.42635e-09 -0.113802)
(-7.10952e-09 4.66137e-09 -0.114711)
(-7.81879e-09 3.4311e-09 -0.100985)
(-8.06361e-09 2.00621e-09 -0.0760938)
(-7.88505e-09 4.4884e-10 -0.0459784)
(-7.29093e-09 -1.28284e-09 -0.016805)
(-6.31375e-09 -3.13961e-09 0.00644779)
(-5.04375e-09 -4.8168e-09 0.0202805)
(-3.64355e-09 -5.80872e-09 0.022771)
(-2.31654e-09 -5.71362e-09 0.0134881)
(-1.23166e-09 -4.55066e-09 -0.00663008)
(-4.55386e-10 -2.78232e-09 -0.0350979)
(5.26798e-11 -1.02073e-09 -0.0674779)
(3.78633e-10 3.04168e-10 -0.0974439)
(5.82872e-10 1.06714e-09 -0.118237)
(6.72156e-10 1.35894e-09 -0.125184)
(6.24918e-10 1.33493e-09 -0.117452)
(4.38015e-10 1.11671e-09 -0.097905)
(1.54465e-10 7.66484e-10 -0.0714902)
(-1.48396e-10 3.07497e-10 -0.0433281)
(-3.91301e-10 -2.35021e-10 -0.0177831)
(-5.20168e-10 -7.97493e-10 0.00155114)
(-5.18526e-10 -1.27562e-09 0.0117025)
(-3.99337e-10 -1.56667e-09 0.0104032)
(-1.84557e-10 -1.62673e-09 -0.00333997)
(1.09433e-10 -1.4925e-09 -0.0283103)
(4.68032e-10 -1.24971e-09 -0.0604131)
(8.63505e-10 -9.80252e-10 -0.0930482)
(1.24773e-09 -7.30845e-10 -0.118958)
(1.56096e-09 -5.15109e-10 -0.132758)
(1.75038e-09 -3.31662e-10 -0.132576)
(1.78732e-09 -1.76672e-10 -0.119987)
(1.67546e-09 -4.39778e-11 -0.098663)
(1.44729e-09 7.85154e-11 -0.0727655)
(1.15211e-09 2.04798e-10 -0.0461854)
(8.41644e-10 3.3797e-10 -0.0225238)
(5.6014e-10 4.58773e-10 -0.00527519)
(3.40693e-10 5.29495e-10 0.0022485)
(2.04485e-10 5.15832e-10 -0.00240386)
(1.59193e-10 4.10302e-10 -0.019608)
(1.97018e-10 2.38265e-10 -0.0467143)
(2.94464e-10 4.46062e-11 -0.0781944)
(4.18929e-10 -1.36013e-10 -0.106552)
(5.32345e-10 -2.46643e-10 -0.129524)
(6.19501e-10 -4.4674e-10 -0.124634)
(6.36764e-10 -3.10389e-10 -0.129484)
(-1.53e-18 -6.51555e-20 -0.0544355)
(-1.91247e-17 5.37293e-21 -0.0535594)
(-3.85404e-17 1.02509e-19 -0.0517557)
(-6.28264e-17 4.19698e-19 -0.0493336)
(-9.71419e-17 8.91051e-19 -0.0467942)
(-1.36692e-16 3.59281e-18 -0.0446309)
(-1.7788e-16 -5.78254e-19 -0.0432401)
(-1.0431e-16 -6.88802e-18 -0.0428795)
(-3.57017e-16 2.88107e-17 -0.0436478)
(-7.3448e-16 4.97943e-17 -0.045497)
(-1.74568e-16 -5.11107e-17 -0.0481275)
(9.99677e-16 -1.38586e-16 -0.0512757)
(8.30008e-16 8.54199e-18 -0.0544639)
(-1.19311e-15 3.11135e-16 -0.0572894)
(-2.77911e-15 3.79284e-16 -0.0593871)
(9.51808e-16 -1.15413e-16 -0.0604632)
(1.39398e-14 -9.18294e-16 -0.0603417)
(3.1139e-14 -1.21039e-15 -0.0589498)
(3.74406e-14 -6.4478e-16 -0.0563375)
(2.9177e-14 1.58798e-16 -0.0527529)
(1.78071e-14 6.41624e-16 -0.0486873)
(7.33202e-15 8.44729e-16 -0.0447687)
(7.29989e-16 -2.0339e-16 -0.0416406)
(1.31339e-14 -1.63262e-15 -0.0398404)
(-7.66131e-15 1.66314e-14 -0.0396956)
(-2.0484e-13 1.8632e-14 -0.0412926)
(2.63616e-13 -3.40603e-13 -0.0445375)
(2.66663e-12 -4.50745e-13 -0.0492197)
(-2.81569e-12 6.21845e-12 -0.0549312)
(-3.58514e-11 2.53621e-11 -0.0608703)
(-8.5675e-11 3.72413e-11 -0.0657218)
(-1.38464e-10 1.49021e-11 -0.0678792)
(-1.66579e-10 -2.22924e-11 -0.0663301)
(-1.23943e-10 -3.40633e-11 -0.0614253)
(-5.15014e-11 -2.07607e-11 -0.0544537)
(-7.54154e-12 -6.6764e-12 -0.0470001)
(7.12026e-12 -1.12647e-12 -0.0406029)
(4.30207e-12 1.09029e-12 -0.0363209)
(-1.26378e-11 7.40535e-12 -0.0346432)
(2.94103e-12 1.0974e-11 -0.0358466)
(1.7148e-10 -2.88315e-11 -0.0404614)
(1.73645e-10 -1.61914e-10 -0.0485717)
(-2.05149e-09 -3.14947e-10 -0.0573667)
(-1.01907e-08 -3.14937e-10 -0.0605997)
(-2.41461e-08 -2.20792e-10 -0.0556472)
(-3.54508e-08 -1.84706e-10 -0.0497523)
(-3.48375e-08 -4.88672e-11 -0.0512323)
(-2.35379e-08 2.3787e-10 -0.0575553)
(-1.0669e-08 4.04214e-10 -0.0600668)
(-2.57362e-09 3.74389e-10 -0.0552422)
(3.47312e-10 2.34336e-10 -0.0460219)
(6.47063e-10 9.43554e-12 -0.0376036)
(6.46533e-10 -1.97336e-10 -0.0335267)
(8.12736e-10 1.23457e-10 -0.0341433)
(-1.61241e-09 2.2796e-09 -0.035822)
(-1.3301e-08 7.86288e-09 -0.0307041)
(-4.14897e-08 1.66654e-08 -0.00998591)
(-8.61841e-08 2.45893e-08 0.0287826)
(-1.36377e-07 2.50998e-08 0.0787958)
(-1.75644e-07 1.46436e-08 0.127323)
(-1.89635e-07 -3.0733e-09 0.157804)
(-1.71387e-07 -1.89795e-08 0.15473)
(-1.26856e-07 -2.56881e-08 0.116057)
(-7.39253e-08 -2.26722e-08 0.0586241)
(-3.05891e-08 -1.46663e-08 0.00601811)
(-5.05226e-09 -6.80092e-09 -0.0269315)
(4.59514e-09 -1.29037e-09 -0.0392613)
(3.48176e-09 3.0723e-09 -0.0380355)
(-6.17402e-09 8.89782e-09 -0.031031)
(-2.49657e-08 1.72628e-08 -0.024226)
(-5.14572e-08 2.60135e-08 -0.0213589)
(-7.94332e-08 3.09586e-08 -0.0207763)
(-1.01879e-07 2.89489e-08 -0.0123899)
(-1.16462e-07 1.96046e-08 0.0156928)
(-1.24682e-07 4.78531e-09 0.0638132)
(-1.26081e-07 -1.20259e-08 0.115379)
(-1.16379e-07 -2.60163e-08 0.145984)
(-9.31173e-08 -3.28347e-08 0.139921)
(-6.1119e-08 -3.10662e-08 0.100743)
(-3.0017e-08 -2.27714e-08 0.0471812)
(-8.23812e-09 -1.16211e-08 0.000260924)
(4.45021e-10 -4.84374e-10 -0.0291696)
(-3.39046e-09 9.33895e-09 -0.0449745)
(-1.61827e-08 1.71313e-08 -0.0598059)
(-3.23475e-08 2.18231e-08 -0.0825133)
(-4.59916e-08 2.24658e-08 -0.108125)
(-5.37361e-08 1.92595e-08 -0.119942)
(-5.6269e-08 1.34298e-08 -0.103152)
(-5.68133e-08 6.07565e-09 -0.0566612)
(-5.76665e-08 -2.3558e-09 0.00644044)
(-5.78096e-08 -1.12916e-08 0.0662222)
(-5.39708e-08 -1.91524e-08 0.10438)
(-4.42535e-08 -2.36707e-08 0.111258)
(-3.02188e-08 -2.31265e-08 0.0889067)
(-1.61328e-08 -1.74168e-08 0.0486924)
(-6.46935e-09 -8.25755e-09 0.00332273)
(-3.59288e-09 1.57034e-09 -0.0411376)
(-6.82069e-09 9.40807e-09 -0.0856475)
(-1.31142e-08 1.3671e-08 -0.130302)
(-1.89683e-08 1.42215e-08 -0.167008)
(-2.23302e-08 1.20871e-08 -0.18214)
(-2.32515e-08 8.66699e-09 -0.166918)
(-2.3096e-08 4.91685e-09 -0.124069)
(-2.3129e-08 1.04858e-09 -0.0653698)
(-2.34776e-08 -3.12894e-09 -0.00514117)
(-2.31506e-08 -7.57801e-09 0.0442867)
(-2.10396e-08 -1.16177e-08 0.0743106)
(-1.68746e-08 -1.40084e-08 0.0807595)
(-1.15638e-08 -1.35917e-08 0.0642106)
(-6.70239e-09 -1.01683e-08 0.0285818)
(-3.62445e-09 -4.85595e-09 -0.0212176)
(-2.68315e-09 4.88286e-10 -0.0796337)
(-3.23559e-09 4.31662e-09 -0.138139)
(-4.25326e-09 6.066e-09 -0.184128)
(-5.0165e-09 6.08445e-09 -0.205146)
(-5.38995e-09 5.09345e-09 -0.195783)
(-5.63371e-09 3.6846e-09 -0.160421)
(-6.01924e-09 2.11584e-09 -0.109771)
(-6.54136e-09 3.8231e-10 -0.0553319)
(-6.91405e-09 -1.58085e-09 -0.00611012)
(-6.79426e-09 -3.68397e-09 0.0314998)
(-6.00949e-09 -5.55067e-09 0.0528341)
(-4.67958e-09 -6.61104e-09 0.0545836)
(-3.14524e-09 -6.44817e-09 0.0350837)
(-1.75528e-09 -5.12789e-09 -0.00473418)
(-6.80985e-10 -3.1894e-09 -0.0597422)
(1.05261e-10 -1.29967e-09 -0.119513)
(7.10727e-10 1.06963e-10 -0.169928)
(1.19648e-09 9.36963e-10 -0.198379)
(1.53586e-09 1.31199e-09 -0.199298)
(1.65173e-09 1.39037e-09 -0.175658)
(1.48764e-09 1.26761e-09 -0.135857)
(1.06878e-09 9.72347e-10 -0.0892271)
(5.11275e-10 5.10381e-10 -0.0433078)
(-2.33307e-11 -8.71167e-11 -0.00378358)
(-3.95384e-10 -7.34005e-10 0.0245126)
(-5.35532e-10 -1.30015e-09 0.0369051)
(-4.4714e-10 -1.66673e-09 0.0293293)
(-1.73136e-10 -1.78667e-09 0.000168501)
(2.36454e-10 -1.69862e-09 -0.047286)
(7.31421e-10 -1.4857e-09 -0.103657)
(1.25362e-09 -1.22134e-09 -0.155503)
(1.7377e-09 -9.44763e-10 -0.190417)
(2.12313e-09 -6.696e-10 -0.201941)
(2.36432e-09 -4.03319e-10 -0.190931)
(2.43363e-09 -1.57122e-10 -0.163149)
(2.32427e-09 5.81422e-11 -0.12565)
(2.05619e-09 2.40378e-10 -0.0845137)
(1.67589e-09 3.96097e-10 -0.0447075)
(1.24679e-09 5.28138e-10 -0.0109779)
(8.36653e-10 6.21682e-10 0.0113963)
(5.06369e-10 6.45859e-10 0.016965)
(2.99705e-10 5.75014e-10 0.00199479)
(2.33984e-10 4.12108e-10 -0.0326824)
(2.95551e-10 1.93537e-10 -0.0801286)
(4.43515e-10 -2.76253e-11 -0.128828)
(6.25058e-10 -2.12609e-10 -0.165958)
(7.84715e-10 -3.10705e-10 -0.190723)
(9.03111e-10 -4.80297e-10 -0.167619)
(9.23276e-10 -3.16217e-10 -0.167275)
(-5.69248e-17 5.84508e-18 -0.0759453)
(-1.79603e-16 1.04105e-17 -0.0747076)
(-1.51553e-16 1.22648e-17 -0.0721428)
(-1.96541e-16 1.65739e-17 -0.0686837)
(-1.84635e-16 2.06662e-17 -0.0650409)
(-3.64453e-16 2.42512e-17 -0.0619187)
(2.00412e-16 -3.383e-17 -0.0598883)
(-2.32703e-16 6.18336e-17 -0.0593223)
(-3.12772e-15 2.03482e-15 -0.0603699)
(1.02135e-15 -8.19676e-17 -0.062966)
(1.0271e-14 -2.63125e-15 -0.066665)
(1.06029e-14 1.19107e-15 -0.0711426)
(-3.86726e-16 1.09555e-15 -0.0756947)
(-1.06838e-14 1.83993e-15 -0.0797741)
(-6.84501e-15 -9.80856e-16 -0.0828617)
(1.82105e-14 -8.23302e-15 -0.0845212)
(5.41951e-14 -1.50006e-14 -0.0844968)
(7.95943e-14 -1.17587e-14 -0.0826624)
(8.10435e-14 8.83813e-16 -0.0790062)
(5.72585e-14 9.71146e-15 -0.073777)
(3.30857e-14 1.0858e-14 -0.0676481)
(8.96737e-15 8.52709e-15 -0.0615559)
(1.23116e-14 -2.90502e-15 -0.0564816)
(2.48562e-14 4.01985e-15 -0.053342)
(-2.78844e-13 1.09538e-13 -0.0528206)
(3.69059e-13 -1.33499e-13 -0.0552278)
(3.17719e-12 -1.45008e-12 -0.0604727)
(-1.74854e-11 1.49902e-12 -0.0680511)
(-4.52132e-11 1.95003e-11 -0.0771522)
(3.72219e-10 4.26268e-11 -0.0873458)
(1.76152e-09 5.30566e-11 -0.0976922)
(3.1171e-09 4.0966e-11 -0.103938)
(2.84026e-09 -8.44199e-12 -0.101455)
(1.40995e-09 -5.90076e-11 -0.0913706)
(3.30677e-10 -5.89867e-11 -0.0782603)
(-2.88941e-11 -2.95479e-11 -0.0651704)
(-4.53939e-11 -6.14835e-12 -0.0538552)
(-3.42621e-11 9.69843e-12 -0.0458318)
(-4.71631e-11 2.70109e-12 -0.0424324)
(2.58554e-10 -8.50917e-11 -0.0450287)
(1.03298e-09 -8.69339e-11 -0.0544223)
(-9.80236e-10 1.03063e-09 -0.0657959)
(-1.6231e-08 4.88531e-09 -0.0621522)
(-5.62046e-08 1.04749e-08 -0.0236209)
(-1.14793e-07 1.20056e-08 0.0444029)
(-1.61864e-07 5.08397e-09 0.102183)
(-1.65811e-07 -5.66778e-09 0.107954)
(-1.2421e-07 -1.14872e-08 0.0593018)
(-6.62857e-08 -9.94831e-09 -0.00534177)
(-2.24224e-08 -5.1978e-09 -0.047562)
(-1.58599e-09 -1.48946e-09 -0.0581607)
(3.54684e-09 -1.48108e-10 -0.0507206)
(3.23305e-09 -1.47116e-10 -0.0423739)
(1.54728e-09 1.13124e-09 -0.0401369)
(-6.529e-09 7.55774e-09 -0.0383574)
(-3.12346e-08 2.17947e-08 -0.0258524)
(-7.6478e-08 4.05722e-08 0.00236765)
(-1.3084e-07 5.38121e-08 0.0423222)
(-1.76941e-07 5.14342e-08 0.0940131)
(-2.07895e-07 3.0585e-08 0.162882)
(-2.24781e-07 -2.93897e-09 0.237462)
(-2.21588e-07 -3.63708e-08 0.280567)
(-1.87732e-07 -5.53935e-08 0.258369)
(-1.27623e-07 -5.39698e-08 0.176165)
(-6.37006e-08 -3.81953e-08 0.0754869)
(-1.73246e-08 -1.93489e-08 -0.00195219)
(4.37098e-09 -4.57614e-09 -0.0399084)
(4.97081e-09 6.52682e-09 -0.0469856)
(-1.01334e-08 1.78512e-08 -0.0437382)
(-3.54652e-08 3.03124e-08 -0.0513764)
(-6.19434e-08 3.97246e-08 -0.0798849)
(-7.86947e-08 4.12193e-08 -0.115065)
(-8.14037e-08 3.44203e-08 -0.122117)
(-7.64526e-08 2.25091e-08 -0.0743472)
(-7.51378e-08 7.43921e-09 0.0215865)
(-8.28198e-08 -1.09026e-08 0.129377)
(-9.24431e-08 -3.03625e-08 0.205635)
(-9.05742e-08 -4.44564e-08 0.222261)
(-7.14466e-08 -4.7038e-08 0.17993)
(-4.21976e-08 -3.75877e-08 0.104784)
(-1.61756e-08 -2.07636e-08 0.0300374)
(-3.46222e-09 -2.287e-09 -0.0258187)
(-6.14009e-09 1.37244e-08 -0.0684845)
(-1.87337e-08 2.45716e-08 -0.116239)
(-3.19976e-08 2.85529e-08 -0.175124)
(-3.84493e-08 2.59171e-08 -0.22443)
(-3.64259e-08 1.93445e-08 -0.230956)
(-2.98278e-08 1.21704e-08 -0.178812)
(-2.47379e-08 5.79304e-09 -0.0825836)
(-2.55279e-08 -9.97362e-10 0.0255729)
(-3.18395e-08 -9.87646e-09 0.11553)
(-3.83752e-08 -2.00743e-08 0.168262)
(-3.89456e-08 -2.7978e-08 0.176551)
(-3.15669e-08 -2.9625e-08 0.144911)
(-1.99078e-08 -2.35318e-08 0.0868024)
(-1.0148e-08 -1.1731e-08 0.0160753)
(-6.36453e-09 1.40664e-09 -0.061122)
(-8.13779e-09 1.14845e-08 -0.143399)
(-1.17957e-08 1.61e-08 -0.221445)
(-1.37229e-08 1.55713e-08 -0.272379)
(-1.27361e-08 1.20957e-08 -0.272977)
(-1.00428e-08 8.04688e-09 -0.219025)
(-7.82404e-09 4.61833e-09 -0.129402)
(-7.82289e-09 1.52977e-09 -0.0324077)
(-1.03343e-08 -2.2174e-09 0.0499752)
(-1.389e-08 -7.10061e-09 0.107033)
(-1.61257e-08 -1.22888e-08 0.135088)
(-1.54503e-08 -1.58656e-08 0.133386)
(-1.21678e-08 -1.59758e-08 0.102804)
(-8.08634e-09 -1.2193e-08 0.0456355)
(-5.02429e-09 -5.98204e-09 -0.033876)
(-3.57957e-09 2.04259e-10 -0.126285)
(-3.13173e-09 4.42728e-09 -0.21295)
(-2.75584e-09 6.14539e-09 -0.268923)
(-2.01609e-09 5.99469e-09 -0.275718)
(-1.09849e-09 4.96998e-09 -0.233308)
(-5.13886e-10 3.74575e-09 -0.159449)
(-7.20821e-10 2.46003e-09 -0.0776393)
(-1.8053e-09 8.96242e-10 -0.00519376)
(-3.35035e-09 -1.15639e-09 0.0501446)
(-4.63191e-09 -3.59189e-09 0.0860796)
(-5.0579e-09 -5.87413e-09 0.10093)
(-4.51153e-09 -7.24084e-09 0.0914507)
(-3.33909e-09 -7.17577e-09 0.0541685)
(-2.02596e-09 -5.78279e-09 -0.0106081)
(-8.74512e-10 -3.7126e-09 -0.0939622)
(6.28067e-11 -1.71659e-09 -0.176684)
(8.48516e-10 -2.41443e-10 -0.23495)
(1.52658e-09 6.54572e-10 -0.25208)
(2.07584e-09 1.13131e-09 -0.227209)
(2.41557e-09 1.35905e-09 -0.173643)
(2.44033e-09 1.40818e-09 -0.109345)
(2.09365e-09 1.25466e-09 -0.0479895)
(1.44498e-09 8.53553e-10 0.00367265)
(6.89072e-10 2.18308e-10 0.0428779)
(5.55714e-11 -5.41392e-10 0.0668395)
(-2.9541e-10 -1.24974e-09 0.0706142)
(-3.19566e-10 -1.74787e-09 0.0484608)
(-6.43407e-11 -1.96852e-09 -0.00162744)
(3.79614e-10 -1.94478e-09 -0.0728203)
(9.09563e-10 -1.75829e-09 -0.148189)
(1.429e-09 -1.48339e-09 -0.206425)
(1.86822e-09 -1.1656e-09 -0.232123)
(2.19625e-09 -8.28423e-10 -0.222829)
(2.40863e-09 -4.8691e-10 -0.187713)
(2.50018e-09 -1.56644e-10 -0.140141)
(2.45231e-09 1.44742e-10 -0.0906246)
(2.24906e-09 4.02701e-10 -0.0446189)
(1.90123e-09 6.09499e-10 -0.00466939)
(1.45757e-09 7.57591e-10 0.026188)
(9.97617e-10 8.28982e-10 0.042334)
(6.10434e-10 7.9797e-10 0.0366302)
(3.67186e-10 6.52025e-10 0.00468117)
(2.98087e-10 4.12379e-10 -0.0497409)
(3.84612e-10 1.33499e-10 -0.113016)
(5.69753e-10 -1.20147e-10 -0.166468)
(7.83922e-10 -3.06612e-10 -0.193608)
(9.60919e-10 -3.85669e-10 -0.200678)
(1.0827e-09 -5.1602e-10 -0.140735)
(1.08374e-09 -3.20472e-10 -0.132128)
(5.7194e-17 1.85292e-15 -0.0971227)
(1.9159e-16 1.78204e-15 -0.0955119)
(2.05309e-16 8.57162e-18 -0.092147)
(2.0521e-16 1.75168e-15 -0.0875862)
(4.66838e-16 1.81957e-15 -0.0827589)
(-2.16237e-16 1.54579e-15 -0.0785949)
(3.92669e-15 -6.64533e-17 -0.0758546)
(-1.04367e-14 1.67073e-15 -0.0750337)
(-1.7285e-15 -5.98217e-16 -0.0763388)
(5.51774e-14 -8.4114e-15 -0.0796797)
(5.59967e-14 -4.84188e-15 -0.0844206)
(-3.96948e-14 5.20383e-15 -0.0902257)
(-1.34458e-13 1.06519e-14 -0.0961374)
(-1.56571e-13 3.54028e-15 -0.101477)
(-1.07175e-13 -1.40679e-14 -0.105573)
(-1.37287e-13 -2.89007e-14 -0.107857)
(-6.04775e-13 -2.98755e-14 -0.107962)
(-1.58719e-12 -1.46346e-14 -0.105701)
(-2.09854e-12 1.39926e-14 -0.10103)
(-1.5781e-12 2.58724e-14 -0.0942235)
(-8.69381e-13 2.47872e-14 -0.0861929)
(-3.48994e-13 1.12318e-14 -0.0781565)
(3.2413e-14 -8.1478e-15 -0.0713738)
(-4.26869e-13 1.43945e-13 -0.0670651)
(-8.54643e-13 -1.5547e-13 -0.0662081)
(9.46719e-12 -1.71112e-12 -0.0693114)
(-3.72435e-12 8.58661e-12 -0.0762332)
(-1.66413e-10 2.37445e-11 -0.0861057)
(2.65983e-11 -1.88634e-10 -0.0986593)
(2.66166e-09 -8.78004e-10 -0.1165)
(8.68069e-09 -1.3352e-09 -0.139689)
(1.45881e-08 -5.24471e-10 -0.157643)
(1.50566e-08 8.31279e-10 -0.15625)
(9.56433e-09 1.22073e-09 -0.135078)
(3.4926e-09 6.98661e-10 -0.107835)
(4.0551e-10 1.81357e-10 -0.0846378)
(-3.45944e-10 1.55582e-12 -0.0673424)
(-3.19958e-10 1.97493e-12 -0.0558791)
(-4.52259e-11 -1.39004e-10 -0.0514467)
(1.27525e-09 -5.29101e-10 -0.0567554)
(2.17307e-09 5.90562e-10 -0.070162)
(-9.30853e-09 8.47008e-09 -0.072376)
(-5.54715e-08 2.72972e-08 -0.0257166)
(-1.45119e-07 4.89659e-08 0.0901026)
(-2.53032e-07 5.26088e-08 0.246661)
(-3.36101e-07 2.53246e-08 0.383043)
(-3.56763e-07 -1.88757e-08 0.432738)
(-2.98759e-07 -4.95249e-08 0.358856)
(-1.88304e-07 -5.04896e-08 0.199247)
(-8.174e-08 -3.19755e-08 0.0443866)
(-1.66767e-08 -1.27503e-08 -0.0438821)
(7.15168e-09 -2.40008e-09 -0.0669403)
(9.29496e-09 8.02445e-10 -0.0599409)
(2.60087e-09 5.00448e-09 -0.0488579)
(-1.61077e-08 1.86705e-08 -0.0379127)
(-5.36861e-08 4.28374e-08 -0.0279959)
(-1.00672e-07 6.64683e-08 -0.0301591)
(-1.32431e-07 7.48206e-08 -0.0422012)
(-1.36558e-07 6.36271e-08 -0.0233471)
(-1.28813e-07 3.85639e-08 0.0694981)
(-1.3511e-07 3.7731e-09 0.222176)
(-1.59473e-07 -3.75041e-08 0.360859)
(-1.74272e-07 -7.26704e-08 0.406285)
(-1.51188e-07 -8.4688e-08 0.334169)
(-9.57571e-08 -6.98157e-08 0.192181)
(-3.7834e-08 -4.08367e-08 0.0557254)
(-2.36478e-09 -1.24381e-08 -0.0273033)
(3.54633e-09 1.03245e-08 -0.058017)
(-1.37168e-08 2.91158e-08 -0.074018)
(-4.00487e-08 4.31678e-08 -0.118407)
(-5.84702e-08 4.76283e-08 -0.20027)
(-5.81573e-08 4.06887e-08 -0.273257)
(-4.13127e-08 2.78279e-08 -0.268042)
(-2.00406e-08 1.64716e-08 -0.156478)
(-8.43731e-09 7.96889e-09 0.023233)
(-1.55131e-08 -3.37322e-09 0.199901)
(-3.80763e-08 -2.21391e-08 0.314644)
(-5.96137e-08 -4.33329e-08 0.340623)
(-6.32246e-08 -5.52545e-08 0.284313)
(-4.69666e-08 -5.04069e-08 0.17985)
(-2.39493e-08 -3.09887e-08 0.0695459)
(-9.56771e-09 -5.50212e-09 -0.0236938)
(-9.70209e-09 1.69747e-08 -0.108666)
(-1.85279e-08 3.00601e-08 -0.204829)
(-2.54052e-08 3.16809e-08 -0.303967)
(-2.38396e-08 2.468e-08 -0.359525)
(-1.47979e-08 1.49487e-08 -0.32401)
(-3.53669e-09 7.58579e-09 -0.194604)
(4.412e-09 3.92574e-09 -0.0179683)
(4.96291e-09 1.19502e-09 0.144447)
(-3.01722e-09 -4.86799e-09 0.252124)
(-1.56591e-08 -1.55993e-08 0.294196)
(-2.5304e-08 -2.70748e-08 0.277681)
(-2.64732e-08 -3.26455e-08 0.217157)
(-2.03505e-08 -2.81263e-08 0.12861)
(-1.29083e-08 -1.50292e-08 0.0229998)
(-9.00303e-09 5.65233e-10 -0.0962727)
(-8.68167e-09 1.21237e-08 -0.222466)
(-8.74967e-09 1.64635e-08 -0.329051)
(-6.7059e-09 1.46917e-08 -0.373347)
(-2.59813e-09 1.02471e-08 -0.326673)
(1.93669e-09 6.21098e-09 -0.200397)
(5.09967e-09 3.80688e-09 -0.0405626)
(5.49118e-09 2.3037e-09 0.101608)
(2.50291e-09 -9.53934e-11 0.19607)
(-2.93031e-09 -4.68231e-09 0.238796)
(-8.27538e-09 -1.08376e-08 0.239214)
(-1.1025e-08 -1.59873e-08 0.207039)
(-1.05381e-08 -1.72736e-08 0.146159)
(-8.203e-09 -1.374e-08 0.0561629)
(-5.84435e-09 -7.10933e-09 -0.0605598)
(-4.20636e-09 -4.57996e-10 -0.188534)
(-2.93261e-09 3.90476e-09 -0.294348)
(-1.49796e-09 5.50818e-09 -0.338804)
(1.92935e-10 5.25578e-09 -0.302071)
(1.86094e-09 4.34235e-09 -0.198626)
(3.07401e-09 3.49577e-09 -0.0679827)
(3.37224e-09 2.76155e-09 0.0493037)
(2.4667e-09 1.69708e-09 0.130538)
(5.6522e-10 -1.67546e-10 0.173295)
(-1.56304e-09 -2.8302e-09 0.185328)
(-3.03266e-09 -5.61086e-09 0.173099)
(-3.40523e-09 -7.47044e-09 0.135941)
(-2.86532e-09 -7.69096e-09 0.0688134)
(-1.90693e-09 -6.36018e-09 -0.028306)
(-9.23521e-10 -4.23379e-09 -0.140432)
(-7.22257e-11 -2.16119e-09 -0.236328)
(6.37034e-10 -6.24926e-10 -0.282042)
(1.24449e-09 3.23299e-10 -0.261554)
(1.7906e-09 8.67496e-10 -0.186568)
(2.26289e-09 1.20812e-09 -0.0876208)
(2.55326e-09 1.42857e-09 0.00452611)
(2.50506e-09 1.47002e-09 0.0725952)
(2.05643e-09 1.21267e-09 0.114125)
(1.33401e-09 6.07589e-10 0.133949)
(5.99726e-10 -2.41762e-10 0.135255)
(1.04214e-10 -1.11258e-09 0.114905)
(-3.04274e-11 -1.78227e-09 0.066215)
(1.70899e-10 -2.13626e-09 -0.0121448)
(5.87547e-10 -2.18558e-09 -0.107337)
(1.06618e-09 -2.01039e-09 -0.192248)
(1.47871e-09 -1.70067e-09 -0.237891)
(1.76563e-09 -1.32839e-09 -0.230345)