/*--------------------------------*- C++ -*----------------------------------*\
  =========                 |
  \\      /  F ield         | OpenFOAM: The Open Source CFD Toolbox
   \\    /   O peration     | Website:  https://openfoam.org
    \\  /    A nd           | Version:  11
     \\/     M anipulation  |
\*---------------------------------------------------------------------------*/
FoamFile
{
    format      ascii;
    class       volVectorField;
    location    "12.235793";
    object      U;
}
// * * * * * * * * * * * * * * * * * * * * * * * * * * * * * * * * * * * * * //

dimensions      [0 1 -1 0 0 0 0];

internalField   nonuniform List<vector> 
7132
(
(1.00014 -0.000260339 2.32189e-18)
(1.00201 -0.000762732 8.49087e-18)
(1.00612 -0.00125935 9.65865e-18)
(1.01214 -0.00175466 1.25069e-17)
(1.02014 -0.00224801 1.63329e-17)
(1.03012 -0.0027189 1.76867e-17)
(1.04192 -0.00312879 1.76258e-17)
(1.05521 -0.0034086 1.70916e-17)
(1.06928 -0.00348469 1.62087e-17)
(1.08321 -0.0033044 1.48905e-17)
(1.09582 -0.002854 1.32574e-17)
(1.10617 -0.00228163 1.18955e-17)
(1.11409 -0.00170227 1.07059e-17)
(1.11979 -0.00122338 9.83968e-18)
(1.12386 -0.000857897 4.67976e-18)
(1.12667 -0.000501456 -3.46704e-19)
(1.12798 1.13734e-05 -4.47591e-18)
(1.12678 0.00082069 -4.05789e-18)
(1.12166 0.00190468 -5.65895e-18)
(1.11176 0.00306308 -6.4022e-18)
(1.09728 0.00402378 -4.83285e-18)
(1.07957 0.00455691 -3.64156e-18)
(1.06072 0.00452645 -3.10833e-18)
(1.04318 0.00388852 -1.7471e-18)
(1.02939 0.00267574 -6.03751e-19)
(1.02155 0.000996559 -6.76122e-18)
(1.02127 -0.000945449 -3.00938e-17)
(1.02911 -0.0028143 -1.1986e-17)
(1.04398 -0.00414582 1.15429e-16)
(1.06268 -0.00448025 1.97e-16)
(1.08035 -0.00360545 1.53129e-16)
(1.09204 -0.00173365 8.48654e-17)
(1.09459 0.000579273 2.49558e-17)
(1.08754 0.00271338 4.30514e-17)
(1.07279 0.00423552 1.18074e-16)
(1.0534 0.00496117 -4.02958e-16)
(1.03275 0.00487417 -1.6028e-15)
(1.01401 0.00402292 2.96732e-15)
(1.00013 0.00246739 2.32639e-14)
(0.993848 0.000301086 2.17751e-14)
(0.997402 -0.00226212 -1.74358e-13)
(1.01185 -0.00477903 -8.13081e-13)
(1.03586 -0.00657926 -1.80665e-12)
(1.06502 -0.00698985 -2.51536e-12)
(1.09249 -0.00570313 -2.405e-12)
(1.11134 -0.00301834 -1.65667e-12)
(1.11713 0.000269866 -8.18043e-13)
(1.10936 0.00326429 -2.48296e-13)
(1.09088 0.00534873 6.1168e-15)
(1.06622 0.00631565 7.39537e-14)
(1.03991 0.00624237 4.30155e-14)
(1.01581 0.00529163 -1.35118e-13)
(0.997094 0.00358098 -3.34457e-13)
(0.986668 0.00118134 4.43356e-13)
(0.987212 -0.00176692 4.34239e-12)
(1.00057 -0.00489042 1.37428e-11)
(1.02643 -0.00751857 2.85729e-11)
(1.06118 -0.00884162 4.39508e-11)
(1.09792 -0.00826467 5.2513e-11)
(1.12816 -0.00575324 5.01849e-11)
(1.1447 -0.00193406 3.85201e-11)
(1.14409 0.00214658 2.26267e-11)
(1.12759 0.00547339 8.98139e-12)
(1.10001 0.00745271 1.11173e-12)
(1.06746 0.0080076 -1.83421e-12)
(1.0354 0.00739385 -2.45296e-12)
(1.00779 0.00592371 -8.52173e-13)
(0.987487 0.00378475 7.91754e-12)
(0.976945 0.00104693 3.23535e-11)
(0.978516 -0.00216594 7.94953e-11)
(0.993754 -0.0054801 1.4957e-10)
(1.02206 -0.0082361 2.33241e-10)
(1.05965 -0.00968241 3.13345e-10)
(1.09985 -0.0092924 3.7028e-10)
(1.1346 -0.00700885 3.88541e-10)
(1.1567 -0.00329468 3.62056e-10)
(1.16175 0.00100562 2.96293e-10)
(1.14927 0.00491853 2.06146e-10)
(1.12271 0.00764242 1.13167e-10)
(1.08811 0.00878651 3.92544e-11)
(1.05212 0.00842766 -1.80006e-12)
(1.02022 0.00692564 -6.75679e-12)
(0.996167 0.00462059 2.16228e-11)
(0.982692 0.00168135 7.89177e-11)
(0.982252 -0.00175104 1.58918e-10)
(0.996522 -0.00530359 2.52005e-10)
(1.02493 -0.00830912 3.46256e-10)
(1.06363 -0.010033 4.31047e-10)
(1.106 -0.0100145 4.99807e-10)
(1.14444 -0.00827878 5.4986e-10)
(1.17258 -0.00531096 5.80025e-10)
(1.18689 -0.00184576 5.87787e-10)
(1.18702 0.00138752 5.67356e-10)
(1.17532 0.00384628 5.10263e-10)
(1.15578 0.00521946 4.13004e-10)
(1.13319 0.00537644 2.86784e-10)
(1.11251 0.00432473 1.58689e-10)
(1.09842 0.00220785 5.96286e-11)
(1.09476 -0.000681979 8.26051e-12)
(1.10394 -0.00390337 4.62741e-12)
(1.12632 -0.00689958 3.60395e-11)
(1.15983 -0.00908012 8.68027e-11)
(1.19997 -0.0099545 1.4438e-10)
(1.24063 -0.00927132 2.009e-10)
(1.27523 -0.00709812 2.52282e-10)
(1.29821 -0.00381248 2.96996e-10)
(1.30613 -1.50909e-05 3.35302e-10)
(1.29832 0.00360526 3.6857e-10)
(1.2769 0.00643712 3.98797e-10)
(1.24614 0.00809143 4.28301e-10)
(1.21132 0.00847847 4.57005e-10)
(1.17743 0.00779534 4.77965e-10)
(1.14814 0.00641726 4.76539e-10)
(1.1254 0.00472712 4.37824e-10)
(1.1098 0.00297223 3.58315e-10)
(1.10127 0.00123763 2.51499e-10)
(1.0997 -0.000462456 1.42108e-10)
(1.10492 -0.00206542 5.38991e-11)
(1.11629 -0.00340735 1.49568e-13)
(1.13231 -0.00425614 -1.84224e-11)
(1.15049 -0.00439349 -9.99939e-12)
(1.16761 -0.00369689 1.35394e-11)
(1.18021 -0.00219567 4.05931e-11)
(1.18534 -9.40732e-05 6.1998e-11)
(1.18117 0.00224635 7.19712e-11)
(1.16757 0.0043785 6.86254e-11)
(1.14629 0.00589175 5.42152e-11)
(1.12051 0.00654052 3.43654e-11)
(1.09394 0.00631542 1.57076e-11)
(1.06989 0.00541702 2.88049e-12)
(1.05049 0.00415192 -3.08037e-12)
(1.03657 0.00281456 -4.01604e-12)
(1.0279 0.00161236 -2.65036e-12)
(1.02364 0.000650569 -1.00936e-12)
(1.02271 -4.35573e-05 3.3438e-14)
(1.02404 -0.000486381 4.26617e-13)
(1.02668 -0.000711439 4.38157e-13)
(1.02981 -0.000755627 3.27327e-13)
(1.0328 -0.000655601 2.3403e-13)
(1.03513 -0.00044918 1.94427e-13)
(1.03645 -0.000176986 1.92306e-13)
(1.03659 0.000118511 2.00055e-13)
(1.03553 0.000396911 1.98764e-13)
(1.03341 0.000625129 1.82303e-13)
(1.03051 0.00078154 1.53699e-13)
(1.02713 0.000857563 1.1988e-13)
(1.02361 0.000856596 8.76425e-14)
(1.02024 0.000791025 6.16267e-14)
(1.01725 0.000678667 4.39155e-14)
(1.01478 0.000539129 3.45842e-14)
(1.01292 0.00039129 3.25285e-14)
(1.01164 0.000250768 3.61744e-14)
(1.01091 0.000129622 4.39205e-14)
(1.0106 3.4406e-05 5.43243e-14)
(1.01064 -3.11172e-05 6.61441e-14)
(1.01085 -6.90164e-05 7.83123e-14)
(1.01122 -8.09903e-05 8.99342e-14)
(1.01149 -7.27476e-05 1.002e-13)
(1.01184 -5.42076e-05 1.08442e-13)
(1.01189 -1.19472e-06 1.15903e-13)
(1.00014 -0.000779688 2.66037e-20)
(1.002 -0.00228528 4.1907e-19)
(1.0061 -0.00377483 9.38985e-19)
(1.0121 -0.00526402 1.53834e-18)
(1.02011 -0.00675163 2.25313e-18)
(1.03014 -0.00817682 2.97163e-18)
(1.04205 -0.0094235 3.51034e-18)
(1.05552 -0.0102797 4.3408e-18)
(1.06985 -0.0105186 5.83572e-18)
(1.08407 -0.00997176 5.00359e-18)
(1.09689 -0.00859231 4.54771e-18)
(1.10732 -0.00684515 8.4001e-18)
(1.11519 -0.00508544 7.37106e-18)
(1.12078 -0.00365189 3.7614e-18)
(1.12478 -0.00258835 -1.40688e-18)
(1.12765 -0.00157114 -4.5396e-18)
(1.12917 -8.10258e-05 -3.83015e-18)
(1.12825 0.00233184 -9.54811e-19)
(1.12332 0.0056094 2.0017e-18)
(1.11336 0.00913583 3.96574e-18)
(1.0986 0.0120743 5.07155e-18)
(1.08041 0.0137225 4.96795e-18)
(1.06099 0.0136674 2.78918e-18)
(1.04285 0.0117746 1.06266e-17)
(1.02852 0.00813635 2.39773e-17)
(1.02027 0.00306802 -1.85324e-16)
(1.01985 -0.00282893 -5.28217e-16)
(1.02795 -0.00854268 2.97257e-15)
(1.04356 -0.0126491 1.47285e-14)
(1.06335 -0.0137182 2.47358e-14)
(1.08214 -0.0110777 2.07595e-14)
(1.09459 -0.00537247 9.66173e-15)
(1.09733 0.00168725 2.40036e-15)
(1.08997 0.00819717 3.14921e-16)
(1.07458 0.0128363 2.22674e-16)
(1.05443 0.0150552 -3.997e-15)
(1.033 0.0148192 -1.05691e-14)
(1.01349 0.0122815 3.10824e-14)
(0.998899 0.00761402 1.92578e-13)
(0.992031 0.00107298 1.21697e-13)
(0.995349 -0.00672557 -1.95728e-12)
(1.01016 -0.0144449 -8.76851e-12)
(1.03525 -0.0200181 -1.94544e-11)
(1.06599 -0.0213481 -2.69506e-11)
(1.09502 -0.0174651 -2.50003e-11)
(1.11488 -0.00928395 -1.59715e-11)
(1.12087 0.000749335 -7.04542e-12)
(1.11257 0.00987932 -1.81085e-12)
(1.09316 0.0162222 2.32985e-13)
(1.06748 0.019161 6.07242e-13)
(1.04022 0.0189545 1.80368e-13)
(1.01526 0.016113 -1.0885e-12)
(0.995757 0.0109888 -1.87386e-12)
(0.984611 0.00376764 5.5249e-12)
(0.984635 -0.00516741 3.84806e-11)
(0.997887 -0.0147067 1.16566e-10)
(1.02428 -0.0227961 2.37568e-10)
(1.06028 -0.026927 3.59065e-10)
(1.09878 -0.025243 4.18476e-10)
(1.13079 -0.0176253 3.83149e-10)
(1.14848 -0.00599751 2.7715e-10)
(1.14808 0.0064407 1.55218e-10)
(1.13091 0.0165817 6.09586e-11)
(1.10217 0.0226044 9.36943e-12)
(1.06841 0.0242854 -8.77612e-12)
(1.0353 0.0224336 -1.03512e-11)
(1.00683 0.0180276 -3.53536e-12)
(0.985675 0.01164 1.9723e-11)
(0.974211 0.0034498 7.8783e-11)
(0.974923 -0.00622133 1.8924e-10)
(0.989685 -0.0162772 3.46774e-10)
(1.01817 -0.0247188 5.23805e-10)
(1.0566 -0.0292383 6.82145e-10)
(1.09799 -0.0282026 7.86894e-10)
(1.13393 -0.0214121 8.11673e-10)
(1.15701 -0.0102512 7.43923e-10)
(1.16273 0.00273845 5.95368e-10)
(1.15055 0.0146152 4.02761e-10)
(1.12387 0.0229366 2.14835e-10)
(1.08878 0.0264932 7.30604e-11)
(1.05207 0.0255001 -2.9903e-12)
(1.01933 0.0210441 -1.43275e-11)
(0.99441 0.0141469 2.95856e-11)
(0.980246 0.00528776 1.18743e-10)
(0.979656 -0.00514631 2.4036e-10)
(0.994657 -0.0160223 3.74621e-10)
(1.02469 -0.0252513 4.98668e-10)
(1.06544 -0.0305215 5.96372e-10)
(1.10961 -0.0304012 6.63666e-10)
(1.149 -0.0250067 7.05254e-10)
(1.17701 -0.0158905 7.26423e-10)
(1.19023 -0.00534394 7.26064e-10)
(1.18876 0.00441511 6.95203e-10)
(1.17541 0.0117743 6.22062e-10)
(1.15453 0.0158358 5.02209e-10)
(1.13106 0.0162469 3.49128e-10)
(1.10993 0.0130514 1.94761e-10)
(1.09573 0.00666705 7.56186e-11)
(1.09235 -0.00207103 1.46759e-11)
(1.10236 -0.0118708 1.34817e-11)
(1.1263 -0.0210442 5.74754e-11)
(1.16199 -0.027755 1.26516e-10)
(1.2046 -0.0304578 2.02865e-10)
(1.24749 -0.0283589 2.74441e-10)
(1.28369 -0.0216756 3.34781e-10)
(1.30738 -0.0115997 3.81607e-10)
(1.3151 4.40301e-06 4.15443e-10)
(1.30632 0.0110412 4.38913e-10)
(1.28338 0.0196626 4.5639e-10)
(1.25081 0.0246929 4.72919e-10)
(1.21415 0.0258654 4.90755e-10)
(1.17859 0.0237837 5.04176e-10)
(1.14791 0.0195888 4.98208e-10)
(1.12411 0.0144427 4.56386e-10)
(1.10779 0.00909687 3.73588e-10)
(1.09891 0.00381319 2.62955e-10)
(1.09731 -0.00135984 1.50661e-10)
(1.10278 -0.00622716 6.3127e-11)
(1.11454 -0.0102892 1.60088e-11)
(1.13097 -0.0128484 1.038e-11)
(1.14948 -0.0132585 3.54851e-11)
(1.16681 -0.0111656 7.45805e-11)
(1.17957 -0.00666731 1.10942e-10)
(1.18483 -0.000372663 1.32392e-10)
(1.18079 0.0066484 1.33414e-10)
(1.16732 0.0130641 1.15147e-10)
(1.1461 0.0176396 8.41875e-11)
(1.12031 0.0196269 4.99718e-11)
(1.09367 0.0189849 2.12184e-11)
(1.06951 0.0163065 2.80394e-12)
(1.05003 0.0125097 -5.23495e-12)
(1.03608 0.00848178 -6.17226e-12)
(1.02747 0.00485217 -3.9854e-12)
(1.02334 0.00194379 -1.48967e-12)
(1.02259 -0.000156819 1.15073e-13)
(1.02413 -0.00149672 7.58377e-13)
(1.02698 -0.00217657 8.19572e-13)
(1.03031 -0.00230831 6.76783e-13)
(1.03345 -0.00200336 5.43131e-13)
(1.03589 -0.00137638 4.79364e-13)
(1.03728 -0.000550267 4.64385e-13)
(1.03742 0.000346518 4.57158e-13)
(1.03634 0.00119159 4.30205e-13)
(1.03416 0.00188451 3.77122e-13)
(1.03118 0.0023596 3.06295e-13)
(1.02772 0.00259076 2.31547e-13)
(1.02412 0.00258834 1.65075e-13)
(1.02068 0.00238996 1.14229e-13)
(1.01764 0.00204972 8.1372e-14)
(1.01514 0.00162714 6.53377e-14)
(1.01327 0.00117947 6.31861e-14)
(1.012 0.000754102 7.15084e-14)
(1.01129 0.000387553 8.71211e-14)
(1.01101 9.96833e-05 1.07267e-13)
(1.01108 -9.82006e-05 1.29595e-13)
(1.01132 -0.000212398 1.52087e-13)
(1.0117 -0.000248152 1.7307e-13)
(1.012 -0.000222785 1.90965e-13)
(1.01236 -0.00016659 2.04972e-13)
(1.01242 -5.73159e-06 2.1569e-13)
(1.00014 -0.00129543 -2.86883e-22)
(1.00198 -0.00379758 5.82746e-21)
(1.00604 -0.00627844 5.42812e-21)
(1.01201 -0.00876975 2.06783e-20)
(1.02003 -0.0112739 -6.77487e-20)
(1.03014 -0.0136923 -1.08447e-19)
(1.04226 -0.0158306 7.31664e-20)
(1.05612 -0.0173195 -8.16563e-19)
(1.07097 -0.0177607 -1.84551e-18)
(1.0858 -0.0168346 8.72957e-19)
(1.09908 -0.0144421 4.82005e-18)
(1.10968 -0.0114257 4.60451e-19)
(1.11747 -0.00840773 -1.6897e-17)
(1.12282 -0.00600065 -3.74193e-17)
(1.12666 -0.0042908 -4.50928e-17)
(1.12964 -0.00270286 -3.099e-17)
(1.13159 -0.000299932 -4.37862e-18)
(1.13123 0.00374684 1.47808e-17)
(1.12663 0.00935366 2.05416e-17)
(1.11653 0.0154309 1.85118e-17)
(1.1011 0.0205046 1.554e-17)
(1.0819 0.0233602 5.76784e-18)
(1.0613 0.023304 -4.09297e-18)
(1.04198 0.0201199 8.41758e-17)
(1.02662 0.0139614 -1.98664e-17)
(1.01767 0.00533542 -1.6097e-15)
(1.01708 -0.00477834 -6.65172e-16)
(1.02585 -0.0146712 2.1025e-14)
(1.04307 -0.0218572 7.19245e-14)
(1.06516 -0.0237841 1.26795e-13)
(1.0862 -0.0192261 1.29818e-13)
(1.10007 -0.00931728 7.46286e-14)
(1.10299 0.0029069 2.3438e-14)
(1.09473 0.0141016 2.9229e-15)
(1.07783 0.022007 -2.78838e-15)
(1.05601 0.0257496 -2.34419e-14)
(1.03297 0.0253401 -2.73678e-14)
(1.012 0.0210684 1.97232e-13)
(0.996118 0.013198 6.58602e-13)
(0.988295 0.00208343 -4.97577e-13)
(0.991396 -0.011315 -8.24773e-12)
(1.00724 -0.0247274 -2.54677e-11)
(1.03481 -0.0345061 -4.69072e-11)
(1.06894 -0.0368938 -6.26144e-11)
(1.10114 -0.0301511 -6.25757e-11)
(1.1228 -0.0159196 -4.51252e-11)
(1.12877 0.00145445 -2.30942e-11)
(1.11895 0.0171357 -7.57889e-12)
(1.09728 0.0278961 4.25052e-14)
(1.06931 0.0327776 2.08739e-12)
(1.04009 0.0323398 3.39176e-13)
(1.01352 0.0275189 -4.73419e-12)
(0.99262 0.0189064 -4.52512e-12)
(0.980202 0.00675017 3.52596e-11)
(0.979133 -0.00838893 1.76357e-10)
(0.991776 -0.0247001 4.64348e-10)
(1.01856 -0.0387212 8.63055e-10)
(1.05638 -0.046116 1.24361e-09)
(1.098 -0.0435383 1.4446e-09)
(1.1336 -0.0305952 1.36299e-09)
(1.15411 -0.01055 1.03281e-09)
(1.1547 0.0109642 6.11867e-10)
(1.13657 0.0284412 2.60432e-10)
(1.10564 0.0386954 5.31858e-11)
(1.06943 0.0414252 -2.67875e-11)
(1.03427 0.0381722 -3.57883e-11)
(1.00415 0.0307335 -1.14046e-11)
(0.981479 0.0200946 5.17904e-11)
(0.968517 0.00643352 1.83309e-10)
(0.968151 -0.00988628 3.93952e-10)
(0.982979 -0.0270932 6.49243e-10)
(1.01302 -0.0417017 8.90528e-10)
(1.054 -0.0496136 1.07771e-09)
(1.09794 -0.0479743 1.20064e-09)
(1.1356 -0.0365125 1.25067e-09)
(1.15939 -0.0176641 1.19781e-09)
(1.1651 0.00427009 1.01515e-09)
(1.15247 0.0243685 7.26618e-10)
(1.12499 0.0385237 4.10146e-10)
(1.08882 0.0446679 1.52884e-10)
(1.0508 0.043138 6.25703e-12)
(1.01664 0.0357491 -2.30048e-11)
(0.990431 0.0241628 4.63141e-11)
(0.97561 0.00906795 1.86092e-10)
(0.975715 -0.0089414 3.60586e-10)
(0.993175 -0.027809 5.2877e-10)
(1.02701 -0.0437104 6.58272e-10)
(1.0718 -0.0525157 7.3814e-10)
(1.11903 -0.0518064 7.77796e-10)
(1.15974 -0.0419718 7.96222e-10)
(1.18706 -0.0259007 8.09218e-10)
(1.19784 -0.00768944 8.17897e-10)
(1.19283 0.00882126 8.04512e-10)
(1.17576 0.0209651 7.43053e-10)
(1.15175 0.0273855 6.18022e-10)
(1.12616 0.0276665 4.41672e-10)
(1.10395 0.0219803 2.54853e-10)
(1.08965 0.0109972 1.07306e-10)
(1.08724 -0.00399037 3.21278e-11)
(1.09954 -0.0208686 3.33556e-11)
(1.12708 -0.0367096 9.18081e-11)
(1.16719 -0.0482395 1.79816e-10)
(1.21415 -0.0527219 2.73397e-10)
(1.2605 -0.0488244 3.5733e-10)
(1.29878 -0.0370268 4.24651e-10)
(1.32307 -0.0194824 4.73792e-10)
(1.33001 0.000554498 5.05636e-10)
(1.31929 0.0194936 5.22677e-10)
(1.29355 0.0341986 5.29929e-10)
(1.25773 0.0426958 5.34289e-10)
(1.21779 0.0445744 5.40668e-10)
(1.17927 0.0409035 5.45349e-10)
(1.14617 0.0336475 5.33253e-10)
(1.12056 0.024782 4.85915e-10)
(1.10309 0.0155757 3.96525e-10)
(1.09373 0.00647921 2.79241e-10)
(1.09229 -0.00239525 1.64332e-10)
(1.09837 -0.0106782 8.32552e-11)
(1.11095 -0.0175066 5.43281e-11)
(1.12812 -0.0217285 7.67378e-11)
(1.1471 -0.0223171 1.33628e-10)
(1.16465 -0.0187421 2.00087e-10)
(1.17748 -0.0111989 2.5175e-10)
(1.18281 -0.000696006 2.71843e-10)
(1.17891 0.011012 2.55103e-10)
(1.16561 0.021728 2.07747e-10)
(1.14454 0.0293952 1.44261e-10)
(1.1188 0.0327501 8.14649e-11)
(1.09215 0.0317039 3.24009e-11)
(1.06796 0.0272327 2.63549e-12)
(1.0485 0.0208667 -9.67827e-12)
(1.03469 0.0140958 -1.06559e-11)
(1.02634 0.00798524 -6.79472e-12)
(1.02261 0.00308846 -2.5099e-12)
(1.02233 -0.000441214 3.21738e-13)
(1.02436 -0.00268025 1.56814e-12)
(1.02767 -0.00379973 1.81332e-12)
(1.03139 -0.00399164 1.66354e-12)
(1.03483 -0.00344692 1.47627e-12)
(1.03747 -0.00236103 1.3638e-12)
(1.03895 -0.000942778 1.29992e-12)
(1.03908 0.0005897 1.22296e-12)
(1.0379 0.0020286 1.09586e-12)
(1.03557 0.00320377 9.19341e-13)
(1.0324 0.00400468 7.1878e-13)
(1.02876 0.00438867 5.25711e-13)
(1.02499 0.00437517 3.6454e-13)
(1.02143 0.00402976 2.47472e-13)
(1.0183 0.0034455 1.75746e-13)
(1.01577 0.00272414 1.43717e-13)
(1.0139 0.00196309 1.42951e-13)
(1.01267 0.00124261 1.64936e-13)
(1.01201 0.000624214 2.02238e-13)
(1.0118 0.000140884 2.4863e-13)
(1.01194 -0.000188885 2.98854e-13)
(1.01224 -0.000376865 3.48373e-13)
(1.01268 -0.000431879 3.93473e-13)
(1.01301 -0.00038515 4.30518e-13)
(1.0134 -0.000286143 4.58658e-13)
(1.01346 -1.23287e-05 4.75755e-13)
(1.00013 -0.00180476 -3.33524e-20)
(1.00195 -0.00529083 -5.44791e-19)
(1.00594 -0.00875948 -1.08861e-18)
(1.01185 -0.0122654 -1.70518e-18)
(1.01987 -0.0158228 -3.05512e-18)
(1.03009 -0.0193003 -2.73482e-18)
(1.04253 -0.0224253 -5.53927e-18)
(1.05696 -0.0246464 -6.91554e-18)
(1.07263 -0.0253635 -3.45811e-18)
(1.08842 -0.0240383 -1.69502e-18)
(1.10243 -0.0204854 -2.92626e-18)
(1.11328 -0.0160367 -2.02411e-17)
(1.12092 -0.0116321 -3.59496e-17)
(1.12588 -0.00824113 9.38992e-17)
(1.12943 -0.00601433 4.20236e-16)
(1.13258 -0.00406198 7.2899e-16)
(1.13522 -0.000906367 7.80611e-16)
(1.13577 0.00480187 6.13789e-16)
(1.13172 0.0129671 3.56003e-16)
(1.12138 0.0219118 1.36896e-16)
(1.10492 0.0293954 3.09232e-18)
(1.08412 0.0336263 -9.58409e-17)
(1.06168 0.033626 3.47891e-17)
(1.04056 0.0291108 4.27239e-17)
(1.02363 0.0202933 -3.10671e-15)
(1.01357 0.00784431 4.00464e-15)
(1.01271 -0.00691108 4.33845e-14)
(1.02248 -0.0215377 -1.42053e-13)
(1.04223 -0.0323158 -9.0712e-13)
(1.06795 -0.0352992 -1.54175e-12)
(1.09258 -0.0285369 -1.18038e-12)
(1.10867 -0.0137529 -4.26612e-13)
(1.11179 0.00437984 -3.64465e-14)
(1.102 0.0207916 3.80051e-14)
(1.08266 0.032196 -3.16931e-15)
(1.05821 0.0374784 -6.06699e-14)
(1.03273 0.0368183 1.24648e-13)
(1.00956 0.0307083 5.5684e-13)
(0.991735 0.0194716 -9.96959e-13)
(0.982467 0.00344368 -5.9244e-12)
(0.985175 -0.0161843 5.50696e-12)
(1.00237 -0.0361463 8.43442e-11)
(1.0334 -0.0508801 2.34391e-10)
(1.07265 -0.0545321 3.42733e-10)
(1.11006 -0.0443983 3.04852e-10)
(1.13495 -0.0230773 1.69922e-10)
(1.14107 0.0027065 5.26272e-11)
(1.12878 0.025644 -7.48802e-13)
(1.10339 0.0410433 -8.22107e-12)
(1.07175 0.0477462 -2.38313e-12)
(1.03952 0.0468396 -3.30745e-12)
(1.01059 0.0398463 -1.27755e-11)
(0.987621 0.0276498 4.37725e-12)
(0.973049 0.0105217 1.3956e-10)
(0.969713 -0.0109348 4.94433e-10)
(0.980708 -0.0344052 1.06591e-09)
(1.00761 -0.0551018 1.71426e-09)
(1.04783 -0.0666699 2.27501e-09)
(1.09358 -0.0638793 2.62495e-09)
(1.13395 -0.0456761 2.63547e-09)
(1.15863 -0.0165178 2.2193e-09)
(1.16154 0.0152393 1.49042e-09)
(1.14316 0.0411213 7.39825e-10)
(1.10988 0.0561598 2.1255e-10)
(1.07048 0.0599546 -3.42401e-11)
(1.03235 0.0550677 -8.40904e-11)
(0.999759 0.0444182 -2.82122e-11)
(0.974893 0.0294573 1.08662e-10)
(0.960122 0.0101259 3.36336e-10)
(0.95923 -0.0134353 6.26841e-10)
(0.975767 -0.0387015 9.01846e-10)
(1.0096 -0.0602405 1.09554e-09)
(1.05511 -0.0717197 1.20564e-09)
(1.10267 -0.069016 1.27796e-09)
(1.14202 -0.0521304 1.34762e-09)
(1.1655 -0.02497 1.38358e-09)
(1.16963 0.00623547 1.29628e-09)
(1.15503 0.0346857 1.03255e-09)
(1.12568 0.0547561 6.49819e-10)
(1.08775 0.0635749 2.8082e-10)
(1.04799 0.0615745 4.20496e-11)
(1.0121 0.0512198 -2.11259e-11)
(0.984527 0.0346625 7.09355e-11)
(0.969547 0.0126565 2.59462e-10)
(0.971582 -0.0139119 4.71454e-10)
(0.99312 -0.0416569 6.4499e-10)
(1.03208 -0.06457 7.51213e-10)
(1.08149 -0.0765575 7.95526e-10)
(1.13169 -0.0743922 8.01031e-10)
(1.17324 -0.0590223 7.93489e-10)
(1.19932 -0.0349216 7.94342e-10)
(1.207 -0.00820788 8.11883e-10)
(1.19756 0.0154687 8.29047e-10)
(1.17558 0.0323155 8.05694e-10)
(1.14719 0.040627 7.05379e-10)
(1.11842 0.040138 5.28621e-10)
(1.09453 0.0312991 3.21817e-10)
(1.08016 0.0150247 1.51136e-10)
(1.07953 -0.00700604 6.36452e-11)
(1.0956 -0.0317831 6.68059e-11)
(1.1284 -0.0548715 1.36019e-10)
(1.17405 -0.0713046 2.36121e-10)
(1.22554 -0.0771334 3.38492e-10)
(1.27473 -0.0706897 4.26839e-10)
(1.31416 -0.0529615 4.95107e-10)
(1.33826 -0.0272004 5.43124e-10)
(1.344 0.00191924 5.72975e-10)
(1.33119 0.0292927 5.87372e-10)
(1.30258 0.0504444 5.90514e-10)
(1.26336 0.0625568 5.8906e-10)
(1.21985 0.0650742 5.89108e-10)
(1.17798 0.0595826 5.88396e-10)
(1.14203 0.0489381 5.71538e-10)
(1.11428 0.035978 5.18077e-10)
(1.09548 0.0225135 4.20625e-10)
(1.08565 0.00921673 2.97052e-10)
(1.08452 -0.003677 1.84501e-10)
(1.09146 -0.0155558 1.19577e-10)
(1.10507 -0.025163 1.19697e-10)
(1.12307 -0.0309277 1.77583e-10)
(1.14249 -0.0315298 2.68656e-10)
(1.16006 -0.026356 3.62234e-10)
(1.17274 -0.0157451 4.29653e-10)
(1.17801 -0.00108152 4.49881e-10)
(1.1743 0.0152565 4.15165e-10)
(1.16142 0.0302547 3.34379e-10)
(1.14082 0.0410427 2.29956e-10)
(1.11549 0.0458142 1.28507e-10)
(1.08911 0.0443964 5.03009e-11)
(1.06512 0.0381263 3.31639e-12)
(1.04588 0.0291449 -1.60293e-11)
(1.0324 0.0195596 -1.75458e-11)
(1.02454 0.0108939 -1.13357e-11)
(1.02144 0.00395215 -4.24939e-12)
(1.02189 -0.00103333 7.07148e-13)
(1.02467 -0.00416595 3.19223e-12)
(1.02868 -0.00569227 4.00982e-12)
(1.03299 -0.00589251 4.05822e-12)
(1.03689 -0.00504489 3.8925e-12)
(1.03982 -0.00343235 3.70604e-12)
(1.04142 -0.00135587 3.48385e-12)
(1.04153 0.000870456 3.1611e-12)
(1.04019 0.00294772 2.71726e-12)
(1.03762 0.0046322 2.19123e-12)
(1.03417 0.00576767 1.65332e-12)
(1.03023 0.006297 1.17161e-12)
(1.02622 0.00625283 7.9063e-13)
(1.02247 0.0057337 5.26252e-13)
(1.01923 0.00487642 3.71933e-13)
(1.01665 0.00382895 3.08939e-13)
(1.0148 0.00273178 3.15185e-13)
(1.01363 0.00169975 3.70358e-13)
(1.01306 0.000820013 4.57566e-13)
(1.01296 0.000138044 5.62962e-13)
(1.0132 -0.0003212 6.74893e-13)
(1.0136 -0.000577395 7.83255e-13)
(1.01412 -0.000642771 8.79834e-13)
(1.01451 -0.000567117 9.5644e-13)
(1.01492 -0.00041517 1.01289e-12)
(1.015 -2.11864e-05 1.03844e-12)
(1.00013 -0.00230359 -2.37502e-18)
(1.0019 -0.00675339 -8.28719e-18)
(1.00579 -0.011202 -7.64778e-18)
(1.0116 -0.0157378 -1.03049e-17)
(1.01958 -0.0203985 -8.86033e-18)
(1.02993 -0.0250295 -1.11854e-17)
(1.04277 -0.0292814 -2.43533e-17)
(1.05798 -0.032387 1.3143e-17)
(1.0748 -0.0335001 -7.93472e-18)
(1.09198 -0.0317488 -2.97757e-17)
(1.10702 -0.0268053 1.43756e-16)
(1.1182 -0.0206689 4.48668e-16)
(1.12556 -0.0146605 8.88423e-16)
(1.12986 -0.0102298 1.98077e-15)
(1.13294 -0.00763519 4.05923e-15)
(1.13629 -0.00559499 5.94423e-15)
(1.13997 -0.00191169 5.90311e-15)
(1.14192 0.00549695 4.34942e-15)
(1.13874 0.0165607 2.35269e-15)
(1.12811 0.0288467 6.79071e-16)
(1.11018 0.0391414 -4.46569e-16)
(1.08715 0.0449723 -7.34475e-16)
(1.06218 0.0450777 6.21347e-16)
(1.03856 0.0391438 -6.36382e-15)
(1.01943 0.027454 -1.53753e-14)
(1.00777 0.010799 1.10489e-13)
(1.00641 -0.00922382 1.64456e-13)
(1.01748 -0.0294288 -1.46848e-12)
(1.04076 -0.0446034 -5.82133e-12)
(1.0717 -0.0489769 -1.03551e-11)
(1.10151 -0.0395881 -1.03698e-11)
(1.12078 -0.0189041 -5.83688e-12)
(1.12411 0.00626708 -1.71721e-12)
(1.11204 0.0286822 -1.97028e-14)
(1.08918 0.0439007 1.38765e-13)
(1.06106 0.0507105 1.94333e-13)
(1.03223 0.049664 1.08263e-12)
(1.0061 0.041563 -1.35163e-12)
(0.98566 0.0267448 -1.53894e-11)
(0.974281 0.00537433 -5.73458e-12)
(0.975718 -0.0212466 1.88489e-10)
(0.993007 -0.0488283 7.67218e-10)
(1.02648 -0.0696602 1.63087e-09)
(1.07135 -0.0752504 2.2726e-09)
(1.11653 -0.0613127 2.21089e-09)
(1.14807 -0.031408 1.50963e-09)
(1.15655 0.00457218 6.95871e-10)
(1.14196 0.0359957 1.73193e-10)
(1.11166 0.0564107 -2.15069e-11)
(1.07486 0.0647038 -4.20562e-11)
(1.03849 0.0629112 -2.96441e-11)
(1.00642 0.0534649 -2.35433e-11)
(0.980573 0.0376766 5.80217e-11)
(0.962709 0.0157152 3.62913e-10)
(0.956109 -0.0122002 9.35904e-10)
(0.965655 -0.0436378 1.60155e-09)
(0.994387 -0.0722897 2.13533e-09)
(1.03911 -0.0891234 2.51062e-09)
(1.09004 -0.0866174 2.84556e-09)
(1.13475 -0.0631077 3.11832e-09)
(1.16259 -0.0243032 3.05439e-09)
(1.16739 0.0187407 2.43728e-09)
(1.14905 0.054281 1.46213e-09)
(1.11377 0.0750171 5.65515e-10)
(1.0711 0.0801709 3.25434e-11)
(1.02949 0.073522 -1.32461e-10)
(0.993751 0.0594558 -5.22759e-11)
(0.966214 0.0399144 1.78888e-10)
(0.949931 0.0142755 4.96879e-10)
(0.949933 -0.0176932 8.11495e-10)
(0.970223 -0.0522687 1.0302e-09)
(1.00949 -0.0813836 1.12591e-09)
(1.06019 -0.0961739 1.14263e-09)
(1.1113 -0.0914532 1.15084e-09)
(1.15197 -0.0679295 1.20691e-09)
(1.17451 -0.0314437 1.30737e-09)
(1.17597 0.00953922 1.35246e-09)
(1.15804 0.0463639 1.21042e-09)
(1.12562 0.072159 8.59284e-10)
(1.08521 0.0834938 4.30806e-10)
(1.04338 0.0809459 1.07907e-10)
(1.0057 0.06747 7.81599e-13)
(0.977048 0.0454385 1.03072e-10)
(0.962703 0.0155529 3.23801e-10)
(0.967769 -0.0207094 5.5162e-10)
(0.994164 -0.0580489 7.12524e-10)
(1.03818 -0.0879085 7.90648e-10)
(1.0913 -0.102347 8.08566e-10)
(1.14314 -0.0977071 7.96186e-10)
(1.1844 -0.0757944 7.75762e-10)
(1.20862 -0.0427666 7.64926e-10)
(1.21315 -0.00679172 7.77864e-10)
(1.19947 0.0245413 8.08847e-10)
(1.17266 0.046148 8.17239e-10)
(1.13967 0.0559531 7.49639e-10)
(1.10737 0.0539838 5.88567e-10)
(1.08158 0.0411051 3.78285e-10)
(1.06742 0.0184997 1.97648e-10)
(1.0695 -0.0117042 1.06527e-10)
(1.09053 -0.0452972 1.15206e-10)
(1.12916 -0.0759329 1.93885e-10)
(1.1797 -0.0968247 3.01609e-10)
(1.23397 -0.10309 4.07639e-10)
(1.28381 -0.0931576 4.96397e-10)
(1.3225 -0.0688058 5.62808e-10)
(1.3453 -0.0344018 6.06972e-10)
(1.34964 0.00410474 6.31525e-10)
(1.33533 0.0402128 6.40333e-10)
(1.3049 0.0681059 6.3831e-10)
(1.2634 0.0840406 6.32341e-10)
(1.21726 0.0872403 6.28841e-10)
(1.1727 0.0797944 6.25507e-10)
(1.13431 0.0654857 6.05262e-10)
(1.10466 0.0480551 5.45429e-10)
(1.08472 0.0298957 4.40025e-10)
(1.07463 0.0119612 3.1386e-10)
(1.07408 -0.00530049 2.11827e-10)
(1.08213 -0.0209523 1.7154e-10)
(1.09698 -0.0333145 2.02744e-10)
(1.11591 -0.0404396 2.88082e-10)
(1.1357 -0.0408157 3.9822e-10)
(1.15309 -0.033869 5.0467e-10)
(1.16526 -0.0201683 5.82435e-10)
(1.17013 -0.00146984 6.08869e-10)
(1.16645 0.0193182 5.69254e-10)
(1.15409 0.0384725 4.67354e-10)
(1.13434 0.0523568 3.28052e-10)
(1.10989 0.0585975 1.8725e-10)
(1.08427 0.0568771 7.5436e-11)
(1.06089 0.0488428 6.41888e-12)
(1.04217 0.0372272 -2.31615e-11)
(1.02927 0.0247653 -2.64515e-11)
(1.02211 0.0134664 -1.76739e-11)
(1.01986 0.00441476 -6.80438e-12)
(1.02126 -0.00205733 1.49486e-12)
(1.02501 -0.00607342 6.36601e-12)
(1.02991 -0.00796037 8.67839e-12)
(1.03498 -0.00809681 9.54689e-12)
(1.03946 -0.00685861 9.69395e-12)
(1.04277 -0.00462508 9.40494e-12)
(1.04455 -0.00179783 8.72979e-12)
(1.04463 0.00120432 7.6878e-12)
(1.04311 0.00398307 6.37555e-12)
(1.04023 0.00621534 4.95989e-12)
(1.0364 0.0076976 3.61853e-12)
(1.0321 0.00836105 2.48691e-12)
(1.02777 0.00825758 1.63394e-12)
(1.02377 0.00752595 1.06653e-12)
(1.02038 0.0063538 7.50342e-13)
(1.01775 0.00494114 6.33127e-13)
(1.01592 0.00347571 6.61918e-13)
(1.01484 0.00210933 7.91387e-13)
(1.01441 0.000955602 9.85214e-13)
(1.01445 7.15189e-05 1.21399e-12)
(1.01484 -0.000512819 1.45294e-12)
(1.01537 -0.000828444 1.68042e-12)
(1.01598 -0.000891002 1.87897e-12)
(1.01643 -0.000775407 2.0311e-12)
(1.0169 -0.000555815 2.13956e-12)
(1.01698 -3.22856e-05 2.17097e-12)
(1.00013 -0.00278676 2.40037e-18)
(1.00182 -0.00817 8.19646e-18)
(1.00557 -0.0135839 1.00954e-17)
(1.01122 -0.0191649 2.15042e-18)
(1.01911 -0.0249909 4.20382e-17)
(1.02956 -0.0309002 -5.08364e-17)
(1.04288 -0.0364726 1.05343e-16)
(1.05908 -0.0406827 -1.32736e-16)
(1.07743 -0.0423795 9.50498e-18)
(1.09653 -0.0401722 1.61424e-15)
(1.11297 -0.0335056 1.43106e-15)
(1.12457 -0.0253227 -2.0865e-15)
(1.13148 -0.0174233 -7.48979e-15)
(1.13477 -0.0119374 -1.45061e-14)
(1.13709 -0.00927813 -2.18266e-14)
(1.14065 -0.00762685 -2.40986e-14)
(1.14579 -0.00378277 -1.81335e-14)
(1.14979 0.00540138 -9.26189e-15)
(1.14791 0.0198971 -2.43647e-15)
(1.13694 0.0362223 -4.266e-17)
(1.11704 0.0498889 -1.36593e-15)
(1.09104 0.0576271 3.63884e-16)
(1.06273 0.0579212 -2.93516e-15)
(1.03583 0.050487 -4.01324e-14)
(1.0138 0.0356881 8.35889e-14)
(0.999929 0.0143599 2.41036e-13)
(0.997701 -0.0117506 -1.14424e-12)
(1.01035 -0.0387066 1.09064e-12)
(1.03851 -0.0594373 1.6957e-11)
(1.07679 -0.0656962 2.85626e-11)
(1.11373 -0.0530806 1.51984e-11)
(1.13716 -0.0250254 -2.38082e-12)
(1.14051 0.00878625 -5.97864e-12)
(1.12513 0.0382774 -2.61718e-12)
(1.09744 0.0576859 -1.04904e-13)
(1.06448 0.0659445 1.89237e-12)
(1.0314 0.0642922 2.57395e-12)
(1.00157 0.0539926 -1.62461e-11)
(0.977827 0.0353841 -4.83252e-11)
(0.96318 0.0084308 9.84087e-11)
(0.960965 -0.0255201 8.37972e-10)
(0.974928 -0.0615074 2.34463e-09)
(1.00794 -0.0900605 4.15162e-09)
(1.05756 -0.0995952 5.48201e-09)
(1.11244 -0.0827877 5.6695e-09)
(1.15505 -0.0430795 4.49003e-09)
(1.17076 0.00578742 2.57227e-09)
(1.15672 0.0481052 9.40902e-10)
(1.12179 0.0745853 9.30434e-11)
(1.07875 0.0843165 -1.34583e-10)
(1.03706 0.0810503 -1.16547e-10)
(1.00093 0.0688015 -3.79978e-11)
(0.97127 0.0495059 1.82189e-10)
(0.94931 0.0227635 6.66039e-10)
(0.939883 -0.0123924 1.28602e-09)
(0.950378 -0.0535352 1.72796e-09)
(0.984185 -0.0918416 1.87414e-09)
(1.0357 -0.11453 1.92119e-09)
(1.09228 -0.111727 2.14054e-09)
(1.14004 -0.0819428 2.6128e-09)
(1.16862 -0.0327939 3.05215e-09)
(1.17297 0.0220589 2.95304e-09)
(1.15352 0.0679453 2.15451e-09)
(1.1162 0.0951182 1.0639e-09)
(1.07051 0.102074 2.20928e-10)
(1.02541 0.093729 -1.35337e-10)
(0.986236 0.0760503 -6.99159e-11)
(0.95604 0.0513675 2.42941e-10)
(0.939129 0.0182782 6.24151e-10)
(0.941568 -0.0235628 9.24185e-10)
(0.966742 -0.0684674 1.07534e-09)
(1.01132 -0.105236 1.10691e-09)
(1.06605 -0.12266 1.08815e-09)
(1.11939 -0.114941 1.07482e-09)
(1.16069 -0.0837429 1.10654e-09)
(1.18238 -0.036954 1.20257e-09)
(1.18149 0.0144947 1.30678e-09)
(1.16015 0.0598734 1.27265e-09)
(1.12423 0.0911595 9.98953e-10)
(1.08092 0.104674 5.66927e-10)
(1.03682 0.101314 1.90317e-10)
(0.997476 0.0843746 4.2637e-11)
(0.96827 0.056159 1.42501e-10)
(0.955362 0.0173118 3.75986e-10)
(0.964045 -0.0296208 6.03257e-10)
(0.995077 -0.0768544 7.46488e-10)
(1.043 -0.113155 8.03468e-10)
(1.09811 -0.129075 8.089e-10)