/*--------------------------------*- C++ -*----------------------------------*\
  =========                 |
  \\      /  F ield         | OpenFOAM: The Open Source CFD Toolbox
   \\    /   O peration     | Website:  https://openfoam.org
    \\  /    A nd           | Version:  11
     \\/     M anipulation  |
\*---------------------------------------------------------------------------*/
FoamFile
{
    format      ascii;
    class       volVectorField;
    location    "12.343122";
    object      U;
}
// * * * * * * * * * * * * * * * * * * * * * * * * * * * * * * * * * * * * * //

dimensions      [0 1 -1 0 0 0 0];

internalField   nonuniform List<vector> 
7132
(
(1.00014 -0.000273305 2.22734e-18)
(1.00212 -0.00081349 7.65599e-18)
(1.00652 -0.00135284 8.36783e-18)
(1.013 -0.00188435 1.06126e-17)
(1.02159 -0.00239484 1.39758e-17)
(1.03217 -0.00285307 1.52818e-17)
(1.04445 -0.0032104 1.56582e-17)
(1.05793 -0.00339294 1.56657e-17)
(1.0717 -0.00332309 1.55177e-17)
(1.08466 -0.0029559 1.51183e-17)
(1.09546 -0.00228957 1.42988e-17)
(1.1031 -0.00150355 1.33813e-17)
(1.10749 -0.000763911 1.22531e-17)
(1.10915 -0.000239742 1.13276e-17)
(1.10932 -4.91587e-05 6.15998e-18)
(1.10946 -0.00015153 8.60246e-19)
(1.11054 -0.000369656 -3.97585e-18)
(1.11255 -0.000439876 -4.7811e-18)
(1.11432 -0.000109148 -6.76496e-18)
(1.11376 0.000713645 -7.60689e-18)
(1.1089 0.00188343 -6.26514e-18)
(1.09887 0.00309562 -4.89942e-18)
(1.08417 0.00403829 -3.83094e-18)
(1.06646 0.00449164 -2.57851e-18)
(1.04804 0.00434598 -1.7689e-18)
(1.03144 0.00357914 3.47612e-18)
(1.01913 0.00223599 -9.13528e-18)
(1.01329 0.000435013 -1.01527e-16)
(1.01548 -0.00159863 -1.08389e-17)
(1.02608 -0.0034862 1.39466e-15)
(1.0436 -0.0047185 4.3254e-15)
(1.06428 -0.00483108 6.02036e-15)
(1.08281 -0.00367211 4.69949e-15)
(1.09417 -0.001549 2.21989e-15)
(1.09554 0.000911299 6.224e-16)
(1.08698 0.00307323 1.78523e-16)
(1.07082 0.00453216 -1.80151e-16)
(1.05043 0.00514436 -2.20325e-15)
(1.02929 0.00492441 -1.79844e-15)
(1.01062 0.00393514 2.01208e-14)
(0.997367 0.00224131 6.37207e-14)
(0.992262 -5.43237e-05 -2.90651e-14)
(0.997496 -0.00270813 -7.24415e-13)
(1.01387 -0.00522764 -2.49465e-12)
(1.0396 -0.00690537 -4.87751e-12)
(1.06971 -0.00708374 -6.31687e-12)
(1.09702 -0.00552989 -5.76456e-12)
(1.11464 -0.00263745 -3.83151e-12)
(1.11857 0.000738462 -1.8486e-12)
(1.10885 0.00369746 -5.48154e-13)
(1.0888 0.00566316 4.13757e-14)
(1.06317 0.00647642 1.77349e-13)
(1.03653 0.00624827 1.72482e-14)
(1.0127 0.00515451 -3.86724e-13)
(0.994807 0.00331311 -3.55394e-13)
(0.985704 0.000799339 2.43365e-12)
(0.987987 -0.00222163 1.18129e-11)
(1.00325 -0.00533296 3.09316e-11)
(1.03075 -0.00783118 5.79487e-11)
(1.06636 -0.00892003 8.37571e-11)
(1.10285 -0.0080719 9.66828e-11)
(1.13179 -0.00534115 9.09245e-11)
(1.14634 -0.00141752 6.97035e-11)
(1.14359 0.00264068 4.19627e-11)
(1.12528 0.00584954 1.78836e-11)
(1.0965 0.00766338 3.10732e-12)
(1.06347 0.00804681 -3.03287e-12)
(1.03158 0.00728035 -3.95172e-12)
(1.0047 0.00568187 -9.01015e-14)
(0.985583 0.00343275 1.39573e-11)
(0.976649 0.00060484 4.67354e-11)
(0.980149 -0.00264893 1.03822e-10)
(0.997355 -0.00590808 1.82747e-10)
(1.02718 -0.00848715 2.71879e-10)
(1.06533 -0.00966359 3.53629e-10)
(1.10487 -0.00899126 4.09724e-10)
(1.13787 -0.00650562 4.26256e-10)
(1.15763 -0.00272815 3.97592e-10)
(1.16039 0.00149492 3.28195e-10)
(1.14622 0.00523675 2.316e-10)
(1.11878 0.00775985 1.29642e-10)
(1.08412 0.00872221 4.67484e-11)
(1.04873 0.00821826 2.92143e-13)
(1.01793 0.00659562 -4.31339e-12)
(0.995432 0.00417303 2.92219e-11)
(0.984015 0.00112384 9.30055e-11)
(0.986059 -0.00236056 1.77131e-10)
(1.00285 -0.00584033 2.7004e-10)
(1.03318 -0.00862086 3.60152e-10)
(1.07257 -0.0100122 4.38615e-10)
(1.11412 -0.00965219 5.00846e-10)
(1.15045 -0.00767005 5.45699e-10)
(1.17576 -0.00461708 5.72969e-10)
(1.18725 -0.00124002 5.80636e-10)
(1.18526 0.0017676 5.62741e-10)
(1.17255 0.00392928 5.1008e-10)
(1.15328 0.00500593 4.17965e-10)
(1.13208 0.0049254 2.95987e-10)
(1.11358 0.00372691 1.69685e-10)
(1.10209 0.00155909 6.92797e-11)
(1.10106 -0.00129148 1.39944e-11)
(1.11255 -0.00438681 5.24312e-12)
(1.13658 -0.00717367 3.1618e-11)
(1.17071 -0.00907929 7.81185e-11)
(1.21025 -0.00965326 1.32378e-10)
(1.24908 -0.00869904 1.86444e-10)
(1.28087 -0.00633685 2.36091e-10)
(1.30048 -0.00297905 2.79663e-10)
(1.30501 0.000764865 3.17278e-10)
(1.29429 0.00422591 3.5005e-10)
(1.27078 0.0068361 3.79828e-10)
(1.23891 0.0082565 4.0886e-10)
(1.2039 0.00843744 4.37125e-10)
(1.17056 0.00759544 4.58081e-10)
(1.14236 0.00610597 4.57999e-10)
(1.12106 0.00434463 4.22969e-10)
(1.10709 0.00255673 3.49553e-10)
(1.10025 0.000833912 2.4983e-10)
(1.10022 -0.000802434 1.46314e-10)
(1.10661 -0.00229317 6.11341e-11)
(1.11863 -0.00349231 7.37935e-12)
(1.13468 -0.00419539 -1.31904e-11)
(1.15234 -0.00421279 -7.30396e-12)
(1.16853 -0.00344366 1.43241e-11)
(1.18003 -0.00192669 4.0665e-11)
(1.1841 0.000138906 6.25311e-11)
(1.1791 0.0024089 7.36504e-11)
(1.16502 0.00445955 7.14129e-11)
(1.14357 0.0059003 5.74498e-11)
(1.11789 0.00649581 3.71695e-11)
(1.0916 0.00623664 1.74781e-11)
(1.06792 0.00531804 3.54397e-12)
(1.04895 0.00404165 -3.1744e-12)
(1.03549 0.00269992 -4.4019e-12)
(1.02728 0.00150067 -2.99563e-12)
(1.02346 0.000549831 -1.18695e-12)
(1.0229 -0.000125826 5.55433e-15)
(1.02452 -0.000544621 4.78239e-13)
(1.02734 -0.000742962 5.08877e-13)
(1.03055 -0.000760844 3.86571e-13)
(1.03351 -0.000637749 2.75311e-13)
(1.03572 -0.000413707 2.22428e-13)
(1.03687 -0.000130699 2.13197e-13)
(1.03681 0.000168467 2.17461e-13)
(1.03554 0.000444088 2.13659e-13)
(1.03325 0.000664579 1.94356e-13)
(1.0302 0.000810238 1.62519e-13)
(1.02673 0.000874387 1.25612e-13)
(1.02317 0.00086206 9.09816e-14)
(1.0198 0.000786758 6.35391e-14)
(1.01684 0.000667048 4.53477e-14)
(1.01444 0.000522678 3.62762e-14)
(1.01264 0.000372661 3.496e-14)
(1.01145 0.000231967 3.95917e-14)
(1.01078 0.000112691 4.83947e-14)
(1.01055 2.01094e-05 5.98052e-14)
(1.01062 -4.16411e-05 7.24892e-14)
(1.01091 -7.55873e-05 8.54475e-14)
(1.01121 -8.6122e-05 9.68573e-14)
(1.01166 -6.19738e-05 1.11599e-13)
(1.00014 -0.000818656 2.87424e-20)
(1.00211 -0.00243801 3.7263e-19)
(1.0065 -0.00405657 7.89796e-19)
(1.01297 -0.00565565 1.2799e-18)
(1.02158 -0.00719644 1.92091e-18)
(1.03223 -0.00858568 2.63161e-18)
(1.04464 -0.00967675 3.2283e-18)
(1.05834 -0.0102426 3.97339e-18)
(1.0724 -0.0100438 6.37674e-18)
(1.08568 -0.00893382 6.10766e-18)
(1.09671 -0.00690021 5.25902e-18)
(1.10441 -0.00450087 9.23715e-18)
(1.10869 -0.00224452 8.95408e-18)
(1.11008 -0.000655891 7.74374e-18)
(1.10992 -0.000105891 4.89043e-18)
(1.10985 -0.000468465 9.24364e-19)
(1.11092 -0.00119509 -2.20019e-18)
(1.1132 -0.00146934 -2.28352e-18)
(1.1154 -0.000503274 2.49302e-19)
(1.11526 0.00199338 2.76462e-18)
(1.11062 0.00556853 4.10972e-18)
(1.1005 0.00927933 4.71521e-18)
(1.08545 0.0121692 4.13637e-18)
(1.06722 0.0135732 9.72255e-19)
(1.0482 0.0131642 9.7e-18)
(1.03099 0.0108767 3.91195e-17)
(1.01813 0.0068393 -1.02732e-16)
(1.0119 0.00139513 -6.46503e-16)
(1.01399 -0.00479153 6.4515e-16)
(1.02495 -0.0105759 1.07361e-14)
(1.04333 -0.0143901 3.12731e-14)
(1.0652 -0.0147855 4.69751e-14)
(1.08486 -0.0112764 4.05007e-14)
(1.09693 -0.00480344 2.0344e-14)
(1.09839 0.00270426 5.97314e-15)
(1.08941 0.00929629 9.18533e-16)
(1.07254 0.0137412 -2.03311e-15)
(1.05135 0.0156154 -1.12538e-14)
(1.02941 0.0149782 -3.90471e-15)
(1.00996 0.0120248 1.09515e-13)
(0.995991 0.00693837 3.04761e-13)
(0.99033 -8.65323e-07 -3.18232e-13)
(0.995406 -0.00808625 -4.46282e-12)
(1.01229 -0.0158242 -1.47115e-11)
(1.03925 -0.0210269 -2.83096e-11)
(1.07102 -0.0216427 -3.64662e-11)
(1.09987 -0.0169366 -3.27975e-11)
(1.11838 -0.00811841 -2.08518e-11)
(1.12237 0.00218144 -9.41906e-12)
(1.11202 0.0112007 -2.56199e-12)
(1.09097 0.0171799 3.14547e-13)
(1.06428 0.0196512 8.59234e-13)
(1.0367 0.0189764 -2.4785e-14)
(1.01202 0.0157042 -1.89003e-12)
(0.993339 0.0101864 -9.83144e-13)
(0.983516 0.00261973 1.54779e-11)
(0.985265 -0.00653644 6.9831e-11)
(1.0004 -0.0160375 1.80154e-10)
(1.02839 -0.0237315 3.33792e-10)
(1.06521 -0.0271552 4.76266e-10)
(1.10342 -0.0246585 5.39176e-10)
(1.13408 -0.0163877 4.90405e-10)
(1.14978 -0.00445115 3.58634e-10)
(1.14728 0.00791839 2.06361e-10)
(1.12836 0.017706 8.52052e-11)
(1.09848 0.0232341 1.54856e-11)
(1.06427 0.0244033 -1.1233e-11)
(1.03135 0.0220974 -1.3868e-11)
(1.00359 0.017311 -2.21448e-12)
(0.983601 0.0105938 3.13309e-11)
(0.973746 0.00212472 1.04293e-10)
(0.976475 -0.00768702 2.26934e-10)
(0.993401 -0.0175957 3.8833e-10)
(1.02364 -0.0255106 5.58572e-10)
(1.0628 -0.0292037 7.03599e-10)
(1.10352 -0.0272912 7.95768e-10)
(1.13757 -0.0198689 8.1438e-10)
(1.15808 -0.00850979 7.48141e-10)
(1.16129 0.00423886 6.05151e-10)
(1.14726 0.0155834 4.16401e-10)
(1.11966 0.0232849 2.27304e-10)
(1.08455 0.0262883 8.0583e-11)
(1.04849 0.0248616 4.65677e-13)
(1.0169 0.020046 -9.99143e-12)
(0.993605 0.0127876 3.96653e-11)
(0.981639 0.0035752 1.3515e-10)
(0.983772 -0.00704224 2.58525e-10)
(1.00158 -0.0177102 3.87715e-10)
(1.03372 -0.0262455 5.01689e-10)
(1.07522 -0.030479 5.88054e-10)
(1.11846 -0.0292955 6.45647e-10)
(1.15555 -0.0231385 6.80335e-10)
(1.18053 -0.0137609 6.97685e-10)
(1.19079 -0.00348162 6.97039e-10)
(1.18708 0.00559661 6.7002e-10)
(1.17264 0.01206 6.04635e-10)
(1.15196 0.0152247 4.94835e-10)
(1.12982 0.0149124 3.51374e-10)
(1.11087 0.0112611 2.03413e-10)
(1.09931 0.00470442 8.58914e-11)
(1.09867 -0.0039352 2.19839e-11)
(1.11116 -0.0133667 1.47317e-11)
(1.13688 -0.0219058 5.14057e-11)
(1.17326 -0.0277699 1.1338e-10)
(1.21524 -0.0295426 1.83888e-10)
(1.25617 -0.0266063 2.51287e-10)
(1.28938 -0.0193452 3.09117e-10)
(1.30952 -0.00905766 3.5483e-10)
(1.31371 0.00237373 3.8858e-10)
(1.30194 0.0129189 4.12613e-10)
(1.27689 0.0208612 4.30922e-10)
(1.24326 0.0251778 4.48231e-10)
(1.20649 0.0257247 4.6665e-10)
(1.17158 0.0231649 4.8078e-10)
(1.14208 0.0186396 4.76638e-10)
(1.11979 0.0132863 4.38948e-10)
(1.10514 0.00784761 3.62856e-10)
(1.09795 0.00260306 2.60176e-10)
(1.09789 -0.0023778 1.54757e-10)
(1.10451 -0.00690882 7.11024e-11)
(1.1169 -0.0105428 2.43066e-11)
(1.13336 -0.0126644 1.62478e-11)
(1.15133 -0.0127132 3.77324e-11)
(1.16772 -0.0104006 7.36323e-11)
(1.17934 -0.00585325 1.08347e-10)
(1.1835 0.000333992 1.30011e-10)
(1.17861 0.00714197 1.3258e-10)
(1.16462 0.0133089 1.16192e-10)
(1.14325 0.017662 8.64825e-11)
(1.11757 0.0194859 5.24315e-11)
(1.09124 0.0187405 2.29581e-11)
(1.0675 0.0160026 3.5255e-12)
(1.04847 0.012174 -5.29775e-12)
(1.035 0.00813487 -6.57512e-12)
(1.02686 0.00451517 -4.36952e-12)
(1.02317 0.00163995 -1.6962e-12)
(1.0228 -0.000405279 8.4035e-14)
(1.02463 -0.001673 8.31403e-13)
(1.02766 -0.0022723 9.26104e-13)
(1.03107 -0.00232447 7.75391e-13)
(1.03418 -0.00194956 6.19997e-13)
(1.0365 -0.00126905 5.35853e-13)
(1.0377 -0.000410039 5.06089e-13)
(1.03764 0.000497951 4.88511e-13)
(1.03635 0.00133462 4.53548e-13)
(1.03399 0.0020041 3.93537e-13)
(1.03086 0.00244656 3.16678e-13)
(1.02731 0.00264171 2.37157e-13)
(1.02366 0.00260485 1.6752e-13)
(1.02023 0.00237699 1.15175e-13)
(1.01723 0.00201449 8.22429e-14)
(1.01479 0.00157728 6.71574e-14)
(1.01299 0.00112304 6.65607e-14)
(1.01181 0.00069716 7.66961e-14)
(1.01116 0.00033631 9.41224e-14)
(1.01096 5.64023e-05 1.159e-13)
(1.01106 -0.000130021 1.3956e-13)
(1.01137 -0.000232286 1.6315e-13)
(1.0117 -0.000263943 1.83679e-13)
(1.01218 -0.000189888 2.08513e-13)
(1.00013 -0.00136072 2.8156e-22)
(1.00209 -0.00405406 5.86449e-21)
(1.00645 -0.00675263 3.91241e-22)
(1.01291 -0.00943091 4.33262e-21)
(1.02154 -0.0120284 -5.28246e-20)
(1.03232 -0.0143921 -6.02717e-20)
(1.045 -0.0162761 -3.06939e-19)
(1.05913 -0.0172843 -2.60514e-19)
(1.07378 -0.0169949 4.37587e-19)
(1.08772 -0.0151222 -1.77772e-18)
(1.09925 -0.0116184 -4.72566e-18)
(1.10707 -0.00747707 -1.1442e-18)
(1.11112 -0.00357386 4.24476e-18)
(1.11198 -0.000831797 1.57442e-18)
(1.11118 7.64544e-05 -6.22939e-18)
(1.11068 -0.000647918 -1.20013e-18)
(1.11177 -0.00204976 2.86779e-17)
(1.11459 -0.00268759 6.75168e-17)
(1.11768 -0.00114713 8.73941e-17)
(1.11838 0.003105 8.08839e-17)
(1.11409 0.00927243 5.74375e-17)
(1.1037 0.0156871 3.23607e-17)
(1.08784 0.0206789 6.95671e-18)
(1.06849 0.0231151 -4.14891e-19)
(1.04824 0.0224589 7.68904e-17)
(1.02984 0.0186119 -1.77573e-16)
(1.01596 0.0117813 -9.06903e-16)
(1.00906 0.00251002 4.40471e-15)
(1.01111 -0.00811924 7.8531e-15)
(1.02294 -0.0181586 -9.25394e-14)
(1.04319 -0.0248543 -3.3426e-13)
(1.06755 -0.0256116 -4.45053e-13)
(1.08949 -0.0195371 -2.83033e-13)
(1.10282 -0.00829565 -8.32452e-14)
(1.10422 0.00469087 1.87491e-15)
(1.09411 0.0160059 1.25517e-14)
(1.0756 0.0235595 -6.50204e-15)
(1.05267 0.0267048 -3.2237e-14)
(1.02911 0.0256143 4.90061e-14)
(1.00819 0.0206427 3.45453e-13)
(0.992943 0.0120592 1.88912e-13)
(0.986395 0.00024713 -2.33268e-12)
(0.991418 -0.0136761 -7.07043e-12)
(1.00957 -0.0271482 -6.81584e-12)
(1.03922 -0.0362862 1.17806e-12)
(1.0745 -0.0374095 4.38437e-12)
(1.10647 -0.0292104 -3.31155e-12)
(1.12662 -0.013867 -1.04133e-11)
(1.13034 0.00395225 -1.06035e-11)
(1.11824 0.0194163 -6.13268e-12)
(1.0948 0.0295304 -1.07599e-12)
(1.06579 0.033603 1.20103e-12)
(1.03627 0.0323698 -1.12147e-12)
(1.01001 0.0268285 -6.31108e-12)
(0.989946 0.0175654 2.57794e-12)
(0.978808 0.00484544 7.12318e-11)
(0.979393 -0.0106471 2.61196e-10)
(0.993902 -0.026884 5.95549e-10)
(1.02237 -0.040242 1.01228e-09)
(1.0611 -0.0464568 1.38225e-09)
(1.10238 -0.0425283 1.56566e-09)
(1.13646 -0.0285164 1.47384e-09)
(1.15477 -0.00798829 1.13424e-09)
(1.1532 0.0133837 6.92128e-10)
(1.1334 0.0302616 3.08761e-10)
(1.10148 0.0396994 7.09149e-11)
(1.06497 0.041595 -2.81046e-11)
(1.03006 0.037608 -4.1476e-11)
(1.00065 0.0295533 -8.06303e-12)
(0.979131 0.0183576 7.33923e-11)
(0.967885 0.0041789 2.23018e-10)
(0.969882 -0.0124606 4.3852e-10)
(0.987403 -0.0294837 6.78468e-10)
(1.01968 -0.0431948 8.90348e-10)
(1.06161 -0.0496259 1.04696e-09)
(1.10478 -0.0463897 1.14792e-09)
(1.14019 -0.0337704 1.18894e-09)
(1.16094 -0.0145571 1.14131e-09)
(1.16368 0.0069377 9.7565e-10)
(1.14885 0.0260683 7.0818e-10)
(1.12031 0.0391106 4.07452e-10)
(1.08413 0.0442876 1.56864e-10)
(1.04686 0.0420257 1.18678e-11)
(1.01398 0.0340324 -1.44653e-11)
(0.989574 0.0218057 6.0516e-11)
(0.977278 0.00605091 2.0392e-10)
(0.980557 -0.0123156 3.7461e-10)
(1.00122 -0.0308102 5.31527e-10)
(1.03733 -0.0454503 6.47258e-10)
(1.08272 -0.0523998 7.15747e-10)
(1.12871 -0.0498278 7.47982e-10)
(1.16673 -0.0386938 7.61697e-10)
(1.19069 -0.0222088 7.70893e-10)
(1.19829 -0.00448391 7.76542e-10)
(1.19095 0.0108582 7.63281e-10)
(1.17276 0.0214895 7.07748e-10)
(1.14894 0.0264034 5.94559e-10)
(1.12469 0.0254607 4.32816e-10)
(1.10468 0.0189796 2.58506e-10)
(1.09314 0.00765863 1.17422e-10)
(1.09369 -0.00721075 4.13968e-11)
(1.10874 -0.0234855 3.59139e-11)
(1.13826 -0.0382276 8.47427e-11)
(1.17909 -0.048268 1.63135e-10)
(1.22527 -0.0511194 2.48992e-10)
(1.2694 -0.0457715 3.27749e-10)
(1.3044 -0.0329939 3.92249e-10)
(1.32488 -0.0151144 4.40324e-10)
(1.3281 0.00459387 4.72228e-10)
(1.31425 0.0226617 4.90105e-10)
(1.28638 0.0361818 4.98607e-10)
(1.24957 0.0434469 5.0425e-10)
(1.20968 0.044259 5.11664e-10)
(1.17201 0.039789 5.1735e-10)
(1.14027 0.031997 5.07295e-10)
(1.1163 0.0228099 4.64499e-10)
(1.10059 0.0134737 3.82719e-10)
(1.09295 0.00446258 2.74823e-10)
(1.09303 -0.00407942 1.68372e-10)
(1.10024 -0.0117978 9.21652e-11)
(1.11341 -0.0179147 6.3255e-11)
(1.13059 -0.0214103 8.14601e-11)
(1.14904 -0.0213955 1.32027e-10)
(1.16562 -0.0174478 1.92646e-10)
(1.17727 -0.00981468 2.41035e-10)
(1.18143 0.00051198 2.61239e-10)
(1.17658 0.0118576 2.47321e-10)
(1.16271 0.0221432 2.03903e-10)
(1.14146 0.0294215 1.4377e-10)
(1.11587 0.0324909 8.27424e-11)
(1.08958 0.0312678 3.38785e-11)
(1.06586 0.0267005 3.44375e-12)
(1.04691 0.0202885 -9.63279e-12)
(1.03362 0.0135059 -1.10335e-11)
(1.02577 0.00741689 -7.21286e-12)
(1.02248 0.00257809 -2.75104e-12)
(1.02259 -0.00085789 2.95524e-13)
(1.02491 -0.00297543 1.69351e-12)
(1.0284 -0.00395907 2.00557e-12)
(1.03219 -0.00401642 1.85977e-12)
(1.03559 -0.0033532 1.64433e-12)
(1.0381 -0.0021767 1.49408e-12)
(1.03938 -0.000703065 1.39414e-12)
(1.03929 0.000847712 1.28683e-12)
(1.03789 0.00227147 1.13587e-12)
(1.03537 0.003406 9.41433e-13)
(1.03206 0.00415088 7.28246e-13)
(1.02832 0.0044734 5.27236e-13)
(1.02451 0.0044014 3.62146e-13)
(1.02095 0.00400615 2.44372e-13)
(1.01787 0.00338446 1.74251e-13)
(1.01541 0.00263869 1.45268e-13)
(1.01362 0.00186691 1.48254e-13)
(1.01247 0.00114595 1.74136e-13)
(1.01189 0.000537603 2.15077e-13)
(1.01176 6.7957e-05 2.64544e-13)
(1.01193 -0.00024223 3.17123e-13)
(1.0123 -0.000409934 3.68297e-13)
(1.01268 -0.000459103 4.12271e-13)
(1.0132 -0.000327344 4.61797e-13)
(1.00013 -0.00189692 -2.75691e-20)
(1.00206 -0.00565391 -4.83409e-19)
(1.00637 -0.00943295 -9.83782e-19)
(1.01278 -0.0132084 -1.60857e-18)
(1.02145 -0.0169062 -2.46483e-18)
(1.03239 -0.0203178 -2.96277e-18)
(1.04546 -0.0230967 -5.3645e-18)
(1.06026 -0.024652 -1.75215e-19)
(1.07583 -0.0243452 -6.15225e-18)
(1.09083 -0.0216797 -3.02562e-17)
(1.10313 -0.0165301 -1.56406e-17)
(1.11117 -0.0104333 5.62726e-17)
(1.11487 -0.00467925 9.69046e-17)
(1.11486 -0.000674188 7.67923e-17)
(1.11304 0.00052132 8.27856e-17)
(1.11183 -0.000793156 2.60279e-16)
(1.11292 -0.00318563 6.4423e-16)
(1.11659 -0.00446 9.9423e-16)
(1.12112 -0.00241606 1.01575e-15)
(1.12316 0.00379054 7.86474e-16)
(1.11945 0.0129259 4.74999e-16)
(1.1086 0.0224232 1.79758e-16)
(1.09146 0.0297812 -4.92461e-17)
(1.07035 0.0333763 1.1684e-16)
(1.0482 0.0324901 9.90543e-17)
(1.02798 0.0270152 -4.23347e-15)
(1.01255 0.017228 1.69157e-15)
(1.00462 0.0038281 6.59448e-14)
(1.00656 -0.0117227 -2.2975e-14)
(1.01972 -0.0266195 -1.0518e-12)
(1.04291 -0.0367063 -3.17936e-12)
(1.07121 -0.0379503 -4.70281e-12)
(1.09677 -0.0289133 -3.9294e-12)
(1.11207 -0.0121486 -1.86206e-12)
(1.11328 0.0070803 -4.33889e-13)
(1.10129 0.0236176 4.66662e-14)
(1.0801 0.0344624 4.17236e-14)
(1.05445 0.0388552 6.66192e-14)
(1.02841 0.0372133 4.25771e-13)
(1.0053 0.030107 -4.06892e-13)
(0.988159 0.0178403 -5.41984e-12)
(0.980252 0.000772768 -2.39138e-12)
(0.984962 -0.0196581 6.73338e-11)
(1.00443 -0.0397223 2.79146e-10)
(1.03744 -0.0535087 5.84815e-10)
(1.0778 -0.0552901 7.73123e-10)
(1.11507 -0.0429977 6.88382e-10)
(1.13855 -0.0200282 4.18689e-10)
(1.14242 0.00640171 1.64736e-10)
(1.12774 0.0289884 2.68613e-11)
(1.10046 0.0434061 -1.25699e-11)
(1.06773 0.048911 -1.12514e-11)
(1.03523 0.0468577 -1.0327e-11)
(1.00666 0.0388606 -1.29569e-11)
(0.984502 0.0257902 3.16901e-11)
(0.971108 0.0079082 2.2141e-10)
(0.969467 -0.0140648 6.24755e-10)
(0.982755 -0.0375153 1.18536e-09)
(1.01205 -0.057337 1.75501e-09)
(1.05371 -0.0671843 2.21968e-09)
(1.09911 -0.0623563 2.51521e-09)
(1.13738 -0.0425734 2.53823e-09)
(1.15911 -0.0127937 2.18184e-09)
(1.15928 0.0186315 1.51126e-09)
(1.13906 0.0435689 7.82664e-10)
(1.10493 0.0574369 2.42849e-10)
(1.06546 0.0601012 -2.65649e-11)
(1.02773 0.0542492 -8.63128e-11)
(0.995898 0.0427727 -1.95447e-11)
(0.972258 0.0269796 1.39791e-10)
(0.959546 0.00676182 3.80491e-10)
(0.961689 -0.0174299 6.58235e-10)
(0.981646 -0.0424896 8.99106e-10)
(1.01813 -0.0626268 1.05612e-09)
(1.06455 -0.0717747 1.14012e-09)
(1.11099 -0.0665943 1.197e-09)
(1.14761 -0.0479374 1.25723e-09)
(1.16755 -0.0202208 1.29036e-09)
(1.16825 0.0103152 1.21315e-09)
(1.15109 0.03728 9.73924e-10)
(1.12045 0.0556416 6.20265e-10)
(1.08248 0.0629989 2.73588e-10)
(1.04356 0.0599244 4.78412e-11)
(1.00913 0.0486816 -7.37761e-12)
(0.983684 0.0311374 8.93401e-11)
(0.971722 0.00809577 2.75929e-10)
(0.977461 -0.0189974 4.77544e-10)
(1.00252 -0.0460896 6.36612e-10)
(1.0437 -0.0670084 7.30887e-10)
(1.09336 -0.0761921 7.68847e-10)
(1.14183 -0.0713146 7.72398e-10)
(1.18024 -0.0541277 7.64291e-10)
(1.20261 -0.0295213 7.63067e-10)
(1.20689 -0.003586 7.75727e-10)
(1.19504 0.0183742 7.87384e-10)
(1.17199 0.033061 7.63043e-10)
(1.14389 0.0392505 6.70335e-10)
(1.11656 0.0370327 5.08777e-10)
(1.09499 0.0270311 3.18782e-10)
(1.0836 0.0102009 1.59516e-10)
(1.08626 -0.0117294 7.42922e-11)
(1.10538 -0.0356458 7.15514e-11)
(1.14029 -0.0570865 1.30682e-10)
(1.18653 -0.0712851 2.206e-10)
(1.23696 -0.0747122 3.15011e-10)
(1.28362 -0.0661844 3.98095e-10)
(1.31952 -0.0470859 4.63291e-10)
(1.33965 -0.0208901 5.09757e-10)
(1.34151 0.00771425 5.39069e-10)
(1.32547 0.0337931 5.53614e-10)
(1.29469 0.0532 5.57332e-10)
(1.25454 0.0635091 5.56565e-10)
(1.21124 0.0644836 5.57094e-10)
(1.17043 0.0578617 5.56811e-10)
(1.13607 0.0464892 5.41515e-10)
(1.11014 0.0331222 4.92608e-10)
(1.09321 0.0195247 4.03649e-10)
(1.08514 0.0063883 2.91072e-10)
(1.08552 -0.00601611 1.88425e-10)
(1.09357 -0.0171006 1.28489e-10)
(1.10778 -0.0257215 1.2685e-10)
(1.12581 -0.0304792 1.77349e-10)
(1.14471 -0.0302333 2.58592e-10)
(1.16133 -0.024517 3.43456e-10)
(1.17276 -0.0137517 4.05941e-10)
(1.17675 0.000683598 4.26193e-10)
(1.17195 0.0165088 3.95905e-10)
(1.15836 0.0308753 3.21919e-10)
(1.13751 0.0410791 2.24093e-10)
(1.11232 0.0454171 1.27169e-10)
(1.08636 0.0437347 5.0959e-11)
(1.06292 0.0373305 4.15157e-12)
(1.04426 0.0282959 -1.57518e-11)
(1.03135 0.0187081 -1.77696e-11)
(1.02402 0.0100837 -1.17112e-11)
(1.02139 0.00323001 -4.48564e-12)
(1.02223 -0.00162014 7.23786e-13)
(1.02531 -0.0045795 3.4318e-12)
(1.02949 -0.0059123 4.37758e-12)
(1.03386 -0.00592049 4.45669e-12)
(1.03769 -0.00490358 4.25153e-12)
(1.04047 -0.0031619 3.98869e-12)
(1.04185 -0.00100732 3.68029e-12)
(1.04172 0.00124332 3.27962e-12)
(1.04014 0.00329658 2.77557e-12)
(1.03737 0.00492057 2.20877e-12)
(1.03377 0.00597399 1.64705e-12)
(1.02974 0.00641419 1.15445e-12)
(1.0257 0.00628592 7.71472e-13)
(1.02196 0.0056957 5.10709e-13)
(1.01877 0.00478552 3.63177e-13)
(1.01627 0.00370405 3.08448e-13)
(1.01451 0.00259258 3.23298e-13)
(1.01343 0.00156085 3.86634e-13)
(1.01295 0.000696433 4.81005e-13)
(1.01292 3.46156e-05 5.92078e-13)
(1.0132 -0.000396182 7.0804e-13)
(1.01368 -0.000623183 8.18606e-13)
(1.01412 -0.000682377 9.12499e-13)
(1.01471 -0.000479699 1.01137e-12)
(1.00013 -0.00242333 -2.29426e-18)
(1.00201 -0.00722691 -7.62505e-18)
(1.00624 -0.012084 -6.81188e-18)
(1.01258 -0.0169794 -9.05749e-18)
(1.02126 -0.021837 -6.61708e-18)
(1.03239 -0.0264016 -1.64045e-17)
(1.04596 -0.0302266 4.6584e-18)
(1.06167 -0.0324896 5.0427e-18)
(1.07853 -0.0322861 -1.54056e-16)
(1.09504 -0.0287877 1.50091e-18)
(1.10846 -0.0217215 5.71167e-16)
(1.11679 -0.0133352 8.57916e-16)
(1.11998 -0.00538069 4.9679e-16)
(1.11869 0.000138388 -1.48463e-16)
(1.11533 0.00162088 -6.10406e-16)
(1.11307 -0.000567557 -7.17934e-16)
(1.11415 -0.00442563 -5.63851e-16)
(1.11909 -0.00679883 -5.47523e-17)
(1.12577 -0.00443753 6.84413e-16)
(1.12979 0.003947 1.10836e-15)
(1.12693 0.0165628 1.02225e-15)
(1.11542 0.0296884 3.22202e-16)
(1.09644 0.0398005 -1.70491e-16)
(1.07287 0.0447372 9.81841e-16)
(1.0481 0.0436387 -4.8747e-15)
(1.02537 0.0364344 -1.36334e-14)
(1.00777 0.0234643 6.2159e-14)
(0.998307 0.00551247 5.10953e-14)
(0.999975 -0.0156622 -4.78391e-13)
(1.01493 -0.036334 7.26587e-13)
(1.04233 -0.050612 5.15387e-12)
(1.07636 -0.0525602 5.6752e-12)
(1.10712 -0.0399659 1.02731e-13)
(1.12515 -0.0165229 -3.29877e-12)
(1.12594 0.0101108 -2.38831e-12)
(1.11114 0.0326052 -6.74671e-13)
(1.08613 0.0469765 1.23329e-13)
(1.05668 0.0525421 9.36688e-13)
(1.0273 0.0501807 9.65478e-13)
(1.00127 0.0407689 -8.63751e-12)
(0.981555 0.0245891 -2.37621e-11)
(0.971465 0.00185962 5.35058e-11)
(0.974512 -0.0257469 4.52813e-10)
(0.99346 -0.053377 1.31385e-09)
(1.02844 -0.0729832 2.38053e-09)
(1.07428 -0.0762532 3.07917e-09)
(1.11948 -0.0596017 2.95063e-09)
(1.14999 -0.0275274 2.07399e-09)
(1.15669 0.00939007 1.02386e-09)
(1.14005 0.040412 2.96743e-10)
(1.10803 0.0595275 -1.12029e-11)
(1.07021 0.0662061 -6.64567e-11)
(1.03362 0.0628964 -5.03541e-11)
(1.00192 0.0521906 -1.72785e-11)
(0.976783 0.035345 1.19681e-10)
(0.960118 0.0123747 4.79843e-10)
(0.955801 -0.0164538 1.03589e-09)
(0.968875 -0.0481687 1.58424e-09)
(1.00126 -0.075732 1.9652e-09)
(1.04803 -0.0900096 2.22765e-09)
(1.09837 -0.0843787 2.51067e-09)
(1.14012 -0.0584953 2.79099e-09)
(1.16383 -0.0188939 2.79887e-09)
(1.16481 0.0234436 2.29844e-09)
(1.14401 0.0574398 1.42794e-09)
(1.1078 0.0764824 5.80769e-10)
(1.06527 0.080177 5.00754e-11)
(1.02429 0.0723785 -1.22047e-10)
(0.989454 0.0572873 -3.31839e-11)
(0.963412 0.0365358 2.14413e-10)
(0.949795 0.00947496 5.31509e-10)
(0.953629 -0.0234959 8.19672e-10)
(0.977869 -0.0576987 1.0046e-09)
(1.01977 -0.0846586 1.07905e-09)
(1.07095 -0.0960792 1.08916e-09)
(1.12039 -0.0879387 1.09516e-09)
(1.15786 -0.0620502 1.14334e-09)
(1.17652 -0.024855 1.22876e-09)
(1.1743 0.0151995 1.26259e-09)
(1.15361 0.0499821 1.1273e-09)
(1.11978 0.0734095 8.02035e-10)
(1.0793 0.0827168 4.0582e-10)
(1.03839 0.0786855 1.09336e-10)
(1.00239 0.0639605 1.81449e-11)
(0.976301 0.0405087 1.24455e-10)
(0.965544 0.00917583 3.37123e-10)
(0.974783 -0.0276953 5.49415e-10)
(1.00481 -0.0639246 6.95763e-10)
(1.05079 -0.0908888 7.65981e-10)
(1.10368 -0.101491 7.82432e-10)
(1.15331 -0.0932878 7.717e-10)
(1.19101 -0.0690841 7.53021e-10)
(1.21121 -0.035519 7.41933e-10)
(1.21215 -0.000685261 7.50838e-10)
(1.196 0.0283118 7.74059e-10)
(1.16819 0.0470603 7.75711e-10)
(1.13564 0.054109 7.09482e-10)
(1.10497 0.0498965 5.60693e-10)
(1.08174 0.0354559 3.6865e-10)
(1.0709 0.0120301 2.03117e-10)
(1.07666 -0.0180968 1.17639e-10)
(1.10097 -0.050494 1.22484e-10)
(1.14164 -0.0788054 1.92225e-10)
(1.19246 -0.0966202 2.90597e-10)
(1.2453 -0.0996902 3.893e-10)
(1.29237 -0.0870766 4.72917e-10)
(1.32743 -0.0610136 5.35604e-10)
(1.34626 -0.0261028 5.76979e-10)
(1.34674 0.0116954 5.99689e-10)
(1.32918 0.0460758 6.07597e-10)
(1.29656 0.0716356 6.05404e-10)
(1.25415 0.0851515 5.99504e-10)
(1.20832 0.0862894 5.95769e-10)
(1.16498 0.0773596 5.91933e-10)
(1.12837 0.0621355 5.7234e-10)
(1.10072 0.0442391 5.16789e-10)
(1.08275 0.0259785 4.20664e-10)
(1.07448 0.00830857 3.06799e-10)
(1.07545 -0.00829444 2.15109e-10)
(1.08463 -0.0229264 1.78373e-10)
(1.1001 -0.0340381 2.04941e-10)
(1.1191 -0.0398801 2.79986e-10)
(1.13839 -0.0391549 3.7838e-10)
(1.1548 -0.0314733 4.75105e-10)
(1.16568 -0.0175225 5.47192e-10)
(1.16916 0.000924537 5.73043e-10)
(1.16424 0.0210608 5.38095e-10)
(1.151 0.0393678 4.44654e-10)
(1.13087 0.0524386 3.14799e-10)
(1.10651 0.0580598 1.8166e-10)
(1.08133 0.0559602 7.43523e-11)
(1.05856 0.0477437 6.98794e-12)
(1.04052 0.0360712 -2.25857e-11)
(1.02825 0.0236262 -2.634e-11)
(1.02167 0.0123989 -1.78389e-11)
(1.01991 0.00347398 -6.9045e-12)
(1.02171 -0.0028153 1.67879e-12)
(1.02574 -0.00660219 6.86905e-12)
(1.0308 -0.00823468 9.40131e-12)
(1.0359 -0.00811882 1.03362e-11)
(1.0403 -0.00665836 1.04087e-11)
(1.04343 -0.00425597 9.95479e-12)
(1.04496 -0.00132812 9.08436e-12)
(1.04478 0.00170262 7.86576e-12)
(1.043 0.00444553 6.42317e-12)
(1.03991 0.00659384 4.92855e-12)
(1.03593 0.00796445 3.55095e-12)
(1.03154 0.00850817 2.41231e-12)
(1.02718 0.00829293 1.56911e-12)
(1.02321 0.00746786 1.01934e-12)
(1.01989 0.0062271 7.23311e-13)
(1.01735 0.00477124 6.26033e-13)
(1.01562 0.00328885 6.73218e-13)
(1.01465 0.0019247 8.18811e-13)
(1.0143 0.000793 1.02593e-12)
(1.01443 -6.33915e-05 1.26448e-12)
(1.01485 -0.000609256 1.50967e-12)
(1.01545 -0.000886152 1.73909e-12)
(1.01598 -0.000943929 1.93159e-12)
(1.01665 -0.000651861 2.12107e-12)
(1.00013 -0.00293495 2.22878e-18)
(1.00194 -0.00875862 7.49022e-18)
(1.00603 -0.0146857 8.30361e-18)
(1.01225 -0.0207258 5.78229e-18)
(1.0209 -0.0268173 2.33264e-17)
(1.03222 -0.0326738 -3.33455e-17)
(1.04638 -0.0377535 2.00539e-16)
(1.06324 -0.040957 -4.85337e-16)
(1.08181 -0.0410498 -1.37707e-16)
(1.10044 -0.0366778 2.90503e-15)
(1.11541 -0.0273203 3.19279e-15)
(1.12415 -0.0162022 -2.35111e-15)
(1.12665 -0.00561918 -9.64082e-15)
(1.12359 0.00164971 -1.46477e-14)
(1.11804 0.00328212 -1.87447e-14)
(1.11421 -0.00026605 -2.71856e-14)
(1.11517 -0.00626012 -4.62359e-14)
(1.12183 -0.0103254 -6.53707e-14)
(1.13154 -0.00779878 -6.05572e-14)
(1.13843 0.00322137 -3.86731e-14)
(1.13678 0.0201501 -1.85104e-14)
(1.12439 0.0376977 -6.16591e-15)
(1.10293 0.0510683 1.71737e-15)
(1.07609 0.0575504 -1.10527e-15)
(1.04787 0.0562412 -3.05113e-14)
(1.02188 0.0471829 9.30335e-14)
(1.00138 0.0307643 1.33899e-13)
(0.989755 0.00773297 -1.83563e-12)
(0.990853 -0.0200204 7.97037e-14)
(1.00821 -0.0477959 3.20255e-11)
(1.04169 -0.0674358 9.93871e-11)
(1.08391 -0.0703622 1.44507e-10)
(1.12175 -0.0533016 1.14853e-10)
(1.14308 -0.0215236 4.80193e-11)
(1.14284 0.0141189 6.16756e-12)
(1.12394 0.0435362 -4.60464e-12)
(1.09369 0.0616884 -2.13149e-12)
(1.05929 0.0682635 2.66941e-12)
(1.02568 0.0649169 -2.49742e-12)
(0.996047 0.0529784 -3.5784e-11)
(0.972983 0.0327462 -2.64916e-11)
(0.959125 0.00431236 3.25336e-10)
(0.957739 -0.0306292 1.36469e-09)
(0.973207 -0.0666705 2.96229e-09)
(1.00847 -0.0939316 4.54791e-09)
(1.0597 -0.100841 5.63139e-09)
(1.11432 -0.0808701 5.81443e-09)
(1.15517 -0.0386187 4.79235e-09)
(1.16882 0.0113968 2.93278e-09)
(1.15307 0.0533287 1.18512e-09)
(1.11694 0.0783163 1.73711e-10)
(1.07326 0.0860995 -1.52892e-10)
(1.0315 0.0809951 -1.49659e-10)
(0.995701 0.0672766 -2.18249e-11)
(0.966693 0.0466915 2.70285e-10)
(0.946374 0.0184098 7.6554e-10)
(0.94052 -0.0184281 1.28131e-09)
(0.956098 -0.0602383 1.57361e-09)
(0.994391 -0.0969274 1.63573e-09)
(1.04779 -0.115772 1.6743e-09)
(1.1031 -0.108427 1.89234e-09)
(1.14709 -0.0752905 2.33122e-09)
(1.17069 -0.0250999 2.74414e-09)
(1.17034 0.0285821 2.69101e-09)
(1.1477 0.0720847 2.00435e-09)
(1.10915 0.0967921 1.01927e-09)
(1.0637 0.101835 2.29508e-10)
(1.01946 0.0921425 -1.10861e-10)
(0.981482 0.0732064 -3.69435e-11)
(0.953272 0.0468106 2.78485e-10)
(0.939765 0.0116668 6.43489e-10)
(0.946662 -0.0314491 9.14938e-10)
(0.975889 -0.0755532 1.0459e-09)
(1.0227 -0.109184 1.0741e-09)
(1.07732 -0.12212 1.06082e-09)
(1.12847 -0.110077 1.0508e-09)
(1.16622 -0.0760025 1.07655e-09)
(1.18381 -0.0284256 1.15448e-09)
(1.17914 0.0217883 1.23404e-09)
(1.15501 0.0645466 1.18582e-09)
(1.11769 0.0927894 9.23226e-10)
(1.07432 0.103677 5.23545e-10)
(1.03125 0.0983596 1.83487e-10)
(0.993862 0.079715 6.04412e-11)
(0.96769 0.0495635 1.65011e-10)
(0.958911 0.00887214 3.85962e-10)
(0.972091 -0.0386114 5.94684e-10)
(1.00668 -0.0840889 7.24505e-10)