/*--------------------------------*- C++ -*----------------------------------*\
  =========                 |
  \\      /  F ield         | OpenFOAM: The Open Source CFD Toolbox
   \\    /   O peration     | Website:  https://openfoam.org
    \\  /    A nd           | Version:  11
     \\/     M anipulation  |
\*---------------------------------------------------------------------------*/
FoamFile
{
    format      ascii;
    class       surfaceScalarField;
    location    "15.699568";
    object      phi;
}
// * * * * * * * * * * * * * * * * * * * * * * * * * * * * * * * * * * * * * //

dimensions      [0 3 -1 0 0 0 0];

internalField   nonuniform List<scalar> 
14638
(
0.00250262
-2.61554e-06
0.00251062
-8.00891e-06
0.00252426
-1.36396e-05
0.00254363
-1.93622e-05
0.00256854
-2.49102e-05
0.00259835
-2.98136e-05
0.00263178
-3.34261e-05
0.00266663
-3.48518e-05
0.00269981
-3.31847e-05
0.00272766
-2.78472e-05
0.00274646
-1.88045e-05
0.00275437
-7.90756e-06
0.00275155
2.81727e-06
0.00274035
1.12087e-05
0.00272532
1.50266e-05
0.00271198
1.33421e-05
0.00270506
6.92171e-06
0.00270699
-1.93839e-06
0.00271689
-9.89462e-06
0.00273023
-1.33456e-05
0.00274006
-9.8214e-06
0.00273954
5.19181e-07
0.00272473
1.48017e-05
0.00269573
2.90035e-05
0.00265601
3.97184e-05
0.00261112
4.48933e-05
0.00256746
4.36588e-05
0.00253156
3.58972e-05
0.00250955
2.20096e-05
0.00250648
3.07847e-06
0.00252509
-1.86119e-05
0.00256401
-3.89233e-05
0.00261619
-5.21775e-05
0.00266948
-5.32892e-05
0.00271024
-4.07651e-05
0.00272835
-1.81071e-05
0.00272044
7.90451e-06
0.00268986
3.05815e-05
0.00264406
4.58034e-05
0.00259181
5.22522e-05
0.00254157
5.02365e-05
0.00250111
4.04655e-05
0.00247754
2.35657e-05
0.002477
5.43941e-07
0.00250302
-2.60194e-05
0.00255391
-5.0894e-05
0.00262077
-6.68586e-05
0.00268845
-6.76785e-05
0.00274019
-5.17439e-05
0.00276372
-2.35335e-05
0.00275525
8.46974e-06
0.00271944
3.58161e-05
0.00266611
5.33295e-05
0.00260637
5.9736e-05
0.00255019
5.61803e-05
0.00250587
4.43191e-05
0.00248053
2.53429e-05
0.00248009
4.38446e-07
0.00250781
-2.77161e-05
0.00256161
-5.38027e-05
0.00263225
-7.06407e-05
0.00270431
-7.20614e-05
0.00276055
-5.62415e-05
0.00278773
-2.71767e-05
0.00278089
6.84506e-06
0.00274412
3.67674e-05
0.00268789
5.62286e-05
0.00262481
6.30758e-05
0.00256631
5.85082e-05
0.00252131
4.50007e-05
0.0024966
2.47063e-05
0.00249712
-5.2563e-07
0.00252492
-2.77911e-05
0.00257703
-5.21181e-05
0.00264433
-6.72916e-05
0.00271265
-6.83258e-05
0.00276661
-5.39615e-05
0.00279416
-2.75482e-05
0.00279004
4.12365e-06
0.0027568
3.32364e-05
0.0027033
5.34979e-05
0.00264154
6.17614e-05
0.00258342
5.81236e-05
0.00253872
4.4697e-05
0.00251459
2.41274e-05
0.00251545
-8.59368e-07
0.00254218
-2.67298e-05
0.0025908
-4.86198e-05
0.00265206
-6.1258e-05
0.00271308
-6.10195e-05
0.00276072
-4.76443e-05
0.00278517
-2.44447e-05
0.00278221
2.96058e-06
0.00275372
2.84849e-05
0.00270655
4.71709e-05
0.00265047
5.60801e-05
0.00259605
5.44245e-05
0.00255295
4.31018e-05
0.00252888
2.40667e-05
0.00252873
1.46643e-07
0.00255339
-2.46571e-05
0.00259866
-4.52738e-05
0.00265542
-5.676e-05
0.00271157
-5.61422e-05
0.00275526
-4.36953e-05
0.00277807
-2.28078e-05
0.00277668
1.39441e-06
0.00275289
2.37811e-05
0.00271241
4.04856e-05
0.00266312
4.92893e-05
0.00261378
4.93394e-05
0.00257305
4.07278e-05
0.00254867
2.43806e-05
0.00254627
2.3992e-06
0.00256779
-2.15201e-05
0.00261015
-4.23573e-05
0.00266523
-5.50764e-05
0.00272165
-5.64248e-05
0.00276785
-4.61955e-05
0.0027951
-2.72508e-05
0.00279947
-4.37392e-06
0.00278208
1.73921e-05
0.0027479
3.41824e-05
0.00270395
4.39424e-05
0.00265782
4.61331e-05
0.00261686
4.09588e-05
0.00258802
2.88409e-05
0.00257739
1.06324e-05
0.00258902
-1.16267e-05
0.00262328
-3.42666e-05
0.00267588
-5.25972e-05
0.0027383
-6.24213e-05
0.00279989
-6.15905e-05
0.00285063
-5.07375e-05
0.00288355
-3.292e-05
0.00289605
-1.25005e-05
0.00288986
6.18665e-06
0.00286994
1.99234e-05
0.00284276
2.71797e-05
0.00281469
2.80729e-05
0.00279083
2.38597e-05
0.00277455
1.62768e-05
0.00276747
7.08143e-06
0.00276954
-2.07169e-06
0.00277914
-9.60465e-06
0.00279327
-1.41286e-05
0.00280806
-1.47874e-05
0.00281969
-1.16335e-05
0.00282546
-5.76788e-06
0.00282453
9.34892e-07
0.0028182
6.3233e-06
0.00280958
8.62817e-06
0.0028029
6.67755e-06
0.00280256
3.39096e-07
0.00281278
-1.02208e-05
0.00283619
-2.34104e-05
0.00287505
-3.88632e-05
0.00292778
-5.27216e-05
0.00299439
-6.66169e-05
-7.43886e-05
0.0025026
-5.2188e-06
0.00251058
-1.59898e-05
0.0025242
-2.72576e-05
0.00254359
-3.8751e-05
0.00256863
-4.99487e-05
0.00259873
-5.99174e-05
0.00263267
-6.73591e-05
0.00266824
-7.04278e-05
0.0027023
-6.72411e-05
0.00273096
-5.65122e-05
0.00275024
-3.8082e-05
0.00275815
-1.58137e-05
0.0027548
6.16587e-06
0.00274258
2.34298e-05
0.00272632
3.12843e-05
0.0027119
2.77637e-05
0.00270441
1.44145e-05
0.00270653
-4.06252e-06
0.00271741
-2.07732e-05
0.00273227
-2.82056e-05
0.00274359
-2.1144e-05
0.002744
1.06421e-07
0.00272929
2.95167e-05
0.00269959
5.86993e-05
0.00265865
8.06579e-05
0.00261226
9.12827e-05
0.00256702
8.89029e-05
0.0025296
7.33192e-05
0.00250632
4.52824e-05
0.00250257
6.82934e-06
0.00252153
-3.75684e-05
0.0025621
-7.94888e-05
0.00261701
-0.000107095
0.00267336
-0.000109634
0.00271648
-8.38844e-05
0.00273555
-3.71765e-05
0.00272716
1.62934e-05
0.00269509
6.26533e-05
0.00264734
9.35521e-05
0.00259305
0.000106537
0.00254084
0.00010245
0.00249851
8.27915e-05
0.00247339
4.86855e-05
0.00247206
1.87938e-06
0.00249866
-5.26186e-05
0.00255183
-0.000104068
0.00262228
-0.000137307
0.00269376
-0.000139154
0.00274824
-0.000106225
0.00277268
-4.79814e-05
0.00276333
1.78253e-05
0.00272544
7.37061e-05
0.00266961
0.000109162
0.00260746
0.000121886
0.00254912
0.000114521
0.00250286
9.05772e-05
0.00247583
5.23727e-05
0.00247424
2.02606e-06
0.00250185
-5.53224e-05
0.00255701
-0.000108963
0.00263046
-0.000144095
0.00270614
-0.000147744
0.00276571
-0.000115812
0.00279489
-5.63517e-05
0.00278823
1.35042e-05
0.00275005
7.4942e-05
0.0026915
0.000114782
0.00262588
0.000128696
0.002565
0.000119386
0.00251789
9.21138e-05
0.00249137
5.12309e-05
0.00249063
2.1177e-07
0.00251817
-5.53277e-05
0.00257134
-0.000105289
0.00264081
-0.000136767
0.00271182
-0.000139338
0.00276822
-0.000110357
0.00279739
-5.67207e-05
0.00279384
7.67201e-06
0.00276018
6.69037e-05
0.00270547
0.000108202
0.00264203
0.000125204
0.00258202
0.000118132
0.00253549
9.12304e-05
0.0025099
4.97144e-05
0.00251013
-1.08716e-06
0.00253744
-5.40421e-05
0.00258785
-9.90261e-05
0.00265156
-0.000124965
0.00271486
-0.000124322
0.00276394
-9.67302e-05
0.00278876
-4.92616e-05
0.00278529
6.43433e-06
0.00275576
5.80085e-05
0.00270734
9.5592e-05
0.00264997
0.000113452
0.00259429
0.000110107
0.0025501
8.72936e-05
0.00252542
4.87427e-05
0.00252558
-1.05313e-08
0.00255172
-5.08046e-05
0.00259949
-9.3035e-05
0.00265905
-0.00011632
0.00271742
-0.000114519
0.00276213
-8.84075e-05
0.00278458
-4.52505e-05
0.00278173
4.23913e-06
0.00275595
4.95657e-05
0.00271342
8.30112e-05
0.0026624
0.000100316
0.00261178
9.99545e-05
0.00257035
8.21567e-05
0.00254604
4.86871e-05
0.00254476
3.68645e-06
0.00256853
-4.52935e-05
0.00261399
-8.78141e-05
0.00267231
-0.000113399
0.00273129
-0.000115402
0.0027787
-9.36103e-05
0.00280562
-5.41701e-05
0.00280832
-7.07646e-06
0.00278841
3.73099e-05
0.00275141
7.11748e-05
0.00270487
9.04861e-05
0.00265668
9.43257e-05
0.00261441
8.3224e-05
0.00258521
5.80437e-05
0.00257537
2.0469e-05
0.00258907
-2.53258e-05
0.0026265
-7.16967e-05
0.00268277
-0.000108866
0.00274855
-0.000128198
0.00281242
-0.000125463
0.00286393
-0.000102246
0.00289608
-6.50723e-05
0.00290659
-2.30063e-05
0.00289767
1.51076e-05
0.00287478
4.28118e-05
0.00284484
5.71212e-05
0.00281452
5.83883e-05
0.00278915
4.92297e-05
0.00277225
3.31764e-05
0.00276555
1.37823e-05
0.00276903
-5.55521e-06
0.00278093
-2.15006e-05
0.00279785
-3.10443e-05
0.00281536
-3.23003e-05
0.00282909
-2.53609e-05
0.00283591
-1.25909e-05
0.00283485
1.99366e-06
0.00282734
1.38368e-05
0.00281674
1.92272e-05
0.00280765
1.57677e-05
0.00280478
3.20584e-06
0.0028126
-1.8038e-05
0.00283392
-4.47288e-05
0.00287114
-7.60834e-05
0.0029227
-0.000104284
0.00298885
-0.000132765
-0.000148777
0.00250258
-7.7968e-06
0.0025105
-2.39074e-05
0.00252406
-4.0824e-05
0.00254349
-5.81776e-05
0.00256876
-7.52226e-05
0.00259942
-9.0579e-05
0.00263435
-0.00010229
0.00267138
-0.000107452
0.0027072
-0.000103067
0.00273754
-8.68488e-05
0.00275779
-5.83283e-05
0.0027657
-2.37277e-05
0.00276129
1.05756e-05
0.00274704
3.76797e-05
0.00272833
4.99923e-05
0.00271181
4.42921e-05
0.00270327
2.29462e-05
0.00270591
-6.69719e-06
0.00271889
-3.37598e-05
0.00273687
-4.61823e-05
0.00275116
-3.54352e-05
0.00275324
-1.97166e-06
0.00273837
4.43877e-05
0.00270693
9.01408e-05
0.00266326
0.000124328
0.00261373
0.000140813
0.00256533
0.000137303
0.00252503
0.000113619
0.00249953
7.0778e-05
0.00249483
1.15315e-05
0.00251491
-5.76479e-05
0.00255918
-0.000123765
0.00261993
-0.000167836
0.00268253
-0.000172235
0.00273018
-0.000131534
0.00275065
-5.76471e-05
0.00274056
2.63796e-05
0.00270481
9.8409e-05
0.00265267
0.000145684
0.00259412
0.000165089
0.00253804
0.000158536
0.00249231
0.000128516
0.00246458
7.64204e-05
0.00246219
4.26321e-06
0.00249035
-8.07791e-05
0.0025483
-0.000162011
0.00262609
-0.000215101
0.00270539
-0.00021845
0.00276544
-0.000166275
0.0027914
-7.39413e-05
0.00277954
2.96829e-05
0.00273664
0.000116601
0.00267515
0.000170656
0.00260789
0.000189143
0.00254533
0.000177085
0.00249551
0.000140392
0.00246542
8.24699e-05
0.00246158
5.8611e-06
0.00248867
-8.24136e-05
0.00254602
-0.000166311
0.00262454
-0.000222613
0.00270706
-0.000230269
0.00277321
-0.000181955
0.00280659
-8.97374e-05
0.00280062
1.94771e-05
0.00275986
0.0001157
0.00269677
0.000177871
0.00262615
0.00019932
0.00256071
0.000184822
0.00250975
0.000143074
0.00248025
8.073e-05
0.00247801
2.45701e-06
0.00250636
-8.36765e-05
0.00256294
-0.000161878
0.00263758
-0.000211403
0.00271384
-0.000215594
0.00277405
-0.000170568
0.0028049
-8.75688e-05
0.00280095
1.16208e-05
0.00276529
0.000102562
0.00270761
0.000165881
0.00264075
0.000192064
0.00257732
0.000181558
0.00252782
0.000140731
0.0025004
7.71369e-05
0.0025008
-1.48358e-06
0.00253083
-8.40752e-05
0.0025861
-0.000154294
0.00265536
-0.000194232
0.00272311
-0.000192067
0.00277423
-0.000147852
0.00279844
-7.34669e-05
0.00279238
1.2486e-05
0.00275938
9.10174e-05
0.00270745
0.000147517
0.00264702
0.00017388
0.00258891
0.000168223
0.00254314
0.000133058
0.0025183
7.35839e-05
0.00252036
-2.07162e-06
0.00255068
-8.11193e-05
0.00260413
-0.000146492
0.0026694
-0.000181586
0.00273184
-0.000176959
0.00277788
-0.000134446
0.00279874
-6.61111e-05
0.0027921
1.08839e-05
0.00276146
8.02026e-05
0.00271418
0.000130291
0.00265928
0.000155213
0.00260608
0.000153157
0.00256361
0.000124621
0.00254018
7.21198e-05
0.002542
1.86358e-06
0.00257099
-7.42793e-05
0.00262287
-0.00013969
0.00268735
-0.000177884
0.00275076
-0.000178807
0.00279989
-0.000142742
0.00282557
-7.98504e-05
0.00282453
-6.03363e-06
0.00279929
6.25449e-05
0.00275652
0.000113943
0.00270473
0.000142279
0.00265251
0.000146545
0.00260791
0.000127826
0.00257847
8.74864e-05
0.00257083
2.81014e-05
0.00258918
-4.36777e-05
0.00263304
-0.000115556
0.00269619
-0.00017201
0.00276775
-0.000199759
0.00283512
-0.000192836
0.00288732
-0.00015444
0.00291747
-9.52268e-05
0.0029239
-2.94365e-05
0.00290968
2.93242e-05
0.00288119
7.13049e-05
0.00284613
9.21778e-05
0.00281179
9.27304e-05
0.0027839
7.71189e-05
0.0027663
5.07771e-05
0.00276092
1.91614e-05
0.00276772
-1.23526e-05
0.00278448
-3.8261e-05
0.00280692
-5.34833e-05
0.00282947
-5.48523e-05
0.00284671
-4.25972e-05
0.00285487
-2.07523e-05
0.00285287
3.99501e-06
0.00284248
2.4229e-05
0.00282768
3.40275e-05
0.00281373
2.97102e-05
0.00280594
1.09992e-05
0.0028092
-2.13004e-05
0.00282661
-6.21335e-05
0.00286095
-0.000110428
0.00291052
-0.000153849
0.00297649
-0.000198736
-0.0002234
0.00250254
-1.03324e-05
0.00251034
-3.17161e-05
0.00252381
-5.42884e-05
0.00254326
-7.76267e-05
0.00256885
-0.000100811
0.00260031
-0.000122046
0.00263674
-0.000138714
0.00267598
-0.000146696
0.00271458
-0.000141666
0.00274757
-0.000119838
0.00276937
-8.01274e-05
0.00277735
-3.17059e-05
0.00277133
1.65979e-05
0.0027539
5.51003e-05
0.00273133
7.25717e-05
0.00271143
6.41834e-05
0.00270119
3.31885e-05
0.00270456
-1.00664e-05
0.00272086
-5.00559e-05
0.0027438
-6.9122e-05
0.00276282
-5.44588e-05
0.00276752
-6.66717e-06
0.00275233
5.95731e-05
0.00271807
0.000124404
0.00267008
0.000172312
0.00261568
0.000195218
0.00256245
0.000190534
0.00251777
0.000158299
0.00248886
9.96846e-05
0.00248265
1.77415e-05
0.00250446
-7.94512e-05
0.00255461
-0.000173925
0.00262466
-0.00023788
0.00269719
-0.000244769
0.00275189
-0.00018623
0.00277431
-8.0067e-05
0.00276122
3.94707e-05
0.00271939
0.000140237
0.00266026
0.000204817
0.00259509
0.000230253
0.00253318
0.00022045
0.00248241
0.000179281
0.00245064
0.000108193
0.00244595
8.95596e-06
0.00247475
-0.00010958
0.0025376
-0.000224865
0.00262493
-0.000302428
0.00271638
-0.000309896
0.00278689
-0.000236793
0.00281752
-0.000104563
0.00280334
4.3855e-05
0.00275324
0.000166701
0.00268297
0.000240931
0.00260776
0.00026435
0.00253876
0.000246089
0.00248349
0.000195659
0.00244839
0.000117567
0.00244058
1.36727e-05
0.00246651
-0.000108343
0.00252713
-0.000226929
0.00261313
-0.000308615
0.00270521
-0.000322343
0.00278019
-0.000256939
0.00281942
-0.000128974
0.002815
2.38993e-05
0.00277151
0.000159197
0.00270272
0.000246657
0.00262531
0.000276729
0.00255339
0.000256738
0.00249693
0.000199536
0.00246358
0.000114086
0.00246036
5.67385e-06
0.0024918
-0.000115118
0.00255529
-0.00022537
0.00263853
-0.000294638
0.0027222
-0.000299269
0.00278657
-0.000234938
0.00281784
-0.000118835
0.00281137
1.8095e-05
0.00277146
0.000142466
0.00270884
0.000228501
0.002637
0.000263907
0.00256898
0.000249579
0.00251587
0.000193835
0.00248691
0.000106106
0.00248904
-3.6138e-06
0.0025245
-0.00011954
0.00258776
-0.000217558
0.00266523
-0.0002717
0.00273891
-0.000265742
0.00279213
-0.000201078
0.00281445
-9.57802e-05
0.00280357
2.33673e-05
0.00276444
0.00013014
0.00270659
0.000205364
0.00264128
0.000239193
0.00257967
0.000229834
0.00253218
0.00018055
0.00250808
9.76831e-05
0.00251401
-7.99924e-06
0.0025511
-0.000118214
0.00261281
-0.000208197
0.00268563
-0.000254411
0.00275299
-0.000244317
0.00280019
-0.000181648
0.00281839
-8.43071e-05
0.00280611
2.31609e-05
0.00276835
0.00011796
0.00271404
0.000184601
0.00265341
0.000215847
0.00259649
0.000210079
0.00255282
0.000168284
0.0025312
9.3745e-05
0.00253804
-4.97752e-06
0.00257464
-0.000110878
0.00263514
-0.000200191
0.00270726
-0.000250005
0.00277567
-0.000247212
0.0028263
-0.000193376
0.00284992
-0.000103468
0.00284381
7.44008e-08
0.00281155
9.48039e-05
0.00276112
0.00016438
0.00270228
0.000201116
0.00264465
0.000204173
0.00259705
0.000175425
0.00256767
0.000116867
0.00256356
3.22168e-05
0.00258858
-6.87058e-05
0.00264097
-0.000167946
0.0027125
-0.000243538
0.00279039
-0.000277646
0.00286089
-0.000263334
0.00291279
-0.000206343
0.00293969
-0.000122132
0.00294072
-3.04611e-05
0.00291989
5.01577e-05
0.00288455
0.000106645
0.00284332
0.000133404
0.00280424
0.000131808
0.00277366
0.000107696
0.00275593
6.85159e-05
0.00275325
2.18321e-05
0.00276544
-2.45334e-05
0.00278939
-6.22133e-05
0.00281935
-8.34474e-05
0.00284812
-8.3616e-05
0.00286897
-6.34531e-05
0.00287758
-2.93617e-05
0.00287299
8.58513e-06
0.00285762
3.96027e-05
0.00283632
5.53205e-05
0.00281524
5.07899e-05
0.00280037
2.58768e-05
0.00279715
-1.80796e-05
0.00280907
-7.40587e-05
0.00283958
-0.000140935
0.0028868
-0.000201068
0.00295328
-0.000265214
-0.000298705
0.00250247
-1.28027e-05
0.00251011
-3.93532e-05
0.00252339
-6.75703e-05
0.0025428
-9.70408e-05
0.00256873
-0.000126742
0.00260121
-0.000154522
0.00263962
-0.000177119
0.00268191
-0.00018899
0.00272444
-0.000184192
0.00276123
-0.000156635
0.00278525
-0.000104148
0.00279335
-3.97985e-05
0.00278505
2.48926e-05
0.0027631
7.70543e-05
0.00273495
0.000100714
0.00271022
8.89208e-05
0.0026975
4.59042e-05
0.00270193
-1.44901e-05
0.00272303
-7.11591e-05
0.00275322
-9.93095e-05
0.00277914
-8.03796e-05
0.00278758
-1.51089e-05
0.00277183
7.53218e-05
0.00273344
0.000162793
0.00267934
0.000226412
0.00261817
0.000256384
0.00255831
0.000250394
0.00250758
0.000209035
0.0024738
0.000133464
0.00246524
2.62966e-05
0.00248941
-0.000103613
0.00254826
-0.000232777
0.00263212
-0.000321745
0.00271908
-0.000331723
0.00278348
-0.000250629
0.00280798
-0.000104573
0.00278998
5.74699e-05
0.00273919
0.000191029
0.00267014
0.000273864
0.00259592
0.000304477
0.00252622
0.000290154
0.00246862
0.000236874
0.00243057
0.000146248
0.00242025
1.92749e-05
0.00244565
-0.000134986
0.00251041
-0.00028962
0.00260724
-0.000399256
0.00271455
-0.000417208
0.002802
-0.000324247
0.00284385
-0.000146414
0.00283124
5.64666e-05
0.00277423
0.000223715
0.00269309
0.000322069
0.00260723
0.000350213
0.00252935
0.000323965
0.00246643
0.000258582
0.00242441
0.000159587
0.00241194
2.61384e-05
0.0024384
-0.000134798
0.002506
-0.000294532
0.0026033
-0.000405915
0.00270693
-0.000425974
0.00279052
-0.000340527
0.00283417
-0.000172625
0.00282996
2.81173e-05
0.00278288
0.000206274
0.0027077
0.000321837
0.00262253
0.000361896
0.00254287
0.000336402
0.00247983
0.000262575
0.00244259
0.000151321
0.00244012
8.14425e-06
0.00247784
-0.000152839
0.00255166
-0.000299188
0.00264593
-0.00038891
0.00273797
-0.000391306
0.00280599
-0.000302958
0.00283596
-0.000148808
0.00282452
2.95432e-05
0.00277785
0.000189131
0.00270825
0.000298101
0.00263003
0.000342123
0.00255667
0.000322948
0.00249996
0.000250544
0.00247045
0.000135608
0.00247634
-9.50281e-06
0.00251966
-0.000162861
0.00259285
-0.00029075
0.00267947
-0.000358316
0.00275916
-0.000345429
0.00281402
-0.000255938
0.00283353
-0.00011529
0.00281642
4.04743e-05
0.00276942
0.000177141
0.00270386
0.000270923
0.00263225
0.000310807
0.00256642
0.000295661
0.00251741
0.000229563
0.00249525
0.000119835
0.00250694
-1.96804e-05
0.00255267
-0.000163944
0.00262374
-0.000279271
0.00270428
-0.000334953
0.00277605
-0.000316082
0.00282368
-0.000229284
0.00283848
-9.91035e-05
0.00281976
4.18811e-05
0.00277388
0.000163841
0.00271139
0.000247087
0.00264398
0.000283264
0.00258273
0.000271324
0.00253802
0.000212995
0.0025192
0.000112564
0.0025326
-1.83819e-05
0.00257825
-0.000156525
0.00264807
-0.000270015
0.0027276
-0.000329527
0.00280014
-0.000319751
0.00285128
-0.000244521
0.00287206
-0.000124253
0.00286038
1.17619e-05
0.00282067
0.00013451
0.00276207
0.000222981
0.00269562
0.000267565
0.00263213
0.000267665
0.00258148
0.000226075
0.00255275
0.000145596
0.00255334
3.16276e-05
0.00258636
-0.000101725
0.00264803
-0.000229617
0.00272765
-0.000323157
0.00281057
-0.000360568
0.00288237
-0.000335132
0.0029322
-0.000256169
0.00295452
-0.000144453
0.00294939
-2.53307e-05
0.00292169
7.78576e-05
0.00287958
0.000148748
0.00283248
0.000180504
0.00278918
0.00017511
0.00275679
0.000140093
0.00274031
8.49894e-05
0.0027423
1.98398e-05
0.00276206
-4.42865e-05
0.00279502
-9.51719e-05
0.00283334
-0.000121771
0.0028679
-0.000118172
0.00289085
-8.64054e-05
0.0028977
-3.62117e-05
0.00288808
1.82077e-05
0.00286536
6.23138e-05
0.00283547
8.52159e-05
0.00280542
8.084e-05
0.00278189
4.94081e-05
0.00277093
-7.11857e-06
0.00277662
-7.97498e-05
0.00280321
-0.000167526
0.00284866
-0.000246525
0.00291659
-0.000333137
-0.000374753
0.00250237
-1.51776e-05
0.00250976
-4.67333e-05
0.00252273
-8.05487e-05
0.002542
-0.000116303
0.00256822
-0.00015297
0.00260185
-0.000188148
0.0026427
-0.000217971
0.00268895
-0.000235238
0.00273679
-0.000232034
0.00277884
-0.000198681
0.00280596
-0.000131268
0.00281436
-4.82014e-05
0.00280313
3.61195e-05
0.00277504
0.000105152
0.00273923
0.000136522
0.00270772
0.000120433
0.00269138
6.22392e-05
0.00269702
-2.01244e-05
0.00272465
-9.87906e-05
0.00276493
-0.000139593
0.00280052
-0.000115963
0.00281414
-2.87385e-05
0.00279755
9.19126e-05
0.0027535
0.000206848
0.00269122
0.000288693
0.0026212
0.0003264
0.00255275
0.000318843
0.00249407
0.000267717
0.00245363
0.000173902
0.00244157
3.83626e-05
0.00246849
-0.000130537
0.00253879
-0.000303081
0.00264159
-0.000424543
0.00274889
-0.000439022
0.00282693
-0.000328673
0.00285379
-0.000131427
0.00282818
8.30772e-05
0.00276462
0.00025459
0.00268222
0.000356269
0.00259638
0.000390312
0.002517
0.000369535
0.00245049
0.00030338
0.00240274
0.000194007
0.002382
4.00117e-05
0.0024
-0.000152989
0.00246567
-0.000355286
0.00257352
-0.000507104
0.0026989
-0.000542587
0.00280614
-0.000431489
0.00286359
-0.000203871
0.00285736
6.27004e-05
0.00279634
0.000284737
0.00270445
0.000413961
0.0026062
0.000448462
0.00251713
0.000413028
0.00244447
0.000331244
0.00239474
0.000209324
0.00237943
4.14457e-05
0.00241079
-0.000166163
0.00249023
-0.000373972
0.00260182
-0.000517504
0.00271734
-0.00054149
0.00280763
-0.000430819
0.00285252
-0.00021752
0.00284536
3.52817e-05
0.0027926
0.000259034
0.00271004
0.000404396
0.00261663
0.000455311
0.00252878
0.000424246
0.00245911
0.000332247
0.00241907
0.000191363
0.00241967
7.54184e-06
0.00246618
-0.000199345
0.00255164
-0.000384649
0.00265672
-0.000493986
0.00275609
-0.000490679
0.00282678
-0.00037365
0.00285464
-0.00017667
0.00283721
4.69784e-05
0.00278248
0.000243857
0.00270462
0.000375958
0.00261915
0.0004276
0.00254018
0.000401918
0.00248045
0.000310272
0.00245187
0.000164185
0.00246335
-2.09836e-05
0.00251578
-0.000215286
0.00259887
-0.000373843
0.00269349
-0.000452935
0.00277773
-0.000429671
0.00283325
-0.000311452
0.00284965
-0.00013169
0.00282631
6.38101e-05
0.00277127
0.000232181
0.00269755
0.00034464
0.00261915
0.000389213
0.00254899
0.000365825
0.00249903
0.000279514
0.00248007
0.000138796
0.00249885
-3.84609e-05
0.00255386
-0.000218946
0.00263377
-0.000359183
0.00272057
-0.000421753
0.00279507
-0.00039058
0.00284195
-0.000276164
0.00285294
-0.000110093
0.00282797
6.6848e-05
0.00277434
0.000217467
0.00270392
0.000317514
0.00262979
0.000357389
0.00256439
0.00033672
0.0025192
0.000258185
0.00250418
0.000127593
0.0025251
-3.93042e-05
0.00258004
-0.000211468
0.00265835
-0.000348323
0.00274357
-0.000414745
0.0028183
-0.000394488
0.00286846
-0.000294673
0.00288572
-0.000141517
0.00286858
2.89015e-05
0.00282207
0.000181023
0.00275607
0.000288978
0.00268266
0.000340978
0.00261384
0.000336482
0.00256079
0.000279124
0.00253364
0.000172749
0.00253993
2.53344e-05
0.00258142
-0.000143216
0.00265173
-0.000299925
0.00273756
-0.00040899
0.00282286
-0.000445869
0.00289326
-0.000405525
0.00293888
-0.00030179
0.00295539
-0.000160966
0.00294382
-1.3763e-05
0.00290976
0.000111925
0.00286191
0.000196594
0.00281025
0.000232166
0.00276425
0.000221109
0.00273186
0.000172483
0.00271886
9.7985e-05
0.00272792
1.07812e-05
0.00275723
-7.35916e-05
0.00279998
-0.000137921
0.00284582
-0.000167615
0.00288389
-0.00015624
0.00290586
-0.000108376
0.00290779
-3.81425e-05
0.0028904
3.55982e-05
0.00285826
9.4455e-05
0.00281829
0.000125185
0.00277828
0.000120848
0.00274551
8.21813e-05
0.00272669
1.16981e-05
0.00272671
-7.97722e-05
0.00275047
-0.000191286
0.00279546
-0.000291516
0.002865
-0.000402668
-0.00045041
0.00250224
-1.7418e-05
0.00250925
-5.37432e-05
0.00252175
-9.30509e-05
0.00254067
-0.000135219
0.00256705
-0.00017935
0.00260186
-0.00022296
0.00264558
-0.000261688
0.00269677
-0.00028643
0.00275162
-0.000286882
0.0028007
-0.000247764
0.00283193
-0.000162496
0.0028408
-5.70772e-05
0.0028258
5.11184e-05
0.00278959
0.000141371
0.00274354
0.000182563
0.00270292
0.00016106
0.00268163
8.35203e-05
0.0026888
-2.72862e-05
0.00272524
-0.000135238
0.00277935
-0.000193702
0.00282817
-0.000164777
0.00284872
-4.92883e-05
0.0028307
0.000109931
0.00277886
0.000258683
0.00270585
0.000361705
0.00262463
0.000407622
0.00254548
0.000397989
0.00247679
0.000336411
0.00242763
0.000223061
0.00240992
5.60701e-05
0.00243667
-0.000157289
0.00251506
-0.000381467
0.00263687
-0.000546349
0.00277147
-0.000573624
0.00287365
-0.000430855
0.00290961
-0.000167388
0.00287652
0.000116173
0.00279635
0.000334759
0.00269643
0.000456185
0.00259617
0.000490573
0.00250521
0.000460493
0.00242732
0.000381276
0.00236616
0.000255159
0.00233249
7.36862e-05
0.00234535
-0.000165854
0.00241844
-0.000428368
0.00254283
-0.000631502
0.00268662
-0.000686373
0.00280961
-0.000554477
0.00287876
-0.000273024
0.00287842
6.30406e-05
0.0028154
0.000347754
0.00271445
0.000514913
0.00260376
0.000559156
0.00250216
0.000514629
0.00241866
0.000414747
0.00236217
0.000265812
0.00234759
5.60255e-05
0.00238804
-0.000206611
0.00248126
-0.000467199
0.00260615
-0.000642388
0.00273118
-0.000666528
0.00282607
-0.000525708
0.00287056
-0.000262008
0.00285885
4.69972e-05
0.00279903
0.000318854
0.00270836
0.000495063
0.00260659
0.000557078
0.0025109
0.000519939
0.00243555
0.000407598
0.00239448
0.000232433
0.00240007
1.94613e-06
0.00245603
-0.000255306
0.00255178
-0.000480397
0.00266491
-0.00060711
0.00276892
-0.000594687
0.00284086
-0.000445597
0.00286671
-0.000202513
0.00284415
6.95373e-05
0.00278209
0.000305909
0.00269627
0.000461783
0.00260364
0.000520229
0.00251948
0.000486082
0.00245776
0.000371988
0.00243158
0.000190367
0.00244973
-3.91393e-05
0.00251104
-0.000276589
0.00260227
-0.000465079
0.00270227
-0.000552932
0.00278865
-0.000516046
0.00284347
-0.000366278
0.0028568
-0.000145015
0.00282826
9.23464e-05
0.00276647
0.000293969
0.0026856
0.000425514
0.00260106
0.000473753
0.0025272
0.000439684
0.00247724
0.000329476
0.00246253
0.000153507
0.00248893
-6.48654e-05
0.00255254
-0.000282556
0.0026394
-0.000446038
0.00272994
-0.0005123
0.0028049
-0.00046554
0.00284967
-0.000320932
0.00285668
-0.000117109
0.00282632
9.72134e-05
0.00276632
0.00027747
0.00268932
0.000394512
0.00260961
0.000437097
0.00254103
0.000405297
0.00249635
0.000302866
0.00248599
0.000137955
0.00251466
-6.79758e-05
0.00257797
-0.000274771
0.00266267
-0.000433026
0.00275093
-0.000503011
0.00282545
-0.000469006
0.00287303
-0.000342247
0.00288629
-0.000154776
0.00286426
5.09281e-05
0.00281224
0.000233039
0.00274045
0.000360768
0.00266162
0.000419815
0.00258884
0.000409256
0.00253467
0.000333299
0.00251026
0.000197157
0.00252293
1.26614e-05
0.00257244
-0.00019272
0.00264947
-0.000376956
0.00273848
-0.000498004
0.00282282
-0.000530208
0.00288894
-0.000471643
0.00292842
-0.000341269
0.00293826
-0.000170809
0.00292039
4.10392e-06
0.00288091
0.00015141
0.00282884
0.000248666
0.0027745
0.000286508
0.00272798
0.000267625
0.00269812
0.000202341
0.00269136
0.000104746
0.00270989
-7.74859e-06
0.00274984
-0.000113536
0.00280142
-0.000189504
0.00285186
-0.000218062
0.00288942
-0.000193799
0.00290637
-0.00012532
0.0029001
-3.18711e-05
0.00287275
6.2945e-05
0.00283005
0.000137159
0.00277968
0.000175549
0.00272995
0.000170578
0.00268868
0.000123455
0.00266338
3.69987e-05
0.00265973
-7.61269e-05
0.0026825
-0.000214055
0.00272797
-0.000336987
0.00279749
-0.000472188
-0.00052311
0.00250206
-1.94747e-05
0.00250855
-6.02369e-05
0.00252034
-0.000104842
0.00253862
-0.000153494
0.00256487
-0.000205599
0.00260076
-0.000258857
0.00264767
-0.000308595
0.0027049
-0.000343657
0.0027689
-0.000350886
0.00282738
-0.000306239
0.00286415
-0.000199266
0.00287402
-6.69477e-05
0.00285443
7.07057e-05
0.00280756
0.000188242
0.00274786
0.000242262
0.00269491
0.000214009
0.0026666
0.000111826
0.00267525
-3.59336e-05
0.00272322
-0.000183202
0.00279602
-0.000266507
0.00286286
-0.000231613
0.00289265
-7.90792e-05
0.00287246
0.00013012
0.00281021
0.000320937
0.00272343
0.000448478
0.00262836
0.000502696
0.00253625
0.000490097
0.00245545
0.000417209
0.00239514
0.000283375
0.00236649
8.47201e-05
0.00238163
-0.000172435
0.0024529
-0.000452735
0.00258388
-0.000677328
0.00274979
-0.000739532
0.00289368
-0.00057474
0.00295895
-0.000232667
0.00292981
0.000145317
0.00283417
0.000430394
0.00271322
0.000577141
0.00259522
0.000608576
0.0024904
0.000565308
0.0023987
0.000472972
0.00232265
0.000331215
0.00227926
0.00011707
0.00229569
-0.000182275
0.00238483
-0.000517511
0.00252886
-0.000775535
0.00268813
-0.00084564
0.00282027
-0.000686624
0.00289377
-0.000346515
0.00289447
6.23363e-05
0.00282864
0.000413586
0.00272014
0.000623408
0.00259828
0.000681018
0.00248439
0.000628519
0.00239059
0.000508543
0.00232967
0.000326732
0.00231909
6.66062e-05
0.00237003
-0.000257545
0.00247488
-0.000572056
0.00260848
-0.000775982
0.00273861
-0.00079666
0.00283583
-0.000622933
0.00288004
-0.000306217
0.002865
6.20405e-05
0.0027992
0.00038465
0.00270116
0.000593111
0.00259174
0.000666494
0.00248924
0.000622436
0.00240983
0.000487011
0.00236957
0.000272693
0.00238105
-9.53898e-06
0.00244533
-0.000319585
0.00254829
-0.000583349
0.00266557
-0.000724395
0.00277088
-0.000700001
0.00284233
-0.000517046
0.00286638
-0.000226563
0.00284044
9.54772e-05
0.00277327
0.000373078
0.0026813
0.000553754
0.00258282
0.00061871
0.00249463
0.000574273
0.00243226
0.000434359
0.00240963
0.000212994
0.00243459
-6.40926e-05
0.00250327
-0.000345271
0.00259983
-0.000561639
0.002702
-0.000655103
0.00278788
-0.000601928
0.00284063
-0.000419024
0.00285098
-0.000155373
0.00281865
0.000124676
0.00275218
0.000360441
0.00266617
0.000511524
0.00257714
0.000562785
0.00250095
0.000515878
0.00245217
0.000378255
0.00244244
0.000163238
0.00247611
-9.85397e-05
0.00254657
-0.000353016
0.0026376
-0.000537072
0.00272897
-0.00060367
0.0028021
-0.000538665
0.00284355
-0.000362385
0.00284664
-0.000120195
0.00281203
0.000131824
0.0027475
0.000341996
0.00266597
0.000476042
0.00258254
0.000520527
0.00251238
0.000475461
0.00246949
0.000345756
0.00246444
0.000143009
0.00250032
-0.000103857
0.00257004
-0.000344493
0.00265824
-0.000521232
0.00274657
-0.000591335
0.00281852
-0.000540961
0.00286221
-0.000385935
0.00287128
-0.000163847
0.00284521
7.70025e-05
0.0027893
0.00028895
0.00271371
0.00043635
0.0026315
0.000502032
0.00255666
0.000484091
0.00250304
0.000386919
0.00248259
0.000217603
0.00250181
-6.55886e-06
0.00255792
-0.000248823
0.00263877
-0.000457814
0.00272739
-0.000586621
0.00280745
-0.000610267
0.00286685
-0.000531048
0.00289883
-0.000373245
0.00290164
-0.000173621
0.00287796
2.77852e-05
0.00283422
0.000195148
0.00277961
0.000303282
0.00272468
0.000341431
0.00268018
0.000312128
0.00265577
0.000226748
0.00265807