/*--------------------------------*- C++ -*----------------------------------*\
  =========                 |
  \\      /  F ield         | OpenFOAM: The Open Source CFD Toolbox
   \\    /   O peration     | Website:  https://openfoam.org
    \\  /    A nd           | Version:  11
     \\/     M anipulation  |
\*---------------------------------------------------------------------------*/
FoamFile
{
    format      ascii;
    class       surfaceScalarField;
    location    "19.740272";
    object      phi_0;
}
// * * * * * * * * * * * * * * * * * * * * * * * * * * * * * * * * * * * * * //

dimensions      [0 3 -1 0 0 0 0];

internalField   nonuniform List<scalar> 
14638
(
0.00250265
-2.64943e-06
0.00251073
-8.08018e-06
0.00252443
-1.36999e-05
0.00254379
-1.9359e-05
0.00256859
-2.47973e-05
0.00259815
-2.95611e-05
0.00263117
-3.30229e-05
0.00266549
-3.4316e-05
0.00269804
-3.25586e-05
0.00272527
-2.72257e-05
0.00274358
-1.83139e-05
0.00275134
-7.75285e-06
0.00274891
2.42913e-06
0.00273884
1.00724e-05
0.00272576
1.30801e-05
0.00271497
1.07857e-05
0.00271072
4.24633e-06
0.00271474
-4.0182e-06
0.00272532
-1.05769e-05
0.00273733
-1.20118e-05
0.00274378
-6.45107e-06
0.0027386
5.18407e-06
0.002719
1.9595e-05
0.00268614
3.28658e-05
0.00264415
4.19855e-05
0.00259887
4.52764e-05
0.00255676
4.21116e-05
0.00252425
3.25177e-05
0.00250719
1.70576e-05
0.00251009
-2.90476e-06
0.0025347
-2.46043e-05
0.00257807
-4.33742e-05
0.00263153
-5.34561e-05
0.00268209
-5.05583e-05
0.00271672
-3.46368e-05
0.00272714
-1.04142e-05
0.00271207
1.50658e-05
0.00267632
3.57551e-05
0.00262788
4.84393e-05
0.00257547
5.24088e-05
0.0025273
4.81635e-05
0.00249094
3.63673e-05
0.00247329
1.765e-05
0.00247997
-6.68624e-06
0.00251335
-3.33774e-05
0.00256981
-5.64621e-05
0.00263844
-6.86287e-05
0.00270308
-6.46416e-05
0.00274771
-4.46249e-05
0.00276223
-1.45205e-05
0.00274541
1.68218e-05
0.00270371
4.16982e-05
0.00264758
5.61267e-05
0.00258787
5.97158e-05
0.00253397
5.38937e-05
0.0024938
4.01741e-05
0.00247421
1.95831e-05
0.00248072
-6.50455e-06
0.0025155
-3.4783e-05
0.00257476
-5.92597e-05
0.00264741
-7.26524e-05
0.00271704
-6.96216e-05
0.00276687
-4.98306e-05
0.00278552
-1.86515e-05
0.00277044
1.50755e-05
0.00272768
4.27593e-05
0.00266854
5.91431e-05
0.00260541
6.31285e-05
0.00254898
5.64276e-05
0.00250754
4.1448e-05
0.00248747
2.00632e-05
0.00249338
-5.9083e-06
0.00252657
-3.31911e-05
0.00258293
-5.63544e-05
0.00265204
-6.91084e-05
0.00271904
-6.7003e-05
0.00276877
-4.97329e-05
0.00279034
-2.15723e-05
0.00278015
1.0192e-05
0.0027423
3.78507e-05
0.00268656
5.57376e-05
0.00262505
6.15155e-05
0.00256917
5.58765e-05
0.00252807
4.11001e-05
0.00250835
1.97167e-05
0.00251394
-5.59029e-06
0.00254504
-3.1096e-05
0.00259677
-5.1727e-05
0.00265907
-6.23067e-05
0.00271878
-5.97049e-05
0.00276313
-4.43523e-05
0.00278327
-2.01366e-05
0.00277621
7.06058e-06
0.00274496
3.12435e-05
0.00269714
4.78287e-05
0.00264275
5.43896e-05
0.00259212
5.06271e-05
0.00255431
3.78041e-05
0.00253616
1.8152e-05
0.0025414
-5.23627e-06
0.0025696
-2.82034e-05
0.00261549
-4.58832e-05
0.0026695
-5.40134e-05
0.00272007
-5.05749e-05
0.00275673
-3.66597e-05
0.00277274
-1.60085e-05
0.00276633
6.40778e-06
0.0027404
2.59337e-05
0.00270115
3.92475e-05
0.00265654
4.46172e-05
0.00261487
4.16675e-05
0.00258379
3.10783e-05
0.00256928
1.45083e-05
0.00257454
-5.2562e-06
0.00259887
-2.43312e-05
0.0026373
-3.84291e-05
0.00268146
-4.41576e-05
0.00272173
-4.02743e-05
0.00274987
-2.81433e-05
0.00276101
-1.11394e-05
0.00275441
6.60604e-06
0.00273294
2.14674e-05
0.00270187
3.10711e-05
0.0026675
3.4363e-05
0.00263622
3.12832e-05
0.00261374
2.24843e-05
0.00260439
9.34814e-06
0.00261022
-5.83301e-06
0.00263017
-1.99504e-05
0.00265992
-2.97475e-05
0.00269279
-3.28682e-05
0.00272152
-2.87314e-05
0.00274024
-1.87241e-05
0.00274587
-5.63028e-06
0.00273851
7.36584e-06
0.00272089
1.76223e-05
0.00269733
2.35519e-05
0.00267271
2.46205e-05
0.00265165
2.10646e-05
0.00263799
1.36539e-05
0.00263432
3.67127e-06
0.00264135
-7.02364e-06
0.00265751
-1.61598e-05
0.0026791
-2.15907e-05
0.00270111
-2.20072e-05
0.00271854
-1.7439e-05
0.00272779
-9.24908e-06
0.00272742
3.69584e-07
0.00271829
9.1295e-06
0.00270301
1.52887e-05
0.00268508
1.7929e-05
0.00266814
1.69319e-05
0.00265547
1.26739e-05
0.00264943
6.04505e-06
0.00265143
-1.99981e-06
0.00266096
-9.53682e-06
0.00267683
-1.58683e-05
0.00269448
-1.76502e-05
0.00271319
-1.87085e-05
-8.4149e-06
0.00250264
-5.28733e-06
0.00251069
-1.61343e-05
0.00252437
-2.73811e-05
0.00254376
-3.87482e-05
0.00256869
-4.97262e-05
0.00259854
-5.94145e-05
0.00263207
-6.65515e-05
0.00266711
-6.93496e-05
0.00270052
-6.5973e-05
0.00272854
-5.52417e-05
0.00274728
-3.70597e-05
0.00275499
-1.54572e-05
0.00275199
5.43138e-06
0.00274089
2.11664e-05
0.00272663
2.73435e-05
0.00271487
2.25388e-05
0.00271022
8.9003e-06
0.0027146
-8.40116e-06
0.00272629
-2.22659e-05
0.00273982
-2.55378e-05
0.00274762
-1.42495e-05
0.00274312
9.68268e-06
0.00272337
3.93436e-05
0.00268964
6.65928e-05
0.00264635
8.52811e-05
0.00259954
9.20788e-05
0.00255586
8.57959e-05
0.00252188
6.64988e-05
0.0025037
3.52368e-05
0.00250619
-5.39599e-06
0.0025315
-4.99167e-05
0.00257688
-8.87472e-05
0.00263325
-0.000109826
0.00268674
-0.000104048
0.00272335
-7.12535e-05
0.00273428
-2.13459e-05
0.00271839
3.09566e-05
0.00268098
7.31685e-05
0.00263056
9.88595e-05
0.00257614
0.000106829
0.00252603
9.82714e-05
0.00248786
7.45345e-05
0.00246882
3.66955e-05
0.00247504
-1.29081e-05
0.00250947
-6.78033e-05
0.00256865
-0.000115642
0.00264105
-0.000141026
0.00270929
-0.000132884
0.00275617
-9.15072e-05
0.00277106
-2.94147e-05
0.00275296
3.49279e-05
0.00270902
8.56406e-05
0.0026504
0.000114744
0.00258835
0.000121761
0.00253237
0.000109872
0.00249032
8.2232e-05
0.00246914
4.07572e-05
0.00247472
-1.20775e-05
0.00250975
-6.98189e-05
0.0025708
-0.000120304
0.00264659
-0.000148443
0.00271989
-0.000142921
0.00277278
-0.00010273
0.00279297
-3.88363e-05
0.00277761
3.04372e-05
0.00273313
8.72393e-05
0.00267156
0.000120715
0.00260592
0.000128763
0.0025472
0.00011515
0.00250369
8.49534e-05
0.00248188
4.18737e-05
0.00248669
-1.07173e-05
0.00251991
-6.64067e-05
0.00257763
-0.000114081
0.00264917
-0.000140639
0.00271893
-0.000136768
0.00277101
-0.00010181
0.002794
-4.45666e-05
0.00278414
2.00558e-05
0.00274563
7.63597e-05
0.00268852
0.000112845
0.00262523
0.000124803
0.00256745
0.000113661
0.00252456
8.39916e-05
0.00250352
4.07554e-05
0.00250872
-1.07872e-05
0.00254068
-6.30566e-05
0.00259441
-0.000105457
0.00265923
-0.000127127
0.00272112
-0.000121601
0.00276674
-8.99651e-05
0.00278706
-4.04564e-05
0.00277933
1.47874e-05
0.00274693
6.36373e-05
0.00269778
9.69871e-05
0.00264204
0.000110122
0.00259015
0.000102518
0.00255132
7.6636e-05
0.00253269
3.67855e-05
0.00253836
-1.09121e-05
0.00256809
-5.79332e-05
0.00261631
-9.41003e-05
0.00267278
-0.000110485
0.00272517
-0.000102962
0.0027625
-7.39892e-05
0.00277799
-3.14987e-05
0.0027702
1.41997e-05
0.00274249
5.36447e-05
0.00270149
8.0247e-05
0.0026554
9.07011e-05
0.00261269
8.4384e-05
0.0025811
6.26678e-05
0.0025668
2.88107e-05
0.00257314
-1.16011e-05
0.0025994
-5.05945e-05
0.00264023
-7.92571e-05
0.00268663
-9.05512e-05
0.00272835
-8.19984e-05
0.0027568
-5.65927e-05
0.00276712
-2.14571e-05
0.00275887
1.48485e-05
0.0027354
4.49417e-05
0.00270237
6.40989e-05
0.00266641
7.0323e-05
0.00263409
6.36013e-05
0.00261129
4.52907e-05
0.00260245
1.81837e-05
0.00260966
-1.30417e-05
0.00263167
-4.19604e-05
0.00266373
-6.18091e-05
0.0026986
-6.77357e-05
0.00272851
-5.86459e-05
0.00274735
-3.75635e-05
0.00275209
-1.03624e-05
0.0027431
1.63565e-05
0.00272351
3.72066e-05
0.00269804
4.90253e-05
0.00267184
5.08201e-05
0.00264976
4.31423e-05
0.00263583
2.7589e-05
0.0026327
6.795e-06
0.00264107
-1.53921e-05
0.00265915
-3.42354e-05
0.00268281
-4.52539e-05
0.00270655
-4.57528e-05
0.00272499
-3.5879e-05
0.00273432
-1.85729e-05
0.00273315
1.53648e-06
0.00272259
1.96907e-05
0.00270556
3.23209e-05
0.00268589
3.75924e-05
0.00266751
3.53166e-05
0.00265388
2.6303e-05
0.00264754
1.23827e-05
0.00264999
-4.44867e-06
0.00266068
-2.02286e-05
0.00267818
-3.33693e-05
0.00269759
-3.70563e-05
0.00271793
-3.90487e-05
-1.74055e-05
0.00250261
-7.90139e-06
0.00251061
-2.41289e-05
0.00252424
-4.10161e-05
0.00254368
-5.81813e-05
0.00256885
-7.48964e-05
0.00259926
-8.9829e-05
0.00263379
-0.000101076
0.00267025
-0.000105819
0.00270541
-0.000101127
0.00273505
-8.48784e-05
0.00275468
-5.6696e-05
0.0027623
-2.30789e-05
0.00275816
9.57548e-06
0.00274502
3.43051e-05
0.00272841
4.39588e-05
0.00271477
3.61702e-05
0.00270941
1.42636e-05
0.00271466
-1.36485e-05
0.0027287
-3.63047e-05
0.00274531
-4.21509e-05
0.00275573
-2.46664e-05
0.00275236
1.30465e-05
0.00273197
5.97402e-05
0.00269618
0.000102383
0.00265001
0.000131444
0.00260006
0.000142033
0.00255329
0.000132565
0.00251659
0.000103196
0.0024965
5.53282e-05
0.00249857
-7.46592e-06
0.00252573
-7.70776e-05
0.00257551
-0.000138525
0.002638
-0.000172318
0.00269741
-0.00016346
0.00273771
-0.000111548
0.00274908
-3.27131e-05
0.0027308
4.92364e-05
0.00268942
0.00011455
0.00263462
0.000153651
0.00257606
0.000165389
0.00252222
0.000152113
0.00248083
0.000115923
0.00245952
5.80088e-05
0.00246534
-1.87263e-05
0.00250223
-0.000104698
0.00256706
-0.000180473
0.00264721
-0.000221168
0.00272286
-0.000208543
0.00277423
-0.000142873
0.00278939
-4.45715e-05
0.00276789
5.64275e-05
0.00271862
0.00013491
0.00265446
0.000178906
0.00258759
0.000188629
0.00252762
0.000169843
0.00248214
0.000127715
0.00245804
6.48545e-05
0.00246171
-1.5748e-05
0.00249688
-0.000104992
0.00256095
-0.000184374
0.0026425
-0.000229989
0.00272285
-0.000223269
0.0027819
-0.000161789
0.00280542
-6.23532e-05
0.00278978
4.60802e-05
0.00274203
0.000134987
0.00267567
0.000187075
0.00260511
0.000199327
0.00254201
0.00017825
0.00249483
0.000132134
0.00247027
6.64266e-05
0.002474
-1.44436e-05
0.00250863
-0.000101034
0.00257033
-0.00017578
0.00264728
-0.000217595
0.0027222
-0.000211684
0.00277775
-0.000157364
0.00280199
-6.88097e-05
0.00279133
3.07248e-05
0.00275051
0.00011718
0.00269021
0.000173136
0.00262342
0.000191598
0.00256224
0.000174845
0.00251654
0.000129692
0.00249401
6.32851e-05
0.00249988
-1.66576e-05
0.00253506
-9.82365e-05
0.00259391
-0.000164313
0.0026642
-0.000197412
0.00273015
-0.00018755
0.00277731
-0.000137127
0.00279662
-5.97649e-05
0.00278608
2.53236e-05
0.00275012
9.96015e-05
0.00269745
0.000149651
0.00263871
0.000168867
0.00258448
0.000156743
0.00254427
0.00011685
0.00252574
5.53179e-05
0.00253353
-1.87083e-05
0.0025674
-9.18036e-05
0.00262092
-0.000147615
0.00268236
-0.000171932
0.00273795
-0.000158548
0.00277588
-0.000111922
0.00278944
-4.50587e-05
0.00277796
2.56797e-05
0.00274588
8.57227e-05
0.0027008
0.000125335
0.00265151
0.000139986
0.0026068
0.000129098
0.00257466
9.48038e-05
0.00256155
4.19227e-05
0.00257096
-2.1012e-05
0.00260181
-8.14465e-05
0.00264778
-0.000125224
0.00269855
-0.000141324
0.00274276
-0.000126202
0.00277123
-8.50687e-05
0.00277928
-2.95061e-05
0.00276719
2.69436e-05
0.00273923
7.28956e-05
0.00270199
0.000101338
0.00266275
0.000109567
0.00262851
9.78434e-05
0.00260544
6.83562e-05
0.0025982
2.5426e-05
0.00260877
-2.36112e-05
0.00263536
-6.85505e-05
0.00267222
-9.86705e-05
0.00271095
-0.000106461
0.00274286
-9.05593e-05
0.00276146
-5.6164e-05
0.00276393
-1.28295e-05
0.00275129
2.89931e-05
0.00272751
6.099e-05
0.00269806
7.84687e-05
0.00266874
8.01424e-05
0.00264484
6.70435e-05
0.0026307
4.17327e-05
0.00262912
8.37401e-06
0.00264061
-2.68871e-05
0.00266281
-5.64386e-05
0.00269069
-7.31305e-05
0.00271775
-7.28114e-05
0.00273786
-5.59927e-05
0.00274694
-2.76495e-05
0.0027438
4.67443e-06
0.00273009
3.34077e-05
0.0027094
5.30098e-05
0.00268623
6.07576e-05
0.00266505
5.65004e-05
0.00264974
4.16097e-05
0.00264316
1.89671e-05
0.00264688
-8.17052e-06
0.00266022
-3.35704e-05
0.00268116
-5.43126e-05
0.0027041
-5.99952e-05
0.00272744
-6.23818e-05
-2.729e-05
0.00250257
-1.04751e-05
0.00251046
-3.20199e-05
0.00252401
-5.45569e-05
0.00254347
-7.76462e-05
0.00256896
-0.00010039
0.00260019
-0.000121055
0.00263621
-0.000137092
0.00267488
-0.000144493
0.00271276
-0.000139013
0.00274498
-0.000117092
0.00276605
-7.77648e-05
0.00277359
-3.06221e-05
0.0027677
1.54664e-05
0.00275136
5.06495e-05
0.00273101
6.43006e-05
0.00271437
5.2816e-05
0.00270781
2.08254e-05
0.00271435
-2.01974e-05
0.0027321
-5.40538e-05
0.00275364
-6.36896e-05
0.00276823
-3.92543e-05
0.00276663
1.46438e-05
0.00274515
8.12281e-05
0.00270605
0.00014148
0.00265538
0.000182111
0.00260056
0.000196856
0.00254908
0.000184043
0.00250824
0.000144032
0.0024852
7.8371e-05
0.00248657
-8.83925e-06
0.00251661
-0.000107111
0.00257338
-0.000195298
0.00264564
-0.000244575
0.00271442
-0.00023224
0.00276038
-0.000157506
0.00277215
-4.44873e-05
0.00274979
7.16001e-05
0.00270193
0.000162406
0.00264022
0.000215362
0.0025753
0.000230307
0.00251588
0.000211538
0.0024697
0.000162101
0.00244476
8.29517e-05
0.00244901
-2.29832e-05
0.00248774
-0.000143421
0.00255895
-0.000251683
0.00264976
-0.00031198
0.00273755
-0.000296339
0.00279795
-0.000203272
0.00281562
-6.22364e-05
0.00279003
8.20162e-05
0.00273278
0.000192158
0.00265995
0.000251735
0.00258561
0.000262969
0.00251958
0.000235871
0.00246879
0.000178505
0.00243983
9.38185e-05
0.00244005
-1.59647e-05
0.00247513
-0.000140075
0.00254374
-0.000252986
0.00263367
-0.000319914
0.00272375
-0.000313355
0.00279114
-0.00022918
0.00281949
-9.07044e-05
0.00280419
6.13833e-05
0.00275271
0.000186464
0.00268017
0.000259622
0.00260279
0.000276705
0.00253341
0.000247628
0.00248103
0.000184513
0.00245313
9.43283e-05
0.0024567
-1.80136e-05
0.00249534
-0.000139679
0.00256455
-0.00024499
0.00265013
-0.000303165
0.00273197
-0.000293523
0.00279099
-0.000216389
0.00281505
-9.28743e-05
0.00280146
4.4322e-05
0.00275616
0.000162481
0.00269081
0.000238485
0.002619
0.000263403
0.00255332
0.000240529
0.00250431
0.000178694
0.00248081
8.67936e-05
0.00248913
-2.49841e-05
0.00253031
-0.000139416
0.00259728
-0.00023128
0.00267536
-0.000275493
0.0027465
-0.000258693
0.002795
-0.000185622
0.00281186
-7.66252e-05
0.00279625
4.0929e-05
0.0027542
0.000141654
0.00269578
0.000208072
0.00263236
0.000232285
0.0025749
0.000214207
0.00253329
0.000158451
0.0025159
7.27162e-05
0.00252783
-3.06386e-05
0.00256839
-0.000132366
0.0026296
-0.000208825
0.00269767
-0.000240001
0.00275708
-0.000217956
0.0027952
-0.00015005
0.00280553
-5.53824e-05
0.00278841
4.27951e-05
0.00274976
0.000124378
0.00269853
0.000176565
0.00264449
0.000194019
0.002597
0.000176591
0.00256448
0.000127321
0.00255375
5.26623e-05
0.00256824
-3.55099e-05
0.00260606
-0.000119261
0.00265926
-0.000178427
0.00271574
-0.000197803
0.00276278
-0.000173246
0.00279072
-0.00011301
0.0027952
-3.39823e-05
0.00277746
4.46844e-05
0.00274306
0.000107297
0.0026998
0.000144598
0.00265592
0.000153441
0.00261913
0.000134641
0.00259607
9.14179e-05
0.00259161
2.9878e-05
0.00260747
-3.94673e-05
0.00264083
-0.000101912
0.00268438
-0.000142224
0.00272813
-0.000150203
0.00276229
-0.000124719
0.00278004
-7.39133e-05
0.00277896
-1.17511e-05
0.00276099
4.696e-05
0.00273122
9.07649e-05
0.00269619
0.000113491
0.00266258
0.000113752
0.00263636
9.32692e-05
0.00262232
5.57716e-05
0.00262342
7.271e-06
0.0026398
-4.32627e-05
0.00266809
-8.47265e-05
0.00270185
-0.000106898
0.00273325
-0.000104205
0.00275524
-7.79844e-05
0.0027635
-3.59058e-05
0.00275721
1.09565e-05
0.00273882
5.18036e-05
0.00271287
7.89568e-05
0.00268478
8.88473e-05
0.00265978
8.14989e-05
0.00264238
5.90158e-05
0.00263584
2.55013e-05
0.00264183
-1.41584e-05
0.00265933
-5.10746e-05
0.00268535
-8.03321e-05
0.00271325
-8.78915e-05
0.00274043
-8.9561e-05
-3.80564e-05
0.00250251
-1.29862e-05
0.00251024
-3.97462e-05
0.00252361
-6.79255e-05
0.00254305
-9.70884e-05
0.0025689
-0.000126238
0.00260114
-0.000153299
0.00263914
-0.000175089
0.00268084
-0.000186197
0.0027226
-0.000180775
0.00275853
-0.000153013
0.00278165
-0.000100889
0.0027891
-3.80734e-05
0.00278073
2.38361e-05
0.00275978
7.15996e-05
0.00273406
9.00206e-05
0.00271306
7.38214e-05
0.00270476
2.9123e-05
0.00271319
-2.86333e-05
0.00273636
-7.72151e-05
0.0027651
-9.24376e-05
0.00278576
-5.99158e-05
0.00278666
1.37482e-05
0.0027635
0.000104392
0.00271962
0.000185359
0.00266261
0.000239117
0.00260106
0.000258405
0.00254312
0.000241985
0.00249652
0.00019063
0.0024692
0.000105699
0.00246936
-9.00551e-06
0.00250347
-0.000141219
0.00257061
-0.000262438
0.00265729
-0.000331259
0.00273951
-0.000314455
0.00279307
-0.00021107
0.00280475
-5.61643e-05
0.00277604
0.000100306
0.00271877
0.000219677
0.00264736
0.000286772
0.0025738
0.000303864
0.00250693
0.000278409
0.00245413
0.000214902
0.00242308
0.000114003
0.0024222
-2.20998e-05
0.00245882
-0.000180047
0.00253411
-0.000326969
0.00263667
-0.000414543
0.00274137
-0.00040104
0.00281767
-0.000279573
0.00284384
-8.8399e-05
0.00281688
0.00010897
0.00275099
0.000258051
0.00266702
0.000335701
0.00258254
0.000347451
0.00250813
0.000310283
0.00244988
0.000236759
0.00241432
0.000129379
0.00241093
-1.25754e-05
0.00244822
-0.000177365
0.00252529
-0.000330056
0.00262704
-0.000421666
0.00272827
-0.000414586
0.00280339
-0.000304298
0.00283517
-0.000122485
0.00281907
7.74757e-05
0.00276314
0.000242399
0.00268364
0.000339117
0.00259836
0.000361994
0.00252139
0.000324591
0.0024629
0.000243002
0.002432
0.000125233
0.00243751
-2.35237e-05
0.00248346
-0.000185628
0.00256334
-0.000324869
0.00265951
-0.000399334
0.00274879
-0.000382811
0.00281051
-0.000278103
0.00283259
-0.000114957
0.00281371
6.32063e-05
0.00276161
0.000214574
0.00268938
0.000310722
0.00261133
0.000341453
0.00254052
0.000311338
0.00248838
0.000230838
0.00246508
0.000110091
0.00247795
-3.78557e-05
0.0025274
-0.000188871
0.00260411
-0.000307985
0.00269062
-0.000362007
0.00276682
-0.000334889
0.00281605
-0.000234851
0.00282949
-9.00655e-05
0.00280743
6.29854e-05
0.00275763
0.000191457
0.00269183
0.000273873
0.00262251
0.000301605
0.00256127
0.000275448
0.00251865
0.000201066
0.00250371
8.766e-05
0.00252169
-4.86174e-05
0.00257075
-0.000181429
0.00264072
-0.000278798
0.00271558
-0.000314856
0.00277834
-0.000280713
0.0028159
-0.000187615
0.00282211
-6.15862e-05
0.00279832
6.65764e-05
0.00275192
0.000170783
0.00269338
0.000235108
0.00263369
0.000253704
0.00258308
0.000227202
0.00255065
0.00015975
0.00254357
5.97384e-05
0.00256492
-5.68568e-05
0.0026113
-0.000165644
0.00267265
-0.000239775
0.0027349
-0.000260054
0.00278422
-0.000222561
0.00281074
-0.000139536
0.00281066
-3.38937e-05
0.00278623
6.91065e-05
0.00274435
0.000149182
0.00269414
0.00019481
0.00264499
0.000202587
0.00260552
0.000174108
0.00258307
0.000113874
0.00258271
3.02332e-05
0.00260554
-6.22928e-05
0.00264718
-0.000143557
0.0026983
-0.000193346
0.00274715
-0.000199046
0.00278299
-0.000160565
0.00279895
-8.98752e-05
0.00279324
-6.03329e-06
0.00276882
7.13749e-05
0.00273201
0.000127573
0.00269056
0.000154941
0.00265217
0.000152147
0.00262365
0.000121782
0.00261042
6.90039e-05
0.00261552
2.1729e-06
0.00263839
-6.61321e-05
0.0026742
-0.000120542
0.00271473
-0.000147427
0.00275061
-0.000140082
0.002774
-0.00010137
0.00278053
-4.2439e-05
0.00276999
2.14938e-05
0.00274576
7.60305e-05
0.0027135
0.000111218
0.00267966
0.00012269
0.0026504
0.000110764
0.00263096
7.84471e-05
0.00262517
3.12988e-05
0.00263463
-2.36183e-05
0.00265774
-7.41924e-05
0.00269009
-0.000112675
0.00272374
-0.000121541
0.0027548
-0.000120625
-4.92078e-05
0.00250242
-1.5405e-05
0.0025099
-4.72238e-05
0.00252297
-8.10031e-05
0.00254228
-0.000116394
0.00256844
-0.000152401
0.00260185
-0.000186707
0.0026423
-0.000215538
0.00268794
-0.000231841
0.00273496
-0.000227795
0.00277601
-0.000194062
0.00280202
-0.000126894
0.0028095
-4.5552e-05
0.00279789
3.54422e-05
0.00277067
9.88235e-05
0.0027375
0.000123186
0.00271035
0.000100975
0.00269941
4.00565e-05
0.00271023
-3.94487e-05
0.00274082
-0.000107803
0.00277965
-0.00013127
0.00280883
-8.90923e-05
0.00281317
9.40744e-06
0.00278765
0.000129911
0.00273726
0.000235745
0.00267183
0.000304545
0.00260152
0.000328721
0.00253519
0.000308317
0.00248096
0.000244858
0.00244766
0.000138991
0.00244583
-7.17311e-06
0.00248514
-0.000180529
0.00256631
-0.00034361
0.0026731
-0.000438045
0.00277427
-0.000415629
0.00283817
-0.000274963
0.00284886
-6.68571e-05
0.00281059
0.000138576
0.00274014
0.000290126
0.00265587
0.000371043
0.00257138
0.000388352
0.00249524
0.000354551
0.00243347
0.000276677
0.00239241
0.000155061
0.00238146
-1.11496e-05
0.00241254
-0.000211128
0.00249162
-0.00040605
0.00260773
-0.00053065
0.00273176
-0.000525076
0.00282748
-0.00037529
0.00286708
-0.000128002
0.00284331
0.000132736
0.00277081
0.000330557
0.00267506
0.000431446
0.00257839
0.000444121
0.00249327
0.000395409
0.00242569
0.000304335
0.00238332
0.000171748
0.0023789
-8.14955e-06
0.00242311
-0.00022158
0.00251311
-0.000420049
0.00262891
-0.000537471
0.00274092
-0.000526597
0.00282146
-0.000384839
0.00285349
-0.000154516
0.0028338
9.71671e-05
0.00277173
0.000304476
0.00268453
0.000426314
0.00259086
0.000455661
0.00250589
0.00040956
0.00244142
0.000307473
0.00240889
0.000157762
0.00241879
-3.34199e-05
0.00247428
-0.000241121
0.00256566
-0.000416246
0.00267181
-0.000505485
0.00276739
-0.000478393
0.00283085
-0.000341561
0.00285019
-0.000134297
0.00282508
8.83189e-05
0.00276503
0.000274626
0.0026848
0.000390947
0.0025998
0.000426457
0.00252378
0.000387354
0.00246924
0.000285378
0.00244768
0.000131649
0.0024668
-5.69742e-05
0.00252547
-0.000247537
0.00261155
-0.00039407
0.00270517
-0.000455623
0.00278496
-0.000414677
0.00283402
-0.000283916
0.0028438
-9.98405e-05
0.0028153
9.14799e-05
0.00275761
0.000249151
0.00268405
0.000347429
0.00260847
0.000377185
0.0025435
0.000340421
0.00250061
0.00024396
0.00248945
9.88189e-05
0.00251481
-7.39784e-05
0.00257295
-0.000239568
0.00265115
-0.000356999
0.00273144
-0.00039515
0.00279607
-0.000345342
0.00283205
-0.000223598
0.00283375
-6.32809e-05
0.00280333
9.69945e-05
0.00274929
0.00022482
0.00268347
0.000300933
0.00261816
0.00031901
0.00256475
0.000280619
0.00253323
0.000191267
0.00253107
6.1898e-05
0.00256044
-8.62291e-05
0.00261586
-0.000221065
0.00268484
-0.000308754
0.00275162
-0.000326828
0.00280179
-0.000272733
0.00282581
-0.000163555
0.00282057
-2.86577e-05
0.0027893
0.000100377
0.00273998
0.000198506
0.00268294
0.000251849
0.00262877
0.000256753
0.00258719
0.000215688
0.00256635
0.000134716
0.00257142
2.51613e-05
0.00260241
-9.3278e-05
0.00265284
-0.000193996
0.00271113
-0.000251627
0.00276396
-0.000251878
0.00280015
-0.000196757
0.00281317
-0.000102898
0.00280204
5.09587e-06
0.00277078
0.000102643
0.0027268
0.000171552
0.00267898
0.000202754
0.00263612
0.000195008
0.00260602
0.000151881
0.00259475
8.02823e-05
0.00260526
-8.33821e-06
0.00263587
-9.67477e-05
0.00267983
-0.000164503
0.00272691
-0.000194503
0.00276638
-0.000179555
0.00278998
-0.000124966
0.00279365
-4.61131e-05
0.00277797
3.71826e-05
0.0027473
0.000106697
0.00270838
0.000150134
0.00266871
0.00016236
0.00263544
0.000144035
0.00261467
9.92171e-05
0.00261074
3.52355e-05
0.00262502
-3.79005e-05
0.00265494
-0.000104111
0.00269418
-0.000151922
0.00273348
-0.00016084
0.00276749
-0.000154631
-5.97421e-05
0.00250229
-1.76929e-05
0.0025094
-5.43402e-05
0.00252202
-9.36186e-05
0.002541
-0.000135371
0.00256733
-0.000178736
0.00260195
-0.000221322
0.00264527
-0.000258865
0.00269585
-0.00028242
0.00274982
-0.000281764
0.00279777
-0.000242008
0.00282761
-0.000156734
0.00283518
-5.31247e-05
0.00281936
5.12641e-05
0.00278378
0.000134402
0.00274061
0.000166353
0.00270514
0.000136446
0.00269058
5.46178e-05
0.00270454
-5.34122e-05
0.00274525
-0.000148506
0.00279794
-0.000183967
0.00283876
-0.000129908
0.00284759
5.73784e-07
0.00281862
0.000158888
0.00275943
0.000294932
0.00268308
0.000380892
0.00260175
0.000410056
0.00252496
0.000385105
0.00246102
0.000308796
0.00241973
0.000180285
0.0024138
-1.24122e-06
0.00245556
-0.000222296
0.00254858
-0.00043663
0.00267793
-0.000567393
0.00280664
-0.000544342
0.00289031
-0.000358633
0.00290411
-8.06544e-05
0.00285443
0.000188262
0.00276647
0.000378087
0.00266554
0.000471966
0.00256773
0.000486166
0.00248043
0.000441845
0.00240682
0.000350293
0.00235193
0.000209948
0.00232928
1.15001e-05
0.00235839
-0.000240232
0.00244795
-0.000495619
0.00258186
-0.000664558
0.00272407
-0.000667285
0.00283488
-0.000486095
0.00288511
-0.000178237
0.00286525
0.000152595
0.00278841
0.000407406
0.00268209
0.000537763
0.00257263
0.000553577
0.00247529
0.000492751
0.00239768
0.000381943
0.00235022
0.00021921
0.00234877
-6.70047e-06
0.0024037
-0.000276513
0.0025077
-0.000524043
0.00263594
-0.000665711
0.00275627
-0.000646928
0.00284026
-0.000468833
0.00287098
-0.000185236
0.00284621
0.000121939
0.00277687
0.00037382
0.00268149
0.000521692
0.00257947
0.000557676
0.00248693
0.0005021
0.00241761
0.000376799
0.00238532
0.000190043
0.00240131
-4.94036e-05
0.00246652
-0.000306331
0.00256759
-0.000517317
0.00268083
-0.000618724
0.00278018
-0.000577747
0.00284428
-0.000405655
0.0028612
-0.000151217
0.00283079
0.000118724
0.00276351
0.000341904
0.00267562
0.000478842
0.00258386
0.000518215
0.00250318
0.000468037
0.00244737
0.000341186
0.00242895
0.000150063
0.00245513
-8.31491e-05
0.00252242
-0.000314828
0.00261589
-0.000487538
0.00271396
-0.000553698
0.00279508
-0.000495795
0.00284286
-0.000331694
0.00284916
-0.000106139
0.00281529
0.000125347
0.00275095
0.000313486
0.00267061
0.000427771
0.00258946
0.000458333
0.0025215
0.000408385
0.00247935
0.000286104
0.00247306
0.000105112
0.00250626
-0.000107174
0.00257272
-0.000306032
0.00265726
-0.000441533
0.00274061
-0.000478509
0.00280509
-0.000409818
0.0028384
-0.00025691
0.00283559
-6.04652e-05
0.00279936
0.000133226
0.00273886
0.000285318
0.00266687
0.000372915
0.00259693
0.000388953
0.00254171
0.000335842
0.00251224
0.000220733
0.00251603
5.81063e-05
0.00255378
-0.000123976
0.00261745
-0.000284735
0.00269224
-0.000383542
0.00276131
-0.000395899
0.00281044
-0.000321867
0.00283088
-0.000183995
0.00282036
-1.81337e-05
0.00278283
0.000137909
0.00272704
0.000254297
0.00266425
0.000314639
0.00260616
0.000314839
0.00256368
0.000258166
0.0025458
0.000152604
0.00255746
1.34972e-05
0.00259703
-0.000132853
0.00265557
-0.00025253
0.00271932
-0.00031538
0.00277406
-0.000306614
0.00280878
-0.000231482
0.00281776
-0.000111874
0.00280091
2.19449e-05
0.00276312
0.000140429
0.0027127
0.000221975
0.00265946
0.000255992
0.00261324
0.000241226
0.00258289
0.000182232
0.00257506
8.81113e-05
0.00259229
-2.55654e-05
0.00263123
-0.000135688
0.00268286
-0.000216129
0.00273508
-0.000246723
0.00277634
-0.000220819
0.00279851
-0.000147137
0.00279823
-4.583e-05
0.00277692
5.84902e-05
0.00273988
0.000143736
0.00269475
0.000195265
0.00264997
0.000207145
0.00261367
0.000180333
0.00259284
0.000120047
0.00259222
3.58533e-05
0.00261259
-5.82706e-05
0.00264991
-0.00014143
0.00269568
-0.000197696
0.00273947
-0.00020463
0.00277459
-0.000189746
-6.83158e-05
0.00250211
-1.98006e-05
0.00250872
-6.09502e-05
0.00252064
-0.000105538
0.002539
-0.000153729
0.00256523
-0.000204966
0.00260095
-0.000257049
0.0026475
-0.000305408
0.00270412
-0.00033904
0.00276719
-0.000344842
0.00282438
-0.000299197
0.00285943
-0.000191783
0.0028675
-6.11946e-05
0.00284646
7.23055e-05
0.00279986
0.000181002
0.00274327
0.00022294
0.00269644
0.00018328
0.00267652
7.45397e-05
0.00269417
-7.10602e-05
0.00274828
-0.000202618
0.00281983
-0.000255519
0.0028765
-0.000186582
0.00289127
-1.41977e-05
0.00285747
0.000192693
0.00278667
0.000365737
0.00269647
0.000471083
0.00260161
0.000504923
0.00251215
0.000474565
0.00243639
0.000384554
0.0023843
0.000232376
0.00236779
1.52708e-05
0.00239936
-0.000253867
0.00248979
-0.00052706
0.00263555
-0.000713153
0.00280074
-0.000709533
0.00292403
-0.000481925
0.00295881
-0.000115431
0.00290499
0.000242079
0.00279813
0.000484951
0.00267664
0.00059345
0.00256261
0.000600194
0.00246199
0.000542464
0.00237406
0.000438225
0.00230465
0.000279361
0.00227518
4.09689e-05
0.00231174
-0.000276787
0.00241936
-0.000603244
0.0025724
-0.000817596
0.00272851
-0.000823401
0.00284719
-0.000604773
0.0029011
-0.000232146
0.00288156
0.000172133
0.00280062
0.000488352
0.00268543
0.000652952
0.00256411
0.000674898
0.00245464
0.000602222
0.00236791
0.000468665
0.00231815
0.000268978
0.00232276
-1.13118e-05
0.00238892
-0.000342678
0.0025039
-0.000639025
0.00263976
-0.000801567
0.00276438
-0.000771551
0.00285021
-0.000554658
0.00288017
-0.000215195
0.00285162
0.000150486
0.00277606
0.000449381
0.00267325
0.0006245
0.00256368
0.000667249
0.00246474
0.00060104
0.00239227
0.000449274
0.00236193
0.000220375
0.00238447
-7.19369e-05
0.00245776
-0.000379627
0.00256519
-0.000624744
0.00268171
-0.000735243
0.00278182
-0.000677853
0.00284519
-0.000469026
0.00286023
-0.000166263
0.00282641
0.000152548
0.00275407
0.000414241
0.00266024
0.000572672
0.00256301
0.000615448
0.00247887
0.00055218
0.00242311
0.000396941
0.00240882
0.000164359
0.00244184
-0.000116172
0.00251596
-0.000388952
0.00261389
-0.000585469
0.00271333
-0.000653131
0.00279338
-0.000575843
0.00283872
-0.000377043
0.00284185
-0.000109261
0.00280408
0.000163112
0.00273512
0.000382447
0.00264993
0.000512967
0.00256481
0.000543452
0.00249523
0.000477962
0.00245504
0.00032629
0.00245428
0.000105878
0.00249481
-0.000147711
0.00256774
-0.000378954
0.00265585
-0.000529649
0.0027395
-0.000562152
0.00280176
-0.000472081
0.00283147
-0.000286623
0.00282443
-5.34188e-05
0.00278364
0.000174016
0.00271845
0.000350499
0.00264217
0.000449201
0.00256929
0.00046183
0.00251381
0.000391327
0.00248769
0.000246851
0.00249806
4.77397e-05
0.00254358
-0.000169499
0.00261356
-0.000354716
0.00269142
-0.000461406
0.00276012
-0.000464595
0.00280631
-0.000368057
0.00282236
-0.00020005
0.00280684
-2.61101e-06
0.00276418
0.00018057
0.00270352
0.000314956
0.00263672
0.000381437
0.00257646
0.000375104
0.00253478
0.000299845
0.00252131
0.000166073
0.00254029
-5.4861e-06
0.0025879
-0.000180459
0.00265262
-0.000317255
0.00271917
-0.000381925
0.00277321
-0.000360656
0.00280464
-0.000262909
0.0028088
-0.000116035
0.00278647
4.42735e-05
0.00274315
0.000183746
0.0026877
0.000277426
0.00263065
0.000313042
0.00258281
0.000289069
0.002554
0.000211039
0.00255122
9.08992e-05
0.002576
-5.03491e-05