/*--------------------------------*- C++ -*----------------------------------*\
  =========                 |
  \\      /  F ield         | OpenFOAM: The Open Source CFD Toolbox
   \\    /   O peration     | Website:  https://openfoam.org
    \\  /    A nd           | Version:  11
     \\/     M anipulation  |
\*---------------------------------------------------------------------------*/
FoamFile
{
    format      ascii;
    class       volVectorField;
    location    "19.740272";
    object      U;
}
// * * * * * * * * * * * * * * * * * * * * * * * * * * * * * * * * * * * * * //

dimensions      [0 1 -1 0 0 0 0];

internalField   nonuniform List<vector> 
7132
(
(1.00012 -0.000264864 2.62223e-18)
(1.00206 -0.000807784 8.85155e-18)
(1.00647 -0.00136983 8.88616e-18)
(1.01308 -0.00193548 1.1022e-17)
(1.02194 -0.0024783 1.49987e-17)
(1.03292 -0.0029525 1.56709e-17)
(1.04561 -0.00329519 1.56282e-17)
(1.05937 -0.00342058 1.56072e-17)
(1.0731 -0.00324187 1.56891e-17)
(1.08547 -0.00270892 1.58117e-17)
(1.09491 -0.00182317 1.57555e-17)
(1.1002 -0.000772772 1.55689e-17)
(1.10112 0.000242398 1.49745e-17)
(1.09821 0.00100912 1.415e-17)
(1.09294 0.00132037 9.63428e-18)
(1.0875 0.00110766 5.06008e-18)
(1.08399 0.000471182 1.90579e-18)
(1.08378 -0.000345429 9.00837e-20)
(1.08697 -0.00100549 -2.6987e-18)
(1.09217 -0.00117012 -3.14529e-18)
(1.09676 -0.000647705 -2.00939e-18)
(1.09777 0.000481556 -6.65882e-19)
(1.0932 0.00190041 5.5351e-19)
(1.08268 0.00322274 2.35506e-18)
(1.06736 0.00414498 1.99888e-18)
(1.04934 0.0044935 5.13242e-18)
(1.03115 0.0042007 2.98149e-18)
(1.01542 0.0032669 -2.28046e-17)
(1.00469 0.00174802 4.33227e-17)
(1.00115 -0.00022007 2.55192e-16)
(1.00628 -0.00236606 2.27144e-16)
(1.02012 -0.00423589 1.11677e-16)
(1.04046 -0.0052667 1.04913e-15)
(1.06276 -0.0050295 1.8866e-15)
(1.08128 -0.00350142 6.54397e-16)
(1.09126 -0.00112914 -6.26406e-16)
(1.09059 0.0013984 -8.51887e-16)
(1.0801 0.00347538 -4.22386e-16)
(1.0626 0.00476917 4.55744e-15)
(1.04163 0.00519706 9.2516e-15)
(1.02064 0.00480279 -3.12866e-14)
(1.00278 0.00365284 -1.6433e-13)
(0.990977 0.00181395 -1.44575e-13)
(0.987874 -0.000581692 1.10446e-12)
(0.995394 -0.00321577 5.43145e-12)
(1.01365 -0.00551211 1.33265e-11)
(1.03988 -0.00675811 2.13035e-11)
(1.06836 -0.00642881 2.39282e-11)
(1.09202 -0.00451069 1.95913e-11)
(1.10503 -0.0015643 1.18662e-11)
(1.10485 0.00154487 5.12581e-12)
(1.09267 0.00404531 1.08727e-12)
(1.07223 0.0055238 -4.94848e-13)
(1.04807 0.00592397 -3.78537e-13)
(1.02438 0.00537848 6.97221e-13)
(1.00458 0.00403813 5.87186e-13)
(0.991608 0.00201079 -6.66603e-12)
(0.988065 -0.000562421 -3.0172e-11)
(0.995817 -0.00335794 -7.65465e-11)
(1.0149 -0.00579424 -1.41992e-10)
(1.04248 -0.00715927 -2.07677e-10)
(1.07277 -0.00691922 -2.47442e-10)
(1.09856 -0.00502001 -2.44103e-10)
(1.1136 -0.00196883 -1.99045e-10)
(1.11475 0.00137127 -1.29854e-10)
(1.10275 0.00414534 -6.26061e-11)
(1.08139 0.00581752 -1.52418e-11)
(1.0558 0.00626067 9.29458e-12)
(1.03081 0.00563142 1.21798e-11)
(1.01024 0.00416557 -1.84182e-11)
(0.996985 0.00205439 -1.12514e-10)
(0.993331 -0.000515692 -3.02685e-10)
(1.00074 -0.00322125 -5.97763e-10)
(1.01894 -0.00553208 -9.63085e-10)
(1.04511 -0.00683029 -1.32076e-09)
(1.07396 -0.00666944 -1.57475e-09)
(1.09902 -0.00500334 -1.64934e-09)
(1.11458 -0.00223822 -1.51944e-09)
(1.11743 0.000912335 -1.21796e-09)
(1.1076 0.00368112 -8.22386e-10)
(1.08805 0.00549527 -4.32118e-10)
(1.06346 0.00610917 -1.37818e-10)
(1.03883 0.0055811 3.27888e-12)
(1.01838 0.00413474 -2.92785e-11)
(1.00528 0.00202545 -2.30822e-10)
(1.00175 -0.000476743 -5.79924e-10)
(1.00882 -0.003006 -1.0371e-09)
(1.02576 -0.00506862 -1.54221e-09)
(1.04958 -0.00615629 -2.02012e-09)
(1.07539 -0.00595097 -2.39391e-09)
(1.09763 -0.00447713 -2.59859e-09)
(1.1116 -0.00210234 -2.59074e-09)
(1.11472 0.000597563 -2.3545e-09)
(1.10695 0.0030235 -1.90943e-09)
(1.09052 0.00470964 -1.32823e-09)
(1.06914 0.00540263 -7.41642e-10)
(1.04707 0.00506373 -3.02484e-10)
(1.02834 0.00381562 -1.21767e-10)
(1.01624 0.00188191 -2.23397e-10)
(1.01303 -0.000429177 -5.49887e-10)
(1.01957 -0.00270944 -1.00468e-09)
(1.03482 -0.00448392 -1.49348e-09)
(1.05575 -0.00533212 -1.9444e-09)
(1.07789 -0.00504476 -2.30941e-09)
(1.09649 -0.00371295 -2.5568e-09)
(1.10785 -0.00169188 -2.66149e-09)
(1.11012 0.000531569 -2.59779e-09)
(1.10353 0.00249151 -2.3429e-09)
(1.09001 0.00384909 -1.9023e-09)
(1.0725 0.00442228 -1.34286e-09)
(1.05438 0.00416629 -7.95365e-10)
(1.03894 0.00314501 -4.06109e-10)
(1.02903 0.0015219 -2.66246e-10)
(1.02667 -0.000428269 -3.75043e-10)
(1.03251 -0.00232456 -6.6001e-10)
(1.04549 -0.00374632 -1.02601e-09)
(1.06284 -0.0043559 -1.39412e-09)
(1.08074 -0.00402025 -1.71479e-09)
(1.09533 -0.00285992 -1.96222e-09)
(1.10379 -0.00119738 -2.12136e-09)
(1.1049 0.000561646 -2.17541e-09)
(1.09913 0.00205379 -2.10082e-09)
(1.0882 0.00303624 -1.87916e-09)
(1.07453 0.00339686 -1.5227e-09)
(1.06073 0.00312421 -1.09305e-09)
(1.04931 0.00227979 -6.89306e-10)
(1.04236 0.000998196 -4.06325e-10)
(1.04131 -0.0004965 -2.93188e-10)
(1.04648 -0.00190027 -3.41331e-10)
(1.0568 -0.00289288 -5.03602e-10)
(1.07 -0.00323792 -7.23158e-10)
(1.08308 -0.00286866 -9.53155e-10)
(1.09322 -0.00191094 -1.16231e-09)
(1.09848 -0.000631865 -1.33077e-09)
(1.09821 0.000655302 -1.44233e-09)
(1.09303 0.0016855 -1.47885e-09)
(1.08443 0.00229577 -1.42251e-09)
(1.07434 0.00242767 -1.26681e-09)
(1.06471 0.00210077 -1.02913e-09)
(1.0573 0.00138889 -7.53075e-10)
(1.05348 0.00041681 -4.94932e-10)
(1.05399 -0.000634254 -3.02131e-10)
(1.05872 -0.00154261 -1.97969e-10)
(1.06662 -0.00209691 -1.80226e-10)
(1.07586 -0.00216449 -2.30143e-10)
(1.08428 -0.00174128 -3.23394e-10)
(1.09003 -0.000954104 -4.37259e-10)
(1.092 -1.44781e-05 -5.52767e-10)
(1.09008 0.000852272 -6.53513e-10)
(1.08497 0.00147133 -7.2392e-10)
(1.07804 0.00174795 -7.49686e-10)
(1.07065 0.00166676 -7.21444e-10)
(1.06446 0.00126259 -6.39744e-10)
(1.06026 0.000621857 -5.17379e-10)
(1.05947 -0.000162886 -3.7632e-10)
(1.06143 -0.000903359 -2.4054e-10)
(1.06707 -0.00153316 -1.28446e-10)
(1.07369 -0.00172217 -5.12318e-11)
(1.08143 -0.00184061 -4.83634e-12)
(1.08854 -0.000854449 -3.67161e-12)
(1.00012 -0.000793238 3.99639e-20)
(1.00205 -0.00242073 4.2026e-19)
(1.00645 -0.00410763 8.07847e-19)
(1.01305 -0.00580985 1.24006e-18)
(1.02195 -0.00744896 1.84148e-18)
(1.033 -0.00888811 2.53918e-18)
(1.04585 -0.00993775 3.1338e-18)
(1.05985 -0.010335 4.00206e-18)
(1.07391 -0.00981221 5.62807e-18)
(1.08664 -0.00820678 6.02235e-18)
(1.09636 -0.00551512 5.80704e-18)
(1.10173 -0.00231907 9.14854e-18)
(1.10253 0.000770754 9.27123e-18)
(1.09928 0.00310236 9.55048e-18)
(1.09353 0.00403547 8.66856e-18)
(1.08762 0.00335794 5.36864e-18)
(1.0838 0.00137645 2.71818e-19)
(1.08355 -0.00115648 -3.47016e-18)
(1.08704 -0.00320877 -2.5495e-18)
(1.09282 -0.00373872 3.23444e-18)
(1.09804 -0.00215216 9.76727e-18)
(1.09951 0.00130569 1.27195e-17)
(1.09506 0.0056537 1.11193e-17)
(1.08433 0.00970259 5.25479e-18)
(1.06856 0.0125282 1.65725e-17)
(1.04995 0.0136117 4.55797e-17)
(1.03113 0.0127563 -2.29446e-16)
(1.01478 0.00996352 -5.53318e-16)
(1.00349 0.00539154 4.38198e-15)
(0.999585 -0.000568814 1.35631e-14)
(1.00472 -0.00711363 -6.10719e-14)
(1.01908 -0.0128605 -3.89273e-13)
(1.04046 -0.0160673 -8.26224e-13)
(1.06403 -0.0153912 -9.02035e-13)
(1.08364 -0.0107479 -5.66539e-13)
(1.09417 -0.00351143 -2.06201e-13)
(1.09342 0.00419876 -3.08513e-14)
(1.08239 0.0105266 1.5251e-14)
(1.06412 0.0144654 3.08219e-14)
(1.04233 0.0157801 3.23916e-14)
(1.02055 0.014617 -1.32845e-13)
(1.00193 0.0111777 -6.14809e-13)
(0.989435 0.00564447 -4.70314e-13)
(0.985879 -0.00161691 4.74717e-12)
(0.993437 -0.00966495 2.32079e-11)
(1.01244 -0.0167348 5.7052e-11)
(1.04005 -0.020612 9.13485e-11)
(1.07014 -0.0196559 1.02245e-10)
(1.0951 -0.013818 8.17564e-11)
(1.10868 -0.0048273 4.69009e-11)
(1.10829 0.00465735 1.90699e-11)
(1.09534 0.0122744 3.70151e-12)
(1.07389 0.0167698 -1.98141e-12)
(1.04875 0.0179912 -1.19182e-12)
(1.02417 0.0163622 3.64213e-12)
(1.00358 0.0123462 3.28911e-12)
(0.989887 0.00625188 -3.30303e-11)
(0.985776 -0.00153141 -1.627e-10)
(0.993316 -0.0100518 -4.41802e-10)
(1.01276 -0.0175376 -8.57028e-10)
(1.04134 -0.0217873 -1.27315e-09)
(1.0731 -0.0211339 -1.49222e-09)
(1.10036 -0.0153913 -1.40283e-09)
(1.11642 -0.00610823 -1.06426e-09)
(1.11785 0.00407581 -6.41644e-10)
(1.10541 0.0125438 -2.85984e-10)
(1.08316 0.0176528 -6.53419e-11)
(1.05654 0.0190202 3.24316e-11)
(1.03058 0.0171415 4.4398e-11)
(1.00913 0.0127469 -2.94577e-11)
(0.995091 0.00640633 -2.49311e-10)
(0.990808 -0.0013501 -6.98894e-10)
(0.997933 -0.00957295 -1.40826e-09)
(1.01639 -0.0166544 -2.28732e-09)
(1.04335 -0.0206919 -3.12761e-09)
(1.07332 -0.0202966 -3.68028e-09)
(1.09947 -0.0153081 -3.76469e-09)
(1.11584 -0.00695474 -3.35157e-09)
(1.11906 0.00259852 -2.57485e-09)
(1.10916 0.0110218 -1.66007e-09)
(1.08918 0.0165699 -8.33153e-10)
(1.06395 0.0184901 -2.51162e-10)
(1.03856 0.016955 2.03186e-11)
(1.01734 0.0126364 -2.07712e-11)
(1.00357 0.00629198 -3.52224e-10)
(0.999631 -0.00128366 -9.3739e-10)
(1.00675 -0.00899103 -1.70545e-09)
(1.02428 -0.0153127 -2.53851e-09)
(1.04908 -0.0186715 -3.29275e-09)
(1.07593 -0.0180813 -3.8357e-09)
(1.09891 -0.0136225 -4.07141e-09)
(1.11318 -0.00642953 -3.95166e-09)
(1.11618 0.00174228 -3.4846e-09)
(1.10802 0.00908298 -2.7395e-09)
(1.09107 0.0141925 -1.85078e-09)
(1.06915 0.0163134 -1.00543e-09)
(1.04655 0.0153293 -3.94735e-10)
(1.02733 0.011599 -1.47437e-10)
(1.01488 0.00577561 -2.86364e-10)
(1.01161 -0.00122972 -7.35184e-10)
(1.01853 -0.00818093 -1.36158e-09)
(1.03459 -0.0136108 -2.0258e-09)
(1.05656 -0.0162103 -2.61575e-09)
(1.07963 -0.0153307 -3.06023e-09)
(1.09879 -0.0112623 -3.32201e-09)
(1.11017 -0.00510842 -3.38158e-09)
(1.11203 0.00163899 -3.22495e-09)
(1.10477 0.00756853 -2.84513e-09)
(1.09051 0.0116635 -2.26628e-09)
(1.07233 0.0133866 -1.57518e-09)
(1.05369 0.0126109 -9.21828e-10)
(1.03791 0.00952654 -4.68035e-10)
(1.02791 0.0046141 -3.12786e-10)
(1.02578 -0.00130888 -4.52142e-10)
(1.03223 -0.00708658 -7.99065e-10)
(1.04612 -0.0114228 -1.23718e-09)
(1.06448 -0.0132712 -1.66767e-09)
(1.08318 -0.0122229 -2.02851e-09)
(1.09816 -0.00865831 -2.28986e-09)
(1.10651 -0.0035775 -2.43858e-09)
(1.1071 0.00177602 -2.4629e-09)
(1.10056 0.00629909 -2.34534e-09)
(1.08881 0.00926124 -2.07348e-09)
(1.07439 0.010332 -1.66553e-09)
(1.06005 0.00948427 -1.18933e-09)
(1.04832 0.00690548 -7.50086e-10)
(1.04139 0.00299869 -4.46992e-10)
(1.0407 -0.0015611 -3.29879e-10)
(1.04657 -0.00584615 -3.86927e-10)
(1.05782 -0.00886955 -5.6514e-10)
(1.07194 -0.00990149 -8.01685e-10)
(1.08572 -0.00874077 -1.04545e-09)
(1.09615 -0.00578375 -1.26303e-09)
(1.10125 -0.0018587 -1.43407e-09)
(1.10046 0.00207364 -1.54283e-09)
(1.09452 0.00520704 -1.57197e-09)
(1.08511 0.00705012 -1.50459e-09)
(1.07429 0.0074312 -1.33528e-09)
(1.06411 0.00641412 -1.08302e-09)
(1.05642 0.00422412 -7.93395e-10)
(1.05263 0.00123939 -5.24383e-10)
(1.05351 -0.00198811 -3.2413e-10)
(1.05892 -0.00477647 -2.15532e-10)
(1.06766 -0.00647137 -1.9534e-10)
(1.07771 -0.00666237 -2.43877e-10)
(1.08673 -0.00534029 -3.36452e-10)
(1.09272 -0.00290241 -4.5043e-10)
(1.09454 -4.62476e-06 -5.66995e-10)
(1.09216 0.00265998 -6.69612e-10)
(1.08639 0.0045571 -7.4216e-10)
(1.07873 0.00539949 -7.69547e-10)
(1.07067 0.0051433 -7.41697e-10)
(1.06397 0.00389612 -6.58856e-10)
(1.0595 0.00192135 -5.34014e-10)
(1.05873 -0.00049871 -3.89604e-10)
(1.06099 -0.00278846 -2.50035e-10)
(1.06724 -0.00473426 -1.33923e-10)
(1.07453 -0.00532508 -5.25847e-11)
(1.08303 -0.00568999 -2.22512e-12)
(1.09066 -0.00263912 3.71693e-12)
(1.00012 -0.00131814 4.10533e-22)
(1.00203 -0.00402548 6.72294e-21)
(1.0064 -0.00683952 3.15749e-21)
(1.013 -0.00969243 -7.66682e-21)
(1.02194 -0.0124578 -5.92773e-20)
(1.03314 -0.0149097 -2.63703e-20)
(1.04629 -0.0167303 -5.26218e-19)
(1.06078 -0.0174633 -3.392e-19)
(1.07549 -0.0166389 1.16193e-18)
(1.08896 -0.0139415 -8.51508e-19)
(1.09924 -0.00933491 -5.61092e-18)
(1.10479 -0.00384481 -4.38273e-18)
(1.10535 0.00148819 3.34353e-18)
(1.10143 0.00553782 9.34674e-18)
(1.09472 0.00716391 2.62803e-18)
(1.08787 0.00597926 -1.73461e-17)
(1.08346 0.00250361 -2.70985e-17)
(1.0832 -0.00197255 1.84854e-17)
(1.08735 -0.00564996 1.41746e-16)
(1.09432 -0.00668054 2.52474e-16)
(1.10083 -0.0039934 2.50562e-16)
(1.10315 0.00198108 1.83294e-16)
(1.09882 0.00950174 9.9624e-17)
(1.08752 0.0164815 2.31524e-17)
(1.07071 0.0213353 1.58385e-16)
(1.05086 0.0232056 2.11027e-16)
(1.03075 0.0217862 -2.53879e-15)
(1.0132 0.0170855 -2.52806e-15)
(1.00092 0.00934465 4.13495e-14)
(0.996439 -0.000827273 7.56648e-14)
(1.00174 -0.0121063 -5.86842e-13)
(1.01732 -0.0221101 -2.93114e-12)
(1.04093 -0.0277562 -6.00642e-12)
(1.06714 -0.0266309 -6.90049e-12)
(1.08889 -0.018565 -4.71647e-12)
(1.10033 -0.00600231 -1.87056e-12)
(1.09914 0.00730628 -3.24206e-13)
(1.08672 0.0181312 1.35315e-13)
(1.0667 0.0247938 1.72889e-13)
(1.04317 0.0269794 1.81099e-14)
(1.01979 0.0250016 -4.34244e-13)
(0.999756 0.0192069 -4.82632e-13)
(0.986081 0.00984103 1.79696e-12)
(0.981845 -0.00257277 4.84976e-12)
(0.989673 -0.0164854 -7.17354e-12)
(1.01026 -0.0288187 -5.44992e-11)
(1.04069 -0.0356254 -1.12555e-10)
(1.07411 -0.0339669 -1.23736e-10)
(1.10174 -0.0237718 -8.15078e-11)
(1.11639 -0.00813774 -3.0791e-11)
(1.11531 0.00823736 2.44602e-13)
(1.10045 0.0212528 6.73429e-12)
(1.07668 0.0288142 2.03984e-12)
(1.0494 0.0307751 3.08688e-12)
(1.02307 0.0279568 1.56112e-11)
(1.00101 0.0211793 5.91532e-12)
(0.986024 0.0109176 -1.45237e-10)
(0.980845 -0.00226597 -6.46071e-10)
(0.987878 -0.0168407 -1.66672e-09)
(1.00785 -0.0298086 -3.1076e-09)
(1.03821 -0.037339 -4.50135e-09)
(1.0727 -0.0364425 -5.23127e-09)
(1.10285 -0.0266808 -4.9365e-09)
(1.12102 -0.0106948 -3.77602e-09)
(1.12314 0.00689803 -2.2999e-09)
(1.10992 0.0214996 -1.04239e-09)
(1.08593 0.0302506 -2.56565e-10)
(1.05725 0.0325448 8.90859e-11)
(1.02938 0.0293262 1.35746e-10)
(1.00632 0.0219048 -5.78125e-11)
(0.990932 0.0112208 -5.79629e-10)
(0.985758 -0.00192717 -1.55932e-09)
(0.992837 -0.0160029 -2.9841e-09)
(1.01237 -0.0282444 -4.61195e-09)
(1.04136 -0.0353067 -6.06824e-09)
(1.07362 -0.0347385 -6.99853e-09)
(1.10163 -0.026262 -7.15254e-09)
(1.119 -0.0120159 -6.44483e-09)
(1.1223 0.00427411 -5.03221e-09)
(1.11173 0.0186316 -3.29611e-09)
(1.09061 0.0280972 -1.68545e-09)
(1.064 0.0314108 -5.33995e-10)
(1.03719 0.0288785 1.81175e-11)
(1.01466 0.0216256 -2.48812e-11)
(0.999921 0.0108821 -5.9361e-10)
(0.995699 -0.00206147 -1.5731e-09)
(1.00356 -0.0153274 -2.78038e-09)
(1.02284 -0.0262358 -3.98387e-09)
(1.04994 -0.0319871 -4.98086e-09)
(1.07887 -0.0308698 -5.64911e-09)
(1.10308 -0.0230973 -5.92291e-09)
(1.11746 -0.0107225 -5.74853e-09)
(1.11963 0.00319434 -5.09708e-09)
(1.1101 0.0155861 -4.02906e-09)
(1.09167 0.024143 -2.73245e-09)
(1.06841 0.0276561 -1.49069e-09)
(1.04472 0.0259637 -5.91872e-10)
(1.0247 0.0196465 -2.25109e-10)
(1.0119 0.00974352 -4.18733e-10)
(1.009 -0.00224638 -1.04738e-09)
(1.01717 -0.0141927 -1.89601e-09)
(1.03522 -0.0235026 -2.74783e-09)
(1.05942 -0.0278616 -3.45393e-09)
(1.08429 -0.0261607 -3.95022e-09)
(1.10429 -0.0189767 -4.22392e-09)
(1.11541 -0.00830279 -4.26654e-09)
(1.11607 0.00324516 -4.05354e-09)
(1.1071 0.01326 -3.56502e-09)
(1.09106 0.020066 -2.82913e-09)
(1.07137 0.0228244 -1.95902e-09)
(1.05164 0.0213713 -1.14583e-09)
(1.0353 0.0160315 -5.8992e-10)
(1.02537 0.00758947 -4.08471e-10)
(1.02405 -0.00258496 -5.87156e-10)
(1.03208 -0.0124956 -1.00716e-09)
(1.04803 -0.019871 -1.51795e-09)
(1.06843 -0.0228851 -2.00096e-09)
(1.08863 -0.0208605 -2.39231e-09)
(1.10418 -0.0145213 -2.66889e-09)
(1.11208 -0.0056615 -2.82149e-09)
(1.11139 0.00354281 -2.83518e-09)
(1.10309 0.0112063 -2.68746e-09)
(1.08951 0.01612 -2.36471e-09)
(1.07353 0.0177727 -1.89112e-09)
(1.05808 0.016158 -1.34755e-09)
(1.04586 0.0116078 -8.54352e-10)
(1.03915 0.0048058 -5.20733e-10)
(1.03945 -0.00308929 -3.96775e-10)
(1.04697 -0.0104605 -4.62523e-10)
(1.0602 -0.0155801 -6.546e-10)
(1.07619 -0.0171864 -9.03433e-10)
(1.09124 -0.0149683 -1.1565e-09)
(1.10207 -0.00967104 -1.38187e-09)
(1.10666 -0.00277967 -1.55992e-09)
(1.10463 0.00402374 -1.67325e-09)
(1.09705 0.0093594 -1.70169e-09)
(1.08593 0.0124131 -1.62598e-09)
(1.07362 0.0129259 -1.44061e-09)
(1.06239 0.0110323 -1.16751e-09)
(1.05424 0.00712866 -8.57143e-10)
(1.05068 0.00186946 -5.71807e-10)
(1.0525 -0.00378077 -3.61156e-10)
(1.05942 -0.00861971 -2.46661e-10)
(1.06994 -0.0114943 -2.22458e-10)
(1.0816 -0.0116956 -2.6714e-10)
(1.0917 -0.00923823 -3.56062e-10)
(1.09801 -0.00485725 -4.67836e-10)
(1.09938 0.000270855 -5.84791e-10)
(1.09593 0.00492768 -6.90433e-10)
(1.08874 0.00819351 -7.67391e-10)
(1.07958 0.00959099 -7.98534e-10)
(1.0702 0.00906439 -7.7198e-10)
(1.06255 0.00681363 -6.87298e-10)
(1.05764 0.00329503 -5.58088e-10)
(1.05706 -0.000990042 -4.08059e-10)
(1.06009 -0.00504507 -2.62656e-10)
(1.06767 -0.00844644 -1.40826e-10)
(1.07633 -0.00947151 -5.37679e-11)
(1.08635 -0.0100314 2.16616e-12)
(1.09481 -0.00459136 1.55812e-11)
(1.00012 -0.0018369 -3.43414e-20)
(1.002 -0.00561454 -5.44907e-19)
(1.00632 -0.00955856 -1.04939e-18)
(1.01289 -0.0135842 -1.74311e-18)
(1.02188 -0.017525 -2.2059e-18)
(1.03329 -0.0210702 -3.76779e-18)
(1.04688 -0.0237721 -5.93048e-18)
(1.06212 -0.0249539 4.12496e-18)
(1.07785 -0.0239082 -6.34142e-18)
(1.09248 -0.020092 -3.92361e-17)
(1.10365 -0.0133899 -3.11895e-17)
(1.1095 -0.00536894 3.09869e-17)
(1.10971 0.00245731 7.12428e-17)
(1.10476 0.00842991 4.96943e-17)
(1.09654 0.0108022 -4.26956e-17)
(1.08819 0.00896903 -1.28682e-16)
(1.08281 0.00368727 -3.65414e-17)
(1.0825 -0.0031302 4.41044e-16)
(1.08768 -0.008796 1.30348e-15)
(1.09654 -0.0104977 1.92426e-15)
(1.1051 -0.00657248 1.68699e-15)
(1.10878 0.00231846 1.05183e-15)
(1.10462 0.0134875 4.65459e-16)
(1.09237 0.0237723 2.02605e-16)
(1.07391 0.0308621 8.4948e-16)
(1.05212 0.0335882 -1.62281e-15)
(1.03006 0.0315837 -7.86001e-15)
(1.01068 0.0248821 2.81026e-14)
(0.996882 0.0137758 3.54748e-14)
(0.991499 -0.000971593 -4.39323e-13)
(0.997044 -0.0175471 2.03225e-13)
(1.01454 -0.0324557 7.89505e-12)
(1.04169 -0.0409925 1.93996e-11)
(1.07212 -0.0393872 1.98268e-11)
(1.09723 -0.0273376 9.53306e-12)
(1.11002 -0.00861707 1.49692e-12)
(1.108 0.011023 -7.10424e-13)
(1.09327 0.0267552 -2.8575e-13)
(1.07042 0.0362409 6.86067e-14)
(1.04417 0.0392269 -6.00434e-13)
(1.0184 0.0363187 1.36784e-13)
(0.996261 0.0280336 9.43033e-12)
(0.98082 0.0146048 1.39246e-11)
(0.975389 -0.00339997 -9.31878e-11)
(0.983059 -0.0238594 -5.37997e-10)
(1.00511 -0.0422445 -1.42005e-09)
(1.03899 -0.0525563 -2.35159e-09)
(1.07736 -0.0501949 -2.66286e-09)
(1.10976 -0.0349495 -2.12943e-09)
(1.12706 -0.0115888 -1.20133e-09)
(1.12562 0.0126516 -4.4094e-10)
(1.10808 0.0315946 -5.76709e-11)
(1.08071 0.0422868 4.64555e-11)
(1.05008 0.0447896 5.14452e-11)
(1.02106 0.0405518 5.57583e-11)
(0.996795 0.0308676 -2.11757e-11)
(0.979748 0.0163423 -4.95306e-10)
(0.97271 -0.00244454 -1.80177e-09)
(0.978762 -0.0235411 -4.11398e-09)
(0.999499 -0.0427056 -7.00845e-09)
(1.03257 -0.0542272 -9.61165e-09)
(1.07095 -0.0534693 -1.10301e-08)
(1.10499 -0.03955 -1.06882e-08)
(1.12601 -0.0162314 -8.62547e-09)
(1.12928 0.00964618 -5.62615e-09)
(1.11535 0.0311572 -2.78038e-09)
(1.08922 0.0439836 -8.24487e-10)
(1.05779 0.0472815 1.20714e-10)
(1.02723 0.0425999 2.95599e-10)
(1.00181 0.0319711 -1.15269e-10)
(0.984572 0.0166917 -1.14015e-09)
(0.978487 -0.0022917 -2.81773e-09)
(0.986222 -0.0228729 -4.92441e-09)
(1.00817 -0.0409181 -7.00094e-09)
(1.04066 -0.0513275 -8.6455e-09)
(1.07632 -0.0504438 -9.66933e-09)
(1.10657 -0.0379921 -9.95729e-09)
(1.1246 -0.0172689 -9.33093e-09)
(1.12721 0.00625168 -7.70723e-09)
(1.11507 0.026876 -5.373e-09)
(1.09196 0.040434 -2.9478e-09)
(1.06329 0.045192 -1.0609e-09)
(1.03453 0.0416165 -8.23665e-11)
(1.01033 0.0312658 -8.47585e-11)
(0.994563 0.0157753 -9.28006e-10)
(0.990488 -0.0030942 -2.32035e-09)
(1.00004 -0.0225574 -3.87263e-09)
(1.02232 -0.0385076 -5.22667e-09)
(1.05287 -0.0466977 -6.19759e-09)
(1.08464 -0.0446595 -6.78842e-09)
(1.11028 -0.0329116 -7.05815e-09)
(1.12444 -0.0146868 -6.97377e-09)
(1.12499 0.00543968 -6.40203e-09)
(1.11309 0.0230692 -5.26948e-09)
(1.09217 0.0350352 -3.7199e-09)
(1.06676 0.0397836 -2.11896e-09)
(1.04143 0.0371769 -9.0439e-10)
(1.0204 0.0280028 -3.85696e-10)
(1.00743 0.0136278 -6.14886e-10)
(1.00551 -0.00385708 -1.3913e-09)
(1.0159 -0.0212891 -2.38528e-09)
(1.03702 -0.0347393 -3.30366e-09)
(1.0643 -0.0407488 -3.99588e-09)
(1.09145 -0.037768 -4.4505e-09)
(1.11235 -0.0268176 -4.71336e-09)
(1.12286 -0.0109894 -4.79737e-09)
(1.12166 0.00580425 -4.6467e-09)
(1.11011 0.0200807 -4.18263e-09)
(1.09139 0.0295278 -3.39183e-09)
(1.06942 0.0330894 -2.39465e-09)
(1.04811 0.0306391 -1.43389e-09)
(1.03106 0.0226603 -7.7044e-10)
(1.02144 0.0102386 -5.51314e-10)
(1.02161 -0.00465957 -7.47325e-10)
(1.03213 -0.0190723 -1.19972e-09)
(1.0511 -0.0296041 -1.72592e-09)
(1.07429 -0.033577 -2.20176e-09)
(1.09635 -0.030097 -2.57949e-09)
(1.11243 -0.0203765 -2.85697e-09)
(1.11949 -0.00717199 -3.03389e-09)
(1.11688 0.00627666 -3.08497e-09)
(1.10605 0.0172401 -2.9651e-09)
(1.08985 0.0240413 -2.64068e-09)
(1.07163 0.0260432 -2.13175e-09)
(1.05465 0.0233157 -1.53349e-09)
(1.04184 0.0163697 -9.88908e-10)
(1.03563 0.00620313 -6.23041e-10)
(1.03756 -0.00546917 -4.86696e-10)
(1.04759 -0.0162236 -5.49602e-10)
(1.0637 -0.0234826 -7.37576e-10)
(1.0822 -0.0254194 -9.77391e-10)
(1.09883 -0.0216793 -1.22061e-09)
(1.10999 -0.0134896 -1.44256e-09)
(1.11368 -0.00313366 -1.62804e-09)
(1.1098 0.00688154 -1.75754e-09)
(1.09986 0.0145574 -1.80315e-09)
(1.08632 0.0187657 -1.73666e-09)
(1.07193 0.0191987 -1.54775e-09)
(1.05929 0.0161024 -1.26034e-09)
(1.05061 0.010079 -9.31782e-10)
(1.04757 0.00210613 -6.31137e-10)
(1.05093 -0.00635975 -4.10637e-10)
(1.06014 -0.0134931 -2.89909e-10)
(1.0732 -0.0175609 -2.59589e-10)
(1.08706 -0.0175424 -2.96197e-10)
(1.09851 -0.0135408 -3.75782e-10)
(1.10507 -0.00674199 -4.79752e-10)
(1.10563 0.00104084 -5.93393e-10)
(1.10055 0.00798124 -7.01348e-10)
(1.09128 0.0127385 -7.84712e-10)
(1.08001 0.0146513 -8.22919e-10)
(1.06879 0.0136778 -8.00652e-10)
(1.05988 0.0101422 -7.15845e-10)
(1.05447 0.00472158 -5.82745e-10)
(1.05435 -0.00180705 -4.26957e-10)
(1.05864 -0.00796791 -2.75599e-10)
(1.06825 -0.0130155 -1.4821e-10)
(1.07887 -0.0144918 -5.56914e-11)
(1.091 -0.0151007 5.58835e-12)
(1.10036 -0.00675718 2.77049e-11)
(1.00012 -0.00234554 -2.64783e-18)
(1.00195 -0.00717752 -8.86676e-18)
(1.00619 -0.0122524 -7.66462e-18)
(1.0127 -0.0174791 -9.81398e-18)
(1.02173 -0.0226627 -6.33979e-18)
(1.03338 -0.0274161 -2.37965e-17)
(1.04755 -0.0311617 1.57129e-17)
(1.0638 -0.0329649 1.97314e-17)
(1.08094 -0.0318292 -1.87738e-16)
(1.09725 -0.0268587 -1.006e-16)
(1.10971 -0.0177825 4.17908e-16)
(1.11597 -0.00685759 7.14477e-16)
(1.1157 0.0038916 4.55198e-16)
(1.10927 0.0121831 -1.70837e-16)
(1.09887 0.0154727 -7.64901e-16)
(1.08837 0.0128586 -7.78324e-16)
(1.08159 0.00536151 -4.24524e-17)
(1.08119 -0.00440451 -4.9928e-16)
(1.08787 -0.0126799 -6.15541e-15)
(1.0995 -0.0154039 -1.17769e-14)
(1.11107 -0.0101121 -8.99372e-15)
(1.1167 0.00223896 -4.19241e-15)
(1.11274 0.0177268 -1.56762e-15)
(1.09908 0.0318436 1.12763e-15)
(1.07828 0.0414559 -9.62301e-16)
(1.05379 0.045126 -2.01424e-14)
(1.02904 0.0425015 6.773e-14)
(1.00716 0.0336733 2.14179e-13)
(0.991213 0.0189388 -1.63534e-12)
(0.984465 -0.000898844 -4.05806e-12)
(0.990262 -0.0236165 2.56866e-11)
(1.01055 -0.0444369 1.38577e-10)
(1.04301 -0.0565631 2.89024e-10)
(1.07962 -0.0544118 3.32048e-10)
(1.10943 -0.0375033 2.25739e-10)
(1.12387 -0.0113599 8.83558e-11)
(1.12039 0.0157036 1.40096e-11)
(1.10222 0.0369282 -5.55621e-12)
(1.07532 0.0493427 -5.41474e-12)
(1.04532 0.0529838 -4.05731e-12)
(1.01633 0.0489507 9.77958e-12)
(0.991415 0.0379947 5.25679e-11)
(0.973434 0.020283 -3.14906e-12)
(0.965628 -0.00367551 -6.5217e-10)
(0.971486 -0.0313255 -2.58403e-09)
(0.993489 -0.0567796 -5.79595e-09)
(1.03039 -0.071768 -8.97703e-09)
(1.07486 -0.0693754 -1.02598e-08)
(1.11457 -0.0486257 -8.79289e-09)
(1.13745 -0.0160509 -5.56812e-09)
(1.13761 0.0177518 -2.45738e-09)
(1.11775 0.043717 -5.68988e-10)
(1.08599 0.0578064 1.34952e-10)
(1.05086 0.060591 2.36014e-10)
(1.01815 0.0545913 1.67896e-10)
(0.990814 0.0418324 -1.49566e-10)
(0.970851 0.0229662 -1.27352e-09)
(0.961404 -0.00175981 -3.72227e-09)
(0.966839 -0.030224 -7.28307e-09)
(0.989741 -0.0567162 -1.09946e-08)
(1.02723 -0.07308 -1.39259e-08)
(1.0706 -0.0726649 -1.56052e-08)
(1.10863 -0.0542052 -1.56592e-08)
(1.13197 -0.0228159 -1.3681e-08)
(1.13581 0.0122545 -9.89994e-09)
(1.12081 0.04154 -5.54211e-09)
(1.0923 0.0590234 -2.02844e-09)
(1.05776 0.0635285 -5.58201e-11)
(1.02399 0.0573091 4.48799e-10)
(0.995686 0.0432299 -2.23151e-10)
(0.976374 0.0228856 -1.87428e-09)
(0.969827 -0.00274249 -4.21209e-09)
(0.97939 -0.0308393 -6.66068e-09)
(1.00519 -0.0554687 -8.61784e-09)
(1.0423 -0.0693926 -9.86038e-09)
(1.08186 -0.0677028 -1.0565e-08)
(1.1143 -0.0503996 -1.09165e-08)
(1.13248 -0.0223158 -1.07283e-08)
(1.13351 0.00906229 -9.55091e-09)
(1.1188 0.0362613 -7.25437e-09)
(1.09285 0.05398 -4.37368e-09)
(1.0615 0.0601198 -1.82195e-09)
(1.03039 0.0553516 -3.53441e-10)
(1.00439 0.0416029 -2.52142e-10)
(0.987824 0.0208061 -1.31772e-09)
(0.984578 -0.00479022 -3.01089e-09)
(0.996783 -0.0312388 -4.70025e-09)
(1.02293 -0.0526558 -5.94896e-09)
(1.05739 -0.0631577 -6.66501e-09)
(1.09207 -0.0595861 -7.01872e-09)
(1.11899 -0.0429927 -7.21734e-09)
(1.13262 -0.0180625 -7.28536e-09)
(1.1311 0.0088844 -7.00284e-09)
(1.11619 0.0320016 -6.10037e-09)
(1.0921 0.0473023 -4.5646e-09)
(1.06392 0.0530179 -2.76918e-09)
(1.03657 0.0491344 -1.30383e-09)
(1.01446 0.0366422 -6.36593e-10)
(1.00165 0.0171912 -8.62111e-10)
(1.0014 -0.00647486 -1.69989e-09)
(1.01484 -0.029942 -2.71286e-09)
(1.03965 -0.047707 -3.56407e-09)
(1.07028 -0.0550843 -4.13482e-09)
(1.09961 -0.0501875 -4.47944e-09)
(1.12114 -0.0346774 -4.70442e-09)
(1.13071 -0.0129462 -4.85236e-09)
(1.12727 0.00963094 -4.84468e-09)
(1.11269 0.0283968 -4.52863e-09)
(1.09081 0.0404035 -3.81142e-09)
(1.06612 0.0444563 -2.78654e-09)
(1.04294 0.0405498 -1.73739e-09)
(1.02516 0.0293638 -9.91164e-10)
(1.01621 0.0123158 -7.30356e-10)
(1.01851 -0.00792588 -9.12617e-10)
(1.03229 -0.0272434 -1.34585e-09)
(1.05483 -0.0409557 -1.82948e-09)
(1.08101 -0.0455133 -2.24671e-09)
(1.10481 -0.0399287 -2.57218e-09)
(1.1211 -0.0260869 -2.82802e-09)
(1.12695 -0.00787688 -3.02865e-09)
(1.122 0.0102724 -3.14336e-09)
(1.10821 0.0247207 -3.09918e-09)
(1.08899 0.0333232 -2.82772e-09)
(1.06819 0.0353664 -2.33029e-09)
(1.0495 0.0310532 -1.70987e-09)
(1.03615 0.0211198 -1.13306e-09)
(1.03083 0.00694451 -7.43233e-10)
(1.03503 -0.00907228 -5.93138e-10)
(1.04829 -0.0235303 -6.4358e-10)
(1.06778 -0.0328842 -8.12296e-10)
(1.089 -0.0347517 -1.02528e-09)
(1.1071 -0.0288605 -1.24039e-09)
(1.11827 -0.0170919 -1.44292e-09)
(1.12064 -0.00268037 -1.62635e-09)
(1.11446 0.0109387 -1.77285e-09)
(1.10171 0.0211019 -1.8464e-09)
(1.08535 0.0263741 -1.8053e-09)
(1.0686 0.0264368 -1.62888e-09)
(1.05442 0.0216901 -1.33984e-09)
(1.04535 0.0129883 -1.0022e-09)
(1.04323 0.00170957 -6.92804e-10)
(1.04875 -0.01007 -4.67141e-10)
(1.06093 -0.0197576 -3.43012e-10)
(1.07704 -0.024954 -3.07333e-10)
(1.09331 -0.0243461 -3.34273e-10)
(1.10603 -0.0182382 -4.00456e-10)
(1.11255 -0.00841677 -4.90678e-10)
(1.11188 0.00253608 -5.94839e-10)
(1.10471 0.0120986 -7.00711e-10)
(1.09291 0.0184737 -7.88932e-10)
(1.07911 0.0208241 -8.35103e-10)
(1.06577 0.0191495 -8.19124e-10)
(1.0555 0.0139347 -7.3608e-10)
(1.04974 0.00611653 -6.00442e-10)
(1.05047 -0.00316463 -4.39976e-10)
(1.05657 -0.0118598 -2.83949e-10)
(1.06883 -0.0187482 -1.52829e-10)
(1.0818 -0.0206313 -5.71313e-11)
(1.09633 -0.0210138 7.00117e-12)
(1.10628 -0.00909767 3.62089e-11)
(1.00011 -0.00283901 3.04044e-18)
(1.00188 -0.00870026 8.83294e-18)
(1.00599 -0.014902 7.82409e-18)
(1.01239 -0.0213612 1.16723e-17)
(1.02143 -0.0278716 1.03774e-17)
(1.03333 -0.0339845 -1.90403e-17)
(1.04818 -0.0389973 2.48533e-16)
(1.06569 -0.0416711 -6.08727e-16)
(1.08472 -0.0406548 -2.54411e-16)
(1.10334 -0.0345017 2.52922e-15)
(1.11759 -0.0226763 3.44186e-15)
(1.12445 -0.00837572 7.90946e-16)
(1.1236 0.00580259 -3.36234e-15)
(1.11519 0.0168594 -7.1333e-15)
(1.10179 0.021213 -8.29498e-15)
(1.0883 0.0175639 -5.60527e-15)
(1.07952 0.00723192 -3.16076e-15)
(1.07889 -0.00630916 -2.54431e-14)
(1.08756 -0.0179852 -1.00141e-13)
(1.10303 -0.0221265 -1.72707e-13)
(1.11882 -0.0151789 -1.58489e-13)
(1.12719 0.00150389 -9.3667e-14)
(1.12347 0.0223214 -4.07575e-14)
(1.10788 0.0410154 -6.0731e-15)
(1.0839 0.0535129 -3.85203e-14)
(1.05587 0.0582077 -2.37044e-14)
(1.02763 0.0549004 6.1313e-13)
(1.00249 0.0437974 -4.02083e-13)
(0.983662 0.0251261 -8.92502e-12)
(0.974938 -0.000484152 5.00333e-13)
(0.980917 -0.0305786 1.11831e-10)
(1.00489 -0.0588304 3.40457e-10)
(1.04458 -0.0755416 5.88479e-10)
(1.08991 -0.0726089 7.36363e-10)
(1.12636 -0.0494451 6.41961e-10)
(1.14284 -0.0140605 3.53902e-10)
(1.13694 0.0218798 1.0893e-10)
(1.11377 0.0492976 -3.13017e-12)
(1.08136 0.0646851 -2.60744e-11)
(1.04651 0.068712 -1.40931e-11)
(1.01355 0.0632662 4.90988e-11)
(0.985152 0.0494849 1.30886e-10)
(0.963488 0.0275067 -2.64522e-10)
(0.95139 -0.00240587 -2.28973e-09)
(0.953429 -0.0377694 -6.79524e-09)
(0.974579 -0.0716962 -1.29242e-08)
(1.01503 -0.0932616 -1.84146e-08)
(1.06648 -0.092306 -2.10037e-08)
(1.11452 -0.0662357 -1.93199e-08)
(1.14466 -0.0230794 -1.38644e-08)
(1.1486 0.0225243 -7.29309e-09)
(1.12793 0.0574099 -2.37355e-09)
(1.09201 0.0757191 -2.70037e-12)
(1.05172 0.0786948 5.93692e-10)
(1.01439 0.0705687 4.02947e-10)
(0.98305 0.0545174 -4.40456e-10)
(0.959576 0.0310528 -2.51646e-09)
(0.948069 -0.000425738 -6.03107e-09)
(0.954497 -0.0377005 -1.00751e-08)
(0.981689 -0.0729088 -1.33452e-08)
(1.02509 -0.0946757 -1.53745e-08)
(1.07381 -0.0941888 -1.65785e-08)
(1.11526 -0.070233 -1.71683e-08)
(1.13971 -0.0297953 -1.64011e-08)
(1.1428 0.015252 -1.33906e-08)
(1.12579 0.0529247 -8.61415e-09)
(1.09444 0.075501 -3.8294e-09)
(1.05661 0.0814205 -6.23364e-10)
(1.01944 0.0736283 4.44564e-10)
(0.988099 0.055776 -4.16672e-10)
(0.966937 0.0296262 -2.65589e-09)
(0.960757 -0.00378792 -5.45449e-09)
(0.973253 -0.0405464 -7.88236e-09)