/*--------------------------------*- C++ -*----------------------------------*\
  =========                 |
  \\      /  F ield         | OpenFOAM: The Open Source CFD Toolbox
   \\    /   O peration     | Website:  https://openfoam.org
    \\  /    A nd           | Version:  11
     \\/     M anipulation  |
\*---------------------------------------------------------------------------*/
FoamFile
{
    format      ascii;
    class       volVectorField;
    location    "19.740272";
    object      vorticity;
}
// * * * * * * * * * * * * * * * * * * * * * * * * * * * * * * * * * * * * * //

dimensions      [0 0 -1 0 0 0 0];

internalField   nonuniform List<vector> 
7132
(
(-5.20688e-17 -1.84946e-15 -0.0107183)
(-1.68626e-16 -1.79736e-15 -0.0108777)
(-1.61566e-16 -2.17045e-17 -0.0108508)
(-1.99027e-16 -1.79585e-15 -0.0106129)
(-2.66533e-16 -1.78121e-15 -0.0102277)
(-2.62634e-16 -6.29525e-18 -0.00979469)
(-2.49889e-16 6.36872e-19 -0.00941425)
(-2.32102e-16 -6.08494e-19 -0.00916409)
(-2.0122e-16 -2.0451e-18 -0.00908997)
(-1.95787e-16 -6.63982e-19 -0.00920753)
(-1.98969e-16 2.42766e-18 -0.00948677)
(-1.28408e-16 7.81027e-18 -0.00988667)
(-1.14065e-16 1.41888e-17 -0.0103188)
(-9.19914e-17 5.34019e-17 -0.0106847)
(-1.76203e-17 -1.64382e-15 -0.010895)
(7.86537e-18 -1.65744e-15 -0.0108839)
(-3.18324e-17 -3.41975e-15 -0.0106394)
(-7.12048e-17 4.60449e-17 -0.0102262)
(1.28984e-18 -1.70237e-15 -0.00975831)
(1.25901e-16 -1.74162e-15 -0.00937516)
(2.35533e-16 -2.47941e-17 -0.00922917)
(2.67709e-16 -2.5629e-17 -0.00942604)
(2.11317e-16 -3.02094e-17 -0.00993253)
(5.79946e-17 -1.44537e-17 -0.010602)
(2.84696e-16 1.70695e-15 -0.0112541)
(8.08945e-16 -9.82617e-18 -0.0117218)
(-4.64855e-15 2.7937e-16 -0.0118681)
(-1.06103e-14 -4.03412e-16 -0.0115967)
(8.6773e-14 -2.77997e-15 -0.0108888)
(2.66159e-13 -1.03491e-16 -0.00988517)
(-1.22598e-12 3.16988e-15 -0.00890022)
(-7.78768e-12 -6.48509e-15 -0.00818808)
(-1.65455e-11 -1.77492e-14 -0.00781308)
(-1.80784e-11 5.68201e-15 -0.00776254)
(-1.13439e-11 2.68648e-14 -0.00812711)
(-4.11149e-12 1.67976e-14 -0.00906396)
(-5.9999e-13 -3.05472e-16 -0.010483)
(3.13467e-13 -5.40932e-14 -0.0119854)
(5.25283e-13 -9.50051e-14 -0.0131561)
(4.62786e-13 3.60175e-13 -0.0137232)
(-2.03118e-12 1.73929e-12 -0.0135755)
(-9.00958e-12 1.13462e-12 -0.0127573)
(-6.51478e-12 -1.26879e-11 -0.0115097)
(7.28542e-11 -5.57585e-11 -0.010388)
(3.55528e-10 -1.22219e-10 -0.0101627)
(8.74509e-10 -1.58719e-10 -0.0110879)
(1.4009e-09 -1.06015e-10 -0.012436)
(1.56634e-09 1.71219e-11 -0.0131011)
(1.2433e-09 1.20621e-10 -0.0128073)
(7.00694e-10 1.44657e-10 -0.0124145)
(2.78882e-10 1.07789e-10 -0.0127443)
(5.22849e-11 5.62049e-11 -0.0136465)
(-2.97313e-11 1.46581e-11 -0.0145521)
(-1.62657e-11 -1.19207e-11 -0.0149861)
(5.88982e-11 -9.65723e-12 -0.0147257)
(5.40384e-11 7.36325e-11 -0.0136755)
(-5.27286e-10 3.0759e-10 -0.0115742)
(-2.65055e-09 6.98805e-10 -0.00790959)
(-7.30512e-09 1.1182e-09 -0.00229957)
(-1.43007e-08 1.3113e-09 0.0047891)
(-2.13095e-08 1.0545e-09 0.0114122)
(-2.48955e-08 3.64266e-10 0.0148493)
(-2.31744e-08 -4.83975e-10 0.0133945)
(-1.73044e-08 -1.14249e-09 0.00743945)
(-1.02358e-08 -1.36439e-09 -0.000890421)
(-4.46755e-09 -1.14613e-09 -0.0088056)
(-1.002e-09 -7.19008e-10 -0.0142444)
(4.6274e-10 -2.74217e-10 -0.016574)
(6.44363e-10 2.77126e-10 -0.0161755)
(-2.2079e-10 1.24693e-09 -0.0135724)
(-2.73595e-09 2.84267e-09 -0.00893649)
(-7.92418e-09 4.8525e-09 -0.0023057)
(-1.62099e-08 6.604e-09 0.00590266)
(-2.64846e-08 7.22999e-09 0.0148758)
(-3.6137e-08 6.11664e-09 0.0236681)
(-4.21106e-08 3.28578e-09 0.0310588)
(-4.2307e-08 -5.53044e-10 0.0351899)
(-3.66424e-08 -4.31383e-09 0.0339791)
(-2.71378e-08 -6.97059e-09 0.0265958)
(-1.67537e-08 -7.8584e-09 0.0146294)
(-8.02071e-09 -6.84568e-09 0.00156814)
(-2.26688e-09 -4.35397e-09 -0.0088544)
(3.40795e-10 -1.08539e-09 -0.0143361)
(1.70147e-10 2.34101e-09 -0.0147832)
(-2.42804e-09 5.50646e-09 -0.0118829)
(-7.14932e-09 8.06275e-09 -0.00793505)
(-1.33671e-08 9.62281e-09 -0.00462273)
(-1.9926e-08 9.83027e-09 -0.00206248)
(-2.54525e-08 8.517e-09 0.00106313)
(-2.88358e-08 5.78468e-09 0.00610371)
(-2.94563e-08 1.9683e-09 0.0128574)
(-2.72186e-08 -2.44098e-09 0.019137)
(-2.26021e-08 -6.81306e-09 0.0219956)
(-1.66015e-08 -1.02627e-08 0.0197147)
(-1.0451e-08 -1.16779e-08 0.012739)
(-5.27579e-09 -1.02574e-08 0.00338038)
(-1.84502e-09 -6.19875e-09 -0.00541591)
(-5.134e-10 -7.90874e-10 -0.0116858)
(-1.25934e-09 4.2812e-09 -0.0153227)
(-3.70593e-09 7.81282e-09 -0.0175938)
(-7.13795e-09 9.43592e-09 -0.0197324)
(-1.06464e-08 9.39723e-09 -0.0216049)
(-1.3427e-08 8.15928e-09 -0.0217482)
(-1.50164e-08 6.12401e-09 -0.0186893)
(-1.5304e-08 3.52078e-09 -0.0122753)
(-1.44018e-08 4.09843e-10 -0.00404084)
(-1.25431e-08 -3.18588e-09 0.00354759)
(-1.00447e-08 -6.95488e-09 0.00837713)
(-7.27967e-09 -1.00004e-08 0.00935342)
(-4.6464e-09 -1.10694e-08 0.00655697)
(-2.52927e-09 -9.36746e-09 0.00101865)
(-1.23851e-09 -5.29119e-09 -0.00593646)
(-9.308e-10 -3.10666e-10 -0.0133335)
(-1.54198e-09 3.93764e-09 -0.0206886)
(-2.7811e-09 6.50967e-09 -0.0275619)
(-4.22347e-09 7.34105e-09 -0.0329375)
(-5.4711e-09 6.88775e-09 -0.0353563)
(-6.27449e-09 5.68101e-09 -0.0337744)
(-6.55282e-09 4.06571e-09 -0.0283064)
(-6.34445e-09 2.13189e-09 -0.020281)
(-5.74984e-09 -2.05335e-10 -0.0116173)
(-4.89041e-09 -2.96246e-09 -0.00401478)
(-3.88649e-09 -5.78122e-09 0.00130059)
(-2.8566e-09 -7.86105e-09 0.00359115)
(-1.92552e-09 -8.33395e-09 0.00259885)
(-1.21558e-09 -6.8673e-09 -0.00152349)
(-8.13355e-10 -3.96119e-09 -0.00827722)
(-7.33824e-10 -6.49936e-10 -0.0168215)
(-9.11929e-10 2.10414e-09 -0.0258961)
(-1.23076e-09 3.81826e-09 -0.0337834)
(-1.57055e-09 4.49552e-09 -0.0387087)
(-1.84586e-09 4.39157e-09 -0.0395334)
(-2.01424e-09 3.77617e-09 -0.0362232)
(-2.06591e-09 2.80016e-09 -0.0297823)
(-2.00993e-09 1.48079e-09 -0.0217163)
(-1.86243e-09 -1.9819e-10 -0.0134522)
(-1.64148e-09 -2.12044e-09 -0.00619273)
(-1.36937e-09 -3.93384e-09 -0.000920873)
(-1.07787e-09 -5.13733e-09 0.00159742)
(-8.06411e-10 -5.34195e-09 0.000872342)
(-5.89013e-10 -4.50943e-09 -0.00316865)
(-4.39971e-10 -2.96963e-09 -0.0100271)
(-3.51262e-10 -1.21905e-09 -0.0185425)
(-3.02269e-10 3.21736e-10 -0.0269944)
(-2.74679e-10 1.43168e-09 -0.0335534)
(-2.61158e-10 2.07116e-09 -0.036874)
(-2.63425e-10 2.29372e-09 -0.0364879)
(-2.84565e-10 2.16255e-09 -0.0327989)
(-3.21967e-10 1.71153e-09 -0.0267255)
(-3.64797e-10 9.61729e-10 -0.0193669)
(-3.97215e-10 -2.47558e-11 -0.0118615)
(-4.05043e-10 -1.09943e-09 -0.00531949)
(-3.82255e-10 -2.04065e-09 -0.000755149)
(-3.32691e-10 -2.63424e-09 0.00102016)
(-2.65696e-10 -2.76839e-09 -0.000411797)
(-1.89892e-10 -2.47874e-09 -0.00494195)
(-1.0955e-10 -1.89308e-09 -0.0115568)
(-2.70571e-11 -1.23609e-09 -0.0198345)
(5.22243e-11 -4.75602e-10 -0.0233305)
(1.47771e-10 -1.16491e-11 -0.032534)
(-5.24363e-17 -4.60224e-18 -0.0321095)
(-1.76896e-16 -7.67883e-18 -0.0325979)
(-1.7766e-16 -8.19801e-18 -0.032527)
(-2.20593e-16 -1.03364e-17 -0.0318075)
(-3.0116e-16 -1.29912e-17 -0.0306135)
(-3.13945e-16 -1.29232e-17 -0.0292322)
(-3.23089e-16 -1.46288e-17 -0.0279626)
(-3.18928e-16 -2.49427e-17 -0.0270495)
(-2.76991e-16 1.71452e-15 -0.0266538)
(-3.33264e-16 -1.78964e-18 -0.0268592)
(-4.27328e-16 -3.1262e-17 -0.0276136)
(-3.95645e-16 1.70008e-15 -0.0288471)
(-2.32619e-16 -4.01936e-18 -0.0303476)
(-9.60662e-17 6.02674e-18 -0.0318779)
(-1.40125e-16 4.18184e-17 -0.033204)
(-4.48124e-16 8.39674e-17 -0.0341176)
(-5.80085e-16 8.8388e-17 -0.0344825)
(3.67906e-16 2.82132e-17 -0.0342753)
(2.8889e-15 -6.70459e-17 -0.0335468)
(5.11239e-15 -1.23168e-16 -0.0323953)
(5.05143e-15 -9.48511e-17 -0.0310042)
(3.6792e-15 -1.35208e-17 -0.0296481)
(1.98141e-15 7.46476e-17 -0.0285783)
(4.15946e-16 -5.45314e-17 -0.0279459)
(3.12771e-15 -4.03249e-16 -0.0277892)
(4.11789e-15 2.46018e-15 -0.0280425)
(-5.08355e-14 5.98898e-15 -0.028564)
(-5.01051e-14 -4.61142e-14 -0.0292089)
(8.26124e-13 -1.41164e-13 -0.0299343)
(1.50819e-12 6.54539e-13 -0.0308675)
(-1.17414e-11 4.03009e-12 -0.0321614)
(-5.8625e-11 7.64979e-12 -0.0335904)
(-1.20149e-10 5.12589e-12 -0.034532)
(-1.38048e-10 -2.59685e-12 -0.0344409)
(-9.43425e-11 -6.96007e-12 -0.0333508)
(-3.73986e-11 -5.35514e-12 -0.0318478)
(-6.46708e-12 -2.21452e-12 -0.0305387)
(2.71476e-12 -6.18467e-13 -0.0297149)
(3.36663e-12 -1.71406e-13 -0.0293447)
(1.77193e-13 1.63494e-12 -0.0292053)
(-8.05918e-12 6.47374e-12 -0.029106)
(-6.36605e-12 3.37469e-12 -0.02918)
(3.88308e-11 -5.36215e-11 -0.0300396)
(7.4906e-11 -2.36782e-10 -0.0325123)
(-2.521e-10 -5.2305e-10 -0.0367678)
(-1.35651e-09 -6.81405e-10 -0.0415897)
(-2.67717e-09 -4.51931e-10 -0.0454017)
(-2.95329e-09 9.5919e-11 -0.0471056)
(-2.02198e-09 5.53441e-10 -0.0459513)
(-8.53144e-10 6.26863e-10 -0.0423593)
(-9.76242e-11 4.31992e-10 -0.0380785)
(1.1294e-10 2.10513e-10 -0.0344077)
(5.06937e-11 4.89316e-11 -0.0319307)
(6.93084e-11 -5.62354e-11 -0.0306508)
(2.98279e-10 -4.4811e-11 -0.0302053)
(1.06563e-10 3.66723e-10 -0.0297271)
(-2.77142e-09 1.65989e-09 -0.0270825)
(-1.2318e-08 4.08772e-09 -0.0186253)
(-3.18035e-08 6.94328e-09 -0.00126688)
(-5.93121e-08 8.31347e-09 0.0237543)
(-8.58735e-08 6.35192e-09 0.0493358)
(-9.96765e-08 1.29676e-09 0.0653819)
(-9.38479e-08 -4.27956e-09 0.0643671)
(-7.15395e-08 -7.61181e-09 0.0462746)
(-4.34009e-08 -7.7828e-09 0.0188365)
(-1.95957e-08 -5.76302e-09 -0.00764618)
(-4.82647e-09 -3.18415e-09 -0.0258855)
(1.59583e-09 -1.0974e-09 -0.0340377)
(2.47133e-09 6.18892e-10 -0.0341218)
(-7.87886e-10 2.93709e-09 -0.0288432)
(-9.3423e-09 6.69437e-09 -0.0199053)
(-2.51326e-08 1.15895e-08 -0.00833198)
(-4.77268e-08 1.58842e-08 0.00495418)
(-7.29773e-08 1.71936e-08 0.0200458)
(-9.49496e-08 1.39296e-08 0.0385396)
(-1.08476e-07 6.37078e-09 0.0605844)
(-1.10064e-07 -3.28713e-09 0.0811166)
(-9.85078e-08 -1.18985e-08 0.0908207)
(-7.6285e-08 -1.69149e-08 0.0825036)
(-4.94744e-08 -1.74169e-08 0.0570873)
(-2.50667e-08 -1.40891e-08 0.0234503)
(-7.92355e-09 -8.53472e-09 -0.00680224)
(2.96773e-10 -2.30391e-09 -0.0256489)
(8.79467e-11 3.72542e-09 -0.0322466)
(-7.25576e-09 9.16619e-09 -0.0319706)
(-1.98636e-08 1.35323e-08 -0.0318151)
(-3.48657e-08 1.60112e-08 -0.035072)
(-4.88334e-08 1.5873e-08 -0.0385411)
(-5.92147e-08 1.29719e-08 -0.0349674)
(-6.51041e-08 7.78658e-09 -0.0191466)
(-6.64863e-08 1.15967e-09 0.00739755)
(-6.31559e-08 -5.86806e-09 0.0363794)
(-5.48517e-08 -1.21216e-08 0.0569296)
(-4.23926e-08 -1.63383e-08 0.0614954)
(-2.80844e-08 -1.73407e-08 0.0492856)
(-1.49809e-08 -1.45604e-08 0.0259831)
(-5.78776e-09 -8.57994e-09 3.69319e-06)
(-2.06683e-09 -1.08371e-09 -0.0227395)
(-3.90672e-09 5.87746e-09 -0.0415711)
(-9.9498e-09 1.07521e-08 -0.0589858)
(-1.78266e-08 1.29062e-08 -0.0758387)
(-2.50871e-08 1.25418e-08 -0.0884137)
(-3.01905e-08 1.03443e-08 -0.0905524)
(-3.28163e-08 7.06253e-09 -0.0784588)
(-3.33423e-08 3.21348e-09 -0.0535995)
(-3.2101e-08 -9.70592e-10 -0.022143)
(-2.9115e-08 -5.36442e-09 0.00770911)
(-2.44425e-08 -9.58662e-09 0.028876)
(-1.85366e-08 -1.26996e-08 0.0372171)
(-1.23234e-08 -1.34446e-08 0.0321842)
(-7.00935e-09 -1.10714e-08 0.0161994)
(-3.67621e-09 -6.09042e-09 -0.00721959)
(-2.8445e-09 -1.58929e-10 -0.035075)
(-4.24226e-09 4.8628e-09 -0.0647304)
(-6.9431e-09 7.85042e-09 -0.0924109)
(-9.83871e-09 8.68605e-09 -0.112551)
(-1.2137e-08 7.91326e-09 -0.119747)
(-1.35505e-08 6.22187e-09 -0.111712)
(-1.41335e-08 4.10069e-09 -0.0905213)
(-1.40027e-08 1.7304e-09 -0.0614961)
(-1.31956e-08 -9.32352e-10 -0.0309895)
(-1.17328e-08 -3.89414e-09 -0.00445581)
(-9.711e-09 -6.79812e-09 0.014119)
(-7.3684e-09 -8.84154e-09 0.0222421)
(-5.08998e-09 -9.15445e-09 0.0188257)
(-3.30091e-09 -7.42338e-09 0.00406912)
(-2.28817e-09 -4.20206e-09 -0.0204261)
(-2.07174e-09 -6.00648e-10 -0.0512349)
(-2.42384e-09 2.35262e-09 -0.0828714)
(-3.01994e-09 4.14758e-09 -0.108582)
(-3.60552e-09 4.80307e-09 -0.122523)
(-4.06695e-09 4.61342e-09 -0.121993)
(-4.39112e-09 3.8862e-09 -0.10816)
(-4.58291e-09 2.79801e-09 -0.0850467)
(-4.61844e-09 1.37905e-09 -0.0576956)
(-4.45686e-09 -3.82409e-10 -0.0306878)
(-4.06935e-09 -2.36697e-09 -0.00778571)
(-3.47604e-09 -4.21565e-09 0.00798321)
(-2.76756e-09 -5.4188e-09 0.0142465)
(-2.08137e-09 -5.58638e-09 0.00952335)
(-1.53749e-09 -4.69265e-09 -0.00614081)
(-1.18049e-09 -3.08851e-09 -0.0304748)
(-9.73829e-10 -1.2879e-09 -0.0588257)
(-8.44637e-10 2.83446e-10 -0.0850768)
(-7.39951e-10 1.41113e-09 -0.103536)
(-6.53349e-10 2.06553e-09 -0.110754)
(-6.11539e-10 2.30543e-09 -0.106259)
(-6.40477e-10 2.19182e-09 -0.0920588)
(-7.38404e-10 1.75165e-09 -0.0714195)
(-8.69412e-10 9.99355e-10 -0.0479204)
(-9.76943e-10 -4.63114e-12 -0.0250605)
(-1.01072e-09 -1.10691e-09 -0.00615633)
(-9.51087e-10 -2.07683e-09 0.00579174)
(-8.14186e-10 -2.69252e-09 0.00848994)
(-6.34783e-10 -2.83979e-09 0.00103233)
(-4.42318e-10 -2.55681e-09 -0.0155094)
(-2.47603e-10 -1.9745e-09 -0.0372837)
(-5.07213e-11 -1.31698e-09 -0.0623239)
(1.4005e-10 -5.63014e-10 -0.0714007)
(3.85055e-10 -5.94205e-11 -0.0949299)
(-1.48611e-18 -7.13347e-20 -0.0533768)
(-1.93033e-17 -2.74695e-20 -0.0542071)
(-3.71448e-17 1.43898e-19 -0.054096)
(-5.96635e-17 6.24347e-19 -0.0528799)
(-8.09477e-17 1.87035e-19 -0.0508355)
(-1.26139e-16 4.6694e-18 -0.0484342)
(-1.81286e-16 3.1283e-18 -0.0461773)
(2.45792e-18 -1.68815e-17 -0.0444856)
(-2.3939e-16 5.12308e-18 -0.0436513)
(-9.05168e-16 6.77285e-17 -0.0438456)
(-7.3993e-16 3.53122e-17 -0.0450102)
(4.36768e-16 -8.95444e-17 -0.0470948)
(1.23943e-15 -1.37295e-16 -0.0498012)
(8.02877e-16 7.15499e-18 -0.0527897)
(-1.02728e-15 2.66928e-16 -0.0556996)
(-2.681e-15 2.97265e-16 -0.0581566)
(-7.36264e-16 -3.58315e-16 -0.0598306)
(8.89028e-15 -1.68845e-15 -0.0604618)
(2.61206e-14 -2.33989e-15 -0.0598441)
(3.84206e-14 -1.08816e-15 -0.0578519)
(3.35446e-14 6.91802e-16 -0.0545688)
(2.07823e-14 1.50938e-15 -0.0504287)
(9.08679e-15 1.60142e-15 -0.0461082)
(3.947e-15 -5.87605e-16 -0.0423424)
(1.66582e-14 -1.87875e-15 -0.0397834)
(-3.33679e-14 2.69718e-14 -0.0388787)
(-1.52611e-13 2.73909e-14 -0.0398131)
(5.73118e-13 -4.38883e-13 -0.0425661)
(6.21857e-13 -7.81929e-13 -0.0469973)
(-9.05772e-12 6.28192e-12 -0.052799)
(5.28593e-12 3.0068e-11 -0.059395)
(1.65686e-10 5.41958e-11 -0.0657372)
(4.04516e-10 3.96936e-11 -0.0699325)
(4.14576e-10 -1.28995e-11 -0.0699426)
(2.01992e-10 -5.02994e-11 -0.0655402)
(3.40625e-11 -4.39227e-11 -0.0583319)
(-1.35914e-11 -2.00587e-11 -0.0502166)
(-6.02002e-12 -4.97094e-12 -0.0428462)
(7.55696e-13 1.17205e-12 -0.0374277)
(-1.26565e-11 6.07133e-12 -0.0346056)
(5.39259e-12 5.00742e-12 -0.0347185)
(2.00903e-10 -2.23121e-11 -0.0382956)
(2.87899e-10 -5.33239e-11 -0.0454967)
(-1.9587e-09 8.97051e-11 -0.0534668)
(-1.12241e-08 5.93489e-10 -0.0549029)
(-2.9542e-08 1.05382e-09 -0.0447799)
(-4.88588e-08 6.92372e-10 -0.0303251)
(-5.53022e-08 -3.10473e-10 -0.0257739)
(-4.42237e-08 -9.29454e-10 -0.034976)
(-2.49646e-08 -8.17524e-10 -0.0475334)
(-9.2002e-09 -3.75253e-10 -0.0527477)
(-1.22745e-09 -1.79506e-11 -0.0489138)
(9.68739e-10 3.64741e-11 -0.0410722)
(1.05274e-09 -1.35713e-10 -0.0350818)
(1.04232e-09 -2.82843e-11 -0.0336055)
(-4.89296e-10 1.60848e-09 -0.0346592)
(-9.24552e-09 6.51987e-09 -0.0316751)
(-3.27813e-08 1.52149e-08 -0.0162619)
(-7.34436e-08 2.46152e-08 0.0156555)
(-1.23028e-07 2.83463e-08 0.060321)
(-1.6677e-07 2.12367e-08 0.109132)
(-1.90758e-07 4.35147e-09 0.149571)
(-1.85707e-07 -1.45525e-08 0.164973)
(-1.51224e-07 -2.6366e-08 0.144018)
(-9.96902e-08 -2.73363e-08 0.0933618)
(-4.9888e-08 -2.04333e-08 0.0347765)
(-1.51829e-08 -1.13148e-08 -0.0106672)
(1.76566e-09 -3.92312e-09 -0.0342892)
(5.02402e-09 1.46899e-09 -0.0394452)
(-1.71623e-09 7.15375e-09 -0.0345369)
(-1.78168e-08 1.5015e-08 -0.0279252)
(-4.23767e-08 2.40447e-08 -0.0258044)
(-7.0323e-08 3.05263e-08 -0.0289563)
(-9.42725e-08 3.08414e-08 -0.028769)
(-1.10358e-07 2.38658e-08 -0.0111198)
(-1.19781e-07 1.0843e-08 0.0304312)
(-1.23852e-07 -5.53697e-09 0.0852976)
(-1.19587e-07 -2.12033e-08 0.130186)
(-1.02648e-07 -3.14873e-08 0.143632)
(-7.42585e-08 -3.34675e-08 0.120092)
(-4.22929e-08 -2.76211e-08 0.072134)
(-1.61947e-08 -1.70357e-08 0.0209501)
(-2.0537e-09 -5.09114e-09 -0.0171746)
(-1.27975e-09 6.11728e-09 -0.0397691)
(-1.15157e-08 1.54822e-08 -0.0567172)
(-2.76592e-08 2.18677e-08 -0.0792275)
(-4.33436e-08 2.41077e-08 -0.107393)
(-5.37632e-08 2.20048e-08 -0.127337)
(-5.80968e-08 1.66524e-08 -0.122051)
(-5.90545e-08 9.42051e-09 -0.0853423)
(-5.97348e-08 9.94225e-10 -0.0260397)
(-6.04421e-08 -8.25831e-09 0.0377521)
(-5.83486e-08 -1.71947e-08 0.0868654)
(-5.05995e-08 -2.36463e-08 0.108146)
(-3.73825e-08 -2.53837e-08 0.0986993)
(-2.22705e-08 -2.14057e-08 0.06598)
(-1.01931e-08 -1.26558e-08 0.0222763)
(-4.76518e-09 -1.73139e-09 -0.0235902)
(-6.57045e-09 8.22268e-09 -0.0699667)
(-1.31223e-08 1.47728e-08 -0.11734)
(-2.04741e-08 1.70046e-08 -0.160092)
(-2.55571e-08 1.55792e-08 -0.18532)
(-2.76026e-08 1.20239e-08 -0.181502)
(-2.78055e-08 7.6999e-09 -0.147439)
(-2.7827e-08 3.16313e-09 -0.0926996)
(-2.83158e-08 -1.70379e-09 -0.0314674)
(-2.84351e-08 -7.01517e-09 0.0231378)
(-2.67499e-08 -1.22441e-08 0.0615056)
(-2.25109e-08 -1.606e-08 0.0779914)
(-1.63895e-08 -1.6833e-08 0.0712548)
(-1.02412e-08 -1.3691e-08 0.0436493)
(-6.04811e-09 -7.37361e-09 -0.000666976)
(-4.77056e-09 -2.76383e-11 -0.0567749)
(-5.90366e-09 5.98694e-09 -0.117386)
(-8.01303e-09 9.3079e-09 -0.170868)
(-9.77471e-09 9.93799e-09 -0.203509)
(-1.06817e-08 8.74363e-09 -0.206284)
(-1.10196e-08 6.67929e-09 -0.179899)
(-1.13423e-08 4.29181e-09 -0.133474)
(-1.19062e-08 1.66292e-09 -0.0790138)
(-1.24414e-08 -1.34027e-09 -0.0267707)
(-1.23951e-08 -4.70475e-09 0.0161303)
(-1.1344e-08 -7.96342e-09 0.0447712)
(-9.32447e-09 -1.01716e-08 0.0555837)
(-6.8832e-09 -1.03677e-08 0.0462068)
(-4.77645e-09 -8.26821e-09 0.0161425)
(-3.52098e-09 -4.57577e-09 -0.031777)
(-3.13635e-09 -5.82098e-10 -0.089784)
(-3.2535e-09 2.57825e-09 -0.145338)
(-3.44872e-09 4.4091e-09 -0.184764)
(-3.51411e-09 5.01903e-09 -0.198976)
(-3.50329e-09 4.78437e-09 -0.187011)
(-3.59074e-09 4.03415e-09 -0.154899)
(-3.87949e-09 2.91382e-09 -0.111621)
(-4.29435e-09 1.41777e-09 -0.0654722)
(-4.62358e-09 -4.72734e-10 -0.0227669)
(-4.64147e-09 -2.61085e-09 0.0115972)
(-4.24949e-09 -4.58474e-09 0.0333143)
(-3.54628e-09 -5.83466e-09 0.0384802)
(-2.76773e-09 -5.95698e-09 0.0245357)
(-2.13507e-09 -4.95988e-09 -0.00786546)
(-1.73015e-09 -3.25147e-09 -0.0532467)
(-1.48753e-09 -1.38698e-09 -0.101622)
(-1.28499e-09 2.04797e-10 -0.141545)
(-1.04641e-09 1.33604e-09 -0.164416)
(-7.866e-10 2.00695e-09 -0.167181)
(-5.86441e-10 2.28729e-09 -0.152007)
(-5.27948e-10 2.22598e-09 -0.123961)
(-6.34737e-10 1.826e-09 -0.0886596)
(-8.51041e-10 1.081e-09 -0.0513226)
(-1.06743e-09 4.58967e-11 -0.0168381)
(-1.1791e-09 -1.11236e-09 0.00991328)
(-1.13977e-09 -2.13892e-09 0.0242106)
(-9.74617e-10 -2.79239e-09 0.0225421)
(-7.47047e-10 -2.95432e-09 0.00420368)
(-5.11288e-10 -2.67233e-09 -0.0274742)
(-2.85747e-10 -2.08888e-09 -0.0644094)
(-6.21351e-11 -1.42992e-09 -0.102792)
(1.5627e-10 -6.93491e-10 -0.110414)
(4.79759e-10 -1.3415e-10 -0.139669)
(-5.29648e-17 5.79248e-18 -0.074418)
(-1.7747e-16 1.01505e-17 -0.0756051)
(-1.53356e-16 1.19821e-17 -0.0754516)
(-1.96126e-16 1.15651e-17 -0.0737197)
(-1.2561e-16 2.02468e-17 -0.0707974)
(-4.75403e-16 3.72458e-17 -0.0673515)
(3.24782e-16 -7.89275e-17 -0.0640968)
(4.01412e-16 4.10938e-18 -0.0616356)
(-3.75089e-15 2.16833e-15 -0.0603931)
(-1.99497e-15 2.4848e-16 -0.0606182)
(8.47038e-15 -2.43695e-15 -0.0622101)
(1.43907e-14 7.10401e-16 -0.0651478)
(9.03708e-15 -1.87074e-16 -0.0689773)
(-3.60368e-15 1.13938e-15 -0.0732469)
(-1.53506e-14 1.78376e-15 -0.0774726)
(-1.52196e-14 -6.15429e-17 -0.081114)
(-3.07078e-16 -5.69726e-15 -0.0836582)
(-1.03553e-14 -1.34002e-14 -0.084719)
(-1.25943e-13 -1.48322e-14 -0.0840135)
(-2.40588e-13 -3.83516e-15 -0.0813072)
(-1.84886e-13 8.72428e-15 -0.076588)
(-8.75141e-14 1.22154e-14 -0.0703943)
(-3.33449e-14 8.4923e-15 -0.0637049)
(2.20895e-14 -3.84021e-15 -0.0576365)
(-2.24137e-14 1.82542e-14 -0.0532625)
(-4.07068e-13 8.70949e-14 -0.0514627)
(1.40538e-12 -2.97254e-13 -0.0527481)
(4.33414e-12 -4.33348e-13 -0.057196)
(-3.35338e-11 4.67425e-12 -0.0644231)
(-8.26745e-11 -1.6775e-12 -0.0737582)
(5.25468e-10 -8.33419e-11 -0.0852786)
(2.83017e-09 -1.91965e-10 -0.0991391)
(5.90061e-09 -1.19319e-10 -0.111044)
(6.77898e-09 9.8665e-11 -0.113039)
(4.60911e-09 1.83297e-10 -0.103043)
(1.80453e-09 1.02437e-10 -0.0871117)
(2.86675e-10 1.78267e-11 -0.0712267)
(-1.1383e-10 -7.79204e-12 -0.0577267)
(-1.11753e-10 3.14683e-12 -0.0477078)
(-8.15084e-11 -6.8351e-13 -0.0422484)
(2.04276e-10 -1.00306e-10 -0.0427397)
(1.06101e-09 -1.37878e-10 -0.0503273)
(-9.89205e-11 1.02618e-09 -0.0613863)
(-1.31404e-08 5.51921e-09 -0.0603077)
(-5.15371e-08 1.32686e-08 -0.0247086)
(-1.14829e-07 1.8136e-08 0.0484513)
(-1.7729e-07 1.24282e-08 0.126472)
(-2.02722e-07 -2.22164e-09 0.161182)
(-1.74228e-07 -1.46153e-08 0.129274)
(-1.10747e-07 -1.68849e-08 0.0548223)
(-4.91524e-08 -1.14366e-08 -0.0143314)
(-1.15145e-08 -4.87396e-09 -0.0496805)
(2.65824e-09 -1.09116e-09 -0.0541584)
(4.65854e-09 -9.30282e-11 -0.0464831)
(3.04569e-09 7.26207e-10 -0.0409074)
(-3.10963e-09 5.51065e-09 -0.0381093)
(-2.25656e-08 1.78059e-08 -0.0296729)
(-6.1524e-08 3.61867e-08 -0.0100188)
(-1.12327e-07 5.20668e-08 0.0181702)
(-1.57741e-07 5.49766e-08 0.0552887)
(-1.8849e-07 4.02167e-08 0.111949)
(-2.07479e-07 1.07651e-08 0.188801)
(-2.14454e-07 -2.40465e-08 0.256745)
(-1.981e-07 -5.062e-08 0.272974)
(-1.52001e-07 -5.84509e-08 0.220393)
(-8.99944e-08 -4.80167e-08 0.125518)
(-3.54375e-08 -2.9011e-08 0.0338265)
(-2.89812e-09 -1.12009e-08 -0.0241258)
(6.26106e-09 2.35983e-09 -0.0452683)
(-3.30678e-09 1.43575e-08 -0.0464559)
(-2.5893e-08 2.70246e-08 -0.0514792)
(-5.30554e-08 3.78426e-08 -0.0770339)
(-7.35315e-08 4.18321e-08 -0.117334)
(-8.01179e-08 3.72109e-08 -0.140864)
(-7.58427e-08 2.66839e-08 -0.114019)
(-7.13294e-08 1.31179e-08 -0.0315351)
(-7.52789e-08 -3.38401e-09 0.0783127)
(-8.56703e-08 -2.25006e-08 0.172842)
(-9.03741e-08 -3.95793e-08 0.217297)
(-7.91652e-08 -4.75944e-08 0.200491)
(-5.37646e-08 -4.3121e-08 0.138262)
(-2.57591e-08 -2.86543e-08 0.0618109)
(-7.43117e-09 -9.76137e-09 -0.00329617)
(-4.54521e-09 8.4564e-09 -0.0529662)
(-1.44822e-08 2.23559e-08 -0.101661)
(-2.87558e-08 2.94462e-08 -0.160896)
(-3.83974e-08 2.90632e-08 -0.218613)
(-3.93018e-08 2.32496e-08 -0.243104)
(-3.3683e-08 1.56175e-08 -0.210551)
(-2.73921e-08 8.60561e-09 -0.126101)
(-2.58886e-08 1.85348e-09 -0.0184298)
(-3.07365e-08 -6.56119e-09 0.0803814)
(-3.81151e-08 -1.70429e-08 0.148082)
(-4.14262e-08 -2.68213e-08 0.174125)
(-3.6643e-08 -3.15052e-08 0.158626)
(-2.55699e-08 -2.81551e-08 0.111171)
(-1.42391e-08 -1.73326e-08 0.0451477)
(-8.22967e-09 -2.89503e-09 -0.0306481)
(-8.86755e-09 1.0056e-08 -0.113545)
(-1.30502e-08 1.77039e-08 -0.197215)
(-1.63369e-08 1.91236e-08 -0.262293)
(-1.63247e-08 1.6106e-08 -0.283177)
(-1.36178e-08 1.14685e-08 -0.247534)
(-1.05843e-08 7.17475e-09 -0.167122)
(-9.60997e-09 3.46863e-09 -0.0692804)
(-1.17165e-08 -6.66539e-10 0.0201928)
(-1.58228e-08 -6.14737e-09 0.0867475)
(-1.92721e-08 -1.25487e-08 0.125325)
(-1.96459e-08 -1.78798e-08 0.134951)
(-1.65503e-08 -1.95794e-08 0.116019)
(-1.18311e-08 -1.62421e-08 0.0697948)
(-8.02488e-09 -8.82573e-09 -0.00109487)
(-6.4377e-09 -2.31154e-10 -0.0900982)
(-6.50921e-09 6.48403e-09 -0.182234)
(-6.77378e-09 9.78595e-09 -0.253639)
(-6.23067e-09 1.00204e-08 -0.281181)
(-4.91483e-09 8.53573e-09 -0.256581)
(-3.59741e-09 6.55219e-09 -0.191525)
(-3.18252e-09 4.54398e-09 -0.109199)
(-4.14322e-09 2.27992e-09 -0.0308252)
(-6.16352e-09 -6.87901e-10 0.0318852)
(-8.2343e-09 -4.44282e-09 0.0752662)
(-9.26025e-09 -8.33345e-09 0.0984168)
(-8.7833e-09 -1.10719e-08 0.09942)
(-7.24627e-09 -1.14285e-08 0.0749204)
(-5.57412e-09 -9.10449e-09 0.0229991)
(-4.45e-09 -5.02212e-09 -0.0520153)
(-3.92727e-09 -7.3439e-10 -0.135911)
(-3.62115e-09 2.5088e-09 -0.206609)
(-3.15393e-09 4.27788e-09 -0.24353)
(-2.43702e-09 4.83036e-09 -0.23831)
(-1.6778e-09 4.65173e-09 -0.197972)
(-1.22094e-09 4.0743e-09 -0.138624)
(-1.32868e-09 3.14981e-09 -0.0759715)
(-1.99202e-09 1.75109e-09 -0.0197454)
(-2.89405e-09 -2.08848e-10 0.0257101)
(-3.58639e-09 -2.55401e-09 0.0580031)
(-3.7655e-09 -4.76324e-09 0.0737686)
(-3.4467e-09 -6.15968e-09 0.0682453)
(-2.90107e-09 -6.29199e-09 0.0378882)
(-2.41993e-09 -5.21145e-09 -0.0153079)
(-2.1197e-09 -3.41228e-09 -0.0809367)
(-1.92702e-09 -1.51048e-09 -0.142109)
(-1.6975e-09 6.28865e-11 -0.182532)
(-1.34266e-09 1.16193e-09 -0.193987)
(-8.87888e-10 1.83555e-09 -0.178591)
(-4.5685e-10 2.1761e-09 -0.145027)
(-2.0096e-10 2.21597e-09 -0.102763)
(-2.05549e-10 1.9132e-09 -0.0585777)
(-4.30827e-10 1.2157e-09 -0.0167921)
(-7.31383e-10 1.594e-10 0.0188416)
(-9.42884e-10 -1.07073e-09 0.0435137)
(-9.75641e-10 -2.17907e-09 0.0514893)
(-8.47072e-10 -2.88888e-09 0.0385064)
(-6.38339e-10 -3.07145e-09 0.00503655)
(-4.25857e-10 -2.78746e-09 -0.0418185)
(-2.40065e-10 -2.19908e-09 -0.0884363)
(-6.72674e-11 -1.53799e-09 -0.130357)
(9.67003e-11 -8.33961e-10 -0.122392)
(4.12554e-10 -2.21165e-10 -0.146032)
(6.8272e-17 1.84987e-15 -0.0950841)
(2.0111e-16 1.78489e-15 -0.0966505)
(1.7747e-16 9.47221e-18 -0.0964545)
(2.95414e-16 1.72148e-15 -0.0941769)
(2.78772e-16 1.87455e-15 -0.0903193)
(-2.51239e-16 1.5142e-15 -0.0857529)
(5.08926e-15 -4.35279e-16 -0.0814193)
(-1.2257e-14 2.03451e-15 -0.0781134)
(-4.9614e-15 1.20331e-15 -0.0764077)
(5.13149e-14 -7.79118e-15 -0.0766282)
(6.9461e-14 -8.15077e-15 -0.0785923)
(1.51992e-14 -3.72896e-16 -0.0823641)
(-6.86716e-14 8.85314e-15 -0.0873145)
(-1.4366e-13 1.2201e-14 -0.0928703)
(-1.65046e-13 6.07487e-15 -0.0984068)
(-1.09559e-13 -3.75504e-15 -0.103215)
(-6.2498e-14 -1.05571e-15 -0.10667)
(-5.17684e-13 6.11296e-14 -0.10825)
(-2.02886e-12 1.14511e-13 -0.107522)
(-3.4926e-12 3.18525e-14 -0.104129)
(-3.20351e-12 -7.58452e-14 -0.0979936)
(-1.89438e-12 -7.4261e-14 -0.0898526)
(-8.2446e-13 -5.32004e-14 -0.0810286)
(-1.25514e-13 -6.05319e-15 -0.0729389)
(-7.87396e-13 2.127e-13 -0.0669843)
(-4.41524e-13 -6.88658e-13 -0.0644075)
(1.24198e-11 -2.34321e-12 -0.0660029)
(-8.6037e-12 1.70307e-11 -0.0718538)
(-1.7921e-10 4.27224e-11 -0.0813213)
(1.87931e-11 -2.73219e-10 -0.0943149)
(2.23256e-09 -1.42635e-09 -0.112844)
(6.65123e-09 -2.63338e-09 -0.136405)
(1.13816e-08 -1.93471e-09 -0.157536)
(1.43307e-08 6.32848e-10 -0.165199)
(1.26486e-08 2.43692e-09 -0.152077)
(7.0481e-09 2.11729e-09 -0.124417)
(2.1928e-09 9.39119e-10 -0.0960278)
(-5.68884e-11 1.94243e-10 -0.0735953)
(-5.22861e-10 -1.49907e-11 -0.058371)
(-2.69854e-10 -1.51945e-10 -0.050843)
(9.79241e-10 -5.66254e-10 -0.0530445)
(2.42912e-09 1.29285e-10 -0.0644894)
(-5.56894e-09 7.04738e-09 -0.0700599)
(-4.39309e-08 2.58088e-08 -0.0361058)
(-1.25145e-07 5.14378e-08 0.0615477)
(-2.30083e-07 6.393e-08 0.206123)
(-3.21261e-07 4.46389e-08 0.353271)
(-3.66817e-07 -1.84141e-09 0.448888)
(-3.4381e-07 -4.69172e-08 0.438088)
(-2.53261e-07 -6.33552e-08 0.311891)
(-1.37043e-07 -4.99913e-08 0.138107)
(-4.63175e-08 -2.59233e-08 0.00350906)
(-9.83118e-10 -8.05002e-09 -0.0572278)
(1.08449e-08 -3.29436e-10 -0.0651087)
(6.94378e-09 3.8558e-09 -0.054204)
(-8.3856e-09 1.44141e-08 -0.0413517)
(-4.04231e-08 3.57271e-08 -0.0324841)
(-8.45861e-08 6.00955e-08 -0.0390876)
(-1.19222e-07 7.27237e-08 -0.0642508)
(-1.26736e-07 6.6428e-08 -0.0723601)
(-1.15256e-07 4.61057e-08 -0.00990273)
(-1.10968e-07 1.73331e-08 0.131375)
(-1.29602e-07 -1.92418e-08 0.292972)
(-1.55513e-07 -5.75925e-08 0.390568)
(-1.55289e-07 -8.13892e-08 0.373243)
(-1.16675e-07 -7.8715e-08 0.258993)
(-6.00983e-08 -5.48629e-08 0.115487)
(-1.48816e-08 -2.47724e-08 0.00640123)
(2.97931e-09 1.67332e-09 -0.0472694)
(-6.02807e-09 2.32308e-08 -0.0700742)
(-3.03148e-08 3.98893e-08 -0.107042)
(-5.27353e-08 4.7864e-08 -0.182658)
(-5.9159e-08 4.40576e-08 -0.267866)
(-4.72349e-08 3.1997e-08 -0.294366)
(-2.62513e-08 1.94716e-08 -0.215862)
(-9.86565e-09 1.05611e-08 -0.0509375)
(-9.2108e-09 1.63349e-09 0.134763)
(-2.64313e-08 -1.36558e-08 0.275949)
(-5.01426e-08 -3.47398e-08 0.336152)
(-6.2202e-08 -5.17723e-08 0.310972)
(-5.37885e-08 -5.43242e-08 0.223944)
(-3.25725e-08 -4.02024e-08 0.114315)
(-1.42958e-08 -1.56981e-08 0.0130008)
(-9.33189e-09 9.64279e-09 -0.0770724)
(-1.60556e-08 2.75875e-08 -0.173033)
(-2.45905e-08 3.38253e-08 -0.277424)
(-2.61207e-08 2.93807e-08 -0.354552)
(-1.90396e-08 1.96476e-08 -0.352579)
(-7.69925e-09 1.06975e-08 -0.251529)
(2.04663e-09 5.52331e-09 -0.083928)
(5.43355e-09 2.6664e-09 0.0893075)
(7.73893e-11 -2.14501e-09 0.218191)
(-1.19736e-08 -1.18499e-08 0.282864)
(-2.38074e-08 -2.43824e-08 0.286443)
(-2.83331e-08 -3.33119e-08 0.241829)
(-2.4226e-08 -3.26077e-08 0.164145)
(-1.65224e-08 -2.13259e-08 0.0653243)
(-1.13524e-08 -4.41716e-09 -0.0496303)
(-1.05219e-08 1.0633e-08 -0.176526)
(-1.12031e-08 1.85075e-08 -0.295955)
(-9.91151e-09 1.86418e-08 -0.368206)
(-5.75951e-09 1.42196e-08 -0.35573)
(-2.9541e-10 9.15374e-09 -0.254359)
(4.24986e-09 5.69597e-09 -0.100063)
(5.99067e-09 3.7292e-09 0.0540746)
(3.80443e-09 1.4026e-09 0.168075)
(-1.89153e-09 -3.23733e-09 0.228861)
(-8.59721e-09 -1.03326e-08 0.242893)
(-1.30479e-08 -1.74209e-08 0.221601)
(-1.36488e-08 -2.07404e-08 0.171685)
(-1.15205e-08 -1.79538e-08 0.0936372)
(-9.03792e-09 -1.00703e-08 -0.0128805)
(-7.53314e-09 -7.85473e-10 -0.13902)
(-6.59279e-09 6.15498e-09 -0.258191)
(-5.19865e-09 9.16863e-09 -0.330852)
(-2.95834e-09 9.00852e-09 -0.326491)
(-2.79203e-10 7.42701e-09 -0.245311)
(2.06854e-09 5.81313e-09 -0.118913)
(3.27601e-09 4.56471e-09 0.00956744)
(2.72726e-09 3.15342e-09 0.108317)
(4.11159e-10 7.05276e-10 0.166722)
(-2.76114e-09 -3.15638e-09 0.189663)
(-5.38838e-09 -7.68892e-09 0.185815)
(-6.53122e-09 -1.11786e-08 0.158608)
(-6.30122e-09 -1.19723e-08 0.104849)
(-5.52097e-09 -9.66634e-09 0.0213182)
(-4.87379e-09 -5.3992e-09 -0.0847906)
(-4.4428e-09 -9.96526e-10 -0.189769)
(-3.93135e-09 2.19158e-09 -0.259996)
(-3.09204e-09 3.81704e-09 -0.270421)
(-1.92501e-09 4.28097e-09 -0.220163)
(-6.52856e-10 4.17633e-09 -0.131786)
(3.58746e-10 3.85959e-09 -0.0363253)
(7.28436e-10 3.29937e-09 0.0429339)
(2.87012e-10 2.20045e-09 0.0971854)
(-7.35873e-10 3.24449e-10 0.12815)
(-1.81713e-09 -2.17513e-09 0.140098)
(-2.48666e-09 -4.65458e-09 0.133366)
(-2.62752e-09 -6.26688e-09 0.103519)