/*--------------------------------*- C++ -*----------------------------------*\
  =========                 |
  \\      /  F ield         | OpenFOAM: The Open Source CFD Toolbox
   \\    /   O peration     | Website:  https://openfoam.org
    \\  /    A nd           | Version:  11
     \\/     M anipulation  |
\*---------------------------------------------------------------------------*/
FoamFile
{
    format      ascii;
    class       volScalarField;
    location    "17.028737";
    object      p;
}
// * * * * * * * * * * * * * * * * * * * * * * * * * * * * * * * * * * * * * //

dimensions      [0 2 -2 0 0 0 0];

internalField   nonuniform List<scalar> 
7132
(
0.0808299
0.0795857
0.0754226
0.0694242
0.0611915
0.0506647
0.0380353
0.023681
0.00846806
-0.00626576
-0.0190371
-0.028051
-0.0329867
-0.0339505
-0.0318364
-0.0277134
-0.0223262
-0.0159117
-0.00851866
-0.000418304
0.00789302
0.0159034
0.0232556
0.0298075
0.0355249
0.0403527
0.0440586
0.0462344
0.0466097
0.0455039
0.0439185
0.0429052
0.0429267
0.0437499
0.0448769
0.0459247
0.0467718
0.047523
0.0483515
0.0493051
0.0500332
0.0497986
0.0480273
0.045035
0.042079
0.0404006
0.0403493
0.041341
0.0425275
0.0433502
0.0436868
0.0437393
0.0438264
0.0441172
0.0443156
0.0436783
0.0416048
0.0384134
0.0354106
0.0339211
0.0343016
0.0358423
0.0374913
0.0385535
0.0388887
0.038748
0.0385142
0.0383951
0.0381508
0.037163
0.0349797
0.0319492
0.0292364
0.0280184
0.0286353
0.0304339
0.0323542
0.0336272
0.0340555
0.0338791
0.0334827
0.0330624
0.0324187
0.0310939
0.0288566
0.0261372
0.0239236
0.0231092
0.0238977
0.0257176
0.0276559
0.0290004
0.0295128
0.0293663
0.0288875
0.0282426
0.0272909
0.0257553
0.0236154
0.0213582
0.0197817
0.019483
0.0204882
0.0222684
0.024086
0.0253694
0.0259036
0.025797
0.0252926
0.0245279
0.0234391
0.0219075
0.0200399
0.0182958
0.0172804
0.0173669
0.0184741
0.0201296
0.021745
0.0228789
0.0233578
0.023249
0.0227254
0.0218999
0.0207669
0.0193129
0.017708
0.0163646
0.0157525
0.0161158
0.0173253
0.0189546
0.0205063
0.0216115
0.0221137
0.0220405
0.0215006
0.0205669
0.0192444
0.0175646
0.0157337
0.0141741
0.013361
0.0135637
0.0146962
0.0163617
0.0180596
0.0193683
0.0200743
0.0200832
0.0195021
0.0182064
0.016478
0.0136916
0.011109
0.00676761
0.00540798
-0.00053948
0.00369582
-0.00789865
0.0813222
0.080083
0.0759394
0.0699519
0.0617085
0.0511217
0.0383601
0.0237729
0.00823911
-0.00686402
-0.0199582
-0.0290795
-0.0339601
-0.0347219
-0.0323713
-0.0280758
-0.0226182
-0.0161917
-0.00877465
-0.000612223
0.00778762
0.0158933
0.0233348
0.0299656
0.0357494
0.0406285
0.0443618
0.0465155
0.0467956
0.0455314
0.0437851
0.0426719
0.0426724
0.0435252
0.0446992
0.0457945
0.046685
0.0474759
0.0483394
0.0493268
0.0500777
0.0498262
0.0479711
0.0448418
0.041759
0.040026
0.0400035
0.0410716
0.0423394
0.0432275
0.0436102
0.0436926
0.0437964
0.0440958
0.0442872
0.0436083
0.0414436
0.0381272
0.035017
0.03349
0.0339155
0.0355539
0.037308
0.0384542
0.0388436
0.0387306
0.0385052
0.0383803
0.0381074
0.0370547
0.034769
0.0316244
0.0288294
0.0275939
0.0282613
0.0301569
0.0321862
0.0335519
0.0340423
0.033896
0.0335053
0.033071
0.0323853
0.0309819
0.0286382
0.0258171
0.0235453
0.022736
0.0235851
0.0254978
0.0275345
0.0289633
0.0295345
0.0294173
0.0289406
0.0282718
0.0272656
0.025645
0.0234053
0.0210652
0.0194533
0.019177
0.0202499
0.022119
0.0240228
0.0253759
0.0259571
0.0258724
0.025364
0.024568
0.0234187
0.0218038
0.0198491
0.0180412
0.0170073
0.0171249
0.0182995
0.0200362
0.0217265
0.0229174
0.023432
0.0233367
0.0228033
0.0219422
0.0207472
0.0192139
0.0175314
0.0161364
0.0155157
0.0159142
0.0171905
0.0188979
0.0205205
0.0216786
0.0222125
0.0221497
0.0215973
0.0206246
0.019236
0.0174714
0.0155568
0.0139386
0.0131102
0.0133448
0.0145465
0.0162993
0.0180822
0.019459
0.0202095
0.0202383
0.0196511
0.0183237
0.0165311
0.0136608
0.010979
0.00656051
0.00517004
-0.000799494
0.00366213
-0.00825903
0.0823044
0.0810769
0.0769746
0.0710138
0.0627544
0.0520536
0.0390313
0.0239746
0.00778676
-0.00807986
-0.0218435
-0.0311782
-0.0359358
-0.0362645
-0.0334118
-0.0287543
-0.0231631
-0.0167312
-0.00928203
-0.00100403
0.00756923
0.0158638
0.023482
0.0302697
0.0361874
0.0411728
0.0449662
0.0470793
0.0471651
0.0455717
0.0434901
0.0421714
0.0421336
0.0430524
0.0443249
0.045516
0.0464915
0.0473593
0.0482919
0.0493484
0.0501481
0.0498636
0.0478352
0.04442
0.0410724
0.039228
0.0392713
0.0405038
0.0419417
0.0429626
0.0434355
0.0435739
0.0437098
0.0440272
0.0442057
0.0434405
0.0410842
0.0375058
0.0341725
0.032571
0.0330957
0.0349417
0.0369161
0.0382343
0.0387305
0.0386683
0.038457
0.0383219
0.0379953
0.0368144
0.0343222
0.0309461
0.0279846
0.0267146
0.0274864
0.0295801
0.0318304
0.033382
0.0339937
0.0339044
0.033524
0.0330634
0.0322963
0.0307368
0.0281799
0.0251546
0.0227672
0.0219706
0.0229455
0.0250475
0.0272819
0.0288777
0.0295634
0.0295027
0.0290306
0.0283155
0.0272004
0.0254067
0.0229634
0.0204543
0.0187712
0.0185428
0.0197574
0.0218093
0.0238885
0.0253815
0.0260557
0.0260144
0.0254994
0.0246413
0.0233691
0.0215822
0.0194466
0.0175063
0.0164346
0.0166174
0.0179328
0.0198376
0.0216814
0.0229885
0.0235754
0.0235084
0.0229572
0.0220247
0.0207024
0.0190031
0.0171574
0.0156531
0.0150128
0.0154851
0.0169012
0.0187708
0.0205396
0.0218065
0.0224058
0.0223656
0.02179
0.0207391
0.019214
0.0172717
0.0151797
0.0134366
0.0125747
0.0128761
0.0142227
0.0161572
0.0181157
0.019633
0.0204744
0.0205445
0.0199461
0.0185545
0.0166304
0.0135851
0.0106964
0.00611585
0.00465731
-0.0013475
0.00355296
-0.00894175
0.083772
0.0825644
0.0785316
0.072622
0.064353
0.0534956
0.0400913
0.0243211
0.00712013
-0.00995815
-0.0247899
-0.0344449
-0.0389985
-0.0386289
-0.0349839
-0.0297769
-0.0240072
-0.0175976
-0.0101099
-0.00164791
0.00720173
0.0157911
0.0236796
0.0307045
0.0368253
0.0419755
0.0458668
0.04792
0.0476958
0.0455715
0.0429526
0.0413185
0.0412425
0.042286
0.0437226
0.0450632
0.0461647
0.0471438
0.0481765
0.0493339
0.0502034
0.0498582
0.0475429
0.0436589
0.0398851
0.0378802
0.0380583
0.0395777
0.0412971
0.0425266
0.0431327
0.043347
0.0435216
0.0438564
0.0440087
0.0431058
0.0404464
0.0364525
0.0327653
0.03105
0.0317455
0.0339373
0.0362708
0.0378605
0.0385159
0.038521
0.0383221
0.038168
0.0377604
0.0363828
0.0335719
0.0298386
0.0266232
0.0253077
0.0262519
0.0286609
0.031255
0.0330894
0.0338809
0.0338734
0.0335081
0.0330096
0.0321173
0.0303107
0.0274147
0.0240666
0.0215027
0.0207392
0.0219275
0.0243351
0.0268781
0.0287266
0.0295821
0.0296056
0.0291433
0.0283587
0.0270707
0.0249975
0.0222252
0.0194463
0.0176555
0.0175138
0.0189645
0.0213118
0.0236673
0.025375
0.0261898
0.0262152
0.025693
0.0247393
0.0232701
0.0212038
0.0187742
0.0166214
0.0154935
0.0157881
0.0173349
0.0195105
0.0215971
0.0230848
0.0237832
0.0237613
0.023185
0.0221406
0.020613
0.0186429
0.0165306
0.0148493
0.0141809
0.0147768
0.0164213
0.0185516
0.0205521
0.0219891
0.0226903
0.0226862
0.0220759
0.0209011
0.0191555
0.0169242
0.014544
0.0125992
0.0116864
0.0120997
0.0136834
0.0159103
0.0181478
0.0198848
0.0208669
0.0209999
0.0203831
0.0188881
0.0167523
0.0134251
0.0102033
0.00537031
0.0037906
-0.00222051
0.0032589
-0.00981946
0.0857169
0.0845403
0.0806144
0.0747943
0.0665401
0.0555036
0.0416099
0.0248739
0.00626262
-0.0125624
-0.0289422
-0.0390144
-0.0432362
-0.0417985
-0.0369748
-0.0309896
-0.0250394
-0.018756
-0.0112754
-0.00257783
0.0066523
0.0156462
0.0238996
0.0312413
0.037636
0.0430146
0.0470511
0.0490261
0.0483517
0.0454446
0.0420389
0.0399676
0.0398781
0.0411409
0.0428329
0.0443866
0.0456551
0.0467739
0.0479317
0.0492154
0.0501697
0.0497184
0.0469622
0.042373
0.0379711
0.0357638
0.0361944
0.0381817
0.040335
0.0418659
0.0426455
0.042939
0.0431325
0.0434646
0.0435727
0.0424906
0.0394339
0.0348792
0.0306962
0.0288092
0.0297424
0.0324378
0.0352957
0.0372725
0.038139
0.0382178
0.0380225
0.0378443
0.0373311
0.035678
0.0324095
0.0281674
0.0246058
0.0232537
0.0244694
0.0273345
0.0304092
0.0326279
0.0336567
0.0337556
0.0334153
0.0328715
0.0318032
0.029635
0.0262413
0.022426
0.0196188
0.0189251
0.0204448
0.0233037
0.0262853
0.0284801
0.0295627
0.0297017
0.0292602
0.0283823
0.0268434
0.0243574
0.0211017
0.0179331
0.0159958
0.0159928
0.017797
0.0205766
0.0233276
0.0253351
0.0263432
0.0264632
0.0259369
0.02485
0.0230939
0.0206158
0.0177549
0.015295
0.0140925
0.0145573
0.0164449
0.019013
0.021447
0.0231898
0.0240457
0.0240905
0.0234835
0.0222804
0.0204526
0.0180837
0.0155802
0.0136426
0.0129378
0.0137179
0.0156953
0.0182014
0.0205324
0.0222104
0.0230565
0.0231065
0.0224501
0.0210979
0.0190312
0.0163779
0.0135789
0.0113449
0.0103635
0.0109432
0.0128705
0.0155165
0.0181498
0.0201955
0.0213742
0.0215951
0.0209521
0.0193079
0.0168663
0.0131328
0.00943535
0.00425721
0.00249326
-0.00345037
0.00266841
-0.01074
0.0881269
0.0869959
0.0832264
0.0775527
0.0693631
0.0581536
0.0436847
0.025722
0.00524881
-0.0159941
-0.0345307
-0.0451144
-0.0488539
-0.045901
-0.0394496
-0.0324409
-0.0263432
-0.0203403
-0.0129222
-0.00390913
0.00584164
0.0153733
0.0240948
0.0318328
0.0385705
0.0442446
0.0484846
0.0503641
0.0490608
0.0450393
0.0405238
0.0378861
0.0378598
0.0394985
0.0415753
0.0434193
0.0448923
0.0461654
0.0474482
0.0488465
0.049876
0.0492745
0.0459236
0.0403569
0.0350644
0.0325854
0.0334352
0.0361542
0.0389565
0.0409069
0.0418918
0.0422362
0.0423923
0.042685
0.0427335
0.0414317
0.0378706
0.0325992
0.0277909
0.0257032
0.026965
0.0303388
0.0339034
0.0363928
0.0375197
0.037672
0.0374761
0.0372783
0.0366312
0.0345914
0.0306764
0.0257331
0.0217257
0.0203773
0.0220145
0.0255191
0.0292335
0.0319435
0.0332669
0.0335013
0.0332055
0.0326099
0.0312967
0.028619
0.0245352
0.020088
0.0169691
0.0163978
0.0183956
0.0218832
0.0254559
0.0281006
0.029472
0.0297634
0.0293594
0.0283591
0.0264699
0.0234082
0.0194906
0.015802
0.0136828
0.0138845
0.0161794
0.0195495
0.0228316
0.0252336
0.0264934
0.0267407
0.0262146
0.0249483
0.0227948
0.0197478
0.0163005
0.0134338
0.012144
0.0128508
0.0152046
0.0183031
0.0212014
0.0232821
0.0243469
0.0244836
0.0238384
0.0224182
0.0201754
0.0172586
0.0142256
0.0119502
0.0112079
0.012245
0.0146736
0.017683
0.0204531
0.0224497
0.0234882
0.0236121
0.0228942
0.0212989
0.0187915
0.0155651
0.0122071
0.00959707
0.00853756
0.00934918
0.011738
0.0149397
0.0180933
0.020542
0.0219764
0.0223113
0.0216314
0.0197811
0.0169231
0.0126451
0.00832461
0.00272403
0.000716047
-0.00503088
0.00169418
-0.0115275
0.0909837
0.0899178
0.0863689
0.0809225
0.0728815
0.0615474
0.0464532
0.0270006
0.00414692
-0.0203814
-0.0418607
-0.0530075
-0.0559922
-0.0508188
-0.0420909
-0.0337858
-0.0277352
-0.0223705
-0.0151689
-0.0057608
0.00468094
0.0149031
0.0241977
0.0324027
0.0395448
0.0455809
0.0500941
0.0518535
0.0496811
0.044099
0.0380545
0.0347186
0.0349133
0.0371822
0.0398336
0.0420654
0.0437741
0.0451827
0.0465111
0.0479177
0.0489698
0.0482307
0.0442758
0.0375623
0.0310686
0.0281203
0.0295074
0.03328
0.0370202
0.0395428
0.040753
0.0410851
0.0411325
0.0413669
0.0413573
0.0397663
0.0355128
0.0292995
0.0237425
0.0214987
0.0232608
0.0275289
0.0319972
0.0351264
0.0365607
0.0367906
0.0366055
0.0364015
0.0355767
0.0330042
0.0282219
0.0223704
0.0178174
0.016526
0.0187631
0.0231253
0.0276591
0.0309724
0.0326494
0.0330559
0.0328335
0.0321763
0.0305302
0.0271736
0.0221995
0.0169619
0.0134711
0.0130795
0.0157078
0.0200125
0.0243389
0.0275424
0.0292682
0.0297548
0.0294076
0.0282478
0.0258919
0.0220773
0.0173178
0.0129886
0.0106621
0.0111394
0.0140647
0.0181868
0.02214
0.0250348
0.0266086
0.0270195
0.0264971
0.0249944
0.0223177
0.0185346
0.0143469
0.0109837
0.00960286
0.0106298
0.0135777
0.0173459
0.020828
0.0233327
0.0246613
0.0249172
0.0242227
0.0225154
0.0197284
0.0161065
0.0124086
0.00972402
0.00895275
0.0103252
0.013324
0.0169637
0.0202815
0.0226759
0.023957
0.0241762
0.0233769
0.0214614
0.0183822
0.014428
0.0103786
0.00731973
0.00618463
0.0072983
0.0102639
0.0141524
0.0179456
0.0208888
0.0226381
0.0231136
0.0223826
0.0202602
0.0168662
0.0119087
0.00683759
0.000773842
-0.0015185
-0.00689338
0.00031281
-0.0120142
0.0942616
0.0932853
0.0900385
0.0849291
0.0771636
0.06581
0.0500925
0.0288951
0.00305554
-0.0259219
-0.0513968
-0.0631449
-0.0651115
-0.0568841
-0.0450766
-0.0350857
-0.0292929
-0.0250261
-0.0182409
-0.00832495
0.00303413
0.0141321
0.024107
0.0328327
0.040416
0.0468766
0.0517381
0.0533216
0.0499334
0.0421467
0.0339908
0.0298804
0.0306341
0.0339552
0.0374599
0.0402035
0.0421623
0.0436168
0.0447779
0.0459791
0.0469735
0.0461464
0.0416657
0.0337547
0.0258457
0.0222424
0.0242175
0.029352
0.0343596
0.0376356
0.0390842
0.0393254
0.0392124
0.0394048
0.0393366
0.0373335
0.0321367
0.0247222
0.0182936
0.0159746
0.0184712
0.0239004
0.0294849
0.0333765
0.0351639
0.0354878
0.0353413
0.0351429
0.0340776
0.0308149
0.0249623
0.0180305
0.0128515
0.0116627
0.014662
0.0200948
0.0256271
0.0296528
0.0317417
0.0323626
0.0322459
0.0315099
0.0294336
0.0252356
0.0192001
0.013051
0.00915012
0.00899092
0.0123804
0.0176684
0.0228958
0.0267594
0.0289029
0.0296283
0.0293547
0.02799
0.0250474
0.0203164
0.0145657
0.00950851
0.00696773
0.00778749
0.0114634
0.0164765
0.0212231
0.0246998
0.0266465
0.027256
0.026735
0.0249313
0.0216043
0.016933
0.01188
0.00795977
0.00650262
0.00792074
0.0115727
0.0161307
0.0203005
0.0233066
0.0249506
0.0253509
0.0245891
0.0225169
0.0190565
0.0145878
0.0101173
0.00697852
0.00619843
0.00798048
0.0116529
0.0160307
0.0199886
0.0228501
0.0244195
0.0247527
0.023845
0.0215265
0.0177486
0.0129331
0.00809283
0.00454382
0.00335121
0.00483299
0.00847128
0.0131519
0.0176804
0.0211931
0.0233076
0.0239459
0.0231438
0.0206778
0.0166352
0.010893
0.0049951
-0.00151358
-0.0040977
-0.00889699
-0.00141711
-0.0120591
0.097925
0.0970689
0.0942246
0.0895963
0.0822878
0.0710998
0.0548435
0.0316847
0.00215825
-0.0328548
-0.0637354
-0.075951
-0.0762803
-0.0635437
-0.0475396
-0.0356285
-0.0308519
-0.0286292
-0.0225764
-0.0119275
0.000701554
0.0129192
0.0236793
0.0329417
0.0409572
0.0478735
0.0531132
0.0543744
0.049211
0.038333
0.027319
0.0224626
0.0244087
0.0294773
0.0342618
0.0376838
0.0398732
0.0411803
0.0418658
0.042659
0.0435914
0.0427207
0.0375964
0.0282801
0.0188596
0.014666
0.0174111
0.024214
0.030814
0.0350291
0.0367304
0.0368187
0.0365318
0.0367188
0.0365716
0.0340119
0.0276547
0.0188474
0.0114513
0.0091099
0.0125411
0.0193903
0.0262945
0.0310571
0.0332395
0.0336856
0.0336131
0.0334244
0.0320541
0.027976
0.0209204
0.0128131
0.00696798
0.00591039
0.00977889
0.0164373
0.0231067
0.0279313
0.0304809
0.0313558
0.0313719
0.0305358
0.0279461
0.022789
0.0155893
0.00847208
0.00415534
0.00426951
0.00850401
0.0148834
0.0211123
0.0257082
0.0283187
0.0293189
0.0291282
0.0275131
0.023885
0.0181229
0.0112958
0.00547748
0.00273715
0.00395152
0.00845564
0.0144475
0.0200668
0.0241864
0.0265503
0.0273855
0.0268569
0.0246901
0.0206093
0.014945
0.00895856
0.00446531
0.00295789
0.00482442
0.00925196
0.0146759
0.0196007
0.0231613
0.0251594
0.0257227
0.0248692
0.0223588
0.0181205
0.012709
0.00741065
0.0038109
0.00305128
0.00529942
0.00971226
0.0148937
0.0195483
0.022922
0.024812
0.0252711
0.024224
0.0214283
0.0168549
0.0110956
0.0054224
0.00138439
0.000165279
0.00206403
0.00643174
0.0119617
0.0172769
0.0214016
0.0239127
0.0247263
0.0238275
0.020953
0.0161819
0.00961266
0.00289234
-0.00397355
-0.00682049
-0.010843
-0.00335849
-0.0115687
0.101926
0.101226
0.098904
0.0949374
0.088331
0.0775945
0.060998
0.0357411
0.00170161
-0.0415739
-0.0798009
-0.092383
-0.0907564
-0.0718657
-0.05
-0.0353945
-0.0321944
-0.0332616
-0.0285032
-0.0168999
-0.00255289
0.01108
0.0227126
0.0324648
0.0408183
0.0480039
0.0534014
0.054314
0.0472152
0.0324875
0.017492
0.0114656
0.0154077
0.0232971
0.0300114
0.034336
0.0366867
0.0375662
0.037491
0.0378184
0.0387691
0.0378166
0.0317492
0.0207125
0.0097126
0.00511805
0.00896164
0.017774
0.0262623
0.0315794
0.0335545
0.0334645
0.0330225
0.0332403
0.0329871
0.0297699
0.0221511
0.0118935
0.00349926
0.0011468
0.00560709
0.0140394
0.0224047
0.0281109
0.0307173
0.0313129
0.0313443
0.0311647
0.0294499
0.0245053
0.0162213
0.00694422
0.000447755
-0.0004642
0.00430509
0.0122468
0.0201127
0.0257738
0.0288072
0.0299603
0.0301248
0.0291728
0.0260266
0.0198722
0.0115024
0.00344148
-0.00125865
-0.000845999
0.00425464
0.0117498
0.0190048
0.0243529
0.0274491
0.0287423
0.0286346
0.0267374
0.0223742
0.0155477
0.00764822
0.00110214
-0.00179902
-0.000162163
0.0051877
0.0121715
0.0186754
0.0234507
0.0262473
0.0273195
0.0267698
0.0241971
0.0193113
0.0126272
0.00571863
0.000687758
-0.000833845
0.00150918
0.00673117
0.0130314
0.0187201
0.0228466
0.0252125
0.0259448
0.0249741
0.0219751
0.0169079
0.010532
0.00442147
0.000398418
-0.000303607
0.002434
0.00759885
0.0135873
0.0189399
0.0228304
0.0250485
0.0256325
0.024419
0.0211002
0.0156931
0.00898564
0.00251097
-0.001968
-0.00317461
-0.000837591
0.00426177
0.0106318
0.0167224
0.0214532
0.0243616
0.0253469
0.0243232
0.0209992
0.015481
0.0081313
0.000688199
-0.00638283
-0.00943197
-0.0125101
-0.00532513
-0.0105074
0.106204
0.105702
0.104038
0.100955
0.0953716
0.0855148
0.0689544
0.0416423
0.00215776
-0.0525552
-0.100771
-0.112854
-0.107738
-0.0796924
-0.0502858
-0.0331739
-0.0338383
-0.0403319
-0.0372842
-0.0239874
-0.00710239
0.00837416
0.0209476
0.0310592
0.0393985
0.0460443
0.0508565
0.0514651
0.043485
0.025861
0.00598787
-0.00286924
0.00300136
0.0148573
0.0244124
0.0299667
0.032385
0.0325476
0.0315396
0.0314543
0.032504
0.0313809
0.0241756
0.0113003
-0.00129444
-0.00619547
-0.00103215
0.0100661
0.0206631
0.0271932
0.0294625
0.0291992
0.0286333
0.0289099
0.0285493
0.0246753
0.0158526
0.00424021
-0.00509536
-0.00747073
-0.00200911
0.00801599
0.0178676
0.0245238
0.0275515
0.0283057
0.0284551
0.0282897
0.0262429
0.0204847
0.0110739
0.000741936
-0.00633217
-0.00709367
-0.0014701
0.00769657
0.0167106
0.0231707
0.0266657
0.0280924
0.0284072
0.0273419
0.0236616
0.0165762
0.00714306
-0.00174973
-0.00676214
-0.00604417
-0.000126394
0.00840999
0.0166193
0.0226661
0.026219
0.0277958
0.0277655
0.0255859
0.0205134
0.0126939
0.00382777
-0.00334324
-0.00634571
-0.00428815
0.00185465
0.00975379
0.0170687
0.0224469
0.025649
0.0269481
0.0263657
0.0233843
0.0177213
0.0100892
0.00235789
-0.00312202
-0.00461754
-0.0018025
0.00416413
0.0112705
0.0176568
0.0223035
0.0250148
0.0259052
0.0248021
0.0213096
0.0154419
0.00817282
0.0013442
-0.00302224
-0.0036306
-0.000419033
0.00544253
0.0121644
0.0181455
0.0225032
0.0250227
0.0257162
0.0243244
0.0204877
0.0142912
0.00672419
-0.000442952
-0.00527171
-0.00642625
-0.00366271
0.00210669
0.00922955
0.0160085
0.0212783
0.0245439
0.0256775
0.0245077
0.0207381
0.0145387
0.00655484
-0.00142051
-0.00849948
-0.0116678
-0.0136947
-0.00711445
-0.00890404
0.110679
0.11042
0.109565
0.107619
0.10346
0.0950634
0.0791492
0.0501164
0.00405491
-0.066609
-0.128538
-0.139994
-0.131577
-0.0905757
-0.0495276
-0.0282274
-0.0346115
-0.0496326
-0.0495411
-0.0338825
-0.0133917
0.00448437
0.0180599
0.0282855
0.035729
0.0402244
0.0433786
0.0435108
0.0360771
0.0173977
-0.00683117
-0.0194498
-0.0125102
0.0039047
0.0171935
0.0243759
0.0267965
0.0260254
0.0240368
0.023639
0.0248628
0.0235474
0.015262
0.000732219
-0.0133311
-0.0185475
-0.0121024
0.00132771
0.0140955
0.0218616
0.0244241
0.0239982
0.0233316
0.0236924
0.023278
0.0188794
0.00907634
-0.00364856
-0.0137775
-0.0161883
-0.00985823
0.00160356
0.0128179
0.0203341
0.0237259
0.0246124
0.0248743
0.0247449
0.0224502
0.0160486
0.0057417
-0.00542507
-0.0129452
-0.0135569
-0.00719794
0.00301857
0.0130116
0.0201397
0.0240112
0.0256679
0.0261224
0.0249787
0.0208688
0.0130332
0.00275751
-0.00677222
-0.0119901
-0.010979
-0.00436251
0.00503922
0.0140254
0.0206302
0.0245503
0.0263673
0.0264087
0.0239942
0.0183309
0.00970304
7.71194e-05
-0.00755223
-0.0105816
-0.00813557
-0.00132358
0.00731997
0.0152774
0.0211281
0.0246566
0.0261469
0.0255336
0.022199
0.0158816
0.00747885
-0.000890241
-0.00668267
-0.0081006
-0.00486386
0.0017245
0.00947962
0.0164133
0.0214671
0.024457
0.025477
0.02425
0.0203237
0.0137786
0.00578503
-0.00159361
-0.00618752
-0.006671
-0.00304338
0.00338936
0.0106883
0.017149
0.0218614
0.0246156
0.0253913
0.0238372
0.0195556
0.0127082
0.00446392
-0.00321645
-0.00826832
-0.00932698
-0.00619074
0.000121887
0.00782983
0.0151288
0.0208029
0.0243399
0.0255779
0.0242617
0.0201117
0.0133898
0.00500863
-0.00323699
-0.0101063
-0.0132959
-0.0142447
-0.00853892
-0.00685641
0.115255
0.115286
0.115394
0.114876
0.112623
0.106507
0.0922029
0.0624213
0.00861674
-0.085103
-0.165467
-0.172409
-0.156988
-0.0979431
-0.0435349
-0.0194666
-0.0368449
-0.0652121
-0.0683509
-0.0480679
-0.0219998
-0.000895978
0.0137743
0.0236172
0.0287066
0.029476
0.0305609
0.0307709
0.0244039
0.00489211
-0.0226886
-0.0383562
-0.0305511
-0.00940322
0.00824773
0.0174195
0.0198314
0.018018
0.0150771
0.0144847
0.0159924
0.0146257
0.0055871
-0.0101538
-0.0253963
-0.0309644
-0.023495
-0.00798739
0.00678368
0.0156807
0.0184827
0.0178789
0.0171147
0.0175937
0.0172533
0.0125966
0.00218671
-0.0112813
-0.0219736
-0.0244191
-0.0174308
-0.00483636
0.0074624
0.0156342
0.0192592
0.0202039
0.0205537
0.0205097
0.0181303
0.0113693
0.000513758
-0.0111762
-0.0189619
-0.0194275
-0.0125114
-0.00152433
0.00916109
0.016725
0.0208147
0.0226136
0.0231896
0.0220437
0.017696
0.00940173
-0.00139337
-0.0112941
-0.0165837
-0.0153082
-0.00817281
0.00182495
0.0113074
0.0182389
0.0223699
0.0243494
0.0244648
0.0219208
0.0158819
0.00673749
-0.00335279
-0.011221
-0.0141912
-0.011419
-0.00412779
0.00500006
0.0133383
0.0194513
0.0231718
0.0248035
0.0241759
0.0206115
0.0138603
0.00496158
-0.00378716
-0.00971831
-0.0110103
-0.00743669
-0.000416063
0.00774662
0.0149934
0.0202716
0.0234286
0.0245379
0.0232289
0.0190028
0.0119985
0.00353765
-0.00416148
-0.00884005
-0.00917516
-0.00522943
0.00158307
0.00922278
0.015936
0.020827
0.0237097
0.0245351
0.0228721
0.0182934
0.0110247
0.00236716
-0.00559103
-0.0107139
-0.0116402
-0.00821634
-0.00154642
0.00650347
0.0140764
0.0199538
0.0236324
0.0249182
0.023487
0.0190899
0.0120887
0.00361377
-0.00459516
-0.0110404
-0.0141434
-0.0140796
-0.0094463
-0.00453973
0.119818
0.120179
0.1214
0.122588
0.122804
0.11992
0.108652
0.0797948
0.0165573
-0.108538
-0.216321
-0.219951
-0.199173
-0.110132
-0.032717
-0.00310983
-0.0371024
-0.0872308
-0.0959384
-0.0684264
-0.0338453
-0.00820646
0.00774759
0.0164111
0.0174762
0.0140944
0.0136897
0.0150316
0.00963629
-0.0108291
-0.0408069
-0.0586985
-0.0500459
-0.0244288
-0.00225062
0.00909667
0.0115169
0.00864322
0.0048041
0.00414437
0.006122
0.00503626
-0.00420611
-0.0205316
-0.03652
-0.0424395
-0.0343366
-0.0172728
-0.000913951
0.00885312
0.0117575
0.0109096
0.010026
0.0106771
0.0106167
0.00608407
-0.00444156
-0.0181873
-0.0291484
-0.0316098
-0.0242208
-0.0109102
0.00205861
0.0105657
0.0142098
0.0150869
0.0154851
0.015608
0.0133818
0.00664148
-0.00432382
-0.0161563
-0.0239904
-0.0243149
-0.0170639
-0.00566738
0.00532345
0.0129967
0.0170732
0.0188841
0.0195611
0.0185331
0.0142195
0.00585016
-0.00506091
-0.0150138
-0.0202205
-0.0187258
-0.0113005
-0.00105255
0.00855694
0.0155008
0.0196245
0.0216589
0.0218642
0.0193545
0.0132419
0.00396092
-0.00623028
-0.01408
-0.0168987
-0.0138882
-0.00636228
0.00291498
0.011291
0.0173838
0.0211112
0.0228043
0.0222221
0.0186193
0.0117408
0.00269911
-0.00611665
-0.0119872
-0.0131083
-0.00931402
-0.00210633
0.00615129
0.0134033
0.0186612
0.0218348
0.0229889
0.0216777
0.0173573
0.0101942
0.00159216
-0.00615336
-0.0107563
-0.0109281
-0.00679614
0.000149488
0.00782589
0.0144967
0.0193342
0.022207
0.0230513
0.0213736
0.016715
0.00932989
0.000584819
-0.00737629
-0.0124021
-0.0131659
-0.00956823
-0.00277586
0.0053096
0.0128446
0.0186686
0.0223242
0.0235989
0.0221203
0.0176709
0.0106964
0.00246704
-0.00538046
-0.0112101
-0.0141126
-0.0132002
-0.00973239
-0.00220928
0.124233
0.124963
0.12741
0.130597
0.133853
0.135565
0.129349
0.105665
0.0310313
-0.147127
-0.281798
-0.269857
-0.23552
-0.11577
-0.0116893
0.0151536
-0.0469738
-0.127302
-0.139264
-0.0978562
-0.0496873
-0.0175583
-0.000171545
0.0062697
0.00205189
-0.00525257
-0.00611911
-0.00250275
-0.00660915
-0.0272659
-0.0584818
-0.0783006
-0.0691254
-0.0399828
-0.013757
-0.00035856
0.0020369
-0.00188873
-0.00658077
-0.00716787
-0.00443696
-0.00474002
-0.0134862
-0.0296627
-0.0458725
-0.0520825
-0.0437818
-0.0258611
-0.00854305
0.00167346
0.0044409
0.00321845
0.00217185
0.00307527
0.00356845
-0.000375495
-0.0104531
-0.023955
-0.0348506
-0.037291
-0.0297791
-0.0162375
-0.00311355
0.00530941
0.00868064
0.00931708
0.00971594
0.0101176
0.00834061
0.00206703
-0.00851173
-0.0200656
-0.0277099
-0.0278988
-0.0205613
-0.00916956
0.00166748
0.00904884
0.0128201
0.0144791
0.0152387
0.0144866
0.0105391
0.00254168
-0.00803177
-0.0176874
-0.0226448
-0.0209884
-0.0135368
-0.00343678
0.00586664
0.0124457
0.0162954
0.0182564
0.0185833
0.0163201
0.0105
0.00152186
-0.00836479
-0.0159179
-0.0184922
-0.015351
-0.00787273
0.00116636
0.00917856
0.0149151
0.018428
0.0201014
0.0196451
0.0162497
0.00961236
0.000832135
-0.00770547
-0.0133035
-0.0142145
-0.0103391
-0.00322945
0.00475924
0.0116552
0.0166026
0.0196155
0.0207727
0.019574
0.0154211
0.00845743
8.50216e-05
-0.00740706
-0.0117664
-0.0117689
-0.00760768
-0.000815073
0.00654562
0.0128308
0.0173441
0.0200483
0.020888
0.0193254
0.0148559
0.00771052
-0.000758247
-0.00842552
-0.0131796
-0.0137584
-0.0101229
-0.00347861
0.00429113
0.0114305
0.0169065
0.0203541
0.021565
0.0201403
0.0158779
0.00926984
0.00163027
-0.00553894
-0.010601
-0.0131906
-0.0116902
-0.00935062
-0.000176487
0.128356
0.129465
0.133215
0.138554
0.145465
0.152768
0.1547
0.139644
0.0537503
-0.175291
-0.394927
-0.358017
-0.309772
-0.122445
0.0195785
0.0665466
-0.0353974
-0.164063
-0.194824
-0.139173
-0.0714632
-0.0295236
-0.0101723
-0.00690663
-0.0170444
-0.0278198
-0.0277825
-0.0206808
-0.0225649
-0.0420676
-0.0731288
-0.0941501
-0.085567
-0.0545324
-0.0254043
-0.0104587
-0.00825433
-0.0132714
-0.0187991
-0.0191533
-0.0152903
-0.0141949
-0.0216834
-0.0369551
-0.0528268
-0.0592101
-0.0511255
-0.0331219
-0.0156125
-0.00550024
-0.0032095
-0.0049978
-0.00626547
-0.00500394
-0.00363822
-0.00649087
-0.0155361
-0.0282621
-0.0387475
-0.0411165
-0.0337545
-0.02049
-0.00777917
7.35822e-05
0.00282183
0.00301147
0.00336035
0.00417526
0.00317595
-0.00215743
-0.0118368
-0.022683
-0.0298966
-0.0299557
-0.0227868
-0.011834
-0.0016457
0.0049989
0.0081345
0.00945818
0.0102867
0.00999258
0.00677498
-0.000377457
-0.0101437
-0.019147
-0.023696
-0.0219398
-0.014737
-0.00520582
0.00332737
0.0091308
0.0124135
0.0141632
0.0146567
0.0128814
0.00775265
-0.000458622
-0.00962258
-0.0165989
-0.0188412
-0.0156886
-0.00855838
-0.000169299
0.00704966
0.0120673
0.0151266
0.0166977
0.0164691
0.0135589
0.0075618
-0.000532192
-0.00843782
-0.013552
-0.0142213
-0.0104183
-0.00371179
0.00361968
0.00977334
0.0140986
0.0167626
0.0178877
0.0169398
0.0132485
0.00687056
-0.000884765
-0.00781761
-0.0117677
-0.0116033
-0.00758452
-0.00125077
0.0054198
0.0109555
0.0148579
0.0172289
0.0180494
0.0167539
0.0127704
0.00624289
-0.00157324
-0.00864633
-0.0129573
-0.0133374
-0.00981424
-0.00360734
0.00347448
0.00984185
0.0146612
0.0177104
0.0188147
0.017568
0.0137534
0.00785544
0.00112707
-0.00507897
-0.00927487
-0.0114515
-0.00970641
-0.00831931
0.00125837
0.13203
0.133517
0.138544
0.146159
0.157052
0.171699
0.185641
0.19511
0.0990911
-0.16187
-0.461162
-0.429779
-0.39175
-0.158232
0.0123211
0.0585695
-0.0296232
-0.167602
-0.231504
-0.179434
-0.0959043
-0.0434082
-0.0220182
-0.0227372
-0.0390766
-0.052807
-0.050272
-0.038232
-0.0365723
-0.0534916
-0.0830265
-0.104654
-0.0975049
-0.0665233
-0.0361373
-0.0205098
-0.0188484
-0.025094
-0.0314709
-0.0314045
-0.0259617
-0.0228159
-0.0283185
-0.0419922
-0.0569942
-0.0633945
-0.0558727
-0.0385388
-0.0216539
-0.0122805
-0.0108813
-0.0134704
-0.0150205
-0.0132776
-0.0107064
-0.0119769
-0.0194399
-0.0308954
-0.0406454
-0.0428855
-0.0359201
-0.0234193
-0.0116917
-0.00491819
-0.00316949
-0.00364602
-0.00339479
-0.00202324
-0.00191587
-0.0058509
-0.0141445
-0.0238801
-0.0304375
-0.0303725
-0.0236151
-0.0135218
-0.00447178
0.000986062
0.00314772
0.00395021
0.00483847
0.00518935
0.00306241
-0.00278613
-0.0112969
-0.0193133
-0.0233055
-0.0215149
-0.0148307
-0.00627933
0.00102688
0.00564619
0.00806926
0.00947407
0.010184
0.00914128
0.00509884
-0.00189465
-0.00993588
-0.0160726
-0.0179057
-0.0148641
-0.00837804
-0.00104245
0.00496221
0.00890426
0.011275
0.012667
0.0127741
0.0106305
0.00566799
-0.00132756
-0.00826352
-0.0126974
-0.0131025
-0.00952801
-0.0035266
0.00276656
0.00779991
0.0111983
0.0133307
0.0143951
0.0138437
0.0109111
0.00550011
-0.00126247
-0.00734487
-0.0107329
-0.0104119
-0.00670935
-0.0011366
0.00447839
0.00891213
0.011927
0.0138079
0.0146012
0.0137295
0.0105278
0.00498802
-0.00181293
-0.00800706
-0.0117175
-0.0118945
-0.00863833
-0.00315696
0.00287267
0.00810363
0.0119689
0.0144381
0.0154015
0.0144632
0.0113533
0.00648604
0.000945789
-0.00406519
-0.00735689
-0.00904434
-0.00744549
-0.00671841
0.00189778
0.135102
0.136919
0.14312
0.152767
0.167867
0.189285
0.221448
0.223416
0.193729
-0.184818
-0.619746
-0.512464
-0.50588
-0.243248
-0.102762
-0.0465129
-0.0609862
-0.165087
-0.245522
-0.20967
-0.118585
-0.0576721
-0.0350312
-0.0404182
-0.0630955
-0.0790854
-0.0722621
-0.053722
-0.0472795
-0.0604919
-0.0873851
-0.108923
-0.103806
-0.0747157
-0.0449083
-0.0297121
-0.0291256
-0.036841
-0.0440972
-0.0433953
-0.0359044
-0.0301094
-0.0330237
-0.0445464
-0.0582338
-0.0644799
-0.0577749
-0.0417618
-0.0262732
-0.0182848
-0.0182221
-0.0218621
-0.0237468
-0.0213961
-0.0173086
-0.0165684
-0.0219867
-0.0317583
-0.0404955
-0.0425495
-0.0361848
-0.0248734
-0.0146502
-0.00943892
-0.00905401
-0.0104059
-0.010293
-0.00822906
-0.00671924
-0.00885596
-0.0153457
-0.0236261
-0.0293346
-0.0291518
-0.023019
-0.0141583
-0.00668929
-0.00283169
-0.0019571
-0.00184649
-0.000904906
0.000261493
-0.00045267
-0.0045932
-0.0114572
-0.018198
-0.0215078
-0.0197466
-0.0138235
-0.0066197
-0.000950295
0.00211634
0.00341518
0.00435358
0.0053277
0.00523893
0.00263646
-0.00273894
-0.00930589
-0.0143762
-0.015739
-0.012924
-0.00735025
-0.0014291
0.00298644
0.00553512
0.00700766
0.00815293
0.00869495
0.00757267
0.00399872
-0.00153142
-0.0072008
-0.0107862
-0.0109149
-0.00771545