/*--------------------------------*- C++ -*----------------------------------*\
  =========                 |
  \\      /  F ield         | OpenFOAM: The Open Source CFD Toolbox
   \\    /   O peration     | Website:  https://openfoam.org
    \\  /    A nd           | Version:  11
     \\/     M anipulation  |
\*---------------------------------------------------------------------------*/
FoamFile
{
    format      ascii;
    class       surfaceScalarField;
    location    "1.460428";
    object      phi_0;
}
// * * * * * * * * * * * * * * * * * * * * * * * * * * * * * * * * * * * * * //

dimensions      [0 3 -1 0 0 0 0];

internalField   nonuniform List<scalar> 
14638
(
0.00250273
-2.73207e-06
0.00251095
-8.21862e-06
0.00252494
-1.39865e-05
0.00254505
-2.01149e-05
0.00257163
-2.6581e-05
0.00260474
-3.31109e-05
0.00264396
-3.92135e-05
0.00268794
-4.39798e-05
0.00273435
-4.6416e-05
0.0027798
-4.54511e-05
0.00282023
-4.04303e-05
0.00285219
-3.1952e-05
0.00287295
-2.07653e-05
0.00288075
-7.79911e-06
0.0028752
5.55062e-06
0.00285738
1.78156e-05
0.00282968
2.77031e-05
0.00279523
3.4449e-05
0.0027573
3.79327e-05
0.00271875
3.85499e-05
0.00268178
3.69741e-05
0.00264785
3.39258e-05
0.00261785
3.00022e-05
0.00259224
2.56113e-05
0.00257122
2.10152e-05
0.00255478
1.6441e-05
0.00254261
1.2174e-05
0.00253405
8.55422e-06
0.00252818
5.86995e-06
0.00252396
4.22273e-06
0.00252049
3.46749e-06
0.00251722
3.27509e-06
0.00251394
3.27724e-06
0.00251074
3.20402e-06
0.00250779
2.94388e-06
0.00250527
2.51766e-06
0.00250327
2.00868e-06
0.00250177
1.50005e-06
0.00250072
1.04529e-06
0.00250005
6.68534e-07
0.00249968
3.76033e-07
0.00249951
1.65321e-07
0.00249948
2.84199e-08
0.00249953
-4.75694e-08
0.00249961
-7.90008e-08
0.00249969
-8.26438e-08
0.00249976
-7.25224e-08
0.00249982
-5.81505e-08
0.00249987
-4.45736e-08
0.0024999
-3.35978e-08
0.00249993
-2.52824e-08
0.00249994
-1.90711e-08
0.00249996
-1.43855e-08
0.00249997
-1.08098e-08
0.00249998
-8.07573e-09
0.00249998
-5.99997e-09
0.00249999
-4.44043e-09
0.00249999
-3.27893e-09
0.00249999
-2.41822e-09
0.0025
-1.78155e-09
0.0025
-1.31077e-09
0.0025
-9.62711e-10
0.0025
-7.05566e-10
0.0025
-5.15773e-10
0.0025
-3.75833e-10
0.0025
-2.7274e-10
0.0025
-1.96845e-10
0.0025
-1.41015e-10
0.0025
-9.99734e-11
0.0025
-6.98369e-11
0.0025
-4.7731e-11
0.0025
-3.15456e-11
0.0025
-1.9714e-11
0.0025
-1.10938e-11
0.0025
-4.82993e-12
0.0025
-3.0504e-13
0.0025
2.94506e-12
0.0025
5.2538e-12
0.0025
6.87827e-12
0.0025
7.99168e-12
0.0025
8.73977e-12
0.0025
9.2108e-12
0.0025
9.48916e-12
0.0025
9.61719e-12
0.0025
9.64619e-12
0.0025
9.59358e-12
0.0025
9.49273e-12
0.0025
9.34758e-12
0.0025
9.18167e-12
0.0025
8.99171e-12
0.0025
8.79579e-12
0.0025
8.58683e-12
0.0025
8.37983e-12
0.0025
8.16585e-12
0.0025
7.95799e-12
0.0025
7.74652e-12
0.0025
7.54327e-12
0.0025
7.33828e-12
0.0025
7.14243e-12
0.0025
6.94592e-12
0.0025
6.75883e-12
0.0025
6.57171e-12
0.0025
6.3939e-12
0.0025
6.21644e-12
0.0025
6.04793e-12
0.0025
5.88e-12
0.0025
5.72057e-12
0.0025
5.56186e-12
0.0025
5.41107e-12
0.0025
5.26111e-12
0.0025
5.11849e-12
0.0025
4.97678e-12
0.0025
4.84181e-12
0.0025
4.70783e-12
0.0025
4.57997e-12
0.0025
4.45321e-12
0.0025
4.33197e-12
0.0025
4.21192e-12
0.0025
4.09683e-12
0.0025
3.983e-12
0.0025
3.87359e-12
0.0025
3.76556e-12
0.0025
3.66142e-12
0.0025
3.55878e-12
0.0025
3.45954e-12
0.0025
3.36191e-12
0.0025
3.26722e-12
0.0025
3.17427e-12
0.0025
3.08382e-12
0.0025
2.99524e-12
0.0025
2.90875e-12
0.0025
2.82426e-12
0.0025
2.74149e-12
0.0025
2.66083e-12
0.0025
2.58155e-12
0.0025
2.5045e-12
0.0025
2.42851e-12
0.0025
2.35485e-12
0.0025
2.28196e-12
0.0025
2.2115e-12
0.0025
2.14155e-12
0.0025
2.07411e-12
0.0025
2.00691e-12
0.0025
1.94233e-12
0.0025
1.87777e-12
0.0025
1.8159e-12
0.0025
1.75388e-12
0.0025
1.69461e-12
0.0025
1.63505e-12
0.0025
1.57826e-12
0.0025
1.52111e-12
0.0025
1.46642e-12
0.0025
1.41189e-12
0.0025
1.35831e-12
0.0025
1.30918e-12
0.0025
1.25122e-12
0.0025
1.22544e-12
0.0025
1.1254e-12
0.0025
1.22894e-12
9.20087e-13
0.00250271
-5.44168e-06
0.00251087
-1.63764e-05
0.00252477
-2.78915e-05
0.00254482
-4.01664e-05
0.00257141
-5.31697e-05
0.00260467
-6.6367e-05
0.00264424
-7.87822e-05
0.00268882
-8.85594e-05
0.00273607
-9.3667e-05
0.00278246
-9.18436e-05
0.00282374
-8.17117e-05
0.00285636
-6.45736e-05
0.00287754
-4.1946e-05
0.00288543
-1.56838e-05
0.00287961
1.1367e-05
0.00286123
3.62017e-05
0.00283276
5.61651e-05
0.00279751
6.97027e-05
0.00275885
7.65951e-05
0.00271972
7.76809e-05
0.00268233
7.43567e-05
0.00264816
6.81015e-05
0.00261803
6.01322e-05
0.00259237
5.12729e-05
0.00257134
4.20444e-05
0.00255489
3.28889e-05
0.0025427
2.43612e-05
0.00253413
1.7128e-05
0.00252824
1.17585e-05
0.00252401
8.45607e-06
0.00252054
6.93554e-06
0.00251727
6.5441e-06
0.002514
6.54791e-06
0.0025108
6.40635e-06
0.00250785
5.8933e-06
0.00250532
5.04706e-06
0.0025033
4.03203e-06
0.00250178
3.01381e-06
0.00250073
2.1004e-06
0.00250005
1.34174e-06
0.00249968
7.52129e-07
0.00249951
3.27814e-07
0.00249949
5.3173e-08
0.00249954
-9.80255e-08
0.00249962
-1.59307e-07
0.0024997
-1.65001e-07
0.00249977
-1.43647e-07
0.00249983
-1.14404e-07
0.00249987
-8.72456e-08
0.0024999
-6.55655e-08
0.00249993
-4.92903e-08
0.00249995
-3.71922e-08
0.00249996
-2.80732e-08
0.00249997
-2.11043e-08
0.00249998
-1.5767e-08
0.00249998
-1.1712e-08
0.00249999
-8.6659e-09
0.00249999
-6.39879e-09
0.00249999
-4.71979e-09
0.0025
-3.47826e-09
0.0025
-2.56025e-09
0.0025
-1.88151e-09
0.0025
-1.38e-09
0.0025
-1.00984e-09
0.0025
-7.36891e-10
0.0025
-5.35804e-10
0.0025
-3.87755e-10
0.0025
-2.78827e-10
0.0025
-1.98739e-10
0.0025
-1.3991e-10
0.0025
-9.67451e-11
0.0025
-6.51196e-11
0.0025
-4.19893e-11
0.0025
-2.51147e-11
0.0025
-1.28409e-11
0.0025
-3.9532e-12
0.0025
2.44591e-12
0.0025
7.01489e-12
0.0025
1.02422e-11
0.0025
1.2482e-11
0.0025
1.4001e-11
0.0025
1.49891e-11
0.0025
1.55924e-11
0.0025
1.5912e-11
0.0025
1.6029e-11
0.0025
1.59963e-11
0.0025
1.58595e-11
0.0025
1.56455e-11
0.0025
1.53809e-11
0.0025
1.50782e-11
0.0025
1.47536e-11
0.0025
1.44121e-11
0.0025
1.40642e-11
0.0025
1.37108e-11
0.0025
1.33593e-11
0.0025
1.30084e-11
0.0025
1.26637e-11
0.0025
1.23228e-11
0.0025
1.19905e-11
0.0025
1.16634e-11
0.0025
1.13458e-11
0.0025
1.10343e-11
0.0025
1.07325e-11
0.0025
1.0437e-11
0.0025
1.01512e-11
0.0025
9.87153e-12
0.0025
9.6013e-12
0.0025
9.33692e-12
0.0025
9.08156e-12
0.0025
8.8317e-12
0.0025
8.59036e-12
0.0025
8.35416e-12
0.0025
8.12597e-12
0.0025
7.90253e-12
0.0025
7.6866e-12
0.0025
7.47505e-12
0.0025
7.27052e-12
0.0025
7.07001e-12
0.0025
6.87604e-12
0.0025
6.68577e-12
0.0025
6.5016e-12
0.0025
6.32083e-12
0.0025
6.14574e-12
0.0025
5.97379e-12
0.0025
5.80715e-12
0.0025
5.6434e-12
0.0025
5.48461e-12
0.0025
5.3285e-12
0.0025
5.17702e-12
0.0025
5.02804e-12
0.0025
4.8834e-12
0.0025
4.74109e-12
0.0025
4.60287e-12
0.0025
4.46681e-12
0.0025
4.3346e-12
0.0025
4.20443e-12
0.0025
4.07788e-12
0.0025
3.95325e-12
0.0025
3.83204e-12
0.0025
3.71264e-12
0.0025
3.59648e-12
0.0025
3.48203e-12
0.0025
3.37065e-12
0.0025
3.26088e-12
0.0025
3.15403e-12
0.0025
3.04872e-12
0.0025
2.94621e-12
0.0025
2.84515e-12
0.0025
2.74684e-12
0.0025
2.6498e-12
0.0025
2.55568e-12
0.0025
2.46212e-12
0.0025
2.37286e-12
0.0025
2.28105e-12
0.0025
2.20163e-12
0.0025
2.10161e-12
0.0025
2.06098e-12
0.0025
1.89294e-12
0.0025
2.05169e-12
1.57416e-12
0.00250266
-8.10566e-06
0.00251069
-2.44046e-05
0.00252443
-4.16249e-05
0.00254434
-6.00768e-05
0.00257092
-7.97556e-05
0.00260445
-9.98953e-05
0.00264472
-0.000119049
0.0026905
-0.00013434
0.00273944
-0.00014261
0.00278774
-0.000140147
0.00283074
-0.000124711
0.00286471
-9.85379e-05
0.00288671
-6.39496e-05
0.00289474
-2.37127e-05
0.00288835
1.77612e-05
0.00286876
5.57865e-05
0.00283873
8.6201e-05
0.00280182
0.000106611
0.00276167
0.000116747
0.00272136
0.000117991
0.00268315
0.000112564
0.00264847
0.000102776
0.0026181
9.05076e-05
0.00259236
7.70128e-05
0.00257134
6.30658e-05
0.00255492
4.93054e-05
0.00254275
3.65302e-05
0.00253417
2.57088e-05
0.00252825
1.7674e-05
0.00252399
1.27232e-05
0.00252049
1.04325e-05
0.0025172
9.83175e-06
0.00251392
9.82794e-06
0.00251072
9.61336e-06
0.00250776
8.84704e-06
0.00250523
7.58188e-06
0.0025032
6.06e-06
0.00250169
4.52778e-06
0.00250064
3.14826e-06
0.00249998
1.99968e-06
0.00249962
1.10723e-06
0.00249948
4.67741e-07
0.00249948
5.79966e-08
0.00249954
-1.62976e-07
0.00249963
-2.47886e-07
0.00249972
-2.50313e-07
0.00249979
-2.14172e-07
0.00249984
-1.68307e-07
0.00249988
-1.2714e-07
0.00249991
-9.50475e-08
0.00249993
-7.13442e-08
0.00249995
-5.38645e-08
0.00249996
-4.06987e-08
0.00249997
-3.06096e-08
0.00249998
-2.28628e-08
0.00249999
-1.69723e-08
0.00249999
-1.2551e-08
0.00249999
-9.26515e-09
0.00249999
-6.83461e-09
0.0025
-5.03845e-09
0.0025
-3.71048e-09
0.0025
-2.72852e-09
0.0025
-2.00292e-09
0.0025
-1.46734e-09
0.0025
-1.07243e-09
0.0025
-7.81492e-10
0.0025
-5.67273e-10
0.0025
-4.09633e-10
0.0025
-2.93704e-10
0.0025
-2.08521e-10
0.0025
-1.45991e-10
0.0025
-1.0015e-10
0.0025
-6.65949e-11
0.0025
-4.20859e-11
0.0025
-2.42309e-11
0.0025
-1.1272e-11
0.0025
-1.91133e-12
0.0025
4.80386e-12
0.0025
9.57826e-12
0.0025
1.29263e-11
0.0025
1.52312e-11
0.0025
1.67699e-11
0.0025
1.77512e-11
0.0025
1.83235e-11
0.0025
1.86012e-11
0.0025
1.86633e-11
0.0025
1.85728e-11
0.0025
1.83712e-11
0.0025
1.80938e-11
0.0025
1.77614e-11
0.0025
1.73947e-11
0.0025
1.70032e-11
0.0025
1.65996e-11
0.0025
1.61874e-11
0.0025
1.57749e-11
0.0025
1.53624e-11
0.0025
1.49558e-11
0.0025
1.45537e-11
0.0025
1.41607e-11
0.0025
1.37743e-11
0.0025
1.33985e-11
0.0025
1.30302e-11
0.0025
1.2673e-11
0.0025
1.23237e-11
0.0025
1.19854e-11
0.0025
1.16549e-11
0.0025
1.13351e-11
0.0025
1.10228e-11
0.0025
1.07206e-11
0.0025
1.04255e-11
0.0025
1.01401e-11
0.0025
9.86112e-12
0.0025
9.5913e-12
0.0025
9.32749e-12
0.0025
9.07223e-12
0.0025
8.8225e-12
0.0025
8.58077e-12
0.0025
8.3441e-12
0.0025
8.11491e-12
0.0025
7.89035e-12
0.0025
7.67278e-12
0.0025
7.45944e-12
0.0025
7.25265e-12
0.0025
7.04973e-12
0.0025
6.85295e-12
0.0025
6.65971e-12
0.0025
6.47223e-12
0.0025
6.28801e-12
0.0025
6.1092e-12
0.0025
5.93339e-12
0.0025
5.76267e-12
0.0025
5.59473e-12
0.0025
5.43161e-12
0.0025
5.27105e-12
0.0025
5.11505e-12
0.0025
4.96143e-12
0.0025
4.81214e-12
0.0025
4.66506e-12
0.0025
4.52209e-12
0.0025
4.38118e-12
0.0025
4.2442e-12
0.0025
4.10913e-12
0.0025
3.97781e-12
0.0025
3.84827e-12
0.0025
3.72233e-12
0.0025
3.59806e-12
0.0025
3.47728e-12
0.0025
3.35803e-12
0.0025
3.24225e-12
0.0025
3.12775e-12
0.0025
3.01703e-12
0.0025
2.90667e-12
0.0025
2.80202e-12
0.0025
2.69357e-12
0.0025
2.60108e-12
0.0025
2.48276e-12
0.0025
2.43419e-12
0.0025
2.24291e-12
0.0025
2.39553e-12
1.8922e-12
0.00250259
-1.06969e-05
0.00251041
-3.22255e-05
0.00252386
-5.50778e-05
0.00254353
-7.97421e-05
0.00257007
-0.000106296
0.00260397
-0.000133792
0.00264526
-0.000160342
0.00269286
-0.000181938
0.00274442
-0.000194167
0.00279568
-0.000191415
0.00284133
-0.000170353
0.00287736
-0.000134571
0.00290064
-8.72346e-05
0.00290891
-3.19801e-05
0.00290163
2.50434e-05
0.00288018
7.72392e-05
0.00284768
0.000118697
0.00280819
0.000146098
0.00276573
0.000159206
0.00272361
0.000160112
0.00268416
0.000152022
0.00264874
0.000138194
0.00261801
0.000121234
0.00259218
0.000102847
0.00257119
8.40497e-05
0.00255485
6.56493e-05
0.00254273
4.86512e-05
0.00253415
3.42889e-05
0.00252819
2.36302e-05
0.00252386
1.70519e-05
0.00252031
1.39902e-05
0.00251697
1.31652e-05
0.00251367
1.31354e-05
0.00251045
1.28335e-05
0.00250749
1.18056e-05
0.00250495
1.01163e-05
0.00250293
8.08124e-06
0.00250143
6.02495e-06
0.00250042
4.16641e-06
0.0024998
2.61582e-06
0.00249949
1.41348e-06
0.0024994
5.59139e-07
0.00249944
2.15516e-08
0.00249953
-2.5779e-07
0.00249964
-3.54291e-07
0.00249973
-3.43539e-07
0.0024998
-2.86077e-07
0.00249986
-2.20282e-07
0.00249989
-1.64088e-07
0.00249992
-1.2178e-07
0.00249994
-9.12544e-08
0.00249996
-6.89785e-08
0.00249997
-5.21954e-08
0.00249998
-3.92728e-08
0.00249998
-2.93132e-08
0.00249999
-2.1735e-08
0.00249999
-1.60568e-08
0.00249999
-1.1847e-08
0.00249999
-8.73902e-09
0.0025
-6.44419e-09
0.0025
-4.7477e-09
0.0025
-3.49304e-09
0.0025
-2.56582e-09
0.0025
-1.88147e-09
0.0025
-1.37693e-09
0.0025
-1.00524e-09
0.0025
-7.31565e-10
0.0025
-5.3015e-10
0.0025
-3.82003e-10
0.0025
-2.73117e-10
0.0025
-1.9316e-10
0.0025
-1.34513e-10
0.0025
-9.15561e-11
0.0025
-6.01479e-11
0.0025
-3.72361e-11
0.0025
-2.05743e-11
0.0025
-8.50623e-12
0.0025
1.85575e-13
0.0025
6.39961e-12
0.0025
1.07942e-11
0.0025
1.38567e-11
0.0025
1.59426e-11
0.0025
1.73162e-11
0.0025
1.81687e-11
0.0025
1.86441e-11
0.0025
1.88445e-11
0.0025
1.88488e-11
0.0025
1.87109e-11
0.0025
1.84745e-11
0.0025
1.81672e-11
0.0025
1.78137e-11
0.0025
1.74278e-11
0.0025
1.70236e-11
0.0025
1.66074e-11
0.0025
1.61878e-11
0.0025
1.57669e-11
0.0025
1.53504e-11
0.0025
1.49382e-11
0.0025
1.45344e-11
0.0025
1.41375e-11
0.0025
1.37509e-11
0.0025
1.33724e-11
0.0025
1.30049e-11
0.0025
1.26458e-11
0.0025
1.22978e-11
0.0025
1.19581e-11
0.0025
1.16292e-11
0.0025
1.13083e-11
0.0025
1.09977e-11
0.0025
1.06945e-11
0.0025
1.04012e-11
0.0025
1.01148e-11
0.0025
9.83757e-12
0.0025
9.56675e-12
0.0025
9.30459e-12
0.0025
9.04828e-12
0.0025
8.80009e-12
0.0025
8.55722e-12
0.0025
8.32196e-12
0.0025
8.09156e-12
0.0025
7.86828e-12
0.0025
7.64941e-12
0.0025
7.43723e-12
0.0025
7.22908e-12
0.0025
7.0272e-12
0.0025
6.829e-12
0.0025
6.63669e-12
0.0025
6.44775e-12
0.0025
6.26436e-12
0.0025
6.08405e-12
0.0025
5.90899e-12
0.0025
5.73676e-12
0.0025
5.56951e-12
0.0025
5.40484e-12
0.0025
5.24493e-12
0.0025
5.08739e-12
0.0025
4.93436e-12
0.0025
4.78353e-12
0.0025
4.63701e-12
0.0025
4.49252e-12
0.0025
4.35215e-12
0.0025
4.21366e-12
0.0025
4.07913e-12
0.0025
3.94634e-12
0.0025
3.81736e-12
0.0025
3.68999e-12
0.0025
3.56633e-12
0.0025
3.44414e-12
0.0025
3.32567e-12
0.0025
3.20838e-12
0.0025
3.09525e-12
0.0025
2.98223e-12
0.0025
2.87562e-12
0.0025
2.76448e-12
0.0025
2.67069e-12
0.0025
2.54982e-12
0.0025
2.49791e-12
0.0025
2.31218e-12
0.0025
2.42738e-12
1.97868e-12
0.00250249
-1.31829e-05
0.00251001
-3.97456e-05
0.00252304
-6.8113e-05
0.00254232
-9.90171e-05
0.00256872
-0.000132696
0.00260303
-0.000168102
0.00264564
-0.000202958
0.00269569
-0.000231991
0.00275089
-0.000249358
0.00280629
-0.000246822
0.00285558
-0.000219646
0.00289447
-0.000173451
0.00291952
-0.00011229
0.00292811
-4.05649e-05
0.00291956
3.35843e-05
0.00289549
0.000101312
0.00285958
0.00015461
0.00281655
0.000189128
0.00277096
0.000204796
0.00272641
0.000204657
0.00268531
0.000193125
0.00264894
0.000174567
0.00261778
0.000152389
0.00259186
0.00012877
0.00257096
0.000104954
0.00255473
8.18752e-05
0.00254268
6.06971e-05
0.00253411
4.28675e-05
0.00252809
2.96495e-05
0.00252366
2.14777e-05
0.00252
1.76457e-05
0.0025166
1.65748e-05
0.00251324
1.64904e-05
0.00251
1.60771e-05
0.00250703
1.47716e-05
0.0025045
1.26471e-05
0.00250249
1.00868e-05
0.00250103
7.49018e-06
0.00250006
5.1333e-06
0.00249951
3.16358e-06
0.00249929
1.64232e-06
0.00249927
5.75322e-07
0.00249937
-7.78603e-08
0.00249951
-3.97663e-07
0.00249964
-4.87479e-07
0.00249975
-4.48864e-07
0.00249982
-3.60622e-07
0.00249987
-2.70236e-07
0.00249991
-1.97639e-07
0.00249993
-1.45397e-07
0.00249995
-1.0883e-07
0.00249996
-8.24613e-08
0.00249997
-6.25344e-08
0.00249998
-4.70674e-08
0.00249998
-3.50846e-08
0.00249999
-2.59642e-08
0.00249999
-1.91511e-08
0.00249999
-1.4119e-08
0.0025
-1.04139e-08
0.0025
-7.68112e-09
0.0025
-5.6608e-09
0.0025
-4.16618e-09
0.0025
-3.06152e-09
0.0025
-2.24632e-09
0.0025
-1.64547e-09
0.0025
-1.20292e-09
0.0025
-8.77088e-10
0.0025
-6.37275e-10
0.0025
-4.60866e-10
0.0025
-3.31187e-10
0.0025
-2.3594e-10
0.0025
-1.66055e-10
0.0025
-1.14842e-10
0.0025
-7.73718e-11
0.0025
-5.00109e-11
0.0025
-3.00858e-11
0.0025
-1.56254e-11
0.0025
-5.18093e-12
0.0025
2.31662e-12
0.0025
7.6506e-12
0.0025
1.14008e-11
0.0025
1.399e-11
0.0025
1.57323e-11
0.0025
1.68552e-11
0.0025
1.75295e-11
0.0025
1.78768e-11
0.0025
1.79901e-11
0.0025
1.79338e-11
0.0025
1.77592e-11
0.0025
1.74994e-11
0.0025
1.71832e-11
0.0025
1.6827e-11
0.0025
1.64475e-11
0.0025
1.6052e-11
0.0025
1.56505e-11
0.0025
1.52457e-11
0.0025
1.48441e-11
0.0025
1.44456e-11
0.0025
1.40548e-11
0.0025
1.36703e-11
0.0025
1.32956e-11
0.0025
1.29287e-11
0.0025
1.25725e-11
0.0025
1.22244e-11
0.0025
1.18871e-11
0.0025
1.15579e-11
0.0025
1.12393e-11
0.0025
1.09284e-11
0.0025
1.06277e-11
0.0025
1.03341e-11
0.0025
1.00502e-11
0.0025
9.77299e-12
0.0025
9.5048e-12
0.0025
9.24278e-12
0.0025
8.98921e-12
0.0025
8.74131e-12
0.0025
8.50132e-12
0.0025
8.26648e-12
0.0025
8.03905e-12
0.0025
7.81632e-12
0.0025
7.6005e-12
0.0025
7.38897e-12
0.0025
7.18392e-12
0.0025
6.98277e-12
0.0025
6.7877e-12
0.0025
6.5962e-12
0.0025
6.4104e-12
0.0025
6.22786e-12
0.0025
6.0507e-12
0.0025
5.87652e-12
0.0025
5.70741e-12
0.0025
5.54106e-12
0.0025
5.3795e-12
0.0025
5.22048e-12
0.0025
5.06602e-12
0.0025
4.91389e-12
0.0025
4.7661e-12
0.0025
4.62047e-12
0.0025
4.47897e-12
0.0025
4.33947e-12
0.0025
4.20394e-12
0.0025
4.07026e-12
0.0025
3.94039e-12
0.0025
3.81225e-12
0.0025
3.68776e-12
0.0025
3.56488e-12
0.0025
3.44557e-12
0.0025
3.32774e-12
0.0025
3.21353e-12
0.0025
3.10049e-12
0.0025
2.99156e-12
0.0025
2.88269e-12
0.0025
2.78028e-12
0.0025
2.67325e-12
0.0025
2.58329e-12
0.0025
2.46775e-12
0.0025
2.41426e-12
0.0025
2.24638e-12
0.0025
2.31901e-12
1.94786e-12
0.00250234
-1.55248e-05
0.00250945
-4.68509e-05
0.00252189
-8.05561e-05
0.00254057
-0.0001177
0.00256666
-0.000158785
0.00260135
-0.000202792
0.00264554
-0.000247143
0.0026987
-0.000285153
0.00275869
-0.000309347
0.00281959
-0.000307727
0.00287366
-0.000273707
0.00291626
-0.000216058
0.00294369
-0.000139717
0.00295275
-4.9623e-05
0.00294256
4.37691e-05
0.00291499
0.000128888
0.0028745
0.000195097
0.00282677
0.000236858
0.0027771
0.00025447
0.00272946
0.000252292
0.00268632
0.000236265
0.00264882
0.000212065
0.00261721
0.000183996
0.00259126
0.000154725
0.00257052
0.00012569
0.0025545
9.79021e-05
0.00254258
7.26139e-05
0.00253402
5.14241e-05
0.00252793
3.57399e-05
0.00252339
2.60255e-05
0.0025196
2.14281e-05
0.00251609
2.0085e-05
0.00251267
1.99091e-05
0.0025094
1.93526e-05
0.00250642
1.77483e-05
0.00250389
1.51737e-05
0.00250191
1.20719e-05
0.00250049
8.91209e-06
0.00249959
6.03e-06
0.00249914
3.61769e-06
0.00249901
1.76567e-06
0.0024991
4.89932e-07
0.00249928
-2.61096e-07
0.00249948
-5.96234e-07
0.00249965
-6.54343e-07
0.00249977
-5.68329e-07
0.00249984
-4.37233e-07
0.00249989
-3.16754e-07
0.00249992
-2.26524e-07
0.00249994
-1.65097e-07
0.00249995
-1.23673e-07
0.00249997
-9.41409e-08
0.00249997
-7.1627e-08
0.00249998
-5.39201e-08
0.00249999
-4.0104e-08
0.00249999
-2.95931e-08
0.00249999
-2.178e-08
0.00249999
-1.60414e-08
0.0025
-1.18311e-08
0.0025
-8.72896e-09
0.0025
-6.43474e-09
0.0025
-4.7365e-09
0.0025
-3.48116e-09
0.0025
-2.55504e-09
0.0025
-1.87271e-09
0.0025
-1.3703e-09
0.0025
-1.00044e-09
0.0025
-7.28226e-10
0.0025
-5.27969e-10
0.0025
-3.80748e-10
0.0025
-2.72607e-10
0.0025
-1.93248e-10
0.0025
-1.35075e-10
0.0025
-9.24944e-11
0.0025
-6.13827e-11
0.0025
-3.87052e-11
0.0025
-2.22258e-11
0.0025
-1.03001e-11
0.0025
-1.71598e-12
0.0025
4.4159e-12
0.0025
8.75248e-12
0.0025
1.17737e-11
0.0025
1.38352e-11
0.0025
1.51954e-11
0.0025
1.6047e-11
0.0025
1.65282e-11
0.0025
1.67439e-11
0.0025
1.67673e-11
0.0025
1.66557e-11
0.0025
1.64473e-11
0.0025
1.61736e-11
0.0025
1.58541e-11
0.0025
1.55064e-11
0.0025
1.51397e-11
0.0025
1.47645e-11
0.0025
1.43845e-11
0.0025
1.4006e-11
0.0025
1.36298e-11
0.0025
1.32603e-11
0.0025
1.28967e-11
0.0025
1.25421e-11
0.0025
1.21949e-11
0.0025
1.18577e-11
0.0025
1.15284e-11
0.0025
1.12093e-11
0.0025
1.0898e-11
0.0025
1.05968e-11
0.0025
1.03029e-11
0.0025
1.00187e-11
0.0025
9.74141e-12
0.0025
9.47321e-12
0.0025
9.21148e-12
0.0025
8.95826e-12
0.0025
8.71099e-12
0.0025
8.47168e-12
0.0025
8.2378e-12
0.0025
8.01138e-12
0.0025
7.7899e-12
0.0025
7.57539e-12
0.0025
7.36537e-12
0.0025
7.16187e-12
0.0025
6.96245e-12
0.0025
6.76913e-12
0.0025
6.57953e-12
0.0025
6.39565e-12
0.0025
6.21516e-12
0.0025
6.04005e-12
0.0025
5.86803e-12
0.0025
5.70107e-12
0.0025
5.53694e-12
0.0025
5.3776e-12
0.0025
5.22086e-12
0.0025
5.06865e-12
0.0025
4.91882e-12
0.0025
4.7733e-12
0.0025
4.62998e-12
0.0025
4.49077e-12
0.0025
4.35358e-12
0.0025
4.22031e-12
0.0025
4.08892e-12
0.0025
3.96129e-12
0.0025
3.8354e-12
0.0025
3.71313e-12
0.0025
3.59248e-12
0.0025
3.47532e-12
0.0025
3.35966e-12
0.0025
3.24743e-12
0.0025
3.13657e-12
0.0025
3.02921e-12
0.0025
2.92294e-12
0.0025
2.82069e-12
0.0025
2.7184e-12
0.0025
2.62244e-12
0.0025
2.52202e-12
0.0025
2.4376e-12
0.0025
2.33037e-12
0.0025
2.27621e-12
0.0025
2.12897e-12
0.0025
2.16634e-12
1.86696e-12
0.00250215
-1.76754e-05
0.0025087
-5.34026e-05
0.00252033
-9.21856e-05
0.00253815
-0.000135516
0.00256366
-0.000184293
0.00259858
-0.000237718
0.0026445
-0.00029306
0.00270145
-0.0003421
0.0027676
-0.000375506
0.00283561
-0.000375735
0.00289569
-0.000333781
0.00294297
-0.000263345
0.00297341
-0.000170153
0.00298306
-5.92688e-05
0.00297073
5.60927e-05
0.00293864
0.000160984
0.00289231
0.000241422
0.00283867
0.0002905
0.00278395
0.000309191
0.00273258
0.000303661
0.00268705
0.000281791
0.0026483
0.000250815
0.00261626
0.000216039
0.00259037
0.00018062
0.00256991
0.000146148
0.00255418
0.000113634
0.00254245
8.43423e-05
0.00253393
5.99401e-05
0.00252775
4.19159e-05
0.00252305
3.07277e-05
0.00251911
2.53726e-05
0.00251547
2.37232e-05
0.00251197
2.34078e-05
0.00250866
2.26679e-05
0.00250567
2.0739e-05
0.00250314
1.76966e-05
0.00250118
1.40327e-05
0.00249981
1.02805e-05
0.00249901
6.83782e-06
0.00249867
3.95184e-06
0.00249868
1.75369e-06
0.0024989
2.75129e-07
0.00249919
-5.49485e-07
0.00249946
-8.66397e-07
0.00249966
-8.6015e-07
0.0024998
-7.02063e-07
0.00249987
-5.13673e-07
0.00249991
-3.57272e-07
0.00249994
-2.48858e-07
0.00249995
-1.79841e-07
0.00249996
-1.35345e-07
0.00249997
-1.03868e-07
0.00249998
-7.9405e-08
0.00249998
-5.97601e-08
0.00249999
-4.42895e-08
0.00249999
-3.25443e-08
0.00249999
-2.38824e-08
0.0025
-1.75706e-08
0.0025
-1.29606e-08
0.0025
-9.56683e-09
0.0025
-7.05421e-09
0.0025
-5.19238e-09
0.0025
-3.81588e-09
0.0025
-2.80088e-09
0.0025
-2.05356e-09
0.0025
-1.50353e-09
0.0025
-1.09868e-09
0.0025
-8.00714e-10
0.0025
-5.81513e-10
0.0025
-4.20367e-10
0.0025
-3.01997e-10
0.0025
-2.15127e-10
0.0025
-1.51442e-10
0.0025
-1.04817e-10
0.0025
-7.07382e-11
0.0025
-4.58845e-11
0.0025
-2.78092e-11
0.0025
-1.4713e-11
0.0025
-5.26973e-12
0.0025
1.49349e-12
0.0025
6.29502e-12
0.0025
9.65996e-12
0.0025
1.19767e-11
0.0025
1.3528e-11
0.0025
1.45239e-11
0.0025
1.51158e-11
0.0025
1.54176e-11
0.0025
1.55097e-11
0.0025
1.54539e-11
0.0025
1.52924e-11
0.0025
1.50589e-11
0.0025
1.47749e-11
0.0025
1.44592e-11
0.0025
1.41222e-11
0.0025
1.37747e-11
0.0025
1.3421e-11
0.0025
1.30678e-11
0.0025
1.27161e-11
0.0025
1.23703e-11
0.0025
1.20297e-11
0.0025
1.16976e-11
0.0025
1.13724e-11
0.0025
1.10567e-11
0.0025
1.07484e-11
0.0025
1.04498e-11
0.0025
1.01586e-11
0.0025
9.87681e-12
0.0025
9.60215e-12
0.0025
9.3365e-12
0.0025
9.0775e-12
0.0025
8.82701e-12
0.0025
8.58266e-12
0.0025
8.3463e-12
0.0025
8.11556e-12
0.0025
7.89228e-12
0.0025
7.67413e-12
0.0025
7.46295e-12
0.0025
7.25645e-12
0.0025
7.05644e-12
0.0025
6.86068e-12
0.0025
6.67099e-12
0.0025
6.48515e-12
0.0025
6.30498e-12
0.0025
6.12832e-12
0.0025
5.95698e-12
0.0025
5.78883e-12
0.0025
5.62568e-12
0.0025
5.46545e-12
0.0025
5.30991e-12
0.0025
5.15704e-12
0.0025
5.00861e-12
0.0025
4.86264e-12
0.0025
4.72087e-12
0.0025
4.58135e-12
0.0025
4.44582e-12
0.0025
4.31236e-12
0.0025
4.18272e-12
0.0025
4.055e-12
0.0025
3.93091e-12
0.0025
3.8086e-12
0.0025
3.68978e-12
0.0025
3.57262e-12
0.0025
3.45881e-12
0.0025
3.34655e-12
0.0025
3.23753e-12
0.0025
3.12997e-12
0.0025
3.02559e-12
0.0025
2.92254e-12
0.0025
2.82278e-12
0.0025
2.72408e-12
0.0025
2.62918e-12
0.0025
2.53428e-12
0.0025
2.44532e-12
0.0025
2.35235e-12
0.0025
2.27377e-12
0.0025
2.1758e-12
0.0025
2.12168e-12
0.0025
1.99411e-12
0.0025
2.00593e-12
1.7649e-12
0.0025019
-1.95786e-05
0.00250773
-5.92338e-05
0.00251827
-0.000102725
0.00253486
-0.0001521
0.00255938
-0.000208815
0.00259425
-0.000272584
0.00264193
-0.000340739
0.00270334
-0.000403519
0.00277733
-0.000449496
0.00285439
-0.000452789
0.00292188
-0.000401271
0.00297497
-0.000316431
0.00300929
-0.000204474
0.00301981
-6.97935e-05
0.00300481
7.10933e-05
0.00296687
0.00019892
0.00291303
0.000295269
0.0028519
0.000351626
0.00279097
0.000370121
0.00273518
0.000359454
0.00268697
0.000329995
0.00264695
0.000290842
0.00261459
0.000248393
0.00258894
0.000206271
0.00256895
0.000166141
0.00255366
0.000128921
0.00254222
9.57825e-05
0.00253379
6.8369e-05
0.00252754
4.81734e-05
0.00252266
3.56051e-05
0.00251852
2.95069e-05
0.00251474
2.75121e-05
0.00251114
2.70006e-05
0.00250778
2.60303e-05
0.00250477
2.37481e-05
0.00250225
2.02191e-05
0.00250031
1.59694e-05
0.002499
1.15875e-05
0.0024983
7.53764e-06
0.00249812
4.13696e-06
0.0024983
1.57276e-06
0.00249868
-1.00048e-07
0.00249909
-9.65544e-07
0.00249945
-1.22009e-06
0.00249969
-1.10774e-06
0.00249984
-8.47332e-07
0.00249991
-5.85257e-07
0.00249994
-3.87607e-07
0.00249995
-2.61933e-07
0.00249996
-1.88313e-07
0.00249997
-1.43393e-07
0.00249998
-1.11547e-07
0.00249998
-8.58364e-08
0.00249999
-6.45211e-08
0.00249999
-4.75477e-08
0.00249999
-3.47282e-08
0.0025
-2.539e-08
0.0025
-1.86617e-08
0.0025
-1.37741e-08
0.0025
-1.01757e-08
0.0025
-7.50539e-09
0.0025
-5.52333e-09
0.0025
-4.05769e-09
0.0025
-2.97787e-09
0.0025
-2.1836e-09
0.0025
-1.59936e-09
0.0025
-1.16939e-09
0.0025
-8.52941e-10
0.0025
-6.20138e-10
0.0025
-4.49005e-10
0.0025
-3.23311e-10
0.0025
-2.31074e-10
0.0025
-1.63456e-10
0.0025
-1.13948e-10
0.0025
-7.7758e-11
0.0025
-5.13579e-11
0.0025
-3.21501e-11
0.0025
-1.82239e-11
0.0025
-8.17216e-12
0.0025
-9.61144e-13
0.0025
4.17004e-12
0.0025
7.77987e-12
0.0025
1.02794e-11
0.0025
1.19688e-11
0.0025
1.30704e-11
0.0025
1.3745e-11
0.0025
1.41126e-11
0.0025
1.42587e-11
0.0025
1.42482e-11
0.0025
1.41261e-11
0.0025
1.39275e-11
0.0025
1.36755e-11
0.0025
1.33894e-11
0.0025
1.30806e-11
0.0025
1.27598e-11
0.0025
1.24322e-11
0.0025
1.21039e-11
0.0025
1.17769e-11
0.0025
1.14549e-11
0.0025
1.11379e-11
0.0025
1.08287e-11
0.0025
1.05261e-11
0.0025
1.02323e-11
0.0025
9.94568e-12
0.0025
9.66804e-12
0.0025
9.39757e-12
0.0025
9.13586e-12
0.0025
8.88099e-12
0.0025
8.63446e-12
0.0025
8.39432e-12
0.0025
8.16203e-12
0.0025
7.93564e-12
0.0025
7.7166e-12
0.0025
7.50293e-12
0.0025
7.29614e-12
0.0025
7.09424e-12
0.0025
6.89874e-12
0.0025
6.70769e-12
0.0025
6.5226e-12
0.0025
6.34154e-12
0.0025
6.16604e-12
0.0025
5.9942e-12
0.0025
5.82755e-12
0.0025
5.66423e-12
0.0025
5.50578e-12
0.0025
5.35035e-12
0.0025
5.1995e-12
0.0025
5.05139e-12
0.0025
4.9076e-12
0.0025
4.76632e-12
0.0025
4.62912e-12
0.0025
4.49422e-12
0.0025
4.36318e-12
0.0025
4.23426e-12
0.0025
4.109e-12
0.0025
3.9857e-12
0.0025
3.8659e-12
0.0025
3.7479e-12
0.0025
3.63325e-12
0.0025
3.52027e-12
0.0025
3.4105e-12
0.0025
3.3023e-12
0.0025
3.1972e-12
0.0025
3.09355e-12
0.0025
2.99291e-12
0.0025
2.89364e-12
0.0025
2.79734e-12
0.0025
2.7023e-12
0.0025
2.61034e-12
0.0025
2.51939e-12
0.0025
2.43202e-12
0.0025
2.34469e-12
0.0025
2.26286e-12
0.0025
2.17757e-12
0.0025
2.10488e-12
0.0025
2.01623e-12
0.0025
1.96311e-12
0.0025
1.85312e-12
0.0025
1.84797e-12
1.65268e-12
0.00250159
-2.11688e-05
0.0025065
-6.41469e-05
0.00251561
-0.000111837
0.00253049
-0.000166976
0.00255346
-0.000231779
0.00258775
-0.00030688
0.00263702
-0.000390008
0.00270359
-0.000470084
0.00278748
-0.000533385
0.00287597
-0.000541289
0.00295243
-0.000477724
0.00301248
-0.000376486
0.00305159
-0.00024358
0.00306322
-8.14262e-05
0.00304489
8.94258e-05
0.00299965
0.00024416
0.00293647
0.000358446
0.00286621
0.000421886
0.00279789
0.000438447
0.002737
0.000420337
0.00268587
0.000381122
0.0026446
0.000332112
0.00261212
0.000280877
0.00258694
0.000231448
0.00256763
0.000185451
0.00255296
0.000143591
0.00254192
0.000106827
0.00253362
7.66661e-05
0.00252728
5.45161e-05
0.0025222
4.06878e-05
0.00251784
3.38661e-05
0.00251387
3.1478e-05
0.00251017
3.07014e-05
0.00250676
2.94459e-05
0.00250372
2.67797e-05
0.0025012
2.27452e-05
0.00249928
1.78826e-05
0.00249805
1.28241e-05
0.00249748
8.10706e-06
0.00249748
4.13827e-06
0.00249787
1.18272e-06
0.00249844
-6.71812e-07
0.00249901
-1.53438e-06
0.00249946
-1.66901e-06
0.00249975
-1.39781e-06
0.0024999
-9.98682e-07
0.00249996
-6.45046e-07
0.00249997
-4.02242e-07
0.00249997
-2.62565e-07
0.00249997
-1.89243e-07
0.00249998
-1.476e-07
0.00249998
-1.17299e-07
0.00249999
-9.10158e-08
0.00249999
-6.81887e-08
0.0025
-4.97995e-08
0.0025
-3.60595e-08
0.0025
-2.62414e-08
0.0025
-1.92783e-08
0.0025
-1.42514e-08
0.0025
-1.05431e-08
0.0025
-7.77905e-09
0.0025
-5.72187e-09
0.0025
-4.20067e-09
0.0025
-3.08157e-09
0.0025
-2.25962e-09
0.0025
-1.65546e-09
0.0025
-1.21088e-09
0.0025
-8.83643e-10
0.0025
-6.42902e-10
0.0025
-4.65958e-10
0.0025
-3.36023e-10
0.0025
-2.40693e-10
0.0025
-1.70816e-10
0.0025
-1.1966e-10
0.0025
-8.22661e-11
0.0025
-5.4988e-11
0.0025
-3.51398e-11
0.0025
-2.07456e-11
0.0025
-1.03515e-11
0.0025
-2.8887e-12
0.0025
2.42857e-12
0.0025
6.17794e-12
0.0025
8.78282e-12
0.0025
1.05536e-11
0.0025
1.17193e-11
0.0025
1.24461e-11
0.0025
1.28573e-11
0.0025
1.30412e-11
0.0025
1.30643e-11
0.0025
1.29731e-11
0.0025
1.28032e-11
0.0025
1.25788e-11
0.0025
1.23191e-11
0.0025
1.20362e-11
0.0025
1.17406e-11
0.0025
1.14379e-11
0.0025
1.1134e-11
0.0025
1.08311e-11
0.0025
1.05328e-11
0.0025
1.02392e-11
0.0025
9.95283e-12
0.0025
9.67286e-12
0.0025
9.40108e-12
0.0025
9.13622e-12
0.0025
8.87974e-12
0.0025
8.63012e-12
0.0025
8.38866e-12
0.0025
8.1537e-12
0.0025
7.92651e-12
0.0025
7.70536e-12
0.0025
7.4915e-12
0.0025
7.28319e-12
0.0025
7.08167e-12
0.0025
6.88522e-12
0.0025
6.69509e-12
0.0025
6.50957e-12
0.0025
6.32991e-12
0.0025
6.15443e-12
0.0025
5.98441e-12
0.0025
5.81817e-12
0.0025
5.65701e-12
0.0025
5.49928e-12
0.0025
5.34629e-12
0.0025
5.19642e-12
0.0025
5.05097e-12
0.0025
4.90837e-12
0.0025
4.76992e-12
0.0025
4.63406e-12
0.0025
4.5021e-12
0.0025
4.37252e-12
0.0025
4.24663e-12
0.0025
4.1229e-12
0.0025
4.00267e-12
0.0025
3.88444e-12
0.0025
3.76954e-12
0.0025
3.65647e-12
0.0025
3.54657e-12
0.0025
3.43838e-12
0.0025
3.33323e-12
0.0025
3.22967e-12
0.0025
3.12901e-12
0.0025
3.02985e-12
0.0025
2.93349e-12
0.0025
2.83854e-12
0.0025
2.74632e-12
0.0025