/*--------------------------------*- C++ -*----------------------------------*\
  =========                 |
  \\      /  F ield         | OpenFOAM: The Open Source CFD Toolbox
   \\    /   O peration     | Website:  https://openfoam.org
    \\  /    A nd           | Version:  11
     \\/     M anipulation  |
\*---------------------------------------------------------------------------*/
FoamFile
{
    format      ascii;
    class       volVectorField;
    location    "1.460428";
    object      U_0;
}
// * * * * * * * * * * * * * * * * * * * * * * * * * * * * * * * * * * * * * //

dimensions      [0 1 -1 0 0 0 0];

internalField   nonuniform List<vector> 
7132
(
(1.00014 -0.000273749 2.30286e-18)
(1.00212 -0.000823322 7.71668e-18)
(1.0066 -0.00140066 8.04066e-18)
(1.01337 -0.00201309 9.75335e-18)
(1.02268 -0.00265799 1.22893e-17)
(1.03463 -0.00330767 1.28256e-17)
(1.04916 -0.00391282 1.23351e-17)
(1.06598 -0.00438342 1.15867e-17)
(1.08433 -0.00462115 1.09772e-17)
(1.10309 -0.00452164 1.05532e-17)
(1.12067 -0.00402123 1.01218e-17)
(1.13546 -0.0031775 1.00737e-17)
(1.14624 -0.0020645 9.85312e-18)
(1.15209 -0.000774896 1.06278e-17)
(1.15252 0.000553377 3.1309e-18)
(1.14767 0.00177516 -4.85005e-18)
(1.13828 0.00276227 -1.31812e-17)
(1.12552 0.0034381 -1.22304e-17)
(1.11072 0.00378943 -1.60378e-17)
(1.09516 0.00385452 -1.89828e-17)
(1.07987 0.00369984 -1.67571e-17)
(1.06557 0.00339691 -1.49764e-17)
(1.05272 0.00300527 -1.38011e-17)
(1.04156 0.00256574 -1.21439e-17)
(1.03223 0.00210483 -7.7013e-18)
(1.02475 0.00164575 -5.2058e-18)
(1.01907 0.00121759 -2.6517e-18)
(1.01501 0.000854775 -8.32202e-19)
(1.01223 0.000586203 2.9918e-19)
(1.01031 0.000421799 1.1302e-18)
(1.00885 0.000346677 8.15843e-19)
(1.00754 0.000327615 -6.79357e-19)
(1.00623 0.000327689 -2.26693e-18)
(1.00492 0.000320002 -2.73296e-18)
(1.00367 0.000293584 -3.26853e-18)
(1.00256 0.000250671 -3.15001e-18)
(1.00166 0.000199664 -3.09716e-18)
(1.00096 0.000148861 -2.2476e-18)
(1.00046 0.000103561 -2.74662e-19)
(1.00012 6.6112e-05 1.13718e-18)
(0.99992 3.70855e-05 2.24866e-18)
(0.99982 1.61988e-05 2.12304e-18)
(0.999788 2.63736e-06 1.83559e-18)
(0.999797 -4.88615e-06 2.0605e-18)
(0.999826 -7.99424e-06 1.68776e-18)
(0.999861 -8.3462e-06 1.41529e-18)
(0.999892 -7.32935e-06 4.95331e-19)
(0.999919 -5.88632e-06 -3.3735e-20)
(0.999939 -4.51916e-06 4.44019e-19)
(0.999954 -3.40972e-06 9.50199e-20)
(0.999966 -2.56633e-06 -1.17718e-18)
(0.999975 -1.93508e-06 -1.52249e-18)
(0.999981 -1.45876e-06 -9.30352e-19)
(0.999986 -1.0956e-06 -7.89148e-19)
(0.99999 -8.18229e-07 -6.59983e-19)
(0.999992 -6.07815e-07 -1.19943e-18)
(0.999995 -4.49778e-07 -1.38997e-18)
(0.999996 -3.3208e-07 -7.63044e-19)
(0.999997 -2.44855e-07 -6.03802e-19)
(0.999998 -1.80336e-07 -4.55999e-19)
(0.999999 -1.32631e-07 -1.00829e-18)
(0.999999 -9.73684e-08 -1.12147e-18)
(0.999999 -7.13198e-08 -9.36201e-19)
(1 -5.20961e-08 -1.5951e-18)
(1 -3.79235e-08 -1.09285e-18)
(1 -2.74834e-08 -8.62928e-19)
(1 -1.97988e-08 -7.98072e-19)
(1 -1.41462e-08 -5.93419e-19)
(1 -9.99203e-09 -1.27497e-18)
(1 -6.94198e-09 -8.04007e-19)
(1 -4.70571e-09 -5.98326e-19)
(1 -3.06861e-09 -5.38023e-19)
(1 -1.87295e-09 -3.09778e-19)
(1 -1.002e-09 -9.40583e-19)
(1 -3.70274e-10 -4.05189e-19)
(1 8.56009e-11 -1.44147e-19)
(1 4.12461e-10 -6.06678e-20)
(1 6.44215e-10 1.45299e-19)
(1 8.06032e-10 -5.51035e-19)
(1 9.16748e-10 -1.08587e-19)
(1 9.89789e-10 5.39017e-20)
(1 1.03545e-09 5.25391e-20)
(1 1.06091e-09 1.99217e-19)
(1 1.07184e-09 -5.27011e-19)
(1 1.07207e-09 -8.73703e-20)
(1 1.06473e-09 9.25374e-20)
(1 1.05185e-09 1.18034e-19)
(1 1.03517e-09 2.87893e-19)
(1 1.01577e-09 -4.30678e-19)
(1 9.94601e-10 -7.33542e-21)
(1 9.72247e-10 1.57076e-19)
(1 9.4921e-10 4.14893e-20)
(1 9.25832e-10 7.65742e-19)
(1 9.02348e-10 3.23169e-19)
(1 8.78993e-10 2.33337e-19)
(1 8.55831e-10 2.76462e-19)
(1 8.33058e-10 1.20915e-19)
(1 8.10622e-10 8.22084e-19)
(1 7.88719e-10 3.59679e-19)
(1 7.67211e-10 2.51408e-19)
(1 7.46315e-10 2.7837e-19)
(1 7.25825e-10 1.0977e-19)
(1 7.05992e-10 8.01066e-19)
(1 6.86546e-10 3.31491e-19)
(1 6.67775e-10 2.18182e-19)
(1 6.49356e-10 2.41788e-19)
(1 6.31619e-10 7.11366e-20)
(1 6.14192e-10 7.61315e-19)
(1 5.97441e-10 2.91312e-19)
(1 5.80954e-10 1.78464e-19)
(1 5.65135e-10 2.04111e-19)
(1 5.49532e-10 3.7362e-20)
(1 5.34588e-10 7.31368e-19)
(1 5.19812e-10 2.59503e-19)
(1 5.05682e-10 1.30989e-19)
(1 4.91677e-10 1.20499e-19)
(1 4.78307e-10 -9.94536e-20)
(1 4.65019e-10 5.28649e-19)
(1 4.52355e-10 3.73306e-20)
(1 4.39728e-10 -2.25594e-19)
(1 4.27717e-10 3.60457e-19)
(1 4.15708e-10 4.57363e-19)
(1 4.04303e-10 5.80464e-19)
(1 3.92867e-10 1.58458e-20)
(1 3.82025e-10 -2.39581e-19)
(1 3.71121e-10 3.53527e-19)
(1 3.60804e-10 4.45671e-19)
(1 3.50395e-10 5.58257e-19)
(1 3.40567e-10 -1.5489e-20)
(1 3.30619e-10 -2.75353e-19)
(1 3.21248e-10 3.17626e-19)
(1 3.11735e-10 4.11897e-19)
(1 3.02793e-10 5.2698e-19)
(1 2.93686e-10 -4.48423e-20)
(1 2.85144e-10 -3.03492e-19)
(1 2.76418e-10 2.90246e-19)
(1 2.68255e-10 3.85208e-19)
(1 2.5989e-10 5.0143e-19)
(1 2.52082e-10 -6.83034e-20)
(1 2.44057e-10 -3.24046e-19)
(1 2.36587e-10 2.71668e-19)
(1 2.28882e-10 3.63914e-19)
(1 2.21729e-10 4.68239e-19)
(1 2.14331e-10 -1.24769e-19)
(1 2.07481e-10 -4.12003e-19)
(1 2.00374e-10 1.53075e-19)
(1 1.93811e-10 2.27205e-19)
(1 1.86978e-10 3.34392e-19)
(1 1.80686e-10 -2.34261e-19)
(1 1.74112e-10 -4.83603e-19)
(1 1.68086e-10 1.2056e-19)
(1 1.6175e-10 2.24238e-19)
(1 1.56025e-10 3.46671e-19)
(1 1.4984e-10 -2.19461e-19)
(1 1.44693e-10 -4.73066e-19)
(1 1.3804e-10 1.23472e-19)
(1 1.35381e-10 2.2993e-19)
(1 1.23936e-10 3.18017e-19)
(1 1.36062e-10 -9.47838e-20)
(1 1.00542e-10 -1.06125e-18)
(1.00014 -0.000818813 3.37095e-20)
(1.0021 -0.00246398 3.77153e-19)
(1.00655 -0.00419394 7.49454e-19)
(1.01329 -0.00603324 1.13256e-18)
(1.02258 -0.0079752 1.5918e-18)
(1.03455 -0.00993797 2.05779e-18)
(1.04918 -0.0117742 2.42257e-18)
(1.06618 -0.0132101 2.71333e-18)
(1.08483 -0.0139463 5.44109e-18)
(1.10396 -0.0136583 5.57699e-18)
(1.12192 -0.0121488 4.53712e-18)
(1.13702 -0.00960075 9.26882e-18)
(1.14803 -0.00623868 9.18069e-18)
(1.15398 -0.00234176 9.44432e-18)
(1.15437 0.00166906 9.55679e-18)
(1.14935 0.00535194 8.39945e-18)
(1.13968 0.00831835 5.55349e-18)
(1.12659 0.0103398 2.95048e-18)
(1.11147 0.0113816 2.55316e-18)
(1.09565 0.0115634 4.53386e-18)
(1.08016 0.0110882 6.25897e-18)
(1.06573 0.0101722 3.93263e-18)
(1.05281 0.00899489 -2.75887e-18)
(1.04162 0.00767841 -8.84987e-18)
(1.03227 0.00630113 -7.71716e-18)
(1.02479 0.00493071 2.04279e-18)
(1.01911 0.00365216 1.42601e-17)
(1.01504 0.00256713 1.95861e-17)
(1.01226 0.00176202 1.32848e-17)
(1.01033 0.00126753 3.56113e-19)
(1.00887 0.00104053 -1.11412e-17)
(1.00756 0.000982609 -1.63517e-17)
(1.00625 0.000983372 -1.22676e-17)
(1.00494 0.000961746 -5.77172e-18)
(1.00369 0.000884087 -1.46065e-18)
(1.00258 0.000756494 -3.83073e-19)
(1.00167 0.000603895 -3.29094e-18)
(1.00097 0.000451227 -4.80887e-18)
(1.00046 0.000314611 -4.30144e-18)
(1.00012 0.000201344 -1.9475e-18)
(0.99992 0.00011336 1.03283e-18)
(0.999821 4.99538e-05 1.25538e-18)
(0.999791 8.74874e-06 1.36301e-18)
(0.999801 -1.41283e-05 1.01135e-18)
(0.999831 -2.35961e-05 9.97128e-19)
(0.999865 -2.47039e-05 1.51668e-18)
(0.999897 -2.1674e-05 2.07338e-19)
(0.999922 -1.73696e-05 -2.15555e-19)
(0.999942 -1.33071e-05 -1.70843e-19)
(0.999956 -1.0027e-05 -8.43747e-19)
(0.999967 -7.54483e-06 -3.68833e-19)
(0.999976 -5.69204e-06 -2.71649e-19)
(0.999982 -4.29446e-06 -3.04758e-19)
(0.999987 -3.22761e-06 -2.02351e-19)
(0.99999 -2.41153e-06 -9.01647e-19)
(0.999993 -1.79178e-06 -4.36609e-19)
(0.999995 -1.3261e-06 -3.28149e-19)
(0.999996 -9.79276e-07 -3.32284e-19)
(0.999997 -7.2227e-07 -1.95199e-19)
(0.999998 -5.32164e-07 -8.7036e-19)
(0.999999 -3.91583e-07 -3.91081e-19)
(0.999999 -2.87646e-07 -3.23284e-19)
(0.999999 -2.10853e-07 -1.83789e-19)
(1 -1.54171e-07 -8.22116e-19)
(1 -1.12377e-07 -6.47711e-19)
(1 -8.15858e-08 7.94488e-19)
(1 -5.8918e-08 -1.7633e-19)
(1 -4.22415e-08 -2.50704e-19)
(1 -2.99828e-08 -9.13526e-19)
(1 -2.09798e-08 -7.25059e-19)
(1 -1.43763e-08 7.41037e-19)
(1 -9.53993e-09 -1.9443e-19)
(1 -6.00512e-09 -2.16917e-19)
(1 -3.42804e-09 -8.13018e-19)
(1 -1.55609e-09 -5.54347e-19)
(1 -2.02733e-10 9.67852e-19)
(1 7.69683e-10 5.83192e-20)
(1 1.4619e-09 2.47276e-20)
(1 1.94812e-09 -6.14182e-19)
(1 2.28349e-09 -4.15624e-19)
(1 2.50798e-09 1.04579e-18)
(1 2.65157e-09 8.73946e-20)
(1 2.7358e-09 2.2848e-20)
(1 2.77701e-09 -6.28672e-19)
(1 2.7868e-09 -4.27366e-19)
(1 2.77409e-09 1.04717e-18)
(1 2.74511e-09 1.04674e-19)
(1 2.70475e-09 5.26848e-20)
(1 2.65635e-09 -6.05887e-19)
(1 2.60256e-09 -3.92736e-19)
(1 2.54521e-09 9.4833e-19)
(1 2.48568e-09 4.19002e-19)
(1 2.42501e-09 8.55702e-19)
(1 2.3639e-09 8.73778e-19)
(1 2.30297e-09 7.69585e-19)
(1 2.24249e-09 8.22749e-19)
(1 2.18292e-09 6.83277e-20)
(1 2.12426e-09 5.17024e-19)
(1 2.06689e-09 5.86905e-19)
(1 2.01063e-09 5.31393e-19)
(1 1.95586e-09 6.24011e-19)
(1 1.90227e-09 -9.8882e-20)
(1 1.85024e-09 3.75214e-19)
(1 1.79939e-09 4.65622e-19)
(1 1.75014e-09 4.26712e-19)
(1 1.70199e-09 5.32844e-19)
(1 1.65543e-09 -1.78957e-19)
(1 1.6099e-09 3.0423e-19)
(1 1.5659e-09 4.0205e-19)
(1 1.52285e-09 3.69521e-19)
(1 1.48128e-09 4.82223e-19)
(1 1.44055e-09 -2.2173e-19)
(1 1.40127e-09 2.69749e-19)
(1 1.36272e-09 3.71745e-19)
(1 1.32555e-09 3.3149e-19)
(1 1.28903e-09 4.17016e-19)
(1 1.25384e-09 -3.32563e-19)
(1 1.2192e-09 9.75919e-20)
(1 1.18585e-09 1.76461e-19)
(1 1.15295e-09 2.77887e-21)
(1 1.1213e-09 6.59666e-19)
(1 1.09002e-09 1.84865e-19)
(1 1.05995e-09 1.0065e-19)
(1 1.03018e-09 1.13163e-19)
(1 1.00157e-09 -4.10832e-20)
(1 9.73194e-10 6.34669e-19)
(1 9.45949e-10 1.64667e-19)
(1 9.18879e-10 7.67108e-20)
(1 8.92905e-10 8.44227e-20)
(1 8.67052e-10 -7.16711e-20)
(1 8.42266e-10 6.05485e-19)
(1 8.17552e-10 1.3855e-19)
(1 7.93881e-10 5.36742e-20)
(1 7.70233e-10 6.36348e-20)
(1 7.47606e-10 -9.11303e-20)
(1 7.24964e-10 5.8672e-19)
(1 7.03322e-10 1.2025e-19)
(1 6.81626e-10 3.6115e-20)
(1 6.6091e-10 4.7591e-20)
(1 6.40107e-10 -1.04945e-19)
(1 6.20269e-10 5.74345e-19)
(1 6.00312e-10 1.05188e-19)
(1 5.81301e-10 1.01687e-20)
(1 5.62146e-10 4.68032e-22)
(1 5.43924e-10 -1.80859e-19)
(1 5.25532e-10 4.70088e-19)
(1 5.0806e-10 -1.64192e-20)
(1 4.90391e-10 -1.0997e-19)
(1 4.73636e-10 -9.86407e-20)
(1 4.56649e-10 -2.46328e-19)
(1 4.40605e-10 4.3979e-19)
(1 4.24229e-10 -1.98117e-20)
(1 4.09011e-10 -9.92311e-20)
(1 3.92965e-10 -8.52993e-20)
(1 3.79361e-10 -2.36687e-19)
(1 3.61935e-10 4.42693e-19)
(1 3.54992e-10 -1.49059e-20)
(1 3.25382e-10 -1.23679e-19)
(1 3.55064e-10 2.31887e-20)
(1 2.68694e-10 -7.62066e-19)
(1.00013 -0.00135713 5.14561e-22)
(1.00207 -0.00408594 6.08901e-21)
(1.00645 -0.00696246 3.07462e-21)
(1.01312 -0.0100338 1.77891e-21)
(1.02237 -0.013294 -9.51791e-20)
(1.03437 -0.0166111 1.80849e-20)
(1.04919 -0.0197417 -3.39166e-19)
(1.06656 -0.0222166 -1.04104e-18)
(1.08579 -0.0235223 1.19765e-18)
(1.10569 -0.0230778 1.47429e-18)
(1.12441 -0.0205313 -5.31586e-18)
(1.14013 -0.0162232 -9.00291e-18)
(1.15159 -0.0105331 -2.91077e-18)
(1.15775 -0.00392405 5.95786e-18)
(1.15805 0.00288551 1.15117e-17)
(1.15266 0.00913532 1.23009e-17)
(1.14241 0.0141518 7.13415e-18)
(1.12864 0.0175427 3.1085e-19)
(1.11287 0.0192557 1.29789e-18)
(1.0965 0.019507 1.38588e-17)
(1.08061 0.0186522 2.58758e-17)
(1.06592 0.0170663 1.70735e-17)
(1.05286 0.0150564 -1.65509e-17)
(1.04162 0.0128297 -4.76544e-17)
(1.03227 0.0105161 -3.62622e-17)
(1.0248 0.00822467 2.84465e-17)
(1.01913 0.0060924 1.06037e-16)
(1.01506 0.0042843 1.3265e-16)
(1.01227 0.0029417 7.76227e-17)
(1.01033 0.00211525 -2.63694e-17)
(1.00885 0.00173403 -1.10575e-16)
(1.00754 0.00163534 -1.26943e-16)
(1.00623 0.00163606 -8.0325e-17)
(1.00491 0.00160101 -1.46367e-17)
(1.00366 0.0014734 2.69984e-17)
(1.00255 0.00126246 3.05239e-17)
(1.00163 0.00100901 9.81234e-18)
(1.00093 0.000754367 -1.22406e-17)
(1.00042 0.000525601 -2.18334e-17)
(1.00009 0.000335391 -1.87289e-17)
(0.999895 0.00018752 -9.98099e-18)
(0.999804 8.1194e-05 -2.42233e-18)
(0.999783 1.25384e-05 1.45458e-18)
(0.999801 -2.50675e-05 2.32671e-18)
(0.999835 -4.01153e-05 1.81997e-18)
(0.999871 -4.12877e-05 1.13934e-18)
(0.999903 -3.57776e-05 5.0843e-19)
(0.999928 -2.83866e-05 4.1169e-20)
(0.999946 -2.1587e-05 -1.70906e-19)
(0.99996 -1.61961e-05 -4.13415e-19)
(0.99997 -1.21689e-05 1.31121e-19)
(0.999977 -9.18308e-06 3.77496e-19)
(0.999983 -6.93347e-06 -1.82675e-19)
(0.999988 -5.2131e-06 -2.50015e-19)
(0.999991 -3.89453e-06 -4.23271e-19)
(0.999993 -2.89244e-06 1.1557e-19)
(0.999995 -2.13984e-06 3.44258e-19)
(0.999996 -1.57992e-06 -2.07615e-19)
(0.999997 -1.16541e-06 -2.45998e-19)
(0.999998 -8.58963e-07 -4.03507e-19)
(0.999999 -6.32384e-07 1.53658e-19)
(0.999999 -4.64858e-07 2.40757e-19)
(0.999999 -3.41074e-07 2.18064e-19)
(0.999999 -2.49708e-07 2.79754e-19)
(1 -1.82338e-07 -4.79276e-19)
(1 -1.32704e-07 9.46621e-20)
(1 -9.61603e-08 2.2279e-19)
(1 -6.92705e-08 2.14033e-19)
(1 -4.94987e-08 2.72296e-19)
(1 -3.49728e-08 -4.96272e-19)
(1 -2.43129e-08 7.19447e-20)
(1 -1.65004e-08 2.0608e-19)
(1 -1.07848e-08 2.18159e-19)
(1 -6.61253e-09 3.08014e-19)
(1 -3.57608e-09 -4.28716e-19)
(1 -1.37488e-09 1.59128e-19)
(1 2.11916e-10 2.92504e-19)
(1 1.34753e-09 2.83763e-19)
(1 2.15155e-09 3.41094e-19)
(1 2.71244e-09 -4.28299e-19)
(1 3.09492e-09 1.35735e-19)
(1 3.34696e-09 2.57299e-19)
(1 3.5035e-09 2.46703e-19)
(1 3.59059e-09 3.07933e-19)
(1 3.6271e-09 -4.55726e-19)
(1 3.62715e-09 1.13244e-19)
(1 3.60095e-09 2.34752e-19)
(1 3.55614e-09 2.23477e-19)
(1 3.49823e-09 2.48166e-19)
(1 3.43134e-09 -4.17909e-19)
(1 3.35845e-09 -4.36068e-19)
(1 3.28174e-09 -3.76754e-19)
(1 3.20289e-09 -2.59487e-19)
(1 3.12297e-09 -1.35928e-19)
(1 3.04297e-09 -3.9026e-20)
(1 2.96337e-09 6.51985e-20)
(1 2.88478e-09 7.15553e-20)
(1 2.80734e-09 9.9943e-20)
(1 2.73149e-09 1.37818e-19)
(1 2.65714e-09 1.6254e-19)
(1 2.58464e-09 2.09802e-19)
(1 2.51379e-09 1.7297e-19)
(1 2.44491e-09 1.69278e-19)
(1 2.37769e-09 1.83441e-19)
(1 2.31246e-09 1.9063e-19)
(1 2.24884e-09 2.2501e-19)
(1 2.18717e-09 1.78818e-19)
(1 2.12702e-09 1.68282e-19)
(1 2.06876e-09 1.7727e-19)
(1 2.0119e-09 1.80711e-19)
(1 1.95685e-09 2.13554e-19)
(1 1.90309e-09 1.69395e-19)
(1 1.85106e-09 1.64585e-19)
(1 1.80019e-09 1.79578e-19)
(1 1.75097e-09 1.81815e-19)
(1 1.70279e-09 1.97443e-19)
(1 1.65618e-09 1.1667e-19)
(1 1.61051e-09 5.94817e-20)
(1 1.56632e-09 3.00934e-20)
(1 1.52297e-09 -1.26606e-20)
(1 1.48102e-09 3.84249e-20)
(1 1.43982e-09 6.48469e-20)
(1 1.39996e-09 7.5227e-20)
(1 1.36075e-09 8.69086e-20)
(1 1.32282e-09 6.42625e-20)
(1 1.28547e-09 1.16321e-19)
(1 1.24934e-09 1.29909e-19)
(1 1.21372e-09 1.21716e-19)
(1 1.17927e-09 1.16153e-19)
(1 1.14526e-09 8.11812e-20)
(1 1.11238e-09 1.25979e-19)
(1 1.07988e-09 1.35681e-19)
(1 1.04846e-09 1.25133e-19)
(1 1.01738e-09 1.17623e-19)
(1 9.87341e-10 8.07334e-20)
(1 9.57587e-10 1.23669e-19)
(1 9.28848e-10 1.31755e-19)
(1 9.00349e-10 1.20154e-19)
(1 8.72833e-10 1.12509e-19)
(1 8.45517e-10 7.6318e-20)
(1 8.19158e-10 1.19485e-19)
(1 7.92964e-10 1.24433e-19)
(1 7.67702e-10 1.02751e-19)
(1 7.42571e-10 7.61499e-20)
(1 7.18349e-10 1.43185e-20)
(1 6.9423e-10 3.20594e-20)
(1 6.71003e-10 2.09595e-20)
(1 6.47847e-10 -4.74909e-22)
(1 6.25578e-10 -9.69778e-21)
(1 6.03326e-10 -4.28975e-20)
(1 5.82018e-10 5.16117e-21)
(1 5.60563e-10 1.74943e-20)
(1 5.40404e-10 8.54703e-21)
(1 5.19322e-10 1.83781e-21)
(1 5.01436e-10 -3.45303e-20)
(1 4.78411e-10 8.34765e-21)
(1 4.69246e-10 1.91875e-20)
(1 4.31263e-10 1.85867e-21)
(1 4.64759e-10 1.93221e-20)
(1 3.61799e-10 -8.22689e-20)
(1.00013 -0.00188392 -3.02264e-20)
(1.00201 -0.0056749 -4.71476e-19)
(1.00628 -0.0096871 -9.0113e-19)
(1.01283 -0.0139975 -1.56204e-18)
(1.02201 -0.0186102 -2.16887e-18)
(1.03406 -0.0233505 -2.14293e-18)
(1.04912 -0.0278829 -6.90036e-18)
(1.06706 -0.0315243 2.8012e-18)
(1.08718 -0.033525 3.57717e-18)
(1.10827 -0.0329793 -3.62243e-17)
(1.12817 -0.0293461 -3.00095e-17)
(1.14484 -0.0231844 6.71947e-17)
(1.15699 -0.0150382 1.28311e-16)
(1.16348 -0.00555264 1.0427e-16)
(1.16365 0.00422455 5.40502e-17)
(1.15769 0.0131806 2.89546e-17)
(1.14652 0.0203255 2.57198e-17)
(1.1317 0.0250957 2.1305e-17)
(1.11492 0.0274362 1.07719e-17)
(1.09771 0.0276834 5.83586e-18)
(1.08121 0.0263686 -2.46633e-18)
(1.06613 0.024041 -5.14825e-17)
(1.05286 0.0211448 -1.46958e-16)
(1.04155 0.0179746 -2.03603e-16)
(1.03219 0.0147102 -9.62244e-17)
(1.02476 0.0114979 1.89424e-16)
(1.01912 0.00852039 4.72819e-16)
(1.01506 0.00600006 4.98153e-16)
(1.01225 0.00412873 1.72311e-16)
(1.0103 0.00297483 -3.20502e-16)
(1.00879 0.00243972 -6.60216e-16)
(1.00745 0.002298 -6.47178e-16)
(1.00613 0.00229567 -3.35521e-16)
(1.0048 0.0022448 3.8555e-17)
(1.00355 0.0020658 2.5948e-16)
(1.00244 0.00177061 2.63369e-16)
(1.00152 0.00141524 1.26836e-16)
(1.00082 0.00105695 -2.39678e-17)
(1.00033 0.000733861 -1.11184e-16)
(1.00001 0.000464601 -1.24005e-16)
(0.999832 0.000255465 -9.19396e-17)
(0.999762 0.000105971 -5.05396e-17)
(0.999759 1.07101e-05 -1.61979e-17)
(0.999791 -4.00848e-05 4.49065e-18)
(0.999835 -5.90102e-05 1.31151e-17)
(0.999876 -5.88155e-05 1.3403e-17)
(0.99991 -4.98748e-05 7.46171e-18)
(0.999934 -3.8924e-05 1.95159e-18)
(0.999951 -2.92598e-05 -1.27364e-18)
(0.999964 -2.18162e-05 -2.91562e-18)
(0.999973 -1.63638e-05 -1.80057e-18)
(0.99998 -1.2359e-05 -6.42989e-19)
(0.999985 -9.34331e-06 5.89908e-21)
(0.999989 -7.02876e-06 3.56669e-19)
(0.999992 -5.24912e-06 -4.01869e-19)
(0.999994 -3.89541e-06 2.37783e-20)
(0.999995 -2.8798e-06 1.83706e-19)
(0.999997 -2.12557e-06 2.063e-19)
(0.999998 -1.56802e-06 3.70036e-19)
(0.999998 -1.15611e-06 -3.59728e-19)
(0.999999 -8.51584e-07 1.20913e-19)
(0.999999 -6.2639e-07 2.1498e-19)
(0.999999 -4.59976e-07 3.59841e-19)
(0.999999 -3.37141e-07 -2.23034e-19)
(1 -2.46573e-07 -7.18504e-20)
(1 -1.79848e-07 1.38568e-18)
(1 -1.30717e-07 4.18074e-19)
(1 -9.45596e-08 3.15771e-19)
(1 -6.79672e-08 -3.22679e-19)
(1 -4.84243e-08 -1.82998e-19)
(1 -3.40762e-08 1.27662e-18)
(1 -2.35544e-08 3.21062e-19)
(1 -1.58503e-08 2.39385e-19)
(1 -1.022e-08 -3.75402e-19)
(1 -6.11572e-09 -2.17968e-19)
(1 -3.13359e-09 1.24565e-18)
(1 -9.76888e-10 2.7846e-19)
(1 5.73667e-10 1.75404e-19)
(1 1.67891e-09 -4.59778e-19)
(1 2.45757e-09 -3.12019e-19)
(1 2.99668e-09 1.15642e-18)
(1 3.36056e-09 2.05203e-19)
(1 3.59623e-09 1.21901e-19)
(1 3.73855e-09 -4.96744e-19)
(1 3.81289e-09 -3.39665e-19)
(1 3.83812e-09 1.13007e-18)
(1 3.82795e-09 1.71267e-19)
(1 3.79254e-09 7.6456e-20)
(1 3.73931e-09 -5.73788e-19)
(1 3.67368e-09 -3.93739e-19)
(1 3.59969e-09 9.11968e-19)
(1 3.5202e-09 3.40861e-19)
(1 3.43742e-09 7.0293e-19)
(1 3.35281e-09 6.65476e-19)
(1 3.26764e-09 5.51387e-19)
(1 3.18256e-09 6.21071e-19)
(1 3.09836e-09 -1.26003e-19)
(1 3.01523e-09 2.86653e-19)
(1 2.93372e-09 3.30178e-19)
(1 2.85377e-09 2.87286e-19)
(1 2.77578e-09 4.14304e-19)
(1 2.69954e-09 -2.86943e-19)
(1 2.62542e-09 1.62331e-19)
(1 2.55308e-09 2.3486e-19)
(1 2.48289e-09 2.14664e-19)
(1 2.41443e-09 3.59329e-19)
(1 2.3481e-09 -3.28259e-19)
(1 2.28339e-09 1.31364e-19)
(1 2.22074e-09 2.1134e-19)
(1 2.15959e-09 1.96426e-19)
(1 2.10042e-09 3.45958e-19)
(1 2.04262e-09 -3.34584e-19)
(1 1.9867e-09 1.36012e-19)
(1 1.93203e-09 2.29138e-19)
(1 1.87914e-09 2.23015e-19)
(1 1.82738e-09 3.67398e-19)
(1 1.77731e-09 -3.37375e-19)
(1 1.72825e-09 8.5825e-20)
(1 1.68079e-09 1.52004e-19)
(1 1.63422e-09 2.62117e-21)
(1 1.58918e-09 6.72952e-19)
(1 1.54493e-09 1.75157e-19)
(1 1.50214e-09 5.07987e-20)
(1 1.46004e-09 4.0897e-20)
(1 1.41933e-09 -8.51488e-20)
(1 1.37923e-09 6.14786e-19)
(1 1.34045e-09 1.34142e-19)
(1 1.30221e-09 1.65598e-20)
(1 1.26524e-09 9.16251e-21)
(1 1.22873e-09 -1.14403e-19)
(1 1.19345e-09 5.89268e-19)
(1 1.15856e-09 1.13012e-19)
(1 1.12486e-09 -5.5336e-22)
(1 1.0915e-09 -4.89025e-21)
(1 1.05928e-09 -1.26406e-19)
(1 1.02735e-09 5.78539e-19)
(1 9.96527e-10 1.03101e-19)
(1 9.65945e-10 -9.69549e-21)
(1 9.36439e-10 -1.28832e-20)
(1 9.07131e-10 -1.32838e-19)
(1 8.7887e-10 5.72989e-19)
(1 8.50767e-10 9.51731e-20)
(1 8.23686e-10 -2.65061e-20)
(1 7.9673e-10 -4.6853e-20)
(1 7.70773e-10 -1.90247e-19)
(1 7.44908e-10 4.92208e-19)
(1 7.20025e-10 -4.43729e-22)
(1 6.952e-10 -1.21985e-19)
(1 6.71357e-10 -1.26379e-19)
(1 6.47508e-10 -2.43373e-19)
(1 6.24722e-10 4.67116e-19)
(1 6.01727e-10 -3.80618e-21)
(1 5.80229e-10 -1.13703e-19)
(1 5.57609e-10 -1.15715e-19)
(1 5.38642e-10 -2.35442e-19)
(1 5.13983e-10 4.69535e-19)
(1 5.03858e-10 1.08908e-21)
(1 4.65092e-10 -1.36712e-19)
(1 4.92641e-10 -1.10445e-20)
(1 3.95428e-10 -7.43839e-19)
(1.00013 -0.00239312 -2.28254e-18)
(1.00193 -0.00721384 -7.43895e-18)
(1.00604 -0.0123434 -6.37652e-18)
(1.01241 -0.0179 -8.84329e-18)
(1.02146 -0.0239107 -4.04167e-18)
(1.03353 -0.0301711 -1.7265e-17)
(1.04891 -0.0362608 -4.13147e-18)
(1.06758 -0.0412581 5.1355e-17)
(1.08893 -0.0441466 -1.40613e-16)
(1.11168 -0.0435833 -1.34774e-16)
(1.13322 -0.0387846 4.65744e-16)
(1.15121 -0.0306321 8.33512e-16)
(1.16431 -0.0198413 2.41575e-16)
(1.17125 -0.00722152 -6.00249e-16)
(1.17124 0.00581157 -1.01809e-15)
(1.16445 0.017731 -9.75273e-16)
(1.15201 0.0271628 -6.14842e-16)
(1.13573 0.0333461 -2.57891e-16)
(1.11758 0.0362437 -1.76876e-16)
(1.09924 0.0363567 -4.13839e-16)
(1.08192 0.0344349 -7.62329e-16)
(1.06634 0.0312323 -9.59023e-16)
(1.05281 0.0273457 -8.49512e-16)
(1.04141 0.0231622 -3.89048e-16)
(1.03207 0.0189087 3.34995e-16)
(1.02469 0.0147616 9.95507e-16)
(1.01909 0.0109404 1.08633e-15)
(1.01505 0.00771612 3.00222e-16)
(1.01223 0.00532408 -1.06871e-15)
(1.01024 0.00384669 -2.21547e-15)
(1.00869 0.00315706 -2.39529e-15)
(1.00731 0.00296868 -1.46966e-15)
(1.00596 0.00295902 2.49205e-17)
(1.00463 0.00288904 1.29897e-15)
(1.00337 0.00265678 1.83195e-15)
(1.00226 0.00227618 1.5985e-15)
(1.00134 0.00181746 9.26833e-16)
(1.00065 0.00135319 1.97217e-16)
(1.00017 0.000932824 -3.50506e-16)
(0.999878 0.000581816 -6.3408e-16)
(0.999733 0.000309992 -6.69065e-16)
(0.999695 0.000117734 -5.19271e-16)
(0.999721 -2.05268e-06 -2.80805e-16)
(0.999775 -6.30018e-05 -5.69974e-17)
(0.999832 -8.26835e-05 8.10629e-17)
(0.999881 -7.85825e-05 1.17375e-16)
(0.999917 -6.45423e-05 8.54965e-17)
(0.999941 -4.91782e-05 3.35173e-17)
(0.999957 -3.63673e-05 -4.34904e-18)
(0.999968 -2.68898e-05 -1.71273e-17)
(0.999976 -2.01334e-05 -1.18925e-17)
(0.999982 -1.52289e-05 -3.47262e-18)
(0.999986 -1.15323e-05 1.33819e-18)
(0.99999 -8.67842e-06 2.86414e-18)
(0.999993 -6.4747e-06 1.32026e-18)
(0.999995 -4.79753e-06 1.23129e-18)
(0.999996 -3.54211e-06 9.00597e-19)
(0.999997 -2.61265e-06 1.72114e-19)
(0.999998 -1.92715e-06 2.92757e-19)
(0.999998 -1.42124e-06 -4.55039e-19)
(0.999999 -1.04725e-06 5.67656e-19)
(0.999999 -7.70645e-07 6.93761e-19)
(0.999999 -5.66221e-07 6.12076e-19)
(1 -4.15348e-07 6.33069e-19)
(1 -3.04126e-07 -2.86081e-19)
(1 -2.22196e-07 8.65293e-19)
(1 -1.61871e-07 4.65475e-19)
(1 -1.17473e-07 3.29379e-19)
(1 -8.48144e-08 3.85303e-19)
(1 -6.08083e-08 -4.92976e-19)
(1 -4.31781e-08 6.9486e-19)
(1 -3.02438e-08 3.30533e-19)
(1 -2.07674e-08 2.30358e-19)
(1 -1.38358e-08 3.18891e-19)
(1 -8.77666e-09 -5.37005e-19)
(1 -5.0945e-09 6.57422e-19)
(1 -2.42475e-09 2.83965e-19)
(1 -4.9862e-10 1.65878e-19)
(1 8.81317e-10 2.38494e-19)
(1 1.86068e-09 -6.22318e-19)
(1 2.54633e-09 5.80987e-19)
(1 3.01708e-09 2.26199e-19)
(1 3.33065e-09 1.29042e-19)
(1 3.52969e-09 2.18266e-19)
(1 3.64535e-09 -6.33611e-19)
(1 3.70066e-09 5.71142e-19)
(1 3.71242e-09 2.08154e-19)
(1 3.69303e-09 1.06506e-19)
(1 3.65155e-09 1.31516e-19)
(1 3.5946e-09 -5.18697e-19)
(1 3.52708e-09 -4.49521e-19)
(1 3.45247e-09 -9.68579e-19)
(1 3.37346e-09 -8.96924e-19)
(1 3.29182e-09 -8.59071e-19)
(1 3.20905e-09 -1.89434e-19)
(1 3.12598e-09 1.26958e-19)
(1 3.0435e-09 -4.12862e-19)
(1 2.96191e-09 -4.20926e-19)
(1 2.8818e-09 -4.67638e-19)
(1 2.80315e-09 1.27043e-19)
(1 2.7264e-09 3.81612e-19)
(1 2.65135e-09 -2.07301e-19)
(1 2.57838e-09 -2.53793e-19)
(1 2.50717e-09 -3.3072e-19)
(1 2.43807e-09 2.39892e-19)
(1 2.3707e-09 4.75077e-19)
(1 2.30542e-09 -1.29602e-19)
(1 2.24177e-09 -1.89213e-19)
(1 2.18013e-09 -2.7749e-19)
(1 2.12e-09 2.8328e-19)
(1 2.06181e-09 5.11172e-19)
(1 2.00499e-09 -9.59999e-20)
(1 1.95002e-09 -1.51516e-19)
(1 1.8963e-09 -2.30537e-19)
(1 1.84432e-09 3.3833e-19)
(1 1.79347e-09 5.63387e-19)
(1 1.74427e-09 -6.46892e-20)
(1 1.69608e-09 -1.61175e-19)
(1 1.64946e-09 -2.82789e-19)
(1 1.60374e-09 2.30873e-19)
(1 1.5595e-09 4.71019e-19)
(1 1.51607e-09 -7.50719e-20)
(1 1.47404e-09 -1.27557e-19)
(1 1.43272e-09 -2.2509e-19)
(1 1.39274e-09 2.99995e-19)
(1 1.35339e-09 5.39365e-19)
(1 1.31531e-09 -1.73987e-20)
(1 1.27779e-09 -8.53462e-20)
(1 1.24149e-09 -1.97885e-19)
(1 1.20568e-09 3.1574e-19)
(1 1.17104e-09 5.47698e-19)
(1 1.13682e-09 -1.35072e-20)
(1 1.10373e-09 -8.42908e-20)
(1 1.07101e-09 -1.9897e-19)
(1 1.03938e-09 3.12837e-19)
(1 1.00806e-09 5.43224e-19)
(1 9.77804e-10 -1.92484e-20)
(1 9.47817e-10 -9.08121e-20)
(1 9.18855e-10 -2.05519e-19)
(1 8.90119e-10 3.06938e-19)
(1 8.6238e-10 5.37507e-19)
(1 8.34835e-10 -2.78616e-20)
(1 8.08259e-10 -1.08656e-19)
(1 7.81844e-10 -2.40719e-19)
(1 7.56377e-10 2.48233e-19)
(1 7.3104e-10 4.55474e-19)
(1 7.06635e-10 -1.2459e-19)
(1 6.82327e-10 -2.05027e-19)
(1 6.58958e-10 -3.20864e-19)
(1 6.35617e-10 1.94768e-19)
(1 6.13314e-10 4.30282e-19)
(1 5.90816e-10 -1.27892e-19)
(1 5.6983e-10 -1.96615e-19)
(1 5.47688e-10 -3.10087e-19)
(1 5.29235e-10 2.02799e-19)
(1 5.05216e-10 4.32622e-19)
(1 4.9473e-10 -1.22631e-19)
(1 4.59021e-10 -2.20726e-19)
(1 4.77712e-10 -2.04178e-19)
(1 3.95926e-10 -2.89588e-19)
(1.00012 -0.00287772 2.16625e-18)
(1.00182 -0.00868236 8.10979e-18)
(1.00571 -0.0149008 7.35777e-18)
(1.01183 -0.0217075 6.81011e-18)
(1.02066 -0.0291707 2.72326e-17)
(1.03269 -0.0370759 -6.4793e-17)
(1.04842 -0.0449318 2.38949e-16)
(1.06799 -0.0515483 -3.26653e-16)
(1.09093 -0.0556038 -4.32665e-16)
(1.11589 -0.0551412 2.08776e-15)
(1.13961 -0.0490594 1.70193e-15)
(1.15929 -0.0387341 -4.22786e-15)
(1.17366 -0.0250598 -1.0313e-14)
(1.18123 -0.00898983 -1.14892e-14)
(1.18098 0.00763074 -9.49413e-15)
(1.17312 0.0227947 -6.82108e-15)
(1.15896 0.0346748 -3.86753e-15)
(1.14073 0.0422945 -1.38179e-15)
(1.12076 0.0456627 -6.03345e-16)
(1.10097 0.0454955 -1.92143e-15)
(1.08263 0.0428073 -3.98878e-15)
(1.06644 0.0385892 -4.48045e-15)
(1.05262 0.0336071 -2.01658e-15)
(1.04115 0.0283448 2.35568e-15)
(1.03185 0.023073 5.46901e-15)
(1.02456 0.0179895 4.21978e-15)
(1.01903 0.0133398 -1.65224e-15)
(1.01502 0.00943238 -8.58551e-15)
(1.01219 0.00653719 -1.15557e-14)
(1.01015 0.00474577 -8.13155e-15)
(1.00855 0.00390243 -3.40617e-16)
(1.00713 0.00366229 7.34341e-15)
(1.00575 0.00363805 1.15592e-14)
(1.00439 0.00354255 1.18956e-14)
(1.00312 0.00325247 1.00697e-14)
(1.00201 0.00278315 7.88175e-15)
(1.0011 0.00221769 5.8789e-15)
(1.00042 0.00164321 3.59938e-15)
(0.999966 0.00112075 7.22664e-16)
(0.999706 0.00068381 -2.19447e-15)
(0.999603 0.000347081 -4.06059e-15)
(0.999608 0.000112504 -4.18766e-15)
(0.999671 -2.90104e-05 -2.84657e-15)
(0.999754 -9.60029e-05 -1.0137e-15)
(0.99983 -0.000112263 3.59001e-16)
(0.999888 -0.00010093 8.78931e-16)
(0.999926 -7.96817e-05 7.25567e-16)
(0.999949 -5.8898e-05 3.22966e-16)
(0.999963 -4.26746e-05 3.84065e-18)
(0.999972 -3.12591e-05 -1.22509e-16)
(0.999979 -2.33912e-05 -1.07991e-16)
(0.999984 -1.77503e-05 -4.67756e-17)
(0.999988 -1.34775e-05 -8.54178e-19)
(0.999991 -1.01457e-05 1.43308e-17)
(0.999994 -7.55704e-06 1.09931e-17)
(0.999995 -5.58662e-06 3.06271e-18)
(0.999997 -4.11718e-06 -1.43489e-18)
(0.999997 -3.03413e-06 -1.69651e-18)
(0.999998 -2.23781e-06 -8.76767e-19)
(0.999999 -1.65077e-06 -8.71256e-20)
(0.999999 -1.21674e-06 -3.43753e-19)
(0.999999 -8.9559e-07 -4.22072e-19)
(0.999999 -6.58215e-07 -3.00366e-19)
(1 -4.83056e-07 -9.46619e-19)
(1 -3.53973e-07 -4.74077e-19)
(1 -2.58908e-07 -2.19726e-19)
(1 -1.88917e-07 -1.42073e-19)
(1 -1.37404e-07 4.08193e-20)
(1 -9.95089e-08 -6.1208e-19)
(1 -7.16504e-08 -1.86375e-19)
(1 -5.11875e-08 1.47729e-20)
(1 -3.61714e-08 5.35656e-20)
(1 -2.51655e-08 2.1641e-19)
(1 -1.71107e-08 -4.43818e-19)
(1 -1.12271e-08 -2.31292e-20)
(1 -6.93992e-09 1.65735e-19)
(1 -3.82639e-09 1.8035e-19)
(1 -1.57484e-09 3.09363e-19)
(1 4.37473e-11 -3.86839e-19)
(1 1.19816e-09 4.19957e-21)
(1 2.01232e-09 1.74748e-19)
(1 2.57754e-09 1.82203e-19)
(1 2.96072e-09 3.11372e-19)
(1 3.21124e-09 -3.81815e-19)
(1 3.36517e-09 1.20343e-20)
(1 3.44916e-09 1.83638e-19)
(1 3.48262e-09 1.88132e-19)
(1 3.47989e-09 3.10609e-19)
(1 3.45141e-09 -4.02673e-19)
(1 3.40483e-09 -1.33337e-20)
(1 3.34576e-09 1.16372e-19)
(1 3.27826e-09 -3.98485e-20)
(1 3.20534e-09 6.10583e-19)
(1 3.1291e-09 1.12447e-19)
(1 3.05118e-09 1.16913e-20)
(1 2.97261e-09 6.92487e-20)
(1 2.89433e-09 -8.20017e-20)
(1 2.81674e-09 5.7944e-19)
(1 2.74044e-09 8.66496e-20)
(1 2.66548e-09 -1.3088e-20)
(1 2.5923e-09 4.42457e-20)
(1 2.52073e-09 -1.06589e-19)
(1 2.45114e-09 5.56299e-19)
(1 2.38324e-09 6.55695e-20)
(1 2.31736e-09 -3.20164e-20)
(1 2.25315e-09 2.72712e-20)
(1 2.19094e-09 -1.21959e-19)
(1 2.1303e-09 5.4199e-19)
(1 2.07159e-09 5.15542e-20)
(1 2.01434e-09 -4.62275e-20)
(1 1.95893e-09 1.37749e-20)
(1 1.90486e-09 -1.31458e-19)
(1 1.85255e-09 5.41518e-19)
(1 1.80144e-09 6.37262e-20)
(1 1.752e-09 -2.36852e-20)
(1 1.70364e-09 3.53636e-20)
(1 1.65685e-09 -1.27114e-19)
(1 1.61104e-09 5.0616e-19)
(1 1.56671e-09 1.1271e-20)
(1 1.52326e-09 -2.22395e-19)
(1 1.48121e-09 3.78251e-19)
(1 1.43993e-09 4.50911e-19)
(1 1.39998e-09 5.31922e-19)
(1 1.36072e-09 -5.67066e-20)
(1 1.32274e-09 -2.8481e-19)
(1 1.28535e-09 3.32123e-19)
(1 1.24918e-09 4.13419e-19)
(1 1.21353e-09 4.9618e-19)
(1 1.17905e-09 -9.30163e-20)
(1 1.14503e-09 -3.20828e-19)
(1 1.11213e-09 2.98067e-19)
(1 1.07963e-09 3.82327e-19)
(1 1.04821e-09 4.68121e-19)
(1 1.01714e-09 -1.18497e-19)
(1 9.87099e-10 -3.44257e-19)
(1 9.57365e-10 2.76288e-19)
(1 9.28636e-10 3.61973e-19)
(1 9.00166e-10 4.49232e-19)
(1 8.72668e-10 -1.35552e-19)
(1 8.45391e-10 -3.59139e-19)
(1 8.19061e-10 2.6279e-19)
(1 7.92917e-10 3.46435e-19)
(1 7.67698e-10 4.24924e-19)
(1 7.42634e-10 -1.77142e-19)
(1 7.18474e-10 -4.24399e-19)
(1 6.9444e-10 1.74092e-19)
(1 6.71299e-10 2.43321e-19)
(1 6.48252e-10 3.2305e-19)
(1 6.26111e-10 -2.61352e-19)
(1 6.03996e-10 -4.80236e-19)
(1 5.8289e-10 1.48062e-19)
(1 5.61585e-10 2.40231e-19)
(1 5.4177e-10 3.32134e-19)
(1 5.20825e-10 -2.49924e-19)