/*--------------------------------*- C++ -*----------------------------------*\
  =========                 |
  \\      /  F ield         | OpenFOAM: The Open Source CFD Toolbox
   \\    /   O peration     | Website:  https://openfoam.org
    \\  /    A nd           | Version:  11
     \\/     M anipulation  |
\*---------------------------------------------------------------------------*/
FoamFile
{
    format      ascii;
    class       surfaceScalarField;
    location    "15.967076";
    object      phi;
}
// * * * * * * * * * * * * * * * * * * * * * * * * * * * * * * * * * * * * * //

dimensions      [0 3 -1 0 0 0 0];

internalField   nonuniform List<scalar> 
14638
(
0.00250203
-2.03086e-06
0.00250827
-6.24408e-06
0.00251923
-1.0959e-05
0.00253555
-1.63111e-05
0.00255783
-2.22863e-05
0.00258639
-2.85538e-05
0.00262092
-3.45307e-05
0.00266008
-3.91641e-05
0.00270142
-4.13449e-05
0.00274129
-3.98623e-05
0.00277531
-3.40247e-05
0.00279972
-2.44052e-05
0.00281155
-1.18373e-05
0.00280897
2.5845e-06
0.00279168
1.72881e-05
0.00276164
3.00427e-05
0.00272322
3.84219e-05
0.00268247
4.07512e-05
0.00264603
3.64361e-05
0.00262004
2.59926e-05
0.00260901
1.10293e-05
0.00261483
-5.82363e-06
0.00263573
-2.08995e-05
0.00266566
-2.99338e-05
0.0026952
-2.95348e-05
0.00271438
-1.91794e-05
0.00271631
-1.93253e-06
0.00269922
1.70907e-05
0.00266605
3.31664e-05
0.00262267
4.33799e-05
0.00257612
4.6558e-05
0.00253357
4.25467e-05
0.00250195
3.16202e-05
0.00248754
1.44078e-05
0.00249517
-7.63154e-06
0.00252648
-3.13094e-05
0.00257767
-5.11837e-05
0.00263846
-6.0795e-05
0.00269423
-5.57705e-05
0.00273097
-3.67332e-05
0.00274039
-9.42698e-06
0.00272215
1.82465e-05
0.00268229
3.9852e-05
0.00263001
5.22817e-05
0.00257479
5.52238e-05
0.00252519
4.95945e-05
0.00248888
3.63112e-05
0.00247278
1.61048e-05
0.00248237
-9.58743e-06
0.00251954
-3.71714e-05
0.00257984
-6.02994e-05
0.00265136
-7.15285e-05
0.00271726
-6.58934e-05
0.00276129
-4.40302e-05
0.00277366
-1.23679e-05
0.00275375
1.9903e-05
0.00270885
4.48989e-05
0.00265021
5.86418e-05
0.00258926
6.09476e-05
0.00253569
5.3578e-05
0.00249731
3.83755e-05
0.00248067
1.66361e-05
0.00249067
-9.99057e-06
0.00252858
-3.79188e-05
0.00258968
-6.10951e-05
0.00266229
-7.26069e-05
0.00273009
-6.78053e-05
0.00277704
-4.69507e-05
0.00279262
-1.55736e-05
0.00277491
1.77106e-05
0.00273031
4.4597e-05
0.00267037
5.99427e-05
0.00260773
6.26384e-05
0.00255328
5.44428e-05
0.00251532
3.79683e-05
0.00249986
1.54598e-05
0.00251062
-1.07587e-05
0.00254758
-3.696e-05
0.00260526
-5.76818e-05
0.00267252
-6.72592e-05
0.00273485
-6.23354e-05
0.00277845
-4.36032e-05
0.00279416
-1.57045e-05
0.00277972
1.44438e-05
0.0027398
3.99124e-05
0.00268408
5.57246e-05
0.00262425
5.9825e-05
0.00257142
5.28307e-05
0.00253452
3.68977e-05
0.00251983
1.46987e-05
0.00253044
-1.06099e-05
0.00256525
-3.48107e-05
0.00261803
-5.27879e-05
0.00267803
-5.99905e-05
0.00273237
-5.43483e-05
0.00276964
-3.72631e-05
0.00278269
-1.30513e-05
0.00277005
1.26421e-05
0.00273552
3.45272e-05
0.00268671
4.8804e-05
0.00263317
5.35433e-05
0.00258465
4.85208e-05
0.00254985
3.47978e-05
0.0025354
1.44507e-05
0.0025447
-9.30153e-06
0.00257668
-3.19741e-05
0.00262516
-4.8487e-05
0.00267989
-5.47265e-05
0.00272906
-4.91681e-05
0.00276256
-3.35027e-05
0.00277446
-1.18965e-05
0.00276387
1.05883e-05
0.00273433
2.95449e-05
0.00269225
4.20804e-05
0.00264544
4.68064e-05
0.00260206
4.33758e-05
0.00256992
3.21441e-05
0.0025556
1.43155e-05
0.00256316
-7.55349e-06
0.0025925
-2.93433e-05
0.0026386
-4.61001e-05
0.0026922
-5.36042e-05
0.00274216
-4.99606e-05
0.00277847
-3.63094e-05
0.00279479
-1.63174e-05
0.0027896
5.19281e-06
0.00276581
2.379e-05
0.00272928
3.6529e-05
0.0026871
4.21817e-05
0.00264639
4.07124e-05
0.00261384
3.2548e-05
0.00259553
1.83088e-05
0.00259628
-7.50642e-07
0.00261835
-2.2072e-05
0.00266011
-4.1762e-05
0.00271567
-5.55599e-05
0.00277601
-6.03351e-05
0.00283125
-5.52398e-05
0.00287318
-4.19317e-05
0.00289707
-2.3886e-05
0.00290229
-5.22725e-06
0.00289187
1.04233e-05
0.00287112
2.07488e-05
0.0028461
2.5019e-05
0.00282223
2.38714e-05
0.00280345
1.87831e-05
0.00279194
1.15044e-05
0.00278823
3.71012e-06
0.00279137
-3.1344e-06
0.00279916
-7.79732e-06
0.00280865
-9.4857e-06
0.00281665
-8.00196e-06
0.00282073
-4.07479e-06
0.00281971
1.02023e-06
0.00281441
5.3015e-06
0.00280692
7.48972e-06
0.0028011
5.81541e-06
0.00280031
7.91715e-07
0.00280794
-7.63112e-06
-2.47002e-05
0.00250201
-4.04e-06
0.00250819
-1.2429e-05
0.00251907
-2.18399e-05
0.00253533
-3.25637e-05
0.00255763
-4.45872e-05
0.00258634
-5.72624e-05
0.00262124
-6.94301e-05
0.00266102
-7.89452e-05
0.00270322
-8.35466e-05
0.00274405
-8.06892e-05
0.00277895
-6.89243e-05
0.00280404
-4.9496e-05
0.00281629
-2.40902e-05
0.00281374
5.13762e-06
0.00279597
3.50552e-05
0.00276491
6.10979e-05
0.00272509
7.8247e-05
0.00268278
8.30603e-05
0.00264489
7.43247e-05
0.00261781
5.30714e-05
0.00260632
2.25184e-05
0.00261256
-1.20557e-05
0.00263483
-4.31748e-05
0.00266687
-6.19759e-05
0.00269864
-6.12979e-05
0.00271943
-3.99777e-05
0.00272193
-4.42582e-06
0.00270435
3.4671e-05
0.00266996
6.75555e-05
0.00262498
8.83588e-05
0.00257669
9.48495e-05
0.00253241
8.68271e-05
0.00249919
6.48416e-05
0.00248357
3.00258e-05
0.00249082
-1.48851e-05
0.00252306
-6.35468e-05
0.00257661
-0.000104735
0.0026407
-0.000124881
0.00269963
-0.000114704
0.00273835
-7.54583e-05
0.00274812
-1.91949e-05
0.00272878
3.75882e-05
0.00268701
8.16255e-05
0.00263255
0.000106739
0.0025752
0.000112573
0.00252361
0.000101187
0.00248549
7.44331e-05
0.00246802
3.35686e-05
0.00247723
-1.87962e-05
0.00251555
-7.54956e-05
0.00257866
-0.000123408
0.00265405
-0.000146911
0.00272363
-0.000135478
0.00276998
-9.03804e-05
0.00278271
-2.5097e-05
0.00276142
4.11945e-05
0.00271411
9.22041e-05
0.00265283
0.00011993
0.00258945
0.000124323
0.00253374
0.000109284
0.00249346
7.86624e-05
0.00247518
3.49146e-05
0.00248415
-1.89596e-05
0.00252218
-7.5955e-05
0.00258486
-0.000123771
0.00266032
-0.000148066
0.0027315
-0.000138988
0.00278136
-9.68044e-05
0.00279854
-3.27613e-05
0.00278085
3.5405e-05
0.00273491
9.05316e-05
0.00267285
0.000122006
0.00260787
0.000127623
0.00255118
0.000111134
0.0025112
7.79443e-05
0.00249418
3.24841e-05
0.00250421
-2.07895e-05
0.00254166
-7.44109e-05
0.00260105
-0.00011708
0.00267075
-0.000136956
0.00273548
-0.000127067
0.00278082
-8.89402e-05
0.00279733
-3.22159e-05
0.0027828
2.89703e-05
0.00274211
8.06061e-05
0.00268513
0.000112707
0.00262376
0.000121191
0.00256929
0.000107304
0.0025309
7.52843e-05
0.00251527
3.03281e-05
0.00252597
-2.13079e-05
0.00256211
-7.09471e-05
0.00261717
-0.000107852
0.00267965
-0.00012247
0.00273588
-0.000110579
0.00277393
-7.53112e-05
0.00278667
-2.57877e-05
0.00277295
2.63565e-05
0.00273702
7.0455e-05
0.00268681
9.90216e-05
0.00263198
0.000108369
0.00258238
9.81188e-05
0.00254688
7.03047e-05
0.00253241
2.89213e-05
0.00254271
-1.96078e-05
0.00257677
-6.60288e-05
0.00262799
-9.97056e-05
0.00268531
-0.000112055
0.00273618
-0.000100029
0.00277003
-6.73554e-05
0.00278098
-2.28442e-05
0.00276855
2.30177e-05
0.00273681
6.12813e-05
0.00269266
8.62325e-05
0.00264419
9.52712e-05
0.00259973
8.78363e-05
0.00256723
6.46453e-05
0.0025535
2.80462e-05
0.00256275
-1.68057e-05
0.00259481
-6.14022e-05
0.00264415
-9.54346e-05
0.00270073
-0.000110186
0.00275266
-0.000101893
0.00278949
-7.3144e-05
0.00280488
-3.16976e-05
0.00279762
1.24509e-05
0.00277115
5.0259e-05
0.00273185
7.58229e-05
0.00268724
8.67952e-05
0.00264471
8.32405e-05
0.00261118
6.60837e-05
0.00259292
3.65622e-05
0.00259496
-2.78889e-06
0.00261955
-4.66619e-05
0.0026647
-8.69126e-05
0.00272382
-0.000114682
0.00278709
-0.000123602
0.00284401
-0.000112158
0.00288611
-8.40291e-05
0.00290877
-4.6546e-05
0.00291176
-8.22464e-06
0.0028986
2.35898e-05
0.00287506
4.42903e-05
0.00284756
5.25141e-05
0.00282178
4.96529e-05
0.00280181
3.87488e-05
0.00278997
2.33506e-05
0.00278682
6.85323e-06
0.0027914
-7.71286e-06
0.00280132
-1.77175e-05
0.00281322
-2.13878e-05
0.00282345
-1.8228e-05
0.0028291
-9.72192e-06
0.00282872
1.39366e-06
0.00282306
1.09654e-05
0.00281438
1.61721e-05
0.00280671
1.34828e-05
0.00280389
3.60852e-06
0.00280915
-1.28853e-05
-4.77862e-05
0.00250196
-6.005e-06
0.00250803
-1.84902e-05
0.00251875
-3.25606e-05
0.00253488
-4.86931e-05
0.0025572
-6.69112e-05
0.00258622
-8.62771e-05
0.00262185
-0.000105069
0.00266288
-0.000119972
0.00270682
-0.000127487
0.0027496
-0.000123464
0.00278623
-0.000105563
0.00281265
-7.59164e-05
0.00282568
-3.7111e-05
0.00282312
7.69754e-06
0.00280432
5.38478e-05
0.00277119
9.42357e-05
0.00272852
0.000120909
0.00268311
0.000128469
0.0026424
0.00011504
0.0026133
8.21736e-05
0.0026011
3.47153e-05
0.0026084
-1.93526e-05
0.00263367
-6.84489e-05
0.00267012
-9.84215e-05
0.00270637
-9.75541e-05
0.00273022
-6.38231e-05
0.00273343
-7.63507e-06
0.00271436
5.37345e-05
0.00267708
0.000104843
0.00262861
0.000136829
0.00257676
0.000146696
0.00252913
0.000134459
0.002493
0.000100975
0.00247538
4.76389e-05
0.0024824
-2.1905e-05
0.00251709
-9.82318e-05
0.00257595
-0.000163601
0.00264701
-0.000195934
0.00271226
-0.000179956
0.00275451
-0.000117708
0.00276417
-2.88531e-05
0.00274175
6.0005e-05
0.0026954
0.000127976
0.00263616
0.000165979
0.00257446
0.000174267
0.00251909
0.000156566
0.00247776
0.000115758
0.002458
5.33268e-05
0.00246657
-2.7365e-05
0.00250682
-0.000115744
0.0025749
-0.000191493
0.00265765
-0.000229658
0.00273489
-0.000212715
0.00278646
-0.000141955
0.00280024
-3.88765e-05
0.00277601
6.54293e-05
0.00272343
0.000144786
0.00265643
0.000186927
0.00258806
0.000192694
0.00252826
0.000169084
0.00248449
0.000122434
0.00246329
5.61154e-05
0.00247053
-2.62014e-05
0.00250907
-0.0001145
0.00257507
-0.000189771
0.0026561
-0.000229096
0.00273355
-0.000216435
0.00278856
-0.000151815
0.00280845
-5.26489e-05
0.00279051
5.33448e-05
0.00274185
0.000139194
0.00267564
0.00018821
0.00260619
0.00019708
0.00254537
0.00017195
0.002502
0.000121318
0.00248283
5.16505e-05
0.00249279
-3.07467e-05
0.00253278
-0.000114408
0.00259691
-0.000181202
0.00267202
-0.000212066
0.00274109
-0.000196143
0.0027886
-0.000136449
0.00280501
-4.86196e-05
0.00278867
4.53062e-05
0.00274522
0.000124059
0.00268512
0.000172808
0.00262063
0.000185679
0.00256331
0.000164626
0.00252281
0.000115782
0.00250657
4.65682e-05
0.00251891
-3.36531e-05
0.00255906
-0.000111097
0.00261957
-0.000168362
0.00268725
-0.000190147
0.00274681
-0.000170135
0.00278547
-0.000113974
0.00279631
-3.6624e-05
0.00277911
4.35525e-05
0.00273923
0.000110333
0.00268542
0.000152835
0.00262774
0.000166045
0.00257621
0.000149647
0.00254
0.000106523
0.00252656
4.23617e-05
0.00254003
-3.3085e-05
0.00257914
-0.000105135
0.00263618
-0.000156746
0.00269852
-0.0001744
0.00275221
-0.000153721
0.00278605
-0.000101188
0.00279433
-3.11294e-05
0.00277748
3.9867e-05
0.00274073
9.80348e-05
0.00269199
0.000134977
0.00264002
0.00014724
0.00259352
0.00013433
0.00256078
9.73843e-05
0.00254895
3.98781e-05
0.00256234
-3.0196e-05
0.00260027
-9.93286e-05
0.00265601
-0.000151176
0.00271805
-0.000172222
0.00277323
-0.000157075
0.00281048
-0.000110393
0.00282352
-4.47391e-05
0.00281183
2.4138e-05
0.00277984
8.22503e-05
0.00273497
0.000120697
0.00268556
0.000136206
0.0026396
0.000129193
0.00260447
0.000101214
0.00258687
5.41639e-05
0.00259205
-7.96862e-06
0.00262201
-7.66219e-05
0.0026738
-0.0001387
0.00273938
-0.00018026
0.00280751
-0.000191732
0.00286679
-0.000171435
0.0029085
-0.000125743
0.00292838
-6.64279e-05
0.00292692
-6.76708e-06
0.0029085
4.20171e-05
0.00287973
7.30584e-05
0.00284772
8.45257e-05
0.0028186
7.87703e-05
0.00279679
6.0557e-05
0.00278481
3.53311e-05
0.00278333
8.32966e-06
0.00279123
-1.56056e-05
0.00280559
-3.20837e-05
0.00282222
-3.80149e-05
0.00283648
-3.24838e-05
0.00284465
-1.78924e-05
0.00284487
1.16837e-06
0.00283789
1.79467e-05
0.00282637
2.76967e-05
0.00281482
2.50332e-05
0.00280783
1.05906e-05
0.00280854
-1.35898e-05
-6.77712e-05
0.00250189
-7.89998e-06
0.00250776
-2.43545e-05
0.00251822
-4.30199e-05
0.00253413
-6.46077e-05
0.00255645
-8.92323e-05
0.00258589
-0.000115715
0.00262262
-0.000141799
0.00266554
-0.000162889
0.00271217
-0.000174113
0.00275796
-0.000169262
0.00279729
-0.000144886
0.00282578
-0.000104405
0.00284004
-5.13734e-05
0.00283753
1.0203e-05
0.00281717
7.42101e-05
0.00278077
0.000130639
0.00273366
0.000168018
0.00268342
0.000178704
0.00263833
0.000160131
0.00260609
0.000114416
0.00259276
4.80444e-05
0.00260168
-2.82704e-05
0.00263165
-9.84209e-05
0.00267507
-0.000141842
0.00271845
-0.000140938
0.00274707
-9.24375e-05
0.00275127
-1.18331e-05
0.00272969
7.53129e-05
0.00268772
0.000146812
0.00263376
0.000190786
0.00257645
0.000204004
0.00252375
0.000187167
0.0024832
0.000141515
0.00246254
6.83005e-05
0.00246926
-2.86265e-05
0.002508
-0.000136968
0.0025756
-0.000231204
0.00265796
-0.000278291
0.00273317
-0.000255164
0.00278056
-0.000165105
0.00278944
-3.77318e-05
0.00276163
8.78154e-05
0.00270774
0.000181864
0.00264093
0.000232797
0.0025726
0.000242588
0.00251161
0.000217557
0.00246543
0.00016194
0.00244155
7.72108e-05
0.00244739
-3.32087e-05
0.00248785
-0.000156207
0.00256076
-0.000264395
0.00265311
-0.000322015
0.00274236
-0.000301964
0.00280408
-0.000203677
0.00282236
-5.71478e-05
0.00279594
9.18417e-05
0.00273651
0.000204214
0.00266117
0.000262276
0.0025852
0.000268661
0.00251912
0.000235159
0.00246999
0.000171566
0.00244439
8.17149e-05
0.0024495
-3.13067e-05
0.00248988
-0.00015488
0.002562
-0.00026189
0.00265164
-0.000318734
0.00273742
-0.000302217
0.00279835
-0.000212747
0.00282078
-7.50835e-05
0.00280194
7.21872e-05
0.00274952
0.000191619
0.0026778
0.000259927
0.00260229
0.000272585
0.00253582
0.000238418
0.002488
0.000169141
0.00246673
7.29257e-05
0.00247822
-4.22433e-05
0.0025238
-0.000159987
0.00259618
-0.000253579
0.00267954
-0.000295432
0.00275428
-0.000270883
0.00280354
-0.0001857
0.00281801
-6.30973e-05
0.00279737
6.59525e-05
0.00274867
0.000172754
0.00268341
0.000238069
0.00261432
0.000254765
0.00255328
0.000225668
0.00251058
0.000158482
0.00249472
6.24309e-05
0.00251086
-4.97908e-05
0.00255788
-0.000158125
0.00262662
-0.000237098
0.00270147
-0.000264997
0.00276513
-0.000233795
0.00280391
-0.000152756
0.00281124
-4.3949e-05
0.00278822
6.65695e-05
0.00274187
0.000156685
0.00268226
0.000212445
0.00262019
0.000228117
0.00256603
0.000203806
0.0025294
0.000143148
0.00251838
5.33849e-05
0.0025373
-5.20022e-05
0.00258404
-0.000151875
0.0026491
-0.00022181
0.00271781
-0.000243107
0.00277468
-0.000210593
0.00280791
-0.000134422
0.00281216
-3.53793e-05
0.00278894
6.30916e-05
0.00274496
0.000142011
0.00268957
0.000190373
0.00263255
0.000204259
0.00258328
0.0001836
0.00255057
0.00013009
0.00254197
4.84797e-05
0.00256163
-4.98527e-05
0.00260777
-0.000145467
0.00267183
-0.000215241
0.00274041
-0.000240804
0.00279907
-0.000215733
0.00283625
-0.00014757
0.00284591
-5.43995e-05
0.00282831
4.17361e-05
0.00278902
0.000121536
0.00273674
0.000172984
0.00268092
0.000192024
0.00263046
0.000179655
0.00259345
0.000138221
0.0025772
7.04096e-05
0.00258714
-1.791e-05
0.00262457
-0.00011405
0.0026849
-0.000199025
0.00275806
-0.000253424
0.00283121
-0.000264876
0.00289218
-0.000232406
0.00293237
-0.000165933
0.00294815
-8.22076e-05
0.00294089
4.86515e-07
0.00291593
6.69749e-05
0.00288083
0.000108168
0.00284345
0.000121903
0.00281055
0.000111667
0.00278702
8.40865e-05
0.00277572
4.66281e-05
0.00277744
6.61557e-06
0.00279067
-2.8834e-05
0.00281157
-5.29863e-05
0.00283457
-6.10185e-05
0.00285368
-5.15931e-05
0.00286423
-2.84369e-05
0.00286402
1.37717e-06
0.00285404
2.79293e-05
0.0028376
4.41335e-05
0.00281995
4.26832e-05
0.00280664
2.39034e-05
0.0028006
-7.55549e-06
-8.33441e-05
0.00250179
-9.69448e-06
0.00250737
-2.99344e-05
0.00251745
-5.30913e-05
0.00253302
-8.01771e-05
0.00255526
-0.000111474
0.00258519
-0.000145644
0.00262333
-0.000179943
0.0026688
-0.000208355
0.00271915
-0.000224469
0.00276916
-0.000219273
0.00281218
-0.000187899
0.00284348
-0.000135713
0.00285946
-6.73512e-05
0.00285711
1.25574e-05
0.00283469
9.66318e-05
0.00279385
0.000171477
0.00274062
0.000221248
0.00268368
0.000235639
0.00263245
0.000211358
0.00259573
0.000151145
0.00258065
6.31183e-05
0.0025917
-3.93162e-05
0.00262827
-0.000134993
0.0026817
-0.000195271
0.00273537
-0.000194614
0.00277081
-0.000127871
0.00277626
-1.72882e-05
0.0027509
0.000100673
0.0027022
0.000195518
0.00264056
0.000252423
0.00257576
0.000268803
0.00251612
0.000246804
0.00246947
0.000188171
0.0024444
9.3368e-05
0.00245032
-3.45436e-05
0.00249404
-0.000180687
0.00257323
-0.000310395
0.00267157
-0.000376628
0.00276171
-0.000345311
0.0028172
-0.000220595
0.00282506
-4.55904e-05
0.00278921
0.00012367
0.00272431
0.000246761
0.00264682
0.000310286
0.00256954
0.000319871
0.00250106
0.000286038
0.00244787
0.000215131
0.00241682
0.000108253
0.00241648
-3.28619e-05
0.00245485
-0.000194579
0.0025326
-0.000342143
0.00263656
-0.000425976
0.00274093
-0.000406336
0.00281666
-0.000279408
0.00284339
-8.38783e-05
0.0028175
0.000117736
0.00275171
0.000269998
0.00266665
0.000347335
0.00258091
0.000354399
0.00250633
0.000309743
0.00245
0.000227899
0.00241932
0.000112392
0.00242373
-3.57187e-05
0.00246951
-0.00020066
0.00255198
-0.000344358
0.00265325
-0.000420008
0.00274816
-0.000397126
0.00281372
-0.000278306
0.00283634
-9.76976e-05
0.00281429
9.42303e-05
0.00275643
0.000249483
0.00267803
0.000338329
0.00259547
0.000355138
0.00252249
0.000311405
0.00246993
0.000221694
0.00244753
9.53344e-05
0.00246295
-5.76636e-05
0.00251713
-0.000214166
0.00260026
-0.000336716
0.00269323
-0.0003884
0.00277382
-0.000351468
0.00282401
-0.000235892
0.00283491
-7.39986e-05
0.00280774
9.31238e-05
0.00275153
0.000228965
0.00267924
0.000310356
0.00260434
0.000329667
0.00253912
0.000290885
0.0024947
0.000202901
0.00248073
7.6407e-05
0.00250285
-7.19146e-05
0.00255885
-0.000214127
0.00263711
-0.000315358
0.00271948
-0.000347363
0.00278694
-0.000301255
0.00282518
-0.000191003
0.00282803
-4.67922e-05
0.00279785
9.67475e-05
0.00274343
0.000211101
0.0026765
0.00027938
0.00260893
0.000295689
0.00255178
0.000260949
0.00251535
0.00017958
0.00250823
6.05033e-05
0.00253448
-7.82465e-05
0.0025904
-0.000207798
0.00266417
-0.000295583
0.00273906
-0.000317993
0.00279844
-0.000269977
0.0028303
-0.000166276
0.00282974
-3.48157e-05
0.00279928
9.35496e-05
0.00274708
0.000194206
0.002684
0.000253455
0.00262112
0.000267144
0.00256879
0.000235922
0.00253663
0.000162257
0.0025325
5.26075e-05
0.00255996
-7.73155e-05
0.00261548
-0.000200988
0.0026882
-0.000287962
0.00276284
-0.000315439
0.00282404
-0.000276934
0.00286022
-0.000183748
0.0028658
-5.99773e-05
0.00284177
6.5761e-05
0.00279471
0.000168597
0.00273447
0.00023322
0.00267173
0.000254771
0.00261647
0.000234915
0.00257781
0.000176878
0.00256381
8.44142e-05
0.00257984
-3.3941e-05
0.00262591
-0.000160125
0.00269515
-0.000268264
0.00277518
-0.000333458
0.00285176
-0.00034145
0.00291251
-0.000293161
0.00294948
-0.000202895
0.00295997
-9.27025e-05
0.00294631
1.41425e-05
0.00291469
9.85998e-05
0.00287342
0.000149433
0.00283111
0.000164223
0.00279512
0.000147648
0.00277097
0.000108243
0.00276196
5.56388e-05
0.00276889
-3.18719e-07
0.00278954
-4.9479e-05
0.00281854
-8.1994e-05
0.0028485
-9.09773e-05
0.00287189
-7.49836e-05
0.00288327
-3.98141e-05
0.00288048
4.16556e-06
0.00286513
4.3282e-05
0.00284144
6.78209e-05
0.00281556
6.85604e-05
0.00279399
4.54743e-05
0.00277957
6.86735e-06
-9.37608e-05
0.00250166
-1.13522e-05
0.00250685
-3.51244e-05
0.00251637
-6.26141e-05
0.00253141
-9.52188e-05
0.00255343
-0.000133491
0.00258384
-0.000176057
0.00262367
-0.000219775
0.00267238
-0.000257058
0.00272766
-0.000279751
0.00278327
-0.000274887
0.00283113
-0.000235756
0.00286619
-0.000170769
0.00288461
-8.57723e-05
0.00288268
1.44838e-05
0.00285761
0.0001217
0.0028108
0.000218288
0.00274934
0.000282714
0.00268348
0.000301502
0.0026241
0.000270734
0.00258132
0.000193925
0.00256369
8.07502e-05
0.00257731
-5.29391e-05
0.00262267
-0.00018035
0.00268981
-0.000262411
0.00275773
-0.000262534
0.00280251
-0.000172655
0.00280948
-2.42507e-05
0.00277869
0.000131455
0.00272078
0.000253434
0.002649
0.000324202
0.00257454
0.00034326
0.00250602
0.000315323
0.00245139
0.0002428
0.00241998
0.000124784
0.00242248
-3.70454e-05
0.00246767
-0.000225877
0.00255605
-0.000398771
0.00267258
-0.000493165
0.00278523
-0.000457957
0.0028575
-0.000292865
0.00286904
-5.71303e-05
0.00282467
0.000168043
0.00274546
0.000325968
0.00265384
0.000401905
0.00256508
0.000408627
0.00248706
0.000364056
0.00242424
0.000277952
0.00238293
0.000149568
0.00237484
-2.47767e-05
0.00241311
-0.000232846
0.00250011
-0.000429138
0.00261908
-0.000544946
0.00273894
-0.000526203
0.00282721
-0.000367676
0.00286165
-0.00011832
0.0028371
0.00014229
0.00276609
0.000341008
0.00267143
0.000441993
0.00257481
0.000451022
0.00249005
0.000394502
0.00242547
0.00029248
0.00239061
0.000147249
0.00239754
-4.26458e-05
0.0024528
-0.000255922
0.00254849
-0.000440048
0.00266221
-0.000533724
0.00276545
-0.00050037
0.00283386
-0.00034672
0.00285426
-0.000118091
0.00282652
0.000121967
0.0027613
0.000314707
0.00267509
0.000424538
0.00258494
0.000445287
0.00250533
0.000391011
0.00244871
0.000278312
0.00242687
0.000117177
0.00244842
-7.92163e-05
0.00251273
-0.000278475
0.00260672
-0.000430701
0.00270825
-0.000489936
0.00279348
-0.000436693
0.00284386
-0.000286268
0.00285073
-8.08729e-05
0.00281643
0.000127425
0.0027518
0.000293597
0.00267153
0.000390625
0.00259019
0.000411008
0.00252085
0.000360219
0.00247565
0.000248107
0.00246517
8.68823e-05
0.00249484
-0.000101584
0.00256044
-0.00027973
0.0026476
-0.000402515
0.00273607
-0.000435831
0.00280595
-0.00037114
0.00284291
-0.00022796
0.00284114
-4.50187e-05
0.00280387
0.000134013
0.0027413
0.000273674
0.00266672
0.000353954
0.00259339
0.000369021
0.00253344
0.000320897
0.00249805
0.000214972
0.00249614
6.24204e-05
0.00253078
-0.000112893
0.00259605
-0.000273067
0.00267761
-0.000377141
0.0027571
-0.000397486
0.00281748
-0.00033036
0.00284704
-0.000195837
0.00284146
-2.92348e-05
0.00280402
0.000130992
0.00274394
0.000254288
0.00267338
0.000324011
0.00260479
0.000335734
0.0025498
0.000290918
0.00251896
0.000193096
0.00252035
5.12194e-05
0.00255635
-0.00011332
0.0026211
-0.000265735
0.00270128
-0.000368148
0.00278015
-0.000394309
0.00284212
-0.000338899
0.0028761
-0.000217733
0.00287721
-6.10832e-05
0.00284705
9.59258e-05
0.00279285
0.000222796
0.00272533
0.000300733
0.00265623
0.000323869
0.00259677
0.000294383
0.00255727
0.000216371
0.00254657
9.51137e-05
0.00256962
-5.69873e-05
0.00262445
-0.00021496
0.00270145
-0.000345262
0.00278606
-0.000418067
0.00286325
-0.000418638
0.00292118
-0.000351091
0.00295304
-0.000234754
0.00295732
-9.69872e-05
0.00293725
3.42191e-05
0.00289964
0.000136203
0.00285337
0.000195706
0.00280753
0.000210057
0.00277015
0.000185037
0.00274737
0.000131018
0.00274299
6.00226e-05
0.00275751
-1.48408e-05
0.00278734
-7.93093e-05
0.00282499
-0.000119639
0.00286094
-0.000126932
0.00288642
-0.000100462
0.00289578
-4.91717e-05
0.00288748
1.24648e-05
0.00286416
6.66019e-05
0.0028311
0.000100878
0.00279542
0.000104237
0.00276434
7.65533e-05
0.00274105
3.01618e-05
-9.92482e-05
0.00250148
-1.28296e-05
0.00250615
-3.97969e-05
0.00251492
-7.13851e-05
0.00252918
-0.000109482
0.00255073
-0.00015504
0.00258152
-0.000206844
0.00262324
-0.000261491
0.00267588
-0.000309705
0.00273749
-0.000341354
0.00280032
-0.000337718
0.00285423
-0.000289673
0.0028939
-0.000210435
0.00291541
-0.000107282
0.00291428
1.56126e-05
0.00288622
0.000149763
0.00283206
0.000272443
0.0027602
0.000354579
0.00268291
0.000378786
0.00261298
0.000340669
0.00256213
0.00024477
0.00254071
0.000102174
0.00255717
-6.9401e-05
0.00261386
-0.000237039
0.00269936
-0.000347913
0.00278656
-0.000349735
0.00284385
-0.000229938
0.00285244
-3.28452e-05
0.00281399
0.000169902
0.00274376
0.000323664
0.00265898
0.000408981
0.00257256
0.000429684
0.00249324
0.000394643
0.00242864
0.000307395
0.00238734
0.00016609
0.00237924
-2.89434e-05
0.00241568
-0.000262325
0.00250467
-0.000487761
0.00263762
-0.000626114
0.00278005
-0.000600386
0.00288289
-0.000395709
0.00291119
-8.54223e-05
0.00286468
0.000214555
0.00277096
0.000419684
0.00266224
0.00051062
0.00255917
0.000511698
0.00246922
0.000454011
0.00239442
0.000352755
0.00234202
0.00020196
0.00232949
-1.22412e-05
0.00237452
-0.000277883
0.00247706
-0.000531677
0.00261326
-0.000681146
0.00274638
-0.000659324
0.0028422
-0.000463497
0.00287935
-0.000155461
0.00285343
0.000168203
0.00277698
0.000417459
0.00267337
0.000545606
0.00256595
0.000558442
0.00247059
0.000489863
0.00239811
0.000364958
0.00236124
0.00018412
0.00237383
-5.52323e-05
0.00244041
-0.000322509
0.00254854
-0.000548175
0.00267215
-0.000657328
0.0027813
-0.000609524
0.00285136
-0.000416778
0.00286916
-0.000135892
0.00283537
0.000155752
0.00276226
0.000387816
0.00266786
0.000518944
0.00257012
0.000543026
0.00248449
0.00047664
0.00242516
0.000337646
0.00240567
0.00013666
0.00243454
-0.000108082
0.0025085
-0.000352438
0.00261116
-0.000533356
0.00271839
-0.000597167
0.00280599
-0.000524297
0.00285573
-0.000336008
0.00285912
-8.42606e-05
0.0028188
0.000167744
0.00274665
0.000365751
0.00265885
0.000478416
0.0025714
0.000498466
0.00249859
0.000433021
0.00245378
0.000292922
0.00244809
9.25724e-05
0.00248581
-0.000139308
0.00256011
-0.00035403
0.00265402
-0.000496421
0.00274603
-0.000527843
0.00281634
-0.000441448
0.00285118
-0.000262804
0.0028452
-3.90334e-05
0.002802
0.00017721
0.00273252
0.000343153
0.00265127
0.000435203
0.00257291
0.000447388
0.00251095
0.000382851
0.00247762
0.000248311
0.00248178
5.82572e-05
0.00252489
-0.000156004
0.00259832
-0.000346503
0.00268549
-0.000464309
0.00276716
-0.000479157
0.00282665
-0.000389841
0.00285303
-0.000222222
0.00284265
-1.88554e-05
0.00279925
0.000174396
0.00273262
0.000320912
0.00265586
0.000400776
0.00258265
0.000408947
0.002526
0.00034756
0.00249752
0.000221577
0.00250514
4.35998e-05
0.00254951
-0.000157686
0.00262207
-0.000338296
0.00270735
-0.000453434
0.00278786
-0.000474811
0.00284848
-0.000399525
0.00287913
-0.000248382
0.0028757
-5.76501e-05
0.00284023
0.000131391
0.00278027
0.000282754
0.00270701
0.000373999
0.00263299
0.000397891
0.00257064
0.000356729
0.00253162
0.000255392
0.00252534
0.000101395
0.00255575
-8.73957e-05
0.00261831
-0.000277526
0.00270059
-0.000427538
0.00278643
-0.000503905
0.00286089
-0.000493103
0.00291337
-0.000403565
0.00293854
-0.00025993
0.00293612
-9.45685e-05
0.00291009
6.02574e-05
0.0028677
0.000178594
0.0028181
0.000245299
0.00277079
0.000257374
0.00273435
0.000221476
0.00271564
0.000149724
0.00271866
5.70041e-05
0.00274296
-3.91402e-05
0.00278271
-0.000119063
0.00282781
-0.000164735
0.00286692
-0.000166043
0.00289081
-0.000124356
0.00289454
-5.28995e-05
0.00287778
2.92262e-05
0.00284445
9.99351e-05
0.0028008
0.000144524
0.00275484
0.000150199
0.00271418
0.000117211
0.00268317
6.1172e-05
-0.000101165
0.00250125
-1.40755e-05
0.00250525
-4.37992e-05
0.00251301
-7.9151e-05
0.00252616
-0.000122632
0.00254688
-0.000175754
0.00257778
-0.000237745
0.00262145
-0.000305161
0.00267877
-0.000367021
0.00274839
-0.000410983
0.00282044
-0.000409764
0.00288187
-0.000351107
0.00292736
-0.000255925
0.0029532
-0.00013312
0.00295361
1.52053e-05
0.00292185
0.000181521
0.00285807
0.000336219
0.00277276
0.000439889
0.00268103
0.000470523
0.00259784
0.000423861
0.00253663
0.00030598
0.00250977
0.000129033
0.00252928
-8.89138e-05
0.00260107
-0.00030883
0.0027118
-0.000458645
0.00282487
-0.000462801
0.00289785
-0.000302923
0.00290733
-4.23194e-05
0.00285788
0.000219355
0.00277136
0.000410177
0.00267028
0.000510061
0.00256955
0.000530413
0.00247773
0.000486465
0.00240067
0.000384462
0.00234341
0.000223344
0.00231506
-5.94645e-07
0.00233518
-0.000282444
0.00242314
-0.000575719
0.00257319
-0.00077616
0.00274576
-0.000772956
0.00288336
-0.00053331
0.00293866
-0.000140722
0.0029007
0.000252513
0.00279769
0.000522695
0.00267171
0.000636599
0.00255196
0.000631452
0.00244764
0.000558325
0.00235991
0.000440488
0.00229914
0.00026273
0.00228858
-1.68312e-06
0.00234633
-0.000335629
0.00246564
-0.000650991
0.00261597
-0.00083148
0.00275808
-0.00080143
0.0028578
-0.000563214
0.00289453
-0.000192188
0.00286499
0.000197735
0.00278248
0.000499974
0.00267061
0.000657477
0.00255334
0.000675707
0.00244833
0.000594873
0.00236963
0.00044366
0.00233318
0.000220566
0.00235298
-7.503e-05
0.00242979
-0.000399318
0.00254668
-0.000665061
0.00267563
-0.000786282
0.00278726
-0.000721154
0.00285782
-0.000487337
0.00287402
-0.000152094
0.00283606
0.000193709
0.00275667
0.000467207
0.00265513
0.000620486
0.0025507
0.000647457
0.00246027
0.000567069
0.00239985
0.000398062
0.00238407
0.000152448
0.00242015
-0.000144168
0.00250173
-0.000434021
0.00260968
-0.000641307
0.00271908
-0.000706559
0.00280646
-0.000611677
0.00285458
-0.000384133
0.00285525
-8.49296e-05
0.00281085
0.000212143
0.00273334
0.000443257
0.00263979
0.000571972
0.00254755
0.000590706
0.00247253
0.000508037
0.00242936
0.000336099
0.00242916
9.27673e-05
0.00247435
-0.000184499
0.00255526
-0.000434939
0.00265293
-0.000594092
0.00274556
-0.000620476
0.00281423
-0.000510111
0.0028462
-0.000294774
0.00283661
-2.9451e-05
0.00278913
0.000224695
0.00271479
0.000417493
0.00262876
0.000521235
0.00254692
0.00052922
0.00248431
0.000445466
0.00245409
0.000278526
0.00246467
4.76785e-05
0.0025153
-0.000206636
0.00259467
-0.000425872
0.00268456
-0.000554199
0.00276573
-0.000560323
0.00282248
-0.000446594
0.00284503
-0.00024477
0.00283036
-4.18685e-06
0.00278243
0.00022233
0.00271116
0.000392177
0.00263013
0.000481808
0.00255405
0.000485027
0.00249729
0.000404327
0.00247229
0.000246576
0.00248639
2.94946e-05
0.00253802
-0.000209313
0.00261599
-0.000416268
0.00270335
-0.000540791
0.0027827
-0.000554159
0.00284005
-0.000456877
0.00286653
-0.000274864
0.00285881
-4.99344e-05
0.00281921
0.000170998
0.00275524
0.000346721
0.0026782
0.00045104
0.0026012
0.000474889
0.0025378
0.000420127
0.00250085
0.000292349
0.00249991
0.000102329
0.00253726
-0.000124748
0.00260544
-0.000345708
0.00268961
-0.000511702
0.00277297
-0.000587271
0.00284159
-0.000561713
0.00288652
-0.000448495
0.00290403
-0.000277442
0.0028949
-8.54452e-05
0.0028637
9.1458e-05
0.00281795