/*--------------------------------*- C++ -*----------------------------------*\
  =========                 |
  \\      /  F ield         | OpenFOAM: The Open Source CFD Toolbox
   \\    /   O peration     | Website:  https://openfoam.org
    \\  /    A nd           | Version:  11
     \\/     M anipulation  |
\*---------------------------------------------------------------------------*/
FoamFile
{
    format      ascii;
    class       surfaceScalarField;
    location    "18.092619";
    object      phi;
}
// * * * * * * * * * * * * * * * * * * * * * * * * * * * * * * * * * * * * * //

dimensions      [0 3 -1 0 0 0 0];

internalField   nonuniform List<scalar> 
14638
(
0.00250269
-2.68715e-06
0.00251084
-8.14868e-06
0.00252457
-1.37361e-05
0.00254387
-1.9302e-05
0.00256848
-2.46027e-05
0.00259769
-2.92116e-05
0.00263022
-3.253e-05
0.00266395
-3.37287e-05
0.0026959
-3.19567e-05
0.00272265
-2.67457e-05
0.00274077
-1.81219e-05
0.00274886
-8.08532e-06
0.0027475
1.35842e-06
0.00273941
8.08838e-06
0.00272919
1.02177e-05
0.00272177
7.42279e-06
0.00272067
1.09804e-06
0.00272668
-6.00875e-06
0.00273713
-1.04522e-05
0.00274634
-9.20784e-06
0.00274762
-1.28337e-06
0.00273611
1.15127e-05
0.00271054
2.55658e-05
0.00267329
3.72587e-05
0.00262918
4.41033e-05
0.00258433
4.48528e-05
0.00254518
3.91484e-05
0.00251797
2.72091e-05
0.00250811
9.86569e-06
0.00251916
-1.10582e-05
0.00255126
-3.20961e-05
0.00259927
-4.80112e-05
0.00265258
-5.33092e-05
0.00269771
-4.51295e-05
0.0027231
-2.53912e-05
0.00272317
-6.35843e-08
0.00269925
2.39114e-05
0.0026577
4.15526e-05
0.00260695
5.07556e-05
0.00255552
5.14223e-05
0.00251135
4.41753e-05
0.00248173
2.96227e-05
0.00247319
8.53342e-06
0.00249037
-1.71777e-05
0.00253356
-4.31904e-05
0.00259629
-6.27306e-05
0.00266515
-6.88585e-05
0.00272333
-5.81849e-05
0.00275662
-3.32895e-05
0.00275835
-1.72516e-06
0.00273066
2.76882e-05
0.00268206
4.85992e-05
0.00262345
5.86092e-05
0.00256517
5.8283e-05
0.00251595
4.92176e-05
0.00248325
3.26978e-05
0.00247354
9.71182e-06
0.00249133
-1.77855e-05
0.00253673
-4.53999e-05
0.00260304
-6.63134e-05
0.00267661
-7.35643e-05
0.00274013
-6.35236e-05
0.00277837
-3.8238e-05
0.00278326
-4.89324e-06
0.00275597
2.72918e-05
0.00270517
5.07999e-05
0.00264306
6.21065e-05
0.00258156
6.15014e-05
0.00253035
5.12117e-05
0.00249688
3.34737e-05
0.0024869
9.97866e-06
0.00250395
-1.70563e-05
0.00254742
-4.34653e-05
0.00261061
-6.31902e-05
0.00268092
-7.0309e-05
0.00274274
-6.18254e-05
0.0027821
-3.93526e-05
0.00279078
-8.6831e-06
0.00276843
2.23487e-05
0.00272186
4.65706e-05
0.00266227
5.95888e-05
0.00260184
6.04354e-05
0.00255115
5.06815e-05
0.00251831
3.28443e-05
0.00250885
9.46385e-06
0.0025253
-1.64595e-05
0.00256591
-4.06043e-05
0.00262354
-5.76264e-05
0.00268647
-6.29356e-05
0.00274124
-5.47704e-05
0.00277634
-3.51007e-05
0.00278521
-8.87063e-06
0.00276746
1.77542e-05
0.00272826
3.91982e-05
0.00267655
5.17144e-05
0.00262274
5.38017e-05
0.00257683
4.59187e-05
0.002547
2.98287e-05
0.00253884
8.15666e-06
0.00255437
-1.55298e-05
0.00259104
-3.66657e-05
0.00264151
-5.04704e-05
0.00269502
-5.35181e-05
0.00274018
-4.51519e-05
0.00276795
-2.77719e-05
0.0027738
-5.85542e-06
0.00275819
1.56166e-05
0.00272566
3.25262e-05
0.00268338
4.22823e-05
0.00263957
4.38061e-05
0.00260234
3.72296e-05
0.00257866
2.36875e-05
0.00257329
5.36619e-06
0.00258767
-1.4379e-05
0.00261901
-3.13463e-05
0.00266053
-4.15208e-05
0.00270298
-4.24479e-05
0.00273715
-3.41704e-05
0.00275631
-1.91615e-05
0.00275764
-1.32841e-06
0.00274232
1.53268e-05
0.00271455
2.77633e-05
0.00268026
3.42888e-05
0.0026459
3.43658e-05
0.00261764
2.82555e-05
0.00260075
1.68937e-05
0.00259868
2.06813e-06
0.00261212
-1.34401e-05
0.00263834
-2.62168e-05
0.0026715
-3.31621e-05
0.0027041
-3.2595e-05
0.00272899
-2.48902e-05
0.00274127
-1.22894e-05
0.00273931
1.9671e-06
0.00272459
1.47196e-05
0.00270089
2.3694e-05
0.00267314
2.77506e-05
0.00264647
2.66708e-05
0.00262564
2.08345e-05
0.00261452
1.11179e-05
0.00261547
-9.46486e-07
0.00262854
-1.30692e-05
0.00265107
-2.2536e-05
0.00267807
-2.69965e-05
0.0027034
-2.533e-05
0.00272149
-1.80965e-05
0.00272882
-7.32046e-06
0.00272457
4.24711e-06
0.00271056
1.4013e-05
0.00269036
2.01924e-05
0.00266839
2.1975e-05
0.00264902
1.93655e-05
0.00263623
1.27966e-05
0.00263299
3.23927e-06
0.00264114
-8.15264e-06
0.00266004
-1.8896e-05
0.00268784
-2.78045e-05
0.00271828
-3.0444e-05
0.00274997
-3.16865e-05
-1.68004e-05
0.00250268
-5.36356e-06
0.0025108
-1.62733e-05
0.00252452
-2.74562e-05
0.00254386
-3.86368e-05
0.00256859
-4.93386e-05
0.00259809
-5.87145e-05
0.00263112
-6.55601e-05
0.00266556
-6.81624e-05
0.00269835
-6.47464e-05
0.00272585
-5.4247e-05
0.00274436
-3.66284e-05
0.00275234
-1.60738e-05
0.00275038
3.32407e-06
0.00274128
1.71848e-05
0.00272997
2.15319e-05
0.00272174
1.56502e-05
0.00272045
2.38985e-06
0.00272703
-1.2592e-05
0.00273871
-2.21291e-05
0.00274936
-1.986e-05
0.00275174
-3.66551e-06
0.00274059
2.26669e-05
0.00271458
5.15704e-05
0.00267628
7.55635e-05
0.00263078
8.96063e-05
0.00258438
9.12524e-05
0.00254369
7.98336e-05
0.00251513
5.57683e-05
0.00250438
2.06142e-05
0.00251543
-2.21016e-05
0.00254873
-6.54006e-05
0.00259916
-9.8435e-05
0.00265548
-0.000109634
0.00270325
-9.28949e-05
0.00273006
-5.2205e-05
0.00273008
-7.97323e-08
0.00270496
4.90281e-05
0.00266159
8.49243e-05
0.00260883
0.000103513
0.00255543
0.000104827
0.00250935
9.0248e-05
0.00247805
6.09284e-05
0.00246841
1.81682e-05
0.00248566
-3.44273e-05
0.00253057
-8.81011e-05
0.00259654
-0.0001287
0.00266925
-0.000141565
0.00273061
-0.000119541
0.00276542
-6.8105e-05
0.0027668
-3.10885e-06
0.00273737
5.71233e-05
0.00268637
9.95981e-05
0.00262532
0.000119662
0.00256481
0.00011879
0.00251359
0.000100435
0.00247911
6.71834e-05
0.00246802
2.07965e-05
0.00248531
-3.50751e-05
0.00253159
-9.16795e-05
0.00260033
-0.000135047
0.0026774
-0.000150638
0.0027445
-0.000130628
0.00278526
-7.89929e-05
0.00279091
-1.05448e-05
0.00276264
5.55653e-05
0.0027097
0.000103732
0.00264506
0.000126751
0.00258112
0.000125443
0.00252771
0.000104618
0.00249229
6.88993e-05
0.00248076
2.15046e-05
0.0024971
-3.33976e-05
0.00254111
-8.74771e-05
0.00260615
-0.000128227
0.00267912
-0.000143278
0.00274364
-0.00012635
0.00278504
-8.07529e-05
0.00279474
-1.83772e-05
0.0027723
4.47832e-05
0.00272474
9.41343e-05
0.00266356
0.000120766
0.00260125
0.000122748
0.00254866
0.000103274
0.00251415
6.73534e-05
0.00250367
1.9943e-05
0.00252021
-3.29983e-05
0.00256217
-8.2562e-05
0.00262208
-0.000117543
0.00268749
-0.000128338
0.00274411
-0.000111399
0.00278004
-7.10223e-05
0.00278872
-1.75532e-05
0.00277008
3.63962e-05
0.00272964
7.9631e-05
0.00267659
0.000104765
0.00262147
0.00010892
0.00257436
9.303e-05
0.00254369
6.05046e-05
0.00253539
1.6452e-05
0.00255182
-3.19547e-05
0.0025904
-7.52534e-05
0.00264335
-0.000103413
0.00269912
-0.000109289
0.00274561
-9.16467e-05
0.00277351
-5.56694e-05
0.00277841
-1.07574e-05
0.00276118
3.2847e-05
0.00272685
6.68553e-05
0.00268293
8.6203e-05
0.00263785
8.88937e-05
0.0025998
7.52716e-05
0.00257592
4.75734e-05
0.00257116
1.01264e-05
0.00258704
-3.02638e-05
0.0026206
-6.49074e-05
0.00266453
-8.54472e-05
0.00270891
-8.68278e-05
0.00274401
-6.9274e-05
0.00276293
-3.80739e-05
0.002763
-1.39971e-06
0.0027458
3.25205e-05
0.00271601
5.75534e-05
0.00267991
7.0393e-05
0.00264419
7.00854e-05
0.00261521
5.7233e-05
0.00259837
3.37324e-05
0.00259724
3.2022e-06
0.00261244
-2.86456e-05
0.00264096
-5.47287e-05
0.00267641
-6.86194e-05
0.00271072
-6.69032e-05
0.00273633
-5.04986e-05
0.00274823
-2.41932e-05
0.00274496
5.24031e-06
0.00272838
3.13043e-05
0.00270266
4.94071e-05
0.00267309
5.73231e-05
0.00264506
5.46999e-05
0.00262354
4.23583e-05
0.00261256
2.20944e-05
0.00261456
-2.94219e-06
0.00262948
-2.79942e-05
0.00265434
-4.73937e-05
0.0026836
-5.62556e-05
0.00271059
-5.23229e-05
0.00272938
-3.68857e-05
0.00273633
-1.42687e-05
0.00273081
9.76817e-06
0.00271494
2.98774e-05
0.00269269
4.24423e-05
0.00266879
4.58765e-05
0.00264791
4.02501e-05
0.00263423
2.64737e-05
0.00263094
6.52513e-06
0.00263998
-1.71898e-05
0.00266063
-3.95472e-05
0.00269073
-5.79001e-05
0.00272353
-6.32496e-05
0.00275728
-6.54314e-05
-3.4278e-05
0.00250265
-8.01767e-06
0.00251072
-2.4342e-05
0.0025244
-4.11346e-05
0.00254378
-5.80197e-05
0.00256876
-7.43177e-05
0.00259882
-8.87762e-05
0.00263284
-9.95753e-05
0.00266869
-0.000104009
0.00270317
-9.9234e-05
0.00273223
-8.33051e-05
0.00275154
-5.59373e-05
0.00275936
-2.38881e-05
0.00275618
6.4965e-06
0.00274507
2.82969e-05
0.00273158
3.50211e-05
0.00272181
2.54268e-05
0.00272023
3.96293e-06
0.00272809
-2.0448e-05
0.00274232
-3.63574e-05
0.00275587
-3.34172e-05
0.00276032
-8.11456e-06
0.00274961
3.33764e-05
0.00272239
7.87913e-05
0.00268169
0.000116263
0.0026332
0.000138097
0.00258367
0.000140782
0.00254003
0.000123474
0.00250903
8.67718e-05
0.00249687
3.27696e-05
0.0025083
-3.353e-05
0.00254445
-0.000101544
0.00260007
-0.000154055
0.00266264
-0.000172207
0.00271561
-0.000145865
0.00274485
-8.14494e-05
0.0027441
6.72821e-07
0.00271585
7.72768e-05
0.00266828
0.000132496
0.00261123
0.000160564
0.00255385
0.000162203
0.00250423
0.000139869
0.00247001
9.5155e-05
0.00245872
2.94538e-05
0.00247662
-5.23324e-05
0.00252534
-0.000136812
0.00259804
-0.000201402
0.00267869
-0.000222213
0.00274651
-0.000187361
0.00278411
-0.000105706
0.0027841
-3.10331e-06
0.00275027
9.0956e-05
0.00269371
0.000156161
0.00262736
0.000186009
0.00256239
0.000183754
0.00250745
0.000155378
0.00246973
0.000104901
0.00245605
3.44756e-05
0.00247214
-5.11639e-05
0.00251967
-0.000139202
0.00259263
-0.00020801
0.00267625
-0.000234259
0.00275037
-0.000204752
0.00279637
-0.000124988
0.00280389
-1.80682e-05
0.00277393
8.55269e-05
0.00271686
0.000160807
0.00264718
0.000196427
0.00257847
0.000194157
0.00252095
0.00016213
0.00248216
0.000107688
0.00246842
3.52503e-05
0.00248454
-4.95229e-05
0.00253099
-0.000133923
0.00260073
-0.000197966
0.00267922
-0.000221773
0.0027484
-0.000195523
0.00279247
-0.000124827
0.00280261
-2.85188e-05
0.00277874
6.86581e-05
0.00272845
0.000144425
0.00266388
0.000185335
0.00259802
0.000188605
0.00254217
0.000159127
0.00250525
0.000104271
0.00249403
3.11598e-05
0.00251225
-5.12171e-05
0.00255832
-0.00012863
0.00262371
-0.000182931
0.00269419
-0.000198816
0.00275392
-0.000171134
0.0027903
-0.000107401
0.00279713
-2.43811e-05
0.00277526
5.82587e-05
0.00273124
0.000123659
0.00267487
0.000161129
0.00261701
0.000166779
0.00256792
0.000142123
0.00253641
9.20168e-05
0.00252902
2.38439e-05
0.00254846
-5.14042e-05
0.00259184
-0.000118631
0.00265014
-0.000161715
0.00271028
-0.000169421
0.00275888
-0.000140256
0.00278621
-8.29906e-05
0.00278826
-1.28127e-05
0.00276689
5.42168e-05
0.00272821
0.000105537
0.00268054
0.00013387
0.00263277
0.000136664
0.00259337
0.000114674
0.00256971
7.12296e-05
0.00256703
1.28101e-05
0.00258679
-5.00219e-05
0.00262537
-0.000103489
0.00267427
-0.000134349
0.00272228
-0.000134832
0.00275874
-0.000105738
0.00277653
-5.58645e-05
0.00277346
1.67571e-06
0.00275197
5.40059e-05
0.00271771
9.18121e-05
0.00267775
0.000110349
0.00263934
0.000108503
0.00260918
8.73935e-05
0.00259294
4.99693e-05
0.0025943
1.8454e-06
0.00261361
-4.79555e-05
0.00264705
-8.81716e-05
0.00268711
-0.000108685
0.00272458
-0.000104372
0.00275119
-7.71086e-05
0.00276184
-3.48386e-05
0.0027555
1.15795e-05
0.00273482
5.19793e-05
0.00270485
7.93843e-05
0.00267156
9.06076e-05
0.00264092
8.53412e-05
0.0026183
6.49824e-05
0.00260802
3.23681e-05
0.00261259
-7.50478e-06
0.0026316
-4.70049e-05
0.00266125
-7.7046e-05
0.00269492
-8.99265e-05
0.00272492
-8.23205e-05
0.00274468
-5.66432e-05
0.00275047
-2.00617e-05
0.00274207
1.81712e-05
0.00272228
4.96615e-05
0.00269584
6.88876e-05
0.00266814
7.35717e-05
0.00264442
6.39718e-05
0.00262931
4.15835e-05
0.00262635
9.4822e-06
0.00263757
-2.84062e-05
0.00266201
-6.39923e-05
0.0026967
-9.25913e-05
0.00273401
-0.000100554
0.00277132
-0.000102744
-5.26833e-05
0.00250262
-1.06336e-05
0.00251059
-3.23123e-05
0.00252418
-5.47256e-05
0.0025436
-7.74407e-05
0.0025689
-9.96235e-05
0.00259977
-0.000119646
0.00263527
-0.000135068
0.00267329
-0.000142027
0.00271044
-0.000136392
0.00274198
-0.000114844
0.00276259
-7.65412e-05
0.00277017
-3.14766e-05
0.00276514
1.15287e-05
0.00275086
4.2582e-05
0.00273391
5.19729e-05
0.00272162
3.77138e-05
0.00271952
6.06399e-06
0.00272934
-3.02698e-05
0.00274762
-5.46377e-05
0.00276582
-5.16178e-05
0.00277356
-1.58512e-05
0.00276351
4.3421e-05
0.00273431
0.000107994
0.00268981
0.000160766
0.00263665
0.000191249
0.00258231
0.000195125
0.00253417
0.00017162
0.00249942
0.000121512
0.00248507
4.71216e-05
0.00249705
-4.55083e-05
0.00253764
-0.000142134
0.00260152
-0.00021793
0.00267403
-0.000244719
0.00273519
-0.000207026
0.00276809
-0.000114349
0.00276583
2.93029e-06
0.00273236
0.000110748
0.00267802
0.000186836
0.00261425
0.000224333
0.00255084
0.00022561
0.00249595
0.000194766
0.00245733
0.000133772
0.00244316
4.36284e-05
0.00246081
-6.99881e-05
0.00251326
-0.000189257
0.00259438
-0.000282523
0.00268682
-0.000314659
0.002766
-0.000266539
0.00281007
-0.00014977
0.00280954
-2.57359e-06
0.00276953
0.000130962
0.00270435
0.000221345
0.0026297
0.000260655
0.0025579
0.000255553
0.00249731
0.000215972
0.00245444
0.000147764
0.00243624
5.26775e-05
0.0024499
-6.48185e-05
0.00249901
-0.000188314
0.00257818
-0.000287184
0.0026711
-0.000327174
0.00275484
-0.000288497
0.00280814
-0.00017829
0.00281886
-2.87855e-05
0.00278748
0.000116905
0.00272539
0.000222899
0.002649
0.000272817
0.00257354
0.000269615
0.0025101
0.000225576
0.00246668
0.000151104
0.00245061
5.13169e-05
0.00246811
-6.70193e-05
0.00252009
-0.000185902
0.0025981
-0.000275977
0.00268486
-0.000308529
0.00275975
-0.000270418
0.00280586
-0.000170933
0.00281466
-3.73253e-05
0.00278717
9.61506e-05
0.00273211
0.00019949
0.00266244
0.000255006
0.00259168
0.000259359
0.00253166
0.000219152
0.00249218
0.000143754
0.00248123
4.21071e-05
0.00250339
-7.3381e-05
0.00255658
-0.000181816
0.00263029
-0.000256642
0.00270776
-0.00027629
0.0027712
-0.000234571
0.00280727
-0.000143469
0.00281037
-2.74817e-05
0.00278281
8.58147e-05
0.0027327
0.000173768
0.00267098
0.00022285
0.00260902
0.000228742
0.0025574
0.000193745
0.00252548
0.000123938
0.00252048
2.88381e-05
0.00254531
-7.62314e-05
0.0025961
-0.000169419
0.00266194
-0.000227558
0.00272769
-0.000235173
0.00277859
-0.000191154
0.00280449
-0.000108888
0.00280202
-1.03478e-05
0.00277435
8.18953e-05
0.00272907
0.000150809
0.00267576
0.000187183
0.00262406
0.000188365
0.00258292
0.000155811
0.00256014
9.4014e-05
0.00256117
1.17803e-05
0.00258711
-7.59611e-05
0.00263309
-0.000149476
0.00268882
-0.000190078
0.00274139
-0.000187399
0.00277916
-0.000143504
0.00279488
-7.15891e-05
0.00278705
9.50583e-06
0.0027593
8.17544e-05
0.00271859
0.000132528
0.00267311
0.00015583
0.00263092
0.000150691
0.00259933
0.000118985
0.0025844
6.48994e-05
0.00258984
-3.59798e-06
0.0026154
-7.35187e-05
0.00265593
-0.000128703
0.00270224
-0.000154994
0.00274366
-0.000145789
0.00277114
-0.000104594
0.00277961
-4.33022e-05
0.0027687
2.24844e-05
0.00274214
7.85389e-05
0.00270612
0.00011541
0.00266764
0.000129088
0.00263346
0.000119523
0.00260957
8.88707e-05
0.00260071
4.12276e-05
0.00260934
-1.61408e-05
0.00263442
-7.20765e-05
0.00267081
-0.000113445
0.00271036
-0.000129471
0.00274405
-0.000116015
0.00276464
-7.7233e-05
0.00276842
-2.38413e-05
0.00275576
3.08374e-05
0.0027304
7.50216e-05
0.00269809
0.000101195
0.00266518
0.000106483
0.00263768
9.14693e-05
0.00262089
5.8375e-05
0.00261883
1.15444e-05
0.00263353
-4.31091e-05
0.00266354
-9.40015e-05
0.00270456
-0.000133611
0.00274771
-0.000143702
0.0027892
-0.000144238
-7.17816e-05
0.00250256
-1.31898e-05
0.00251037
-4.01246e-05
0.0025238
-6.81531e-05
0.0025432
-9.68475e-05
0.00256887
-0.00012529
0.00260076
-0.000151533
0.00263821
-0.000172526
0.00267922
-0.000183038
0.00272018
-0.000177349
0.0027553
-0.000149962
0.00277777
-9.90084e-05
0.00278505
-3.87558e-05
0.00277735
1.92244e-05
0.00275847
6.14576e-05
0.0027365
7.39514e-05
0.00272056
5.36481e-05
0.0027177
8.92795e-06
0.00273039
-4.29591e-05
0.00275461
-7.88577e-05
0.00277962
-7.66298e-05
0.00279213
-2.83592e-05
0.00278297
5.25806e-05
0.00275083
0.000140129
0.0027009
0.000210702
0.00264124
0.000250906
0.00258027
0.00025609
0.00252592
0.00022597
0.00248592
0.000161521
0.00246827
6.47656e-05
0.00248083
-5.80663e-05
0.00252785
-0.000189158
0.00260395
-0.000294025
0.00269099
-0.000331759
0.00276369
-0.000279726
0.00280125
-0.000151911
0.00279625
7.92997e-06
0.00275497
0.000152034
0.00269095
0.000250856
0.00261788
0.0002974
0.00254635
0.000297136
0.00248439
0.000256725
0.00243942
0.000178742
0.00241954
6.35134e-05
0.00243312
-8.35683e-05
0.00248573
-0.000241874
0.00257412
-0.000370908
0.00268103
-0.00042157
0.00277762
-0.000363133
0.00283515
-0.000207293
0.00283889
-6.31361e-06
0.00279379
0.000176055
0.00271823
0.000296911
0.00263253
0.000346355
0.00255136
0.000336725
0.00248288
0.000284445
0.00243276
0.000197883
0.00240866
7.67809e-05
0.00242052
-7.66773e-05
0.00247424
-0.000242035
0.00256357
-0.000376514
0.00266854
-0.000432141
0.00276247
-0.000382428
0.00282208
-0.000237901
0.00283476
-4.14616e-05
0.00280116
0.000150501
0.00273344
0.000290615
0.00264947
0.000356791
0.00256602
0.000353068
0.00249535
0.000296245
0.00244674
0.000199709
0.00242936
6.8698e-05
0.00245094
-8.85988e-05
0.00251191
-0.000246869
0.00260103
-0.000365103
0.00269751
-0.000405
0.0027781
-0.000351016
0.00282497
-0.000217801
0.00283029
-4.2647e-05
0.00279674
0.000129708
0.00273474
0.000261487
0.00265838
0.000331363
0.00258174
0.000336
0.0025172
0.000283692
0.0024757
0.000185253
0.00246664
5.11711e-05
0.00249506
-0.000101798
0.00255751
-0.000244266
0.00264082
-0.000339957
0.00272561
-0.000361075
0.0027924
-0.000301366
0.00282739
-0.000178458
0.00282557
-2.56659e-05
0.00279074
0.00012065
0.00273281
0.000231698
0.0026642
0.000291458
0.00259715
0.000295795
0.00254282
0.00024807
0.0025113
0.000155465
0.00251038
2.97559e-05
0.0025426
-0.000108456
0.00260241
-0.000229232
0.00267653
-0.00030167
0.00274777
-0.000306419
0.00280033
-0.000243712
0.00282396
-0.000132517
0.00281598
-2.36689e-06
0.00278082
0.000117049
0.0027277
0.000203932
0.00266761
0.000247278
0.00261126
0.000244715
0.00256838
0.000198686
0.00254735
0.000115047
0.00255371
5.41831e-06
0.00258767
-0.000109924
0.00264248
-0.000204286
0.00270563
-0.000253229
0.00276256
-0.000244328
0.00280092
-0.000181861
0.00281363
-8.4303e-05
0.0028
2.31406e-05
0.00276488
0.00011687
0.00271663
0.00018078
0.00266473
0.000207728
0.00261829
0.000197132
0.00258544
0.000151841
0.00257274
7.75914e-05
0.00258381
-1.46649e-05
0.00261731
-0.000107014
0.0026662
-0.000177596
0.00271929
-0.00020808
0.00276446
-0.000190961
0.00279213
-0.000132263
0.00279746
-4.86335e-05
0.00278093
3.90135e-05
0.00274741
0.000112056
0.00270435
0.000158475
0.00265991
0.000173529
0.00262184
0.000157591
0.00259695
0.000113759
0.00259045
4.77292e-05
0.00260461
-3.02977e-05
0.00263726
-0.000104735
0.00268154
-0.000157719
0.00272741
-0.00017534
0.00276458
-0.000153186
0.0027853
-9.79611e-05
0.00278612
-2.46591e-05
0.00276814
4.88147e-05
0.00273616
0.000107004
0.00269704
0.000140315
0.00265818
0.000145341
0.00262657
0.000123081
0.00260833
7.66222e-05
0.00260801
1.18564e-05
0.0026275
-6.25991e-05
0.00266443
-0.000130923
0.00271267
-0.000181855
0.00276192
-0.000192957
0.00280705
-0.00018936
-9.07206e-05
0.00250247
-1.5657e-05
0.00251004
-4.7696e-05
0.00252319
-8.13001e-05
0.00254247
-0.000116129
0.00256846
-0.000151278
0.00260151
-0.000184583
0.0026414
-0.000212422
0.00268631
-0.000227945
0.00273243
-0.000223472
0.00277252
-0.000190047
0.00279761
-0.000124101
0.00280461
-4.5757e-05
0.00279339
3.04417e-05
0.00276822
8.66285e-05
0.00273923
0.000102943
0.00271807
7.48051e-05
0.00271389
1.31124e-05
0.00273037
-5.94351e-05
0.00276282
-0.000111316
0.00279741
-0.000111214
0.00281662
-4.75668e-05
0.00280868
6.05208e-05
0.0027725
0.000176304
0.00271524
0.000267958
0.00264701
0.000319141
0.00257744
0.000325662
0.00251499
0.000288415
0.00246789
0.000208624
0.00244551
8.71413e-05
0.00245853
-7.10846e-05
0.00251424
-0.000244865
0.00260735
-0.000387141
0.00271488
-0.000439284
0.00280357
-0.000368413
0.00284682
-0.000195166
0.00283699
1.77634e-05
0.0027843
0.000204719
0.00270705
0.000328111
0.0026219
0.00038255
0.00254023
0.000378809
0.00246933
0.000327618
0.00241517
0.000232907
0.00238503
9.36545e-05
0.00238956
-8.81042e-05
0.00243961
-0.000291924
0.00253561
-0.000466906
0.00265904
-0.000544999
0.00277616
-0.000480254
0.00285189
-0.000283025
0.00286544
-1.98604e-05
0.00281909
0.000222405
0.00273391
0.000382089
0.00263566
0.000444603
0.0025428
0.000429588
0.00246418
0.000363072
0.00240535
0.000256709
0.00237606
0.000106073
0.0023897
-9.03238e-05
0.00245305
-0.000305376
0.0025564
-0.000479867
0.00267468
-0.000550419
0.00277754
-0.000485296
0.00284059
-0.000300948
0.002852
-5.28722e-05
0.00281381
0.000188693
0.00273928
0.000365145
0.00264719
0.000448884
0.00255527
0.000444991
0.00247704
0.000374473
0.00242378
0.000252966
0.00240699
8.54901e-05
0.00243526
-0.000116866
0.00250706
-0.000318676
0.00260756
-0.000465601
0.00271283
-0.000510274
0.00279802
-0.000436205
0.00284479
-0.000264566
0.00284576
-4.36204e-05
0.00280501
0.000170456
0.00273485
0.000331654
0.00265081
0.000415403
0.00256779
0.000419018
0.00249897
0.000352514
0.00245656
0.00022766
0.00245111
5.66204e-05
0.00248732
-0.000138006
0.0025595
-0.000316447
0.00265161
-0.000432066
0.00274222
-0.00045169
0.00281109
-0.000370234
0.00284438
-0.000211751
0.00283754
-1.88269e-05
0.00279537
0.000162823
0.00272932
0.000297747
0.00265338
0.000367404
0.00258098
0.000368197
0.00252426
0.00030478
0.00249419
0.000185543
0.00249882
2.51232e-05
0.00253959
-0.000149227
0.00260858
-0.000298221
0.00269003
-0.000383122
0.00276529
-0.000381672
0.00281816
-0.000296591
0.00283876
-0.000153113
0.00282506
1.13332e-05
0.00278249
0.000159619
0.00272156
0.000264867
0.00265465
0.000314189
0.00259375
0.000305614
0.00254966
0.00024277
0.00253147
0.000133244
0.00254451
-7.62922e-06
0.00258749
-0.000152897
0.0026512
-0.000268003
0.00272092
-0.000322946
0.00278086
-0.000304269
0.00281854
-0.000219538
0.00282741
-9.31692e-05
0.0028076
4.29508e-05
0.00276504
0.00015943
0.00270928
0.000236534
0.00265107
0.000265943
0.00260068
0.000247519
0.00256727
0.000185254
0.00255797
8.68885e-05
0.00257597
-3.26618e-05
0.0026183
-0.000149348
0.00267563
-0.000234925
0.00273473
-0.000267184
0.00278245
-0.000238679
0.00280912
-0.00015893
0.00281045
-4.99689e-05
0.00278781
6.1653e-05
0.00274713
0.000152739
0.00269699
0.000208615
0.00264671
0.000223811
0.00260514
0.000199158
0.00258004
0.000138857
0.00257708
5.06947e-05
0.00259801
-5.12294e-05
0.00263909
-0.000145814
0.00269129
-0.000209919
0.00274276
-0.000226811
0.00278225
-0.000192676
0.00280194
-0.000117649
0.00279887
-2.15896e-05
0.00277499
7.26988e-05
0.00273606
0.000145927
0.00269001
0.000186368
0.00264528
0.000190068
0.00260993
0.000158434
0.00259101
9.55469e-05
0.00259358
9.2817e-06
0.00261902
-8.80332e-05
0.00266354
-0.000175443
0.00271882
-0.000237145
0.00277323
-0.000247365
0.0028203
-0.000236427
-0.000108132
0.00250234
-1.79969e-05
0.00250956
-5.4915e-05
0.00252226
-9.39971e-05
0.00254122
-0.000135095
0.00256739
-0.000177451
0.00260166
-0.000218847
0.00264442
-0.000255186
0.00269422
-0.000277747
0.0027472
-0.000276446
0.00279399
-0.000236841
0.00282259
-0.000152701
0.00282927
-5.24319e-05
0.00281339
4.63161e-05
0.00277975
0.000120266
0.00274127
0.000141431
0.002713
0.000103076
0.00270697
1.91352e-05
0.00272857
-8.10313e-05
0.00277234
-0.000155091
0.00282013
-0.000159001
0.00284845
-7.58839e-05
0.00284193
6.70366e-05
0.00280009
0.000218141
0.00273311
0.000334941
0.00265391
0.000398348
0.00257358
0.000405988
0.00250099
0.000361009
0.0024447
0.000264912
0.00241564
0.000116196
0.00242724
-8.26773e-05
0.00248968
-0.000307311
0.00259997
-0.000497427
0.00273347
-0.000572783
0.0028474
-0.000482348
0.00290308
-0.000250848
0.00288902
3.18266e-05
0.00282128
0.000272456
0.00272641
0.000422985
0.002626
0.000482961
0.00253219
0.000472619
0.00245027
0.000409537
0.00238343
0.000299747
0.00233926
0.000137825
0.00233447
-8.33183e-05
0.00238685
-0.000344302
0.00249667
-0.000576722
0.00263883
-0.000687166
0.00277373
-0.000615155
0.00286384
-0.000373131
0.00288636
-4.23786e-05
0.00284087
0.000267896
0.00274828
0.000474678
0.00263788
0.000555004
0.0025321
0.00053537
0.00244181
0.000453361
0.00237431
0.000324206
0.00234262
0.000137766
0.00236247
-0.000110178
0.00243853
-0.000381432
0.00255593
-0.000597269
0.00268541
-0.000679899
0.00279486
-0.000594745
0.00285948
-0.000365572
0.00286795
-6.13395e-05
0.00282365
0.000232987
0.0027414
0.000447399
0.00264095
0.000549331
0.00254074
0.000545201
0.00245561
0.000459611
0.00239915
0.000309417
0.00238495
9.96943e-05
0.00242119
-0.000153107
0.00250324
-0.000400723
0.00261272
-0.000575081
0.00272387
-0.000621427
0.00281162
-0.000523953
0.0028578
-0.000310752
0.0028551
-4.09153e-05
0.00280804
0.000217513
0.00273022
0.000409481
0.00263867
0.000506945
0.00254955
0.000508141
0.00247722
0.000424844
0.00243524
0.000269642
0.00243472
5.71393e-05
0.00247905
-0.00018234
0.00255976
-0.000397155
0.00265827
-0.000530573
0.00275209
-0.000545507
0.00282116
-0.000439303
0.00285218
-0.000242779
0.00284095
-7.5915e-06
0.00279265
0.000211122
0.00271962
0.000370771
0.00263714
0.000449884
0.00256005
0.000445292
0.00250181
0.000363016
0.00247432
0.000213032
0.00248546
1.39902e-05
0.00253479
-0.000198561
0.00261168
-0.00037511
0.00269826
-0.000469701
0.00277518
-0.000458592
0.00282668
-0.000348098
0.00284363
-0.000170054
0.00282461
3.0353e-05
0.00277564
0.000208583
0.00270806
0.000332451
0.00263537
0.000386879
0.00257088
0.000370107
0.00252666
0.000286984
0.00251249
0.00014742
0.00253307
-2.82104e-05
0.00258495
-0.00020478
0.00265629
-0.000339342
0.00273049
-0.000397147
0.00279131
-0.000365087
0.00282678
-0.000255014
0.00283121
-9.75939e-05
0.00280549
6.86683e-05
0.00275631
0.000208615
0.00269407
0.000298766
0.00263058
0.000329435
0.00257733
0.00030077
0.00254459
0.000217992
0.00253995
9.15267e-05
0.00256572
-5.84327e-05
0.00261679
-0.000200411
0.00268134
-0.000299477
0.00274454
-0.000330387
0.00279286
-0.000286996
0.00281713
-0.000183197
0.00281387
-4.67125e-05
0.00278526
9.02649e-05
0.00273804
0.00019996
0.00268168
0.000264977
0.00262651
0.000278973
0.00258254
0.000243129
0.00255851
0.000162888
0.00256036
4.8843e-05
0.0025889
-7.97634e-05
0.00263829
-0.000195209
0.00269728
-0.000268903
0.00275255
-0.000282085
0.00279252
-0.000232643
0.00280979
-0.000134923
0.00280215
-1.39499e-05
0.00277233
0.000102523
0.00272689
0.000191367
0.00267459
0.000238668
0.00262485
0.000239811
0.0025868
0.000196476
0.00256846
0.000113886
0.00257518
2.56575e-06
0.0026073
-0.000120158
0.00265918
-0.000227314
0.00272014
-0.000298111
0.00277764
-0.000304865
0.00282421
-0.000282993
-0.000122434
0.00250216
-2.01604e-05
0.00250889
-6.16368e-05
0.0025209
-0.000106012
0.00253926
-0.000153457
0.00256534
-0.000203534
0.00260073
-0.000254233
0.00264671
-0.000301165
0.00270252
-0.00033356
0.00276451
-0.000338433
0.00282033
-0.000292664
0.00285374
-0.000186104
0.00286034
-5.90387e-05
0.0028386
6.80587e-05
0.00279371
0.000165159
0.00274236
0.000192776
0.00270419
0.000141252
0.00269511
2.82157e-05
0.00272314
-0.00010906
0.00278214
-0.000214094
0.00284799
-0.000224847
0.00288871
-0.000116605
0.00288399
7.17488e-05
0.00283451
0.000267623
0.0027549
0.000414552
0.00266196
0.000491292
0.0025685
0.000499448
0.00248356
0.00044595
0.00241588
0.000332585
0.0023767
0.000155378
0.00237881
-8.47872e-05
0.00243445
-0.000362954
0.0025499
-0.000612875
0.0027093
-0.000732175
0.00286329
-0.000636341
0.00295161
-0.000339171
0.00294621
3.72273e-05
0.00286555
0.000353118
0.00274953
0.000539007
0.00263014
0.000602344
0.00252185
0.00058091
0.00242664
0.000504752
0.00234468
0.000381708
0.00228725
0.000195253
0.00228014
-7.62104e-05
0.00234465
-0.000408816
0.00247414
-0.000706206
0.00263418
-0.00084721
0.00278093
-0.000761899
0.00287754
-0.00046974
0.00290301
-6.78568e-05
0.00285664
0.00031427
0.00275801
0.00057331
0.00263706
0.000675953
0.00251875
0.000653684
0.00241688
0.000555226
0.00234233
0.000398752
0.00231155
0.000168547
0.00234014
-0.000138765
0.0024281
-0.000469395
0.00255556
-0.000724723
0.00269142
-0.000815766
0.00280426
-0.000707582
0.0028698
-0.000431112
0.00287629
-6.78276e-05
0.00282706
0.000282214
0.00273791
0.000536548
0.00262981
0.000657437
0.00252221
0.000652796
0.00243157
0.000550259
0.00237376
0.00036722
0.00236355
0.00010991
0.00240746
-0.000197015
0.00249731
-0.00049058
0.00261206
-0.000689823
0.00272542
-0.000734795
0.00281328
-0.00061181
0.00285832
-0.000355787
0.00285314
-3.57385e-05
0.0028019
0.000268756
0.00271843
0.000492941
0.00262089
0.000604491
0.00252685
0.000602184
0.00245228
0.000499411
0.00241202
0.000309901
0.00241704
5.21143e-05
0.00246866
-0.000233952
0.00255553
-0.000484023
0.00265728
-0.000632331
0.00275136
-0.000639588
0.00281868
-0.000506618
0.00284689
-0.00027099
0.00283211
7.18585e-06
0.00277949
0.000263748
0.00270153
0.000448727
0.00261431
0.000537104
0.002534
0.000525601
0.00247557
0.000421446
0.00245175
0.000236857
0.00246964
-3.90476e-06
0.00252645
-0.000255364
0.00260887
-0.000457533
0.00269766
-0.000558489
0.00277365
-0.000534588
0.00282216
-0.000396606
0.00283505
-0.000182942
0.00281147
5.39314e-05
0.00275767
0.000262379
0.00268531
0.000404812
0.00260865
0.000463542
0.00254221
0.000436549
0.00249935
0.00032984
0.00249029
0.000156477
0.00251856
-5.64726e-05
0.00257811
-0.000264338
0.00265466
-0.000415885
0.00273051
-0.000473001
0.00278981
-0.000424391
0.0028217
-0.000286896
0.00282145
-9.73477e-05
0.00279061
9.95099e-05
0.00273625
0.000262978
0.00266925
0.000365757
0.00260223
0.000396465
0.0025478
0.000355193
0.00251732
0.000248476
0.00251848
9.03664e-05
0.00255215
-9.21047e-05
0.0026107
-0.000258961
0.00268013
-0.000368907
0.00274475
-0.000395009
0.00279146
-0.000333706
0.00281209
-0.000203826
0.00280408
-3.86987e-05
0.00277022
0.000124122
0.00271775
0.000252428
0.00265672
0.000326014
0.0025983
0.000337395
0.00255357
0.000287851
0.00253219
0.000184275
0.00253998
4.10486e-05
0.00257623
-0.00011601