/*--------------------------------*- C++ -*----------------------------------*\
  =========                 |
  \\      /  F ield         | OpenFOAM: The Open Source CFD Toolbox
   \\    /   O peration     | Website:  https://openfoam.org
    \\  /    A nd           | Version:  11
     \\/     M anipulation  |
\*---------------------------------------------------------------------------*/
FoamFile
{
    format      ascii;
    class       volVectorField;
    location    "18.092619";
    object      U;
}
// * * * * * * * * * * * * * * * * * * * * * * * * * * * * * * * * * * * * * //

dimensions      [0 1 -1 0 0 0 0];

internalField   nonuniform List<vector> 
7132
(
(1.00013 -0.000269069 2.62529e-18)
(1.00209 -0.000815518 9.01146e-18)
(1.00653 -0.00137407 9.19692e-18)
(1.01314 -0.0019294 1.15323e-17)
(1.02196 -0.0024569 1.49978e-17)
(1.03282 -0.00291381 1.59962e-17)
(1.04532 -0.00324043 1.64495e-17)
(1.05882 -0.00335519 1.69326e-17)
(1.07228 -0.00317475 1.72649e-17)
(1.08439 -0.00265527 1.72778e-17)
(1.09365 -0.00180154 1.68999e-17)
(1.09894 -0.000809384 1.63935e-17)
(1.10014 0.000123985 1.56667e-17)
(1.09788 0.000789699 1.48299e-17)
(1.0937 0.00100411 1.01825e-17)
(1.08971 0.000736408 6.30504e-18)
(1.08776 0.000123118 2.91413e-18)
(1.08882 -0.000567241 9.99027e-19)
(1.09255 -0.000995456 -1.52877e-18)
(1.09716 -0.000865815 -1.62633e-18)
(1.09989 -8.25585e-05 -1.59576e-19)
(1.09818 0.00117756 1.29208e-18)
(1.0907 0.00256095 2.58881e-18)
(1.07774 0.00371224 4.44972e-18)
(1.06089 0.00438421 4.0889e-18)
(1.04246 0.0044511 8.28021e-18)
(1.02501 0.00387608 8.56434e-18)
(1.01114 0.00268198 -2.49644e-17)
(1.00324 0.000955169 -6.86058e-17)
(1.00325 -0.00111801 2.16128e-16)
(1.0121 -0.00319108 2.75633e-15)
(1.02893 -0.00474916 9.28029e-15)
(1.05049 -0.00525754 1.51957e-14)
(1.07155 -0.00444088 1.33649e-14)
(1.08658 -0.00248954 6.34626e-15)
(1.09187 1.11019e-05 1.34468e-15)
(1.08666 0.00237922 -7.2703e-16)
(1.07276 0.0041234 2.78846e-16)
(1.05342 0.00503257 6.69907e-15)
(1.03215 0.00509295 2.84466e-15)
(1.01227 0.00436409 -6.65019e-14)
(0.996803 0.00290837 -1.89683e-13)
(0.98857 0.000808993 1.03699e-13)
(0.989988 -0.00173562 2.16426e-12)
(1.00233 -0.00429489 7.48429e-12)
(1.02455 -0.00620568 1.51054e-11)
(1.05249 -0.00679371 2.05805e-11)
(1.07959 -0.00573122 2.00065e-11)
(1.09902 -0.00327162 1.42747e-11)
(1.10624 -0.000155588 7.46972e-12)
(1.10044 0.00274966 2.54922e-12)
(1.08412 0.00481773 7.24414e-14)
(1.06156 0.00580859 -5.54113e-13)
(1.03722 0.00577276 2.73946e-14)
(1.01492 0.00486459 9.39685e-13)
(0.997834 0.00321256 -9.21442e-13)
(0.988759 0.000921979 -1.24535e-11)
(0.990077 -0.00180368 -4.16436e-11)
(1.00301 -0.00452498 -9.13433e-11)
(1.02641 -0.00657202 -1.52303e-10)
(1.05604 -0.0072666 -2.03233e-10)
(1.08522 -0.0062587 -2.22534e-10)
(1.10683 -0.00375282 -2.0186e-10)
(1.11582 -0.000456866 -1.49436e-10)
(1.11079 0.00272074 -8.57415e-11)
(1.09402 0.00504036 -3.30137e-11)
(1.07015 0.00615467 -7.2257e-13)
(1.04432 0.00608913 1.24953e-11)
(1.02093 0.00505924 3.81935e-12)
(1.00334 0.00328536 -4.68464e-11)
(0.994151 0.000941001 -1.72831e-10)
(0.995368 -0.00174446 -3.99041e-10)
(1.00781 -0.00435287 -7.17472e-10)
(1.03015 -0.00628678 -1.075e-09)
(1.05835 -0.00696747 -1.38438e-09)
(1.08636 -0.00610546 -1.5568e-09)
(1.10779 -0.00386402 -1.53866e-09)
(1.11785 -0.000817825 -1.33195e-09)
(1.11477 0.00225654 -9.90944e-10)
(1.1 0.00464939 -6.03511e-10)
(1.07752 0.00592727 -2.64843e-10)
(1.05232 0.00599576 -4.76543e-11)
(1.02915 0.00501157 1.24306e-11)
(1.01176 0.00322672 -8.96621e-11)
(1.00288 0.00089844 -3.41074e-10)
(1.0042 -0.00167041 -7.14768e-10)
(1.01606 -0.00405183 -1.16588e-09)
(1.03669 -0.00572319 -1.63163e-09)
(1.06214 -0.00623728 -2.04003e-09)
(1.08701 -0.00542181 -2.32322e-09)
(1.10594 -0.00346855 -2.42882e-09)
(1.1151 -0.000863682 -2.32706e-09)
(1.11307 0.00178133 -2.01659e-09)
(1.10092 0.003911 -1.53563e-09)
(1.08171 0.00515061 -9.77381e-10)
(1.05954 0.00534957 -4.77496e-10)
(1.03866 0.00455474 -1.64151e-10)
(1.0228 0.00294589 -1.01973e-10)
(1.01479 0.000789953 -2.72787e-10)
(1.01628 -0.00155524 -6.02155e-10)
(1.02723 -0.00364002 -1.00196e-09)
(1.04561 -0.00499859 -1.39907e-09)
(1.06759 -0.00529797 -1.74336e-09)
(1.08841 -0.00447317 -2.00336e-09)
(1.1037 -0.00275672 -2.15759e-09)
(1.11064 -0.000586888 -2.18624e-09)
(1.10841 0.001544 -2.06788e-09)
(1.09816 0.00322593 -1.78976e-09)
(1.08239 0.00419855 -1.37474e-09)
(1.06433 0.00435156 -9.00157e-10)
(1.04734 0.00369726 -4.8093e-10)
(1.03454 0.00235069 -2.18017e-10)
(1.02839 0.000533016 -1.50952e-10)
(1.03025 -0.00142049 -2.51024e-10)
(1.03989 -0.00309603 -4.51896e-10)
(1.05532 -0.00410139 -6.86596e-10)
(1.0731 -0.00419698 -9.0779e-10)
(1.08927 -0.00338581 -1.08962e-09)
(1.10043 -0.00190808 -1.21998e-09)
(1.10461 -0.000146672 -1.29076e-09)
(1.10151 0.00150314 -1.2907e-09)
(1.09236 0.00273918 -1.20594e-09)
(1.0793 0.00339149 -1.03134e-09)
(1.06492 0.00340438 -7.8516e-10)
(1.0518 0.00280266 -5.12864e-10)
(1.04231 0.00167993 -2.7157e-10)
(1.03829 0.000215149 -1.04616e-10)
(1.04066 -0.00131564 -2.54493e-11)
(1.04904 -0.00257691 -2.0289e-11)
(1.06163 -0.00326542 -6.25104e-11)
(1.07556 -0.00321616 -1.26262e-10)
(1.0877 -0.00246406 -1.92918e-10)
(1.09548 -0.00122684 -2.51221e-10)
(1.09754 0.000177945 -2.94554e-10)
(1.09391 0.00143841 -3.1807e-10)
(1.08577 0.00232886 -3.17481e-10)
(1.07496 0.00273495 -2.90174e-10)
(1.06357 0.00263353 -2.37685e-10)
(1.05362 0.00206153 -1.67151e-10)
(1.04689 0.00110609 -8.97496e-11)
(1.04472 -8.05868e-05 -1.66622e-11)
(1.04765 -0.00127278 4.46927e-11)
(1.05518 -0.00220488 9.18757e-11)
(1.06568 -0.00264735 1.26137e-10)
(1.07677 -0.00249002 1.5027e-10)
(1.08594 -0.00178591 1.6703e-10)
(1.09125 -0.000731479 1.78445e-10)
(1.0918 0.000403985 1.85633e-10)
(1.08787 0.00136504 1.8869e-10)
(1.08058 0.00197495 1.86718e-10)
(1.07173 0.00215265 1.78326e-10)
(1.06297 0.00189765 1.62743e-10)
(1.05628 0.00125262 1.41056e-10)
(1.05266 0.000314079 1.16586e-10)
(1.0538 -0.000803689 9.39314e-11)
(1.05903 -0.00185599 7.73031e-11)
(1.06911 -0.0027301 6.89917e-11)
(1.08107 -0.00298816 7.01837e-11)
(1.09351 -0.00311427 7.59603e-11)
(1.10665 -0.00165518 1.0136e-10)
(1.00013 -0.000805946 4.1202e-20)
(1.00208 -0.00244421 4.27736e-19)
(1.00651 -0.00412076 8.34515e-19)
(1.01312 -0.00579208 1.29642e-18)
(1.02197 -0.00738516 1.93348e-18)
(1.0329 -0.0087721 2.70322e-18)
(1.04556 -0.0097729 3.38557e-18)
(1.05931 -0.0101372 4.48052e-18)
(1.07308 -0.00960783 6.1962e-18)
(1.08554 -0.00804114 6.22339e-18)
(1.09506 -0.00544374 5.74961e-18)
(1.1004 -0.0024218 9.00656e-18)
(1.10146 0.000421087 9.52363e-18)
(1.09886 0.00244483 9.83325e-18)
(1.09423 0.00307908 8.47891e-18)
(1.08982 0.00222675 4.3745e-18)
(1.08764 0.000309834 -1.22877e-18)
(1.08877 -0.00184178 -5.04193e-18)
(1.09288 -0.00318856 -4.00311e-18)
(1.09808 -0.00281739 1.76001e-18)
(1.10138 -0.000428637 7.65065e-18)
(1.09998 0.00343096 1.00851e-17)
(1.09247 0.00766842 8.68829e-18)
(1.0792 0.0111933 5.30889e-18)
(1.06184 0.0132583 2.31766e-17)
(1.04279 0.0134906 1.84772e-17)
(1.02471 0.0117836 -3.16197e-16)
(1.01024 0.00820178 5.21299e-17)
(1.00187 0.00299109 6.26117e-15)
(1.00165 -0.00330546 3.95632e-15)
(1.01071 -0.00964761 -1.08648e-13)
(1.0283 -0.0144549 -4.01893e-13)
(1.05104 -0.0160643 -6.27886e-13)
(1.07332 -0.0136073 -5.27433e-13)
(1.08923 -0.00766247 -2.56805e-13)
(1.09479 -3.26543e-05 -6.78564e-14)
(1.08927 0.0071878 -5.64428e-16)
(1.07472 0.0124989 1.45551e-14)
(1.05457 0.0152702 3.27302e-14)
(1.0325 0.0154764 2.83611e-15)
(1.01184 0.0133065 -2.85233e-13)
(0.995636 0.00894141 -7.69681e-13)
(0.986795 0.00260525 5.80721e-13)
(0.987941 -0.00513462 1.02619e-11)
(1.00062 -0.0129803 3.58277e-11)
(1.02388 -0.0188848 7.27941e-11)
(1.05337 -0.0207464 9.94134e-11)
(1.082 -0.0175377 9.55416e-11)
(1.10243 -0.0100386 6.54989e-11)
(1.10987 -0.000530083 3.20942e-11)
(1.10358 0.0083285 1.02135e-11)
(1.08635 0.0146232 3.93924e-15)
(1.06278 0.0176356 -2.31334e-12)
(1.03749 0.0175408 5.22036e-13)
(1.01436 0.014823 5.01799e-12)
(0.996509 0.00986754 -4.17193e-12)
(0.986766 0.00296407 -6.75369e-11)
(0.987654 -0.00530913 -2.44833e-10)
(1.00062 -0.0136334 -5.71034e-10)
(1.02469 -0.0199511 -9.84813e-10)
(1.05558 -0.0221554 -1.31614e-09)
(1.0863 -0.0191457 -1.39497e-09)
(1.10924 -0.011537 -1.18769e-09)
(1.11892 -0.00149617 -8.1146e-10)
(1.11381 0.0081987 -4.29677e-10)
(1.09634 0.0152809 -1.53057e-10)
(1.07146 0.0186883 -5.58245e-12)
(1.04461 0.0185117 4.45795e-11)
(1.02029 0.015426 2.29166e-11)
(1.00187 0.0101053 -9.83339e-11)
(0.99195 0.00305209 -3.96722e-10)
(0.99266 -0.00507626 -9.42161e-10)
(1.00504 -0.0130313 -1.71863e-09)
(1.02787 -0.0189868 -2.58282e-09)
(1.05705 -0.0211529 -3.30115e-09)
(1.08622 -0.0186211 -3.64687e-09)
(1.10865 -0.0118739 -3.50308e-09)
(1.11935 -0.00265324 -2.91781e-09)
(1.11644 0.00668403 -2.0756e-09)
(1.10143 0.013979 -1.20672e-09)
(1.07839 0.017908 -5.05609e-10)
(1.05248 0.0181782 -8.05533e-11)
(1.02853 0.0152613 4.23953e-11)
(1.01039 0.00991184 -1.20508e-10)
(1.00092 0.00288837 -5.40381e-10)
(1.00202 -0.00491193 -1.17053e-09)
(1.01416 -0.0121881 -1.92514e-09)
(1.03559 -0.0173249 -2.68043e-09)
(1.06208 -0.0189339 -3.30446e-09)
(1.08788 -0.0164831 -3.68841e-09)
(1.10737 -0.0105691 -3.76238e-09)
(1.11663 -0.00268291 -3.50373e-09)
(1.11434 0.00532094 -2.94465e-09)
(1.10174 0.0117681 -2.17596e-09)
(1.082 0.0155346 -1.34751e-09)
(1.05929 0.0161706 -6.40212e-10)
(1.03789 0.0138126 -2.08278e-10)
(1.02159 0.00898588 -1.231e-10)
(1.01335 0.00247334 -3.56485e-10)
(1.01496 -0.00465579 -8.08913e-10)
(1.0265 -0.0110249 -1.35562e-09)
(1.04583 -0.0151874 -1.88531e-09)
(1.06884 -0.0161064 -2.32058e-09)
(1.09043 -0.0135846 -2.61887e-09)
(1.10603 -0.00834951 -2.76016e-09)
(1.11276 -0.00175367 -2.73272e-09)
(1.10997 0.00470326 -2.52659e-09)
(1.09899 0.00978443 -2.14267e-09)
(1.08251 0.0127139 -1.61863e-09)
(1.06385 0.0131704 -1.04657e-09)
(1.04643 0.0111943 -5.54292e-10)
(1.03341 0.00712431 -2.51238e-10)
(1.02732 0.00161366 -1.78453e-10)
(1.02961 -0.00433055 -3.00878e-10)
(1.04003 -0.00944135 -5.39818e-10)
(1.05645 -0.0125051 -8.14482e-10)
(1.07516 -0.0127797 -1.06693e-09)
(1.09194 -0.0102798 -1.26598e-09)
(1.10325 -0.00575439 -1.39868e-09)
(1.10709 -0.000383354 -1.45891e-09)
(1.10332 0.00462809 -1.43877e-09)
(1.09334 0.00836609 -1.32805e-09)
(1.07949 0.0103237 -1.12499e-09)
(1.06445 0.0103416 -8.50935e-10)
(1.0509 0.00849933 -5.54023e-10)
(1.04126 0.00507752 -2.93275e-10)
(1.03743 0.000612233 -1.12603e-10)
(1.04036 -0.00405992 -2.4743e-11)
(1.0496 -0.00790879 -1.46261e-11)
(1.06316 -0.00999782 -5.45891e-11)
(1.07795 -0.00981979 -1.18346e-10)
(1.09061 -0.00748992 -1.87116e-10)
(1.09844 -0.00368725 -2.49226e-10)
(1.10014 0.000609921 -2.97162e-10)
(1.09584 0.00444979 -3.24959e-10)
(1.08688 0.00714867 -3.27358e-10)
(1.07527 0.00836502 -3.01199e-10)
(1.06322 0.00803455 -2.4794e-10)
(1.05284 0.00627209 -1.74936e-10)
(1.04599 0.00334104 -9.36074e-11)
(1.04406 -0.000297878 -1.52422e-11)
(1.04759 -0.00395444 5.26192e-11)
(1.05599 -0.00680861 1.07086e-10)
(1.06747 -0.00814981 1.48479e-10)
(1.0794 -0.0076402 1.7837e-10)
(1.08906 -0.0054509 1.98436e-10)
(1.09443 -0.00219529 2.10196e-10)
(1.09463 0.00129571 2.14984e-10)
(1.09003 0.00424043 2.13662e-10)
(1.08193 0.00610193 2.06331e-10)
(1.07225 0.00663711 1.92531e-10)
(1.06278 0.00584836 1.72204e-10)
(1.05558 0.00386597 1.46911e-10)
(1.05176 0.000981764 1.20241e-10)
(1.05307 -0.00245702 9.68802e-11)
(1.05882 -0.00570168 8.09069e-11)
(1.0698 -0.00839072 7.42648e-11)
(1.08268 -0.00918768 7.75441e-11)
(1.09612 -0.00956111 8.53472e-11)
(1.10985 -0.00505972 1.12178e-10)
(1.00012 -0.00133962 1.08958e-22)
(1.00207 -0.00406533 6.45229e-21)
(1.00647 -0.00686232 2.16587e-21)
(1.01307 -0.00966371 -8.75374e-21)
(1.02196 -0.0123519 -5.77669e-20)
(1.03305 -0.014716 -4.40558e-20)
(1.046 -0.0164536 -4.93925e-19)
(1.06024 -0.0171293 -2.40256e-19)
(1.07465 -0.0162901 9.9899e-19)
(1.08782 -0.0136532 -1.5053e-18)
(1.09786 -0.0091992 -5.84638e-18)
(1.10335 -0.00399904 -2.94558e-18)
(1.10413 0.000917129 5.65967e-18)
(1.10084 0.00443615 8.85964e-18)
(1.09529 0.00553746 -3.62177e-18)
(1.09006 0.00403438 -2.48689e-17)
(1.08746 0.000646349 -2.27697e-17)
(1.08878 -0.00319504 4.12974e-17)
(1.09372 -0.00566127 1.50233e-16)
(1.10013 -0.00512164 2.10177e-16)
(1.10454 -0.00103073 1.8715e-16)
(1.10368 0.00564282 1.30644e-16)
(1.09599 0.0129643 5.82661e-17)
(1.08193 0.0190338 1.98039e-17)
(1.06344 0.0225842 2.2445e-16)
(1.04313 0.0230095 -1.62795e-16)
(1.02381 0.0201488 -3.63161e-15)
(1.00822 0.0141045 4.16837e-15)
(0.999005 0.00525369 6.53284e-14)
(0.998502 -0.00553594 -1.80149e-14)
(1.00816 -0.0165129 -1.19454e-12)
(1.02742 -0.0249175 -3.96239e-12)
(1.05264 -0.0277843 -6.2702e-12)
(1.07744 -0.0235415 -5.63339e-12)
(1.09499 -0.0132088 -2.96228e-12)
(1.10085 9.53737e-06 -8.44933e-13)
(1.09442 0.0124286 -1.01535e-14)
(1.07828 0.021473 1.51625e-13)
(1.05637 0.0261354 1.26885e-13)
(1.03263 0.0264548 -1.18114e-13)
(1.01046 0.022793 -6.77669e-13)
(0.992922 0.0154306 -3.07574e-13)
(0.983074 0.00466303 3.50483e-12)
(0.983907 -0.00863499 8.69843e-12)
(0.997421 -0.0222579 -1.0871e-12)
(1.02289 -0.0325905 -3.40169e-11)
(1.05556 -0.0358709 -5.80013e-11)
(1.08736 -0.0302664 -4.40334e-11)
(1.10979 -0.0171898 -1.30094e-11)
(1.11746 -0.00070323 7.18138e-12)
(1.10983 0.0145272 1.12641e-11)
(1.09042 0.0252184 4.39041e-12)
(1.06457 0.0302297 -5.846e-13)
(1.03733 0.0299751 6.37072e-12)
(1.01259 0.0253516 1.81367e-11)
(0.993364 0.0170073 -2.73812e-11)
(0.982411 0.00535698 -2.87693e-10)
(0.982434 -0.00871758 -9.75387e-10)
(0.995304 -0.0230339 -2.17355e-09)
(1.02046 -0.0340617 -3.62474e-09)
(1.05365 -0.0380917 -4.76067e-09)
(1.08731 -0.0330962 -5.03568e-09)
(1.11292 -0.020051 -4.31476e-09)
(1.12413 -0.00271463 -2.97267e-09)
(1.11899 0.0140318 -1.59292e-09)
(1.10019 0.0262134 -5.83219e-10)
(1.07333 0.0320121 -4.38882e-11)
(1.04444 0.0316655 1.36083e-10)
(1.01834 0.0264219 7.7815e-11)
(0.998414 0.0174561 -2.30259e-10)
(0.987307 0.00555224 -9.16753e-10)
(0.98743 -0.00827984 -2.07147e-09)
(1.00023 -0.0219557 -3.58453e-09)
(1.02459 -0.0322985 -5.14328e-09)
(1.05599 -0.0361507 -6.37328e-09)
(1.08735 -0.0319099 -6.96421e-09)
(1.11131 -0.0204193 -6.73245e-09)
(1.12263 -0.00469198 -5.69493e-09)
(1.11946 0.0112319 -4.11968e-09)
(1.10356 0.0236749 -2.43577e-09)
(1.07924 0.0303974 -1.04827e-09)
(1.05189 0.0309199 -1.93013e-10)
(1.02653 0.0260481 7.55981e-11)
(1.00719 0.0170303 -1.94792e-10)
(0.996998 0.00509023 -9.1418e-10)
(0.998232 -0.0082856 -1.94484e-09)
(1.01159 -0.0208338 -3.08843e-09)
(1.03509 -0.0296873 -4.13315e-09)
(1.06388 -0.0323942 -4.92524e-09)
(1.09144 -0.028068 -5.38385e-09)
(1.11165 -0.0178322 -5.45783e-09)
(1.12056 -0.00433322 -5.10156e-09)
(1.11714 0.00923985 -4.31555e-09)
(1.10309 0.0200844 -3.20654e-09)
(1.08193 0.0263703 -1.99487e-09)
(1.05799 0.0273961 -9.5506e-10)
(1.03563 0.0233988 -3.17542e-10)
(1.01871 0.015216 -1.85697e-10)
(1.01041 0.00410802 -5.1166e-10)
(1.0128 -0.00812488 -1.13508e-09)
(1.02598 -0.0190738 -1.85717e-09)
(1.0475 -0.026173 -2.51421e-09)
(1.07261 -0.0276026 -3.01614e-09)
(1.09559 -0.0230668 -3.33673e-09)
(1.11149 -0.013912 -3.47452e-09)
(1.11746 -0.00254531 -3.41951e-09)
(1.11316 0.00843706 -3.15068e-09)
(1.10038 0.0169574 -2.66341e-09)
(1.08221 0.0217662 -2.00532e-09)
(1.06224 0.0223859 -1.29389e-09)
(1.04399 0.0189136 -6.87896e-10)
(1.03071 0.0119048 -3.19233e-10)
(1.02506 0.00243725 -2.32921e-10)
(1.02857 -0.00777372 -3.79387e-10)
(1.04087 -0.0165189 -6.57041e-10)
(1.05942 -0.0216692 -9.66802e-10)
(1.07998 -0.0219455 -1.24365e-09)
(1.09782 -0.0174238 -1.4579e-09)
(1.10915 -0.00947038 -1.59951e-09)
(1.11206 -0.000173768 -1.66177e-09)
(1.10671 0.00838092 -1.6335e-09)
(1.09489 0.0146547 -1.50238e-09)
(1.0793 0.0178324 -1.26767e-09)
(1.06292 0.0176916 -9.55499e-10)
(1.04856 0.0143932 -6.20943e-10)
(1.03878 0.0084153 -3.28833e-10)
(1.03557 0.000669084 -1.25253e-10)
(1.03987 -0.0073969 -2.15408e-11)
(1.05102 -0.0139799 -1.63431e-14)
(1.06662 -0.0174457 -3.16263e-11)
(1.08306 -0.0169365 -9.06052e-11)
(1.09659 -0.0127047 -1.5952e-10)
(1.10435 -0.00598648 -2.27175e-10)
(1.10511 0.00148806 -2.84692e-10)
(1.09929 0.00807221 -3.23354e-10)
(1.08858 0.0126134 -3.34948e-10)
(1.07531 0.0145632 -3.14206e-10)
(1.06195 0.0138445 -2.61855e-10)
(1.05079 0.0106707 -1.85643e-10)
(1.04385 0.00549663 -9.77941e-11)
(1.04257 -0.000878435 -1.03098e-11)
(1.0475 -0.00724171 6.85864e-11)
(1.05778 -0.0121461 1.34983e-10)
(1.07121 -0.0143486 1.87714e-10)
(1.08471 -0.0132845 2.26677e-10)
(1.09521 -0.00929933 2.52148e-10)
(1.10052 -0.0035093 2.64883e-10)
(1.09985 0.00261293 2.66287e-10)
(1.09382 0.00771053 2.58088e-10)
(1.08402 0.0108742 2.41778e-10)
(1.07268 0.0117124 2.1843e-10)
(1.06183 0.0102508 1.89374e-10)
(1.05374 0.00672314 1.57268e-10)
(1.04966 0.00162844 1.26435e-10)
(1.0515 -0.00441782 1.01819e-10)
(1.05846 -0.0101152 8.71997e-11)
(1.07128 -0.0147661 8.37422e-11)
(1.08595 -0.0161078 9.08623e-11)
(1.10127 -0.0166109 1.02276e-10)
(1.11586 -0.00864355 1.31681e-10)
(1.00012 -0.00186756 -4.6219e-20)
(1.00204 -0.00567174 -5.68526e-19)
(1.00639 -0.00959234 -1.07509e-18)
(1.01297 -0.0135458 -1.75423e-18)
(1.02192 -0.0173778 -2.41957e-18)
(1.03321 -0.0207981 -3.89854e-18)
(1.0466 -0.0233807 -5.69541e-18)
(1.06158 -0.0244775 2.69817e-18)
(1.07699 -0.0234036 -8.28551e-18)
(1.09129 -0.0196631 -3.73255e-17)
(1.10217 -0.0131648 -2.37595e-17)
(1.10788 -0.00554785 4.10515e-17)
(1.10824 0.001685 7.13518e-17)
(1.10389 0.0068777 2.68851e-17)
(1.09688 0.0084566 -7.94945e-17)
(1.09033 0.00611617 -1.22537e-16)
(1.08704 0.000918645 1.1373e-16)
(1.08863 -0.00500094 8.23199e-16)
(1.09487 -0.00889013 1.74041e-15)
(1.10321 -0.00824342 2.00817e-15)
(1.1094 -0.00220636 1.47095e-15)
(1.1094 0.00771995 8.44061e-16)
(1.10139 0.0185624 2.88077e-16)
(1.08606 0.0274778 2.56127e-16)
(1.06579 0.032658 9.08146e-16)
(1.04354 0.0333051 -3.74744e-15)
(1.02231 0.0292416 -7.31912e-15)
(1.00502 0.0206044 4.84114e-14)
(0.994521 0.00785421 2.77624e-14)
(0.993547 -0.00787604 -5.24303e-13)
(1.00412 -0.0241045 1.91263e-13)
(1.02603 -0.0367018 5.17403e-12)
(1.0552 -0.0410907 8.62477e-12)
(1.08399 -0.0347904 4.73954e-12)
(1.1041 -0.0193541 -1.78997e-13)
(1.11033 0.000273648 -1.3174e-12)
(1.10233 0.0184905 -5.33789e-13)
(1.08358 0.0315293 1.85906e-13)
(1.05886 0.0380917 2.60796e-14)
(1.03255 0.0384275 -8.02816e-13)
(1.00812 0.0331559 1.89366e-12)
(0.988626 0.0226336 1.31475e-11)
(0.97723 0.00712163 -2.2389e-12)
(0.9773 -0.0122937 -1.91492e-10)
(0.99138 -0.032461 -7.61254e-10)
(1.01927 -0.0479617 -1.64046e-09)
(1.05625 -0.0530017 -2.29367e-09)
(1.09317 -0.0446611 -2.20951e-09)
(1.11956 -0.0250741 -1.4957e-09)
(1.12845 -0.00052342 -6.92928e-10)
(1.11919 0.0218646 -1.78815e-10)
(1.09648 0.0372501 1.6535e-11)
(1.06704 0.0441752 4.44e-11)
(1.03674 0.0435275 4.61376e-11)
(1.00958 0.0368017 4.40694e-11)
(0.988255 0.0249571 -1.4034e-10)
(0.975289 0.00843913 -8.99403e-10)
(0.973708 -0.0117407 -2.61428e-09)
(0.986237 -0.0326388 -5.22872e-09)
(1.01301 -0.0491327 -8.08498e-09)
(1.04955 -0.0556003 -1.02434e-08)
(1.08729 -0.0487916 -1.09039e-08)
(1.11652 -0.0299326 -9.73138e-09)
(1.12995 -0.00450476 -7.13049e-09)
(1.12514 0.0201828 -4.11968e-09)
(1.10489 0.0381104 -1.68324e-09)
(1.07547 0.0465584 -2.5449e-10)
(1.04376 0.0459976 2.77995e-10)
(1.01508 0.038432 1.78056e-10)
(0.992986 0.0256225 -4.72425e-10)
(0.980348 0.00855236 -1.75154e-09)
(0.980148 -0.0115247 -3.61228e-09)
(0.994365 -0.0316081 -5.71065e-09)
(1.02173 -0.04688 -7.58544e-09)
(1.05675 -0.0525467 -8.9358e-09)
(1.0911 -0.0462855 -9.63413e-09)
(1.11664 -0.0294988 -9.53895e-09)
(1.128 -0.00670672 -8.47997e-09)
(1.12373 0.0162351 -6.51858e-09)
(1.10604 0.0340955 -4.11605e-09)
(1.07968 0.0437353 -1.92811e-09)
(1.05029 0.0445211 -4.69508e-10)
(1.02306 0.0376031 4.82413e-11)
(1.00226 0.0246797 -3.29093e-10)
(0.991472 0.00737597 -1.38797e-09)
(0.993514 -0.0121985 -2.79695e-09)
(1.00922 -0.0306139 -4.18472e-09)
(1.03606 -0.0434772 -5.28034e-09)
(1.06816 -0.0471211 -6.00281e-09)
(1.09801 -0.0403733 -6.40386e-09)
(1.1189 -0.0251176 -6.51644e-09)
(1.12688 -0.0054122 -6.25915e-09)
(1.12142 0.0140666 -5.50649e-09)
(1.10486 0.0293794 -4.26507e-09)
(1.08133 0.0380799 -2.76545e-09)
(1.05548 0.0393142 -1.39434e-09)
(1.03175 0.0334501 -5.16926e-10)
(1.01417 0.021591 -3.1104e-10)
(1.00621 0.00543058 -7.07985e-10)
(1.01018 -0.0124347 -1.45864e-09)
(1.02608 -0.0283741 -2.27371e-09)
(1.05081 -0.0385055 -2.95189e-09)
(1.07873 -0.0401561 -3.42498e-09)
(1.10339 -0.0330254 -3.7166e-09)
(1.11945 -0.0192761 -3.863e-09)
(1.12412 -0.00257499 -3.85312e-09)
(1.1175 0.0132513 -3.62794e-09)
(1.102 0.0252568 -3.13786e-09)
(1.08129 0.0317805 -2.4116e-09)
(1.05934 0.0322784 -1.58728e-09)
(1.03992 0.0269551 -8.68393e-10)
(1.02642 0.016587 -4.24798e-10)
(1.02169 0.00268751 -3.1065e-10)
(1.02725 -0.0122329 -4.58578e-10)
(1.04244 -0.0248722 -7.4223e-10)
(1.06403 -0.0320634 -1.04941e-09)
(1.08701 -0.0319788 -1.31793e-09)
(1.10608 -0.0248634 -1.52937e-09)
(1.11722 -0.0128694 -1.68249e-09)
(1.11867 0.000847239 -1.76922e-09)
(1.11098 0.0132221 -1.76715e-09)
(1.09648 0.0220693 -1.64987e-09)
(1.07841 0.0263061 -1.4083e-09)
(1.06009 0.0257087 -1.07038e-09)
(1.04465 0.0205636 -7.00775e-10)
(1.03481 0.0115725 -3.74611e-10)
(1.0327 6.99807e-05 -1.43187e-10)
(1.03917 -0.011783 -1.75642e-11)
(1.05315 -0.0212844 2.22001e-11)
(1.07159 -0.026022 6.15728e-12)
(1.09019 -0.0248051 -4.11037e-11)
(1.10472 -0.0181323 -1.04635e-10)
(1.11218 -0.00794452 -1.75324e-10)
(1.1115 0.00314583 -2.44157e-10)
(1.10347 0.0127196 -2.99344e-10)
(1.09026 0.0191394 -3.2775e-10)
(1.07465 0.0216787 -3.19525e-10)
(1.05947 0.0202911 -2.7288e-10)
(1.0473 0.0153219 -1.95391e-10)
(1.04036 0.00745081 -1.00564e-10)
(1.04021 -0.00212241 -2.1415e-12)
(1.04726 -0.0115578 8.98146e-11)
(1.06027 -0.0186681 1.69508e-10)
(1.07638 -0.0216163 2.34078e-10)
(1.0919 -0.0196375 2.82211e-10)
(1.10333 -0.0133526 3.13443e-10)
(1.10838 -0.00451181 3.28017e-10)
(1.10636 0.00465705 3.2702e-10)
(1.09826 0.012154 3.12369e-10)
(1.08607 0.0166799 2.86462e-10)
(1.07243 0.0177152 2.51914e-10)
(1.0597 0.0153373 2.11922e-10)
(1.05048 0.00991031 1.70953e-10)
(1.04619 0.00216518 1.34662e-10)
(1.04895 -0.0069427 1.08507e-10)
(1.05776 -0.0154785 9.58083e-11)
(1.07322 -0.0222655 9.6545e-11)
(1.09026 -0.0241076 1.08498e-10)
(1.10799 -0.0244854 1.24259e-10)
(1.12331 -0.0124204 1.56493e-10)
(1.00012 -0.00238595 -2.87765e-18)
(1.00199 -0.00725345 -8.89268e-18)
(1.00627 -0.0122989 -7.78469e-18)
(1.01279 -0.0174326 -9.74509e-18)
(1.02178 -0.0224751 -7.32418e-18)
(1.03332 -0.0270652 -2.2982e-17)
(1.04728 -0.0306524 1.46227e-17)
(1.06325 -0.032338 1.11067e-17)
(1.08006 -0.0311532 -1.87579e-16)
(1.09599 -0.0262643 -5.92469e-17)
(1.10809 -0.0174315 4.68821e-16)
(1.11412 -0.00702175 6.94486e-16)
(1.1139 0.0029493 3.18383e-16)
(1.108 0.0101746 -3.45585e-16)
(1.09888 0.0123429 -7.86039e-16)
(1.09042 0.00897165 -4.73921e-16)
(1.08612 0.00150637 3.99051e-16)
(1.0881 -0.00710893 -1.81336e-16)
(1.09624 -0.0129628 -3.36098e-15)
(1.10743 -0.0123932 -4.41409e-15)
(1.11621 -0.00411702 -2.53252e-15)
(1.11744 0.00966569 -1.0466e-15)
(1.10891 0.0246463 -2.92327e-16)
(1.09176 0.036833 1.79496e-15)
(1.06897 0.0438419 -4.52547e-15)
(1.04403 0.044744 -1.69029e-14)
(1.02019 0.0394055 1.21581e-13)
(1.00054 0.0280001 1.60464e-14)
(0.988189 0.0109949 -2.56884e-12)
(0.986439 -0.0103263 -3.16008e-13)
(0.998259 -0.0327471 4.84349e-11)
(1.02407 -0.0504643 1.6821e-10)
(1.05911 -0.0567824 2.69034e-10)
(1.09364 -0.0479962 2.41043e-10)
(1.11723 -0.0263581 1.24958e-10)
(1.12372 0.000920276 3.36924e-11)
(1.11328 0.0258206 -6.4976e-13)
(1.09072 0.0432099 -4.70864e-12)
(1.06206 0.0516431 -3.65723e-12)
(1.03225 0.0518177 -1.55588e-12)
(1.00483 0.0447526 2.26427e-11)
(0.982679 0.030879 5.78318e-11)
(0.968851 0.0103367 -1.38187e-10)
(0.966785 -0.0156907 -1.18266e-09)
(0.979744 -0.0432278 -3.60204e-09)
(1.00889 -0.0650312 -6.87388e-09)
(1.05042 -0.072845 -9.31321e-09)
(1.09436 -0.0619379 -9.34152e-09)
(1.12766 -0.0348183 -6.95318e-09)
(1.1404 -0.000493333 -3.73115e-09)
(1.13071 0.0305288 -1.28293e-09)
(1.10437 0.0512917 -1.00478e-10)
(1.07025 0.0600879 2.06706e-10)
(1.03579 0.058695 1.98649e-10)
(1.0053 0.0495905 8.08591e-11)
(0.980999 0.0341548 -4.75747e-10)
(0.965199 0.0126406 -2.10506e-09)
(0.961732 -0.0141775 -5.08873e-09)
(0.974713 -0.0426773 -8.84231e-09)
(1.00472 -0.0657288 -1.23113e-08)
(1.04615 -0.0752519 -1.4748e-08)
(1.08864 -0.0665851 -1.57582e-08)
(1.12126 -0.0413625 -1.49051e-08)
(1.13635 -0.00699633 -1.19892e-08)
(1.13145 0.0265834 -7.75504e-09)
(1.10952 0.051048 -3.67244e-09)
(1.07729 0.0625662 -8.83279e-10)
(1.04232 0.0618477 3.46486e-10)
(1.0105 0.0518005 2.81747e-10)
(0.985767 0.0348234 -8.21699e-10)
(0.971614 0.0119793 -2.77573e-09)
(0.97188 -0.0152784 -5.17937e-09)
(0.9889 -0.0427463 -7.40639e-09)
(1.02066 -0.0634997 -8.99771e-09)
(1.06017 -0.0708487 -9.93865e-09)
(1.09779 -0.0618629 -1.0468e-08)
(1.12463 -0.0388578 -1.06295e-08)
(1.13531 -0.00821268 -1.00698e-08)
(1.12893 0.0222292 -8.40786e-09)
(1.1085 0.0456997 -5.80948e-09)
(1.07934 0.0582644 -3.03217e-09)
(1.04739 0.0592207 -9.54869e-10)
(1.018 0.0500577 -1.12093e-10)
(0.995747 0.0328238 -5.42786e-10)
(0.984805 0.00946915 -1.8743e-09)
(0.988512 -0.0171507 -3.51666e-09)
(1.00755 -0.0421064 -4.92784e-09)
(1.03847 -0.0591686 -5.84273e-09)
(1.07418 -0.0633803 -6.31061e-09)
(1.10626 -0.0534402 -6.54035e-09)
(1.1276 -0.0322586 -6.67514e-09)
(1.13428 -0.0055743 -6.63358e-09)
(1.12619 0.0202606 -6.15445e-09)
(1.10644 0.0401263 -5.05651e-09)
(1.07985 0.0510574 -3.48109e-09)
(1.05154 0.0521807 -1.88828e-09)
(1.02619 0.0440472 -8.01205e-10)
(1.00807 0.0279847 -5.05292e-10)
(1.00097 0.006106 -9.1982e-10)
(1.00734 -0.0180546 -1.70662e-09)
(1.02675 -0.0393868 -2.50334e-09)
(1.05518 -0.0525072 -3.10128e-09)
(1.08602 -0.0539003 -3.47369e-09)
(1.11216 -0.0434245 -3.69737e-09)
(1.12807 -0.0242711 -3.84835e-09)
(1.13108 -0.00156092 -3.92294e-09)
(1.12171 0.0195063 -3.82468e-09)
(1.10298 0.0350644 -3.43704e-09)
(1.07921 0.0430899 -2.73813e-09)
(1.05489 0.0430658 -1.86646e-09)
(1.03412 0.0353685 -1.0685e-09)
(1.02058 0.0210189 -5.589e-10)
(1.01729 0.0020261 -4.06118e-10)
(1.02568 -0.0181477 -5.29358e-10)
(1.04447 -0.034911 -7.85103e-10)
(1.06952 -0.0439577 -1.05656e-09)
(1.09497 -0.0429698 -1.28928e-09)
(1.11505 -0.0325287 -1.47802e-09)
(1.12566 -0.0157606 -1.63344e-09)
(1.12524 0.00295668 -1.75089e-09)
(1.11477 0.0194783 -1.79749e-09)
(1.09716 0.0309393 -1.72603e-09)
(1.07617 0.0360233 -1.50883e-09)
(1.05563 0.0345662 -1.16832e-09)
(1.03901 0.0270298 -7.7705e-10)
(1.02934 0.0143878 -4.22616e-10)
(1.02886 -0.00150721 -1.64588e-10)
(1.03819 -0.0176202 -1.62903e-11)
(1.05565 -0.0301899 4.2895e-11)
(1.0773 -0.0359663 4.38806e-11)
(1.09811 -0.0335009 1.1204e-11)
(1.11343 -0.0236978 -4.17568e-11)
(1.12025 -0.00937232 -1.08931e-10)
(1.11771 0.0058486 -1.83955e-10)
(1.10704 0.0186943 -2.54385e-10)
(1.09091 0.0270222 -3.024e-10)
(1.07259 0.0299544 -3.11717e-10)
(1.05535 0.0275168 -2.75579e-10)
(1.04213 0.020226 -1.99819e-10)
(1.03543 0.00904096 -9.90813e-11)
(1.03693 -0.0043317 1.0178e-11)
(1.04676 -0.0172684 1.14721e-10)
(1.06305 -0.0267031 2.06003e-10)
(1.08217 -0.0301638 2.79612e-10)
(1.09974 -0.0267602 3.34071e-10)
(1.1119 -0.0175343 3.69458e-10)
(1.11633 -0.00502151 3.86218e-10)
(1.11257 0.00767818 3.84827e-10)
(1.10197 0.017853 3.66314e-10)
(1.08698 0.0237958 3.32812e-10)
(1.07069 0.0248761 2.87857e-10)
(1.05585 0.0212495 2.36672e-10)
(1.04544 0.01344 1.86199e-10)
(1.04117 0.00245404 1.4411e-10)
(1.04533 -0.0102975 1.16686e-10)
(1.05655 -0.0221168 1.06665e-10)
(1.07516 -0.031171 1.12458e-10)
(1.09475 -0.0333647 1.29822e-10)
(1.11497 -0.0332053 1.50147e-10)
(1.13043 -0.0162845 1.8465e-10)
(1.00012 -0.00288986 2.68496e-18)
(1.00192 -0.00879656 8.83208e-18)
(1.00608 -0.0149634 8.25134e-18)
(1.0125 -0.0213089 1.02572e-17)
(1.0215 -0.0276452 1.27205e-17)
(1.03328 -0.0335547 -1.9455e-17)
(1.04793 -0.0383666 2.32917e-16)
(1.06516 -0.0408846 -5.76654e-16)
(1.08382 -0.0397884 -2.40316e-16)
(1.10201 -0.0337093 2.55029e-15)
(1.1158 -0.0221496 3.38649e-15)
(1.1223 -0.0084665 1.49932e-16)
(1.12135 0.00474324 -4.49932e-15)
(1.11338 0.0143948 -7.94971e-15)
(1.10134 0.0172073 -7.85639e-15)
(1.09018 0.0124485 -4.62048e-15)
(1.08439 0.00202667 -7.72504e-15)
(1.0868 -0.0101045 -4.66934e-14)
(1.09753 -0.0185931 -1.25599e-13)
(1.1127 -0.0182507 -1.60569e-13)
(1.12514 -0.00720345 -1.14217e-13)
(1.12807 0.0113926 -5.96923e-14)
(1.11884 0.0314244 -1.99497e-14)
(1.09918 0.0474587 -2.10363e-15)
(1.07304 0.0565258 -5.67373e-14)
(1.04458 0.0576949 8.32603e-14)
(1.01737 0.0509848 7.53876e-13)
(0.994619 0.0366106 -2.23642e-12)
(0.979692 0.0149145 -1.12452e-11)
(0.976729 -0.0128969 2.27556e-11)
(0.990137 -0.0429114 1.94907e-10)
(1.02131 -0.0671348 4.87246e-10)
(1.0646 -0.0758973 7.45378e-10)
(1.10726 -0.0638558 7.74117e-10)
(1.1355 -0.0343624 5.20501e-10)
(1.1419 0.00228617 2.10064e-10)
(1.1277 0.0350109 3.24187e-11)
(1.09979 0.0571392 -2.03263e-11)
(1.06589 0.0673189 -2.16069e-11)
(1.03165 0.0670388 3.17785e-12)
(1.00053 0.0579413 8.87013e-11)
(0.974926 0.0406254 8.55943e-11)
(0.957199 0.0150824 -7.779e-10)
(0.950827 -0.0177172 -3.72369e-09)
(0.960862 -0.0535 -9.04417e-09)
(0.990886 -0.0833089 -1.51664e-08)
(1.03763 -0.0957578 -1.96167e-08)
(1.08955 -0.0832903 -2.03471e-08)
(1.13127 -0.0480794 -1.6713e-08)
(1.15017 -0.00202196 -1.03972e-08)
(1.14219 0.039896 -4.47352e-09)
(1.11314 0.0674725 -8.95404e-10)
(1.07404 0.0784536 4.1882e-10)
(1.03452 0.0759969 5.44569e-10)
(0.999724 0.0641929 1.30886e-10)
(0.971603 0.0450073 -1.12747e-09)
(0.95266 0.0180819 -3.82905e-09)
(0.948189 -0.0164851 -7.72829e-09)
(0.96361 -0.0541287 -1.15802e-08)
(0.998873 -0.084864 -1.43256e-08)
(1.04626 -0.0975831 -1.59544e-08)
(1.09343 -0.0863585 -1.69302e-08)
(1.12851 -0.0537722 -1.70334e-08)
(1.1439 -0.00957224 -1.5265e-08)
(1.13771 0.0336219 -1.12509e-08)
(1.1134 0.0651952 -6.22534e-09)
(1.07809 0.0801461 -2.05335e-09)
(1.0397 0.0793781 1.52264e-10)
(1.00452 0.0667 2.86203e-10)
(0.977096 0.045065 -1.24532e-09)
(0.961912 0.0155048 -3.78632e-09)
(0.963686 -0.0201564 -6.45255e-09)
(0.984552 -0.0559937 -8.4312e-09)
(1.02113 -0.082528 -9.43314e-09)
(1.06491 -0.0911331 -9.76065e-09)
(1.1053 -0.0785253 -9.94435e-09)