/*--------------------------------*- C++ -*----------------------------------*\
  =========                 |
  \\      /  F ield         | OpenFOAM: The Open Source CFD Toolbox
   \\    /   O peration     | Website:  https://openfoam.org
    \\  /    A nd           | Version:  11
     \\/     M anipulation  |
\*---------------------------------------------------------------------------*/
FoamFile
{
    format      ascii;
    class       volVectorField;
    location    "13.730194";
    object      vorticity;
}
// * * * * * * * * * * * * * * * * * * * * * * * * * * * * * * * * * * * * * //

dimensions      [0 0 -1 0 0 0 0];

internalField   nonuniform List<vector> 
7132
(
(-5.7107e-17 -1.87838e-15 -0.00893673)
(-2.19007e-16 -1.82795e-15 -0.00861827)
(-2.20572e-16 -3.74378e-17 -0.00843707)
(-2.72339e-16 -1.81551e-15 -0.00847773)
(-3.58681e-16 -1.7911e-15 -0.0087512)
(-3.52836e-16 5.22114e-18 -0.0092196)
(-3.21778e-16 2.69805e-17 -0.00980989)
(-2.69693e-16 3.61213e-17 -0.0104262)
(-2.43599e-16 4.29907e-17 -0.0109702)
(-2.20242e-16 4.31893e-17 -0.0113564)
(-1.53032e-16 3.40957e-17 -0.0115244)
(-6.16962e-17 2.27286e-17 -0.0114734)
(-9.01934e-17 1.60616e-17 -0.0112348)
(-1.42406e-16 4.10989e-17 -0.0108873)
(-9.96061e-17 -3.40659e-15 -0.0105445)
(-1.92189e-17 -1.6837e-15 -0.0103219)
(6.33907e-17 -1.7224e-15 -0.0102947)
(7.23519e-17 5.37359e-19 -0.0104684)
(1.30056e-16 -1.72146e-15 -0.0107775)
(1.49199e-16 -1.7413e-15 -0.0111112)
(9.3945e-17 -1.01305e-17 -0.0113422)
(9.15801e-17 1.26264e-18 -0.0113506)
(3.35368e-16 -9.31798e-18 -0.0110467)
(-1.28093e-15 5.17757e-17 -0.0104159)
(-5.83785e-15 2.31579e-15 -0.00960161)
(3.32636e-14 1.8789e-15 -0.00884216)
(1.63901e-13 2.2969e-15 -0.00831023)
(2.42013e-13 9.81394e-17 -0.00809209)
(1.64772e-13 -2.18288e-15 -0.00827759)
(5.75731e-14 -3.62976e-16 -0.00897767)
(8.22973e-15 7.67803e-16 -0.0101372)
(-7.44867e-15 2.69471e-15 -0.0114498)
(-1.3266e-14 2.29322e-15 -0.0125642)
(5.18743e-14 -4.1208e-15 -0.0132257)
(1.69353e-13 -1.32777e-14 -0.013295)
(-5.45009e-13 2.56394e-14 -0.0127372)
(-3.30239e-12 1.01773e-13 -0.0116398)
(-5.72164e-13 1.30555e-13 -0.0102939)
(4.24315e-11 1.56184e-13 -0.00922502)
(1.68225e-10 3.04656e-13 -0.0088248)
(3.32916e-10 3.18527e-13 -0.0089663)
(4.00438e-10 -2.6304e-13 -0.00919194)
(3.14119e-10 -8.19826e-13 -0.0093962)
(1.64883e-10 -3.91519e-13 -0.0100052)
(5.44725e-11 2.13229e-13 -0.0112905)
(4.28996e-12 1.64665e-13 -0.0129165)
(-7.69261e-12 2.40259e-14 -0.014309)
(-5.44654e-12 1.35873e-13 -0.0150256)
(-1.53418e-13 2.37322e-13 -0.0148917)
(5.50131e-12 -3.89212e-14 -0.0139951)
(-3.85354e-14 -1.37086e-12 -0.0125659)
(-5.73069e-11 -5.54498e-12 -0.0108416)
(-2.34461e-10 -1.28791e-11 -0.00898379)
(-5.69599e-10 -1.80574e-11 -0.00701236)
(-9.6496e-10 -1.29754e-11 -0.00528276)
(-1.20034e-09 2.56901e-12 -0.00460626)
(-1.13145e-09 1.61189e-11 -0.00549897)
(-8.22665e-10 1.56113e-11 -0.00781635)
(-4.50175e-10 6.90182e-12 -0.0109983)
(-1.63994e-10 3.94652e-12 -0.014012)
(-1.9383e-11 1.05518e-11 -0.0160097)
(9.54406e-12 1.65266e-11 -0.0167704)
(-7.58886e-12 -1.2473e-11 -0.0164006)
(5.07543e-11 -1.36662e-10 -0.0148061)
(3.7904e-10 -4.05796e-10 -0.0113606)
(1.1915e-09 -8.01552e-10 -0.00512049)
(2.56906e-09 -1.20736e-09 0.00439591)
(4.326e-09 -1.43945e-09 0.0164936)
(6.08009e-09 -1.335e-09 0.0291438)
(7.41662e-09 -8.48256e-10 0.0393851)
(7.95886e-09 -9.1364e-11 0.0440502)
(7.45559e-09 7.10071e-10 0.0409165)
(5.98875e-09 1.3193e-09 0.030131)
(4.01285e-09 1.57185e-09 0.014712)
(2.10951e-09 1.42126e-09 -0.000716299)
(7.14753e-10 9.56892e-10 -0.0120667)
(-1.59422e-11 3.41641e-10 -0.0173872)
(-1.41188e-10 -2.9556e-10 -0.0170625)
(2.11202e-10 -8.95069e-10 -0.0129871)
(9.18839e-10 -1.41744e-09 -0.00757404)
(1.84053e-09 -1.7996e-09 -0.00298703)
(2.78647e-09 -1.97269e-09 -0.000187835)
(3.57506e-09 -1.90472e-09 0.00199683)
(4.11708e-09 -1.60798e-09 0.0062206)
(4.41869e-09 -1.10978e-09 0.0143249)
(4.49422e-09 -4.27602e-10 0.0251633)
(4.29626e-09 4.23384e-10 0.0344969)
(3.76267e-09 1.38338e-09 0.037484)
(2.92754e-09 2.25646e-09 0.031876)
(1.94063e-09 2.69977e-09 0.0191886)
(1.0159e-09 2.42546e-09 0.00400421)
(3.53114e-10 1.46465e-09 -0.00860416)
(7.19899e-11 2.01876e-10 -0.0162248)
(1.81963e-10 -8.86232e-10 -0.0203958)
(5.89765e-10 -1.52452e-09 -0.0249178)
(1.13452e-09 -1.70989e-09 -0.0326128)
(1.6412e-09 -1.58878e-09 -0.0427267)
(1.98146e-09 -1.31916e-09 -0.0511832)
(2.10944e-09 -1.00857e-09 -0.0535009)
(2.05466e-09 -7.08839e-10 -0.0475612)
(1.88404e-09 -4.22714e-10 -0.0344247)
(1.65935e-09 -1.03654e-10 -0.0175516)
(1.41458e-09 3.34359e-10 -0.00127064)
(1.16144e-09 9.44686e-10 0.0108762)
(8.99593e-10 1.62407e-09 0.0165688)
(6.33548e-10 2.07692e-09 0.0150617)
(3.89994e-10 1.98923e-09 0.00728496)
(2.16415e-10 1.30353e-09 -0.00509676)
(1.57729e-10 3.0441e-10 -0.0210051)
(2.27678e-10 -5.93242e-10 -0.0402189)
(3.9603e-10 -1.12515e-09 -0.0621453)
(6.01208e-10 -1.27089e-09 -0.0840982)
(7.79431e-10 -1.15749e-09 -0.1015)
(8.88361e-10 -9.29714e-10 -0.110251)
(9.13699e-10 -6.86087e-10 -0.108876)
(8.63088e-10 -4.75866e-10 -0.0988164)
(7.5716e-10 -3.15762e-10 -0.0832424)
(6.22872e-10 -1.99022e-10 -0.0654643)
(4.88713e-10 -9.56037e-11 -0.0475783)
(3.78195e-10 4.16329e-11 -0.0304054)
(3.02875e-10 2.53209e-10 -0.0141741)
(2.61084e-10 5.3903e-10 0.000838409)
(2.43108e-10 8.43536e-10 0.0138148)
(2.39971e-10 1.08098e-09 0.0232311)
(2.49591e-10 1.18319e-09 0.0272188)
(2.75929e-10 1.13229e-09 0.0243789)
(3.22485e-10 9.58821e-10 0.0146891)
(3.85474e-10 7.16078e-10 -9.43731e-05)
(4.51647e-10 4.53629e-10 -0.0169308)
(5.02251e-10 2.03471e-10 -0.0326363)
(5.20907e-10 -2.08974e-11 -0.0450324)
(5.00977e-10 -2.18079e-10 -0.0535107)
(4.47405e-10 -3.90199e-10 -0.0582753)
(3.73336e-10 -5.36152e-10 -0.0596605)
(2.94479e-10 -6.49116e-10 -0.0581835)
(2.23564e-10 -7.17649e-10 -0.0545511)
(1.67559e-10 -7.26379e-10 -0.0495109)
(1.28002e-10 -6.56027e-10 -0.0435464)
(1.0275e-10 -4.90228e-10 -0.0366532)
(8.77406e-11 -2.31727e-10 -0.0284764)
(7.89341e-11 8.48958e-11 -0.018792)
(7.48186e-11 3.9927e-10 -0.00797103)
(7.84506e-11 6.48311e-10 0.00298809)
(9.70224e-11 7.89551e-10 0.0129301)
(1.3804e-10 8.11145e-10 0.0210654)
(2.04304e-10 7.27565e-10 0.0272357)
(2.90733e-10 5.68298e-10 0.0318548)
(3.84513e-10 3.67313e-10 0.0355975)
(4.68115e-10 1.57489e-10 0.0389848)
(5.23856e-10 -2.92011e-11 0.0420378)
(5.38201e-10 -1.58974e-10 0.0441679)
(5.05334e-10 -1.98657e-10 0.0442654)
(4.29902e-10 -1.29978e-10 0.0410695)
(3.26585e-10 2.84037e-11 0.0338538)
(2.15618e-10 2.12319e-10 0.0231105)
(1.16151e-10 3.38441e-10 0.0106943)
(4.07821e-11 3.53453e-10 -0.000887131)
(-5.75609e-12 2.70549e-10 -0.00860882)
(-2.79865e-11 1.36036e-10 -0.0169439)
(-2.41241e-11 3.04831e-11 -0.0120988)
(-5.75618e-17 -6.23684e-18 -0.0267451)
(-2.29594e-16 -1.1283e-17 -0.0257775)
(-2.43825e-16 -1.2042e-17 -0.0252107)
(-3.04265e-16 -1.34248e-17 -0.0253058)
(-4.07102e-16 -1.44349e-17 -0.0261108)
(-4.18972e-16 -1.1536e-17 -0.0275309)
(-3.90356e-16 -1.45909e-17 -0.0293644)
(-3.96815e-16 -2.96809e-18 -0.0313334)
(-3.4699e-16 1.75299e-15 -0.0331425)
(-1.40428e-16 -2.09445e-18 -0.0345212)
(5.68253e-17 -4.5177e-17 -0.035255)
(-3.36215e-16 1.72603e-15 -0.035297)
(-1.29941e-15 5.64167e-17 -0.0346752)
(-1.84525e-15 4.53818e-17 -0.0335497)
(-1.37946e-15 1.68871e-18 -0.0321582)
(-5.95022e-16 -2.83533e-17 -0.0307683)
(-3.61254e-17 -3.38843e-17 -0.0296312)
(1.79327e-16 -2.7713e-17 -0.0289203)
(2.85875e-16 -1.83863e-17 -0.0286999)
(2.72583e-16 4.69847e-18 -0.0289347)
(-6.1834e-17 1.19028e-17 -0.0295097)
(5.56316e-16 -1.19449e-16 -0.030259)
(2.77372e-15 6.76937e-16 -0.0310106)
(-2.16663e-14 3.13923e-15 -0.0316567)
(-4.87266e-14 -1.66912e-14 -0.0322398)
(5.08552e-13 -8.29916e-14 -0.0328084)
(2.11834e-12 -1.02078e-13 -0.0331787)
(3.2557e-12 -3.37168e-16 -0.033025)
(2.44712e-12 9.00389e-14 -0.0322623)
(9.33141e-13 7.61726e-14 -0.0312342)
(1.36097e-13 3.32753e-14 -0.0303725)
(-1.00342e-13 9.97397e-15 -0.0298749)
(-9.17286e-14 -2.91047e-14 -0.0297261)
(5.01632e-13 -9.71685e-14 -0.0297822)
(9.70904e-13 2.81695e-13 -0.0298727)
(-5.46954e-12 1.76151e-12 -0.0299403)
(-2.28519e-11 1.13619e-13 -0.0301931)
(1.38623e-11 -2.27381e-11 -0.0312491)
(3.31101e-10 -8.4244e-11 -0.0340946)
(1.13591e-09 -1.44941e-10 -0.0390293)
(2.14968e-09 -1.15786e-10 -0.0442183)
(2.62791e-09 9.13377e-12 -0.0464233)
(2.16462e-09 1.16956e-10 -0.0442836)
(1.20157e-09 1.2943e-10 -0.0397831)
(4.29046e-10 8.0506e-11 -0.0357325)
(5.05602e-11 3.12472e-11 -0.0332565)
(-5.41287e-11 4.88881e-12 -0.0321082)
(-4.38473e-11 -3.63546e-12 -0.0315909)
(-4.40075e-12 -5.23834e-12 -0.0312614)
(3.52201e-11 -9.98251e-14 -0.0311924)
(-1.22755e-11 3.00315e-11 -0.0313159)
(-4.36758e-10 1.11668e-10 -0.0300401)
(-1.70897e-09 2.43265e-10 -0.0239743)
(-4.038e-09 3.47192e-10 -0.011098)
(-6.72705e-09 3.02391e-10 0.00447381)
(-8.31952e-09 8.58144e-11 0.0136625)
(-7.82242e-09 -1.72716e-10 0.0104402)
(-5.64314e-09 -3.2503e-10 -0.00271864)
(-3.07313e-09 -3.22434e-10 -0.0182093)
(-1.14035e-09 -2.11451e-10 -0.0296817)
(-1.54297e-10 -7.6219e-11 -0.0350784)
(1.04613e-10 1.0633e-11 -0.0359363)
(7.51533e-11 -3.30799e-11 -0.0345435)
(2.99814e-10 -3.29975e-10 -0.0313975)
(1.361e-09 -9.76172e-10 -0.0245494)
(3.59214e-09 -1.89656e-09 -0.011111)
(6.70161e-09 -2.7746e-09 0.0101291)
(9.8972e-09 -3.19497e-09 0.0375376)
(1.26157e-08 -2.88031e-09 0.0681767)
(1.48444e-08 -1.78764e-09 0.0980299)
(1.65047e-08 -1.10848e-10 0.119688)
(1.68534e-08 1.69513e-09 0.123255)
(1.50227e-08 3.04067e-09 0.103329)
(1.11486e-08 3.51147e-09 0.0648834)
(6.49146e-09 3.07031e-09 0.021111)
(2.55032e-09 2.01962e-09 -0.0141138)
(2.37134e-10 7.69613e-10 -0.0330918)
(-3.02902e-10 -4.09134e-10 -0.0364825)
(5.95445e-10 -1.42508e-09 -0.0313044)
(2.40058e-09 -2.23211e-09 -0.0269004)
(4.50506e-09 -2.73341e-09 -0.0300201)
(6.35012e-09 -2.83996e-09 -0.0399531)
(7.61594e-09 -2.57003e-09 -0.0473456)
(8.31005e-09 -2.02979e-09 -0.0402326)
(8.66235e-09 -1.29836e-09 -0.0128933)
(8.87821e-09 -3.66381e-10 0.0294578)
(8.88631e-09 7.89164e-10 0.072287)
(8.34366e-09 2.06774e-09 0.0985829)
(7.00334e-09 3.16748e-09 0.0980065)
(4.99168e-09 3.65559e-09 0.0719107)
(2.81217e-09 3.21922e-09 0.0324585)
(1.10363e-09 1.93661e-09 -0.00522974)
(3.25691e-10 2.87452e-10 -0.0335686)
(5.61295e-10 -1.14512e-09 -0.0569058)
(1.52138e-09 -2.0008e-09 -0.0852701)
(2.71958e-09 -2.2356e-09 -0.122754)
(3.71152e-09 -2.01225e-09 -0.160966)
(4.26107e-09 -1.55328e-09 -0.184369)
(4.35885e-09 -1.04517e-09 -0.181834)
(4.13729e-09 -5.96138e-10 -0.152969)
(3.76749e-09 -2.25055e-10 -0.105765)
(3.37686e-09 1.31075e-10 -0.051145)
(3.00242e-09 5.83312e-10 0.000351594)
(2.6104e-09 1.20218e-09 0.0398955)
(2.14256e-09 1.88802e-09 0.0607196)
(1.58507e-09 2.33172e-09 0.0596498)
(1.02094e-09 2.1978e-09 0.0379012)
(6.05151e-10 1.41966e-09 -0.00114494)
(4.69361e-10 2.9878e-10 -0.0550181)
(6.32783e-10 -7.12391e-10 -0.121557)
(9.91614e-10 -1.31192e-09 -0.194367)
(1.38897e-09 -1.46259e-09 -0.260064)
(1.69871e-09 -1.30107e-09 -0.303018)
(1.86283e-09 -9.96847e-10 -0.314017)
(1.87969e-09 -6.73447e-10 -0.294555)
(1.77487e-09 -3.97592e-10 -0.25402)
(1.58135e-09 -1.95652e-10 -0.203687)
(1.3354e-09 -6.47991e-11 -0.15208)
(1.08148e-09 2.6738e-11 -0.103261)
(8.64338e-10 1.34554e-10 -0.058076)
(7.10229e-10 3.11767e-10 -0.0161809)
(6.18466e-10 5.68915e-10 0.0219567)
(5.71658e-10 8.54092e-10 0.0536342)
(5.57923e-10 1.07774e-09 0.0737819)
(5.85031e-10 1.16521e-09 0.0768081)
(6.73083e-10 1.09584e-09 0.0599319)
(8.33109e-10 9.0405e-10 0.025993)
(1.04899e-09 6.51497e-10 -0.0168269)
(1.27548e-09 3.95242e-10 -0.0587037)
(1.45293e-09 1.68844e-10 -0.0925064)
(1.53037e-09 -2.02569e-11 -0.115759)
(1.48599e-09 -1.81325e-10 -0.129763)
(1.33367e-09 -3.26378e-10 -0.136681)
(1.11413e-09 -4.59688e-10 -0.137804)
(8.77284e-10 -5.74228e-10 -0.133905)
(6.6421e-10 -6.54187e-10 -0.125898)
(4.97302e-10 -6.78596e-10 -0.114964)
(3.80461e-10 -6.23623e-10 -0.101905)
(3.04677e-10 -4.70096e-10 -0.0864403)
(2.54967e-10 -2.19818e-10 -0.0674378)
(2.18538e-10 9.13585e-11 -0.0441693)
(1.93575e-10 3.99514e-10 -0.0175304)
(1.93732e-10 6.37209e-10 0.00991765)
(2.4297e-10 7.59758e-10 0.0352014)
(3.61866e-10 7.57506e-10 0.0564084)
(5.54053e-10 6.5122e-10 0.0733978)
(8.00834e-10 4.78195e-10 0.0874895)
(1.0651e-09 2.78622e-10 0.100484)
(1.30025e-09 8.78189e-11 0.113542)
(1.45988e-09 -6.42426e-11 0.126319)
(1.50687e-09 -1.49711e-10 0.136643)
(1.4228e-09 -1.44505e-10 0.140781)
(1.21667e-09 -4.06033e-11 0.134581)
(9.2667e-10 1.35548e-10 0.115492)
(6.09947e-10 3.17537e-10 0.0846344)
(3.23671e-10 4.25861e-10 0.0472794)
(1.07031e-10 4.14409e-10 0.010923)
(-2.47085e-11 3.04934e-10 -0.0151699)
(-8.54407e-11 1.45222e-10 -0.0436049)
(-6.83917e-11 2.85536e-11 -0.033783)
(-1.67139e-18 -8.03901e-20 -0.0443559)
(-2.51273e-17 -9.53845e-20 -0.0427087)
(-4.99361e-17 -1.02303e-19 -0.0417259)
(-7.61502e-17 8.53231e-19 -0.0418551)
(-1.2142e-16 9.76354e-19 -0.0431907)
(-1.05365e-16 -3.15176e-18 -0.0455895)
(-2.29466e-16 1.59021e-17 -0.0487268)
(-4.49682e-16 2.79909e-17 -0.0521422)
(5.38852e-16 -8.52027e-17 -0.0553376)
(1.01408e-15 -1.72271e-16 -0.0578416)
(-2.41343e-15 1.38766e-16 -0.0592614)
(-7.23245e-15 7.00844e-16 -0.0594884)
(-8.81907e-15 7.63801e-16 -0.0585041)
(-6.22393e-15 8.11236e-17 -0.0564989)
(-1.59996e-15 -5.62253e-16 -0.053801)
(1.54639e-15 -6.20638e-16 -0.0507933)
(2.29545e-15 -3.7485e-16 -0.0478929)
(1.80293e-15 -1.60463e-16 -0.0455108)
(1.13361e-15 -3.33672e-17 -0.0439928)
(-5.59019e-17 1.67274e-16 -0.0435896)
(-9.03263e-16 -1.51997e-16 -0.0444215)
(3.9849e-15 -1.41651e-15 -0.0464499)
(-2.32681e-14 1.1102e-14 -0.0494855)
(-2.48858e-14 2.58019e-14 -0.0532273)
(5.00788e-13 -2.64528e-13 -0.0572696)
(-1.32331e-12 -1.08166e-12 -0.0609732)
(-1.01097e-11 -1.37128e-12 -0.0633887)
(-1.47068e-11 -1.64289e-13 -0.063531)
(-7.99692e-12 1.1591e-12 -0.0609834)
(-1.34417e-12 1.15341e-12 -0.0562696)
(3.60105e-13 5.15781e-13 -0.0505248)
(-5.50901e-14 1.14874e-13 -0.0449963)
(9.01374e-14 -2.98701e-13 -0.0407287)
(2.21404e-12 -5.37172e-13 -0.0383848)
(-5.66761e-13 2.97057e-12 -0.0382399)
(-2.3776e-11 1.19353e-11 -0.0403863)
(-2.91251e-11 -9.56588e-12 -0.0450682)
(1.51293e-10 -1.76846e-10 -0.0529056)
(5.75357e-10 -5.60867e-10 -0.0643859)
(7.90394e-10 -9.08985e-10 -0.0779817)
(6.72091e-10 -7.45687e-10 -0.0897335)
(9.37226e-10 -7.73461e-12 -0.0950644)
(1.51855e-09 7.12354e-10 -0.0909128)
(1.52027e-09 8.67391e-10 -0.0786412)
(9.5473e-10 5.75714e-10 -0.0637074)
(3.25039e-10 2.4175e-10 -0.0505977)
(-3.75538e-11 4.72244e-11 -0.0413969)
(-1.10268e-10 -2.47281e-11 -0.0365374)
(-1.45016e-11 -3.92981e-11 -0.0359696)
(1.0256e-10 3.89671e-12 -0.0393004)
(-1.76162e-10 2.34618e-10 -0.0432549)
(-1.87838e-09 8.42808e-10 -0.038559)
(-6.28955e-09 1.78774e-09 -0.0133086)
(-1.35159e-08 2.49098e-09 0.034828)
(-2.1319e-08 2.12778e-09 0.0907952)
(-2.60081e-08 5.5025e-10 0.128661)
(-2.49863e-08 -1.32206e-09 0.127757)
(-1.88493e-08 -2.35903e-09 0.0885642)
(-1.09282e-08 -2.24449e-09 0.0333948)
(-4.4838e-09 -1.45547e-09 -0.0123869)
(-8.72636e-10 -6.1193e-10 -0.0368958)
(3.47602e-10 -9.81935e-11 -0.0434674)
(4.96414e-10 -1.10074e-10 -0.0413411)
(9.77947e-10 -7.79584e-10 -0.0360292)
(2.63609e-09 -2.05196e-09 -0.0274096)
(5.12927e-09 -3.47185e-09 -0.0144936)
(7.05449e-09 -4.35988e-09 0.00110041)
(7.37538e-09 -4.3965e-09 0.0196155)
(6.70047e-09 -3.8086e-09 0.0488042)
(6.82003e-09 -2.79278e-09 0.0960917)
(9.04711e-09 -1.09586e-09 0.153422)
(1.27185e-08 1.45109e-09 0.19518)
(1.52287e-08 4.17172e-09 0.195737)
(1.43235e-08 5.83748e-09 0.15091)
(1.0204e-08 5.72038e-09 0.081087)
(5.06404e-09 4.08405e-09 0.0155205)
(1.25665e-09 1.76826e-09 -0.0260145)
(-6.97308e-11 -4.74716e-10 -0.0424792)
(8.50619e-10 -2.24681e-09 -0.0492934)
(2.95054e-09 -3.37225e-09 -0.0669652)
(5.05651e-09 -3.77437e-09 -0.104975)
(6.46711e-09 -3.52813e-09 -0.150556)
(7.08699e-09 -2.88469e-09 -0.175313)
(7.16939e-09 -2.13118e-09 -0.156966)
(7.0691e-09 -1.39386e-09 -0.0946177)
(7.14943e-09 -5.39585e-10 -0.00604441)
(7.56953e-09 6.90666e-10 0.0827556)
(7.97481e-09 2.32487e-09 0.145714)
(7.65714e-09 3.93245e-09 0.164906)
(6.20401e-09 4.79536e-09 0.138523)
(3.9643e-09 4.36948e-09 0.0825483)
(1.8664e-09 2.7079e-09 0.0195633)
(7.71917e-10 4.73046e-10 -0.0389578)
(9.23537e-10 -1.48408e-09 -0.099502)
(1.8896e-09 -2.60366e-09 -0.173041)
(2.96498e-09 -2.80496e-09 -0.25406)
(3.64713e-09 -2.35952e-09 -0.315977)
(3.82036e-09 -1.64283e-09 -0.330475)
(3.63022e-09 -9.46677e-10 -0.289777)
(3.28283e-09 -4.13153e-10 -0.210045)
(2.94428e-09 -4.24976e-11 -0.116834)
(2.72034e-09 2.78881e-10 -0.0294686)
(2.62546e-09 7.1759e-10 0.0428984)
(2.55735e-09 1.37462e-09 0.0953263)
(2.34974e-09 2.13674e-09 0.12217)
(1.91397e-09 2.63773e-09 0.118156)
(1.35116e-09 2.4792e-09 0.0811076)
(9.01135e-10 1.57932e-09 0.0114974)
(7.54885e-10 2.90594e-10 -0.0885511)
(9.11896e-10 -8.54368e-10 -0.210732)
(1.21122e-09 -1.50325e-09 -0.333528)
(1.475e-09 -1.62443e-09 -0.425008)
(1.61298e-09 -1.39443e-09 -0.45922)
(1.62723e-09 -1.0202e-09 -0.43159)
(1.56183e-09 -6.42104e-10 -0.359413)
(1.45587e-09 -3.26693e-10 -0.269327)
(1.32517e-09 -9.60218e-11 -0.183237)
(1.1721e-09 5.09135e-11 -0.1112)
(1.00784e-09 1.39926e-10 -0.0529437)
(8.56886e-10 2.27258e-10 -0.00345108)
(7.39282e-10 3.76146e-10 0.0420365)
(6.55571e-10 6.08316e-10 0.0840515)
(5.96716e-10 8.73808e-10 0.116985)
(5.71592e-10 1.07429e-09 0.130532)
(6.19375e-10 1.12561e-09 0.115694)
(7.86618e-10 1.00825e-09 0.0729342)
(1.08878e-09 7.70869e-10 0.0153413)
(1.48806e-09 4.94893e-10 -0.037817)
(1.90183e-09 2.51657e-10 -0.0726045)
(2.23224e-09 7.60262e-11 -0.0873035)
(2.39886e-09 -3.74263e-11 -0.0900429)
(2.36358e-09 -1.19727e-10 -0.0909587)
(2.14239e-09 -2.04269e-10 -0.0957827)
(1.79764e-09 -3.07959e-10 -0.104365)
(1.41277e-09 -4.24155e-10 -0.113025)
(1.0614e-09 -5.27658e-10 -0.118067)
(7.86373e-10 -5.84505e-10 -0.117709)
(5.95753e-10 -5.59715e-10 -0.111508)
(4.71286e-10 -4.27482e-10 -0.0987687)
(3.8334e-10 -1.88657e-10 -0.0782182)
(3.09692e-10 1.15592e-10 -0.0494734)
(2.52253e-10 4.11673e-10 -0.0145719)
(2.40244e-10 6.23613e-10 0.022321)
(3.1402e-10 7.05484e-10 0.057032)
(4.99274e-10 6.55605e-10 0.0875284)
(7.89792e-10 5.08081e-10 0.114442)
(1.14846e-09 3.12774e-10 0.139926)
(1.52097e-09 1.17608e-10 0.165965)
(1.84939e-09 -3.99006e-11 0.193065)
(2.07842e-09 -1.32511e-10 0.219501)
(2.15968e-09 -1.40432e-10 0.241074)
(2.0617e-09 -5.35593e-11 0.251425)
(1.78517e-09 1.18086e-10 0.243699)
(1.3742e-09 3.31767e-10 0.213593)
(9.09086e-10 5.1382e-10 0.162733)
(4.79102e-10 5.89899e-10 0.0995277)
(1.50375e-10 5.27643e-10 0.0363497)
(-4.82226e-11 3.66785e-10 -0.0112075)
(-1.37732e-10 1.57877e-10 -0.0631215)
(-9.93442e-11 2.19603e-11 -0.0519752)
(-5.93693e-17 7.1625e-18 -0.0616203)
(-2.12287e-16 1.28494e-17 -0.0592513)
(-1.99412e-16 1.34694e-17 -0.0578212)
(-2.5171e-16 2.2317e-17 -0.0579716)
(-2.47024e-16 1.72382e-19 -0.0598405)
(-1.29645e-16 4.2487e-17 -0.0632266)
(-1.23484e-15 1.57568e-16 -0.0676697)
(9.83836e-16 -3.87127e-16 -0.0725148)
(4.79298e-15 1.02111e-15 -0.0770574)
(-7.58803e-15 1.47405e-15 -0.080623)
(-2.907e-14 2.34336e-15 -0.0826419)
(-1.26805e-14 4.92885e-15 -0.0829901)
(6.08368e-14 -4.47846e-16 -0.0816225)
(1.29742e-13 -3.56417e-15 -0.0788186)
(1.27748e-13 -3.88347e-15 -0.0749882)
(8.05431e-14 -1.97606e-15 -0.0705989)
(3.45864e-14 -1.62154e-16 -0.0662487)
(6.99547e-15 5.53208e-16 -0.0625674)
(-5.2887e-15 9.11029e-16 -0.0601016)
(-1.25263e-14 1.02313e-15 -0.059291)
(8.03763e-15 -2.0085e-15 -0.0604116)
(-4.02423e-14 1.1063e-14 -0.0634894)
(-4.08457e-13 1.51123e-14 -0.0682536)
(1.83946e-12 -2.58889e-13 -0.0741684)
(5.38902e-12 6.32522e-13 -0.0804945)
(-4.56106e-11 5.22224e-12 -0.0861608)
(-1.95955e-10 6.58965e-12 -0.0897259)
(-3.04827e-10 -1.05672e-12 -0.0899449)
(-2.32596e-10 -6.59126e-12 -0.0863706)
(-8.95175e-11 -4.10234e-12 -0.0794983)
(-1.28538e-11 -6.11263e-13 -0.0705824)
(4.73327e-12 1.44958e-13 -0.0613937)
(5.56486e-12 -1.16367e-12 -0.0537836)
(2.24441e-12 2.31281e-13 -0.049251)
(-2.42842e-11 1.32767e-11 -0.0486576)
(-3.80461e-12 1.60407e-11 -0.0525087)
(2.94753e-10 -8.74207e-11 -0.0615044)
(2.13351e-10 -3.24979e-10 -0.0748577)
(-4.00054e-09 -4.03794e-10 -0.0854105)
(-1.69156e-08 -1.93309e-10 -0.0821402)
(-3.42951e-08 -1.89204e-10 -0.0681549)
(-4.23018e-08 -4.14097e-10 -0.0628693)
(-3.37373e-08 -1.74565e-10 -0.0736876)
(-1.72684e-08 4.11342e-10 -0.0852777)
(-4.822e-09 6.78121e-10 -0.0838773)
(2.61881e-10 5.27389e-10 -0.0707572)
(8.62602e-10 2.22542e-10 -0.055083)
(3.28288e-10 -1.51615e-11 -0.0448136)
(1.22939e-10 -1.11652e-10 -0.0434293)
(1.30242e-10 8.07305e-11 -0.048702)
(-9.87839e-10 1.0205e-09 -0.049406)
(-5.50215e-09 3.16836e-09 -0.0268114)
(-1.48752e-08 6.06204e-09 0.0310961)
(-2.74087e-08 7.86194e-09 0.117066)
(-3.88922e-08 6.5485e-09 0.212685)
(-4.55491e-08 1.91943e-09 0.29411)
(-4.5087e-08 -3.75216e-09 0.326996)
(-3.70056e-08 -7.35406e-09 0.284283)
(-2.41247e-08 -7.50516e-09 0.180154)
(-1.15951e-08 -5.23923e-09 0.0655357)
(-3.25209e-09 -2.49192e-09 -0.0147809)
(3.92216e-10 -6.73892e-10 -0.0496425)
(1.37543e-09 -3.48252e-10 -0.0532741)
(2.137e-09 -1.39981e-09 -0.0437133)
(3.50364e-09 -3.05183e-09 -0.0344192)
(4.14622e-09 -4.10576e-09 -0.0375786)
(2.43588e-09 -3.89766e-09 -0.0585324)
(-1.14877e-09 -3.01796e-09 -0.0793307)
(-4.43438e-09 -2.60264e-09 -0.0628278)
(-5.62405e-09 -2.96096e-09 0.0132305)
(-3.82667e-09 -3.06007e-09 0.130978)
(1.1006e-09 -1.39565e-09 0.240805)
(7.43578e-09 2.23814e-09 0.290833)
(1.15991e-08 6.02381e-09 0.259586)
(1.12062e-08 7.70006e-09 0.169209)
(7.26596e-09 6.49329e-09 0.0668996)
(2.92256e-09 3.3365e-09 -0.00857435)
(6.97511e-10 -2.0612e-10 -0.0509302)
(9.90767e-10 -2.93522e-09 -0.0860091)
(2.58792e-09 -4.33506e-09 -0.145892)
(4.13324e-09 -4.4917e-09 -0.233368)
(5.08766e-09 -3.8552e-09 -0.30889)
(5.58188e-09 -2.92117e-09 -0.320533)
(5.80695e-09 -2.02085e-09 -0.248556)
(5.76951e-09 -1.28838e-09 -0.118017)
(5.55672e-09 -6.16599e-10 0.0261362)
(5.54578e-09 3.76477e-10 0.147489)
(5.9694e-09 2.02394e-09 0.224644)
(6.33106e-09 4.05288e-09 0.245619)
(5.81763e-09 5.50201e-09 0.210385)
(4.25247e-09 5.38803e-09 0.135396)
(2.39745e-09 3.5328e-09 0.0440652)
(1.25967e-09 7.58881e-10 -0.0531719)
(1.20706e-09 -1.70396e-09 -0.16389)
(1.80006e-09 -3.02152e-09 -0.290747)
(2.35065e-09 -3.11436e-09 -0.405951)
(2.4974e-09 -2.43994e-09 -0.459695)
(2.29959e-09 -1.54483e-09 -0.418907)
(1.98377e-09 -7.764e-10 -0.294378)
(1.7114e-09 -2.53167e-10 -0.132514)
(1.53785e-09 5.61923e-11 0.0154139)
(1.4926e-09 2.90485e-10 0.120324)
(1.6042e-09 6.64807e-10 0.180843)
(1.80472e-09 1.34004e-09 0.208015)
(1.90403e-09 2.20971e-09 0.208984)
(1.74458e-09 2.83101e-09 0.181631)
(1.38401e-09 2.70422e-09 0.118278)
(1.06331e-09 1.71779e-09 0.0113602)
(9.7151e-10 2.93399e-10 -0.138942)
(1.08465e-09 -9.40557e-10 -0.312652)
(1.23871e-09 -1.59347e-09 -0.46456)
(1.29744e-09 -1.66347e-09 -0.541844)
(1.23195e-09 -1.37719e-09 -0.516523)
(1.09144e-09 -9.71276e-10 -0.402546)
(9.41609e-10 -5.8777e-10 -0.244424)
(8.23459e-10 -2.79265e-10 -0.0911731)
(7.43135e-10 -5.37648e-11 0.0251003)
(6.85397e-10 9.38668e-11 0.0966767)
(6.33715e-10 1.84342e-10 0.134044)
(5.82144e-10 2.68834e-10 0.154799)
(5.27971e-10 4.12424e-10 0.173164)
(4.6269e-10 6.40199e-10 0.192365)
(3.89037e-10 8.96082e-10 0.202553)
(3.49934e-10 1.06641e-09 0.187243)
(4.26851e-10 1.0577e-09 0.138306)
(6.91048e-10 8.6114e-10 0.0695023)
(1.1484e-09 5.53331e-10 0.012427)
(1.72559e-09 2.44974e-10 -0.00478584)
(2.30272e-09 2.31486e-11 0.0231171)
(2.76e-09 -7.96695e-11 0.0767366)
(3.00917e-09 -8.59271e-11 0.126043)
(3.00698e-09 -5.30936e-11 0.147795)
(2.76355e-09 -4.34075e-11 0.134274)
(2.34377e-09 -9.4873e-11 0.0925103)
(1.84887e-09 -2.06106e-10 0.038082)
(1.38063e-09 -3.40987e-10 -0.0135627)
(1.00709e-09 -4.45774e-10 -0.0526288)
(7.46811e-10 -4.6608e-10 -0.0751206)
(5.75239e-10 -3.63888e-10 -0.0799752)
(4.48439e-10 -1.39021e-10 -0.0673279)
(3.36121e-10 1.56902e-10 -0.0393134)
(2.46668e-10 4.34238e-10 -0.000963627)
(2.2476e-10 6.06325e-10 0.0412963)
(3.20621e-10 6.30243e-10 0.0829033)
(5.53885e-10 5.1962e-10 0.123072)
(8.99109e-10 3.26629e-10 0.163659)
(1.29951e-09 1.12604e-10 0.206435)
(1.69342e-09 -7.18423e-11 0.251227)
(2.03133e-09 -1.90901e-10 0.29572)
(2.27329e-09 -2.19388e-10 0.335829)
(2.37853e-09 -1.41352e-10 0.365662)
(2.30657e-09 4.27491e-11 0.377424)
(2.03752e-09 3.03149e-10 0.362957)
(1.59939e-09 5.7359e-10 0.317294)
(1.07409e-09 7.65084e-10 0.243118)
(5.69398e-10 8.05216e-10 0.152007)
(1.7421e-10 6.78071e-10 0.0609777)
(-6.56212e-11 4.48987e-10 -0.00828979)
(-1.73374e-10 1.70782e-10 -0.0835081)
(-1.02758e-10 9.35993e-12 -0.0677001)
(6.9516e-17 1.87047e-15 -0.0783473)
(2.36063e-16 1.80465e-15 -0.0751964)
(2.56785e-16 1.96092e-17 -0.0732671)
(1.44708e-16 1.75938e-15 -0.0734094)
(1.25899e-15 1.67467e-15 -0.0758085)
(-1.70977e-15 2.22548e-15 -0.0802015)
(1.19263e-15 -5.40838e-16 -0.0859845)
(1.5721e-14 -2.95882e-15 -0.0922965)
(-2.86034e-14 4.20073e-15 -0.0982204)
(-6.93238e-14 1.49974e-14 -0.102865)
(5.17504e-14 2.69853e-15 -0.105463)
(3.29605e-13 -4.42525e-14 -0.105919)
(6.92176e-13 -7.04608e-14 -0.104136)
(9.71e-13 -3.33746e-14 -0.100466)
(8.7159e-13 2.4037e-14 -0.0954616)
(5.10486e-13 4.7695e-14 -0.0897414)
(1.896e-13 3.81337e-14 -0.0840532)
(3.08098e-15 1.97771e-14 -0.0792136)
(-8.21012e-14 1.14622e-14 -0.0759277)
(-7.62944e-14 -4.76117e-15 -0.0747697)
(5.17406e-14 1.3706e-14 -0.0761294)
(-7.31487e-13 2.06831e-13 -0.0800777)
(-2.01449e-13 -9.28749e-13 -0.0863115)
(1.02612e-11 -2.87294e-12 -0.0941756)
(-1.25876e-11 2.34605e-11 -0.102582)
(-9.13842e-11 9.95886e-11 -0.110244)
(-8.53259e-11 1.28237e-10 -0.115715)
(-1.62861e-10 1.81562e-11 -0.116498)
(-3.38404e-10 -1.06496e-10 -0.111335)
(-2.79367e-10 -1.08718e-10 -0.101858)
(-1.03901e-10 -4.66113e-11 -0.0900647)
(9.36697e-13 -9.09616e-12 -0.0778457)
(2.49661e-11 9.45701e-13 -0.0674198)
(-2.2022e-11 1.43856e-11 -0.0608809)
(-7.34272e-11 5.99332e-12 -0.0597746)
(4.07552e-10 -1.47585e-10 -0.0660544)
(1.38343e-09 -1.18145e-10 -0.0808099)
(-2.87984e-09 1.9708e-09 -0.0924292)
(-2.63775e-08 8.00359e-09 -0.0660336)
(-7.68347e-08 1.42383e-08 0.0251)
(-1.36619e-07 1.19474e-08 0.145296)
(-1.69551e-07 -2.86593e-10 0.20908)
(-1.51334e-07 -1.18043e-08 0.165827)
(-9.52233e-08 -1.35903e-08 0.0558342)
(-3.92436e-08 -8.18944e-09 -0.0388292)
(-6.96159e-09 -2.60055e-09 -0.077959)
(3.13384e-09 1.4019e-11 -0.0746286)
(2.96768e-09 3.45104e-10 -0.0602626)
(1.23992e-09 5.97229e-11 -0.0546431)
(3.75516e-12 5.59284e-10 -0.0555568)
(-3.2528e-09 3.05081e-09 -0.0441893)
(-1.18304e-08 7.78652e-09 -0.00642284)
(-2.50665e-08 1.2741e-08 0.048913)
(-3.71464e-08 1.44995e-08 0.111474)
(-4.33015e-08 1.1198e-08 0.19987)
(-4.50132e-08 3.64766e-09 0.328413)
(-4.54765e-08 -5.59383e-09 0.452963)
(-4.29635e-08 -1.28402e-08 0.488909)
(-3.39283e-08 -1.49497e-08 0.394396)
(-2.02728e-08 -1.18918e-08 0.219619)
(-7.9247e-09 -6.60557e-09 0.056427)
(-6.50395e-10 -2.41195e-09 -0.0385093)
(2.26724e-09 -9.82464e-10 -0.0656924)
(3.29697e-09 -1.84368e-09 -0.0593734)
(3.11775e-09 -3.05657e-09 -0.0637749)
(6.78101e-10 -2.93798e-09 -0.113789)
(-3.556e-09 -1.71239e-09 -0.202583)
(-6.70438e-09 -9.61371e-10 -0.265479)
(-6.81278e-09 -1.57096e-09 -0.228271)
(-4.99559e-09 -3.09663e-09 -0.0773766)
(-3.26211e-09 -4.45818e-09 0.130267)
(-1.39291e-09 -4.18013e-09 0.313439)
(2.27792e-09 -1.07751e-09 0.408626)
(6.94946e-09 3.95228e-09 0.390018)
(9.3232e-09 7.88693e-09 0.280078)
(7.82455e-09 8.22587e-09 0.138008)
(4.3128e-09 5.05248e-09 0.0192374)
(1.69476e-09 4.91183e-10 -0.0648132)
(1.14891e-09 -3.19201e-09 -0.149098)
(1.94043e-09 -4.94349e-09 -0.268595)
(3.00826e-09 -5.02424e-09 -0.402758)
(3.96007e-09 -4.25245e-09 -0.475461)
(4.86871e-09 -3.24434e-09 -0.420354)
(5.74889e-09 -2.22499e-09 -0.24054)
(6.33701e-09 -1.26874e-09 -0.00480397)
(6.30844e-09 -4.27719e-10 0.204286)
(5.77623e-09 4.84321e-10 0.33831)
(5.31887e-09 1.93223e-09 0.390562)
(5.17296e-09 4.00834e-09 0.372708)
(4.84029e-09 5.83465e-09 0.299972)
(3.84432e-09 6.07957e-09 0.190901)
(2.50083e-09 4.20429e-09 0.0625176)
(1.57584e-09 1.06824e-09 -0.0827445)
(1.38728e-09 -1.75427e-09 -0.251961)
(1.57181e-09 -3.17546e-09 -0.428978)
(1.62782e-09 -3.15362e-09 -0.554861)
(1.39676e-09 -2.33399e-09 -0.560408)
(1.04204e-09 -1.38601e-09 -0.421648)
(7.76838e-10 -6.52587e-10 -0.179945)
(6.81893e-10 -1.90194e-10 0.0838873)
(7.06257e-10 6.69047e-11 0.292781)
(7.86218e-10 2.45707e-10 0.406761)
(9.31156e-10 5.61534e-10 0.431259)
(1.14688e-09 1.2247e-09 0.398136)
(1.32783e-09 2.1668e-09 0.33729)
(1.33501e-09 2.89774e-09 0.258086)
(1.18687e-09 2.81983e-09 0.14934)
(1.0642e-09 1.78556e-09 -0.0065549)
(1.09527e-09 2.79922e-10 -0.210526)
(1.22273e-09 -9.87966e-10 -0.424463)
(1.29838e-09 -1.60964e-09 -0.574098)
(1.2345e-09 -1.62106e-09 -0.590616)
(1.04991e-09 -1.29143e-09 -0.458086)
(8.20688e-10 -8.75032e-10 -0.222237)
(6.16989e-10 -5.08112e-10 0.0398699)
(4.72873e-10 -2.27453e-10 0.25861)
(3.89064e-10 -2.69909e-11 0.39582)
(3.49379e-10 1.05623e-10 0.44918)
(3.32517e-10 1.91553e-10 0.44188)
(3.16868e-10 2.8013e-10 0.407165)
(2.76215e-10 4.35874e-10 0.37129)
(1.87794e-10 6.77783e-10 0.340574)
(6.96731e-11 9.30186e-10 0.300316)
(1.08042e-11 1.05538e-09 0.232052)
(1.39327e-10 9.5505e-10 0.141438)
(5.33851e-10 6.47479e-10 0.069018)
(1.15929e-09 2.53599e-10 0.0645397)
(1.88631e-09 -8.22672e-11 0.148223)
(2.56325e-09 -2.65547e-10 0.295971)
(3.07362e-09 -2.77198e-10 0.455209)
(3.35081e-09 -1.60918e-10 0.57228)
(3.36785e-09 3.0831e-12 0.613798)
(3.132e-09 1.27338e-10 0.573646)
(2.69401e-09 1.49381e-10 0.469743)
(2.14843e-09 5.74144e-11 0.334395)
(1.60782e-09 -1.06768e-10 0.200185)
(1.16097e-09 -2.67594e-10 0.0896832)
(8.40984e-10 -3.43789e-10 0.0133451)
(6.22361e-10 -2.78296e-10 -0.026849)
(4.5132e-10 -6.90977e-11 -0.0339343)
(2.94332e-10 2.16479e-10 -0.0149866)
(1.70386e-10 4.67354e-10 0.0203212)
(1.39313e-10 5.86637e-10 0.063728)
(2.55241e-10 5.40922e-10 0.112233)
(5.23558e-10 3.66361e-10 0.16756)
(8.94012e-10 1.35273e-10 0.231574)
(1.28934e-09 -8.43794e-11 0.30221)
(1.64406e-09 -2.48302e-10 0.373308)
(1.92556e-09 -3.29838e-10 0.437399)
(2.12423e-09 -3.06114e-10 0.487922)
(2.22465e-09 -1.57072e-10 0.518831)
(2.18927e-09 1.16948e-10 0.523106)
(1.97746e-09 4.71679e-10 0.493358)
(1.58818e-09 8.1348e-10 0.425322)
(1.08552e-09 1.02881e-09 0.323281)