/*--------------------------------*- C++ -*----------------------------------*\
  =========                 |
  \\      /  F ield         | OpenFOAM: The Open Source CFD Toolbox
   \\    /   O peration     | Website:  https://openfoam.org
    \\  /    A nd           | Version:  11
     \\/     M anipulation  |
\*---------------------------------------------------------------------------*/
FoamFile
{
    format      ascii;
    class       volVectorField;
    location    "11.049232";
    object      vorticity;
}
// * * * * * * * * * * * * * * * * * * * * * * * * * * * * * * * * * * * * * //

dimensions      [0 0 -1 0 0 0 0];

internalField   nonuniform List<vector> 
7132
(
(-5.31051e-17 -1.85992e-15 -0.00957269)
(-1.89049e-16 -1.8058e-15 -0.00991523)
(-1.78113e-16 -1.9753e-17 -0.0103089)
(-2.14073e-16 -1.78935e-15 -0.0106741)
(-2.76035e-16 -1.76539e-15 -0.0109576)
(-2.52651e-16 1.8022e-17 -0.0111318)
(-2.18725e-16 2.86175e-17 -0.0111986)
(-1.80907e-16 2.48477e-17 -0.0111809)
(-1.44884e-16 1.6776e-17 -0.0111186)
(-1.25422e-16 9.1953e-18 -0.0110537)
(-1.21795e-16 1.73695e-18 -0.0110201)
(-6.12078e-17 -2.46841e-18 -0.0110565)
(-6.68739e-17 -7.14402e-18 -0.0111712)
(-7.3867e-17 4.59155e-17 -0.0113592)
(3.68937e-17 -1.63192e-15 -0.0115782)
(1.46681e-16 -1.63405e-15 -0.0117701)
(2.60703e-16 -1.68473e-15 -0.011865)
(2.77427e-16 2.88632e-17 -0.0117976)
(3.5486e-16 -1.69304e-15 -0.0115275)
(3.50181e-16 -1.73115e-15 -0.0110541)
(2.06215e-16 -1.72722e-17 -0.0104466)
(-1.87033e-17 -1.65408e-17 -0.00986841)
(-2.42093e-16 -1.42463e-17 -0.00947176)
(-4.43891e-16 1.04352e-17 -0.00937318)
(-4.91097e-16 3.50189e-15 -0.00966562)
(-2.28823e-16 1.30518e-17 -0.0103934)
(9.13916e-17 -4.94123e-18 -0.0114402)
(1.5114e-16 6.81144e-17 -0.0125453)
(-4.02465e-16 9.23487e-17 -0.0134419)
(1.50893e-16 8.03738e-16 -0.0139283)
(5.65433e-15 2.27535e-16 -0.0138804)
(1.42925e-16 1.34126e-14 -0.0132495)
(-7.37193e-14 3.89854e-14 -0.0120864)
(-1.05221e-13 -7.75536e-14 -0.0106202)
(9.76762e-13 -7.19912e-13 -0.00927165)
(4.93431e-12 -1.76063e-12 -0.00836788)
(1.12879e-11 -1.93115e-12 -0.00797141)
(1.5885e-11 -4.56089e-13 -0.00800504)
(1.41432e-11 1.33015e-12 -0.00848494)
(7.61198e-12 1.82497e-12 -0.00960007)
(2.35175e-12 1.22355e-12 -0.0114213)
(1.34504e-13 5.12374e-13 -0.013565)
(-4.00535e-13 1.34516e-13 -0.0154497)
(-3.58296e-13 1.46974e-14 -0.016627)
(1.44261e-14 -2.13884e-13 -0.0168682)
(7.43507e-13 -7.72885e-13 -0.016149)
(-1.28365e-13 -5.19059e-13 -0.0146515)
(-6.73849e-12 4.79639e-12 -0.0128182)
(-1.36359e-11 2.21133e-11 -0.0114249)
(2.48456e-11 5.26494e-11 -0.0112854)
(1.91867e-10 7.98001e-11 -0.0124084)
(4.76575e-10 7.45624e-11 -0.0140771)
(6.88136e-10 2.57174e-11 -0.0155645)
(6.57864e-10 -3.84936e-11 -0.016247)
(4.45329e-10 -7.41488e-11 -0.0160543)
(2.11085e-10 -6.96666e-11 -0.0160347)
(5.37431e-11 -4.73132e-11 -0.0167967)
(-7.1297e-12 -2.55161e-11 -0.0178959)
(-1.15553e-11 -8.04958e-12 -0.0187829)
(-7.37993e-12 6.69845e-12 -0.0190731)
(-2.20655e-11 1.31346e-11 -0.0186298)
(-2.87356e-11 -2.01611e-11 -0.0172312)
(1.19004e-10 -1.50535e-10 -0.0138012)
(7.17649e-10 -4.23171e-10 -0.00613259)
(2.08869e-09 -8.1483e-10 0.00788919)
(4.28204e-09 -1.19804e-09 0.0281935)
(6.89346e-09 -1.37261e-09 0.0520074)
(9.24612e-09 -1.17541e-09 0.0755391)
(1.06964e-08 -5.97283e-10 0.0947223)
(1.07812e-08 1.86968e-10 0.104143)
(9.37163e-09 9.07894e-10 0.0983328)
(6.88814e-09 1.34367e-09 0.0764643)
(4.14513e-09 1.39881e-09 0.0446241)
(1.88712e-09 1.12047e-09 0.0128006)
(4.72337e-10 6.80772e-10 -0.0103512)
(-1.59923e-10 2.6603e-10 -0.0213926)
(-2.58105e-10 -6.09739e-11 -0.0221722)
(3.4946e-12 -3.71636e-10 -0.0174818)
(6.07393e-10 -7.51749e-10 -0.0131235)
(1.56627e-09 -1.1925e-09 -0.0149165)
(2.75342e-09 -1.5911e-09 -0.0265158)
(3.89649e-09 -1.83317e-09 -0.0465862)
(4.73323e-09 -1.86899e-09 -0.0686521)
(5.15301e-09 -1.7278e-09 -0.0846864)
(5.21044e-09 -1.48104e-09 -0.0892361)
(5.04252e-09 -1.20151e-09 -0.080946)
(4.76108e-09 -9.29555e-10 -0.0619996)
(4.40308e-09 -6.08751e-10 -0.0363418)
(3.98516e-09 -7.66617e-11 -0.00736236)
(3.48477e-09 8.11446e-10 0.0201799)
(2.85486e-09 1.97551e-09 0.0394744)
(2.09265e-09 2.99498e-09 0.0445001)
(1.28313e-09 3.33376e-09 0.0344319)
(5.63579e-10 2.7928e-09 0.0152222)
(5.07997e-11 1.70135e-09 -0.0037694)
(-1.9899e-10 6.22686e-10 -0.0152555)
(-1.86333e-10 -7.17948e-11 -0.0171262)
(4.56387e-11 -3.42776e-10 -0.0114855)
(4.07703e-10 -3.40858e-10 -0.00208629)
(7.67519e-10 -2.28029e-10 0.00719608)
(9.92643e-10 -1.01337e-10 0.013191)
(1.01444e-09 6.54768e-13 0.0140927)
(8.5592e-10 6.71071e-11 0.00979687)
(6.02221e-10 9.60185e-11 0.00202933)
(3.47762e-10 9.2847e-11 -0.00642276)
(1.54388e-10 7.00137e-11 -0.0131738)
(3.96311e-11 4.14855e-11 -0.0170348)
(-1.05216e-11 1.774e-11 -0.0180558)
(-2.15859e-11 3.23965e-12 -0.0170755)
(-1.60117e-11 -2.76325e-12 -0.0151485)
(-7.47872e-12 -3.51689e-12 -0.0131261)
(-1.56924e-12 -2.23774e-12 -0.0114922)
(1.03617e-12 -8.64678e-13 -0.010403)
(1.54742e-12 -8.8281e-14 -0.00981601)
(1.28288e-12 1.31501e-13 -0.00961317)
(1.03273e-12 6.33125e-14 -0.00966952)
(1.06179e-12 -7.79806e-14 -0.00987781)
(1.32494e-12 -1.7271e-13 -0.0101578)
(1.66787e-12 -1.96307e-13 -0.0104555)
(1.94488e-12 -1.59414e-13 -0.0107365)
(2.06609e-12 -8.06541e-14 -0.0109778)
(2.00648e-12 8.69532e-15 -0.0111603)
(1.79808e-12 8.78743e-14 -0.0112686)
(1.50238e-12 1.42286e-13 -0.0112947)
(1.18374e-12 1.64424e-13 -0.0112408)
(8.92821e-13 1.61372e-13 -0.0111192)
(6.60461e-13 1.3483e-13 -0.01095)
(4.99156e-13 9.53687e-14 -0.0107569)
(4.08316e-13 5.11695e-14 -0.0105633)
(3.80033e-13 4.80098e-15 -0.0103888)
(4.03574e-13 -2.96591e-14 -0.0102468)
(4.67754e-13 -6.08331e-14 -0.0101436)
(5.61781e-13 -8.45434e-14 -0.0100798)
(6.75144e-13 -1.00548e-13 -0.0100506)
(7.97475e-13 -1.10585e-13 -0.0100487)
(9.18963e-13 -1.09616e-13 -0.0100652)
(1.0306e-12 -1.03273e-13 -0.0100915)
(1.1247e-12 -9.06765e-14 -0.0101201)
(1.19552e-12 -7.32585e-14 -0.0101451)
(1.23989e-12 -5.48065e-14 -0.0101625)
(1.25789e-12 -3.24971e-14 -0.01017)
(1.25252e-12 -1.38551e-14 -0.0101665)
(1.229e-12 9.97325e-16 -0.0101523)
(1.19369e-12 1.09141e-14 -0.0101284)
(1.15305e-12 1.37874e-14 -0.0100966)
(1.11288e-12 1.51976e-14 -0.0100591)
(1.07773e-12 1.08335e-14 -0.0100182)
(1.05067e-12 3.62937e-15 -0.00997578)
(1.03323e-12 -5.11937e-15 -0.00993379)
(1.02558e-12 -1.59492e-14 -0.00989349)
(1.02684e-12 -2.2636e-14 -0.00985564)
(1.0354e-12 -2.96662e-14 -0.00982056)
(1.04925e-12 -3.48934e-14 -0.00978798)
(1.06629e-12 -3.81703e-14 -0.00975757)
(1.08451e-12 -4.13657e-14 -0.00972822)
(1.10231e-12 -3.93825e-14 -0.00969982)
(1.11838e-12 -3.84396e-14 -0.00966991)
(1.13243e-12 -3.45051e-14 -0.00964239)
(1.14279e-12 -4.08109e-14 -0.00960003)
(1.1565e-12 -2.7068e-14 -0.00957071)
(-5.35156e-17 -5.17662e-18 -0.0286313)
(-1.96742e-16 -8.36276e-18 -0.0296655)
(-1.95499e-16 -8.08774e-18 -0.0308649)
(-2.36317e-16 -9.0513e-18 -0.0319936)
(-3.06396e-16 -9.68344e-18 -0.0328878)
(-2.96019e-16 -7.2448e-18 -0.0334551)
(-2.80258e-16 -7.2548e-18 -0.0336866)
(-2.55238e-16 -1.20729e-17 -0.0336357)
(-1.51408e-16 1.72376e-15 -0.0334096)
(-1.98072e-16 -2.3494e-18 -0.033124)
(-3.61828e-16 -3.03702e-17 -0.0328726)
(-4.08762e-16 1.70479e-15 -0.0327715)
(-2.91168e-16 -8.1444e-19 -0.0328557)
(-1.41358e-16 -5.12128e-18 -0.033124)
(1.2442e-16 -5.78082e-18 -0.0335204)
(4.06772e-16 -8.6855e-18 -0.0339721)
(6.97279e-16 -1.70712e-17 -0.0343946)
(7.89738e-16 -1.99095e-17 -0.0347098)
(5.98253e-16 6.99977e-18 -0.0348658)
(-1.64791e-16 7.6202e-17 -0.0348403)
(-1.70707e-15 1.65476e-16 -0.0346703)
(-6.57883e-15 2.07613e-16 -0.0344822)
(-1.90376e-14 1.98347e-16 -0.0343319)
(-2.77242e-14 1.35784e-16 -0.0341714)
(-1.97476e-14 -7.50931e-17 -0.0339711)
(-6.91318e-15 -2.79039e-16 -0.0338171)
(-4.05507e-16 -1.94923e-16 -0.0337876)
(1.4387e-16 3.15043e-16 -0.0338697)
(-2.99909e-16 8.5696e-17 -0.0339814)
(1.1499e-14 -3.96277e-15 -0.0340127)
(-9.48519e-15 2.38295e-16 -0.033862)
(-1.8837e-13 4.78987e-14 -0.0335105)
(2.56379e-13 8.99325e-14 -0.033125)
(3.53206e-12 -6.04526e-13 -0.0331058)
(3.15171e-13 -3.24314e-12 -0.0339295)
(-5.08174e-11 -6.91621e-12 -0.0356797)
(-1.64018e-10 -7.40825e-12 -0.0377233)
(-2.43571e-10 -1.88547e-12 -0.0389235)
(-2.04812e-10 5.46494e-12 -0.038719)
(-1.04656e-10 7.71723e-12 -0.0377029)
(-3.13752e-11 4.96228e-12 -0.0367713)
(-2.08658e-12 1.88678e-12 -0.036325)
(2.83106e-12 3.79178e-13 -0.0362903)
(1.41807e-12 -1.94524e-13 -0.0363036)
(2.07771e-12 -7.68251e-13 -0.0359317)
(1.81612e-12 -7.01486e-13 -0.0350224)
(-1.98974e-11 3.22021e-12 -0.0341566)
(-5.96299e-11 1.15485e-11 -0.0345945)
(7.98036e-11 6.31955e-12 -0.036705)
(9.75218e-10 -5.01054e-11 -0.0372937)
(3.22222e-09 -1.46067e-10 -0.0307811)
(6.38093e-09 -1.7357e-10 -0.0177265)
(8.66642e-09 -6.49287e-11 -0.00842846)
(8.4607e-09 8.29097e-11 -0.0117126)
(6.02952e-09 1.49239e-10 -0.024085)
(3.09242e-09 1.26125e-10 -0.0358816)
(1.01058e-09 6.17974e-11 -0.0417516)
(6.19681e-11 7.12964e-12 -0.0421241)
(-1.49839e-10 -7.92446e-12 -0.040211)
(-1.1637e-10 1.19518e-11 -0.0385615)
(-1.10751e-10 2.38107e-11 -0.0378746)
(-4.79481e-11 -9.06942e-11 -0.0365084)
(6.21908e-10 -5.23729e-10 -0.0296296)
(2.75633e-09 -1.40801e-09 -0.010823)
(6.83332e-09 -2.59703e-09 0.0221174)
(1.21973e-08 -3.60043e-09 0.0633974)
(1.73757e-08 -3.85465e-09 0.106678)
(2.12749e-08 -3.07688e-09 0.153653)
(2.36573e-08 -1.3648e-09 0.207358)
(2.43645e-08 8.49345e-10 0.256899)
(2.27145e-08 2.85441e-09 0.276321)
(1.83118e-08 3.95692e-09 0.245182)
(1.21471e-08 3.89931e-09 0.169255)
(6.15784e-09 2.95687e-09 0.0775912)
(1.88553e-09 1.70429e-09 0.00249011)
(-2.68336e-10 6.31254e-10 -0.0387749)
(-7.11312e-10 -1.42681e-10 -0.0486491)
(7.34239e-11 -8.04387e-10 -0.0434303)
(1.81895e-09 -1.53314e-09 -0.0452701)
(4.2089e-09 -2.26551e-09 -0.0735012)
(6.64176e-09 -2.7562e-09 -0.132977)
(8.45964e-09 -2.82307e-09 -0.207716)
(9.34045e-09 -2.49725e-09 -0.270205)
(9.39467e-09 -1.96641e-09 -0.299481)
(8.97287e-09 -1.4258e-09 -0.290881)
(8.45161e-09 -9.76827e-10 -0.25148)
(8.07746e-09 -6.09834e-10 -0.190648)
(7.87886e-09 -2.20791e-10 -0.115043)
(7.75354e-09 3.82499e-10 -0.0294343)
(7.44611e-09 1.37659e-09 0.055362)
(6.6425e-09 2.67157e-09 0.11969)
(5.21145e-09 3.78084e-09 0.143483)
(3.36433e-09 4.0983e-09 0.120734)
(1.54629e-09 3.40897e-09 0.0661345)
(1.85853e-10 2.08264e-09 0.00663054)
(-4.50442e-10 7.41256e-10 -0.0340002)
(-2.64501e-10 -1.94107e-10 -0.0446233)
(6.71038e-10 -6.39794e-10 -0.0266569)
(2.05921e-09 -7.01796e-10 0.00965295)
(3.40309e-09 -5.20497e-10 0.0489038)
(4.19627e-09 -2.24798e-10 0.075743)
(4.18071e-09 6.90181e-11 0.0811166)
(3.46793e-09 2.73219e-10 0.0654736)
(2.41058e-09 3.50099e-10 0.0368235)
(1.37772e-09 3.16765e-10 0.00589396)
(6.0467e-10 2.24081e-10 -0.0188102)
(1.51484e-10 1.23942e-10 -0.033543)
(-4.40188e-11 4.83485e-11 -0.0389709)
(-8.5892e-11 5.98648e-12 -0.0382094)
(-6.32643e-11 -9.81509e-12 -0.0347537)
(-2.95216e-11 -1.07364e-11 -0.0311826)
(-6.1658e-12 -6.49345e-12 -0.0287902)
(4.26642e-12 -2.42301e-12 -0.0278431)
(6.49279e-12 -2.09904e-13 -0.0280503)
(5.64952e-12 3.90581e-13 -0.0289542)
(4.83857e-12 1.75595e-13 -0.0301393)
(5.11054e-12 -2.2235e-13 -0.0313008)
(6.27499e-12 -4.75753e-13 -0.0322503)
(7.68744e-12 -5.04544e-13 -0.032897)
(8.7401e-12 -3.56789e-13 -0.0332238)
(9.07534e-12 -1.0972e-13 -0.033261)
(8.62785e-12 1.44437e-13 -0.0330622)
(7.57607e-12 3.39924e-13 -0.0326879)
(6.20911e-12 4.51191e-13 -0.0321994)
(4.80697e-12 4.7094e-13 -0.0316559)
(3.57348e-12 4.24746e-13 -0.0311122)
(2.61924e-12 3.33398e-13 -0.030616)
(1.97661e-12 2.21441e-13 -0.0302046)
(1.62755e-12 1.12465e-13 -0.0299019)
(1.52978e-12 1.0641e-14 -0.0297169)
(1.63441e-12 -7.17849e-14 -0.0296441)
(1.89434e-12 -1.38201e-13 -0.0296656)
(2.2658e-12 -1.88238e-13 -0.0297558)
(2.70701e-12 -2.1666e-13 -0.0298853)
(3.17736e-12 -2.3076e-13 -0.0300261)
(3.63849e-12 -2.24444e-13 -0.0301542)
(4.05555e-12 -2.04406e-13 -0.0302514)
(4.3993e-12 -1.73135e-13 -0.030307)
(4.64882e-12 -1.29122e-13 -0.0303167)
(4.79389e-12 -8.42571e-14 -0.030282)
(4.83672e-12 -3.70736e-14 -0.0302081)
(4.79082e-12 2.32409e-15 -0.0301032)
(4.67755e-12 3.04111e-14 -0.0299763)
(4.52207e-12 5.06237e-14 -0.0298367)
(4.3494e-12 5.59254e-14 -0.0296931)
(4.1814e-12 5.459e-14 -0.0295527)
(4.03486e-12 4.36751e-14 -0.0294207)
(3.92058e-12 2.58806e-14 -0.0293007)
(3.84362e-12 9.16066e-15 -0.0291941)
(3.80399e-12 -1.10195e-14 -0.0291004)
(3.79784e-12 -2.581e-14 -0.0290176)
(3.8188e-12 -3.91344e-14 -0.0289432)
(3.85908e-12 -5.03397e-14 -0.0288732)
(3.91073e-12 -5.40677e-14 -0.0288047)
(3.96637e-12 -5.76404e-14 -0.0287333)
(4.02009e-12 -5.45805e-14 -0.0286582)
(4.06738e-12 -5.17663e-14 -0.0285729)
(4.10689e-12 -4.67126e-14 -0.0284891)
(4.13456e-12 -5.11128e-14 -0.0283578)
(4.16735e-12 -3.21894e-14 -0.0282562)
(-1.72634e-18 -6.60241e-20 -0.0474448)
(-2.10818e-17 -8.72629e-20 -0.0491824)
(-3.76231e-17 3.4816e-20 -0.0512074)
(-6.17045e-17 8.24986e-19 -0.0531264)
(-7.56326e-17 -8.15843e-19 -0.0546614)
(-1.05998e-16 4.95282e-18 -0.055648)
(-2.05432e-16 8.22715e-18 -0.0560582)
(8.39517e-17 -2.60247e-17 -0.0559654)
(-3.63601e-17 -1.18069e-17 -0.0555377)
(-1.15397e-15 1.00853e-16 -0.054956)
(-1.10859e-15 1.13858e-16 -0.0543662)
(1.08917e-15 -3.77986e-17 -0.0539746)
(3.18902e-15 -1.47622e-16 -0.0538388)
(3.4459e-15 -1.61878e-16 -0.0540018)
(3.1194e-15 -1.71266e-16 -0.0544304)
(2.70023e-15 -1.85752e-16 -0.0550945)
(1.92402e-15 -1.41487e-16 -0.0559678)
(-3.13392e-16 7.83762e-17 -0.0570268)
(-5.47594e-15 5.18947e-16 -0.0582411)
(-1.28494e-14 1.15623e-15 -0.0595485)
(-2.11631e-14 3.18975e-15 -0.0608604)
(-6.31192e-14 8.64874e-15 -0.0620285)
(-2.00857e-13 1.05584e-14 -0.0627201)
(-2.9596e-13 3.65414e-16 -0.0625068)
(-1.85153e-13 -1.03731e-14 -0.0610947)
(-4.11408e-14 -9.65799e-15 -0.0586144)
(7.09929e-15 -3.53347e-15 -0.0555297)
(3.37588e-15 1.5315e-17 -0.0524177)
(2.50972e-14 -5.58522e-15 -0.0498368)
(8.50476e-14 3.6481e-15 -0.0482356)
(-4.22891e-13 9.84408e-14 -0.047903)
(-1.198e-12 -1.21237e-13 -0.049043)
(6.64989e-12 -1.82124e-12 -0.0518421)
(2.52379e-11 -1.08694e-13 -0.0563874)
(-5.9347e-11 2.64531e-11 -0.0628989)
(-5.15688e-10 8.0404e-11 -0.0718857)
(-1.35588e-09 9.44437e-11 -0.0818559)
(-1.99048e-09 1.99411e-11 -0.0874507)
(-1.81873e-09 -6.8129e-11 -0.0845868)
(-1.05392e-09 -8.48951e-11 -0.0755908)
(-3.76589e-10 -5.00628e-11 -0.0653298)
(-5.10925e-11 -1.65925e-11 -0.0563646)
(3.16041e-11 -1.61781e-12 -0.0494881)
(2.66257e-11 3.89634e-13 -0.0448702)
(1.68403e-11 -4.14658e-13 -0.0423975)
(-1.1592e-11 1.02129e-11 -0.0423647)
(-1.28206e-10 3.02022e-11 -0.046276)
(-1.37105e-10 -4.50541e-11 -0.0544792)
(1.05474e-09 -4.95312e-10 -0.0584728)
(5.38814e-09 -1.51856e-09 -0.0373912)
(1.3727e-08 -2.62306e-09 0.0246478)
(2.38323e-08 -2.64754e-09 0.112046)
(3.10954e-08 -1.01416e-09 0.178132)
(3.14434e-08 1.27996e-09 0.179774)
(2.44596e-08 2.60999e-09 0.116838)
(1.42137e-08 2.4398e-09 0.033026)
(5.6708e-09 1.46792e-09 -0.0275895)
(9.82646e-10 5.54694e-10 -0.0516798)
(-5.27178e-10 8.11197e-11 -0.0513484)
(-5.80096e-10 -1.28456e-11 -0.0447101)
(-3.67271e-10 -2.10766e-11 -0.0415459)
(1.01635e-10 -3.86487e-10 -0.0395596)
(1.83273e-09 -1.55267e-09 -0.0293513)
(5.75284e-09 -3.52887e-09 -0.00737331)
(1.11808e-08 -5.53529e-09 0.0137481)
(1.57464e-08 -6.46925e-09 0.0183738)
(1.75836e-08 -5.91141e-09 0.0175098)
(1.7194e-08 -4.31621e-09 0.0480869)
(1.68318e-08 -2.14207e-09 0.136084)
(1.82077e-08 6.58353e-10 0.265728)
(2.04626e-08 3.93421e-09 0.379734)
(2.06064e-08 6.62741e-09 0.412836)
(1.68054e-08 7.4758e-09 0.342324)
(1.03751e-08 6.25125e-09 0.205667)
(4.19406e-09 3.89386e-09 0.0684298)
(3.10472e-10 1.56445e-09 -0.0212131)
(-8.23125e-10 -2.3185e-10 -0.0565517)
(2.93772e-10 -1.63677e-09 -0.0686304)
(2.77019e-09 -2.81948e-09 -0.104562)
(5.43601e-09 -3.60391e-09 -0.194752)
(7.17545e-09 -3.71647e-09 -0.324686)
(7.51655e-09 -3.18251e-09 -0.440911)
(6.77687e-09 -2.3365e-09 -0.491865)
(5.61636e-09 -1.54401e-09 -0.463788)
(4.54804e-09 -1.00951e-09 -0.381807)
(3.83267e-09 -7.538e-10 -0.283683)
(3.64757e-09 -6.43171e-10 -0.191355)
(4.1321e-09 -4.46796e-10 -0.101772)
(5.19092e-09 1.39715e-10 -0.00252084)
(6.33711e-09 1.36697e-09 0.106193)
(6.82553e-09 3.09284e-09 0.200155)
(6.12688e-09 4.63406e-09 0.243336)
(4.34807e-09 5.16634e-09 0.21605)
(2.1628e-09 4.38204e-09 0.13289)
(3.99872e-10 2.69972e-09 0.0345757)
(-2.70186e-10 8.47862e-10 -0.0352275)
(5.18359e-10 -6.32533e-10 -0.0483076)
(2.66505e-09 -1.50463e-09 0.000364588)
(5.52966e-09 -1.70688e-09 0.0922268)
(8.14934e-09 -1.29655e-09 0.191969)
(9.63101e-09 -4.90147e-10 0.261296)
(9.51014e-09 3.64826e-10 0.275582)
(7.95011e-09 9.52174e-10 0.234792)
(5.61351e-09 1.14112e-09 0.159705)
(3.27232e-09 9.95802e-10 0.0782378)
(1.47315e-09 6.83133e-10 0.0125364)
(3.91019e-10 3.65832e-10 -0.0280524)
(-9.04238e-11 1.36428e-10 -0.0457721)
(-2.02933e-10 1.28624e-11 -0.0487553)
(-1.54889e-10 -3.09467e-11 -0.0454949)
(-7.50053e-11 -3.20662e-11 -0.0418185)
(-1.72881e-11 -1.913e-11 -0.0403559)
(1.00865e-11 -7.19398e-12 -0.0414179)
(1.7373e-11 -7.7983e-13 -0.0441968)
(1.67226e-11 9.60349e-13 -0.0476569)
(1.58155e-11 3.32803e-13 -0.0509659)
(1.73836e-11 -7.94456e-13 -0.0536079)
(2.09565e-11 -1.46116e-12 -0.0553448)
(2.47982e-11 -1.42886e-12 -0.0561399)
(2.72616e-11 -8.51633e-13 -0.0560903)
(2.74498e-11 -2.45316e-14 -0.0553737)
(2.53514e-11 7.58332e-13 -0.0542035)
(2.1647e-11 1.29724e-12 -0.0527922)
(1.72689e-11 1.52684e-12 -0.0513313)
(1.30374e-11 1.48397e-12 -0.0499792)
(9.48717e-12 1.25523e-12 -0.0488531)
(6.85431e-12 9.33271e-13 -0.0480255)
(5.15366e-12 5.91216e-13 -0.0475247)
(4.27702e-12 2.74582e-13 -0.0473393)
(4.07204e-12 4.83989e-15 -0.0474261)
(4.38772e-12 -2.1194e-13 -0.0477204)
(5.09046e-12 -3.76525e-13 -0.0481464)
(6.06226e-12 -4.90879e-13 -0.0486281)
(7.19325e-12 -5.56328e-13 -0.0490976)
(8.37808e-12 -5.74586e-13 -0.0495013)
(9.51809e-12 -5.48712e-13 -0.0498018)
(1.05246e-11 -4.83679e-13 -0.0499796)
(1.13255e-11 -3.87312e-13 -0.0500308)
(1.18727e-11 -2.70557e-13 -0.0499649)
(1.21472e-11 -1.47021e-13 -0.0498007)
(1.21618e-11 -3.096e-14 -0.0495622)
(1.19572e-11 6.57292e-14 -0.0492754)
(1.1592e-11 1.35373e-13 -0.0489654)
(1.11319e-11 1.74989e-13 -0.0486543)
(1.06403e-11 1.85855e-13 -0.0483599)
(1.01705e-11 1.7247e-13 -0.0480945)
(9.76195e-12 1.41246e-13 -0.0478652)
(9.43877e-12 9.92475e-14 -0.0476742)
(9.21069e-12 5.31746e-14 -0.0475188)
(9.07548e-12 8.67341e-15 -0.0473934)
(9.02199e-12 -3.00389e-14 -0.0472896)
(9.0334e-12 -6.02826e-14 -0.0471987)
(9.09022e-12 -8.08592e-14 -0.0471111)
(9.17301e-12 -9.1817e-14 -0.0470196)
(9.26422e-12 -9.43106e-14 -0.046916)
(9.35007e-12 -8.98885e-14 -0.0467987)
(9.42062e-12 -8.18418e-14 -0.0466575)
(9.47196e-12 -6.80937e-14 -0.0465134)
(9.50161e-12 -7.10375e-14 -0.0462857)
(9.51914e-12 -4.1726e-14 -0.0461056)
(-5.63202e-17 6.22744e-18 -0.0658346)
(-1.88394e-16 9.58561e-18 -0.0682891)
(-1.58928e-16 1.22236e-17 -0.0711499)
(-2.07572e-16 9.95348e-18 -0.0738598)
(-1.12746e-16 1.24631e-17 -0.0760236)
(-5.20402e-16 5.76549e-17 -0.0774071)
(1.8292e-16 -1.02229e-16 -0.0779692)
(9.71028e-16 -9.66088e-17 -0.0778105)
(-3.97233e-15 2.34272e-15 -0.0771724)
(-3.4816e-15 5.33767e-16 -0.0763042)
(9.56698e-15 -2.88666e-15 -0.0754024)
(1.72732e-14 -4.44013e-16 -0.0747921)
(1.04148e-14 -1.17918e-15 -0.0745523)
(6.19077e-16 2.96904e-17 -0.0747039)
(-8.84844e-15 3.67057e-16 -0.0752145)
(-1.76158e-14 5.89002e-16 -0.0760844)
(-2.84429e-14 1.48974e-15 -0.0773127)
(-4.62568e-14 3.68007e-15 -0.0788895)
(-7.17412e-14 6.27502e-15 -0.0807818)
(-9.13286e-14 7.91978e-15 -0.0828622)
(-1.06676e-13 2.53003e-14 -0.0849144)
(-6.32417e-14 9.00546e-14 -0.0867193)
(5.13414e-13 1.16619e-13 -0.0878728)
(1.26519e-12 -7.71613e-15 -0.0877121)
(1.19151e-12 -1.27484e-13 -0.0856859)
(6.41806e-13 -9.64053e-14 -0.0819003)
(2.08434e-13 -2.24533e-14 -0.0770012)
(2.7069e-14 -8.68393e-15 -0.0718467)
(1.86621e-13 -4.07501e-14 -0.0673643)
(2.226e-14 2.20031e-13 -0.0644575)
(-2.50378e-12 6.4176e-13 -0.0638346)
(1.0071e-12 -3.48676e-12 -0.0659183)
(3.21045e-11 -1.3128e-11 -0.0707242)
(9.53054e-12 3.23939e-11 -0.0782026)
(-3.45824e-10 2.6722e-10 -0.0900957)
(-9.98957e-10 6.4135e-10 -0.109114)
(-1.49192e-09 7.2999e-10 -0.132102)
(-1.93968e-09 2.29538e-10 -0.147525)
(-2.34983e-09 -4.62819e-10 -0.144066)
(-2.02179e-09 -7.13352e-10 -0.123502)
(-1.1235e-09 -4.9645e-10 -0.099021)
(-3.48425e-10 -2.0221e-10 -0.0790967)
(2.25997e-11 -3.84799e-11 -0.0650585)
(9.72418e-11 7.18739e-12 -0.0559997)
(6.33251e-11 1.83406e-11 -0.05141)
(-9.09354e-11 7.18215e-11 -0.052825)
(-3.67024e-10 6.59765e-11 -0.0625208)
(2.71071e-10 -5.79923e-10 -0.0729433)
(4.58703e-09 -2.7563e-09 -0.0538811)
(1.48254e-08 -6.38622e-09 0.0323607)
(2.89962e-08 -9.36815e-09 0.188385)
(4.21879e-08 -8.85777e-09 0.372693)
(5.11393e-08 -3.87045e-09 0.525251)
(5.39162e-08 3.40078e-09 0.578751)
(4.78238e-08 8.76405e-09 0.488773)
(3.33037e-08 9.52054e-09 0.293019)
(1.67498e-08 6.67734e-09 0.0953588)
(4.8736e-09 3.10612e-09 -0.0262449)
(-4.55616e-10 7.73446e-10 -0.065849)
(-1.49174e-09 -6.80015e-11 -0.0626441)
(-9.28693e-10 -3.17055e-10 -0.0513027)
(5.23457e-10 -1.19069e-09 -0.0397234)
(3.68739e-09 -3.34933e-09 -0.025659)
(8.42963e-09 -6.08207e-09 -0.0275164)
(1.21744e-08 -7.59382e-09 -0.0794833)
(1.20478e-08 -6.80181e-09 -0.17548)
(8.00475e-09 -4.57842e-09 -0.242451)
(2.66415e-09 -2.70098e-09 -0.202232)
(-8.35807e-10 -1.87167e-09 -0.040418)
(-1.19534e-10 -9.66066e-10 0.193729)
(5.12121e-09 1.65507e-09 0.419316)
(1.16454e-08 5.78552e-09 0.54757)
(1.45827e-08 9.01496e-09 0.52282)
(1.20804e-08 9.26256e-09 0.367662)
(6.53037e-09 6.7366e-09 0.170408)
(1.66761e-09 3.13985e-09 0.0184837)
(-2.85764e-10 -1.34331e-10 -0.0617818)
(7.00764e-10 -2.60105e-09 -0.115491)
(3.10445e-09 -4.10425e-09 -0.213101)
(4.99043e-09 -4.46814e-09 -0.376532)
(5.26913e-09 -3.79647e-09 -0.54414)
(4.17795e-09 -2.62379e-09 -0.619589)
(2.66365e-09 -1.54715e-09 -0.552628)
(1.48566e-09 -8.51992e-10 -0.37093)
(8.12828e-10 -5.33954e-10 -0.151942)
(4.07006e-10 -5.2659e-10 0.0265025)
(1.54537e-10 -7.59551e-10 0.127386)
(3.87915e-10 -9.92465e-10 0.168328)
(1.47221e-09 -7.20005e-10 0.196091)
(3.24147e-09 5.59289e-10 0.245587)
(4.82546e-09 2.77669e-09 0.307929)
(5.22794e-09 5.01957e-09 0.337898)
(4.15044e-09 6.08034e-09 0.296215)
(2.23538e-09 5.38307e-09 0.186944)
(6.62417e-10 3.29913e-09 0.0587603)
(5.65705e-10 6.8201e-10 -0.0237002)
(2.46616e-09 -1.66172e-09 -0.0138366)
(5.90085e-09 -3.14544e-09 0.0947208)
(9.72423e-09 -3.44395e-09 0.268046)
(1.28415e-08 -2.57117e-09 0.449849)
(1.45782e-08 -9.05196e-10 0.581364)
(1.45648e-08 9.09465e-10 0.618714)
(1.27261e-08 2.22154e-09 0.550743)
(9.5364e-09 2.689e-09 0.405909)
(5.94811e-09 2.38694e-09 0.236291)
(2.90544e-09 1.66473e-09 0.0907902)
(9.05152e-10 9.05729e-10 -0.00511553)
(-7.64365e-11 3.45324e-10 -0.0517477)
(-3.61235e-10 3.82189e-11 -0.0645548)
(-3.07093e-10 -7.37789e-11 -0.0615096)
(-1.62752e-10 -7.95366e-11 -0.055549)
(-4.58954e-11 -4.90394e-11 -0.0528444)
(1.64451e-11 -1.97536e-11 -0.054509)
(3.87248e-11 -3.52796e-12 -0.0591656)
(4.34687e-11 1.1693e-12 -0.0648873)
(4.63474e-11 -1.54888e-13 -0.0701574)
(5.33515e-11 -2.79284e-12 -0.0741256)
(6.34716e-11 -4.18308e-12 -0.0765058)
(7.26904e-11 -3.65711e-12 -0.0773766)
(7.7233e-11 -1.68258e-12 -0.0770068)
(7.53216e-11 8.45409e-13 -0.0757359)
(6.75035e-11 3.04583e-12 -0.0739008)
(5.59957e-11 4.38115e-12 -0.0717961)
(4.34344e-11 4.75598e-12 -0.0696749)
(3.19314e-11 4.36182e-12 -0.0677503)
(2.27014e-11 3.51631e-12 -0.066187)
(1.61321e-11 2.50015e-12 -0.0650895)
(1.20639e-11 1.51009e-12 -0.0644952)
(1.00826e-11 6.53275e-13 -0.0643775)
(9.72476e-12 -4.47092e-14 -0.0646584)
(1.05786e-11 -5.80994e-13 -0.0652265)
(1.23045e-11 -9.75471e-13 -0.0659574)
(1.46155e-11 -1.23963e-12 -0.0667316)
(1.72496e-11 -1.37457e-12 -0.0674481)
(1.99596e-11 -1.39318e-12 -0.0680319)
(2.25146e-11 -1.2977e-12 -0.0684363)
(2.47104e-11 -1.10812e-12 -0.0686426)
(2.63871e-11 -8.47198e-13 -0.0686557)
(2.74464e-11 -5.3994e-13 -0.0684987)
(2.78617e-11 -2.288e-13 -0.0682065)
(2.76805e-11 5.79061e-14 -0.067819)
(2.70109e-11 2.87233e-13 -0.067376)
(2.59974e-11 4.43049e-13 -0.0669137)
(2.47953e-11 5.26467e-13 -0.0664625)
(2.35487e-11 5.36643e-13 -0.0660454)
(2.23752e-11 4.93762e-13 -0.0656775)
(2.1358e-11 4.09538e-13 -0.0653658)
(2.05449e-11 3.01508e-13 -0.0651104)
(1.99515e-11 1.92536e-13 -0.0649051)
(1.95676e-11 8.33314e-14 -0.0647397)
(1.93645e-11 -4.76543e-15 -0.0646012)
(1.93026e-11 -7.32508e-14 -0.0644762)
(1.93377e-11 -1.20147e-13 -0.0643512)
(1.94271e-11 -1.41068e-13 -0.0642163)
(1.95331e-11 -1.4617e-13 -0.064061)
(1.96266e-11 -1.32781e-13 -0.063884)
(1.96881e-11 -1.12709e-13 -0.0636725)
(1.97079e-11 -8.72062e-14 -0.0634575)
(1.96954e-11 -7.47031e-14 -0.0631229)
(1.96079e-11 -4.0952e-14 -0.0628782)
(6.33072e-17 1.85701e-15 -0.0835793)
(2.2045e-16 1.78594e-15 -0.0867711)
(1.45384e-16 9.62348e-18 -0.0904903)
(3.60653e-16 1.71246e-15 -0.0940085)
(3.23393e-16 1.89032e-15 -0.0968083)
(-7.28961e-16 1.59184e-15 -0.0985823)
(6.04637e-15 -7.37488e-16 -0.0992758)
(-1.02952e-14 2.07871e-15 -0.0990171)
(-1.5095e-14 2.21451e-15 -0.098129)
(5.01306e-14 -8.45773e-15 -0.0969229)
(6.51143e-14 -1.025e-14 -0.0956313)
(-6.00778e-14 -4.34612e-16 -0.0947411)
(-2.19371e-13 8.16591e-15 -0.0942998)
(-2.65672e-13 9.46975e-15 -0.0944057)
(-2.71822e-13 8.94619e-15 -0.0949986)
(-2.73922e-13 1.13462e-14 -0.0960732)
(-2.84042e-13 1.59137e-14 -0.0976252)
(-2.93321e-13 2.17275e-14 -0.0996303)
(-2.3921e-13 2.47896e-14 -0.102043)
(-8.17433e-14 2.03581e-14 -0.104741)
(-2.28434e-15 -1.08537e-14 -0.107534)
(3.71236e-12 -3.01396e-13 -0.110092)
(2.14496e-11 -6.53657e-13 -0.111757)
(3.95075e-11 -3.38682e-13 -0.111638)
(3.16338e-11 3.01318e-13 -0.108982)
(1.23672e-11 4.80145e-13 -0.103988)
(2.26473e-12 3.03835e-13 -0.0975833)
(-2.2058e-13 1.0922e-14 -0.0908167)
(1.49573e-13 -3.18074e-15 -0.0848222)
(-2.19268e-12 1.34882e-12 -0.0808439)
(-2.873e-12 -3.95714e-13 -0.0799286)
(3.04745e-11 -1.74271e-11 -0.0825285)
(4.20377e-12 -6.08296e-12 -0.0888076)
(-4.06492e-10 1.88854e-10 -0.100528)
(-2.06458e-10 5.30695e-10 -0.118283)
(4.75837e-09 6.53453e-10 -0.130121)
(1.5918e-08 5.64806e-10 -0.125281)
(2.4753e-08 4.48893e-10 -0.122219)
(2.20546e-08 -2.70785e-11 -0.135654)
(1.15085e-08 -6.98061e-10 -0.143941)
(2.92219e-09 -8.86747e-10 -0.131057)
(-3.78174e-10 -5.89644e-10 -0.10622)
(-5.59776e-10 -2.24451e-10 -0.0831865)
(-9.28112e-11 -1.99748e-11 -0.0680556)
(5.55552e-11 9.36722e-11 -0.0617491)
(-2.86823e-10 2.25386e-10 -0.0665658)
(-4.46787e-10 -1.50803e-10 -0.0800444)
(2.33278e-09 -2.52208e-09 -0.0753087)
(1.13542e-08 -7.77247e-09 -0.00687138)
(2.46659e-08 -1.37231e-08 0.133525)
(3.43818e-08 -1.63043e-08 0.299438)
(3.64653e-08 -1.37191e-08 0.468911)
(3.63749e-08 -6.8783e-09 0.663814)
(4.08499e-08 2.93769e-09 0.84739)
(4.67705e-08 1.29162e-08 0.888291)
(4.38486e-08 1.79768e-08 0.70095)
(2.96462e-08 1.5683e-08 0.376171)
(1.28465e-08 9.15741e-09 0.0919213)
(1.81393e-09 3.2638e-09 -0.0555273)
(-2.10017e-09 2.23693e-10 -0.0883321)
(-1.67753e-09 -1.02868e-09 -0.069805)
(1.06919e-09 -2.69453e-09 -0.0421473)
(5.37259e-09 -5.50576e-09 -0.0405611)
(9.17084e-09 -7.77238e-09 -0.119652)
(9.24544e-09 -7.34436e-09 -0.301355)
(4.82672e-09 -4.38441e-09 -0.495665)
(-1.4495e-09 -1.2196e-09 -0.549556)
(-6.71831e-09 1.04071e-10 -0.389967)
(-9.92356e-09 -7.50224e-10 -0.0764243)
(-1.04663e-08 -2.32016e-09 0.271755)
(-6.95915e-09 -1.94828e-09 0.558246)
(4.81481e-10 1.89667e-09 0.720245)
(7.76405e-09 7.25832e-09 0.712563)
(1.01959e-08 1.02774e-08 0.541587)
(7.44369e-09 9.10025e-09 0.292774)
(3.11156e-09 4.97252e-09 0.075488)
(7.78337e-10 2.51575e-10 -0.0682698)
(1.26488e-09 -3.33187e-09 -0.193165)
(2.87967e-09 -4.96431e-09 -0.372685)
(3.59365e-09 -4.68625e-09 -0.58747)
(2.85097e-09 -3.31022e-09 -0.716224)
(1.48923e-09 -1.87977e-09 -0.646528)
(5.41946e-10 -9.90361e-10 -0.370298)
(4.15761e-10 -6.18595e-10 0.0215615)
(8.2849e-10 -4.70184e-10 0.402448)
(1.14657e-09 -4.24653e-10 0.666897)
(9.15111e-10 -6.33624e-10 0.766062)
(3.66269e-10 -1.10563e-09 0.723277)
(2.99088e-10 -1.28706e-09 0.616795)
(1.23496e-09 -3.09658e-10 0.528308)
(2.69551e-09 2.09961e-09 0.4849)
(3.53729e-09 4.97157e-09 0.448501)
(3.0605e-09 6.66263e-09 0.364443)
(1.74313e-09 6.12605e-09 0.222432)
(9.87884e-10 3.53456e-09 0.0750882)
(2.08865e-09 -5.40053e-11 0.00262241)
(5.10174e-09 -3.3001e-09 0.0562015)
(8.72525e-09 -5.13367e-09 0.226911)
(1.15464e-08 -5.17723e-09 0.46324)
(1.3191e-08 -3.72353e-09 0.705574)
(1.41227e-08 -1.35179e-09 0.898454)
(1.45655e-08 1.29085e-09 0.987576)
(1.39725e-08 3.46639e-09 0.93384)
(1.17714e-08 4.53014e-09 0.745402)
(8.30229e-09 4.31128e-09 0.484786)
(4.63559e-09 3.20461e-09 0.234041)
(1.78207e-09 1.85677e-09 0.0511864)
(1.39931e-10 7.69621e-10 -0.0488888)
(-4.76772e-10 1.28191e-10 -0.0843996)
(-4.9771e-10 -1.30188e-10 -0.0849754)
(-3.0261e-10 -1.62663e-10 -0.0751134)
(-1.07583e-10 -1.08728e-10 -0.0681645)
(1.5663e-11 -4.95041e-11 -0.067911)
(7.50464e-11 -1.42916e-11 -0.0728471)
(1.02565e-10 -2.85096e-12 -0.0798863)
(1.24031e-10 -4.60686e-12 -0.0864329)
(1.49676e-10 -9.35656e-12 -0.0910842)
(1.76763e-10 -1.11306e-11 -0.093512)
(1.96805e-10 -8.30955e-12 -0.0940489)
(2.02442e-10 -2.16723e-12 -0.0932746)
(1.9131e-10 4.84197e-12 -0.091738)
(1.66436e-10 1.04213e-11 -0.0898313)
(1.34212e-10 1.33318e-11 -0.0877812)
(1.01309e-10 1.3559e-11 -0.0857442)
(7.25775e-11 1.18504e-11 -0.0838748)
(5.0427e-11 9.15662e-12 -0.0823326)
(3.52401e-11 6.25201e-12 -0.0812513)
(2.62006e-11 3.61598e-12 -0.0807033)
(2.20462e-11 1.44417e-12 -0.0806818)
(2.15412e-11 -2.43165e-13 -0.0811054)
(2.3669e-11 -1.50009e-12 -0.081841)
(2.76352e-11 -2.39496e-12 -0.0827334)
(3.27896e-11 -2.96343e-12 -0.0836339)
(3.85496e-11 -3.2284e-12 -0.0844212)
(4.43705e-11 -3.20708e-12 -0.0850111)
(4.97457e-11 -2.92237e-12 -0.0853591)
(5.42352e-11 -2.41992e-12 -0.0854583)
(5.75093e-11 -1.75531e-12 -0.0853309)
(5.93853e-11 -1.00787e-12 -0.0850189)
(5.98443e-11 -2.64093e-13 -0.0845736)
(5.90265e-11 3.96193e-13 -0.084047)
(5.71947e-11 9.07298e-13 -0.0834851)
(5.46786e-11 1.24318e-12 -0.0829258)
(5.18187e-11 1.39935e-12 -0.0823978)
(4.89208e-11 1.39592e-12 -0.0819205)
(4.62264e-11 1.26955e-12 -0.0815043)
(4.38993e-11 1.05637e-12 -0.0811515)
(4.20268e-11 8.02491e-13 -0.0808575)