/*--------------------------------*- C++ -*----------------------------------*\
  =========                 |
  \\      /  F ield         | OpenFOAM: The Open Source CFD Toolbox
   \\    /   O peration     | Website:  https://openfoam.org
    \\  /    A nd           | Version:  11
     \\/     M anipulation  |
\*---------------------------------------------------------------------------*/
FoamFile
{
    format      ascii;
    class       volVectorField;
    location    "13.145384";
    object      vorticity;
}
// * * * * * * * * * * * * * * * * * * * * * * * * * * * * * * * * * * * * * //

dimensions      [0 0 -1 0 0 0 0];

internalField   nonuniform List<vector> 
7132
(
(-4.4333e-17 -1.83526e-15 -0.0108502)
(-1.50568e-16 -1.79861e-15 -0.0105785)
(-1.56043e-16 -2.93497e-17 -0.0101748)
(-1.9203e-16 -1.79206e-15 -0.00972888)
(-2.50715e-16 -1.78498e-15 -0.00933991)
(-2.61733e-16 -1.93274e-17 -0.00908777)
(-2.59256e-16 -6.73271e-18 -0.00902206)
(-2.45545e-16 -1.26061e-18 -0.00915747)
(-1.99127e-16 5.06378e-18 -0.00947247)
(-1.99672e-16 1.41985e-17 -0.00991508)
(-1.96025e-16 2.0438e-17 -0.0103959)
(-9.19996e-17 2.30187e-17 -0.0108362)
(-6.87849e-17 2.26104e-17 -0.0111421)
(-7.48548e-17 6.23572e-17 -0.0112543)
(-4.48979e-17 -1.63218e-15 -0.011151)
(-5.48882e-17 -3.37888e-15 -0.0108607)
(-6.57696e-17 -1.68807e-15 -0.010464)
(-5.52949e-17 2.81188e-17 -0.0100818)
(6.07127e-17 -1.70902e-15 -0.00986078)
(1.47659e-16 -1.74585e-15 -0.00991475)
(1.65196e-16 -3.07157e-17 -0.0102512)
(1.5943e-16 -2.43494e-17 -0.0107756)
(1.1576e-16 -1.70403e-17 -0.011337)
(9.44866e-17 -3.7049e-17 -0.0117745)
(3.16085e-16 1.60209e-15 -0.0119457)
(-4.7785e-16 4.01107e-16 -0.0117429)
(-1.78826e-15 2.5677e-15 -0.0111205)
(1.27625e-14 -4.49161e-15 -0.0101657)
(2.47886e-14 -5.3333e-14 -0.00915381)
(-1.72689e-13 -1.24583e-13 -0.00836594)
(-5.43059e-13 -1.07375e-13 -0.00793002)
(-5.32509e-13 2.31294e-14 -0.00786652)
(-2.18438e-13 1.17399e-13 -0.00825159)
(-3.45819e-14 1.03463e-13 -0.00921739)
(1.09931e-14 4.95021e-14 -0.0106748)
(-9.05891e-17 1.14462e-14 -0.0122304)
(9.72328e-15 -8.17665e-15 -0.0134637)
(7.30608e-14 -3.47412e-15 -0.0140933)
(-4.31923e-14 9.09832e-14 -0.0139942)
(-9.4745e-13 1.8959e-13 -0.0131815)
(-1.94539e-12 -4.2977e-13 -0.0118386)
(4.76212e-12 -3.17765e-12 -0.0104395)
(3.89861e-11 -8.19983e-12 -0.00974236)
(1.14291e-10 -1.16855e-11 -0.0101696)
(2.01776e-10 -8.48107e-12 -0.0112055)
(2.37943e-10 6.32748e-13 -0.0118209)
(1.94108e-10 8.68103e-12 -0.011727)
(1.10584e-10 1.07241e-11 -0.0117219)
(4.29489e-11 7.80727e-12 -0.0125147)
(7.8614e-12 3.50533e-12 -0.0138712)
(-2.82845e-12 9.57887e-13 -0.0151393)
(-6.56194e-12 2.116e-12 -0.0157824)
(-2.08834e-11 4.00674e-12 -0.0155892)
(-3.18238e-11 -8.79025e-12 -0.0146068)
(7.54381e-11 -6.34922e-11 -0.0128198)
(5.69211e-10 -1.78444e-10 -0.00986535)
(1.77579e-09 -3.29293e-10 -0.00515305)
(3.73996e-09 -4.30286e-10 0.00142064)
(5.90096e-09 -3.80547e-10 0.00826971)
(7.26764e-09 -1.62169e-10 0.0123773)
(7.11477e-09 1.27087e-10 0.0115132)
(5.57219e-09 3.53837e-10 0.0058968)
(3.46752e-09 4.33751e-10 -0.00228623)
(1.62355e-09 3.66518e-10 -0.0101504)
(4.46896e-10 2.28143e-10 -0.0155805)
(-8.38435e-11 9.88579e-11 -0.018025)
(-1.96574e-10 -1.86451e-11 -0.0179725)
(-5.62251e-11 -2.06294e-10 -0.0158885)
(3.70028e-10 -5.50814e-10 -0.011592)
(1.24014e-09 -1.04707e-09 -0.00456778)
(2.62614e-09 -1.56812e-09 0.00514563)
(4.35124e-09 -1.91905e-09 0.0166093)
(6.06728e-09 -1.92934e-09 0.0287107)
(7.45722e-09 -1.52376e-09 0.0406274)
(8.29095e-09 -7.46238e-10 0.0509319)
(8.34632e-09 2.50954e-10 0.0565557)
(7.4703e-09 1.24591e-09 0.0538952)
(5.79157e-09 2.00011e-09 0.0417824)
(3.74913e-09 2.29606e-09 0.023108)
(1.87882e-09 2.02746e-09 0.00359566)
(5.64793e-10 1.30181e-09 -0.011046)
(-6.87501e-11 3.86006e-10 -0.0178375)
(-9.43901e-11 -4.65538e-10 -0.017558)
(3.38561e-10 -1.12113e-09 -0.0137984)
(1.06526e-09 -1.54947e-09 -0.0108969)
(1.89731e-09 -1.75232e-09 -0.0118066)
(2.62888e-09 -1.74188e-09 -0.016271)
(3.10953e-09 -1.552e-09 -0.020609)
(3.31087e-09 -1.23323e-09 -0.0200408)
(3.30879e-09 -8.25382e-10 -0.0118353)
(3.19173e-09 -3.34575e-10 0.00286524)
(2.97911e-09 2.65436e-10 0.0192984)
(2.62913e-09 9.96114e-10 0.0313286)
(2.1223e-09 1.77326e-09 0.0346219)
(1.50397e-09 2.32885e-09 0.028226)
(8.80822e-10 2.32583e-09 0.0149444)
(3.86539e-10 1.6354e-09 -0.000290136)
(1.31531e-10 5.02889e-10 -0.0138472)
(1.59028e-10 -6.07031e-10 -0.0258861)
(4.26021e-10 -1.3339e-09 -0.0394672)
(8.17723e-10 -1.5936e-09 -0.057012)
(1.19361e-09 -1.5084e-09 -0.0769537)
(1.44528e-09 -1.25187e-09 -0.0939899)
(1.52935e-09 -9.54388e-10 -0.102682)
(1.46253e-09 -6.8676e-10 -0.100656)
(1.29548e-09 -4.76043e-10 -0.0891197)
(1.08657e-09 -3.17947e-10 -0.0713877)
(8.84697e-10 -1.74251e-10 -0.0510826)
(7.22664e-10 2.76817e-11 -0.0307071)
(6.13071e-10 3.60782e-10 -0.0117025)
(5.4481e-10 8.31447e-10 0.0046657)
(4.93389e-10 1.33395e-09 0.016982)
(4.38897e-10 1.68802e-09 0.0238072)
(3.7903e-10 1.74973e-09 0.023916)
(3.29194e-10 1.50144e-09 0.01647)
(3.1063e-10 1.04692e-09 0.00153117)
(3.35838e-10 5.3363e-10 -0.0192024)
(4.00447e-10 7.67745e-11 -0.0422141)
(4.84899e-10 -2.69668e-10 -0.0631077)
(5.63564e-10 -5.01327e-10 -0.0782299)
(6.15038e-10 -6.38991e-10 -0.0859349)
(6.27886e-10 -7.08825e-10 -0.0869527)
(6.0108e-10 -7.31361e-10 -0.083394)
(5.41701e-10 -7.21209e-10 -0.077109)
(4.61302e-10 -6.92675e-10 -0.0695703)
(3.72826e-10 -6.56461e-10 -0.0617641)
(2.8892e-10 -6.00575e-10 -0.0539813)
(2.20089e-10 -4.77104e-10 -0.0457304)
(1.71539e-10 -2.28647e-10 -0.0361107)
(1.41166e-10 1.54123e-10 -0.0246165)
(1.2262e-10 5.9969e-10 -0.0117992)
(1.12853e-10 9.84655e-10 0.000798635)
(1.18315e-10 1.19947e-09 0.011436)
(1.53721e-10 1.19841e-09 0.0191629)
(2.32844e-10 1.0068e-09 0.024279)
(3.58016e-10 6.95424e-10 0.0280603)
(5.14629e-10 3.46785e-10 0.032024)
(6.72926e-10 3.13848e-11 0.0371123)
(7.96032e-10 -2.00889e-10 0.043114)
(8.51639e-10 -3.18537e-10 0.0485673)
(8.22388e-10 -3.05605e-10 0.0512682)
(7.12182e-10 -1.68531e-10 0.0491428)
(5.46504e-10 4.97586e-11 0.0412253)
(3.6317e-10 2.68276e-10 0.028403)
(1.98194e-10 3.98593e-10 0.0133741)
(7.46847e-11 3.9578e-10 -0.000362693)
(-5.10842e-13 2.85321e-10 -0.0100141)
(-3.35089e-11 1.38715e-10 -0.0145867)
(-3.72785e-11 2.20338e-11 -0.0149454)
(-2.58476e-11 -3.72171e-11 -0.0129746)
(-1.03631e-11 -4.78142e-11 -0.0105336)
(2.54909e-12 -3.35365e-11 -0.00878784)
(1.04678e-11 -1.4779e-11 -0.00808949)
(1.37478e-11 -1.73177e-12 -0.00824298)
(1.3917e-11 3.91349e-12 -0.00885387)
(1.25239e-11 4.55386e-12 -0.00956967)
(1.06195e-11 3.19287e-12 -0.0101868)
(8.6733e-12 1.69987e-12 -0.0106322)
(7.05569e-12 1.22602e-12 -0.0104876)
(4.71536e-12 6.99511e-13 -0.0104468)
(-4.4543e-17 -4.1494e-18 -0.0325118)
(-1.56398e-16 -7.81981e-18 -0.0316958)
(-1.72278e-16 -9.46564e-18 -0.0304672)
(-2.1513e-16 -1.16919e-17 -0.0290835)
(-2.8793e-16 -1.37066e-17 -0.0278375)
(-3.17811e-16 -1.33628e-17 -0.0269751)
(-3.31392e-16 -1.48272e-17 -0.0266632)
(-3.30909e-16 -3.13251e-17 -0.0269736)
(-3.01536e-16 1.71685e-15 -0.027877)
(-3.70413e-16 1.26477e-17 -0.0292567)
(-3.64647e-16 -3.3398e-17 -0.030874)
(-2.12083e-16 1.69412e-15 -0.0325225)
(-1.29699e-16 1.4038e-17 -0.0339263)
(-3.23987e-16 5.03608e-17 -0.0348904)
(-5.65801e-16 9.23528e-17 -0.0352926)
(-4.54692e-16 1.00632e-16 -0.0351027)
(2.83237e-16 4.70664e-17 -0.0343887)
(1.21464e-15 -3.47518e-17 -0.0332921)
(1.76829e-15 -7.49302e-17 -0.032019)
(1.68374e-15 -6.33165e-17 -0.0308115)
(1.21729e-15 -3.74481e-17 -0.029872)
(6.44883e-16 3.68845e-19 -0.0293203)
(1.06131e-16 1.54312e-17 -0.0291825)
(1.50678e-15 -1.406e-16 -0.0293955)
(2.91183e-16 1.53532e-16 -0.0298276)
(-3.10765e-14 1.45667e-15 -0.030329)
(3.96062e-14 -4.05245e-15 -0.0308141)
(6.47408e-13 -1.778e-14 -0.0313527)
(-8.19055e-13 3.93963e-14 -0.0321388)
(-1.42319e-11 1.5761e-13 -0.0331358)
(-3.79771e-11 7.25351e-14 -0.0339256)
(-4.65268e-11 -1.42654e-13 -0.0340209)
(-3.05848e-11 -1.33302e-13 -0.0333524)
(-1.08822e-11 -1.29879e-14 -0.0323699)
(-1.37899e-12 2.7048e-14 -0.0315761)
(7.44691e-13 1.20786e-14 -0.0311678)
(6.07862e-13 -4.64837e-14 -0.0310679)
(3.85162e-13 2.12489e-14 -0.0310544)
(-6.0835e-13 5.99501e-13 -0.0309245)
(-3.47329e-12 1.13722e-12 -0.0307106)
(-2.6857e-12 -3.28455e-12 -0.0309013)
(2.16655e-11 -2.36452e-11 -0.0325445)
(9.17696e-11 -6.29662e-11 -0.036772)
(1.98798e-10 -9.30821e-11 -0.04327)
(3.14951e-10 -7.03105e-11 -0.049543)
(4.00444e-10 4.4664e-12 -0.0522715)
(3.89397e-10 7.23589e-11 -0.0499501)
(2.73759e-10 8.63022e-11 -0.0444485)
(1.40569e-10 5.91669e-11 -0.0390828)
(4.59011e-11 2.63905e-11 -0.0354694)
(1.07297e-12 8.16783e-12 -0.033614)
(-2.91413e-11 1.11452e-11 -0.0328425)
(-9.47806e-11 1.6636e-11 -0.0326071)
(-9.60432e-11 -5.6951e-11 -0.0325482)
(4.85436e-10 -3.64011e-10 -0.0312692)
(2.62463e-09 -1.02862e-09 -0.0249434)
(7.12048e-09 -1.91467e-09 -0.0085862)
(1.35708e-08 -2.49287e-09 0.0188071)
(2.01791e-08 -2.14439e-09 0.0498737)
(2.45631e-08 -7.69074e-10 0.0712691)
(2.479e-08 9.74814e-10 0.0720703)
(2.05323e-08 2.17746e-09 0.0517313)
(1.36506e-08 2.40807e-09 0.0202927)
(6.90252e-09 1.87683e-09 -0.00941623)
(2.18338e-09 1.08184e-09 -0.0291638)
(-1.40675e-10 4.20595e-10 -0.0377355)
(-7.17118e-10 -3.24526e-11 -0.038237)
(-2.14354e-10 -4.89596e-10 -0.0336242)
(1.21341e-09 -1.19899e-09 -0.0247146)
(3.6671e-09 -2.17513e-09 -0.0116762)
(6.89699e-09 -3.12366e-09 0.00387157)
(1.01561e-08 -3.63962e-09 0.0200341)
(1.27757e-08 -3.48234e-09 0.038661)
(1.46796e-08 -2.63559e-09 0.0646878)
(1.6137e-08 -1.19079e-09 0.0987213)
(1.70292e-08 6.61278e-10 0.130975)
(1.65873e-08 2.52329e-09 0.14495)
(1.41418e-08 3.8607e-09 0.129415)
(1.00465e-08 4.25243e-09 0.0875956)
(5.53944e-09 3.61963e-09 0.0352932)
(1.95067e-09 2.2756e-09 -0.00861133)
(3.30719e-11 7.15599e-10 -0.0327594)
(-1.63121e-10 -6.69196e-10 -0.0386845)
(9.49212e-10 -1.70096e-09 -0.0384668)
(2.74594e-09 -2.32885e-09 -0.0463461)
(4.55602e-09 -2.53412e-09 -0.0687345)
(5.84621e-09 -2.34799e-09 -0.0983044)
(6.4026e-09 -1.893e-09 -0.118161)
(6.35931e-09 -1.33286e-09 -0.113657)
(6.05313e-09 -7.65815e-10 -0.0810657)
(5.79412e-09 -1.69737e-10 -0.0278449)
(5.64961e-09 5.46737e-10 0.031339)
(5.39856e-09 1.42452e-09 0.0792375)
(4.76666e-09 2.33584e-09 0.102051)
(3.67018e-09 2.9496e-09 0.0944904)
(2.31708e-09 2.88455e-09 0.0625072)
(1.11686e-09 2.01005e-09 0.0192741)
(4.58898e-10 6.16645e-10 -0.0251102)
(5.03921e-10 -7.54274e-10 -0.0710179)
(1.11184e-09 -1.66324e-09 -0.125349)
(1.94032e-09 -1.97739e-09 -0.1895)
(2.64332e-09 -1.82218e-09 -0.251779)
(3.0255e-09 -1.41974e-09 -0.293509)
(3.06559e-09 -9.63015e-10 -0.302174)
(2.84744e-09 -5.69821e-10 -0.278318)
(2.4852e-09 -2.88058e-10 -0.232121)
(2.0839e-09 -1.12556e-10 -0.175639)
(1.72455e-09 7.69979e-12 -0.117531)
(1.46073e-09 1.63498e-10 -0.0619822)
(1.30671e-09 4.49713e-10 -0.0111218)
(1.22567e-09 8.9129e-10 0.0324454)
(1.15451e-09 1.38691e-09 0.0646123)
(1.05195e-09 1.7452e-09 0.0802335)
(9.30803e-10 1.80458e-09 0.0744197)
(8.4898e-10 1.53564e-09 0.0444411)
(8.66358e-10 1.0436e-09 -0.00751616)
(1.0032e-09 4.88724e-10 -0.0723859)
(1.22735e-09 2.24386e-12 -0.136061)
(1.47139e-09 -3.51225e-10 -0.185213)
(1.66417e-09 -5.66395e-10 -0.212938)
(1.7582e-09 -6.7115e-10 -0.220114)
(1.74066e-09 -7.01843e-10 -0.212684)
(1.62654e-09 -6.88269e-10 -0.197438)
(1.44481e-09 -6.51316e-10 -0.179068)
(1.22643e-09 -6.08235e-10 -0.160313)
(9.99023e-10 -5.70269e-10 -0.142435)
(7.87513e-10 -5.24206e-10 -0.12518)
(6.12467e-10 -4.18413e-10 -0.10661)
(4.82357e-10 -1.89183e-10 -0.0839611)
(3.8926e-10 1.78584e-10 -0.0557556)
(3.19932e-10 6.13849e-10 -0.0235996)
(2.77276e-10 9.8681e-10 0.0081188)
(2.91758e-10 1.17904e-09 0.0346529)
(4.08356e-10 1.14115e-09 0.0536946)
(6.56865e-10 9.04654e-10 0.0665724)
(1.02843e-09 5.54533e-10 0.0772983)
(1.47191e-09 1.89332e-10 0.0902876)
(1.90653e-09 -1.09317e-10 0.107984)
(2.24082e-09 -2.90244e-10 0.129343)
(2.39382e-09 -3.31713e-10 0.149688)
(2.3174e-09 -2.35874e-10 0.162062)
(2.01639e-09 -3.05874e-11 0.159733)
(1.55478e-09 2.24264e-10 0.139243)
(1.03581e-09 4.42432e-10 0.102725)
(5.63517e-10 5.42837e-10 0.0579037)
(2.08069e-10 4.95134e-10 0.015192)
(-7.86051e-12 3.39419e-10 -0.0167397)
(-1.01153e-10 1.57099e-10 -0.0342918)
(-1.09735e-10 1.8205e-11 -0.0392927)
(-7.45129e-11 -5.06731e-11 -0.0367285)
(-2.75941e-11 -6.20108e-11 -0.0317735)
(1.20708e-11 -4.39501e-11 -0.0278355)
(3.73558e-11 -2.03783e-11 -0.0261387)
(4.88235e-11 -3.45467e-12 -0.0263742)
(5.04043e-11 4.52715e-12 -0.0276098)
(4.63541e-11 6.20437e-12 -0.0289764)
(3.98434e-11 5.11991e-12 -0.0299766)
(3.25668e-11 3.48177e-12 -0.0304951)
(2.618e-11 3.20672e-12 -0.0293365)
(1.69981e-11 1.87141e-12 -0.0285498)
(-1.18261e-18 -7.06963e-20 -0.0540596)
(-1.70553e-17 -1.89203e-20 -0.0526871)
(-3.59594e-17 1.61734e-20 -0.0506039)
(-5.91009e-17 4.92042e-19 -0.0482321)
(-9.1436e-17 1.08827e-18 -0.0460605)
(-1.16791e-16 2.40351e-18 -0.0445087)
(-1.64188e-16 -1.83399e-19 -0.0438747)
(-1.10036e-16 -2.636e-18 -0.0443034)
(-3.00799e-16 2.48156e-17 -0.0457766)
(-6.2233e-16 3.22016e-17 -0.0481304)
(-1.4627e-16 -5.53389e-17 -0.0509847)
(9.45345e-16 -9.44555e-17 -0.0540375)
(8.63828e-16 7.51741e-17 -0.0568283)
(-4.97042e-16 2.80408e-16 -0.0590265)
(-1.56579e-16 1.67901e-16 -0.0603706)
(5.92284e-15 -3.33953e-16 -0.0606863)
(1.76038e-14 -7.88014e-16 -0.0599153)
(2.66738e-14 -7.14409e-16 -0.0580926)
(2.55405e-14 -2.08852e-16 -0.0553642)
(1.83163e-14 2.64375e-16 -0.0520458)
(1.01605e-14 4.88714e-16 -0.048599)
(2.71105e-15 5.31229e-16 -0.0455572)
(-1.09028e-16 -4.4799e-16 -0.0434232)
(1.35243e-14 -1.29575e-16 -0.0425716)
(-3.36708e-14 1.6159e-14 -0.0431826)
(-2.11266e-13 -1.92564e-14 -0.0452522)
(7.12616e-13 -3.36674e-13 -0.0486622)
(3.13324e-12 4.24839e-13 -0.0531926)
(-9.6696e-12 7.3863e-12 -0.0583698)
(-6.63663e-11 1.84527e-11 -0.0632174)
(-1.53599e-10 1.60384e-11 -0.0663851)
(-2.04046e-10 -3.6748e-12 -0.0667114)
(-1.62399e-10 -1.77049e-11 -0.0639132)
(-7.39341e-11 -1.45012e-11 -0.0586772)
(-1.6048e-11 -5.7674e-12 -0.0522529)
(3.43616e-12 -9.83713e-13 -0.0460954)
(4.67905e-12 1.69873e-13 -0.0413924)
(1.16679e-12 6.04632e-13 -0.0388047)
(-2.81688e-12 2.01847e-12 -0.0385717)
(4.41754e-12 1.22652e-12 -0.0410007)
(3.33936e-11 -1.30009e-11 -0.0467491)
(-2.34035e-11 -5.0407e-11 -0.0556743)
(-5.42105e-10 -9.67659e-11 -0.0645336)
(-1.86258e-09 -1.23278e-10 -0.068335)
(-3.45812e-09 -1.09306e-10 -0.0675669)
(-4.04815e-09 -3.65916e-11 -0.0681142)
(-3.12868e-09 7.20215e-11 -0.0708586)
(-1.57897e-09 1.35138e-10 -0.070228)
(-4.23056e-10 1.21735e-10 -0.0635088)
(5.80587e-11 7.32515e-11 -0.0531344)
(1.07732e-10 3.84791e-11 -0.0435228)
(-2.678e-11 5.00462e-11 -0.0379143)
(-2.16262e-10 3.74577e-11 -0.037367)
(-2.08602e-12 -2.98899e-10 -0.0401724)
(1.81907e-09 -1.42383e-09 -0.039863)
(6.52101e-09 -3.49597e-09 -0.0251924)
(1.37555e-08 -5.80237e-09 0.0127701)
(2.13133e-08 -6.95961e-09 0.0715019)
(2.75366e-08 -5.87669e-09 0.137703)
(3.24322e-08 -2.46758e-09 0.192037)
(3.53708e-08 2.14247e-09 0.212086)
(3.38224e-08 5.92352e-09 0.183993)
(2.64615e-08 7.24865e-09 0.118034)
(1.58874e-08 6.10013e-09 0.0437708)
(6.42424e-09 3.74974e-09 -0.0118912)
(6.98269e-10 1.5491e-09 -0.0396215)
(-1.22908e-09 1.81982e-11 -0.0454011)
(-4.55733e-10 -1.17156e-09 -0.0394251)
(2.04093e-09 -2.49154e-09 -0.0301076)
(5.36304e-09 -3.88886e-09 -0.025472)
(8.28814e-09 -4.81263e-09 -0.0322183)
(9.76293e-09 -4.8584e-09 -0.0465244)
(9.76078e-09 -4.19108e-09 -0.0487605)
(9.29629e-09 -3.2044e-09 -0.0169863)
(9.68305e-09 -1.92104e-09 0.0525866)
(1.15509e-08 2.58181e-11 0.138544)
(1.3975e-08 2.68958e-09 0.204207)
(1.48315e-08 5.27048e-09 0.218535)
(1.27525e-08 6.59727e-09 0.176307)
(8.36896e-09 6.07539e-09 0.100281)
(3.71616e-09 4.055e-09 0.0253936)
(7.01839e-10 1.4429e-09 -0.0241102)
(7.21881e-11 -9.23609e-10 -0.049328)
(1.34621e-09 -2.57566e-09 -0.0731067)
(3.36065e-09 -3.35287e-09 -0.119268)
(4.97915e-09 -3.30246e-09 -0.188657)
(5.62594e-09 -2.66517e-09 -0.252933)
(5.36574e-09 -1.80856e-09 -0.275703)
(4.61397e-09 -1.05849e-09 -0.240558)
(3.84399e-09 -5.42785e-10 -0.158748)
(3.45971e-09 -1.32817e-10 -0.0552754)
(3.65571e-09 4.63221e-10 0.0462405)
(4.20855e-09 1.43759e-09 0.126812)
(4.53522e-09 2.63745e-09 0.170498)
(4.13033e-09 3.55364e-09 0.168418)
(3.00285e-09 3.60249e-09 0.125404)
(1.69752e-09 2.5645e-09 0.0571227)
(8.80552e-10 8.0936e-10 -0.0240907)
(8.57793e-10 -9.33503e-10 -0.118834)
(1.42028e-09 -2.0521e-09 -0.230868)
(2.0929e-09 -2.35934e-09 -0.347469)
(2.50777e-09 -2.05099e-09 -0.435898)
(2.57127e-09 -1.463e-09 -0.464612)
(2.38222e-09 -8.65361e-10 -0.426298)
(2.07776e-09 -3.96564e-10 -0.340624)
(1.75055e-09 -9.42732e-11 -0.238573)
(1.45332e-09 6.23804e-11 -0.144288)
(1.23015e-09 1.37335e-10 -0.0666158)
(1.1197e-09 2.366e-10 -0.00278837)
(1.12279e-09 4.78318e-10 0.0524133)
(1.18016e-09 9.07548e-10 0.100071)
(1.20535e-09 1.42081e-09 0.134557)
(1.15857e-09 1.79988e-09 0.145035)
(1.08982e-09 1.85121e-09 0.120155)
(1.10596e-09 1.53366e-09 0.0554797)
(1.28736e-09 9.69805e-10 -0.038806)
(1.62919e-09 3.53138e-10 -0.137331)
(2.04744e-09 -1.57321e-10 -0.210896)
(2.42682e-09 -4.8808e-10 -0.242516)
(2.66956e-09 -6.4473e-10 -0.235084)
(2.72499e-09 -6.77235e-10 -0.205816)
(2.59883e-09 -6.42993e-10 -0.173698)
(2.34115e-09 -5.83438e-10 -0.150068)
(2.01738e-09 -5.21157e-10 -0.137437)
(1.68188e-09 -4.69779e-10 -0.132513)
(1.36785e-09 -4.37002e-10 -0.130261)
(1.09414e-09 -4.07297e-10 -0.125902)
(8.71108e-10 -3.24526e-10 -0.11482)
(6.95271e-10 -1.17044e-10 -0.0929807)
(5.48926e-10 2.35336e-10 -0.0592129)
(4.22603e-10 6.55683e-10 -0.017335)
(3.44656e-10 9.98742e-10 0.0248973)
(3.81443e-10 1.13393e-09 0.0600438)
(5.97375e-10 1.01586e-09 0.0853447)
(1.00751e-09 6.96766e-10 0.104066)
(1.56295e-09 2.87901e-10 0.123188)
(2.174e-09 -9.22657e-11 0.149267)
(2.74254e-09 -3.5307e-10 0.184844)
(3.17641e-09 -4.44532e-10 0.226698)
(3.38911e-09 -3.56826e-10 0.266156)
(3.31209e-09 -1.16892e-10 0.291303)
(2.92806e-09 2.12777e-10 0.290821)
(2.29865e-09 5.4005e-10 0.258809)
(1.55674e-09 7.63909e-10 0.198551)
(8.57296e-10 8.12465e-10 0.122612)
(3.17587e-10 6.81469e-10 0.0482435)
(-1.57005e-11 4.39932e-10 -0.00977093)
(-1.61048e-10 1.89653e-10 -0.0446222)
(-1.73692e-10 8.71385e-12 -0.0583001)
(-1.15521e-10 -7.82861e-11 -0.0581904)
(-3.58287e-11 -9.11061e-11 -0.0524301)
(3.5277e-11 -6.60114e-11 -0.0467333)
(8.4722e-11 -3.31554e-11 -0.0435759)
(1.10784e-10 -8.25606e-12 -0.0430226)
(1.17543e-10 5.14996e-12 -0.044)
(1.1095e-10 9.83431e-12 -0.0453422)
(9.66734e-11 1.00865e-11 -0.0463064)
(7.88094e-11 8.5316e-12 -0.0466864)
(6.22139e-11 9.01035e-12 -0.0444319)
(3.87757e-11 5.29219e-12 -0.0430903)
(-4.56329e-17 4.96956e-18 -0.0753971)
(-1.49693e-16 9.5686e-18 -0.0734503)
(-1.33827e-16 1.15572e-17 -0.070482)
(-1.81435e-16 1.60464e-17 -0.0670875)
(-1.54223e-16 1.51384e-17 -0.0639618)
(-2.90381e-16 2.30132e-17 -0.0617062)
(8.07105e-17 -1.82044e-17 -0.0607519)
(-1.71669e-16 3.69803e-17 -0.0613103)
(-2.62714e-15 1.973e-15 -0.0633634)
(1.14106e-15 -6.46164e-17 -0.0666795)
(1.02033e-14 -2.55196e-15 -0.0707)
(1.18603e-14 1.18907e-15 -0.0750434)
(3.43388e-15 7.35231e-16 -0.0790332)
(-4.29418e-15 5.60565e-16 -0.082216)
(-1.61959e-16 -3.11759e-15 -0.0842184)
(1.93151e-14 -8.77956e-15 -0.084783)
(4.66203e-14 -1.03284e-14 -0.0838143)
(6.69836e-14 -4.00309e-15 -0.0813158)
(6.49555e-14 4.10379e-15 -0.0774042)
(4.84554e-14 7.62668e-15 -0.0724739)
(2.73944e-14 7.76519e-15 -0.0671999)
(2.47169e-15 5.13512e-15 -0.0623786)
(1.20837e-14 -5.39118e-15 -0.0588125)
(8.41153e-15 1.66403e-14 -0.057201)
(-3.07966e-13 1.12548e-13 -0.0579865)
(5.43575e-13 -3.71687e-13 -0.0612762)
(2.12536e-12 -1.6763e-12 -0.0668529)
(-1.77098e-11 5.17333e-12 -0.0741439)
(-2.28874e-12 3.47892e-11 -0.0823694)
(3.92843e-10 7.21225e-11 -0.0907832)
(1.15997e-09 6.89126e-11 -0.097432)
(1.41089e-09 4.25706e-12 -0.0987127)
(8.45223e-10 -6.51895e-11 -0.0934433)
(2.28333e-10 -7.31884e-11 -0.0840652)
(-1.24129e-11 -3.86581e-11 -0.0731711)
(-2.84862e-11 -1.03515e-11 -0.0625875)
(-4.62733e-12 1.0882e-12 -0.054015)
(-2.37003e-12 3.76748e-12 -0.0489046)
(1.4195e-12 -1.02587e-12 -0.0483621)
(7.87638e-11 -1.6968e-11 -0.0536829)
(1.38308e-10 1.06259e-11 -0.0648381)
(-6.41903e-10 2.64104e-10 -0.073545)
(-3.96333e-09 8.56622e-10 -0.0596834)
(-1.07183e-08 1.36493e-09 -0.0106342)
(-1.85316e-08 1.02247e-09 0.0508109)
(-2.24184e-08 -1.60252e-10 0.0780402)
(-1.94191e-08 -1.16223e-09 0.0495043)
(-1.19115e-08 -1.26651e-09 -0.00773091)
(-4.82382e-09 -7.59348e-10 -0.0517881)
(-8.05421e-10 -2.39003e-10 -0.0658253)
(4.25492e-10 5.05872e-11 -0.0591348)
(2.23421e-10 1.73142e-10 -0.0489821)
(-1.66366e-10 4.28899e-12 -0.0456871)
(7.06552e-10 -1.07462e-09 -0.0469208)
(4.34494e-09 -3.62556e-09 -0.0396506)
(1.01737e-08 -6.99682e-09 -0.0112375)
(1.43651e-08 -9.31083e-09 0.0374338)
(1.37218e-08 -9.38347e-09 0.0979754)
(1.04045e-08 -7.70383e-09 0.172662)
(1.03299e-08 -4.68614e-09 0.263374)
(1.6817e-08 2.79701e-10 0.342283)
(2.59315e-08 6.63213e-09 0.358762)
(2.93937e-08 1.13756e-08 0.288456)
(2.36768e-08 1.18954e-08 0.164014)
(1.29487e-08 8.67641e-09 0.0452332)
(3.62074e-09 4.24726e-09 -0.028319)
(-8.45962e-10 5.44548e-10 -0.0534439)
(-6.00189e-10 -2.1246e-09 -0.0502698)
(2.30578e-09 -4.10838e-09 -0.0472641)
(5.3167e-09 -5.29873e-09 -0.0715989)
(6.51713e-09 -5.32361e-09 -0.131512)
(5.6582e-09 -4.37594e-09 -0.197001)
(3.84534e-09 -3.24902e-09 -0.213648)
(2.24541e-09 -2.59672e-09 -0.148229)
(1.62881e-09 -2.31811e-09 -0.0149)
(2.77935e-09 -1.48471e-09 0.139691)
(5.98321e-09 8.82983e-10 0.26275)
(9.70465e-09 4.47194e-09 0.313026)
(1.12039e-08 7.48372e-09 0.277674)
(9.23131e-09 8.1378e-09 0.181641)
(5.21335e-09 6.10916e-09 0.0732328)
(1.79051e-09 2.53759e-09 -0.0100546)
(6.28097e-10 -9.91384e-10 -0.0689701)
(1.50453e-09 -3.34519e-09 -0.136607)
(3.0188e-09 -4.14531e-09 -0.238603)
(3.92049e-09 -3.66677e-09 -0.354797)
(3.85895e-09 -2.54129e-09 -0.425637)
(3.18002e-09 -1.38702e-09 -0.40176)
(2.33829e-09 -5.7198e-10 -0.284021)
(1.59209e-09 -1.88684e-10 -0.118166)
(1.12154e-09 -7.55949e-11 0.0415816)
(1.19086e-09 1.72319e-10 0.163269)
(1.9188e-09 9.84765e-10 0.239212)
(2.88156e-09 2.37495e-09 0.268586)
(3.33285e-09 3.71578e-09 0.249856)
(2.90556e-09 4.10095e-09 0.186699)
(1.97536e-09 3.0712e-09 0.0896993)
(1.26439e-09 1.03651e-09 -0.0342425)
(1.15255e-09 -1.02414e-09 -0.186338)
(1.44276e-09 -2.2808e-09 -0.357523)
(1.70844e-09 -2.52113e-09 -0.507938)
(1.71112e-09 -2.06136e-09 -0.58007)
(1.48817e-09 -1.35696e-09 -0.539824)
(1.19351e-09 -7.16262e-10 -0.401711)
(9.39939e-10 -2.53989e-10 -0.217392)
(7.51498e-10 2.41639e-11 -0.0444153)
(6.08577e-10 1.47642e-10 0.0806222)
(5.16382e-10 1.74511e-10 0.152011)
(5.1231e-10 2.17178e-10 0.186186)
(6.09552e-10 4.19485e-10 0.204752)
(7.5187e-10 8.50011e-10 0.219922)
(8.4883e-10 1.3977e-09 0.227493)
(8.75312e-10 1.80297e-09 0.20958)
(9.19746e-10 1.83089e-09 0.147051)
(1.11643e-09 1.43687e-09 0.0384609)
(1.52818e-09 7.81981e-10 -0.086852)
(2.0967e-09 1.08687e-10 -0.179234)
(2.68839e-09 -3.96569e-10 -0.199673)
(3.16795e-09 -6.62284e-10 -0.14449)
(3.44127e-09 -7.15481e-10 -0.0445757)
(3.46527e-09 -6.35788e-10 0.0551167)
(3.24981e-09 -5.09924e-10 0.119046)
(2.85804e-09 -3.97542e-10 0.133622)
(2.38633e-09 -3.21686e-10 0.105244)
(1.92489e-09 -2.83469e-10 0.0525789)
(1.52835e-09 -2.76398e-10 -0.0039662)
(1.21429e-09 -2.75835e-10 -0.0488033)
(9.74043e-10 -2.18978e-10 -0.0721612)
(7.7888e-10 -2.80925e-11 -0.0694193)
(5.96026e-10 3.14918e-10 -0.0421479)
(4.27329e-10 7.15984e-10 0.000923479)
(3.35998e-10 1.00739e-09 0.046926)
(4.17118e-10 1.05268e-09 0.0855951)
(7.26447e-10 8.28118e-10 0.114953)
(1.23278e-09 4.21867e-10 0.141458)
(1.83581e-09 -2.87146e-11 0.174788)
(2.42635e-09 -4.00461e-10 0.221477)
(2.93332e-09 -6.10521e-10 0.28128)
(3.32022e-09 -6.13534e-10 0.346844)
(3.54389e-09 -3.99549e-10 0.405178)
(3.53355e-09 -5.34912e-12 0.440304)
(3.22533e-09 4.76128e-10 0.437606)
(2.6251e-09 9.09928e-10 0.389807)
(1.84151e-09 1.16311e-09 0.301979)
(1.04828e-09 1.16241e-09 0.191783)
(4.03518e-10 9.31632e-10 0.0833316)
(-1.13942e-11 5.78736e-10 -0.00252763)
(-1.99962e-10 2.36095e-10 -0.0557377)
(-2.19096e-10 -4.55873e-12 -0.0782826)
(-1.40099e-10 -1.19605e-10 -0.0797701)
(-2.33271e-11 -1.3741e-10 -0.0713087)
(9.04966e-11 -1.04226e-10 -0.0612376)
(1.78654e-10 -5.81318e-11 -0.0538857)
(2.3187e-10 -1.98652e-11 -0.0503672)
(2.50223e-10 4.44435e-12 -0.0499706)
(2.39883e-10 1.66392e-11 -0.0513814)
(2.10214e-10 2.119e-11 -0.0534356)
(1.70291e-10 2.07115e-11 -0.0554171)
(1.32005e-10 2.32236e-11 -0.0539158)
(7.91642e-11 1.35905e-11 -0.0547022)
(5.14189e-17 1.83232e-15 -0.0963802)
(1.77029e-16 1.7788e-15 -0.0938344)
(1.9779e-16 1.58869e-17 -0.0899308)
(1.69126e-16 1.74541e-15 -0.0854434)
(5.56695e-16 1.79028e-15 -0.0812848)
(-4.04774e-16 1.61966e-15 -0.0782514)
(3.58962e-15 -5.95391e-17 -0.0769193)
(-9.27412e-15 1.36484e-15 -0.0775712)
(-5.18969e-16 -6.31547e-16 -0.0801925)
(5.53482e-14 -9.87957e-15 -0.0844728)
(5.10312e-14 -5.40139e-15 -0.0896342)
(-5.52086e-14 3.30381e-15 -0.0952643)
(-1.64546e-13 8.13885e-15 -0.10043)
(-2.07206e-13 2.07833e-15 -0.104596)
(-2.41198e-13 -1.16368e-14 -0.107274)
(-4.36374e-13 -2.02556e-14 -0.108102)
(-9.35136e-13 -2.28875e-14 -0.106939)
(-1.40907e-12 -9.88203e-15 -0.103783)
(-1.28095e-12 1.079e-14 -0.0987408)
(-7.97677e-13 2.07796e-14 -0.0923079)
(-3.78508e-13 2.34806e-14 -0.0853822)
(-1.08733e-13 8.18659e-15 -0.078998)
(8.17792e-14 -3.41791e-15 -0.0741945)
(-5.67576e-13 1.59895e-13 -0.0719208)
(7.00025e-14 -2.51423e-13 -0.072828)
(9.79496e-12 -1.23765e-12 -0.0771299)
(-2.50946e-11 8.79003e-12 -0.0844587)
(-1.61314e-10 2.63188e-12 -0.0938828)
(4.19697e-10 -1.9789e-10 -0.105897)
(3.49574e-09 -5.62674e-10 -0.12329)
(8.44498e-09 -4.92984e-10 -0.142532)
(1.10061e-08 1.53695e-10 -0.149964)
(8.44876e-09 5.73571e-10 -0.138141)
(3.71806e-09 4.14313e-10 -0.116176)
(7.38696e-10 1.22641e-10 -0.0954615)
(-1.78196e-10 -4.87825e-12 -0.0790607)
(-1.84553e-10 -1.28916e-11 -0.0669492)
(-6.80388e-11 -2.41878e-12 -0.0597394)
(4.98075e-11 -3.85502e-11 -0.059621)
(2.9522e-10 -6.72193e-11 -0.0693144)
(5.45452e-11 3.47331e-10 -0.0826322)
(-3.07536e-09 2.00041e-09 -0.0693304)
(-1.21885e-08 4.94141e-09 0.012853)
(-2.7279e-08 7.16084e-09 0.16746)
(-4.32908e-08 5.74078e-09 0.336918)
(-5.2641e-08 4.07159e-10 0.434771)
(-4.96273e-08 -5.18144e-09 0.398696)
(-3.52727e-08 -7.16249e-09 0.2472)
(-1.78145e-08 -5.43131e-09 0.0747063)
(-5.21622e-09 -2.5514e-09 -0.0367354)
(2.73238e-10 -4.75942e-10 -0.0734186)
(9.78176e-10 3.45977e-10 -0.0697731)
(6.10543e-10 -2.04108e-10 -0.0596811)
(2.35424e-09 -2.55455e-09 -0.0504107)
(6.61108e-09 -6.15742e-09 -0.0341256)
(8.95283e-09 -8.50604e-09 -0.0164287)
(3.87879e-09 -7.57642e-09 -0.015062)
(-7.58134e-09 -4.97929e-09 -0.0155367)
(-1.83442e-08 -4.18074e-09 0.0385044)
(-2.20442e-08 -5.67384e-09 0.179488)
(-1.55776e-08 -5.65833e-09 0.362409)
(-1.32168e-10 -3.64832e-10 0.488031)
(1.60629e-08 8.376e-09 0.477164)
(2.27128e-08 1.43226e-08 0.337439)
(1.78045e-08 1.37778e-08 0.153168)
(8.07652e-09 8.44644e-09 0.0114547)
(1.14219e-09 2.12867e-09 -0.0542812)
(-2.65884e-10 -2.74743e-09 -0.0694733)
(1.75886e-09 -5.44998e-09 -0.0928067)
(3.64617e-09 -5.99454e-09 -0.174273)
(3.69182e-09 -4.98337e-09 -0.304748)
(2.74864e-09 -3.5225e-09 -0.403027)
(2.23429e-09 -2.48468e-09 -0.379495)
(2.34868e-09 -2.09613e-09 -0.216312)
(2.33298e-09 -2.18801e-09 0.0229464)
(2.06523e-09 -2.15138e-09 0.249785)
(2.79764e-09 -7.73067e-10 0.402678)
(5.31799e-09 2.66016e-09 0.454307)
(7.91214e-09 6.83395e-09 0.402679)
(8.11533e-09 9.07064e-09 0.276754)
(5.68502e-09 7.7754e-09 0.129985)
(2.73254e-09 3.73553e-09 0.00468273)
(1.29801e-09 -7.80621e-10 -0.10336)
(1.55798e-09 -3.77101e-09 -0.232594)
(2.32262e-09 -4.56085e-09 -0.395389)
(2.57867e-09 -3.72253e-09 -0.536173)
(2.21084e-09 -2.29493e-09 -0.566526)
(1.636e-09 -1.04823e-09 -0.441892)
(1.19715e-09 -2.64522e-10 -0.19739)
(9.13822e-10 6.55921e-11 0.0792354)
(6.55837e-10 6.77999e-11 0.30176)
(5.05366e-10 6.45894e-11 0.427269)
(7.83123e-10 5.92239e-10 0.4616)
(1.52518e-09 1.93042e-09 0.431471)
(2.21453e-09 3.54165e-09 0.358154)
(2.31328e-09 4.28124e-09 0.25135)
(1.89059e-09 3.38508e-09 0.112893)
(1.46732e-09 1.22076e-09 -0.0625076)
(1.35666e-09 -1.02269e-09 -0.276193)
(1.41457e-09 -2.33004e-09 -0.496706)
(1.36455e-09 -2.49351e-09 -0.649248)
(1.12027e-09 -1.94085e-09 -0.657103)
(7.88595e-10 -1.2042e-09 -0.499618)
(5.11993e-10 -5.91244e-10 -0.22677)
(3.56411e-10 -1.75559e-10 0.0737789)
(2.94585e-10 7.14094e-11 0.320947)
(2.59177e-10 1.79939e-10 0.469357)
(2.19461e-10 1.85469e-10 0.517326)
(2.06248e-10 1.90015e-10 0.495599)
(2.54069e-10 3.58538e-10 0.445544)
(3.3288e-10 7.87911e-10 0.395173)
(3.80048e-10 1.35909e-09 0.344374)
(4.11885e-10 1.76442e-09 0.268949)
(5.56539e-10 1.73065e-09 0.146901)
(9.42991e-10 1.22945e-09 -0.0064467)
(1.57373e-09 4.79671e-10 -0.129119)
(2.32093e-09 -2.26969e-10 -0.150511)
(3.02093e-09 -6.92943e-10 -0.0433757)
(3.553e-09 -8.64517e-10 0.159184)
(3.85268e-09 -7.93391e-10 0.387325)
(3.89152e-09 -5.81505e-10 0.570124)
(3.66838e-09 -3.39378e-10 0.661198)
(3.22524e-09 -1.51697e-10 0.648089)
(2.65747e-09 -5.45795e-11 0.548581)
(2.08336e-09 -4.07918e-11 0.400433)
(1.59502e-09 -8.17022e-11 0.245005)
(1.22939e-09 -1.30141e-10 0.114506)
(9.67467e-10 -1.06821e-10 0.0276603)
(7.52699e-10 7.19649e-11 -0.00963458)
(5.36178e-10 4.11112e-10 -0.00357286)
(3.35737e-10 7.85698e-10 0.0294637)
(2.47e-10 1.00385e-09 0.0700318)
(3.7379e-10 9.3871e-10 0.106094)
(7.38257e-10 6.0803e-10 0.139007)
(1.25587e-09 1.42086e-10 0.179668)
(1.79064e-09 -3.08884e-10 0.238377)
(2.23597e-09 -6.4102e-10 0.316951)
(2.56217e-09 -8.00003e-10 0.407805)
(2.80127e-09 -7.49818e-10 0.497558)
(2.97911e-09 -4.63488e-10 0.570178)
(3.05218e-09 4.2388e-11 0.608435)
(2.91778e-09 6.67e-10 0.596871)
(2.50217e-09 1.23196e-09 0.528086)
(1.84584e-09 1.55232e-09 0.409085)
(1.10113e-09 1.53146e-09 0.26226)
(4.47109e-10 1.21131e-09 0.118163)
(9.66756e-13 7.41672e-10 0.00345669)
(-2.12045e-10 2.93504e-10 -0.0685127)
(-2.33067e-10 -2.12177e-11 -0.0993625)
(-1.28247e-10 -1.76171e-10 -0.100437)
(3.87822e-11 -2.06402e-10 -0.085595)
(2.16517e-10 -1.67002e-10 -0.0662003)
(3.66546e-10 -1.03842e-10 -0.049482)
(4.64373e-10 -4.40402e-11 -0.038879)
(5.00728e-10 1.14338e-12 -0.0350123)