/*--------------------------------*- C++ -*----------------------------------*\
  =========                 |
  \\      /  F ield         | OpenFOAM: The Open Source CFD Toolbox
   \\    /   O peration     | Website:  https://openfoam.org
    \\  /    A nd           | Version:  11
     \\/     M anipulation  |
\*---------------------------------------------------------------------------*/
FoamFile
{
    format      ascii;
    class       volVectorField;
    location    "1.516373";
    object      U;
}
// * * * * * * * * * * * * * * * * * * * * * * * * * * * * * * * * * * * * * //

dimensions      [0 1 -1 0 0 0 0];

internalField   nonuniform List<vector> 
7132
(
(1.00014 -0.000274968 2.42593e-18)
(1.00213 -0.000827177 7.89836e-18)
(1.00663 -0.00140772 8.01438e-18)
(1.01344 -0.0020242 9.6514e-18)
(1.0228 -0.00267438 1.22753e-17)
(1.03482 -0.00333097 1.27415e-17)
(1.04947 -0.00394516 1.22065e-17)
(1.06643 -0.00442732 1.14899e-17)
(1.08498 -0.00467954 1.08994e-17)
(1.10401 -0.00459725 1.04392e-17)
(1.12193 -0.00411613 9.95642e-18)
(1.13714 -0.00329176 9.90309e-18)
(1.14842 -0.00219477 9.65127e-18)
(1.15481 -0.000913552 1.04909e-17)
(1.1558 0.000419647 3.01748e-18)
(1.15147 0.0016631 -4.92814e-18)
(1.14247 0.00268678 -1.28711e-17)
(1.12991 0.00340706 -1.28565e-17)
(1.11514 0.00380206 -1.73882e-17)
(1.09944 0.00390311 -2.14378e-17)
(1.08388 0.00377363 -1.8943e-17)
(1.06925 0.00348726 -1.57912e-17)
(1.056 0.00311001 -1.38547e-17)
(1.0444 0.00268966 -1.27612e-17)
(1.03452 0.00225402 -9.41793e-18)
(1.02639 0.00181785 -7.65514e-18)
(1.02 0.00139468 -4.75766e-18)
(1.01524 0.00100584 -1.74326e-18)
(1.01195 0.000680047 7.05014e-19)
(1.00979 0.00044297 2.25958e-18)
(1.00839 0.000303909 1.88976e-18)
(1.00736 0.000249342 -3.85146e-20)
(1.0064 0.000248015 -1.83871e-18)
(1.00537 0.000264268 -2.18989e-18)
(1.00428 0.000271293 -2.61611e-18)
(1.0032 0.000257472 -2.72008e-18)
(1.00222 0.000224462 -3.3051e-18)
(1.0014 0.00018065 -3.23157e-18)
(1.00076 0.000134853 -1.78813e-18)
(1.00031 9.30729e-05 -4.26824e-19)
(1.00001 5.82091e-05 1.06432e-18)
(0.999837 3.11424e-05 1.50452e-18)
(0.999757 1.17308e-05 1.74275e-18)
(0.99974 -7.49101e-07 2.31755e-18)
(0.999761 -7.48805e-06 2.09788e-18)
(0.999799 -1.00086e-05 1.83086e-18)
(0.999841 -9.89523e-06 8.36215e-19)
(0.999878 -8.4966e-06 2.03786e-19)
(0.999908 -6.74343e-06 5.83203e-19)
(0.999931 -5.13517e-06 1.58605e-19)
(0.999949 -3.84828e-06 -1.15903e-18)
(0.999962 -2.87985e-06 -1.52008e-18)
(0.999972 -2.16213e-06 -9.22336e-19)
(0.999979 -1.62537e-06 -7.68247e-19)
(0.999984 -1.21875e-06 -6.31831e-19)
(0.999989 -9.09306e-07 -1.17511e-18)
(0.999992 -6.74946e-07 -1.37701e-18)
(0.999994 -4.9908e-07 -7.60745e-19)
(0.999996 -3.68225e-07 -6.05648e-19)
(0.999997 -2.71361e-07 -4.55654e-19)
(0.999998 -1.998e-07 -1.00377e-18)
(0.999998 -1.46942e-07 -1.11481e-18)
(0.999999 -1.07899e-07 -9.30426e-19)
(0.999999 -7.90707e-08 -1.59187e-18)
(1 -5.78027e-08 -1.09223e-18)
(1 -4.21265e-08 -8.64067e-19)
(1 -3.05819e-08 -7.99431e-19)
(1 -2.20853e-08 -5.92974e-19)
(1 -1.58366e-08 -1.27166e-18)
(1 -1.12438e-08 -8.00233e-19)
(1 -7.87167e-09 -6.01222e-19)
(1 -5.39816e-09 -5.57424e-19)
(1 -3.58694e-09 -3.53071e-19)
(1 -2.26277e-09 -1.00766e-18)
(1 -1.29758e-09 -4.87031e-19)
(1 -5.96017e-10 -2.26274e-19)
(1 -8.88216e-11 -1.29297e-19)
(1 2.75915e-10 9.81326e-20)
(1 5.3551e-10 -5.76102e-19)
(1 7.18294e-10 -1.16199e-19)
(1 8.44323e-10 5.71918e-20)
(1 9.29076e-10 6.05682e-20)
(1 9.83294e-10 2.06697e-19)
(1 1.01546e-09 -5.24825e-19)
(1 1.03131e-09 -9.41219e-20)
(1 1.03551e-09 7.60775e-20)
(1 1.03115e-09 9.55382e-20)
(1 1.02074e-09 2.66742e-19)
(1 1.006e-09 -4.42997e-19)
(1 9.88231e-10 -7.5475e-21)
(1 9.6844e-10 1.66248e-19)
(1 9.47241e-10 5.35679e-20)
(1 9.25288e-10 7.74918e-19)
(1 9.02775e-10 3.27308e-19)
(1 8.80224e-10 2.33687e-19)
(1 8.57545e-10 2.75237e-19)
(1 8.35236e-10 1.19431e-19)
(1 8.13007e-10 8.2074e-19)
(1 7.91385e-10 3.58755e-19)
(1 7.69923e-10 2.51272e-19)
(1 7.49209e-10 2.78981e-19)
(1 7.28671e-10 1.10526e-19)
(1 7.08967e-10 8.01442e-19)
(1 6.89415e-10 3.31628e-19)
(1 6.70751e-10 2.18586e-19)
(1 6.52192e-10 2.42541e-19)
(1 6.34555e-10 7.17276e-20)
(1 6.16968e-10 7.61349e-19)
(1 6.00321e-10 2.90984e-19)
(1 5.83662e-10 1.77964e-19)
(1 5.67955e-10 2.02767e-19)
(1 5.52172e-10 3.42794e-20)
(1 5.37351e-10 7.27896e-19)
(1 5.22391e-10 2.6122e-19)
(1 5.08395e-10 1.46333e-19)
(1 4.94203e-10 1.55703e-19)
(1 4.80977e-10 -4.57676e-20)
(1 4.67501e-10 5.90564e-19)
(1 4.5499e-10 9.2803e-20)
(1 4.42176e-10 -1.88291e-19)
(1 4.30327e-10 3.76099e-19)
(1 4.18129e-10 4.56152e-19)
(1 4.06895e-10 5.71235e-19)
(1 3.95268e-10 6.37436e-21)
(1 3.84604e-10 -2.45346e-19)
(1 3.73509e-10 3.51796e-19)
(1 3.63376e-10 4.46436e-19)
(1 3.52775e-10 5.5977e-19)
(1 3.43133e-10 -1.43706e-20)
(1 3.32994e-10 -2.74995e-19)
(1 3.23812e-10 3.17458e-19)
(1 3.14105e-10 4.11665e-19)
(1 3.05355e-10 5.26977e-19)
(1 2.96053e-10 -4.4657e-20)
(1 2.87705e-10 -3.0329e-19)
(1 2.78782e-10 2.90427e-19)
(1 2.70813e-10 3.85398e-19)
(1 2.62251e-10 5.01387e-19)
(1 2.54638e-10 -6.91282e-20)
(1 2.46414e-10 -3.25738e-19)
(1 2.39137e-10 2.70703e-19)
(1 2.31233e-10 3.67364e-19)
(1 2.24273e-10 4.80453e-19)
(1 2.16673e-10 -1.0168e-19)
(1 2.10015e-10 -3.80564e-19)
(1 2.02704e-10 1.85955e-19)
(1 1.96333e-10 2.53477e-19)
(1 1.89299e-10 3.49063e-19)
(1 1.83202e-10 -2.30938e-19)
(1 1.7643e-10 -4.873e-19)
(1 1.70603e-10 1.14995e-19)
(1 1.64068e-10 2.20079e-19)
(1 1.58537e-10 3.44749e-19)
(1 1.52125e-10 -2.197e-19)
(1 1.47148e-10 -4.72426e-19)
(1 1.40213e-10 1.24334e-19)
(1 1.37801e-10 2.30482e-19)
(1 1.25926e-10 3.17985e-19)
(1 1.38666e-10 -9.52109e-20)
(1 1.02979e-10 -1.06147e-18)
(1.00014 -0.00082244 3.82741e-20)
(1.00211 -0.00247546 3.79453e-19)
(1.00658 -0.00421494 7.41325e-19)
(1.01335 -0.00606633 1.12911e-18)
(1.0227 -0.00802404 1.58453e-18)
(1.03474 -0.0100074 2.03559e-18)
(1.04948 -0.0118707 2.41393e-18)
(1.06663 -0.0133412 2.63898e-18)
(1.08547 -0.0141208 5.33393e-18)
(1.10487 -0.0138847 5.62968e-18)
(1.12317 -0.0124335 4.64825e-18)
(1.13869 -0.00994425 1.04334e-17)
(1.15019 -0.00663097 9.32084e-18)
(1.15671 -0.00275959 8.70758e-18)
(1.15768 0.00126674 8.87896e-18)
(1.15318 0.00501686 8.78238e-18)
(1.14391 0.00809589 7.28838e-18)
(1.13104 0.0102531 4.65878e-18)
(1.11594 0.0114269 1.93836e-18)
(1.09997 0.0117164 1.04513e-18)
(1.08421 0.0113156 2.85377e-18)
(1.06943 0.0104476 4.75224e-18)
(1.05611 0.00931111 2.74838e-18)
(1.04447 0.00804954 -3.84648e-18)
(1.03459 0.00674585 -9.86339e-18)
(1.02647 0.00544319 -8.31313e-18)
(1.02007 0.00418034 2.83266e-18)
(1.01532 0.00301935 1.69504e-17)
(1.01201 0.00204499 2.30632e-17)
(1.00985 0.00133396 1.6237e-17)
(1.00844 0.000915124 -4.16419e-20)
(1.00739 0.000749431 -1.65064e-17)
(1.00643 0.00074436 -2.13422e-17)
(1.00541 0.000793364 -1.60692e-17)
(1.00432 0.000815674 -6.6225e-18)
(1.00323 0.000775712 6.76353e-19)
(1.00224 0.000677804 6.16348e-19)
(1.00141 0.000546794 -2.12603e-18)
(1.00077 0.000409152 -4.678e-18)
(1.00031 0.000283085 -4.63069e-18)
(1.00001 0.000177559 -2.07392e-18)
(0.999837 9.54424e-05 -8.53269e-19)
(0.999758 3.64574e-05 6.00131e-19)
(0.999743 -1.50179e-06 1.18842e-18)
(0.999765 -2.20156e-05 1.53635e-18)
(0.999804 -2.97077e-05 2.0362e-18)
(0.999846 -2.94047e-05 5.69288e-19)
(0.999882 -2.52148e-05 -8.35271e-21)
(0.999912 -1.99673e-05 -7.42863e-20)
(0.999934 -1.51719e-05 -8.15905e-19)
(0.999951 -1.13531e-05 -3.74841e-19)
(0.999963 -8.49221e-06 -2.83452e-19)
(0.999973 -6.37799e-06 -3.05928e-19)
(0.99998 -4.79792e-06 -1.9078e-19)
(0.999985 -3.59985e-06 -8.86535e-19)
(0.999989 -2.68685e-06 -4.29102e-19)
(0.999992 -1.99467e-06 -3.3273e-19)
(0.999994 -1.47505e-06 -3.44324e-19)
(0.999996 -1.08843e-06 -2.05524e-19)
(0.999997 -8.02283e-07 -8.72397e-19)
(0.999998 -5.909e-07 -3.84658e-19)
(0.999998 -4.34757e-07 -3.13078e-19)
(0.999999 -3.19403e-07 -1.75005e-19)
(0.999999 -2.34215e-07 -8.17392e-19)
(0.999999 -1.71359e-07 -6.46955e-19)
(1 -1.25025e-07 7.92835e-19)
(1 -9.08984e-08 -1.78332e-19)
(1 -6.57796e-08 -2.5099e-19)
(1 -4.73029e-08 -9.11227e-19)
(1 -3.37205e-08 -7.22411e-19)
(1 -2.37452e-08 7.37913e-19)
(1 -1.64263e-08 -2.11215e-19)
(1 -1.10643e-08 -2.5245e-19)
(1 -7.14243e-09 -8.65677e-19)
(1 -4.28111e-09 -6.15571e-19)
(1 -2.19939e-09 9.09763e-19)
(1 -6.91798e-10 1.28889e-20)
(1 3.94355e-10 -4.07347e-21)
(1 1.17019e-09 -6.2786e-19)
(1 1.71867e-09 -4.18645e-19)
(1 2.09975e-09 1.04872e-18)
(1 2.35856e-09 9.2525e-20)
(1 2.52741e-09 2.72539e-20)
(1 2.63084e-09 -6.2758e-19)
(1 2.68626e-09 -4.31444e-19)
(1 2.70704e-09 1.03811e-18)
(1 2.7026e-09 9.37563e-20)
(1 2.68015e-09 4.5181e-20)
(1 2.64485e-09 -6.05426e-19)
(1 2.60053e-09 -3.83549e-19)
(1 2.55008e-09 9.62443e-19)
(1 2.49542e-09 4.32081e-19)
(1 2.43831e-09 8.63464e-19)
(1 2.37955e-09 8.75759e-19)
(1 2.32034e-09 7.68185e-19)
(1 2.26085e-09 8.20631e-19)
(1 2.20201e-09 6.67044e-20)
(1 2.14357e-09 5.15944e-19)
(1 2.0864e-09 5.86331e-19)
(1 2.02994e-09 5.31528e-19)
(1 1.97509e-09 6.24792e-19)
(1 1.92107e-09 -9.80316e-20)
(1 1.86884e-09 3.75626e-19)
(1 1.81744e-09 4.65741e-19)
(1 1.76792e-09 4.27058e-19)
(1 1.71917e-09 5.33527e-19)
(1 1.67233e-09 -1.78423e-19)
(1 1.62618e-09 3.04247e-19)
(1 1.58194e-09 4.01806e-19)
(1 1.53826e-09 3.6926e-19)
(1 1.49648e-09 4.81168e-19)
(1 1.45515e-09 -2.24945e-19)
(1 1.4157e-09 2.64867e-19)
(1 1.37656e-09 3.6989e-19)
(1 1.33927e-09 3.40807e-19)
(1 1.3022e-09 4.44503e-19)
(1 1.26692e-09 -2.8658e-19)
(1 1.23175e-09 1.53691e-19)
(1 1.19835e-09 2.29087e-19)
(1 1.16496e-09 4.0003e-20)
(1 1.1333e-09 6.76817e-19)
(1 1.10154e-09 1.85402e-19)
(1 1.07149e-09 9.25784e-20)
(1 1.04127e-09 1.04115e-19)
(1 1.01271e-09 -4.6913e-20)
(1 9.83905e-10 6.32679e-19)
(1 9.56741e-10 1.65171e-19)
(1 9.29254e-10 7.80582e-20)
(1 9.03385e-10 8.5512e-20)
(1 8.7713e-10 -7.12462e-20)
(1 8.52469e-10 6.0538e-19)
(1 8.27365e-10 1.38307e-19)
(1 8.03834e-10 5.36019e-20)
(1 7.7981e-10 6.37663e-20)
(1 7.57339e-10 -9.09443e-20)
(1 7.34329e-10 5.86875e-19)
(1 7.12854e-10 1.20376e-19)
(1 6.908e-10 3.60421e-20)
(1 6.70261e-10 4.68825e-20)
(1 6.49108e-10 -1.06391e-19)
(1 6.29455e-10 5.73495e-19)
(1 6.09153e-10 1.08184e-19)
(1 5.90336e-10 2.09848e-20)
(1 5.70842e-10 2.11471e-20)
(1 5.52817e-10 -1.52485e-19)
(1 5.34091e-10 4.99928e-19)
(1 5.16824e-10 7.5553e-21)
(1 4.98828e-10 -9.64452e-20)
(1 4.82288e-10 -9.53984e-20)
(1 4.64986e-10 -2.49518e-19)
(1 4.4917e-10 4.34784e-19)
(1 4.32481e-10 -2.36522e-20)
(1 4.17491e-10 -1.01071e-19)
(1 4.01087e-10 -8.55616e-20)
(1 3.87695e-10 -2.36094e-19)
(1 3.69801e-10 4.43488e-19)
(1 3.63284e-10 -1.4428e-20)
(1 3.3283e-10 -1.23739e-19)
(1 3.63782e-10 2.28092e-20)
(1 2.76274e-10 -7.62237e-19)
(1.00014 -0.00136308 4.66339e-22)
(1.00208 -0.00410477 6.1349e-21)
(1.00648 -0.00699694 4.47723e-21)
(1.01318 -0.0100881 3.4934e-21)
(1.02248 -0.0133742 -9.58904e-20)
(1.03456 -0.0167254 1.87663e-20)
(1.04947 -0.0199006 -3.6927e-19)
(1.06699 -0.0224331 -9.14775e-19)
(1.08641 -0.0238115 1.31735e-18)
(1.10657 -0.0234541 5.04068e-19)
(1.12563 -0.0210066 -6.26627e-18)
(1.14178 -0.0167994 -7.34768e-18)
(1.15374 -0.0111947 4.68631e-19)
(1.16049 -0.00463303 7.98608e-18)
(1.1614 0.00219899 1.07254e-17)
(1.15657 0.00856103 1.18445e-17)
(1.14674 0.0137692 1.12406e-17)
(1.1332 0.0173922 7.39321e-18)
(1.11745 0.0193312 2.30621e-18)
(1.10092 0.0197659 2.52588e-18)
(1.08473 0.0190372 1.12497e-17)
(1.06967 0.0175308 1.92722e-17)
(1.0562 0.0155867 9.94257e-18)
(1.04449 0.013448 -2.00473e-17)
(1.03461 0.0112535 -4.61034e-17)
(1.02651 0.00907313 -3.15607e-17)
(1.02015 0.0069676 3.33038e-17)
(1.01541 0.00503584 1.0911e-16)
(1.0121 0.00341516 1.32987e-16)
(1.00992 0.00223117 7.41004e-17)
(1.00849 0.00153171 -3.52361e-17)
(1.00743 0.00125286 -1.24775e-16)
(1.00644 0.00124198 -1.42497e-16)
(1.00541 0.00132254 -9.1024e-17)
(1.00431 0.00136009 -1.58944e-17)
(1.00321 0.00129473 3.49676e-17)
(1.00222 0.0011328 4.25107e-17)
(1.00139 0.000914989 1.96079e-17)
(1.00074 0.000685137 -8.47868e-18)
(1.00028 0.000473763 -2.41299e-17)
(0.999983 0.000296296 -2.43485e-17)
(0.999815 0.00015806 -1.59785e-17)
(0.999743 5.8973e-05 -6.67545e-18)
(0.999737 -4.3795e-06 -4.87613e-19)
(0.999766 -3.81246e-05 2.20244e-18)
(0.999809 -5.02573e-05 2.69985e-18)
(0.999852 -4.9096e-05 2.05105e-18)
(0.999889 -4.16546e-05 1.07713e-18)
(0.999918 -3.2689e-05 2.90897e-19)
(0.999939 -2.46674e-05 -3.76045e-19)
(0.999955 -1.8382e-05 -3.06585e-20)
(0.999966 -1.37296e-05 2.05535e-19)
(0.999975 -1.03142e-05 -2.74199e-19)
(0.999981 -7.76514e-06 -2.63198e-19)
(0.999986 -5.82904e-06 -4.04597e-19)
(0.99999 -4.3505e-06 1.24539e-19)
(0.999992 -3.22848e-06 3.29936e-19)
(0.999994 -2.38644e-06 -2.34999e-19)
(0.999996 -1.76056e-06 -2.68877e-19)
(0.999997 -1.29779e-06 -4.11164e-19)
(0.999998 -9.56135e-07 1.60595e-19)
(0.999998 -7.03805e-07 2.54436e-19)
(0.999999 -5.17382e-07 2.30326e-19)
(0.999999 -3.79699e-07 2.865e-19)
(0.999999 -2.78105e-07 -4.77945e-19)
(1 -2.03216e-07 9.28267e-20)
(1 -1.48057e-07 2.20373e-19)
(1 -1.07455e-07 2.1306e-19)
(1 -7.75844e-08 2.73356e-19)
(1 -5.56216e-08 -4.95163e-19)
(1 -3.94859e-08 6.84536e-20)
(1 -2.76423e-08 1.92863e-19)
(1 -1.89601e-08 1.93272e-19)
(1 -1.26048e-08 2.75024e-19)
(1 -7.96258e-09 -4.61999e-19)
(1 -4.58026e-09 1.33403e-19)
(1 -2.12494e-09 2.78146e-19)
(1 -3.50829e-10 2.79462e-19)
(1 9.22421e-10 3.42556e-19)
(1 1.82806e-09 -4.25227e-19)
(1 2.46369e-09 1.38209e-19)
(1 2.90152e-09 2.58688e-19)
(1 3.19433e-09 2.47094e-19)
(1 3.38122e-09 3.07307e-19)
(1 3.49076e-09 -4.57188e-19)
(1 3.54408e-09 1.12165e-19)
(1 3.55671e-09 2.36603e-19)
(1 3.53999e-09 2.3116e-19)
(1 3.50241e-09 2.62918e-19)
(1 3.44999e-09 -3.98172e-19)
(1 3.38744e-09 -4.16392e-19)
(1 3.31786e-09 -3.62523e-19)
(1 3.24395e-09 -2.53277e-19)
(1 3.16717e-09 -1.36346e-19)
(1 3.08921e-09 -4.23841e-20)
(1 3.0106e-09 6.20554e-20)
(1 2.9325e-09 6.97344e-20)
(1 2.8549e-09 9.91209e-20)
(1 2.7787e-09 1.37611e-19)
(1 2.70358e-09 1.62966e-19)
(1 2.63033e-09 2.10757e-19)
(1 2.55841e-09 1.73908e-19)
(1 2.48858e-09 1.69712e-19)
(1 2.42015e-09 1.83523e-19)
(1 2.3539e-09 1.90892e-19)
(1 2.28903e-09 2.25579e-19)
(1 2.22636e-09 1.79237e-19)
(1 2.16497e-09 1.68234e-19)
(1 2.10575e-09 1.77111e-19)
(1 2.0477e-09 1.80774e-19)
(1 1.99176e-09 2.12902e-19)
(1 1.93688e-09 1.65973e-19)
(1 1.88402e-09 1.57602e-19)
(1 1.83209e-09 1.72296e-19)
(1 1.78212e-09 1.81666e-19)
(1 1.73297e-09 2.12218e-19)
(1 1.68568e-09 1.49036e-19)
(1 1.63909e-09 1.04014e-19)
(1 1.5943e-09 7.53707e-20)
(1 1.5501e-09 2.18557e-20)
(1 1.50762e-09 5.62618e-20)
(1 1.46562e-09 6.75177e-20)
(1 1.42529e-09 6.91619e-20)
(1 1.38535e-09 7.90336e-20)
(1 1.34701e-09 5.87881e-20)
(1 1.30897e-09 1.14175e-19)
(1 1.27247e-09 1.30062e-19)
(1 1.23621e-09 1.22756e-19)
(1 1.20144e-09 1.17108e-19)
(1 1.16683e-09 8.16369e-20)
(1 1.13367e-09 1.2595e-19)
(1 1.1006e-09 1.35442e-19)
(1 1.06894e-09 1.2499e-19)
(1 1.03732e-09 1.17684e-19)
(1 1.00707e-09 8.08882e-20)
(1 9.76813e-10 1.23786e-19)
(1 9.4789e-10 1.31797e-19)
(1 9.18911e-10 1.20027e-19)
(1 8.91236e-10 1.11914e-19)
(1 8.63463e-10 7.5162e-20)
(1 8.36967e-10 1.18821e-19)
(1 8.10336e-10 1.27002e-19)
(1 7.84957e-10 1.12043e-19)
(1 7.59407e-10 9.40603e-20)
(1 7.35084e-10 3.90319e-20)
(1 7.10564e-10 5.81247e-20)
(1 6.87253e-10 4.19332e-20)
(1 6.63711e-10 1.14034e-20)
(1 6.41376e-10 -6.7503e-21)
(1 6.18759e-10 -4.55504e-20)
(1 5.97405e-10 8.56885e-22)
(1 5.75595e-10 1.41009e-20)
(1 5.55407e-10 6.85133e-21)
(1 5.33934e-10 1.5628e-21)
(1 5.16042e-10 -3.39943e-20)
(1 4.92493e-10 9.05969e-21)
(1 4.83632e-10 1.95679e-20)
(1 4.44607e-10 1.74716e-21)
(1 4.79607e-10 1.89888e-20)
(1 3.74237e-10 -8.23713e-20)
(1.00013 -0.00189206 -2.83965e-20)
(1.00202 -0.00570066 -4.78842e-19)
(1.00631 -0.00973426 -8.94679e-19)
(1.01289 -0.0140719 -1.53946e-18)
(1.02211 -0.0187202 -2.11611e-18)
(1.03423 -0.0235074 -2.06982e-18)
(1.04939 -0.0281016 -7.34847e-18)
(1.06746 -0.0318232 3.67851e-18)
(1.08777 -0.0339259 5.95346e-18)
(1.10911 -0.0335038 -4.24301e-17)
(1.12934 -0.0300129 -4.2657e-17)
(1.14645 -0.0239982 8.24592e-17)
(1.15913 -0.0159793 1.80661e-16)
(1.16624 -0.00656821 1.56256e-16)
(1.16707 0.00323726 6.94807e-17)
(1.16172 0.0123559 9.5158e-19)
(1.15102 0.0197816 -2.21995e-17)
(1.13643 0.0248903 -1.22072e-17)
(1.11966 0.0275571 1.76283e-18)
(1.10226 0.0280662 2.73803e-18)
(1.08543 0.026928 -7.75927e-18)
(1.06996 0.0247081 -3.21989e-17)
(1.05625 0.0218975 -8.59399e-17)
(1.04446 0.0188422 -1.59139e-16)
(1.03457 0.0157364 -1.78874e-16)
(1.02652 0.0126735 -5.43739e-17)
(1.02021 0.0097319 2.04871e-16)
(1.01551 0.00704173 4.31477e-16)
(1.01221 0.00478771 4.11231e-16)
(1.01001 0.00314052 8.48033e-17)
(1.00854 0.00216525 -3.69307e-16)
(1.00743 0.00177344 -6.62258e-16)
(1.00642 0.00175405 -6.15882e-16)
(1.00535 0.00186258 -2.91881e-16)
(1.00424 0.00191229 8.86902e-17)
(1.00313 0.00181945 3.18519e-16)
(1.00213 0.00159204 3.26373e-16)
(1.00129 0.00128595 1.8441e-16)
(1.00065 0.000961906 1.17924e-17)
(1.0002 0.000662818 -1.05568e-16)
(0.999909 0.000411089 -1.44775e-16)
(0.999757 0.000215141 -1.28128e-16)
(0.999705 7.54979e-05 -8.40874e-17)
(0.999716 -1.25765e-05 -3.77657e-17)
(0.999758 -5.8136e-05 -2.51089e-18)
(0.999811 -7.30751e-05 1.66425e-17)
(0.999859 -6.96494e-05 1.89868e-17)
(0.999897 -5.80098e-05 1.30401e-17)
(0.999925 -4.48529e-05 5.02023e-18)
(0.999945 -3.34831e-05 -1.52803e-18)
(0.999959 -2.48015e-05 -3.14413e-18)
(0.999969 -1.84926e-05 -2.44473e-18)
(0.999977 -1.39041e-05 -1.0667e-18)
(0.999983 -1.04826e-05 1.10331e-19)
(0.999987 -7.87454e-06 -2.30843e-19)
(0.999991 -5.8759e-06 2.27511e-19)
(0.999993 -4.35723e-06 2.63403e-19)
(0.999995 -3.21842e-06 1.82572e-19)
(0.999996 -2.3734e-06 3.17708e-19)
(0.999997 -1.74957e-06 -3.90986e-19)
(0.999998 -1.28938e-06 1.19662e-19)
(0.999999 -9.49547e-07 2.30099e-19)
(0.999999 -6.98435e-07 3.75843e-19)
(0.999999 -5.12945e-07 -2.13809e-19)
(0.999999 -3.76071e-07 -6.96245e-20)
(1 -2.7518e-07 1.38397e-18)
(1 -2.00871e-07 4.15555e-19)
(1 -1.46171e-07 3.14423e-19)
(1 -1.05923e-07 -3.22505e-19)
(1 -7.63239e-08 -1.83038e-19)
(1 -5.45719e-08 1.27294e-18)
(1 -3.86001e-08 3.1072e-19)
(1 -2.68852e-08 2.22672e-19)
(1 -1.8304e-08 -3.93713e-19)
(1 -1.20293e-08 -2.30829e-19)
(1 -7.45121e-09 1.24324e-18)
(1 -4.12108e-09 2.86294e-19)
(1 -1.70817e-09 1.88534e-19)
(1 3.05374e-11 -4.4755e-19)
(1 1.27435e-09 -3.04602e-19)
(1 2.1548e-09 1.15862e-18)
(1 2.76897e-09 2.04038e-19)
(1 3.18803e-09 1.19516e-19)
(1 3.46447e-09 -4.98879e-19)
(1 3.6368e-09 -3.4043e-19)
(1 3.73336e-09 1.13227e-18)
(1 3.77504e-09 1.78642e-19)
(1 3.77704e-09 9.08741e-20)
(1 3.75076e-09 -5.52526e-19)
(1 3.70426e-09 -3.68997e-19)
(1 3.64382e-09 9.34508e-19)
(1 3.57359e-09 3.55942e-19)
(1 3.49716e-09 7.08647e-19)
(1 3.41653e-09 6.64022e-19)
(1 3.33385e-09 5.47057e-19)
(1 3.24991e-09 6.17324e-19)
(1 3.16615e-09 -1.2803e-19)
(1 3.08267e-09 2.85898e-19)
(1 3.00053e-09 3.30151e-19)
(1 2.91945e-09 2.87878e-19)
(1 2.84031e-09 4.1536e-19)
(1 2.76256e-09 -2.85981e-19)
(1 2.68706e-09 1.62726e-19)
(1 2.61305e-09 2.34855e-19)
(1 2.5414e-09 2.14809e-19)
(1 2.47125e-09 3.59772e-19)
(1 2.40346e-09 -3.27958e-19)
(1 2.33709e-09 1.31253e-19)
(1 2.27305e-09 2.11258e-19)
(1 2.21031e-09 1.96773e-19)
(1 2.14984e-09 3.45665e-19)
(1 2.09052e-09 -3.38152e-19)
(1 2.0334e-09 1.27275e-19)
(1 1.9773e-09 2.17198e-19)
(1 1.92331e-09 2.14527e-19)
(1 1.87021e-09 3.70616e-19)
(1 1.81913e-09 -3.17922e-19)
(1 1.76882e-09 1.18698e-19)
(1 1.72045e-09 1.89064e-19)
(1 1.67272e-09 3.3171e-20)
(1 1.62684e-09 6.90351e-19)
(1 1.58151e-09 1.79313e-19)
(1 1.53796e-09 4.6592e-20)
(1 1.49484e-09 3.43502e-20)
(1 1.45345e-09 -9.00451e-20)
(1 1.41239e-09 6.1265e-19)
(1 1.373e-09 1.34025e-19)
(1 1.33386e-09 1.73027e-20)
(1 1.29633e-09 9.95071e-21)
(1 1.25898e-09 -1.13957e-19)
(1 1.22318e-09 5.89307e-19)
(1 1.1875e-09 1.12816e-19)
(1 1.15333e-09 -7.12357e-22)
(1 1.11922e-09 -4.86527e-21)
(1 1.08657e-09 -1.26274e-19)
(1 1.05393e-09 5.78627e-19)
(1 1.02272e-09 1.03082e-19)
(1 9.91455e-10 -9.87753e-21)
(1 9.61591e-10 -1.34364e-20)
(1 9.31636e-10 -1.33836e-19)
(1 9.03047e-10 5.72451e-19)
(1 8.74327e-10 9.75525e-20)
(1 8.46942e-10 -1.79742e-20)
(1 8.19393e-10 -3.03384e-20)
(1 7.93156e-10 -1.67372e-19)
(1 7.66722e-10 5.16381e-19)
(1 7.41582e-10 1.90142e-20)
(1 7.1621e-10 -1.10959e-19)
(1 6.92133e-10 -1.23602e-19)
(1 6.67762e-10 -2.45758e-19)
(1 6.44768e-10 4.63179e-19)
(1 6.21266e-10 -6.96496e-21)
(1 5.99586e-10 -1.15333e-19)
(1 5.76422e-10 -1.16007e-19)
(1 5.57309e-10 -2.34933e-19)
(1 5.3195e-10 4.70217e-19)
(1 5.22025e-10 1.42321e-21)
(1 4.81982e-10 -1.36862e-19)
(1 5.11166e-10 -1.1366e-20)
(1 4.10967e-10 -7.43898e-19)
(1.00013 -0.00240324 -2.20544e-18)
(1.00193 -0.00724591 -7.51537e-18)
(1.00607 -0.0124021 -6.47948e-18)
(1.01247 -0.0179928 -8.49964e-18)
(1.02155 -0.0240482 -3.77554e-18)
(1.03368 -0.0303675 -1.76785e-17)
(1.04915 -0.0365355 -2.5952e-18)
(1.06795 -0.041635 4.51886e-17)
(1.08948 -0.044655 -1.4477e-16)
(1.11246 -0.0442531 -7.91369e-17)
(1.13434 -0.0396436 5.08716e-16)
(1.15276 -0.0316908 7.73628e-16)
(1.16642 -0.0210787 1.65904e-16)
(1.17403 -0.00857297 -6.53333e-16)
(1.17475 0.00448472 -1.1045e-15)
(1.16866 0.0166171 -1.25262e-15)
(1.15673 0.026429 -1.09262e-15)
(1.14071 0.0330728 -7.07103e-16)
(1.12254 0.0364114 -3.13079e-16)
(1.10397 0.0368742 -1.71432e-16)
(1.08628 0.0351835 -3.63069e-16)
(1.07026 0.0321159 -7.13131e-16)
(1.05626 0.0283304 -9.31857e-16)
(1.04437 0.0242821 -7.89904e-16)
(1.0345 0.0202195 -2.40617e-16)
(1.02652 0.0162548 5.07821e-16)
(1.02028 0.0124764 1.00883e-15)
(1.01563 0.00903816 7.98034e-16)
(1.01234 0.00616435 -1.9852e-16)
(1.01011 0.00406488 -1.47223e-15)
(1.00859 0.00281908 -2.23072e-15)
(1.00742 0.00231393 -1.96631e-15)
(1.00636 0.00228193 -7.97201e-16)
(1.00525 0.00241317 6.71275e-16)
(1.00411 0.00247058 1.77734e-15)
(1.00299 0.00234722 2.16969e-15)
(1.00198 0.00205222 1.89618e-15)
(1.00114 0.00165568 1.23271e-15)
(1.0005 0.00123462 4.66836e-16)
(1.00006 0.000844488 -2.02608e-16)
(0.99979 0.000515463 -6.5733e-16)
(0.999666 0.000260038 -8.32695e-16)
(0.999643 7.99007e-05 -7.35283e-16)
(0.99968 -3.11215e-05 -4.57577e-16)
(0.999744 -8.56821e-05 -1.45131e-16)
(0.99981 -0.000100438 7.54211e-17)
(0.999865 -9.22688e-05 1.56855e-16)
(0.999906 -7.47829e-05 1.29461e-16)
(0.999933 -5.65919e-05 5.94354e-17)
(0.999951 -4.16087e-05 2.52283e-18)
(0.999964 -3.05746e-05 -2.01282e-17)
(0.999973 -2.27575e-05 -1.85586e-17)
(0.999979 -1.71389e-05 -8.51101e-18)
(0.999985 -1.29471e-05 1.39194e-19)
(0.999989 -9.73266e-06 2.54301e-18)
(0.999992 -7.25714e-06 3.0825e-18)
(0.999994 -5.3738e-06 1.89072e-18)
(0.999996 -3.96409e-06 3.07587e-19)
(0.999997 -2.92115e-06 8.04304e-20)
(0.999998 -2.15306e-06 -6.45601e-19)
(0.999998 -1.5871e-06 5.01906e-19)
(0.999999 -1.16923e-06 7.08974e-19)
(0.999999 -8.60373e-07 6.45085e-19)
(0.999999 -6.3219e-07 6.53131e-19)
(0.999999 -4.6382e-07 -2.81229e-19)
(1 -3.39734e-07 8.62727e-19)
(1 -2.48357e-07 4.61949e-19)
(1 -1.81094e-07 3.27603e-19)
(1 -1.31601e-07 3.85257e-19)
(1 -9.51976e-08 -4.93209e-19)
(1 -6.84399e-08 6.91405e-19)
(1 -4.87872e-08 3.21493e-19)
(1 -3.4367e-08 2.16422e-19)
(1 -2.37985e-08 3.04656e-19)
(1 -1.60646e-08 -5.45203e-19)
(1 -1.04158e-08 6.59373e-19)
(1 -6.30044e-09 2.9516e-19)
(1 -3.31216e-09 1.811e-19)
(1 -1.15217e-09 2.51657e-19)
(1 3.99821e-10 -6.14774e-19)
(1 1.50551e-09 5.82937e-19)
(1 2.2841e-09 2.24734e-19)
(1 2.82307e-09 1.26443e-19)
(1 3.18687e-09 2.15877e-19)
(1 3.4228e-09 -6.35e-19)
(1 3.56561e-09 5.71999e-19)
(1 3.6409e-09 2.13349e-19)
(1 3.66733e-09 1.18118e-19)
(1 3.65881e-09 1.49875e-19)
(1 3.62524e-09 -4.96352e-19)
(1 3.57425e-09 -4.28464e-19)
(1 3.51098e-09 -9.54017e-19)
(1 3.4397e-09 -8.91072e-19)
(1 3.36294e-09 -8.60175e-19)
(1 3.28321e-09 -1.93511e-19)
(1 3.2016e-09 1.23279e-19)
(1 3.11969e-09 -4.14919e-19)
(1 3.03777e-09 -4.21695e-19)
(1 2.95695e-09 -4.67631e-19)
(1 2.87705e-09 1.27685e-19)
(1 2.79897e-09 3.82681e-19)
(1 2.72223e-09 -2.06381e-19)
(1 2.64765e-09 -2.53493e-19)
(1 2.57457e-09 -3.30863e-19)
(1 2.50378e-09 2.39874e-19)
(1 2.4345e-09 4.75364e-19)
(1 2.36754e-09 -1.29404e-19)
(1 2.30203e-09 -1.89347e-19)
(1 2.23878e-09 -2.77495e-19)
(1 2.17687e-09 2.83814e-19)
(1 2.11717e-09 5.11128e-19)
(1 2.05866e-09 -9.94854e-20)
(1 2.00229e-09 -1.60842e-19)
(1 1.94698e-09 -2.44454e-19)
(1 1.89371e-09 3.2586e-19)
(1 1.84137e-09 5.60518e-19)
(1 1.79099e-09 -5.27361e-20)
(1 1.74142e-09 -1.35878e-19)
(1 1.69371e-09 -2.51919e-19)
(1 1.6467e-09 2.57579e-19)
(1 1.60147e-09 4.87002e-19)
(1 1.55682e-09 -7.05887e-20)
(1 1.51389e-09 -1.30692e-19)
(1 1.47145e-09 -2.30636e-19)
(1 1.43064e-09 2.95658e-19)
(1 1.39024e-09 5.37358e-19)
(1 1.35141e-09 -1.76294e-20)
(1 1.3129e-09 -8.47787e-20)
(1 1.27591e-09 -1.97226e-19)
(1 1.23916e-09 3.16148e-19)
(1 1.20389e-09 5.47783e-19)
(1 1.16879e-09 -1.36145e-20)
(1 1.13512e-09 -8.43737e-20)
(1 1.10157e-09 -1.98915e-19)
(1 1.0694e-09 3.12958e-19)
(1 1.03731e-09 5.43285e-19)
(1 1.00655e-09 -1.92987e-20)
(1 9.75819e-10 -9.10259e-20)
(1 9.46398e-10 -2.06099e-19)
(1 9.16954e-10 3.05934e-19)
(1 8.8879e-10 5.36988e-19)
(1 8.60568e-10 -2.54543e-20)
(1 8.33597e-10 -1.00109e-19)
(1 8.06534e-10 -2.24198e-19)
(1 7.80698e-10 2.71134e-19)
(1 7.54739e-10 4.79712e-19)
(1 7.29991e-10 -1.0505e-19)
(1 7.05086e-10 -1.93945e-19)
(1 6.814e-10 -3.18082e-19)
(1 6.57487e-10 1.92357e-19)
(1 6.34895e-10 4.26322e-19)
(1 6.11842e-10 -1.31059e-19)
(1 5.90597e-10 -1.98251e-19)
(1 5.67866e-10 -3.10391e-19)
(1 5.49194e-10 2.033e-19)
(1 5.24422e-10 4.33312e-19)
(1 5.1405e-10 -1.22279e-19)
(1 4.7706e-10 -2.20869e-19)
(1 4.97148e-10 -2.0451e-19)
(1 4.12445e-10 -2.89646e-19)
(1.00012 -0.0028896 2.28301e-18)
(1.00182 -0.00871999 8.10626e-18)
(1.00573 -0.0149698 7.23887e-18)
(1.01187 -0.0218166 7.05313e-18)
(1.02074 -0.0293325 2.65382e-17)
(1.03282 -0.0373078 -6.65404e-17)
(1.04863 -0.0452572 2.62012e-16)
(1.06831 -0.051997 -3.92735e-16)
(1.09142 -0.0562136 -5.04421e-16)
(1.11661 -0.0559514 2.56991e-15)
(1.14064 -0.0501102 2.22558e-15)
(1.16076 -0.0400447 -5.62366e-15)
(1.17571 -0.0266115 -1.35887e-14)
(1.18401 -0.0107067 -1.42358e-14)
(1.18459 0.0059319 -1.0293e-14)
(1.17753 0.02137 -6.72812e-15)
(1.16397 0.0337495 -4.20836e-15)
(1.14602 0.0419704 -2.08735e-15)
(1.12601 0.0459057 -3.56292e-16)
(1.10593 0.0461796 1.91567e-16)
(1.08716 0.0437746 -9.13274e-16)
(1.07047 0.0397125 -2.75113e-15)
(1.05614 0.034838 -3.29935e-15)
(1.04416 0.0297206 -1.10508e-15)
(1.03434 0.024661 3.00596e-15)
(1.02647 0.0197839 5.84863e-15)
(1.02035 0.0151799 4.13198e-15)
(1.01577 0.0110162 -2.33009e-15)
(1.01249 0.00754753 -9.43284e-15)
(1.01023 0.00501531 -1.15941e-14)
(1.00865 0.00350914 -6.48155e-15)
(1.0074 0.00289138 3.00553e-15)
(1.00627 0.002841 1.14033e-14)
(1.00511 0.00298669 1.50617e-14)
(1.00393 0.00304414 1.41783e-14)
(1.00279 0.00288449 1.14088e-14)
(1.00177 0.00251755 9.04922e-15)
(1.00093 0.00202641 7.40506e-15)
(1.00029 0.00150357 5.35734e-15)
(0.999867 0.00101718 2.10362e-15)
(0.99963 0.000606294 -1.74797e-15)
(0.999543 0.000288775 -4.63309e-15)
(0.999561 6.81853e-05 -5.358e-15)
(0.999635 -6.33251e-05 -4.00293e-15)
(0.999727 -0.000123011 -1.7238e-15)
(0.99981 -0.000133524 1.8388e-16)
(0.999874 -0.000117318 1.05615e-15)
(0.999916 -9.18712e-05 9.98645e-16)
(0.999943 -6.76344e-05 5.17275e-16)
(0.999959 -4.87842e-05 7.14874e-17)
(0.999969 -3.55219e-05 -1.41121e-16)
(0.999976 -2.64234e-05 -1.51094e-16)
(0.999982 -1.99676e-05 -7.68745e-17)
(0.999987 -1.51312e-05 -1.08674e-17)
(0.99999 -1.1384e-05 1.69883e-17)
(0.999993 -8.47755e-06 1.60347e-17)
(0.999995 -6.2638e-06 6.42193e-18)
(0.999996 -4.61197e-06 5.49169e-20)
(0.999997 -3.39528e-06 -1.98455e-18)
(0.999998 -2.50217e-06 -1.37443e-18)
(0.999998 -1.84495e-06 -9.07556e-19)
(0.999999 -1.35964e-06 -4.38959e-19)
(0.999999 -1.00075e-06 -1.55032e-19)
(0.999999 -7.35533e-07 -8.46143e-19)
(1 -5.39857e-07 -4.47371e-19)
(1 -3.9569e-07 -2.28945e-19)
(1 -2.89552e-07 -1.55025e-19)
(1 -2.11433e-07 3.50464e-20)
(1 -1.5395e-07 -6.12077e-19)
(1 -1.11667e-07 -1.85303e-19)
(1 -8.05841e-08 1.22854e-20)
(1 -5.77512e-08 4.42121e-20)
(1 -4.09939e-08 1.99754e-19)
(1 -2.87084e-08 -4.64383e-19)
(1 -1.97136e-08 -4.17073e-20)
(1 -1.31391e-08 1.54242e-19)
(1 -8.34446e-09 1.77394e-19)
(1 -4.85787e-09 3.12494e-19)
(1 -2.33238e-09 -3.81753e-19)
(1 -5.12396e-10 8.11869e-21)
(1 7.89882e-10 1.76559e-19)
(1 1.71276e-09 1.8247e-19)
(1 2.35776e-09 3.10829e-19)
(1 2.79961e-09 -3.82992e-19)
(1 3.09318e-09 1.02319e-20)
(1 3.27874e-09 1.8198e-19)
(1 3.38595e-09 1.8866e-19)
(1 3.43644e-09 3.1595e-19)
(1 3.44625e-09 -3.91083e-19)
(1 3.42689e-09 3.09778e-21)
(1 3.3871e-09 1.33401e-19)
(1 3.33288e-09 -2.71449e-20)
(1 3.26907e-09 6.16278e-19)
(1 3.19868e-09 1.12016e-19)
(1 3.12447e-09 8.35468e-21)
(1 3.04781e-09 6.60205e-20)
(1 2.97041e-09 -8.38814e-20)
(1 2.89268e-09 5.78723e-19)
(1 2.8158e-09 8.66716e-20)
(1 2.73967e-09 -1.24653e-20)
(1 2.66519e-09 4.52485e-20)
(1 2.59195e-09 -1.05778e-19)
(1 2.52074e-09 5.56463e-19)
(1 2.45097e-09 6.52532e-20)
(1 2.38338e-09 -3.2238e-20)
(1 2.31725e-09 2.73719e-20)
(1 2.25333e-09 -1.21868e-19)
(1 2.19081e-09 5.4185e-19)
(1 2.13047e-09 5.15864e-20)
(1 2.07142e-09 -4.56697e-20)
(1 2.01448e-09 1.37953e-20)
(1 1.95871e-09 -1.34613e-19)
(1 1.90497e-09 5.33104e-19)
(1 1.85226e-09 5.14971e-20)
(1 1.8015e-09 -3.38218e-20)
(1 1.75165e-09 3.49423e-20)
(1 1.70365e-09 -1.13351e-19)
(1 1.65645e-09 5.32055e-19)
(1 1.61102e-09 4.14752e-20)
(1 1.56626e-09 -1.97102e-19)
(1 1.5232e-09 3.92834e-19)
(1 1.4807e-09 4.5454e-19)
(1 1.43984e-09 5.28548e-19)
(1 1.39944e-09 -6.21346e-20)
(1 1.36061e-09 -2.88957e-19)
(1 1.32216e-09 3.30254e-19)
(1 1.28522e-09 4.13269e-19)
(1 1.24858e-09 4.96775e-19)
(1 1.21339e-09 -9.23905e-20)
(1 1.17843e-09 -3.20478e-19)
(1 1.14487e-09 2.9815e-19)
(1 1.1115e-09 3.82314e-19)
(1 1.07947e-09 4.68173e-19)
(1 1.04757e-09 -1.18365e-19)
(1 1.01697e-09 -3.44148e-19)
(1 9.86449e-10 2.76308e-19)
(1 9.57203e-10 3.61918e-19)
(1 9.27985e-10 4.49028e-19)
(1 9.00009e-10 -1.36176e-19)
(1 8.7202e-10 -3.60248e-19)
(1 8.45244e-10 2.62207e-19)
(1 8.18421e-10 3.48962e-19)
(1 7.92784e-10 4.33861e-19)
(1 7.67069e-10 -1.5996e-19)
(1 7.42519e-10 -4.00632e-19)
(1 7.1786e-10 1.99269e-19)
(1 6.94353e-10 2.63677e-19)
(1 6.70706e-10 3.34624e-19)
(1 6.48223e-10 -2.58478e-19)
(1 6.25531e-10 -4.82835e-19)
(1 6.04113e-10 1.43865e-19)
(1 5.82247e-10 2.36939e-19)
(1 5.62149e-10 3.30483e-19)