/*--------------------------------*- C++ -*----------------------------------*\
  =========                 |
  \\      /  F ield         | OpenFOAM: The Open Source CFD Toolbox
   \\    /   O peration     | Website:  https://openfoam.org
    \\  /    A nd           | Version:  11
     \\/     M anipulation  |
\*---------------------------------------------------------------------------*/
FoamFile
{
    format      ascii;
    class       volVectorField;
    location    "1.516373";
    object      vorticity;
}
// * * * * * * * * * * * * * * * * * * * * * * * * * * * * * * * * * * * * * //

dimensions      [0 0 -1 0 0 0 0];

internalField   nonuniform List<vector> 
7132
(
(-4.81767e-17 -1.83797e-15 -0.0110042)
(-1.50378e-16 -1.79061e-15 -0.0109823)
(-1.45461e-16 -1.75304e-17 -0.010976)
(-1.73834e-16 -1.77733e-15 -0.0109916)
(-2.20591e-16 -1.76562e-15 -0.0110321)
(-2.14118e-16 6.88066e-19 -0.0110981)
(-1.95851e-16 1.25157e-17 -0.0111889)
(-1.77019e-16 1.3071e-17 -0.0112984)
(-1.11309e-16 1.05073e-17 -0.0114191)
(-9.61904e-17 9.42946e-18 -0.0115379)
(-1.06163e-16 5.36112e-18 -0.0116372)
(1.06069e-17 3.05148e-18 -0.0117152)
(-6.60868e-18 -5.87784e-18 -0.0117592)
(-3.56658e-17 6.63379e-17 -0.0117617)
(1.18077e-16 -1.58053e-15 -0.0117242)
(2.77598e-16 -1.57584e-15 -0.0116432)
(4.09966e-16 -1.65544e-15 -0.01152)
(3.50306e-16 4.51705e-17 -0.0113547)
(3.93307e-16 -1.64891e-15 -0.0111444)
(4.56435e-16 -1.71917e-15 -0.0108852)
(4.35936e-16 -5.64658e-17 -0.0105857)
(4.10869e-16 -5.08829e-17 -0.0102861)
(3.32063e-16 -3.02996e-17 -0.0100625)
(1.78295e-16 -4.43682e-17 -0.00998465)
(-1.56855e-17 1.68366e-15 -0.0100317)
(-1.31597e-17 -4.66027e-17 -0.0100243)
(1.51806e-16 -5.91188e-17 -0.00965689)
(3.73873e-16 -5.46267e-17 -0.00865419)
(4.47164e-16 -4.00284e-17 -0.00696668)
(2.78702e-16 1.72288e-15 -0.0048608)
(-3.90515e-17 1.7577e-15 -0.00281912)
(-3.29782e-16 1.77201e-15 -0.0013046)
(-3.90069e-16 2.15137e-17 -0.000541823)
(-2.78011e-16 1.7425e-15 -0.000447813)
(-8.05513e-17 1.74003e-15 -0.000731739)
(6.75052e-17 1.74161e-15 -0.00107388)
(7.80055e-17 1.73984e-15 -0.00126687)
(2.21108e-17 -1.51697e-17 -0.00125639)
(-5.8009e-17 1.70668e-15 -0.00109601)
(-8.4289e-17 1.7062e-15 -0.000873231)
(-6.28706e-17 1.71541e-15 -0.000656199)
(-4.72088e-17 1.72794e-15 -0.000477167)
(-2.28524e-17 -8.13025e-18 -0.000341215)
(-2.25826e-17 1.73117e-15 -0.000241489)
(-1.12174e-17 1.73959e-15 -0.000169438)
(4.1201e-18 1.74734e-15 -0.000118259)
(-5.31207e-18 1.75099e-15 -8.27324e-05)
(-4.24277e-18 2.53012e-18 -5.85072e-05)
(-1.31366e-17 1.73518e-15 -4.19577e-05)
(-1.94836e-17 1.75215e-15 -3.03607e-05)
(1.56838e-17 1.67869e-17 -2.19442e-05)
(2.47293e-17 -1.73709e-15 -1.5687e-05)
(1.23282e-17 -7.51834e-18 -1.10153e-05)
(1.15493e-17 -2.90505e-18 -7.5605e-06)
(-5.09409e-18 4.06866e-18 -5.03732e-06)
(1.49202e-17 7.45182e-18 -3.20909e-06)
(2.0884e-17 -1.73887e-15 -1.8868e-06)
(8.32842e-18 -7.71365e-18 -9.29389e-07)
(8.00247e-18 -3.05091e-18 -2.36123e-07)
(-8.33487e-18 3.98124e-18 2.6401e-07)
(1.23823e-17 6.59158e-18 6.2201e-07)
(1.60345e-17 -1.73546e-15 8.75195e-07)
(1.51084e-17 4.77055e-18 1.05129e-06)
(1.54894e-17 -1.73311e-15 1.17082e-06)
(8.90539e-18 -1.742e-15 1.24896e-06)
(3.31381e-17 -2.92798e-18 1.29684e-06)
(1.24219e-17 -1.73743e-15 1.32267e-06)
(6.83967e-18 4.72233e-18 1.33243e-06)
(7.20872e-18 -1.73265e-15 1.33057e-06)
(1.55641e-18 -1.74143e-15 1.32032e-06)
(2.67827e-17 -2.42808e-18 1.30406e-06)
(6.92419e-18 -1.7372e-15 1.28357e-06)
(2.01241e-18 4.50234e-18 1.2601e-06)
(2.83962e-18 -1.73338e-15 1.23463e-06)
(-2.5708e-18 -1.74254e-15 1.20783e-06)
(2.27207e-17 -3.57734e-18 1.18023e-06)
(2.84373e-18 -1.73797e-15 1.1522e-06)
(-2.04412e-18 4.46804e-18 1.12401e-06)
(-1.03516e-18 -1.73258e-15 1.09587e-06)
(-6.04891e-18 -1.74106e-15 1.06794e-06)
(1.98305e-17 -1.76768e-18 1.04031e-06)
(6.39138e-19 -1.73622e-15 1.01309e-06)
(-3.58886e-18 5.85393e-18 9.86297e-07)
(-2.05511e-18 -1.73172e-15 9.60021e-07)
(-6.74643e-18 -1.74073e-15 9.34254e-07)
(1.92406e-17 -1.8966e-18 9.09052e-07)
(-3.56358e-20 -1.73663e-15 8.84391e-07)
(-4.43122e-18 5.38535e-18 8.6032e-07)
(-3.24859e-18 -1.73198e-15 8.36801e-07)
(-7.52002e-18 -1.74082e-15 8.13875e-07)
(1.59239e-17 -6.11154e-19 7.91499e-07)
(7.57026e-18 -1.74081e-15 7.69708e-07)
(1.77093e-18 -2.7374e-18 7.48456e-07)
(1.0969e-17 5.41231e-18 7.27775e-07)
(1.069e-17 -1.7342e-15 7.07617e-07)
(1.09079e-17 1.14255e-18 6.88012e-07)
(-1.05454e-18 -1.74018e-15 6.68909e-07)
(-6.09592e-18 -2.39324e-18 6.50337e-07)
(4.55152e-18 5.69469e-18 6.32246e-07)
(5.60513e-18 -1.73393e-15 6.14664e-07)
(6.91622e-18 1.40746e-18 5.9754e-07)
(-4.17114e-18 -1.73995e-15 5.809e-07)
(-8.51631e-18 -2.21102e-18 5.64695e-07)
(2.68227e-18 5.82856e-18 5.4895e-07)
(4.16944e-18 -1.73383e-15 5.33617e-07)
(5.81972e-18 1.46858e-18 5.18721e-07)
(-5.00301e-18 -1.73991e-15 5.04214e-07)
(-9.14204e-18 -2.19256e-18 4.9012e-07)
(2.21644e-18 5.83385e-18 4.76395e-07)
(3.82593e-18 -1.73384e-15 4.6306e-07)
(5.56803e-18 1.43685e-18 4.50074e-07)
(-5.18449e-18 -1.73997e-15 4.37457e-07)
(-9.26059e-18 -2.2694e-18 4.2517e-07)
(2.17341e-18 5.81563e-18 4.13232e-07)
(3.88948e-18 -1.73367e-15 4.01607e-07)
(5.77601e-18 1.92101e-18 3.90312e-07)
(-4.81624e-18 -1.73907e-15 3.79313e-07)
(-8.73746e-18 -1.38571e-18 3.68627e-07)
(2.72567e-18 7.78855e-18 3.58222e-07)
(4.56588e-18 -1.73756e-15 3.48113e-07)
(6.01436e-18 -6.44443e-18 3.38272e-07)
(-5.41501e-18 -1.95136e-18 3.28711e-07)
(-9.57313e-18 4.49778e-18 3.19406e-07)
(1.95481e-18 8.16581e-18 3.10366e-07)
(3.96867e-18 -1.73818e-15 3.01569e-07)
(5.61767e-18 -6.91783e-18 2.93025e-07)
(-5.62531e-18 -2.07974e-18 2.84714e-07)
(-9.63423e-18 4.60807e-18 2.76642e-07)
(1.99765e-18 8.34765e-18 2.68792e-07)
(4.07499e-18 -1.73804e-15 2.61171e-07)
(5.75845e-18 -6.86661e-18 2.53763e-07)
(-5.46717e-18 -2.09519e-18 2.46572e-07)
(-9.4675e-18 4.56322e-18 2.39585e-07)
(2.16847e-18 8.30267e-18 2.32805e-07)
(4.24691e-18 -1.73807e-15 2.2622e-07)
(5.92895e-18 -6.88688e-18 2.19833e-07)
(-5.30044e-18 -2.1096e-18 2.13634e-07)
(-9.3069e-18 4.54526e-18 2.07624e-07)
(2.32021e-18 8.27125e-18 2.01794e-07)
(4.38694e-18 -1.73812e-15 1.96143e-07)
(6.05583e-18 -6.93102e-18 1.90667e-07)
(-5.1836e-18 -2.0975e-18 1.85362e-07)
(-9.18936e-18 4.69044e-18 1.80224e-07)
(2.45654e-18 8.61017e-18 1.75251e-07)
(4.56157e-18 -1.7376e-15 1.70439e-07)
(6.27946e-18 -6.34041e-18 1.65784e-07)
(-4.91844e-18 -1.63108e-18 1.61283e-07)
(-8.91016e-18 4.84415e-18 1.56934e-07)
(2.71079e-18 8.36363e-18 1.52733e-07)
(4.75564e-18 -1.73818e-15 1.48677e-07)
(6.39578e-18 -7.07379e-18 1.44764e-07)
(-4.87462e-18 -2.29754e-18 1.4099e-07)
(-8.9164e-18 4.39779e-18 1.37354e-07)
(2.68277e-18 8.17175e-18 1.33852e-07)
(4.72663e-18 -1.73816e-15 1.30486e-07)
(6.38308e-18 -7.02908e-18 1.27244e-07)
(-4.89821e-18 -1.93651e-18 1.24146e-07)
(-8.83449e-18 3.25693e-18 1.21099e-07)
(2.3604e-18 1.37945e-17 1.18513e-07)
(5.98459e-18 -1.72506e-15 1.14031e-07)
(-4.85093e-17 -4.17727e-18 -0.0329209)
(-1.57845e-16 -7.03051e-18 -0.0328573)
(-1.60198e-16 -7.49655e-18 -0.0328373)
(-1.92958e-16 -8.43202e-18 -0.032878)
(-2.47423e-16 -9.06481e-18 -0.0329872)
(-2.54455e-16 -8.29401e-18 -0.0331657)
(-2.51515e-16 -6.03392e-18 -0.0334111)
(-2.48094e-16 -2.92e-17 -0.0337044)
(-1.64535e-16 1.70482e-15 -0.0340231)
(-1.98703e-16 6.85681e-18 -0.0343269)
(-3.24454e-16 -4.80375e-17 -0.034556)
(-3.31463e-16 1.688e-15 -0.034701)
(-1.83653e-16 1.72585e-17 -0.0347168)
(-5.00959e-17 4.41879e-18 -0.0345736)
(1.54158e-16 -7.47973e-19 -0.0342678)
(3.35452e-16 1.59058e-17 -0.0337986)
(4.82235e-16 4.1236e-17 -0.0331841)
(4.04994e-16 5.35002e-17 -0.0324444)
(3.93888e-16 3.61365e-17 -0.0315904)
(4.79273e-16 -9.15411e-18 -0.0306254)
(6.03855e-16 -3.70711e-17 -0.0295797)
(7.01268e-16 1.05385e-18 -0.0285726)
(4.75946e-16 8.59872e-17 -0.0278324)
(-1.45721e-16 1.26118e-16 -0.0275848)
(-7.33709e-16 4.46665e-17 -0.0278037)
(-4.78111e-16 -1.2696e-16 -0.0279898)
(7.61228e-16 -2.52635e-16 -0.0272321)
(2.21707e-15 -2.02306e-16 -0.0246483)
(2.64563e-15 7.13342e-18 -0.0199777)
(1.43682e-15 2.31049e-16 -0.013899)
(-7.44211e-16 2.06216e-15 -0.00779323)
(-2.49388e-15 -3.25644e-15 -0.00307169)
(-2.81147e-15 -1.7391e-15 -0.000504678)
(-1.77668e-15 -1.47197e-16 3.75565e-05)
(-2.63871e-16 -1.90218e-15 -0.000660705)
(7.5206e-16 1.66233e-15 -0.00167151)
(9.16316e-16 2.80239e-17 -0.00235419)
(4.57637e-16 -1.68178e-15 -0.00250306)
(-1.33811e-16 2.50465e-17 -0.00223603)
(-4.73637e-16 -1.76076e-15 -0.0017845)
(-5.08468e-16 1.69695e-15 -0.001334)
(-3.4966e-16 -2.67405e-17 -0.000970485)
(-1.68311e-16 -1.75514e-15 -0.000703438)
(-5.61032e-17 -9.36218e-18 -0.000510794)
(2.06469e-18 -1.7432e-15 -0.000369494)
(1.74329e-17 1.74439e-15 -0.000264961)
(2.42968e-17 2.04455e-17 -0.000188781)
(1.74139e-17 -1.72829e-15 -0.000134649)
(-5.84612e-18 8.07552e-18 -9.67292e-05)
(-1.07195e-17 -1.73172e-15 -6.99498e-05)
(2.25409e-17 -1.74005e-15 -5.058e-05)
(3.45123e-17 -6.8913e-19 -3.62598e-05)
(1.29495e-17 -1.73565e-15 -2.55919e-05)
(1.0101e-17 5.80607e-18 -1.76879e-05)
(4.53805e-18 -1.73234e-15 -1.18901e-05)
(2.59898e-17 -1.74026e-15 -7.66895e-06)
(3.4139e-17 -8.4778e-19 -4.60427e-06)
(1.05116e-17 -1.736e-15 -2.37973e-06)
(6.73542e-18 5.28073e-18 -7.66516e-07)
(8.88141e-19 -1.73293e-15 3.98812e-07)
(2.32865e-17 -1.74032e-15 1.2344e-06)
(2.7385e-17 -2.09653e-18 1.82693e-06)
(2.32142e-17 -1.72968e-15 2.24063e-06)
(3.75673e-17 4.7195e-18 2.52305e-06)
(1.22851e-17 -3.48555e-15 2.7093e-06)
(1.91381e-17 1.73004e-15 2.8252e-06)
(2.03961e-17 1.04383e-17 2.88973e-06)
(1.61206e-17 -1.72739e-15 2.91687e-06)
(3.09004e-17 4.71421e-18 2.91689e-06)
(6.1013e-18 -3.48594e-15 2.89733e-06)
(1.33936e-17 1.72961e-15 2.86374e-06)
(1.50058e-17 9.90364e-18 2.82021e-06)
(1.09268e-17 -1.72818e-15 2.76971e-06)
(2.56537e-17 3.63121e-18 2.71447e-06)
(5.00619e-19 -3.4872e-15 2.65609e-06)
(7.19355e-18 1.72844e-15 2.59577e-06)
(8.14886e-18 9.13836e-18 2.53437e-06)
(3.6266e-18 -1.72832e-15 2.47256e-06)
(1.83732e-17 4.14572e-18 2.41078e-06)
(-6.18054e-18 -3.48621e-15 2.34942e-06)
(1.62033e-18 1.72961e-15 2.2887e-06)
(3.96239e-18 1.02146e-17 2.22884e-06)
(8.07934e-19 -1.72752e-15 2.16995e-06)
(1.66426e-17 4.58697e-18 2.11215e-06)
(-7.26132e-18 -3.4861e-15 2.05549e-06)
(7.21741e-19 1.72947e-15 2.00005e-06)
(2.8213e-18 9.92925e-18 1.94582e-06)
(-7.11636e-19 -1.72773e-15 1.89286e-06)
(1.41183e-17 4.2873e-18 1.84114e-06)
(-7.81248e-18 -3.48513e-15 1.7907e-06)
(-1.16528e-17 1.72657e-15 1.74149e-06)
(-8.32181e-18 9.89789e-19 1.69355e-06)
(-2.05639e-17 -4.43678e-18 1.64682e-06)
(-9.27308e-18 1.73568e-15 1.60132e-06)
(-5.52142e-18 5.51281e-19 1.557e-06)
(-4.26363e-18 1.74174e-15 1.51387e-06)
(-9.9394e-19 3.04686e-18 1.47186e-06)
(-1.44324e-17 -5.19627e-18 1.43101e-06)
(-4.42288e-18 1.73457e-15 1.39123e-06)
(-1.76612e-18 -3.84602e-19 1.35255e-06)
(-1.36448e-18 1.74102e-15 1.3149e-06)
(1.26765e-18 2.49165e-18 1.27829e-06)
(-1.26346e-17 -5.63773e-18 1.24266e-06)
(-2.9621e-18 1.73421e-15 1.20801e-06)
(-5.53882e-19 -6.77858e-19 1.1743e-06)
(-3.39241e-19 1.74078e-15 1.14153e-06)
(2.15018e-18 2.2928e-18 1.10963e-06)
(-1.18623e-17 -5.80229e-18 1.07862e-06)
(-2.27746e-18 1.73407e-15 1.04844e-06)
(5.6191e-20 -7.93624e-19 1.0191e-06)
(2.02698e-19 1.74067e-15 9.90543e-07)
(2.63388e-18 2.16302e-18 9.62781e-07)
(-1.14059e-17 -5.94835e-18 9.35763e-07)
(-1.77848e-18 1.73396e-15 9.09494e-07)
(7.06647e-19 -7.46131e-19 8.83931e-07)
(1.13029e-18 1.741e-15 8.59076e-07)
(3.89607e-18 2.90812e-18 8.3489e-07)
(-9.731e-18 -5.15666e-18 8.11375e-07)
(-3.48648e-19 1.73586e-15 7.88494e-07)
(4.20293e-18 -4.47731e-18 7.6625e-07)
(-6.39675e-18 1.73327e-15 7.44608e-07)
(-7.77269e-18 1.74057e-15 7.2357e-07)
(-1.00415e-17 8.12869e-19 7.03105e-07)
(1.45318e-18 1.73612e-15 6.83214e-07)
(6.08269e-18 -5.28564e-18 6.63868e-07)
(-4.7524e-18 1.7326e-15 6.45068e-07)
(-6.32749e-18 1.74027e-15 6.26789e-07)
(-8.74027e-18 7.96586e-19 6.09028e-07)
(2.62956e-18 1.73622e-15 5.91765e-07)
(7.13265e-18 -5.19868e-18 5.74997e-07)
(-3.83016e-18 1.73263e-15 5.58703e-07)
(-5.52447e-18 1.74024e-15 5.42881e-07)
(-8.03973e-18 7.45407e-19 5.27514e-07)
(3.24682e-18 1.73617e-15 5.12597e-07)
(7.68356e-18 -5.23108e-18 4.98115e-07)
(-3.33282e-18 1.73261e-15 4.84064e-07)
(-5.07202e-18 1.74023e-15 4.70429e-07)
(-7.6272e-18 7.34937e-19 4.57206e-07)
(3.62084e-18 1.73615e-15 4.44383e-07)
(8.018e-18 -5.26613e-18 4.31953e-07)
(-3.03766e-18 1.73258e-15 4.19907e-07)
(-4.80724e-18 1.74025e-15 4.08238e-07)
(-7.36819e-18 8.7037e-19 3.96937e-07)
(3.91481e-18 1.73646e-15 3.85998e-07)
(8.39192e-18 -4.78781e-18 3.75412e-07)
(-2.55661e-18 1.73312e-15 3.65173e-07)
(-4.23088e-18 1.74069e-15 3.55274e-07)
(-6.75319e-18 1.02954e-18 3.45706e-07)
(4.48375e-18 1.73625e-15 3.36466e-07)
(8.83499e-18 -5.30182e-18 3.27545e-07)
(-2.28277e-18 1.73246e-15 3.18938e-07)
(-4.11956e-18 1.74008e-15 3.10637e-07)
(-6.75796e-18 6.19094e-19 3.0264e-07)
(4.42525e-18 1.73607e-15 2.94938e-07)
(8.76863e-18 -5.2905e-18 2.8753e-07)
(-2.30549e-18 1.73251e-15 2.80398e-07)
(-4.21829e-18 1.7404e-15 2.7358e-07)
(-6.32476e-18 -3.72371e-19 2.6688e-07)
(2.28399e-18 1.74111e-15 2.61186e-07)
(1.95819e-17 7.85046e-18 2.51291e-07)
(-1.33341e-18 -6.60124e-20 -0.0545722)
(-1.71659e-17 -4.01089e-20 -0.0544657)
(-3.27201e-17 2.6415e-20 -0.0544289)
(-5.33714e-17 1.00368e-18 -0.0544895)
(-7.40127e-17 -1.52729e-19 -0.0546594)
(-8.21082e-17 2.7338e-18 -0.0549395)
(-1.95248e-16 9.33541e-18 -0.0553252)
(2.07906e-17 -1.68662e-17 -0.0557827)
(1.23905e-17 -1.41884e-17 -0.0562747)
(-9.61195e-16 7.58362e-17 -0.056729)
(-9.46104e-16 7.85174e-17 -0.0570365)
(1.44052e-15 -6.7349e-17 -0.0571895)
(3.4268e-15 -1.53338e-16 -0.0570991)
(2.95098e-15 -1.02568e-16 -0.0567069)
(1.21204e-15 -3.85839e-17 -0.0560112)
(-1.56616e-16 -5.15247e-18 -0.0550158)
(-5.89757e-16 4.45125e-17 -0.0537591)
(-3.3732e-16 8.93444e-17 -0.0522861)
(-3.5105e-18 4.86734e-17 -0.0506295)
(3.38581e-17 -8.94349e-17 -0.0488074)
(-2.12261e-16 -1.67463e-16 -0.0468759)
(-7.39023e-16 1.30713e-17 -0.0450322)
(-1.77377e-15 3.93195e-16 -0.0436602)
(-3.10585e-15 5.60459e-16 -0.0431612)
(-3.38021e-15 1.15134e-16 -0.0435428)
(-9.21215e-16 -7.94071e-16 -0.0440278)
(4.04076e-15 -1.40671e-15 -0.0431107)
(8.29053e-15 -9.96829e-16 -0.0392551)
(7.76336e-15 3.50097e-16 -0.0318904)
(1.37132e-15 1.68223e-15 -0.0220004)
(-7.38531e-15 1.98875e-15 -0.011804)
(-1.2915e-14 1.07261e-15 -0.00367669)
(-1.18908e-14 -3.37507e-16 0.000983113)
(-5.51624e-15 -1.26602e-15 0.00224623)
(1.90625e-15 -1.25992e-15 0.00130675)
(6.35686e-15 -5.84051e-16 -0.000335886)
(6.51514e-15 1.53597e-16 -0.00159968)
(3.73072e-15 5.09894e-16 -0.0020934)
(3.29407e-16 4.37378e-16 -0.00195867)
(-2.01875e-15 1.58698e-16 -0.00153564)
(-2.85402e-15 -8.15139e-17 -0.00110099)
(-2.54549e-15 -1.76731e-16 -0.000776439)
(-1.69375e-15 -1.54909e-16 -0.000565251)
(-7.79083e-16 -8.87789e-17 -0.000426184)
(-8.09448e-17 -3.18747e-17 -0.000323631)
(2.92126e-16 1.51387e-18 -0.000241384)
(3.68351e-16 1.62273e-17 -0.000175807)
(2.6097e-16 1.76016e-17 -0.00012625)
(1.0189e-16 1.45317e-17 -9.06073e-05)
(-1.42425e-17 3.21556e-18 -6.54276e-05)
(-5.53857e-17 -5.8158e-18 -4.73811e-05)
(-4.31992e-17 1.73716e-15 -3.41089e-05)
(-1.52155e-17 4.68733e-18 -2.42006e-05)
(6.02223e-18 1.30398e-18 -1.68146e-05)
(1.31138e-17 -3.87737e-18 -1.13637e-05)
(1.31323e-17 -7.34534e-18 -7.37791e-06)
(1.19293e-17 1.73832e-15 -4.4768e-06)
(1.05379e-17 5.98813e-18 -2.36779e-06)
(1.04646e-17 1.76165e-18 -8.36622e-07)
(9.62822e-18 -4.29472e-18 2.70735e-07)
(1.00864e-17 -6.656e-18 1.06582e-06)
(1.08644e-17 1.73403e-15 1.6306e-06)
(1.1017e-17 -3.20635e-19 2.02581e-06)
(1.20725e-17 1.74181e-15 2.29645e-06)
(1.15466e-17 1.93673e-18 2.47576e-06)
(1.18227e-17 -6.98317e-18 2.5882e-06)
(1.18779e-17 1.73352e-15 2.65179e-06)
(1.13083e-17 -5.29833e-19 2.6798e-06)
(1.17746e-17 1.74181e-15 2.68197e-06)
(1.07875e-17 2.04902e-18 2.6655e-06)
(1.07006e-17 -6.88026e-18 2.63565e-06)
(1.04387e-17 1.73348e-15 2.59631e-06)
(9.50246e-18 -8.2161e-19 2.55032e-06)
(9.43931e-18 1.74128e-15 2.49978e-06)
(7.69483e-18 1.41621e-18 2.44622e-06)
(6.66963e-18 -7.40145e-18 2.39079e-06)
(5.4681e-18 1.73326e-15 2.33432e-06)
(3.85215e-18 -6.44099e-19 2.27741e-06)
(3.60619e-18 1.74177e-15 2.22052e-06)
(2.28087e-18 2.04347e-18 2.16398e-06)
(2.19814e-18 -6.83914e-18 2.10804e-06)
(2.23026e-18 1.73363e-15 2.05287e-06)
(1.84524e-18 -4.86188e-19 1.9986e-06)
(2.57402e-18 1.74177e-15 1.94533e-06)
(1.82027e-18 1.95142e-18 1.89312e-06)
(1.8833e-18 -6.93791e-18 1.84202e-06)
(1.6977e-18 1.73353e-15 1.79206e-06)
(9.13862e-19 -2.63149e-19 1.74325e-06)
(1.058e-18 1.74102e-15 1.69561e-06)
(2.91042e-19 6.7931e-18 1.64913e-06)
(-5.58707e-19 -3.56491e-19 1.6038e-06)
(-1.52277e-18 -1.63115e-18 1.55963e-06)
(-3.09634e-18 -2.26177e-18 1.5166e-06)
(-4.23473e-18 -2.10893e-18 1.47468e-06)
(-4.42256e-18 -1.98402e-18 1.43386e-06)
(-4.06613e-18 -1.12118e-18 1.39413e-06)
(-3.89468e-18 -3.70655e-19 1.35545e-06)
(-4.60092e-18 -6.78769e-19 1.31782e-06)
(-5.12362e-18 -6.38448e-19 1.28119e-06)
(-4.873e-18 -7.31457e-19 1.24556e-06)
(-4.18864e-18 -1.09423e-19 1.2109e-06)
(-3.75899e-18 4.10445e-19 1.17718e-06)
(-4.258e-18 -9.61492e-20 1.14438e-06)
(-4.61772e-18 -2.11793e-19 1.11247e-06)
(-4.24498e-18 -4.20562e-19 1.08143e-06)
(-3.4751e-18 1.16551e-19 1.05125e-06)
(-2.99069e-18 5.73455e-19 1.02188e-06)
(-3.45989e-18 2.12546e-20 9.93322e-07)
(-3.81095e-18 -1.25399e-19 9.65541e-07)
(-3.44974e-18 -3.57905e-19 9.38518e-07)
(-2.71006e-18 1.48002e-19 9.12233e-07)
(-2.26414e-18 5.52996e-19 8.86665e-07)
(-2.75183e-18 -6.32264e-20 8.61795e-07)
(-3.05385e-18 -2.40633e-19 8.37603e-07)
(-2.52561e-18 -3.99216e-19 8.14072e-07)
(-1.47776e-18 3.26298e-19 7.91183e-07)
(-6.26844e-19 1.08204e-18 7.6892e-07)
(-6.99855e-19 7.3665e-19 7.47265e-07)
(-8.00459e-19 8.21583e-19 7.26204e-07)
(-1.3664e-19 1.91089e-19 7.0572e-07)
(2.70671e-19 -4.5662e-19 6.858e-07)
(-1.21764e-19 -1.29001e-19 6.66427e-07)
(-9.19728e-19 -1.15159e-19 6.4759e-07)
(-1.39529e-18 1.03738e-19 6.29275e-07)
(-8.62642e-19 -3.51418e-19 6.11469e-07)
(-4.00578e-19 -7.1274e-19 5.94158e-07)
(-6.22919e-19 -8.5806e-20 5.77334e-07)
(-1.21511e-18 1.29544e-19 5.60982e-07)
(-1.51123e-18 4.11191e-19 5.45092e-07)
(-8.54215e-19 -8.84242e-20 5.29654e-07)
(-3.2147e-19 -5.38052e-19 5.14658e-07)
(-5.0983e-19 9.59712e-21 5.00092e-07)
(-1.08629e-18 1.7758e-19 4.85948e-07)
(-1.37263e-18 4.41022e-19 4.72216e-07)
(-7.06589e-19 -6.10173e-20 4.58888e-07)
(-1.64953e-19 -5.09091e-19 4.45953e-07)
(-3.45889e-19 3.75873e-20 4.33404e-07)
(-9.18393e-19 1.98834e-19 4.21233e-07)
(-1.20638e-18 4.48651e-19 4.09431e-07)
(-5.48908e-19 -6.90666e-20 3.97991e-07)
(-2.08879e-20 -5.184e-19 3.86904e-07)
(-2.12633e-19 6.77704e-20 3.76164e-07)
(-7.7918e-19 3.29417e-19 3.65764e-07)
(-1.02971e-18 7.30116e-19 3.55696e-07)
(-2.97744e-19 3.59356e-19 3.45954e-07)
(3.29071e-19 -2.90131e-20 3.3653e-07)
(2.29177e-19 4.67213e-19 3.2742e-07)
(-2.90271e-19 4.86835e-19 3.18616e-07)
(-5.64065e-19 5.69538e-19 3.10112e-07)
(7.51897e-20 -7.60718e-20 3.01902e-07)
(5.67896e-19 -5.96513e-19 2.93982e-07)
(3.33745e-19 -5.99444e-20 2.86344e-07)
(-2.85245e-19 1.25381e-19 2.78984e-07)
(-6.08911e-19 4.08456e-19 2.71896e-07)
(2.32329e-20 -7.49689e-20 2.65077e-07)
(5.34574e-19 -5.35622e-19 2.58514e-07)
(3.17023e-19 7.31253e-20 2.52237e-07)
(-2.62452e-19 5.7911e-21 2.46076e-07)
(-6.83504e-19 8.41185e-19 2.4081e-07)
(3.66773e-19 1.0136e-18 2.31598e-07)
(-4.4118e-17 5.07238e-18 -0.0757649)
(-1.5043e-16 8.66282e-18 -0.0756143)
(-1.29679e-16 1.06062e-17 -0.0755571)
(-1.70063e-16 1.22143e-17 -0.0756324)
(-7.3593e-17 5.30359e-18 -0.0758578)
(-3.53946e-16 5.23236e-17 -0.076236)
(-4.45186e-17 -5.74834e-17 -0.0767625)
(9.22068e-16 -1.33019e-16 -0.07739)
(-2.86753e-15 2.19581e-15 -0.0780709)
(-1.59282e-15 4.86104e-16 -0.0786984)
(1.02996e-14 -2.98362e-15 -0.0791083)
(1.56737e-14 -4.98456e-16 -0.0793219)
(3.30872e-15 -7.37973e-16 -0.0791995)
(-1.32264e-14 1.1118e-15 -0.0786516)
(-2.23046e-14 1.55305e-15 -0.07767)
(-2.52892e-14 9.16802e-16 -0.0762584)
(-2.20773e-14 1.31588e-16 -0.0744737)
(-1.42899e-14 -2.39623e-16 -0.0723777)
(-6.30771e-15 -1.49452e-16 -0.0700168)
(-3.47915e-15 9.5221e-17 -0.0674175)
(-7.48638e-15 3.49369e-16 -0.0646549)
(-1.46481e-14 7.81806e-16 -0.0619967)
(-1.8836e-14 1.2694e-15 -0.0599751)
(-1.53971e-14 9.29339e-16 -0.0591641)
(-3.89028e-15 -1.04765e-15 -0.0596111)
(1.07876e-14 -3.83744e-15 -0.0602756)
(1.95105e-14 -4.85851e-15 -0.0590768)
(1.37785e-14 -2.0636e-15 -0.0538426)
(-6.63013e-15 3.46674e-15 -0.0437045)
(-3.09266e-14 7.80538e-15 -0.0299546)
(-4.3913e-14 9.20534e-15 -0.0156431)
(-3.68273e-14 7.3102e-16 -0.00409679)
(-1.30907e-14 -5.43849e-15 0.00267222)
(1.5246e-14 -7.04572e-15 0.00468428)
(3.5868e-14 -7.83873e-15 0.003542)
(4.2691e-14 -6.42109e-16 0.00130652)
(3.70734e-14 1.34109e-15 -0.0005113)
(2.42638e-14 1.41109e-15 -0.00134332)
(9.50629e-15 2.89978e-15 -0.00135642)
(-3.56871e-15 -1.69051e-16 -0.000994606)
(-1.26605e-14 1.96032e-15 -0.000617754)
(-1.63343e-14 -6.06875e-16 -0.000375929)
(-1.4572e-14 -2.63834e-15 -0.00026117)
(-9.14179e-15 -8.15765e-16 -0.000210773)
(-2.94677e-15 -2.27881e-15 -0.000176139)
(1.45453e-15 1.51975e-15 -0.000139885)
(3.09608e-15 3.60235e-17 -0.000103865)
(2.56758e-15 -1.59506e-15 -7.379e-05)
(1.18289e-15 1.45682e-16 -5.19404e-05)
(5.79246e-17 -1.65308e-15 -3.70962e-05)
(-4.0195e-16 -1.72556e-15 -2.6901e-05)
(-3.75282e-16 -2.07743e-17 -1.95078e-05)
(-1.64763e-16 -1.76027e-15 -1.39196e-05)
(8.04784e-18 -8.35858e-18 -9.67519e-06)
(5.89389e-17 -1.7359e-15 -6.50659e-06)
(5.91526e-17 -1.73967e-15 -4.18432e-06)
(3.12156e-17 4.49383e-19 -2.49836e-06)
(1.08451e-17 -1.73527e-15 -1.27625e-06)
(6.98614e-18 5.73559e-18 -3.90072e-07)
(-4.69204e-18 -1.73274e-15 2.50762e-07)
(6.82457e-18 -1.74093e-15 7.10816e-07)
(9.09077e-18 -2.56182e-18 1.03728e-06)
(8.29434e-18 -1.73028e-15 1.2652e-06)
(7.33263e-18 4.45468e-18 1.42068e-06)
(3.93349e-18 -3.48542e-15 1.52302e-06)
(1.53988e-17 1.72987e-15 1.58648e-06)
(4.83153e-18 1.06955e-17 1.62152e-06)
(2.29066e-18 -1.72734e-15 1.63586e-06)
(2.23803e-18 4.97462e-18 1.6352e-06)
(3.87609e-20 -3.4854e-15 1.62371e-06)
(1.24591e-17 1.72979e-15 1.60446e-06)
(2.57261e-18 1.05027e-17 1.57971e-06)
(4.62952e-19 -1.72768e-15 1.55113e-06)
(5.92628e-19 4.53502e-18 1.51993e-06)
(-1.66413e-18 -3.48582e-15 1.48701e-06)
(1.05194e-17 1.72955e-15 1.45304e-06)
(3.40278e-19 1.05471e-17 1.41849e-06)
(-1.96726e-18 -1.72739e-15 1.38373e-06)
(-1.81797e-18 4.93136e-18 1.34901e-06)
(-3.79094e-18 -3.48551e-15 1.31454e-06)
(8.89456e-18 1.72964e-15 1.28045e-06)
(-6.79071e-19 1.03911e-17 1.24684e-06)
(-2.41301e-18 -1.72769e-15 1.2138e-06)
(-1.8286e-18 4.59946e-18 1.18138e-06)
(-3.55622e-18 -3.48576e-15 1.14961e-06)
(9.19668e-18 1.72953e-15 1.11852e-06)
(-4.65092e-19 1.0414e-17 1.08813e-06)
(-2.26083e-18 -1.72741e-15 1.05845e-06)
(-2.26086e-18 4.59871e-18 1.02948e-06)
(-1.96358e-18 -3.48432e-15 1.00122e-06)
(-2.41443e-19 1.72747e-15 9.7367e-07)
(-1.18299e-17 2.2586e-18 9.46821e-07)
(-1.27559e-17 -3.0808e-18 9.20662e-07)
(-1.44766e-17 1.73634e-15 8.95188e-07)
(-3.02254e-18 4.66983e-19 8.70383e-07)
(1.22448e-18 1.74147e-15 8.4624e-07)
(-9.69307e-18 3.31426e-18 8.2274e-07)
(-1.04163e-17 -4.5818e-18 7.99875e-07)
(-1.21049e-17 1.7347e-15 7.77626e-07)
(-7.05616e-19 -8.52092e-19 7.55982e-07)
(3.43848e-18 1.74046e-15 7.34924e-07)
(-7.60578e-18 2.52633e-18 7.14444e-07)
(-8.46411e-18 -5.20836e-18 6.94519e-07)
(-1.02877e-17 1.7342e-15 6.75143e-07)
(9.79646e-19 -1.24917e-18 6.56293e-07)
(4.9957e-18 1.74015e-15 6.37962e-07)
(-6.17281e-18 2.28519e-18 6.20129e-07)
(-7.15161e-18 -5.39216e-18 6.02787e-07)
(-9.09213e-18 1.73407e-15 5.85917e-07)
(2.06082e-18 -1.34407e-18 5.6951e-07)
(5.96451e-18 1.74007e-15 5.5355e-07)
(-5.30918e-18 2.1839e-18 5.38028e-07)
(-6.36887e-18 -5.5535e-18 5.22928e-07)
(-8.33501e-18 1.73385e-15 5.08242e-07)
(2.88389e-18 -1.53418e-18 4.93956e-07)
(6.96601e-18 1.74005e-15 4.80063e-07)
(-4.03544e-18 2.51917e-18 4.66548e-07)
(-4.79785e-18 -5.06986e-18 4.53404e-07)
(-6.54579e-18 1.73558e-15 4.4062e-07)
(4.71447e-18 -5.01287e-18 4.28188e-07)
(8.61481e-18 1.73326e-15 4.16096e-07)
(-2.76213e-18 1.74116e-15 4.04339e-07)
(-3.99708e-18 1.44963e-18 3.92906e-07)
(-6.1934e-18 1.73609e-15 3.81791e-07)
(4.73739e-18 -5.783e-18 3.70985e-07)
(8.46365e-18 1.73248e-15 3.60481e-07)
(-2.95383e-18 1.74068e-15 3.5027e-07)
(-4.15069e-18 1.24074e-18 3.40348e-07)
(-6.28668e-18 1.73604e-15 3.30706e-07)
(4.69022e-18 -5.79356e-18 3.21339e-07)
(8.43666e-18 1.73246e-15 3.12239e-07)
(-2.98113e-18 1.74062e-15 3.03401e-07)
(-4.18728e-18 1.17681e-18 2.9482e-07)
(-6.33199e-18 1.73598e-15 2.86488e-07)
(4.6414e-18 -5.83492e-18 2.78402e-07)
(8.38997e-18 1.73243e-15 2.70554e-07)
(-3.02192e-18 1.74061e-15 2.62941e-07)
(-4.22106e-18 1.16518e-18 2.55557e-07)
(-6.36025e-18 1.73596e-15 2.48398e-07)
(4.61544e-18 -5.85887e-18 2.41457e-07)
(8.36334e-18 1.73241e-15 2.34732e-07)
(-3.04913e-18 1.74063e-15 2.28217e-07)
(-4.24305e-18 1.27891e-18 2.21908e-07)
(-6.36517e-18 1.73622e-15 2.15801e-07)
(4.64204e-18 -5.4672e-18 2.09891e-07)
(8.43175e-18 1.73286e-15 2.04175e-07)
(-2.93967e-18 1.741e-15 1.98649e-07)
(-4.10697e-18 1.42616e-18 1.93309e-07)
(-6.22664e-18 1.73607e-15 1.88151e-07)
(4.75815e-18 -5.8678e-18 1.83172e-07)
(8.50931e-18 1.73234e-15 1.78368e-07)
(-2.9032e-18 1.74051e-15 1.73736e-07)
(-4.10204e-18 1.09042e-18 1.69272e-07)
(-6.23907e-18 1.73592e-15 1.64973e-07)
(4.74589e-18 -5.86224e-18 1.60837e-07)
(8.48505e-18 1.73236e-15 1.56857e-07)
(-2.83693e-18 1.74079e-15 1.53048e-07)
(-4.45232e-18 1.27892e-19 1.49322e-07)
(-4.46997e-18 1.74079e-15 1.46079e-07)
(-4.14549e-18 7.32532e-18 1.40338e-07)
(4.96163e-17 1.83193e-15 -0.0962603)
(1.85255e-16 1.77746e-15 -0.0960639)
(1.62671e-16 9.84274e-18 -0.0959801)
(1.98957e-16 1.70768e-15 -0.0960593)
(6.00191e-16 1.82651e-15 -0.0963258)
(-1.2352e-15 1.72292e-15 -0.0967856)
(5.38721e-15 -6.28671e-16 -0.097436)
(-7.92827e-15 1.42174e-15 -0.0982163)
(-1.02075e-14 1.24326e-15 -0.0990745)
(5.21926e-14 -8.26958e-15 -0.0998621)
(4.53647e-14 -8.52765e-15 -0.100346)
(-1.14122e-13 3.42811e-15 -0.100624)
(-2.75387e-13 1.42696e-14 -0.100476)
(-2.87841e-13 1.27041e-14 -0.0997742)
(-2.07249e-13 5.99283e-15 -0.0985418)
(-1.34608e-13 1.61592e-15 -0.0967786)
(-8.37773e-14 -3.72041e-15 -0.0945523)
(-4.15028e-14 -7.79544e-15 -0.0919336)
(-7.26951e-15 -3.62199e-15 -0.0889766)
(3.72237e-15 2.23462e-15 -0.0857123)
(-1.81103e-14 5.41699e-15 -0.0822272)
(-5.43787e-14 5.68788e-15 -0.078846)
(-6.42682e-14 7.67736e-16 -0.0762343)
(-1.89187e-14 -6.9124e-15 -0.0751295)
(6.36966e-14 -1.29773e-14 -0.0756231)
(1.18087e-13 -1.42292e-14 -0.0764317)
(7.85423e-14 -2.90213e-15 -0.0749295)
(-5.52313e-14 1.20735e-14 -0.0683339)
(-1.96881e-13 2.27027e-14 -0.0554865)
(-2.33579e-13 2.0322e-14 -0.0379758)
(-1.22238e-13 3.20604e-15 -0.0196576)
(7.33592e-14 -1.60699e-14 -0.00478425)
(2.40383e-13 -2.63758e-14 0.00403617)
(3.07079e-13 -2.74801e-14 0.00677812)
(2.81795e-13 -1.67189e-14 0.00544604)
(2.21809e-13 -2.92313e-15 0.00264992)
(1.7446e-13 7.63503e-15 0.000316831)
(1.44413e-13 1.42934e-14 -0.000816198)
(1.06914e-13 1.26185e-14 -0.000943709)
(4.41854e-14 9.50694e-15 -0.000612467)
(-3.2063e-14 4.56615e-15 -0.000264045)
(-9.00989e-14 -9.55201e-16 -7.6668e-05)
(-1.05478e-13 -3.75118e-15 -3.24047e-05)
(-7.93032e-14 -7.63624e-15 -4.87259e-05)
(-3.44259e-14 -7.06471e-15 -6.50459e-05)
(3.34453e-15 -4.75458e-15 -6.27658e-05)
(2.07433e-14 -2.27513e-15 -4.83631e-05)
(1.97121e-14 9.74197e-16 -3.2723e-05)
(1.0245e-14 -4.65337e-16 -2.143e-05)
(1.46026e-15 -9.39088e-16 -1.47322e-05)
(-2.75954e-15 2.10814e-16 -1.08048e-05)
(-2.97291e-15 3.35328e-15 -8.09462e-06)
(-1.51616e-15 -1.86978e-16 -5.91739e-06)
(-2.19528e-16 1.62418e-15 -4.13504e-06)
(3.44383e-16 -2.9433e-17 -2.75179e-06)
(3.16144e-16 6.52292e-18 -1.73489e-06)
(1.2319e-16 3.4972e-15 -1.00702e-06)
(-2.55311e-18 1.81029e-17 -4.86485e-07)
(-4.60418e-17 1.74426e-15 -1.10914e-07)
(-1.96688e-17 -4.21476e-18 1.61091e-07)
(-2.05443e-17 -1.35457e-17 3.56896e-07)
(-1.33762e-17 3.46802e-15 4.95911e-07)
(-1.06175e-17 5.58431e-19 5.92714e-07)
(-1.26442e-17 3.47871e-15 6.58376e-07)
(-7.55494e-18 -2.09596e-18 7.01198e-07)
(-3.22579e-17 1.72729e-15 7.27317e-07)
(-1.14108e-17 3.4748e-15 7.41246e-07)
(-5.58754e-18 7.66917e-19 7.46302e-07)
(-5.79104e-18 3.47766e-15 7.44926e-07)
(-4.52975e-20 -3.06148e-18 7.38914e-07)
(-2.5213e-17 1.72658e-15 7.29584e-07)
(-5.33005e-18 3.4742e-15 7.17912e-07)
(-4.58373e-19 1.68378e-19 7.04606e-07)
(-1.41334e-18 3.47706e-15 6.90198e-07)
(3.78244e-18 -3.54718e-18 6.75068e-07)
(-2.178e-17 1.72632e-15 6.59505e-07)
(-2.17798e-18 3.47423e-15 6.43714e-07)
(2.4792e-18 4.35024e-19 6.27853e-07)
(1.31595e-18 3.47741e-15 6.12031e-07)
(6.25441e-18 -3.3128e-18 5.96335e-07)
(-1.96413e-17 1.72633e-15 5.80821e-07)
(-4.3137e-19 3.47401e-15 5.6554e-07)
(3.82627e-18 8.85741e-20 5.50518e-07)
(2.31774e-18 3.47706e-15 5.35784e-07)
(7.01323e-18 -3.56122e-18 5.21349e-07)
(-1.90058e-17 1.72624e-15 5.07229e-07)
(2.00344e-19 3.47399e-15 4.93426e-07)
(4.50151e-18 6.34733e-19 4.7995e-07)
(3.22885e-18 3.47559e-15 4.66795e-07)
(7.44189e-18 5.78339e-18 4.53968e-07)
(-1.60221e-17 1.7393e-15 4.4146e-07)
(-7.66175e-18 4.62608e-18 4.29275e-07)
(-1.84738e-18 -9.38425e-19 4.17402e-07)
(-1.10401e-17 -6.97561e-18 4.05843e-07)
(-1.0774e-17 -9.83454e-18 3.94586e-07)
(-1.10261e-17 1.73694e-15 3.83632e-07)
(8.82969e-19 5.44975e-18 3.72969e-07)
(5.85648e-18 5.27121e-19 3.62596e-07)
(-4.86958e-18 -5.4938e-18 3.52502e-07)
(-6.00687e-18 -8.50312e-18 3.42684e-07)
(-7.40223e-18 1.73806e-15 3.33131e-07)
(3.60407e-18 6.36174e-18 3.23842e-07)
(7.87473e-18 1.24483e-18 3.14805e-07)
(-3.39204e-18 -4.93367e-18 3.06017e-07)
(-4.94094e-18 -8.06228e-18 2.97467e-07)
(-6.64801e-18 1.73842e-15 2.89154e-07)
(4.12179e-18 6.64711e-18 2.81066e-07)
(8.21193e-18 1.48091e-18 2.73203e-07)
(-3.19344e-18 -4.73161e-18 2.65552e-07)
(-4.84886e-18 -7.88623e-18 2.58113e-07)
(-6.63741e-18 1.73856e-15 2.50875e-07)
(4.07079e-18 6.71969e-18 2.43837e-07)
(8.11658e-18 1.44969e-18 2.3699e-07)
(-3.31402e-18 -4.86701e-18 2.30332e-07)
(-4.96697e-18 -8.04973e-18 2.23854e-07)
(-6.71347e-18 1.73851e-15 2.17556e-07)
(4.09142e-18 6.96397e-18 2.11428e-07)
(8.26713e-18 1.99183e-18 2.0547e-07)
(-2.95177e-18 -3.93457e-18 1.99673e-07)
(-4.60546e-18 -7.38921e-18 1.94038e-07)