/*--------------------------------*- C++ -*----------------------------------*\
  =========                 |
  \\      /  F ield         | OpenFOAM: The Open Source CFD Toolbox
   \\    /   O peration     | Website:  https://openfoam.org
    \\  /    A nd           | Version:  11
     \\/     M anipulation  |
\*---------------------------------------------------------------------------*/
FoamFile
{
    format      ascii;
    class       volScalarField;
    location    "2.303043";
    object      p;
}
// * * * * * * * * * * * * * * * * * * * * * * * * * * * * * * * * * * * * * //

dimensions      [0 2 -2 0 0 0 0];

internalField   nonuniform List<scalar> 
7132
(
0.0514632
0.0500297
0.0451939
0.0381173
0.0282092
0.0151574
-0.00113704
-0.0206973
-0.0430222
-0.0671681
-0.091691
-0.114628
-0.134682
-0.150599
-0.161352
-0.166365
-0.165488
-0.159136
-0.14827
-0.134226
-0.118448
-0.102241
-0.0866178
-0.0722537
-0.0595162
-0.0485328
-0.0392662
-0.0315796
-0.0252871
-0.0201878
-0.0160866
-0.0128063
-0.0101924
-0.00811432
-0.00646403
-0.00515361
-0.00411231
-0.00328348
-0.00262191
-0.00209156
-0.00166413
-0.00131798
-0.00103724
-0.0008104
-0.000628646
-0.000484458
-0.000371027
-0.000282386
-0.00021363
-0.000160844
-0.000120802
-9.07287e-05
-6.82439e-05
-5.14025e-05
-3.8714e-05
-2.90967e-05
-2.17857e-05
-1.62349e-05
-1.20391e-05
-8.88676e-06
-6.53251e-06
-4.78332e-06
-3.48846e-06
-2.53219e-06
-1.82661e-06
-1.30614e-06
-9.22054e-07
-6.38611e-07
-4.29399e-07
-2.7511e-07
-1.61355e-07
-7.76251e-08
-1.60231e-08
2.91645e-08
6.22597e-08
8.63384e-08
1.03764e-07
1.16185e-07
1.24905e-07
1.30805e-07
1.34619e-07
1.36815e-07
1.37813e-07
1.37862e-07
1.3721e-07
1.35987e-07
1.34347e-07
1.32357e-07
1.30114e-07
1.27655e-07
1.25046e-07
1.22303e-07
1.19475e-07
1.16568e-07
1.1362e-07
1.1063e-07
1.07629e-07
1.04614e-07
1.0161e-07
9.86117e-08
9.56402e-08
9.26884e-08
8.9776e-08
8.68937e-08
8.406e-08
8.12637e-08
7.85228e-08
7.58241e-08
7.31857e-08
7.05924e-08
6.80627e-08
6.55793e-08
6.31615e-08
6.079e-08
5.84851e-08
5.62254e-08
5.40324e-08
5.18827e-08
4.97991e-08
4.77562e-08
4.57785e-08
4.38383e-08
4.19619e-08
4.01196e-08
3.83392e-08
3.65893e-08
3.48994e-08
3.32361e-08
3.16308e-08
3.00482e-08
2.85212e-08
2.70131e-08
2.55585e-08
2.41187e-08
2.27302e-08
2.13528e-08
2.00243e-08
1.87033e-08
1.74292e-08
1.6159e-08
1.49335e-08
1.37087e-08
1.25264e-08
1.13415e-08
1.01967e-08
9.04644e-09
7.93306e-09
6.81205e-09
5.72331e-09
4.62821e-09
3.55666e-09
2.48986e-09
1.42375e-09
3.99262e-10
-6.93717e-10
-1.63881e-09
-2.79757e-09
-3.81668e-09
-4.77516e-09
-4.25564e-09
0.0520348
0.050613
0.0458188
0.0387857
0.0289124
0.0158589
-0.00049949
-0.0202251
-0.0428173
-0.0673303
-0.0922484
-0.115494
-0.135803
-0.15191
-0.162771
-0.1678
-0.166831
-0.160282
-0.149141
-0.134788
-0.118717
-0.102265
-0.0864618
-0.0719824
-0.0591853
-0.0481846
-0.0389294
-0.0312714
-0.0250159
-0.0199558
-0.0158925
-0.0126466
-0.0100626
-0.00800978
-0.0063804
-0.00508702
-0.00405943
-0.00324155
-0.00258866
-0.00206515
-0.00164307
-0.00130109
-0.00102358
-0.000799273
-0.00061956
-0.000477052
-0.000365019
-0.000277538
-0.000209734
-0.000157728
-0.000118328
-8.87877e-05
-6.67447e-05
-5.02628e-05
-3.78582e-05
-2.84586e-05
-2.13113e-05
-1.58827e-05
-1.17782e-05
-8.6939e-06
-6.39003e-06
-4.67791e-06
-3.4102e-06
-2.47388e-06
-1.78309e-06
-1.27369e-06
-8.97929e-07
-6.2077e-07
-4.16258e-07
-2.65461e-07
-1.54271e-07
-7.2423e-08
-1.21935e-08
3.1983e-08
6.43386e-08
8.78685e-08
1.04893e-07
1.17016e-07
1.25519e-07
1.31258e-07
1.34954e-07
1.37062e-07
1.37997e-07
1.37998e-07
1.37311e-07
1.36062e-07
1.34403e-07
1.32398e-07
1.30145e-07
1.27678e-07
1.25063e-07
1.22315e-07
1.19484e-07
1.16574e-07
1.13623e-07
1.10632e-07
1.0763e-07
1.04614e-07
1.0161e-07
9.86103e-08
9.56384e-08
9.26861e-08
8.97736e-08
8.68908e-08
8.40572e-08
8.12604e-08
7.85198e-08
7.58206e-08
7.31826e-08
7.05888e-08
6.80596e-08
6.55757e-08
6.31585e-08
6.07864e-08
5.84823e-08
5.62218e-08
5.40297e-08
5.18791e-08
4.97966e-08
4.77528e-08
4.57762e-08
4.3835e-08
4.19598e-08
4.01163e-08
3.83374e-08
3.65862e-08
3.48978e-08
3.32331e-08
3.16294e-08
3.00453e-08
2.85201e-08
2.70104e-08
2.55575e-08
2.41161e-08
2.27294e-08
2.13502e-08
2.00237e-08
1.87009e-08
1.74288e-08
1.61567e-08
1.49333e-08
1.37064e-08
1.25263e-08
1.13394e-08
1.01969e-08
9.0444e-09
7.93337e-09
6.8101e-09
5.72368e-09
4.62623e-09
3.557e-09
2.48789e-09
1.42422e-09
3.97692e-10
-6.93191e-10
-1.63965e-09
-2.79943e-09
-3.8144e-09
-4.78913e-09
-4.22786e-09
0.0531727
0.0517761
0.0470669
0.0401257
0.0303277
0.0172772
0.000796839
-0.0192589
-0.0423917
-0.0676568
-0.093383
-0.11725
-0.138071
-0.154561
-0.16564
-0.170706
-0.169554
-0.162606
-0.150904
-0.135924
-0.119255
-0.102308
-0.0861405
-0.0714302
-0.0585152
-0.0474818
-0.0382514
-0.0306523
-0.0244721
-0.0194916
-0.0155046
-0.0123277
-0.00980363
-0.00780142
-0.00621384
-0.00495448
-0.00395429
-0.0031583
-0.00252279
-0.00201299
-0.00160161
-0.00126789
-0.000996733
-0.000777357
-0.000601559
-0.000462267
-0.000352945
-0.000267767
-0.00020191
-0.000151531
-0.000113481
-8.50495e-05
-6.39022e-05
-4.8125e-05
-3.62575e-05
-2.72575e-05
-2.04054e-05
-1.51971e-05
-1.12597e-05
-8.30347e-06
-6.09782e-06
-4.46039e-06
-3.24889e-06
-2.35449e-06
-1.69476e-06
-1.20834e-06
-8.49608e-07
-5.85076e-07
-3.89932e-07
-2.46078e-07
-1.40017e-07
-6.19501e-08
-4.49907e-09
3.76357e-08
6.84929e-08
9.0921e-08
1.07137e-07
1.18664e-07
1.2673e-07
1.32148e-07
1.35608e-07
1.37543e-07
1.3835e-07
1.38258e-07
1.37503e-07
1.36203e-07
1.34507e-07
1.32474e-07
1.30202e-07
1.2772e-07
1.25094e-07
1.22338e-07
1.19501e-07
1.16587e-07
1.13633e-07
1.1064e-07
1.07636e-07
1.04619e-07
1.01614e-07
9.86136e-08
9.56412e-08
9.26885e-08
8.97758e-08
8.68928e-08
8.40592e-08
8.12622e-08
7.85216e-08
7.58223e-08
7.31844e-08
7.05904e-08
6.80614e-08
6.55772e-08
6.31603e-08
6.07879e-08
5.84841e-08
5.62233e-08
5.40315e-08
5.18806e-08
4.97984e-08
4.77542e-08
4.5778e-08
4.38363e-08
4.19616e-08
4.01176e-08
3.83391e-08
3.65873e-08
3.48994e-08
3.32342e-08
3.1631e-08
3.00462e-08
2.85216e-08
2.70112e-08
2.5559e-08
2.41168e-08
2.27308e-08
2.13508e-08
2.00251e-08
1.87014e-08
1.74301e-08
1.61571e-08
1.49345e-08
1.37067e-08
1.25274e-08
1.13396e-08
1.01979e-08
9.04455e-09
7.93434e-09
6.81015e-09
5.72452e-09
4.62609e-09
3.55761e-09
2.48761e-09
1.42461e-09
3.97555e-10
-6.93542e-10
-1.63896e-09
-2.80375e-09
-3.8082e-09
-4.81533e-09
-4.1805e-09
0.0548674
0.0535106
0.0489359
0.0421433
0.0324726
0.0194433
0.00279404
-0.0177563
-0.0417158
-0.068157
-0.0951407
-0.119944
-0.14154
-0.158614
-0.170029
-0.175155
-0.173723
-0.166153
-0.153579
-0.137626
-0.120039
-0.102335
-0.0856202
-0.0705678
-0.0574832
-0.0464086
-0.0372224
-0.0297171
-0.0236537
-0.0187951
-0.0149242
-0.0118516
-0.00941773
-0.00749136
-0.00596626
-0.00475761
-0.00379816
-0.00303468
-0.00242493
-0.00193541
-0.00153985
-0.00121836
-0.000956611
-0.000744541
-0.000574567
-0.000440077
-0.000334816
-0.000253096
-0.000190171
-0.00014225
-0.00010624
-7.94831e-05
-5.96851e-05
-4.49644e-05
-3.38977e-05
-2.54897e-05
-1.90724e-05
-1.41872e-05
-1.04943e-05
-7.72525e-06
-5.66304e-06
-4.13501e-06
-3.00633e-06
-2.1742e-06
-1.56105e-06
-1.10937e-06
-7.76458e-07
-5.31104e-07
-3.50168e-07
-2.16819e-07
-1.18503e-07
-4.61395e-08
7.11921e-09
4.61707e-08
7.47634e-08
9.55255e-08
1.10519e-07
1.21146e-07
1.28553e-07
1.33484e-07
1.3659e-07
1.38263e-07
1.38879e-07
1.38645e-07
1.37787e-07
1.36412e-07
1.3466e-07
1.32587e-07
1.30285e-07
1.2778e-07
1.25139e-07
1.22371e-07
1.19526e-07
1.16605e-07
1.13647e-07
1.1065e-07
1.07645e-07
1.04626e-07
1.01619e-07
9.86178e-08
9.56452e-08
9.26917e-08
8.97791e-08
8.68956e-08
8.40622e-08
8.12648e-08
7.85245e-08
7.58248e-08
7.31873e-08
7.05929e-08
6.80643e-08
6.55797e-08
6.31632e-08
6.07903e-08
5.84869e-08
5.62256e-08
5.40344e-08
5.18828e-08
4.98012e-08
4.77563e-08
4.57807e-08
4.38383e-08
4.19641e-08
4.01194e-08
3.83415e-08
3.6589e-08
3.49017e-08
3.32357e-08
3.16331e-08
3.00475e-08
2.85236e-08
2.70124e-08
2.55608e-08
2.41178e-08
2.27325e-08
2.13517e-08
2.00266e-08
1.87021e-08
1.74314e-08
1.61575e-08
1.49357e-08
1.3707e-08
1.25284e-08
1.13397e-08
1.01988e-08
9.0445e-09
7.93505e-09
6.80993e-09
5.72503e-09
4.62565e-09
3.55783e-09
2.48696e-09
1.4244e-09
3.96896e-10
-6.94941e-10
-1.63875e-09
-2.80989e-09
-3.8011e-09
-4.84555e-09
-4.12777e-09
0.057103
0.0558033
0.0514208
0.0448465
0.0353732
0.0224047
0.00555893
-0.0156474
-0.0407387
-0.0688441
-0.0975933
-0.123652
-0.146291
-0.164158
-0.176038
-0.181262
-0.179454
-0.17103
-0.15724
-0.13993
-0.121068
-0.102325
-0.084869
-0.0693628
-0.0560619
-0.0449447
-0.0358289
-0.0284581
-0.0225573
-0.0178658
-0.0141523
-0.0112201
-0.00890706
-0.00708179
-0.0056397
-0.00449824
-0.00359264
-0.00287201
-0.00229619
-0.00183335
-0.00145859
-0.00115317
-0.000903789
-0.00070133
-0.000539023
-0.000410858
-0.000310949
-0.000233799
-0.000174753
-0.000130093
-9.67959e-05
-7.22638e-05
-5.42493e-05
-4.09119e-05
-3.088e-05
-2.3227e-05
-1.73595e-05
-1.28825e-05
-9.50044e-06
-6.97164e-06
-5.09525e-06
-3.7099e-06
-2.68969e-06
-1.93927e-06
-1.38718e-06
-9.80901e-07
-6.81646e-07
-4.61197e-07
-2.98671e-07
-1.78918e-07
-9.06293e-08
-2.56523e-08
2.2173e-08
5.72286e-08
8.28859e-08
1.0149e-07
1.14899e-07
1.24362e-07
1.30914e-07
1.35218e-07
1.37863e-07
1.39196e-07
1.39565e-07
1.39148e-07
1.38157e-07
1.36683e-07
1.3486e-07
1.32733e-07
1.30393e-07
1.2786e-07
1.25198e-07
1.22415e-07
1.19559e-07
1.1663e-07
1.13667e-07
1.10665e-07
1.07657e-07
1.04635e-07
1.01627e-07
9.86244e-08
9.56513e-08
9.26969e-08
8.97842e-08
8.69e-08
8.40667e-08
8.12688e-08
7.85288e-08
7.58286e-08
7.31914e-08
7.05966e-08
6.80683e-08
6.55832e-08
6.31671e-08
6.07938e-08
5.84907e-08
5.62289e-08
5.4038e-08
5.1886e-08
4.98047e-08
4.77593e-08
4.5784e-08
4.38411e-08
4.19672e-08
4.01219e-08
3.83444e-08
3.65912e-08
3.49044e-08
3.32377e-08
3.16355e-08
3.00493e-08
2.85258e-08
2.70139e-08
2.55628e-08
2.41191e-08
2.27343e-08
2.13528e-08
2.00282e-08
1.8703e-08
1.74328e-08
1.61582e-08
1.49369e-08
1.37075e-08
1.25295e-08
1.134e-08
1.01996e-08
9.04461e-09
7.93576e-09
6.80989e-09
5.72555e-09
4.6254e-09
3.55803e-09
2.48646e-09
1.4241e-09
3.96372e-10
-6.96625e-10
-1.63832e-09
-2.81631e-09
-3.79342e-09
-4.87325e-09
-4.07948e-09
0.0598571
0.0586352
0.0545134
0.0482444
0.0390633
0.0262258
0.00918431
-0.0128327
-0.0393871
-0.0697443
-0.100853
-0.12848
-0.152436
-0.17132
-0.183812
-0.189181
-0.186887
-0.177326
-0.161918
-0.142812
-0.122285
-0.102207
-0.083817
-0.0677561
-0.0542066
-0.0430595
-0.0340526
-0.0268659
-0.0211798
-0.0167046
-0.0131921
-0.0104377
-0.00827622
-0.00657711
-0.00523806
-0.00417966
-0.00334036
-0.00267235
-0.00213807
-0.00170783
-0.00135847
-0.0010727
-0.000838483
-0.000647858
-0.00049503
-0.000374706
-0.000281438
-0.000209957
-0.000155726
-0.000115119
-8.51988e-05
-6.34377e-05
-4.76389e-05
-3.60084e-05
-2.72398e-05
-2.04981e-05
-1.52892e-05
-1.1301e-05
-8.29315e-06
-6.05505e-06
-4.40421e-06
-3.19225e-06
-2.30398e-06
-1.653e-06
-1.17532e-06
-8.24391e-07
-5.66182e-07
-3.76106e-07
-2.3602e-07
-1.32826e-07
-5.67391e-08
-7.46236e-10
4.04721e-08
7.06696e-08
9.27578e-08
1.08739e-07
1.20222e-07
1.28268e-07
1.33782e-07
1.37322e-07
1.39407e-07
1.40329e-07
1.40396e-07
1.39758e-07
1.38605e-07
1.37011e-07
1.35101e-07
1.3291e-07
1.30523e-07
1.27955e-07
1.25268e-07
1.22466e-07
1.19597e-07
1.16658e-07
1.13688e-07
1.10681e-07
1.07669e-07
1.04644e-07
1.01634e-07
9.86301e-08
9.56563e-08
9.27009e-08
8.97879e-08
8.69031e-08
8.40698e-08
8.12714e-08
7.85316e-08
7.5831e-08
7.3194e-08
7.05988e-08
6.80708e-08
6.55853e-08
6.31695e-08
6.07958e-08
5.84931e-08
5.62308e-08
5.40402e-08
5.18877e-08
4.98068e-08
4.77608e-08
4.57859e-08
4.38424e-08
4.1969e-08
4.0123e-08
3.83459e-08
3.65921e-08
3.49057e-08
3.32384e-08
3.16366e-08
3.00498e-08
2.85267e-08
2.70142e-08
2.55636e-08
2.41193e-08
2.2735e-08
2.13528e-08
2.00288e-08
1.87028e-08
1.74332e-08
1.61579e-08
1.49371e-08
1.3707e-08
1.25296e-08
1.13394e-08
1.01996e-08
9.0439e-09
7.93565e-09
6.80909e-09
5.72533e-09
4.62446e-09
3.55754e-09
2.48534e-09
1.42314e-09
3.9529e-10
-6.98899e-10
-1.63839e-09
-2.82282e-09
-3.78656e-09
-4.8963e-09
-4.04014e-09
0.063099
0.0619794
0.0581999
0.0523451
0.0435834
0.03099
0.0137954
-0.00917156
-0.0375533
-0.070898
-0.10508
-0.13457
-0.160117
-0.180253
-0.193526
-0.199131
-0.196266
-0.185268
-0.16777
-0.146344
-0.123687
-0.101933
-0.0824003
-0.0656867
-0.0518684
-0.0407185
-0.0318716
-0.024929
-0.0195167
-0.0153114
-0.0120462
-0.0095078
-0.00752918
-0.00598118
-0.00476488
-0.00380495
-0.00304396
-0.00243787
-0.00195232
-0.00156027
-0.00124065
-0.000977892
-0.000761494
-0.000584827
-0.000443214
-0.000332178
-0.000246768
-0.000181987
-0.000133444
-9.7635e-05
-7.17208e-05
-5.32484e-05
-4.00681e-05
-3.0433e-05
-2.31163e-05
-1.74028e-05
-1.29287e-05
-9.48718e-06
-6.90244e-06
-4.99701e-06
-3.60625e-06
-2.59493e-06
-1.85945e-06
-1.32359e-06
-9.31906e-07
-6.44831e-07
-4.33852e-07
-2.78654e-07
-1.64296e-07
-8.007e-08
-1.7953e-08
2.77568e-08
6.14131e-08
8.60509e-08
1.04055e-07
1.17034e-07
1.26313e-07
1.32741e-07
1.37066e-07
1.39733e-07
1.41177e-07
1.41629e-07
1.4135e-07
1.40458e-07
1.39119e-07
1.37388e-07
1.35378e-07
1.33114e-07
1.30673e-07
1.28065e-07
1.2535e-07
1.22527e-07
1.19642e-07
1.16692e-07
1.13713e-07
1.107e-07
1.07684e-07
1.04655e-07
1.01644e-07
9.86374e-08
9.56624e-08
9.27059e-08
8.97925e-08
8.69069e-08
8.40735e-08
8.12746e-08
7.85347e-08
7.58338e-08
7.31969e-08
7.06013e-08
6.80734e-08
6.55876e-08
6.3172e-08
6.07978e-08
5.84953e-08
5.62326e-08
5.40423e-08
5.18893e-08
4.98086e-08
4.77622e-08
4.57875e-08
4.38435e-08
4.19703e-08
4.01239e-08
3.8347e-08
3.65927e-08
3.49065e-08
3.32387e-08
3.16373e-08
3.00499e-08
2.85272e-08
2.70142e-08
2.5564e-08
2.41191e-08
2.27352e-08
2.13524e-08
2.00288e-08
1.87023e-08
1.74332e-08
1.61573e-08
1.4937e-08
1.37063e-08
1.25293e-08
1.13385e-08
1.01992e-08
9.04298e-09
7.93524e-09
6.80813e-09
5.72484e-09
4.6234e-09
3.55684e-09
2.48416e-09
1.42203e-09
3.94225e-10
-7.01165e-10
-1.63845e-09
-2.82864e-09
-3.78049e-09
-4.91403e-09
-4.01011e-09
0.0667882
0.0658001
0.0624591
0.0571531
0.048978
0.0367983
0.0195515
-0.00447509
-0.0350898
-0.0723795
-0.110512
-0.1421
-0.169504
-0.19116
-0.205423
-0.211365
-0.207798
-0.194978
-0.174822
-0.150468
-0.125168
-0.101381
-0.0805057
-0.0630633
-0.0489814
-0.0378795
-0.0292628
-0.0226376
-0.0175672
-0.0136906
-0.0107215
-0.00843856
-0.00667388
-0.00530121
-0.00422637
-0.00337924
-0.00270752
-0.00217169
-0.00174126
-0.00139229
-0.0011062
-0.00086947
-0.000673304
-0.000512577
-0.00038384
-0.000283494
-0.000207129
-0.000150044
-0.000108035
-7.77496e-05
-5.64659e-05
-4.18018e-05
-3.16428e-05
-2.42825e-05
-1.85878e-05
-1.39975e-05
-1.03163e-05
-7.46729e-06
-5.3482e-06
-3.81365e-06
-2.7145e-06
-1.92825e-06
-1.36394e-06
-9.56839e-07
-6.61178e-07
-4.4529e-07
-2.86902e-07
-1.70499e-07
-8.47347e-08
-2.15726e-08
2.504e-08
5.93434e-08
8.46149e-08
1.0309e-07
1.16567e-07
1.26221e-07
1.33059e-07
1.37692e-07
1.40701e-07
1.42401e-07
1.43136e-07
1.43066e-07
1.42405e-07
1.41232e-07
1.39687e-07
1.37805e-07
1.35684e-07
1.33338e-07
1.30838e-07
1.28186e-07
1.25439e-07
1.22592e-07
1.1969e-07
1.16727e-07
1.13739e-07
1.10719e-07
1.07698e-07
1.04666e-07
1.01652e-07
9.86434e-08
9.56672e-08
9.27095e-08
8.97954e-08
8.69092e-08
8.40755e-08
8.12761e-08
7.85362e-08
7.58348e-08
7.3198e-08
7.0602e-08
6.80743e-08
6.55881e-08
6.31726e-08
6.07981e-08
5.84957e-08
5.62327e-08
5.40425e-08
5.18892e-08
4.98087e-08
4.77619e-08
4.57874e-08
4.3843e-08
4.197e-08
4.01231e-08
3.83465e-08
3.65917e-08
3.49058e-08
3.32375e-08
3.16364e-08
3.00485e-08
2.85262e-08
2.70127e-08
2.55628e-08
2.41175e-08
2.2734e-08
2.13508e-08
2.00276e-08
1.87006e-08
1.74319e-08
1.61555e-08
1.49356e-08
1.37045e-08
1.25279e-08
1.13367e-08
1.01979e-08
9.0412e-09
7.93395e-09
6.8064e-09
5.72357e-09
4.62167e-09
3.55545e-09
2.4824e-09
1.42036e-09
3.92725e-10
-7.03698e-10
-1.63891e-09
-2.83393e-09
-3.77566e-09
-4.9274e-09
-3.98802e-09
0.0708731
0.0700504
0.0672594
0.0626667
0.0552939
0.0437732
0.0266586
0.00152037
-0.0317817
-0.0743016
-0.117492
-0.151312
-0.180801
-0.204235
-0.219758
-0.226282
-0.221981
-0.206915
-0.183374
-0.155301
-0.126703
-0.100456
-0.0780202
-0.0597862
-0.0454712
-0.0344934
-0.0261978
-0.0199783
-0.0153275
-0.0118443
-0.0092229
-0.00723592
-0.00571641
-0.00454295
-0.00362764
-0.00290697
-0.00233477
-0.00187691
-0.0015074
-0.00120593
-0.000956805
-0.000748814
-0.000575101
-0.000432162
-0.000317851
-0.00022949
-0.00016324
-0.000114729
-7.99993e-05
-5.58877e-05
-3.98063e-05
-2.94319e-05
-2.2658e-05
-1.78025e-05
-1.3841e-05
-1.04114e-05
-7.53515e-06
-5.29498e-06
-3.66739e-06
-2.53252e-06
-1.75032e-06
-1.2089e-06
-8.30413e-07
-5.62753e-07
-3.70809e-07
-2.31588e-07
-1.29693e-07
-5.48791e-08
2.74352e-10
4.09092e-08
7.09508e-08
9.3069e-08
1.09385e-07
1.21281e-07
1.29925e-07
1.36029e-07
1.4026e-07
1.4298e-07
1.44583e-07
1.4525e-07
1.45228e-07
1.44601e-07
1.43533e-07
1.4206e-07
1.40295e-07
1.38251e-07
1.36012e-07
1.33578e-07
1.31014e-07
1.28316e-07
1.25534e-07
1.22662e-07
1.19742e-07
1.16765e-07
1.13768e-07
1.1074e-07
1.07714e-07
1.04678e-07
1.01661e-07
9.865e-08
9.56724e-08
9.27133e-08
8.97985e-08
8.69114e-08
8.40774e-08
8.12774e-08
7.85374e-08
7.58356e-08
7.31987e-08
7.06024e-08
6.80746e-08
6.55881e-08
6.31727e-08
6.07979e-08
5.84956e-08
5.62322e-08
5.40421e-08
5.18885e-08
4.98081e-08
4.77609e-08
4.57866e-08
4.38418e-08
4.19689e-08
4.01217e-08
3.83451e-08
3.659e-08
3.49042e-08
3.32355e-08
3.16346e-08
3.00464e-08
2.85243e-08
2.70105e-08
2.5561e-08
2.41153e-08
2.27321e-08
2.13486e-08
2.00257e-08
1.86984e-08
1.743e-08
1.61533e-08
1.49337e-08
1.37022e-08
1.2526e-08
1.13345e-08
1.01961e-08
9.03904e-09
7.93221e-09
6.80436e-09
5.72192e-09
4.61971e-09
3.55376e-09
2.48048e-09
1.4185e-09
3.91162e-10
-7.06139e-10
-1.63942e-09
-2.8384e-09
-3.77176e-09
-4.93714e-09
-3.97195e-09
0.0752882
0.0746691
0.0725545
0.06887
0.0625712
0.0520492
0.035364
0.00916164
-0.0273428
-0.0768782
-0.126501
-0.162447
-0.194245
-0.219803
-0.236898
-0.244202
-0.239034
-0.221191
-0.19342
-0.160728
-0.128117
-0.0989688
-0.0747789
-0.0557308
-0.0412547
-0.0305125
-0.0226551
-0.0169471
-0.0128041
-0.00978399
-0.00756412
-0.00591354
-0.00466926
-0.00371714
-0.00297762
-0.00239528
-0.00193126
-0.00155771
-0.00125379
-0.00100333
-0.000793923
-0.000616918
-0.000467588
-0.000344121
-0.000245682
-0.000170516
-0.000115372
-7.62472e-05
-4.94936e-05
-3.21859e-05
-2.18855e-05
-1.63012e-05
-1.32866e-05
-1.11532e-05
-9.00117e-06
-6.72786e-06
-4.63555e-06
-3.00178e-06
-1.88366e-06
-1.17367e-06
-7.30631e-07
-4.50363e-07
-2.69173e-07
-1.49033e-07
-6.6493e-08
-7.91378e-09
3.46999e-08
6.59419e-08
8.90587e-08
1.06136e-07
1.1886e-07
1.28252e-07
1.35219e-07
1.40248e-07
1.43851e-07
1.46253e-07
1.47766e-07
1.4849e-07
1.48628e-07
1.48219e-07
1.47407e-07
1.46201e-07
1.44707e-07
1.42921e-07
1.40927e-07
1.38715e-07
1.36352e-07
1.33828e-07
1.31198e-07
1.2845e-07
1.25633e-07
1.22734e-07
1.19795e-07
1.16804e-07
1.13796e-07
1.10761e-07
1.07729e-07
1.04689e-07
1.01669e-07
9.86557e-08
9.56764e-08
9.27161e-08
8.98004e-08
8.69125e-08
8.4078e-08
8.12776e-08
7.85372e-08
7.58351e-08
7.31981e-08
7.06014e-08
6.80737e-08
6.55869e-08
6.31714e-08
6.07963e-08
5.8494e-08
5.62304e-08
5.40404e-08
5.18864e-08
4.98061e-08
4.77586e-08
4.57843e-08
4.38393e-08
4.19665e-08
4.01189e-08
3.83425e-08
3.6587e-08
3.49013e-08
3.32323e-08
3.16316e-08
3.00431e-08
2.85212e-08
2.70071e-08
2.55579e-08
2.4112e-08
2.27291e-08
2.13453e-08
2.00227e-08
1.86951e-08
1.7427e-08
1.61501e-08
1.49308e-08
1.36991e-08
1.25232e-08
1.13314e-08
1.01934e-08
9.03618e-09
7.92974e-09
6.8017e-09
5.71962e-09
4.6172e-09
3.55152e-09
2.47812e-09
1.41623e-09
3.89266e-10
-7.08686e-10
-1.64022e-09
-2.8423e-09
-3.76888e-09
-4.9443e-09
-3.96039e-09
0.0799532
0.07958
0.0782801
0.0757312
0.0708411
0.0617827
0.0459847
0.0189511
-0.0213399
-0.0804098
-0.138325
-0.175931
-0.210002
-0.237962
-0.257204
-0.265971
-0.26003
-0.238725
-0.205495
-0.166906
-0.129321
-0.0967322
-0.0705907
-0.050746
-0.0362297
-0.0258762
-0.0186043
-0.0135331
-0.00999708
-0.00751587
-0.00575364
-0.00448046
-0.00354106
-0.0028316
-0.00228313
-0.00185
-0.00150192
-0.00121818
-0.000983812
-0.000787315
-0.000619915
-0.000475842
-0.000352578
-0.000250065
-0.000168767
-0.000107818
-6.45566e-05
-3.54354e-05
-1.71897e-05
-7.20271e-06
-3.19759e-06
-2.86467e-06
-3.93922e-06
-4.6754e-06
-4.31735e-06
-3.10651e-06
-1.7106e-06
-6.4364e-07
-3.63693e-08
2.31418e-07
3.19117e-07
3.27503e-07
3.04684e-07
2.7293e-07
2.43216e-07
2.19354e-07
2.01554e-07
1.88484e-07
1.79061e-07
1.72231e-07
1.67393e-07
1.63886e-07
1.61381e-07
1.59455e-07
1.57952e-07
1.56605e-07
1.55366e-07
1.54069e-07
1.52724e-07
1.51226e-07
1.49615e-07
1.47822e-07
1.45897e-07
1.43794e-07
1.41568e-07
1.39185e-07
1.36697e-07
1.34081e-07
1.31384e-07
1.28587e-07
1.25733e-07
1.22808e-07
1.19849e-07
1.16843e-07
1.13825e-07
1.10782e-07
1.07744e-07
1.047e-07
1.01677e-07
9.86612e-08
9.56803e-08
9.27186e-08
8.9802e-08
8.69132e-08
8.40782e-08
8.12772e-08
7.85366e-08
7.5834e-08
7.31969e-08
7.05999e-08
6.8072e-08
6.55849e-08
6.31694e-08
6.0794e-08
5.84917e-08
5.62279e-08
5.40378e-08
5.18836e-08
4.98033e-08
4.77556e-08
4.57813e-08
4.3836e-08
4.19632e-08
4.01154e-08
3.83389e-08
3.65832e-08
3.48976e-08
3.32283e-08
3.16277e-08
3.0039e-08
2.85173e-08
2.70031e-08
2.5554e-08
2.41079e-08
2.27253e-08
2.13413e-08
2.0019e-08
1.86913e-08
1.74234e-08
1.61463e-08
1.49273e-08
1.36954e-08
1.25199e-08
1.1328e-08
1.01902e-08
9.03291e-09
7.92681e-09
6.79868e-09
5.71692e-09
4.61443e-09
3.54896e-09
2.47557e-09
1.41377e-09
3.87254e-10
-7.11165e-10
-1.64111e-09
-2.84555e-09
-3.76671e-09
-4.94944e-09
-3.95203e-09
0.0847709
0.0846867
0.0843471
0.0831841
0.0801029
0.0731091
0.0588682
0.0315256
-0.0132496
-0.0855221
-0.153795
-0.191981
-0.228547
-0.259301
-0.28105
-0.291664
-0.285007
-0.259575
-0.219568
-0.17366
-0.130049
-0.0934741
-0.0652323
-0.0446776
-0.0303057
-0.0205435
-0.0140374
-0.00974765
-0.0069278
-0.00506443
-0.00381551
-0.00295829
-0.00235018
-0.00190133
-0.00155603
-0.00128029
-0.0010536
-0.000863347
-0.000701047
-0.000560356
-0.000436504
-0.000326783
-0.000230988
-0.000150753
-8.77356e-05
-4.1889e-05
-1.1153e-05
7.47807e-06
1.67662e-05
1.89325e-05
1.609e-05
1.06509e-05
5.12071e-06
1.3826e-06
2.3307e-08
3.40251e-07
1.18203e-06
1.74659e-06
1.84744e-06
1.65706e-06
1.37667e-06
1.10748e-06
8.78577e-07
6.94041e-07
5.51698e-07
4.45395e-07
3.6736e-07
3.10181e-07
2.68393e-07
2.37802e-07
2.15521e-07
1.9921e-07
1.87308e-07
1.78485e-07
1.71921e-07
1.66859e-07
1.62894e-07
1.59595e-07
1.5678e-07
1.54204e-07
1.518e-07
1.49425e-07
1.47074e-07
1.44658e-07
1.42202e-07
1.3965e-07
1.37039e-07
1.34331e-07
1.31567e-07
1.28721e-07
1.25831e-07
1.2288e-07
1.19901e-07
1.16881e-07
1.13853e-07
1.10802e-07
1.07758e-07
1.0471e-07
1.01684e-07
9.86659e-08
9.56833e-08
9.27202e-08
8.98026e-08
8.6913e-08
8.40775e-08
8.12759e-08
7.8535e-08
7.5832e-08
7.31947e-08
7.05974e-08
6.80694e-08
6.5582e-08
6.31664e-08
6.07908e-08
5.84884e-08
5.62243e-08
5.40342e-08
5.18797e-08
4.97994e-08
4.77515e-08
4.57772e-08
4.38316e-08
4.19589e-08
4.01108e-08
3.83343e-08
3.65783e-08
3.48927e-08
3.32232e-08
3.16227e-08
3.00339e-08
2.85123e-08
2.6998e-08
2.55491e-08
2.4103e-08
2.27205e-08
2.13365e-08
2.00144e-08
1.86866e-08
1.74189e-08
1.61417e-08
1.4923e-08
1.36911e-08
1.25158e-08
1.13238e-08
1.01864e-08
9.02906e-09
7.92328e-09
6.79516e-09
5.7137e-09
4.61121e-09
3.54598e-09
2.47267e-09
1.411e-09
3.84972e-10
-7.13723e-10
-1.64223e-09
-2.8484e-09
-3.76525e-09
-4.95322e-09
-3.94602e-09
0.0896266
0.089875
0.0906381
0.0911332
0.090321
0.0861893
0.0744733
0.0479219
-0.00214035
-0.0931554
-0.175266
-0.211086
-0.249154
-0.283443
-0.309398
-0.323602
-0.316427
-0.285559
-0.236532
-0.181134
-0.130043
-0.0888313
-0.0583901
-0.0373089
-0.0233545
-0.0144498
-0.0089295
-0.00558778
-0.00360394
-0.00244173
-0.0017628
-0.00135953
-0.00110791
-0.00093626
-0.000804924
-0.000693477
-0.000592537
-0.000498444
-0.000409899
-0.000326204
-0.000246951
-0.00017268
-0.000105505
-4.86271e-05
-4.74653e-06
2.54504e-05
4.33838e-05
5.13776e-05
5.15155e-05
4.55146e-05
3.53358e-05
2.36273e-05
1.33192e-05
6.54826e-06
3.69397e-06
3.42764e-06
3.95298e-06
4.12067e-06
3.72913e-06
3.06724e-06
2.41158e-06
1.86654e-06
1.43588e-06
1.1022e-06
8.50072e-07
6.63702e-07
5.2737e-07
4.2757e-07
3.54524e-07
3.00997e-07
2.6189e-07
2.33235e-07
2.12279e-07
1.96812e-07
1.85373e-07
1.76733e-07
1.70142e-07
1.64916e-07
1.60687e-07
1.57071e-07
1.53905e-07
1.50971e-07
1.48208e-07
1.45491e-07
1.42813e-07
1.40098e-07
1.37367e-07
1.34572e-07
1.31744e-07
1.28851e-07
1.25926e-07
1.22949e-07
1.19952e-07
1.16918e-07
1.13879e-07
1.10821e-07
1.07772e-07
1.04719e-07
1.0169e-07
9.867e-08
9.56857e-08
9.27212e-08
8.98026e-08
8.69122e-08
8.40761e-08
8.1274e-08
7.85327e-08
7.58294e-08
7.31918e-08
7.05942e-08
6.8066e-08
6.55784e-08
6.31626e-08
6.07867e-08
5.84843e-08
5.62199e-08
5.40297e-08
5.18751e-08
4.97947e-08
4.77466e-08
4.57722e-08
4.38265e-08
4.19537e-08
4.01054e-08
3.83289e-08
3.65726e-08
3.4887e-08
3.32173e-08
3.16168e-08
3.00279e-08
2.85065e-08
2.69922e-08
2.55435e-08
2.40973e-08
2.27151e-08
2.1331e-08
2.00091e-08
1.86813e-08
1.74138e-08
1.61366e-08
1.49181e-08
1.36862e-08
1.25111e-08
1.13192e-08
1.01821e-08
9.02479e-09
7.9193e-09
6.79128e-09
5.71011e-09
4.60771e-09
3.5427e-09
2.46955e-09
1.40804e-09
3.82547e-10
-7.16265e-10
-1.64347e-09
-2.85084e-09
-3.76426e-09
-4.95595e-09
-3.94164e-09
0.0943883
0.0950046
0.0969999
0.0994063
0.101377
0.101017
0.0931857
0.0691758
0.0126626
-0.103875
-0.202826
-0.234666
-0.2746
-0.312017
-0.342485
-0.361316
-0.354398
-0.317224
-0.256726
-0.18925
-0.128957
-0.0824113
-0.0497535
-0.0284469
-0.0152831
-0.00757147
-0.00329755
-0.0010902
-6.84757e-05
0.000310523
0.000367682
0.000285193
0.00016127
4.46845e-05
-4.40672e-05
-0.000100053
-0.000126229
-0.000128712
-0.00011394
-8.72814e-05
-5.29586e-05
-1.48536e-05
2.27323e-05
5.52794e-05
7.93197e-05
9.35562e-05
9.86782e-05
9.6107e-05
8.70171e-05
7.24941e-05
5.43868e-05
3.57794e-05
2.02907e-05
1.04762e-05
6.45325e-06
6.03279e-06
6.55364e-06
6.45013e-06
5.57491e-06
4.42494e-06
3.39281e-06
2.58305e-06
1.96224e-06
1.48768e-06
1.13144e-06
8.69343e-07
6.78056e-07
5.38093e-07
4.35579e-07
3.60434e-07
3.05482e-07
2.65212e-07
2.3574e-07
2.14027e-07
1.98007e-07
1.86006e-07
1.76949e-07
1.69912e-07
1.64354e-07
1.59763e-07
1.55881e-07
1.52421e-07
1.49272e-07
1.46272e-07
1.43386e-07
1.40519e-07
1.37676e-07
1.34798e-07
1.31909e-07
1.28972e-07
1.26015e-07
1.23013e-07
1.19999e-07
1.16952e-07
1.13904e-07
1.10838e-07
1.07784e-07
1.04727e-07
1.01695e-07
9.86732e-08
9.56872e-08
9.27214e-08
8.98019e-08
8.69107e-08
8.40739e-08
8.12714e-08
7.85297e-08
7.5826e-08
7.31881e-08
7.05902e-08
6.80618e-08
6.55739e-08
6.3158e-08
6.07819e-08
5.84793e-08
5.62147e-08
5.40244e-08
5.18696e-08
4.97891e-08
4.77408e-08
4.57664e-08
4.38205e-08
4.19476e-08
4.00991e-08
3.83225e-08
3.65661e-08
3.48803e-08
3.32105e-08
3.161e-08
3.00211e-08
2.84998e-08
2.69855e-08
2.5537e-08
2.40909e-08
2.27088e-08
2.13248e-08
2.0003e-08
1.86752e-08
1.7408e-08
1.61309e-08
1.49125e-08
1.36807e-08
1.25059e-08
1.1314e-08
1.01772e-08
9.02002e-09
7.91482e-09
6.78695e-09
5.70607e-09
4.60384e-09
3.53907e-09
2.46615e-09
1.40483e-09
3.79892e-10
-7.18891e-10
-1.64491e-09
-2.85305e-09
-3.76375e-09
-4.95799e-09
-3.9385e-09
0.0989084
0.099921
0.103239
0.107801
0.113059
0.117693
0.115602
0.098148
0.033255
-0.127026
-0.244159
-0.258471
-0.300579
-0.345943
-0.385145
-0.410657
-0.402869
-0.357112
-0.281215
-0.197936
-0.126159
-0.0735154
-0.0387845
-0.0177539
-0.00590776
0.000177153
0.00288981
0.00374933
0.00367064
0.00317976
0.00256228
0.00196259
0.00144503
0.00103029
0.000716528
0.000491189
0.000337703
0.000239297
0.000181159
0.000151384
0.00014086
0.000142364
0.00014964
0.000157248
0.000161268
0.000159866
0.000152811
0.000140289
0.000122268
9.90645e-05
7.25002e-05
4.63838e-05
2.53817e-05
1.26664e-05
8.00184e-06
8.03704e-06
8.95491e-06
8.71639e-06
7.34946e-06
5.68777e-06
4.28512e-06
3.23253e-06
2.44155e-06
1.83902e-06
1.38742e-06
1.05627e-06
8.15077e-07
6.38614e-07
5.0927e-07
4.14443e-07
3.45079e-07
2.94254e-07
2.57045e-07
2.2966e-07
2.0948e-07
1.94427e-07
1.83129e-07
1.74449e-07
1.67684e-07
1.62208e-07
1.57676e-07
1.53738e-07
1.50239e-07
1.46981e-07
1.43906e-07
1.409e-07
1.37955e-07
1.35003e-07
1.32059e-07
1.29081e-07
1.26095e-07
1.23072e-07
1.20041e-07
1.16982e-07
1.13925e-07
1.10853e-07
1.07794e-07
1.04734e-07
1.017e-07
9.86754e-08
9.56878e-08
9.27208e-08
8.98003e-08
8.69083e-08
8.4071e-08
8.12679e-08
7.85259e-08
7.58218e-08
7.31836e-08
7.05855e-08
6.80568e-08
6.55687e-08
6.31525e-08
6.07762e-08
5.84734e-08
5.62087e-08
5.40182e-08
5.18632e-08
4.97826e-08
4.77342e-08
4.57597e-08
4.38136e-08
4.19407e-08
4.0092e-08
3.83153e-08
3.65586e-08
3.48727e-08
3.32028e-08
3.16023e-08
3.00134e-08
2.84923e-08
2.69781e-08
2.55297e-08
2.40837e-08
2.27018e-08
2.13179e-08
1.99963e-08
1.86686e-08
1.74015e-08
1.61245e-08
1.49064e-08
1.36746e-08
1.25001e-08
1.13084e-08
1.01718e-08
9.01481e-09
7.90991e-09
6.78225e-09
5.70167e-09
4.59967e-09
3.53516e-09
2.46253e-09
1.40146e-09
3.77078e-10
-7.21546e-10
-1.6465e-09
-2.85505e-09
-3.76356e-09
-4.95949e-09
-3.9362e-09
0.103028
0.104441
0.109125
0.115949
0.125006
0.1355
0.141912
0.134084
0.061638
-0.13663
-0.310352
-0.302148
-0.331745
-0.374586
-0.420018
-0.455422
-0.450929
-0.398639
-0.306928
-0.206049
-0.121168
-0.06185
-0.0252837
-0.00513004
0.00478511
0.00875067
0.0095578
0.00884824
0.00753585
0.00609938
0.00476696
0.00363059
0.00271159
0.00199718
0.00146003
0.00106836
0.000790988
0.000599859
0.000471354
0.000386766
0.000332039
0.000296829
0.000273381
0.000255843
0.000240164
0.000223962
0.000205788
0.000184197
0.000157641
0.000125559
8.98891e-05
5.55267e-05
2.86164e-05
1.31491e-05
8.4015e-06
9.53943e-06
1.12265e-05
1.09288e-05
9.01998e-06
6.81451e-06
5.0578e-06
3.79644e-06
2.86205e-06
2.14774e-06
1.61194e-06
1.22019e-06
9.35376e-07
7.26907e-07
5.73955e-07
4.61816e-07
3.79795e-07
3.19709e-07
2.75715e-07
2.43357e-07
2.19531e-07
2.01803e-07
1.88543e-07
1.78423e-07
1.70601e-07
1.64349e-07
1.59247e-07
1.54891e-07
1.51085e-07
1.47602e-07
1.44362e-07
1.41234e-07
1.382e-07
1.35183e-07
1.3219e-07
1.29177e-07
1.26164e-07
1.23122e-07
1.20077e-07
1.17009e-07
1.13944e-07
1.10866e-07
1.07803e-07
1.0474e-07
1.01703e-07
9.86765e-08