/*--------------------------------*- C++ -*----------------------------------*\
  =========                 |
  \\      /  F ield         | OpenFOAM: The Open Source CFD Toolbox
   \\    /   O peration     | Website:  https://openfoam.org
    \\  /    A nd           | Version:  11
     \\/     M anipulation  |
\*---------------------------------------------------------------------------*/
FoamFile
{
    format      ascii;
    class       surfaceScalarField;
    location    "2.303043";
    object      phi;
}
// * * * * * * * * * * * * * * * * * * * * * * * * * * * * * * * * * * * * * //

dimensions      [0 3 -1 0 0 0 0];

internalField   nonuniform List<scalar> 
14638
(
0.00250284
-2.84399e-06
0.00251142
-8.57325e-06
0.00252605
-1.46369e-05
0.0025472
-2.11439e-05
0.00257531
-2.81086e-05
0.00261061
-3.5303e-05
0.0026529
-4.22921e-05
0.00270113
-4.82277e-05
0.00275331
-5.21803e-05
0.00280643
-5.31175e-05
0.00285681
-5.03779e-05
0.00290126
-4.44581e-05
0.00293709
-3.58254e-05
0.00296209
-2.50016e-05
0.00297477
-1.26802e-05
0.00297444
3.34477e-07
0.00296139
1.30466e-05
0.00293701
2.43802e-05
0.00290361
3.34004e-05
0.00286407
3.95383e-05
0.00282138
4.2691e-05
0.00277822
4.31643e-05
0.0027367
4.15191e-05
0.00269829
3.84086e-05
0.00266384
3.44503e-05
0.00263368
3.01523e-05
0.0026078
2.58869e-05
0.0025859
2.18961e-05
0.00256759
1.83142e-05
0.00255239
1.51951e-05
0.00253985
1.25391e-05
0.00252954
1.03148e-05
0.00252106
8.4764e-06
0.00251409
6.97332e-06
0.00250834
5.75125e-06
0.00250359
4.74494e-06
0.00249972
3.87033e-06
0.00249669
3.0275e-06
0.00249457
2.12353e-06
0.00249346
1.11183e-06
0.00249343
2.85699e-08
0.00249443
-9.99707e-07
0.00249622
-1.79248e-06
0.00249841
-2.18635e-06
0.00250052
-2.10836e-06
0.00250213
-1.61415e-06
0.002503
-8.70704e-07
0.0025031
-9.3413e-08
0.00250257
5.3028e-07
0.00250167
8.95145e-07
0.00250068
9.91228e-07
0.0024998
8.79782e-07
0.00249915
6.52095e-07
0.00249875
3.92861e-07
0.00249859
1.60304e-07
0.00249861
-1.6744e-08
0.00249874
-1.31807e-07
0.00249893
-1.91449e-07
0.00249914
-2.08043e-07
0.00249934
-1.95443e-07
0.0024995
-1.66582e-07
0.00249964
-1.32024e-07
0.00249974
-9.91196e-08
0.00249981
-7.18385e-08
0.00249986
-5.13105e-08
0.0024999
-3.68226e-08
0.00249992
-2.68773e-08
0.00249994
-1.99747e-08
0.00249996
-1.49964e-08
0.00249997
-1.12585e-08
0.00249998
-8.39361e-09
0.00249998
-6.20337e-09
0.00249999
-4.55509e-09
0.00249999
-3.33603e-09
0.00249999
-2.44446e-09
0.0025
-1.79418e-09
0.0025
-1.31828e-09
0.0025
-9.68227e-10
0.0025
-7.09895e-10
0.0025
-5.19174e-10
0.0025
-3.78596e-10
0.0025
-2.75179e-10
0.0025
-1.99213e-10
0.0025
-1.4344e-10
0.0025
-1.02505e-10
0.0025
-7.24667e-11
0.0025
-5.04439e-11
0.0025
-3.4314e-11
0.0025
-2.25239e-11
0.0025
-1.39218e-11
0.0025
-7.66683e-12
0.0025
-3.13303e-12
0.0025
1.33369e-13
0.0025
2.47223e-12
0.0025
4.12753e-12
0.0025
5.28429e-12
0.0025
6.07318e-12
0.0025
6.59543e-12
0.0025
6.92052e-12
0.0025
7.10432e-12
0.0025
7.18329e-12
0.0025
7.18873e-12
0.0025
7.13923e-12
0.0025
7.0528e-12
0.0025
6.93837e-12
0.0025
6.80676e-12
0.0025
6.66164e-12
0.0025
6.50998e-12
0.0025
6.35259e-12
0.0025
6.1944e-12
0.0025
6.0346e-12
0.0025
5.87705e-12
0.0025
5.72005e-12
0.0025
5.56689e-12
0.0025
5.41532e-12
0.0025
5.26842e-12
0.0025
5.12356e-12
0.0025
4.98373e-12
0.0025
4.84604e-12
0.0025
4.71351e-12
0.0025
4.58304e-12
0.0025
4.45772e-12
0.0025
4.33427e-12
0.0025
4.21588e-12
0.0025
4.09911e-12
0.0025
3.98729e-12
0.0025
3.87682e-12
0.0025
3.77115e-12
0.0025
3.66657e-12
0.0025
3.56666e-12
0.0025
3.46756e-12
0.0025
3.373e-12
0.0025
3.27899e-12
0.0025
3.1894e-12
0.0025
3.1001e-12
0.0025
3.01511e-12
0.0025
2.9302e-12
0.0025
2.84948e-12
0.0025
2.76863e-12
0.0025
2.69188e-12
0.0025
2.61481e-12
0.0025
2.54176e-12
0.0025
2.4682e-12
0.0025
2.39858e-12
0.0025
2.32831e-12
0.0025
2.26192e-12
0.0025
2.19475e-12
0.0025
2.13139e-12
0.0025
2.06721e-12
0.0025
2.00672e-12
0.0025
1.94551e-12
0.0025
1.88738e-12
0.0025
1.82957e-12
0.0025
1.77212e-12
0.0025
1.72167e-12
0.0025
1.65671e-12
0.0025
1.63799e-12
0.0025
1.51602e-12
0.0025
1.65791e-12
1.29168e-12
0.00250282
-5.66272e-06
0.00251132
-1.7077e-05
0.00252586
-2.91765e-05
0.00254692
-4.21998e-05
0.002575
-5.61895e-05
0.0026104
-7.07029e-05
0.00265298
-8.48772e-05
0.00270174
-9.69798e-05
0.00275467
-0.000105114
0.00280865
-0.000107101
0.00285984
-0.000101563
0.00290499
-8.96106e-05
0.00294137
-7.2202e-05
0.00296674
-5.03789e-05
0.00297959
-2.55254e-05
0.00297917
7.51887e-07
0.00296578
2.64349e-05
0.00294084
4.93238e-05
0.00290674
6.75017e-05
0.00286647
7.98095e-05
0.00282311
8.60519e-05
0.0027794
8.68725e-05
0.00273749
8.34306e-05
0.00269883
7.70627e-05
0.00266426
6.90224e-05
0.00263408
6.03338e-05
0.00260822
5.17413e-05
0.0025864
4.37244e-05
0.00256816
3.65454e-05
0.00255305
3.03062e-05
0.00254059
2.50018e-05
0.00253034
2.05656e-05
0.00252191
1.69031e-05
0.00251498
1.39113e-05
0.00250925
1.14808e-05
0.00250451
9.48166e-06
0.00250063
7.74709e-06
0.00249758
6.07892e-06
0.00249541
4.2919e-06
0.00249423
2.29124e-06
0.00249412
1.45495e-07
0.00249501
-1.89692e-06
0.0024967
-3.47844e-06
0.00249879
-4.27287e-06
0.00250081
-4.13177e-06
0.00250236
-3.16172e-06
0.00250318
-1.69185e-06
0.00250323
-1.49709e-07
0.00250267
1.09057e-06
0.00250175
1.81711e-06
0.00250074
2.00758e-06
0.00249983
1.78229e-06
0.00249916
1.32271e-06
0.00249876
7.98411e-07
0.00249859
3.26941e-07
0.00249861
-3.26762e-08
0.00249874
-2.66472e-07
0.00249894
-3.87237e-07
0.00249915
-4.2006e-07
0.00249935
-3.93394e-07
0.00249951
-3.33921e-07
0.00249965
-2.63373e-07
0.00249974
-1.96729e-07
0.00249981
-1.41919e-07
0.00249986
-1.01023e-07
0.0024999
-7.23956e-08
0.00249992
-5.28707e-08
0.00249994
-3.93578e-08
0.00249996
-2.95983e-08
0.00249997
-2.22423e-08
0.00249998
-1.65843e-08
0.00249998
-1.22508e-08
0.00249999
-8.98982e-09
0.00249999
-6.58097e-09
0.00249999
-4.8218e-09
0.0025
-3.53998e-09
0.0025
-2.60213e-09
0.0025
-1.91206e-09
0.0025
-1.40257e-09
0.0025
-1.0263e-09
0.0025
-7.48928e-10
0.0025
-5.44899e-10
0.0025
-3.95034e-10
0.0025
-2.85012e-10
0.0025
-2.0425e-10
0.0025
-1.44978e-10
0.0025
-1.01508e-10
0.0025
-6.9664e-11
0.0025
-4.63748e-11
0.0025
-2.93764e-11
0.0025
-1.70036e-11
0.0025
-8.02782e-12
0.0025
-1.54854e-12
0.0025
3.09933e-12
0.0025
6.40176e-12
0.0025
8.719e-12
0.0025
1.0313e-11
0.0025
1.13793e-11
0.0025
1.20587e-11
0.0025
1.24575e-11
0.0025
1.26512e-11
0.0025
1.2698e-11
0.0025
1.26378e-11
0.0025
1.25028e-11
0.0025
1.23137e-11
0.0025
1.20886e-11
0.0025
1.1838e-11
0.0025
1.15723e-11
0.0025
1.12962e-11
0.0025
1.10163e-11
0.0025
1.07342e-11
0.0025
1.04542e-11
0.0025
1.01762e-11
0.0025
9.90341e-12
0.0025
9.63473e-12
0.0025
9.37275e-12
0.0025
9.11586e-12
0.0025
8.86631e-12
0.0025
8.62216e-12
0.0025
8.38552e-12
0.0025
8.15425e-12
0.0025
7.9304e-12
0.0025
7.71168e-12
0.0025
7.50012e-12
0.0025
7.29337e-12
0.0025
7.09345e-12
0.0025
6.89796e-12
0.0025
6.70898e-12
0.0025
6.52402e-12
0.0025
6.34524e-12
0.0025
6.1701e-12
0.0025
6.00078e-12
0.0025
5.83474e-12
0.0025
5.67422e-12
0.0025
5.51662e-12
0.0025
5.36425e-12
0.0025
5.2145e-12
0.0025
5.06969e-12
0.0025
4.92719e-12
0.0025
4.78941e-12
0.0025
4.65368e-12
0.0025
4.52244e-12
0.0025
4.39301e-12
0.0025
4.26786e-12
0.0025
4.14431e-12
0.0025
4.02486e-12
0.0025
3.90687e-12
0.0025
3.79277e-12
0.0025
3.68008e-12
0.0025
3.57096e-12
0.0025
3.4636e-12
0.0025
3.35864e-12
0.0025
3.25773e-12
0.0025
3.15396e-12
0.0025
3.06687e-12
0.0025
2.94929e-12
0.0025
2.91742e-12
0.0025
2.70289e-12
0.0025
2.93809e-12
2.32108e-12
0.00250277
-8.43038e-06
0.00251112
-2.5434e-05
0.00252546
-4.35133e-05
0.00254633
-6.30662e-05
0.00257434
-8.4198e-05
0.00260991
-0.00010628
0.00265307
-0.000128037
0.00270288
-0.000146783
0.00275734
-0.000159575
0.00281308
-0.000162842
0.00286589
-0.000154377
0.00291244
-0.000136156
0.00294992
-0.000109681
0.00297604
-7.65048e-05
0.00298921
-3.86941e-05
0.00298861
1.35e-06
0.00297451
4.05338e-05
0.0029484
7.54343e-05
0.00291285
0.000103053
0.00287107
0.000121594
0.00282633
0.000130793
0.0027815
0.000131697
0.00273879
0.000126143
0.00269964
0.000116213
0.00266482
0.000103836
0.00263459
9.05665e-05
0.00260881
7.75206e-05
0.00258713
6.54055e-05
0.00256908
5.45983e-05
0.00255415
4.52362e-05
0.00254185
3.72986e-05
0.00253174
3.06756e-05
0.00252343
2.5218e-05
0.00251657
2.07668e-05
0.0025109
1.71556e-05
0.00250619
1.41896e-05
0.00250231
1.16216e-05
0.00249924
9.15761e-06
0.00249701
6.52204e-06
0.00249573
3.57118e-06
0.00249547
4.01895e-07
0.00249619
-2.62195e-06
0.00249769
-4.97214e-06
0.00249958
-6.16339e-06
0.00250142
-5.97132e-06
0.00250281
-4.5492e-06
0.0025035
-2.38203e-06
0.00250345
-1.03477e-07
0.00250281
1.72944e-06
0.00250183
2.79919e-06
0.00250077
3.06978e-06
0.00249983
2.71838e-06
0.00249914
2.01497e-06
0.00249872
1.21368e-06
0.00249856
4.92404e-07
0.00249858
-5.79975e-08
0.00249873
-4.14796e-07
0.00249894
-5.9681e-07
0.00249916
-6.42787e-07
0.00249937
-5.97412e-07
0.00249954
-5.02753e-07
0.00249967
-3.92833e-07
0.00249976
-2.90662e-07
0.00249983
-2.07935e-07
0.00249987
-1.47172e-07
0.0024999
-1.05264e-07
0.00249993
-7.69949e-08
0.00249995
-5.75066e-08
0.00249996
-4.3377e-08
0.00249997
-3.26457e-08
0.00249998
-2.43389e-08
0.00249998
-1.79594e-08
0.00249999
-1.31622e-08
0.00249999
-9.6275e-09
0.00249999
-7.05312e-09
0.0025
-5.1804e-09
0.0025
-3.81054e-09
0.0025
-2.80189e-09
0.0025
-2.05652e-09
0.0025
-1.50577e-09
0.0025
-1.09974e-09
0.0025
-8.01129e-10
0.0025
-5.81836e-10
0.0025
-4.20854e-10
0.0025
-3.02668e-10
0.0025
-2.15909e-10
0.0025
-1.52258e-10
0.0025
-1.05612e-10
0.0025
-7.14793e-11
0.0025
-4.65498e-11
0.0025
-2.83849e-11
0.0025
-1.51895e-11
0.0025
-5.64396e-12
0.0025
1.22224e-12
0.0025
6.12212e-12
0.0025
9.58029e-12
0.0025
1.1982e-11
0.0025
1.36108e-11
0.0025
1.46748e-11
0.0025
1.53274e-11
0.0025
1.56806e-11
0.0025
1.58174e-11
0.0025
1.57981e-11
0.0025
1.56678e-11
0.0025
1.54584e-11
0.0025
1.51946e-11
0.0025
1.48932e-11
0.0025
1.45678e-11
0.0025
1.4227e-11
0.0025
1.38784e-11
0.0025
1.35262e-11
0.0025
1.31749e-11
0.0025
1.2826e-11
0.0025
1.24825e-11
0.0025
1.21446e-11
0.0025
1.18141e-11
0.0025
1.14907e-11
0.0025
1.11757e-11
0.0025
1.08681e-11
0.0025
1.05694e-11
0.0025
1.0278e-11
0.0025
9.99537e-12
0.0025
9.71988e-12
0.0025
9.45275e-12
0.0025
9.19237e-12
0.0025
8.93995e-12
0.0025
8.69381e-12
0.0025
8.4552e-12
0.0025
8.22237e-12
0.0025
7.99665e-12
0.0025
7.77621e-12
0.0025
7.56244e-12
0.0025
7.35349e-12
0.0025
7.15082e-12
0.0025
6.95254e-12
0.0025
6.76016e-12
0.0025
6.57176e-12
0.0025
6.38892e-12
0.0025
6.20969e-12
0.0025
6.03571e-12
0.0025
5.86502e-12
0.0025
5.69929e-12
0.0025
5.53654e-12
0.0025
5.3785e-12
0.0025
5.22317e-12
0.0025
5.07231e-12
0.0025
4.92399e-12
0.0025
4.77987e-12
0.0025
4.63826e-12
0.0025
4.50039e-12
0.0025
4.36557e-12
0.0025
4.2329e-12
0.0025
4.10649e-12
0.0025
3.97518e-12
0.0025
3.86657e-12
0.0025
3.71793e-12
0.0025
3.67598e-12
0.0025
3.41431e-12
0.0025
3.67136e-12
2.95707e-12
0.00250269
-1.11172e-05
0.00251081
-3.35583e-05
0.00252482
-5.75234e-05
0.00254537
-8.36157e-05
0.00257323
-0.000112057
0.00260903
-0.000142083
0.00265303
-0.000172037
0.00270443
-0.000198175
0.00276124
-0.000216393
0.0028197
-0.000221299
0.002875
-0.000209676
0.00292366
-0.000184812
0.00296281
-0.000148832
0.00299008
-0.000103775
0.00300375
-5.23645e-05
0.00300288
2.2216e-06
0.00298768
5.57295e-05
0.00295976
0.000103351
0.00292197
0.000140845
0.00287786
0.000165708
0.00283101
0.000177643
0.00278449
0.000178216
0.00274057
0.00017006
0.00270068
0.000156101
0.00266552
0.000138999
0.00263522
0.000120863
0.00260957
0.000103176
0.00258812
8.68571e-05
0.00257034
7.23776e-05
0.00255568
5.98906e-05
0.00254364
4.93439e-05
0.00253374
4.05723e-05
0.0025256
3.33637e-05
0.00251887
2.74972e-05
0.00251327
2.27467e-05
0.00250861
1.88525e-05
0.00250474
1.54888e-05
0.00250163
1.22704e-05
0.00249932
8.83439e-06
0.0024979
4.9884e-06
0.00249745
8.5309e-07
0.00249793
-3.10076e-06
0.00249914
-6.18385e-06
0.00250074
-7.75871e-06
0.00250229
-7.52659e-06
0.00250343
-5.68324e-06
0.00250391
-2.86133e-06
0.00250369
1.08288e-07
0.00250293
2.49263e-06
0.00250186
3.87169e-06
0.00250073
4.19539e-06
0.00249976
3.69541e-06
0.00249904
2.72796e-06
0.00249863
1.63107e-06
0.00249847
6.44203e-07
0.00249852
-1.07853e-07
0.0024987
-5.92055e-07
0.00249894
-8.33289e-07
0.00249918
-8.85696e-07
0.0024994
-8.12901e-07
0.00249957
-6.74968e-07
0.00249969
-5.19896e-07
0.00249978
-3.79223e-07
0.00249984
-2.67949e-07
0.00249988
-1.88125e-07
0.00249991
-1.34276e-07
0.00249993
-9.8531e-08
0.00249995
-7.39949e-08
0.00249996
-5.60669e-08
0.00249997
-4.22788e-08
0.00249998
-3.15043e-08
0.00249999
-2.32018e-08
0.00249999
-1.69694e-08
0.00249999
-1.2397e-08
0.00249999
-9.08085e-09
0.0025
-6.67415e-09
0.0025
-4.91383e-09
0.0025
-3.61603e-09
0.0025
-2.65564e-09
0.0025
-1.94547e-09
0.0025
-1.42191e-09
0.0025
-1.03703e-09
0.0025
-7.54482e-10
0.0025
-5.47092e-10
0.0025
-3.94813e-10
0.0025
-2.82994e-10
0.0025
-2.00928e-10
0.0025
-1.40763e-10
0.0025
-9.67166e-11
0.0025
-6.45257e-11
0.0025
-4.10468e-11
0.0025
-2.39682e-11
0.0025
-1.15888e-11
0.0025
-2.65979e-12
0.0025
3.73797e-12
0.0025
8.2791e-12
0.0025
1.14605e-11
0.0025
1.36465e-11
0.0025
1.51055e-11
0.0025
1.60342e-11
0.0025
1.65774e-11
0.0025
1.68411e-11
0.0025
1.69035e-11
0.0025
1.68215e-11
0.0025
1.66371e-11
0.0025
1.63811e-11
0.0025
1.60759e-11
0.0025
1.57379e-11
0.0025
1.5379e-11
0.0025
1.50082e-11
0.0025
1.46315e-11
0.0025
1.42537e-11
0.0025
1.3878e-11
0.0025
1.35069e-11
0.0025
1.31417e-11
0.0025
1.2784e-11
0.0025
1.2434e-11
0.0025
1.20927e-11
0.0025
1.17597e-11
0.0025
1.14359e-11
0.0025
1.11204e-11
0.0025
1.08141e-11
0.0025
1.05158e-11
0.0025
1.02263e-11
0.0025
9.94445e-12
0.0025
9.67095e-12
0.0025
9.40458e-12
0.0025
9.14608e-12
0.0025
8.89417e-12
0.0025
8.64967e-12
0.0025
8.41122e-12
0.0025
8.1797e-12
0.0025
7.95372e-12
0.0025
7.73424e-12
0.0025
7.51983e-12
0.0025
7.31152e-12
0.0025
7.10783e-12
0.0025
6.90986e-12
0.0025
6.71612e-12
0.0025
6.52775e-12
0.0025
6.34326e-12
0.0025
6.16383e-12
0.0025
5.98795e-12
0.0025
5.81685e-12
0.0025
5.64901e-12
0.0025
5.4857e-12
0.0025
5.32544e-12
0.0025
5.16944e-12
0.0025
5.01648e-12
0.0025
4.86721e-12
0.0025
4.72172e-12
0.0025
4.57803e-12
0.0025
4.44188e-12
0.0025
4.29953e-12
0.0025
4.18279e-12
0.0025
4.02232e-12
0.0025
3.97296e-12
0.0025
3.70332e-12
0.0025
3.9282e-12
3.23804e-12
0.00250257
-1.36884e-05
0.00251036
-4.13486e-05
0.00252389
-7.10556e-05
0.00254396
-0.000103681
0.00257154
-0.000139638
0.00260757
-0.000178109
0.00265264
-0.000217109
0.00270617
-0.000251706
0.00276626
-0.000276485
0.0028285
-0.000283535
0.00288719
-0.000268369
0.0029387
-0.000236326
0.00298012
-0.000190247
0.00300895
-0.00013261
0.00302333
-6.67455e-05
0.00302211
3.44207e-06
0.00300542
7.2423e-05
0.002975
0.000133766
0.0029341
0.000181746
0.00288677
0.000213041
0.00283703
0.000227387
0.00278821
0.00022703
0.00274269
0.000215581
0.00270185
0.000196945
0.00266626
0.000174592
0.00263591
0.000151207
0.00261046
0.000128633
0.00258934
0.000107977
0.00257194
8.9774e-05
0.00255767
7.41657e-05
0.00254596
6.1047e-05
0.00253635
5.01813e-05
0.00252843
4.12825e-05
0.00252187
3.40612e-05
0.00251639
2.82273e-05
0.00251179
2.34561e-05
0.00250793
1.93464e-05
0.00250477
1.54268e-05
0.00250235
1.12523e-05
0.00250076
6.58299e-06
0.00250005
1.55816e-06
0.00250021
-3.25522e-06
0.00250104
-7.01977e-06
0.00250224
-8.95616e-06
0.00250341
-8.69477e-06
0.0025042
-6.46942e-06
0.00250439
-3.05007e-06
0.00250395
5.4758e-07
0.00250301
3.42462e-06
0.00250182
5.06376e-06
0.00250062
5.40101e-06
0.00249959
4.7197e-06
0.00249886
3.45933e-06
0.00249845
2.04096e-06
0.00249833
7.67227e-07
0.00249842
-2.00295e-07
0.00249864
-8.1626e-07
0.00249892
-1.11194e-06
0.0024992
-1.15961e-06
0.00249943
-1.04586e-06
0.00249961
-8.52513e-07
0.00249973
-6.4386e-07
0.00249981
-4.60501e-07
0.00249986
-3.19923e-07
0.0024999
-2.22282e-07
0.00249992
-1.58412e-07
0.00249994
-1.16926e-07
0.00249996
-8.8548e-08
0.00249997
-6.75172e-08
0.00249998
-5.10277e-08
0.00249998
-3.79741e-08
0.00249999
-2.78795e-08
0.00249999
-2.03286e-08
0.00249999
-1.4826e-08
0.00249999
-1.08595e-08
0.0025
-7.9894e-09
0.0025
-5.88938e-09
0.0025
-4.33777e-09
0.0025
-3.18716e-09
0.0025
-2.33553e-09
0.0025
-1.70779e-09
0.0025
-1.24665e-09
0.0025
-9.08335e-10
0.0025
-6.60061e-10
0.0025
-4.77732e-10
0.0025
-3.43801e-10
0.0025
-2.45472e-10
0.0025
-1.73362e-10
0.0025
-1.20552e-10
0.0025
-8.1936e-11
0.0025
-5.37492e-11
0.0025
-3.32228e-11
0.0025
-1.832e-11
0.0025
-7.54621e-12
0.0025
1.98954e-13
0.0025
5.72252e-12
0.0025
9.61945e-12
0.0025
1.23253e-11
0.0025
1.41616e-11
0.0025
1.5363e-11
0.0025
1.61032e-11
0.0025
1.65083e-11
0.0025
1.6672e-11
0.0025
1.6662e-11
0.0025
1.65287e-11
0.0025
1.63084e-11
0.0025
1.60282e-11
0.0025
1.57072e-11
0.0025
1.53599e-11
0.0025
1.49966e-11
0.0025
1.46249e-11
0.0025
1.42501e-11
0.0025
1.38761e-11
0.0025
1.35057e-11
0.0025
1.31408e-11
0.0025
1.27829e-11
0.0025
1.24326e-11
0.0025
1.20907e-11
0.0025
1.17574e-11
0.0025
1.14329e-11
0.0025
1.11171e-11
0.0025
1.08101e-11
0.0025
1.05115e-11
0.0025
1.02216e-11
0.0025
9.93949e-12
0.0025
9.66565e-12
0.0025
9.39912e-12
0.0025
9.14037e-12
0.0025
8.8884e-12
0.0025
8.64372e-12
0.0025
8.40526e-12
0.0025
8.17362e-12
0.0025
7.94769e-12
0.0025
7.72815e-12
0.0025
7.51382e-12
0.0025
7.30547e-12
0.0025
7.1019e-12
0.0025
6.90393e-12
0.0025
6.71032e-12
0.0025
6.52198e-12
0.0025
6.33764e-12
0.0025
6.15826e-12
0.0025
5.98254e-12
0.0025
5.81151e-12
0.0025
5.64386e-12
0.0025
5.48062e-12
0.0025
5.32057e-12
0.0025
5.16464e-12
0.0025
5.01194e-12
0.0025
4.86276e-12
0.0025
4.7176e-12
0.0025
4.57396e-12
0.0025
4.43833e-12
0.0025
4.29596e-12
0.0025
4.17957e-12
0.0025
4.02028e-12
0.0025
3.96514e-12
0.0025
3.71159e-12
0.0025
3.87955e-12
3.27676e-12
0.00250241
-1.61027e-05
0.00250975
-4.86842e-05
0.00252262
-8.39222e-05
0.00254197
-0.000123038
0.00256908
-0.00016674
0.00260524
-0.000214277
0.00265157
-0.00026343
0.0027078
-0.00030794
0.00277221
-0.000340895
0.00283944
-0.000350761
0.0029025
-0.000331433
0.00295764
-0.000291468
0.00300194
-0.000234545
0.0030328
-0.000163472
0.00304814
-8.20787e-05
0.00304649
5.09081e-06
0.00302784
9.10688e-05
0.00299414
0.000167462
0.00294917
0.000226718
0.00289765
0.000264559
0.00284419
0.000280847
0.00279248
0.000278747
0.00274497
0.000263087
0.00270298
0.000238934
0.00266692
0.000210657
0.00263657
0.000181548
0.00261142
0.000153791
0.00259075
0.000128643
0.00257386
0.000106664
0.00256008
8.79486e-05
0.00254881
7.23113e-05
0.00253957
5.94245e-05
0.00253194
4.89152e-05
0.00252558
4.04165e-05
0.00252024
3.35704e-05
0.00251571
2.79864e-05
0.00251186
2.31922e-05
0.00250865
1.86367e-05
0.00250611
1.37995e-05
0.00250429
8.39506e-06
0.00250328
2.57626e-06
0.00250303
-3.00686e-06
0.00250339
-7.38548e-06
0.00250409
-9.6523e-06
0.00250477
-9.37254e-06
0.00250511
-6.81342e-06
0.00250493
-2.86932e-06
0.0025042
1.27521e-06
0.00250306
4.56877e-06
0.00250172
6.40391e-06
0.00250042
6.70317e-06
0.00249934
5.79786e-06
0.00249859
4.20687e-06
0.0024982
2.43325e-06
0.00249812
8.45213e-07
0.00249828
-3.5495e-07
0.00249857
-1.10692e-06
0.0024989
-1.44898e-06
0.00249922
-1.47551e-06
0.00249948
-1.30174e-06
0.00249966
-1.03638e-06
0.00249978
-7.62992e-07
0.00249985
-5.31762e-07
0.00249989
-3.61315e-07
0.00249992
-2.47847e-07
0.00249993
-1.76659e-07
0.00249995
-1.31724e-07
0.00249996
-1.00999e-07
0.00249997
-7.76546e-08
0.00249998
-5.88203e-08
0.00249999
-4.36589e-08
0.00249999
-3.18992e-08
0.00249999
-2.31593e-08
0.00249999
-1.68545e-08
0.0025
-1.2348e-08
0.0025
-9.09873e-09
0.0025
-6.71815e-09
0.0025
-4.95299e-09
0.0025
-3.6401e-09
0.0025
-2.66728e-09
0.0025
-1.95061e-09
0.0025
-1.42475e-09
0.0025
-1.03931e-09
0.0025
-7.56533e-10
0.0025
-5.48819e-10
0.0025
-3.96177e-10
0.0025
-2.84072e-10
0.0025
-2.01841e-10
0.0025
-1.41607e-10
0.0025
-9.75493e-11
0.0025
-6.53728e-11
0.0025
-4.19214e-11
0.0025
-2.48741e-11
0.0025
-1.25285e-11
0.0025
-3.63151e-12
0.0025
2.73608e-12
0.0025
7.25198e-12
0.0025
1.0412e-11
0.0025
1.25824e-11
0.0025
1.40301e-11
0.0025
1.49526e-11
0.0025
1.54934e-11
0.0025
1.57592e-11
0.0025
1.58265e-11
0.0025
1.57529e-11
0.0025
1.55793e-11
0.0025
1.53365e-11
0.0025
1.50461e-11
0.0025
1.47247e-11
0.0025
1.43837e-11
0.0025
1.40317e-11
0.0025
1.36747e-11
0.0025
1.33173e-11
0.0025
1.29623e-11
0.0025
1.26121e-11
0.0025
1.22681e-11
0.0025
1.19314e-11
0.0025
1.16025e-11
0.0025
1.12819e-11
0.0025
1.09698e-11
0.0025
1.0666e-11
0.0025
1.03708e-11
0.0025
1.00837e-11
0.0025
9.8049e-12
0.0025
9.53382e-12
0.0025
9.27061e-12
0.0025
9.0146e-12
0.0025
8.76598e-12
0.0025
8.52403e-12
0.0025
8.28899e-12
0.0025
8.06009e-12
0.0025
7.83766e-12
0.0025
7.62085e-12
0.0025
7.41008e-12
0.0025
7.20445e-12
0.0025
7.00447e-12
0.0025
6.8092e-12
0.0025
6.61921e-12
0.0025
6.43353e-12
0.0025
6.25281e-12
0.0025
6.07606e-12
0.0025
5.90395e-12
0.0025
5.73549e-12
0.0025
5.57142e-12
0.0025
5.41072e-12
0.0025
5.25414e-12
0.0025
5.10076e-12
0.0025
4.9512e-12
0.0025
4.80491e-12
0.0025
4.66184e-12
0.0025
4.52288e-12
0.0025
4.38511e-12
0.0025
4.25538e-12
0.0025
4.11888e-12
0.0025
4.00709e-12
0.0025
3.856e-12
0.0025
3.79631e-12
0.0025
3.56935e-12
0.0025
3.67875e-12
3.17913e-12
0.00250221
-1.83112e-05
0.00250894
-5.54199e-05
0.00252091
-9.58903e-05
0.00253927
-0.000141394
0.00256559
-0.00019306
0.00260171
-0.0002504
0.00264938
-0.000311096
0.00270889
-0.000367453
0.00277885
-0.000410855
0.0028525
-0.000424406
0.00292098
-0.000399919
0.00298054
-0.000351029
0.00302836
-0.000282365
0.00306176
-0.00019687
0.00307836
-9.86816e-05
0.00307626
7.19054e-06
0.00305519
0.000112142
0.00301732
0.000205336
0.00296714
0.000276898
0.0029103
0.00032139
0.0028522
0.000338956
0.00279693
0.000334014
0.00274707
0.000312946
0.0027038
0.000282207
0.00266727
0.000247181
0.00263704
0.00021178
0.00261233
0.000178501
0.00259228
0.000148696
0.00257604
0.000122898
0.00256288
0.000101109
0.00255216
8.3029e-05
0.00254337
6.82172e-05
0.00253609
5.61981e-05
0.00252999
4.65184e-05
0.00252481
3.87474e-05
0.00252037
3.2429e-05
0.00251654
2.70237e-05
0.00251326
2.19093e-05
0.00251057
1.64981e-05
0.0025085
1.04632e-05
0.00250711
3.96493e-06
0.00250638
-2.27848e-06
0.00250618
-7.18715e-06
0.00250627
-9.74373e-06
0.00250636
-9.4565e-06
0.00250616
-6.62128e-06
0.00250554
-2.2412e-06
0.00250446
2.35044e-06
0.00250306
5.9669e-06
0.00250155
7.91969e-06
0.00250013
8.11821e-06
0.00249899
6.93673e-06
0.00249823
4.96844e-06
0.00249787
2.79723e-06
0.00249785
8.60398e-07
0.00249809
-5.93456e-07
0.00249847
-1.4854e-06
0.00249888
-1.86169e-06
0.00249925
-1.84437e-06
0.00249953
-1.58503e-06
0.00249972
-1.22603e-06
0.00249984
-8.74019e-07
0.00249989
-5.89068e-07
0.00249992
-3.8887e-07
0.00249994
-2.62746e-07
0.00249995
-1.8801e-07
0.00249996
-1.42597e-07
0.00249997
-1.11313e-07
0.00249998
-8.64917e-08
0.00249998
-6.56219e-08
0.00249999
-4.84759e-08
0.00249999
-3.51636e-08
0.00249999
-2.53776e-08
0.0025
-1.84226e-08
0.0025
-1.35083e-08
0.0025
-9.97855e-09
0.0025
-7.38437e-09
0.0025
-5.44985e-09
0.0025
-4.00498e-09
0.0025
-2.93312e-09
0.0025
-2.14441e-09
0.0025
-1.56679e-09
0.0025
-1.14397e-09
0.0025
-8.33875e-10
0.0025
-6.05996e-10
0.0025
-4.38442e-10
0.0025
-3.15341e-10
0.0025
-2.25036e-10
0.0025
-1.58886e-10
0.0025
-1.10496e-10
0.0025
-7.51447e-11
0.0025
-4.93646e-11
0.0025
-3.06086e-11
0.0025
-1.70092e-11
0.0025
-7.19167e-12
0.0025
-1.47728e-13
0.0025
4.86617e-12
0.0025
8.39396e-12
0.0025
1.08371e-11
0.0025
1.24883e-11
0.0025
1.35641e-11
0.0025
1.42215e-11
0.0025
1.45774e-11
0.0025
1.47155e-11
0.0025
1.46988e-11
0.0025
1.45719e-11
0.0025
1.43686e-11
0.0025
1.41123e-11
0.0025
1.38212e-11
0.0025
1.35075e-11
0.0025
1.3181e-11
0.0025
1.28477e-11
0.0025
1.25128e-11
0.0025
1.21793e-11
0.0025
1.18499e-11
0.0025
1.1526e-11
0.0025
1.12088e-11
0.0025
1.08989e-11
0.0025
1.05968e-11
0.0025
1.03026e-11
0.0025
1.00165e-11
0.0025
9.73838e-12
0.0025
9.46811e-12
0.0025
9.2056e-12
0.0025
8.95051e-12
0.0025
8.7028e-12
0.0025
8.46202e-12
0.0025
8.22815e-12
0.0025
8.00069e-12
0.0025
7.7797e-12
0.0025
7.56459e-12
0.0025
7.35552e-12
0.0025
7.15184e-12
0.0025
6.95378e-12
0.0025
6.76066e-12
0.0025
6.57279e-12
0.0025
6.38944e-12
0.0025
6.21099e-12
0.0025
6.0367e-12
0.0025
5.86698e-12
0.0025
5.70108e-12
0.0025
5.53949e-12
0.0025
5.38141e-12
0.0025
5.22737e-12
0.0025
5.07659e-12
0.0025
4.92962e-12
0.0025
4.78574e-12
0.0025
4.64537e-12
0.0025
4.50819e-12
0.0025
4.37393e-12
0.0025
4.24369e-12
0.0025
4.11443e-12
0.0025
3.99285e-12
0.0025
3.86491e-12
0.0025
3.75942e-12
0.0025
3.61964e-12
0.0025
3.5566e-12
0.0025
3.35837e-12
0.0025
3.41891e-12
3.01357e-12
0.00250194
-2.0256e-05
0.00250791
-6.13837e-05
0.00251869
-0.000106674
0.00253567
-0.000158367
0.00256077
-0.00021817
0.00259651
-0.000286138
0.00264549
-0.00036007
0.00270886
-0.000430825
0.00278587
-0.00048787
0.00286765
-0.000506188
0.00294269
-0.000474956
0.00300747
-0.000415808
0.00305948
-0.000334377
0.00309599
-0.000233377
0.00311423
-0.000116922
0.00311164
9.78037e-06
0.00308758
0.000136206
0.00304449
0.000248423
0.00298782
0.000333563
0.00292444
0.000384773
0.0028607
0.000402701
0.00280123
0.000393484
0.00274868
0.000365493
0.00270403
0.000326856
0.00266712
0.000284093
0.00263715
0.000241747
0.00261308
0.000202574
0.00259383
0.000167949
0.00257842
0.000138307
0.00256602
0.000113503
0.00255597
9.30848e-05
0.00254771
7.64699e-05
0.00254085
6.3065e-05
0.00253505
5.23208e-05
0.00253006
4.37291e-05
0.00252572
3.67681e-05
0.00252191
3.0837e-05
0.00251857
2.52517e-05
0.0025157
1.9368e-05
0.00251334
1.28222e-05
0.00251153
5.77764e-06
0.00251025
-9.96596e-07
0.00250939
-6.33375e-06
0.00250878
-9.12883e-06
0.00250817
-8.84443e-06
0.00250734
-5.80024e-06
0.00250619
-1.0895e-06
0.00250471
3.8305e-06
0.00250302
7.65897e-06
0.0025013
9.63746e-06
0.00249976
9.66208e-06
0.00249855
8.14311e-06
0.00249778
5.74139e-06
0.00249746
3.12055e-06
0.00249752
7.92251e-07
0.00249787
-9.40769e-07
0.00249836
-1.97595e-06
0.00249887
-2.36897e-06
0.0024993
-2.27716e-06
0.00249962
-1.89883e-06
0.00249981
-1.4189e-06
0.00249991
-9.71645e-07
0.00249994
-6.26973e-07
0.00249995
-3.98501e-07
0.00249996
-2.64651e-07
0.00249996
-1.91549e-07
0.00249997
-1.49428e-07
0.00249997
-1.19643e-07
0.00249998
-9.41527e-08
0.00249999
-7.14391e-08
0.00249999
-5.23448e-08
0.00249999
-3.75661e-08
0.0025
-2.68935e-08
0.0025
-1.94711e-08
0.0025
-1.43073e-08
0.0025
-1.06108e-08
0.0025
-7.87657e-09
0.0025
-5.81932e-09
0.0025
-4.27399e-09
0.0025
-3.12656e-09
0.0025
-2.28416e-09
0.0025
-1.66906e-09
0.0025
-1.21963e-09
0.0025
-8.90075e-10
0.0025
-6.47723e-10
0.0025
-4.69383e-10
0.0025
-3.38308e-10
0.0025
-2.42156e-10
0.0025
-1.71739e-10
0.0025
-1.20233e-10
0.0025
-8.26006e-11
0.0025
-5.51472e-11
0.0025
-3.51629e-11
0.0025
-2.06617e-11
0.0025
-1.01815e-11
0.0025
-2.64983e-12
0.0025
2.72431e-12
0.0025
6.51958e-12
0.0025
9.16281e-12
0.0025
1.09651e-11
0.0025
1.21564e-11
0.0025
1.29037e-11
0.0025
1.33308e-11
0.0025
1.35267e-11
0.0025
1.35583e-11
0.0025
1.34725e-11
0.0025
1.33054e-11
0.0025
1.30816e-11
0.0025
1.28204e-11
0.0025
1.25345e-11
0.0025
1.22342e-11
0.0025
1.19261e-11
0.0025
1.16154e-11
0.0025
1.13054e-11
0.0025
1.09988e-11
0.0025
1.06971e-11
0.0025
1.04016e-11
0.0025
1.01128e-11
0.0025
9.83135e-12
0.0025
9.55732e-12
0.0025
9.29092e-12
0.0025
9.03199e-12
0.0025
8.78051e-12
0.0025
8.53627e-12
0.0025
8.29909e-12
0.0025
8.06877e-12
0.0025
7.84502e-12
0.0025
7.6277e-12
0.0025
7.41645e-12
0.0025
7.21119e-12
0.0025
7.01151e-12
0.0025
6.8174e-12
0.0025
6.6284e-12
0.0025
6.44457e-12
0.0025
6.26543e-12
0.0025
6.0911e-12
0.0025
5.92108e-12
0.0025
5.75554e-12
0.0025
5.59394e-12
0.0025
5.43653e-12
0.0025
5.28276e-12
0.0025
5.1329e-12
0.0025
4.9864e-12
0.0025
4.84357e-12
0.0025
4.70386e-12
0.0025
4.5676e-12
0.0025
4.43432e-12
0.0025
4.30421e-12
0.0025
4.17716e-12
0.0025
4.05274e-12
0.0025
3.93217e-12
0.0025
3.81242e-12
0.0025
3.69981e-12
0.0025
3.58151e-12
0.0025
3.48292e-12
0.0025
3.35545e-12
0.0025
3.29055e-12
0.0025
3.11929e-12
0.0025
3.14358e-12
2.81573e-12
0.00250161
-2.18705e-05
0.00250661
-6.63745e-05
0.00251586
-0.000115927
0.00253096
-0.00017347
0.00255426
-0.000241473
0.00258907
-0.000320944
0.00263912
-0.000410114
0.00270692
-0.000498626
0.00279288
-0.000573828
0.00288492
-0.000598236
0.00296772
-0.000557754
0.00303848
-0.000486565
0.00309533
-0.000391233
0.00313562
-0.00027366
0.00315607
-0.000137371
0.00315311
1.27336e-05
0.00312546
0.000163857
0.00307587
0.00029801
0.0030111
0.000398339
0.00293963
0.000456242
0.0028691
0.000473232
0.00280475
0.000457837
0.00274924
0.000420998
0.00270323
0.000372865
0.00266611
0.000321214
0.00263666
0.0002712
0.00261348
0.00022575
0.00259527
0.000186162
0.00258089
0.000152687
0.00256942
0.000124968
0.00256016
0.00010235
0.00255254
8.40857e-05
0.00254616
6.94453e-05
0.00254071
5.77748e-05
0.00253595
4.84844e-05
0.00253173
4.09872e-05
0.00252794
3.46269e-05
0.00252453
2.8669e-05
0.00252147
2.24253e-05
0.00251879
1.5503e-05
0.0025165
8.0634e-06
0.0025146
9.08326e-07
0.002513
-4.737e-06
0.00251158
-7.70746e-06
0.00251017
-7.4349e-06
0.00250863
-4.25846e-06
0.00250688
6.60448e-07
0.00250494
5.77056e-06
0.00250291
9.68297e-06
0.00250097
1.15823e-05
0.00249928
1.13501e-05
0.002498
9.42325e-06
0.00249722
6.5216e-06
0.00249695
3.3878e-06
0.00249713
6.1561e-07
0.00249762
-1.42703e-06
0.00249825
-2.60717e-06
0.00249887
-2.99209e-06
0.00249938
-2.7849e-06
0.00249972
-2.24451e-06
0.00249992
-1.6098e-06
0.00249999
-1.04807e-06
0.0025
-6.38265e-07
0.00249999
-3.85265e-07
0.00249998
-2.511e-07
0.00249997
-1.86618e-07
0.00249997
-1.52452e-07
0.00249998
-1.26414e-07
0.00249999
-1.00906e-07
0.00249999
-7.63232e-08
0.0025
-5.51806e-08
0.0025
-3.89859e-08
0.0025
-2.7611e-08
0.0025
-1.99446e-08
0.0025
-1.47199e-08
0.0025
-1.09856e-08
0.0025
-8.1893e-09
0.0025
-6.05593e-09
0.0025
-4.4414e-09
0.0025
-3.24244e-09
0.0025
-2.36588e-09
0.0025
-1.72875e-09
0.0025
-1.26433e-09
0.0025
-9.23757e-10
0.0025
-6.72967e-10
0.0025
-4.88195e-10
0.0025
-3.52337e-10
0.0025
-2.52705e-10
0.0025
-1.79774e-10
0.0025
-1.26446e-10
0.0025
-8.74837e-11
0.0025
-5.90548e-11
0.0025
-3.8354e-11
0.0025
-2.33265e-11
0.0025
-1.24597e-11
0.0025
-4.64274e-12
0.0025
9.4318e-13
0.0025
4.89727e-12
0.0025
7.66107e-12
0.0025
9.55639e-12
0.0025
1.08211e-11
0.0025
1.16275e-11
0.0025
1.21037e-11
0.0025
1.23416e-11
0.0025
1.24099e-11
0.0025
1.23573e-11
0.0025
1.22207e-11
0.0025
1.20256e-11
0.0025
1.17917e-11
0.0025
1.1532e-11