/*--------------------------------*- C++ -*----------------------------------*\
  =========                 |
  \\      /  F ield         | OpenFOAM: The Open Source CFD Toolbox
   \\    /   O peration     | Website:  https://openfoam.org
    \\  /    A nd           | Version:  11
     \\/     M anipulation  |
\*---------------------------------------------------------------------------*/
FoamFile
{
    format      ascii;
    class       surfaceScalarField;
    location    "6.141484";
    object      phi;
}
// * * * * * * * * * * * * * * * * * * * * * * * * * * * * * * * * * * * * * //

dimensions      [0 3 -1 0 0 0 0];

internalField   nonuniform List<scalar> 
14638
(
0.00250288
-2.87926e-06
0.00251157
-8.68881e-06
0.00252643
-1.48575e-05
0.00254793
-2.15091e-05
0.00257661
-2.86787e-05
0.00261278
-3.61689e-05
0.00265637
-4.35886e-05
0.00270653
-5.01553e-05
0.00276156
-5.50299e-05
0.00281887
-5.73105e-05
0.00287536
-5.64956e-05
0.00292865
-5.32873e-05
0.00297698
-4.833e-05
0.00301926
-4.22806e-05
0.003055
-3.57382e-05
0.00308411
-2.9109e-05
0.00310676
-2.26529e-05
0.00312325
-1.64869e-05
0.00313385
-1.06042e-05
0.00313875
-4.89919e-06
0.00313796
7.88717e-07
0.00313135
6.61387e-06
0.0031187
1.26443e-05
0.00309991
1.87958e-05
0.0030751
2.48046e-05
0.00304484
3.0266e-05
0.00301011
3.47301e-05
0.00297229
3.78207e-05
0.00293296
3.93308e-05
0.00289369
3.92643e-05
0.00285587
3.78178e-05
0.00282055
3.53223e-05
0.00278838
3.21675e-05
0.00275965
2.87325e-05
0.00273432
2.53349e-05
0.00271211
2.2202e-05
0.00269265
1.94644e-05
0.00267548
1.71652e-05
0.0026602
1.52809e-05
0.00264646
1.37447e-05
0.00263399
1.24709e-05
0.00262261
1.13736e-05
0.00261223
1.03805e-05
0.00260279
9.43966e-06
0.00259427
8.52127e-06
0.00258666
7.61587e-06
0.00257993
6.72964e-06
0.00257405
5.87898e-06
0.00256896
5.08497e-06
0.0025646
4.36855e-06
0.00256085
3.74678e-06
0.00255762
3.23044e-06
0.0025548
2.8228e-06
0.00255228
2.51974e-06
0.00254996
2.31066e-06
0.00254778
2.18016e-06
0.00254567
2.11004e-06
0.00254359
2.08138e-06
0.00254152
2.07631e-06
0.00253944
2.07952e-06
0.00253736
2.07911e-06
0.00253529
2.06705e-06
0.00253325
2.03907e-06
0.00253126
1.99423e-06
0.00252932
1.93425e-06
0.00252746
1.86268e-06
0.00252568
1.78408e-06
0.00252397
1.70328e-06
0.00252235
1.62482e-06
0.0025208
1.55243e-06
0.00251931
1.48884e-06
0.00251787
1.4356e-06
0.00251648
1.39315e-06
0.00251512
1.36092e-06
0.00251378
1.33757e-06
0.00251246
1.32124e-06
0.00251115
1.30983e-06
0.00250985
1.30125e-06
0.00250855
1.29364e-06
0.00250727
1.28553e-06
0.00250599
1.27586e-06
0.00250473
1.26405e-06
0.00250348
1.24991e-06
0.00250225
1.23351e-06
0.00250103
1.21515e-06
0.00249983
1.1952e-06
0.00249866
1.17401e-06
0.00249751
1.15186e-06
0.00249638
1.12891e-06
0.00249528
1.10513e-06
0.00249419
1.08028e-06
0.00249314
1.0539e-06
0.00249212
1.02535e-06
0.00249112
9.93896e-07
0.00249016
9.58837e-07
0.00248924
9.19552e-07
0.00248837
8.75336e-07
0.00248754
8.24879e-07
0.00248678
7.65338e-07
0.00248609
6.91172e-07
0.00248549
5.93235e-07
0.00248503
4.58825e-07
0.00248476
2.73405e-07
0.00248474
2.43508e-08
0.00248503
-2.93664e-07
0.0024857
-6.72942e-07
0.00248679
-1.0887e-06
0.00248829
-1.4988e-06
0.00249014
-1.84865e-06
0.00249222
-2.08125e-06
0.00249437
-2.15025e-06
0.0024964
-2.03268e-06
0.00249814
-1.73731e-06
0.00249945
-1.30552e-06
0.00250025
-8.03855e-07
0.00250056
-3.09815e-07
0.00250046
1.05031e-07
0.00250007
3.90003e-07
0.00249954
5.24249e-07
0.00249902
5.17677e-07
0.00249862
4.04459e-07
0.00249839
2.3176e-07
0.00249834
4.73302e-08
0.00249845
-1.10637e-07
0.00249867
-2.19263e-07
0.00249894
-2.71854e-07
0.00249922
-2.74832e-07
0.00249946
-2.42493e-07
0.00249965
-1.91498e-07
0.00249979
-1.36536e-07
0.00249987
-8.78605e-08
0.00249993
-5.0697e-08
0.00249995
-2.60213e-08
0.00249996
-1.20206e-08
0.00249997
-5.62456e-09
0.00249997
-3.70502e-09
0.00249998
-3.784e-09
0.00249998
-4.28178e-09
0.00249999
-4.44083e-09
0.00249999
-4.08673e-09
0.00249999
-3.35918e-09
0.0025
-2.49516e-09
0.0025
-1.69619e-09
0.0025
-1.07489e-09
0.0025
-6.56998e-10
0.0025
-4.10788e-10
0.0025
-2.8124e-10
0.0025
-2.15774e-10
0.0025
-1.77196e-10
0.0025
-1.458e-10
0.0025
-1.15067e-10
0.0025
-8.55672e-11
0.0025
-5.98806e-11
0.0025
-3.983e-11
0.0025
-2.55983e-11
0.0025
-1.62438e-11
0.0025
-1.01886e-11
0.0025
-6.36206e-12
0.0025
-3.43174e-12
-9.91514e-13
0.00250285
-5.73209e-06
0.00251147
-1.73043e-05
0.00252622
-2.96102e-05
0.00254763
-4.29176e-05
0.00257626
-5.73095e-05
0.00261249
-7.24034e-05
0.00265633
-8.74228e-05
0.00270694
-0.000100764
0.00276262
-0.000110711
0.00282065
-0.000115345
0.00287777
-0.000113611
0.00293152
-0.000107041
0.00298015
-9.69628e-05
0.00302259
-8.47205e-05
0.00305839
-7.1529e-05
0.00308748
-5.8201e-05
0.00311008
-4.5254e-05
0.00312651
-3.29178e-05
0.00313708
-2.1172e-05
0.00314197
-9.7944e-06
0.00314121
1.55113e-06
0.00313463
1.31911e-05
0.003122
2.52765e-05
0.00310315
3.76439e-05
0.0030782
4.97572e-05
0.00304768
6.07856e-05
0.00301261
6.98031e-05
0.00297439
7.60354e-05
0.00293466
7.90585e-05
0.00289505
7.88828e-05
0.00285695
7.59146e-05
0.00282144
7.08321e-05
0.00278918
6.44312e-05
0.00276043
5.74827e-05
0.00273513
5.06289e-05
0.00271301
4.43269e-05
0.00269363
3.88362e-05
0.00267656
3.42392e-05
0.00266136
3.0483e-05
0.00264767
2.74292e-05
0.00263524
2.49013e-05
0.00262389
2.27245e-05
0.00261352
2.07518e-05
0.00260408
1.88787e-05
0.00259556
1.70458e-05
0.00258794
1.52349e-05
0.00258121
1.34596e-05
0.00257533
1.17537e-05
0.00257026
1.01608e-05
0.0025659
8.72347e-06
0.00256217
7.47666e-06
0.00255896
6.44226e-06
0.00255616
5.62699e-06
0.00255366
5.02246e-06
0.00255136
4.60717e-06
0.00254919
4.34992e-06
0.00254709
4.21386e-06
0.00254501
4.16066e-06
0.00254293
4.15427e-06
0.00254084
4.16374e-06
0.00253876
4.16517e-06
0.00253668
4.14241e-06
0.00253463
4.08702e-06
0.00253263
3.99724e-06
0.00253069
3.87667e-06
0.00252882
3.7326e-06
0.00252703
3.57432e-06
0.00252532
3.41167e-06
0.00252369
3.25382e-06
0.00252214
3.10835e-06
0.00252064
2.98075e-06
0.00251921
2.87413e-06
0.00251781
2.78936e-06
0.00251644
2.72526e-06
0.0025151
2.6791e-06
0.00251378
2.64709e-06
0.00251246
2.62495e-06
0.00251115
2.60848e-06
0.00250985
2.5939e-06
0.00250856
2.57822e-06
0.00250728
2.55936e-06
0.00250601
2.53615e-06
0.00250475
2.5082e-06
0.00250351
2.47574e-06
0.00250228
2.43936e-06
0.00250108
2.39981e-06
0.00249989
2.35784e-06
0.00249873
2.31402e-06
0.00249759
2.26868e-06
0.00249647
2.22179e-06
0.00249538
2.17288e-06
0.00249431
2.12104e-06
0.00249328
2.065e-06
0.00249227
2.00328e-06
0.00249129
1.93445e-06
0.00249035
1.85723e-06
0.00248946
1.77018e-06
0.00248861
1.67071e-06
0.00248782
1.55328e-06
0.00248711
1.4071e-06
0.00248649
1.21433e-06
0.002486
9.50054e-07
0.00248568
5.85639e-07
0.00248561
9.5989e-08
0.00248585
-5.29851e-07
0.00248645
-1.27733e-06
0.00248746
-2.09822e-06
0.00248887
-2.90981e-06
0.00249063
-3.60445e-06
0.00249262
-4.06913e-06
0.00249468
-4.21149e-06
0.00249663
-3.98507e-06
0.0024983
-3.40617e-06
0.00249955
-2.55592e-06
0.00250031
-1.56569e-06
0.00250059
-5.892e-07
0.00250046
2.31178e-07
0.00250006
7.94188e-07
0.00249953
1.05772e-06
0.002499
1.04095e-06
0.0024986
8.11608e-07
0.00249836
4.63635e-07
0.00249832
9.24554e-08
0.00249843
-2.2538e-07
0.00249866
-4.43851e-07
0.00249894
-5.49381e-07
0.00249922
-5.54799e-07
0.00249946
-4.88888e-07
0.00249966
-3.85306e-07
0.00249979
-2.73802e-07
0.00249988
-1.75189e-07
0.00249993
-1.00088e-07
0.00249995
-5.04636e-08
0.00249997
-2.25875e-08
0.00249997
-1.01533e-08
0.00249997
-6.73908e-09
0.00249998
-7.2658e-09
0.00249998
-8.51155e-09
0.00249999
-8.95399e-09
0.00249999
-8.27305e-09
0.00249999
-6.79034e-09
0.0025
-5.01777e-09
0.0025
-3.38284e-09
0.0025
-2.12058e-09
0.0025
-1.28143e-09
0.0025
-7.95734e-10
0.0025
-5.46693e-10
0.0025
-4.24499e-10
0.0025
-3.52821e-10
0.0025
-2.92361e-10
0.0025
-2.31185e-10
0.0025
-1.71626e-10
0.0025
-1.19662e-10
0.0025
-7.92783e-11
0.0025
-5.08508e-11
0.0025
-3.23461e-11
0.0025
-2.04848e-11
0.0025
-1.29853e-11
0.0025
-7.30019e-12
-2.32874e-12
0.0025028
-8.53156e-06
0.00251126
-2.57656e-05
0.0025258
-4.41458e-05
0.00254699
-6.41123e-05
0.00257551
-8.58289e-05
0.00261186
-0.000108755
0.00265618
-0.00013174
0.0027077
-0.000152288
0.00276471
-0.00016772
0.00282422
-0.000174857
0.0028826
-0.000171983
0.00293728
-0.00016173
0.00298652
-0.000146197
0.00302927
-0.000127471
0.00306516
-0.000107416
0.00309421
-8.7251e-05
0.0031167
-6.77465e-05
0.00313302
-4.92348e-05
0.00314351
-3.16683e-05
0.0031484
-1.4686e-05
0.0031477
2.25531e-06
0.0031412
1.96913e-05
0.00312859
3.78858e-05
0.00310963
5.66065e-05
0.00308436
7.50253e-05
0.00305331
9.18398e-05
0.00301752
0.000105593
0.00297848
0.000115068
0.00293794
0.000119603
0.0028976
0.000119224
0.00285894
0.000114573
0.00282306
0.000106712
0.00279061
9.68769e-05
0.00276184
8.62554e-05
0.00273664
7.58292e-05
0.00271468
6.62894e-05
0.00269549
5.802e-05
0.0026786
5.11332e-05
0.00266355
4.55352e-05
0.00264997
4.10037e-05
0.00263761
3.72624e-05
0.0026263
3.40405e-05
0.00261593
3.11129e-05
0.00260649
2.83211e-05
0.00259796
2.55773e-05
0.00259034
2.28567e-05
0.00258361
2.0183e-05
0.00257776
1.76104e-05
0.00257271
1.52071e-05
0.0025684
1.30395e-05
0.00256471
1.11616e-05
0.00256155
9.6071e-06
0.00255879
8.38605e-06
0.00255632
7.48532e-06
0.00255406
6.87167e-06
0.00255191
6.49702e-06
0.00254982
6.30479e-06
0.00254775
6.23633e-06
0.00254566
6.23659e-06
0.00254357
6.25854e-06
0.00254147
6.266e-06
0.00253938
6.2348e-06
0.00253731
6.15249e-06
0.00253529
6.01689e-06
0.00253333
5.8339e-06
0.00253145
5.61497e-06
0.00252965
5.37454e-06
0.00252793
5.12777e-06
0.0025263
4.88871e-06
0.00252474
4.66892e-06
0.00252324
4.47671e-06
0.0025218
4.31677e-06
0.0025204
4.19029e-06
0.00251903
4.09539e-06
0.00251768
4.02778e-06
0.00251635
3.9816e-06
0.00251502
3.95029e-06
0.0025137
3.92736e-06
0.00251239
3.90707e-06
0.00251108
3.8849e-06
0.00250978
3.85772e-06
0.0025085
3.82382e-06
0.00250722
3.78268e-06
0.00250596
3.73471e-06
0.00250472
3.68088e-06
0.0025035
3.62238e-06
0.0025023
3.56039e-06
0.00250111
3.49581e-06
0.00249995
3.42916e-06
0.00249882
3.36043e-06
0.0024977
3.28895e-06
0.00249661
3.21341e-06
0.00249554
3.13187e-06
0.0024945
3.04212e-06
0.00249349
2.94193e-06
0.00249252
2.82928e-06
0.00249159
2.70192e-06
0.0024907
2.556e-06
0.00248987
2.38348e-06
0.00248911
2.16875e-06
0.00248844
1.88596e-06
0.00248789
1.49891e-06
0.00248751
9.65725e-07
0.00248736
2.49375e-07
0.0024875
-6.66843e-07
0.00248798
-1.76253e-06
0.00248885
-2.96787e-06
0.0024901
-4.16217e-06
0.00249169
-5.18738e-06
0.00249349
-5.87687e-06
0.00249538
-6.09362e-06
0.00249716
-5.76786e-06
0.00249867
-4.92233e-06
0.00249979
-3.67584e-06
0.00250045
-2.22204e-06
0.00250065
-7.88249e-07
0.00250047
4.14394e-07
0.00250003
1.23538e-06
0.00249947
1.61188e-06
0.00249894
1.57222e-06
0.00249853
1.21728e-06
0.00249831
6.87324e-07
0.00249828
1.2509e-07
0.00249841
-3.54718e-07
0.00249865
-6.83104e-07
0.00249894
-8.39861e-07
0.00249923
-8.4467e-07
0.00249948
-7.41423e-07
0.00249968
-5.8147e-07
0.00249981
-4.10244e-07
0.0024999
-2.59523e-07
0.00249994
-1.45454e-07
0.00249996
-7.08611e-08
0.00249997
-2.97888e-08
0.00249997
-1.23242e-08
0.00249997
-8.42509e-09
0.00249998
-1.01967e-08
0.00249998
-1.2689e-08
0.00249999
-1.36353e-08
0.00249999
-1.26513e-08
0.00249999
-1.03374e-08
0.0025
-7.55943e-09
0.0025
-5.01713e-09
0.0025
-3.08268e-09
0.0025
-1.82479e-09
0.0025
-1.12059e-09
0.0025
-7.76985e-10
0.0025
-6.17837e-10
0.0025
-5.24645e-10
0.0025
-4.39638e-10
0.0025
-3.48314e-10
0.0025
-2.57461e-10
0.0025
-1.78133e-10
0.0025
-1.17076e-10
0.0025
-7.47762e-11
0.0025
-4.77327e-11
0.0025
-3.06973e-11
0.0025
-1.99073e-11
0.0025
-1.18306e-11
-4.24155e-12
0.00250272
-1.12469e-05
0.00251093
-3.39834e-05
0.00252512
-5.83339e-05
0.00254596
-8.49549e-05
0.00257428
-0.000114143
0.00261077
-0.000145244
0.00265579
-0.000176762
0.0027087
-0.000205198
0.00276777
-0.000226791
0.00282958
-0.000236668
0.00288988
-0.000232277
0.00294598
-0.000217829
0.0029961
-0.000196321
0.00303929
-0.000170666
0.0030753
-0.000143424
0.00310426
-0.000116214
0.00312657
-9.00537e-05
0.0031427
-6.53615e-05
0.00315307
-4.20437e-05
0.00315796
-1.95679e-05
0.00315735
2.86448e-06
0.00315098
2.60567e-05
0.00313843
5.04357e-05
0.00311932
7.57185e-05
0.00309359
0.000100756
0.00306173
0.000123701
0.00302484
0.000142478
0.00298456
0.000155355
0.00294276
0.000161402
0.00290131
0.000160671
0.0028618
0.000154086
0.00282536
0.000143148
0.00279265
0.000129588
0.00276386
0.000115049
0.00273881
0.000100875
0.0027171
8.79956e-05
0.00269821
7.69128e-05
0.00268159
6.7753e-05
0.00266676
6.03625e-05
0.00265335
5.44174e-05
0.00264109
4.95263e-05
0.00262981
4.53122e-05
0.00261946
4.14663e-05
0.00261001
3.77751e-05
0.00260146
3.4124e-05
0.00259383
3.04852e-05
0.00258712
2.68969e-05
0.00258129
2.34383e-05
0.00257629
2.0206e-05
0.00257204
1.72932e-05
0.00256842
1.47749e-05
0.00256533
1.26972e-05
0.00256265
1.10736e-05
0.00256025
9.88539e-06
0.00255803
9.08601e-06
0.00255592
8.60886e-06
0.00255385
8.37593e-06
0.00255178
8.30669e-06
0.00254969
8.32594e-06
0.00254758
8.36981e-06
0.00254545
8.38957e-06
0.00254334
8.35308e-06
0.00254124
8.24429e-06
0.0025392
8.06118e-06
0.00253722
7.81265e-06
0.00253532
7.51501e-06
0.00253351
7.18846e-06
0.00253178
6.85399e-06
0.00253014
6.53089e-06
0.00252857
6.23492e-06
0.00252707
5.97729e-06
0.00252563
5.76422e-06
0.00252422
5.59711e-06
0.00252284
5.47316e-06
0.00252148
5.3863e-06
0.00252014
5.32836e-06
0.0025188
5.29027e-06
0.00251746
5.2631e-06
0.00251613
5.23905e-06
0.0025148
5.21198e-06
0.00251348
5.17775e-06
0.00251217
5.13416e-06
0.00251087
5.08066e-06
0.00250959
5.01796e-06
0.00250832
4.94749e-06
0.00250707
4.87097e-06
0.00250584
4.79004e-06
0.00250463
4.70601e-06
0.00250344
4.61963e-06
0.00250227
4.53093e-06
0.00250112
4.43909e-06
0.00249999
4.34239e-06
0.00249889
4.2383e-06
0.00249781
4.12378e-06
0.00249675
3.99576e-06
0.00249573
3.85134e-06
0.00249474
3.68739e-06
0.0024938
3.49877e-06
0.00249291
3.27513e-06
0.00249208
2.99661e-06
0.00249134
2.6303e-06
0.00249071
2.12999e-06
0.00249023
1.44185e-06
0.00248996
5.17897e-07
0.00248996
-6.64204e-07
0.00249028
-2.07927e-06
0.00249095
-3.63831e-06
0.00249197
-5.18608e-06
0.0024933
-6.51818e-06
0.00249484
-7.41798e-06
0.00249646
-7.70643e-06
0.00249798
-7.29142e-06
0.00249926
-6.20124e-06
0.00250017
-4.58985e-06
0.00250066
-2.70961e-06
0.00250073
-8.57579e-07
0.00250045
6.89846e-07
0.00249995
1.73545e-06
0.00249937
2.19712e-06
0.00249883
2.11279e-06
0.00249843
1.61625e-06
0.00249822
8.93482e-07
0.00249821
1.33944e-07
0.00249837
-5.10073e-07
0.00249863
-9.47166e-07
0.00249894
-1.1512e-06
0.00249925
-1.14963e-06
0.00249951
-1.00254e-06
0.00249971
-7.80057e-07
0.00249984
-5.44199e-07
0.00249992
-3.38236e-07
0.00249996
-1.83923e-07
0.00249997
-8.46441e-08
0.00249998
-3.16743e-08
0.00249997
-1.08952e-08
0.00249997
-8.14373e-09
0.00249998
-1.23988e-08
0.00249998
-1.6878e-08
0.00249999
-1.86264e-08
0.00249999
-1.73391e-08
0.00249999
-1.40528e-08
0.0025
-1.011e-08
0.0025
-6.55054e-09
0.0025
-3.90152e-09
0.0025
-2.23566e-09
0.0025
-1.35069e-09
0.0025
-9.53886e-10
0.0025
-7.89123e-10
0.0025
-6.91869e-10
0.0025
-5.88448e-10
0.0025
-4.6672e-10
0.0025
-3.4229e-10
0.0025
-2.3385e-10
0.0025
-1.51702e-10
0.0025
-9.61796e-11
0.0025
-6.16682e-11
0.0025
-4.04902e-11
0.0025
-2.70427e-11
0.0025
-1.70768e-11
-6.81102e-12
0.0025026
-1.38424e-05
0.00251047
-4.18537e-05
0.00252415
-7.20176e-05
0.00254446
-0.000105268
0.00257243
-0.000142107
0.00260903
-0.000181844
0.00265495
-0.000222684
0.00270974
-0.000259986
0.0027717
-0.00028875
0.00283673
-0.000301704
0.00289966
-0.000295207
0.00295765
-0.000275817
0.00300893
-0.000247601
0.00305267
-0.000214404
0.00308878
-0.000179542
0.00311759
-0.000145018
0.00313961
-0.000112079
0.00315546
-8.12116e-05
0.00316567
-5.22512e-05
0.00317055
-2.44486e-05
0.0031701
3.31682e-06
0.00316395
3.22007e-05
0.00315153
6.28648e-05
0.00313224
9.50026e-05
0.0031059
0.000127101
0.00307293
0.000156665
0.00303454
0.00018087
0.00299253
0.00019737
0.00294901
0.000204923
0.00290605
0.000203627
0.00286538
0.000194751
0.00282821
0.000180321
0.00279517
0.000162633
0.00276637
0.000143843
0.00274156
0.000125685
0.00272022
0.000109333
0.00270174
9.53964e-05
0.0026855
8.39928e-05
0.00267098
7.48828e-05
0.00265778
6.76153e-05
0.00264565
6.16635e-05
0.00263443
5.65302e-05
0.00262408
5.1816e-05
0.0026146
4.72509e-05
0.00260603
4.26961e-05
0.00259839
3.81262e-05
0.00259169
3.36002e-05
0.0025859
2.92282e-05
0.00258096
2.51407e-05
0.00257679
2.14619e-05
0.00257328
1.829e-05
0.00257029
1.56851e-05
0.0025677
1.36636e-05
0.00256539
1.21999e-05
0.00256324
1.12322e-05
0.00256117
1.0673e-05
0.00255913
1.04206e-05
0.00255707
1.03704e-05
0.00255497
1.04254e-05
0.00255283
1.0504e-05
0.00255068
1.05444e-05
0.00254852
1.05066e-05
0.0025464
1.03717e-05
0.00254432
1.01385e-05
0.00254231
9.8199e-06
0.00254039
9.43809e-06
0.00253856
9.01986e-06
0.00253682
8.5927e-06
0.00253517
8.18164e-06
0.0025336
7.80693e-06
0.00253209
7.48279e-06
0.00253064
7.21689e-06
0.00252922
7.01065e-06
0.00252784
6.86007e-06
0.00252647
6.75699e-06
0.00252511
6.6906e-06
0.00252375
6.64898e-06
0.00252239
6.62058e-06
0.00252103
6.59534e-06
0.00251968
6.56548e-06
0.00251833
6.52585e-06
0.00251699
6.47385e-06
0.00251566
6.40906e-06
0.00251435
6.33258e-06
0.00251305
6.24646e-06
0.00251177
6.15306e-06
0.0025105
6.0546e-06
0.00250926
5.95282e-06
0.00250803
5.84875e-06
0.00250682
5.74251e-06
0.00250562
5.63318e-06
0.00250444
5.51867e-06
0.00250329
5.39583e-06
0.00250215
5.26084e-06
0.00250104
5.10963e-06
0.00249995
4.93833e-06
0.00249889
4.74272e-06
0.00249788
4.51637e-06
0.0024969
4.24683e-06
0.00249599
3.91062e-06
0.00249515
3.46895e-06
0.00249441
2.86714e-06
0.00249382
2.0412e-06
0.0024934
9.3356e-07
0.00249322
-4.83251e-07
0.00249332
-2.1803e-06
0.00249373
-4.05223e-06
0.00249446
-5.91358e-06
0.00249546
-7.51883e-06
0.00249665
-8.60659e-06
0.0024979
-8.95976e-06
0.00249908
-8.46577e-06
0.00250003
-7.15789e-06
0.00250067
-5.22227e-06
0.00250092
-2.96532e-06
0.00250081
-7.48483e-07
0.00250041
1.09157e-06
0.00249983
2.31483e-06
0.00249921
2.82227e-06
0.00249866
2.66239e-06
0.00249827
2.00172e-06
0.00249809
1.0713e-06
0.00249812
1.0638e-07
0.00249832
-7.04048e-07
0.00249862
-1.24714e-06
0.00249896
-1.49199e-06
0.00249928
-1.47524e-06
0.00249955
-1.27474e-06
0.00249976
-9.80965e-07
0.00249989
-6.73706e-07
0.00249996
-4.08375e-07
0.00249998
-2.12355e-07
0.00249999
-8.90826e-08
0.00249998
-2.62512e-08
0.00249998
-4.6764e-09
0.00249997
-5.38199e-09
0.00249998
-1.38138e-08
0.00249998
-2.1244e-08
0.00249999
-2.41376e-08
0.00249999
-2.24882e-08
0.00249999
-1.79969e-08
0.0025
-1.26526e-08
0.0025
-7.92344e-09
0.0025
-4.50846e-09
0.0025
-2.45823e-09
0.0025
-1.45116e-09
0.0025
-1.06144e-09
0.0025
-9.34594e-10
0.0025
-8.56032e-10
0.0025
-7.40942e-10
0.0025
-5.87099e-10
0.0025
-4.25207e-10
0.0025
-2.85032e-10
0.0025
-1.81306e-10
0.0025
-1.13627e-10
0.0025
-7.32628e-11
0.0025
-4.94096e-11
0.0025
-3.42001e-11
0.0025
-2.29387e-11
-9.98361e-12
0.00250243
-1.62762e-05
0.00250983
-4.92532e-05
0.00252282
-8.50049e-05
0.00254237
-0.000124822
0.00256977
-0.000169507
0.00260639
-0.000218454
0.00265335
-0.000269651
0.00271053
-0.000317165
0.00277634
-0.000354559
0.00284568
-0.000371047
0.00291202
-0.000361548
0.00297238
-0.000336176
0.00302506
-0.000300273
0.0030694
-0.000258746
0.00310558
-0.000215718
0.0031341
-0.000173542
0.0031557
-0.000133678
0.00317114
-9.66543e-05
0.0031811
-6.22078e-05
0.00318597
-2.93197e-05
0.00318575
3.54e-06
0.00317995
3.79966e-05
0.00316776
7.50528e-05
0.00314834
0.000114424
0.00312127
0.000154176
0.00308691
0.000191021
0.00304657
0.000221208
0.00300231
0.00024163
0.00295656
0.000250676
0.00291166
0.000248524
0.00286953
0.000236883
0.00283144
0.000218408
0.00279801
0.000196066
0.00276926
0.000172594
0.00274479
0.000150152
0.00272396
0.000130166
0.00270602
0.000113334
0.00269028
9.97349e-05
0.00267616
8.90081e-05
0.00266323
8.05419e-05
0.00265124
7.36474e-05
0.00264008
6.76901e-05
0.00262973
6.21712e-05
0.00262022
5.67629e-05
0.00261161
5.13068e-05
0.00260395
4.5787e-05
0.00259726
4.02915e-05
0.00259151
3.49696e-05
0.00258666
2.99924e-05
0.0025826
2.55203e-05
0.00257922
2.1678e-05
0.00257636
1.85408e-05
0.0025739
1.61277e-05
0.00257169
1.44044e-05
0.00256963
1.32914e-05
0.00256763
1.2677e-05
0.00256562
1.24326e-05
0.00256356
1.24269e-05
0.00256145
1.25391e-05
0.00255928
1.26684e-05
0.00255709
1.27397e-05
0.00255489
1.27055e-05
0.00255271
1.25443e-05
0.0025506
1.22573e-05
0.00254855
1.18626e-05
0.0025466
1.13894e-05
0.00254475
1.08721e-05
0.002543
1.03458e-05
0.00254134
9.84168e-06
0.00253976
9.38496e-06
0.00253825
8.99293e-06
0.00253679
8.67463e-06
0.00253537
8.43125e-06
0.00253397
8.25721e-06
0.00253259
8.14183e-06
0.00253121
8.07121e-06
0.00252983
8.03024e-06
0.00252844
8.00441e-06
0.00252706
7.9812e-06
0.00252567
7.95114e-06
0.00252429
7.9081e-06
0.00252291
7.84922e-06
0.00252155
7.77433e-06
0.0025202
7.68517e-06
0.00251886
7.58457e-06
0.00251753
7.47565e-06
0.00251623
7.36131e-06
0.00251494
7.24381e-06
0.00251366
7.12452e-06
0.0025124
7.00372e-06
0.00251115
6.8804e-06
0.00250992
6.75216e-06
0.0025087
6.61529e-06
0.0025075
6.46508e-06
0.00250631
6.29644e-06
0.00250514
6.10431e-06
0.002504
5.88326e-06
0.00250289
5.62546e-06
0.00250182
5.31658e-06
0.0025008
4.9302e-06
0.00249985
4.42292e-06
0.00249898
3.73345e-06
0.00249824
2.78981e-06
0.00249764
1.52672e-06
0.00249725
-8.75486e-08
0.00249709
-2.02116e-06
0.00249719
-4.15536e-06
0.00249756
-6.2796e-06
0.00249815
-8.11378e-06
0.0024989
-9.35851e-06
0.00249971
-9.76423e-06
0.00250044
-9.20104e-06
0.00250099
-7.70706e-06
0.00250127
-5.49729e-06
0.00250123
-2.92638e-06
0.00250089
-4.13183e-07
0.00250033
1.65212e-06
0.00249965
2.99206e-06
0.00249898
3.49409e-06
0.00249843
3.21866e-06
0.00249806
2.36498e-06
0.00249793
1.20822e-06
0.002498
2.82902e-08
0.00249825
-9.50407e-07
0.0024986
-1.59493e-06
0.00249898
-1.87122e-06
0.00249933
-1.82705e-06
0.00249962
-1.56023e-06
0.00249982
-1.1836e-06
0.00249994
-7.96245e-07
0.0025
-4.66489e-07
0.00250001
-2.2726e-07
0.00250001
-8.12796e-08
0.00249999
-1.15251e-08
0.00249998
7.40824e-09
0.00249997
2.05473e-10
0.00249997
-1.45496e-08
0.00249998
-2.60815e-08
0.00249999
-3.04573e-08
0.00249999
-2.82821e-08
0.0025
-2.22299e-08
0.0025
-1.51552e-08
0.0025
-9.05911e-09
0.0025
-4.82304e-09
0.0025
-2.43211e-09
0.0025
-1.38819e-09
0.0025
-1.08753e-09
0.0025
-1.05466e-09
0.0025
-1.02174e-09
0.0025
-9.00844e-10
0.0025
-7.10542e-10
0.0025
-5.05058e-10
0.0025
-3.2947e-10
0.0025
-2.03687e-10
0.0025
-1.25489e-10
0.0025
-8.1546e-11
0.0025
-5.69604e-11
0.0025
-4.11471e-11
0.0025
-2.92218e-11
-1.36077e-11
0.00250222
-1.84987e-05
0.002509
-5.60353e-05
0.00252106
-9.70598e-05
0.00253955
-0.000143317
0.00256608
-0.000196033
0.0026025
-0.000254873
0.00265058
-0.000317735
0.00271069
-0.000377272
0.00278151
-0.000425383
0.00285647
-0.000446003
0.00292707
-0.00043215
0.00299027
-0.000399374
0.00304451
-0.000354517
0.00308945
-0.000303681
0.00312557
-0.000251838
0.00315365
-0.000201628
0.00317466
-0.000154685
0.00318956
-0.000111551
0.00319919
-7.18393e-05
0.00320407
-3.4199e-05
0.00320419
3.42264e-06
0.00319891
4.32752e-05
0.00318711
8.68453e-05
0.00316761
0.000133933
0.00313967
0.000182112
0.00310359
0.000227105
0.0030608
0.000263991
0.00301372
0.000288716
0.00296517
0.000299227
0.00291786
0.000295831
0.00287394
0.0002808
0.00283478
0.000257572
0.00280093
0.00022991
0.00277231
0.000201219
0.00274833
0.000174131
0.00272817
0.000150324
0.00271094
0.000130561
0.00269584
0.000114842
0.00268221
0.000102638
0.00266961
9.31358e-05
0.00265781
8.54504e-05
0.00264671
7.87889e-05
0.00263634
7.25435e-05
0.00262677
6.63286e-05
0.00261811
5.99716e-05
0.00261042
5.3476e-05
0.00260374
4.69696e-05
0.00259806
4.06509e-05
0.00259331
3.47405e-05
0.00258939
2.94407e-05
0.00258616
2.49073e-05
0.00258347
2.12317e-05
0.00258116
1.84353e-05
0.00257909
1.64726e-05
0.00257714
1.5243e-05
0.00257521
1.46069e-05
0.00257324
1.44046e-05
0.00257119
1.44749e-05
0.00256906
1.46707e-05
0.00256686
1.48705e-05
0.00256461
1.49851e-05
0.00256236
1.49597e-05
0.00256013
1.47718e-05
0.00255796
1.4426e-05
0.00255588
1.39473e-05
0.00255389
1.33734e-05
0.00255202
1.27479e-05
0.00255025
1.21143e-05
0.00254858
1.15109e-05
0.002547
1.09682e-05
0.00254548
1.05067e-05
0.00254402
1.01366e-05
0.00254259
9.85864e-06
0.00254119
9.66514e-06
0.00253979
9.54235e-06
0.00253838
9.47276e-06
0.00253698
9.43758e-06
0.00253556
9.41894e-06
0.00253414
9.40168e-06
0.00253272
9.37451e-06
0.0025313
9.3304e-06
0.00252988
9.26636e-06
0.00252847
9.18273e-06
0.00252707
9.08211e-06
0.00252569
8.96829e-06
0.00252432
8.84538e-06
0.00252296
8.71706e-06
0.00252162
8.5862e-06
0.00252029
8.45457e-06
0.00251897
8.32267e-06
0.00251766
8.18946e-06
0.00251636
8.0523e-06
0.00251507
7.90689e-06
0.00251379
7.74767e-06
0.00251252
7.56839e-06
0.00251126
7.36267e-06
0.00251002
7.12367e-06
0.0025088
6.84205e-06
0.00250762
6.50179e-06
0.00250647
6.07421e-06
0.00250538
5.51263e-06
0.00250437
4.75124e-06
0.00250344
3.71252e-06
0.00250264
2.3259e-06
0.002502
5.56742e-07
0.00250154
-1.56067e-06
0.00250128
-3.8972e-06
0.00250122
-6.22295e-06
0.00250134
-8.23099e-06
0.00250158
-9.59239e-06
0.00250184
-1.00326e-05
0.00250205
-9.40886e-06
0.00250211
-7.76476e-06
0.00250195
-5.34046e-06
0.00250156
-2.53179e-06
0.00250095
1.93815e-07
0.0025002
2.40132e-06
0.00249941
3.78274e-06
0.00249869
4.21641e-06
0.00249813
3.77658e-06
0.0024978
2.69505e-06
0.00249772
1.28997e-06
0.00249786
-1.15675e-07
0.00249818
-1.26364e-06
0.00249858
-2.00265e-06
0.00249901
-2.29764e-06
0.00249939
-2.21004e-06
0.00249969
-1.86039e-06
0.0024999
-1.38644e-06
0.00250001
-9.08463e-07
0.00250005
-5.08497e-07
0.00250005
-2.24777e-07
0.00250003
-5.82219e-08
0.0025
1.44139e-08
0.00249998
2.6232e-08
0.00249997
8.72672e-09
0.00249997
-1.49223e-08
0.00249998
-3.183e-08
0.00249999
-3.79493e-08
0.00249999
-3.49242e-08
0.0025
-2.67988e-08
0.0025
-1.75604e-08
0.0025
-9.85825e-09
0.0025
-4.75175e-09
0.0025
-2.09362e-09
0.0025
-1.13118e-09
0.0025
-1.02586e-09
0.0025
-1.15509e-09
0.0025
-1.19709e-09
0.0025
-1.07343e-09
0.0025
-8.38332e-10
0.0025
-5.8026e-10
0.0025
-3.64456e-10
0.0025
-2.16335e-10
0.0025
-1.30035e-10
0.0025
-8.5582e-11
0.0025
-6.27154e-11
0.0025
-4.76965e-11
0.0025
-3.57214e-11
-1.74886e-11
0.00250195
-2.0452e-05
0.00250795
-6.20271e-05
0.00251878
-0.000107894
0.00253583
-0.000160368
0.00256105
-0.000221251
0.00259693
-0.000290752
0.00264608
-0.000366885
0.00270967
-0.00044086
0.00278696
-0.000502672
0.00286914
-0.000528189
0.00294494
-0.000507946
0.00301142
-0.000465857
0.00306736
-0.000410452
0.00311281
-0.000349131
0.00314868
-0.000287712
0.00317607
-0.000229018
0.00319621
-0.000174827
0.00321032
-0.000125661
0.00321947
-8.09917e-05
0.00322434
-3.90669e-05
0.00322494
2.82324e-06
0.00322045
4.77709e-05
0.00320934
9.79521e-05
0.00318992
0.000153353
0.00316107
0.000210962
0.00312293
0.000265242
0.00307715
0.000309772
0.00302658
0.000339292
0.00297458
0.000351221
0.00292434
0.000346069
0.0028783
0.000326844
0.00283791
0.000297965
0.00280366
0.000264154
0.00277529
0.000229593
0.00275199
0.000197429
0.00273272
0.000169597
0.00271639
0.000146884
0.00270208
0.000129159
0.00268905
0.000115667
0.00267685
0.000105337
0.00266525
9.70517e-05
0.0026542
8.98329e-05
0.00264379
8.29539e-05
0.00263415
7.5972e-05
0.00262541
6.87099e-05
0.00261768
6.12026e-05
0.00261102
5.36313e-05
0.00260542
4.62564e-05
0.0026008
3.93581e-05
0.00259705
3.31887e-05
0.00259402
2.79389e-05
0.00259153
2.37185e-05
0.00258942
2.05499e-05
0.00258752
1.83737e-05
0.0025857
1.70636e-05
0.00258386
1.64472e-05
0.00258193
1.63291e-05
0.00257989
1.65139e-05
0.00257774
1.6825e-05
0.00257549
1.71185e-05
0.00257318
1.72906e-05
0.00257086
1.728e-05
0.00256857
1.70641e-05
0.00256634
1.66529e-05
0.00256421
1.608e-05
0.00256219
1.5394e-05
0.00256029
1.4649e-05
0.00255851
1.38983e-05
0.00255683
1.31883e-05
0.00255524
1.2555e-05
0.00255373
1.20223e-05
0.00255226
1.16016e-05
0.00255083
1.12924e-05
0.00254941
1.10845e-05
0.00254799
1.09604e-05
0.00254657
1.08983e-05
0.00254513
1.08751e-05
0.00254368
1.08692e-05
0.00254222
1.08625e-05
0.00254075
1.08418e-05
0.00253928
1.07993e-05
0.00253781
1.07321e-05
0.00253636
1.06412e-05
0.00253491
1.05304e-05
0.00253347
1.04047e-05
0.00253205
1.02695e-05
0.00253063
1.01293e-05
0.00252923
9.98765e-06
0.00252784
9.84692e-06
0.00252646
9.70782e-06
0.00252508
9.56937e-06
0.0025237
9.4287e-06
0.00252233
9.28098e-06
0.00252095
9.11976e-06
0.00251958
8.93757e-06
0.00251822
8.72655e-06
0.00251687
8.47825e-06
0.00251553
8.18177e-06
0.00251421
7.81948e-06
0.00251292
7.3611e-06
0.00251168
6.75801e-06
0.00251049
5.94205e-06
0.00250936
4.83294e-06
0.00250833
3.35763e-06
0.00250741
1.48056e-06
0.00250661
-7.61565e-07
0.00250595
-3.2321e-06
0.00250541
-5.68788e-06
0.00250498
-7.80408e-06
0.00250462
-9.23248e-06
0.00250427
-9.6828e-06
0.00250387
-9.00585e-06
0.00250336
-7.25189e-06
0.0025027
-4.68233e-06
0.00250189
-1.72577e-06
0.00250097
1.11257e-06
0.00250001
3.36355e-06
0.0024991
4.69736e-06
0.00249833
4.98862e-06
0.00249777
4.3276e-06
0.00249749
2.97845e-06
0.00249748
1.30077e-06
0.00249771
-3.41325e-07
0.0024981
-1.65782e-06
0.00249858
-2.48135e-06
0.00249906
-2.77845e-06
0.00249948
-2.62742e-06
0.00249979
-2.17487e-06
0.00249999
-1.58651e-06
0.00250009
-1.00591e-06
0.00250011
-5.29672e-07
0.00250009
-2.00817e-07
0.00250005
-1.69929e-08
0.00250001
5.31863e-08
0.00249998
5.23132e-08
0.00249997
1.9967e-08
0.00249997
-1.54824e-08
0.00249998
-3.90599e-08
0.00249999
-4.70213e-08
0.00249999
-4.26053e-08
0.0025
-3.17134e-08
0.0025
-1.97736e-08
0.0025
-1.01968e-08
0.0025
-4.1914e-09
0.0025
-1.38082e-09
0.0025
-6.57046e-10
0.0025
-8.78329e-10
0.0025
-1.24778e-09
0.0025
-1.39346e-09
0.0025
-1.2649e-09
0.0025
-9.714e-10
0.0025
-6.48528e-10
0.0025
-3.86757e-10
0.0025
-2.16542e-10
0.0025
-1.25603e-10
0.0025
-8.46165e-11
0.0025
-6.64234e-11
0.0025
-5.37764e-11
0.0025
-4.22857e-11
-2.14338e-11
0.00250162
-2.20693e-05
0.00250662
-6.70272e-05
0.00251589
-0.000117163
0.00253101
-0.000175488
0.00255432
-0.000244566
0.00258911
-0.000325546
0.00263909
-0.000416862
0.00270672
-0.00050849
0.00279234
-0.000588287
0.0028838
-0.000619657
0.00296583
-0.000589969
0.00303597