/*--------------------------------*- C++ -*----------------------------------*\
  =========                 |
  \\      /  F ield         | OpenFOAM: The Open Source CFD Toolbox
   \\    /   O peration     | Website:  https://openfoam.org
    \\  /    A nd           | Version:  11
     \\/     M anipulation  |
\*---------------------------------------------------------------------------*/
FoamFile
{
    format      ascii;
    class       surfaceScalarField;
    location    "9.899122";
    object      phi_0;
}
// * * * * * * * * * * * * * * * * * * * * * * * * * * * * * * * * * * * * * //

dimensions      [0 3 -1 0 0 0 0];

internalField   nonuniform List<scalar> 
14638
(
0.00250273
-2.73244e-06
0.00251091
-8.17794e-06
0.00252472
-1.38094e-05
0.0025444
-1.96833e-05
0.00257018
-2.5774e-05
0.00260201
-3.1829e-05
0.0026394
-3.73982e-05
0.00268107
-4.16624e-05
0.00272482
-4.37493e-05
0.00276765
-4.28366e-05
0.00280621
-3.85614e-05
0.00283823
-3.20182e-05
0.00286259
-2.43589e-05
0.00287944
-1.68479e-05
0.00289016
-1.07172e-05
0.00289674
-6.57942e-06
0.00290087
-4.1347e-06
0.00290301
-2.13993e-06
0.00290181
1.19773e-06
0.00289431
7.50217e-06
0.00287707
1.72356e-05
0.00284801
2.90644e-05
0.00280763
4.03753e-05
0.00275918
4.845e-05
0.00270785
5.13355e-05
0.00265975
4.81002e-05
0.00262107
3.86785e-05
0.00259739
2.36835e-05
0.002593
4.38854e-06
0.00261008
-1.70824e-05
0.00264743
-3.73525e-05
0.00269917
-5.17398e-05
0.00275454
-5.53687e-05
0.00280009
-4.55439e-05
0.00282403
-2.3939e-05
0.00282037
3.6536e-06
0.0027902
3.01709e-05
0.00273983
5.03692e-05
0.00267786
6.19741e-05
0.00261294
6.49142e-05
0.00255295
5.99963e-05
0.002505
4.79418e-05
0.00247594
2.9063e-05
0.00247235
3.59057e-06
0.00249975
-2.73961e-05
0.00256023
-6.04797e-05
0.00264914
-8.89133e-05
0.00275285
-0.000103707
0.00285028
-9.74301e-05
0.0029192
-6.89192e-05
0.00294456
-2.53655e-05
0.00292388
2.06823e-05
0.00286642
5.74552e-05
0.00278757
7.88518e-05
0.00270275
8.48248e-05
0.00262425
7.84972e-05
0.00256117
6.30812e-05
0.00252088
4.02917e-05
0.00251047
1.04127e-05
0.00253688
-2.64123e-05
0.00260508
-6.82046e-05
0.00271478
-0.000109696
0.00285735
-0.000142576
0.0030151
-0.00015775
0.00316361
-0.000148506
0.00327673
-0.000113115
0.00333294
-5.62138e-05
0.00332175
1.1194e-05
0.00324803
7.37179e-05
0.00313141
0.00011662
0.00299926
0.000132149
0.00287687
0.000122387
0.00278067
9.62017e-05
0.00271729
6.33789e-05
0.0026866
3.06884e-05
0.00268508
1.52683e-06
0.00270747
-2.23968e-05
0.00274695
-3.94777e-05
0.00279476
-4.78142e-05
0.00284073
-4.59608e-05
0.00287488
-3.41541e-05
0.00288991
-1.50307e-05
0.00288304
6.87137e-06
0.00285636
2.66808e-05
0.00281547
4.0887e-05
0.0027673
4.81699e-05
0.00271817
4.91272e-05
0.00267277
4.54084e-05
0.0026339
3.88683e-05
0.00260284
3.10592e-05
0.00257977
2.30713e-05
0.00256418
1.55857e-05
0.00255518
8.99669e-06
0.00255166
3.52363e-06
0.00255237
-7.1318e-07
0.00255603
-3.65475e-06
0.00256133
-5.29871e-06
0.00256704
-5.71416e-06
0.0025721
-5.05853e-06
0.00257568
-3.57899e-06
0.00257727
-1.58963e-06
0.0025767
5.72091e-07
0.0025741
2.59678e-06
0.00256985
4.24674e-06
0.00256447
5.37958e-06
0.00255852
5.94971e-06
0.00255253
5.99274e-06
0.00254693
5.60088e-06
0.00254203
4.89677e-06
0.00253802
4.01057e-06
0.00253496
3.06276e-06
0.00253281
2.15313e-06
0.00253145
1.35542e-06
0.00253074
7.16465e-07
0.00253048
2.58397e-07
0.00253049
-1.7314e-08
0.00253062
-1.2522e-07
0.00253071
-9.12421e-08
0.00253066
5.16739e-08
0.00253039
2.67496e-07
0.00252987
5.20633e-07
0.00252909
7.78928e-07
0.00252808
1.01593e-06
0.00252686
1.21231e-06
0.00252551
1.35644e-06
0.00252406
1.44404e-06
0.00252259
1.47722e-06
0.00252112
1.46301e-06
0.00251971
1.41167e-06
0.00251838
1.33499e-06
0.00251713
1.24484e-06
0.00251598
1.15192e-06
0.00251491
1.06501e-06
0.00251392
9.90492e-07
0.00251299
9.32236e-07
0.0025121
8.91799e-07
0.00251123
8.68751e-07
0.00251037
8.61148e-07
0.0025095
8.66029e-07
0.00250862
8.79902e-07
0.00250772
8.99174e-07
0.0025068
9.20492e-07
0.00250586
9.41006e-07
0.0025049
9.585e-07
0.00250393
9.71498e-07
0.00250295
9.79182e-07
0.00250197
9.81426e-07
0.00250099
9.7848e-07
0.00250002
9.71149e-07
0.00249906
9.60074e-07
0.00249812
9.46518e-07
0.00249719
9.30712e-07
0.00249627
9.14114e-07
0.00249538
8.95992e-07
0.0024945
8.77465e-07
0.00249364
8.58277e-07
0.00249281
8.34513e-07
0.00249199
8.17414e-07
0.00249121
7.78001e-07
7.5861e-07
0.00250271
-5.4463e-06
0.00251084
-1.6306e-05
0.00252459
-2.75545e-05
0.00254423
-3.93255e-05
0.00257003
-5.15795e-05
0.00260203
-6.38227e-05
0.00263979
-7.51566e-05
0.00268202
-8.38986e-05
0.00272653
-8.82525e-05
0.00277014
-8.64508e-05
0.00280928
-7.77008e-05
0.00284159
-6.43287e-05
0.00286593
-4.86935e-05
0.00288247
-3.33922e-05
0.00289274
-2.09913e-05
0.00289895
-1.27862e-05
0.00290299
-8.17772e-06
0.00290544
-4.58853e-06
0.0029049
1.73837e-06
0.00289815
1.42569e-05
0.00288138
3.40035e-05
0.00285222
5.82201e-05
0.00281114
8.14583e-05
0.0027615
9.80921e-05
0.0027087
0.000104137
0.00265906
9.77362e-05
0.00261895
7.87849e-05
0.00259414
4.84993e-05
0.00258916
9.36552e-06
0.00260652
-3.4439e-05
0.00264528
-7.61101e-05
0.00269952
-0.000105987
0.00275797
-0.000113818
0.00280626
-9.3827e-05
0.00283175
-4.94334e-05
0.00282816
7.24656e-06
0.00279683
6.14968e-05
0.00274465
0.000102552
0.00268067
0.000125952
0.00261379
0.000131797
0.00255188
0.000121902
0.00250205
9.77743e-05
0.00247118
5.99361e-05
0.00246618
8.58318e-06
0.00249326
-5.44694e-05
0.00255527
-0.000122498
0.00264789
-0.000181527
0.00275674
-0.000212557
0.00285915
-0.000199842
0.00293124
-0.000141005
0.00295712
-5.12458e-05
0.00293456
4.32415e-05
0.00287387
0.000118138
0.00279158
0.000161145
0.00270376
0.000172644
0.00262281
0.000159446
0.00255762
0.000128272
0.00251535
8.25609e-05
0.00250299
2.27725e-05
0.00252749
-5.0911e-05
0.00259399
-0.000134698
0.0027026
-0.000218315
0.00284523
-0.000285205
0.00300438
-0.000316902
0.0031556
-0.000299728
0.00327259
-0.0002301
0.00333317
-0.000116794
0.00332544
1.8921e-05
0.00325292
0.000146243
0.00313492
0.000234624
0.0029998
0.000267263
0.00287438
0.00024781
0.00277611
0.000194473
0.00271187
0.000127621
0.00268129
6.126e-05
0.00268063
2.19359e-06
0.00270455
-4.63195e-05
0.00274617
-8.10934e-05
0.0027965
-9.81491e-05
0.0028449
-9.43636e-05
0.00288087
-7.01242e-05
0.0028967
-3.08604e-05
0.00288955
1.40269e-05
0.00286176
5.44692e-05
0.00281938
8.32677e-05
0.00276974
9.78074e-05
0.00271943
9.94394e-05
0.0026732
9.16335e-05
0.00263386
7.82143e-05
0.00260258
6.23325e-05
0.00257949
4.61697e-05
0.002564
3.10706e-05
0.00255519
1.78047e-05
0.00255192
6.79751e-06
0.00255292
-1.71697e-06
0.00255689
-7.62093e-06
0.0025625
-1.09062e-05
0.00256849
-1.1708e-05
0.00257377
-1.03422e-05
0.0025775
-7.3094e-06
0.00257916
-3.24835e-06
0.00257858
1.15376e-06
0.00257591
5.26746e-06
0.00257155
8.61062e-06
0.00256603
1.08966e-05
0.00255994
1.20366e-05
0.00255383
1.21065e-05
0.00254813
1.12967e-05
0.00254317
9.85794e-06
0.00253913
8.05514e-06
0.00253606
6.13254e-06
0.00253392
4.29172e-06
0.00253259
2.68102e-06
0.00253192
1.39406e-06
0.0025317
4.74517e-07
0.00253176
-7.56207e-08
0.00253192
-2.86551e-07
0.00253204
-2.1123e-07
0.00253201
8.33685e-08
0.00253175
5.2418e-07
0.00253123
1.03915e-06
0.00253045
1.56325e-06
0.00252942
2.04309e-06
0.00252819
2.4398e-06
0.00252682
2.73006e-06
0.00252536
2.9055e-06
0.00252387
2.97068e-06
0.00252239
2.94005e-06
0.00252097
2.83456e-06
0.00251962
2.67822e-06
0.00251837
2.49509e-06
0.00251722
2.30686e-06
0.00251615
2.13122e-06
0.00251516
1.981e-06
0.00251423
1.86395e-06
0.00251334
1.78311e-06
0.00251247
1.73752e-06
0.00251161
1.72315e-06
0.00251074
1.73395e-06
0.00250986
1.76282e-06
0.00250895
1.80248e-06
0.00250803
1.84614e-06
0.00250708
1.88804e-06
0.00250611
1.92374e-06
0.00250514
1.95027e-06
0.00250415
1.96603e-06
0.00250316
1.97078e-06
0.00250217
1.96508e-06
0.00250119
1.95058e-06
0.00250022
1.92859e-06
0.00249927
1.90169e-06
0.00249833
1.87037e-06
0.00249741
1.83758e-06
0.0024965
1.80183e-06
0.00249561
1.76549e-06
0.00249474
1.72775e-06
0.0024939
1.68138e-06
0.00249307
1.64769e-06
0.00249227
1.57062e-06
1.53161e-06
0.00250268
-8.12214e-06
0.0025107
-2.43259e-05
0.0025243
-4.11621e-05
0.00254385
-5.88699e-05
0.0025697
-7.743e-05
0.00260201
-9.61301e-05
0.00264048
-0.00011363
0.00268388
-0.000127296
0.00272993
-0.000134303
0.00277515
-0.000131673
0.00281549
-0.000118039
0.00284841
-9.7255e-05
0.00287272
-7.29981e-05
0.00288866
-4.93322e-05
0.00289804
-3.03733e-05
0.0029035
-1.82468e-05
0.00290738
-1.20539e-05
0.00291048
-7.69037e-06
0.00291129
9.26503e-07
0.00290603
1.95152e-05
0.00289012
4.99115e-05
0.00286063
8.77142e-05
0.00281794
0.00012415
0.00276575
0.000150284
0.00270993
0.000159952
0.00265725
0.000150414
0.00261444
0.000121599
0.00258761
7.533e-05
0.00258177
1.52046e-05
0.00260001
-5.2681e-05
0.00264191
-0.000118008
0.00270146
-0.000165534
0.00276623
-0.000178594
0.00281991
-0.000147509
0.00284812
-7.76394e-05
0.00284399
1.13748e-05
0.00280963
9.58569e-05
0.00275323
0.000158957
0.00268489
0.000194285
0.002614
0.000202691
0.00254845
0.00018745
0.00249523
0.000150998
0.0024613
9.38688e-05
0.0024542
1.56839e-05
0.00248137
-8.16471e-05
0.0025471
-0.000188224
0.00264755
-0.000281979
0.00276711
-0.000332118
0.00287988
-0.000312608
0.00295817
-0.000219294
0.0029841
-7.71829e-05
0.00295629
7.10517e-05
0.00288772
0.00018671
0.0027976
0.000251268
0.00270344
0.000266802
0.00261776
0.000245124
0.00254891
0.000197129
0.0025033
0.000128165
0.00248724
3.88367e-05
0.00250756
-7.12342e-05
0.00257067
-0.000197808
0.00267877
-0.000326409
0.00282448
-0.000430917
0.00298862
-0.000481042
0.00314426
-0.00045537
0.00326444
-0.000350279
0.00332816
-0.000180515
0.00332388
2.32021e-05
0.00325345
0.000216671
0.00313449
0.000353589
0.00299566
0.000406094
0.00286581
0.00037766
0.00276441
0.000295872
0.00269915
0.000192878
0.0026695
9.09124e-05
0.00267129
4.02213e-07
0.00269899
-7.40209e-05
0.00274549
-0.000127599
0.00280128
-0.000153931
0.00285469
-0.000147773
0.00289409
-0.000109528
0.00291104
-4.7807e-05
0.00290266
2.24002e-05
0.00287199
8.51391e-05
0.00282608
0.000129179
0.00277317
0.000150717
0.00272038
0.000152237
0.00267258
0.000139426
0.00263247
0.000118329
0.00260101
9.37869e-05
0.00257813
6.90583e-05
0.00256309
4.61008e-05
0.00255489
2.60103e-05
0.0025523
9.38398e-06
0.00255403
-3.4473e-06
0.00255872
-1.23104e-05
0.002565
-1.71874e-05
0.00257157
-1.82762e-05
0.00257728
-1.60551e-05
0.00258127
-1.1293e-05
0.002583
-4.97694e-06
0.00258232
1.83033e-06
0.00257943
8.15811e-06
0.00257477
1.32685e-05
0.00256894
1.67303e-05
0.00256256
1.84193e-05
0.0025562
1.84648e-05
0.00255032
1.7169e-05
0.00254526
1.49231e-05
0.00254118
1.21362e-05
0.00253813
9.18256e-06
0.00253605
6.36884e-06
0.00253481
3.91869e-06
0.00253424
1.97149e-06
0.00253412
5.9029e-07
0.00253427
-2.2507e-07
0.00253451
-5.23193e-07
0.00253468
-3.86712e-07
0.00253468
8.09648e-08
0.00253444
7.67634e-07
0.00253392
1.56304e-06
0.00253311
2.36803e-06
0.00253205
3.10153e-06
0.00253079
3.70483e-06
0.00252938
4.14323e-06
0.00252788
4.40489e-06
0.00252635
4.49766e-06
0.00252485
4.44444e-06
0.0025234
4.27787e-06
0.00252205
4.03502e-06
0.00252079
3.75284e-06
0.00251963
3.46446e-06
0.00251856
3.19673e-06
0.00251758
2.96897e-06
0.00251665
2.7927e-06
0.00251576
2.67221e-06
0.00251489
2.60572e-06
0.00251403
2.58681e-06
0.00251315
2.60606e-06
0.00251226
2.65249e-06
0.00251135
2.71492e-06
0.00251042
2.78299e-06
0.00250946
2.84796e-06
0.00250848
2.90313e-06
0.00250748
2.94407e-06
0.00250648
2.96845e-06
0.00250547
2.97603e-06
0.00250447
2.96774e-06
0.00250348
2.9462e-06
0.00250249
2.91347e-06
0.00250152
2.87356e-06
0.00250056
2.82717e-06
0.00249962
2.77903e-06
0.0024987
2.72639e-06
0.00249779
2.67394e-06
0.0024969
2.61823e-06
0.00249603
2.55263e-06
0.00249517
2.50136e-06
0.00249435
2.3931e-06
2.3305e-06
0.00250261
-1.07365e-05
0.00251046
-3.21704e-05
0.00252384
-5.45397e-05
0.0025432
-7.8235e-05
0.00256908
-0.000103309
0.00260182
-0.000128873
0.00264136
-0.000153162
0.00268652
-0.000172464
0.00273499
-0.000182768
0.00278273
-0.000179415
0.00282493
-0.000160238
0.0028588
-0.000131129
0.00288304
-9.72377e-05
0.00289801
-6.42951e-05
0.00290594
-3.83068e-05
0.00291016
-2.24719e-05
0.00291372
-1.56073e-05
0.00291782
-1.17903e-05
0.00292078
-2.03839e-06
0.00291795
2.23468e-05
0.00290348
6.43877e-05
0.0028735
0.000117686
0.00282832
0.000169336
0.00277216
0.000206437
0.00271169
0.000220424
0.00265434
0.000207762
0.00260738
0.00016856
0.00257744
0.000105272
0.00257021
2.24365e-05
0.00258972
-7.21947e-05
0.00263643
-0.000164713
0.00270426
-0.000233369
0.00277904
-0.000253369
0.00284126
-0.000209736
0.00287366
-0.000110035
0.00286847
1.65655e-05
0.00282908
0.000135243
0.00276589
0.000222152
0.00269073
0.000269438
0.00261373
0.000279692
0.00254277
0.000258413
0.00248456
0.000209208
0.00244615
0.000132279
0.00243582
2.60082e-05
0.00246212
-0.000107939
0.00253032
-0.000256426
0.00263801
-0.000389667
0.00277077
-0.000464881
0.00290055
-0.000442393
0.00299287
-0.00031161
0.0030232
-0.000107512
0.00298927
0.000104983
0.00290859
0.000267387
0.00280588
0.000353982
0.00270174
0.000370941
0.00260906
0.000337803
0.00253498
0.000271203
0.00248416
0.000178992
0.00246171
6.12888e-05
0.00247598
-8.55123e-05
0.00253776
-0.000259587
0.0026525
-0.000441144
0.00281087
-0.000589285
0.00298744
-0.000657613
0.00314932
-0.000617256
0.00326791
-0.000468866
0.00332586
-0.000238472
0.00331692
3.21509e-05
0.00324462
0.000288964
0.00312447
0.000473739
0.00298306
0.000547506
0.00284958
0.000511141
0.00274528
0.00040017
0.00267919
0.000258969
0.00265107
0.000119028
0.00265654
-5.06657e-06
0.00268976
-0.00010724
0.00274327
-0.000181105
0.0028069
-0.000217562
0.00286783
-0.000208704
0.0029128
-0.000154496
0.00293196
-6.69675e-05
0.0029221
3.22602e-05
0.00288712
0.000120112
0.00283571
0.000180589
0.00277766
0.000208772
0.00272099
0.000208908
0.00267083
0.000189586
0.00262964
0.000159516
0.00259805
0.00012538
0.00257562
9.1487e-05
0.0025614
6.03148e-05
0.00255422
3.31982e-05
0.00255275
1.08474e-05
0.00255565
-6.33926e-06
0.00256147
-1.81391e-05
0.0025688
-2.45171e-05
0.00257626
-2.57276e-05
0.00258262
-2.24168e-05
0.00258697
-1.56451e-05
0.00258878
-6.78509e-06
0.00258792
2.68408e-06
0.00258466
1.14172e-05
0.00257953
1.84037e-05
0.00257319
2.3068e-05
0.00256635
2.52651e-05
0.00255961
2.51987e-05
0.00255348
2.33051e-05
0.00254826
2.01358e-05
0.00254414
1.62586e-05
0.00254114
1.21874e-05
0.00253917
8.33798e-06
0.00253807
5.01017e-06
0.00253766
2.38688e-06
0.0025377
5.46793e-07
0.00253799
-5.16822e-07
0.00253835
-8.7542e-07
0.00253861
-6.45482e-07
0.00253866
2.94168e-08
0.00253843
9.94711e-07
0.00253789
2.09934e-06
0.00253705
3.20814e-06
0.00253594
4.21128e-06
0.00253462
5.03002e-06
0.00253314
5.61871e-06
0.00253159
5.96314e-06
0.00253001
6.07592e-06
0.00252846
5.98999e-06
0.00252699
5.7512e-06
0.00252561
5.41108e-06
0.00252434
5.02045e-06
0.00252318
4.62458e-06
0.00252212
4.25982e-06
0.00252114
3.952e-06
0.00252021
3.71616e-06
0.00251933
3.55748e-06
0.00251846
3.47287e-06
0.0025176
3.45305e-06
0.00251672
3.48474e-06
0.00251582
3.5527e-06
0.00251489
3.64154e-06
0.00251394
3.73713e-06
0.00251296
3.82765e-06
0.00251196
3.90409e-06
0.00251094
3.96065e-06
0.00250991
3.99435e-06
0.00250888
4.00508e-06
0.00250786
3.99434e-06
0.00250684
3.96585e-06
0.00250583
3.92255e-06
0.00250483
3.87005e-06
0.00250385
3.80919e-06
0.00250288
3.74689e-06
0.00250193
3.6784e-06
0.00250099
3.61232e-06
0.00250007
3.53945e-06
0.00249916
3.45961e-06
0.00249828
3.38909e-06
0.00249741
3.25956e-06
3.1668e-06
0.00250252
-1.32604e-05
0.00251011
-3.97557e-05
0.00252314
-6.75666e-05
0.0025422
-9.72982e-05
0.00256804
-0.000129149
0.00260129
-0.000162127
0.00264221
-0.000194079
0.00268979
-0.000220047
0.00274165
-0.000234627
0.00279297
-0.000230727
0.00283776
-0.000205035
0.00287293
-0.000166294
0.00289701
-0.000121321
0.00291049
-7.77749e-05
0.00291625
-4.40626e-05
0.00291861
-2.48311e-05
0.00292164
-1.86447e-05
0.0029272
-1.73483e-05
0.00293338
-8.2162e-06
0.0029342
2.15263e-05
0.00292191
7.66794e-05
0.00289131
0.000148284
0.0028426
0.000218048
0.00278088
0.000268155
0.00271394
0.000287366
0.00265015
0.000271552
0.00259745
0.000221262
0.00256309
0.000139623
0.0025537
3.1835e-05
0.00257467
-9.31677e-05
0.00262788
-0.000217919
0.00270737
-0.000312866
0.00279648
-0.000342476
0.00287101
-0.00028427
0.00290935
-0.00014837
0.00290243
2.34881e-05
0.00285566
0.000182009
0.00278279
0.000295026
0.00269819
0.000354039
0.00261295
0.000364932
0.00253479
0.000336572
0.00247001
0.000273986
0.00242562
0.000176672
0.00240971
4.19197e-05
0.00242976
-0.000127989
0.00249121
-0.000317882
0.00259624
-0.000494698
0.00273764
-0.000606273
0.00288978
-0.000594533
0.00301017
-0.000432003
0.0030599
-0.000157239
0.00302814
0.000136738
0.00293576
0.00035977
0.00281676
0.000472985
0.0026988
0.000488897
0.00259665
0.000439956
0.00251552
0.000352324
0.00245718
0.000237337
0.00242663
9.1839e-05
0.0024373
-9.61854e-05
0.00250615
-0.00032843
0.00263838
-0.000573376
0.00281724
-0.000768145
0.00300897
-0.000849344
0.00317601
-0.000784297
0.00328892
-0.00058177
0.00333336
-0.000282919
0.00330962
5.58945e-05
0.00322713
0.000371451
0.00310223
0.000598637
0.00295872
0.000691023
0.00282356
0.000646298
0.002718
0.000505735
0.00265203
0.000324937
0.00262603
0.000145032
0.00263538
-1.44214e-05
0.00267356
-0.000145425
0.00273282
-0.000240363
0.00280354
-0.00028828
0.00287323
-0.000278389
0.00292718
-0.000208449
0.00295262
-9.24104e-05
0.00294409
4.07895e-05
0.00290558
0.00015863
0.0028478
0.000238363
0.00278309
0.000273486
0.00272119
0.000270805
0.00266783
0.00024295
0.00262525
0.000202088
0.00259358
0.000157053
0.00257189
0.000113181
0.00255887
7.33323e-05
0.00255312
3.89437e-05
0.00255322
1.07488e-05
0.00255771
-1.083e-05
0.0025651
-2.55274e-05
0.00257386
-3.32787e-05
0.00258252
-3.43816e-05
0.00258976
-2.96564e-05
0.0025946
-2.04866e-05
0.0025965
-8.68216e-06
0.00259538
3.80293e-06
0.00259159
1.52026e-05
0.00258579
2.42098e-05
0.00257875
3.0107e-05
0.00257126
3.27488e-05
0.00256402
3.2444e-05
0.00255753
2.97949e-05
0.00255212
2.55401e-05
0.00254796
2.04265e-05
0.00254502
1.51197e-05
0.00254321
1.01508e-05
0.00254232
5.89572e-06
0.00254213
2.57744e-06
0.0025424
2.84743e-07
0.00254288
-1.00192e-06
0.00254339
-1.38306e-06
0.00254376
-1.01468e-06
0.00254387
-8.55809e-08
0.00254367
1.20302e-06
0.00254311
2.65578e-06
0.00254222
4.09911e-06
0.00254104
5.39302e-06
0.00253963
6.43849e-06
0.00253807
7.1797e-06
0.00253643
7.60158e-06
0.00253478
7.72353e-06
0.00253318
7.59074e-06
0.00253167
7.26443e-06
0.00253027
6.81234e-06
0.00252898
6.30062e-06
0.00252782
5.7875e-06
0.00252676
5.31925e-06
0.00252579
4.92819e-06
0.00252487
4.63256e-06
0.00252399
4.43786e-06
0.00252312
4.33905e-06
0.00252225
4.32329e-06
0.00252137
4.37283e-06
0.00252045
4.46763e-06
0.0025195
4.58771e-06
0.00251853
4.7149e-06
0.00251752
4.83413e-06
0.00251649
4.93413e-06
0.00251544
5.00776e-06
0.00251439
5.05156e-06
0.00251332
5.06578e-06
0.00251227
5.05264e-06
0.00251122
5.01722e-06
0.00251017
4.96347e-06
0.00250915
4.89886e-06
0.00250813
4.82423e-06
0.00250713
4.74925e-06
0.00250614
4.66625e-06
0.00250516
4.58968e-06
0.0025042
4.50064e-06
0.00250325
4.41315e-06
0.00250232
4.32086e-06
0.00250139
4.18387e-06
4.05084e-06
0.0025024
-1.56581e-05
0.00250962
-4.69772e-05
0.00252214
-8.00841e-05
0.00254072
-0.000115881
0.00256638
-0.000154811
0.00260015
-0.000195898
0.00264274
-0.000236666
0.00269343
-0.000270734
0.00274984
-0.00029104
0.00280598
-0.000286868
0.00285422
-0.000253279
0.00289108
-0.000203147
0.0029149
-0.000145143
0.00292628
-8.91582e-05
0.00292892
-4.67014e-05
0.00292852
-2.44291e-05
0.00293064
-2.07596e-05
0.00293807
-2.47874e-05
0.00294873
-1.88695e-05
0.0029548
1.54568e-05
0.00294578
8.56954e-05
0.00291455
0.000179513
0.00286121
0.000271395
0.00279212
0.000337238
0.00271668
0.000362813
0.00264446
0.000343763
0.00258422
0.000281507
0.0025439
0.000179944
0.00253121
4.45271e-05
0.00255357
-0.000115532
0.00261532
-0.000279671
0.00271103
-0.000408575
0.0028201
-0.000451547
0.00291128
-0.00037545
0.00295708
-0.000194167
0.0029471
3.34632e-05
0.00288989
0.000239223
0.00280393
0.000380989
0.00270702
0.000450942
0.00261139
0.000460568
0.00252438
0.000423584
0.00245169
0.000346675
0.00239934
0.000229021
0.00237251
6.87481e-05
0.00237594
-0.00013142
0.00241887
-0.000360808
0.00251343
-0.000589263
0.00266003
-0.000752874
0.0028344
-0.000768904
0.00298936
-0.000586957
0.00307305
-0.00024093
0.00305913
0.000150656
0.00296374
0.00045516
0.00282934
0.00060738
0.00269493
0.000623313
0.00258058
0.000554308
0.0024901
0.000442801
0.0024225
0.000304943
0.00238527
0.000129065
0.00239918
-0.000110096
0.00248404
-0.000413285
0.00263802
-0.000727363
0.00283415
-0.000964277
0.00303373
-0.00104892
0.00319998
-0.000950555
0.00330544
-0.000687227
0.00333668
-0.000314156
0.00329648
9.60928e-05
0.00319976
0.000468166
0.00306688
0.000731522
0.00292099
0.000836914
0.00278614
0.000781147
0.00268171
0.000610159
0.00261752
0.000389132
0.00259381
0.000168738
0.00260474
-2.53468e-05
0.00264236
-0.000183041
0.00269979
-0.0002978
0.00277124
-0.000359732
0.00284808
-0.000355226
0.00291558
-0.000275945
0.00295605
-0.000132881
0.00295782
3.90148e-05
0.00292188
0.000194572
0.00286029
0.000299958
0.00278896
0.000344809
0.00272093
0.000338839
0.00266353
0.000300349
0.00261919
0.000246427
0.00258748
0.000188768
0.00256681
0.000133847
0.0025554
8.47416e-05
0.00255155
4.2798e-05
0.00255366
8.63663e-06
0.00256019
-1.73616e-05
0.00256956
-3.48981e-05
0.00258014
-4.38577e-05
0.00259032
-4.45606e-05
0.00259867
-3.80043e-05
0.00260412
-2.59354e-05
0.00260611
-1.06707e-05
0.00260462
5.28479e-06
0.00260014
1.96831e-05
0.00259346
3.08911e-05
0.00258552
3.80521e-05
0.00257722
4.10493e-05
0.00256932
4.03373e-05
0.00256239
3.67258e-05
0.00255676
3.11759e-05
0.00255254
2.46391e-05
0.00254971
1.79483e-05
0.00254811
1.17562e-05
0.00254749
6.51436e-06
0.00254759
2.48087e-06
0.00254813
-2.53118e-07
0.00254885
-1.72833e-06
0.00254955
-2.0823e-06
0.00255005
-1.51779e-06
0.00255024
-2.75027e-07
0.00255005
1.39285e-06
0.00254947
3.2421e-06
0.00254851
5.05773e-06
0.00254723
6.66808e-06
0.00254572
7.95361e-06
0.00254405
8.84935e-06
0.00254231
9.34133e-06
0.00254057
9.45837e-06
0.0025389
9.2607e-06
0.00253734
8.82754e-06
0.00253591
8.24517e-06
0.00253461
7.5967e-06
0.00253345
6.95442e-06
0.00253239
6.37494e-06
0.00253142
5.89698e-06
0.00253051
5.54155e-06
0.00252964
5.31372e-06
0.00252877
5.20566e-06
0.00252789
5.20014e-06
0.00252699
5.27416e-06
0.00252606
5.40226e-06
0.00252508
5.55936e-06
0.00252408
5.72295e-06
0.00252304
5.87461e-06
0.00252197
6.00076e-06
0.00252088
6.09305e-06
0.00251979
6.14775e-06
0.00251869
6.16569e-06
0.00251759
6.15009e-06
0.0025165
6.10764e-06
0.00251542
6.04349e-06
0.00251435
5.96722e-06
0.0025133
5.87962e-06
0.00251225
5.79362e-06
0.00251122
5.69762e-06
0.0025102
5.61428e-06
0.00250919
5.51008e-06
0.00250818
5.42309e-06
0.00250719
5.30528e-06
0.0025062
5.17928e-06
4.99094e-06
0.00250223
-1.78851e-05
0.00250895
-5.37042e-05
0.00252076
-9.18854e-05
0.0025386
-0.00013373
0.00256385
-0.000180059
0.00259804
-0.000230087
0.00264252
-0.000281147
0.00269705
-0.000325259
0.00275942
-0.00035341
0.00282193
-0.000349381
0.0028746
-0.000305949
0.00291354
-0.000242089
0.00293687
-0.00016847
0.00294526
-9.75552e-05
0.00294352
-4.49561e-05
0.00293923
-2.01358e-05
0.00293999
-2.15208e-05
0.00294999
-3.4794e-05
0.00296692
-3.57999e-05
0.00298042
1.95586e-06
0.00297608
9.00395e-05
0.0029441
0.00021149
0.00288464
0.000330863
0.00280598
0.000415892
0.0027197
0.000449095
0.0026369
0.000426564
0.00256713
0.000351274
0.00251897
0.000228109
0.00250137
6.21283e-05
0.00252491
-0.000139074
0.00259834
-0.000353104
0.00271726
-0.000527496
0.00285451
-0.000588793
0.00296759
-0.000488527
0.0030212
-0.000247779
0.00300486
4.98023e-05
0.00293249
0.000311598
0.00282912
0.000484358
0.00271675
0.000563305
0.00260864
0.00056868
0.00251148
0.000520744
0.00242971
0.000428443
0.00236595
0.000292784
0.00232036
0.000114334
0.00229983
-0.000110888
0.00232681
-0.000387781
0.00242309
-0.000685549
0.00258378
-0.000913559
0.00277559
-0.000960715
0.00295156
-0.000762934
0.00306186
-0.000351223
0.00307109
0.00014142
0.00298299
0.000543262
0.00283951
0.000750863
0.00268943
0.000773391
0.00256095
0.000682792
0.00245885
0.000544892
0.00238177
0.000382023
0.0023421
0.000168736
0.00236609
-0.00013408
0.00246974
-0.000516935
0.00264006
-0.000897687
0.00284243
-0.00116664
0.00303861
-0.0012451
0.00319674
-0.00110869
0.0032933
-0.00078378
0.00331519
-0.000336046
0.00326403
0.000147245
0.00315641
0.000575786
0.00301655
0.000871388
0.00286923
0.000984228
0.00273678
0.000913596
0.00263612
0.000710821
0.00257534
0.000449914
0.00255252
0.000191562
0.00255887
-3.17032e-05
0.00258585
-0.000210016
0.00263082
-0.000342772
0.00269519
-0.000424104
0.0027761
-0.000436137
0.00285988
-0.000359721
0.00292404
-0.000197041
0.00294825
1.48007e-05
0.00292624
0.000216585
0.00286833
0.00035787
0.00279366
0.000419474
0.00272
0.000412502
0.00265805
0.000362297
0.00261148
0.000293
0.00257964
0.00022061
0.00256025
0.000153238
0.00255087
9.41202e-05
0.00254938
4.42854e-05
0.00255397
4.04337e-06
0.00256298
-2.6373e-05
0.00257474
-4.66559e-05
0.0025875
-5.66151e-05
0.0025995
-5.65626e-05
0.00260917
-4.76725e-05
0.00261533
-3.21001e-05
0.00261742
-1.27515e-05
0.00261548
7.22384e-06
0.00261014
2.50214e-05
0.00260238
3.86441e-05
0.00259334
4.71005e-05
0.00258405
5.03374e-05
0.00257538
4.90061e-05
0.00256793
4.41761e-05
0.00256203
3.70745e-05
0.00255778
2.88887e-05
0.00255509
2.06372e-05
0.00255375
1.31018e-05
0.00255345
6.80785e-06
0.00255389
2.04099e-06
0.00255476
-1.11546e-06
0.00255576
-2.73407e-06
0.00255668
-2.99931e-06
0.00255733
-2.16924e-06
0.0025576
-5.42704e-07
0.00255742
1.56949e-06
0.00255679
3.87075e-06
0.00255575
6.1016e-06
0.00255436
8.05708e-06
0.00255272
9.59705e-06
0.00255092
1.06486e-05
0.00254906
1.12014e-05
0.00254722
1.12966e-05
0.00254547
1.10127e-05
0.00254384
1.04502e-05
0.00254237
9.71642e-06
0.00254106
8.91335e-06
0.00253988
8.1285e-06
0.00253883
7.42926e-06
0.00253786
6.8606e-06
0.00253696
6.44564e-06
0.00253608
6.18817e-06
0.00253521
6.07659e-06
0.00253433
6.08829e-06
0.00253341
6.19415e-06
0.00253245
6.36259e-06
0.00253144
6.56296e-06
0.0025304
6.76806e-06
0.00252932
6.95599e-06
0.00252821
7.11089e-06
0.00252707
7.22336e-06
0.00252593
7.28962e-06
0.00252479
7.31134e-06
0.00252364
7.29305e-06
0.00252251
7.24335e-06
0.00252138
7.16873e-06
0.00252027
7.08121e-06
0.00251917
6.9814e-06
0.00251808
6.88611e-06
0.00251699
6.7787e-06
0.00251592
6.69259e-06
0.00251485
6.57418e-06
0.00251378
6.49707e-06
0.00251273
6.3485e-06
0.00251166
6.25713e-06
5.99199e-06
0.002502
-1.98875e-05
0.00250807
-5.97762e-05
0.0025189
-0.000102707
0.00253567
-0.000150503
0.00256013
-0.000204523
0.0025945
-0.000264453
0.00264098
-0.000327631
0.00270013
-0.000384408
0.00277021
-0.000423491
0.00284105
-0.000420215
0.00289932
-0.000364223
0.00294089
-0.000283657
0.00296355
-0.000191127
0.00296792
-0.000101928
0.00296008
-3.71141e-05
0.00295011
-1.01719e-05
0.00294851
-1.992e-05
0.0029616
-4.78794e-05
0.00298701
-6.12093e-05
0.00301094
-2.19723e-05
0.00301342
8.75599e-05
0.00298089
0.000244017
0.00291367
0.000398085
0.00282285
0.000506707
0.00272302
0.000548926
0.00262717
0.000522413
0.00254562
0.000432824
0.00248728
0.000286449
0.00246275
8.6659e-05
0.00248697
-0.000163296
0.00257313
-0.000439267
0.00271819
-0.000672552
0.0028912
-0.000761808
0.00303667
-0.000633988
0.00310373
-0.000314846
0.00307869
7.48499e-05
0.00298475
0.000405531
0.00285808
0.000611031
0.00272656
0.000694829
0.00260413
0.000691102
0.00249608
0.000628793
0.00240372
0.000520803
0.00232367
0.000372841
0.00225441
0.000183588
0.00221622
-7.26985e-05
0.00224825
-0.00041981
0.00236846
-0.000805762
0.00255213
-0.00109722
0.00275353
-0.00116212
0.00293006
-0.000939465
0.00304453
-0.000465693
0.00306557
0.00012038
0.00298689
0.000621947
0.00284131
0.000896442
0.00267981
0.000934894
0.00253742
0.000825178
0.0024227
0.000659617
0.00233757
0.000467145
0.00230007
0.00020624
0.00233709
-0.000171103
0.00245554
-0.00063538
0.002632
-0.00107415
0.00282923
-0.00136387
0.00301328
-0.00142915
0.00315814
-0.00125354
0.00324424
-0.000869886
0.00325929
-0.00035109
0.00320306
0.000203476
0.00309096
0.000687884
0.00294878
0.00101357
0.00280317
0.00112984
0.00267592
0.00104085
0.0025816
0.000805138
0.00252478
0.000506736
0.00249894
0.0002174
0.00249287
-2.56297e-05
0.00250178
-0.000218929
0.00253112
-0.000372114
0.00258845
-0.000481428
0.0026728
-0.000520489
0.00277047
-0.000457396
0.00285768
-0.00028425
0.00290904
-3.65582e-05
0.0029101
0.000215525
0.00286532
0.000402653
0.00279377
0.000491018
0.00271737
0.000488911
0.00265142
0.000428244
0.00260233
0.000342094
0.00257013
0.000252805
0.00255211
0.000171256
0.00254511
0.000101116
0.00254645
4.29511e-05
0.00255397
-3.47364e-06
0.00256583
-3.82414e-05
0.00258028
-6.11042e-05
0.00259546
-7.17934e-05
0.00260948
-7.05834e-05
0.00262062
-5.88148e-05
0.00262761
-3.90852e-05
0.00262983
-1.49687e-05
0.00262741
9.64245e-06
0.00262113
3.13002e-05
0.00261218
4.75926e-05
0.00260189
5.73894e-05
0.00259149
6.07379e-05
0.00258195
5.85447e-05
0.00257393
5.22006e-05
0.00256775
4.32518e-05
0.00256348
3.31598e-05
0.00256097
2.3151e-05
0.00255992
1.41434e-05
0.00256
6.73309e-06
0.00256082
1.22234e-06
0.00256203
-2.32684e-06
0.00256333
-4.03235e-06
0.00256447
-4.1374e-06
0.00256526
-2.96482e-06
0.0025656
-8.79299e-07
0.00256542
1.74531e-06
0.00256474
4.55567e-06
0.00256359
7.24528e-06
0.00256208
9.57457e-06
0.00256029
1.13828e-05
0.00255835
1.25906e-05
0.00255636
1.31936e-05
0.0025544
1.32485e-05
0.00255256
1.28558e-05
0.00255087
1.21403e-05
0.00254935
1.12331e-05
0.00254801
1.02572e-05
0.00254682
9.31627e-06
0.00254576
8.4889e-06
0.0025448
7.82601e-06
0.00254389
7.35207e-06
0.00254301
7.06865e-06
0.00254213
6.95927e-06
0.00254122
6.99499e-06
0.00254028
7.13972e-06
0.00253928
7.3551e-06
0.00253824
7.60443e-06
0.00253715
7.8556e-06
0.00253603
8.08312e-06
0.00253487
8.26892e-06
0.00253369
8.40269e-06
0.0025325
8.48085e-06
0.0025313
8.5062e-06
0.00253011
8.48482e-06
0.00252893
8.42748e-06
0.00252775
8.34226e-06
0.00252659
8.24379e-06