/*--------------------------------*- C++ -*----------------------------------*\
  =========                 |
  \\      /  F ield         | OpenFOAM: The Open Source CFD Toolbox
   \\    /   O peration     | Website:  https://openfoam.org
    \\  /    A nd           | Version:  11
     \\/     M anipulation  |
\*---------------------------------------------------------------------------*/
FoamFile
{
    format      ascii;
    class       volVectorField;
    location    "5.802902";
    object      U;
}
// * * * * * * * * * * * * * * * * * * * * * * * * * * * * * * * * * * * * * //

dimensions      [0 1 -1 0 0 0 0];

internalField   nonuniform List<vector> 
7132
(
(1.00014 -0.000288811 1.94278e-18)
(1.00224 -0.000871462 7.39597e-18)
(1.00698 -0.00148988 7.41363e-18)
(1.0142 -0.00215591 8.5798e-18)
(1.0242 -0.00287284 1.11068e-17)
(1.03717 -0.00362077 1.16521e-17)
(1.05317 -0.00436056 1.11002e-17)
(1.07208 -0.00501498 1.03313e-17)
(1.09336 -0.00550129 9.73073e-18)
(1.1162 -0.00573206 9.38322e-18)
(1.13935 -0.00565867 9.03074e-18)
(1.16162 -0.00534835 8.8783e-18)
(1.18223 -0.0048634 7.64783e-18)
(1.2006 -0.00426689 8.11584e-18)
(1.21642 -0.00361452 -2.23603e-18)
(1.22954 -0.00294099 -1.17009e-17)
(1.23996 -0.0022649 -2.01964e-17)
(1.24767 -0.00159111 -1.21192e-17)
(1.2527 -0.000916139 -1.63191e-17)
(1.25501 -0.000234663 -2.87662e-17)
(1.25459 0.000453807 -3.13214e-17)
(1.25139 0.00113983 -3.74162e-17)
(1.24545 0.00180213 -4.66305e-17)
(1.23693 0.00241024 -6.04432e-17)
(1.22611 0.00293072 -5.91479e-17)
(1.2134 0.00333509 -7.1648e-17)
(1.19933 0.00360636 -8.53828e-17)
(1.18444 0.00374231 -9.7411e-17)
(1.16929 0.00375461 -1.08427e-16)
(1.15432 0.00366483 -1.08852e-16)
(1.1399 0.00349912 -1.05378e-16)
(1.12627 0.00328339 -1.00395e-16)
(1.11359 0.00303982 -9.83717e-17)
(1.10193 0.00278524 -8.69873e-17)
(1.0913 0.00253101 -7.21582e-17)
(1.08168 0.00228394 -5.33975e-17)
(1.07302 0.00204758 -3.1118e-17)
(1.0653 0.00182358 -8.96899e-18)
(1.05844 0.00161269 1.91049e-17)
(1.0524 0.0014155 4.99821e-17)
(1.04712 0.00123273 8.45986e-17)
(1.04254 0.00106531 1.22267e-16)
(1.0386 0.00091424 1.60845e-16)
(1.03523 0.000780427 2.03367e-16)
(1.03236 0.000664436 2.47265e-16)
(1.02992 0.000566337 2.92024e-16)
(1.02783 0.000485608 3.36212e-16)
(1.02603 0.000421118 3.78522e-16)
(1.02446 0.000371198 4.1993e-16)
(1.02307 0.000333772 4.57086e-16)
(1.0218 0.000306526 4.88091e-16)
(1.02062 0.000287093 5.13632e-16)
(1.0195 0.000273225 5.34271e-16)
(1.01843 0.000262928 5.47878e-16)
(1.0174 0.000254568 5.54632e-16)
(1.0164 0.000246912 5.53876e-16)
(1.01542 0.000239139 5.46057e-16)
(1.01448 0.000230802 5.32135e-16)
(1.01358 0.00022177 5.10343e-16)
(1.01271 0.00021215 4.80526e-16)
(1.01188 0.000202208 4.41391e-16)
(1.01109 0.000192288 3.93109e-16)
(1.01034 0.000182749 3.35815e-16)
(1.00963 0.000173914 2.68173e-16)
(1.00895 0.000166031 1.92978e-16)
(1.0083 0.000159252 1.10183e-16)
(1.00767 0.00015363 2.07452e-17)
(1.00707 0.000149122 -7.33744e-17)
(1.00648 0.000145607 -1.72571e-16)
(1.0059 0.000142911 -2.74207e-16)
(1.00533 0.000140827 -3.79096e-16)
(1.00477 0.000139145 -4.87215e-16)
(1.00422 0.000137675 -5.97524e-16)
(1.00367 0.000136256 -7.1051e-16)
(1.00313 0.000134773 -8.23107e-16)
(1.00259 0.000133153 -9.35463e-16)
(1.00206 0.000131362 -1.04691e-15)
(1.00154 0.000129396 -1.15656e-15)
(1.00102 0.000127271 -1.26566e-15)
(1.00052 0.000125015 -1.37224e-15)
(1.00002 0.000122657 -1.47719e-15)
(0.999534 0.00012022 -1.579e-15)
(0.999057 0.000117718 -1.67405e-15)
(0.99859 0.00011515 -1.7584e-15)
(0.998134 0.000112494 -1.82322e-15)
(0.997688 0.000109706 -1.86194e-15)
(0.997253 0.00010672 -1.86654e-15)
(0.996831 0.000103458 -1.82999e-15)
(0.996422 9.98432e-05 -1.75033e-15)
(0.996029 9.58121e-05 -1.62861e-15)
(0.995652 9.13076e-05 -1.47776e-15)
(0.995294 8.62335e-05 -1.31976e-15)
(0.994958 8.03605e-05 -1.18573e-15)
(0.994646 7.31946e-05 -1.11765e-15)
(0.994367 6.38541e-05 -1.15709e-15)
(0.994129 5.10342e-05 -1.34492e-15)
(0.993951 3.31467e-05 -1.71528e-15)
(0.993855 8.69189e-06 -2.29139e-15)
(0.99387 -2.31614e-05 -3.08833e-15)
(0.994027 -6.19187e-05 -4.10287e-15)
(0.994349 -0.000105246 -5.31175e-15)
(0.99485 -0.000148852 -6.65963e-15)
(0.99552 -0.000186949 -8.04771e-15)
(0.996325 -0.000213307 -9.33774e-15)
(0.997206 -0.000222695 -1.03629e-14)
(0.998089 -0.000212321 -1.09732e-14)
(0.998891 -0.000182821 -1.10894e-14)
(0.999541 -0.000138418 -1.07577e-14)
(0.999991 -8.6148e-05 -1.01849e-14)
(1.00023 -3.43099e-05 -9.71621e-15)
(1.00026 9.39341e-06 -9.76651e-15)
(1.00015 3.9505e-05 -1.06963e-14)
(0.999946 5.37892e-05 -1.26712e-14)
(0.999718 5.3317e-05 -1.55545e-14)
(0.999518 4.17365e-05 -1.88659e-14)
(0.999382 2.40351e-05 -2.18619e-14)
(0.999324 5.20342e-06 -2.37162e-14)
(0.999339 -1.08298e-05 -2.37589e-14)
(0.99941 -2.17723e-05 -2.16985e-14)
(0.999514 -2.70172e-05 -1.77243e-14)
(0.999627 -2.72865e-05 -1.24735e-14)
(0.999733 -2.40667e-05 -6.86022e-15)
(0.999821 -1.90417e-05 -1.82274e-15)
(0.999886 -1.36622e-05 1.9159e-15)
(0.999931 -8.91805e-06 4.01039e-15)
(0.999958 -5.29745e-06 4.52587e-15)
(0.999973 -2.878e-06 3.85061e-15)
(0.999981 -1.47635e-06 2.53707e-15)
(0.999985 -7.9742e-07 1.1222e-15)
(0.999987 -5.46685e-07 -3.51446e-18)
(0.999989 -4.93777e-07 -6.57467e-16)
(0.999991 -4.92764e-07 -8.50454e-16)
(0.999993 -4.73256e-07 -7.16106e-16)
(0.999995 -4.17642e-07 -4.31285e-16)
(0.999996 -3.36424e-07 -1.45311e-16)
(0.999998 -2.4877e-07 5.38897e-17)
(0.999998 -1.70813e-07 1.4156e-16)
(0.999999 -1.11071e-07 1.40765e-16)
(0.999999 -7.07342e-08 9.25092e-17)
(0.999999 -4.63109e-08 3.63191e-17)
(1 -3.25951e-08 -3.78886e-18)
(1 -2.48405e-08 -2.2182e-17)
(1 -1.97792e-08 -2.27278e-17)
(1 -1.57102e-08 -1.49228e-17)
(1 -1.20586e-08 -5.56524e-18)
(1 -8.82771e-09 1.55282e-18)
(1 -6.16504e-09 4.16637e-18)
(1 -4.14785e-09 3.93425e-18)
(1 -2.72615e-09 1.83623e-18)
(1 -1.77274e-09 1.40675e-19)
(1 -1.13865e-09 -6.47051e-20)
(1 -7.05566e-10 -1.48066e-19)
(1 -3.91653e-10 1.39317e-19)
(1 -1.57517e-10 -1.81401e-19)
(1 2.37767e-11 -2.63397e-19)
(1 1.52282e-10 3.96238e-19)
(1 2.57985e-10 4.90263e-19)
(1 3.04015e-10 5.37904e-19)
(1 3.91714e-10 8.96904e-20)
(1 3.56684e-10 -8.98799e-19)
(1.00014 -0.000863574 2.90494e-20)
(1.00222 -0.0026071 3.40814e-19)
(1.00692 -0.00445916 6.55909e-19)
(1.0141 -0.00645779 1.00173e-18)
(1.02406 -0.00861392 1.42561e-18)
(1.03702 -0.0108689 1.84784e-18)
(1.05309 -0.0131059 2.24703e-18)
(1.07213 -0.0150894 2.12822e-18)
(1.09364 -0.0165673 5.34004e-18)
(1.11676 -0.0172666 6.99362e-18)
(1.14019 -0.0170364 4.32138e-18)
(1.16269 -0.0160908 4.45579e-18)
(1.18345 -0.0146206 -1.00632e-19)
(1.20192 -0.0128182 1.26966e-17)
(1.21778 -0.0108527 4.90967e-17)
(1.23092 -0.00882812 9.72219e-17)
(1.24134 -0.0067993 1.32777e-16)
(1.24906 -0.004779 1.34007e-16)
(1.25409 -0.0027546 9.07284e-17)
(1.25642 -0.00070806 1.03569e-17)
(1.25599 0.00136336 -8.49151e-17)
(1.25278 0.00343128 -1.78811e-16)
(1.2468 0.00543037 -2.613e-16)
(1.2382 0.00726684 -3.26662e-16)
(1.22727 0.00883802 -3.71109e-16)
(1.21444 0.0100566 -3.94437e-16)
(1.20022 0.0108711 -3.97399e-16)
(1.1852 0.0112753 -3.81254e-16)
(1.16993 0.0113054 -3.4738e-16)
(1.15486 0.0110276 -2.98181e-16)
(1.14037 0.0105218 -2.26196e-16)
(1.1267 0.00986679 -1.53936e-16)
(1.11399 0.00912965 -7.23351e-17)
(1.10232 0.00836108 2.3836e-17)
(1.09169 0.0075951 1.22203e-16)
(1.08207 0.00685185 2.32831e-16)
(1.07343 0.0061417 3.42776e-16)
(1.06571 0.00546924 4.49923e-16)
(1.05886 0.00483651 5.59124e-16)
(1.05283 0.00424503 6.65319e-16)
(1.04756 0.00369684 7.73942e-16)
(1.04299 0.00319465 8.76783e-16)
(1.03906 0.00274146 9.74002e-16)
(1.0357 0.00233996 1.06676e-15)
(1.03285 0.00199189 1.15059e-15)
(1.03042 0.00169749 1.22651e-15)
(1.02835 0.00145523 1.2867e-15)
(1.02656 0.00126173 1.33021e-15)
(1.025 0.00111203 1.35586e-15)
(1.02362 0.000999887 1.35954e-15)
(1.02235 0.000918362 1.34208e-15)
(1.02118 0.000860336 1.3026e-15)
(1.02006 0.000819038 1.24058e-15)
(1.019 0.000788466 1.15847e-15)
(1.01796 0.000763686 1.05598e-15)
(1.01696 0.000740983 9.36811e-16)
(1.01598 0.000717877 8.01321e-16)
(1.01504 0.000693021 6.49564e-16)
(1.01413 0.000666022 4.82467e-16)
(1.01326 0.000637208 2.9807e-16)
(1.01242 0.000607381 9.79935e-17)
(1.01163 0.000577589 -1.18876e-16)
(1.01088 0.000548922 -3.51621e-16)
(1.01017 0.000522359 -5.98191e-16)
(1.00949 0.000498652 -8.54499e-16)
(1.00883 0.00047827 -1.11513e-15)
(1.00821 0.000461375 -1.3807e-15)
(1.0076 0.000447842 -1.64508e-15)
(1.00701 0.000437309 -1.90729e-15)
(1.00643 0.000429247 -2.16536e-15)
(1.00586 0.000423035 -2.41747e-15)
(1.0053 0.00041804 -2.66706e-15)
(1.00474 0.00041368 -2.90953e-15)
(1.00419 0.000409477 -3.14396e-15)
(1.00365 0.00040508 -3.36716e-15)
(1.00311 0.000400268 -3.57641e-15)
(1.00257 0.000394939 -3.77508e-15)
(1.00205 0.000389083 -3.96046e-15)
(1.00153 0.000382752 -4.13478e-15)
(1.00102 0.000376028 -4.29706e-15)
(1.00052 0.000368999 -4.44427e-15)
(1.00003 0.000361738 -4.57445e-15)
(0.999548 0.000354291 -4.67422e-15)
(0.999076 0.000346655 -4.73072e-15)
(0.998615 0.000338767 -4.72563e-15)
(0.998164 0.000330498 -4.64024e-15)
(0.997724 0.000321651 -4.46209e-15)
(0.997296 0.000311992 -4.17694e-15)
(0.996881 0.000301289 -3.78506e-15)
(0.99648 0.000289346 -3.29889e-15)
(0.996096 0.00027599 -2.75133e-15)
(0.99573 0.000260936 -2.20062e-15)
(0.995385 0.000243514 -1.71883e-15)
(0.995064 0.000222282 -1.39474e-15)
(0.994774 0.000194654 -1.31689e-15)
(0.994525 0.000156783 -1.56393e-15)
(0.994333 0.000103958 -2.19934e-15)
(0.994221 3.16868e-05 -3.26578e-15)
(0.994216 -6.25866e-05 -4.78988e-15)
(0.994347 -0.000177522 -6.76444e-15)
(0.99464 -0.000306325 -9.12838e-15)
(0.995107 -0.000436356 -1.174e-14)
(0.99574 -0.000550452 -1.43524e-14)
(0.996507 -0.000630022 -1.66322e-14)
(0.997351 -0.000659339 -1.8216e-14)
(0.998199 -0.000629861 -1.8828e-14)
(0.99897 -0.000543228 -1.84193e-14)
(0.999595 -0.00041181 -1.72771e-14)
(1.00003 -0.000256449 -1.60608e-14)
(1.00025 -0.000101895 -1.57025e-14)
(1.00027 2.87645e-05 -1.71862e-14)
(1.00015 0.000119052 -2.1242e-14)
(0.999944 0.000162077 -2.80377e-14)
(0.999712 0.000160859 -3.69732e-14)
(0.99951 0.000126194 -4.66454e-14)
(0.999373 7.29793e-05 -5.50755e-14)
(0.999315 1.62025e-05 -6.01787e-14)
(0.999332 -3.22722e-05 -6.03533e-14)
(0.999405 -6.54674e-05 -5.50046e-14)
(0.99951 -8.1477e-05 -4.47674e-14)
(0.999626 -8.24198e-05 -3.13678e-14)
(0.999734 -7.27558e-05 -1.71662e-14)
(0.999823 -5.75713e-05 -4.52112e-15)
(0.999889 -4.12723e-05 4.79578e-15)
(0.999934 -2.68793e-05 9.97261e-15)
(0.99996 -1.58931e-05 1.12177e-14)
(0.999975 -8.56175e-06 9.52457e-15)
(0.999982 -4.33254e-06 6.271e-15)
(0.999985 -2.30603e-06 2.78171e-15)
(0.999987 -1.58117e-06 9.04708e-18)
(0.999989 -1.45202e-06 -1.6041e-15)
(0.999991 -1.47171e-06 -2.08546e-15)
(0.999993 -1.42597e-06 -1.7625e-15)
(0.999995 -1.26313e-06 -1.06629e-15)
(0.999996 -1.01793e-06 -3.65004e-16)
(0.999998 -7.51239e-07 1.2495e-16)
(0.999998 -5.1383e-07 3.42778e-16)
(0.999999 -3.32366e-07 3.43726e-16)
(0.999999 -2.1053e-07 2.28781e-16)
(0.999999 -1.37406e-07 9.19621e-17)
(1 -9.68284e-08 -7.73057e-18)
(1 -7.41406e-08 -5.44869e-17)
(1 -5.93403e-08 -5.70025e-17)
(1 -4.72972e-08 -3.68705e-17)
(1 -3.63558e-08 -1.34947e-17)
(1 -2.6609e-08 3.33917e-18)
(1 -1.85636e-08 9.24351e-18)
(1 -1.24765e-08 8.43528e-18)
(1 -8.2027e-09 4.74139e-18)
(1 -5.34785e-09 1.0388e-18)
(1 -3.4571e-09 -2.90199e-19)
(1 -2.16569e-09 -1.23487e-18)
(1 -1.22902e-09 -9.2189e-19)
(1 -5.26499e-10 -3.04867e-19)
(1 1.76088e-11 -2.695e-20)
(1 4.06045e-10 8.17265e-19)
(1 7.22588e-10 3.38362e-19)
(1 8.65686e-10 1.38845e-19)
(1 1.12081e-09 2.05642e-19)
(1 1.03283e-09 -6.22756e-19)
(1.00014 -0.00143039 8.58978e-22)
(1.00217 -0.00432024 3.924e-21)
(1.0068 -0.00739663 -2.03021e-21)
(1.01388 -0.0107288 1.47218e-21)
(1.02377 -0.0143398 -1.61203e-19)
(1.03671 -0.0181359 2.51288e-19)
(1.05288 -0.0219242 -8.08519e-19)
(1.0722 -0.0252998 -1.47574e-18)
(1.09416 -0.027829 6.52883e-18)
(1.11789 -0.0290187 -1.1279e-18)
(1.14189 -0.0286007 -3.87443e-17)
(1.16483 -0.026974 -3.06207e-17)
(1.1859 -0.024471 1.11069e-16)
(1.20455 -0.0214221 3.53585e-16)
(1.2205 -0.0181148 5.31921e-16)
(1.23368 -0.0147221 4.64599e-16)
(1.24411 -0.0113335 7.4766e-17)
(1.25183 -0.00796626 -5.65505e-16)
(1.25687 -0.00459474 -1.28398e-15)
(1.25922 -0.00118389 -1.85383e-15)
(1.2588 0.0022749 -2.19754e-15)
(1.25555 0.00573622 -2.33066e-15)
(1.24949 0.00908991 -2.27772e-15)
(1.24074 0.0121754 -2.07393e-15)
(1.22959 0.0148159 -1.75806e-15)
(1.21648 0.0168609 -1.36576e-15)
(1.20198 0.0182216 -9.25824e-16)
(1.18668 0.0188878 -4.59328e-16)
(1.17116 0.0189227 1.90319e-17)
(1.1559 0.0184403 4.97931e-16)
(1.14126 0.0175778 9.69403e-16)
(1.1275 0.016469 1.42398e-15)
(1.11474 0.0152272 1.85402e-15)
(1.10304 0.0139373 2.25442e-15)
(1.0924 0.0126552 2.62044e-15)
(1.08279 0.0114136 2.95076e-15)
(1.07416 0.0102287 3.2445e-15)
(1.06646 0.00910737 3.50151e-15)
(1.05962 0.00805236 3.72287e-15)
(1.05361 0.00706596 3.90869e-15)
(1.04837 0.00615152 4.05865e-15)
(1.04382 0.00531362 4.17024e-15)
(1.03992 0.00455745 4.23958e-15)
(1.0366 0.00388767 4.26204e-15)
(1.03377 0.00330733 4.23187e-15)
(1.03137 0.00281693 4.14329e-15)
(1.02933 0.00241394 3.99032e-15)
(1.02757 0.00209272 3.76845e-15)
(1.02604 0.00184484 3.47602e-15)
(1.02467 0.00165979 3.1141e-15)
(1.02342 0.00152585 2.68782e-15)
(1.02226 0.00143101 2.20387e-15)
(1.02115 0.00136385 1.66894e-15)
(1.02008 0.00131428 1.09331e-15)
(1.01905 0.00127404 4.84386e-16)
(1.01804 0.00123692 -1.50767e-16)
(1.01706 0.0011988 -8.08513e-16)
(1.01611 0.0011575 -1.48816e-15)
(1.01519 0.00111243 -2.18801e-15)
(1.01432 0.00106418 -2.90909e-15)
(1.01348 0.00101417 -3.64984e-15)
(1.01269 0.000964209 -4.40749e-15)
(1.01193 0.000916151 -5.17535e-15)
(1.01121 0.000871663 -5.94267e-15)
(1.01053 0.000832022 -6.69917e-15)
(1.00988 0.000798014 -7.43134e-15)
(1.00925 0.000769906 -8.13197e-15)
(1.00864 0.00074748 -8.79601e-15)
(1.00805 0.000730114 -9.42115e-15)
(1.00747 0.000716902 -1.00091e-14)
(1.0069 0.000706789 -1.0558e-14)
(1.00633 0.000698698 -1.1068e-14)
(1.00577 0.00069165 -1.15356e-14)
(1.00521 0.000684836 -1.19552e-14)
(1.00466 0.000677668 -1.23235e-14)
(1.00411 0.000669785 -1.26371e-14)
(1.00357 0.000661022 -1.29002e-14)
(1.00304 0.000651373 -1.31183e-14)
(1.00252 0.000640932 -1.3296e-14)
(1.002 0.000629844 -1.34341e-14)
(1.00149 0.000618263 -1.35208e-14)
(1.00099 0.000606318 -1.35357e-14)
(1.0005 0.000594088 -1.34445e-14)
(1.00002 0.000581575 -1.32038e-14)
(0.999554 0.000568681 -1.27667e-14)
(0.999093 0.000555195 -1.20853e-14)
(0.998643 0.000540793 -1.11246e-14)
(0.998204 0.000525084 -9.86513e-15)
(0.997776 0.00050767 -8.31577e-15)
(0.997362 0.000488215 -6.52556e-15)
(0.996964 0.000466411 -4.58993e-15)
(0.996583 0.000441784 -2.65744e-15)
(0.996221 0.000413249 -9.18226e-16)
(0.995883 0.000378485 4.17514e-16)
(0.995574 0.000333315 1.14961e-15)
(0.995304 0.0002715 1.11412e-15)
(0.995088 0.000185352 1.92764e-16)
(0.994946 6.74818e-05 -1.69466e-15)
(0.994906 -8.64158e-05 -4.5936e-15)
(0.994995 -0.00027433 -8.47194e-15)
(0.995237 -0.000485339 -1.31481e-14)
(0.995645 -0.000698889 -1.82138e-14)
(0.996211 -0.000886896 -2.29951e-14)
(0.996906 -0.00101878 -2.66222e-14)
(0.997676 -0.0010685 -2.82525e-14)
(0.998452 -0.00102175 -2.74226e-14)
(0.999157 -0.000880911 -2.44237e-14)
(0.999724 -0.000666113 -2.05419e-14)
(1.00011 -0.000411553 -1.80189e-14)
(1.00029 -0.000158016 -1.96602e-14)
(1.00029 5.63115e-05 -2.81265e-14)
(1.00015 0.000204069 -4.5058e-14)
(0.999927 0.000273708 -7.03123e-14)
(0.999689 0.000270105 -1.01492e-13)
(0.999485 0.000211091 -1.33981e-13)
(0.99935 0.000121379 -1.6167e-13)
(0.999296 2.5922e-05 -1.78365e-13)
(0.999318 -5.54728e-05 -1.79507e-13)
(0.999397 -0.000111118 -1.63641e-13)
(0.999508 -0.000137805 -1.32999e-13)
(0.999629 -0.000139089 -9.29905e-14)
(0.99974 -0.000122487 -5.07734e-14)
(0.999831 -9.65986e-05 -1.33691e-14)
(0.999897 -6.88927e-05 1.40515e-14)
(0.999941 -4.44976e-05 2.92011e-14)
(0.999966 -2.59592e-05 3.27888e-14)
(0.999979 -1.36843e-05 2.77995e-14)
(0.999984 -6.70742e-06 1.8286e-14)
(0.999986 -3.46945e-06 8.11451e-15)
(0.999988 -2.41265e-06 4.65274e-17)
(0.999989 -2.32181e-06 -4.64673e-15)
(0.999991 -2.43506e-06 -6.04893e-15)
(0.999993 -2.39634e-06 -5.11785e-15)
(0.999995 -2.13141e-06 -3.10271e-15)
(0.999997 -1.71302e-06 -1.06936e-15)
(0.999998 -1.25491e-06 3.5182e-16)
(0.999999 -8.48995e-07 9.88885e-16)
(0.999999 -5.42068e-07 9.95846e-16)
(0.999999 -3.39374e-07 6.65078e-16)
(0.999999 -2.20496e-07 2.69562e-16)
(1 -1.56387e-07 -2.19653e-17)
(1 -1.21338e-07 -1.5726e-16)
(1 -9.8277e-08 -1.65282e-16)
(1 -7.88343e-08 -1.07464e-16)
(1 -6.06614e-08 -3.93593e-17)
(1 -4.42811e-08 7.69283e-18)
(1 -3.07608e-08 2.63879e-17)
(1 -2.05987e-08 2.44216e-17)
(1 -1.3538e-08 1.37177e-17)
(1 -8.87104e-09 3.3679e-18)
(1 -5.80338e-09 -2.45825e-18)
(1 -3.70698e-09 -3.87936e-18)
(1 -2.17696e-09 -2.7624e-18)
(1 -1.01785e-09 -1.01876e-18)
(1 -1.16272e-10 1.98379e-19)
(1 5.32051e-10 7.29581e-19)
(1 1.05379e-09 6.88474e-19)
(1 1.30098e-09 4.17666e-19)
(1 1.70103e-09 2.11028e-19)
(1 1.59423e-09 -2.29219e-21)
(1.00014 -0.00198374 -2.15496e-20)
(1.00211 -0.00599418 -4.71166e-19)
(1.00661 -0.0102787 -8.39123e-19)
(1.01353 -0.0149447 -1.66212e-18)
(1.02329 -0.0200357 -1.77807e-18)
(1.0362 -0.0254299 -1.63696e-18)
(1.05252 -0.0308618 -1.12192e-17)
(1.07224 -0.0357385 1.86086e-17)
(1.0949 -0.0394247 3.50309e-18)
(1.11956 -0.0411426 -1.43581e-16)
(1.14446 -0.0404792 -2.47963e-17)
(1.16805 -0.038091 6.93501e-16)
(1.18958 -0.0344732 1.36305e-15)
(1.2085 -0.0301098 7.85593e-16)
(1.22457 -0.0254159 -1.74403e-15)
(1.23779 -0.0206318 -5.84173e-15)
(1.24823 -0.0158769 -1.02734e-14)
(1.25595 -0.0111652 -1.361e-14)
(1.26102 -0.00644893 -1.48498e-14)
(1.26339 -0.00166747 -1.35895e-14)
(1.26298 0.00319943 -1.07522e-14)
(1.2597 0.00808995 -7.23748e-15)
(1.25352 0.0128441 -3.54648e-15)
(1.24454 0.0172255 -9.87521e-19)
(1.23305 0.0209733 3.20913e-15)
(1.21954 0.0238659 5.9988e-15)
(1.20459 0.0257742 8.35792e-15)
(1.18886 0.0266858 1.03173e-14)
(1.17297 0.0266959 1.19223e-14)
(1.15741 0.0259735 1.32141e-14)
(1.14256 0.024719 1.42344e-14)
(1.12866 0.0231258 1.49863e-14)
(1.11582 0.0213557 1.55034e-14)
(1.10409 0.0195276 1.58108e-14)
(1.09344 0.0177187 1.59202e-14)
(1.08384 0.0159724 1.5866e-14)
(1.07523 0.0143091 1.56586e-14)
(1.06754 0.0127366 1.5316e-14)
(1.06074 0.0112576 1.48544e-14)
(1.05475 0.00987451 1.42726e-14)
(1.04954 0.00859196 1.35721e-14)
(1.04503 0.00741652 1.27353e-14)
(1.04117 0.00635576 1.17508e-14)
(1.03789 0.00541658 1.06076e-14)
(1.03511 0.00460353 9.29255e-15)
(1.03276 0.00391747 7.80262e-15)
(1.03077 0.0033549 6.13399e-15)
(1.02905 0.00290779 4.29932e-15)
(1.02756 0.00256415 2.32103e-15)
(1.02622 0.00230896 2.27035e-16)
(1.02499 0.00212549 -1.94432e-15)
(1.02384 0.00199659 -4.15686e-15)
(1.02274 0.00190606 -6.37838e-15)
(1.02168 0.00183957 -8.58112e-15)
(1.02064 0.00178543 -1.07492e-14)
(1.01962 0.00173496 -1.28718e-14)
(1.01864 0.00168244 -1.49493e-14)
(1.01768 0.00162489 -1.69878e-14)
(1.01676 0.00156163 -1.8993e-14)
(1.01588 0.00149365 -2.09696e-14)
(1.01503 0.00142306 -2.29097e-14)
(1.01423 0.0013525 -2.47976e-14)
(1.01348 0.00128468 -2.66067e-14)
(1.01276 0.00122201 -2.8305e-14)
(1.01207 0.0011663 -2.9861e-14)
(1.01142 0.00111867 -3.12506e-14)
(1.01079 0.00107949 -3.24683e-14)
(1.01018 0.00104842 -3.35146e-14)
(1.00958 0.00102455 -3.4403e-14)
(1.009 0.00100656 -3.51475e-14)
(1.00842 0.000992926 -3.57566e-14)
(1.00784 0.000982105 -3.62345e-14)
(1.00728 0.000972694 -3.65694e-14)
(1.00671 0.000963547 -3.67509e-14)
(1.00615 0.00095384 -3.67722e-14)
(1.0056 0.000943075 -3.6638e-14)
(1.00505 0.000931041 -3.63716e-14)
(1.00451 0.000917749 -3.59947e-14)
(1.00397 0.000903349 -3.55267e-14)
(1.00345 0.000888064 -3.49627e-14)
(1.00293 0.000872122 -3.42654e-14)
(1.00242 0.000855715 -3.33662e-14)
(1.00192 0.000838964 -3.21594e-14)
(1.00142 0.000821883 -3.05265e-14)
(1.00094 0.000804344 -2.83455e-14)
(1.00047 0.000786063 -2.551e-14)
(1 0.000766593 -2.19491e-14)
(0.999545 0.000745381 -1.76322e-14)
(0.999099 0.000721856 -1.25999e-14)
(0.998666 0.000695516 -6.97844e-15)
(0.998247 0.0006659 -9.99521e-16)
(0.997844 0.000632334 4.99618e-15)
(0.997458 0.000593346 1.05957e-14)
(0.997095 0.000545818 1.5361e-14)
(0.996758 0.000484144 1.89087e-14)
(0.996458 0.000399913 2.0965e-14)
(0.996207 0.0002827 2.13732e-14)
(0.996025 0.000122399 2.00524e-14)
(0.995936 -8.7005e-05 1.69581e-14)
(0.995965 -0.00034301 1.22062e-14)
(0.996135 -0.000630981 6.28942e-15)
(0.996457 -0.000923069 2.56736e-16)
(0.996927 -0.00118096 -4.24368e-15)
(0.997517 -0.00136274 -5.25612e-15)
(0.998178 -0.00143249 -1.20105e-15)
(0.998845 -0.00137025 8.15928e-15)
(0.999448 -0.00117899 2.08207e-14)
(0.999923 -0.000886116 3.21325e-14)
(1.00023 -0.000538553 3.51953e-14)
(1.00035 -0.000192465 2.21722e-14)
(1.0003 9.94293e-05 -1.36806e-14)
(1.00013 0.00029928 -7.56931e-14)
(0.999892 0.000391077 -1.61951e-13)
(0.999645 0.000381582 -2.64251e-13)
(0.999441 0.000295591 -3.68378e-13)
(0.99931 0.000167534 -4.56264e-13)
(0.999264 3.22377e-05 -5.09993e-13)
(0.999296 -8.26098e-05 -5.16699e-13)
(0.999386 -0.000160673 -4.7269e-13)
(0.999507 -0.000197526 -3.84987e-13)
(0.999635 -0.000198297 -2.69733e-13)
(0.999751 -0.000173735 -1.47951e-13)
(0.999844 -0.000136142 -4.00608e-14)
(0.99991 -9.62085e-05 3.90262e-14)
(0.999952 -6.12713e-05 8.27962e-14)
(0.999975 -3.49449e-05 9.33619e-14)
(0.999985 -1.77501e-05 7.9327e-14)
(0.999988 -8.22147e-06 5.23078e-14)
(0.999988 -4.04126e-06 2.33537e-14)
(0.999988 -2.91194e-06 3.46968e-16)
(0.999989 -3.05757e-06 -1.3077e-14)
(0.999991 -3.38384e-06 -1.71407e-14)
(0.999993 -3.40187e-06 -1.45522e-14)
(0.999995 -3.0377e-06 -8.8564e-15)
(0.999997 -2.42701e-06 -3.08457e-15)
(0.999998 -1.75544e-06 9.64524e-16)
(0.999999 -1.16627e-06 2.79067e-15)
(0.999999 -7.28918e-07 2.82502e-15)
(0.999999 -4.47865e-07 1.894e-15)
(1 -2.89265e-07 7.72867e-16)
(1 -2.07839e-07 -5.62595e-17)
(1 -1.64981e-07 -4.44066e-16)
(1 -1.36143e-07 -4.69467e-16)
(1 -1.10187e-07 -3.06551e-16)
(1 -8.481e-08 -1.13364e-16)
(1 -6.1575e-08 2.12127e-17)
(1 -4.24393e-08 7.42799e-17)
(1 -2.82295e-08 6.89342e-17)
(1 -1.85261e-08 3.86696e-17)
(1 -1.22247e-08 9.23895e-18)
(1 -8.12887e-09 -6.79388e-18)
(1 -5.32529e-09 -1.13878e-17)
(1 -3.25358e-09 -8.32472e-18)
(1 -1.66036e-09 -3.35749e-18)
(1 -4.11254e-10 9.18898e-20)
(1 4.93366e-10 2.19479e-18)
(1 1.2102e-09 1.58837e-18)
(1 1.56742e-09 7.39042e-19)
(1 2.08125e-09 2.34708e-19)
(1 1.99551e-09 -8.04572e-19)
(1.00013 -0.00251684 -2.14911e-18)
(1.00201 -0.00760962 -7.29538e-18)
(1.00633 -0.0130767 -6.09624e-18)
(1.01303 -0.0190741 -9.13303e-18)
(1.02259 -0.0256781 4.38252e-19)
(1.03542 -0.0327505 -3.01935e-17)
(1.05191 -0.0399601 2.25745e-17)
(1.07216 -0.0465011 8.38585e-17)
(1.09579 -0.051508 -4.49065e-16)
(1.12177 -0.0538099 4.38599e-17)
(1.14791 -0.0528084 2.50254e-15)
(1.17239 -0.0495372 2.59566e-15)
(1.19453 -0.0446842 -5.26864e-15)
(1.21378 -0.0389068 -2.10701e-14)
(1.22999 -0.0327587 -3.83381e-14)
(1.24325 -0.0265457 -4.86718e-14)
(1.25367 -0.0204129 -4.65688e-14)
(1.2614 -0.0143627 -3.155e-14)
(1.2665 -0.00831405 -7.27262e-15)
(1.26892 -0.00216871 1.96502e-14)
(1.26854 0.00411575 4.39071e-14)
(1.26522 0.0104668 6.3398e-14)
(1.25888 0.0166717 7.74709e-14)
(1.24959 0.022408 8.63773e-14)
(1.23765 0.0273161 9.0911e-14)
(1.22357 0.0310905 9.20676e-14)
(1.20801 0.0335548 9.08477e-14)
(1.19171 0.0346952 8.80369e-14)
(1.1753 0.0346459 8.42033e-14)
(1.15935 0.0336401 7.97207e-14)
(1.14422 0.0319503 7.48162e-14)
(1.13014 0.0298359 6.96455e-14)
(1.1172 0.0275097 6.43188e-14)
(1.10543 0.0251252 5.8906e-14)
(1.09478 0.0227788 5.34779e-14)
(1.0852 0.0205223 4.80818e-14)
(1.07661 0.018378 4.27361e-14)
(1.06895 0.0163526 3.74301e-14)
(1.06218 0.0144477 3.21133e-14)
(1.05623 0.0126656 2.67202e-14)
(1.05106 0.0110121 2.1171e-14)
(1.0466 0.00949601 1.53888e-14)
(1.0428 0.00812791 9.31433e-15)
(1.03958 0.00691735 2.91043e-15)
(1.03687 0.00587075 -3.82177e-15)
(1.03458 0.00498955 -1.0846e-14)
(1.03265 0.00426925 -1.80878e-14)
(1.03099 0.00369931 -2.54378e-14)
(1.02954 0.00326383 -3.27638e-14)
(1.02824 0.00294293 -3.99213e-14)
(1.02705 0.00271446 -4.67773e-14)
(1.02592 0.00255583 -5.32293e-14)
(1.02483 0.00244568 -5.92132e-14)
(1.02377 0.0023653 -6.47001e-14)
(1.02272 0.00229949 -6.9704e-14)
(1.0217 0.00223707 -7.42633e-14)
(1.02071 0.0021708 -7.84376e-14)
(1.01974 0.00209706 -8.22895e-14)
(1.01881 0.00201523 -8.58629e-14)
(1.01791 0.00192686 -8.91761e-14)
(1.01707 0.0018349 -9.22035e-14)
(1.01626 0.001743 -9.48867e-14)
(1.0155 0.00165479 -9.7142e-14)
(1.01478 0.00157348 -9.88823e-14)
(1.01409 0.00150149 -1.00047e-13)
(1.01343 0.00144025 -1.00613e-13)
(1.0128 0.00139022 -1.00612e-13)
(1.01219 0.00135088 -1.0011e-13)
(1.01159 0.00132101 -9.91927e-14)
(1.011 0.0012988 -9.79364e-14)
(1.01041 0.00128222 -9.63822e-14)
(1.00983 0.00126921 -9.45372e-14)
(1.00925 0.00125792 -9.23739e-14)
(1.00868 0.00124684 -8.98607e-14)
(1.00811 0.00123491 -8.69911e-14)
(1.00754 0.00122153 -8.37958e-14)
(1.00698 0.00120644 -8.03507e-14)
(1.00643 0.0011897 -7.67381e-14)
(1.00588 0.00117154 -7.30104e-14)
(1.00534 0.00115227 -6.91494e-14)
(1.00481 0.00113222 -6.5036e-14)
(1.00429 0.00111166 -6.04655e-14)
(1.00377 0.00109074 -5.51643e-14)
(1.00326 0.00106952 -4.88416e-14)
(1.00276 0.00104783 -4.12329e-14)
(1.00227 0.00102534 -3.21278e-14)
(1.00178 0.00100147 -2.14029e-14)
(1.00131 0.000975518 -9.02579e-15)
(1.00084 0.000946714 4.91682e-15)
(1.00038 0.000914367 2.01917e-14)
(0.999935 0.000877831 3.63981e-14)
(0.999502 0.000836215 5.29666e-14)
(0.999086 0.000787685 6.92249e-14)
(0.998689 0.000728432 8.45139e-14)
(0.998317 0.000651621 9.83409e-14)
(0.997978 0.000546962 1.10483e-13)
(0.997683 0.000401625 1.20975e-13)
(0.997449 0.000203067 1.29954e-13)
(0.997297 -5.63352e-05 1.37514e-13)
(0.997249 -0.000373759 1.43947e-13)
(0.997326 -0.000731366 1.50362e-13)
(0.997539 -0.00109481 1.59039e-13)
(0.997883 -0.00141653 1.73333e-13)
(0.998334 -0.00164418 1.96719e-13)
(0.99885 -0.00173273 2.30922e-13)
(0.999372 -0.00165686 2.73583e-13)
(0.999836 -0.00141997 3.16415e-13)
(1.00019 -0.00105621 3.4483e-13)
(1.00039 -0.00062437 3.39619e-13)
(1.00042 -0.000195051 2.80702e-13)
(1.00031 0.000165372 1.5237e-13)
(1.0001 0.000409206 -5.10759e-14)
(0.999835 0.000516359 -3.21211e-13)
(0.999578 0.000495607 -6.33103e-13)
(0.999374 0.00037866 -9.4622e-13)
(0.999252 0.00020954 -1.21024e-12)
(0.999219 3.28086e-05 -1.3758e-12)
(0.999266 -0.000116092 -1.40777e-12)
(0.999371 -0.000216309 -1.29638e-12)
(0.999506 -0.000262371 -1.0615e-12)
(0.999644 -0.000261207 -7.48177e-13)
(0.999767 -0.000227076 -4.14868e-13)
(0.999863 -0.000176258 -1.18287e-13)
(0.999929 -0.000122897 1.00114e-13)
(0.999968 -7.66627e-05 2.22052e-13)
(0.999986 -4.22555e-05 2.52981e-13)
(0.999992 -2.02285e-05 2.16226e-13)
(0.999992 -8.47659e-06 1.43437e-13)
(0.99999 -3.77353e-06 6.48183e-14)
(0.999989 -2.96083e-06 2.01019e-15)
(0.999989 -3.63044e-06 -3.48988e-14)
(0.999991 -4.33554e-06 -4.63423e-14)
(0.999993 -4.4725e-06 -3.95871e-14)
(0.999995 -4.00448e-06 -2.42416e-14)
(0.999997 -3.16797e-06 -8.5703e-15)
(0.999998 -2.24835e-06 2.48397e-15)
(0.999999 -1.45433e-06 7.51749e-15)
(0.999999 -8.80368e-07 7.66691e-15)
(0.999999 -5.2588e-07 5.16637e-15)
(1 -3.37291e-07 2.12711e-15)
(1 -2.48041e-07 -1.3437e-16)
(1 -2.04033e-07 -1.19776e-15)
(1 -1.72846e-07 -1.27454e-15)
(1 -1.41432e-07 -8.35832e-16)
(1 -1.08714e-07 -3.10618e-16)
(1 -7.82101e-08 5.44199e-17)
(1 -5.32337e-08 2.00622e-16)
(1 -3.50312e-08 1.87167e-16)
(1 -2.29195e-08 1.05133e-16)
(1 -1.52588e-08 2.59759e-17)
(1 -1.03584e-08 -1.94162e-17)
(1 -6.98874e-09 -3.12908e-17)
(1 -4.44723e-09 -2.27938e-17)
(1 -2.4492e-09 -9.41572e-18)
(1 -8.65888e-10 8.04289e-19)
(1 2.89097e-10 4.84515e-18)
(1 1.18666e-09 3.92522e-18)
(1 1.65691e-09 1.90194e-18)
(1 2.2496e-09 2.12645e-19)
(1 2.22386e-09 -6.96224e-19)
(1.00012 -0.00302205 2.27507e-18)
(1.00189 -0.00914413 8.3743e-18)
(1.00595 -0.0157563 5.69452e-18)
(1.01234 -0.0230772 9.87493e-18)
(1.02161 -0.0312326 2.25201e-17)
(1.03428 -0.0400868 -9.87283e-17)
(1.05093 -0.0492548 4.7217e-16)
(1.07184 -0.0576881 -1.00854e-15)
(1.09672 -0.0642551 -4.42002e-16)
(1.12448 -0.0672183 7.06825e-15)
(1.15226 -0.065736 2.30859e-15)
(1.17788 -0.0614078 -3.21403e-14)
(1.20075 -0.055154 -7.73732e-14)
(1.22039 -0.0478339 -9.00362e-14)
(1.23674 -0.0401527 -3.77697e-14)
(1.25001 -0.0324745 8.09807e-14)
(1.2604 -0.0249583 2.40535e-13)
(1.26811 -0.0175789 4.0234e-13)
(1.27324 -0.0102058 5.31249e-13)
(1.27573 -0.00268633 5.98027e-13)
(1.27542 0.00505449 6.12794e-13)
(1.27207 0.0129338 5.94565e-13)
(1.26554 0.0206761 5.54742e-13)
(1.25587 0.0278555 5.02441e-13)
(1.24335 0.0339942 4.44939e-13)
(1.22854 0.0386877 3.8735e-13)
(1.21221 0.0417067 3.3275e-13)
(1.19516 0.0430399 2.82522e-13)
(1.17811 0.0428716 2.36963e-13)
(1.16166 0.0415133 1.95854e-13)
(1.14618 0.0393215 1.58808e-13)
(1.13189 0.0366298 1.25463e-13)
(1.11885 0.0337058 9.54948e-14)
(1.10704 0.0307369 6.8604e-14)
(1.09639 0.0278363 4.44487e-14)
(1.08683 0.0250609 2.26313e-14)
(1.07827 0.0224312 2.68204e-15)
(1.07066 0.0199506 -1.59294e-14)
(1.06392 0.0176177 -3.37447e-14)
(1.05802 0.0154339 -5.12806e-14)
(1.05291 0.0134062 -6.89602e-14)
(1.04851 0.0115461 -8.70731e-14)
(1.04478 0.00986751 -1.05748e-13)
(1.04164 0.00838334 -1.24946e-13)
(1.03901 0.00710225 -1.44478e-13)
(1.03681 0.00602649 -1.64016e-13)
(1.03495 0.00515063 -1.83131e-13)
(1.03337 0.0044614 -2.01329e-13)
(1.03198 0.0039387 -2.18116e-13)
(1.03073 0.00355737 -2.33075e-13)
(1.02957 0.00328939 -2.45908e-13)
(1.02847 0.00310625 -2.5648e-13)
(1.02739 0.00298116 -2.64812e-13)
(1.02633 0.00289071 -2.71066e-13)
(1.02528 0.00281609 -2.75496e-13)
(1.02425 0.00274357 -2.78404e-13)
(1.02324 0.0026645 -2.80095e-13)
(1.02226 0.00257478 -2.80819e-13)
(1.02132 0.002474 -2.80738e-13)
(1.02041 0.00236451 -2.79885e-13)
(1.01956 0.0022503 -2.7816e-13)
(1.01874 0.00213616 -2.75366e-13)
(1.01798 0.0020268 -2.71265e-13)
(1.01725 0.00192632 -2.65661e-13)
(1.01656 0.00183777 -2.58468e-13)
(1.01591 0.00176294 -2.49759e-13)
(1.01527 0.00170231 -2.39751e-13)
(1.01466 0.0016552 -2.28759e-13)
(1.01405 0.00161995 -2.17113e-13)
(1.01345 0.00159424 -2.05064e-13)
(1.01286 0.00157544 -1.92736e-13)