/*--------------------------------*- C++ -*----------------------------------*\
  =========                 |
  \\      /  F ield         | OpenFOAM: The Open Source CFD Toolbox
   \\    /   O peration     | Website:  https://openfoam.org
    \\  /    A nd           | Version:  11
     \\/     M anipulation  |
\*---------------------------------------------------------------------------*/
FoamFile
{
    format      ascii;
    class       volScalarField;
    location    "9.511489";
    object      p;
}
// * * * * * * * * * * * * * * * * * * * * * * * * * * * * * * * * * * * * * //

dimensions      [0 2 -2 0 0 0 0];

internalField   nonuniform List<scalar> 
7132
(
0.061544
0.0602424
0.0558389
0.0494071
0.0404059
0.0285697
0.0138392
-0.00375763
-0.0236897
-0.0449963
-0.0663031
-0.0857684
-0.102389
-0.115248
-0.12373
-0.12748
-0.12629
-0.120222
-0.10979
-0.0960274
-0.0803202
-0.0640942
-0.0486153
-0.0349185
-0.0237658
-0.0155848
-0.0103031
-0.0071733
-0.00487034
-0.00209686
0.00178384
0.00663286
0.0119194
0.017146
0.0220527
0.0266414
0.0310475
0.0353398
0.0392825
0.0421253
0.0426999
0.040172
0.0350744
0.0296146
0.0263303
0.026302
0.0287493
0.0320925
0.0351102
0.0372961
0.0387135
0.0397135
0.0406641
0.0416397
0.0419606
0.0399157
0.0332271
0.0207105
0.00424971
-0.010855
-0.018734
-0.0171774
-0.00899551
0.000723724
0.00841153
0.013111
0.015389
0.0161052
0.0158515
0.0148593
0.0130681
0.0103144
0.00658516
0.00224164
-0.0019784
-0.0052601
-0.00712656
-0.0076226
-0.00717712
-0.00629935
-0.00536617
-0.00456963
-0.00396256
-0.00352604
-0.00321994
-0.00300913
-0.00287146
-0.00279662
-0.00278127
-0.00282301
-0.00291498
-0.00304288
-0.00318543
-0.00331806
-0.00341845
-0.00347112
-0.00346991
-0.00341734
-0.00332197
-0.00319519
-0.00304854
-0.00289216
-0.00273416
-0.00258061
-0.00243577
-0.00230232
-0.00218162
-0.00207389
-0.00197841
-0.00189376
-0.00181805
-0.00174916
-0.00168498
-0.00162364
-0.00156362
-0.00150387
-0.00144376
-0.0013831
-0.00132199
-0.00126075
-0.00119982
-0.00113969
-0.00108082
-0.00102359
-0.000968316
-0.000915202
-0.000864359
-0.000815815
-0.000769523
-0.000725387
-0.000683275
-0.000643038
-0.000604525
-0.000567594
-0.00053212
-0.000498001
-0.000465154
-0.000433521
-0.000403059
-0.00037374
-0.000345548
-0.000318473
-0.000292507
-0.000267651
-0.000243882
-0.000221224
-0.000199591
-0.000179108
-0.00015945
-0.00014118
-0.000123049
-0.000107375
-8.94461e-05
-7.81551e-05
-5.62766e-05
-5.6081e-05
-1.72126e-05
-5.04213e-05
4.46709e-05
-8.99074e-05
0.0620642
0.0607731
0.0564072
0.0500134
0.0410401
0.0291947
0.0143936
-0.00337139
-0.0235661
-0.0452208
-0.0668856
-0.0865974
-0.103394
-0.116366
-0.124915
-0.128702
-0.127499
-0.12133
-0.110684
-0.0966094
-0.0805458
-0.0639741
-0.0482064
-0.0343137
-0.0230809
-0.014951
-0.00984988
-0.00698982
-0.00495668
-0.00236588
0.00144933
0.00632001
0.0116702
0.0169723
0.0219524
0.0266097
0.0310805
0.0354335
0.0394308
0.0423034
0.0428386
0.0401545
0.0347883
0.0290434
0.0255971
0.0255828
0.0281674
0.0316761
0.0348365
0.0371345
0.0386379
0.0396979
0.0406715
0.0416207
0.0418396
0.0395869
0.0325668
0.0196129
0.00267053
-0.0128444
-0.0208816
-0.0191147
-0.0104211
-0.000125339
0.00801368
0.0129985
0.0154404
0.0162471
0.0160358
0.015049
0.0132267
0.0104046
0.00657168
0.0021033
-0.0022341
-0.00559127
-0.00747322
-0.00793068
-0.00741834
-0.00647035
-0.00547766
-0.0046362
-0.00399724
-0.00353893
-0.00321857
-0.00299918
-0.00285724
-0.00278136
-0.00276736
-0.00281226
-0.00290868
-0.00304176
-0.00318954
-0.00332672
-0.00343036
-0.00348469
-0.00348351
-0.00342962
-0.00333204
-0.00320261
-0.00305326
-0.0028944
-0.00273434
-0.00257922
-0.00243332
-0.0022993
-0.00217842
-0.00207083
-0.00197571
-0.00189155
-0.00181638
-0.00174802
-0.00168432
-0.00162336
-0.00156363
-0.00150405
-0.00144402
-0.00138336
-0.00132218
-0.00126083
-0.00119978
-0.00113952
-0.00108053
-0.00102321
-0.000967872
-0.000914717
-0.000863858
-0.000815318
-0.000769047
-0.000724943
-0.000682868
-0.00064267
-0.000604195
-0.000567297
-0.000531852
-0.000497755
-0.000464925
-0.000433302
-0.000402847
-0.000373531
-0.00034534
-0.000318265
-0.000292297
-0.00026744
-0.000243671
-0.000221013
-0.000199382
-0.000178904
-0.000159249
-0.000140991
-0.000122861
-0.000107221
-8.9255e-05
-7.80946e-05
-5.59686e-05
-5.63504e-05
-1.62375e-05
-5.20632e-05
4.86379e-05
-9.75959e-05
0.0631
0.0618315
0.0575426
0.0512294
0.0423174
0.0304596
0.0155227
-0.00257912
-0.0233063
-0.0456761
-0.0680744
-0.0882793
-0.105427
-0.118616
-0.127295
-0.131157
-0.129935
-0.123567
-0.112491
-0.0977863
-0.0809997
-0.0637268
-0.0473722
-0.03308
-0.0216826
-0.0136568
-0.00892823
-0.00662863
-0.0051566
-0.00294172
0.00074464
0.00566655
0.0111508
0.0166062
0.0217318
0.0265225
0.0311203
0.0355938
0.0397024
0.042637
0.0430919
0.0400832
0.0341558
0.0278159
0.0240376
0.0240664
0.02695
0.0308083
0.0342616
0.0367833
0.0384543
0.0396291
0.040646
0.0415397
0.0415512
0.0388724
0.0311501
0.0172405
-0.000751489
-0.0171229
-0.0254593
-0.023217
-0.0134288
-0.00190957
0.0071774
0.0127518
0.0155263
0.0165154
0.0163916
0.0154192
0.013538
0.0105796
0.00653632
0.00181178
-0.00276745
-0.0062799
-0.00819179
-0.00856656
-0.00791376
-0.00681988
-0.00570482
-0.00477172
-0.00406812
-0.00356573
-0.00321647
-0.0029796
-0.00282886
-0.00275066
-0.00273919
-0.00279032
-0.00289565
-0.00303921
-0.00319764
-0.00334413
-0.00345444
-0.00351225
-0.00351118
-0.00345465
-0.0033526
-0.0032178
-0.00306297
-0.00289908
-0.00273481
-0.00257649
-0.00242843
-0.0022932
-0.00217195
-0.00206462
-0.00197022
-0.00188705
-0.00181298
-0.00174569
-0.00168296
-0.0016228
-0.00156365
-0.00150444
-0.00144458
-0.00138391
-0.0013226
-0.00126103
-0.00119973
-0.00113922
-0.00107999
-0.00102248
-0.000966998
-0.000913756
-0.000862861
-0.000814328
-0.000768097
-0.000724056
-0.000682057
-0.000641938
-0.000603539
-0.000566711
-0.000531324
-0.000497273
-0.000464478
-0.000432879
-0.000402438
-0.000373131
-0.000344942
-0.000317867
-0.000291898
-0.00026704
-0.00024327
-0.000220615
-0.000198989
-0.000178521
-0.000158876
-0.000140643
-0.000122517
-0.000106948
-8.89141e-05
-7.80128e-05
-5.54112e-05
-5.69252e-05
-1.43941e-05
-5.53314e-05
5.62616e-05
-0.000112457
0.0646426
0.0634101
0.0592435
0.0530619
0.0442556
0.0323949
0.0172667
-0.00134201
-0.0228868
-0.0463801
-0.0699255
-0.0908707
-0.10854
-0.122049
-0.130925
-0.134917
-0.133688
-0.127034
-0.115297
-0.0996132
-0.0817028
-0.0633436
-0.0460819
-0.0311731
-0.019521
-0.0116604
-0.00752542
-0.00612377
-0.00554783
-0.00391955
-0.0004147
0.00461035
0.010318
0.0160149
0.0213612
0.026349
0.0311322
0.0357817
0.0400531
0.0430759
0.0433941
0.0398562
0.0330176
0.0257166
0.0214238
0.021567
0.0249783
0.02942
0.0333386
0.0361999
0.0381178
0.0394594
0.0405333
0.0413248
0.0410018
0.0376595
0.0288604
0.0135108
-0.00606177
-0.0237766
-0.032672
-0.0297921
-0.018289
-0.00479853
0.00581685
0.0123253
0.0156138
0.0168821
0.0168961
0.0159525
0.0139863
0.010819
0.00644648
0.00131724
-0.00364436
-0.00739823
-0.00934584
-0.00957524
-0.008689
-0.00735938
-0.00605106
-0.00497597
-0.00417359
-0.0036044
-0.00321154
-0.00294844
-0.00278466
-0.0027033
-0.00269606
-0.00275708
-0.00287647
-0.00303647
-0.00321154
-0.0033725
-0.00349311
-0.00355586
-0.00355451
-0.00349347
-0.00338416
-0.00324082
-0.00307738
-0.00290569
-0.00273496
-0.00257178
-0.00242049
-0.00228355
-0.00216185
-0.00205505
-0.00196184
-0.00188026
-0.00180792
-0.00174232
-0.00168109
-0.00162214
-0.00156386
-0.00150517
-0.00144553
-0.00138482
-0.00132327
-0.00126136
-0.00119964
-0.00113872
-0.00107913
-0.00102133
-0.000965631
-0.000912263
-0.000861322
-0.000812808
-0.000766648
-0.00072271
-0.000680832
-0.00064084
-0.00060256
-0.000565838
-0.000530539
-0.000496557
-0.000463811
-0.000432246
-0.000401824
-0.000372525
-0.000344338
-0.00031726
-0.000291287
-0.000266425
-0.000242654
-0.000220001
-0.000198381
-0.000177927
-0.000158297
-0.000140099
-0.000121983
-0.000106508
-8.83905e-05
-7.78347e-05
-5.4601e-05
-5.7652e-05
-1.1794e-05
-5.98288e-05
6.70823e-05
-0.000133479
0.0666777
0.0654971
0.0615064
0.0555197
0.0468813
0.0350475
0.0196902
0.000404735
-0.0222656
-0.0473585
-0.0725247
-0.0944535
-0.112803
-0.126709
-0.135832
-0.140012
-0.138812
-0.131804
-0.119174
-0.102133
-0.0826605
-0.0627965
-0.0442807
-0.028519
-0.0165139
-0.0088914
-0.00561671
-0.00552846
-0.00625839
-0.0054596
-0.00216967
0.00305038
0.00910377
0.0151476
0.0207923
0.0260345
0.0310524
0.0359225
0.0404016
0.0435247
0.0436156
0.0392804
0.0310755
0.022347
0.0173514
0.0177661
0.0220477
0.0273907
0.0319864
0.0353132
0.0375542
0.0391009
0.0402088
0.0408087
0.040002
0.0357561
0.0255198
0.00830299
-0.0132535
-0.0326468
-0.0423418
-0.0388195
-0.0251409
-0.00895713
0.00382003
0.0116526
0.0156555
0.0173056
0.0175129
0.0166194
0.0145452
0.011089
0.00624829
0.000536234
-0.00497598
-0.00906694
-0.0110421
-0.011035
-0.00979091
-0.00811158
-0.00652464
-0.00525003
-0.00431164
-0.00365176
-0.00320023
-0.00290221
-0.00272151
-0.00263664
-0.00263602
-0.00271142
-0.00285096
-0.00303443
-0.00323313
-0.00341447
-0.00354933
-0.00361857
-0.00361609
-0.00354805
-0.00342797
-0.00327225
-0.00309652
-0.00291386
-0.00273416
-0.00256434
-0.00240876
-0.00226963
-0.00214753
-0.00204166
-0.00195029
-0.00187104
-0.0018012
-0.00173801
-0.00167887
-0.00162159
-0.00156448
-0.00150648
-0.00144708
-0.00138624
-0.00132432
-0.00126186
-0.00119954
-0.00113803
-0.00107792
-0.00101969
-0.000963711
-0.00091018
-0.000859189
-0.00081072
-0.000764674
-0.000720894
-0.000679197
-0.000639386
-0.000601277
-0.000564702
-0.000529523
-0.000495633
-0.000462952
-0.000431427
-0.000401026
-0.000371734
-0.000343545
-0.000316459
-0.000290478
-0.000265609
-0.000241835
-0.000219185
-0.000197574
-0.000177137
-0.000157529
-0.000139373
-0.000121279
-0.000105912
-8.77215e-05
-7.75541e-05
-5.36278e-05
-5.8442e-05
-8.70358e-06
-6.51615e-05
8.03334e-05
-0.000159334
0.0691847
0.0680753
0.0643245
0.0586134
0.0502289
0.0384813
0.0228829
0.00275367
-0.0213819
-0.0486565
-0.0760081
-0.0991525
-0.118328
-0.132698
-0.142129
-0.146599
-0.145511
-0.138101
-0.124311
-0.105466
-0.0839199
-0.062072
-0.0419093
-0.0250298
-0.0125596
-0.00526328
-0.00318207
-0.00493744
-0.00748783
-0.00780276
-0.00472753
0.00083889
0.00740808
0.0139283
0.0199535
0.0254982
0.030783
0.0359018
0.0406131
0.0438096
0.0435016
0.0379564
0.0277655
0.0170044
0.0111275
0.0121445
0.0178452
0.0245513
0.0300983
0.0340323
0.0366649
0.038417
0.0394693
0.0397543
0.0383322
0.0329652
0.0208931
0.00121124
-0.0229101
-0.0442313
-0.0546172
-0.0501554
-0.0338984
-0.0144273
0.00109962
0.0106515
0.0155782
0.0177177
0.01818
0.0173645
0.0151599
0.0113235
0.00585003
-0.000660017
-0.00692942
-0.0114696
-0.0134385
-0.0130596
-0.0112849
-0.00910577
-0.00713463
-0.00559394
-0.0044791
-0.00370374
-0.00317844
-0.0028372
-0.00263635
-0.00254844
-0.00255768
-0.00265298
-0.00282003
-0.00303539
-0.00326601
-0.00347451
-0.00362783
-0.00370472
-0.00369954
-0.00362087
-0.0034854
-0.00331247
-0.00312004
-0.00292272
-0.00273128
-0.00255296
-0.00239206
-0.00225047
-0.00212822
-0.00202395
-0.00193529
-0.00185934
-0.00179295
-0.001733
-0.00167664
-0.00162152
-0.00156589
-0.00150868
-0.00144948
-0.00138837
-0.00132583
-0.00126258
-0.00119939
-0.00113706
-0.00107624
-0.00101748
-0.000961128
-0.000907407
-0.000856381
-0.000808001
-0.000762133
-0.000718586
-0.000677143
-0.000637584
-0.000599704
-0.000563324
-0.0005283
-0.000494522
-0.000461916
-0.000430433
-0.000400049
-0.000370757
-0.000342555
-0.000315453
-0.000289455
-0.000264573
-0.000240793
-0.000218145
-0.000196544
-0.000176128
-0.000156549
-0.000138438
-0.000120382
-0.000105122
-8.68953e-05
-7.70958e-05
-5.25397e-05
-5.90957e-05
-5.39907e-06
-7.06963e-05
9.50473e-05
-0.000188126
0.0721356
0.0711205
0.0676866
0.0623532
0.0543403
0.0427795
0.0269675
0.00583813
-0.0201426
-0.0503378
-0.080567
-0.105129
-0.125234
-0.14007
-0.149825
-0.154705
-0.153895
-0.146105
-0.130887
-0.109729
-0.0855205
-0.0611472
-0.0389001
-0.0206051
-0.00753821
-0.000673912
-0.00021146
-0.00450945
-0.00956691
-0.0113305
-0.00840227
-0.00223204
0.00510097
0.0122617
0.0187505
0.0246265
0.0301838
0.0355504
0.040445
0.043604
0.0427042
0.0355357
0.0226221
0.00900075
0.00189239
0.00396748
0.0119187
0.0206654
0.027534
0.0322399
0.0353093
0.0372073
0.0380764
0.0379644
0.035876
0.0291711
0.0147303
-0.00820246
-0.0356067
-0.0591248
-0.0698802
-0.0638259
-0.0444195
-0.0211451
-0.00238771
0.00923424
0.0152867
0.0180239
0.0188057
0.0180893
0.0157302
0.0114359
0.00518968
-0.00232544
-0.00958714
-0.0147395
-0.0166929
-0.0157839
-0.0132556
-0.0103815
-0.0078937
-0.00600827
-0.00467223
-0.00375534
-0.00314094
-0.00274846
-0.00252497
-0.00243547
-0.00245901
-0.00258115
-0.00278476
-0.00304229
-0.00331486
-0.00355853
-0.00373488
-0.00382028
-0.00380968
-0.00371535
-0.00355838
-0.00336214
-0.00314762
-0.00293129
-0.00272494
-0.00253613
-0.00236897
-0.00222483
-0.00210299
-0.00200127
-0.00191649
-0.00184508
-0.00178329
-0.00172758
-0.0016748
-0.00162238
-0.00156851
-0.00151218
-0.00145306
-0.00139143
-0.00132797
-0.00126357
-0.00119919
-0.00113575
-0.00107401
-0.00101455
-0.000957757
-0.000903831
-0.000852805
-0.000804585
-0.000758986
-0.000715771
-0.000674679
-0.000635458
-0.000597878
-0.000561745
-0.00052691
-0.000493265
-0.000460739
-0.000429295
-0.000398918
-0.000369611
-0.000341383
-0.000314252
-0.000288227
-0.000263324
-0.000239534
-0.000216885
-0.000195298
-0.000174904
-0.000155365
-0.0001373
-0.000119308
-0.000104136
-8.59456e-05
-7.64258e-05
-5.14508e-05
-5.94409e-05
-2.29901e-06
-7.5725e-05
0.000109851
-0.000217386
0.0754929
0.0745998
0.0715744
0.0667462
0.059262
0.0480437
0.0321005
0.0098383
-0.0184185
-0.0525094
-0.0864861
-0.112606
-0.133716
-0.148998
-0.159117
-0.164596
-0.164305
-0.156196
-0.139232
-0.115131
-0.0875477
-0.0600147
-0.0351778
-0.0151303
-0.00131574
0.00498503
0.00327177
-0.00450888
-0.0129697
-0.0165699
-0.0136136
-0.00643649
0.0020096
0.0100179
0.0170526
0.0232642
0.0290652
0.0345778
0.0393925
0.0422268
0.0407113
0.0321655
0.0165069
-0.000882054
-0.0104218
-0.00743434
0.00368642
0.0154107
0.02412
0.0297962
0.033307
0.0352339
0.0358189
0.0353462
0.0325749
0.0242419
0.00685508
-0.0199495
-0.0510994
-0.0769981
-0.087877
-0.0796471
-0.0564614
-0.0289412
-0.00662725
0.00731386
0.0146595
0.0180913
0.0192337
0.0186036
0.0160673
0.0113355
0.00438109
-0.00414141
-0.0125792
-0.0186473
-0.0207842
-0.0192826
-0.0157791
-0.0119802
-0.00881473
-0.00649265
-0.00488667
-0.0038016
-0.003083
-0.00263197
-0.00238438
-0.00229582
-0.00233915
-0.00249647
-0.00274757
-0.00305978
-0.00338645
-0.00367478
-0.00387924
-0.0039731
-0.0039527
-0.0038356
-0.00364904
-0.00342174
-0.00317849
-0.00293804
-0.00271324
-0.00251189
-0.00233769
-0.00219121
-0.00207072
-0.00197292
-0.00189359
-0.00182826
-0.0017725
-0.00172222
-0.00167391
-0.00162477
-0.00157294
-0.00151747
-0.00145822
-0.00139571
-0.00133087
-0.00126487
-0.00119888
-0.00113398
-0.00107105
-0.00101074
-0.000953434
-0.000899308
-0.000848345
-0.000800387
-0.000755183
-0.000712428
-0.00067181
-0.000633031
-0.000595833
-0.000560007
-0.000525398
-0.000491901
-0.000459456
-0.000428038
-0.000397649
-0.000368305
-0.000340029
-0.000312849
-0.000286782
-0.00026185
-0.000238044
-0.000215394
-0.000193823
-0.000173454
-0.000153965
-0.000135942
-0.000118046
-0.000102927
-8.4879e-05
-7.54759e-05
-5.0454e-05
-5.9246e-05
1.37631e-07
-7.93554e-05
0.000122991
-0.000243828
0.0792084
0.0784698
0.0759599
0.0717941
0.0650439
0.0543982
0.0384872
0.015011
-0.016013
-0.0553211
-0.0941681
-0.121869
-0.143925
-0.159451
-0.169887
-0.176276
-0.177007
-0.168816
-0.149769
-0.12195
-0.0901328
-0.0587106
-0.0307274
-0.00855081
0.00620228
0.0117946
0.00718299
-0.00535367
-0.0184849
-0.0243826
-0.0210174
-0.0121647
-0.00208271
0.00704439
0.0147033
0.021227
0.0271658
0.0324483
0.0365433
0.038525
0.0362709
0.027002
0.00964281
-0.0114637
-0.0246611
-0.0218569
-0.00720398
0.00844081
0.0196399
0.0265271
0.0304485
0.0322706
0.0325628
0.0318383
0.0283456
0.0180924
-0.0026097
-0.0334778
-0.0684055
-0.09667
-0.107577
-0.0968572
-0.0695163
-0.0375235
-0.0115433
0.0048157
0.0135548
0.0177336
0.0192011
0.0185818
0.0158529
0.0108254
0.0034701
-0.00572552
-0.0152449
-0.0225227
-0.0252885
-0.0234066
-0.018848
-0.013923
-0.00990744
-0.00704602
-0.00511777
-0.00383742
-0.00299962
-0.00248312
-0.00221089
-0.00212726
-0.0021975
-0.00240022
-0.00271204
-0.00309401
-0.00348936
-0.00383351
-0.00407146
-0.00417265
-0.00413601
-0.00398655
-0.00375987
-0.00349174
-0.00321168
-0.00294109
-0.00269389
-0.00247788
-0.0022961
-0.00214792
-0.0020302
-0.00193816
-0.00186627
-0.00180896
-0.00176093
-0.00171748
-0.00167464
-0.0016294
-0.00157983
-0.00152512
-0.00146539
-0.00140148
-0.00133469
-0.0012665
-0.00119838
-0.00113161
-0.0010672
-0.00100586
-0.00094798
-0.000893686
-0.000842888
-0.000795338
-0.000750691
-0.000708561
-0.000668563
-0.00063035
-0.000593628
-0.000558172
-0.000523822
-0.000490483
-0.000458109
-0.000426697
-0.000396267
-0.000366857
-0.000338505
-0.000311253
-0.000285127
-0.000260153
-0.000236328
-0.000213675
-0.000192127
-0.000171784
-0.000152361
-0.000134375
-0.000116614
-0.000101498
-8.37332e-05
-7.42133e-05
-4.96844e-05
-5.83117e-05
1.33883e-06
-8.06292e-05
0.000132192
-0.000263301
0.0832211
0.0826736
0.0808011
0.0774854
0.0717302
0.0619805
0.046375
0.0216961
-0.0126615
-0.0590373
-0.104187
-0.133281
-0.156211
-0.171773
-0.182465
-0.190052
-0.192416
-0.184534
-0.163045
-0.130553
-0.0934475
-0.0572821
-0.0255146
-0.000799788
0.0150897
0.0197575
0.011247
-0.00784146
-0.0273414
-0.0359599
-0.0314499
-0.0198902
-0.00743728
0.00315165
0.0115158
0.0183009
0.0240938
0.0284128
0.0309134
0.0315779
0.0285602
0.0189224
0.000331633
-0.0238745
-0.0406908
-0.038686
-0.0206498
-0.000435904
0.0138859
0.022238
0.0265258
0.02814
0.0282043
0.0273361
0.023072
0.010741
-0.0132611
-0.0478983
-0.0862275
-0.116614
-0.127461
-0.114249
-0.082791
-0.0464655
-0.0169984
0.00168669
0.0118088
0.0166855
0.0183338
0.0175877
0.0146342
0.0094547
0.00206246
-0.0073185
-0.0175428
-0.0259912
-0.029679
-0.0277945
-0.0223111
-0.0161707
-0.0111632
-0.00766262
-0.00536017
-0.00385891
-0.00288831
-0.00230081
-0.00200475
-0.00193123
-0.00203618
-0.00229538
-0.00268265
-0.00315154
-0.00363238
-0.00404518
-0.00432243
-0.00442873
-0.00436733
-0.0041732
-0.00389318
-0.00357221
-0.0032457
-0.00293802
-0.00266408
-0.0024314
-0.00224186
-0.00209315
-0.00198023
-0.00189638
-0.00183441
-0.00178741
-0.00174909
-0.001714
-0.00167772
-0.00163697
-0.00158983
-0.00153568
-0.001475
-0.00140904
-0.00133956
-0.00126848
-0.00119761
-0.00112848
-0.00106227
-0.000999719
-0.000941219
-0.000886821
-0.000836326
-0.000789366
-0.000745477
-0.000704165
-0.000664961
-0.000627453
-0.000591311
-0.000556291
-0.000522233
-0.000489057
-0.000456739
-0.000425302
-0.000394795
-0.000365279
-0.000336817
-0.000309464
-0.000283259
-0.000258231
-0.000234381
-0.000211726
-0.000190207
-0.000169896
-0.000150555
-0.000132598
-0.000115016
-9.98431e-05
-8.25297e-05
-7.2597e-05
-4.92575e-05
-5.64324e-05
7.08732e-07
-7.85093e-05
0.000134695
-0.000270691
0.0874552
0.0871399
0.0860387
0.0837938
0.0793579
0.0709536
0.0560868
0.0303971
-0.00794253
-0.0640141
-0.117445
-0.147331
-0.170576
-0.185499
-0.196382
-0.206039
-0.211337
-0.204445
-0.18
-0.141524
-0.0978107
-0.0559367
-0.0197484
0.00790371
0.0252443
0.0285833
0.0146382
-0.0135402
-0.0418583
-0.0534409
-0.0463477
-0.030327
-0.014374
-0.00185773
0.00731404
0.0142395
0.0193751
0.0218294
0.0222512
0.0217443
0.0183222
0.00808463
-0.012171
-0.0390817
-0.058822
-0.0574009
-0.0362312
-0.0111846
0.00671452
0.0167372
0.0213504
0.022701
0.0226171
0.0216717
0.0166316
0.00232002
-0.0245345
-0.0622115
-0.103221
-0.135261
-0.145936
-0.130448
-0.095332
-0.0552459
-0.0228055
-0.00210339
0.0092307
0.0146268
0.0162658
0.0152704
0.0121137
0.00696205
-0.000154914
-0.00933702
-0.019835
-0.0291112
-0.0336974
-0.0320729
-0.0259169
-0.0186142
-0.0125452
-0.00832814
-0.00560595
-0.00386116
-0.00274613
-0.00208396
-0.00176698
-0.00171078
-0.00185948
-0.00218605
-0.00266241
-0.00323443
-0.00381769
-0.00431328
-0.00463703
-0.00474684
-0.00465183
-0.00439924
-0.00405063
-0.00366289
-0.00327881
-0.00292624
-0.00262098
-0.00236981
-0.00217286
-0.00202544
-0.00191995
-0.00184724
-0.00179804
-0.0017639
-0.0017374
-0.00171229
-0.00168364
-0.00164797
-0.00160337
-0.0015495
-0.00148727
-0.0014185
-0.00134552
-0.00127077
-0.00119647
-0.00112448
-0.00105611
-0.000992187
-0.000933048
-0.00087864
-0.000828623
-0.000782468
-0.000739562
-0.00069928
-0.000661051
-0.000624393
-0.000588931
-0.000554408
-0.000520669
-0.000487652
-0.000455367
-0.000423869
-0.000393242
-0.000363581
-0.000334972
-0.00030749
-0.000281186
-0.000256093
-0.000232216
-0.000209562
-0.00018808
-0.000167806
-0.000148566
-0.000130633
-0.000113279
-9.79798e-05
-8.13078e-05
-7.06239e-05
-4.92992e-05
-5.3469e-05
-2.3695e-06
-7.20323e-05
0.000127326
-0.000260164
0.0918187
0.0917775
0.0915895
0.0906592
0.0879334
0.0814594
0.0679764
0.041752
-0.00135033
-0.0709336
-0.134966
-0.164643
-0.188006
-0.201541
-0.212053
-0.224242
-0.233989
-0.229382
-0.201648
-0.155591
-0.103617
-0.0549148
-0.0135989
0.0175282
0.0362837
0.0376858
0.0160577
-0.0250189
-0.0650304
-0.0796177
-0.0674979
-0.0443119
-0.0232414
-0.00817859
0.00192378
0.00874862
0.0125238
0.0124377
0.0109859
0.00985381
0.00640468
-0.00470521
-0.0267658
-0.0559449
-0.0779881
-0.0770479
-0.0531535
-0.0234734
-0.00188102
0.00988486
0.0147738
0.015828
0.0156266
0.0146348
0.00893039
-0.0069502
-0.0358118
-0.0754361
-0.118104
-0.151118
-0.161466
-0.144098
-0.106159
-0.0633102
-0.0287442
-0.00656745
0.00562902
0.0112866
0.0127994
0.0116177
0.008442
0.00355835
-0.00306515
-0.0117701
-0.0221063
-0.0317502
-0.0370671
-0.035857
-0.0293448
-0.0210769
-0.0139811
-0.00901661
-0.00584483
-0.00383993
-0.00257332
-0.00183813
-0.0015087
-0.00147865
-0.00167683
-0.0020743
-0.00264373
-0.00332587
-0.00402316
-0.00461633
-0.00499942
-0.00511789
-0.00498571
-0.00466352
-0.00423164
-0.0037627
-0.00330925
-0.00290359
-0.00256243
-0.00229134
-0.00208792
-0.00194426
-0.00184933
-0.00179096
-0.0017575
-0.00173871
-0.00172595
-0.00171226
-0.00169219
-0.00166208
-0.00162014
-0.00156632
-0.00150203
-0.00142976
-0.0013525
-0.00127332
-0.00119496
-0.00111961
-0.00104877
-0.000983326
-0.00092354
-0.000869222
-0.000819849
-0.000774701
-0.000732986
-0.000693928
-0.00065684
-0.000621161
-0.000586473
-0.000552503
-0.000519108
-0.000486251
-0.000453978
-0.000422388
-0.000391605
-0.000361761
-0.000332973
-0.000305336
-0.000278916
-0.000253749
-0.000229843
-0.000207191
-0.000185756
-0.000165526
-0.000146405
-0.000128488
-0.00011141
-9.59175e-05
-8.00839e-05
-6.82949e-05
-4.98866e-05
-4.93357e-05
-8.40343e-06
-6.04077e-05
0.00010685
-0.000225701
0.0962027
0.0964782
0.0973424
0.0979942
0.0974307
0.0936737
0.0825227
0.0568251
0.00807373
-0.08086
-0.159255
-0.185563
-0.206997
-0.217842
-0.228467
-0.245522
-0.262664
-0.261909
-0.229918
-0.173862
-0.111521
-0.0548159
-0.00777404
0.0272031
0.0471068
0.0464572
0.0183849
-0.0363726
-0.0922399
-0.114626
-0.0967979
-0.0630483
-0.0344741
-0.0159514
-0.00478716
0.00156837
0.0032656
0.000386657
-0.00244437
-0.00349169
-0.00665203
-0.0185183
-0.0419113
-0.0726825
-0.0965146
-0.0961938
-0.0702987
-0.0366914
-0.0117268
0.00164493
0.00670881
0.00740151
0.00702877
0.00601459
-7.27533e-05
-0.0167956
-0.0464954
-0.0866939
-0.12975
-0.162878
-0.172698
-0.154003
-0.114396
-0.0701444
-0.0345878
-0.0116953
0.000890715
0.00657901
0.008006
0.00691353
0.00403297
-0.000348605
-0.00632788
-0.0143162
-0.0240858
-0.0336476
-0.0394585
-0.0387741
-0.0322593
-0.0233407
-0.0153679
-0.00968905
-0.0060624
-0.00378853
-0.00236816
-0.0015682
-0.00124253
-0.00125158
-0.00150138
-0.00195822
-0.00260066
-0.00337509
-0.00418198
-0.00488591
-0.00535265
-0.00550323
-0.00534615
-0.0049548
-0.00443155
-0.00386999
-0.0033365
-0.00287001
-0.0024888
-0.00219692
-0.00198854
-0.00185146
-0.00177021
-0.001729
-0.00171351
-0.00171169
-0.00171388
-0.00171246
-0.00170159
-0.00167752
-0.0016385
-0.00158476
-0.00151824
-0.00144213
-0.00136016
-0.00127608
-0.00119322
-0.00111416
-0.00104063
-0.000973545
-0.0009131
-0.000858935
-0.000810317
-0.000766307
-0.000725912
-0.000688194
-0.000652344
-0.000617718
-0.000583856
-0.000550474
-0.00051744
-0.000484748
-0.000452482
-0.000420788
-0.000389835
-0.000359792
-0.000330811
-0.000303007
-0.000276463
-0.000251218
-0.000227284
-0.000204638
-0.000183258
-0.000163075
-0.000144088
-0.000126181
-0.000109424
-9.36769e-05
-7.88685e-05
-6.5641e-05
-5.10497e-05
-4.40544e-05
-1.76975e-05
-4.3239e-05
7.05457e-05
-0.000162229
0.100481
0.101108
0.103152
0.105634
0.107741
0.107599
0.100127
0.0766663
0.0209923
-0.0943457
-0.191203
-0.213075
-0.232373
-0.237522
-0.245687
-0.268171
-0.297166
-0.304158
-0.267421
-0.198069
-0.12245
-0.0562667
-0.00263958
0.0348814
0.0529086
0.0505754
0.0195936
-0.041144
-0.110878
-0.148359
-0.130975
-0.0864413
-0.048371
-0.0253001
-0.0129131
-0.00744616
-0.00841493
-0.0139969
-0.0177007
-0.0179613
-0.0204054
-0.0323999
-0.0562162
-0.0877028
-0.1128
-0.113289
-0.0863815
-0.0500199
-0.022459
-0.007878
-0.00284923
-0.0026765
-0.00336466
-0.00434987
-0.0103443
-0.0269122
-0.0560549
-0.0952738
-0.13728
-0.169531
-0.1786
-0.159256
-0.119377
-0.0753384
-0.040128
-0.0174214
-0.00494978
0.000626025
0.00215536
0.0015084
-0.000741986
-0.00443611
-0.00964238
-0.0166913
-0.0255483
-0.0346365
-0.0406732
-0.0405676
-0.0343798
-0.0251905
-0.0165887
-0.0102989
-0.00624427
-0.00370457
-0.00213787
-0.00129556
-0.00100388
-0.00106845
-0.0013592
-0.00184011
-0.00250306
-0.00331518
-0.00419732
-0.00501308
-0.0055976
-0.00582798
-0.00568474
-0.00524663
-0.00463906
-0.00398228
-0.00336264
-0.00282986
-0.00240567
-0.00209276
-0.0018811
-0.00175298
-0.00168746
-0.00166465
-0.00166757
-0.00168246
-0.00169905
-0.00170958
-0.00170795
-0.00169023
-0.00165472
-0.00160178
-0.00153369
-0.00145419
-0.00136778
-0.00127895
-0.00119162
-0.00110882
-0.00103254
-0.000963762
-0.000902606
-0.000848542
-0.000800623
-0.000757693
-0.000718566
-0.000682143
-0.000647498
-0.000613909
-0.000580874
-0.000548092
-0.000515442
-0.000482943
-0.000450715
-0.000418945
-0.000387845
-0.000357623
-0.000328462
-0.000300502
-0.000273839
-0.000248519
-0.000224558
-0.000201917
-0.000180591
-0.000160454
-0.000141608
-0.000123705
-0.0001073
-9.12525e-05
-7.76252e-05
-6.26873e-05
-5.27113e-05
-3.77392e-05
-3.01712e-05
-2.06918e-05
1.71261e-05
-6.72223e-05
0.104513
0.105519
0.108831
0.113386
0.118667
0.123365
0.121426
0.104238
0.0396896
-0.120911
-0.237285
-0.241152
-0.255522
-0.255485
-0.265001
-0.297935
-0.343694
-0.361374
-0.318088
-0.230425
-0.137651
-0.0601522
-0.00050727
0.0344307
0.0440856
0.0365978
0.00513305
-0.0483708
-0.122087
-0.17442
-0.164093
-0.112206
-0.0644076
-0.0361163
-0.0224349
-0.0182813
-0.0223316
-0.0304915
-0.0346029
-0.0333737
-0.0343714
-0.0454767
-0.0685885
-0.0997907
-0.125536
-0.126991
-0.100163
-0.0625466
-0.0335538
-0.0184292
-0.0138072
-0.0144489
-0.0156738
-0.0165238
-0.0217628
-0.0369818
-0.0640575
-0.100685
-0.14015
-0.170483
-0.178583
-0.159354
-0.120733
-0.0786354
-0.0451874
-0.0236049
-0.0117339
-0.0063592
-0.00451193
-0.00439773
-0.005742
-0.00857807
-0.0128452
-0.018734
-0.0263949
-0.0346853
-0.0406807
-0.0411378
-0.0355288
-0.0264541
-0.017535
-0.0108003
-0.00637864
-0.00359123
-0.00189906
-0.00105433
-0.000839065
-0.000988116
-0.00132435
-0.00179584
-0.00240842
-0.00316761
-0.00404462
-0.00493172
-0.0056442
-0.00600291
-0.00593397
-0.0054969
-0.0048345
-0.00409594
-0.00339381
-0.0027945
-0.00232685
-0.00199341
-0.00177955
-0.00166109
-0.00161101
-0.00160472
-0.00162291
-0.00165115
-0.00167913
-0.00169941
-0.0017059
-0.00169461
-0.00166352
-0.00161269
-0.00154459
-0.00146335
-0.00137394
-0.00128146
-0.00119046
-0.00110446
-0.00102571
-0.00095532
-0.00089338
-0.000839235
-0.000791763
-0.000749625
-0.000711466
-0.00067606
-0.000642382
-0.00060965
-0.000577323
-0.000545086
-0.000512815
-0.000480544
-0.000448417
-0.000416648
-0.00038548
-0.000355152
-0.000325872
-0.000297803
-0.000271055
-0.000245678
-0.000221699
-0.000199063
-0.000177788
-0.000157689
-0.000138979
-0.000121069
-0.000105029
-8.86521e-05
-7.6305e-05
-5.94838e-05
-5.46996e-05
-3.06355e-05
-4.52527e-05
6.30022e-06
-5.22562e-05
5.73953e-05
0.108147
0.109535
0.114158
0.12089
0.129855
0.140254
0.146632
0.138818
0.0660093
-0.134904
-0.313577
-0.295329
-0.294332
-0.272998
-0.271372
-0.314434
-0.387833
-0.428321
-0.38283
-0.273546
-0.158988
-0.0674935
-0.00455579
0.0187958
0.0148299
-0.00299699
-0.0254592
-0.0641833
-0.131401
-0.192375
-0.191849
-0.137393
-0.0814276
-0.0480259
-0.0331945
-0.0307515
-0.0381738
-0.0489099
-0.0529724
-0.0494448
-0.0479528
-0.0569634
-0.0781972
-0.10808
-0.133775
-0.136274
-0.110604
-0.0733831
-0.0443854
-0.0296192
-0.0259614
-0.027859
-0.0298955
-0.0304359
-0.0341086
-0.0466796
-0.0701849
-0.102687
-0.138201
-0.165629
-0.172575
-0.154259
-0.118429
-0.0799504
-0.0496177
-0.0300465
-0.0192547
-0.0142044
-0.0119328
-0.0108405
-0.0110401
-0.0127803
-0.0158734
-0.0203828
-0.0266184
-0.0338504
-0.0395581
-0.0405086
-0.0356413
-0.0270281
-0.0181275
-0.0111608
-0.00646858
-0.003477
-0.00170721
-0.000929543
-0.000865246
-0.00115823
-0.00157174
-0.0020328
-0.00253726
-0.00312263
-0.00384943
-0.00469206
-0.00547658
-0.00597003
-0.00602345
-0.00565054
-0.00498642
-0.00420176
-0.00343699
-0.00278078
-0.00227412
-0.00192208
-0.00170612
-0.00159541
-0.0015567
-0.00156142
-0.0015884
-0.00162292
-0.00165558
-0.00168051
-0.00169205
-0.0016857
-0.00165905
-0.00161204
-0.00154636
-0.00146595
-0.00137608
-0.00128226
-0.00118945
-0.00110157
-0.0010212
-0.000949612
-0.00088694
-0.000832478
-0.000785016
-0.000743122
-0.000705355
-0.000670421
-0.000637243
-0.000605
-0.000573125
-0.000541282
-0.000509337
-0.000477317
-0.000445366
-0.000413707
-0.000382594
-0.000352279
-0.000322989
-0.000294895
-0.000268125
-0.000242732
-0.000218752
-0.000196125
-0.000174892
-0.000154817
-0.000136224
-0.000118293
-0.000102605
-8.58916e-05
-7.48427e-05
-5.6097e-05
-5.67381e-05
-2.31042e-05
-6.17957e-05
3.59644e-05
-0.000133161
0.000203726
0.111226
0.112983
0.11886
0.127827
0.140709
0.158297
0.176502
0.192441
0.10623
-0.124889
-0.353521
-0.316824
-0.308995
-0.280574
-0.273563