/*--------------------------------*- C++ -*----------------------------------*\
  =========                 |
  \\      /  F ield         | OpenFOAM: The Open Source CFD Toolbox
   \\    /   O peration     | Website:  https://openfoam.org
    \\  /    A nd           | Version:  11
     \\/     M anipulation  |
\*---------------------------------------------------------------------------*/
FoamFile
{
    format      ascii;
    class       volVectorField;
    location    "3.65743";
    object      U;
}
// * * * * * * * * * * * * * * * * * * * * * * * * * * * * * * * * * * * * * //

dimensions      [0 1 -1 0 0 0 0];

internalField   nonuniform List<vector> 
7132
(
(1.00014 -0.000289455 2.12737e-18)
(1.00224 -0.000873225 7.44255e-18)
(1.007 -0.00149259 7.95764e-18)
(1.01423 -0.00215932 9.12376e-18)
(1.02424 -0.00287655 1.1333e-17)
(1.03722 -0.00362397 1.17732e-17)
(1.05324 -0.0043617 1.11585e-17)
(1.07214 -0.00501104 1.03374e-17)
(1.0934 -0.00548686 9.69882e-18)
(1.11615 -0.00569745 9.29462e-18)
(1.13911 -0.00558784 8.88965e-18)
(1.16102 -0.00521548 8.72925e-18)
(1.18095 -0.00463014 7.62664e-18)
(1.19816 -0.00388008 8.09696e-18)
(1.21207 -0.00300715 -8.89398e-19)
(1.22228 -0.0020388 -1.02795e-17)
(1.22843 -0.00100032 -2.17517e-17)
(1.23031 7.62605e-05 -1.84015e-17)
(1.22783 0.00114591 -2.62543e-17)
(1.22113 0.00215007 -3.85509e-17)
(1.21058 0.00302503 -3.85892e-17)
(1.19683 0.00371468 -3.85004e-17)
(1.18072 0.00418305 -4.00639e-17)
(1.16321 0.00442147 -4.39188e-17)
(1.1452 0.00444761 -3.806e-17)
(1.12749 0.00429824 -3.9488e-17)
(1.11069 0.00401967 -4.21994e-17)
(1.09524 0.00365898 -4.51604e-17)
(1.08136 0.00325786 -4.79697e-17)
(1.06914 0.00284939 -4.66043e-17)
(1.05855 0.00245721 -4.45288e-17)
(1.04948 0.00209635 -4.28149e-17)
(1.04178 0.00177475 -4.34341e-17)
(1.03529 0.00149511 -4.04936e-17)
(1.02983 0.00125657 -3.69167e-17)
(1.02525 0.00105611 -3.25415e-17)
(1.02139 0.000889581 -2.77801e-17)
(1.01814 0.000752433 -2.29253e-17)
(1.01538 0.00064019 -1.58343e-17)
(1.01303 0.000548708 -8.54894e-18)
(1.011 0.000474308 -6.30081e-19)
(1.00923 0.000413821 6.89662e-18)
(1.00769 0.000364579 1.45076e-17)
(1.00632 0.000324377 2.3395e-17)
(1.00509 0.000291416 3.17331e-17)
(1.00399 0.000264249 3.97156e-17)
(1.00298 0.000241712 4.60046e-17)
(1.00205 0.000222862 5.08025e-17)
(1.00119 0.000206918 5.45771e-17)
(1.00039 0.000193213 5.49479e-17)
(0.999645 0.000181156 5.14628e-17)
(0.998942 0.000170225 4.60138e-17)
(0.99828 0.000159983 3.92871e-17)
(0.997658 0.000150123 3.05819e-17)
(0.997074 0.000140486 2.15832e-17)
(0.996529 0.000130996 1.33904e-17)
(0.996021 0.000121432 8.71118e-18)
(0.995552 0.00011104 8.94389e-18)
(0.995126 9.81394e-05 1.13228e-17)
(0.994759 7.99715e-05 1.21834e-17)
(0.994478 5.31391e-05 5.47941e-18)
(0.994322 1.47542e-05 -1.10125e-17)
(0.994344 -3.59144e-05 -3.53158e-17)
(0.994591 -9.59211e-05 -6.08187e-17)
(0.99509 -0.000158069 -7.5444e-17)
(0.995832 -0.000211903 -7.4597e-17)
(0.996761 -0.000246284 -6.13937e-17)
(0.99778 -0.000252803 -4.70812e-17)
(0.998766 -0.000228778 -4.50626e-17)
(0.999598 -0.000178564 -5.62271e-17)
(1.00019 -0.000112567 -7.01365e-17)
(1.00049 -4.42611e-05 -6.51655e-17)
(1.00054 1.3662e-05 -2.45334e-17)
(1.00038 5.25844e-05 4.64857e-17)
(1.00012 6.96103e-05 1.20189e-16)
(0.999825 6.72453e-05 1.50837e-16)
(0.999575 5.15683e-05 1.01863e-16)
(0.999408 2.98152e-05 -3.33768e-17)
(0.999334 8.28782e-06 -2.24117e-16)
(0.99934 -8.85686e-06 -4.08235e-16)
(0.999403 -1.98473e-05 -5.24203e-16)
(0.999499 -2.48324e-05 -5.33241e-16)
(0.999603 -2.5108e-05 -4.36098e-16)
(0.999701 -2.23732e-05 -2.71556e-16)
(0.999783 -1.8205e-05 -9.35342e-17)
(0.999847 -1.37902e-05 4.61198e-17)
(0.999894 -9.86065e-06 1.20205e-16)
(0.999926 -6.75199e-06 1.29653e-16)
(0.999948 -4.51321e-06 9.4635e-17)
(0.999962 -3.02325e-06 4.54164e-17)
(0.999972 -2.08962e-06 3.47986e-18)
(0.999979 -1.51896e-06 -2.00499e-17)
(0.999984 -1.15727e-06 -2.42709e-17)
(0.999988 -9.035e-07 -1.80908e-17)
(0.999991 -7.04018e-07 -8.09112e-18)
(0.999993 -5.3768e-07 -9.94633e-20)
(0.999995 -3.99807e-07 3.51977e-18)
(0.999997 -2.90395e-07 4.48711e-18)
(0.999998 -2.0813e-07 2.54848e-18)
(0.999998 -1.49064e-07 7.92225e-19)
(0.999999 -1.07753e-07 -1.97172e-19)
(0.999999 -7.88676e-08 -6.60239e-19)
(0.999999 -5.82301e-08 1.79268e-19)
(1 -4.30537e-08 -2.0001e-20)
(1 -3.16688e-08 6.6599e-20)
(1 -2.30947e-08 1.71745e-19)
(1 -1.66918e-08 1.95492e-22)
(1 -1.1972e-08 6.61612e-19)
(1 -8.52825e-09 1.71574e-19)
(1 -6.0267e-09 5.88836e-20)
(1 -4.20663e-09 9.98265e-20)
(1 -2.87814e-09 -4.61023e-20)
(1 -1.9052e-09 6.69169e-19)
(1 -1.19376e-09 2.21466e-19)
(1 -6.74515e-10 1.27045e-19)
(1 -2.98528e-10 1.6559e-19)
(1 -2.7123e-11 6.85971e-21)
(1 1.66282e-10 6.97543e-19)
(1 3.03835e-10 2.56438e-19)
(1 3.99289e-10 2.20509e-20)
(1 4.65306e-10 6.14375e-19)
(1 5.08417e-10 7.02194e-19)
(1 5.36249e-10 8.10367e-19)
(1 5.51455e-10 2.32186e-19)
(1 5.59052e-10 -3.26494e-20)
(1 5.5956e-10 5.54485e-19)
(1 5.56634e-10 6.41901e-19)
(1 5.4958e-10 7.49122e-19)
(1 5.41365e-10 1.68545e-19)
(1 5.30591e-10 -9.93558e-20)
(1 5.19899e-10 4.85392e-19)
(1 5.07469e-10 5.72315e-19)
(1 4.95808e-10 6.81526e-19)
(1 4.82822e-10 1.05218e-19)
(1 4.70989e-10 -1.56995e-19)
(1 4.58031e-10 4.33697e-19)
(1 4.46446e-10 5.25777e-19)
(1 4.33819e-10 6.38738e-19)
(1 4.22691e-10 6.46786e-20)
(1 4.10543e-10 -1.96457e-19)
(1 3.9997e-10 3.94672e-19)
(1 3.88365e-10 4.87063e-19)
(1 3.7838e-10 6.00551e-19)
(1 3.67336e-10 2.7372e-20)
(1 3.57941e-10 -2.32527e-19)
(1 3.47451e-10 3.60139e-19)
(1 3.38628e-10 4.54311e-19)
(1 3.28666e-10 5.69735e-19)
(1 3.20391e-10 -1.58195e-21)
(1 3.10924e-10 -2.60183e-19)
(1 3.03204e-10 3.32416e-19)
(1 2.94169e-10 4.24171e-19)
(1 2.87108e-10 5.34014e-19)
(1 2.78195e-10 -4.63842e-20)
(1 2.72387e-10 -3.16332e-19)
(1 2.62166e-10 2.62327e-19)
(1 2.61214e-10 3.50605e-19)
(1 2.42505e-10 4.21909e-19)
(1 2.64432e-10 -4.2213e-21)
(1 2.11397e-10 -9.81491e-19)
(1.00014 -0.000865502 2.9882e-20)
(1.00222 -0.00261238 3.60838e-19)
(1.00694 -0.0044673 7.28704e-19)
(1.01412 -0.00646811 1.09627e-18)
(1.0241 -0.00862523 1.50245e-18)
(1.03708 -0.0108789 1.89608e-18)
(1.05316 -0.0131101 2.26345e-18)
(1.0722 -0.0150791 2.16158e-18)
(1.09369 -0.0165266 5.70869e-18)
(1.11675 -0.017167 7.02098e-18)
(1.14001 -0.0168306 4.16524e-18)
(1.16217 -0.015702 4.74773e-18)
(1.1823 -0.013934 1.01824e-18)
(1.19966 -0.0116739 1.24656e-17)
(1.21369 -0.00904775 4.10598e-17)
(1.22398 -0.00613616 7.23024e-17)
(1.23019 -0.00301253 8.59088e-17)
(1.23209 0.000229387 7.32914e-17)
(1.22958 0.00345527 4.60884e-17)
(1.22277 0.0064877 1.1225e-17)
(1.21206 0.00913172 -2.52267e-17)
(1.1981 0.0112147 -5.93921e-17)
(1.18176 0.0126258 -8.89482e-17)
(1.16402 0.0133388 -1.12844e-16)
(1.1458 0.0134083 -1.29948e-16)
(1.12793 0.0129475 -1.40749e-16)
(1.11103 0.0120981 -1.4588e-16)
(1.09551 0.0110032 -1.45929e-16)
(1.08159 0.00978912 -1.41545e-16)
(1.06937 0.00855554 -1.33198e-16)
(1.05879 0.0073733 -1.17993e-16)
(1.04975 0.00628706 -1.05672e-16)
(1.04209 0.0053202 -8.91026e-17)
(1.03563 0.00448038 -6.72073e-17)
(1.03021 0.00376463 -4.30785e-17)
(1.02565 0.00316359 -1.33865e-17)
(1.02182 0.00266459 1.52368e-17)
(1.01859 0.00225384 4.36261e-17)
(1.01585 0.00191783 7.24228e-17)
(1.01351 0.00164406 9.99014e-17)
(1.01149 0.00142148 1.27489e-16)
(1.00973 0.00124056 1.51103e-16)
(1.00819 0.00109331 1.72928e-16)
(1.00682 0.000973101 1.92608e-16)
(1.0056 0.000874556 2.08774e-16)
(1.00449 0.00079334 2.20853e-16)
(1.00348 0.000725972 2.24171e-16)
(1.00255 0.000669636 2.19932e-16)
(1.00169 0.000622003 2.07368e-16)
(1.00089 0.000581081 1.847e-16)
(1.00013 0.000545107 1.54509e-16)
(0.999422 0.000512518 1.17068e-16)
(0.998754 0.000482005 7.49598e-17)
(0.998124 0.000452636 3.2307e-17)
(0.997532 0.000423928 -7.32863e-18)
(0.996977 0.000395651 -3.69385e-17)
(0.996459 0.000367168 -5.44269e-17)
(0.995979 0.0003363 -6.07287e-17)
(0.995542 0.000298117 -6.37949e-17)
(0.995161 0.00024448 -7.98418e-17)
(0.994862 0.000165279 -1.2284e-16)
(0.994686 5.18008e-05 -2.0085e-16)
(0.994682 -9.83731e-05 -3.02881e-16)
(0.994896 -0.000276782 -4.05323e-16)
(0.995357 -0.000462267 -4.82783e-16)
(0.996057 -0.000623798 -5.2977e-16)
(0.996945 -0.000728062 -5.7288e-16)
(0.997924 -0.000749653 -6.47512e-16)
(0.998874 -0.000680083 -7.7927e-16)
(0.999677 -0.000531876 -9.45763e-16)
(1.00024 -0.00033577 -1.0744e-15)
(1.00053 -0.000131918 -1.07687e-15)
(1.00057 4.15979e-05 -8.95268e-16)
(1.0004 0.000158679 -5.64503e-16)
(1.00013 0.000210279 -2.09445e-16)
(0.999829 0.000203582 -2.00512e-19)
(0.999574 0.000156625 -7.47125e-17)
(0.999404 9.10816e-05 -4.53946e-16)
(0.999327 2.59612e-05 -1.02772e-15)
(0.999333 -2.60932e-05 -1.58742e-15)
(0.999398 -5.9602e-05 -1.91914e-15)
(0.999496 -7.4908e-05 -1.89802e-15)
(0.999602 -7.58722e-05 -1.52703e-15)
(0.999702 -6.76303e-05 -9.36668e-16)
(0.999786 -5.49857e-05 -3.14279e-16)
(0.99985 -4.15725e-05 1.71627e-16)
(0.999897 -2.96403e-05 4.26827e-16)
(0.999928 -2.02215e-05 4.58369e-16)
(0.999949 -1.34645e-05 3.37984e-16)
(0.999963 -8.99236e-06 1.64351e-16)
(0.999972 -6.20962e-06 1.7005e-17)
(0.999979 -4.52083e-06 -6.7693e-17)
(0.999984 -3.45481e-06 -8.66956e-17)
(0.999988 -2.70511e-06 -6.47239e-17)
(0.999991 -2.11164e-06 -2.96271e-17)
(0.999994 -1.61346e-06 -1.10933e-18)
(0.999995 -1.19898e-06 1.21796e-17)
(0.999997 -8.6979e-07 1.41426e-17)
(0.999998 -6.2259e-07 9.23377e-18)
(0.999998 -4.45538e-07 3.29884e-18)
(0.999999 -3.22036e-07 -3.89192e-19)
(0.999999 -2.35843e-07 -2.32775e-18)
(0.999999 -1.74282e-07 -1.42362e-18)
(1 -1.28964e-07 -3.97248e-19)
(1 -9.49166e-08 2.85076e-19)
(1 -6.9245e-08 6.92479e-19)
(1 -5.00659e-08 -2.63076e-20)
(1 -3.59312e-08 3.3441e-19)
(1 -2.56236e-08 3.28591e-19)
(1 -1.81392e-08 2.56302e-19)
(1 -1.26951e-08 3.79318e-19)
(1 -8.72007e-09 -2.95233e-19)
(1 -5.80835e-09 2.23788e-19)
(1 -3.67746e-09 3.48128e-19)
(1 -2.12223e-09 3.33319e-19)
(1 -9.94707e-10 4.56477e-19)
(1 -1.81175e-10 -2.42104e-19)
(1 4.00078e-10 2.44006e-19)
(1 8.13115e-10 3.70659e-19)
(1 1.10138e-09 2.26296e-19)
(1 1.30037e-09 8.91732e-19)
(1 1.43212e-09 4.10068e-19)
(1 1.51682e-09 3.12286e-19)
(1 1.56512e-09 3.11687e-19)
(1 1.5892e-09 1.47873e-19)
(1 1.59354e-09 8.17229e-19)
(1 1.58604e-09 3.42095e-19)
(1 1.56776e-09 2.4858e-19)
(1 1.54433e-09 2.49611e-19)
(1 1.5149e-09 8.5941e-20)
(1 1.48395e-09 7.55508e-19)
(1 1.44952e-09 2.81928e-19)
(1 1.41554e-09 1.91896e-19)
(1 1.37942e-09 1.98123e-19)
(1 1.3448e-09 4.05316e-20)
(1 1.30871e-09 7.15977e-19)
(1 1.27472e-09 2.47155e-19)
(1 1.23956e-09 1.60276e-19)
(1 1.20681e-09 1.68072e-19)
(1 1.17303e-09 1.08877e-20)
(1 1.14183e-09 6.86155e-19)
(1 1.10961e-09 2.17094e-19)
(1 1.08005e-09 1.30246e-19)
(1 1.04946e-09 1.38462e-19)
(1 1.02155e-09 -1.79325e-20)
(1 9.92557e-10 6.58429e-19)
(1 9.6626e-10 1.90716e-19)
(1 9.38796e-10 1.05414e-19)
(1 9.14051e-10 1.15196e-19)
(1 8.88012e-10 -4.00381e-20)
(1 8.64831e-10 6.36342e-19)
(1 8.40003e-10 1.6655e-19)
(1 8.18698e-10 7.62204e-20)
(1 7.94225e-10 7.75917e-20)
(1 7.76598e-10 -8.84591e-20)
(1 7.48511e-10 5.74548e-19)
(1 7.44753e-10 9.99954e-20)
(1 6.93129e-10 -2.46295e-20)
(1 7.52255e-10 1.09549e-19)
(1 6.07342e-10 -6.86126e-19)
(1.00014 -0.00143359 5.27723e-22)
(1.00218 -0.00432903 4.42515e-21)
(1.00681 -0.00741022 3.61427e-21)
(1.01391 -0.0107462 1.2109e-20)
(1.02381 -0.0143592 -1.51322e-19)
(1.03677 -0.0181538 2.42195e-19)
(1.05296 -0.0219337 -8.40275e-19)
(1.07229 -0.0252872 -1.51316e-18)
(1.09424 -0.0277693 6.38462e-18)
(1.11792 -0.0288665 -1.32109e-18)
(1.1418 -0.0282794 -3.76219e-17)
(1.16446 -0.026358 -2.83406e-17)
(1.18499 -0.0233704 1.03551e-16)
(1.20265 -0.0195688 3.12374e-16)
(1.21691 -0.0151649 4.44324e-16)
(1.22738 -0.0102869 3.72964e-16)
(1.23371 -0.00505086 1.0556e-16)
(1.23564 0.000390858 -2.18713e-16)
(1.23305 0.0058135 -5.02963e-16)
(1.22604 0.0109155 -7.11589e-16)
(1.21499 0.0153633 -8.38376e-16)
(1.2006 0.0188609 -8.92103e-16)
(1.18379 0.021219 -8.87888e-16)
(1.16557 0.0223943 -8.41571e-16)
(1.14694 0.022483 -7.66592e-16)
(1.12874 0.0216802 -6.72786e-16)
(1.1116 0.0202286 -5.66835e-16)
(1.09594 0.0183717 -4.53234e-16)
(1.08196 0.0163226 -3.35155e-16)
(1.06973 0.0142481 -2.14929e-16)
(1.05919 0.0122659 -9.32644e-17)
(1.05021 0.0104493 2.89059e-17)
(1.04261 0.00883581 1.51751e-16)
(1.03623 0.00743692 2.75235e-16)
(1.03087 0.00624658 3.97498e-16)
(1.02638 0.00524833 5.15591e-16)
(1.02261 0.00442048 6.25035e-16)
(1.01942 0.00373968 7.2184e-16)
(1.01672 0.00318315 8.03767e-16)
(1.0144 0.00272998 8.70315e-16)
(1.01241 0.0023617 9.22484e-16)
(1.01067 0.00206245 9.6083e-16)
(1.00914 0.00181894 9.84864e-16)
(1.00778 0.00162017 9.92346e-16)
(1.00656 0.00145724 9.79438e-16)
(1.00545 0.00132297 9.41818e-16)
(1.00444 0.00121161 8.75302e-16)
(1.00351 0.00111853 7.77478e-16)
(1.00264 0.00103987 6.48506e-16)
(1.00183 0.000972359 4.91239e-16)
(1.00107 0.000913083 3.12963e-16)
(1.00035 0.000859453 1.22488e-16)
(0.999667 0.000809288 -6.85924e-17)
(0.999023 0.000761024 -2.44512e-16)
(0.998415 0.000713832 -3.90953e-16)
(0.997843 0.000667316 -4.95277e-16)
(0.997307 0.000620457 -5.56496e-16)
(0.996807 0.000569755 -5.92367e-16)
(0.996348 0.000507238 -6.42739e-16)
(0.995942 0.000419653 -7.65962e-16)
(0.995615 0.000290408 -1.01145e-15)
(0.995403 0.000105035 -1.39076e-15)
(0.995354 -0.000140772 -1.85782e-15)
(0.995514 -0.000433546 -2.33603e-15)
(0.99591 -0.000738869 -2.77565e-15)
(0.996537 -0.00100585 -3.20066e-15)
(0.997345 -0.00117952 -3.71794e-15)
(0.998245 -0.00121758 -4.43893e-15)
(0.999121 -0.00110547 -5.36486e-15)
(0.999857 -0.000863297 -6.30539e-15)
(1.00037 -0.000541417 -6.90478e-15)
(1.00061 -0.000206053 -6.80847e-15)
(1.00061 7.96951e-05 -5.87582e-15)
(1.00042 0.000272333 -4.33634e-15)
(1.00013 0.000356519 -2.75547e-15)
(0.99982 0.000343869 -1.81076e-15)
(0.999559 0.000264167 -1.98946e-15)
(0.999385 0.000153442 -3.32621e-15)
(0.999309 4.34633e-05 -5.34191e-15)
(0.999319 -4.44978e-05 -7.22742e-15)
(0.99939 -0.000101117 -8.18841e-15)
(0.999493 -0.000126873 -7.78477e-15)
(0.999605 -0.000128247 -6.09019e-15)
(0.999708 -0.00011396 -3.62933e-15)
(0.999794 -9.22257e-05 -1.13154e-15)
(0.999858 -6.92859e-05 7.72051e-16)
(0.999904 -4.90034e-05 1.75487e-15)
(0.999934 -3.31271e-05 1.85246e-15)
(0.999953 -2.18659e-05 1.36104e-15)
(0.999966 -1.45206e-05 6.6225e-16)
(0.999974 -1.00272e-05 6.70797e-17)
(0.99998 -7.34246e-06 -2.71326e-16)
(0.999985 -5.65724e-06 -3.51911e-16)
(0.999988 -4.45915e-06 -2.662e-16)
(0.999991 -3.49197e-06 -1.25565e-16)
(0.999994 -2.66761e-06 -1.01199e-17)
(0.999996 -1.97731e-06 4.81454e-17)
(0.999997 -1.42942e-06 5.57961e-17)
(0.999998 -1.02005e-06 3.6482e-17)
(0.999998 -7.28866e-07 1.27293e-17)
(0.999999 -5.27039e-07 -2.93792e-18)
(0.999999 -3.86662e-07 -8.33587e-18)
(0.999999 -2.86336e-07 -6.84601e-18)
(1 -2.12223e-07 -3.08403e-18)
(1 -1.56328e-07 -8.99907e-20)
(1 -1.14084e-07 1.23834e-18)
(1 -8.25139e-08 1.19556e-18)
(1 -5.92714e-08 6.75711e-19)
(1 -4.23476e-08 2.24061e-19)
(1 -3.0072e-08 1.53999e-20)
(1 -2.1145e-08 3.96856e-20)
(1 -1.46226e-08 7.00096e-20)
(1 -9.84093e-09 1.34129e-19)
(1 -6.33766e-09 1.84098e-19)
(1 -3.77946e-09 1.99939e-19)
(1 -1.92271e-09 2.30877e-19)
(1 -5.82434e-10 1.80054e-19)
(1 3.77483e-10 1.649e-19)
(1 1.06047e-09 1.77443e-19)
(1 1.53981e-09 1.64354e-19)
(1 1.87171e-09 2.27588e-19)
(1 2.09438e-09 2.51404e-19)
(1 2.23874e-09 2.51562e-19)
(1 2.32451e-09 2.52066e-19)
(1 2.36931e-09 2.20623e-19)
(1 2.38291e-09 2.66347e-19)
(1 2.37575e-09 2.74645e-19)
(1 2.35214e-09 2.60929e-19)
(1 2.31867e-09 2.49148e-19)
(1 2.27665e-09 2.07539e-19)
(1 2.23061e-09 2.45979e-19)
(1 2.18024e-09 2.50368e-19)
(1 2.129e-09 2.36006e-19)
(1 2.07565e-09 2.26073e-19)
(1 2.02312e-09 1.87608e-19)
(1 1.96963e-09 2.29226e-19)
(1 1.91785e-09 2.35864e-19)
(1 1.86568e-09 2.22375e-19)
(1 1.81568e-09 2.12024e-19)
(1 1.76555e-09 1.72298e-19)
(1 1.71782e-09 2.12386e-19)
(1 1.67005e-09 2.17701e-19)
(1 1.62476e-09 2.0336e-19)
(1 1.57944e-09 1.92675e-19)
(1 1.53662e-09 1.53056e-19)
(1 1.49372e-09 1.93596e-19)
(1 1.4533e-09 1.99656e-19)
(1 1.41272e-09 1.86331e-19)
(1 1.37464e-09 1.76829e-19)
(1 1.33621e-09 1.38234e-19)
(1 1.30048e-09 1.78993e-19)
(1 1.26385e-09 1.83563e-19)
(1 1.23096e-09 1.66141e-19)
(1 1.19487e-09 1.49394e-19)
(1 1.1676e-09 1.0091e-19)
(1 1.12621e-09 1.29774e-19)
(1 1.11935e-09 1.25645e-19)
(1 1.04424e-09 9.40031e-20)
(1 1.12576e-09 9.98572e-20)
(1 9.19785e-10 -1.14606e-20)
(1.00014 -0.00198818 -2.85412e-20)
(1.00211 -0.00600642 -4.67758e-19)
(1.00662 -0.0102978 -8.32791e-19)
(1.01356 -0.0149694 -1.65346e-18)
(1.02333 -0.0200638 -1.78664e-18)
(1.03626 -0.0254573 -1.73467e-18)
(1.0526 -0.0308799 -1.13551e-17)
(1.07235 -0.0357302 1.81014e-17)
(1.09502 -0.0393579 3.02914e-18)
(1.11967 -0.0409576 -1.4076e-16)
(1.1445 -0.0400742 -2.1536e-17)
(1.16791 -0.0372951 6.65407e-16)
(1.18903 -0.0330238 1.2668e-15)
(1.20714 -0.027629 7.13913e-16)
(1.22174 -0.0214094 -1.38377e-15)
(1.23247 -0.0145304 -4.28614e-15)
(1.23898 -0.00713833 -6.64066e-15)
(1.24097 0.00056576 -7.39247e-15)
(1.23827 0.00826721 -7.21411e-15)
(1.23094 0.015529 -6.46312e-15)
(1.21939 0.0218606 -5.41043e-15)
(1.20434 0.0268249 -4.25566e-15)
(1.18679 0.0301445 -3.12626e-15)
(1.16785 0.0317603 -2.08907e-15)
(1.14859 0.0318195 -1.16842e-15)
(1.12989 0.0306126 -3.6392e-16)
(1.1124 0.028495 3.37361e-16)
(1.09653 0.0258189 9.51902e-16)
(1.08246 0.0228886 1.49549e-15)
(1.07023 0.0199395 1.98172e-15)
(1.05974 0.017135 2.42447e-15)
(1.05085 0.0145752 2.82227e-15)
(1.04336 0.0123094 3.18465e-15)
(1.03709 0.0103507 3.50998e-15)
(1.03184 0.00868817 3.7873e-15)
(1.02744 0.00729689 4.00991e-15)
(1.02375 0.00614516 4.16193e-15)
(1.02063 0.0051994 4.2399e-15)
(1.01798 0.00442724 4.24618e-15)
(1.01571 0.00379911 4.18677e-15)
(1.01375 0.00328906 4.07233e-15)
(1.01204 0.00287488 3.90539e-15)
(1.01053 0.00253799 3.68798e-15)
(1.00918 0.0022631 3.41282e-15)
(1.00797 0.00203782 3.06869e-15)
(1.00686 0.00185222 2.64595e-15)
(1.00585 0.00169836 2.13597e-15)
(1.00491 0.00156982 1.54353e-15)
(1.00404 0.00146132 8.80458e-16)
(1.00322 0.00136833 1.67574e-16)
(1.00244 0.00128683 -5.6104e-16)
(1.0017 0.00121321 -1.26733e-15)
(1.00101 0.00114445 -1.90838e-15)
(1.00034 0.00107832 -2.44209e-15)
(0.999713 0.00101363 -2.83824e-15)
(0.999116 0.000949801 -3.08811e-15)
(0.998553 0.000885448 -3.23266e-15)
(0.998024 0.000815886 -3.37743e-15)
(0.997534 0.000730369 -3.69249e-15)
(0.997093 0.000610911 -4.37295e-15)
(0.996725 0.000434826 -5.55227e-15)
(0.996464 0.000182104 -7.22585e-15)
(0.996353 -0.000153601 -9.23215e-15)
(0.996435 -0.000554393 -1.13751e-14)
(0.996739 -0.000973551 -1.36042e-14)
(0.997259 -0.00134142 -1.61189e-14)
(0.997952 -0.00158225 -1.92695e-14)
(0.998734 -0.00163737 -2.32269e-14)
(0.999495 -0.00148604 -2.76318e-14)
(1.00013 -0.00115535 -3.1463e-14)
(1.00055 -0.000714372 -3.33423e-14)
(1.00072 -0.00025445 -3.21949e-14)
(1.00067 0.000137059 -2.79308e-14)
(1.00044 0.00039969 -2.17913e-14)
(1.00012 0.000511895 -1.60177e-14)
(0.999791 0.000489592 -1.2986e-14)
(0.999522 0.000374112 -1.41435e-14)
(0.999347 0.000215711 -1.92219e-14)
(0.999276 5.89304e-05 -2.61959e-14)
(0.999294 -6.62305e-05 -3.20602e-14)
(0.999375 -0.000146503 -3.41118e-14)
(0.999489 -0.000182506 -3.10592e-14)
(0.999609 -0.000183494 -2.34754e-14)
(0.999718 -0.00016204 -1.34705e-14)
(0.999807 -0.000130072 -3.75135e-15)
(0.999872 -9.66858e-05 3.43416e-15)
(0.999915 -6.74895e-05 7.01234e-15)
(0.999943 -4.49543e-05 7.23106e-15)
(0.999959 -2.92635e-05 5.25791e-15)
(0.999969 -1.927e-05 2.54566e-15)
(0.999976 -1.33258e-05 2.5369e-16)
(0.999981 -9.86348e-06 -1.05052e-15)
(0.999985 -7.70532e-06 -1.36499e-15)
(0.999989 -6.1367e-06 -1.03916e-15)
(0.999992 -4.82652e-06 -4.97223e-16)
(0.999994 -3.68303e-06 -4.74674e-17)
(0.999996 -2.71729e-06 1.83133e-16)
(0.999997 -1.95275e-06 2.17964e-16)
(0.999998 -1.38667e-06 1.4515e-16)
(0.999998 -9.88699e-07 5.24835e-17)
(0.999999 -7.15651e-07 -1e-17)
(0.999999 -5.26658e-07 -3.3041e-17)
(0.999999 -3.91318e-07 -2.75554e-17)
(1 -2.90703e-07 -1.29586e-17)
(1 -2.14335e-07 -1.05261e-18)
(1 -1.56421e-07 4.44337e-18)
(1 -1.13136e-07 3.92998e-18)
(1 -8.13341e-08 2.41522e-18)
(1 -5.82385e-08 6.32062e-19)
(1 -4.15147e-08 -2.88656e-19)
(1 -2.93558e-08 -2.29578e-19)
(1 -2.0463e-08 -6.49733e-19)
(1 -1.39341e-08 7.6326e-20)
(1 -9.14429e-09 2.89999e-19)
(1 -5.64358e-09 2.9562e-19)
(1 -3.10062e-09 4.16178e-19)
(1 -1.26329e-09 -2.96724e-19)
(1 5.51457e-11 1.46351e-19)
(1 9.95776e-10 2.47252e-19)
(1 1.65912e-09 1.28948e-19)
(1 2.12128e-09 8.15947e-19)
(1 2.4348e-09 3.2004e-19)
(1 2.64127e-09 1.88745e-19)
(1 2.76807e-09 1.69664e-19)
(1 2.83868e-09 3.58161e-20)
(1 2.86695e-09 7.2983e-19)
(1 2.86655e-09 2.44093e-19)
(1 2.8439e-09 1.21297e-19)
(1 2.80739e-09 1.0835e-19)
(1 2.75938e-09 -2.07973e-20)
(1 2.70546e-09 6.7785e-19)
(1 2.64577e-09 1.97695e-19)
(1 2.58442e-09 8.1681e-20)
(1 2.52033e-09 7.62116e-20)
(1 2.45685e-09 -4.57065e-20)
(1 2.39221e-09 6.58946e-19)
(1 2.32938e-09 1.82923e-19)
(1 2.26617e-09 6.90255e-20)
(1 2.20537e-09 6.3987e-20)
(1 2.14456e-09 -5.85595e-20)
(1 2.08646e-09 6.45072e-19)
(1 2.02849e-09 1.68151e-19)
(1 1.97335e-09 5.37404e-20)
(1 1.91834e-09 4.86089e-20)
(1 1.86619e-09 -7.36979e-20)
(1 1.81413e-09 6.30411e-19)
(1 1.76491e-09 1.54185e-19)
(1 1.71567e-09 4.07232e-20)
(1 1.6693e-09 3.67801e-20)
(1 1.62268e-09 -8.43055e-20)
(1 1.57918e-09 6.20532e-19)
(1 1.53474e-09 1.43714e-19)
(1 1.49473e-09 2.74427e-20)
(1 1.45092e-09 1.77605e-20)
(1 1.41775e-09 -1.11553e-19)
(1 1.3677e-09 5.81868e-19)
(1 1.3582e-09 1.00586e-19)
(1 1.27018e-09 -4.98822e-20)
(1 1.35754e-09 6.53065e-20)
(1 1.12505e-09 -6.76595e-19)
(1.00013 -0.00252247 -2.24699e-18)
(1.00202 -0.00762521 -6.60087e-18)
(1.00634 -0.0131012 -5.85642e-18)
(1.01306 -0.0191063 -9.23283e-18)
(1.02263 -0.0257158 4.13186e-19)
(1.03548 -0.0327895 -3.02009e-17)
(1.052 -0.0399913 2.19648e-17)
(1.07229 -0.0465055 8.22447e-17)
(1.09595 -0.0514495 -4.45329e-16)
(1.12196 -0.0536189 5.18974e-17)
(1.14811 -0.0523635 2.44978e-15)
(1.17254 -0.0486277 2.43978e-15)
(1.19444 -0.0429791 -5.10249e-15)
(1.21313 -0.0359171 -1.93302e-14)
(1.22818 -0.0278282 -3.34028e-14)
(1.23926 -0.0188997 -3.99424e-14)
(1.24601 -0.0092928 -3.60185e-14)
(1.24809 0.000751794 -2.4484e-14)
(1.24526 0.0108294 -1.19165e-14)
(1.23753 0.0203559 -9.09688e-16)
(1.22528 0.0286647 7.57308e-15)
(1.20932 0.0351573 1.3484e-14)
(1.19075 0.0394555 1.72341e-14)
(1.17082 0.0414849 1.93925e-14)
(1.1507 0.0414547 2.04925e-14)
(1.13133 0.0397666 2.09335e-14)
(1.11337 0.0369038 2.10019e-14)
(1.09723 0.0333379 2.0865e-14)
(1.08305 0.0294705 2.06277e-14)
(1.07082 0.0256067 2.03521e-14)
(1.06042 0.0219549 2.00647e-14)
(1.05166 0.0186387 1.97644e-14)
(1.04432 0.0157165 1.94194e-14)
(1.0382 0.0131999 1.89738e-14)
(1.03309 0.0110707 1.83778e-14)
(1.02882 0.00929371 1.75943e-14)
(1.02524 0.00782604 1.66106e-14)
(1.02221 0.00662312 1.54403e-14)
(1.01964 0.00564251 1.41144e-14)
(1.01743 0.0048458 1.26738e-14)
(1.01551 0.0041995 1.11482e-14)
(1.01383 0.00367507 9.54731e-15)
(1.01234 0.00324872 7.85732e-15)
(1.01101 0.00290096 6.05036e-15)
(1.00981 0.00261604 4.10243e-15)
(1.00871 0.00238136 2.00246e-15)
(1.00769 0.00218691 -2.36012e-16)
(1.00675 0.00202462 -2.57305e-15)
(1.00586 0.00188782 -4.94066e-15)
(1.00503 0.00177081 -7.2428e-15)
(1.00424 0.0016685 -9.36498e-15)
(1.00348 0.00157632 -1.11895e-14)
(1.00276 0.00149037 -1.26079e-14)
(1.00207 0.00140779 -1.3547e-14)
(1.00141 0.00132697 -1.40105e-14)
(1.00079 0.00124711 -1.41183e-14)
(1.00019 0.00116649 -1.41665e-14)
(0.999622 0.00107939 -1.46386e-14)
(0.99909 0.000972628 -1.61419e-14)
(0.998604 0.000824 -1.92389e-14)
(0.998183 0.000605267 -2.42056e-14)
(0.997858 0.000291229 -3.08895e-14)
(0.997668 -0.000126586 -3.88058e-14)
(0.997651 -0.000626549 -4.75688e-14)
(0.997835 -0.00115087 -5.73723e-14)
(0.998217 -0.00161263 -6.9017e-14)
(0.998757 -0.00191669 -8.32705e-14)
(0.99938 -0.00198883 -9.97408e-14)
(0.999987 -0.00180221 -1.16049e-13)
(1.00048 -0.00139023 -1.28079e-13)
(1.00078 -0.000839505 -1.31539e-13)
(1.00085 -0.000265125 -1.24187e-13)
(1.00072 0.000222453 -1.07541e-13)
(1.00044 0.000546544 -8.71068e-14)
(1.00008 0.000679672 -7.07037e-14)
(0.999736 0.000641973 -6.54337e-14)
(0.999459 0.000486103 -7.44316e-14)
(0.999286 0.000276379 -9.48982e-14)
(0.999224 7.00969e-05 -1.18653e-13)
(0.999255 -9.3911e-05 -1.35261e-13)
(0.999352 -0.000198341 -1.3638e-13)
(0.999482 -0.000244008 -1.19066e-13)
(0.999615 -0.000243198 -8.67576e-14)
(0.999733 -0.000212754 -4.76609e-14)
(0.999825 -0.00016877 -1.14002e-14)
(0.99989 -0.00012355 1.45051e-14)
(0.999931 -8.46214e-05 2.68524e-14)
(0.999954 -5.51646e-05 2.70031e-14)
(0.999967 -3.51905e-05 1.93984e-14)
(0.999974 -2.29068e-05 9.3081e-15)
(0.999979 -1.59063e-05 8.687e-16)
(0.999983 -1.19872e-05 -3.9142e-15)
(0.999986 -9.56233e-06 -5.07208e-15)
(0.99999 -7.72611e-06 -3.87739e-15)
(0.999993 -6.10784e-06 -1.87678e-15)
(0.999995 -4.64853e-06 -2.03925e-16)
(0.999996 -3.40412e-06 6.68672e-16)
(0.999997 -2.42449e-06 8.10968e-16)
(0.999998 -1.70945e-06 5.4773e-16)
(0.999999 -1.2155e-06 2.03807e-16)
(0.999999 -8.81609e-07 -3.32099e-17)
(0.999999 -6.51937e-07 -1.21485e-16)
(0.999999 -4.8675e-07 -1.0526e-16)
(1 -3.62665e-07 -5.15289e-17)
(1 -2.67592e-07 -5.6472e-18)
(1 -1.95166e-07 1.55063e-17)
(1 -1.41062e-07 1.60851e-17)
(1 -1.01453e-07 8.73933e-18)
(1 -7.28028e-08 1.54283e-18)
(1 -5.21082e-08 -1.45788e-18)
(1 -3.70648e-08 -1.67304e-18)
(1 -2.60448e-08 -1.33175e-18)
(1 -1.79374e-08 -4.1033e-19)
(1 -1.19797e-08 -8.65461e-21)
(1 -7.62161e-09 6.11847e-19)
(1 -4.45396e-09 7.14785e-19)
(1 -2.16365e-09 -1.9666e-20)
(1 -5.17247e-10 -1.45107e-19)
(1 6.60555e-10 -2.39728e-19)
(1 1.49515e-09 3.145e-19)
(1 2.08026e-09 5.8149e-19)
(1 2.48145e-09 4.27405e-20)
(1 2.7496e-09 -1.50465e-20)
(1 2.91924e-09 -1.2175e-19)
(1 3.01882e-09 3.95328e-19)
(1 3.06618e-09 6.28774e-19)
(1 3.07754e-09 6.71086e-20)
(1 3.06156e-09 -5.70158e-21)
(1 3.02788e-09 -1.23289e-19)
(1 2.98017e-09 3.85447e-19)
(1 2.92456e-09 6.13221e-19)
(1 2.86199e-09 4.90006e-20)
(1 2.79677e-09 -2.34138e-20)
(1 2.72834e-09 -1.3856e-19)
(1 2.66004e-09 3.7337e-19)
(1 2.59047e-09 6.0389e-19)
(1 2.52248e-09 4.11981e-20)
(1 2.45422e-09 -3.11134e-20)
(1 2.38827e-09 -1.47308e-19)
(1 2.3225e-09 3.6297e-19)
(1 2.2594e-09 5.91803e-19)
(1 2.19667e-09 2.78013e-20)
(1 2.13675e-09 -4.5274e-20)
(1 2.07723e-09 -1.61724e-19)
(1 2.02056e-09 3.48669e-19)
(1 1.96424e-09 5.77865e-19)
(1 1.91075e-09 1.44498e-20)
(1 1.8575e-09 -5.77585e-20)
(1 1.80711e-09 -1.73015e-19)
(1 1.7567e-09 3.38778e-19)
(1 1.70945e-09 5.69164e-19)
(1 1.6614e-09 5.99728e-21)
(1 1.61799e-09 -6.7771e-20)
(1 1.57062e-09 -1.8719e-19)
(1 1.53455e-09 3.18127e-19)
(1 1.48077e-09 5.38517e-19)
(1 1.46871e-09 -2.75954e-20)
(1 1.37789e-09 -1.36779e-19)
(1 1.45713e-09 -1.29632e-19)
(1 1.22861e-09 -2.23648e-19)
(1.00012 -0.00302881 2.10896e-18)
(1.00189 -0.00916293 8.14223e-18)
(1.00597 -0.0157861 5.74789e-18)
(1.01237 -0.023117 1.0171e-17)
(1.02165 -0.0312807 2.29777e-17)
(1.03434 -0.0401395 -9.78021e-17)
(1.05103 -0.0493038 4.69318e-16)
(1.07199 -0.0577149 -1.001e-15)
(1.09693 -0.064223 -4.33569e-16)
(1.12478 -0.0670535 6.97968e-15)
(1.15265 -0.065305 2.12134e-15)
(1.17835 -0.0604686 -3.14459e-14)
(1.20122 -0.0533139 -7.37434e-14)
(1.22061 -0.044492 -8.35359e-14)
(1.2362 -0.0344759 -3.66048e-14)
(1.24772 -0.0234473 5.5568e-14)
(1.2548 -0.0115521 1.55013e-13)
(1.25701 0.000952696 2.19989e-13)
(1.25403 0.0135711 2.56003e-13)
(1.24577 0.0255435 2.678e-13)
(1.23264 0.0359859 2.61659e-13)
(1.2155 0.0441022 2.44125e-13)
(1.19563 0.0493965 2.20859e-13)
(1.17442 0.0517854 1.96049e-13)
(1.1532 0.0515631 1.7234e-13)
(1.13298 0.0492694 1.51029e-13)
(1.11446 0.0455386 1.32511e-13)
(1.09799 0.0409769 1.16659e-13)
(1.08369 0.0360896 1.03148e-13)
(1.07149 0.0312531 9.16162e-14)
(1.0612 0.0267172 8.16852e-14)
(1.05261 0.0226253 7.29484e-14)
(1.04547 0.0190397 6.49734e-14)
(1.03954 0.0159665 5.73606e-14)
(1.03462 0.0133771 4.98071e-14)
(1.03051 0.0112235 4.21682e-14)
(1.02706 0.00944984 3.44526e-14)
(1.02415 0.00799963 2.67731e-14)
(1.02167 0.00681974 1.92714e-14)
(1.01953 0.00586266 1.20384e-14)
(1.01767 0.00508723 5.07862e-15)
(1.01603 0.00445864 -1.68827e-15)
(1.01458 0.00394796 -8.38195e-15)
(1.01326 0.0035316 -1.51013e-14)
(1.01207 0.00319058 -2.1879e-14)
(1.01097 0.00290981 -2.86548e-14)
(1.00996 0.0026773 -3.52834e-14)
(1.00901 0.00248346 -4.1547e-14)
(1.00811 0.00232039 -4.71744e-14)
(1.00726 0.00218125 -5.18628e-14)
(1.00645 0.00205996 -5.53026e-14)
(1.00567 0.00195102 -5.72278e-14)
(1.00492 0.0018497 -5.74931e-14)
(1.0042 0.00175246 -5.61728e-14)
(1.00351 0.00165725 -5.36765e-14)
(1.00284 0.001563 -5.08742e-14)
(1.0022 0.0014677 -4.91601e-14)
(1.00159 0.00136474 -5.03548e-14)
(1.00101 0.0012389 -5.6338e-14)
(1.00047 0.00106435 -6.84421e-14)
(0.999981 0.000808024 -8.6896e-14)
(0.999578 0.000440033 -1.10771e-13)
(0.999291 -5.02225e-05 -1.38749e-13)
(0.999155 -0.000638122 -1.70408e-13)
(0.999193 -0.00125629 -2.0705e-13)
(0.999404 -0.00180245 -2.50882e-13)
(0.999755 -0.00216394 -3.02328e-13)
(1.00018 -0.00225223 -3.56951e-13)
(1.00059 -0.00203469 -4.04506e-13)
(1.0009 -0.00155034 -4.31821e-13)
(1.00105 -0.000901849 -4.28834e-13)
(1.001 -0.0002263 -3.9469e-13)
(1.00077 0.000344372 -3.40473e-13)
(1.00042 0.00071836 -2.86903e-13)
(1.00002 0.000862731 -2.5776e-13)
(0.999651 0.000801814 -2.70441e-13)
(0.999366 0.00059933 -3.27198e-13)
(0.999198 0.000333446 -4.11475e-13)
(0.99915 7.41943e-05 -4.92234e-13)
(0.999202 -0.000130639 -5.35496e-13)
(0.999322 -0.000259619 -5.18075e-13)
(0.999472 -0.00031387 -4.36399e-13)
(0.999623 -0.000309102 -3.07451e-13)
(0.999752 -0.000267019 -1.61841e-13)
(0.999849 -0.000208509 -3.23396e-14)
(0.999913 -0.000149558 5.71395e-14)
(0.999951 -9.98263e-05 9.78712e-14)
(0.999969 -6.31544e-05 9.62283e-14)
(0.999977 -3.91553e-05 6.83287e-14)
(0.99998 -2.51066e-05 3.24943e-14)
(0.999982 -1.75998e-05 2.83278e-15)
(0.999984 -1.36523e-05 -1.39124e-14)
(0.999988 -1.12219e-05 -1.79632e-14)
(0.999991 -9.23645e-06 -1.37702e-14)
(0.999993 -7.33976e-06 -6.72414e-15)
(0.999996 -5.55756e-06 -7.94572e-16)
(0.999997 -4.02421e-06 2.33668e-15)
(0.999998 -2.82951e-06 2.88251e-15)
(0.999998 -1.97572e-06 1.97106e-15)
(0.999999 -1.40053e-06 7.49348e-16)
(0.999999 -1.01967e-06 -1.04487e-16)
(0.999999 -7.5956e-07 -4.2869e-16)