/*--------------------------------*- C++ -*----------------------------------*\
  =========                 |
  \\      /  F ield         | OpenFOAM: The Open Source CFD Toolbox
   \\    /   O peration     | Website:  https://openfoam.org
    \\  /    A nd           | Version:  11
     \\/     M anipulation  |
\*---------------------------------------------------------------------------*/
FoamFile
{
    format      ascii;
    class       volVectorField;
    location    "3.65743";
    object      U_0;
}
// * * * * * * * * * * * * * * * * * * * * * * * * * * * * * * * * * * * * * //

dimensions      [0 1 -1 0 0 0 0];

internalField   nonuniform List<vector> 
7132
(
(1.00014 -0.000289452 2.09153e-18)
(1.00224 -0.000873217 7.40981e-18)
(1.007 -0.00149258 7.96652e-18)
(1.01423 -0.0021593 9.06758e-18)
(1.02424 -0.00287651 1.13958e-17)
(1.03722 -0.00362391 1.17696e-17)
(1.05324 -0.00436161 1.11552e-17)
(1.07214 -0.0050109 1.03346e-17)
(1.0934 -0.00548665 9.69686e-18)
(1.11615 -0.00569714 9.29168e-18)
(1.13911 -0.00558737 8.88635e-18)
(1.16101 -0.00521477 8.72758e-18)
(1.18094 -0.0046291 7.62715e-18)
(1.19814 -0.00387857 8.11522e-18)
(1.21205 -0.00300505 -1.00426e-18)
(1.22224 -0.00203601 -1.02206e-17)
(1.22839 -0.000996805 -2.24058e-17)
(1.23025 8.0422e-05 -1.83782e-17)
(1.22776 0.00115047 -2.61524e-17)
(1.22103 0.00215466 -3.85119e-17)
(1.21046 0.0030292 -3.85338e-17)
(1.1967 0.00371803 -3.84998e-17)
(1.18058 0.00418527 -4.01108e-17)
(1.16306 0.00442246 -4.39217e-17)
(1.14505 0.00444741 -3.79983e-17)
(1.12734 0.00429704 -3.94041e-17)
(1.11056 0.00401771 -4.21152e-17)
(1.09511 0.00365654 -4.50774e-17)
(1.08124 0.00325517 -4.78766e-17)
(1.06903 0.00284666 -4.65457e-17)
(1.05845 0.00245459 -4.44814e-17)
(1.04939 0.00209393 -4.27211e-17)
(1.0417 0.00177257 -4.33624e-17)
(1.03522 0.0014932 -4.03976e-17)
(1.02977 0.00125492 -3.68637e-17)
(1.02519 0.0010547 -3.24706e-17)
(1.02134 0.000888387 -2.7706e-17)
(1.01809 0.000751427 -2.2875e-17)
(1.01534 0.000639343 -1.58201e-17)
(1.01298 0.000547994 -8.54802e-18)
(1.01096 0.000473704 -6.57832e-19)
(1.0092 0.000413307 6.83418e-18)
(1.00765 0.000364138 1.44333e-17)
(1.00629 0.000323994 2.32898e-17)
(1.00506 0.000291082 3.16109e-17)
(1.00396 0.000263955 3.95573e-17)
(1.00295 0.00024145 4.58009e-17)
(1.00202 0.000222626 5.05459e-17)
(1.00117 0.0002067 5.42579e-17)
(1.00037 0.000193005 5.45668e-17)
(0.99962 0.000180949 5.10308e-17)
(0.998917 0.000170007 4.55517e-17)
(0.998256 0.000159748 3.88234e-17)
(0.997635 0.000149867 3.01611e-17)
(0.997053 0.000140211 2.12663e-17)
(0.996509 0.000130702 1.32474e-17)
(0.996002 0.000121103 8.79195e-18)
(0.995534 0.000110625 9.2284e-18)
(0.995111 9.75325e-05 1.16832e-17)
(0.994746 7.90181e-05 1.24048e-17)
(0.994469 5.16728e-05 5.37214e-18)
(0.994321 1.26687e-05 -1.14525e-17)
(0.994353 -3.85808e-05 -3.58151e-17)
(0.994611 -9.89247e-05 -6.09087e-17)
(0.995122 -0.000160965 -7.47002e-17)
(0.995875 -0.000214131 -7.2918e-17)
(0.996811 -0.000247327 -5.91164e-17)
(0.997832 -0.000252357 -4.47718e-17)
(0.998813 -0.000226871 -4.30821e-17)
(0.999635 -0.00017557 -5.4367e-17)
(1.00021 -0.000109105 -6.76439e-17)
(1.0005 -4.10148e-05 -6.1261e-17)
(1.00054 1.61368e-05 -1.91596e-17)
(1.00037 5.39906e-05 5.22214e-17)
(1.0001 6.99453e-05 1.243e-16)
(0.999811 6.67418e-05 1.51383e-16)
(0.999565 5.05801e-05 9.80758e-17)
(0.999402 2.86968e-05 -4.04078e-17)
(0.999332 7.30746e-06 -2.31669e-16)
(0.999342 -9.55284e-06 -4.13057e-16)
(0.999408 -2.02257e-05 -5.23943e-16)
(0.999504 -2.49381e-05 -5.27471e-16)
(0.999608 -2.5023e-05 -4.26436e-16)
(0.999705 -2.21833e-05 -2.6088e-16)
(0.999787 -1.79804e-05 -8.47332e-17)
(0.99985 -1.35778e-05 5.12355e-17)
(0.999896 -9.68545e-06 1.21375e-16)
(0.999927 -6.62163e-06 1.27918e-16)
(0.999948 -4.4243e-06 9.16321e-17)
(0.999962 -2.96685e-06 4.2624e-17)
(0.999972 -2.05547e-06 1.74268e-18)
(0.999979 -1.49813e-06 -2.05978e-17)
(0.999984 -1.14346e-06 -2.39807e-17)
(0.999988 -8.93053e-07 -1.74677e-17)
(0.999991 -6.95321e-07 -7.53364e-18)
(0.999994 -5.30306e-07 2.09008e-19)
(0.999995 -3.9378e-07 3.58472e-18)
(0.999997 -2.85748e-07 4.41011e-18)
(0.999998 -2.04742e-07 2.43757e-18)
(0.999998 -1.4669e-07 7.12853e-19)
(0.999999 -1.06109e-07 -2.28287e-19)
(0.999999 -7.77119e-08 -6.56664e-19)
(0.999999 -5.73907e-08 1.96061e-19)
(1 -4.24261e-08 -5.30358e-21)
(1 -3.1194e-08 7.36484e-20)
(1 -2.27374e-08 1.72417e-19)
(1 -1.64265e-08 -1.92756e-21)
(1 -1.17779e-08 6.59543e-19)
(1 -8.3872e-09 1.70741e-19)
(1 -5.92426e-09 5.92245e-20)
(1 -4.1319e-09 1.00811e-19)
(1 -2.82336e-09 -4.49488e-20)
(1 -1.86497e-09 6.7024e-19)
(1 -1.16426e-09 2.22369e-19)
(1 -6.52972e-10 1.27761e-19)
(1 -2.82871e-10 1.66112e-19)
(1 -1.58043e-11 7.1829e-21)
(1 1.74424e-10 6.97686e-19)
(1 3.09649e-10 2.56447e-19)
(1 4.03406e-10 2.19898e-20)
(1 4.68174e-10 6.14307e-19)
(1 5.10378e-10 7.02164e-19)
(1 5.37538e-10 8.10388e-19)
(1 5.52262e-10 2.32243e-19)
(1 5.595e-10 -3.25907e-20)
(1 5.59756e-10 5.54508e-19)
(1 5.5664e-10 6.41863e-19)
(1 5.4946e-10 7.49017e-19)
(1 5.41144e-10 1.6839e-19)
(1 5.30311e-10 -9.95277e-20)
(1 5.19568e-10 4.8524e-19)
(1 5.07115e-10 5.72208e-19)
(1 4.95428e-10 6.81475e-19)
(1 4.8244e-10 1.05216e-19)
(1 4.70595e-10 -1.56966e-19)
(1 4.57644e-10 4.33736e-19)
(1 4.46054e-10 5.2581e-19)
(1 4.3344e-10 6.38756e-19)
(1 4.22311e-10 6.46802e-20)
(1 4.1018e-10 -1.96467e-19)
(1 3.99607e-10 3.94657e-19)
(1 3.8802e-10 4.87047e-19)
(1 3.78036e-10 6.00538e-19)
(1 3.6701e-10 2.73641e-20)
(1 3.57616e-10 -2.32527e-19)
(1 3.47144e-10 3.6015e-19)
(1 3.38321e-10 4.54334e-19)
(1 3.28377e-10 5.69767e-19)
(1 3.201e-10 -1.55404e-21)
(1 3.10652e-10 -2.6019e-19)
(1 3.0293e-10 3.32331e-19)
(1 2.93912e-10 4.23959e-19)
(1 2.86849e-10 5.33637e-19)
(1 2.77954e-10 -4.69371e-20)
(1 2.72144e-10 -3.17028e-19)
(1 2.61942e-10 2.61559e-19)
(1 2.60984e-10 3.49862e-19)
(1 2.42295e-10 4.2129e-19)
(1 2.64211e-10 -4.66441e-21)
(1 2.11225e-10 -9.81633e-19)
(1.00014 -0.000865494 2.98161e-20)
(1.00222 -0.00261236 3.61308e-19)
(1.00694 -0.00446725 7.28881e-19)
(1.01412 -0.00646804 1.09642e-18)
(1.0241 -0.00862512 1.50228e-18)
(1.03708 -0.0108788 1.89549e-18)
(1.05316 -0.0131099 2.26297e-18)
(1.0722 -0.0150787 2.15723e-18)
(1.09369 -0.016526 5.65945e-18)
(1.11674 -0.0171661 7.0205e-18)
(1.14001 -0.0168292 4.14584e-18)
(1.16216 -0.0156999 4.75277e-18)
(1.18229 -0.0139309 1.04203e-18)
(1.19964 -0.0116694 1.24577e-17)
(1.21367 -0.00904149 4.10196e-17)
(1.22395 -0.00612779 7.22122e-17)
(1.23015 -0.00300195 8.57713e-17)
(1.23203 0.000241938 7.31766e-17)
(1.2295 0.00346906 4.60303e-17)
(1.22267 0.00650159 1.12503e-17)
(1.21194 0.00914436 -2.51111e-17)
(1.19797 0.0112248 -5.92014e-17)
(1.18162 0.0126325 -8.86921e-17)
(1.16387 0.0133417 -1.12525e-16)
(1.14565 0.0134077 -1.29576e-16)
(1.12779 0.0129439 -1.40345e-16)
(1.11089 0.0120921 -1.45466e-16)
(1.09537 0.0109958 -1.45528e-16)
(1.08147 0.00978101 -1.41182e-16)
(1.06926 0.00854731 -1.32895e-16)
(1.0587 0.0073654 -1.17806e-16)
(1.04966 0.00627976 -1.05538e-16)
(1.04201 0.00531366 -8.89921e-17)
(1.03556 0.00447464 -6.71426e-17)
(1.03014 0.00375968 -4.30621e-17)
(1.02559 0.00315936 -1.34707e-17)
(1.02177 0.00266101 1.507e-17)
(1.01854 0.00225083 4.33456e-17)
(1.0158 0.0019153 7.20116e-17)
(1.01346 0.00164193 9.93873e-17)
(1.01145 0.00141967 1.26895e-16)
(1.0097 0.00123903 1.50436e-16)
(1.00816 0.00109199 1.72212e-16)
(1.00679 0.00097196 1.91821e-16)
(1.00557 0.00087356 2.079e-16)
(1.00446 0.000792463 2.19854e-16)
(1.00345 0.000725192 2.23018e-16)
(1.00252 0.000668934 2.18612e-16)
(1.00166 0.000621357 2.05887e-16)
(1.00086 0.000580465 1.83095e-16)
(1.00011 0.000544492 1.52837e-16)
(0.999398 0.000511874 1.1543e-16)
(0.99873 0.000481308 7.34799e-17)
(0.998101 0.000451877 3.11485e-17)
(0.99751 0.000423111 -7.98665e-18)
(0.996956 0.000394778 -3.69333e-17)
(0.996439 0.000366195 -5.37163e-17)
(0.995961 0.000335074 -5.95187e-17)
(0.995525 0.000296329 -6.26036e-17)
(0.995147 0.000241673 -7.93538e-17)
(0.994853 0.000160954 -1.2352e-16)
(0.994684 4.56332e-05 -2.02493e-16)
(0.994688 -0.000106283 -3.04481e-16)
(0.994914 -0.000285725 -4.05516e-16)
(0.995387 -0.000470927 -4.80643e-16)
(0.996098 -0.00063051 -5.25524e-16)
(0.996992 -0.000731272 -5.67886e-16)
(0.997973 -0.000748431 -6.43263e-16)
(0.998919 -0.000674489 -7.75922e-16)
(0.999712 -0.000523005 -9.41259e-16)
(1.00027 -0.00032546 -1.06513e-15)
(1.00054 -0.00012221 -1.05986e-15)
(1.00056 4.90276e-05 -8.70827e-16)
(1.00039 0.000162923 -5.37379e-16)
(1.00011 0.000211311 -1.87376e-16)
(0.999815 0.000202086 9.51269e-18)
(0.999564 0.000153656 -8.03653e-17)
(0.999398 8.77055e-05 -4.71478e-16)
(0.999326 2.29903e-05 -1.04803e-15)
(0.999335 -2.82108e-05 -1.59957e-15)
(0.999403 -6.07596e-05 -1.91522e-15)
(0.999501 -7.52368e-05 -1.87649e-15)
(0.999608 -7.56185e-05 -1.49313e-15)
(0.999707 -6.7055e-05 -8.99841e-16)
(0.999789 -5.43032e-05 -2.84056e-16)
(0.999853 -4.09271e-05 1.89254e-16)
(0.999898 -2.91086e-05 4.30986e-16)
(0.99993 -1.98272e-05 4.52541e-16)
(0.99995 -1.31969e-05 3.27692e-16)
(0.999964 -8.82376e-06 1.54644e-16)
(0.999973 -6.10832e-06 1.08371e-17)
(0.999979 -4.45947e-06 -6.9771e-17)
(0.999984 -3.41414e-06 -8.58186e-17)
(0.999988 -2.67415e-06 -6.26068e-17)
(0.999991 -2.08565e-06 -2.7666e-17)
(0.999994 -1.5913e-06 1.94831e-20)
(0.999995 -1.18083e-06 1.24568e-17)
(0.999997 -8.55806e-07 1.39013e-17)
(0.999998 -6.12419e-07 8.84991e-18)
(0.999998 -4.38431e-07 3.01133e-18)
(0.999999 -3.1713e-07 -5.10177e-19)
(0.999999 -2.32397e-07 -2.32277e-18)
(0.999999 -1.71777e-07 -1.36663e-18)
(1 -1.27088e-07 -3.44091e-19)
(1 -9.34952e-08 3.12196e-19)
(1 -6.81744e-08 6.96338e-19)
(1 -4.92714e-08 -3.35425e-20)
(1 -3.53499e-08 3.26394e-19)
(1 -2.52016e-08 3.24363e-19)
(1 -1.78328e-08 2.5587e-19)
(1 -1.24716e-08 3.80862e-19)
(1 -8.55624e-09 -2.93358e-19)
(1 -5.68799e-09 2.25215e-19)
(1 -3.58918e-09 3.49016e-19)
(1 -2.05776e-09 3.33847e-19)
(1 -9.4786e-10 4.56809e-19)
(1 -1.47307e-10 -2.41897e-19)
(1 4.2444e-10 2.44106e-19)
(1 8.30519e-10 3.70668e-19)
(1 1.11371e-09 2.26249e-19)
(1 1.30897e-09 8.91675e-19)
(1 1.438e-09 4.10039e-19)
(1 1.5207e-09 3.12293e-19)
(1 1.56755e-09 3.11718e-19)
(1 1.59057e-09 1.47895e-19)
(1 1.59415e-09 8.17211e-19)
(1 1.58609e-09 3.42016e-19)
(1 1.56742e-09 2.48441e-19)
(1 1.5437e-09 2.49433e-19)
(1 1.51408e-09 8.57572e-20)
(1 1.48299e-09 7.55353e-19)
(1 1.44848e-09 2.81825e-19)
(1 1.41444e-09 1.91851e-19)
(1 1.37829e-09 1.98127e-19)
(1 1.34366e-09 4.05658e-20)
(1 1.30758e-09 7.16019e-19)
(1 1.27358e-09 2.47188e-19)
(1 1.23845e-09 1.60292e-19)
(1 1.20571e-09 1.68073e-19)
(1 1.17196e-09 1.08766e-20)
(1 1.14077e-09 6.86139e-19)
(1 1.1086e-09 2.17078e-19)
(1 1.07905e-09 1.30233e-19)
(1 1.0485e-09 1.38455e-19)
(1 1.0206e-09 -1.79332e-20)
(1 9.91647e-10 6.58438e-19)
(1 9.65365e-10 1.90739e-19)
(1 9.37938e-10 1.05449e-19)
(1 9.13206e-10 1.1523e-19)
(1 8.87203e-10 -4.00294e-20)
(1 8.64032e-10 6.36284e-19)
(1 8.39239e-10 1.66377e-19)
(1 8.17943e-10 7.58935e-20)
(1 7.93505e-10 7.70969e-20)
(1 7.75882e-10 -8.9097e-20)
(1 7.47833e-10 5.73832e-19)
(1 7.44066e-10 9.92912e-20)
(1 6.92489e-10 -2.52262e-20)
(1 7.51584e-10 1.09113e-19)
(1 6.06793e-10 -6.86276e-19)
(1.00014 -0.00143358 5.24066e-22)
(1.00218 -0.00432899 4.43149e-21)
(1.00681 -0.00741015 3.64862e-21)
(1.01391 -0.0107461 1.22062e-20)
(1.02381 -0.014359 -1.51367e-19)
(1.03677 -0.0181535 2.4196e-19)
(1.05296 -0.0219333 -8.40388e-19)
(1.07229 -0.0252865 -1.51283e-18)
(1.09424 -0.0277683 6.38365e-18)
(1.11792 -0.028865 -1.32253e-18)
(1.1418 -0.0282771 -3.76152e-17)
(1.16445 -0.0263545 -2.83306e-17)
(1.18498 -0.0233653 1.03503e-16)
(1.20264 -0.0195615 3.12172e-16)
(1.21689 -0.0151545 4.43988e-16)
(1.22735 -0.010273 3.72694e-16)
(1.23366 -0.00503313 1.0577e-16)
(1.23558 0.000411973 -2.17863e-16)
(1.23297 0.00583677 -5.01537e-16)
(1.22594 0.010939 -7.09723e-16)
(1.21488 0.0153847 -8.36222e-16)
(1.20047 0.018878 -8.89817e-16)
(1.18364 0.0212303 -8.85623e-16)
(1.16542 0.0223993 -8.3946e-16)
(1.14679 0.0224818 -7.6473e-16)
(1.12859 0.0216739 -6.71228e-16)
(1.11146 0.0202185 -5.65615e-16)
(1.0958 0.0183592 -4.52387e-16)
(1.08184 0.0163089 -3.34723e-16)
(1.06962 0.0142343 -2.14937e-16)
(1.05909 0.0122527 -9.37011e-17)
(1.05012 0.0104371 2.80951e-17)
(1.04254 0.00882489 1.50639e-16)
(1.03616 0.00742736 2.73866e-16)
(1.03081 0.00623834 3.95858e-16)
(1.02633 0.00524132 5.13611e-16)
(1.02256 0.00441455 6.22639e-16)
(1.01938 0.00373468 7.19002e-16)
(1.01667 0.00317895 8.00541e-16)
(1.01436 0.00272644 8.66824e-16)
(1.01237 0.00235871 9.18866e-16)
(1.01063 0.00205991 9.5718e-16)
(1.00911 0.00181676 9.8119e-16)
(1.00775 0.00161829 9.88569e-16)
(1.00653 0.0014556 9.75427e-16)
(1.00542 0.00132152 9.3744e-16)
(1.00441 0.00121033 8.70467e-16)
(1.00348 0.00111737 7.72179e-16)
(1.00261 0.00103881 6.42837e-16)
(1.0018 0.000971354 4.85412e-16)
(1.00104 0.000912083 3.07299e-16)
(1.00032 0.000858406 1.17397e-16)
(0.999642 0.000808155 -7.26302e-17)
(0.998999 0.000759788 -2.46983e-16)
(0.998393 0.000712498 -3.91381e-16)
(0.997822 0.000665889 -4.93416e-16)
(0.997286 0.000618865 -5.52661e-16)
(0.996788 0.000567755 -5.87765e-16)
(0.99633 0.000504327 -6.39457e-16)
(0.995927 0.000415084 -7.66268e-16)
(0.995604 0.000283359 -1.01644e-15)
(0.995399 9.49616e-05 -1.39907e-15)
(0.995359 -0.000153728 -1.8657e-15)
(0.995529 -0.000448236 -2.33947e-15)
(0.995936 -0.000753146 -2.773e-15)
(0.996574 -0.00101698 -3.19428e-15)
(0.997389 -0.00118492 -3.71271e-15)
(0.998291 -0.0012157 -4.43783e-15)
(0.999162 -0.00109637 -5.36409e-15)
(0.999889 -0.00084876 -6.29302e-15)
(1.00039 -0.000524468 -6.86531e-15)
(1.00062 -0.000190067 -6.73202e-15)
(1.00061 9.19347e-05 -5.76705e-15)
(1.00041 0.000279306 -4.21694e-15)
(1.00012 0.000358163 -2.65682e-15)
(0.999806 0.000341308 -1.76045e-15)
(0.999548 0.00025915 -1.99735e-15)
(0.999379 0.000147743 -3.37741e-15)
(0.999308 3.84462e-05 -5.40131e-15)
(0.999321 -4.80761e-05 -7.25455e-15)
(0.999394 -0.000103071 -8.15532e-15)
(0.999498 -0.000127419 -7.68768e-15)
(0.99961 -0.000127803 -5.95026e-15)
(0.999713 -0.000112969 -3.48254e-15)
(0.999797 -9.10554e-05 -1.01335e-15)
(0.999861 -6.8185e-05 8.39932e-16)
(0.999906 -4.8103e-05 1.77009e-15)
(0.999935 -3.2466e-05 1.82896e-15)
(0.999954 -2.14234e-05 1.32029e-15)
(0.999966 -1.42466e-05 6.23811e-16)
(0.999974 -9.86561e-06 4.24531e-17)
(0.99998 -7.2458e-06 -2.79887e-16)
(0.999985 -5.5929e-06 -3.48721e-16)
(0.999989 -4.40916e-06 -2.57926e-16)
(0.999992 -3.44914e-06 -1.17734e-16)
(0.999994 -2.6307e-06 -5.49595e-18)
(0.999996 -1.94703e-06 4.93852e-17)
(0.999997 -1.40617e-06 5.49142e-17)
(0.999998 -1.00326e-06 3.49649e-17)
(0.999998 -7.17226e-07 1.15551e-17)
(0.999999 -5.19047e-07 -3.45618e-18)
(0.999999 -3.81054e-07 -8.33889e-18)
(0.999999 -2.82248e-07 -6.62455e-18)
(1 -2.09148e-07 -2.86707e-18)
(1 -1.53989e-07 2.55874e-20)
(1 -1.12321e-07 1.25851e-18)
(1 -8.12062e-08 1.1678e-18)
(1 -5.83163e-08 6.4237e-19)
(1 -4.16555e-08 2.04925e-19)
(1 -2.95699e-08 1.13657e-20)
(1 -2.07787e-08 4.36393e-20)
(1 -1.43539e-08 7.52385e-20)
(1 -9.64343e-09 1.37456e-19)
(1 -6.19277e-09 1.85291e-19)
(1 -3.67366e-09 1.99966e-19)
(1 -1.84585e-09 2.30626e-19)
(1 -5.26889e-10 1.79917e-19)
(1 4.17432e-10 1.64898e-19)
(1 1.08901e-09 1.77477e-19)
(1 1.56003e-09 1.6436e-19)
(1 1.88582e-09 2.27565e-19)
(1 2.10403e-09 2.51378e-19)
(1 2.24512e-09 2.51548e-19)
(1 2.32851e-09 2.52055e-19)
(1 2.37158e-09 2.2059e-19)
(1 2.38393e-09 2.66267e-19)
(1 2.37586e-09 2.74507e-19)
(1 2.35162e-09 2.60742e-19)
(1 2.31768e-09 2.48937e-19)
(1 2.27534e-09 2.07339e-19)
(1 2.22908e-09 2.45823e-19)
(1 2.17857e-09 2.50273e-19)
(1 2.12724e-09 2.35973e-19)
(1 2.07385e-09 2.26089e-19)
(1 2.02128e-09 1.8765e-19)
(1 1.9678e-09 2.29272e-19)
(1 1.91602e-09 2.35897e-19)
(1 1.86389e-09 2.2239e-19)
(1 1.81391e-09 2.12022e-19)
(1 1.76383e-09 1.72285e-19)
(1 1.71612e-09 2.1237e-19)
(1 1.66841e-09 2.17686e-19)
(1 1.62315e-09 2.03348e-19)
(1 1.57789e-09 1.92668e-19)
(1 1.5351e-09 1.53056e-19)
(1 1.49225e-09 1.93605e-19)
(1 1.45187e-09 1.99679e-19)
(1 1.41134e-09 1.86368e-19)
(1 1.37328e-09 1.76874e-19)
(1 1.3349e-09 1.38265e-19)
(1 1.29919e-09 1.78974e-19)
(1 1.26261e-09 1.8345e-19)
(1 1.22974e-09 1.65892e-19)
(1 1.1937e-09 1.48991e-19)
(1 1.16644e-09 1.00367e-19)
(1 1.1251e-09 1.29146e-19)
(1 1.11824e-09 1.25011e-19)
(1 1.0432e-09 9.34523e-20)
(1 1.12466e-09 9.94429e-20)
(1 9.18862e-10 -1.16141e-20)
(1.00014 -0.00198816 -2.82246e-20)
(1.00211 -0.00600636 -4.69193e-19)
(1.00662 -0.0102977 -8.3424e-19)
(1.01356 -0.0149692 -1.65404e-18)
(1.02333 -0.0200636 -1.7865e-18)
(1.03626 -0.0254569 -1.73567e-18)
(1.0526 -0.0308794 -1.13557e-17)
(1.07235 -0.0357293 1.81022e-17)
(1.09502 -0.0393566 3.08413e-18)
(1.11967 -0.0409556 -1.40739e-16)
(1.1445 -0.0400712 -2.14932e-17)
(1.16791 -0.0372905 6.65183e-16)
(1.18903 -0.0330169 1.26641e-15)
(1.20713 -0.0276189 7.14037e-16)
(1.22173 -0.021395 -1.38151e-15)
(1.23244 -0.014511 -4.27983e-15)
(1.23894 -0.00711334 -6.62813e-15)
(1.24091 0.00059577 -7.37834e-15)
(1.23819 0.00830046 -7.20064e-15)
(1.23085 0.0155627 -6.45167e-15)
(1.21927 0.0218913 -5.40165e-15)
(1.2042 0.0268494 -4.24967e-15)
(1.18664 0.0301605 -3.12294e-15)
(1.1677 0.031767 -2.08822e-15)
(1.14843 0.0318175 -1.16984e-15)
(1.12974 0.0306033 -3.67405e-16)
(1.11226 0.0284804 3.32073e-16)
(1.09639 0.0258009 9.4509e-16)
(1.08234 0.0228691 1.48744e-15)
(1.07012 0.0199198 1.97272e-15)
(1.05964 0.0171163 2.41475e-15)
(1.05076 0.014558 2.81215e-15)
(1.04328 0.012294 3.1741e-15)
(1.03702 0.0103373 3.49909e-15)
(1.03178 0.00867667 3.77587e-15)
(1.02738 0.00728712 3.99775e-15)
(1.0237 0.00613691 4.14891e-15)
(1.02058 0.00519247 4.22617e-15)
(1.01794 0.00442142 4.23211e-15)
(1.01567 0.00379421 4.17287e-15)
(1.01371 0.00328492 4.05904e-15)
(1.012 0.00287137 3.89291e-15)
(1.01049 0.00253498 3.67615e-15)
(1.00915 0.0022605 3.40119e-15)
(1.00793 0.00203556 3.05673e-15)
(1.00683 0.00185023 2.63321e-15)
(1.00582 0.00169659 2.12227e-15)
(1.00488 0.00156824 1.52903e-15)
(1.00401 0.00145988 8.65673e-16)
(1.00319 0.00136697 1.53403e-16)
(1.00241 0.00128548 -5.73402e-16)
(1.00168 0.0012118 -1.27652e-15)
(1.00098 0.00114292 -1.91302e-15)
(1.00032 0.00107665 -2.44102e-15)
(0.999689 0.00101182 -2.8309e-15)
(0.999093 0.000947859 -3.07521e-15)
(0.998531 0.00088328 -3.21707e-15)
(0.998004 0.000813165 -3.36466e-15)
(0.997515 0.000726415 -3.68993e-15)
(0.997077 0.000604706 -4.38705e-15)
(0.996712 0.000425243 -5.58455e-15)
(0.996457 0.000168378 -7.27007e-15)
(0.996354 -0.000171299 -9.2764e-15)
(0.996446 -0.00057452 -1.14097e-14)
(0.996761 -0.000993176 -1.36293e-14)
(0.997291 -0.00135678 -1.61454e-14)
(0.99799 -0.00158979 -1.93102e-14)
(0.998773 -0.00163491 -2.32798e-14)
(0.999531 -0.00147365 -2.76678e-14)
(1.00015 -0.00113545 -3.14295e-14)
(1.00056 -0.000691126 -3.31858e-14)
(1.00073 -0.00023252 -3.18928e-14)
(1.00066 0.000153811 -2.75164e-14)
(1.00042 0.000409145 -2.1353e-14)
(1.0001 0.000513953 -1.56681e-14)
(0.999776 0.000485805 -1.28135e-14)
(0.999511 0.000366913 -1.41683e-14)
(0.999342 0.000207583 -1.93775e-14)
(0.999275 5.17878e-05 -2.63518e-14)
(0.999297 -7.13142e-05 -3.20774e-14)
(0.99938 -0.00014926 -3.39038e-14)
(0.999495 -0.000183243 -3.06278e-14)
(0.999615 -0.000182808 -2.29076e-14)
(0.999723 -0.000160574 -1.29003e-14)
(0.99981 -0.000128361 -3.30467e-15)
(0.999874 -9.5092e-05 3.68409e-15)
(0.999917 -6.62021e-05 7.06291e-15)
(0.999944 -4.40248e-05 7.13749e-15)
(0.99996 -2.8655e-05 5.10124e-15)
(0.99997 -1.89038e-05 2.39873e-15)
(0.999976 -1.31163e-05 1.59269e-16)
(0.999981 -9.74065e-06 -1.08399e-15)
(0.999986 -7.62262e-06 -1.35354e-15)
(0.999989 -6.07001e-06 -1.00785e-15)
(0.999992 -4.76747e-06 -4.67093e-16)
(0.999994 -3.63134e-06 -2.93082e-17)
(0.999996 -2.67483e-06 1.88335e-16)
(0.999997 -1.92041e-06 2.1484e-16)
(0.999998 -1.3636e-06 1.39364e-16)
(0.999998 -9.72901e-07 4.78758e-17)
(0.999999 -7.04894e-07 -1.2115e-17)
(0.999999 -5.19116e-07 -3.31319e-17)
(0.999999 -3.85788e-07 -2.67247e-17)
(1 -2.86509e-07 -1.21077e-17)
(1 -2.11129e-07 -5.82622e-19)
(1 -1.54e-07 4.53784e-18)
(1 -1.11343e-07 3.8278e-18)
(1 -8.00294e-08 2.2838e-18)
(1 -5.72956e-08 5.53203e-19)
(1 -4.08316e-08 -3.08244e-19)
(1 -2.88572e-08 -2.16708e-19)
(1 -2.00968e-08 -6.31023e-19)
(1 -1.36646e-08 8.78388e-20)
(1 -8.94651e-09 2.93144e-19)
(1 -5.49918e-09 2.94277e-19)
(1 -2.99578e-09 4.14054e-19)
(1 -1.18755e-09 -2.97948e-19)
(1 1.0961e-10 1.46094e-19)
(1 1.0347e-09 2.47444e-19)
(1 1.6867e-09 1.29162e-19)
(1 2.14055e-09 8.16034e-19)
(1 2.448e-09 3.20026e-19)
(1 2.65001e-09 1.88692e-19)
(1 2.77358e-09 1.69599e-19)
(1 2.84183e-09 3.57284e-20)
(1 2.8684e-09 7.29699e-19)
(1 2.86677e-09 2.43909e-19)
(1 2.84326e-09 1.21074e-19)
(1 2.80611e-09 1.08117e-19)
(1 2.75768e-09 -2.10045e-20)
(1 2.70345e-09 6.77697e-19)
(1 2.64358e-09 1.97611e-19)
(1 2.58209e-09 8.16607e-20)
(1 2.51795e-09 7.62375e-20)
(1 2.45443e-09 -4.5659e-20)
(1 2.3898e-09 6.58993e-19)
(1 2.32697e-09 1.82955e-19)
(1 2.2638e-09 6.90378e-20)
(1 2.20304e-09 6.39829e-20)
(1 2.14229e-09 -5.85733e-20)
(1 2.08423e-09 6.45055e-19)
(1 2.02633e-09 1.68136e-19)
(1 1.97123e-09 5.37302e-20)
(1 1.91629e-09 4.86031e-20)
(1 1.86419e-09 -7.36984e-20)
(1 1.81219e-09 6.3042e-19)
(1 1.76302e-09 1.54207e-19)
(1 1.71384e-09 4.07627e-20)
(1 1.66751e-09 3.68342e-20)
(1 1.62095e-09 -8.42525e-20)
(1 1.57748e-09 6.20553e-19)
(1 1.5331e-09 1.43663e-19)
(1 1.49313e-09 2.72785e-20)
(1 1.44938e-09 1.74586e-20)
(1 1.41623e-09 -1.11987e-19)
(1 1.36624e-09 5.81343e-19)
(1 1.35673e-09 1.00038e-19)
(1 1.26881e-09 -5.03721e-20)
(1 1.35609e-09 6.4926e-20)
(1 1.12383e-09 -6.76747e-19)
(1.00013 -0.00252245 -2.22871e-18)
(1.00202 -0.00762514 -6.64065e-18)
(1.00634 -0.0131011 -5.88101e-18)
(1.01306 -0.0191061 -9.16948e-18)
(1.02263 -0.0257155 3.97673e-19)
(1.03548 -0.0327891 -3.02104e-17)
(1.052 -0.0399906 2.19543e-17)
(1.07229 -0.0465044 8.22372e-17)
(1.09595 -0.0514479 -4.45279e-16)
(1.12196 -0.0536164 5.19045e-17)
(1.14811 -0.0523598 2.44934e-15)
(1.17253 -0.0486221 2.43925e-15)
(1.19443 -0.0429706 -5.10006e-15)
(1.21312 -0.0359045 -1.93193e-14)
(1.22816 -0.02781 -3.338e-14)
(1.23923 -0.0188747 -3.99096e-14)
(1.24597 -0.00926037 -3.59847e-14)
(1.24804 0.00079113 -2.44702e-14)
(1.24519 0.0108733 -1.19281e-14)
(1.23743 0.0204006 -9.46258e-16)
(1.22516 0.0287054 7.51578e-15)
(1.20918 0.0351897 1.3412e-14)
(1.1906 0.0394766 1.71539e-14)
(1.17066 0.0414935 1.93095e-14)
(1.15054 0.0414517 2.04099e-14)
(1.13117 0.0397539 2.0853e-14)
(1.11323 0.0368841 2.0924e-14)
(1.09709 0.0333141 2.07906e-14)
(1.08293 0.0294448 2.05579e-14)
(1.07071 0.0255811 2.02882e-14)
(1.06032 0.0219305 2.00073e-14)
(1.05157 0.0186165 1.97128e-14)
(1.04424 0.0156967 1.93722e-14)
(1.03813 0.0131827 1.89292e-14)
(1.03303 0.011056 1.83345e-14)
(1.02876 0.00928123 1.75518e-14)
(1.02519 0.00781553 1.65693e-14)
(1.02216 0.00661431 1.54015e-14)
(1.01959 0.00563512 1.40795e-14)
(1.01739 0.0048396 1.2644e-14)
(1.01547 0.00419426 1.11239e-14)
(1.01379 0.00367062 9.52786e-15)
(1.01231 0.00324492 7.84117e-15)
(1.01098 0.00289768 6.03568e-15)
(1.00977 0.00261318 4.08768e-15)
(1.00867 0.00237886 1.98686e-15)
(1.00766 0.0021847 -2.52278e-16)
(1.00672 0.00202265 -2.58877e-15)
(1.00584 0.00188604 -4.95365e-15)
(1.005 0.00176914 -7.25008e-15)
(1.00421 0.00166685 -9.36307e-15)
(1.00346 0.0015746 -1.1175e-14)
(1.00274 0.00148851 -1.25785e-14)
(1.00205 0.00140574 -1.35023e-14)
(1.00139 0.00132474 -1.39534e-14)
(1.00076 0.00124471 -1.40573e-14)
(1.00016 0.0011638 -1.4117e-14)
(0.999599 0.00107602 -1.46221e-14)
(0.999069 0.000967734 -1.61812e-14)
(0.998585 0.000816322 -1.93487e-14)
(0.998168 0.000593397 -2.43827e-14)
(0.997848 0.000274191 -3.11106e-14)
(0.997664 -0.000148612 -3.90389e-14)
(0.997657 -0.00065167 -4.77975e-14)
(0.997851 -0.00117545 -5.7612e-14)
(0.998241 -0.00163195 -6.93033e-14)
(0.998788 -0.00192627 -8.36187e-14)
(0.999413 -0.00198591 -1.00097e-13)
(1.00002 -0.00178681 -1.16273e-13)
(1.0005 -0.00136539 -1.27986e-13)
(1.00079 -0.000810452 -1.30984e-13)
(1.00085 -0.000237748 -1.23161e-13)
(1.00071 0.000243266 -1.06217e-13)
(1.00042 0.000558097 -8.58031e-14)
(1.00007 0.000681831 -6.97698e-14)
(0.999721 0.00063671 -6.50985e-14)
(0.999448 0.000476524 -7.46782e-14)
(0.99928 0.000265666 -9.54363e-14)
(0.999223 6.07222e-05 -1.1902e-13)
(0.999259 -0.000100553 -1.35019e-13)
(0.999358 -0.000201897 -1.35304e-13)
(0.999488 -0.000244883 -1.1724e-13)
(0.999621 -0.000242186 -8.45358e-14)
(0.999738 -0.000210719 -4.55261e-14)
(0.999829 -0.000166436 -9.77941e-15)
(0.999892 -0.000121408 1.53835e-14)
(0.999932 -8.29214e-05 2.7006e-14)
(0.999955 -5.3966e-05 2.6644e-14)
(0.999968 -3.44309e-05 1.88204e-14)
(0.999974 -2.24687e-05 8.77072e-15)
(0.999979 -1.56676e-05 5.23184e-16)
(0.999983 -1.18514e-05 -4.03834e-15)
(0.999987 -9.46855e-06 -5.03238e-15)
(0.99999 -7.64558e-06 -3.76396e-15)
(0.999993 -6.03303e-06 -1.76609e-15)
(0.999995 -4.58176e-06 -1.36035e-16)
(0.999996 -3.34932e-06 6.89172e-16)
(0.999997 -2.38327e-06 8.0036e-16)
(0.999998 -1.68059e-06 5.26644e-16)
(0.999999 -1.19611e-06 1.86587e-16)
(0.999999 -8.68555e-07 -4.13766e-17)
(0.999999 -6.42782e-07 -1.22081e-16)
(0.999999 -4.79968e-07 -1.0228e-16)
(1 -3.57459e-07 -4.83514e-17)
(1 -2.63582e-07 -3.83776e-18)
(1 -1.92134e-07 1.59092e-17)
(1 -1.38824e-07 1.5726e-17)
(1 -9.98317e-08 8.24766e-18)
(1 -7.16358e-08 1.23806e-18)
(1 -5.1264e-08 -1.54016e-18)
(1 -3.64482e-08 -1.62946e-18)
(1 -2.5591e-08 -1.2629e-18)
(1 -1.76028e-08 -3.67206e-19)
(1 -1.1734e-08 2.96167e-21)
(1 -7.44226e-09 6.06217e-19)
(1 -4.32382e-09 7.06108e-19)
(1 -2.06968e-09 -2.47516e-20)
(1 -4.49656e-10 -1.46229e-19)
(1 7.08905e-10 -2.3892e-19)
(1 1.52946e-09 3.15486e-19)
(1 2.10429e-09 5.81971e-19)
(1 2.49795e-09 4.27727e-20)
(1 2.76059e-09 -1.52003e-20)
(1 2.92623e-09 -1.21919e-19)
(1 3.02289e-09 3.95181e-19)
(1 3.06814e-09 6.28618e-19)
(1 3.07798e-09 6.69161e-20)
(1 3.06093e-09 -5.92695e-21)
(1 3.02648e-09 -1.23519e-19)
(1 2.97824e-09 3.85248e-19)
(1 2.92225e-09 6.13081e-19)
(1 2.85945e-09 4.8929e-20)
(1 2.79407e-09 -2.34242e-20)
(1 2.72557e-09 -1.38529e-19)
(1 2.65721e-09 3.73419e-19)
(1 2.58765e-09 6.03935e-19)
(1 2.51967e-09 4.12269e-20)
(1 2.45145e-09 -3.11039e-20)
(1 2.38554e-09 -1.47314e-19)
(1 2.31984e-09 3.62956e-19)
(1 2.25679e-09 5.91788e-19)
(1 2.19414e-09 2.7789e-20)
(1 2.13427e-09 -4.52823e-20)
(1 2.07483e-09 -1.61728e-19)
(1 2.01822e-09 3.48669e-19)
(1 1.96197e-09 5.77872e-19)
(1 1.90854e-09 1.447e-20)
(1 1.85535e-09 -5.77196e-20)
(1 1.80502e-09 -1.72957e-19)
(1 1.75468e-09 3.38845e-19)
(1 1.70747e-09 5.69215e-19)
(1 1.65949e-09 5.99553e-21)
(1 1.61611e-09 -6.7864e-20)
(1 1.56881e-09 -1.87401e-19)
(1 1.53277e-09 3.17795e-19)
(1 1.47906e-09 5.38095e-19)
(1 1.467e-09 -2.80517e-20)
(1 1.37628e-09 -1.37199e-19)
(1 1.45544e-09 -1.29968e-19)
(1 1.22717e-09 -2.23792e-19)
(1.00012 -0.00302879 2.09721e-18)
(1.00189 -0.00916285 8.27025e-18)
(1.00597 -0.015786 5.74625e-18)
(1.01237 -0.0231168 1.01462e-17)
(1.02165 -0.0312803 2.30095e-17)
(1.03434 -0.0401389 -9.78061e-17)
(1.05103 -0.049303 4.69288e-16)
(1.07199 -0.0577137 -1.0009e-15)
(1.09693 -0.0642212 -4.33666e-16)
(1.12477 -0.0670508 6.97911e-15)
(1.15265 -0.0653008 2.12217e-15)
(1.17835 -0.0604622 -3.14387e-14)
(1.20121 -0.053304 -7.37261e-14)
(1.2206 -0.0444772 -8.35192e-14)
(1.23619 -0.0344542 -3.66332e-14)
(1.2477 -0.0234169 5.54271e-14)
(1.25476 -0.011512 1.54657e-13)
(1.25696 0.00100197 2.19501e-13)
(1.25395 0.0136266 2.55431e-13)
(1.24567 0.0256003 2.67186e-13)
(1.23251 0.0360377 2.61033e-13)
(1.21535 0.0441432 2.43512e-13)
(1.19546 0.0494227 2.2028e-13)
(1.17425 0.0517956 1.9552e-13)
(1.15303 0.0515584 1.71871e-13)
(1.13282 0.0492527 1.5062e-13)
(1.1143 0.0455133 1.32156e-13)
(1.09785 0.0409466 1.16354e-13)
(1.08356 0.0360573 1.02892e-13)
(1.07138 0.031221 9.14085e-14)
(1.06111 0.026687 8.15236e-14)
(1.05253 0.0225979 7.28259e-14)
(1.0454 0.0190155 6.48789e-14)
(1.03948 0.0159456 5.72834e-14)
(1.03456 0.0133592 4.97409e-14)
(1.03045 0.0112083 4.21128e-14)
(1.02701 0.00943714 3.44125e-14)
(1.02411 0.007989 2.67545e-14)
(1.02163 0.00681085 1.92784e-14)
(1.01949 0.00585521 1.20711e-14)
(1.01763 0.00508096 5.1325e-15)
(1.016 0.00445332 -1.62052e-15)
(1.01454 0.00394341 -8.30785e-15)
(1.01323 0.00352768 -1.50261e-14)
(1.01204 0.00318717 -2.18043e-14)
(1.01094 0.00290682 -2.85789e-14)
(1.00993 0.00267468 -3.52015e-14)
(1.00898 0.00248115 -4.14527e-14)
(1.00808 0.0023183 -4.70599e-14)
(1.00723 0.00217931 -5.17197e-14)
(1.00642 0.00205807 -5.51236e-14)
(1.00564 0.00194906 -5.70085e-14)
(1.0049 0.00184757 -5.72357e-14)
(1.00418 0.00175011 -5.58898e-14)
(1.00348 0.00165468 -5.33957e-14)
(1.00282 0.00156022 -5.06422e-14)
(1.00218 0.00146457 -4.90421e-14)
(1.00156 0.0013608 -5.04245e-14)
(1.00098 0.00123319 -5.66566e-14)
(1.00044 0.0010554 -6.90301e-14)
(0.999962 0.000794168 -8.77171e-14)
(0.999563 0.000420103 -1.11747e-13)
(0.999283 -7.60539e-05 -1.39809e-13)
(0.999154 -0.000667669 -1.71546e-13)
(0.999201 -0.00128528 -2.08341e-13)
(0.99942 -0.00182533 -2.52401e-13)
(0.999776 -0.00217539 -3.04014e-13)
(1.0002 -0.00224891 -3.585e-13)
(1.00061 -0.00201662 -4.054e-13)
(1.00092 -0.00152108 -4.31535e-13)
(1.00105 -0.000867627 -4.27121e-13)
(1.00099 -0.000194133 -3.91786e-13)
(1.00076 0.000368635 -3.37104e-13)
(1.0004 0.000731488 -2.8408e-13)
(1 0.000864566 -2.56404e-13)
(0.999635 0.000794735 -2.70951e-13)
(0.999355 0.000587101 -3.29153e-13)
(0.999193 0.000319946 -4.13673e-13)
(0.99915 6.24531e-05 -4.93109e-13)
(0.999206 -0.000138897 -5.33774e-13)
(0.999329 -0.000263955 -5.13313e-13)
(0.99948 -0.000314799 -4.29179e-13)
(0.99963 -0.000307639 -2.99164e-13)
(0.999758 -0.000264284 -1.54175e-13)
(0.999853 -0.000205442 -2.66839e-14)
(0.999916 -0.000146795 6.0112e-14)
(0.999952 -9.76821e-05 9.8314e-14)
(0.999969 -6.16892e-05 9.49199e-14)
(0.999977 -3.82675e-05 6.62918e-14)
(0.99998 -2.46258e-05 3.06153e-14)
(0.999982 -1.73573e-05 1.62412e-15)
(0.999985 -1.35206e-05 -1.43522e-14)
(0.999988 -1.11259e-05 -1.78317e-14)
(0.999991 -9.14497e-06 -1.33776e-14)
(0.999994 -7.24911e-06 -6.33615e-15)
(0.999996 -5.4749e-06 -5.52987e-16)
(0.999997 -3.95668e-06 2.41285e-15)
(0.999998 -2.77969e-06 2.84807e-15)
(0.999998 -1.94175e-06 1.89775e-15)
(0.999999 -1.3783e-06 6.88153e-16)
(0.999999 -1.00493e-06 -1.343e-16)
(0.999999 -7.49196e-07 -4.31583e-16)
(1 -5.63065e-07 -3.67148e-16)
(1 -4.20729e-07 -1.76387e-16)