/*--------------------------------*- C++ -*----------------------------------*\
  =========                 |
  \\      /  F ield         | OpenFOAM: The Open Source CFD Toolbox
   \\    /   O peration     | Website:  https://openfoam.org
    \\  /    A nd           | Version:  11
     \\/     M anipulation  |
\*---------------------------------------------------------------------------*/
FoamFile
{
    format      ascii;
    class       volVectorField;
    location    "3.770376";
    object      U_0;
}
// * * * * * * * * * * * * * * * * * * * * * * * * * * * * * * * * * * * * * //

dimensions      [0 1 -1 0 0 0 0];

internalField   nonuniform List<vector> 
7132
(
(1.00014 -0.000289534 1.32794e-18)
(1.00224 -0.000873489 6.93081e-18)
(1.007 -0.0014931 7.68396e-18)
(1.01423 -0.00216016 9.20715e-18)
(1.02425 -0.00287787 1.13555e-17)
(1.03724 -0.003626 1.18005e-17)
(1.05327 -0.0043648 1.12312e-17)
(1.07218 -0.00501578 1.04321e-17)
(1.09347 -0.0054941 9.78595e-18)
(1.11625 -0.00570853 9.39656e-18)
(1.13926 -0.00560473 9.0193e-18)
(1.16125 -0.00524101 8.84669e-18)
(1.18131 -0.0046681 7.66459e-18)
(1.19869 -0.00393517 8.16918e-18)
(1.21286 -0.00308447 -1.80724e-18)
(1.22342 -0.0021427 -9.7503e-18)
(1.23005 -0.00113254 -1.95308e-17)
(1.23252 -8.16064e-05 -1.64478e-17)
(1.23072 0.000970793 -2.15668e-17)
(1.22474 0.00197155 -3.68197e-17)
(1.2149 0.00285998 -4.00857e-17)
(1.20177 0.00357935 -4.06158e-17)
(1.18614 0.00408947 -4.08683e-17)
(1.1689 0.00437524 -4.38096e-17)
(1.15098 0.00444769 -3.87662e-17)
(1.13318 0.00433841 -4.18583e-17)
(1.11615 0.00409065 -4.57145e-17)
(1.10036 0.00375054 -4.90432e-17)
(1.08608 0.0033604 -5.19803e-17)
(1.07344 0.00295491 -5.02077e-17)
(1.06242 0.00255971 -4.81639e-17)
(1.05295 0.0021918 -4.62464e-17)
(1.04489 0.00186086 -4.65704e-17)
(1.03807 0.00157095 -4.37395e-17)
(1.03233 0.00132218 -4.02999e-17)
(1.02751 0.00111213 -3.55463e-17)
(1.02344 0.000936991 -3.01158e-17)
(1.02002 0.000792353 -2.45276e-17)
(1.01711 0.000673735 -1.64915e-17)
(1.01464 0.000576919 -8.19764e-18)
(1.0125 0.000498118 7.4509e-19)
(1.01065 0.000434037 9.42721e-18)
(1.00903 0.000381885 1.8046e-17)
(1.0076 0.000339335 2.78812e-17)
(1.00632 0.000304477 3.72195e-17)
(1.00516 0.000275765 4.63511e-17)
(1.00411 0.000251961 5.422e-17)
(1.00315 0.000232079 6.09538e-17)
(1.00226 0.000215331 6.70484e-17)
(1.00142 0.000201079 6.99863e-17)
(1.00064 0.000188783 6.89427e-17)
(0.99991 0.000177966 6.53954e-17)
(0.999217 0.000168193 5.96251e-17)
(0.998561 0.000159067 5.04632e-17)
(0.997941 0.00015026 3.90004e-17)
(0.997355 0.000141558 2.57524e-17)
(0.996804 0.000132869 1.33291e-17)
(0.996287 0.000124139 4.38114e-18)
(0.995805 0.00011511 -7.9311e-19)
(0.995361 0.000104947 -1.72878e-18)
(0.994959 9.18805e-05 -1.81136e-18)
(0.994618 7.3147e-05 -5.26443e-18)
(0.994365 4.5497e-05 -1.78592e-17)
(0.994242 6.36765e-06 -4.32047e-17)
(0.994299 -4.45396e-05 -7.55504e-17)
(0.994579 -0.000103892 -1.07186e-16)
(0.995108 -0.00016433 -1.28319e-16)
(0.99587 -0.000215573 -1.34888e-16)
(0.996809 -0.000246977 -1.34033e-16)
(0.997825 -0.000250791 -1.36551e-16)
(0.998798 -0.000224918 -1.53991e-16)
(0.999612 -0.000174026 -1.83329e-16)
(1.00018 -0.000108469 -2.05158e-16)
(1.00048 -4.13739e-05 -1.94166e-16)
(1.00051 1.50488e-05 -1.32633e-16)
(1.00035 5.26118e-05 -3.33755e-17)
(1.00009 6.86779e-05 6.29305e-17)
(0.999802 6.58145e-05 1.02035e-16)
(0.99956 5.00207e-05 4.1477e-17)
(0.999399 2.83954e-05 -1.20481e-16)
(0.999329 7.11568e-06 -3.43318e-16)
(0.99934 -9.74347e-06 -5.53718e-16)
(0.999406 -2.04527e-05 -6.77534e-16)
(0.999503 -2.51814e-05 -6.72543e-16)
(0.999609 -2.52386e-05 -5.40868e-16)
(0.999706 -2.23348e-05 -3.30854e-16)
(0.999788 -1.8054e-05 -1.09828e-16)
(0.999852 -1.35819e-05 6.24476e-17)
(0.999897 -9.64075e-06 1.52739e-16)
(0.999929 -6.55099e-06 1.64288e-16)
(0.99995 -4.34638e-06 1.21595e-16)
(0.999963 -2.89401e-06 5.91666e-17)
(0.999973 -1.99437e-06 6.42266e-18)
(0.999979 -1.45124e-06 -2.44597e-17)
(0.999984 -1.11036e-06 -3.17312e-17)
(0.999988 -8.71526e-07 -2.3868e-17)
(0.999991 -6.82294e-07 -1.12867e-17)
(0.999994 -5.22676e-07 -1.75378e-19)
(0.999995 -3.89044e-07 4.58884e-18)
(0.999997 -2.82297e-07 5.13447e-18)
(0.999998 -2.01811e-07 3.39485e-18)
(0.999998 -1.44086e-07 1.075e-18)
(0.999999 -1.03895e-07 3.50921e-19)
(0.999999 -7.59718e-08 -5.96959e-19)
(0.999999 -5.61277e-08 -5.69058e-19)
(1 -4.15624e-08 -1.99991e-19)
(1 -3.06173e-08 -9.35307e-20)
(1 -2.23447e-08 7.20717e-19)
(1 -1.61463e-08 2.58088e-19)
(1 -1.15694e-08 1.06608e-19)
(1 -8.23057e-09 9.84136e-20)
(1 -5.80893e-09 -7.92782e-20)
(1 -4.05035e-09 6.24886e-19)
(1 -2.76816e-09 1.79126e-19)
(1 -1.82951e-09 9.18386e-20)
(1 -1.14268e-09 1.38502e-19)
(1 -6.41285e-10 -1.23699e-20)
(1 -2.7797e-10 6.85678e-19)
(1 -1.59618e-11 2.51001e-19)
(1 1.70793e-10 2.138e-20)
(1 3.03299e-10 6.16254e-19)
(1 3.95339e-10 7.04425e-19)
(1 4.58707e-10 8.11406e-19)
(1 5.00202e-10 2.31526e-19)
(1 5.26698e-10 -3.44922e-20)
(1 5.41263e-10 5.52643e-19)
(1 5.4822e-10 6.41363e-19)
(1 5.48605e-10 7.50785e-19)
(1 5.45403e-10 1.7256e-19)
(1 5.38506e-10 -9.36135e-20)
(1 5.30204e-10 4.91706e-19)
(1 5.19735e-10 5.77938e-19)
(1 5.09052e-10 6.85511e-19)
(1 4.97002e-10 1.0719e-19)
(1 4.85389e-10 -1.56817e-19)
(1 4.72821e-10 4.32709e-19)
(1 4.61052e-10 5.24373e-19)
(1 4.48528e-10 6.37533e-19)
(1 4.37005e-10 6.40062e-20)
(1 4.24816e-10 -1.96549e-19)
(1 4.13744e-10 3.95015e-19)
(1 4.02032e-10 4.87624e-19)
(1 3.91501e-10 6.0114e-19)
(1 3.80329e-10 2.78565e-20)
(1 3.70376e-10 -2.32244e-19)
(1 3.59758e-10 3.60122e-19)
(1 3.5038e-10 4.53884e-19)
(1 3.40303e-10 5.68853e-19)
(1 3.31486e-10 -2.74074e-21)
(1 3.2192e-10 -2.61023e-19)
(1 3.13675e-10 3.33034e-19)
(1 3.0456e-10 4.27859e-19)
(1 2.97011e-10 5.42512e-19)
(1 2.88051e-10 -3.17796e-20)
(1 2.81841e-10 -2.95386e-19)
(1 2.71561e-10 2.88382e-19)
(1 2.70374e-10 3.79139e-19)
(1 2.51345e-10 4.49279e-19)
(1 2.73599e-10 1.9429e-20)
(1 2.19309e-10 -9.68798e-19)
(1.00014 -0.000865736 1.4042e-20)
(1.00222 -0.00261317 3.42365e-19)
(1.00694 -0.0044688 7.13691e-19)
(1.01413 -0.0064706 1.0867e-18)
(1.02411 -0.00862914 1.49873e-18)
(1.0371 -0.0108849 1.90321e-18)
(1.05318 -0.0131193 2.29158e-18)
(1.07224 -0.0150931 2.12309e-18)
(1.09375 -0.016548 5.55167e-18)
(1.11684 -0.0171997 7.17081e-18)
(1.14015 -0.0168806 4.3702e-18)
(1.16239 -0.0157776 4.79467e-18)
(1.18264 -0.0140468 8.65196e-19)
(1.20017 -0.011838 1.26134e-17)
(1.21446 -0.00927882 4.24113e-17)
(1.2251 -0.00644757 7.56455e-17)
(1.23179 -0.00341003 9.13153e-17)
(1.23428 -0.000246136 7.81003e-17)
(1.23245 0.00292694 4.84413e-17)
(1.22639 0.00594838 1.03028e-17)
(1.2164 0.00863277 -2.97336e-17)
(1.20308 0.0108058 -6.71613e-17)
(1.18722 0.0123436 -9.93055e-17)
(1.16976 0.0132002 -1.25256e-16)
(1.15163 0.0134101 -1.44099e-16)
(1.13366 0.0130704 -1.56228e-16)
(1.11651 0.0123136 -1.62009e-16)
(1.10064 0.0112804 -1.61873e-16)
(1.08632 0.0100989 -1.56399e-16)
(1.07367 0.00887381 -1.46028e-16)
(1.06266 0.00768201 -1.2811e-16)
(1.05322 0.00657422 -1.12681e-16)
(1.04519 0.00557901 -9.30447e-17)
(1.03841 0.00470811 -6.83053e-17)
(1.0327 0.00396146 -4.19464e-17)
(1.0279 0.00333153 -9.62986e-18)
(1.02387 0.00280663 2.22638e-17)
(1.02047 0.00237337 5.47908e-17)
(1.01758 0.00201822 8.8563e-17)
(1.01512 0.00172845 1.20801e-16)
(1.013 0.00149267 1.52594e-16)
(1.01115 0.00130098 1.79498e-16)
(1.00954 0.00114501 2.03741e-16)
(1.00811 0.00101777 2.25565e-16)
(1.00683 0.000913551 2.44309e-16)
(1.00568 0.000827711 2.60031e-16)
(1.00462 0.000756547 2.68383e-16)
(1.00366 0.00069711 2.70306e-16)
(1.00276 0.00064705 2.64437e-16)
(1.00192 0.000604459 2.47989e-16)
(1.00114 0.00056773 2.22365e-16)
(1.0004 0.000535444 1.86538e-16)
(0.999703 0.000506297 1.41781e-16)
(0.999041 0.000479104 9.10039e-17)
(0.998413 0.000452881 3.65823e-17)
(0.997819 0.000426972 -1.49077e-17)
(0.997259 0.000401095 -5.96329e-17)
(0.996733 0.000375091 -9.27405e-17)
(0.996241 0.000348221 -1.11938e-16)
(0.995785 0.000318057 -1.22396e-16)
(0.995372 0.000279412 -1.34173e-16)
(0.995017 0.000224121 -1.66586e-16)
(0.994746 0.000142498 -2.34975e-16)
(0.994602 2.67884e-05 -3.43364e-16)
(0.994632 -0.000124141 -4.75908e-16)
(0.994879 -0.000300665 -6.06938e-16)
(0.99537 -0.000481118 -7.20752e-16)
(0.996091 -0.000634966 -8.16949e-16)
(0.996988 -0.000730356 -9.25334e-16)
(0.997964 -0.000743839 -1.07971e-15)
(0.998902 -0.000668691 -1.28832e-15)
(0.999688 -0.000518387 -1.51067e-15)
(1.00024 -0.000323539 -1.65051e-15)
(1.00051 -0.000123276 -1.61024e-15)
(1.00054 4.57533e-05 -1.34647e-15)
(1.00037 0.000158747 -9.21626e-16)
(1.0001 0.000207445 -5.00556e-16)
(0.999806 0.000199231 -2.76444e-16)
(0.999558 0.000151912 -3.90815e-16)
(0.999393 8.67518e-05 -8.48968e-16)
(0.999322 2.23844e-05 -1.50446e-15)
(0.999333 -2.87983e-05 -2.11613e-15)
(0.999401 -6.14485e-05 -2.44066e-15)
(0.9995 -7.59726e-05 -2.34458e-15)
(0.999608 -7.62728e-05 -1.8476e-15)
(0.999708 -6.75188e-05 -1.10794e-15)
(0.999791 -5.45339e-05 -3.51368e-16)
(0.999855 -4.09476e-05 2.30504e-16)
(0.9999 -2.89798e-05 5.34041e-16)
(0.999931 -1.96176e-05 5.68317e-16)
(0.999951 -1.29632e-05 4.21823e-16)
(0.999965 -8.60417e-06 2.07727e-16)
(0.999973 -5.92383e-06 2.41818e-17)
(0.99998 -4.31805e-06 -8.18699e-17)
(0.999984 -3.31472e-06 -1.08591e-16)
(0.999988 -2.60995e-06 -8.30834e-17)
(0.999991 -2.0472e-06 -4.04614e-17)
(0.999994 -1.56903e-06 -3.75817e-18)
(0.999995 -1.16709e-06 1.51007e-17)
(0.999997 -8.4573e-07 1.79651e-17)
(0.999998 -6.03748e-07 1.22709e-17)
(0.999998 -4.30652e-07 4.09536e-18)
(0.999999 -3.10487e-07 -5.14739e-19)
(0.999999 -2.27175e-07 -2.27675e-18)
(0.999999 -1.67997e-07 -1.94535e-18)
(1 -1.24513e-07 -6.76364e-19)
(1 -9.17815e-08 -4.13358e-19)
(1 -6.70085e-08 5.22088e-19)
(1 -4.8437e-08 6.51407e-19)
(1 -3.4726e-08 4.70047e-19)
(1 -2.47302e-08 4.37294e-19)
(1 -1.7484e-08 -3.37243e-19)
(1 -1.22235e-08 1.51355e-19)
(1 -8.38699e-09 2.86694e-19)
(1 -5.57759e-09 2.94021e-19)
(1 -3.52038e-09 4.34556e-19)
(1 -2.01827e-09 -2.54168e-19)
(1 -9.28757e-10 2.37211e-19)
(1 -1.43135e-10 3.6743e-19)
(1 4.18018e-10 2.25897e-19)
(1 8.16107e-10 8.93127e-19)
(1 1.09389e-09 4.1186e-19)
(1 1.2851e-09 3.13305e-19)
(1 1.41171e-09 3.11529e-19)
(1 1.49255e-09 1.47009e-19)
(1 1.53861e-09 8.16716e-19)
(1 1.56092e-09 3.43046e-19)
(1 1.56455e-09 2.51679e-19)
(1 1.55639e-09 2.54822e-19)
(1 1.53821e-09 9.25155e-20)
(1 1.5147e-09 7.62261e-19)
(1 1.48581e-09 2.87651e-19)
(1 1.45506e-09 1.95751e-19)
(1 1.4214e-09 1.99858e-19)
(1 1.38776e-09 4.04709e-20)
(1 1.3525e-09 7.14813e-19)
(1 1.31829e-09 2.4566e-19)
(1 1.2831e-09 1.59053e-19)
(1 1.24951e-09 1.67428e-19)
(1 1.21528e-09 1.08377e-20)
(1 1.18292e-09 6.86531e-19)
(1 1.15005e-09 2.17669e-19)
(1 1.11921e-09 1.30831e-19)
(1 1.08789e-09 1.38935e-19)
(1 1.05867e-09 -1.76562e-20)
(1 1.02895e-09 6.58419e-19)
(1 1.00135e-09 1.90306e-19)
(1 9.73193e-10 1.04526e-19)
(1 9.47194e-10 1.1394e-19)
(1 9.20515e-10 -4.11688e-20)
(1 8.96141e-10 6.36355e-19)
(1 8.7073e-10 1.69216e-19)
(1 8.48329e-10 8.3237e-20)
(1 8.23333e-10 9.03091e-20)
(1 8.04816e-10 -6.96486e-20)
(1 7.76133e-10 5.98459e-19)
(1 7.71956e-10 1.26639e-19)
(1 7.19015e-10 1.32352e-21)
(1 7.79471e-10 1.32337e-19)
(1 6.30587e-10 -6.73541e-19)
(1.00014 -0.00143397 1.1858e-22)
(1.00218 -0.0043303 4.36807e-21)
(1.00682 -0.00741266 4.48914e-21)
(1.01391 -0.0107502 1.23688e-20)
(1.02382 -0.0143655 -1.52493e-19)
(1.03679 -0.0181635 2.4565e-19)
(1.05298 -0.0219485 -8.35545e-19)
(1.07232 -0.0253098 -1.51044e-18)
(1.0943 -0.0278039 6.40783e-18)
(1.11801 -0.0289195 -1.36148e-18)
(1.14193 -0.0283603 -3.78954e-17)
(1.16466 -0.026481 -2.84477e-17)
(1.1853 -0.0235545 1.05548e-16)
(1.20313 -0.0198385 3.19472e-16)
(1.21763 -0.0155469 4.56201e-16)
(1.22845 -0.0108051 3.83129e-16)
(1.23525 -0.00571606 9.78997e-17)
(1.23779 -0.000409168 -2.52096e-16)
(1.23591 0.00492107 -5.59085e-16)
(1.22967 0.0100025 -7.84458e-16)
(1.21939 0.0145183 -9.21322e-16)
(1.20566 0.0181693 -9.78982e-16)
(1.18935 0.0207437 -9.73528e-16)
(1.17142 0.0221637 -9.21693e-16)
(1.15287 0.0224903 -8.37752e-16)
(1.13455 0.0218919 -7.32468e-16)
(1.11715 0.0205958 -6.13389e-16)
(1.10112 0.0188413 -4.85511e-16)
(1.08671 0.0168453 -3.52066e-16)
(1.07404 0.0147833 -2.15471e-16)
(1.06306 0.0127836 -7.70675e-17)
(1.05367 0.0109297 6.09943e-17)
(1.0457 0.00926779 1.97678e-16)
(1.03899 0.0078163 3.32726e-16)
(1.03336 0.00657395 4.65391e-16)
(1.02863 0.00552725 5.94714e-16)
(1.02465 0.00465611 7.17764e-16)
(1.02129 0.00393777 8.30496e-16)
(1.01845 0.00334938 9.28731e-16)
(1.01601 0.00286961 1.00901e-15)
(1.01392 0.00247942 1.07004e-15)
(1.0121 0.00216232 1.11198e-15)
(1.0105 0.00190435 1.13626e-15)
(1.00907 0.00169395 1.14397e-15)
(1.0078 0.00152161 1.1346e-15)
(1.00665 0.00137966 1.10576e-15)
(1.0056 0.00126199 1.05323e-15)
(1.00463 0.00116371 9.72662e-16)
(1.00373 0.00108096 8.60771e-16)
(1.00289 0.00101059 7.16053e-16)
(1.00209 0.000949957 5.41092e-16)
(1.00135 0.000896726 3.40365e-16)
(1.00064 0.000848741 1.21935e-16)
(0.999965 0.000804035 -1.00785e-16)
(0.999324 0.000760964 -3.14001e-16)
(0.998716 0.000718418 -5.0142e-16)
(0.99814 0.0006759 -6.49851e-16)
(0.997597 0.00063314 -7.52267e-16)
(0.997086 0.000588957 -8.14017e-16)
(0.99661 0.00053945 -8.64728e-16)
(0.996175 0.000476227 -9.56057e-16)
(0.995794 0.000385977 -1.15218e-15)
(0.995495 0.000252792 -1.49886e-15)
(0.995314 6.3759e-05 -1.99535e-15)
(0.995298 -0.000183322 -2.58951e-15)
(0.99549 -0.000473055 -3.20962e-15)
(0.995915 -0.000770162 -3.82771e-15)
(0.996562 -0.00102454 -4.49174e-15)
(0.99738 -0.0011836 -5.30709e-15)
(0.998278 -0.00120827 -6.34779e-15)
(0.999142 -0.00108691 -7.53857e-15)
(0.999862 -0.00084122 -8.60767e-15)
(1.00036 -0.000521384 -9.15197e-15)
(1.00059 -0.000191944 -8.82944e-15)
(1.00058 8.63671e-05 -7.58137e-15)
(1.00039 0.000272209 -5.75383e-15)
(1.0001 0.000351558 -4.02317e-15)
(0.999795 0.00033638 -3.12617e-15)
(0.999541 0.000256086 -3.52748e-15)
(0.999374 0.000146031 -5.16947e-15)
(0.999305 3.73555e-05 -7.43928e-15)
(0.999319 -4.90993e-05 -9.40853e-15)
(0.999393 -0.000104238 -1.022e-14)
(0.999498 -0.000128655 -9.44078e-15)
(0.999611 -0.000128903 -7.22131e-15)
(0.999714 -0.000113756 -4.19692e-15)
(0.999799 -9.14561e-05 -1.21009e-15)
(0.999863 -6.82338e-05 1.02737e-15)
(0.999907 -4.78979e-05 2.16313e-15)
(0.999937 -3.21201e-05 2.25427e-15)
(0.999955 -2.10325e-05 1.65458e-15)
(0.999967 -1.38772e-05 8.12224e-16)
(0.999975 -9.55526e-06 9.1287e-17)
(0.999981 -7.00928e-06 -3.2471e-16)
(0.999985 -5.4286e-06 -4.30804e-16)
(0.999989 -4.30502e-06 -3.32718e-16)
(0.999992 -3.38828e-06 -1.62926e-16)
(0.999994 -2.59632e-06 -1.93443e-17)
(0.999996 -1.92598e-06 5.64861e-17)
(0.999997 -1.39037e-06 6.96543e-17)
(0.999998 -9.89202e-07 4.7694e-17)
(0.999998 -7.0436e-07 1.82177e-17)
(0.999999 -5.07998e-07 -2.34687e-18)
(0.999999 -3.724e-07 -1.01618e-17)
(0.999999 -2.76036e-07 -8.98542e-18)
(1 -2.0496e-07 -4.41062e-18)
(1 -1.51223e-07 -5.24789e-19)
(1 -1.1044e-07 1.34912e-18)
(1 -7.9849e-08 1.53163e-18)
(1 -5.72896e-08 9.3997e-19)
(1 -4.08714e-08 3.59149e-19)
(1 -2.89849e-08 -8.09537e-21)
(1 -2.03589e-08 -6.53723e-20)
(1 -1.40642e-08 2.90543e-20)
(1 -9.45021e-09 1.30037e-19)
(1 -6.0676e-09 2.19571e-19)
(1 -3.59599e-09 1.89946e-19)
(1 -1.80151e-09 1.74055e-19)
(1 -5.06789e-10 1.80524e-19)
(1 4.19899e-10 1.63971e-19)
(1 1.07839e-09 2.26945e-19)
(1 1.54015e-09 2.51621e-19)
(1 1.85926e-09 2.52242e-19)
(1 2.07308e-09 2.52691e-19)
(1 2.21108e-09 2.21334e-19)
(1 2.2927e-09 2.67885e-19)
(1 2.33456e-09 2.77834e-19)
(1 2.34651e-09 2.66155e-19)
(1 2.33821e-09 2.56104e-19)
(1 2.31429e-09 2.15297e-19)
(1 2.28064e-09 2.5331e-19)
(1 2.239e-09 2.56152e-19)
(1 2.19328e-09 2.39581e-19)
(1 2.14364e-09 2.27387e-19)
(1 2.09297e-09 1.87151e-19)
(1 2.04053e-09 2.27789e-19)
(1 1.98866e-09 2.34244e-19)
(1 1.93615e-09 2.21149e-19)
(1 1.88507e-09 2.11443e-19)
(1 1.8339e-09 1.72326e-19)
(1 1.78459e-09 2.12817e-19)
(1 1.73546e-09 2.18293e-19)
(1 1.68839e-09 2.03928e-19)
(1 1.64159e-09 1.93116e-19)
(1 1.59693e-09 1.5331e-19)
(1 1.55255e-09 1.93587e-19)
(1 1.51034e-09 1.99264e-19)
(1 1.46833e-09 1.8543e-19)
(1 1.42853e-09 1.75429e-19)
(1 1.38875e-09 1.36673e-19)
(1 1.3514e-09 1.78106e-19)
(1 1.31352e-09 1.84693e-19)
(1 1.27916e-09 1.709e-19)
(1 1.24188e-09 1.59183e-19)
(1 1.21343e-09 1.16332e-19)
(1 1.17071e-09 1.50181e-19)
(1 1.16342e-09 1.49072e-19)
(1 1.08586e-09 1.1739e-19)
(1 1.16982e-09 1.20889e-19)
(1 9.57154e-10 6.17394e-22)
(1.00014 -0.00198869 -3.2967e-20)
(1.00211 -0.00600814 -4.95945e-19)
(1.00662 -0.0103011 -8.29922e-19)
(1.01356 -0.0149748 -1.61659e-18)
(1.02334 -0.0200724 -1.75405e-18)
(1.03628 -0.0254703 -1.70145e-18)
(1.05262 -0.0308998 -1.13397e-17)
(1.07238 -0.0357604 1.8277e-17)
(1.09507 -0.0394041 2.83207e-18)
(1.11974 -0.0410284 -1.41998e-16)
(1.14461 -0.0401828 -2.09518e-17)
(1.16808 -0.0374609 6.73703e-16)
(1.1893 -0.0332737 1.28319e-15)
(1.20756 -0.0279981 7.13307e-16)
(1.22239 -0.0219375 -1.46502e-15)
(1.23346 -0.0152538 -4.52019e-15)
(1.24044 -0.00807558 -7.11206e-15)
(1.24305 -0.000569412 -7.96059e-15)
(1.2411 0.00699422 -7.74123e-15)
(1.23461 0.0142224 -6.90191e-15)
(1.22387 0.0206502 -5.73906e-15)
(1.20953 0.0258363 -4.46727e-15)
(1.1925 0.0294694 -3.22728e-15)
(1.17386 0.031439 -2.09285e-15)
(1.15467 0.0318404 -1.08823e-15)
(1.13583 0.0309252 -2.09985e-16)
(1.11804 0.0290271 5.5732e-16)
(1.10177 0.0264934 1.2307e-15)
(1.08725 0.0236348 1.82494e-15)
(1.07455 0.0206998 2.35177e-15)
(1.06361 0.0178673 2.8239e-15)
(1.05429 0.0152521 3.23988e-15)
(1.04643 0.0129161 3.61277e-15)
(1.03983 0.010882 3.94689e-15)
(1.0343 0.00914545 4.23639e-15)
(1.02967 0.00768565 4.47853e-15)
(1.02578 0.00647298 4.65653e-15)
(1.02249 0.00547457 4.7618e-15)
(1.01971 0.00465785 4.7881e-15)
(1.01732 0.00399261 4.73284e-15)
(1.01527 0.00345203 4.60341e-15)
(1.01347 0.003013 4.4062e-15)
(1.01189 0.00265603 4.15384e-15)
(1.01048 0.00236498 3.852e-15)
(1.00922 0.00212664 3.49888e-15)
(1.00807 0.00193037 3.08756e-15)
(1.00702 0.00176767 2.60463e-15)
(1.00605 0.00163183 2.0446e-15)
(1.00514 0.00151749 1.40569e-15)
(1.00429 0.00142034 6.9381e-16)
(1.00349 0.00133675 -7.10261e-17)
(1.00274 0.00126349 -8.61618e-16)
(1.00201 0.00119759 -1.64048e-15)
(1.00132 0.00113631 -2.36351e-15)
(1.00066 0.00107734 -2.98754e-15)
(1.00003 0.00101911 -3.47284e-15)
(0.999435 0.000960862 -3.80162e-15)
(0.998866 0.000902203 -3.99089e-15)
(0.998329 0.000841549 -4.11433e-15)
(0.997824 0.000773675 -4.31694e-15)
(0.997357 0.000687261 -4.79535e-15)
(0.996941 0.000564232 -5.7492e-15)
(0.996599 0.000382818 -7.29175e-15)
(0.996367 0.000125114 -9.3877e-15)
(0.996288 -0.000212343 -1.18705e-14)
(0.996402 -0.000609004 -1.4586e-14)
(0.996733 -0.00101693 -1.75568e-14)
(0.997273 -0.00136751 -2.10111e-14)
(0.997976 -0.00158826 -2.52235e-14)
(0.998755 -0.00162493 -3.01638e-14)
(0.999506 -0.00146083 -3.51975e-14)
(1.00012 -0.00112527 -3.90916e-14)
(1.00053 -0.000687119 -4.04309e-14)
(1.00069 -0.000235412 -3.83368e-14)
(1.00063 0.000145767 -3.30931e-14)
(1.0004 0.000398944 -2.63403e-14)
(1.00009 0.000504421 -2.06021e-14)
(0.999765 0.000478617 -1.82933e-14)
(0.999504 0.000362364 -2.06329e-14)
(0.999337 0.000204985 -2.69312e-14)
(0.999272 5.01344e-05 -3.46883e-14)
(0.999295 -7.28044e-05 -4.05516e-14)
(0.999379 -0.000150906 -4.1703e-14)
(0.999494 -0.000184966 -3.69942e-14)
(0.999615 -0.000184344 -2.73392e-14)
(0.999725 -0.000161683 -1.52613e-14)
(0.999812 -0.000128938 -3.83955e-15)
(0.999876 -9.51778e-05 4.45374e-15)
(0.999919 -6.59254e-05 8.49755e-15)
(0.999945 -4.35412e-05 8.64608e-15)
(0.999961 -2.81009e-05 6.27384e-15)
(0.999971 -1.83772e-05 3.05435e-15)
(0.999977 -1.26748e-05 3.28127e-16)
(0.999982 -9.40767e-06 -1.24048e-15)
(0.999986 -7.39581e-06 -1.64185e-15)
(0.999989 -5.93056e-06 -1.27302e-15)
(0.999992 -4.68926e-06 -6.3066e-16)
(0.999994 -3.58899e-06 -8.22381e-17)
(0.999996 -2.64913e-06 2.11265e-16)
(0.999997 -1.90017e-06 2.66178e-16)
(0.999998 -1.34456e-06 1.85033e-16)
(0.999999 -9.5496e-07 7.2092e-17)
(0.999999 -6.89403e-07 -7.36202e-18)
(0.999999 -5.07083e-07 -3.87592e-17)
(0.999999 -3.77286e-07 -3.52314e-17)
(1 -2.80878e-07 -1.7899e-17)
(1 -2.07456e-07 -3.28254e-18)
(1 -1.51501e-07 4.72347e-18)
(1 -1.09516e-07 5.66714e-18)
(1 -7.86227e-08 3.40837e-18)
(1 -5.62064e-08 1.14823e-18)
(1 -4.00117e-08 -8.43161e-19)
(1 -2.82649e-08 -6.20514e-19)
(1 -1.9684e-08 -2.50605e-19)
(1 -1.33838e-08 8.04704e-20)
(1 -8.75799e-09 4.2369e-19)
(1 -5.37458e-09 -2.17459e-19)
(1 -2.91611e-09 2.07509e-19)
(1 -1.14072e-09 2.69502e-19)
(1 1.32236e-10 1.26578e-19)
(1 1.03925e-09 8.07335e-19)
(1 1.67826e-09 3.14685e-19)
(1 2.12271e-09 1.87912e-19)
(1 2.42379e-09 1.71415e-19)
(1 2.62128e-09 3.86402e-20)
(1 2.74202e-09 7.33567e-19)
(1 2.80828e-09 2.49266e-19)
(1 2.83387e-09 1.28198e-19)
(1 2.83157e-09 1.16581e-19)
(1 2.80805e-09 -1.22548e-20)
(1 2.77096e-09 6.85461e-19)
(1 2.72303e-09 2.03347e-19)
(1 2.6692e-09 8.48815e-20)
(1 2.61008e-09 7.70908e-20)
(1 2.54917e-09 -4.65214e-20)
(1 2.4859e-09 6.57296e-19)
(1 2.42303e-09 1.81238e-19)
(1 2.35932e-09 6.78373e-20)
(1 2.29714e-09 6.34898e-20)
(1 2.2349e-09 -5.84544e-20)
(1 2.17478e-09 6.45542e-19)
(1 2.11493e-09 1.68737e-19)
(1 2.05749e-09 5.42697e-20)
(1 2.00047e-09 4.89995e-20)
(1 1.94596e-09 -7.3481e-20)
(1 1.89187e-09 6.30398e-19)
(1 1.84034e-09 1.53816e-19)
(1 1.78915e-09 3.98291e-20)
(1 1.74056e-09 3.5268e-20)
(1 1.6921e-09 -8.62592e-20)
(1 1.64652e-09 6.18768e-19)
(1 1.60036e-09 1.43285e-19)
(1 1.55846e-09 2.98366e-20)
(1 1.51302e-09 2.4393e-20)
(1 1.47832e-09 -9.98879e-20)
(1 1.42646e-09 5.9827e-19)
(1 1.4164e-09 1.20202e-19)
(1 1.32511e-09 -2.96767e-20)
(1 1.41563e-09 8.40043e-20)
(1 1.17434e-09 -6.6539e-19)
(1.00013 -0.0025231 -2.24225e-18)
(1.00202 -0.00762733 -7.4281e-18)
(1.00634 -0.0131052 -6.11983e-18)
(1.01306 -0.0191129 -9.18595e-18)
(1.02264 -0.0257262 7.95942e-19)
(1.03549 -0.0328053 -3.00834e-17)
(1.05202 -0.0400153 2.22791e-17)
(1.07232 -0.0465419 8.25047e-17)
(1.09599 -0.051505 -4.4698e-16)
(1.12202 -0.0537042 5.29757e-17)
(1.1482 -0.0524948 2.46469e-15)
(1.17267 -0.0488297 2.45242e-15)
(1.19465 -0.0432865 -5.18976e-15)
(1.21348 -0.0363768 -1.97046e-14)
(1.22873 -0.0284948 -3.42167e-14)
(1.24013 -0.0198256 -4.11451e-14)
(1.24736 -0.0105073 -3.72931e-14)
(1.25009 -0.000735232 -2.50779e-14)
(1.24806 0.00914795 -1.14525e-14)
(1.24122 0.0186218 5.51726e-16)
(1.22986 0.0270563 9.84817e-15)
(1.21468 0.0338474 1.63461e-14)
(1.19668 0.0385687 2.04493e-14)
(1.17706 0.0410734 2.27518e-14)
(1.15698 0.0414994 2.38413e-14)
(1.13743 0.0401959 2.41832e-14)
(1.11914 0.0376185 2.412e-14)
(1.10255 0.034234 2.38419e-14)
(1.08788 0.030454 2.34483e-14)
(1.07515 0.0266024 2.29844e-14)
(1.06428 0.0229085 2.24694e-14)
(1.05508 0.0195159 2.19207e-14)
(1.04737 0.0164992 2.13439e-14)
(1.04092 0.0138827 2.07192e-14)
(1.03553 0.0116564 2.00109e-14)
(1.03103 0.00979023 1.91667e-14)
(1.02725 0.00824375 1.81387e-14)
(1.02407 0.00697307 1.69007e-14)
(1.02136 0.00593532 1.54549e-14)
(1.01904 0.00509117 1.38353e-14)
(1.01703 0.0044059 1.20894e-14)
(1.01527 0.0038498 1.0263e-14)
(1.01372 0.00339791 8.3829e-15)
(1.01233 0.00302961 6.45013e-15)
(1.01108 0.00272809 4.44708e-15)
(1.00994 0.00247981 2.34636e-15)
(1.00889 0.00227403 1.29412e-16)
(1.00791 0.00210225 -2.20305e-15)
(1.007 0.00195776 -4.62282e-15)
(1.00614 0.00183514 -7.07004e-15)
(1.00533 0.00172983 -9.45802e-15)
(1.00455 0.00163777 -1.16813e-14)
(1.00381 0.00155518 -1.36185e-14)
(1.0031 0.00147859 -1.51486e-14)
(1.00242 0.00140503 -1.61799e-14)
(1.00176 0.00133241 -1.66739e-14)
(1.00113 0.0012597 -1.66983e-14)
(1.00053 0.00118635 -1.64698e-14)
(0.999959 0.00111039 -1.63932e-14)
(0.999416 0.00102547 -1.70549e-14)
(0.998908 0.000917689 -1.91104e-14)
(0.998446 0.000764721 -2.30942e-14)
(0.998051 0.000539447 -2.91982e-14)
(0.997753 0.000219269 -3.72008e-14)
(0.997593 -0.000200703 -4.66617e-14)
(0.997606 -0.000695507 -5.7355e-14)
(0.997816 -0.0012058 -6.96238e-14)
(0.998216 -0.00164591 -8.41919e-14)
(0.998766 -0.00192478 -1.01367e-13)
(0.999388 -0.00197373 -1.19989e-13)
(0.999986 -0.00177105 -1.36909e-13)
(1.00046 -0.00135297 -1.47687e-13)
(1.00075 -0.000805866 -1.48427e-13)
(1.00082 -0.000241935 -1.37951e-13)
(1.00068 0.000232503 -1.19142e-13)
(1.0004 0.000544563 -9.86143e-14)
(1.00005 0.000669141 -8.46548e-14)
(0.999709 0.000627037 -8.39588e-14)
(0.999441 0.000470294 -9.84483e-14)
(0.999276 0.000262044 -1.23675e-13)
(0.99922 5.84375e-05 -1.49902e-13)
(0.999257 -0.000102515 -1.65767e-13)
(0.999357 -0.000203986 -1.629e-13)
(0.999488 -0.000247045 -1.39169e-13)
(0.999622 -0.00024412 -9.93523e-14)
(0.999739 -0.000212132 -5.30971e-14)
(0.999831 -0.000167188 -1.11845e-14)
(0.999894 -0.000121534 1.82413e-14)
(0.999934 -8.25729e-05 3.1944e-14)
(0.999957 -5.33371e-05 3.17228e-14)
(0.999969 -3.37004e-05 2.27248e-14)
(0.999975 -2.1771e-05 1.09487e-14)
(0.99998 -1.50854e-05 1.09081e-15)
(0.999983 -1.14189e-05 -4.55234e-15)
(0.999987 -9.18222e-06 -5.98941e-15)
(0.99999 -7.47734e-06 -4.65405e-15)
(0.999993 -5.94463e-06 -2.32329e-15)
(0.999995 -4.53717e-06 -3.25534e-16)
(0.999997 -3.32244e-06 7.56245e-16)
(0.999998 -2.36009e-06 9.71286e-16)
(0.999998 -1.65683e-06 6.83324e-16)
(0.999999 -1.1729e-06 2.73808e-16)
(0.999999 -8.48451e-07 -2.19621e-17)
(0.999999 -6.27393e-07 -1.41643e-16)
(0.999999 -4.69357e-07 -1.30915e-16)
(1 -3.50619e-07 -6.84115e-17)
(1 -2.59204e-07 -1.2275e-17)
(1 -1.89151e-07 1.62878e-17)
(1 -1.36598e-07 1.99844e-17)
(1 -9.80765e-08 1.24726e-17)
(1 -7.0255e-08 3.74039e-18)
(1 -5.02174e-08 -1.84894e-18)
(1 -3.56902e-08 -2.91429e-18)
(1 -2.50605e-08 -1.99546e-18)
(1 -1.72376e-08 -1.78086e-19)
(1 -1.14823e-08 7.59997e-19)
(1 -7.2684e-09 2.96714e-19)
(1 -4.20472e-09 9.89705e-20)
(1 -1.99096e-09 -1.50229e-19)
(1 -4.01121e-10 3.03928e-19)
(1 7.34723e-10 5.43749e-19)
(1 1.53878e-09 1.72962e-20)
(1 2.10163e-09 -2.17324e-20)
(1 2.48701e-09 -1.17631e-19)
(1 2.74371e-09 4.02305e-19)
(1 2.90541e-09 6.35411e-19)
(1 2.99925e-09 7.3607e-20)
(1 3.04281e-09 1.59528e-21)
(1 3.05146e-09 -1.15058e-19)
(1 3.03393e-09 3.93799e-19)
(1 2.99917e-09 6.20491e-19)
(1 2.95109e-09 5.42066e-20)
(1 2.89525e-09 -2.06683e-20)
(1 2.83294e-09 -1.38041e-19)
(1 2.76792e-09 3.72354e-19)
(1 2.70006e-09 6.02196e-19)
(1 2.63217e-09 3.95789e-20)
(1 2.56332e-09 -3.21893e-20)
(1 2.49584e-09 -1.47704e-19)
(1 2.42835e-09 3.63133e-19)
(1 2.36294e-09 5.92279e-19)
(1 2.29797e-09 2.83485e-20)
(1 2.23541e-09 -4.48094e-20)
(1 2.17347e-09 -1.614e-19)
(1 2.11407e-09 3.48841e-19)
(1 2.05532e-09 5.77847e-19)
(1 1.99917e-09 1.41193e-20)
(1 1.94358e-09 -5.85965e-20)
(1 1.89064e-09 -1.74528e-19)
(1 1.83802e-09 3.36633e-19)
(1 1.78838e-09 5.66832e-19)
(1 1.73826e-09 4.4161e-21)
(1 1.69267e-09 -6.72781e-20)
(1 1.64332e-09 -1.83263e-19)
(1 1.6055e-09 3.26388e-19)
(1 1.54954e-09 5.51096e-19)
(1 1.53682e-09 -1.1813e-20)
(1 1.44219e-09 -1.19966e-19)
(1 1.52489e-09 -1.13621e-19)
(1 1.28639e-09 -2.13671e-19)
(1.00012 -0.00302954 1.77633e-18)
(1.00189 -0.00916537 7.70665e-18)
(1.00597 -0.0157908 5.6295e-18)
(1.01237 -0.0231246 1.01433e-17)
(1.02166 -0.0312925 2.28347e-17)
(1.03435 -0.0401574 -9.8008e-17)
(1.05105 -0.0493309 4.7054e-16)
(1.07201 -0.0577558 -1.005e-15)
(1.09696 -0.0642853 -4.31294e-16)
(1.12481 -0.0671493 7.00998e-15)
(1.15271 -0.065453 2.11081e-15)
(1.17844 -0.0606982 -3.17185e-14)
(1.20136 -0.0536678 -7.4428e-14)
(1.22086 -0.0450297 -8.42111e-14)
(1.23663 -0.0352702 -3.56219e-14)
(1.24845 -0.0245705 6.06352e-14)
(1.256 -0.0130505 1.68129e-13)
(1.25889 -0.000905759 2.39204e-13)
(1.25676 0.0114499 2.78205e-13)
(1.2495 0.0233439 2.91508e-13)
(1.23736 0.0339433 2.85683e-13)
(1.22109 0.0424448 2.67493e-13)
(1.20183 0.0482872 2.42894e-13)
(1.18094 0.051289 2.16303e-13)
(1.15974 0.051649 1.90531e-13)
(1.1393 0.0498398 1.67051e-13)
(1.12037 0.0464621 1.46438e-13)
(1.10341 0.0421185 1.28667e-13)
(1.08857 0.0373301 1.13392e-13)
(1.07583 0.0324986 1.00159e-13)
(1.06505 0.0279018 8.854e-14)
(1.05601 0.0237081 7.81952e-14)
(1.04848 0.0200006 6.8842e-14)
(1.04223 0.0168007 6.02039e-14)
(1.03703 0.0140896 5.19775e-14)
(1.03269 0.0118253 4.38783e-14)
(1.02906 0.00995465 3.5706e-14)
(1.02599 0.00842151 2.74e-14)
(1.02339 0.00717203 1.9043e-14)
(1.02114 0.00615734 1.08011e-14)
(1.0192 0.00533474 2.8444e-15)
(1.01749 0.00466787 -4.73268e-15)
(1.01597 0.00412639 -1.19432e-14)
(1.0146 0.00368529 -1.8888e-14)
(1.01336 0.00332429 -2.56992e-14)
(1.01223 0.00302708 -3.24654e-14)
(1.01118 0.00278077 -3.91867e-14)
(1.0102 0.00257522 -4.57569e-14)
(1.00928 0.00240245 -5.19773e-14)
(1.00841 0.00225605 -5.75841e-14)
(1.00758 0.00213062 -6.22685e-14)
(1.00679 0.00202131 -6.57037e-14)
(1.00603 0.00192363 -6.75863e-14)
(1.00529 0.00183334 -6.76961e-14)
(1.00458 0.00174682 -6.59796e-14)
(1.00389 0.00166147 -6.26657e-14)
(1.00322 0.00157592 -5.83924e-14)
(1.00258 0.00148941 -5.43189e-14)
(1.00197 0.00139967 -5.21374e-14)
(1.00138 0.00129935 -5.38707e-14)
(1.00082 0.00117243 -6.14087e-14)
(1.0003 0.000992935 -7.58841e-14)
(0.99984 0.000729069 -9.72466e-14)
(0.999463 0.000353983 -1.24461e-13)
(0.999204 -0.000138722 -1.56452e-13)
(0.999096 -0.000720486 -1.93238e-13)
(0.999157 -0.00132205 -2.36238e-13)
(0.999386 -0.0018426 -2.8688e-13)
(0.999746 -0.00217424 -3.43772e-13)
(1.00017 -0.00223504 -4.00228e-13)
(1.00058 -0.00199847 -4.44524e-13)
(1.00088 -0.00150696 -4.6392e-13)
(1.00101 -0.00086291 -4.51004e-13)
(1.00095 -0.00019998 -4.09036e-13)
(1.00072 0.000354848 -3.53132e-13)
(1.00037 0.00071434 -3.06442e-13)
(0.999984 0.000848439 -2.92685e-13)
(0.999623 0.000782311 -3.26496e-13)
(0.999348 0.000578967 -4.05274e-13)
(0.999189 0.000315153 -5.06873e-13)
(0.999148 5.94825e-05 -5.95624e-13)
(0.999206 -0.000141303 -6.3533e-13)
(0.999328 -0.00026641 -6.03559e-13)
(0.999481 -0.000317312 -5.00017e-13)
(0.999631 -0.000309901 -3.46345e-13)
(0.999759 -0.000265961 -1.77807e-13)
(0.999855 -0.000206354 -3.06572e-14)
(0.999918 -0.000146958 6.9503e-14)
(0.999954 -9.72558e-05 1.14091e-13)
(0.999971 -6.08999e-05 1.11021e-13)
(0.999978 -3.73387e-05 7.86558e-14)
(0.999981 -2.37357e-05 3.75523e-14)
(0.999982 -1.66197e-05 3.50015e-15)
(0.999985 -1.29838e-05 -1.59052e-14)
(0.999988 -1.0784e-05 -2.08293e-14)
(0.999991 -8.95677e-06 -1.62124e-14)
(0.999994 -7.16006e-06 -8.1446e-15)
(0.999996 -5.43543e-06 -1.19883e-15)
(0.999997 -3.93283e-06 2.59544e-15)
(0.999998 -2.75507e-06 3.38062e-15)