/*--------------------------------*- C++ -*----------------------------------*\
  =========                 |
  \\      /  F ield         | OpenFOAM: The Open Source CFD Toolbox
   \\    /   O peration     | Website:  https://openfoam.org
    \\  /    A nd           | Version:  11
     \\/     M anipulation  |
\*---------------------------------------------------------------------------*/
FoamFile
{
    format      ascii;
    class       volScalarField;
    location    "7.889296";
    object      p;
}
// * * * * * * * * * * * * * * * * * * * * * * * * * * * * * * * * * * * * * //

dimensions      [0 2 -2 0 0 0 0];

internalField   nonuniform List<scalar> 
7132
(
0.0525138
0.0510886
0.0462777
0.0392373
0.0293748
0.0163745
0.000121722
-0.0194306
-0.0418405
-0.0662525
-0.0913988
-0.115556
-0.137824
-0.157415
-0.173854
-0.186995
-0.196784
-0.203198
-0.206143
-0.205433
-0.200877
-0.192457
-0.180521
-0.165874
-0.149708
-0.133398
-0.118303
-0.105585
-0.0960409
-0.0899263
-0.0867757
-0.085364
-0.084003
-0.0811938
-0.0762152
-0.0692477
-0.0610415
-0.0524809
-0.0442965
-0.0369649
-0.0307396
-0.0257357
-0.0219939
-0.0195097
-0.0182106
-0.0179086
-0.0182827
-0.018925
-0.0194468
-0.0195807
-0.0192255
-0.0184227
-0.0172949
-0.015986
-0.0146218
-0.0132948
-0.0120641
-0.0109631
-0.0100073
-0.00920153
-0.00854284
-0.00802238
-0.00762519
-0.00733012
-0.00711091
-0.00693869
-0.00678571
-0.00662891
-0.0064524
-0.00624835
-0.00601601
-0.00575987
-0.00548738
-0.00520704
-0.00492698
-0.00465413
-0.00439382
-0.0041497
-0.00392385
-0.00371696
-0.00352852
-0.00335714
-0.00320079
-0.00305707
-0.00292351
-0.00279777
-0.00267782
-0.00256206
-0.00244937
-0.00233909
-0.00223095
-0.00212497
-0.00202138
-0.00192051
-0.00182272
-0.00172834
-0.00163763
-0.00155076
-0.00146778
-0.00138868
-0.00131336
-0.00124166
-0.00117336
-0.00110826
-0.00104612
-0.000986724
-0.000929885
-0.00087543
-0.000823216
-0.00077313
-0.00072508
-0.000678998
-0.000634829
-0.000592534
-0.000552079
-0.000513437
-0.000476584
-0.000441498
-0.000408155
-0.000376534
-0.00034661
-0.00031836
-0.000291761
-0.000266786
-0.000243412
-0.000221611
-0.000201354
-0.000182603
-0.000165309
-0.0001494
-0.000134775
-0.000121291
-0.000108766
-9.69846e-05
-8.57221e-05
-7.47892e-05
-6.40845e-05
-5.36411e-05
-4.36445e-05
-3.44004e-05
-2.62517e-05
-1.94695e-05
-1.41603e-05
-1.02394e-05
-7.46842e-06
-5.56035e-06
-4.25212e-06
-3.38786e-06
-2.85126e-06
-2.61996e-06
-2.59711e-06
-2.7497e-06
-3.08065e-06
-3.22311e-06
-4.34588e-06
-3.25372e-06
-8.21378e-06
6.13089e-07
-2.24301e-05
2.60752e-05
0.0530824
0.051669
0.0468997
0.0399032
0.0300767
0.0170772
0.000766052
-0.0189407
-0.0415986
-0.066344
-0.0918327
-0.11622
-0.13864
-0.158304
-0.174757
-0.187885
-0.197661
-0.204083
-0.20706
-0.206386
-0.201834
-0.193339
-0.181222
-0.166294
-0.149786
-0.133128
-0.11774
-0.104837
-0.0952567
-0.0892747
-0.0864059
-0.0853551
-0.0843234
-0.0817164
-0.0767797
-0.0697257
-0.0613622
-0.0526251
-0.0442787
-0.0368165
-0.0304988
-0.0254424
-0.0216872
-0.0192266
-0.0179842
-0.0177635
-0.0182285
-0.0189536
-0.0195353
-0.0196997
-0.019348
-0.0185296
-0.0173761
-0.0160385
-0.0146475
-0.013298
-0.0120502
-0.0109374
-0.00997479
-0.00916639
-0.00850862
-0.0079918
-0.00760021
-0.00731189
-0.00709974
-0.0069341
-0.00678656
-0.00663365
-0.00645933
-0.00625588
-0.00602288
-0.0057652
-0.00549073
-0.0052083
-0.00492631
-0.00465187
-0.00439038
-0.00414552
-0.00391935
-0.00371247
-0.00352433
-0.00335344
-0.00319768
-0.00305459
-0.00292162
-0.00279639
-0.00267686
-0.0025614
-0.0024489
-0.00233871
-0.00223058
-0.00212455
-0.00202087
-0.00191991
-0.00182203
-0.00172757
-0.0016368
-0.0015499
-0.00146691
-0.00138783
-0.00131255
-0.00124089
-0.00117265
-0.0011076
-0.00104551
-0.00098617
-0.000929375
-0.000874956
-0.000822772
-0.000772708
-0.000724675
-0.000678605
-0.000634444
-0.000592155
-0.000551703
-0.000513064
-0.000476214
-0.00044113
-0.000407789
-0.00037617
-0.000346248
-0.000317999
-0.000291401
-0.000266427
-0.000243053
-0.000221253
-0.000200998
-0.000182251
-0.000164964
-0.000149067
-0.000134458
-0.000120997
-0.0001085
-9.67498e-05
-8.5519e-05
-7.46147e-05
-6.39324e-05
-5.35034e-05
-4.35137e-05
-3.42721e-05
-2.61257e-05
-1.93502e-05
-1.40549e-05
-1.01544e-05
-7.4067e-06
-5.5196e-06
-4.22519e-06
-3.36526e-06
-2.82378e-06
-2.58221e-06
-2.54579e-06
-2.69056e-06
-3.00836e-06
-3.16496e-06
-4.25924e-06
-3.24873e-06
-8.09066e-06
4.2901e-07
-2.21973e-05
2.54389e-05
0.0542143
0.052826
0.0481419
0.0412379
0.0314887
0.0184973
0.00207459
-0.0179415
-0.0411022
-0.0665331
-0.0927242
-0.117571
-0.140295
-0.160101
-0.176573
-0.189667
-0.199413
-0.205851
-0.208899
-0.208312
-0.20378
-0.195143
-0.182663
-0.167165
-0.149958
-0.132588
-0.116597
-0.103312
-0.0936535
-0.087941
-0.0856527
-0.0853488
-0.0849988
-0.082807
-0.0779512
-0.0707132
-0.0620231
-0.0529234
-0.0442464
-0.0365192
-0.030014
-0.0248506
-0.0210668
-0.0186532
-0.0175259
-0.0174708
-0.0181219
-0.0190163
-0.0197199
-0.0199456
-0.0195997
-0.0187483
-0.0175416
-0.0161454
-0.0146998
-0.0133047
-0.0120223
-0.0108858
-0.00990937
-0.00909573
-0.00843973
-0.00793017
-0.0075498
-0.00727507
-0.0070772
-0.00692492
-0.00678845
-0.00664345
-0.00647356
-0.00627131
-0.00603695
-0.00577616
-0.00549765
-0.00521098
-0.00492507
-0.00464738
-0.00438349
-0.00413712
-0.00391028
-0.00370344
-0.00351589
-0.00334597
-0.0031914
-0.00304957
-0.0029178
-0.00279363
-0.00267494
-0.0025601
-0.00244799
-0.00233798
-0.00222987
-0.00212374
-0.0020199
-0.00191873
-0.00182066
-0.00172604
-0.00163516
-0.00154819
-0.00146519
-0.00138614
-0.00131092
-0.00123936
-0.00117122
-0.00110629
-0.00104431
-0.000985071
-0.000928364
-0.00087402
-0.000821896
-0.000771879
-0.000723881
-0.000677836
-0.000633694
-0.000591416
-0.000550974
-0.000512342
-0.000475497
-0.000440418
-0.000407083
-0.000375469
-0.000345553
-0.00031731
-0.000290716
-0.000265747
-0.000242377
-0.000220582
-0.000200335
-0.0001816
-0.000164333
-0.000148467
-0.000133905
-0.000120506
-0.000108087
-9.64252e-05
-8.52856e-05
-7.4465e-05
-6.38475e-05
-5.34566e-05
-4.34752e-05
-3.4216e-05
-2.60362e-05
-1.92246e-05
-1.39026e-05
-9.99188e-06
-7.25098e-06
-5.38255e-06
-4.11123e-06
-3.27197e-06
-2.74423e-06
-2.50961e-06
-2.47061e-06
-2.61529e-06
-2.91241e-06
-3.08969e-06
-4.11699e-06
-3.2447e-06
-7.84571e-06
9.44589e-08
-2.1694e-05
2.411e-05
0.0559
0.0545515
0.0500019
0.0432473
0.033628
0.0206644
0.00408709
-0.0163941
-0.0403274
-0.0668367
-0.0941274
-0.119665
-0.142839
-0.162845
-0.179328
-0.192358
-0.202047
-0.208506
-0.211668
-0.211228
-0.206747
-0.197909
-0.184881
-0.168506
-0.150219
-0.131745
-0.114816
-0.100934
-0.0911538
-0.0858666
-0.0845004
-0.0853876
-0.0861211
-0.0845763
-0.0798278
-0.0722793
-0.0630635
-0.0533927
-0.0442027
-0.0360683
-0.0292765
-0.0239497
-0.0201221
-0.0177803
-0.0168312
-0.0170344
-0.0179761
-0.019134
-0.0200245
-0.0203406
-0.0199978
-0.0190899
-0.0177971
-0.0163083
-0.0147778
-0.0133127
-0.0119775
-0.0108051
-0.00980803
-0.00898684
-0.00833405
-0.00783611
-0.0074734
-0.0072199
-0.00704422
-0.00691256
-0.00679303
-0.00665996
-0.00649656
-0.00629581
-0.00605898
-0.0057931
-0.00550817
-0.00521485
-0.00492287
-0.00464019
-0.00437266
-0.00412406
-0.00389626
-0.00368957
-0.00350301
-0.00333466
-0.00318196
-0.00304209
-0.00291218
-0.00278961
-0.0026722
-0.00255828
-0.00244673
-0.00233697
-0.00222886
-0.00212255
-0.00201843
-0.00191695
-0.00181857
-0.0017237
-0.00163264
-0.00154557
-0.00146256
-0.00138356
-0.00130845
-0.00123704
-0.00116907
-0.00110431
-0.00104251
-0.000983423
-0.000926852
-0.00087262
-0.000820585
-0.000770635
-0.000722687
-0.000676677
-0.000632559
-0.000590298
-0.000549867
-0.000511243
-0.000474406
-0.000439334
-0.000406006
-0.0003744
-0.00034449
-0.000316254
-0.000289666
-0.000264701
-0.000241335
-0.000219545
-0.000199304
-0.000180582
-0.000163338
-0.00014751
-0.000133005
-0.000119684
-0.000107363
-9.58138e-05
-8.47911e-05
-7.40777e-05
-6.35434e-05
-5.32008e-05
-4.32297e-05
-3.39487e-05
-2.5729e-05
-1.88777e-05
-1.35326e-05
-9.62479e-06
-6.91314e-06
-5.09246e-06
-3.87614e-06
-3.08813e-06
-2.60057e-06
-2.39345e-06
-2.36436e-06
-2.51697e-06
-2.78793e-06
-2.9932e-06
-3.91911e-06
-3.24166e-06
-7.47749e-06
-3.97021e-07
-2.08866e-05
2.20368e-05
0.0581236
0.056832
0.0524745
0.0459387
0.0365193
0.0236239
0.00686684
-0.0142345
-0.039232
-0.0672796
-0.0961266
-0.122583
-0.146346
-0.166591
-0.183048
-0.195957
-0.205549
-0.212041
-0.215387
-0.2152
-0.210844
-0.201771
-0.188002
-0.170409
-0.150609
-0.130586
-0.112339
-0.097612
-0.0876507
-0.0829642
-0.0829234
-0.0855354
-0.087834
-0.0871999
-0.0825659
-0.074534
-0.0645456
-0.0540588
-0.0441503
-0.0354531
-0.0282673
-0.0227159
-0.0188276
-0.0165858
-0.0158865
-0.0164543
-0.0178073
-0.0193357
-0.0204841
-0.0209178
-0.0205683
-0.0195719
-0.0181524
-0.0165311
-0.0148815
-0.0133197
-0.0119123
-0.0106914
-0.009667
-0.00883642
-0.00818887
-0.00770757
-0.00736976
-0.00714606
-0.00700142
-0.00689845
-0.00680231
-0.00668544
-0.00653049
-0.00633118
-0.00609032
-0.00581686
-0.00552265
-0.00521987
-0.00491936
-0.00462978
-0.0043573
-0.00410571
-0.00387675
-0.0036704
-0.00348534
-0.00331926
-0.00316925
-0.00303214
-0.00290483
-0.0027845
-0.00266884
-0.00255614
-0.00244532
-0.00233585
-0.00222767
-0.00212107
-0.00201651
-0.00191456
-0.00181574
-0.00172051
-0.0016292
-0.001542
-0.00145898
-0.00138007
-0.00130512
-0.00123392
-0.0011662
-0.00110169
-0.00104012
-0.000981249
-0.000924861
-0.000870779
-0.000818862
-0.000769
-0.000721115
-0.000675148
-0.000631058
-0.000588816
-0.000548397
-0.000509784
-0.000472956
-0.000437893
-0.000404575
-0.000372979
-0.000343079
-0.000314852
-0.000288271
-0.000263312
-0.00023995
-0.000218164
-0.000197929
-0.00017922
-0.000161999
-0.000146213
-0.000131771
-0.000118542
-0.000106337
-9.49245e-05
-8.40467e-05
-7.34704e-05
-6.30478e-05
-5.27779e-05
-4.28345e-05
-3.35417e-05
-2.52862e-05
-1.83961e-05
-1.3029e-05
-9.12827e-06
-6.45492e-06
-4.69609e-06
-3.55312e-06
-2.83673e-06
-2.40962e-06
-2.2472e-06
-2.23918e-06
-2.40533e-06
-2.64313e-06
-2.87659e-06
-3.66533e-06
-3.22437e-06
-6.973e-06
-1.01379e-06
-1.97305e-05
1.91947e-05
0.0608626
0.0596485
0.0555511
0.0493206
0.0401953
0.0274379
0.0105023
-0.0113708
-0.0377545
-0.0679042
-0.0988528
-0.126448
-0.150926
-0.171423
-0.187793
-0.200499
-0.20993
-0.21645
-0.220055
-0.220249
-0.216132
-0.206817
-0.192115
-0.17293
-0.151133
-0.129057
-0.109052
-0.0931899
-0.082978
-0.0791054
-0.080892
-0.0859009
-0.0903643
-0.090946
-0.0863985
-0.0776379
-0.0665595
-0.0549615
-0.0440993
-0.0346684
-0.0269742
-0.0211337
-0.0171654
-0.0150527
-0.0146839
-0.0157402
-0.0176461
-0.0196694
-0.0211538
-0.0217282
-0.0213504
-0.0202194
-0.0186205
-0.016818
-0.0150095
-0.013321
-0.0118207
-0.0105384
-0.00948015
-0.00863897
-0.00799977
-0.00754159
-0.00723757
-0.00705386
-0.00695057
-0.00688546
-0.00681975
-0.00672346
-0.00657858
-0.00637997
-0.00613271
-0.00584837
-0.00554131
-0.00522571
-0.00491387
-0.00461527
-0.00433644
-0.00408118
-0.00385096
-0.00364534
-0.00346249
-0.00329959
-0.00315325
-0.00301986
-0.00289598
-0.00277855
-0.00266513
-0.00255396
-0.00244398
-0.00233477
-0.00222641
-0.00211933
-0.00201414
-0.00191151
-0.00181208
-0.00171637
-0.00162473
-0.00153738
-0.00145435
-0.00137558
-0.00130087
-0.00122997
-0.00116258
-0.0010984
-0.00103715
-0.00097856
-0.000922408
-0.000868514
-0.00081674
-0.000766983
-0.000719168
-0.000673246
-0.000629184
-0.000586958
-0.000546551
-0.000507946
-0.000471126
-0.000436074
-0.000402768
-0.000371184
-0.000341297
-0.000313079
-0.000286505
-0.00026155
-0.000238189
-0.000216401
-0.000196165
-0.000177458
-0.000160252
-0.000144494
-0.000130105
-0.000116955
-0.000104857
-9.35742e-05
-8.28401e-05
-7.24069e-05
-6.21098e-05
-5.19338e-05
-4.20468e-05
-3.27763e-05
-2.45225e-05
-1.76322e-05
-1.22814e-05
-8.42452e-06
-5.82447e-06
-4.16066e-06
-3.12262e-06
-2.50691e-06
-2.16652e-06
-2.06968e-06
-2.09667e-06
-2.28214e-06
-2.48142e-06
-2.73893e-06
-3.3583e-06
-3.18172e-06
-6.32837e-06
-1.72541e-06
-1.81879e-05
1.55843e-05
0.0640865
0.0629742
0.059218
0.0534007
0.0446953
0.0321871
0.0151135
-0.00767116
-0.0358018
-0.0687722
-0.102493
-0.13142
-0.156714
-0.177428
-0.193587
-0.205959
-0.215144
-0.22171
-0.225715
-0.226518
-0.222843
-0.213325
-0.197476
-0.176251
-0.151873
-0.12714
-0.104858
-0.0875086
-0.0769462
-0.0741358
-0.0783778
-0.0866477
-0.0940464
-0.0962045
-0.0916559
-0.0818097
-0.0692216
-0.0561477
-0.0440573
-0.0337009
-0.025371
-0.0191681
-0.0150984
-0.0131497
-0.0132078
-0.0149031
-0.0175355
-0.0202028
-0.0221093
-0.0228397
-0.0223943
-0.0210639
-0.0192173
-0.0171742
-0.0151606
-0.0133118
-0.0116964
-0.0103394
-0.00924133
-0.00838937
-0.00776274
-0.00733535
-0.00707541
-0.00694354
-0.00689358
-0.00687693
-0.0068496
-0.00677848
-0.00664491
-0.00644548
-0.0061884
-0.00588885
-0.00556447
-0.00523203
-0.00490556
-0.00459556
-0.00430892
-0.00404935
-0.00381791
-0.0036136
-0.00343391
-0.00327534
-0.00313385
-0.00300532
-0.00288586
-0.00277211
-0.00266145
-0.00255209
-0.00244304
-0.00233401
-0.00222527
-0.00211745
-0.00201134
-0.00190778
-0.00180753
-0.00171118
-0.00161914
-0.0015316
-0.00144861
-0.00137004
-0.00129566
-0.00122517
-0.00115822
-0.00109448
-0.00103363
-0.000975391
-0.000919529
-0.000865861
-0.000814253
-0.00076461
-0.000716868
-0.000670989
-0.00062695
-0.000584735
-0.000544334
-0.000505736
-0.000468925
-0.000433885
-0.000400594
-0.000369026
-0.000339153
-0.000310948
-0.000284382
-0.000259428
-0.000236063
-0.000214266
-0.000194019
-0.000175303
-0.000158093
-0.000142346
-0.000127986
-0.000114892
-0.000102879
-9.17085e-05
-8.11086e-05
-7.08215e-05
-6.06685e-05
-5.06211e-05
-4.08386e-05
-3.16477e-05
-2.34559e-05
-1.66226e-05
-1.13375e-05
-7.56406e-06
-5.0678e-06
-3.5234e-06
-2.61265e-06
-2.11977e-06
-1.88848e-06
-1.87637e-06
-1.95213e-06
-2.16024e-06
-2.31459e-06
-2.58287e-06
-3.00131e-06
-3.09448e-06
-5.53388e-06
-2.47615e-06
-1.62095e-05
1.12497e-05
0.067755
0.0667735
0.0634537
0.0581829
0.0500624
0.0379698
0.0208546
-0.00295686
-0.0332439
-0.0699851
-0.107319
-0.137713
-0.163899
-0.184763
-0.200548
-0.212402
-0.221192
-0.227768
-0.232301
-0.23399
-0.231056
-0.221456
-0.204266
-0.180506
-0.152874
-0.12478
-0.0995974
-0.0803311
-0.0692895
-0.0678499
-0.0753614
-0.0880288
-0.0993445
-0.103524
-0.0987918
-0.0873447
-0.0726891
-0.0576863
-0.0440483
-0.0325557
-0.0234562
-0.0168145
-0.0126147
-0.010862
-0.0114563
-0.0139712
-0.0175416
-0.0210324
-0.0234579
-0.0243482
-0.0237702
-0.0221479
-0.019963
-0.0176051
-0.0153313
-0.0132847
-0.0115299
-0.0100847
-0.00894116
-0.00807922
-0.00747114
-0.00708465
-0.00688183
-0.00681638
-0.0068341
-0.00687822
-0.00689811
-0.00685679
-0.00673503
-0.00653196
-0.0062602
-0.00593971
-0.00559235
-0.00523814
-0.0048932
-0.00456913
-0.00427315
-0.00400874
-0.00377639
-0.00357428
-0.00339903
-0.00324625
-0.00311111
-0.00298879
-0.00287488
-0.00276565
-0.0026583
-0.002551
-0.00244287
-0.00233383
-0.00222441
-0.00211548
-0.00200809
-0.00190329
-0.00180196
-0.0017048
-0.00161225
-0.00152452
-0.00144161
-0.00136334
-0.00128941
-0.00121946
-0.00115309
-0.00108992
-0.00102958
-0.000971774
-0.000916261
-0.000862856
-0.000811433
-0.000761908
-0.000714235
-0.000668388
-0.000624358
-0.000582143
-0.00054174
-0.000503142
-0.000466339
-0.000431313
-0.000398039
-0.000366491
-0.000336637
-0.000308447
-0.000281888
-0.000256933
-0.000233557
-0.00021174
-0.000191465
-0.000172717
-0.000155477
-0.000139706
-0.000125336
-0.000112253
-0.000100279
-8.918e-05
-7.86827e-05
-6.85293e-05
-5.85343e-05
-4.86569e-05
-3.90469e-05
-3.00232e-05
-2.19892e-05
-1.53044e-05
-1.01618e-05
-6.52983e-06
-4.17817e-06
-2.78254e-06
-2.02279e-06
-1.67686e-06
-1.57985e-06
-1.67444e-06
-1.81557e-06
-2.04921e-06
-2.15309e-06
-2.41095e-06
-2.60068e-06
-2.94457e-06
-4.58788e-06
-3.19976e-06
-1.37524e-05
6.2909e-06
0.0718165
0.0709994
0.0682267
0.0636653
0.0563426
0.0449061
0.0279262
0.00302524
-0.0298853
-0.0716874
-0.113719
-0.145614
-0.172686
-0.193505
-0.208631
-0.219721
-0.22796
-0.234585
-0.23992
-0.242957
-0.241223
-0.231728
-0.212951
-0.18602
-0.154296
-0.121985
-0.0931593
-0.0714489
-0.0597361
-0.0600244
-0.0718545
-0.0904417
-0.106997
-0.113731
-0.108456
-0.0946394
-0.0771566
-0.0596542
-0.0440937
-0.0312302
-0.0212114
-0.0140415
-0.00968096
-0.00816376
-0.00942763
-0.0129893
-0.0177671
-0.0223035
-0.0253526
-0.0263813
-0.025565
-0.0235207
-0.0208799
-0.0181161
-0.0155181
-0.0132315
-0.011312
-0.00976517
-0.00857193
-0.00770257
-0.00712062
-0.0067866
-0.00665581
-0.00667383
-0.00677633
-0.00689583
-0.00697308
-0.00696626
-0.0068558
-0.00664463
-0.00635143
-0.00600249
-0.00562508
-0.00524313
-0.00487521
-0.00453409
-0.00422721
-0.00395761
-0.00372492
-0.00352627
-0.00335712
-0.00321198
-0.00308501
-0.00297055
-0.00286352
-0.00275978
-0.00265632
-0.0025513
-0.00244401
-0.00233465
-0.00222409
-0.00211355
-0.0020044
-0.00189793
-0.00179521
-0.00169704
-0.0016039
-0.00151599
-0.00143323
-0.0013554
-0.00128209
-0.00121286
-0.00114723
-0.00108476
-0.00102505
-0.000967771
-0.000912664
-0.000859555
-0.000808326
-0.000758915
-0.000711294
-0.00066546
-0.000621422
-0.00057919
-0.000538774
-0.000500171
-0.000463375
-0.000428365
-0.000395115
-0.000363594
-0.000333766
-0.000305594
-0.000279044
-0.000254084
-0.000230689
-0.000208839
-0.000188518
-0.000169713
-0.000152408
-0.000136572
-0.000122144
-0.000109017
-9.70262e-05
-8.59482e-05
-7.55191e-05
-6.54882e-05
-5.56736e-05
-4.60265e-05
-3.66812e-05
-2.79375e-05
-2.01792e-05
-1.37495e-05
-8.83324e-06
-5.39757e-06
-3.21993e-06
-1.98719e-06
-1.38833e-06
-1.20401e-06
-1.26193e-06
-1.4836e-06
-1.70669e-06
-1.96608e-06
-2.01259e-06
-2.22841e-06
-2.16417e-06
-2.71042e-06
-3.48963e-06
-3.80941e-06
-1.07763e-05
8.90785e-07
0.0762061
0.0755913
0.0734911
0.0698321
0.0635757
0.053129
0.0365713
0.0106116
-0.0254615
-0.0741333
-0.122243
-0.155456
-0.183403
-0.203992
-0.218114
-0.228042
-0.235382
-0.241928
-0.248287
-0.253252
-0.253421
-0.244437
-0.223905
-0.193097
-0.156293
-0.11875
-0.0853805
-0.0605694
-0.0479367
-0.0504046
-0.0679552
-0.0945272
-0.118132
-0.127955
-0.121518
-0.104214
-0.0828786
-0.0621626
-0.0442492
-0.0297665
-0.0186811
-0.010893
-0.00632132
-0.00506564
-0.00715107
-0.0120398
-0.018362
-0.0242162
-0.0280016
-0.0291136
-0.0278979
-0.0252482
-0.0219951
-0.0187115
-0.0157138
-0.0131406
-0.0110295
-0.00936773
-0.00812105
-0.00724814
-0.0067025
-0.00643638
-0.006397
-0.00651981
-0.00672763
-0.00693946
-0.00708524
-0.00711723
-0.00701599
-0.00678995
-0.00646606
-0.00607889
-0.00566251
-0.0052456
-0.00484946
-0.00448802
-0.00416872
-0.00389384
-0.00366183
-0.0034684
-0.00330755
-0.00317238
-0.0030558
-0.00295111
-0.00285248
-0.00275527
-0.00265625
-0.00255363
-0.00244694
-0.00233679
-0.00222449
-0.00211171
-0.0020002
-0.00189157
-0.0017871
-0.00168769
-0.00159387
-0.00150578
-0.00142331
-0.00134608
-0.0012736
-0.0012053
-0.00114062
-0.00107904
-0.0010201
-0.000963437
-0.000908801
-0.000856016
-0.000804986
-0.000755672
-0.000708078
-0.000662227
-0.000618152
-0.000575881
-0.000535435
-0.00049682
-0.000460029
-0.00042504
-0.000391823
-0.000360338
-0.000330544
-0.000302397
-0.000275858
-0.000250892
-0.00022747
-0.000205571
-0.000185181
-0.000166289
-0.00014888
-0.00013293
-0.000118385
-0.000105151
-9.30784e-05
-8.19646e-05
-7.15679e-05
-6.165e-05
-5.2045e-05
-4.27038e-05
-3.37365e-05
-2.54114e-05
-1.80709e-05
-1.20195e-05
-7.41602e-06
-4.22417e-06
-2.23841e-06
-1.16776e-06
-7.30373e-07
-7.15976e-07
-9.47702e-07
-1.31735e-06
-1.64024e-06
-1.92409e-06
-1.90606e-06
-2.03972e-06
-1.70118e-06
-2.37261e-06
-2.24765e-06
-4.20894e-06
-7.26111e-06
-4.67125e-06
0.0808439
0.0804733
0.079183
0.0766519
0.0717928
0.0627942
0.0471043
0.0202964
-0.0195583
-0.0776636
-0.133743
-0.16774
-0.196218
-0.216054
-0.228683
-0.237074
-0.243281
-0.249814
-0.257684
-0.265478
-0.268497
-0.260508
-0.237935
-0.202302
-0.159178
-0.115182
-0.076223
-0.047528
-0.0335861
-0.0388266
-0.0640567
-0.101527
-0.13467
-0.148085
-0.139319
-0.116794
-0.0901698
-0.0653328
-0.0445691
-0.0282022
-0.0158892
-0.00737421
-0.00254348
-0.00158573
-0.00469423
-0.0112864
-0.0196041
-0.0271191
-0.0317334
-0.0327806
-0.030913
-0.0274025
-0.0233354
-0.0193941
-0.0159107
-0.0130006
-0.0106706
-0.00888212
-0.00758082
-0.00671116
-0.00621397
-0.00603227
-0.00610558
-0.00635803
-0.00669602
-0.00702062
-0.00724761
-0.00732213
-0.00722587
-0.00697522
-0.00660834
-0.00617049
-0.0057042
-0.00524371
-0.00481337
-0.00442808
-0.00409495
-0.00381509
-0.00358528
-0.0033994
-0.00324958
-0.0031272
-0.00302365
-0.002931
-0.00284251
-0.00275298
-0.00265897
-0.0025588
-0.00245237
-0.00234077
-0.00222591
-0.00211006
-0.00199545
-0.00188406
-0.00177741
-0.00167653
-0.00158195
-0.00149377
-0.00141174
-0.00133535
-0.00126395
-0.00119684
-0.00113334
-0.00107283
-0.0010148
-0.000958859
-0.000904747
-0.000852304
-0.000801462
-0.00075222
-0.000704616
-0.00065871
-0.000614564
-0.000572228
-0.000531737
-0.000493103
-0.000456319
-0.00042136
-0.000388188
-0.000356753
-0.000327006
-0.000298895
-0.000272373
-0.0002474
-0.000223945
-0.000201984
-0.000181503
-0.000162493
-0.000144943
-0.000128831
-0.000114114
-0.000100714
-8.85038e-05
-7.73091e-05
-6.6922e-05
-5.71324e-05
-4.77862e-05
-3.88434e-05
-3.03858e-05
-2.26217e-05
-1.5834e-05
-1.02674e-05
-6.04532e-06
-3.12391e-06
-1.31746e-06
-3.8418e-07
-9.00938e-08
-2.41357e-07
-6.58796e-07
-1.19367e-06
-1.63203e-06
-1.93559e-06
-1.84428e-06
-1.84789e-06
-1.22012e-06
-1.91273e-06
-8.76453e-07
-4.29551e-06
-3.21391e-06
-1.00114e-05
0.0856332
0.0855498
0.0852141
0.0840595
0.0809947
0.074038
0.059872
0.0327106
-0.0116728
-0.0829577
-0.149182
-0.18295
-0.21199
-0.230672
-0.241027
-0.246997
-0.251287
-0.25748
-0.267278
-0.27914
-0.286586
-0.280612
-0.255874
-0.214301
-0.16334
-0.111422
-0.0655786
-0.0319164
-0.0162836
-0.0251978
-0.0609106
-0.113366
-0.159095
-0.176485
-0.163603
-0.133343
-0.0994514
-0.0693423
-0.0451719
-0.0266659
-0.0129893
-0.00364922
0.00155004
0.00218081
-0.00218928
-0.0109242
-0.0217576
-0.0313244
-0.0368633
-0.0376323
-0.0347803
-0.0300714
-0.02493
-0.0201626
-0.016095
-0.0127942
-0.0102184
-0.00829211
-0.0069358
-0.0060773
-0.00564466
-0.00557048
-0.00578471
-0.00619683
-0.00669303
-0.00715264
-0.0074739
-0.00759344
-0.00749563
-0.00720771
-0.0067824
-0.0062786
-0.00574927
-0.00523524
-0.00476401
-0.00435123
-0.00400316
-0.00371914
-0.0034937
-0.00331836
-0.00318292
-0.00307663
-0.00298908
-0.00291089
-0.00283434
-0.00275364
-0.00266513
-0.0025673
-0.00246057
-0.00234673
-0.00222842
-0.0021086
-0.00199009
-0.00187529
-0.00176602
-0.00166342
-0.00156802
-0.00147983
-0.00139842
-0.00132312
-0.00125309
-0.00118745
-0.00112538
-0.00106615
-0.00100919
-0.000954079
-0.000900548
-0.000848465
-0.000797798
-0.000748594
-0.000700939
-0.000654935
-0.00061068
-0.000568251
-0.000527696
-0.000489036
-0.000452261
-0.000417341
-0.000384227
-0.000352859
-0.000323175
-0.000295113
-0.000268618
-0.000243642
-0.00022015
-0.000198119
-0.000177531
-0.000158379
-0.000140655
-0.000124344
-0.000109414
-9.58052e-05
-8.34205e-05
-7.21231e-05
-6.17459e-05
-5.21197e-05
-4.31098e-05
-3.46605e-05
-2.68306e-05
-1.97661e-05
-1.36512e-05
-8.65334e-06
-4.84343e-06
-2.17296e-06
-5.06215e-07
3.30603e-07
5.14135e-07
2.09616e-07
-4.00807e-07
-1.11519e-06
-1.6825e-06
-1.99911e-06
-1.82612e-06
-1.64903e-06
-7.26193e-07
-1.3177e-06
5.9902e-07
-3.9766e-06
1.31368e-06
-1.46649e-05
0.0904601
0.0907072
0.0914679
0.0919608
0.0911477
0.0870244
0.0753377
0.0488938
-0.000875979
-0.0909906
-0.170974
-0.201602
-0.22978
-0.246552
-0.254291
-0.257517
-0.259611
-0.265566
-0.278066
-0.295751
-0.309448
-0.30655
-0.27925
-0.23014
-0.169368
-0.107769
-0.0535814
-0.0138448
0.0040613
-0.00907585
-0.0573212
-0.128546
-0.190898
-0.214243
-0.195865
-0.154886
-0.111185
-0.0743678
-0.0461663
-0.0252747
-0.0100969
0.000198719
0.00577095
0.00602912
0.000304937
-0.0107366
-0.0243582
-0.0363709
-0.0431416
-0.0436384
-0.039547
-0.0332941
-0.0267899
-0.021009
-0.0162518
-0.0125063
-0.00966036
-0.0075896
-0.00618393
-0.00534977
-0.00499997
-0.00505432
-0.00543478
-0.00603651
-0.00672063
-0.00733909
-0.00776825
-0.00793519
-0.00782892
-0.00749023
-0.00698973
-0.00640329
-0.00579664
-0.00521833
-0.0046993
-0.00425558
-0.00389192
-0.00360511
-0.00338674
-0.00322528
-0.00310774
-0.00302086
-0.00295221
-0.00289085
-0.00282797
-0.00275713
-0.00267457
-0.00257908
-0.00247162
-0.00235478
-0.00223209
-0.00210736
-0.00198413
-0.00186532
-0.00175302
-0.0016485
-0.00155226
-0.00146417
-0.0013836
-0.00130965
-0.00124124
-0.00117731
-0.00111687
-0.00105909
-0.00100332
-0.000949105
-0.000896193
-0.000844475
-0.000793969
-0.000744775
-0.000697036
-0.000650902
-0.000606511
-0.000563969
-0.000523341
-0.000484653
-0.000447894
-0.000413026
-0.000379986
-0.000348702
-0.000319098
-0.0002911
-0.000264643
-0.000239672
-0.000216149
-0.000194045
-0.000173345
-0.000154042
-0.000136132
-0.000119607
-0.000104449
-9.06238e-05
-7.8066e-05
-6.66822e-05
-5.63528e-05
-4.6947e-05
-3.83533e-05
-3.0508e-05
-2.34084e-05
-1.71148e-05
-1.17223e-05
-7.30436e-06
-3.88293e-06
-1.42138e-06
1.61343e-07
9.61506e-07
1.07621e-06
6.3684e-07
-1.67857e-07
-1.0701e-06
-1.77468e-06
-2.09551e-06
-1.83408e-06
-1.42934e-06
-2.17688e-07
-5.80419e-07
2.14642e-06
-3.18513e-06
6.21743e-06
-1.81431e-05
0.0951932
0.0958063
0.0977927
0.100186
0.102136
0.101752
0.0938931
0.0698868
0.0134885
-0.102416
-0.19964
-0.226021
-0.253831
-0.26708
-0.270171
-0.268667
-0.266827
-0.271873
-0.28807
-0.313903
-0.33728
-0.339843
-0.309903
-0.251262
-0.178167
-0.10479
-0.0405935
0.0061026
0.0259157
0.00956191
-0.0481845
-0.136463
-0.218291
-0.253615
-0.233206
-0.181031
-0.125587
-0.0806112
-0.0477515
-0.0242879
-0.00755077
0.0037102
0.00956791
0.00943059
0.00284592
-0.00926525
-0.0247364
-0.0393015
-0.0483693
-0.0497378
-0.0448307
-0.0369671
-0.0288827
-0.0219081
-0.0163569
-0.0121166
-0.0089809
-0.0067639
-0.00531801
-0.0045245
-0.00428033
-0.00449093
-0.00506141
-0.00586925
-0.00675466
-0.00754622
-0.00809703
-0.00832074
-0.00820738
-0.00781231
-0.00722523
-0.00654245
-0.00584581
-0.0051935
-0.00462053
-0.0041431
-0.00376378
-0.00347595
-0.00326737
-0.00312282
-0.00302601
-0.00296094
-0.00291303
-0.00286982
-0.00282161
-0.00276144
-0.0026853
-0.00259221
-0.00248381
-0.00236367
-0.00223624
-0.00210622
-0.00197787
-0.00185467
-0.00173908
-0.00163248
-0.00153535
-0.00144738
-0.00136772
-0.00129522
-0.00122856
-0.00116646
-0.00110777
-0.00105154
-0.00099703
-0.000943781
-0.00089153
-0.000840206
-0.000789877
-0.000740699
-0.000692873
-0.000646604
-0.000602072
-0.000559411
-0.000518707
-0.000479991
-0.000443251
-0.000408439
-0.000375481
-0.000344292
-0.00031478
-0.00028686
-0.000260454
-0.000235503
-0.00021196
-0.000189797
-0.000168997
-0.000149557
-0.000131475
-0.000114756
-9.9399e-05
-8.53922e-05
-7.27081e-05
-6.12963e-05
-5.10814e-05
-4.19694e-05
-3.38602e-05
-2.66672e-05
-2.03333e-05
-1.48289e-05
-1.01404e-05
-6.25676e-06
-3.16121e-06
-8.31052e-07
7.43093e-07
1.56266e-06
1.64199e-06
1.081e-06
8.10968e-08
-1.01373e-06
-1.86018e-06
-2.17807e-06
-1.82799e-06
-1.16304e-06
3.14127e-07
2.95025e-07
3.72409e-06
-1.90313e-06
1.13339e-05
-2.00323e-05
0.0996859
0.100693
0.103996
0.108533
0.113754
0.118329
0.116152
0.0985836
0.0336002
-0.126479
-0.242234
-0.25107
-0.277485
-0.288581
-0.287476
-0.280651
-0.274024
-0.27728
-0.296849
-0.33234
-0.368445
-0.37976
-0.348357
-0.278961
-0.191376
-0.104555
-0.0302728
0.0209633
0.0409662
0.0240851
-0.038715
-0.134904
-0.231462
-0.282197
-0.266962
-0.207956
-0.141567
-0.0879483
-0.05006
-0.023911
-0.00566786
0.00603844
0.0112715
0.0103223
0.003784
-0.00793159
-0.0229689
-0.0383902
-0.0499564
-0.0536936
-0.0494099
-0.0405972
-0.0310521
-0.0228147
-0.0163952
-0.0116223
-0.00818952
-0.00584032
-0.00438248
-0.00366361
-0.00354856
-0.00391174
-0.00464923
-0.0056369
-0.00670328
-0.00766344
-0.00835147
-0.00865973
-0.00856678
-0.00813403
-0.00746844
-0.00668924
-0.00589841
-0.00516737
-0.00453722
-0.00402492
-0.00363041
-0.00334285
-0.00314534
-0.00301841
-0.00294234
-0.00289839
-0.00287035
-0.00284462
-0.00281073
-0.00276118
-0.00269194
-0.00260221
-0.00249399
-0.00237139
-0.00223978
-0.00210484
-0.00197165
-0.00184427
-0.0017255
-0.00161688
-0.00151884
-0.00143093
-0.00135208
-0.00128088
-0.00121581
-0.00115538
-0.00109829
-0.00104348
-0.000990168
-0.000937845
-0.000886256
-0.000835357
-0.000785253
-0.000736151
-0.000688302
-0.000641955
-0.000597329
-0.000554588
-0.000513833
-0.000475105
-0.000438392
-0.00040364
-0.000370765
-0.00033967
-0.000310251
-0.000282412
-0.000256066
-0.000231147
-0.000207603
-0.000185406
-0.000164538
-0.000145
-0.000126797
-0.000109945
-9.44592e-05
-8.03543e-05
-6.76348e-05
-5.62873e-05
-4.62718e-05
-3.75182e-05
-2.99292e-05
-2.33896e-05
-1.77771e-05
-1.29751e-05
-8.8822e-06
-5.41792e-06
-2.54001e-06
-2.57571e-07
1.36278e-06
2.23153e-06
2.28665e-06
1.60483e-06
4.07396e-07
-8.8056e-07
-1.86935e-06
-2.18124e-06
-1.75216e-06
-8.17993e-07
8.82182e-07
1.28973e-06
5.28361e-06
-1.79318e-07
1.64461e-05
-2.01148e-05
0.10378
0.105185
0.109849
0.116639
0.12564
0.136046
0.142315
0.134238
0.0613479
-0.137628
-0.312287
-0.300087
-0.314554
-0.313916
-0.303958
-0.288621
-0.274438
-0.273653
-0.294588
-0.339318
-0.390633
-0.415658
-0.388397
-0.311809
-0.211136
-0.111934
-0.0306762
0.0179532
0.0316663
0.0117044
-0.045335
-0.133339
-0.233378
-0.296949
-0.290818
-0.230939
-0.157084
-0.0959435
-0.0533121
-0.0246437
-0.00549448
0.00518356
0.00788458
0.00453904
-0.00276762
-0.0119842
-0.0227964
-0.0359339
-0.048287
-0.0545098
-0.0521271
-0.043476
-0.0330033
-0.0236462
-0.0163639
-0.0110506
-0.00733389
-0.00488827
-0.00346825
-0.00286407
-0.00290265
-0.00341306
-0.00425741
-0.00531637
-0.00645935
-0.00752939
-0.00835453
-0.00879412
-0.00878709
-0.00837614
-0.00767601
-0.0068274
-0.00595707
-0.00515458
-0.00447085
-0.0039257
-0.00351699
-0.00322939
-0.00304105
-0.00292812
-0.00286769
-0.00283918
-0.00282524
-0.00281191
-0.00278908
-0.002749
-0.00268698
-0.00260172
-0.00249544
-0.00237281
-0.00223965
-0.00210208
-0.00196581
-0.00183545
-0.00171423
-0.00160389
-0.00150492
-0.00141679
-0.0013383
-0.00126787
-0.00120382
-0.00114453
-0.0010886
-0.00103486
-0.000982506
-0.000930982
-0.000880026
-0.000829596
-0.000779814
-0.000730912
-0.00068317
-0.000636869
-0.000592255
-0.000549513