/*--------------------------------*- C++ -*----------------------------------*\
  =========                 |
  \\      /  F ield         | OpenFOAM: The Open Source CFD Toolbox
   \\    /   O peration     | Website:  https://openfoam.org
    \\  /    A nd           | Version:  11
     \\/     M anipulation  |
\*---------------------------------------------------------------------------*/
FoamFile
{
    format      ascii;
    class       surfaceScalarField;
    location    "19.21013";
    object      phi;
}
// * * * * * * * * * * * * * * * * * * * * * * * * * * * * * * * * * * * * * //

dimensions      [0 3 -1 0 0 0 0];

internalField   nonuniform List<scalar> 
14638
(
0.00250203
-2.02847e-06
0.00250827
-6.2392e-06
0.00251922
-1.09539e-05
0.00253553
-1.63074e-05
0.00255781
-2.2284e-05
0.00258636
-2.85507e-05
0.00262089
-3.45225e-05
0.00266003
-3.91438e-05
0.00270133
-4.1304e-05
0.00274112
-3.97907e-05
0.00277504
-3.39141e-05
0.00279929
-2.42493e-05
0.00281093
-1.16395e-05
0.00280812
2.81051e-06
0.00279061
1.75109e-05
0.00276039
3.02142e-05
0.00272189
3.84974e-05
0.00268119
4.07049e-05
0.00264493
3.62635e-05
0.00261921
2.57123e-05
0.00260853
1.06824e-05
0.0026147
-6.17327e-06
0.00263587
-2.11659e-05
0.0026659
-3.00294e-05
0.00269531
-2.94137e-05
0.00271419
-1.88738e-05
0.00271573
-1.5393e-06
0.00269826
1.74638e-05
0.00266482
3.34456e-05
0.00262128
4.35358e-05
0.00257469
4.659e-05
0.00253223
4.24641e-05
0.0025008
3.14322e-05
0.00248667
1.41276e-05
0.00249464
-7.97352e-06
0.00252629
-3.16461e-05
0.0025777
-5.14132e-05
0.00263852
-6.08222e-05
0.00269409
-5.5567e-05
0.00273045
-3.63639e-05
0.00273947
-9.01321e-06
0.00272087
1.85952e-05
0.00268079
4.00857e-05
0.00262838
5.24091e-05
0.00257309
5.52823e-05
0.00252348
4.96186e-05
0.00248716
3.63157e-05
0.00247107
1.60866e-05
0.00248071
-9.63396e-06
0.00251794
-3.72361e-05
0.0025783
-6.03528e-05
0.00264984
-7.15405e-05
0.0027157
-6.58589e-05
0.00275967
-4.39755e-05
0.002772
-1.23296e-05
0.00275209
1.991e-05
0.00270719
4.48989e-05
0.0026485
5.8692e-05
0.00258739
6.11147e-05
0.00253347
5.39137e-05
0.00249458
3.8896e-05
0.00247727
1.73082e-05
0.00248653
-9.25796e-06
0.0025238
-3.72698e-05
0.00258449
-6.06942e-05
0.00265707
-7.25836e-05
0.00272527
-6.82e-05
0.00277296
-4.76898e-05
0.00278945
-1.64861e-05
0.0027726
1.68466e-05
0.0027286
4.39992e-05
0.00266882
5.97821e-05
0.0026058
6.30213e-05
0.00255039
5.54107e-05
0.0025109
3.94902e-05
0.0024935
1.73979e-05
0.0025022
-8.69613e-06
0.00253741
-3.52127e-05
0.00259413
-5.67241e-05
0.00266155
-6.74186e-05
0.0027252
-6.36497e-05
0.00277101
-4.58045e-05
0.00278934
-1.83301e-05
0.00277744
1.18967e-05
0.00273958
3.78635e-05
0.00268512
5.44537e-05
0.00262565
5.94687e-05
0.00257225
5.34015e-05
0.00253395
3.83031e-05
0.00251722
1.67332e-05
0.00252552
-8.29988e-06
0.00255824
-3.27242e-05
0.00260971
-5.14671e-05
0.00266955
-5.98436e-05
0.00272505
-5.55009e-05
0.00276458
-3.95321e-05
0.00278064
-1.60511e-05
0.00277129
9.34221e-06
0.00274001
3.12826e-05
0.00269415
4.58613e-05
0.00264307
5.10775e-05
0.00259637
4.66969e-05
0.00256255
3.38277e-05
0.00254795
1.46003e-05
0.00255576
-7.81032e-06
0.00258491
-2.91484e-05
0.00262961
-4.47084e-05
0.00268034
-5.07292e-05
0.00272618
-4.58364e-05
0.00275778
-3.15977e-05
0.00276963
-1.18553e-05
0.00276094
8.69669e-06
0.00273502
2.592e-05
0.00269796
3.70512e-05
0.00265718
4.07868e-05
0.0026202
3.69748e-05
0.00259385
2.63523e-05
0.00258328
1.05731e-05
0.00259089
-7.60984e-06
0.00261536
-2.44735e-05
0.00265149
-3.61247e-05
0.00269124
-3.97551e-05
0.00272593
-3.46876e-05
0.00274853
-2.2598e-05
0.00275534
-6.81052e-06
0.00274644
8.90047e-06
0.00272502
2.1415e-05
0.00269618
2.88402e-05
0.00266571
3.04746e-05
0.00263923
2.64733e-05
0.00262162
1.76117e-05
0.00261629
5.33227e-06
0.00262441
-8.12087e-06
0.0026443
-1.98881e-05
0.00267149
-2.71875e-05
0.00269974
-2.82517e-05
0.00272273
-2.29961e-05
0.00273576
-1.30298e-05
0.00273679
-1.02837e-06
0.00272661
1.01852e-05
0.00270818
1.84288e-05
0.00268566
2.25153e-05
0.00266349
2.21692e-05
0.00264574
1.77531e-05
0.00263565
1.00877e-05
0.00263518
4.73493e-07
0.00264445
-9.27063e-06
0.00266148
-1.7026e-05
0.00268241
-2.09322e-05
0.00270244
-2.00292e-05
0.00271709
-1.46569e-05
0.00272342
-6.32534e-06
0.00272061
2.80515e-06
0.00271
1.06147e-05
0.00269431
1.56943e-05
0.00267723
1.70787e-05
0.00266167
1.55582e-05
0.00265209
9.57597e-06
0.00264681
5.27763e-06
-1.05231e-05
0.00250201
-4.03523e-06
0.00250819
-1.24192e-05
0.00251906
-2.183e-05
0.00253531
-3.25566e-05
0.00255761
-4.4583e-05
0.00258632
-5.7257e-05
0.00262121
-6.94148e-05
0.00266097
-7.8906e-05
0.00270313
-8.34663e-05
0.00274389
-8.05473e-05
0.00277868
-6.87036e-05
0.00280361
-4.91831e-05
0.00281567
-2.36906e-05
0.00281288
5.59733e-06
0.00279488
3.55112e-05
0.00276364
6.14506e-05
0.00272374
7.84038e-05
0.00268147
8.29683e-05
0.00264376
7.39747e-05
0.00261697
5.25006e-05
0.00260585
2.18088e-05
0.00261245
-1.27751e-05
0.00263501
-4.37267e-05
0.00266716
-6.21764e-05
0.00269879
-6.10489e-05
0.00271926
-3.93461e-05
0.00272134
-3.61533e-06
0.00270337
3.54352e-05
0.00266869
6.81231e-05
0.00262355
8.86731e-05
0.00257523
9.49128e-05
0.00253103
8.66597e-05
0.002498
6.44615e-05
0.00248268
2.94558e-05
0.00249029
-1.55869e-05
0.00252289
-6.42443e-05
0.00257669
-0.000105214
0.00264081
-0.000124941
0.00269952
-0.000114283
0.00273785
-7.46936e-05
0.00274718
-1.83425e-05
0.00272748
3.82996e-05
0.00268547
8.20945e-05
0.00263089
0.000106988
0.00257349
0.000112684
0.00252188
0.000101232
0.00248375
7.44404e-05
0.00246631
3.35306e-05
0.00247557
-1.88923e-05
0.00251396
-7.56288e-05
0.00257712
-0.000123517
0.00265251
-0.000146933
0.00272206
-0.000135403
0.00276835
-9.0266e-05
0.00278104
-2.50199e-05
0.00275975
4.12022e-05
0.00271245
9.21922e-05
0.00265113
0.000120016
0.0025876
0.000124646
0.00253156
0.000109952
0.00249075
7.97112e-05
0.00247178
3.62789e-05
0.00247998
-1.74667e-05
0.00251735
-7.46314e-05
0.00257961
-0.000122955
0.00265504
-0.000148021
0.00272664
-0.000139793
0.00277726
-9.83079e-05
0.00279539
-3.46188e-05
0.00277859
3.36409e-05
0.00273329
8.93017e-05
0.00267142
0.000121658
0.00260606
0.000128373
0.00254841
0.000113069
0.00250689
8.10081e-05
0.00248788
3.64041e-05
0.00249579
-1.66034e-05
0.00253144
-7.0862e-05
0.00258986
-0.000115147
0.00265975
-0.00013731
0.00272587
-0.00012977
0.00277349
-9.34241e-05
0.00279269
-3.75259e-05
0.00278074
2.38498e-05
0.00274209
7.65078e-05
0.00268637
0.000110175
0.00262535
0.000120487
0.0025703
0.000108452
0.00253049
7.81088e-05
0.0025128
3.44323e-05
0.00252112
-1.66277e-05
0.00255511
-6.67095e-05
0.00260882
-0.000105177
0.00267118
-0.0001222
0.00272864
-0.000112962
0.00276905
-7.99452e-05
0.00278486
-3.18583e-05
0.00277446
1.9738e-05
0.00274174
6.39988e-05
0.00269441
9.31955e-05
0.002642
0.00010349
0.00259419
9.45044e-05
0.00255962
6.84004e-05
0.00254491
2.93097e-05
0.00255354
-1.64379e-05
0.00258448
-6.00932e-05
0.0026316
-9.18275e-05
0.00268466
-0.000103793
0.00273206
-9.32295e-05
0.00276403
-6.35726e-05
0.00277511
-2.29327e-05
0.00276483
1.8976e-05
0.002737
5.37536e-05
0.00269812
7.59309e-05
0.00265586
8.30474e-05
0.00261792
7.49149e-05
0.00259124
5.30305e-05
0.00258113
2.06813e-05
0.00259008
-1.65632e-05
0.00261664
-5.10319e-05
0.00265515
-7.46379e-05
0.00269698
-8.15834e-05
0.00273288
-7.05807e-05
0.00275554
-4.52636e-05
0.00276136
-1.26258e-05
0.00275073
1.95292e-05
0.00272728
4.48611e-05
0.00269651
5.96163e-05
0.00266449
6.24925e-05
0.00263707
5.38907e-05
0.00261927
3.54131e-05
0.0026146
9.99664e-06
0.00262423
-1.77448e-05
0.00264622
-4.18756e-05
0.00267564
-5.66129e-05
0.00270572
-5.83331e-05
0.0027297
-4.69734e-05
0.00274268
-2.60063e-05
0.00274271
-1.06325e-06
0.00273089
2.20114e-05
0.00271054
3.87744e-05
0.00268618
4.6872e-05
0.00266253
4.58226e-05
0.00264387
3.64171e-05
0.0026336
2.03509e-05
0.00263377
3.02209e-07
0.00264445
-1.99482e-05
0.00266339
-3.59665e-05
0.00268632
-4.38626e-05
0.00270796
-4.16692e-05
0.00272348
-3.01734e-05
0.00272976
-1.26108e-05
0.0027261
6.47152e-06
0.00271404
2.26724e-05
0.00269664
3.30937e-05
0.00267788
3.58419e-05
0.00266098
3.24606e-05
0.00265049
2.0063e-05
0.00264506
1.07074e-05
-2.17787e-05
0.00250196
-5.99784e-06
0.00250802
-1.84758e-05
0.00251874
-3.2546e-05
0.00253486
-4.86833e-05
0.00255719
-6.69063e-05
0.0025862
-8.62711e-05
0.00262183
-0.000105049
0.00266284
-0.000119917
0.00270675
-0.00012737
0.00274945
-0.000123254
0.00278598
-0.000105233
0.00281224
-7.54436e-05
0.00282506
-3.65015e-05
0.00282225
8.40639e-06
0.0028032
5.45581e-05
0.00276986
9.47889e-05
0.00272711
0.000121159
0.00268174
0.000128332
0.00264122
0.000114501
0.00261243
8.12902e-05
0.00260062
3.361e-05
0.00260833
-2.04826e-05
0.00263393
-6.93239e-05
0.0026705
-9.87428e-05
0.00270661
-9.71588e-05
0.00273008
-6.28193e-05
0.00273282
-6.35618e-06
0.00271333
5.49271e-05
0.00267574
0.000105716
0.00262711
0.000137303
0.00257523
0.000146785
0.00252769
0.000134199
0.00249177
0.000100391
0.00247446
4.67573e-05
0.00248188
-2.3005e-05
0.00251698
-9.934e-05
0.00257614
-0.000164371
0.00264723
-0.000196032
0.00271222
-0.000179281
0.00275402
-0.000116487
0.00276318
-2.75081e-05
0.00274038
6.11069e-05
0.00269379
0.000128681
0.00263444
0.000166334
0.00257272
0.000174412
0.00251733
0.000156619
0.002476
0.000115764
0.00245627
5.32702e-05
0.00246488
-2.75083e-05
0.0025052
-0.000115946
0.00257334
-0.000191659
0.0026561
-0.00022969
0.00273329
-0.000212594
0.0027848
-0.000141772
0.00279854
-3.87606e-05
0.00277431
6.54233e-05
0.00272177
0.000144735
0.00265477
0.000187019
0.00258626
0.00019315
0.00252614
0.000170079
0.00248182
0.000124026
0.0024599
5.82018e-05
0.00246635
-2.39174e-05
0.0025042
-0.000112487
0.0025698
-0.000188551
0.00265084
-0.000229062
0.00272874
-0.00021769
0.00278455
-0.00015412
0.00280542
-5.54843e-05
0.00278841
5.06459e-05
0.00274042
0.000137296
0.00267443
0.000187643
0.00260462
0.000198181
0.00254283
0.000174862
0.00249787
0.000125968
0.00247663
5.764e-05
0.00248435
-2.4318e-05
0.00252244
-0.000108951
0.00258555
-0.000178263
0.00266094
-0.000212696
0.00273158
-0.00020041
0.00278157
-0.000143414
0.00280081
-5.67619e-05
0.0027871
3.7552e-05
0.00274568
0.000117926
0.00268679
0.000169067
0.0026226
0.000184681
0.00256465
0.000166398
0.00252267
0.000120089
0.00250425
5.28517e-05
0.00251407
-2.64445e-05
0.00255191
-0.000104547
0.00261097
-0.000164242
0.00267856
-0.000189792
0.00273952
-0.000173913
0.00278078
-0.000121205
0.00279489
-4.59708e-05
0.00278111
3.35109e-05
0.00274443
0.000100681
0.00269341
0.000144221
0.00263803
0.000158867
0.00258819
0.000144347
0.00255277
0.00010382
0.00253884
4.32395e-05
0.00255022
-2.78196e-05
0.00258568
-9.55479e-05
0.00263807
-0.000144224
0.00269574
-0.000161461
0.00274578
-0.000143266
0.00277781
-9.56033e-05
0.00278654
-3.16651e-05
0.00277232
3.31929e-05
0.00274001
8.60683e-05
0.00269702
0.000118914
0.00265164
0.000128427
0.00261192
0.000114639
0.00258506
7.98924e-05
0.00257659
2.91461e-05
0.00258901
-2.89769e-05
0.00262032
-8.23497e-05
0.00266385
-0.000118159
0.00270967
-0.000127408
0.00274755
-0.000108463
0.0027698
-6.75159e-05
0.00277307
-1.58891e-05
0.00275849
3.41105e-05
0.00273061
7.27407e-05
0.00269575
9.4471e-05
0.00266063
9.76109e-05
0.00263152
8.30012e-05
0.00261374
5.31982e-05
0.00261094
1.27947e-05
0.0026241
-3.09038e-05
0.00265065
-6.84264e-05
0.00268464
-9.06069e-05
0.0027182
-9.18937e-05
0.00274378
-7.25454e-05
0.0027562
-3.84325e-05
0.00275382
1.31608e-06
0.00273837
3.74635e-05
0.00271397
6.31716e-05
0.00268586
7.49828e-05
0.00265933
7.23601e-05
0.00263908
5.66658e-05
0.00262883
3.05983e-05
0.00263072
-1.58966e-06
0.0026446
-3.38264e-05
0.0026676
-5.89637e-05
0.00269453
-7.07933e-05
0.00271918
-6.63232e-05
0.00273607
-4.70655e-05
0.00274189
-1.84273e-05
0.00273615
1.22078e-05
0.00272095
3.78752e-05
0.00270002
5.40243e-05
0.00267788
5.79822e-05
0.00265846
5.18829e-05
0.00264635
3.21669e-05
0.00264111
1.59543e-05
-3.47132e-05
0.00250189
-7.89045e-06
0.00250775
-2.43355e-05
0.00251821
-4.30013e-05
0.00253412
-6.45961e-05
0.00255644
-8.92284e-05
0.00258588
-0.000115711
0.00262261
-0.000141777
0.00266552
-0.000162821
0.00271211
-0.000173964
0.00275784
-0.000168988
0.00279706
-0.000144449
0.00282538
-0.000103769
0.00283943
-5.0542e-05
0.00283665
1.11857e-05
0.002816
7.52088e-05
0.00277936
0.000131423
0.00273214
0.000168376
0.00268195
0.000178522
0.00263707
0.000159388
0.00260517
0.000113187
0.00259229
4.64929e-05
0.00260168
-2.98753e-05
0.00263204
-9.96798e-05
0.0026756
-0.000142311
0.00271881
-0.000140366
0.00274698
-9.0986e-05
0.00275063
-1.00027e-05
0.00272856
7.69923e-05
0.00268626
0.000148012
0.00263215
0.000191419
0.00257482
0.000204108
0.00252222
0.000186802
0.0024819
0.00014071
0.00246158
6.70736e-05
0.00246877
-3.01864e-05
0.00250799
-0.000138569
0.00257595
-0.000232329
0.00265835
-0.000278432
0.00273324
-0.000254171
0.00278008
-0.00016333
0.00278838
-3.58081e-05
0.00276014
8.93493e-05
0.00270602
0.0001828
0.00263913
0.00023323
0.0025708
0.000242737
0.00250982
0.000217601
0.00246364
0.000161946
0.00243976
7.71494e-05
0.00244564
-3.33904e-05
0.00248619
-0.000156496
0.0025592
-0.000264665
0.0026516
-0.000322095
0.0027408
-0.000301796
0.00280242
-0.000203393
0.00282063
-5.69616e-05
0.00279422
9.18237e-05
0.00273486
0.000204096
0.00265955
0.000262333
0.00258348
0.000269218
0.00251709
0.00023647
0.00246741
0.000173712
0.00244107
8.45425e-05
0.00244537
-2.82189e-05
0.00248506
-0.000152182
0.00255681
-0.000260297
0.00264652
-0.00031877
0.00273282
-0.000303997
0.00279462
-0.000215916
0.00281807
-7.89314e-05
0.00280017
6.85395e-05
0.00274843
0.000189042
0.00267694
0.000259129
0.00260109
0.000274031
0.00253363
0.000242321
0.00248416
0.000175438
0.00246068
8.11181e-05
0.00246974
-3.33728e-05
0.00251321
-0.000152421
0.00258447
-0.000249525
0.00266817
-0.000296396
0.00274471
-0.000276947
0.00279677
-0.000195476
0.00281438
-7.43682e-05
0.00279653
5.53973e-05
0.00274989
0.000164564
0.00268577
0.000233187
0.00261689
0.000253568
0.00255512
0.000228165
0.0025108
0.000164405
0.00249255
7.1106e-05
0.00250587
-3.97688e-05
0.00255031
-0.000148983
0.00261743
-0.000231362
0.00269219
-0.000264557
0.00275743
-0.000239153
0.00279913
-0.0001629
0.00281007
-5.69119e-05
0.00279072
5.28614e-05
0.00274764
0.000143756
0.00269076
0.000201105
0.00263085
0.000218776
0.00257821
0.000196993
0.00254213
0.0001399
0.00253021
5.51577e-05
0.00254647
-4.40778e-05
0.00258894
-0.000138018
0.00264882
-0.000204112
0.0027125
-0.000225136
0.00276557
-0.000196336
0.00279707
-0.000127105
0.00280207
-3.666e-05
0.00278197
5.32844e-05
0.00274306
0.000124988
0.00269404
0.000167928
0.00264414
0.000178329
0.00260201
0.000156773
0.00257529
0.000106609
0.00256979
3.46488e-05
0.00258774
-4.69296e-05
0.00262614
-0.000120753
0.00267663
-0.000168651
0.00272761
-0.000178387
0.00276768
-0.000148529
0.00278882
-8.86578e-05
0.00278814
-1.52116e-05
0.0027678
5.44538e-05
0.00273357
0.000106969
0.00269294
0.000135107
0.00265351
0.000137038
0.00262223
0.000114284
0.00260486
7.05589e-05
0.00260523
1.24274e-05
0.00262387
-4.95447e-05
0.00265711
-0.000101662
0.00269744
-0.000130934
0.00273549
-0.000129951
0.00276279
-9.98389e-05
0.00277397
-4.9612e-05
0.00276785
7.42896e-06
0.0027471
5.82147e-05
0.00271692
9.33542e-05
0.00268354
0.000108363
0.00265307
0.000102832
0.00263085
7.88805e-05
0.00262104
4.04135e-05
0.00262584
-6.39588e-06
0.00264466
-5.26412e-05
0.00267358
-8.78806e-05
0.00270604
-0.000103261
0.00273459
-9.48708e-05
0.00275295
-6.54281e-05
0.00275767
-2.31416e-05
0.00274868
2.11949e-05
0.00272884
5.77141e-05
0.00270285
8.00152e-05
0.00267598
8.48525e-05
0.00265316
7.47044e-05
0.00263904
4.62883e-05
0.00263453
2.04606e-05
-5.03416e-05
0.00250179
-9.68258e-06
0.00250737
-2.99111e-05
0.00251744
-5.30693e-05
0.002533
-8.01651e-05
0.00255525
-0.000111473
0.00258518
-0.000145644
0.00262333
-0.000179924
0.00266879
-0.00020828
0.00271912
-0.000224294
0.00276907
-0.000218941
0.00281198
-0.000187358
0.00284312
-0.00013491
0.00285886
-6.62827e-05
0.0028562
1.38469e-05
0.00283344
9.79666e-05
0.00279233
0.000172537
0.00273897
0.000221741
0.00268208
0.000235413
0.00263108
0.000210387
0.00259474
0.000149524
0.00258018
6.10504e-05
0.00259179
-4.14888e-05
0.00262884
-0.000136726
0.00268246
-0.000195928
0.00273591
-0.000193822
0.00277079
-0.00012586
0.00277557
-1.47861e-05
0.00274964
0.000102922
0.00270058
0.000197078
0.00263879
0.000253209
0.00257399
0.000268904
0.00251448
0.000246316
0.00246806
0.000187123
0.00244338
9.17519e-05
0.00244984
-3.66416e-05
0.00249415
-0.00018288
0.00257378
-0.000311958
0.00267218
-0.000376828
0.00276193
-0.000343922
0.00281673
-0.000218128
0.00282388
-4.29659e-05
0.00278754
0.000125692
0.00272242
0.000247917
0.0026449
0.000310751
0.00256766
0.000319977
0.00249921
0.000286051
0.00244601
0.000215148
0.00241496
0.000108206
0.00241468
-3.31116e-05
0.00245325
-0.000195066
0.00253125
-0.000342666
0.00263536
-0.000426207
0.00273969
-0.000406121
0.00281522
-0.000278931
0.00284177
-8.35056e-05
0.00281581
0.000117779
0.00275009
0.000269819
0.0026651
0.000347318
0.00257931
0.000355014
0.00250444
0.000311343
0.00244756
0.000230589
0.00241614
0.00011596
0.00241974
-3.18143e-05
0.0024648
-0.000197246
0.00254686
-0.000342359
0.00264822
-0.000420128
0.00274375
-0.000399524
0.00281031
-0.000282482
0.00283406
-0.000102683
0.00281303
8.95709e-05
0.00275586
0.000246217
0.00267768
0.000337308
0.00259477
0.000356936
0.00252077
0.000316324
0.00246648
0.000229727
0.00244167
0.00010593
0.00245435
-4.60502e-05
0.0025061
-0.000204177
0.00258792
-0.000331337
0.0026812
-0.000389681
0.00276379
-0.000359541
0.0028172
-0.000248879
0.00283169
-8.88565e-05
0.00280767
7.94181e-05
0.00275366
0.000218566
0.0026825
0.000304352
0.00260769
0.000328379
0.0025416
0.000294258
0.00249534
0.000210664
0.00247864
8.78043e-05
0.00249755
-5.86809e-05
0.0025506
-0.000202037
0.00262703
-0.000307788
0.00270928
-0.000346803
0.00277846
-0.000308336
0.00281992
-0.000204357
0.00282676
-6.3756e-05
0.0028006
7.90203e-05
0.00274967
0.000194686
0.0026855
0.00026528
0.00261998
0.000284288
0.00256414
0.000252836
0.00252791
0.000176128
0.00251941
6.36599e-05
0.00254243
-6.70999e-05
0.00259359
-0.00018918
0.00266187
-0.000272393
0.00273158
-0.000294841
0.00278711
-0.000251865
0.00281725
-0.000157244
0.00281757
-3.69771e-05
0.00279056
8.02899e-05
0.00274392
0.000171627
0.00268782
0.000224028
0.00263264
0.000233507
0.00258793
0.00020149
0.00256198
0.00013256
0.00256082
3.58061e-05
0.00258607
-7.21829e-05
0.00263309
-0.00016777
0.00269137
-0.000226928
0.00274749
-0.00023451
0.00278911
-0.000190155
0.00280821
-0.000107752
0.00280253
-9.53592e-06
0.00277534
8.16456e-05
0.00273372
0.00014859
0.00268642
0.000182408
0.00264215
0.000181312
0.00260872
0.000147713
0.00259252
8.67532e-05
0.00259745
7.50181e-06
0.00262326
-7.53514e-05
0.00266463
-0.000143032
0.00271208
-0.000178393
0.00275468
-0.000172543
0.00278311
-0.000128278
0.0027921
-5.86006e-05
0.00278115
1.8386e-05
0.00275396
8.5401e-05
0.00271695
0.000130368
0.00267747
0.000147838
0.00264262
0.000137681
0.00261856
0.000102945
0.00260995
4.90251e-05
0.002619
-1.54468e-05
0.0026443
-7.79474e-05
0.00268047
-0.000124045
0.00271922
-0.000142015
0.00275173
-0.000127376
0.00277104
-8.47459e-05
0.00277376
-2.58587e-05
0.00276044
3.45146e-05
0.00273485
8.3304e-05
0.00270279
0.000112076
0.0026704
0.000117241
0.00264382
0.000101286
0.00262776
6.23541e-05
0.00262492
2.32925e-05
-6.97155e-05
0.00250166
-1.13379e-05
0.00250684
-3.50971e-05
0.00251636
-6.25896e-05
0.0025314
-9.52081e-05
0.00255343
-0.000133496
0.00258385
-0.000176067
0.00262369
-0.000219765
0.00267239
-0.000256985
0.00272766
-0.00027956
0.00278322
-0.000274506
0.00283098
-0.000235117
0.00286587
-0.000169797
0.00288404
-8.44487e-05
0.00288176
1.61259e-05
0.00285628
0.000123439
0.00280914
0.000219685
0.00274751
0.000283372
0.00268169
0.00030123
0.00262257
0.000269505
0.00258024
0.000191854
0.00256322
7.80747e-05
0.00257753
-5.58056e-05
0.00262349
-0.000182687
0.00269088
-0.000263318
0.00275852
-0.000261464
0.00280259
-0.000169926
0.00280871
-2.09015e-05
0.00277725
0.000134383
0.00271894
0.000255385
0.00264702
0.000325128
0.00257259
0.000343333
0.00250422
0.000314688
0.00244986
0.000241484
0.00241886
0.000122745
0.00242195
-3.97266e-05
0.00246781
-0.000228739
0.00255675
-0.000400896
0.00267345
-0.000493535
0.00278569
-0.000456155
0.0028571
-0.000289543
0.00286775
-5.36104e-05
0.00282278
0.00017066
0.00274336
0.000327339
0.00265177
0.000402333
0.00256312
0.000408627
0.00248516
0.000364019
0.00242231
0.000277993
0.002381
0.000149513
0.00237312
-2.52269e-05
0.0024118
-0.000233753
0.00249925
-0.000430111
0.00261846
-0.000545418
0.00273826
-0.000525919
0.00282623
-0.000366899
0.00286033
-0.000117607
0.00283558
0.000142528
0.00276456
0.000340831
0.00266999
0.000441895
0.00257335
0.000451651
0.00248835
0.000396347
0.00242326
0.000295678
0.00238767
0.000151551
0.00239372
-3.78694e-05
0.00244814
-0.000251666
0.00254328
-0.000437495
0.00265699
-0.000533842
0.00276091
-0.000503443
0.00283054
-0.000352113
0.00285234
-0.000124484
0.00282583
0.000116087
0.00276139
0.000310654
0.00267542
0.000423278
0.0025849
0.000447457
0.00250423
0.000396996
0.00244573
0.000288221
0.00242121
0.000130454
0.00243964
-6.44778e-05
0.00250115
-0.000265692
0.00259356
-0.000423742
0.00269533
-0.000491453
0.0027827
-0.000446907
0.00283664
-0.000302826
0.00284762
-9.9832e-05
0.00281697
0.000110071
0.00275486
0.000280672
0.00267581
0.000383404
0.00259449
0.0004097
0.00252409
0.000364658
0.00247673
0.000258023
0.0024631
0.000101431
0.00248911
-8.46866e-05
0.00255142
-0.000264346
0.00263656
-0.00039293
0.00272486
-0.000435106
0.00279653
-0.000380005
0.00283687
-0.0002447
0.0028394
-6.62821e-05
0.00280651
0.000111912
0.00274771
0.000253483
0.00267604
0.000336955
0.00260473
0.000355594
0.00254588
0.000311683
0.00251033
0.000211677
0.00250657
6.74225e-05
0.00253758
-9.81046e-05
0.00259785
-0.00024945
0.00267388
-0.000348423
0.00274825
-0.000369214
0.0028048
-0.000308418
0.00283259
-0.000185031
0.00282782
-3.22088e-05
0.00279389
0.000114223
0.00273963
0.000225883
0.00267652
0.000287135
0.00261621
0.000293815
0.00256938
0.000248328
0.00254515
0.00015679
0.00254964
3.13111e-05
0.00258333
-0.000105871
0.00263934
-0.000223782
0.00270482
-0.000292411
0.00276484
-0.000294529
0.00280666
-0.000231968
0.00282264
-0.000123732
0.00281136
1.74491e-06
0.00277708
0.000115917
0.00272806
0.000197618
0.00267421
0.000236258
0.0026254
0.000230121
0.0025905
0.000182615
0.00257659
0.000100656
0.00258746
-3.36899e-06
0.0026216
-0.000109489
0.00267155
-0.000192986
0.00272572
-0.000232556
0.00277178
-0.000218605
0.00280011
-0.000156609
0.00280583
-6.43164e-05
0.00278927
3.49401e-05
0.00275521
0.000119459
0.00271118
0.000174405
0.00266564
0.000193381
0.00262673
0.000176587
0.00260154
0.00012813
0.0025953
5.52686e-05
0.00260997
-3.01187e-05
0.00264291
-0.00011089
0.00268682
-0.000167951
0.00273157
-0.000186767
0.00276715
-0.000162957
0.00278631
-0.0001039
0.00278597
-2.55244e-05
0.00276749
5.29987e-05
0.00273558
0.000115219
0.00269712
0.000150536
0.00265914
0.000155217
0.00262908
0.00013134
0.00261173
7.97055e-05
0.00261189
2.31338e-05
-9.38184e-05
0.00250148
-1.2813e-05
0.00250614
-3.9766e-05
0.00251491
-7.1359e-05
0.00252918
-0.000109474
0.00255074
-0.000155054
0.00258154
-0.000206867
0.00262327
-0.000261495
0.00267592
-0.000309641
0.00273752
-0.000341157
0.00280032
-0.0003373
0.00285414
-0.000288946
0.00289364
-0.000209293
0.00291488
-0.000105685
0.00291334
1.76618e-05
0.00288479
0.000151994
0.00283021
0.000274259
0.00275814
0.00035545
0.00268089
0.000378473
0.00261125
0.000339149
0.00256092
0.000242181
0.00254022
9.87762e-05
0.00255754
-7.31309e-05
0.00261502
-0.000240161
0.00270086
-0.000349162
0.0027877
-0.000348305
0.00284405
-0.000226269
0.00285156
-2.84156e-05
0.00281229
0.000173651
0.00274164
0.00032604
0.00265675
0.000410019
0.00257039
0.000429687
0.00249125
0.00039383
0.00242694
0.0003058
0.00238602
0.000163657
0.00237847
-3.21754e-05
0.00241568
-0.000265951
0.00250552
-0.000490733
0.00263895
-0.000626968
0.00278108
-0.00059828
0.00288288
-0.000391348
0.00290995
-8.06784e-05
0.0028626
0.000218011
0.00276861
0.000421331
0.00266
0.000510946
0.00255711
0.000511509
0.00246724
0.000453892
0.00239243
0.000352804
0.00234015
0.00020179
0.00232804
-1.31139e-05
0.0023737
-0.000279415
0.00247675
-0.000533164
0.00261314
-0.000681807
0.00274613
-0.000658906
0.00284161
-0.000462381
0.00287836
-0.000154359
0.00285218
0.000168718
0.00277565
0.000417355
0.0026721
0.000545449
0.00256469
0.000559057
0.00246915
0.000491894
0.00239621
0.000368616
0.00235859
0.000189169
0.00237019
-4.94716e-05
0.00243574
-0.000317218
0.00254311
-0.000544859
0.00266657
-0.000657301
0.0027764
-0.000613273
0.00284786
-0.000423581
0.00286741
-0.000144032
0.0028352
0.000148305
0.0027631
0.000382749
0.00266902
0.000517356
0.00257091
0.000545568
0.00248414
0.000483769
0.00242273
0.000349628
0.00240023
0.000152958
0.00242556
-8.98152e-05
0.0024964
-0.000336523
0.00259727
-0.000524614
0.00270467
-0.000598852
0.00279447
-0.000536716
0.00284802
-0.000356372
0.00285593
-0.000107745
0.00281977
0.000146234
0.00275056
0.000349883
0.00266419
0.00046977
0.00257675
0.000497148
0.00250268
0.000438728
0.00245533
0.000305365
0.00244602
0.000110745
0.00247965
-0.000118321
0.0025504
-0.000335089
0.00264218
-0.000484717
0.002734
-0.000526922
0.00280607
-0.000452078
0.00284432
-0.000282949
0.00284276
-6.47198e-05
0.00280418
0.000150495
0.00273876
0.000318905
0.00266061
0.000415099
0.00258432
0.000431887
0.00252332
0.00037268
0.00248953
0.000245473
0.00249151
6.54368e-05
0.00253078
-0.000137378
0.00259925
-0.000317914
0.00268107
-0.000430242
0.00275779
-0.000445936
0.00281347
-0.000364101
0.00283794
-0.000209499
0.00282814
-2.24062e-05
0.00278808
0.000154287
0.00272732
0.000286639
0.00265831
0.000356141
0.00259391
0.000358215
0.00254606
0.000296181
0.00252478
0.000178072
0.00253596
2.01283e-05
0.00257834
-0.00014825
0.00264244
-0.000287885
0.00271326
-0.000363231
0.002775
-0.000356265
0.00281521
-0.00027218
0.0028271
-0.000135625
0.00281012
1.873e-05
0.00276933
0.000156707
0.0027138
0.000253146
0.00265443
0.000295625
0.00260221
0.000282343
0.00256713
0.000217698
0.00255693
0.000110857
0.0025749
-2.13472e-05
0.00261773
-0.000152314
0.0026755
-0.000250761
0.0027347
-0.000291753
0.00278226
-0.000266168
0.00280884
-0.000183183
0.00281031
-6.57922e-05
0.00278792
5.73327e-05
0.00274731
0.000160067
0.00269692
0.000224803
0.00264617
0.000244125
0.00260427
0.000218484
0.00257928
0.000153122
0.00257685
5.76986e-05
0.00259833
-5.15978e-05
0.00263933
-0.000151891
0.00269039
-0.000219007
0.00273973
-0.000236111
0.00277669
-0.000199916
0.0027942
-0.000121413
0.00278986
-2.11836e-05
0.00276583
7.70277e-05
0.00272769
0.000153365
0.00268325
0.000194978
0.00264036
0.0001981
0.00260777
0.00016393
0.00259037
9.71066e-05
0.00259504
1.84627e-05
-0.000123357
0.00250124
-1.40568e-05
0.00250524
-4.37651e-05
0.00251301
-7.91245e-05
0.00252616
-0.000122629
0.00254689
-0.00017578
0.00257781
-0.000237788
0.0026215
-0.000305188
0.00267884
-0.000366977
0.00274848
-0.000410794
0.0028205
-0.000409324
0.00288186
-0.000350308
0.00292719
-0.00025462
0.00295274
-0.000131232
0.00295266
1.7736e-05
0.00292029
0.00018437
0.00285598
0.000338563
0.00277041
0.000441021
0.00267872
0.000470166
0.00259586
0.000422008
0.00253524
0.000302795
0.00250924
0.000124775
0.00252985
-9.37385e-05
0.0026027
-0.000313004
0.00271389
-0.000460361
0.00282647
-0.000460877
0.0028982
-0.000298001
0.00290628
-3.65002e-05
0.00285583
0.0002241
0.00276887
0.000413001
0.00266774
0.000511156
0.00256714
0.000530281
0.00247554
0.000485436
0.00239871
0.000382623
0.00234174
0.00022063
0.00231394
-4.37866e-06
0.00233515
-0.000287163
0.00242448
-0.000580057
0.0025754
-0.000777887
0.00274777
-0.00077065
0.00288414
-0.00052772
0.00293781
-0.00013435
0.00289861
0.000257209
0.00279513
0.000524813
0.00266926
0.000636813
0.00254978
0.000630996
0.0024456
0.000558064
0.00235795
0.000440456
0.00229749
0.000262256
0.00228756
-3.18621e-06
0.00234599
-0.000337844
0.00246569
-0.000652869
0.00261604
-0.000832155
0.00275792
-0.000800789
0.00285734
-0.000561794
0.00289377
-0.000190789
0.00286402
0.000198468
0.00278143
0.000499944
0.0026696
0.000657273
0.00255237
0.000676288
0.00244723
0.000597039
0.00236811
0.000447739
0.00233087
0.000226403
0.00234954
-6.81434e-05
0.00242512
-0.000392797
0.00254107
-0.000660802
0.00266975
-0.000785989
0.00278203
-0.000725552
0.00285412
-0.000495672
0.00287236
-0.00016227
0.00283634
0.000184322
0.00275828
0.000460815
0.00265723
0.000618399
0.00255246
0.000650337
0.0024608
0.000575434
0.00239807
0.000412357
0.0023789
0.000172124
0.00241111
-0.00012202
0.00248932
-0.000414739
0.0025954
-0.000630686
0.00270495
-0.000708401
0.00279456
-0.000626332
0.0028466
-0.00040841
0.00285204
-0.000113189
0.00281219
0.000186087
0.00273803
0.000424046
0.00264616
0.000561636
0.00255398
0.000589333
0.0024775
0.000515204
0.00243141
0.000351455
0.00242715
0.00011501
0.00246792
-0.000159092
0.00254513
-0.000412303
0.00264066
-0.000580251
0.00273308
-0.000619335
0.00280341
-0.000522408
0.00283864
-0.000318187
0.00283341
-5.94881e-05
0.00279061
0.000193298
0.00272051
0.000389001
0.00263779
0.000497822
0.00255813
0.000511544
0.00249641
0.000434402
0.00246556
0.000276324
0.00247382
5.7176e-05
0.00252066
-0.000184216
0.00259528
-0.000392537
0.0026801
-0.000515057
0.00275648
-0.000522321
0.00280941
-0.000417031
0.00282982
-0.000229909
0.00281539
-7.9771e-06
0.00277049
0.000199191
0.00270497
0.000352155
0.00263188
0.000429234
0.0025651
0.000424997
0.00251782
0.000343454
0.0025008
0.00019509
0.00251922
1.71787e-06
0.00256952
-0.000198557
0.00263964
-0.000357999
0.00271302
-0.000436613
0.00277387
-0.000417119
0.00281072
-0.000309032
0.00281789
-0.000142791
0.00279561
4.10139e-05
0.00274946
0.000202848
0.00268901
0.000313601
0.00262583
0.0003588
0.00257195
0.000336232
0.00253842
0.000251229
0.00253338
0.000115894
0.00255909
-4.70613e-05
0.0026099
-0.000203123
0.00267351
-0.000314366
0.0027351
-0.000353351
0.00278174
-0.0003128
0.00280494
-0.000206386
0.0028016
-6.24514e-05
0.00277373
8.52028e-05
0.00272759
0.000206206
0.00267221
0.00028018
0.00261782
0.000298515
0.00257461