/*--------------------------------*- C++ -*----------------------------------*\
  =========                 |
  \\      /  F ield         | OpenFOAM: The Open Source CFD Toolbox
   \\    /   O peration     | Website:  https://openfoam.org
    \\  /    A nd           | Version:  11
     \\/     M anipulation  |
\*---------------------------------------------------------------------------*/
FoamFile
{
    format      ascii;
    class       volScalarField;
    location    "2.359392";
    object      p;
}
// * * * * * * * * * * * * * * * * * * * * * * * * * * * * * * * * * * * * * //

dimensions      [0 2 -2 0 0 0 0];

internalField   nonuniform List<scalar> 
7132
(
0.0513958
0.0499601
0.0451174
0.0380298
0.0281049
0.0150285
-0.00130186
-0.0209137
-0.0433127
-0.0675634
-0.0922331
-0.11537
-0.13569
-0.151944
-0.163105
-0.168576
-0.168162
-0.162222
-0.151655
-0.137757
-0.121965
-0.105606
-0.0897291
-0.0750504
-0.0619738
-0.0506541
-0.0410724
-0.033102
-0.0265614
-0.0212497
-0.0169697
-0.0135406
-0.0108038
-0.00862469
-0.00689143
-0.00551281
-0.00441532
-0.00354023
-0.00284075
-0.00227958
-0.00182707
-0.00145997
-0.00116063
-0.000916234
-0.000717632
-0.00055779
-0.000430556
-0.000330199
-0.000251596
-0.000190506
-0.000143537
-0.00010788
-8.10941e-05
-6.10656e-05
-4.6055e-05
-3.47292e-05
-2.61257e-05
-1.9569e-05
-1.45792e-05
-1.0801e-05
-7.95934e-06
-5.8362e-06
-4.25888e-06
-3.09189e-06
-2.23078e-06
-1.59613e-06
-1.12857e-06
-7.84028e-07
-5.30156e-07
-3.431e-07
-2.05419e-07
-1.04125e-07
-2.97345e-08
2.4893e-08
6.49003e-08
9.42055e-08
1.15555e-07
1.31102e-07
1.42288e-07
1.50316e-07
1.55928e-07
1.59812e-07
1.62333e-07
1.63906e-07
1.64686e-07
1.64942e-07
1.64718e-07
1.642e-07
1.63375e-07
1.62384e-07
1.61181e-07
1.59886e-07
1.58432e-07
1.56927e-07
1.55295e-07
1.53637e-07
1.51872e-07
1.50096e-07
1.48225e-07
1.46352e-07
1.44394e-07
1.42441e-07
1.40409e-07
1.38387e-07
1.36291e-07
1.34209e-07
1.32056e-07
1.29921e-07
1.27718e-07
1.25536e-07
1.23289e-07
1.21065e-07
1.18779e-07
1.16516e-07
1.14195e-07
1.11898e-07
1.09545e-07
1.07218e-07
1.04837e-07
1.02482e-07
1.00075e-07
9.76952e-08
9.52648e-08
9.28624e-08
9.0411e-08
8.79879e-08
8.55173e-08
8.30754e-08
8.05874e-08
7.81283e-08
7.56243e-08
7.31494e-08
7.06308e-08
6.81415e-08
6.56097e-08
6.31072e-08
6.05633e-08
5.80488e-08
5.54939e-08
5.29684e-08
5.04035e-08
4.78681e-08
4.5294e-08
4.27496e-08
4.01669e-08
3.76143e-08
3.50234e-08
3.24634e-08
2.98638e-08
2.72985e-08
2.46894e-08
2.21222e-08
1.95032e-08
1.69402e-08
1.43025e-08
1.17754e-08
9.03812e-09
6.69542e-09
3.51783e-09
2.5127e-09
0.0519682
0.0505444
0.0457434
0.0386995
0.0288099
0.0157323
-0.000661036
-0.020437
-0.0431018
-0.0677177
-0.0927806
-0.116224
-0.136798
-0.153243
-0.164516
-0.170011
-0.169517
-0.163391
-0.152557
-0.138354
-0.122267
-0.105657
-0.0895916
-0.0747898
-0.0616469
-0.0503049
-0.0407312
-0.0327876
-0.0262832
-0.0210108
-0.0167691
-0.0133751
-0.010669
-0.00851594
-0.00680432
-0.00544336
-0.00436012
-0.00349642
-0.00280599
-0.00225197
-0.00180509
-0.00144237
-0.00114643
-0.000904674
-0.00070815
-0.000549987
-0.00042415
-0.000324969
-0.000247352
-0.00018708
-0.000140784
-0.000105684
-7.93653e-05
-5.97267e-05
-4.50355e-05
-3.39633e-05
-2.55548e-05
-1.91448e-05
-1.42646e-05
-1.05681e-05
-7.78732e-06
-5.70919e-06
-4.16492e-06
-3.0221e-06
-2.17873e-06
-1.55722e-06
-1.09951e-06
-7.62395e-07
-5.14145e-07
-3.3131e-07
-1.96766e-07
-9.77796e-08
-2.50771e-08
2.8317e-08
6.74201e-08
9.60613e-08
1.16921e-07
1.32107e-07
1.43027e-07
1.50861e-07
1.56328e-07
1.60108e-07
1.62551e-07
1.64067e-07
1.64805e-07
1.65031e-07
1.64783e-07
1.6425e-07
1.6341e-07
1.62412e-07
1.61201e-07
1.59902e-07
1.58443e-07
1.56937e-07
1.55301e-07
1.53643e-07
1.51875e-07
1.501e-07
1.48226e-07
1.46355e-07
1.44394e-07
1.42443e-07
1.40409e-07
1.38389e-07
1.3629e-07
1.3421e-07
1.32055e-07
1.29922e-07
1.27717e-07
1.25537e-07
1.23288e-07
1.21065e-07
1.18777e-07
1.16517e-07
1.14193e-07
1.11899e-07
1.09544e-07
1.07219e-07
1.04835e-07
1.02482e-07
1.00073e-07
9.76956e-08
9.52629e-08
9.28628e-08
9.04091e-08
8.79883e-08
8.55154e-08
8.30758e-08
8.05855e-08
7.81286e-08
7.56224e-08
7.31498e-08
7.0629e-08
6.81419e-08
6.56079e-08
6.31076e-08
6.05615e-08
5.80492e-08
5.54921e-08
5.29689e-08
5.04018e-08
4.78686e-08
4.52924e-08
4.27501e-08
4.01654e-08
3.76149e-08
3.50219e-08
3.24641e-08
2.98624e-08
2.72992e-08
2.46878e-08
2.21228e-08
1.95016e-08
1.69412e-08
1.4301e-08
1.17775e-08
9.0353e-09
6.70135e-09
3.50206e-09
2.54442e-09
0.0531078
0.0517092
0.0469935
0.0400422
0.0302287
0.0171554
0.000641757
-0.0194621
-0.0426643
-0.0680286
-0.0938951
-0.117955
-0.139038
-0.155867
-0.167367
-0.172916
-0.172263
-0.165763
-0.154387
-0.139563
-0.122873
-0.105753
-0.0893079
-0.0742589
-0.0609844
-0.0495997
-0.0400443
-0.0321559
-0.0257253
-0.0205325
-0.0163682
-0.0130445
-0.0104
-0.00829914
-0.00663079
-0.0053051
-0.0042503
-0.00340934
-0.00273701
-0.00219732
-0.00176171
-0.00140777
-0.00111859
-0.000882011
-0.000689495
-0.00053453
-0.000411349
-0.000314439
-0.00023878
-0.000180182
-0.000135301
-0.000101384
-7.60432e-05
-5.71982e-05
-4.31332e-05
-3.25386e-05
-2.4485e-05
-1.83368e-05
-1.36519e-05
-1.01039e-05
-7.43721e-06
-5.44688e-06
-3.96955e-06
-2.87718e-06
-2.07144e-06
-1.47782e-06
-1.04074e-06
-7.18913e-07
-4.82005e-07
-3.07595e-07
-1.79299e-07
-8.49345e-08
-1.5638e-08
3.5252e-08
7.25163e-08
9.98074e-08
1.19675e-07
1.34132e-07
1.44516e-07
1.51956e-07
1.57133e-07
1.60701e-07
1.62987e-07
1.64389e-07
1.65042e-07
1.65206e-07
1.64912e-07
1.64346e-07
1.63482e-07
1.62466e-07
1.61241e-07
1.59932e-07
1.58465e-07
1.56954e-07
1.55314e-07
1.53654e-07
1.51883e-07
1.50106e-07
1.48231e-07
1.4636e-07
1.44398e-07
1.42447e-07
1.40411e-07
1.38392e-07
1.36292e-07
1.34212e-07
1.32057e-07
1.29924e-07
1.27719e-07
1.25539e-07
1.23289e-07
1.21067e-07
1.18778e-07
1.16519e-07
1.14194e-07
1.11901e-07
1.09545e-07
1.0722e-07
1.04836e-07
1.02484e-07
1.00074e-07
9.76973e-08
9.52639e-08
9.28644e-08
9.04099e-08
8.79898e-08
8.55162e-08
8.30773e-08
8.05862e-08
7.81301e-08
7.56231e-08
7.31512e-08
7.06296e-08
6.81433e-08
6.56085e-08
6.31089e-08
6.05621e-08
5.80505e-08
5.54926e-08
5.29701e-08
5.04022e-08
4.78697e-08
4.52927e-08
4.27512e-08
4.01657e-08
3.76159e-08
3.50221e-08
3.24651e-08
2.98626e-08
2.73001e-08
2.46879e-08
2.21236e-08
1.95015e-08
1.69421e-08
1.43004e-08
1.17798e-08
9.03121e-09
6.70985e-09
3.47596e-09
2.59357e-09
0.0548049
0.0534463
0.0488656
0.0420637
0.0323788
0.0193285
0.00264849
-0.0179465
-0.0419709
-0.0685054
-0.0956227
-0.120612
-0.142465
-0.159878
-0.171726
-0.17736
-0.176464
-0.169383
-0.157163
-0.141376
-0.123759
-0.105863
-0.088844
-0.0734278
-0.059963
-0.0485219
-0.039001
-0.0312011
-0.0248854
-0.0198147
-0.015768
-0.0125509
-0.00999906
-0.00797646
-0.00637278
-0.00509972
-0.00408724
-0.00328006
-0.00263456
-0.00211609
-0.00169714
-0.00135618
-0.00107699
-0.000848075
-0.000661508
-0.000511308
-0.0003921
-0.000298599
-0.000225888
-0.00016982
-0.00012708
-9.49555e-05
-7.10943e-05
-5.3447e-05
-4.03219e-05
-3.04397e-05
-2.29119e-05
-1.7149e-05
-1.27502e-05
-9.41902e-06
-6.91878e-06
-5.05646e-06
-3.677e-06
-2.65889e-06
-1.90906e-06
-1.35732e-06
-9.51483e-07
-6.52912e-07
-4.33287e-07
-2.7169e-07
-1.52873e-07
-6.54988e-08
-1.35153e-09
4.57534e-08
8.02336e-08
1.0548e-07
1.23842e-07
1.37195e-07
1.46765e-07
1.53609e-07
1.58346e-07
1.61593e-07
1.63641e-07
1.6487e-07
1.65394e-07
1.65466e-07
1.65101e-07
1.64486e-07
1.63583e-07
1.62541e-07
1.61294e-07
1.59972e-07
1.58493e-07
1.56975e-07
1.55328e-07
1.53665e-07
1.51889e-07
1.50112e-07
1.48233e-07
1.46362e-07
1.44398e-07
1.42447e-07
1.4041e-07
1.38391e-07
1.3629e-07
1.34212e-07
1.32055e-07
1.29923e-07
1.27717e-07
1.25538e-07
1.23287e-07
1.21066e-07
1.18776e-07
1.16518e-07
1.14192e-07
1.119e-07
1.09543e-07
1.0722e-07
1.04834e-07
1.02484e-07
1.00072e-07
9.76967e-08
9.52623e-08
9.28639e-08
9.04085e-08
8.79894e-08
8.55149e-08
8.3077e-08
8.0585e-08
7.81298e-08
7.56219e-08
7.31509e-08
7.06285e-08
6.81431e-08
6.56074e-08
6.31088e-08
6.0561e-08
5.80504e-08
5.54916e-08
5.297e-08
5.04013e-08
4.78697e-08
4.52919e-08
4.27513e-08
4.01649e-08
3.7616e-08
3.50214e-08
3.24652e-08
2.98618e-08
2.73002e-08
2.46871e-08
2.21238e-08
1.95005e-08
1.69427e-08
1.42988e-08
1.1782e-08
9.02551e-09
6.71961e-09
3.44618e-09
2.64837e-09
0.0570436
0.0557423
0.0513546
0.044772
0.0352861
0.0222989
0.00542574
-0.0158206
-0.0409707
-0.0691614
-0.0980346
-0.124269
-0.147157
-0.165361
-0.17769
-0.183456
-0.18224
-0.174361
-0.160967
-0.143837
-0.124932
-0.105967
-0.0881693
-0.0722641
-0.0585543
-0.0470502
-0.0375868
-0.0299146
-0.0237592
-0.0188563
-0.0149693
-0.0118959
-0.00946821
-0.00755004
-0.00603236
-0.00482905
-0.00387253
-0.00310993
-0.00249977
-0.0020092
-0.00161216
-0.00128824
-0.00102218
-0.00080335
-0.000624614
-0.000480693
-0.000366724
-0.000277723
-0.000208911
-0.000156196
-0.000116304
-8.65675e-05
-6.46766e-05
-4.86148e-05
-3.67211e-05
-2.77589e-05
-2.09004e-05
-1.56233e-05
-1.1585e-05
-8.52889e-06
-6.24219e-06
-4.54576e-06
-3.29415e-06
-2.37349e-06
-1.69718e-06
-1.20045e-06
-8.35536e-07
-5.67308e-07
-3.70146e-07
-2.25161e-07
-1.18618e-07
-4.02986e-08
1.71763e-08
5.93724e-08
9.02418e-08
1.12836e-07
1.29247e-07
1.41168e-07
1.49685e-07
1.55755e-07
1.59923e-07
1.62753e-07
1.64494e-07
1.65498e-07
1.65856e-07
1.65806e-07
1.65351e-07
1.64671e-07
1.63718e-07
1.62642e-07
1.61368e-07
1.60027e-07
1.58533e-07
1.57006e-07
1.5535e-07
1.53682e-07
1.51901e-07
1.50122e-07
1.4824e-07
1.46368e-07
1.44402e-07
1.42451e-07
1.40412e-07
1.38394e-07
1.36292e-07
1.34214e-07
1.32056e-07
1.29925e-07
1.27717e-07
1.25539e-07
1.23288e-07
1.21068e-07
1.18777e-07
1.16519e-07
1.14193e-07
1.11901e-07
1.09543e-07
1.07221e-07
1.04835e-07
1.02485e-07
1.00073e-07
9.76977e-08
9.52626e-08
9.28649e-08
9.04087e-08
8.79904e-08
8.55151e-08
8.30779e-08
8.05852e-08
7.81307e-08
7.56221e-08
7.31518e-08
7.06286e-08
6.81439e-08
6.56075e-08
6.31096e-08
6.05611e-08
5.80511e-08
5.54917e-08
5.29708e-08
5.04014e-08
4.78705e-08
4.52919e-08
4.2752e-08
4.0165e-08
3.76167e-08
3.50214e-08
3.24659e-08
2.98618e-08
2.73009e-08
2.46869e-08
2.21244e-08
1.95e-08
1.69435e-08
1.42975e-08
1.17847e-08
9.01994e-09
6.72983e-09
3.41889e-09
2.69834e-09
0.0598014
0.0585781
0.0544519
0.0481759
0.0389842
0.0261309
0.00906605
-0.0129853
-0.0395908
-0.0700231
-0.101243
-0.12903
-0.153224
-0.172439
-0.185398
-0.191356
-0.189726
-0.180789
-0.165833
-0.146926
-0.126337
-0.105994
-0.0872132
-0.0707073
-0.0567122
-0.0451523
-0.0357819
-0.028286
-0.0223431
-0.0176577
-0.0139751
-0.0110836
-0.00881209
-0.00702434
-0.00561353
-0.00449652
-0.00360898
-0.00290115
-0.00233428
-0.00187783
-0.00150752
-0.0012044
-0.000954392
-0.000747929
-0.000578854
-0.00044272
-0.000335268
-0.000251867
-0.000187906
-0.000139362
-0.000103018
-7.62606e-05
-5.68285e-05
-4.27396e-05
-3.23669e-05
-2.45281e-05
-1.84765e-05
-1.37804e-05
-1.01729e-05
-7.44755e-06
-5.41909e-06
-3.924e-06
-2.82776e-06
-2.02563e-06
-1.43884e-06
-1.00915e-06
-6.94169e-07
-4.62979e-07
-2.93235e-07
-1.68514e-07
-7.69305e-08
-9.63761e-09
3.97169e-08
7.59405e-08
1.02417e-07
1.21783e-07
1.35822e-07
1.46e-07
1.53235e-07
1.58365e-07
1.61841e-07
1.64164e-07
1.6553e-07
1.66261e-07
1.66416e-07
1.66219e-07
1.65654e-07
1.64895e-07
1.63882e-07
1.62763e-07
1.61457e-07
1.60094e-07
1.58581e-07
1.57042e-07
1.55376e-07
1.53702e-07
1.51915e-07
1.50132e-07
1.48247e-07
1.46374e-07
1.44405e-07
1.42455e-07
1.40414e-07
1.38396e-07
1.36292e-07
1.34215e-07
1.32056e-07
1.29925e-07
1.27717e-07
1.2554e-07
1.23287e-07
1.21068e-07
1.18776e-07
1.16519e-07
1.14192e-07
1.11901e-07
1.09543e-07
1.07221e-07
1.04834e-07
1.02485e-07
1.00072e-07
9.7698e-08
9.52621e-08
9.28652e-08
9.04082e-08
8.79907e-08
8.55146e-08
8.30782e-08
8.05847e-08
7.81311e-08
7.56217e-08
7.31522e-08
7.06282e-08
6.81443e-08
6.56071e-08
6.31099e-08
6.05607e-08
5.80515e-08
5.54913e-08
5.29711e-08
5.0401e-08
4.78708e-08
4.52916e-08
4.27523e-08
4.01646e-08
3.76171e-08
3.50211e-08
3.24663e-08
2.98615e-08
2.73012e-08
2.46864e-08
2.21247e-08
1.94992e-08
1.69442e-08
1.4296e-08
1.17872e-08
9.01452e-09
6.73934e-09
3.39634e-09
2.73903e-09
0.0630475
0.0619269
0.0581439
0.0522836
0.0435135
0.0309075
0.0136942
-0.00930038
-0.037724
-0.071131
-0.105408
-0.135038
-0.160803
-0.181259
-0.195022
-0.201284
-0.199172
-0.188902
-0.171933
-0.150728
-0.127981
-0.105904
-0.0859137
-0.0686955
-0.0543854
-0.0427915
-0.0335628
-0.0263024
-0.0206314
-0.0162183
-0.0127875
-0.0101176
-0.00803456
-0.0064032
-0.00511982
-0.00410524
-0.00329926
-0.00265595
-0.00213992
-0.00172342
-0.00138438
-0.00110557
-0.000874376
-0.00068246
-0.000524803
-0.000397908
-0.000298197
-0.000221445
-0.000163231
-0.000119626
-8.74891e-05
-6.42738e-05
-4.77665e-05
-3.60136e-05
-2.74208e-05
-2.08727e-05
-1.57297e-05
-1.16798e-05
-8.5527e-06
-6.20077e-06
-4.46785e-06
-3.20515e-06
-2.28894e-06
-1.62429e-06
-1.14129e-06
-7.89208e-07
-5.31876e-07
-3.43346e-07
-2.0511e-07
-1.03638e-07
-2.91966e-08
2.54673e-08
6.55237e-08
9.49084e-08
1.16356e-07
1.32027e-07
1.4335e-07
1.51533e-07
1.57301e-07
1.61355e-07
1.64039e-07
1.65781e-07
1.66719e-07
1.67137e-07
1.67061e-07
1.66695e-07
1.66005e-07
1.65154e-07
1.64073e-07
1.62905e-07
1.61561e-07
1.60172e-07
1.58639e-07
1.57086e-07
1.55408e-07
1.53727e-07
1.51933e-07
1.50147e-07
1.48258e-07
1.46383e-07
1.44412e-07
1.4246e-07
1.40418e-07
1.384e-07
1.36295e-07
1.34218e-07
1.32057e-07
1.29928e-07
1.27718e-07
1.25542e-07
1.23288e-07
1.2107e-07
1.18777e-07
1.16521e-07
1.14193e-07
1.11903e-07
1.09543e-07
1.07222e-07
1.04835e-07
1.02486e-07
1.00073e-07
9.76992e-08
9.52626e-08
9.28664e-08
9.04087e-08
8.79919e-08
8.55151e-08
8.30793e-08
8.05852e-08
7.81321e-08
7.5622e-08
7.31532e-08
7.06286e-08
6.81452e-08
6.56074e-08
6.31108e-08
6.0561e-08
5.80523e-08
5.54916e-08
5.29719e-08
5.04012e-08
4.78716e-08
4.52917e-08
4.27531e-08
4.01648e-08
3.76179e-08
3.50213e-08
3.2467e-08
2.98616e-08
2.73019e-08
2.46864e-08
2.21253e-08
1.94988e-08
1.69451e-08
1.42948e-08
1.17898e-08
9.01001e-09
6.74782e-09
3.37912e-09
2.77011e-09
0.0667414
0.0657526
0.0624091
0.0570992
0.0489181
0.0367295
0.0194692
-0.00457754
-0.0352233
-0.0725601
-0.110766
-0.142467
-0.170061
-0.192014
-0.206791
-0.213479
-0.210778
-0.19882
-0.179294
-0.155191
-0.12976
-0.105574
-0.0841563
-0.066135
-0.0515055
-0.0399229
-0.0309039
-0.0239522
-0.0186223
-0.0145417
-0.0114132
-0.00900578
-0.00714361
-0.005694
-0.00455766
-0.0036606
-0.00294769
-0.00237769
-0.00191921
-0.00154778
-0.00124395
-0.00099255
-0.000782612
-0.000607243
-0.00046267
-0.000346427
-0.000255667
-0.000186592
-0.000135001
-9.7086e-05
-6.98075e-05
-5.06973e-05
-3.75856e-05
-2.85337e-05
-2.19723e-05
-1.68652e-05
-1.27124e-05
-9.35672e-06
-6.74839e-06
-4.80677e-06
-3.4033e-06
-2.40135e-06
-1.68726e-06
-1.17673e-06
-8.09847e-07
-5.44473e-07
-3.51451e-07
-2.10443e-07
-1.07269e-07
-3.1644e-08
2.37526e-08
6.43955e-08
9.41348e-08
1.15934e-07
1.31805e-07
1.4338e-07
1.51692e-07
1.57665e-07
1.61808e-07
1.64669e-07
1.66475e-07
1.67573e-07
1.68038e-07
1.68108e-07
1.67775e-07
1.67222e-07
1.66393e-07
1.65441e-07
1.64285e-07
1.63062e-07
1.61677e-07
1.60259e-07
1.58703e-07
1.57134e-07
1.55444e-07
1.53754e-07
1.51954e-07
1.50163e-07
1.48269e-07
1.46392e-07
1.44419e-07
1.42466e-07
1.40422e-07
1.38404e-07
1.36298e-07
1.34221e-07
1.32059e-07
1.2993e-07
1.2772e-07
1.25543e-07
1.23289e-07
1.21071e-07
1.18778e-07
1.16522e-07
1.14194e-07
1.11904e-07
1.09544e-07
1.07224e-07
1.04835e-07
1.02487e-07
1.00073e-07
9.77004e-08
9.52631e-08
9.28675e-08
9.04092e-08
8.79929e-08
8.55155e-08
8.30803e-08
8.05855e-08
7.81331e-08
7.56224e-08
7.31541e-08
7.06289e-08
6.81461e-08
6.56076e-08
6.31116e-08
6.05612e-08
5.80531e-08
5.54917e-08
5.29727e-08
5.04013e-08
4.78723e-08
4.52918e-08
4.27538e-08
4.01648e-08
3.76185e-08
3.50213e-08
3.24676e-08
2.98616e-08
2.73024e-08
2.46862e-08
2.21258e-08
1.94982e-08
1.69458e-08
1.42936e-08
1.1792e-08
9.00619e-09
6.7549e-09
3.36633e-09
2.7929e-09
0.0708312
0.0700081
0.0672157
0.0626208
0.0552446
0.0437188
0.0265962
0.00144611
-0.031875
-0.0744239
-0.11766
-0.151559
-0.181196
-0.204887
-0.220943
-0.228336
-0.225045
-0.211025
-0.188249
-0.160458
-0.13167
-0.104917
-0.0818294
-0.0629236
-0.0479941
-0.0364938
-0.0277739
-0.0212201
-0.0163107
-0.0126292
-0.00985655
-0.00775385
-0.00614526
-0.00490244
-0.0039322
-0.00316705
-0.00255808
-0.00206955
-0.00167474
-0.001353
-0.00108792
-0.000866684
-0.00068023
-0.000523254
-0.00039333
-0.000289073
-0.000208389
-0.000147931
-0.000103738
-7.21779e-05
-5.03432e-05
-3.58585e-05
-2.65829e-05
-2.05649e-05
-1.62433e-05
-1.26744e-05
-9.54018e-06
-6.8847e-06
-4.80662e-06
-3.2973e-06
-2.24915e-06
-1.53111e-06
-1.03727e-06
-6.94327e-07
-4.53394e-07
-2.81787e-07
-1.58102e-07
-6.81871e-08
-2.62647e-09
4.5313e-08
8.0332e-08
1.05983e-07
1.24696e-07
1.38391e-07
1.48306e-07
1.55506e-07
1.60603e-07
1.64215e-07
1.66622e-07
1.6821e-07
1.69079e-07
1.6949e-07
1.69448e-07
1.69148e-07
1.68541e-07
1.67787e-07
1.6681e-07
1.6575e-07
1.64513e-07
1.63232e-07
1.61803e-07
1.60353e-07
1.58773e-07
1.57187e-07
1.55484e-07
1.53785e-07
1.51977e-07
1.50182e-07
1.48283e-07
1.46404e-07
1.44427e-07
1.42474e-07
1.40428e-07
1.38409e-07
1.36302e-07
1.34225e-07
1.32062e-07
1.29933e-07
1.27722e-07
1.25546e-07
1.23291e-07
1.21074e-07
1.1878e-07
1.16524e-07
1.14195e-07
1.11906e-07
1.09545e-07
1.07226e-07
1.04837e-07
1.02489e-07
1.00074e-07
9.77021e-08
9.52642e-08
9.28691e-08
9.04103e-08
8.79945e-08
8.55165e-08
8.30818e-08
8.05865e-08
7.81345e-08
7.56233e-08
7.31554e-08
7.06296e-08
6.81473e-08
6.56083e-08
6.31128e-08
6.05618e-08
5.80541e-08
5.54923e-08
5.29736e-08
5.04018e-08
4.78732e-08
4.52923e-08
4.27546e-08
4.01653e-08
3.76193e-08
3.50217e-08
3.24684e-08
2.98619e-08
2.73032e-08
2.46863e-08
2.21264e-08
1.9498e-08
1.69465e-08
1.42927e-08
1.17941e-08
9.00329e-09
6.76077e-09
3.35717e-09
2.80939e-09
0.0752514
0.0746323
0.0725173
0.0688324
0.0625328
0.0520095
0.0353221
0.00911653
-0.0273939
-0.0769377
-0.126574
-0.162554
-0.194438
-0.220182
-0.237817
-0.246058
-0.242152
-0.225612
-0.19879
-0.166423
-0.133538
-0.103747
-0.0787652
-0.0589322
-0.0437634
-0.0324524
-0.0241484
-0.0180999
-0.0137016
-0.0104919
-0.00813117
-0.0063756
-0.00505225
-0.00403963
-0.0032527
-0.00263211
-0.00213632
-0.00173601
-0.00140983
-0.00114146
-0.000917911
-0.000729059
-0.000567946
-0.000430998
-0.000317175
-0.000226173
-0.000156639
-0.000105681
-6.96119e-05
-4.50324e-05
-2.9214e-05
-1.9886e-05
-1.49083e-05
-1.22689e-05
-1.03844e-05
-8.41807e-06
-6.29122e-06
-4.31029e-06
-2.75622e-06
-1.69391e-06
-1.02381e-06
-6.10073e-07
-3.51495e-07
-1.86639e-07
-7.90383e-08
-6.39397e-09
4.43269e-08
8.06092e-08
1.06753e-07
1.25711e-07
1.39415e-07
1.49395e-07
1.5659e-07
1.61822e-07
1.6552e-07
1.68154e-07
1.69897e-07
1.71047e-07
1.71644e-07
1.71903e-07
1.71796e-07
1.7149e-07
1.7092e-07
1.70233e-07
1.6934e-07
1.68378e-07
1.67246e-07
1.66073e-07
1.64752e-07
1.6341e-07
1.61935e-07
1.60452e-07
1.58847e-07
1.57243e-07
1.55526e-07
1.53817e-07
1.52001e-07
1.50201e-07
1.48298e-07
1.46416e-07
1.44437e-07
1.42482e-07
1.40434e-07
1.38415e-07
1.36306e-07
1.34229e-07
1.32066e-07
1.29937e-07
1.27725e-07
1.25549e-07
1.23294e-07
1.21077e-07
1.18782e-07
1.16527e-07
1.14197e-07
1.11908e-07
1.09547e-07
1.07228e-07
1.04838e-07
1.02491e-07
1.00076e-07
9.77039e-08
9.52656e-08
9.28709e-08
9.04115e-08
8.79961e-08
8.55177e-08
8.30834e-08
8.05876e-08
7.8136e-08
7.56242e-08
7.31567e-08
7.06305e-08
6.81485e-08
6.56091e-08
6.31139e-08
6.05625e-08
5.80552e-08
5.54929e-08
5.29746e-08
5.04024e-08
4.78741e-08
4.52928e-08
4.27555e-08
4.01657e-08
3.76201e-08
3.50221e-08
3.24692e-08
2.98622e-08
2.73038e-08
2.46864e-08
2.2127e-08
1.94978e-08
1.69472e-08
1.42919e-08
1.17959e-08
9.00103e-09
6.76542e-09
3.35059e-09
2.82117e-09
0.0799216
0.0795486
0.0782494
0.0757018
0.0708134
0.0617576
0.045963
0.018935
-0.0213484
-0.0804032
-0.138293
-0.175877
-0.209948
-0.23798
-0.257751
-0.267793
-0.263236
-0.243559
-0.211516
-0.173291
-0.135305
-0.101885
-0.0747713
-0.0540035
-0.0387043
-0.0277323
-0.0199926
-0.0145779
-0.0107939
-0.00813483
-0.00624511
-0.00487989
-0.00387316
-0.00311338
-0.00252605
-0.00206168
-0.00168742
-0.00138128
-0.00112795
-0.000915991
-0.000736269
-0.000581641
-0.000447472
-0.000331996
-0.000235584
-0.00015897
-0.000101505
-6.07461e-05
-3.33534e-05
-1.62353e-05
-6.90877e-06
-3.21681e-06
-2.96952e-06
-4.0177e-06
-4.70581e-06
-4.32257e-06
-3.10918e-06
-1.71558e-06
-6.45269e-07
-3.02321e-08
2.45512e-07
3.39449e-07
3.52533e-07
3.32953e-07
3.03098e-07
2.7408e-07
2.50133e-07
2.31714e-07
2.17747e-07
2.0725e-07
1.99313e-07
1.93394e-07
1.88908e-07
1.85562e-07
1.8296e-07
1.8097e-07
1.79315e-07
1.7797e-07
1.76735e-07
1.75648e-07
1.74551e-07
1.73519e-07
1.72414e-07
1.71335e-07
1.70153e-07
1.68979e-07
1.6769e-07
1.66402e-07
1.64996e-07
1.63592e-07
1.62071e-07
1.60554e-07
1.58923e-07
1.57302e-07
1.5557e-07
1.53852e-07
1.52028e-07
1.50222e-07
1.48315e-07
1.4643e-07
1.44448e-07
1.42492e-07
1.40442e-07
1.38422e-07
1.36312e-07
1.34235e-07
1.3207e-07
1.29941e-07
1.27729e-07
1.25553e-07
1.23297e-07
1.2108e-07
1.18785e-07
1.1653e-07
1.142e-07
1.11911e-07
1.09549e-07
1.0723e-07
1.0484e-07
1.02494e-07
1.00078e-07
9.77062e-08
9.52674e-08
9.28729e-08
9.04132e-08
8.79981e-08
8.55193e-08
8.30852e-08
8.05891e-08
7.81377e-08
7.56256e-08
7.31583e-08
7.06317e-08
6.815e-08
6.56102e-08
6.31152e-08
6.05635e-08
5.80564e-08
5.54938e-08
5.29758e-08
5.04032e-08
4.78752e-08
4.52935e-08
4.27565e-08
4.01663e-08
3.76211e-08
3.50226e-08
3.247e-08
2.98626e-08
2.73046e-08
2.46867e-08
2.21276e-08
1.94978e-08
1.69479e-08
1.42914e-08
1.17974e-08
8.99942e-09
6.76913e-09
3.34596e-09
2.82961e-09
0.0847443
0.0846607
0.0843228
0.0831627
0.0800856
0.0730981
0.0588657
0.0315371
-0.0132169
-0.0854488
-0.153652
-0.191749
-0.228194
-0.258835
-0.281019
-0.29242
-0.288126
-0.264867
-0.226395
-0.180904
-0.136715
-0.099061
-0.0696188
-0.0479755
-0.0327189
-0.0222867
-0.0152949
-0.0106634
-0.00760748
-0.00558233
-0.00422256
-0.00328879
-0.00262694
-0.0021393
-0.0017647
-0.00146545
-0.00121872
-0.00101078
-0.000833017
-0.000679353
-0.000544877
-0.000425717
-0.00031972
-0.000226959
-0.000149169
-8.80002e-05
-4.34174e-05
-1.34383e-05
4.83833e-06
1.40858e-05
1.64571e-05
1.39941e-05
9.01935e-06
3.93845e-06
5.56094e-07
-5.65791e-07
-1.00339e-07
8.45677e-07
1.49618e-06
1.669e-06
1.53498e-06
1.29664e-06
1.05868e-06
8.52711e-07
6.84566e-07
5.53511e-07
4.54869e-07
3.81901e-07
3.28002e-07
2.88206e-07
2.58755e-07
2.3704e-07
2.20958e-07
2.09101e-07
2.00251e-07
1.93673e-07
1.8865e-07
1.84833e-07
1.81782e-07
1.79361e-07
1.77283e-07
1.75531e-07
1.73897e-07
1.72428e-07
1.7096e-07
1.69575e-07
1.68131e-07
1.6673e-07
1.6524e-07
1.63774e-07
1.62206e-07
1.60656e-07
1.59e-07
1.5736e-07
1.55614e-07
1.53887e-07
1.52055e-07
1.50244e-07
1.48332e-07
1.46444e-07
1.44459e-07
1.42501e-07
1.4045e-07
1.38429e-07
1.36318e-07
1.3424e-07
1.32075e-07
1.29946e-07
1.27733e-07
1.25557e-07
1.23301e-07
1.21084e-07
1.18788e-07
1.16533e-07
1.14203e-07
1.11914e-07
1.09552e-07
1.07233e-07
1.04843e-07
1.02496e-07
1.0008e-07
9.77086e-08
9.52695e-08
9.28752e-08
9.04152e-08
8.80002e-08
8.55211e-08
8.30873e-08
8.05908e-08
7.81396e-08
7.56272e-08
7.31601e-08
7.06332e-08
6.81516e-08
6.56115e-08
6.31167e-08
6.05646e-08
5.80578e-08
5.54948e-08
5.2977e-08
5.04041e-08
4.78763e-08
4.52944e-08
4.27575e-08
4.01671e-08
3.7622e-08
3.50233e-08
3.24709e-08
2.98632e-08
2.73054e-08
2.46871e-08
2.21283e-08
1.94978e-08
1.69486e-08
1.4291e-08
1.17987e-08
8.99824e-09
6.772e-09
3.34269e-09
2.83561e-09
0.0896048
0.089854
0.0906198
0.0911192
0.0903132
0.086191
0.0744881
0.0479582
-0.00207003
-0.0930149
-0.175006
-0.210665
-0.248444
-0.282365
-0.308675
-0.324333
-0.319637
-0.291505
-0.244449
-0.189493
-0.137551
-0.0949184
-0.0629849
-0.0406178
-0.025667
-0.0160424
-0.0100245
-0.00635011
-0.00414862
-0.00284575
-0.00207638
-0.00161474
-0.0013249
-0.00112736
-0.000977293
-0.000850834
-0.000736527
-0.000629823
-0.000529481
-0.000435276
-0.000346912
-0.000264066
-0.000187205
-0.00011824
-6.00935e-05
-1.51779e-05
1.60062e-05
3.49481e-05
4.39782e-05
4.51774e-05
4.02633e-05
3.11753e-05
2.04993e-05
1.10751e-05
4.96792e-06
2.55347e-06
2.56883e-06
3.29573e-06
3.62777e-06
3.37099e-06
2.81295e-06
2.23426e-06
1.74628e-06
1.35774e-06
1.05456e-06
8.23953e-07
6.52709e-07
5.26916e-07
4.34413e-07
3.66305e-07
3.16075e-07
2.79116e-07
2.5185e-07
2.31787e-07
2.16914e-07
2.05917e-07
1.9765e-07
1.9145e-07
1.86649e-07
1.82943e-07
1.7992e-07
1.77474e-07
1.75329e-07
1.73486e-07
1.71741e-07
1.70154e-07
1.6856e-07
1.67048e-07
1.65477e-07
1.63951e-07
1.62339e-07
1.60757e-07
1.59076e-07
1.57419e-07
1.55659e-07
1.53921e-07
1.52082e-07
1.50265e-07
1.48349e-07
1.46459e-07
1.44471e-07
1.42512e-07
1.40459e-07
1.38437e-07
1.36325e-07
1.34247e-07
1.32081e-07
1.29951e-07
1.27737e-07
1.25562e-07
1.23305e-07
1.21088e-07
1.18792e-07
1.16537e-07
1.14206e-07
1.11918e-07
1.09555e-07
1.07236e-07
1.04845e-07
1.02499e-07
1.00083e-07
9.77113e-08
9.52719e-08
9.28777e-08
9.04174e-08
8.80026e-08
8.55232e-08
8.30895e-08
8.05928e-08
7.81417e-08
7.5629e-08
7.3162e-08
7.06348e-08
6.81533e-08
6.56129e-08
6.31182e-08
6.05659e-08
5.80592e-08
5.5496e-08
5.29783e-08
5.04052e-08
4.78775e-08
4.52953e-08
4.27586e-08
4.0168e-08
3.7623e-08
3.50241e-08
3.24718e-08
2.98639e-08
2.73062e-08
2.46876e-08
2.2129e-08
1.9498e-08
1.69492e-08
1.42908e-08
1.17998e-08
8.99747e-09
6.77426e-09
3.34043e-09
2.83991e-09
0.0943709
0.0949884
0.0969872
0.0993992
0.101378
0.10103
0.0932153
0.0692329
0.0127649
-0.103674
-0.202454
-0.23406
-0.273485
-0.310109
-0.340741
-0.361153
-0.357644
-0.323931
-0.266031
-0.199033
-0.137496
-0.0890674
-0.0545461
-0.0317216
-0.0174419
-0.00896618
-0.00419286
-0.00167183
-0.000459117
3.32328e-05
0.000156069
0.000110801
7.58823e-06
-9.738e-05
-0.000178901
-0.000229034
-0.000248979
-0.000244187
-0.000221325
-0.000186443
-0.000144183
-9.7986e-05
-5.09921e-05
-6.80526e-06
3.07197e-05
5.86773e-05
7.61557e-05
8.40576e-05
8.39195e-05
7.70025e-05
6.4464e-05
4.81818e-05
3.11999e-05
1.70465e-05
8.20393e-06
4.80827e-06
4.78381e-06
5.5903e-06
5.72398e-06
5.04453e-06
4.04464e-06
3.12291e-06
2.39486e-06
1.83457e-06
1.404e-06
1.07902e-06
8.39085e-07
6.63502e-07
5.3463e-07
4.39829e-07
3.70011e-07
3.18692e-07
2.80899e-07
2.53116e-07
2.32581e-07
2.17429e-07
2.06111e-07
1.97673e-07
1.91226e-07
1.86312e-07
1.82402e-07
1.79303e-07
1.76679e-07
1.74483e-07
1.72479e-07
1.707e-07
1.68965e-07
1.6735e-07
1.65702e-07
1.6412e-07
1.62466e-07
1.60853e-07
1.59149e-07
1.57475e-07
1.55702e-07
1.53956e-07
1.52109e-07
1.50287e-07
1.48367e-07
1.46473e-07
1.44483e-07
1.42523e-07
1.40468e-07
1.38445e-07
1.36332e-07
1.34253e-07
1.32087e-07
1.29957e-07
1.27743e-07
1.25567e-07
1.23309e-07
1.21092e-07
1.18796e-07
1.16541e-07
1.1421e-07
1.11921e-07
1.09559e-07
1.0724e-07
1.04849e-07
1.02502e-07
1.00086e-07
9.77143e-08
9.52746e-08
9.28806e-08
9.042e-08
8.80052e-08
8.55256e-08
8.3092e-08
8.0595e-08
7.81441e-08
7.56311e-08
7.31641e-08
7.06366e-08
6.81552e-08
6.56146e-08
6.312e-08
6.05674e-08
5.80608e-08
5.54974e-08
5.29798e-08
5.04064e-08
4.78789e-08
4.52965e-08
4.27598e-08
4.0169e-08
3.76242e-08
3.5025e-08
3.24729e-08
2.98647e-08
2.73071e-08
2.46882e-08
2.21297e-08
1.94984e-08
1.69499e-08
1.42908e-08
1.18008e-08
8.99697e-09
6.77599e-09
3.33886e-09
2.84296e-09
0.0988951
0.099909
0.103231
0.1078
0.113068
0.117715
0.115643
0.0982196
0.0333814
-0.126764
-0.24368
-0.257688
-0.298914
-0.342856
-0.381958
-0.408685
-0.405491
-0.364767
-0.29236
-0.20956
-0.135974
-0.0808141
-0.0437421
-0.0209233
-0.00783969
-0.000959218
0.00223912
0.00337967
0.00345499
0.00304293
0.00246154
0.00187479
0.00135837
0.000939588
0.000620549
0.000391159
0.000236252
0.000139523
8.57831e-05
6.22301e-05
5.8923e-05
6.84593e-05
8.50556e-05
0.000103674
0.000119914
0.000130686
0.000134733
0.000132181
0.00012345
0.000108687
8.83574e-05
6.43613e-05
4.048e-05
2.12719e-05
9.82181e-06
5.93786e-06
6.44809e-06
7.71234e-06
7.77404e-06
6.66055e-06
5.19252e-06
3.93085e-06
2.98236e-06
2.2688e-06
1.72265e-06
1.31118e-06
1.00857e-06
7.87769e-07
6.2584e-07
5.06724e-07
4.19059e-07
3.54672e-07
3.07306e-07
2.72507e-07
2.46824e-07
2.27897e-07
2.13808e-07
2.03335e-07
1.95393e-07
1.89381e-07
1.84664e-07
1.80972e-07
1.77911e-07
1.75394e-07
1.73153e-07
1.712e-07
1.69337e-07
1.67628e-07
1.65909e-07
1.64276e-07
1.62584e-07
1.60943e-07
1.59218e-07
1.57528e-07
1.55744e-07
1.53988e-07
1.52135e-07
1.50309e-07
1.48384e-07
1.46488e-07
1.44496e-07
1.42533e-07
1.40477e-07
1.38454e-07
1.3634e-07
1.3426e-07
1.32093e-07
1.29963e-07
1.27748e-07
1.25572e-07
1.23314e-07
1.21097e-07
1.188e-07
1.16545e-07
1.14214e-07
1.11925e-07
1.09562e-07
1.07243e-07
1.04852e-07
1.02506e-07
1.00089e-07
9.77175e-08
9.52776e-08
9.28835e-08
9.04227e-08
8.80079e-08
8.55281e-08
8.30946e-08
8.05974e-08
7.81465e-08
7.56333e-08
7.31663e-08
7.06385e-08
6.81571e-08
6.56163e-08
6.31217e-08
6.0569e-08
5.80624e-08
5.54988e-08
5.29812e-08
5.04077e-08
4.78802e-08
4.52976e-08
4.27611e-08
4.01701e-08
3.76253e-08
3.5026e-08
3.24739e-08
2.98655e-08
2.73079e-08
2.46889e-08
2.21304e-08
1.94988e-08
1.69505e-08
1.42909e-08
1.18016e-08
8.99671e-09
6.77735e-09
3.33781e-09
2.84514e-09
0.103019
0.104432
0.109121
0.115953
0.12502
0.13553
0.14196
0.134164
0.0617785
-0.136318
-0.309787
-0.301254
-0.329606
-0.370117
-0.414639
-0.451994
-0.452346
-0.406778
-0.319876
-0.219715
-0.132449
-0.0698697
-0.0303827
-0.0081261
0.00315443
0.00793454
0.00919685
0.00872067
0.00751408
0.00611427
0.00478351
0.00363282
0.00269361
0.00195838
0.00140274
0.000996658
0.000709959
0.000514893
0.000387351
0.000307477
0.000259837
0.00023306
0.000218949
0.000211468
0.000206142
0.000199985
0.000191369
0.000179351
0.000162847
0.000140596
0.000112272
7.99352e-05
4.84511e-05
2.38113e-05
9.88694e-06
6.03038e-06
7.6735e-06
9.73716e-06
9.7917e-06
8.19086e-06
6.2193e-06
4.62995e-06
3.49174e-06
2.64961e-06
2.00271e-06
1.51483e-06
1.15722e-06
8.96901e-07
7.05999e-07
5.65486e-07
4.62115e-07
3.86244e-07
3.30477e-07
2.8952e-07
2.59324e-07
2.37085e-07
2.20566e-07
2.08307e-07
1.99055e-07
1.9208e-07
1.86654e-07
1.82442e-07
1.78998e-07
1.76198e-07
1.7375e-07
1.71644e-07
1.69668e-07
1.67875e-07
1.66095e-07
1.64417e-07
1.62691e-07
1.61024e-07
1.59281e-07
1.57577e-07
1.55783e-07
1.5402e-07
1.5216e-07
1.5033e-07
1.48402e-07
1.46503e-07
1.44508e-07
1.42545e-07
1.40487e-07
1.38463e-07
1.36348e-07