/*--------------------------------*- C++ -*----------------------------------*\
  =========                 |
  \\      /  F ield         | OpenFOAM: The Open Source CFD Toolbox
   \\    /   O peration     | Website:  https://openfoam.org
    \\  /    A nd           | Version:  11
     \\/     M anipulation  |
\*---------------------------------------------------------------------------*/
FoamFile
{
    format      ascii;
    class       volVectorField;
    location    "3.262149";
    object      U;
}
// * * * * * * * * * * * * * * * * * * * * * * * * * * * * * * * * * * * * * //

dimensions      [0 1 -1 0 0 0 0];

internalField   nonuniform List<vector> 
7132
(
(1.00014 -0.00028897 2.22003e-18)
(1.00224 -0.000871658 7.35273e-18)
(1.00698 -0.00148962 7.41374e-18)
(1.0142 -0.00215442 8.70407e-18)
(1.02419 -0.0028689 1.08308e-17)
(1.03713 -0.0036123 1.14476e-17)
(1.0531 -0.0043441 1.10559e-17)
(1.07192 -0.00498461 1.03818e-17)
(1.09305 -0.0054473 9.7664e-18)
(1.11561 -0.00563841 9.32131e-18)
(1.13829 -0.00550033 8.85845e-18)
(1.15978 -0.00508712 8.66041e-18)
(1.17911 -0.00444522 7.53687e-18)
(1.19545 -0.00362031 8.21353e-18)
(1.20816 -0.00265506 -1.68164e-18)
(1.21676 -0.0015834 -1.03948e-17)
(1.22088 -0.000444733 -2.27477e-17)
(1.22034 0.000708635 -2.02601e-17)
(1.2152 0.00180975 -2.72643e-17)
(1.20581 0.00278457 -3.78899e-17)
(1.19283 0.00356623 -3.7336e-17)
(1.17714 0.00411032 -3.63518e-17)
(1.15978 0.00440379 -3.62507e-17)
(1.14174 0.0044643 -3.78734e-17)
(1.12391 0.00433175 -3.12844e-17)
(1.10696 0.00405709 -3.20621e-17)
(1.09136 0.00369212 -3.36583e-17)
(1.07736 0.00328248 -3.51662e-17)
(1.06506 0.0028641 -3.6401e-17)
(1.05443 0.00246242 -3.42771e-17)
(1.04536 0.00209335 -3.20751e-17)
(1.03769 0.00176521 -3.01158e-17)
(1.03124 0.00148068 -2.98823e-17)
(1.02585 0.00123872 -2.71749e-17)
(1.02135 0.00103604 -2.44799e-17)
(1.01757 0.000868214 -2.14962e-17)
(1.01441 0.000730449 -1.8436e-17)
(1.01174 0.000618073 -1.51943e-17)
(1.00947 0.000526801 -1.00744e-17)
(1.00753 0.000452854 -4.82487e-18)
(1.00585 0.000392989 7.21897e-19)
(1.00439 0.000344456 5.47173e-18)
(1.00309 0.000304941 9.87522e-18)
(1.00195 0.000272499 1.45072e-17)
(1.00091 0.000245489 1.7652e-17)
(0.999979 0.000222554 1.96987e-17)
(0.99913 0.000202623 1.96799e-17)
(0.998355 0.000184938 1.85219e-17)
(0.997646 0.000169022 1.75908e-17)
(0.996997 0.000154482 1.60158e-17)
(0.996405 0.000140595 1.49774e-17)
(0.995867 0.000125743 1.73219e-17)
(0.995392 0.000107026 2.26863e-17)
(0.995002 8.04626e-05 2.69534e-17)
(0.994737 4.21143e-05 2.68047e-17)
(0.99465 -9.98399e-06 1.95022e-17)
(0.994798 -7.37806e-05 8.27248e-18)
(0.995218 -0.000142117 5.15926e-19)
(0.995911 -0.000203523 3.17686e-18)
(0.996822 -0.000245098 2.10932e-17)
(0.997849 -0.000256634 5.03761e-17)
(0.998857 -0.000234383 8.25077e-17)
(0.999711 -0.000182816 1.07306e-16)
(1.00031 -0.000113519 1.20019e-16)
(1.00062 -4.16181e-05 1.2776e-16)
(1.00064 1.88038e-05 1.37958e-16)
(1.00046 5.85051e-05 1.5436e-16)
(1.00017 7.48041e-05 1.6974e-16)
(0.999862 7.09409e-05 1.66305e-16)
(0.999601 5.37853e-05 1.29728e-16)
(0.999427 3.10651e-05 5.43635e-17)
(0.999349 9.16768e-06 -4.55753e-17)
(0.999351 -7.9556e-06 -1.41397e-16)
(0.999411 -1.88236e-05 -2.04045e-16)
(0.999502 -2.37935e-05 -2.13632e-16)
(0.999602 -2.42244e-05 -1.73578e-16)
(0.999697 -2.17657e-05 -1.03313e-16)
(0.999777 -1.79022e-05 -2.95194e-17)
(0.999841 -1.37448e-05 2.42645e-17)
(0.999888 -9.99052e-06 4.98088e-17)
(0.999921 -6.97544e-06 4.85128e-17)
(0.999943 -4.76713e-06 3.15446e-17)
(0.999959 -3.26607e-06 1.16338e-17)
(0.999969 -2.29747e-06 -3.69533e-18)
(0.999977 -1.68122e-06 -9.5461e-18)
(0.999983 -1.27327e-06 -8.95681e-18)
(0.999987 -9.79607e-07 -5.31429e-18)
(0.99999 -7.50505e-07 -1.40822e-18)
(0.999993 -5.65354e-07 1.38366e-19)
(0.999995 -4.17413e-07 1.20337e-18)
(0.999996 -3.03443e-07 1.00947e-18)
(0.999997 -2.19135e-07 2.57709e-19)
(0.999998 -1.58613e-07 5.14216e-19)
(0.999999 -1.15662e-07 -1.09017e-19)
(0.999999 -8.49553e-08 -1.73799e-19)
(0.999999 -6.26019e-08 -3.03832e-20)
(1 -4.60521e-08 -1.00248e-19)
(1 -3.37043e-08 6.42678e-19)
(1 -2.45108e-08 1.88368e-19)
(1 -1.77163e-08 7.61233e-20)
(1 -1.27321e-08 1.02469e-19)
(1 -9.0915e-09 -5.81148e-20)
(1 -6.43363e-09 6.49178e-19)
(1 -4.49041e-09 2.01469e-19)
(1 -3.06754e-09 1.14048e-19)
(1 -2.02614e-09 1.65476e-19)
(1 -1.26532e-09 2.17737e-20)
(1 -7.11794e-10 7.35462e-19)
(1 -3.10585e-10 2.83876e-19)
(1 -2.17583e-11 1.83428e-19)
(1 1.85117e-10 2.14731e-19)
(1 3.31419e-10 4.70465e-20)
(1 4.33972e-10 7.36938e-19)
(1 5.03825e-10 2.65592e-19)
(1 5.50485e-10 1.52097e-19)
(1 5.79436e-10 1.7735e-19)
(1 5.96321e-10 1.11373e-20)
(1 6.03576e-10 6.99106e-19)
(1 6.04808e-10 2.58169e-19)
(1 6.00742e-10 2.46361e-20)
(1 5.93939e-10 6.16667e-19)
(1 5.84149e-10 7.02123e-19)
(1 5.73417e-10 8.06038e-19)
(1 5.60914e-10 2.22758e-19)
(1 5.48456e-10 -4.65875e-20)
(1 5.34856e-10 5.37868e-19)
(1 5.21852e-10 6.25084e-19)
(1 5.08015e-10 7.34484e-19)
(1 4.95089e-10 1.57739e-19)
(1 4.81469e-10 -1.05726e-19)
(1 4.68943e-10 4.83034e-19)
(1 4.5577e-10 5.72827e-19)
(1 4.43803e-10 6.83491e-19)
(1 4.31186e-10 1.07357e-19)
(1 4.19842e-10 -1.55546e-19)
(1 4.07819e-10 4.34089e-19)
(1 3.97116e-10 5.25179e-19)
(1 3.85693e-10 6.37504e-19)
(1 3.75619e-10 6.33141e-20)
(1 3.64777e-10 -1.97398e-19)
(1 3.55306e-10 3.94655e-19)
(1 3.45019e-10 4.8824e-19)
(1 3.36117e-10 6.02657e-19)
(1 3.26353e-10 2.92101e-20)
(1 3.17986e-10 -2.33416e-19)
(1 3.08712e-10 3.52783e-19)
(1 3.00842e-10 4.35962e-19)
(1 2.9202e-10 5.36103e-19)
(1 2.84617e-10 -5.32176e-20)
(1 2.76212e-10 -3.29774e-19)
(1 2.69276e-10 2.48302e-19)
(1 2.61232e-10 3.32052e-19)
(1 2.54852e-10 4.42301e-19)
(1 2.469e-10 -1.29163e-19)
(1 2.41593e-10 -3.8335e-19)
(1 2.32462e-10 2.1486e-19)
(1 2.31473e-10 3.22978e-19)
(1 2.14608e-10 4.11211e-19)
(1 2.34739e-10 -2.63576e-21)
(1 1.86183e-10 -9.7276e-19)
(1.00014 -0.000864063 3.04733e-20)
(1.00222 -0.00260774 3.41299e-19)
(1.00693 -0.0044585 6.77065e-19)
(1.0141 -0.00645359 1.01531e-18)
(1.02405 -0.00860258 1.40309e-18)
(1.037 -0.0108444 1.81117e-18)
(1.05302 -0.013058 2.21739e-18)
(1.07198 -0.0150009 2.0902e-18)
(1.09335 -0.0164095 5.62574e-18)
(1.11623 -0.0169921 6.86954e-18)
(1.13922 -0.0165711 4.13043e-18)
(1.16097 -0.0153207 5.16087e-18)
(1.18052 -0.0133835 1.56092e-18)
(1.19703 -0.0108984 1.13403e-17)
(1.20987 -0.00799348 3.47817e-17)
(1.21856 -0.00476829 5.82701e-17)
(1.22272 -0.00133886 6.47806e-17)
(1.22216 0.00213932 5.54433e-17)
(1.21693 0.00546438 3.67076e-17)
(1.20738 0.00841056 1.31131e-17)
(1.19418 0.0107724 -1.12154e-17)
(1.17824 0.012413 -3.39131e-17)
(1.16063 0.0132921 -5.3785e-17)
(1.14237 0.0134644 -7.04766e-17)
(1.12436 0.013053 -8.32143e-17)
(1.10729 0.0122138 -9.23084e-17)
(1.09161 0.0111048 -9.78884e-17)
(1.07758 0.00986414 -9.99993e-17)
(1.06527 0.00860015 -9.8811e-17)
(1.05466 0.00738895 -9.417e-17)
(1.04561 0.00627792 -8.41823e-17)
(1.03798 0.00529139 -7.68915e-17)
(1.03157 0.00443694 -6.62128e-17)
(1.02621 0.00371101 -5.21577e-17)
(1.02173 0.00310338 -3.74781e-17)
(1.01799 0.00260056 -1.92264e-17)
(1.01484 0.00218803 -2.15803e-18)
(1.01219 0.00185168 1.55474e-17)
(1.00993 0.00157859 3.40675e-17)
(1.008 0.0013574 5.1794e-17)
(1.00633 0.00117839 6.89907e-17)
(1.00487 0.00103331 8.09391e-17)
(1.00358 0.000915228 8.92095e-17)
(1.00243 0.000818318 9.29713e-17)
(1.00139 0.000737676 9.17549e-17)
(1.00045 0.000669233 8.63141e-17)
(0.999597 0.000609779 7.45527e-17)
(0.998815 0.000557034 6.07429e-17)
(0.998098 0.000509559 4.7585e-17)
(0.99744 0.000466195 3.77245e-17)
(0.996837 0.000424833 3.69928e-17)
(0.996288 0.000380746 4.48909e-17)
(0.9958 0.000325392 5.62785e-17)
(0.995394 0.000246955 6.00831e-17)
(0.995109 0.000133625 4.33486e-17)
(0.994997 -2.06967e-05 5.62027e-18)
(0.995113 -0.000210256 -4.09008e-17)
(0.995496 -0.000414077 -7.00958e-17)
(0.996146 -0.00059817 -5.83067e-17)
(0.997014 -0.000723991 -3.80943e-18)
(0.998 -0.000760734 7.02734e-17)
(0.998971 -0.000696666 1.22475e-16)
(0.999796 -0.000544575 1.26482e-16)
(1.00037 -0.000338667 9.12923e-17)
(1.00066 -0.000124024 6.38138e-17)
(1.00068 5.70758e-05 9.49691e-17)
(1.00049 0.00017661 1.95487e-16)
(1.00019 0.000226118 3.26822e-16)
(0.999869 0.000214957 4.03949e-16)
(0.999602 0.000163534 3.46985e-16)
(0.999424 9.50229e-05 1.27089e-16)
(0.999343 2.87206e-05 -2.11063e-16)
(0.999345 -2.33236e-05 -5.5441e-16)
(0.999407 -5.64927e-05 -7.8398e-16)
(0.9995 -7.17582e-05 -8.23097e-16)
(0.999602 -7.3183e-05 -6.72564e-16)
(0.999699 -6.57647e-05 -4.06448e-16)
(0.99978 -5.40358e-05 -1.22982e-16)
(0.999844 -4.1403e-05 8.95438e-17)
(0.999891 -3.00084e-05 1.91254e-16)
(0.999923 -2.0882e-05 1.91266e-16)
(0.999945 -1.42248e-05 1.27018e-16)
(0.99996 -9.72355e-06 4.94461e-17)
(0.99997 -6.8365e-06 -9.19437e-18)
(0.999977 -5.00944e-06 -3.52562e-17)
(0.999983 -3.80253e-06 -3.36089e-17)
(0.999987 -2.9316e-06 -2.10789e-17)
(0.999991 -2.24863e-06 -6.47636e-18)
(0.999993 -1.69417e-06 2.12389e-18)
(0.999995 -1.2501e-06 5.23323e-18)
(0.999996 -9.07929e-07 5.35296e-18)
(0.999997 -6.55133e-07 2.30908e-18)
(0.999998 -4.74017e-07 7.85434e-19)
(0.999999 -3.4571e-07 -3.61822e-20)
(0.999999 -2.54063e-07 -1.27294e-19)
(0.999999 -1.87334e-07 2.8209e-19)
(1 -1.37887e-07 -1.46352e-19)
(1 -1.00961e-07 4.61049e-19)
(1 -7.34522e-08 5.49742e-19)
(1 -5.31206e-08 4.5381e-19)
(1 -3.82098e-08 5.08459e-19)
(1 -2.73216e-08 -2.26863e-19)
(1 -1.93738e-08 2.5741e-19)
(1 -1.35624e-08 3.69858e-19)
(1 -9.30624e-09 3.56519e-19)
(1 -6.18987e-09 4.8754e-19)
(1 -3.91244e-09 -2.02156e-19)
(1 -2.25454e-09 2.99286e-19)
(1 -1.05247e-09 4.1107e-19)
(1 -1.86108e-10 3.87798e-19)
(1 4.34837e-10 5.04218e-19)
(1 8.75151e-10 -2.02121e-19)
(1 1.18411e-09 2.83099e-19)
(1 1.39591e-09 3.81652e-19)
(1 1.5377e-09 3.50161e-19)
(1 1.62723e-09 4.6358e-19)
(1 1.67992e-09 -2.40044e-19)
(1 1.70459e-09 2.44047e-19)
(1 1.71038e-09 3.70236e-19)
(1 1.70119e-09 2.25509e-19)
(1 1.68283e-09 8.89483e-19)
(1 1.65651e-09 4.04734e-19)
(1 1.62627e-09 3.02583e-19)
(1 1.59179e-09 2.97371e-19)
(1 1.55626e-09 1.29985e-19)
(1 1.51845e-09 7.97838e-19)
(1 1.48114e-09 3.23682e-19)
(1 1.44256e-09 2.33339e-19)
(1 1.40533e-09 2.38897e-19)
(1 1.36733e-09 8.00343e-20)
(1 1.33115e-09 7.53711e-19)
(1 1.29442e-09 2.82916e-19)
(1 1.25977e-09 1.94168e-19)
(1 1.22462e-09 2.00398e-19)
(1 1.19169e-09 4.19927e-20)
(1 1.15826e-09 7.16322e-19)
(1 1.1271e-09 2.46499e-19)
(1 1.09539e-09 1.59e-19)
(1 1.06599e-09 1.66681e-19)
(1 1.03595e-09 9.92114e-21)
(1 1.00823e-09 6.86121e-19)
(1 9.79789e-10 2.18324e-19)
(1 9.53651e-10 1.32628e-19)
(1 9.26714e-10 1.41048e-19)
(1 9.02066e-10 -1.72783e-20)
(1 8.76535e-10 6.53745e-19)
(1 8.53281e-10 1.76411e-19)
(1 8.29052e-10 7.72528e-20)
(1 8.07107e-10 7.02515e-20)
(1 7.84071e-10 -1.02175e-19)
(1 7.63433e-10 5.598e-19)
(1 7.41401e-10 8.14281e-20)
(1 7.22334e-10 -9.6695e-21)
(1 7.00563e-10 -9.16295e-22)
(1 6.84648e-10 -1.52855e-19)
(1 6.59631e-10 5.28227e-19)
(1 6.56005e-10 7.24018e-20)
(1 6.09698e-10 -3.59509e-20)
(1 6.63506e-10 1.10239e-19)
(1 5.31916e-10 -6.7808e-19)
(1.00014 -0.00143125 2.00921e-22)
(1.00218 -0.00432145 4.0265e-21)
(1.0068 -0.00739588 3.16041e-21)
(1.01388 -0.0107226 8.81988e-21)
(1.02376 -0.0143223 -1.54652e-19)
(1.0367 -0.0180977 2.27355e-19)
(1.05283 -0.0218492 -8.25595e-19)
(1.07209 -0.0251603 -1.49058e-18)
(1.09393 -0.0275793 6.19221e-18)
(1.11744 -0.0285824 -1.22123e-18)
(1.14107 -0.0278568 -3.58854e-17)
(1.16336 -0.025735 -2.74779e-17)
(1.18333 -0.0224669 9.29152e-17)
(1.20018 -0.0182893 2.77569e-16)
(1.21328 -0.0134148 3.89085e-16)
(1.22215 -0.00800272 3.27265e-16)
(1.2264 -0.00224136 1.24306e-16)
(1.2258 0.00360996 -1.07657e-16)
(1.22039 0.00920856 -3.0541e-16)
(1.2105 0.0141682 -4.4751e-16)
(1.19684 0.0181366 -5.3348e-16)
(1.18038 0.0208798 -5.73016e-16)
(1.16225 0.0223317 -5.78527e-16)
(1.14354 0.0225894 -5.60478e-16)
(1.12517 0.0218656 -5.25804e-16)
(1.10784 0.0204278 -4.78384e-16)
(1.09201 0.0185444 -4.2051e-16)
(1.0779 0.0164489 -3.54023e-16)
(1.06559 0.0143225 -2.80916e-16)
(1.05501 0.0122914 -2.0351e-16)
(1.04603 0.0104332 -1.23755e-16)
(1.03847 0.00878704 -4.41684e-17)
(1.03213 0.00736399 3.39963e-17)
(1.02685 0.00615696 1.10373e-16)
(1.02243 0.00514803 1.84609e-16)
(1.01874 0.00431409 2.56524e-16)
(1.01564 0.00363053 3.246e-16)
(1.01302 0.00307361 3.86452e-16)
(1.0108 0.00262171 4.38957e-16)
(1.00888 0.0022559 4.78369e-16)
(1.00723 0.00195997 5.01105e-16)
(1.00577 0.00172024 5.03686e-16)
(1.00449 0.00152522 4.84076e-16)
(1.00334 0.00136526 4.42163e-16)
(1.0023 0.00123224 3.80108e-16)
(1.00136 0.00111942 3.02518e-16)
(1.00049 0.00102147 2.15933e-16)
(0.999697 0.000934585 1.29754e-16)
(0.998966 0.00085637 5.65087e-17)
(0.998291 0.000784917 9.73651e-18)
(0.99767 0.000716814 -8.50882e-19)
(0.9971 0.000644419 1.72236e-17)
(0.996589 0.000553834 3.34108e-17)
(0.996156 0.000425711 2.04777e-18)
(0.995838 0.00024053 -1.15166e-16)
(0.995684 -1.20657e-05 -3.10444e-16)
(0.995747 -0.000323105 -5.19606e-16)
(0.996065 -0.000658552 -6.51266e-16)
(0.996642 -0.000962715 -6.48373e-16)
(0.99743 -0.00117202 -5.49167e-16)
(0.998335 -0.00123524 -4.82432e-16)
(0.99923 -0.00113239 -5.9043e-16)
(0.999986 -0.000883908 -9.0821e-16)
(1.00051 -0.000545844 -1.29778e-15)
(1.00075 -0.000192555 -1.49934e-15)
(1.00073 0.00010588 -1.2859e-15)
(1.00051 0.000302717 -6.42961e-16)
(1.00019 0.000383521 1.82498e-16)
(0.999864 0.000363468 7.7556e-16)
(0.999589 0.000276272 7.56667e-16)
(0.999407 0.000160475 -2.83419e-18)
(0.999326 4.83728e-05 -1.29065e-15)
(0.999332 -3.97071e-05 -2.63012e-15)
(0.999398 -9.58474e-05 -3.50543e-15)
(0.999497 -0.00012157 -3.59847e-15)
(0.999605 -0.000123711 -2.9124e-15)
(0.999705 -0.000110783 -1.74465e-15)
(0.999788 -9.05693e-05 -5.20388e-16)
(0.999852 -6.89412e-05 3.97318e-16)
(0.999898 -4.95775e-05 8.34934e-16)
(0.999929 -3.42136e-05 8.31905e-16)
(0.999949 -2.31371e-05 5.60835e-16)
(0.999962 -1.57506e-05 2.25143e-16)
(0.999972 -1.10809e-05 -2.92846e-17)
(0.999978 -8.15804e-06 -1.48599e-16)
(0.999984 -6.23023e-06 -1.51153e-16)
(0.999988 -4.82543e-06 -9.42673e-17)
(0.999991 -3.70832e-06 -3.02716e-17)
(0.999993 -2.79231e-06 1.14089e-17)
(0.999995 -2.056e-06 2.47116e-17)
(0.999997 -1.48949e-06 2.00993e-17)
(0.999998 -1.0728e-06 9.2537e-18)
(0.999998 -7.75801e-07 5.07652e-19)
(0.999999 -5.66213e-07 -3.38528e-18)
(0.999999 -4.16689e-07 -3.44231e-18)
(0.999999 -3.07672e-07 -1.83606e-18)
(1 -2.26685e-07 -3.71092e-19)
(1 -1.66076e-07 3.98658e-19)
(1 -1.20886e-07 5.38954e-19)
(1 -8.74952e-08 3.73252e-19)
(1 -6.30272e-08 2.17914e-19)
(1 -4.51738e-08 7.98436e-20)
(1 -3.21456e-08 6.7965e-20)
(1 -2.26171e-08 1.17395e-19)
(1 -1.56346e-08 1.64071e-19)
(1 -1.05184e-08 2.26324e-19)
(1 -6.77726e-09 1.96135e-19)
(1 -4.05179e-09 1.94514e-19)
(1 -2.07419e-09 2.09281e-19)
(1 -6.46778e-10 2.16652e-19)
(1 3.77983e-10 2.50349e-19)
(1 1.10709e-09 2.01946e-19)
(1 1.62048e-09 1.87994e-19)
(1 1.9751e-09 1.93737e-19)
(1 2.21444e-09 1.95137e-19)
(1 2.36867e-09 2.26024e-19)
(1 2.46187e-09 1.77952e-19)
(1 2.50974e-09 1.63744e-19)
(1 2.52591e-09 1.75066e-19)
(1 2.51819e-09 1.59319e-19)
(1 2.4946e-09 2.1892e-19)
(1 2.45864e-09 2.3839e-19)
(1 2.41534e-09 2.34004e-19)
(1 2.36584e-09 2.30667e-19)
(1 2.31359e-09 1.97091e-19)
(1 2.25841e-09 2.43079e-19)
(1 2.20295e-09 2.54111e-19)
(1 2.14628e-09 2.4503e-19)
(1 2.09065e-09 2.38776e-19)
(1 2.03469e-09 2.02479e-19)
(1 1.98046e-09 2.45118e-19)
(1 1.92632e-09 2.52109e-19)
(1 1.87427e-09 2.38734e-19)
(1 1.82247e-09 2.28524e-19)
(1 1.77293e-09 1.89055e-19)
(1 1.72369e-09 2.29476e-19)
(1 1.67676e-09 2.35118e-19)
(1 1.63009e-09 2.21052e-19)
(1 1.58574e-09 2.1062e-19)
(1 1.54158e-09 1.71332e-19)
(1 1.49972e-09 2.12367e-19)
(1 1.45795e-09 2.19048e-19)
(1 1.41843e-09 2.06176e-19)
(1 1.37891e-09 1.96385e-19)
(1 1.34159e-09 1.5602e-19)
(1 1.30418e-09 1.92929e-19)
(1 1.26893e-09 1.91487e-19)
(1 1.23347e-09 1.66567e-19)
(1 1.20016e-09 1.42317e-19)
(1 1.16648e-09 8.79372e-20)
(1 1.13511e-09 1.14763e-19)
(1 1.1029e-09 1.10154e-19)
(1 1.07388e-09 9.03826e-20)
(1 1.04205e-09 7.87417e-20)
(1 1.01781e-09 4.18044e-20)
(1 9.81246e-10 8.63106e-20)
(1 9.74897e-10 9.89394e-20)
(1 9.08273e-10 8.22582e-20)
(1 9.81144e-10 9.94283e-20)
(1 7.97003e-10 -4.49491e-21)
(1.00014 -0.00198501 -3.1257e-20)
(1.00211 -0.00599617 -4.88258e-19)
(1.00661 -0.0102784 -8.34128e-19)
(1.01354 -0.0149375 -1.60882e-18)
(1.02329 -0.0200142 -1.7477e-18)
(1.03619 -0.0253818 -1.68524e-18)
(1.05249 -0.0307663 -1.11375e-17)
(1.07217 -0.0355597 1.75553e-17)
(1.09475 -0.0391025 3.40866e-18)
(1.11925 -0.040575 -1.36356e-16)
(1.14386 -0.0395035 -2.40137e-17)
(1.16694 -0.0364495 6.27161e-16)
(1.18756 -0.031789 1.19717e-15)
(1.20491 -0.0258652 7.32428e-16)
(1.21839 -0.0189743 -1.00588e-15)
(1.22754 -0.0113223 -3.26447e-15)
(1.23192 -0.00315898 -4.75364e-15)
(1.23128 0.00515645 -5.27353e-15)
(1.22557 0.0131312 -5.16332e-15)
(1.21517 0.0201988 -4.66253e-15)
(1.20081 0.0258385 -3.96683e-15)
(1.18356 0.0297065 -3.21791e-15)
(1.16465 0.0317109 -2.49995e-15)
(1.14524 0.0320018 -1.84839e-15)
(1.12632 0.0308973 -1.26631e-15)
(1.10861 0.0287904 -7.42462e-16)
(1.09255 0.0260699 -2.635e-16)
(1.07834 0.0230694 1.78528e-16)
(1.06602 0.0200442 5.84806e-16)
(1.0555 0.0171695 9.5225e-16)
(1.04661 0.0145508 1.27879e-15)
(1.03916 0.0122392 1.55686e-15)
(1.03294 0.0102471 1.79534e-15)
(1.02776 0.00856178 2.0004e-15)
(1.02344 0.00715614 2.17486e-15)
(1.01983 0.00599643 2.3216e-15)
(1.0168 0.00504731 2.4299e-15)
(1.01424 0.00427499 2.49178e-15)
(1.01205 0.00364899 2.49557e-15)
(1.01017 0.00314271 2.42917e-15)
(1.00854 0.00273348 2.28516e-15)
(1.0071 0.00240226 2.05673e-15)
(1.00582 0.00213307 1.74971e-15)
(1.00467 0.00191248 1.37527e-15)
(1.00363 0.00172925 9.53103e-16)
(1.00268 0.00157399 5.10605e-16)
(1.0018 0.00143932 7.75136e-17)
(1.00099 0.00131991 -3.06009e-16)
(1.00024 0.0012124 -6.00262e-16)
(0.999538 0.00111414 -7.74878e-16)
(0.99889 0.00102052 -8.28203e-16)
(0.998291 0.000921224 -8.24181e-16)
(0.997747 0.00079739 -8.97209e-16)
(0.997275 0.000622606 -1.21119e-15)
(0.99691 0.000369978 -1.8627e-15)
(0.996697 2.4877e-05 -2.77341e-15)
(0.996686 -0.000401023 -3.69642e-15)
(0.996914 -0.000861605 -4.37339e-15)
(0.997385 -0.00128068 -4.75576e-15)
(0.998057 -0.0015707 -5.13224e-15)
(0.998842 -0.00166065 -5.99867e-15)
(0.99962 -0.00152221 -7.69238e-15)
(1.00027 -0.00118287 -9.99529e-15)
(1.0007 -0.000719491 -1.20447e-14)
(1.00087 -0.000234657 -1.26947e-14)
(1.00079 0.00017457 -1.11941e-14)
(1.00053 0.000443153 -7.77389e-15)
(1.00019 0.000550727 -3.68911e-15)
(0.999838 0.000518093 -7.33552e-16)
(0.999554 0.000392023 -3.92725e-16)
(0.99937 0.000226303 -3.06489e-15)
(0.999293 6.62706e-05 -7.77567e-15)
(0.999306 -5.93095e-05 -1.25737e-14)
(0.999383 -0.000139077 -1.54506e-14)
(0.999492 -0.000175095 -1.52295e-14)
(0.999609 -0.000177139 -1.20174e-14)
(0.999715 -0.000157543 -7.0368e-15)
(0.999802 -0.000127674 -1.97206e-15)
(0.999865 -9.61284e-05 1.7632e-15)
(0.999909 -6.82505e-05 3.5211e-15)
(0.999937 -4.64731e-05 3.47978e-15)
(0.999955 -3.107e-05 2.34944e-15)
(0.999966 -2.10271e-05 9.57004e-16)
(0.999974 -1.48254e-05 -1.05839e-16)
(0.99998 -1.10102e-05 -6.10102e-16)
(0.999985 -8.49403e-06 -6.33468e-16)
(0.999989 -6.62554e-06 -4.0441e-16)
(0.999992 -5.10411e-06 -1.37276e-16)
(0.999994 -3.83735e-06 4.05007e-17)
(0.999996 -2.81459e-06 1.04081e-16)
(0.999997 -2.03046e-06 8.92021e-17)
(0.999998 -1.45822e-06 4.3557e-17)
(0.999998 -1.05384e-06 5.84803e-18)
(0.999999 -7.70187e-07 -1.22598e-17)
(0.999999 -5.68093e-07 -1.37953e-17)
(0.999999 -4.20331e-07 -7.60919e-18)
(1 -3.10077e-07 -2.06452e-18)
(1 -2.27293e-07 1.69925e-18)
(1 -1.65498e-07 2.31778e-18)
(1 -1.1987e-07 1.50229e-18)
(1 -8.64872e-08 7.36109e-19)
(1 -6.21604e-08 -4.4912e-19)
(1 -4.44163e-08 -8.41725e-20)
(1 -3.14333e-08 9.45813e-20)
(1 -2.19111e-08 1.96613e-19)
(1 -1.49276e-08 4.08959e-19)
(1 -9.81706e-09 -2.6202e-19)
(1 -6.09121e-09 1.90734e-19)
(1 -3.38534e-09 2.61613e-19)
(1 -1.42939e-09 2.42653e-19)
(1 -2.21895e-11 3.90721e-19)
(1 9.82439e-10 -2.94312e-19)
(1 1.69316e-09 1.65816e-19)
(1 2.18774e-09 2.45253e-19)
(1 2.52515e-09 2.29968e-19)
(1 2.74672e-09 3.78136e-19)
(1 2.88495e-09 -3.06529e-19)
(1 2.96152e-09 1.48616e-19)
(1 2.99466e-09 2.4816e-19)
(1 2.99533e-09 1.22816e-19)
(1 2.97408e-09 8.02325e-19)
(1 2.93603e-09 3.003e-19)
(1 2.88763e-09 1.64483e-19)
(1 2.8308e-09 1.42612e-19)
(1 2.76984e-09 8.1203e-21)
(1 2.7049e-09 7.03968e-19)
(1 2.63917e-09 2.22387e-19)
(1 2.5718e-09 1.05335e-19)
(1 2.5054e-09 9.86175e-20)
(1 2.43856e-09 -2.49327e-20)
(1 2.37362e-09 6.77865e-19)
(1 2.30881e-09 2.00067e-19)
(1 2.24639e-09 8.4741e-20)
(1 2.18433e-09 7.87469e-20)
(1 2.12488e-09 -4.43167e-20)
(1 2.06586e-09 6.59105e-19)
(1 2.00953e-09 1.82126e-19)
(1 1.95359e-09 6.77137e-20)
(1 1.90035e-09 6.26362e-20)
(1 1.84744e-09 -5.94728e-20)
(1 1.79717e-09 6.45094e-19)
(1 1.74713e-09 1.696e-19)
(1 1.69968e-09 5.69333e-20)
(1 1.65235e-09 5.33466e-20)
(1 1.60755e-09 -6.85343e-20)
(1 1.56274e-09 6.33699e-19)
(1 1.52042e-09 1.52221e-19)
(1 1.47795e-09 2.96674e-20)
(1 1.43797e-09 1.33427e-20)
(1 1.39765e-09 -1.21732e-19)
(1 1.36e-09 5.70023e-19)
(1 1.32143e-09 8.37239e-20)
(1 1.28665e-09 -3.63275e-20)
(1 1.2485e-09 -4.32138e-20)
(1 1.21946e-09 -1.63757e-19)
(1 1.17579e-09 5.42527e-19)
(1 1.16716e-09 7.56223e-20)
(1 1.09029e-09 -6.15959e-20)
(1 1.16645e-09 6.38883e-20)
(1 9.62728e-10 -6.70839e-19)
(1.00013 -0.00251857 -2.1476e-18)
(1.00202 -0.00761262 -7.09597e-18)
(1.00633 -0.0130774 -6.09027e-18)
(1.01304 -0.0190672 -9.21901e-18)
(1.0226 -0.0256552 4.59364e-19)
(1.03543 -0.0326975 -2.96013e-17)
(1.05191 -0.039853 2.1316e-17)
(1.07215 -0.0462982 8.13147e-17)
(1.09573 -0.0511389 -4.35595e-16)
(1.12162 -0.0531529 4.39268e-17)
(1.14759 -0.0516656 2.36709e-15)
(1.17174 -0.0475867 2.39944e-15)
(1.19321 -0.041445 -4.57997e-15)
(1.21122 -0.0337001 -1.74147e-14)
(1.22522 -0.0247274 -2.952e-14)
(1.23474 -0.0147618 -3.44521e-14)
(1.23933 -0.00410219 -3.01317e-14)
(1.23862 0.00679251 -2.14419e-14)
(1.23255 0.0172669 -1.24776e-14)
(1.22144 0.0265524 -4.87113e-15)
(1.20611 0.033937 8.84536e-16)
(1.18776 0.0389525 4.91601e-15)
(1.16776 0.0414816 7.59602e-15)
(1.14741 0.0417406 9.33237e-15)
(1.12776 0.0401708 1.04669e-14)
(1.10954 0.0373082 1.12361e-14)
(1.09318 0.0336739 1.18022e-14)
(1.07885 0.0297081 1.22345e-14)
(1.06654 0.0257415 1.25514e-14)
(1.0561 0.0219968 1.2742e-14)
(1.04735 0.0186042 1.27905e-14)
(1.04005 0.0156232 1.27015e-14)
(1.03398 0.0130644 1.24967e-14)
(1.02895 0.0109068 1.22e-14)
(1.02476 0.00911235 1.18285e-14)
(1.02126 0.00763535 1.13735e-14)
(1.01832 0.00642889 1.08042e-14)
(1.01583 0.00544875 1.0078e-14)
(1.0137 0.00465532 9.15442e-15)
(1.01186 0.00401435 8.00981e-15)
(1.01025 0.00349681 6.63802e-15)
(1.00883 0.00307837 5.05692e-15)
(1.00757 0.00273868 3.30891e-15)
(1.00642 0.0024607 1.46283e-15)
(1.00537 0.0022301 -3.87438e-16)
(1.00441 0.00203499 -2.13591e-15)
(1.00351 0.00186593 -3.6718e-15)
(1.00268 0.00171614 -4.89292e-15)
(1.0019 0.00158126 -5.72409e-15)
(1.00117 0.00145793 -6.15964e-15)
(1.00049 0.00134043 -6.33679e-15)
(0.999852 0.00121607 -6.59673e-15)
(0.999265 0.00106156 -7.44389e-15)
(0.998744 0.000844039 -9.35706e-15)
(0.998318 0.000529769 -1.24908e-14)
(0.99803 9.99358e-05 -1.6451e-14)
(0.997923 -0.000431664 -2.04656e-14)
(0.998034 -0.00100808 -2.40189e-14)
(0.998367 -0.00153429 -2.74723e-14)
(0.998886 -0.00190035 -3.21272e-14)
(0.99951 -0.00201646 -3.93957e-14)
(1.00013 -0.00184616 -4.94406e-14)
(1.00063 -0.00142325 -6.02073e-14)
(1.00094 -0.000844129 -6.77917e-14)
(1.001 -0.000238093 -6.82313e-14)
(1.00085 0.000272086 -5.98416e-14)
(1.00054 0.000603847 -4.47343e-14)
(1.00016 0.000731118 -2.83701e-14)
(0.999785 0.000680156 -1.74139e-14)
(0.999491 0.000510503 -1.67022e-14)
(0.999307 0.000291008 -2.67501e-14)
(0.999238 8.00888e-05 -4.32018e-14)
(0.999265 -8.48723e-05 -5.86712e-14)
(0.999359 -0.000188914 -6.61318e-14)
(0.999484 -0.000234677 -6.19384e-14)
(0.999614 -0.000235165 -4.71335e-14)
(0.999729 -0.000207001 -2.65969e-14)
(0.99982 -0.000165636 -6.62475e-15)
(0.999883 -0.000122767 7.71484e-15)
(0.999924 -8.55736e-05 1.42495e-14)
(0.999949 -5.71499e-05 1.38511e-14)
(0.999963 -3.75872e-05 9.31901e-15)
(0.999971 -2.52458e-05 3.81741e-15)
(0.999977 -1.78888e-05 -3.83075e-16)
(0.999982 -1.3476e-05 -2.40376e-15)
(0.999986 -1.05553e-05 -2.53364e-15)
(0.99999 -8.31387e-06 -1.64238e-15)
(0.999992 -6.42157e-06 -5.81218e-16)
(0.999995 -4.81307e-06 1.43062e-16)
(0.999996 -3.50863e-06 4.12242e-16)
(0.999997 -2.51513e-06 3.58834e-16)
(0.999998 -1.79896e-06 1.80926e-16)
(0.999999 -1.29932e-06 2.58199e-17)
(0.999999 -9.51778e-07 -5.0773e-17)
(0.999999 -7.04433e-07 -5.86637e-17)
(0.999999 -5.22666e-07 -3.46236e-17)
(1 -3.86109e-07 -9.39959e-18)
(1 -2.83088e-07 4.87822e-18)
(1 -2.06091e-07 7.68339e-18)
(1 -1.49323e-07 5.31766e-18)
(1 -1.07894e-07 1.88921e-18)
(1 -7.77626e-08 -7.86432e-19)
(1 -5.5798e-08 -1.26395e-18)
(1 -3.97164e-08 -9.49929e-19)
(1 -2.79071e-08 1.00382e-19)
(1 -1.92362e-08 5.94537e-19)
(1 -1.28858e-08 3.64757e-20)
(1 -8.25324e-09 -7.20106e-20)
(1 -4.88644e-09 -2.13217e-19)
(1 -2.44947e-09 3.22852e-19)
(1 -6.92604e-10 5.47447e-19)
(1 5.65834e-10 -5.91825e-20)
(1 1.46015e-09 -1.21396e-19)
(1 2.08694e-09 -2.14361e-19)
(1 2.51883e-09 3.41356e-19)
(1 2.80738e-09 5.63678e-19)
(1 2.99244e-09 -5.19075e-20)
(1 3.10126e-09 -1.23648e-19)
(1 3.15597e-09 -2.17318e-19)
(1 3.17058e-09 3.17567e-19)
(1 3.15765e-09 5.66619e-19)
(1 3.124e-09 1.7786e-20)
(1 3.07708e-09 -4.39292e-20)
(1 3.01979e-09 -1.51324e-19)
(1 2.95689e-09 3.66932e-19)
(1 2.88911e-09 6.03307e-19)
(1 2.81981e-09 4.63261e-20)
(1 2.74853e-09 -2.05549e-20)
(1 2.67788e-09 -1.31951e-19)
(1 2.60673e-09 3.82182e-19)
(1 2.53734e-09 6.13809e-19)
(1 2.46817e-09 5.16342e-20)
(1 2.40132e-09 -2.03393e-20)
(1 2.33502e-09 -1.36147e-19)
(1 2.27131e-09 3.74616e-19)
(1 2.20824e-09 6.03967e-19)
(1 2.14784e-09 4.04168e-20)
(1 2.08807e-09 -3.23253e-20)
(1 2.03099e-09 -1.48523e-19)
(1 1.97445e-09 3.62168e-19)
(1 1.92056e-09 5.91873e-19)
(1 1.86711e-09 2.92621e-20)
(1 1.81625e-09 -4.19664e-20)
(1 1.76571e-09 -1.5648e-19)
(1 1.71768e-09 3.55169e-19)
(1 1.66986e-09 5.83856e-19)
(1 1.6245e-09 1.70848e-20)
(1 1.57919e-09 -6.19508e-20)
(1 1.53634e-09 -1.87257e-19)
(1 1.49332e-09 3.1255e-19)
(1 1.45299e-09 5.31135e-19)
(1 1.41183e-09 -4.12386e-20)
(1 1.37461e-09 -1.19608e-19)
(1 1.33389e-09 -2.38018e-19)
(1 1.30277e-09 2.73639e-19)
(1 1.25645e-09 5.04243e-19)
(1 1.24568e-09 -4.99417e-20)
(1 1.16763e-09 -1.47796e-19)
(1 1.23469e-09 -1.31631e-19)
(1 1.03865e-09 -2.19032e-19)
(1.00012 -0.0030243 2.04581e-18)
(1.00189 -0.0091484 8.2512e-18)
(1.00596 -0.0157587 5.81485e-18)
(1.01235 -0.0230722 9.95686e-18)
(1.02162 -0.0312112 2.26974e-17)
(1.0343 -0.0400344 -9.73156e-17)
(1.05096 -0.0491464 4.62688e-16)
(1.07188 -0.0574793 -9.81053e-16)
(1.09676 -0.0638702 -4.44443e-16)
(1.12453 -0.0665232 6.82457e-15)
(1.15227 -0.064507 2.22634e-15)
(1.17776 -0.0592683 -3.00005e-14)
(1.20029 -0.051524 -7.05314e-14)
(1.21912 -0.0418651 -8.10199e-14)
(1.23376 -0.0307376 -4.21999e-14)
(1.24377 -0.0183721 3.18701e-14)
(1.24862 -0.00508803 1.01465e-13)
(1.24785 0.00856603 1.47801e-13)
(1.24131 0.0217477 1.71879e-13)
(1.22929 0.0334398 1.7773e-13)
(1.21271 0.0426918 1.71105e-13)
(1.19294 0.0488864 1.57664e-13)
(1.17155 0.0518866 1.41778e-13)
(1.14999 0.0520014 1.26137e-13)
(1.1294 0.0498285 1.12017e-13)
(1.11056 0.046074 9.97737e-14)
(1.09384 0.0414092 8.93283e-14)
(1.07938 0.036388 8.04048e-14)
(1.06709 0.0314175 7.2661e-14)
(1.05678 0.0267641 6.57686e-14)
(1.04821 0.0225775 5.94617e-14)
(1.04111 0.0189205 5.35767e-14)
(1.03525 0.0157969 4.80323e-14)
(1.0304 0.0131743 4.27794e-14)
(1.02637 0.0110009 3.77326e-14)
(1.02301 0.00921735 3.2757e-14)
(1.02018 0.00776404 2.76887e-14)
(1.01778 0.00658574 2.2383e-14)
(1.01572 0.0056335 1.67531e-14)
(1.01393 0.00486535 1.07802e-14)
(1.01237 0.00424597 4.52064e-15)
(1.01097 0.00374588 -1.89942e-15)
(1.00971 0.00334054 -8.28114e-15)
(1.00857 0.00300938 -1.43612e-14)
(1.00752 0.00273515 -1.98393e-14)
(1.00654 0.00250354 -2.44165e-14)
(1.00562 0.00230316 -2.78515e-14)
(1.00476 0.00212577 -3.00191e-14)
(1.00395 0.00196605 -3.10002e-14)
(1.00319 0.00181993 -3.12201e-14)
(1.00246 0.0016807 -3.15904e-14)
(1.00178 0.00153362 -3.35187e-14)
(1.00114 0.00135158 -3.8597e-14)
(1.00055 0.00109608 -4.79172e-14)
(1.00005 0.000727254 -6.13284e-14)
(0.999674 0.000222318 -7.72839e-14)
(0.999452 -0.00040339 -9.38323e-14)
(0.99942 -0.00108357 -1.10616e-13)
(0.999584 -0.00170643 -1.30136e-13)
(0.999912 -0.00214177 -1.56636e-13)
(1.00033 -0.00228249 -1.92552e-13)
(1.00076 -0.00208442 -2.34549e-13)
(1.00108 -0.00158696 -2.72356e-13)
(1.00122 -0.0009044 -2.92236e-13)
(1.00116 -0.000190793 -2.83776e-13)
(1.00091 0.000407134 -2.46359e-13)
(1.00052 0.000790436 -1.91526e-13)
(1.0001 0.000927738 -1.39578e-13)
(0.9997 0.000850609 -1.11559e-13)
(0.999396 0.000631008 -1.19674e-13)
(0.999216 0.000352623 -1.60731e-13)
(0.99916 8.69984e-05 -2.16379e-13)
(0.999208 -0.00011963 -2.60798e-13)
(0.999325 -0.000248517 -2.72176e-13)
(0.999473 -0.000302968 -2.4167e-13)
(0.999621 -0.000299649 -1.76292e-13)
(0.999748 -0.000260144 -9.48938e-14)
(0.999843 -0.000204679 -1.96779e-14)
(0.999906 -0.000148559 3.249e-14)
(0.999944 -0.000100998 5.52075e-14)
(0.999963 -6.56721e-05 5.25594e-14)
(0.999972 -4.22322e-05 3.50981e-14)
(0.999977 -2.81131e-05 1.43658e-14)
(0.99998 -2.01212e-05 -1.41655e-15)
(0.999984 -1.55003e-05 -9.06072e-15)
(0.999987 -1.24041e-05 -9.63446e-15)
(0.999991 -9.8912e-06 -6.32461e-15)
(0.999993 -7.65642e-06 -2.31078e-15)
(0.999995 -5.70766e-06 4.76902e-16)
(0.999997 -4.12256e-06 1.55563e-15)
(0.999998 -2.9287e-06 1.38837e-15)
(0.999998 -2.08356e-06 7.22264e-16)
(0.999999 -1.50458e-06 1.22547e-16)
(0.999999 -1.10631e-06 -1.84104e-16)
(0.999999 -8.22833e-07 -2.26332e-16)
(0.999999 -6.12716e-07 -1.38412e-16)
(1 -4.53248e-07 -3.84909e-17)
(1 -3.32183e-07 1.94776e-17)
(1 -2.41605e-07 3.16557e-17)
(1 -1.75004e-07 2.06999e-17)
(1 -1.26588e-07 6.36879e-18)
(1 -9.14739e-08 -2.20787e-18)
(1 -6.58944e-08 -3.45809e-18)
(1 -4.71459e-08 -2.51456e-18)
(1 -3.33545e-08 -7.40418e-19)
(1 -2.32142e-08 3.51037e-19)
(1 -1.57825e-08 3.92778e-19)
(1 -1.03593e-08 8.61015e-19)
(1 -6.41649e-09 1.54755e-19)
(1 -3.5598e-09 -4.51087e-20)
(1 -1.49673e-09 5.71665e-21)
(1 -1.47261e-11 -1.18058e-19)