/*--------------------------------*- C++ -*----------------------------------*\
  =========                 |
  \\      /  F ield         | OpenFOAM: The Open Source CFD Toolbox
   \\    /   O peration     | Website:  https://openfoam.org
    \\  /    A nd           | Version:  11
     \\/     M anipulation  |
\*---------------------------------------------------------------------------*/
FoamFile
{
    format      ascii;
    class       volVectorField;
    location    "3.262149";
    object      U_0;
}
// * * * * * * * * * * * * * * * * * * * * * * * * * * * * * * * * * * * * * //

dimensions      [0 1 -1 0 0 0 0];

internalField   nonuniform List<vector> 
7132
(
(1.00014 -0.000288965 2.18833e-18)
(1.00224 -0.000871642 7.28926e-18)
(1.00698 -0.00148959 7.40026e-18)
(1.0142 -0.00215437 8.70013e-18)
(1.02419 -0.00286883 1.08802e-17)
(1.03713 -0.00361219 1.14578e-17)
(1.0531 -0.00434392 1.10631e-17)
(1.07191 -0.00498435 1.03844e-17)
(1.09305 -0.00544692 9.7636e-18)
(1.11561 -0.00563786 9.31592e-18)
(1.13828 -0.00549952 8.85257e-18)
(1.15977 -0.00508596 8.65549e-18)
(1.17909 -0.00444359 7.53369e-18)
(1.19543 -0.00361807 8.23069e-18)
(1.20813 -0.0026521 -1.51746e-18)
(1.21671 -0.00157969 -1.04399e-17)
(1.22081 -0.000440351 -2.26491e-17)
(1.22026 0.000713443 -2.02871e-17)
(1.2151 0.00181458 -2.71899e-17)
(1.20569 0.00278895 -3.77389e-17)
(1.19269 0.00356971 -3.72923e-17)
(1.17699 0.00411257 -3.63462e-17)
(1.15962 0.0044047 -3.62678e-17)
(1.14159 0.00446395 -3.78786e-17)
(1.12376 0.00433034 -3.12272e-17)
(1.10682 0.00405491 -3.20221e-17)
(1.09122 0.00368945 -3.36044e-17)
(1.07724 0.00327959 -3.50894e-17)
(1.06495 0.00286119 -3.63095e-17)
(1.05433 0.00245962 -3.41501e-17)
(1.04527 0.00209077 -3.19821e-17)
(1.03761 0.00176289 -3.00091e-17)
(1.03117 0.00147864 -2.97857e-17)
(1.02579 0.00123696 -2.7109e-17)
(1.02129 0.00103453 -2.43937e-17)
(1.01752 0.000866933 -2.13999e-17)
(1.01436 0.000729365 -1.83579e-17)
(1.01169 0.000617159 -1.51362e-17)
(1.00943 0.00052603 -1.00046e-17)
(1.00749 0.000452204 -4.73535e-18)
(1.00581 0.000392438 7.63986e-19)
(1.00435 0.000343985 5.48311e-18)
(1.00306 0.000304532 9.85611e-18)
(1.00192 0.000272131 1.44467e-17)
(1.00088 0.000245146 1.75609e-17)
(0.999952 0.000222219 1.95697e-17)
(0.999104 0.000202285 1.95184e-17)
(0.99833 0.000184595 1.83463e-17)
(0.997623 0.000168676 1.74312e-17)
(0.996976 0.000154127 1.59183e-17)
(0.996384 0.000140192 1.49888e-17)
(0.995848 0.000125196 1.74498e-17)
(0.995376 0.000106171 2.28561e-17)
(0.99499 7.90972e-05 2.70178e-17)
(0.994732 4.00766e-05 2.6634e-17)
(0.994655 -1.27111e-05 1.91114e-17)
(0.994815 -7.69799e-05 7.88666e-18)
(0.995248 -0.000145319 4.9433e-19)
(0.995953 -0.000206097 3.80568e-18)
(0.996872 -0.000246429 2.23736e-17)
(0.997902 -0.000256338 5.1977e-17)
(0.998905 -0.000232459 8.39577e-17)
(0.999749 -0.000179673 1.0831e-16)
(1.00033 -0.000109852 1.20663e-16)
(1.00062 -3.81923e-05 1.28394e-16)
(1.00064 2.13775e-05 1.38821e-16)
(1.00045 5.99197e-05 1.55232e-16)
(1.00016 7.50841e-05 1.69913e-16)
(0.999847 7.03621e-05 1.6496e-16)
(0.99959 5.27371e-05 1.26507e-16)
(0.999421 2.99172e-05 4.97845e-17)
(0.999347 8.18434e-06 -5.0181e-17)
(0.999353 -8.64245e-06 -1.44437e-16)
(0.999415 -1.91947e-05 -2.04417e-16)
(0.999507 -2.39007e-05 -2.11238e-16)
(0.999607 -2.41496e-05 -1.69342e-16)
(0.999701 -2.15904e-05 -9.87142e-17)
(0.999781 -1.76917e-05 -2.59237e-17)
(0.999843 -1.3543e-05 2.6117e-17)
(0.999889 -9.82155e-06 4.99548e-17)
(0.999922 -6.84764e-06 4.75522e-17)
(0.999944 -4.67826e-06 3.0249e-17)
(0.999959 -3.2082e-06 1.05983e-17)
(0.99997 -2.2611e-06 -4.21439e-18)
(0.999977 -1.65798e-06 -9.59774e-18)
(0.999983 -1.25724e-06 -8.74825e-18)
(0.999987 -9.67402e-07 -5.058e-18)
(0.999991 -7.40613e-07 -1.23231e-18)
(0.999993 -5.57295e-07 2.03553e-19)
(0.999995 -4.11062e-07 1.19e-18)
(0.999996 -2.98664e-07 9.66556e-19)
(0.999997 -2.15678e-07 2.20695e-19)
(0.999998 -1.56167e-07 4.96305e-19)
(0.999999 -1.1393e-07 -1.10761e-19)
(0.999999 -8.37073e-08 -1.68116e-19)
(0.999999 -6.16828e-08 -2.44152e-20)
(1 -4.53658e-08 -9.70465e-20)
(1 -3.3191e-08 6.43242e-19)
(1 -2.41295e-08 1.87664e-19)
(1 -1.74357e-08 7.53534e-20)
(1 -1.2527e-08 1.02194e-19)
(1 -8.94181e-09 -5.78378e-20)
(1 -6.3242e-09 6.49862e-19)
(1 -4.4102e-09 2.0241e-19)
(1 -3.00866e-09 1.15139e-19)
(1 -1.98295e-09 1.66629e-19)
(1 -1.23371e-09 2.28854e-20)
(1 -6.88727e-10 7.36423e-19)
(1 -2.93807e-10 2.84598e-19)
(1 -9.59915e-12 1.83872e-19)
(1 1.93889e-10 2.14919e-19)
(1 3.37709e-10 4.70498e-20)
(1 4.38442e-10 7.36851e-19)
(1 5.0696e-10 2.65502e-19)
(1 5.52643e-10 1.52064e-19)
(1 5.80879e-10 1.77394e-19)
(1 5.97242e-10 1.1238e-20)
(1 6.04116e-10 6.99217e-19)
(1 6.05072e-10 2.58237e-19)
(1 6.00806e-10 2.46228e-20)
(1 5.93861e-10 6.16561e-19)
(1 5.83969e-10 7.01945e-19)
(1 5.73165e-10 8.0583e-19)
(1 5.60612e-10 2.2257e-19)
(1 5.48122e-10 -4.67196e-20)
(1 5.34499e-10 5.37806e-19)
(1 5.21484e-10 6.25083e-19)
(1 5.0764e-10 7.34521e-19)
(1 4.94714e-10 1.57786e-19)
(1 4.81095e-10 -1.05689e-19)
(1 4.68574e-10 4.83053e-19)
(1 4.55406e-10 5.72827e-19)
(1 4.43447e-10 6.83478e-19)
(1 4.30837e-10 1.07339e-19)
(1 4.19502e-10 -1.55564e-19)
(1 4.07487e-10 4.34075e-19)
(1 3.96794e-10 5.25168e-19)
(1 3.85379e-10 6.37501e-19)
(1 3.75314e-10 6.33211e-20)
(1 3.64481e-10 -1.97376e-19)
(1 3.55018e-10 3.94693e-19)
(1 3.44739e-10 4.88283e-19)
(1 3.35845e-10 6.02672e-19)
(1 3.26088e-10 2.91427e-20)
(1 3.17728e-10 -2.33633e-19)
(1 3.0846e-10 3.5236e-19)
(1 3.00598e-10 4.3531e-19)
(1 2.91782e-10 5.35256e-19)
(1 2.84385e-10 -5.417e-20)
(1 2.75985e-10 -3.30702e-19)
(1 2.69056e-10 2.47527e-19)
(1 2.61016e-10 3.31523e-19)
(1 2.54641e-10 4.42043e-19)
(1 2.46694e-10 -1.29189e-19)
(1 2.4139e-10 -3.83225e-19)
(1 2.32264e-10 2.1504e-19)
(1 2.31276e-10 3.23138e-19)
(1 2.14422e-10 4.11311e-19)
(1 2.34541e-10 -2.59966e-21)
(1 1.86015e-10 -9.72777e-19)
(1.00014 -0.000864049 2.99733e-20)
(1.00222 -0.00260769 3.40354e-19)
(1.00692 -0.00445841 6.76845e-19)
(1.0141 -0.00645345 1.01469e-18)
(1.02405 -0.00860235 1.4032e-18)
(1.03699 -0.010844 1.81234e-18)
(1.05302 -0.0130575 2.21834e-18)
(1.07198 -0.0150001 2.09351e-18)
(1.09335 -0.0164084 5.58926e-18)
(1.11622 -0.0169905 6.85583e-18)
(1.13921 -0.0165687 4.1151e-18)
(1.16096 -0.0153172 5.16106e-18)
(1.1805 -0.0133787 1.57342e-18)
(1.197 -0.0108918 1.13338e-17)
(1.20983 -0.00798463 3.47399e-17)
(1.21851 -0.00475713 5.81644e-17)
(1.22266 -0.00132564 6.46191e-17)
(1.22208 0.00215386 5.53056e-17)
(1.21683 0.00547903 3.66321e-17)
(1.20726 0.00842385 1.31234e-17)
(1.19404 0.010783 -1.11212e-17)
(1.17809 0.0124198 -3.37561e-17)
(1.16047 0.0132948 -5.35834e-17)
(1.14221 0.0134633 -7.02394e-17)
(1.12421 0.0130487 -8.29489e-17)
(1.10714 0.0122072 -9.202e-17)
(1.09147 0.0110967 -9.7582e-17)
(1.07745 0.00985538 -9.96826e-17)
(1.06516 0.00859134 -9.84946e-17)
(1.05456 0.00738054 -9.38626e-17)
(1.04552 0.00627016 -8.39184e-17)
(1.0379 0.00528443 -7.6653e-17)
(1.0315 0.00443083 -6.60314e-17)
(1.02615 0.00370572 -5.20158e-17)
(1.02168 0.00309886 -3.73996e-17)
(1.01794 0.00259673 -1.92161e-17)
(1.0148 0.00218479 -2.17541e-18)
(1.01215 0.00184894 1.5479e-17)
(1.00989 0.00157628 3.39435e-17)
(1.00796 0.00135546 5.16001e-17)
(1.00629 0.00117675 6.86964e-17)
(1.00483 0.0010319 8.05287e-17)
(1.00354 0.000914007 8.86817e-17)
(1.0024 0.000817224 9.23283e-17)
(1.00136 0.000736655 9.10226e-17)
(1.00043 0.000668237 8.5519e-17)
(0.999571 0.000608775 7.37675e-17)
(0.99879 0.000556014 6.00504e-17)
(0.998075 0.00050853 4.71126e-17)
(0.997418 0.00046514 3.76265e-17)
(0.996816 0.000423641 3.73665e-17)
(0.996269 0.000379135 4.56338e-17)
(0.995783 0.000322875 5.70085e-17)
(0.995382 0.000242932 6.02591e-17)
(0.995103 0.000127604 4.26437e-17)
(0.995 -2.87802e-05 4.33326e-18)
(0.995128 -0.000219775 -4.17771e-17)
(0.995524 -0.000423648 -6.93193e-17)
(0.996186 -0.000605912 -5.5191e-17)
(0.997063 -0.000728063 1.14601e-18)
(0.998051 -0.000759967 7.55288e-17)
(0.999018 -0.000691031 1.26464e-16)
(0.999832 -0.000535264 1.2886e-16)
(1.0004 -0.000327742 9.3418e-17)
(1.00067 -0.000113775 6.78719e-17)
(1.00067 6.48082e-05 1.02125e-16)
(1.00047 0.000180885 2.04462e-16)
(1.00017 0.000226989 3.34061e-16)
(0.999854 0.000213235 4.05323e-16)
(0.999591 0.000160383 3.40256e-16)
(0.999418 9.15549e-05 1.13659e-16)
(0.999342 2.57376e-05 -2.26286e-16)
(0.999347 -2.54156e-05 -5.65152e-16)
(0.999411 -5.76287e-05 -7.85573e-16)
(0.999505 -7.20913e-05 -8.14609e-16)
(0.999607 -7.29597e-05 -6.57023e-16)
(0.999703 -6.5233e-05 -3.89198e-16)
(0.999784 -5.33956e-05 -1.0918e-16)
(0.999847 -4.07898e-05 9.69481e-17)
(0.999892 -2.9496e-05 1.92196e-16)
(0.999924 -2.04959e-05 1.87865e-16)
(0.999946 -1.39576e-05 1.22152e-16)
(0.99996 -9.55064e-06 4.54185e-17)
(0.99997 -6.7285e-06 -1.13187e-17)
(0.999978 -4.94072e-06 -3.55796e-17)
(0.999983 -3.7551e-06 -3.28775e-17)
(0.999987 -2.89531e-06 -2.01037e-17)
(0.999991 -2.21904e-06 -5.77333e-18)
(0.999993 -1.66998e-06 2.40873e-18)
(0.999995 -1.23102e-06 5.20457e-18)
(0.999997 -8.9358e-07 5.19477e-18)
(0.999997 -6.44776e-07 2.16289e-18)
(0.999998 -4.66703e-07 7.09653e-19)
(0.999999 -3.4054e-07 -4.7767e-20)
(0.999999 -2.50338e-07 -1.06947e-19)
(0.999999 -1.84589e-07 3.0582e-19)
(1 -1.35835e-07 -1.3262e-19)
(1 -9.94247e-08 4.64209e-19)
(1 -7.23112e-08 5.47303e-19)
(1 -5.22811e-08 4.50527e-19)
(1 -3.75963e-08 5.06639e-19)
(1 -2.68741e-08 -2.27011e-19)
(1 -1.90467e-08 2.58253e-19)
(1 -1.33227e-08 3.71024e-19)
(1 -9.13024e-09 3.57667e-19)
(1 -6.06076e-09 4.88578e-19)
(1 -3.81795e-09 -2.01241e-19)
(1 -2.18561e-09 3.00052e-19)
(1 -1.00236e-09 4.11642e-19)
(1 -1.49803e-10 3.88147e-19)
(1 4.61017e-10 5.04358e-19)
(1 8.93912e-10 -2.02131e-19)
(1 1.19744e-09 2.83018e-19)
(1 1.40524e-09 3.81573e-19)
(1 1.54412e-09 3.5013e-19)
(1 1.63151e-09 4.63607e-19)
(1 1.68264e-09 -2.39981e-19)
(1 1.70618e-09 2.44103e-19)
(1 1.71114e-09 3.70241e-19)
(1 1.70136e-09 2.25432e-19)
(1 1.68258e-09 8.89325e-19)
(1 1.65595e-09 4.04519e-19)
(1 1.6255e-09 3.02357e-19)
(1 1.59087e-09 2.9718e-19)
(1 1.55524e-09 1.29859e-19)
(1 1.51737e-09 7.97787e-19)
(1 1.48002e-09 3.23691e-19)
(1 1.44142e-09 2.33383e-19)
(1 1.40419e-09 2.38947e-19)
(1 1.3662e-09 8.0072e-20)
(1 1.33004e-09 7.53728e-19)
(1 1.29332e-09 2.82913e-19)
(1 1.25869e-09 1.94153e-19)
(1 1.22357e-09 2.00379e-19)
(1 1.19066e-09 4.19753e-20)
(1 1.15726e-09 7.16308e-19)
(1 1.12613e-09 2.46489e-19)
(1 1.09445e-09 1.58996e-19)
(1 1.06507e-09 1.66687e-19)
(1 1.03506e-09 9.94269e-21)
(1 1.00736e-09 6.8616e-19)
(1 9.78943e-10 2.18373e-19)
(1 9.52829e-10 1.3266e-19)
(1 9.25914e-10 1.41013e-19)
(1 9.01289e-10 -1.74444e-20)
(1 8.75778e-10 6.53389e-19)
(1 8.52545e-10 1.75838e-19)
(1 8.28334e-10 7.64856e-20)
(1 8.06408e-10 6.93704e-20)
(1 7.83388e-10 -1.0305e-19)
(1 7.62769e-10 5.59056e-19)
(1 7.40752e-10 8.09068e-20)
(1 7.217e-10 -9.93538e-21)
(1 6.99943e-10 -9.5736e-22)
(1 6.84041e-10 -1.52747e-19)
(1 6.5904e-10 5.28396e-19)
(1 6.55415e-10 7.25564e-20)
(1 6.09141e-10 -3.58508e-20)
(1 6.62913e-10 1.10278e-19)
(1 5.31411e-10 -6.78095e-19)
(1.00014 -0.00143122 1.82615e-22)
(1.00218 -0.00432138 4.09456e-21)
(1.0068 -0.00739574 3.25887e-21)
(1.01388 -0.0107223 8.78173e-21)
(1.02376 -0.014322 -1.54742e-19)
(1.0367 -0.0180971 2.27076e-19)
(1.05283 -0.0218483 -8.25572e-19)
(1.07208 -0.0251591 -1.48966e-18)
(1.09393 -0.0275775 6.18949e-18)
(1.11744 -0.0285797 -1.22353e-18)
(1.14107 -0.0278529 -3.5866e-17)
(1.16335 -0.0257294 -2.74589e-17)
(1.18332 -0.0224589 9.28162e-17)
(1.20016 -0.0182782 2.77233e-16)
(1.21324 -0.0134001 3.88562e-16)
(1.2221 -0.00798404 3.26831e-16)
(1.22633 -0.00221912 1.24346e-16)
(1.22572 0.0036345 -1.0693e-16)
(1.22028 0.00923333 -3.04038e-16)
(1.21037 0.0141906 -4.45658e-16)
(1.19669 0.0181543 -5.31394e-16)
(1.18023 0.0208912 -5.70955e-16)
(1.16209 0.0223362 -5.76669e-16)
(1.14338 0.0225874 -5.58883e-16)
(1.12501 0.0218582 -5.24441e-16)
(1.10769 0.0204165 -4.77201e-16)
(1.09187 0.0185308 -4.19485e-16)
(1.07778 0.0164342 -3.53179e-16)
(1.06548 0.0143077 -2.80306e-16)
(1.05491 0.0122773 -2.03195e-16)
(1.04594 0.0104203 -1.23777e-16)
(1.03839 0.00877545 -4.45358e-17)
(1.03206 0.00735383 3.33157e-17)
(1.02678 0.00614817 1.09432e-16)
(1.02238 0.00514053 1.83462e-16)
(1.01869 0.00430772 2.552e-16)
(1.0156 0.00362516 3.23092e-16)
(1.01298 0.00306908 3.8472e-16)
(1.01076 0.0026179 4.36941e-16)
(1.00885 0.00225269 4.76008e-16)
(1.00719 0.00195726 4.98349e-16)
(1.00574 0.00171793 5.00521e-16)
(1.00446 0.00152322 4.80539e-16)
(1.00331 0.00136347 4.38365e-16)
(1.00227 0.00123057 3.76234e-16)
(1.00133 0.00111779 2.98815e-16)
(1.00046 0.00101983 2.12708e-16)
(0.999672 0.000932918 1.274e-16)
(0.998941 0.000854686 5.55084e-17)
(0.998268 0.00078319 1.05289e-17)
(0.997648 0.000714867 1.77684e-18)
(0.99708 0.000641793 2.08921e-17)
(0.996571 0.000549738 3.63905e-17)
(0.996142 0.000419157 2.39001e-18)
(0.99583 0.0002307 -1.1813e-16)
(0.995684 -2.53003e-05 -3.14794e-16)
(0.995759 -0.000338737 -5.21248e-16)
(0.99609 -0.000674325 -6.4615e-16)
(0.996678 -0.000975538 -6.35506e-16)
(0.997475 -0.00117884 -5.32144e-16)
(0.998382 -0.00123411 -4.67577e-16)
(0.999273 -0.00112322 -5.81982e-16)
(1.00002 -0.000868647 -9.03828e-16)
(1.00053 -0.000527876 -1.28825e-15)
(1.00075 -0.000175667 -1.47394e-15)
(1.00072 0.000118629 -1.24071e-15)
(1.0005 0.000309748 -5.86098e-16)
(1.00018 0.0003849 2.3304e-16)
(0.999849 0.000360531 8.0009e-16)
(0.999577 0.000270946 7.44445e-16)
(0.999401 0.000154616 -4.63963e-17)
(0.999325 4.33282e-05 -1.34491e-15)
(0.999334 -4.32483e-05 -2.66849e-15)
(0.999403 -9.77679e-05 -3.5079e-15)
(0.999502 -0.000122124 -3.5605e-15)
(0.99961 -0.000123316 -2.84597e-15)
(0.99971 -0.000109863 -1.67149e-15)
(0.999792 -8.94696e-05 -4.6173e-16)
(0.999855 -6.78947e-05 4.2914e-16)
(0.9999 -4.87105e-05 8.39467e-16)
(0.99993 -3.35674e-05 8.17844e-16)
(0.99995 -2.26959e-05 5.40199e-16)
(0.999963 -1.54695e-05 2.0774e-16)
(0.999972 -1.09078e-05 -3.87438e-17)
(0.999979 -8.04865e-06 -1.50336e-16)
(0.999984 -6.15426e-06 -1.48217e-16)
(0.999988 -4.7664e-06 -9.01068e-17)
(0.999991 -3.65954e-06 -2.71643e-17)
(0.999994 -2.75216e-06 1.27456e-17)
(0.999995 -2.02433e-06 2.46644e-17)
(0.999997 -1.46576e-06 1.9442e-17)
(0.999998 -1.05577e-06 8.61099e-18)
(0.999998 -7.6384e-07 1.56694e-19)
(0.999999 -5.5778e-07 -3.45318e-18)
(0.999999 -4.10611e-07 -3.36081e-18)
(0.999999 -3.03181e-07 -1.73162e-18)
(1 -2.23318e-07 -3.0716e-19)
(1 -1.63552e-07 4.15739e-19)
(1 -1.19011e-07 5.29555e-19)
(1 -8.61169e-08 3.58515e-19)
(1 -6.20212e-08 2.08715e-19)
(1 -4.44405e-08 7.75493e-20)
(1 -3.16097e-08 6.96064e-20)
(1 -2.22242e-08 1.19907e-19)
(1 -1.53461e-08 1.65934e-19)
(1 -1.03068e-08 2.2735e-19)
(1 -6.62243e-09 1.96668e-19)
(1 -3.93888e-09 1.94861e-19)
(1 -1.99215e-09 2.09554e-19)
(1 -5.87379e-10 2.16839e-19)
(1 4.20792e-10 2.50424e-19)
(1 1.13774e-09 2.01926e-19)
(1 1.64223e-09 1.87928e-19)
(1 1.99032e-09 1.93675e-19)
(1 2.22489e-09 1.95111e-19)
(1 2.37562e-09 2.26029e-19)
(1 2.46627e-09 1.77963e-19)
(1 2.51229e-09 1.63722e-19)
(1 2.52711e-09 1.74978e-19)
(1 2.51842e-09 1.59152e-19)
(1 2.49414e-09 2.18686e-19)
(1 2.45769e-09 2.38124e-19)
(1 2.41405e-09 2.33753e-19)
(1 2.36431e-09 2.30473e-19)
(1 2.3119e-09 1.96977e-19)
(1 2.25662e-09 2.43045e-19)
(1 2.20111e-09 2.54137e-19)
(1 2.14441e-09 2.45084e-19)
(1 2.08878e-09 2.38831e-19)
(1 2.03283e-09 2.02517e-19)
(1 1.97862e-09 2.45132e-19)
(1 1.92451e-09 2.52103e-19)
(1 1.8725e-09 2.38717e-19)
(1 1.82074e-09 2.28504e-19)
(1 1.77124e-09 1.89038e-19)
(1 1.72204e-09 2.29464e-19)
(1 1.67516e-09 2.3511e-19)
(1 1.62853e-09 2.21048e-19)
(1 1.58423e-09 2.10626e-19)
(1 1.54011e-09 1.71352e-19)
(1 1.49829e-09 2.12408e-19)
(1 1.45656e-09 2.19107e-19)
(1 1.41708e-09 2.06233e-19)
(1 1.3776e-09 1.96398e-19)
(1 1.34031e-09 1.55929e-19)
(1 1.30294e-09 1.92676e-19)
(1 1.26772e-09 1.91036e-19)
(1 1.23229e-09 1.65929e-19)
(1 1.19901e-09 1.41555e-19)
(1 1.16536e-09 8.7156e-20)
(1 1.13402e-09 1.14079e-19)
(1 1.10184e-09 1.09659e-19)
(1 1.07284e-09 9.01152e-20)
(1 1.04103e-09 7.86826e-20)
(1 1.01682e-09 4.18898e-20)
(1 9.80279e-10 8.64598e-20)
(1 9.73933e-10 9.90828e-20)
(1 9.07364e-10 8.2355e-20)
(1 9.80174e-10 9.94693e-20)
(1 7.96179e-10 -4.50512e-21)
(1.00014 -0.00198497 -3.17073e-20)
(1.00211 -0.00599606 -4.88236e-19)
(1.00661 -0.0102782 -8.32866e-19)
(1.01354 -0.0149372 -1.6073e-18)
(1.02329 -0.0200137 -1.74748e-18)
(1.03619 -0.025381 -1.68678e-18)
(1.05249 -0.0307652 -1.11389e-17)
(1.07217 -0.035558 1.75532e-17)
(1.09474 -0.0391 3.38631e-18)
(1.11925 -0.0405714 -1.36339e-16)
(1.14386 -0.0394982 -2.40041e-17)
(1.16693 -0.0364418 6.26862e-16)
(1.18754 -0.031778 1.19662e-15)
(1.20489 -0.0258499 7.32528e-16)
(1.21836 -0.0189537 -1.00299e-15)
(1.22749 -0.011296 -3.25657e-15)
(1.23186 -0.00312738 -4.73974e-15)
(1.23119 0.00519154 -5.25786e-15)
(1.22547 0.0131668 -5.148e-15)
(1.21504 0.0202311 -4.64899e-15)
(1.20066 0.025864 -3.95607e-15)
(1.1834 0.0297227 -3.2105e-15)
(1.16448 0.0317171 -2.49588e-15)
(1.14507 0.0319986 -1.84709e-15)
(1.12616 0.0308865 -1.26697e-15)
(1.10846 0.0287741 -7.44353e-16)
(1.09241 0.0260503 -2.66252e-16)
(1.07822 0.0230484 1.74909e-16)
(1.06591 0.0200232 5.8008e-16)
(1.0554 0.0171496 9.46158e-16)
(1.04652 0.0145326 1.27127e-15)
(1.03908 0.012223 1.5481e-15)
(1.03287 0.0102329 1.78575e-15)
(1.0277 0.00854952 1.9905e-15)
(1.02339 0.00714569 2.16496e-15)
(1.01978 0.00598758 2.31171e-15)
(1.01675 0.00503984 2.41979e-15)
(1.01419 0.00426871 2.48114e-15)
(1.01201 0.00364371 2.48406e-15)
(1.01013 0.00313826 2.41654e-15)
(1.0085 0.00272974 2.27135e-15)
(1.00706 0.00239908 2.04185e-15)
(1.00579 0.00213031 1.73416e-15)
(1.00464 0.00191004 1.35972e-15)
(1.0036 0.00172697 9.38478e-16)
(1.00265 0.00157178 4.9799e-16)
(1.00177 0.00143709 6.81153e-17)
(1.00096 0.00131764 -3.10859e-16)
(1.00021 0.00121011 -5.9927e-16)
(0.999514 0.00111179 -7.67409e-16)
(0.998867 0.00101787 -8.15471e-16)
(0.998269 0.000917654 -8.10295e-16)
(0.997727 0.000791827 -8.88693e-16)
(0.997259 0.000613696 -1.21382e-15)
(0.9969 0.000356586 -1.87648e-15)
(0.996694 6.79746e-06 -2.78939e-15)
(0.996694 -0.000422439 -3.70045e-15)
(0.996934 -0.000883286 -4.35547e-15)
(0.997416 -0.00129838 -4.71903e-15)
(0.998096 -0.00158022 -5.09403e-15)
(0.998883 -0.00165925 -5.97898e-15)
(0.999657 -0.00150974 -7.69523e-15)
(1.0003 -0.00116197 -9.99659e-15)
(1.00071 -0.000694832 -1.19988e-14)
(1.00087 -0.000211471 -1.25605e-14)
(1.00078 0.000192036 -1.09655e-14)
(1.00052 0.000452694 -7.49473e-15)
(1.00017 0.000552418 -3.43875e-15)
(0.999822 0.000513778 -5.92173e-16)
(0.999542 0.000384384 -4.00564e-16)
(0.999364 0.000217937 -3.19719e-15)
(0.999291 5.90758e-05 -7.94951e-15)
(0.999309 -6.43521e-05 -1.26858e-14)
(0.999388 -0.000141793 -1.54259e-14)
(0.999498 -0.000175843 -1.5053e-14)
(0.999615 -0.00017652 -1.17371e-14)
(0.99972 -0.000156175 -6.73734e-15)
(0.999805 -0.000126061 -1.73512e-15)
(0.999868 -9.46117e-05 1.89089e-15)
(0.999911 -6.70118e-05 3.5389e-15)
(0.999938 -4.55661e-05 3.4226e-15)
(0.999956 -3.04644e-05 2.26527e-15)
(0.999967 -2.06507e-05 8.85312e-16)
(0.999974 -1.4599e-05 -1.45637e-16)
(0.99998 -1.08685e-05 -6.18329e-16)
(0.999985 -8.39428e-06 -6.2209e-16)
(0.999989 -6.5459e-06 -3.87414e-16)
(0.999992 -5.03685e-06 -1.24191e-16)
(0.999994 -3.78147e-06 4.64145e-17)
(0.999996 -2.77055e-06 1.04175e-16)
(0.999997 -1.99772e-06 8.6586e-17)
(0.999998 -1.43495e-06 4.08576e-17)
(0.999998 -1.03763e-06 4.30446e-18)
(0.999999 -7.588e-07 -1.2612e-17)
(0.999999 -5.59872e-07 -1.34851e-17)
(0.999999 -4.14227e-07 -7.17072e-18)
(1 -3.05481e-07 -1.78228e-18)
(1 -2.23839e-07 1.78347e-18)
(1 -1.62933e-07 2.2837e-18)
(1 -1.17988e-07 1.43994e-18)
(1 -8.5116e-08 6.94612e-19)
(1 -6.11621e-08 -4.61606e-19)
(1 -4.36869e-08 -7.94714e-20)
(1 -3.08983e-08 1.03216e-19)
(1 -2.15181e-08 2.02338e-19)
(1 -1.46391e-08 4.10882e-19)
(1 -9.60605e-09 -2.62207e-19)
(1 -5.93741e-09 1.90104e-19)
(1 -3.27363e-09 2.61276e-19)
(1 -1.34854e-09 2.4263e-19)
(1 3.60676e-11 3.90801e-19)
(1 1.02415e-09 -2.94272e-19)
(1 1.72275e-09 1.65794e-19)
(1 2.20845e-09 2.4521e-19)
(1 2.53936e-09 2.29938e-19)
(1 2.75618e-09 3.78118e-19)
(1 2.89095e-09 -3.06563e-19)
(1 2.965e-09 1.48531e-19)
(1 2.99632e-09 2.48e-19)
(1 2.99568e-09 1.22579e-19)
(1 2.97349e-09 8.02035e-19)
(1 2.93477e-09 3e-19)
(1 2.88591e-09 1.64219e-19)
(1 2.82876e-09 1.42422e-19)
(1 2.76759e-09 8.02037e-21)
(1 2.70252e-09 7.0395e-19)
(1 2.63671e-09 2.22426e-19)
(1 2.5693e-09 1.05397e-19)
(1 2.5029e-09 9.86747e-20)
(1 2.43607e-09 -2.48972e-20)
(1 2.37117e-09 6.77876e-19)
(1 2.3064e-09 2.00059e-19)
(1 2.24403e-09 8.47229e-20)
(1 2.18203e-09 7.87279e-20)
(1 2.12263e-09 -4.43318e-20)
(1 2.06367e-09 6.59094e-19)
(1 2.00739e-09 1.8212e-19)
(1 1.95152e-09 6.77107e-20)
(1 1.89834e-09 6.26402e-20)
(1 1.84548e-09 -5.94541e-20)
(1 1.79527e-09 6.45136e-19)
(1 1.74528e-09 1.69667e-19)
(1 1.69788e-09 5.70135e-20)
(1 1.6506e-09 5.34057e-20)
(1 1.60584e-09 -6.85491e-20)
(1 1.56108e-09 6.33552e-19)
(1 1.5188e-09 1.519e-19)
(1 1.47639e-09 2.91695e-20)
(1 1.43645e-09 1.27147e-20)
(1 1.39616e-09 -1.22401e-19)
(1 1.35855e-09 5.69416e-19)
(1 1.32001e-09 8.32685e-20)
(1 1.28527e-09 -3.65875e-20)
(1 1.24715e-09 -4.32871e-20)
(1 1.21814e-09 -1.63695e-19)
(1 1.17451e-09 5.42654e-19)
(1 1.16588e-09 7.5751e-20)
(1 1.08909e-09 -6.15052e-20)
(1 1.16517e-09 6.39298e-20)
(1 9.61639e-10 -6.70846e-19)
(1.00013 -0.00251853 -2.12786e-18)
(1.00202 -0.00761249 -7.21073e-18)
(1.00633 -0.0130772 -6.08892e-18)
(1.01304 -0.0190668 -9.16684e-18)
(1.0226 -0.0256546 4.75893e-19)
(1.03542 -0.0326966 -2.95773e-17)
(1.05191 -0.0398517 2.13027e-17)
(1.07214 -0.0462962 8.12855e-17)
(1.09572 -0.0511359 -4.35459e-16)
(1.12162 -0.0531485 4.39577e-17)
(1.14758 -0.051659 2.36611e-15)
(1.17173 -0.0475771 2.39842e-15)
(1.1932 -0.0414312 -4.57506e-15)
(1.2112 -0.0336807 -1.73957e-14)
(1.22519 -0.024701 -2.94832e-14)
(1.2347 -0.0147276 -3.4403e-14)
(1.23927 -0.00406079 -3.00807e-14)
(1.23854 0.00683884 -2.14124e-14)
(1.23244 0.017314 -1.24746e-14)
(1.22131 0.0265952 -4.89164e-15)
(1.20596 0.0339707 8.45233e-16)
(1.1876 0.0389738 4.86517e-15)
(1.16759 0.0414894 7.53923e-15)
(1.14724 0.0417359 9.27357e-15)
(1.12759 0.040156 1.04087e-14)
(1.10938 0.0372863 1.11801e-14)
(1.09304 0.033648 1.17488e-14)
(1.07872 0.0296804 1.2183e-14)
(1.06642 0.0257141 1.25006e-14)
(1.056 0.0219709 1.26906e-14)
(1.04726 0.0185806 1.27381e-14)
(1.03997 0.0156023 1.2649e-14)
(1.03391 0.0130461 1.24458e-14)
(1.02889 0.0108911 1.21523e-14)
(1.0247 0.00909901 1.17847e-14)
(1.02121 0.00762408 1.1333e-14)
(1.01827 0.00641941 1.07653e-14)
(1.01578 0.00544078 1.0039e-14)
(1.01366 0.00464863 9.11381e-15)
(1.01182 0.00400874 7.96684e-15)
(1.01022 0.00349209 6.59272e-15)
(1.0088 0.00307437 5.01026e-15)
(1.00753 0.00273525 3.26278e-15)
(1.00639 0.00245766 1.42004e-15)
(1.00534 0.00222729 -4.23513e-16)
(1.00438 0.00203226 -2.16168e-15)
(1.00348 0.00186318 -3.68382e-15)
(1.00265 0.00171334 -4.88825e-15)
(1.00187 0.00157842 -5.70129e-15)
(1.00115 0.00145501 -6.12099e-15)
(1.00046 0.00133714 -6.29133e-15)
(0.999829 0.00121165 -6.56147e-15)
(0.999243 0.00105468 -7.43943e-15)
(0.998725 0.000833002 -9.39621e-15)
(0.998304 0.000513143 -1.2565e-14)
(0.998023 7.74293e-05 -1.65267e-14)
(0.997926 -0.000458403 -2.05024e-14)
(0.998048 -0.00103524 -2.4003e-14)
(0.998391 -0.00155655 -2.74357e-14)
(0.998917 -0.00191242 -3.21331e-14)
(0.999543 -0.00201486 -3.94865e-14)
(1.00016 -0.00183066 -4.95796e-14)
(1.00066 -0.00139715 -6.02616e-14)
(1.00095 -0.000813282 -6.75831e-14)
(1.001 -0.000209115 -6.76365e-14)
(1.00084 0.000293812 -5.88876e-14)
(1.00052 0.000615514 -4.36201e-14)
(1.00014 0.00073281 -2.73988e-14)
(0.999768 0.000674212 -1.68619e-14)
(0.999479 0.000500344 -1.66824e-14)
(0.999301 0.000279969 -2.71409e-14)
(0.999237 7.06236e-05 -4.36894e-14)
(0.999269 -9.14789e-05 -5.88936e-14)
(0.999364 -0.000192426 -6.58455e-14)
(0.999491 -0.000235566 -6.11206e-14)
(0.999621 -0.000234234 -4.59793e-14)
(0.999734 -0.000205087 -2.54201e-14)
(0.999823 -0.000163426 -5.71712e-15)
(0.999886 -0.000120725 8.19352e-15)
(0.999926 -8.39391e-05 1.43075e-14)
(0.99995 -5.59831e-05 1.36248e-14)
(0.999963 -3.68325e-05 8.99078e-15)
(0.999971 -2.47941e-05 3.53698e-15)
(0.999977 -1.76265e-05 -5.41039e-16)
(0.999982 -1.33138e-05 -2.43914e-15)
(0.999986 -1.04382e-05 -2.49136e-15)
(0.99999 -8.21616e-06 -1.57626e-15)
(0.999993 -6.33646e-06 -5.28953e-16)
(0.999995 -4.74157e-06 1.6768e-16)
(0.999996 -3.45247e-06 4.13653e-16)
(0.999997 -2.47387e-06 3.48918e-16)
(0.999998 -1.77006e-06 1.70156e-16)
(0.999999 -1.27943e-06 1.94067e-17)
(0.999999 -9.37873e-07 -5.24261e-17)
(0.999999 -6.94358e-07 -5.75451e-17)
(0.999999 -5.15127e-07 -3.28751e-17)
(1 -3.80393e-07 -8.22268e-18)
(1 -2.78781e-07 5.26068e-18)
(1 -2.02895e-07 7.56773e-18)
(1 -1.46984e-07 5.06782e-18)
(1 -1.06195e-07 1.71443e-18)
(1 -7.65275e-08 -8.44113e-19)
(1 -5.48956e-08 -1.24893e-18)
(1 -3.90538e-08 -9.16474e-19)
(1 -2.74198e-08 1.22859e-19)
(1 -1.88784e-08 6.01369e-19)
(1 -1.26241e-08 3.44197e-20)
(1 -8.06254e-09 -7.58313e-20)
(1 -4.74796e-09 -2.15465e-19)
(1 -2.34925e-09 3.22376e-19)
(1 -6.20362e-10 5.47786e-19)
(1 6.17597e-10 -5.88069e-20)
(1 1.49691e-09 -1.21248e-19)
(1 2.11271e-09 -2.14383e-19)
(1 2.53656e-09 3.41285e-19)
(1 2.81923e-09 5.63614e-19)
(1 3.00001e-09 -5.19776e-20)
(1 3.10572e-09 -1.23762e-19)
(1 3.15819e-09 -2.17504e-19)
(1 3.17118e-09 3.17311e-19)
(1 3.15709e-09 5.6632e-19)
(1 3.12261e-09 1.74871e-20)
(1 3.07512e-09 -4.41822e-20)
(1 3.01744e-09 -1.51499e-19)
(1 2.95428e-09 3.66847e-19)
(1 2.88634e-09 6.033e-19)
(1 2.81694e-09 4.63702e-20)
(1 2.74561e-09 -2.04923e-20)
(1 2.67495e-09 -1.31897e-19)
(1 2.60382e-09 3.82214e-19)
(1 2.53447e-09 6.13816e-19)
(1 2.46534e-09 5.1624e-20)
(1 2.39856e-09 -2.03573e-20)
(1 2.33232e-09 -1.36165e-19)
(1 2.26868e-09 3.74603e-19)
(1 2.20567e-09 6.03959e-19)
(1 2.14535e-09 4.04121e-20)
(1 2.08564e-09 -3.23276e-20)
(1 2.02863e-09 -1.4852e-19)
(1 1.97216e-09 3.62184e-19)
(1 1.91833e-09 5.91912e-19)
(1 1.86495e-09 2.93317e-20)
(1 1.81415e-09 -4.18734e-20)
(1 1.76366e-09 -1.5639e-19)
(1 1.71569e-09 3.55209e-19)
(1 1.66792e-09 5.83792e-19)
(1 1.62261e-09 1.68721e-20)
(1 1.57736e-09 -6.23242e-20)
(1 1.53455e-09 -1.87759e-19)
(1 1.49158e-09 3.11992e-19)
(1 1.4513e-09 5.30613e-19)
(1 1.41018e-09 -4.16432e-20)
(1 1.373e-09 -1.1985e-19)
(1 1.33232e-09 -2.38097e-19)
(1 1.30123e-09 2.73683e-19)
(1 1.25496e-09 5.04349e-19)
(1 1.2442e-09 -4.98294e-20)
(1 1.16623e-09 -1.47714e-19)
(1 1.23321e-09 -1.31591e-19)
(1 1.03738e-09 -2.19036e-19)
(1.00012 -0.00302426 2.03279e-18)
(1.00189 -0.00914825 8.24837e-18)
(1.00596 -0.0157585 5.8136e-18)
(1.01235 -0.0230717 9.94212e-18)
(1.02162 -0.0312105 2.26914e-17)
(1.0343 -0.0400333 -9.73185e-17)
(1.05096 -0.0491448 4.62634e-16)
(1.07188 -0.057477 -9.80859e-16)
(1.09676 -0.0638667 -4.44781e-16)
(1.12452 -0.0665181 6.82359e-15)
(1.15227 -0.0644994 2.22847e-15)
(1.17776 -0.0592572 -2.99893e-14)
(1.20028 -0.0515079 -7.05064e-14)
(1.2191 -0.041842 -8.09924e-14)
(1.23373 -0.0307056 -4.2226e-14)
(1.24373 -0.01833 3.17036e-14)
(1.24856 -0.00503616 1.01084e-13)
(1.24777 0.0086247 1.47278e-13)
(1.2412 0.0218078 1.71267e-13)
(1.22916 0.0334945 1.77079e-13)
(1.21256 0.0427346 1.70471e-13)
(1.19277 0.048913 1.57089e-13)
(1.17137 0.0518957 1.41283e-13)
(1.14981 0.0519946 1.25719e-13)
(1.12923 0.0498091 1.11662e-13)
(1.1104 0.0460459 9.94651e-14)
(1.0937 0.0413762 8.90562e-14)
(1.07926 0.0363532 8.01624e-14)
(1.06698 0.0313834 7.24434e-14)
(1.05668 0.0267321 6.55718e-14)
(1.04812 0.0225484 5.92838e-14)
(1.04104 0.0188948 5.34185e-14)
(1.03518 0.0157746 4.7896e-14)
(1.03034 0.0131553 4.26656e-14)
(1.02632 0.0109848 3.7639e-14)
(1.02296 0.00920374 3.26781e-14)
(1.02014 0.00775261 2.76176e-14)
(1.01774 0.00657616 2.23142e-14)
(1.01568 0.00562547 1.6683e-14)
(1.0139 0.00485863 1.0708e-14)
(1.01233 0.00424034 4.44786e-15)
(1.01093 0.00374114 -1.96877e-15)
(1.00968 0.00333648 -8.34047e-15)
(1.00854 0.00300581 -1.44019e-14)
(1.00748 0.00273187 -1.9852e-14)
(1.00651 0.00250037 -2.43929e-14)
(1.00559 0.00229998 -2.77867e-14)
(1.00473 0.00212252 -2.99133e-14)
(1.00392 0.00196275 -3.08628e-14)
(1.00316 0.00181652 -3.10756e-14)
(1.00243 0.00167686 -3.14827e-14)
(1.00175 0.00152846 -3.35068e-14)
(1.00111 0.00134355 -3.87332e-14)
(1.00053 0.0010832 -4.82135e-14)
(1.00004 0.000707798 -6.17308e-14)
(0.999663 0.000195908 -7.76861e-14)
(0.999449 -0.000434859 -9.41465e-14)
(0.999426 -0.00111564 -1.10865e-13)
(0.999598 -0.00173282 -1.30469e-13)
(0.999933 -0.00215617 -1.57226e-13)
(1.00036 -0.00228075 -1.9341e-13)
(1.00078 -0.00206622 -2.35387e-13)
(1.00109 -0.00155618 -2.72633e-13)
(1.00122 -0.000868019 -2.91399e-13)
(1.00115 -0.000156698 -2.81578e-13)
(1.00089 0.000432502 -2.4308e-13)
(1.0005 0.000803705 -1.87939e-13)
(1.00008 0.000929006 -1.36678e-13)
(0.999683 0.000842691 -1.10125e-13)
(0.999384 0.000618049 -1.19877e-13)
(0.99921 0.000338689 -1.61987e-13)
(0.99916 7.51107e-05 -2.17569e-13)
(0.999213 -0.000127872 -2.60779e-13)
(0.999332 -0.000252811 -2.70297e-13)
(0.999481 -0.000303911 -2.38035e-13)
(0.999628 -0.000298276 -1.71694e-13)
(0.999753 -0.000257546 -9.04475e-14)
(0.999847 -0.000201758 -1.63611e-14)
(0.999909 -0.000145918 3.41835e-14)
(0.999945 -9.89379e-05 5.53639e-14)
(0.999963 -6.425e-05 5.16946e-14)
(0.999972 -4.13521e-05 3.38738e-14)
(0.999977 -2.76144e-05 1.33213e-14)
(0.99998 -1.98466e-05 -2.01076e-15)
(0.999984 -1.5333e-05 -9.20169e-15)
(0.999987 -1.22771e-05 -9.48365e-15)
(0.999991 -9.7779e-06 -6.07937e-15)
(0.999994 -7.55364e-06 -2.11253e-15)
(0.999996 -5.6203e-06 5.73537e-16)
(0.999997 -4.05444e-06 1.56437e-15)
(0.999998 -2.87953e-06 1.3525e-15)
(0.999998 -2.04985e-06 6.81435e-16)
(0.999999 -1.48177e-06 9.73796e-17)
(0.999999 -1.09044e-06 -1.91204e-16)
(0.999999 -8.11256e-07 -2.22493e-16)
(0.999999 -6.03947e-07 -1.31788e-16)
(1 -4.46536e-07 -3.38579e-17)
(1 -3.27107e-07 2.10845e-17)
(1 -2.37845e-07 3.12862e-17)
(1 -1.72266e-07 1.97498e-17)
(1 -1.24607e-07 5.67619e-18)
(1 -9.00366e-08 -2.45118e-18)
(1 -6.48437e-08 -3.41093e-18)
(1 -4.63731e-08 -2.38725e-18)
(1 -3.27852e-08 -6.51918e-19)
(1 -2.27959e-08 3.78796e-19)
(1 -1.54765e-08 3.84817e-19)
(1 -1.01365e-08 8.45447e-19)
(1 -6.25471e-09 1.45312e-19)
(1 -3.44268e-09 -4.72633e-20)
(1 -1.41223e-09 7.11403e-21)
(1 4.58975e-11 -1.16348e-19)
(1 1.08578e-09 5.67406e-19)