/*--------------------------------*- C++ -*----------------------------------*\
  =========                 |
  \\      /  F ield         | OpenFOAM: The Open Source CFD Toolbox
   \\    /   O peration     | Website:  https://openfoam.org
    \\  /    A nd           | Version:  11
     \\/     M anipulation  |
\*---------------------------------------------------------------------------*/
FoamFile
{
    format      ascii;
    class       volVectorField;
    location    "14.743762";
    object      vorticity;
}
// * * * * * * * * * * * * * * * * * * * * * * * * * * * * * * * * * * * * * //

dimensions      [0 0 -1 0 0 0 0];

internalField   nonuniform List<vector> 
7132
(
(-5.16532e-17 -1.85982e-15 -0.0107585)
(-1.90399e-16 -1.81383e-15 -0.0104003)
(-1.90389e-16 -3.50791e-17 -0.00992336)
(-2.39967e-16 -1.80846e-15 -0.00943713)
(-3.13367e-16 -1.79412e-15 -0.00904191)
(-3.22559e-16 -1.74759e-17 -0.00881209)
(-3.14594e-16 -1.1346e-18 -0.00879096)
(-2.88142e-16 5.73604e-18 -0.00898625)
(-2.595e-16 1.28713e-17 -0.00936727)
(-2.55513e-16 2.29504e-17 -0.00987089)
(-2.36436e-16 3.05395e-17 -0.0103964)
(-1.47199e-16 3.23597e-17 -0.0108566)
(-1.05861e-16 3.27069e-17 -0.0111542)
(-1.00447e-16 6.11998e-17 -0.0112338)
(-1.13186e-16 -3.38424e-15 -0.0110824)
(-1.80477e-16 -1.66479e-15 -0.0107427)
(-2.20516e-16 -1.69537e-15 -0.0103096)
(-1.72034e-16 1.83184e-17 -0.00992036)
(-4.90473e-17 -1.73738e-15 -0.00972745)
(3.01255e-17 -1.76087e-15 -0.0098196)
(6.5678e-17 -2.73802e-17 -0.0101752)
(7.29831e-17 -1.49778e-17 -0.0106853)
(3.1164e-17 -1.27771e-17 -0.0112009)
(7.93754e-17 -6.31625e-17 -0.0115701)
(3.27009e-16 1.64909e-15 -0.0116592)
(-9.98469e-16 1.19029e-15 -0.0113693)
(-1.46377e-15 2.79381e-15 -0.0106782)
(1.70728e-14 -1.809e-14 -0.00972793)
(3.30254e-14 -9.19971e-14 -0.00881112)
(-7.98803e-14 -1.4954e-13 -0.00815345)
(-1.50155e-13 -7.19102e-14 -0.00782394)
(7.59368e-15 8.03808e-14 -0.00784826)
(9.27573e-14 1.3574e-13 -0.00834641)
(4.40638e-14 9.37787e-14 -0.00941867)
(-1.30893e-14 3.59781e-14 -0.0108652)
(-2.19375e-14 -1.30639e-14 -0.0122717)
(1.98603e-13 -5.44327e-14 -0.0132769)
(4.05082e-13 1.53638e-13 -0.0136648)
(-1.61676e-12 8.65293e-13 -0.0133586)
(-8.41328e-12 4.5437e-13 -0.0124159)
(-5.28175e-12 -7.2071e-12 -0.0110905)
(8.05634e-11 -2.94305e-11 -0.00996659)
(3.72759e-10 -5.92706e-11 -0.00974876)
(8.68766e-10 -6.74021e-11 -0.0105258)
(1.28654e-09 -3.24682e-11 -0.011483)
(1.29444e-09 2.3873e-11 -0.0117549)
(9.05908e-10 5.94671e-11 -0.0115067)
(4.41474e-10 5.89776e-11 -0.0116536)
(1.37006e-10 3.79784e-11 -0.0125731)
(1.24451e-12 1.61949e-11 -0.0138236)
(-3.02971e-11 1.75454e-12 -0.0147942)
(-8.62217e-12 -6.08906e-12 -0.0150828)
(3.82135e-11 -2.57605e-12 -0.0145881)
(1.95004e-11 3.45052e-11 -0.0133527)
(-3.66075e-10 1.30913e-10 -0.011285)
(-1.6673e-09 2.81888e-10 -0.00810373)
(-4.35419e-09 4.26346e-10 -0.00359615)
(-8.07311e-09 4.61677e-10 0.00167828)
(-1.12962e-08 3.20326e-10 0.00588854)
(-1.22683e-08 3.94802e-11 0.00694998)
(-1.0512e-08 -2.64334e-10 0.00415006)
(-7.13317e-09 -4.64779e-10 -0.00151012)
(-3.7223e-09 -4.79705e-10 -0.00801554)
(-1.30599e-09 -3.40643e-10 -0.0132792)
(-8.35556e-11 -1.65601e-10 -0.0162335)
(2.88128e-10 -3.47062e-11 -0.0169031)
(2.39077e-10 6.54502e-11 -0.0156991)
(-2.30251e-11 2.0591e-10 -0.0126944)
(-5.724e-10 4.35128e-10 -0.00748602)
(-1.61252e-09 7.22265e-10 0.000257608)
(-3.21452e-09 9.55864e-10 0.0101505)
(-5.11036e-09 9.95125e-10 0.0209958)
(-6.72355e-09 7.5492e-10 0.0309868)
(-7.44911e-09 2.71383e-10 0.037858)
(-6.998e-09 -3.07056e-10 0.0392291)
(-5.57109e-09 -7.9398e-10 0.033686)
(-3.71801e-09 -1.04334e-09 0.0221086)
(-1.99918e-09 -1.00462e-09 0.00773903)
(-7.64441e-10 -7.5943e-10 -0.00525175)
(-7.45183e-11 -4.99732e-10 -0.0136385)
(2.33646e-10 -4.17371e-10 -0.0163239)
(3.99743e-10 -5.77542e-10 -0.0143188)
(5.99016e-10 -8.8934e-10 -0.00983728)
(8.76163e-10 -1.19096e-09 -0.00517114)
(1.17671e-09 -1.3595e-09 -0.00163428)
(1.43748e-09 -1.35786e-09 0.00125861)
(1.64766e-09 -1.20577e-09 0.00532448)
(1.83459e-09 -9.23877e-10 0.0119252)
(2.00353e-09 -5.0317e-10 0.0202315)
(2.09663e-09 8.09222e-11 0.0271026)
(2.02344e-09 8.12336e-10 0.0289817)
(1.74206e-09 1.54851e-09 0.0242914)
(1.2922e-09 2.00082e-09 0.0142599)
(7.86189e-10 1.88797e-09 0.00227748)
(3.70213e-10 1.17012e-09 -0.00804644)
(1.69994e-10 1.22638e-10 -0.0150568)
(2.45045e-10 -8.49315e-10 -0.019769)
(5.7118e-10 -1.46962e-09 -0.0245612)
(1.05355e-09 -1.69097e-09 -0.0308678)
(1.56208e-09 -1.61714e-09 -0.0375344)
(1.97399e-09 -1.38287e-09 -0.0414842)
(2.20644e-09 -1.0865e-09 -0.0399562)
(2.23126e-09 -7.7255e-10 -0.0323041)
(2.07109e-09 -4.27427e-10 -0.020349)
(1.78165e-09 1.9333e-11 -0.00743978)
(1.42856e-09 6.43663e-10 0.00317454)
(1.06615e-09 1.4029e-09 0.00918514)
(7.29625e-10 2.04434e-09 0.00953199)
(4.45603e-10 2.20911e-09 0.00459957)
(2.44263e-10 1.71605e-09 -0.00432818)
(1.56395e-10 7.51356e-10 -0.0160883)
(1.95905e-10 -2.58863e-10 -0.0301088)
(3.44068e-10 -9.57658e-10 -0.0458259)
(5.50308e-10 -1.23893e-09 -0.0614664)
(7.52627e-10 -1.19879e-09 -0.0737054)
(9.01842e-10 -9.92774e-10 -0.0792303)
(9.73228e-10 -7.41215e-10 -0.0766385)
(9.64071e-10 -5.08283e-10 -0.0670124)
(8.86325e-10 -3.12525e-10 -0.0530992)
(7.61372e-10 -1.33106e-10 -0.0379691)
(6.15749e-10 8.57493e-11 -0.0237928)
(4.7393e-10 4.02235e-10 -0.0116704)
(3.50667e-10 8.11727e-10 -0.00238394)
(2.51246e-10 1.20104e-09 0.00312638)
(1.77763e-10 1.39145e-09 0.00365107)
(1.3368e-10 1.26195e-09 -0.00198946)
(1.2205e-10 8.43642e-10 -0.014328)
(1.40899e-10 2.96023e-10 -0.032597)
(1.81398e-10 -2.01653e-10 -0.0542658)
(2.3026e-10 -5.41502e-10 -0.0752698)
(2.74592e-10 -7.04826e-10 -0.0913199)
(3.05503e-10 -7.28078e-10 -0.0994944)
(3.1899e-10 -6.62558e-10 -0.0991113)
(3.1496e-10 -5.51794e-10 -0.0915414)
(2.95952e-10 -4.256e-10 -0.079282)
(2.66211e-10 -3.01669e-10 -0.0647411)
(2.31011e-10 -1.88156e-10 -0.0495981)
(1.95599e-10 -8.52122e-11 -0.0347165)
(1.64065e-10 1.24079e-11 -0.0203118)
(1.38624e-10 1.10183e-10 -0.00636722)
(1.19658e-10 2.08706e-10 0.00696625)
(1.07001e-10 3.02516e-10 0.0190557)
(1.01519e-10 3.83445e-10 0.0288458)
(1.0575e-10 4.45112e-10 0.0352675)
(1.22672e-10 4.85448e-10 0.0377371)
(1.53017e-10 5.06381e-10 0.0363939)
(1.92869e-10 5.11561e-10 0.0319112)
(2.33386e-10 5.03455e-10 0.0250066)
(2.63385e-10 4.80598e-10 0.0161227)
(2.73964e-10 4.3482e-10 0.00584673)
(2.61522e-10 3.49798e-10 -0.00493414)
(2.28454e-10 2.0617e-10 -0.0151547)
(1.82036e-10 -2.56338e-12 -0.023736)
(1.32055e-10 -2.50546e-10 -0.029782)
(8.79064e-11 -4.7558e-10 -0.0327898)
(5.59641e-11 -6.07615e-10 -0.0327254)
(3.77385e-11 -5.98096e-10 -0.0300441)
(3.16474e-11 -4.81778e-10 -0.0240966)
(3.05962e-11 -2.41022e-10 -0.0231546)
(3.97163e-11 -3.60275e-11 -0.00489196)
(-5.19185e-17 -5.12842e-18 -0.0322397)
(-1.98115e-16 -9.52243e-18 -0.0311619)
(-2.10095e-16 -1.11421e-17 -0.0297079)
(-2.68337e-16 -1.39399e-17 -0.0281954)
(-3.5859e-16 -1.64028e-17 -0.0269233)
(-3.90493e-16 -1.51683e-17 -0.0261237)
(-3.96838e-16 -1.83433e-17 -0.0259481)
(-3.8803e-16 -2.1811e-17 -0.0264502)
(-3.72953e-16 1.73128e-15 -0.0275759)
(-4.32453e-16 1.14182e-17 -0.0291755)
(-3.48839e-16 -2.36174e-17 -0.0309744)
(-1.4924e-16 1.7018e-15 -0.0327348)
(-1.63225e-16 9.33101e-18 -0.0341587)
(-5.55495e-16 6.46502e-17 -0.0350469)
(-9.98247e-16 1.24794e-16 -0.0352823)
(-9.91473e-16 1.23382e-16 -0.0348561)
(-3.01206e-16 3.55522e-17 -0.0338671)
(6.34756e-16 -6.67806e-17 -0.0324977)
(1.19365e-15 -1.02885e-16 -0.0310061)
(1.15182e-15 -8.37165e-17 -0.0296626)
(8.20819e-16 -4.9656e-17 -0.0286767)
(3.2065e-16 2.27915e-18 -0.0281625)
(1.57696e-16 -1.59732e-17 -0.0281321)
(2.39086e-15 -2.14473e-16 -0.0285006)
(-6.41886e-15 4.53289e-16 -0.0291149)
(-3.97527e-14 2.08907e-15 -0.029815)
(1.98246e-13 -6.24183e-15 -0.0305266)
(7.95415e-13 -3.53346e-14 -0.0313393)
(-4.02979e-12 -4.35172e-14 -0.0323655)
(-2.41567e-11 -5.96817e-14 -0.0333884)
(-4.66715e-11 -1.15647e-13 -0.0338919)
(-4.45569e-11 -4.45481e-14 -0.0335013)
(-2.31363e-11 1.15767e-13 -0.0323888)
(-6.1617e-12 1.43231e-13 -0.0311357)
(-8.02466e-14 6.55057e-14 -0.0301959)
(8.24782e-13 -1.2065e-13 -0.0297069)
(1.35648e-12 -2.69674e-13 -0.0295617)
(7.22827e-13 1.05959e-12 -0.0295431)
(-8.87548e-12 5.27273e-12 -0.0295046)
(-2.44882e-11 2.28339e-12 -0.0296036)
(1.80617e-11 -5.16954e-11 -0.0304936)
(2.72186e-10 -2.18453e-10 -0.0332773)
(8.0354e-10 -4.53374e-10 -0.0385978)
(1.42567e-09 -5.24293e-10 -0.0452381)
(1.93244e-09 -2.45309e-10 -0.0502752)
(2.11613e-09 2.14188e-10 -0.0509831)
(1.75353e-09 4.85946e-10 -0.0471239)
(1.05065e-09 4.43427e-10 -0.0413203)
(4.44968e-10 2.58091e-10 -0.0363581)
(6.77271e-11 9.98415e-11 -0.033184)
(-7.26467e-11 6.68616e-12 -0.0315707)
(-7.59026e-12 -4.03426e-11 -0.0309052)
(1.7744e-10 -1.66391e-11 -0.0307433)
(-8.79008e-12 2.36649e-10 -0.0304773)
(-2.04555e-09 9.74313e-10 -0.0281356)
(-8.32879e-09 2.27594e-09 -0.0199472)
(-2.03974e-08 3.62925e-09 -0.00288075)
(-3.61972e-08 3.93268e-09 0.0207438)
(-4.9615e-08 2.41794e-09 0.0419525)
(-5.39719e-08 -3.5264e-10 0.0502228)
(-4.69863e-08 -2.83191e-09 0.0411103)
(-3.25805e-08 -3.85961e-09 0.0194266)
(-1.74773e-08 -3.3933e-09 -0.00493098)
(-6.42467e-09 -2.16001e-09 -0.02364)
(-6.36028e-10 -9.62664e-10 -0.0334915)
(1.22582e-09 -1.96021e-10 -0.0358466)
(1.07061e-09 2.21029e-10 -0.0333404)
(-2.75646e-11 6.11646e-10 -0.027117)
(-2.07626e-09 1.22988e-09 -0.0166096)
(-5.48846e-09 2.04332e-09 -0.00121507)
(-1.01589e-08 2.70478e-09 0.0184092)
(-1.51198e-08 2.74964e-09 0.041244)
(-1.9011e-08 1.92429e-09 0.0663099)
(-2.07152e-08 4.0861e-10 0.0901038)
(-1.96864e-08 -1.24607e-09 0.104719)
(-1.61663e-08 -2.43397e-09 0.101564)
(-1.12335e-08 -2.82929e-09 0.0783995)
(-6.32606e-09 -2.48141e-09 0.0422109)
(-2.57283e-09 -1.72176e-09 0.00537919)
(-3.45796e-10 -9.98775e-10 -0.021123)
(6.97021e-10 -6.545e-10 -0.0329109)
(1.18582e-09 -7.60226e-10 -0.0331671)
(1.58461e-09 -1.12755e-09 -0.0296274)
(2.01732e-09 -1.47981e-09 -0.0293909)
(2.41924e-09 -1.64016e-09 -0.0339579)
(2.75645e-09 -1.59333e-09 -0.0374728)
(3.07567e-09 -1.40432e-09 -0.0308882)
(3.4435e-09 -1.10182e-09 -0.00923211)
(3.88368e-09 -6.34187e-10 0.0238424)
(4.30082e-09 7.0967e-11 0.0570473)
(4.45652e-09 9.89622e-10 0.0772004)
(4.12525e-09 1.91412e-09 0.0765055)
(3.27041e-09 2.47876e-09 0.056127)
(2.12094e-09 2.34897e-09 0.0249495)
(1.08767e-09 1.47822e-09 -0.00647231)
(5.62072e-10 1.85224e-10 -0.0330689)
(7.29479e-10 -1.04991e-09 -0.0574334)
(1.50796e-09 -1.87387e-09 -0.0847641)
(2.62603e-09 -2.18642e-09 -0.115144)
(3.76539e-09 -2.07735e-09 -0.140646)
(4.67165e-09 -1.70505e-09 -0.150609)
(5.19546e-09 -1.21513e-09 -0.139276)
(5.28858e-09 -7.04873e-10 -0.108695)
(4.98652e-09 -2.02617e-10 -0.0665057)
(4.38284e-09 3.40601e-10 -0.0224379)
(3.59769e-09 1.00142e-09 0.0145089)
(2.74226e-09 1.75237e-09 0.0373714)
(1.90477e-09 2.35461e-09 0.0423276)
(1.17444e-09 2.45179e-09 0.0294732)
(6.56758e-10 1.86065e-09 0.00149363)
(4.41675e-10 7.75537e-10 -0.0388697)
(5.45054e-10 -3.52697e-10 -0.0892437)
(8.82285e-10 -1.13486e-09 -0.144795)
(1.30619e-09 -1.4432e-09 -0.195518)
(1.68069e-09 -1.37456e-09 -0.22861)
(1.9301e-09 -1.10307e-09 -0.23538)
(2.03903e-09 -7.72328e-10 -0.216052)
(2.02315e-09 -4.64832e-10 -0.178449)
(1.90327e-09 -2.11174e-10 -0.132846)
(1.69911e-09 2.18458e-12 -0.087517)
(1.43797e-09 2.29472e-10 -0.047028)
(1.15544e-09 5.34777e-10 -0.013406)
(8.8137e-10 9.23069e-10 0.0117029)
(6.38164e-10 1.2875e-09 0.0255378)
(4.49349e-10 1.45023e-09 0.0239918)
(3.40661e-10 1.28981e-09 0.00292429)
(3.25996e-10 8.40034e-10 -0.0391841)
(3.9352e-10 2.66348e-10 -0.0984316)
(5.08107e-10 -2.46331e-10 -0.164514)
(6.27798e-10 -5.88097e-10 -0.223358)
(7.20841e-10 -7.42446e-10 -0.262617)
(7.72921e-10 -7.50275e-10 -0.276306)
(7.84247e-10 -6.67287e-10 -0.265739)
(7.61867e-10 -5.40273e-10 -0.237165)
(7.13385e-10 -4.01224e-10 -0.198325)
(6.45883e-10 -2.69195e-10 -0.155644)
(5.67381e-10 -1.52849e-10 -0.113256)
(4.86503e-10 -5.17391e-11 -0.0729579)
(4.10359e-10 4.08992e-11 -0.0348439)
(3.42528e-10 1.32388e-10 0.001391)
(2.83551e-10 2.24519e-10 0.0351557)
(2.34734e-10 3.11587e-10 0.0643441)
(2.03084e-10 3.8407e-10 0.0860504)
(2.02067e-10 4.34539e-10 0.098261)
(2.45283e-10 4.61816e-10 0.101066)
(3.36424e-10 4.71284e-10 0.0963174)
(4.62704e-10 4.71379e-10 0.0861806)
(5.96196e-10 4.68197e-10 0.0718202)
(7.02398e-10 4.60311e-10 0.0531432)
(7.53265e-10 4.35754e-10 0.0303307)
(7.36107e-10 3.72555e-10 0.00474114)
(6.56247e-10 2.45915e-10 -0.0211959)
(5.34265e-10 4.56363e-11 -0.0444979)
(3.98827e-10 -2.03478e-10 -0.0623731)
(2.77355e-10 -4.37532e-10 -0.0729717)
(1.87869e-10 -5.8253e-10 -0.0758197)
(1.33987e-10 -5.85934e-10 -0.0718157)
(1.10497e-10 -4.78207e-10 -0.0588038)
(9.9003e-11 -2.45055e-10 -0.0607255)
(1.07482e-10 -4.05858e-11 -0.0129432)
(-1.37298e-18 -7.88671e-20 -0.0536142)
(-2.16386e-17 -1.40063e-20 -0.051799)
(-4.45299e-17 3.16928e-20 -0.0493314)
(-7.14161e-17 5.12593e-19 -0.0467355)
(-1.12714e-16 1.68533e-18 -0.0445129)
(-1.4391e-16 1.64812e-18 -0.0430636)
(-1.811e-16 -2.3664e-18 -0.0426627)
(-1.77325e-16 7.34631e-18 -0.043427)
(-3.82334e-16 3.50831e-17 -0.0452986)
(-4.76424e-16 -2.65922e-18 -0.0480575)
(2.78451e-16 -1.07679e-16 -0.0512623)
(9.04605e-16 -6.04472e-17 -0.0545521)
(-5.23012e-16 2.32446e-16 -0.0574189)
(-2.72288e-15 4.78711e-16 -0.0595093)
(-7.49548e-16 3.03192e-16 -0.0605476)
(9.39851e-15 -2.78592e-16 -0.0603778)
(2.35122e-14 -7.73765e-16 -0.0589844)
(2.98971e-14 -7.29109e-16 -0.0564725)
(2.50496e-14 -2.61183e-16 -0.0531032)
(1.60723e-14 1.60272e-16 -0.0493132)
(7.60779e-15 3.88204e-16 -0.0456564)
(6.30803e-16 3.16584e-16 -0.0427103)
(3.30892e-15 -1.04788e-15 -0.0409696)
(1.60763e-14 3.22512e-15 -0.0407516)
(-1.0631e-13 2.09862e-14 -0.0421525)
(-1.66235e-13 -1.01142e-13 -0.0450826)
(1.94061e-12 -4.1479e-13 -0.0493352)
(2.70737e-12 2.09593e-12 -0.0545483)
(-3.02069e-11 1.23841e-11 -0.0600079)
(-1.26243e-10 2.11696e-11 -0.0644982)
(-2.34544e-10 1.01264e-11 -0.0666179)
(-2.50332e-10 -1.1689e-11 -0.0654765)
(-1.56102e-10 -1.90618e-11 -0.0612248)
(-5.34102e-11 -1.14377e-11 -0.0548857)
(-4.94999e-12 -3.45901e-12 -0.0479114)
(6.8003e-12 -7.34902e-13 -0.0417985)
(5.21323e-12 -5.16266e-15 -0.037614)
(-7.45184e-12 5.26962e-12 -0.0358651)
(-1.43981e-11 1.34691e-11 -0.0367652)
(8.4789e-11 -1.3016e-11 -0.0407466)
(2.19331e-10 -1.55546e-10 -0.0482745)
(-8.32196e-10 -4.22171e-10 -0.0580138)
(-5.84785e-09 -6.36014e-10 -0.0653068)
(-1.54525e-08 -6.31854e-10 -0.0665286)
(-2.38264e-08 -3.77699e-10 -0.0652258)
(-2.37645e-08 1.13325e-10 -0.0667399)
(-1.5859e-08 5.92203e-10 -0.068952)
(-6.87678e-09 7.13261e-10 -0.0662562)
(-1.41822e-09 5.29437e-10 -0.0578255)
(3.6864e-10 2.74999e-10 -0.0471453)
(4.09164e-10 3.94132e-11 -0.0385506)
(3.25431e-10 -1.31129e-10 -0.03461)
(4.83001e-10 -1.97614e-12 -0.0354755)
(-6.66072e-10 1.146e-09 -0.038007)
(-7.03041e-09 4.29091e-09 -0.0344366)
(-2.30623e-08 9.45782e-09 -0.0145778)
(-4.91276e-08 1.43605e-08 0.0259687)
(-7.90151e-08 1.50705e-08 0.0801634)
(-1.03102e-07 9.20768e-09 0.132225)
(-1.12701e-07 -1.27486e-09 0.162503)
(-1.03089e-07 -1.096e-08 0.155302)
(-7.71485e-08 -1.52193e-08 0.111562)
(-4.54211e-08 -1.35576e-08 0.0514629)
(-1.90547e-08 -8.76126e-09 -0.000579647)
(-3.44756e-09 -3.99084e-09 -0.0312683)
(2.50005e-09 -8.88026e-10 -0.0416965)
(2.70008e-09 6.92146e-10 -0.0396879)
(1.16826e-10 1.77934e-09 -0.0319151)
(-4.28862e-09 3.16558e-09 -0.0223796)
(-1.02132e-08 4.76357e-09 -0.0139123)
(-1.64916e-08 5.77152e-09 -0.00624132)
(-2.14007e-08 5.42118e-09 0.00825958)
(-2.41183e-08 3.55262e-09 0.0401969)
(-2.50028e-08 6.09085e-10 0.0899929)
(-2.43353e-08 -2.58146e-09 0.140858)
(-2.16345e-08 -5.02039e-09 0.167491)
(-1.6675e-08 -5.96348e-09 0.154252)
(-1.05137e-08 -5.33497e-09 0.106753)
(-4.90261e-09 -3.74956e-09 0.0465857)
(-1.04627e-09 -2.13465e-09 -0.00342217)
(9.75751e-10 -1.18318e-09 -0.0326086)
(1.79395e-09 -1.02133e-09 -0.0467952)
(2.03705e-09 -1.30509e-09 -0.0615104)
(2.0639e-09 -1.60827e-09 -0.0878985)
(2.13039e-09 -1.72906e-09 -0.12082)
(2.44131e-09 -1.68607e-09 -0.140397)
(2.98278e-09 -1.54929e-09 -0.127689)
(3.54032e-09 -1.32788e-09 -0.0791158)
(3.97699e-09 -9.31827e-10 -0.00766612)
(4.34944e-09 -2.05495e-10 0.0648107)
(4.65482e-09 9.00122e-10 0.116198)
(4.63656e-09 2.14156e-09 0.132212)
(4.02098e-09 3.00298e-09 0.111861)
(2.87702e-09 2.97934e-09 0.0669358)
(1.68082e-09 1.94956e-09 0.0129062)
(1.00849e-09 3.01733e-10 -0.042737)
(1.15224e-09 -1.32226e-09 -0.102879)
(1.98814e-09 -2.4179e-09 -0.169994)
(3.1454e-09 -2.81969e-09 -0.233666)
(4.26802e-09 -2.63994e-09 -0.272282)
(5.14921e-09 -2.0979e-09 -0.269044)
(5.70726e-09 -1.39496e-09 -0.224683)
(5.91089e-09 -6.68081e-10 -0.154798)
(5.75035e-09 2.54425e-11 -0.0779035)
(5.25198e-09 7.13753e-10 -0.00736777)
(4.48518e-09 1.46396e-09 0.0483632)
(3.54148e-09 2.24936e-09 0.0825366)
(2.52866e-09 2.82825e-09 0.0898612)
(1.59782e-09 2.83312e-09 0.0680919)
(9.34319e-10 2.08243e-09 0.0178889)
(6.68702e-10 8.07208e-10 -0.0584136)
(7.79501e-10 -4.79166e-10 -0.154489)
(1.09822e-09 -1.33823e-09 -0.254427)
(1.42304e-09 -1.63813e-09 -0.332463)
(1.63312e-09 -1.51074e-09 -0.364333)
(1.71554e-09 -1.17195e-09 -0.341932)
(1.71936e-09 -7.87739e-10 -0.277581)
(1.6961e-09 -4.40403e-10 -0.195043)
(1.66384e-09 -1.50506e-10 -0.115922)
(1.60447e-09 9.95484e-11 -0.0512943)
(1.48966e-09 3.57587e-10 -0.00219559)
(1.30666e-09 6.80535e-10 0.0342993)
(1.06509e-09 1.07036e-09 0.0594705)
(8.00918e-10 1.41705e-09 0.0696836)
(5.76237e-10 1.5402e-09 0.0567546)
(4.5715e-10 1.32363e-09 0.0121676)
(4.73949e-10 8.17212e-10 -0.0659764)
(5.99458e-10 2.04967e-10 -0.167032)
(7.66799e-10 -3.18791e-10 -0.268231)
(9.08518e-10 -6.47867e-10 -0.343856)
(9.85688e-10 -7.77387e-10 -0.377404)
(9.93773e-10 -7.59781e-10 -0.367717)
(9.51426e-10 -6.57031e-10 -0.325813)
(8.83347e-10 -5.16363e-10 -0.266832)
(8.06657e-10 -3.67606e-10 -0.203165)
(7.27567e-10 -2.28667e-10 -0.141896)
(6.46389e-10 -1.08467e-10 -0.0856874)
(5.62636e-10 -6.70104e-12 -0.034157)
(4.75523e-10 8.43954e-11 0.01435)
(3.82397e-10 1.73589e-10 0.0605029)
(2.81769e-10 2.62603e-10 0.10204)
(1.81883e-10 3.42749e-10 0.134392)
(1.08033e-10 3.99779e-10 0.154036)
(9.65391e-11 4.24013e-10 0.161849)
(1.74897e-10 4.18271e-10 0.162675)
(3.43083e-10 3.9767e-10 0.161166)
(5.70437e-10 3.81675e-10 0.15808)
(8.07417e-10 3.83608e-10 0.15024)
(1.0015e-09 4.02063e-10 0.133331)
(1.11101e-09 4.17967e-10 0.105295)
(1.11509e-09 3.98307e-10 0.0677796)
(1.01862e-09 3.07091e-10 0.0254522)
(8.50535e-10 1.26146e-10 -0.015642)
(6.54365e-10 -1.22091e-10 -0.0498958)
(4.73179e-10 -3.70099e-10 -0.0734476)
(3.35389e-10 -5.35931e-10 -0.0850389)
(2.46369e-10 -5.5941e-10 -0.0856063)
(1.97247e-10 -4.64286e-10 -0.0715027)
(1.62723e-10 -2.39515e-10 -0.0816206)
(1.43161e-10 -4.02653e-11 -0.0114362)
(-5.36858e-17 6.37739e-18 -0.0747897)
(-1.87594e-16 1.2056e-17 -0.0722124)
(-1.70699e-16 1.37467e-17 -0.0686945)
(-2.37912e-16 2.01522e-17 -0.0649772)
(-2.35369e-16 1.9844e-17 -0.0617759)
(-2.97574e-16 1.90247e-17 -0.0596657)
(-8.30752e-17 -1.63546e-18 -0.0590458)
(-5.35465e-16 7.88057e-17 -0.0600876)
(-1.72599e-15 1.88083e-15 -0.0627153)
(2.55036e-15 -3.18974e-16 -0.0666165)
(8.27601e-15 -2.44886e-15 -0.0711454)
(5.41636e-15 2.10253e-15 -0.0758364)
(-3.4594e-15 1.82307e-15 -0.0799459)
(-3.02266e-15 1.77918e-16 -0.0829894)
(2.30957e-14 -5.9359e-15 -0.0845683)
(7.85751e-14 -1.20075e-14 -0.0844518)
(1.387e-13 -1.02138e-14 -0.0825958)
(1.55304e-13 -8.35497e-16 -0.0790786)
(1.16507e-13 6.80953e-15 -0.0741804)
(6.87072e-14 8.63721e-15 -0.0685013)
(2.6339e-14 7.67109e-15 -0.0628613)
(-1.68303e-15 2.15171e-15 -0.0581335)
(2.96114e-14 -7.73874e-15 -0.0551451)
(-6.00466e-14 5.45949e-14 -0.0545338)
(-3.96359e-13 9.16089e-14 -0.0566063)
(1.58307e-12 -1.02137e-12 -0.061297)
(9.51467e-14 -1.44304e-12 -0.0681831)
(-2.86809e-11 1.60384e-11 -0.076465)
(6.45567e-11 6.44319e-11 -0.0852755)
(6.37644e-10 1.02109e-10 -0.0935358)
(1.30913e-09 6.19286e-11 -0.0984302)
(1.18702e-09 -3.92656e-11 -0.0967816)
(5.12214e-10 -9.83451e-11 -0.0890605)
(6.71514e-11 -7.54328e-11 -0.0781818)
(-3.5141e-11 -3.00397e-11 -0.0664739)
(-1.12908e-11 -5.20226e-12 -0.0558369)
(-6.96374e-12 6.8564e-12 -0.0480343)
(-4.42403e-11 1.08653e-11 -0.0444423)
(1.12538e-10 -4.08477e-11 -0.0462356)
(7.69426e-10 -1.14581e-10 -0.0545231)
(3.25059e-11 4.06797e-10 -0.0668057)
(-9.90476e-09 2.81514e-09 -0.0697439)
(-3.94822e-08 6.85678e-09 -0.04331)
(-8.62269e-08 8.46499e-09 0.0128644)
(-1.26287e-07 3.91071e-09 0.0640957)
(-1.31901e-07 -3.76953e-09 0.0699076)
(-9.92936e-08 -7.95793e-09 0.0277642)
(-5.25571e-08 -6.77695e-09 -0.0260388)
(-1.73231e-08 -3.36462e-09 -0.057754)
(-9.46414e-10 -8.13849e-10 -0.061755)
(2.77246e-09 2.82887e-11 -0.0518486)
(2.23434e-09 -7.72613e-11 -0.043454)
(1.09858e-09 4.79113e-10 -0.0423685)
(-3.28898e-09 3.99335e-09 -0.0422677)
(-1.72008e-08 1.21724e-08 -0.0297809)
(-4.33586e-08 2.33245e-08 0.00369751)
(-7.50926e-08 3.16056e-08 0.0547449)
(-1.01804e-07 3.09197e-08 0.118425)
(-1.19621e-07 1.92609e-08 0.194342)
(-1.30235e-07 -3.58936e-10 0.268434)
(-1.30505e-07 -2.06081e-08 0.303652)
(-1.12841e-07 -3.26935e-08 0.268996)
(-7.82637e-08 -3.24402e-08 0.175314)
(-3.99664e-08 -2.31468e-08 0.068614)
(-1.15756e-08 -1.174e-08 -0.0092766)
(2.21008e-09 -3.26984e-09 -0.0451169)
(4.55785e-09 1.41264e-09 -0.04966)
(4.40411e-10 4.106e-09 -0.0426587)
(-6.69521e-09 6.39488e-09 -0.0436286)
(-1.41613e-08 8.14481e-09 -0.0635944)
(-1.90236e-08 8.29856e-09 -0.0922889)
(-1.95422e-08 6.563e-09 -0.0974605)
(-1.693e-08 3.72531e-09 -0.0507373)
(-1.44759e-08 5.17104e-10 0.0447836)
(-1.44356e-08 -2.9302e-09 0.153952)
(-1.57802e-08 -6.26414e-09 0.230631)
(-1.55284e-08 -8.3897e-09 0.243154)
(-1.22269e-08 -8.36758e-09 0.192189)
(-7.07613e-09 -6.45546e-09 0.107666)
(-2.30597e-09 -3.93796e-09 0.0270422)
(7.23637e-10 -2.07461e-09 -0.0299448)
(1.94389e-09 -1.29087e-09 -0.0718432)
(2.00287e-09 -1.26253e-09 -0.12202)
(1.77895e-09 -1.52648e-09 -0.189656)
(2.07161e-09 -1.82886e-09 -0.251641)
(3.18348e-09 -2.01952e-09 -0.268026)
(4.71718e-09 -1.95383e-09 -0.217417)
(5.89245e-09 -1.59892e-09 -0.113925)
(6.17646e-09 -1.03874e-09 0.00726915)
(5.72002e-09 -2.67945e-10 0.112944)
(5.09746e-09 8.46056e-10 0.181344)
(4.5737e-09 2.23104e-09 0.201464)
(3.93854e-09 3.35853e-09 0.174132)
(2.99346e-09 3.51905e-09 0.112078)
(1.96931e-09 2.41248e-09 0.031094)
(1.36164e-09 4.49513e-10 -0.0620713)
(1.45489e-09 -1.53973e-09 -0.168589)
(2.11248e-09 -2.87045e-09 -0.279885)
(2.97511e-09 -3.32636e-09 -0.365468)
(3.76128e-09 -3.07926e-09 -0.387871)
(4.38192e-09 -2.42467e-09 -0.332555)
(4.85524e-09 -1.59597e-09 -0.220584)
(5.17572e-09 -7.26421e-10 -0.0930654)
(5.27033e-09 1.26835e-10 0.0154238)
(5.05731e-09 9.73187e-10 0.0913101)
(4.51418e-09 1.85667e-09 0.136457)
(3.68887e-09 2.73064e-09 0.154914)
(2.69939e-09 3.32644e-09 0.145888)
(1.74776e-09 3.24896e-09 0.104462)
(1.07365e-09 2.32521e-09 0.0253748)
(8.12585e-10 8.52946e-10 -0.0918053)
(8.898e-10 -5.67455e-10 -0.233858)
(1.08625e-09 -1.45663e-09 -0.367017)
(1.20921e-09 -1.71066e-09 -0.445783)
(1.19599e-09 -1.52081e-09 -0.43846)
(1.09269e-09 -1.14619e-09 -0.347694)
(9.80926e-10 -7.62607e-10 -0.208205)
(9.23891e-10 -4.3707e-10 -0.0661329)
(9.43703e-10 -1.65363e-10 0.0435923)
(1.01655e-09 8.92718e-11 0.109062)
(1.08265e-09 3.7838e-10 0.138153)
(1.07514e-09 7.47066e-10 0.14617)
(9.59757e-10 1.17594e-09 0.143562)
(7.64466e-10 1.53192e-09 0.128672)
(5.78894e-10 1.62211e-09 0.0889551)
(5.04532e-10 1.34095e-09 0.0107792)
(5.84093e-10 7.6888e-10 -0.106239)
(7.74149e-10 1.19924e-10 -0.239906)
(9.81359e-10 -4.00861e-10 -0.351318)
(1.12229e-09 -6.97542e-10 -0.405525)
(1.15922e-09 -7.85073e-10 -0.390813)
(1.10064e-09 -7.33144e-10 -0.321745)
(9.82541e-10 -6.12074e-10 -0.226721)
(8.46842e-10 -4.67889e-10 -0.131989)
(7.24209e-10 -3.23333e-10 -0.0521763)
(6.2558e-10 -1.89063e-10 0.00977754)
(5.45555e-10 -7.03838e-11 0.0582025)
(4.70504e-10 3.36941e-11 0.0999887)
(3.83438e-10 1.31017e-10 0.140338)
(2.68096e-10 2.29265e-10 0.179434)
(1.21561e-10 3.24776e-10 0.211607)
(-2.7904e-11 3.98455e-10 0.230612)
(-1.19843e-10 4.26742e-10 0.237697)
(-9.1825e-11 4.01106e-10 0.243422)
(8.0093e-11 3.38544e-10 0.259477)
(3.66106e-10 2.73514e-10 0.288067)
(7.01246e-10 2.39212e-10 0.318942)
(1.01674e-09 2.52666e-10 0.335983)
(1.26022e-09 3.08516e-10 0.326825)
(1.39701e-09 3.78958e-10 0.287907)
(1.41e-09 4.18749e-10 0.224705)
(1.30385e-09 3.78194e-10 0.148673)
(1.10803e-09 2.27763e-10 0.0727672)
(8.7149e-10 -1.48022e-11 0.00765376)
(6.46472e-10 -2.78044e-10 -0.039965)
(4.69084e-10 -4.69124e-10 -0.0682463)
(3.46191e-10 -5.16865e-10 -0.0786341)
(2.65846e-10 -4.36384e-10 -0.0667345)
(1.98491e-10 -2.18012e-10 -0.0873628)
(1.34843e-10 -3.08047e-11 0.00550839)
(6.7812e-17 1.85528e-15 -0.0956267)
(2.26564e-16 1.79322e-15 -0.0922522)
(2.55447e-16 2.51906e-17 -0.0876232)
(1.72796e-16 1.76757e-15 -0.0827063)
(6.99191e-16 1.76624e-15 -0.0784439)
(-1.83958e-16 1.66022e-15 -0.0756007)
(2.73314e-15 1.16579e-16 -0.0747119)
(-8.21622e-15 8.42357e-16 -0.0760065)
(3.6589e-15 -1.50783e-15 -0.0793917)
(5.08652e-14 -6.76549e-15 -0.0844502)
(2.75301e-14 -1.5339e-15 -0.0902893)
(-7.49941e-14 5.82081e-15 -0.0963875)
(-1.36502e-13 4.44518e-15 -0.101727)
(-1.12785e-13 -1.27988e-14 -0.105731)
(-1.22007e-13 -4.04957e-14 -0.10787)
(-3.65142e-13 -5.46115e-14 -0.107817)
(-8.52606e-13 -3.74033e-14 -0.1055)
(-1.11787e-12 1.03677e-14 -0.101007)
(-8.85567e-13 4.47717e-14 -0.0946573)
(-5.04671e-13 4.6979e-14 -0.0872379)
(-2.2383e-13 3.55833e-14 -0.0798165)
(-1.8973e-14 -1.31961e-15 -0.0735221)
(1.59463e-14 2.81339e-14 -0.0694459)
(-1.01931e-12 2.1621e-13 -0.0684802)
(2.71454e-12 -8.0057e-13 -0.0711115)
(1.06226e-11 -3.4863e-13 -0.0772985)
(-7.87273e-11 1.47172e-11 -0.0863133)
(-1.52245e-10 -3.01348e-11 -0.0972464)
(1.36475e-09 -3.20778e-10 -0.111576)
(6.19284e-09 -6.01119e-10 -0.130804)
(1.16556e-08 -2.64564e-10 -0.146939)
(1.22381e-08 3.86769e-10 -0.146537)
(7.47912e-09 5.40873e-10 -0.128793)
(2.49017e-09 2.62238e-10 -0.10574)
(1.93365e-10 3.57603e-11 -0.0856934)
(-2.50618e-10 -1.48253e-11 -0.0700363)
(-1.99747e-10 1.64662e-11 -0.0590334)
(-9.40136e-11 -5.44813e-11 -0.05404)
(8.13962e-10 -3.93366e-10 -0.0578419)
(2.12314e-09 2.69984e-11 -0.0710279)
(-4.69014e-09 5.18155e-09 -0.0792169)
(-3.86912e-08 1.93352e-08 -0.0451532)
(-1.11181e-07 3.7525e-08 0.0613914)
(-2.04187e-07 4.27707e-08 0.219339)
(-2.79887e-07 2.24594e-08 0.360538)
(-3.02489e-07 -1.33835e-08 0.408697)
(-2.55307e-07 -3.90798e-08 0.329125)
(-1.60812e-07 -4.0272e-08 0.169393)
(-6.9201e-08 -2.52759e-08 0.0230552)
(-1.37188e-08 -9.77277e-09 -0.0541915)
(6.0158e-09 -1.55097e-09 -0.0700151)
(7.31868e-09 7.05816e-10 -0.0611995)
(2.51677e-09 2.75969e-09 -0.0518166)
(-8.62304e-09 1.02957e-08 -0.0416881)
(-3.05575e-08 2.43257e-08 -0.0255451)
(-5.82323e-08 3.84037e-08 -0.0121493)
(-7.63753e-08 4.35834e-08 -0.00665965)
(-7.63499e-08 3.73344e-08 0.0215659)
(-6.78125e-08 2.3423e-08 0.114451)
(-6.89041e-08 4.1672e-09 0.263462)
(-8.48663e-08 -1.96572e-08 0.396805)
(-9.87279e-08 -4.13397e-08 0.432245)
(-9.00148e-08 -4.99948e-08 0.345649)
(-5.9421e-08 -4.21053e-08 0.190709)
(-2.48764e-08 -2.50791e-08 0.0478043)
(-2.16744e-09 -8.95476e-09 -0.0352338)
(4.84104e-09 1.57698e-09 -0.0615183)
(5.91638e-10 7.40587e-09 -0.0693428)
(-8.25386e-09 1.04664e-08 -0.103262)
(-1.54432e-08 1.09278e-08 -0.177302)
(-1.66591e-08 8.46199e-09 -0.250072)
(-1.14096e-08 4.3744e-09 -0.251424)
(-3.039e-09 1.01948e-09 -0.1473)
(3.45599e-09 -6.38134e-10 0.0296709)
(4.25707e-09 -1.9293e-09 0.209869)
(-5.65051e-10 -4.47399e-09 0.33108)
(-6.71349e-09 -7.74017e-09 0.360183)
(-9.48483e-09 -9.5611e-09 0.299869)
(-7.72006e-09 -8.71e-09 0.186651)
(-3.67015e-09 -6.03454e-09 0.0687571)
(-1.50794e-10 -3.30811e-09 -0.0276286)
(1.53959e-09 -1.66095e-09 -0.114311)
(1.84632e-09 -1.22262e-09 -0.217217)
(2.08825e-09 -1.64264e-09 -0.330597)
(3.27188e-09 -2.43133e-09 -0.401922)
(5.42085e-09 -3.00885e-09 -0.373701)
(7.8265e-09 -2.90377e-09 -0.237802)
(9.59163e-09 -2.05752e-09 -0.0439896)
(1.0001e-08 -8.45615e-10 0.138573)
(8.9277e-09 3.34003e-10 0.263655)
(7.03721e-09 1.47329e-09 0.319038)
(5.21679e-09 2.72102e-09 0.311348)
(3.82297e-09 3.7931e-09 0.253528)
(2.73107e-09 3.96396e-09 0.160434)
(1.89077e-09 2.76546e-09 0.0430163)
(1.4875e-09 5.58945e-10 -0.0969695)
(1.62313e-09 -1.69767e-09 -0.256114)
(2.11463e-09 -3.178e-09 -0.405664)
(2.65881e-09 -3.64409e-09 -0.488897)
(3.08439e-09 -3.34334e-09 -0.457177)
(3.41461e-09 -2.64488e-09 -0.310362)
(3.74902e-09 -1.79186e-09 -0.100586)
(4.11774e-09 -8.75626e-10 0.0998145)
(4.42035e-09 8.46456e-11 0.237768)
(4.4837e-09 1.09182e-09 0.299765)
(4.18019e-09 2.14818e-09 0.303206)
(3.5028e-09 3.15676e-09 0.272491)
(2.58385e-09 3.79881e-09 0.219675)
(1.67903e-09 3.64599e-09 0.13994)
(1.06432e-09 2.55001e-09 0.0203433)
(8.54257e-10 8.99134e-10 -0.143263)
(9.22157e-10 -6.15996e-10 -0.327205)
(1.03153e-09 -1.49793e-09 -0.474962)
(1.02586e-09 -1.693e-09 -0.522341)
(8.93683e-10 -1.45248e-09 -0.439078)
(7.07437e-10 -1.06442e-09 -0.249037)
(5.43656e-10 -7.03339e-10 -0.0150244)
(4.49639e-10 -4.21792e-10 0.194041)
(4.46201e-10 -1.96837e-10 0.331322)
(5.28425e-10 3.00723e-11 0.384799)
(6.50544e-10 3.28294e-10 0.372419)
(7.32032e-10 7.41984e-10 0.325402)
(7.07549e-10 1.2257e-09 0.268118)
(5.87792e-10 1.60748e-09 0.204376)
(4.72405e-10 1.67017e-09 0.118729)
(4.7998e-10 1.32103e-09 -0.00577952)
(6.50281e-10 6.82404e-10 -0.163131)
(9.15541e-10 6.33393e-12 -0.313229)
(1.15826e-09 -4.92862e-10 -0.399877)
(1.28977e-09 -7.36799e-10 -0.387012)
(1.28501e-09 -7.6656e-10 -0.280956)
(1.1697e-09 -6.7144e-10 -0.122587)
(9.91696e-10 -5.30133e-10 0.0384481)
(7.9941e-10 -3.87197e-10 0.166577)
(6.29369e-10 -2.56976e-10 0.24907)
(4.98732e-10 -1.39338e-10 0.291633)
(4.03299e-10 -3.09284e-11 0.309884)
(3.20223e-10 7.43574e-11 0.320065)
(2.14781e-10 1.856e-10 0.331121)
(5.82523e-11 3.04527e-10 0.341043)
(-1.38891e-10 4.10605e-10 0.341571)
(-3.04683e-10 4.63451e-10 0.332186)
(-3.36587e-10 4.31739e-10 0.329766)
(-1.7253e-10 3.24045e-10 0.359026)
(1.65602e-10 1.89306e-10 0.431319)
(5.9168e-10 8.70954e-11 0.532725)
(1.00736e-09 5.63569e-11 0.630347)
(1.34174e-09 1.04123e-10 0.68931)
(1.56239e-09 2.11931e-10 0.688366)
(1.66118e-09 3.43077e-10 0.624991)
(1.63973e-09 4.44888e-10 0.513185)