/*--------------------------------*- C++ -*----------------------------------*\
  =========                 |
  \\      /  F ield         | OpenFOAM: The Open Source CFD Toolbox
   \\    /   O peration     | Website:  https://openfoam.org
    \\  /    A nd           | Version:  11
     \\/     M anipulation  |
\*---------------------------------------------------------------------------*/
FoamFile
{
    format      ascii;
    class       volScalarField;
    location    "15.541715";
    object      p;
}
// * * * * * * * * * * * * * * * * * * * * * * * * * * * * * * * * * * * * * //

dimensions      [0 2 -2 0 0 0 0];

internalField   nonuniform List<scalar> 
7132
(
0.0903435
0.0889809
0.0843546
0.0777425
0.0687036
0.0572442
0.0436051
0.0283344
0.0123905
-0.002559
-0.0149506
-0.0226252
-0.0253272
-0.0231229
-0.0171572
-0.00921743
-0.000784226
0.007043
0.0139632
0.0203191
0.0265912
0.0329544
0.0392352
0.0451465
0.05048
0.0551961
0.0593488
0.0629574
0.0658512
0.0675885
0.0677138
0.066274
0.0641195
0.0624175
0.0618534
0.0623238
0.0632876
0.064249
0.0649839
0.0655504
0.0661397
0.0668941
0.0676202
0.0676624
0.0662886
0.0634747
0.0602717
0.0580903
0.0576178
0.0584856
0.0597983
0.060835
0.0613307
0.0614147
0.0614044
0.0615591
0.0617512
0.0613542
0.0596574
0.0566631
0.053444
0.0514445
0.0513697
0.0527717
0.0545859
0.0559405
0.0565259
0.0565051
0.0562511
0.0560479
0.055788
0.054947
0.053007
0.0501048
0.0472378
0.0456464
0.0459163
0.0476217
0.0497302
0.0513332
0.0520671
0.0520774
0.0517444
0.0513477
0.0507988
0.0496881
0.047697
0.0450838
0.0427358
0.0416248
0.042153
0.0439239
0.0460537
0.0477222
0.0485425
0.0485976
0.0482314
0.0477215
0.0470218
0.0458148
0.0438897
0.041541
0.0395627
0.0387664
0.0394592
0.0412822
0.0434692
0.0452785
0.0462972
0.0465128
0.046185
0.0455789
0.0447092
0.0433354
0.0412711
0.0387619
0.0365392
0.0354289
0.0358418
0.0375532
0.0398683
0.042013
0.043445
0.0439705
0.0436908
0.0428349
0.0415264
0.0396499
0.0369612
0.0334236
0.0294727
0.0259291
0.0235881
0.0227994
0.0233348
0.0245631
0.0257828
0.0264814
0.026426
0.025624
0.0242337
0.0224858
0.0206549
0.0190544
0.0180414
0.0179432
0.0189725
0.021084
0.0240305
0.0273244
0.0305382
0.0331698
0.0349198
0.035541
0.034353
0.032342
0.0259011
0.0233395
0.00563519
0.0170245
0.0908887
0.0895296
0.0849175
0.078308
0.0692451
0.0577072
0.043909
0.0283733
0.0120659
-0.00329076
-0.0160486
-0.0238451
-0.0264875
-0.0240194
-0.0176745
-0.00938166
-0.00070135
0.00721189
0.0140807
0.0203313
0.0265254
0.0328669
0.0391696
0.0451252
0.0505105
0.0552803
0.0594855
0.0631413
0.0660712
0.0678102
0.0678717
0.0662969
0.0639826
0.0621677
0.0615703
0.0620696
0.0630859
0.0641004
0.0648817
0.0654882
0.0661113
0.0668959
0.0676458
0.0676834
0.0662452
0.0633057
0.0599658
0.0577064
0.057242
0.0581828
0.0595852
0.0606982
0.0612487
0.0613678
0.0613764
0.0615391
0.0617252
0.0612931
0.0595156
0.0564017
0.0530661
0.0510098
0.0509568
0.0524484
0.054374
0.0558255
0.0564777
0.0564934
0.0562523
0.0560455
0.0557603
0.0548591
0.0528197
0.0498003
0.04684
0.045216
0.0455218
0.0473161
0.0495342
0.0512377
0.0520444
0.0520943
0.0517729
0.0513666
0.0507819
0.0495999
0.0475057
0.0447849
0.0423646
0.0412426
0.0418176
0.0436733
0.0458989
0.0476539
0.048539
0.0486315
0.048276
0.0477524
0.0470098
0.0457259
0.0436991
0.0412518
0.0392136
0.0384173
0.0391647
0.0410751
0.0433544
0.0452429
0.0463201
0.0465715
0.0462556
0.0456354
0.0447183
0.0432611
0.0410886
0.0384739
0.0361825
0.0350628
0.0355262
0.0373299
0.0397507
0.0419903
0.0434942
0.044067
0.043811
0.0429533
0.0416098
0.0396563
0.0368525
0.0331847
0.0291242
0.0255247
0.0231975
0.0224863
0.0231399
0.0244969
0.0258267
0.0265982
0.0265717
0.0257568
0.0243187
0.0224962
0.0205743
0.0188824
0.0177974
0.0176663
0.0187129
0.0208903
0.0239377
0.0273468
0.0306701
0.0333887
0.0351948
0.0358317
0.0346277
0.0325457
0.0260394
0.0233273
0.00561608
0.0168606
0.0919771
0.090627
0.0860458
0.0794467
0.0703416
0.0586528
0.04454
0.0284704
0.0114228
-0.00477451
-0.0182919
-0.0263315
-0.0288446
-0.0258169
-0.0186735
-0.00964675
-0.000464574
0.00760513
0.0143403
0.0203499
0.0263703
0.0326651
0.0390147
0.0450623
0.0505535
0.0554312
0.0597425
0.0634961
0.0665038
0.0682509
0.0681832
0.0663281
0.0636804
0.0616322
0.0609705
0.061535
0.0626624
0.063785
0.0646578
0.0653415
0.0660304
0.0668757
0.0676758
0.0677048
0.066134
0.0629329
0.0593068
0.0568858
0.0564444
0.0575434
0.0591349
0.0604048
0.061064
0.0612497
0.0612938
0.0614727
0.0616486
0.0611455
0.059199
0.0558341
0.0522558
0.0500805
0.0500813
0.0517631
0.0539222
0.0555733
0.0563591
0.0564438
0.0562252
0.0560116
0.0556791
0.0546603
0.0524222
0.0491662
0.0460177
0.0443289
0.0447086
0.0466841
0.0491238
0.0510286
0.0519785
0.052104
0.051804
0.0513798
0.0507261
0.0494028
0.047102
0.0441652
0.0416007
0.040458
0.0411315
0.0431611
0.0455801
0.0475068
0.0485183
0.0486829
0.0483484
0.0477991
0.0469708
0.0455301
0.0432938
0.0406437
0.0384832
0.0376884
0.0385517
0.0406442
0.0431136
0.0451627
0.046357
0.0466798
0.0463896
0.0457428
0.0447293
0.0430978
0.0406965
0.0378585
0.0354216
0.0342825
0.0348535
0.0368519
0.0394936
0.0419299
0.043582
0.0442519
0.0440459
0.0431879
0.0417742
0.039661
0.0366147
0.0326707
0.0283777
0.0246601
0.0223633
0.0218175
0.0227217
0.0243477
0.0259063
0.0268289
0.0268631
0.0260244
0.0244913
0.0225182
0.0204105
0.0185288
0.0172924
0.01709
0.01817
0.0204829
0.0237388
0.027386
0.0309346
0.0338318
0.0357524
0.0364207
0.035182
0.0329559
0.0263113
0.0232946
0.00556574
0.0164834
0.0936055
0.0922714
0.0877446
0.081173
0.0720194
0.0601193
0.0455432
0.0286626
0.0104693
-0.00705956
-0.0217895
-0.0302034
-0.032523
-0.0286219
-0.0202254
-0.0100484
-7.86565e-05
0.00822876
0.0147364
0.020353
0.0260978
0.0323244
0.0387518
0.0449423
0.0505929
0.0556314
0.0601018
0.0640045
0.067135
0.0688979
0.0686241
0.0663158
0.0631303
0.0607165
0.059973
0.0606643
0.0619807
0.0632752
0.0642856
0.0650813
0.0658641
0.0667968
0.0676679
0.0676742
0.0658803
0.0622486
0.0581569
0.0554878
0.0551127
0.0564931
0.0584027
0.0599239
0.0607473
0.0610258
0.0611126
0.0613054
0.0614596
0.0608445
0.0586349
0.0548776
0.0509169
0.048554
0.0486467
0.0506426
0.0531806
0.0551485
0.0561375
0.0563192
0.0561261
0.0558992
0.0554958
0.0542971
0.0517512
0.0481284
0.0446914
0.0429096
0.0434167
0.0456827
0.0484679
0.0506792
0.0518419
0.0520773
0.0518085
0.0513596
0.0506008
0.0490544
0.046424
0.0431442
0.0403555
0.039192
0.0400366
0.0423509
0.0450748
0.0472636
0.048463
0.0487345
0.0484343
0.0478483
0.0468843
0.0451877
0.0426092
0.0396309
0.0372773
0.0364946
0.0375555
0.0399469
0.0427214
0.045022
0.0463954
0.0468276
0.0465801
0.0458945
0.044726
0.0428073
0.0400283
0.0368247
0.0341538
0.03299
0.033743
0.0360611
0.0390595
0.0418088
0.0436933
0.0445143
0.044388
0.0435324
0.0420077
0.0396353
0.0361943
0.0318037
0.0271399
0.0232408
0.021003
0.0207312
0.0220417
0.024098
0.0260185
0.0271778
0.0273071
0.0264325
0.0247531
0.0225444
0.0201418
0.0179558
0.0164748
0.0161571
0.0172917
0.0198239
0.0234146
0.0274405
0.0313427
0.0345161
0.0366091
0.0373202
0.0360215
0.0335666
0.0267054
0.0232016
0.00548462
0.015769
0.0957677
0.0944595
0.0900204
0.0835077
0.0743186
0.0621668
0.046993
0.0290147
0.00922927
-0.0102122
-0.0266955
-0.0356024
-0.0376176
-0.0324075
-0.0221644
-0.0103447
0.000699219
0.00925159
0.015317
0.0202809
0.0255981
0.0317385
0.0382988
0.0447044
0.0505803
0.0558375
0.0605228
0.06463
0.0679366
0.0697275
0.0691539
0.0661735
0.0621925
0.0592602
0.0584384
0.0593586
0.0609738
0.0625191
0.0637156
0.0646523
0.065549
0.0665852
0.0675393
0.0674969
0.0653629
0.0610875
0.0563065
0.0532878
0.0530555
0.0548973
0.0573039
0.0591974
0.0602443
0.0606279
0.0607413
0.060926
0.0610405
0.0602776
0.057722
0.0534387
0.0489544
0.0463266
0.0465421
0.0489868
0.0520703
0.054489
0.0557545
0.056054
0.0558836
0.05564
0.0551463
0.0536969
0.0507077
0.046557
0.0427176
0.0408305
0.0415498
0.0442438
0.0475158
0.0501453
0.05159
0.0519689
0.0517454
0.0512704
0.0503663
0.0484941
0.045379
0.0415998
0.0384944
0.0373201
0.0384363
0.0411765
0.0443404
0.0468927
0.048345
0.0487615
0.048515
0.0478838
0.0467228
0.0446452
0.0415595
0.0381022
0.035475
0.034721
0.0360813
0.0389136
0.0421313
0.04479
0.0464137
0.0469995
0.0468166
0.0460803
0.0446853
0.0423406
0.0390045
0.0352687
0.0322641
0.0310723
0.0320947
0.0348766
0.0383885
0.0415854
0.0437995
0.0448351
0.0448245
0.0439761
0.0422913
0.0395411
0.0355287
0.0305018
0.0253217
0.0211817
0.0190437
0.01917
0.0210588
0.0237224
0.0261507
0.0276416
0.0279062
0.0269862
0.0251059
0.0225655
0.0197408
0.017115
0.0152801
0.0147974
0.016014
0.0188628
0.0229304
0.0274876
0.0318773
0.0354239
0.0377433
0.0385026
0.0371125
0.034337
0.0271774
0.0229863
0.00536757
0.0145544
0.0984537
0.0971852
0.09288
0.0864774
0.0772919
0.064878
0.0489933
0.0296196
0.00773589
-0.0143454
-0.0332734
-0.0428185
-0.0444629
-0.0374975
-0.0247287
-0.0106609
0.0018515
0.0107
0.0160859
0.0200943
0.0248084
0.0308482
0.0376079
0.0443064
0.0504708
0.0559973
0.0609459
0.0653095
0.0688517
0.0706855
0.0696902
0.0657494
0.0606372
0.0570062
0.0561484
0.0574703
0.0595475
0.0614463
0.0628789
0.063973
0.0649736
0.0660817
0.0670943
0.066983
0.0644319
0.0593199
0.0535849
0.0500511
0.0500261
0.0525692
0.0557193
0.0581446
0.0594765
0.0599538
0.0600467
0.060188
0.060249
0.0593022
0.0562928
0.0513171
0.0461642
0.0432266
0.0436418
0.0466951
0.0505069
0.0535195
0.0551344
0.0555682
0.055421
0.0551676
0.0545633
0.0527652
0.0491497
0.0442656
0.0398924
0.0379064
0.0389707
0.0422766
0.0462059
0.0493748
0.0511712
0.0517298
0.0515747
0.0510764
0.049973
0.0476411
0.0438512
0.0393923
0.0358711
0.0347055
0.0362191
0.0395582
0.043323
0.0463542
0.0481302
0.0487352
0.0485689
0.0478814
0.0464444
0.0438319
0.0400478
0.0359471
0.0329654
0.0322649
0.0340407
0.0374756
0.041293
0.0444295
0.0463824
0.0471714
0.0470791
0.0462737
0.0445635
0.0416302
0.037539
0.0330983
0.0296641
0.0284489
0.0298365
0.0332358
0.0374285
0.0412168
0.0438657
0.0451849
0.0453292
0.0444895
0.0425826
0.0393175
0.0345443
0.0286939
0.0228686
0.0184509
0.016471
0.0171288
0.0197705
0.0232187
0.0263005
0.028219
0.0286602
0.0276835
0.0255396
0.0225536
0.0191557
0.0159337
0.0136266
0.0129345
0.0142757
0.0175557
0.0222517
0.0274936
0.0324971
0.0365002
0.0390854
0.0398894
0.0383714
0.035181
0.0276464
0.0225695
0.00519941
0.0127262
0.101648
0.100438
0.0963289
0.0901128
0.0810061
0.0683629
0.0516906
0.03062
0.00606142
-0.0195874
-0.0418323
-0.0520941
-0.0531521
-0.0436616
-0.0274246
-0.0104181
0.00389048
0.0128846
0.017078
0.0195829
0.0234409
0.0294096
0.0365092
0.0436293
0.0501667
0.0560138
0.061267
0.0659354
0.0697784
0.0716602
0.0700676
0.0647589
0.058053
0.0535276
0.0527722
0.0547872
0.0575696
0.0599574
0.0616765
0.0629141
0.063935
0.0649889
0.0659832
0.0658009
0.0628569
0.0568414
0.0499309
0.0456499
0.0458148
0.0492984
0.053491
0.0566497
0.0583314
0.0588665
0.0588777
0.0589582
0.058972
0.0577853
0.0541435
0.0482315
0.0422402
0.0389963
0.0397705
0.0436503
0.0483976
0.052151
0.0541855
0.0547729
0.0546628
0.0544175
0.0536713
0.0513951
0.0469391
0.0411014
0.0360616
0.0339913
0.0355524
0.0396864
0.044468
0.0483061
0.0505251
0.0513053
0.0512514
0.0507319
0.0493592
0.0464117
0.0417457
0.0364305
0.0324037
0.0312713
0.0333105
0.0374308
0.0419682
0.0456011
0.0477758
0.0486182
0.0485628
0.0478018
0.0459946
0.0426794
0.0380041
0.0331067
0.0297026
0.0290855
0.0313907
0.0355873
0.0401613
0.0438977
0.0462623
0.0473079
0.047333
0.0464314
0.0443034
0.0406124
0.0355764
0.0302776
0.0263379
0.0251107
0.0269548
0.0311132
0.0361425
0.0406598
0.0438473
0.045521
0.0458603
0.0450256
0.0428239
0.0389006
0.0331893
0.0263604
0.0198024
0.0151033
0.0133532
0.0146685
0.0182172
0.0226038
0.0264676
0.0289001
0.0295562
0.0285086
0.0260284
0.0224651
0.018325
0.0143439
0.0114555
0.0105296
0.0120543
0.015885
0.0213491
0.0274034
0.0331147
0.0376274
0.0404955
0.0413301
0.0396474
0.0359616
0.0280001
0.0218828
0.00496105
0.0103104
0.105327
0.1042
0.100368
0.094446
0.0855385
0.0727573
0.0552732
0.0322089
0.00430138
-0.0261626
-0.0529151
-0.0640445
-0.064516
-0.0517687
-0.030887
-0.0099233
0.0068019
0.0159001
0.0183068
0.0186731
0.0213648
0.0273028
0.0349097
0.042589
0.049571
0.0557638
0.0613309
0.0663338
0.0705235
0.0724179
0.0699341
0.0626773
0.0537545
0.0481288
0.0477922
0.0509961
0.0548617
0.0579274
0.0599785
0.0612867
0.0621408
0.0629367
0.0638314
0.0636001
0.0602693
0.0532542
0.045016
0.0399116
0.0402682
0.0449157
0.0504594
0.0545735
0.0566713
0.0572203
0.0571033
0.0571374
0.0571134
0.0555905
0.0510892
0.0439755
0.0369753
0.0334429
0.034768
0.0397411
0.0456553
0.0502952
0.0528151
0.0535832
0.0535398
0.0533222
0.0523867
0.049489
0.0439911
0.0370149
0.0312036
0.0290609
0.0312535
0.0364214
0.0422463
0.04688
0.0495901
0.0506372
0.0507217
0.0501774
0.0484555
0.0447391
0.0390202
0.0327097
0.028115
0.0270421
0.0297164
0.0347765
0.040241
0.0445887
0.0472338
0.0483619
0.0484455
0.047586
0.04531
0.0411362
0.0354089
0.0296009
0.0257339
0.0252333
0.0281629
0.0332517
0.0387134
0.0431552
0.0460054
0.0473561
0.0475197
0.0464858
0.0438372
0.0392389
0.0331097
0.026849
0.0223635
0.0211446
0.0235189
0.0285437
0.0345284
0.0398829
0.0436948
0.0457847
0.046353
0.0455111
0.0429384
0.0382292
0.0314462
0.0235485
0.016234
0.0112909
0.00984949
0.0119249
0.016492
0.0219238
0.0266586
0.0296674
0.0305641
0.0294238
0.0265195
0.0222351
0.0171854
0.0123064
0.00876801
0.00762086
0.00940268
0.0138855
0.0202156
0.0271536
0.0336088
0.0386375
0.0417756
0.0426158
0.0407391
0.0365105
0.0281206
0.0208963
0.00464631
0.00747619
0.109459
0.108446
0.104993
0.0995084
0.0909782
0.0782333
0.0599985
0.0346805
0.00265421
-0.0343
-0.067086
-0.0789634
-0.0784227
-0.0611455
-0.0340275
-0.00805748
0.0114733
0.0201949
0.0196482
0.0167849
0.0179069
0.0240199
0.0324925
0.0409773
0.0485054
0.055049
0.0608932
0.0661651
0.0706019
0.0724473
0.0688832
0.0591031
0.0471538
0.0400071
0.0404981
0.0456639
0.0511926
0.055203
0.0576174
0.0588444
0.0592775
0.0596525
0.0604527
0.0602034
0.0563265
0.0480111
0.0382645
0.0323586
0.0331818
0.0392862
0.0464871
0.0517707
0.0543489
0.0548823
0.054624
0.0546463
0.0545811
0.0526077
0.0470497
0.0385443
0.0304171
0.0265981
0.0286178
0.0349228
0.0422201
0.0478764
0.0509381
0.0519194
0.0519795
0.0518039
0.0506274
0.0469897
0.0403122
0.0320919
0.0254579
0.0232547
0.0261646
0.03251
0.039522
0.0450489
0.0483048
0.0496589
0.0499145
0.0493355
0.0471929
0.0425924
0.035709
0.0283324
0.0231496
0.0221624
0.025542
0.0316438
0.0381387
0.0432807
0.0464493
0.0479013
0.0481428
0.0471565
0.0443288
0.0391858
0.0323125
0.0255447
0.0212121
0.0208598
0.0244723
0.0305287
0.0369555
0.0421681
0.0455531
0.0472432
0.0475539
0.0463507
0.0430991
0.0374958
0.0301989
0.0229441
0.0179186
0.0167353
0.019681
0.0256234
0.0326195
0.0388664
0.0433522
0.0458982
0.0467171
0.045849
0.042841
0.0372624
0.0293507
0.0203834
0.0123623
0.0072511
0.00619107
0.00909015
0.0147241
0.0212392
0.0268767
0.0304848
0.0316258
0.0303575
0.0269328
0.0217926
0.0157076
0.00986124
0.00567569
0.00436225
0.00647104
0.0116581
0.0188735
0.0266774
0.0338312
0.0393221
0.0426839
0.0434966
0.0414156
0.0366533
0.0279086
0.0196255
0.00427108
0.00445387
0.113999
0.113136
0.110185
0.105322
0.0974152
0.0849856
0.0661769
0.0384195
0.00135633
-0.0444585
-0.0854508
-0.0981895
-0.0968566
-0.0735277
-0.0379358
-0.00524206
0.0180477
0.0260512
0.0211384
0.0136669
0.012722
0.0193
0.0290876
0.0386463
0.0467882
0.0536251
0.0595854
0.0647159
0.0689112
0.0706224
0.0664101
0.0545119
0.0389602
0.0291831
0.0302851
0.0382451
0.0462545
0.0515989
0.0544008
0.0553398
0.0551161
0.0550232
0.0557944
0.0555022
0.0508411
0.0409276
0.0295177
0.0228908
0.0244448
0.0323405
0.0414887
0.0481222
0.0512359
0.0517486
0.0513657
0.0514121
0.0512951
0.0487908
0.0420822
0.0321295
0.0228497
0.0187392
0.0215099
0.0292775
0.0380953
0.0448507
0.0484884
0.0497089
0.0499031
0.0497763
0.0483248
0.0438927
0.0360017
0.0265377
0.019098
0.0168502
0.0205029
0.0280743
0.0363294
0.0427887
0.0466125
0.0482951
0.0487406
0.0481167
0.0455139
0.039986
0.0319227
0.0234972
0.0177568
0.0168799
0.0209835
0.0281483
0.035698
0.0416546
0.045363
0.0471547
0.0475589
0.0464233
0.0430009
0.0368546
0.0288351
0.0211383
0.0163793
0.0162022
0.0205077
0.027533
0.034925
0.0409109
0.0448373
0.0468743
0.0473272
0.0459263
0.0420341
0.0354091
0.0269672
0.0187704
0.0132586
0.0121421
0.0156608
0.0225016
0.0304842
0.0376049
0.0427583
0.0457646
0.0468362
0.0459209
0.0424449
0.0359857
0.0269893
0.0170521
0.0084483
0.00327525
0.00265396
0.0063892
0.0130623
0.0206156
0.0271145
0.0312934
0.0326508
0.0312007
0.027167
0.0210833
0.0139282
0.00715538
0.00241387
0.00102095
0.00349687
0.00936221
0.0173765
0.0259188
0.0336314
0.039465
0.0429705
0.0437198
0.0414548
0.0362387
0.0272931
0.0181132
0.00386275
0.0014608
0.118888
0.118219
0.115913
0.1119
0.104943
0.0932558
0.074236
0.0440331
0.000920457
-0.0570947
-0.109068
-0.121754
-0.119061
-0.087707
-0.0410167
0.000163936
0.027736
0.0339159
0.0222399
0.00796458
0.00435178
0.0121385
0.0241414
0.0352651
0.0441418
0.0511714
0.0568065
0.0608123
0.0639031
0.0652129
0.0610659
0.0483
0.0295303
0.0163343
0.0172774
0.0284237
0.0397361
0.0468976
0.0501327
0.0505865
0.0495591
0.0490353
0.0498475
0.0494595
0.0438789
0.0322991
0.0192179
0.0118932
0.0142765
0.0241758
0.0354714
0.0435678
0.0472494
0.047751
0.0472703
0.0473676
0.0472027
0.0441704
0.0363635
0.0250629
0.0147116
0.0103186
0.0138091
0.0230224
0.0333668
0.0412206
0.0454249
0.0468863
0.047227
0.0471536
0.0454347
0.0402496
0.0312377
0.020648
0.012493
0.0102244
0.0145828
0.023318
0.0327587
0.0401037
0.0444636
0.0464627
0.0470972
0.0464284
0.0433808
0.036981
0.0278371
0.0184764
0.012261
0.0115157
0.0163052
0.0244617
0.0329918
0.0397025
0.0439121
0.046025
0.0465824
0.0452938
0.0412969
0.0342131
0.0251549
0.0166448
0.0115399
0.0115561
0.0165102
0.0244203
0.0326847
0.0393658
0.0437815
0.0461366
0.0467137
0.0451104
0.0406073
0.0330452
0.0235881
0.0145859
0.00868668
0.00766809
0.0117181
0.0193619
0.0282146
0.0361028
0.0418475
0.0452709
0.0465738
0.0455982
0.0416742
0.0344168
0.0244906
0.0137813
0.00478141
-0.000327562
-0.000470145
0.00404988
0.0116501
0.0201052
0.0273435
0.0320058
0.0335167
0.0318187
0.0271233
0.0200998
0.0119715
0.00443976
-0.000688807
-0.00206762
0.00076394
0.00718819
0.0157984
0.0248364
0.0328739
0.0388683
0.0424078
0.043065
0.0406731
0.0351523
0.0262255
0.016408
0.00344858
-0.00130822
0.124049
0.12362
0.122119
0.11922
0.11363
0.103272
0.0846412
0.0522734
0.00183197
-0.0731612
-0.140228
-0.153061
-0.149581
-0.106779
-0.044553
0.00795078
0.0413026
0.0444201
0.0224665
-0.00149154
-0.00828953
0.00192721
0.0173589
0.0306163
0.0403281
0.0473102
0.0517876
0.0534073
0.0547585
0.0557771
0.0521772
0.0387741
0.0172594
0.000997886
0.00177327
0.0162445
0.0314729
0.0409093
0.0446512
0.0444899
0.0426094
0.0417304
0.0426566
0.0421807
0.0357494
0.0227057
0.00813751
0.000131172
0.00326226
0.015125
0.0285778
0.0381371
0.0423717
0.0428616
0.0422979
0.0424645
0.0422943
0.0388486
0.0301534
0.017755
0.00651836
0.00188105
0.00598908
0.0164837
0.0282056
0.0370438
0.0417374
0.0433987
0.0438726
0.0438638
0.0419457
0.0361607
0.0262528
0.01477
0.00605988
0.00380378
0.00877376
0.0185019
0.028947
0.0370281
0.0418208
0.044078
0.0448802
0.0441883
0.0407835
0.0336777
0.0236705
0.0135813
0.00702185
0.00642559
0.0118066
0.0207899
0.0301201
0.0374316
0.0420349
0.0444082
0.045097
0.0436843
0.0392127
0.0313667
0.0214855
0.0123574
0.00702349
0.00724037
0.012744
0.0213685
0.0303143
0.0375227
0.0423066
0.0449083
0.045583
0.0438098
0.0388079
0.0305005
0.0202614
0.0106671
0.00451761
0.0036256
0.00812368
0.0164012
0.0259155
0.0343722
0.0405536
0.0442964
0.0457855
0.0447563
0.0404717
0.0326005
0.0220062
0.0108065
0.00164557
-0.00326448
-0.00291875
0.00227551
0.0106064
0.019735
0.0275096
0.0325091
0.0340799
0.0320754
0.0267331
0.0188965
0.0100313
0.00201546
-0.00328598
-0.00456783
-0.00145196
0.00532032
0.0142168
0.0234065
0.0314562
0.0373817
0.0408264
0.0413754
0.0389453
0.0333215
0.0246748
0.0145552
0.00305324
-0.00367137
0.129385
0.129248
0.128718
0.127241
0.123521
0.115333
0.0980665
0.0644574
0.00542557
-0.0940848
-0.180894
-0.190029
-0.186174
-0.12944
-0.047261
0.0198308
0.0593083
0.0570814
0.0203048
-0.0179417
-0.0284437
-0.0133571
0.00782044
0.0242781
0.0350593
0.0415922
0.0437885
0.0422217
0.0419755
0.0433019
0.0402997
0.0258332
0.00187717
-0.016763
-0.0157613
0.00208573
0.0215349
0.0335507
0.0378732
0.0370508
0.0343305
0.0331801
0.0343194
0.0338928
0.0269079
0.012833
-0.00286244
-0.0114803
-0.00780484
0.00572083
0.0210967
0.0319636
0.0366598
0.0370976
0.0364375
0.0366898
0.0366137
0.0329881
0.0237605
0.0106463
-0.00119693
-0.00600747
-0.00143368
0.0100524
0.0228495
0.0324315
0.037451
0.0392148
0.0397809
0.0398638
0.0378851
0.031765
0.0213073
0.00926461
0.000219556
-0.0019818
0.00345805
0.0139123
0.0250633
0.0336232
0.0386639
0.0410688
0.0419999
0.0413371
0.0377418
0.030205
0.0196592
0.00912864
0.00239637
0.00196167
0.0077905
0.0173503
0.0271988
0.0348626
0.0396786
0.0422064
0.0429984
0.0415321
0.0367708
0.0284433
0.018051
0.00856714
0.00314996
0.003564
0.00946876
0.0185583
0.0279009
0.0353793
0.0403395
0.0430751
0.0438188
0.0419543
0.0366505
0.0278899
0.0171907
0.00727963
0.00104687
0.000306352
0.00513216
0.0138086
0.0236918
0.03243
0.0388166
0.0427271
0.0443373
0.0432915
0.0388068
0.030602
0.0196914
0.00834774
-0.000707217
-0.00528472
-0.00447323
0.00122472
0.0100097
0.0194978
0.0275328
0.0326754
0.0341964
0.0318614
0.0259776
0.0175791
0.0083245
0.000162934
-0.00508389
-0.00620832
-0.00293149
0.00390387
0.0126955
0.0216202
0.0293195
0.0349204
0.0381349
0.0385706
0.0362096
0.0307149
0.0226293
0.0125985
0.00270047
-0.00547102
0.134782
0.134982
0.135588
0.135835
0.134581
0.129548
0.115091
0.0818511
0.0121719
-0.120629
-0.237145
-0.24316
-0.238684
-0.160055
-0.049456
0.0370052
0.0851329
0.071333
0.0101274
-0.0472586
-0.0597029
-0.0352314
-0.0049569
0.0160666
0.0281234
0.0336196
0.0324997
0.0275561
0.026232
0.0286039
0.0263151
0.0109984
-0.0147254
-0.0351816
-0.0340412
-0.0131797
0.0103236
0.0249389
0.0298518
0.0283687
0.0248403
0.0234992
0.0250016
0.0249141
0.0178713
0.00336935
-0.012959
-0.0220421
-0.0180823
-0.00339123
0.0134379
0.0252825
0.0302461
0.0305279
0.0297224
0.0300835
0.0302643
0.0267989
0.0175113
0.00416385
-0.00793701
-0.0128207
-0.0079607
0.00413503
0.0175769
0.0275405
0.0326297
0.0343375
0.0349299
0.0351536
0.0333214
0.0272274
0.0166638
0.00447097
-0.00464433
-0.00674194
-0.00100896
0.00983016
0.0212903
0.029974
0.0349984
0.0373901
0.0383995
0.037852
0.0343071
0.0267067
0.0160322
0.00540829
-0.00129651
-0.00156198
0.00453154
0.0143489
0.0243484
0.0320311
0.0368098
0.0393465
0.0402129
0.0388078
0.0340194
0.0255786
0.0150622
0.00553414
0.000199028
0.000796191
0.00691379
0.0161546
0.0255314
0.032945
0.0378273
0.0405492
0.0413381
0.0395072
0.0341736
0.0253324
0.0145625
0.00465469
-0.0014746
-0.0020436
0.00295998
0.0117485
0.0216396
0.0302985
0.0365926
0.0404739
0.0421281
0.0411358
0.0366778
0.0284975
0.017688
0.00658862
-0.00207714
-0.00619759
-0.00497646
0.000998187
0.0098891
0.0193524
0.0273183
0.0323809
0.0337468
0.0311146
0.0248867
0.0162717
0.00703418
-0.000915563
-0.00588845
-0.00681839
-0.00354215
0.0030237
0.011273
0.0194847
0.0264573
0.0314748
0.0343248
0.0346448
0.0324651
0.0273439
0.0201028
0.0105827
0.00241119
-0.00660072
0.140104
0.140682
0.142558
0.14485
0.146682
0.14623
0.136669
0.108091
0.0256107
-0.16367
-0.307232
-0.300544
-0.304448
-0.20074
-0.0530172
0.0592471
0.111446
0.0907969
0.00110613
-0.0872471
-0.105811
-0.0675189
-0.0225015
0.00564408
0.0194085
0.0232481
0.0181158
0.00995197
0.0082525
0.012458
0.0113869
-0.00388342
-0.0303015
-0.0520264
-0.0511663
-0.0282432
-0.00143361
0.0154318
0.0208105
0.0186452
0.0143189
0.012864
0.0149457
0.0156268
0.00916246
-0.00505957
-0.0214438
-0.0307773
-0.0267961
-0.0115511
0.00607937
0.0184093
0.0233329
0.0232804
0.0222466
0.022753
0.0234111
0.0205246
0.0117244
-0.0013142
-0.0132815
-0.0181166
-0.0131602
-0.000890653
0.0126754
0.0225598
0.0273793
0.0288167
0.0293513
0.0297884
0.0283651
0.0227272
0.0125637
0.000676753
-0.00821861
-0.0101598
-0.00433142
0.00650367
0.0178074
0.0261848
0.0308642
0.0330415
0.0340725
0.033758
0.0305616
0.0233294
0.0129908
0.00265822
-0.00380321
-0.00389663
0.00225241
0.0119621
0.0216845
0.0289892
0.0334281
0.035799
0.0367151
0.0355237
0.0310292
0.0229035
0.0126972
0.0034653
-0.00161318
-0.00085604
0.00525871
0.0142933
0.0232871
0.0302461
0.0347513
0.0372895
0.0381083
0.0364742
0.0314371
0.0229412
0.0125307
0.00297119
-0.00285871
-0.0032419
0.00176892
0.0103481
0.0198399
0.0280083
0.0338665
0.0374915
0.0391094
0.0382683
0.034113
0.0263659
0.0161121
0.00566308
-0.00233062
-0.00588698
-0.00434589
0.00162981
0.0102237
0.0192326
0.0267733
0.0315287
0.0326597
0.0298257
0.0235213
0.0150798
0.00627379
-0.00112111
-0.00562235
-0.00634192
-0.00324989
0.00269534
0.00996121
0.0170265
0.0229173
0.0271052
0.0294567
0.0296546
0.0277655
0.0232621
0.0171381
0.00855238
0.00219799
-0.00702486
0.1452
0.146173
0.149417
0.153944
0.159538
0.164727
0.163287
0.142451
0.046551
-0.196582
-0.429497
-0.390954
-0.398666
-0.255381
-0.0561091
0.0768634
0.139139
0.110209
0.00438545
-0.105044
-0.147679
-0.105141
-0.0444182
-0.00706561
0.00892054
0.0105972
0.00107714
-0.010039
-0.0112495
-0.00426765
-0.00317409
-0.0171589
-0.043019
-0.0653578
-0.0652469
-0.0416158
-0.0127744
0.00560814
0.0111412
0.00818644
0.0030268
0.00153817
0.00448293
0.00645973
0.00127448
-0.0119358
-0.0277775
-0.0371033
-0.0333297
-0.0181715
-0.000493887
0.0117073
0.0161818
0.0155482
0.014178
0.0148818
0.0162779
0.0144292
0.0066888
-0.00548646
-0.0169203
-0.0215748
-0.0167056
-0.00471234
0.00841419
0.0176974
0.0218482
0.0227621
0.0231449
0.0238864
0.0231672
0.0184467
0.00921059
-0.00190404
-0.0102854
-0.0120178
-0.00629741
0.00412763
0.0147775
0.022377
0.0263434
0.0280818
0.029078
0.0291349
0.0266164
0.0202126
0.0106935
0.00104556
-0.00495563
-0.00487885
0.00110557
0.0103229
0.0193118
0.0258091
0.0295774
0.031594
0.0325418
0.0317402
0.0278911
0.0205344
0.0110879
0.00249808
-0.00215105
-0.00126421
0.00461945
0.013072
0.0212422
0.0273317
0.0311405
0.0333174
0.03416
0.0329081
0.0285201
0.0208158
0.0112062
0.00234351
-0.00299365
-0.00318302
0.00165457
0.00968894
0.0183563
0.0256027
0.0306628
0.0337931
0.0352972
0.034722
0.031169
0.0242827
0.0150449
0.00564505
-0.00141108
-0.00432114
-0.00258072
0.00308502
0.0109501
0.0190634
0.0258276
0.0300672
0.0309209
0.0280284
0.0219485
0.0140669
0.00607511
-0.000459963
-0.00432215
-0.00483619
-0.00211868
0.00287033
0.00875457
0.0142966
0.0187956
0.021926
0.0236435
0.0237061
0.0222107
0.0185613
0.0138052
0.00654844
0.00206055
-0.00678242
0.149905
0.151279
0.155888
0.162817
0.172571
0.185328
0.196008
0.199981
0.0937498
-0.184599
-0.500664
-0.458629
-0.531632
-0.338451
-0.078082
0.0538027
0.103139
0.0604855
-0.0051821
-0.109385
-0.174194
-0.139444
-0.0676025
-0.0211702
-0.00295727
-0.00386692
-0.0179835
-0.0317726
-0.0314772
-0.0205555
-0.016118
-0.0275732
-0.0516832
-0.0738925
-0.0748833
-0.0519663
-0.0226723
-0.00381088
0.00136851
-0.0026011
-0.00867853
-0.0101095
-0.0059663
-0.0021296
-0.00535479
-0.0168769
-0.0316186
-0.0406665
-0.0372751
-0.0228029
-0.00584786
0.00555092
0.00909958
0.0075913
0.00576449
0.00673161
0.00914164
0.00878469
0.00264752
-0.00814663
-0.0186719
-0.0230157
-0.0183983
-0.00710839
0.00502154
0.0131666
0.0162264
0.0163482
0.0164847
0.0176314
0.0179152
0.0145625
0.0067573
-0.00314462
-0.0107363
-0.0122115
-0.00679347
0.00282992
0.0123372
0.0186863
0.0215659
0.0226386
0.0235477
0.0241203
0.0226083
0.0174814
0.00924568
0.000655629
-0.0046827
-0.00444179
0.0011631
0.00951346
0.017321
0.0225856
0.0253542
0.0268312
0.0277985
0.0275674
0.0247123
0.0185663
0.0103113
0.00269124
-0.00136905
-0.000387416
0.00504075
0.012545
0.0194629
0.0242786
0.0270803
0.0287257
0.0295922
0.0289101
0.0255176
0.0190367
0.0106505
0.00281421
-0.00185138
-0.00184553
0.00264032
0.00980362
0.017235
0.0231425
0.0270542
0.0294597
0.0307783
0.0305854
0.0279293
0.0223156
0.0145279
0.00654294
0.000654792
-0.00155821
0.000236349
0.0052676
0.0119788
0.0187815
0.0244497
0.0279961
0.0285634
0.0257802
0.0202227
0.0132486
0.00639602
0.000969148
-0.00212471
-0.00245802
-0.000293173
0.0034571
0.00764561
0.011372
0.0142239
0.0160878
0.0170355
0.0169431
0.0159384
0.0133636
0.0101957
0.00460656
0.0019856
-0.00597625
0.154059
0.155791
0.161683
0.170809
0.185044
0.204896
0.234544
0.231171
0.189324
-0.219335
-0.679582
-0.532935
-0.618927
-0.437247
-0.159926
-0.0472135
-0.0147865
-0.0156931
-0.0375589
-0.112909
-0.183843
-0.164223
-0.0886165
-0.0353051
-0.0155204
-0.0193969
-0.0382423
-0.0543171
-0.0513726
-0.0352419
-0.0263511
-0.0342988
-0.0557217
-0.0770805
-0.0793247
-0.058348
-0.0302121
-0.0120674
-0.00790342
-0.013221
-0.0203335
-0.0215976
-0.0158998
-0.00967427
-0.0103621
-0.0196493
-0.032832
-0.0413517
-0.0384554
-0.0251712
-0.00964294
0.000292057
0.00242097
-0.000268421
-0.00266763
-0.00136411
0.00232097
0.00385761
-0.000213636
-0.00919182
-0.0184907
-0.0224071
-0.0181766
-0.00796093
0.00266982
0.00917531
0.0107407
0.00981471
0.00961978
0.0112684
0.0128266
0.0112383
0.00530003
-0.00301051
-0.00957625
-0.0107541
-0.00580942
0.00266545
0.0105912
0.015259
0.0167085
0.0169085
0.0176852
0.0189062
0.018695
0.0152412
0.00869559
0.0014882
-0.00301364
-0.00261827
0.00241366
0.00956196
0.015787
0.0194368
0.0209095
0.0216811
0.0226592
0.0231623
0.0216128
0.0170692
0.0103863
0.00402183
0.000685714
0.00172556
0.00649485
0.0127238
0.0180091
0.0211938
0.0227144
0.0236786
0.0245713
0.0246273
0.0225383
0.0176633
0.0108736
0.00435181
0.000510306
0.000706421
0.00467675
0.0106763
0.0165069
0.0207083
0.0231636
0.0246407
0.0257091
0.0260003
0.0245011
0.0205221
0.0145612
0.00829841
0.00375686
0.0022557
0.00394693
0.008036
0.0132154
0.0183522
0.022654
0.0253603
0.0256501
0.023144
0.0183773
0.0125994
0.0071385
0.00299966
0.000756535
0.00056548
0.00203603
0.00435087
0.00663868
0.00835081
0.00935665
0.0097676
0.00981478
0.00954424
0.00911737
0.00781292
0.00641592
0.00275688
0.00195274
-0.00475277
0.157508
0.159538
0.166446
0.177512
0.195316
0.223107
0.26725
0.299794
0.342636
-0.1945
-0.531042
-0.629712
-0.48594
-0.260322
-0.170421
-0.15233
-0.0893535