/*--------------------------------*- C++ -*----------------------------------*\
  =========                 |
  \\      /  F ield         | OpenFOAM: The Open Source CFD Toolbox
   \\    /   O peration     | Website:  https://openfoam.org
    \\  /    A nd           | Version:  11
     \\/     M anipulation  |
\*---------------------------------------------------------------------------*/
FoamFile
{
    format      ascii;
    class       surfaceScalarField;
    location    "15.541715";
    object      phi;
}
// * * * * * * * * * * * * * * * * * * * * * * * * * * * * * * * * * * * * * //

dimensions      [0 3 -1 0 0 0 0];

internalField   nonuniform List<scalar> 
14638
(
0.00250271
-2.70723e-06
0.00251068
-7.97241e-06
0.00252381
-1.31267e-05
0.00254193
-1.81252e-05
0.0025648
-2.28726e-05
0.0025919
-2.70988e-05
0.00262227
-3.03648e-05
0.00265425
-3.19855e-05
0.00268549
-3.12371e-05
0.00271325
-2.77582e-05
0.00273482
-2.15703e-05
0.00274947
-1.46491e-05
0.00275801
-8.54264e-06
0.00276284
-4.82945e-06
0.00276688
-4.03508e-06
0.00277186
-4.9858e-06
0.00277732
-5.45458e-06
0.0027801
-2.78112e-06
0.00277552
4.57431e-06
0.00275968
1.58451e-05
0.00273134
2.83322e-05
0.00269247
3.88738e-05
0.00264743
4.50385e-05
0.00260197
4.54645e-05
0.00256228
3.96859e-05
0.00253438
2.79006e-05
0.0025234
1.09865e-05
0.0025326
-9.20556e-06
0.00256193
-2.93251e-05
0.00260636
-4.44309e-05
0.00265574
-4.93833e-05
0.00269727
-4.15319e-05
0.00272001
-2.27416e-05
0.0027187
1.31106e-06
0.00269464
2.40588e-05
0.00265385
4.07908e-05
0.00260439
4.94647e-05
0.0025545
4.98877e-05
0.00251194
4.25585e-05
0.00248391
2.80342e-05
0.00247678
7.12839e-06
0.00249494
-1.81583e-05
0.0025384
-4.34593e-05
0.00260046
-6.20635e-05
0.0026677
-6.72374e-05
0.0027236
-5.58995e-05
0.0027545
-3.09019e-05
0.00275435
1.45558e-07
0.00272571
2.86422e-05
0.00267712
4.85939e-05
0.00261925
5.78644e-05
0.00256219
5.70635e-05
0.00251451
4.76776e-05
0.00248364
3.0872e-05
0.00247601
7.62556e-06
0.00249599
-1.99744e-05
0.0025433
-4.73131e-05
0.0026107
-6.73977e-05
0.002684
-7.33035e-05
0.00274575
-6.17429e-05
0.00278105
-3.53067e-05
0.00278269
-1.63708e-06
0.00275274
2.99463e-05
0.00270051
5.22387e-05
0.00263831
6.21976e-05
0.00257786
6.04489e-05
0.00252858
4.92796e-05
0.00249775
3.08307e-05
0.00249099
6.76168e-06
0.00251154
-2.05569e-05
0.00255824
-4.66924e-05
0.00262363
-6.53986e-05
0.00269444
-7.08083e-05
0.00275471
-6.02647e-05
0.00279062
-3.59115e-05
0.0027947
-4.07633e-06
0.00276763
2.7069e-05
0.00271726
5.0369e-05
0.00265547
6.17887e-05
0.0025946
6.08651e-05
0.00254505
4.95549e-05
0.00251453
3.05176e-05
0.00250824
6.29593e-06
0.00252829
-2.00574e-05
0.00257236
-4.40709e-05
0.00263264
-6.02763e-05
0.00269677
-6.41301e-05
0.00275089
-5.41209e-05
0.00278347
-3.25786e-05
0.00278827
-4.7961e-06
0.00276547
2.27922e-05
0.00272101
4.44658e-05
0.00266452
5.64877e-05
0.00260699
5.75285e-05
0.00255871
4.82814e-05
0.00252807
3.06427e-05
0.00252084
7.23083e-06
0.00253919
-1.83573e-05
0.00258049
-4.12925e-05
0.0026368
-5.63134e-05
0.00269634
-5.95353e-05
0.00274645
-5.01178e-05
0.00277709
-3.06374e-05
0.00278309
-5.99867e-06
0.00276476
1.83283e-05
0.00272694
3.78203e-05
0.00267734
4.96008e-05
0.00262498
5.23601e-05
0.00257902
4.59558e-05
0.00254787
3.11495e-05
0.00253812
9.75732e-06
0.00255303
-1.49121e-05
0.00259105
-3.80224e-05
0.00264526
-5.42101e-05
0.00270464
-5.93739e-05
0.0027569
-5.22651e-05
0.00279185
-3.4945e-05
0.00280376
-1.19155e-05
0.00279223
1.15296e-05
0.0027613
3.09295e-05
0.00271771
4.35893e-05
0.00266919
4.85182e-05
0.00262348
4.57102e-05
0.00258801
3.54751e-05
0.00256957
1.84431e-05
0.00257331
-3.73945e-06
0.00260105
-2.77419e-05
0.00264987
-4.88274e-05
0.0027121
-6.2227e-05
0.00277698
-6.48783e-05
0.00283351
-5.6528e-05
0.00287321
-3.96978e-05
0.0028919
-1.86955e-05
0.00289012
1.77913e-06
0.00287222
1.7902e-05
0.0028447
2.75164e-05
0.00281444
3.02674e-05
0.00278728
2.71593e-05
0.00276743
1.98505e-05
0.00275732
1.01036e-05
0.0027577
-3.73753e-07
0.00276755
-9.8488e-06
0.00278415
-1.66079e-05
0.00280346
-1.9311e-05
0.00282096
-1.74996e-05
0.00283287
-1.19059e-05
0.00283719
-4.31988e-06
0.00283426
2.92918e-06
0.00282661
7.64672e-06
0.00281832
8.29183e-06
0.0028141
4.21992e-06
0.00281846
-4.36084e-06
0.002835
-1.654e-05
0.00286589
-3.08843e-05
0.0029115
-4.56155e-05
0.00297002
-5.85193e-05
0.00303797
-6.79458e-05
0.00310854
-7.05681e-05
0.00317899
-7.04569e-05
-5.02713e-05
0.0025027
-5.40543e-06
0.00251065
-1.59228e-05
0.00252376
-2.62355e-05
0.0025419
-3.62725e-05
0.00256489
-4.58532e-05
0.00259223
-5.44442e-05
0.00262303
-6.11605e-05
0.00265562
-6.4579e-05
0.00268757
-6.31828e-05
0.00271594
-5.61321e-05
0.00273776
-4.33953e-05
0.00275226
-2.91474e-05
0.0027603
-1.65829e-05
0.00276452
-9.04492e-06
0.00276817
-7.68467e-06
0.00277326
-1.00739e-05
0.00277937
-1.15647e-05
0.00278312
-6.53312e-06
0.00277938
8.31724e-06
0.00276382
3.13996e-05
0.0027351
5.70534e-05
0.00269527
7.87073e-05
0.00264891
9.13963e-05
0.00260197
9.24066e-05
0.00256081
8.08382e-05
0.00253164
5.7072e-05
0.00251985
2.27798e-05
0.00252908
-1.84357e-05
0.00255958
-5.98272e-05
0.00260632
-9.11666e-05
0.00265857
-0.000101632
0.0027026
-8.55621e-05
0.00272668
-4.68294e-05
0.00272533
2.66896e-06
0.00270012
4.92648e-05
0.00265759
8.33236e-05
0.00260619
0.000100865
0.00255436
0.000101713
0.00250994
8.69785e-05
0.00248026
5.77111e-05
0.00247208
1.53119e-05
0.00249035
-3.64271e-05
0.00253554
-8.86472e-05
0.0026008
-0.000127324
0.00267179
-0.000138229
0.00273074
-0.000114854
0.00276307
-6.32322e-05
0.00276254
6.76932e-07
0.00273217
5.90131e-05
0.00268124
9.95286e-05
0.00262099
0.000118113
0.00256174
0.000116316
0.00251208
9.73352e-05
0.00247947
6.34845e-05
0.0024706
1.64952e-05
0.00249031
-3.96917e-05
0.00253883
-9.58272e-05
0.00260896
-0.000137532
0.00268596
-0.000150305
0.00275125
-0.00012703
0.00278881
-7.28628e-05
0.00279081
-3.63752e-06
0.0027595
6.12493e-05
0.00270489
0.000106855
0.00264006
0.00012703
0.00257717
0.000123333
0.00252574
0.000100709
0.00249301
6.35628e-05
0.00248475
1.50223e-05
0.00250464
-4.04447e-05
0.00255192
-9.39747e-05
0.00261922
-0.000132694
0.00269276
-0.000144352
0.00275582
-0.00012333
0.00279387
-7.39616e-05
0.00279898
-9.18607e-06
0.00277175
5.42998e-05
0.00272024
0.000101882
0.00265669
0.000125335
0.00259381
0.000123746
0.00254225
0.000101115
0.00251001
6.27625e-05
0.00250265
1.36496e-05
0.00252276
-4.01661e-05
0.00256816
-8.94732e-05
0.0026307
-0.000122815
0.00269727
-0.000130693
0.00275323
-0.000110086
0.00278667
-6.60214e-05
0.00279139
-9.51802e-06
0.00276787
4.63169e-05
0.00272231
9.00252e-05
0.00266456
0.00011424
0.00260569
0.000116396
0.00255612
9.78549e-05
0.00252451
6.22453e-05
0.00251711
1.46364e-05
0.00253647
-3.77204e-05
0.00257994
-8.47642e-05
0.00263905
-0.000115422
0.00270111
-0.000121596
0.0027527
-0.000101708
0.00278343
-6.13647e-05
0.00278832
-1.08897e-05
0.00276818
3.84649e-05
0.00272839
7.76127e-05
0.00267703
0.00010096
0.0026233
0.000106093
0.00257645
9.28097e-05
0.00254504
6.25506e-05
0.00253597
1.88289e-05
0.00255273
-3.16717e-05
0.00259363
-7.89229e-05
0.00265116
-0.000111734
0.00271342
-0.00012164
0.0027674
-0.000106239
0.00280249
-7.00408e-05
0.00281309
-2.25164e-05
0.00279922
2.54015e-05
0.0027655
6.4646e-05
0.00271923
8.98678e-05
0.0026685
9.92478e-05
0.00262128
9.2931e-05
0.00258516
7.15885e-05
0.00256716
3.64453e-05
0.0025726
-9.17816e-06
0.00260324
-5.83822e-05
0.0026557
-0.000101287
0.0027215
-0.000128029
0.00278907
-0.000132448
0.00284684
-0.000114299
0.00288618
-7.90375e-05
0.00290315
-3.56611e-05
0.00289873
6.19808e-06
0.0028778
3.88265e-05
0.00284736
5.79613e-05
0.00281462
6.30038e-05
0.00278571
5.60761e-05
0.00276499
4.05646e-05
0.00275506
2.00317e-05
0.00275672
-2.03325e-06
0.00276887
-2.19925e-05
0.00278842
-3.61654e-05
0.00281076
-4.16507e-05
0.00283073
-3.74688e-05
0.00284405
-2.52243e-05
0.00284851
-8.77822e-06
0.00284452
6.91545e-06
0.00283491
1.72584e-05
0.00282412
1.90816e-05
0.00281723
1.11109e-05
0.00281903
-6.1629e-06
0.00283333
-3.08348e-05
0.00286242
-5.99791e-05
0.00290681
-9.00046e-05
0.00296474
-0.00011645
0.00303275
-0.000135949
0.00310385
-0.000141676
0.00317533
-0.00014193
-0.000101163
0.00250268
-8.08437e-06
0.00251058
-2.38196e-05
0.00252364
-3.9296e-05
0.00254181
-5.44437e-05
0.00256498
-6.90263e-05
0.0025928
-8.2262e-05
0.00262445
-9.28113e-05
0.00265828
-9.84065e-05
0.00269169
-9.65985e-05
0.00272137
-8.5806e-05
0.00274376
-6.57844e-05
0.00275799
-4.33784e-05
0.00276503
-2.36267e-05
0.00276801
-1.2029e-05
0.0027709
-1.05728e-05
0.00277623
-1.54e-05
0.0027837
-1.90329e-05
0.00278941
-1.22433e-05
0.00278725
1.04706e-05
0.0027721
4.65553e-05
0.00274235
8.6799e-05
0.00270037
0.000120694
0.00265122
0.000140546
0.00260128
0.000142338
0.0025573
0.000124826
0.00252581
8.85627e-05
0.00251272
3.58671e-05
0.00252237
-2.80909e-05
0.00255562
-9.30716e-05
0.00260731
-0.000142854
0.00266548
-0.000159805
0.00271443
-0.000134514
0.00274081
-7.32095e-05
0.00273872
4.75685e-06
0.00271055
7.74389e-05
0.00266401
0.000129861
0.00260847
0.000156405
0.00255277
0.00015741
0.00250487
0.000134882
0.00247234
9.02413e-05
0.00246262
2.50333e-05
0.00248174
-5.55536e-05
0.00253101
-0.000137909
0.00260318
-0.000199501
0.002682
-0.000217051
0.002747
-0.000179848
0.00278161
-9.78466e-05
0.00277937
2.9226e-06
0.00274454
9.38408e-05
0.00268816
0.000155906
0.00262278
0.000183497
0.00255917
0.00017992
0.00250586
0.000150651
0.00247012
9.9218e-05
0.00245888
2.77368e-05
0.00247773
-5.85372e-05
0.00252787
-0.00014597
0.00260264
-0.000212298
0.00268655
-0.000234217
0.00275902
-0.000199505
0.00280162
-0.000115455
0.00280491
-6.93505e-06
0.00277121
9.49519e-05
0.00271189
0.000166179
0.00264175
0.000197168
0.00257406
0.000191023
0.0025186
0.000156173
0.00248256
9.9602e-05
0.00247206
2.55171e-05
0.00249165
-6.00336e-05
0.00254125
-0.000143577
0.00261316
-0.000204602
0.00269223
-0.000223415
0.00276006
-0.000191168
0.00280102
-0.000114919
0.00280681
-1.4975e-05
0.00277824
8.28652e-05
0.00272394
0.000156183
0.00265684
0.000192443
0.00259022
0.000190363
0.00253524
0.000156097
0.00250047
9.75285e-05
0.00249233
2.1796e-05
0.00251412
-6.19635e-05
0.00256368
-0.000139032
0.00263171
-0.000190843
0.00270329
-0.000202273
0.00276225
-0.000169042
0.00279607
-9.9843e-05
0.00279899
-1.24366e-05
0.00277244
7.28692e-05
0.00272353
0.000138929
0.00266265
0.000175118
0.00260109
0.000177963
0.00254945
0.000149494
0.00251692
9.47704e-05
0.0025105
2.10621e-05
0.00253322
-6.04454e-05
0.00258203
-0.000133576
0.0026471
-0.000180487
0.00271397
-0.000188471
0.00276786
-0.000155592
0.00279788
-9.13879e-05
0.00279956
-1.2567e-05
0.00277481
6.32095e-05
0.00273024
0.000122189
0.00267481
0.000156393
0.00261815
0.000162744
0.00256977
0.000141194
0.00253855
9.37687e-05
0.0025318
2.55807e-05
0.00255313
-5.30049e-05
0.00260023
-0.000126024
0.00266423
-0.000175733
0.00273167
-0.000189077
0.0027883
-0.00016287
0.00282304
-0.000104781
0.00283053
-3.00042e-05
0.00281163
4.43017e-05
0.0027721
0.000104172
0.00272032
0.000141655
0.00266517
0.000154395
0.00261512
0.00014298
0.00257816
0.000108554
0.00256165
5.29485e-05
0.0025711
-1.86258e-05
0.00260782
-9.51025e-05
0.00266726
-0.000160727
0.00273938
-0.000200153
0.00281125
-0.000204317
0.00287055
-0.000173598
0.00290859
-0.000117077
0.00292192
-4.89885e-05
0.00291234
1.57805e-05
0.00288566
6.5506e-05
0.00284974
9.388e-05
0.0028125
0.000100243
0.00278055
8.80297e-05
0.00275863
6.24771e-05
0.00274962
2.90429e-05
0.00275438
-6.79286e-06
0.00277146
-3.90724e-05
0.00279693
-6.16347e-05
0.00282495
-6.96646e-05
0.00284915
-6.16777e-05
0.00286447
-4.05377e-05
0.00286844
-1.275e-05
0.00286178
1.35761e-05
0.00284794
3.10994e-05
0.00283211
3.49137e-05
0.00282002
2.31937e-05
0.00281698
-3.12438e-06
0.00282714
-4.09893e-05
0.00285306
-8.59039e-05
0.00289548
-0.000132423
0.00295279
-0.000173756
0.00302149
-0.000204651
0.00309416
-0.000214344
0.003168
-0.000215775
-0.000153221
0.00250265
-1.07296e-05
0.00251045
-3.16214e-05
0.00252341
-5.22597e-05
0.00254159
-7.26182e-05
0.00256501
-9.24521e-05
0.00259351
-0.000110762
0.00262645
-0.000125749
0.00266218
-0.00013414
0.00269792
-0.000132339
0.00272968
-0.000117559
0.00275297
-8.90733e-05
0.00276677
-5.7184e-05
0.00277221
-2.90633e-05
0.00277318
-1.30049e-05
0.0027748
-1.21867e-05
0.00278045
-2.10572e-05
0.00279008
-2.86608e-05
0.00279895
-2.11077e-05
0.00279936
1.00619e-05
0.00278483
6.1081e-05
0.00275343
0.000118199
0.00270802
0.000166099
0.00265451
0.000194059
0.00259998
0.000196874
0.00255166
0.000173143
0.00251662
0.000123605
0.00250151
5.09773e-05
0.00251176
-3.83484e-05
0.00254926
-0.000130564
0.00260875
-0.000202345
0.00267633
-0.000227383
0.00273306
-0.000191249
0.00276294
-0.000103085
0.00275945
8.24229e-06
0.00272635
0.000110542
0.00267338
0.000182833
0.00261137
0.000218406
0.00254979
0.000218996
0.00249668
0.00018799
0.00245988
0.000127046
0.00244764
3.72743e-05
0.00246735
-7.52649e-05
0.00252157
-0.000192134
0.00260328
-0.000281208
0.00269419
-0.000307957
0.00276968
-0.00025534
0.00280918
-0.000137354
0.00280499
7.11946e-06
0.00276325
0.00013558
0.00269816
0.00022099
0.00262469
0.000256968
0.00255447
0.000250143
0.00249565
0.000209474
0.00245487
0.000139991
0.00243915
4.34606e-05
0.00245545
-7.484e-05
0.00250697
-0.000197485
0.00258787
-0.000293198
0.00268139
-0.000327737
0.00276415
-0.000282264
0.00281464
-0.000165946
0.0028212
-1.3495e-05
0.00278558
0.000130568
0.00272055
0.000231217
0.00264318
0.000274534
0.00256854
0.000265664
0.0025071
0.000217606
0.00246638
0.000140323
0.00245342
3.8485e-05
0.00247418
-8.08019e-05
0.00252918
-0.00019857
0.00260928
-0.000284707
0.00269657
-0.000310707
0.00277016
-0.000264754
0.00281331
-0.000158073
0.00281808
-1.97382e-05
0.00278621
0.000114729
0.00272731
0.000215084
0.00265508
0.000264677
0.0025834
0.000262041
0.00252404
0.000215458
0.00248655
0.000135015
0.00247866
2.96861e-05
0.00250456
-8.78655e-05
0.0025615
-0.000195967
0.00263806
-0.000267407
0.00271667
-0.000280884
0.00277916
-0.000231527
0.0028124
-0.000133081
0.0028114
-1.14416e-05
0.00277918
0.00010509
0.00272441
0.000193706
0.00265841
0.000241115
0.00259286
0.000243508
0.0025387
0.000203657
0.00250579
0.000127676
0.002502
2.4852e-05
0.00253061
-8.90534e-05
0.00258749
-0.000190452
0.00266071
-0.000253707
0.00273363
-0.000261399
0.00278999
-0.000211945
0.00281848
-0.000119878
0.00281525
-9.33864e-06
0.00278363
9.48265e-05
0.00273188
0.000173946
0.0026703
0.00021797
0.00260934
0.000223706
0.00255895
0.000191577
0.00252854
0.000124183
0.00252579
2.83311e-05
0.00255406
-8.12743e-05
0.00260973
-0.000181695
0.00268195
-0.000247952
0.0027554
-0.000262527
0.00281469
-0.000222161
0.00284842
-0.000138513
0.00285161
-3.31948e-05
0.00282606
6.98586e-05
0.00277882
0.00015141
0.00271962
0.00020085
0.00265849
0.000215527
0.0026047
0.000196772
0.00256689
0.000146363
0.00255293
6.69028e-05
0.00256829
-3.39801e-05
0.00261327
-0.000140081
0.00268143
-0.000228894
0.00276071
-0.000279431
0.00283675
-0.00028035
0.00289674
-0.000233592
0.0029323
-0.000152636
0.00294069
-5.73758e-05
0.00292461
3.18557e-05
0.00289088
9.92402e-05
0.00284831
0.000136444
0.00280569
0.000142871
0.00277031
0.000123407
0.00274753
8.52517e-05
0.00274065
3.59269e-05
0.00275052
-1.66638e-05
0.00277496
-6.35117e-05
0.00280856
-9.52367e-05
0.00284369
-0.000104789
0.00287247
-9.04646e-05
0.00288904
-5.7107e-05
0.00289096
-1.46664e-05
0.00287954
2.49891e-05
0.00285918
5.14648e-05
0.00283601
5.8081e-05
0.00281659
4.26201e-05
0.00280679
6.6712e-06
0.00281124
-4.54427e-05
0.00283298
-0.000107643
0.00287315
-0.000172585
0.00293032
-0.000230926
0.00300075
-0.000275088
0.00307617
-0.000289757
0.00315347
-0.00029308
-0.000206718
0.00250259
-1.33205e-05
0.00251024
-3.92698e-05
0.00252303
-6.50484e-05
0.00254114
-9.07348e-05
0.00256484
-0.000116145
0.00259419
-0.000140119
0.00262885
-0.000160405
0.00266722
-0.000172515
0.0027063
-0.000171412
0.00274107
-0.000152332
0.00276564
-0.000113642
0.00277878
-7.03231e-05
0.00278178
-3.20605e-05
0.0027797
-1.09275e-05
0.00277935
-1.18392e-05
0.00278545
-2.71538e-05
0.00279828
-4.14898e-05
0.00281186
-3.46933e-05
0.00281611
5.81555e-06
0.00280254
7.4645e-05
0.00276878
0.000151959
0.00271855
0.000216331
0.00265897
0.000253644
0.00259808
0.000257763
0.00254377
0.000227452
0.00250371
0.000163669
0.00248554
6.91394e-05
0.00249637
-4.91792e-05
0.00253978
-0.000173967
0.00261053
-0.000273095
0.00269172
-0.000308575
0.00275956
-0.000259087
0.00279418
-0.000137706
0.00278836
1.40615e-05
0.00274798
0.000150917
0.00268584
0.000244975
0.0026149
0.000289353
0.00254535
0.000288542
0.00248525
0.000248089
0.00244237
0.000169925
0.00242527
5.43726e-05
0.00244238
-9.23741e-05
0.00249848
-0.000248228
0.00258895
-0.000371685
0.00269529
-0.000414291
0.002788
-0.000348054
0.00283924
-0.00018859
0.00283675
9.60237e-06
0.00278784
0.00018449
0.00271144
0.000297395
0.00262688
0.000341528
0.00254757
0.000329449
0.00248108
0.000275963
0.00243298
0.000188098
0.00241083
6.56032e-05
0.00242444
-8.84453e-05
0.00247965
-0.0002527
0.00257025
-0.00038379
0.00267604
-0.000433528
0.00276987
-0.000376095
0.00282792
-0.000224002
0.00283747
-2.30453e-05
0.00279996
0.00016808
0.00272896
0.000302215
0.00264346
0.000360038
0.0025604
0.000348728
0.00249147
0.000286534
0.00244533
0.00018646
0.00243087
5.29478e-05
0.00245571
-0.000105641
0.00251989
-0.000262755
0.0026114
-0.000376217
0.00270857
-0.00040787
0.00278778
-0.000343966
0.0028315
-0.000201798
0.00283271
-2.09482e-05
0.00279493
0.000152513
0.00272931
0.000280697
0.0026505
0.000343488
0.00257286
0.000339685
0.0025088
0.000279521
0.00246918
0.000174634
0.00246328
3.55795e-05
0.0024958
-0.000120378
0.00256246
-0.000262627
0.002649
-0.000353955
0.00273509
-0.000366972
0.00280082
-0.000297261
0.00283264
-0.000164898
0.00282632
-5.12174e-06
0.00278657
0.000144843
0.00272396
0.000256309
0.00265123
0.00031385
0.00258074
0.000313995
0.00252398
0.000260419
0.00249164
0.000160019
0.00249227
2.42161e-05
0.00252877
-0.000125553
0.00259515
-0.000256833
0.00267699
-0.000335543
0.00275563
-0.000340039
0.00281378
-0.000270092
0.00284002
-0.000146126
0.00283111
-4.28348e-07
0.00279163
0.000134308
0.0027315
0.000234084
0.00266259
0.000286877
0.00259649
0.000289802
0.002544
0.000244069
0.00251517
0.000153015
0.0025179
2.56021e-05
0.00255468
-0.000118056
0.00261988
-0.0002469
0.00270032
-0.000328394
0.00277902
-0.000341223
0.00283995
-0.00028309
0.00287183
-0.000170396
0.00287018
-3.15458e-05
0.00283757
0.000102468
0.00278217
0.000206814
0.00271499
0.000268026
0.00264733
0.000283191
0.00258956
0.00025454
0.00255128
0.000184645
0.00254091
7.72706e-05
0.00256352
-5.65873e-05
0.00261773
-0.000194294
0.00269465
-0.000305811
0.00278004
-0.000364822
0.00285851
-0.00035882
0.00291738
-0.000292457
0.00294901
-0.000184269
0.00295159
-5.9958e-05
0.00292869
5.4759e-05
0.00288792
0.000140008
0.00283893
0.00018543
0.00279132
0.000190486
0.00275322
0.000161505
0.0027308
0.000107669
0.00272788
3.88533e-05
0.00274506
-3.38486e-05
0.00277883
-9.72824e-05
0.00282162
-0.000138028
0.00286361
-0.000146779
0.00289553
-0.000122377
0.00291112
-7.27059e-05
0.00290849
-1.20309e-05
0.00288993
4.35455e-05
0.00286095
8.04496e-05
0.00282868
9.03465e-05
0.00280045
7.08558e-05
0.00278273
2.43895e-05
0.00278075
-4.34619e-05
0.00279822
-0.00012512
0.00283678
-0.000211137
0.00289489
-0.000289039
0.00296799
-0.000348191
0.00304653
-0.000368296
0.00312685
-0.000373395
-0.000260825
0.00250251
-1.58292e-05
0.00250992
-4.66828e-05
0.00252242
-7.75438e-05
0.00254036
-0.000108676
0.00256426
-0.000140052
0.0025946
-0.00017045
0.00263139
-0.000197202
0.00267323
-0.000214356
0.00271688
-0.000215058
0.00275587
-0.000191321
0.00278221
-0.000139987
0.00279444
-8.25439e-05
0.00279398
-3.1602e-05
0.00278747
-4.42437e-06
0.00278415
-8.51376e-06
0.00279065
-3.36559e-05
0.00280791
-5.87469e-05
0.00282822
-5.50018e-05
0.00283799
-3.96124e-06
0.00282589
8.6751e-05
0.00278894
0.000188903
0.00273221
0.000273063
0.00266458
0.000321275
0.00259539
0.000326956
0.00253324
0.000289599
0.00248642
0.000210489
0.00246383
9.17256e-05
0.00247511
-6.0458e-05
0.00252676
-0.000225614
0.00261366
-0.000359999
0.00271407
-0.00040898
0.00279678
-0.000341795
0.00283684
-0.000177775
0.00282681
2.40987e-05
0.00277598
0.000201744
0.00270142
0.000319535
0.00261886
0.000371917
0.00253931
0.00036809
0.0024704
0.000317003
0.00241884
0.000221483
0.00239234
8.08733e-05
0.00240076
-0.000100799
0.00245367
-0.000301135
0.00255115
-0.000469167
0.00267487
-0.000538014
0.00279029
-0.000463466
0.00286117
-0.000259471
0.00286769
3.0751e-06
0.00281528
0.000236907
0.00272732
0.000385353
0.00262943
0.000439417
0.00253848
0.000420395
0.00246195
0.000352495
0.00240472
0.000245332
0.00237635
9.39744e-05
0.00239059
-0.000102687
0.00245483
-0.00031694
0.00255959
-0.000488551
0.00267925
-0.000553192
0.0027827
-0.000479537
0.00284499
-0.0002863
0.00285421
-3.22605e-05
0.0028128
0.00020949
0.00273512
0.000379893
0.00264115
0.000454011
0.00254909
0.000440787
0.00247211
0.000363508
0.00242099
0.000237584
0.00240708
6.68553e-05
0.00243896
-0.000137521
0.00251461
-0.000338402
0.00261813
-0.000479735
0.0027245
-0.000514239
0.0028083
-0.000427764
0.00285151
-0.000245017
0.00284784
-1.72713e-05
0.00280252
0.000197831
0.00272868
0.000354536
0.00264224
0.000429932
0.00255819
0.000423733
0.00248975
0.000347965
0.00244923
0.000215152
0.00244721
3.75934e-05
0.00248798
-0.000161149
0.00256486
-0.0003395
0.00266057
-0.000449667
0.00275271
-0.000459114
0.00282057
-0.000365116
0.0028505
-0.000194831
0.00283877
6.61144e-06
0.00279127
0.000192346
0.0027203
0.000327273
0.00264019
0.000393957
0.00256445
0.000389744
0.00250545
0.000319415
0.0024748
0.000190665
0.00248133
1.76928e-05
0.00252668
-0.000170904
0.00260238
-0.000332533
0.00269154
-0.000424708
0.00277416
-0.00042266
0.00283272
-0.000328648
0.00285613
-0.000169536
0.00284165
1.40505e-05
0.0027947
0.000181261
0.00272645
0.000302336
0.00265025
0.000363071
0.00257907
0.000360981
0.00252487
0.000298269
0.00249851
0.000179376
0.00250777
1.63418e-05
0.00255359
-0.000163874
0.0026278
-0.000321104
0.00271491
-0.000415512
0.00279687
-0.000423181
0.00285773
-0.000343947
0.00288683
-0.000199498
0.0028803
-2.50129e-05
0.00284123
0.000141537
0.00277848
0.000269567
0.00270403
0.000342468
0.00263038
0.000356844
0.0025692
0.000315719
0.00253126
0.00022259
0.00252547
8.30591e-05
0.00255601
-8.71246e-05
0.00261916
-0.000257447
0.00270327
-0.000389927
0.00279229
-0.00045384
0.00287047
-0.000436998
0.00292591
-0.000347895
0.00295216
-0.000210523
0.00294845
-5.62429e-05
0.00291906
8.41461e-05
0.00287218
0.000186885
0.00281802
0.000239594
0.00276685
0.000241656
0.00272772
0.000200634
0.00270774
0.000127652
0.00271114
3.5451e-05
0.00273775
-6.04625e-05
0.00278189
-0.000141414
0.00283323
-0.000189371
0.00287985
-0.000193405
0.00291171
-0.000154228
0.00292299
-8.39936e-05
0.00291291
-1.95007e-06
0.00288505
7.14119e-05
0.002846
0.000119492
0.00280377
0.000132581
0.00276626
0.00010836
0.00274058
5.0074e-05
0.00273271
-3.55889e-05
0.00274712
-0.000139534
0.00278553
-0.000249541
0.00284552
-0.00034903
0.00292098
-0.000423657
0.00300117
-0.00044848
0.0030819
-0.000454126
-0.000313479
0.00250239
-1.82178e-05
0.00250946
-5.375e-05
0.00252149
-8.95761e-05
0.00253906
-0.000126248
0.00256303
-0.000164024
0.00259437
-0.000201784
0.0026337
-0.000236531
0.00267993
-0.000260592
0.00272972
-0.000264842
0.00277446
-0.000236068
0.00280316
-0.000168682
0.00281401
-9.33919e-05
0.00280859
-2.61814e-05
0.00279577
8.39487e-06
0.00278817
-9.17547e-07
0.00279516
-4.06482e-05
0.00281863
-8.22195e-05
0.00284845
-8.48188e-05
0.002866
-2.15105e-05
0.00285589
9.68629e-05
0.00281462
0.000230175
0.00274933
0.000338348
0.00267142
0.00039919
0.0025918
0.000406574
0.00251977
0.000361631
0.00246409
0.000266166
0.00243525
0.000120569
0.00244641
-7.1617e-05
0.00250802
-0.000287232
0.00261575
-0.000467725
0.00274241
-0.000535642
0.00284621
-0.000445589
0.00289363
-0.000225194
0.00287686
4.08658e-05
0.00281112
0.000267478
0.00272001
0.000410648
0.00262292
0.000469011
0.00253146
0.000459545
0.00245174
0.000396721
0.00238786
0.00028537
0.00234671
0.000122015
0.0023431
-9.71811e-05
0.00239444
-0.000352476
0.0025032
-0.00057793
0.00264624
-0.000681055
0.00278311
-0.000600333
0.00287321
-0.000349576
0.0028918
-1.55145e-05
0.00284027
0.000288443
0.00274319
0.000482428
0.00263167
0.000550933
0.00252722
0.00052485
0.00243872
0.000440999
0.00237208
0.000311966
0.0023403
0.000125756
0.00236024
-0.000122628
0.00243764
-0.00039434
0.00255753
-0.000608442
0.00268945
-0.000685107
0.0028
-0.000590092
0.00286391
-0.000350204
0.00287013
-3.84854e-05
0.00282274
0.00025688
0.00273742
0.00046521
0.00263489
0.000556548
0.00253405
0.000541628
0.00244961
0.000447946
0.00239499
0.000292202
0.00238385
7.80002e-05
0.0024243
-0.00017797
0.00251092
-0.000425028
0.00262407
-0.000592882
0.00273677
-0.000626942
0.0028233
-0.000514289
0.00286569
-0.000287415
0.00285773
-9.30647e-06
0.00280544
0.000250119
0.00272352
0.000436458
0.00262941
0.000524044
0.00253919
0.000513951
0.00246723
0.000419925
0.00242729
0.00025509
0.00243057
3.43177e-05
0.00247989
-0.000210474
0.00256563
-0.000425241
0.00266797
-0.00055201
0.00276352
-0.000554661
0.00283177
-0.000433368
0.00285953
-0.000222583
0.00284325
2.2888e-05
0.00278928
0.000246312
0.002711
0.000405558
0.00262415
0.000480802
0.00254368
0.000470218
0.00248327
0.000379819
0.00245543
0.000218506
0.00246865
4.47254e-06
0.00252259
-0.000224844
0.00260601
-0.000415948
0.00270003
-0.000518727
0.00278415
-0.000506784
0.00284142
-0.000385915
0.0028615
-0.000189616
0.00284211
3.3444e-05
0.00278902
0.000234347
0.00271409
0.000377264
0.00263179
0.000445369
0.00255648
0.000436292
0.00250151
0.000353237
0.00247856
0.000202331
0.00249483
6.92324e-08
0.00254911
-0.000218153
0.0026305
-0.000402491
0.0027217
-0.000506711
0.00280433
-0.000505812
0.00286322
-0.000402842
0.00288873
-0.000225006
0.00287762
-1.3905e-05
0.00283328
0.000185879
0.0027648
0.000338048
0.00268472
0.000422551
0.0026065
0.000435061
0.00254318
0.000379043
0.00250675
0.00025902
0.00250638
8.34283e-05
0.00254475
-0.000125496
0.00261534
-0.00032804
0.00270391
-0.000478492
0.00279326
-0.000543197
0.00286814
-0.000511875
0.00291797
-0.000397728
0.00293772
-0.00023027
0.0029276
-4.61247e-05
0.00289249
0.000119256
0.0028409
0.000238481
0.00278334
0.000297152
0.00273068
0.000294313
0.00269291
0.000238405
0.00267805
0.000142514
0.0026903
2.31968e-05
0.00272774
-9.79029e-05
0.00278161
-0.000195275
0.00283872
-0.000246486
0.00288583
-0.000240517
0.00291328
-0.000181673
0.00291665
-8.73709e-05
0.00289671
1.79898e-05
0.00285832
0.000109808
0.00280894
0.000168871
0.00275709
0.000184435
0.00271112
0.000154324
0.00267883
8.23674e-05
0.00266705
-2.3812e-05
0.0026806
-0.000153083
0.00272023
-0.000289167
0.0027817
-0.000410501
0.00285725
-0.000499206
0.00293582
-0.000527055
0.00301325
-0.000531555
-0.000362247
0.00250222
-2.04377e-05
0.0025088
-6.03273e-05
0.00252013
-0.000100914
0.00253705
-0.000143164
0.00256081
-0.000187787
0.00259305
-0.000234022
0.00263524
-0.000278717
0.00268693
-0.000312282
0.00274489
-0.000322803
0.00279748
-0.000288658
0.00282938
-0.000200588
0.00283852
-0.000102526
0.00282634
-1.40003e-05
0.00280453
3.01977e-05
0.00279049
1.31298e-05
0.00279755
-4.77146e-05
0.00282931
-0.000113977
0.00287234
-0.000127849
0.00290086
-5.00311e-05
0.00289372
0.000103999
0.00284679
0.000277105
0.0027704
0.000414742
0.00267949
0.000490098
0.00258703
0.00049904
0.00250281
0.000445846
0.00243593
0.000333052
0.00239841
0.000158089
0.00240568
-7.88902e-05
0.0024706
-0.000352153
0.00259362
-0.000590751
0.00275051
-0.000692531
0.00288929
-0.000584363
0.00295734
-0.000293251
0.00293816
6.00457e-05
0.0028544
0.000351247
0.00274177
0.000523276
0.0026267
0.000584079
0.00252143
0.00056482
0.00242867
0.000489479
0.00234895
0.000365084
0.00229162
0.000179345
0.00228116
-8.67172e-05
0.0023414
-0.000412716
0.00246951
-0.000706042
0.00263214
-0.000843687
0.0027836
-0.00075179
0.00288392
-0.000449895
0.00290927
-4.08673e-05
0.0028588
0.000338918
0.00275525
0.000585982
0.00263173
0.000674452
0.00251354
0.000643036
0.00241258
0.000541958
0.00233806
0.000386491
0.0023067
0.000157112
0.00233574
-0.000151663
0.00242612
-0.000484728
0.00255733
-0.00073965
0.00269668
-0.000824458
0.00281121
-0.000704618
0.00287597
-0.000414964
0.00287967
-4.21866e-05
0.00282678
0.000309765
0.00273421
0.000557781
0.00262369
0.000667072
0.00251499
0.000650326
0.00242456
0.000538376
0.00236843
0.000348338
0.00236158
8.48452e-05
0.00241029
-0.000226681
0.00250529
-0.000520028
0.00262411
-0.000711699
0.00273934
-0.000742178
0.00282624
-0.000601187
0.00286755
-0.000328721
0.0028568
1.44334e-06
0.00279972
0.000307193
0.00271158
0.0005246
0.00261109
0.000624536
0.00251579
0.00060925
0.00244163
0.000494086
0.00240365
0.000293068
0.00241283
2.51433e-05
0.00246972
-0.000267367
0.00256176
-0.000517284
0.00266744
-0.000657682
0.00276341
-0.000650631
0.0028302
-0.000500159
0.00285545
-0.00024784
0.00283579
4.25497e-05
0.00277739
0.000304713
0.00269389
0.000489058
0.00260203
0.000572667
0.0025182
0.000554046
0.00245762
0.000440397
0.00243353
0.000242596
0.0024535
-1.54937e-05
0.00251467
-0.00028602
0.00260323
-0.000504505
0.0026991
-0.000614591
0.00278213
-0.00058982
0.00283652
-0.000440305
0.00285294
-0.000206035
0.00282952
5.68622e-05
0.00277206
0.000291805
0.00269254
0.000456785
0.00260609
0.000531824
0.0025283
0.000514081
0.00247393
0.000407609
0.00245524
0.000221019
0.00247837
-2.30586e-05
0.00253955
-0.000279336
0.00262542
-0.000488357
0.00271763
-0.000598931
0.00279834
-0.000586518
0.00285363
-0.000458134
0.00287503
-0.000246399
0.00285991
1.21511e-06
0.00281174
0.000234049
0.0027395
0.000410284
0.00265588
0.000506173
0.00257506
0.000515877
0.00251133
0.000442769
0.00247779
0.000292569
0.00248335
7.78677e-05
0.00252861
-0.000170764
0.00260416
-0.000403582
0.00269375
-0.000568083
0.00278003
-0.000629485
0.00284894
-0.000580782
0.00289154
-0.000440323
0.00290416
-0.000242889
0.00288789
-2.98584e-05
0.00284803
0.000159114
0.00279325
0.000293262
0.00273426
0.00035614
0.00268249
0.000346086
0.00264887
0.000272026
0.00264201
0.000149371
0.0026651
1.03976e-07
0.00271318
-0.000145981