/*--------------------------------*- C++ -*----------------------------------*\
  =========                 |
  \\      /  F ield         | OpenFOAM: The Open Source CFD Toolbox
   \\    /   O peration     | Website:  https://openfoam.org
    \\  /    A nd           | Version:  11
     \\/     M anipulation  |
\*---------------------------------------------------------------------------*/
FoamFile
{
    format      ascii;
    class       surfaceScalarField;
    location    "15.541715";
    object      phi_0;
}
// * * * * * * * * * * * * * * * * * * * * * * * * * * * * * * * * * * * * * //

dimensions      [0 3 -1 0 0 0 0];

internalField   nonuniform List<scalar> 
14638
(
0.0025027
-2.70409e-06
0.00251066
-7.95876e-06
0.00252376
-1.31001e-05
0.00254185
-1.80866e-05
0.00256468
-2.28266e-05
0.00259173
-2.70534e-05
0.00262206
-3.03314e-05
0.00265404
-3.19771e-05
0.00268531
-3.12688e-05
0.00271315
-2.78432e-05
0.00273487
-2.1719e-05
0.00274973
-1.48631e-05
0.00275854
-8.80908e-06
0.00276366
-5.11808e-06
0.00276794
-4.28344e-06
0.00277306
-5.11301e-06
0.00277844
-5.38044e-06
0.00278089
-2.45709e-06
0.00277578
5.11707e-06
0.00275929
1.64903e-05
0.00273036
2.89299e-05
0.00269106
3.92992e-05
0.00264584
4.52159e-05
0.00260048
4.53622e-05
0.00256117
3.93042e-05
0.00253391
2.72676e-05
0.00252374
1.01671e-05
0.00253383
-1.00906e-05
0.00256391
-3.00802e-05
0.00260873
-4.48151e-05
0.00265794
-4.92136e-05
0.00269874
-4.08045e-05
0.0027204
-2.16608e-05
0.00271797
2.43784e-06
0.002693
2.49675e-05
0.00265166
4.13428e-05
0.00260203
4.96298e-05
0.00255234
4.96878e-05
0.00251032
4.2023e-05
0.00248312
2.71922e-05
0.00247709
6.03856e-06
0.00249644
-1.93525e-05
0.00254093
-4.44926e-05
0.00260353
-6.26046e-05
0.00267058
-6.70444e-05
0.00272556
-5.4976e-05
0.00275508
-2.95227e-05
0.00275351
1.57167e-06
0.00272374
2.97639e-05
0.00267451
4.92361e-05
0.00261649
5.80161e-05
0.0025597
5.67924e-05
0.00251265
4.70507e-05
0.00248272
2.99315e-05
0.00247629
6.42855e-06
0.00249757
-2.12805e-05
0.00254602
-4.84507e-05
0.00261404
-6.80208e-05
0.00268719
-7.3154e-05
0.002748
-6.08029e-05
0.00278183
-3.38363e-05
0.00278189
-6.26933e-08
0.00275068
3.12186e-05
0.00269771
5.29709e-05
0.00263535
6.23529e-05
0.00257523
6.01177e-05
0.00252666
4.85757e-05
0.00249682
2.98365e-05
0.00249127
5.55482e-06
0.0025131
-2.1828e-05
0.00256087
-4.77736e-05
0.00262686
-6.59903e-05
0.00269755
-7.06949e-05
0.00275698
-5.94283e-05
0.00279154
-3.45574e-05
0.0027941
-2.55904e-06
0.00276573
2.83733e-05
0.00271454
5.11893e-05
0.00265251
6.20233e-05
0.00259195
6.05625e-05
0.00254312
4.88355e-05
0.00251361
2.95031e-05
0.00250851
5.10627e-06
0.00252976
-2.12543e-05
0.0025748
-4.50394e-05
0.00263557
-6.07707e-05
0.00269957
-6.39987e-05
0.00275295
-5.33802e-05
0.00278436
-3.141e-05
0.00278784
-3.47898e-06
0.00276387
2.39678e-05
0.0027186
4.52738e-05
0.00266179
5.68065e-05
0.00260445
5.73442e-05
0.00255679
4.76573e-05
0.00252711
2.96833e-05
0.00252103
6.07575e-06
0.00254054
-1.95135e-05
0.00258275
-4.22085e-05
0.00263952
-5.67651e-05
0.00269892
-5.94053e-05
0.00274837
-4.94463e-05
0.00277797
-2.96033e-05
0.00278282
-4.84787e-06
0.00276346
1.93618e-05
0.00272489
3.85657e-05
0.00267493
4.99616e-05
0.00262263
5.23004e-05
0.00257715
4.54848e-05
0.00254683
3.03194e-05
0.00253815
8.68064e-06
0.00255419
-1.60461e-05
0.00259316
-3.89686e-05
0.0026479
-5.47367e-05
0.00270724
-5.93481e-05
0.00275895
-5.1704e-05
0.00279295
-3.40051e-05
0.00280378
-1.08295e-05
0.00279125
1.25316e-05
0.00275957
3.1683e-05
0.00271556
4.40138e-05
0.00266696
4.8595e-05
0.00262152
4.54446e-05
0.00258664
3.48797e-05
0.00256908
1.75578e-05
0.00257389
-4.80739e-06
0.00260269
-2.88036e-05
0.00265234
-4.96525e-05
0.00271496
-6.26225e-05
0.00277972
-6.476e-05
0.00283567
-5.59465e-05
0.00287448
-3.88134e-05
0.0028922
-1.77208e-05
0.00288956
2.64296e-06
0.00287105
1.85138e-05
0.00284323
2.78175e-05
0.00281296
3.02736e-05
0.00278602
2.69322e-05
0.00276656
1.94655e-05
0.00275693
9.63357e-06
0.00275778
-8.56439e-07
0.00276805
-1.02672e-05
0.00278494
-1.68876e-05
0.00280434
-1.94019e-05
0.00282174
-1.73983e-05
0.0028334
-1.16624e-05
0.00283742
-4.02423e-06
0.00283425
3.17487e-06
0.00282649
7.75671e-06
0.00281828
8.21439e-06
0.00281433
3.94286e-06
0.00281915
-4.81529e-06
0.00283627
-1.71205e-05
0.00286779
-3.15198e-05
0.002914
-4.62136e-05
0.00297299
-5.89857e-05
0.00304116
-6.81727e-05
0.00311165
-7.049e-05
0.00318169
-7.00409e-05
-4.94085e-05
0.0025027
-5.39915e-06
0.00251063
-1.58954e-05
0.00252371
-2.6182e-05
0.00254182
-3.61946e-05
0.00256476
-4.57602e-05
0.00259205
-5.43519e-05
0.00262281
-6.10915e-05
0.0026554
-6.45597e-05
0.00268737
-6.32438e-05
0.00271583
-5.63002e-05
0.0027378
-4.36926e-05
0.00275252
-2.95784e-05
0.00276083
-1.71234e-05
0.00276535
-9.63605e-06
0.00276927
-8.19951e-06
0.0027745
-1.03458e-05
0.00278054
-1.14257e-05
0.00278396
-5.87772e-06
0.00277965
9.42728e-06
0.00276342
3.27225e-05
0.00273407
5.82779e-05
0.0026938
7.95777e-05
0.00264725
9.17609e-05
0.00260041
9.22038e-05
0.00255964
8.0069e-05
0.00253112
5.579e-05
0.00252018
2.11103e-05
0.00253034
-2.0253e-05
0.00256165
-6.13915e-05
0.00260881
-9.19737e-05
0.00266089
-0.000101293
0.00270415
-8.40661e-05
0.0027271
-4.4604e-05
0.00272455
4.98113e-06
0.0026984
5.11185e-05
0.0026553
8.44414e-05
0.00260373
0.000101197
0.00255211
0.00010131
0.00250823
8.59011e-05
0.00247942
5.60097e-05
0.00247236
1.30921e-05
0.00249189
-3.88818e-05
0.00253819
-9.07885e-05
0.00260404
-0.000128454
0.00267483
-0.000137836
0.0027328
-0.000112946
0.00276367
-6.03889e-05
0.00276164
3.60357e-06
0.0027301
6.12988e-05
0.00267851
0.000100823
0.00261812
0.000118408
0.00255915
0.000115763
0.00251013
9.6072e-05
0.00247847
6.15879e-05
0.00247084
1.40661e-05
0.00249192
-4.23656e-05
0.00254165
-9.81803e-05
0.00261247
-0.000138845
0.00268935
-0.000150029
0.00275366
-0.000125113
0.00278966
-6.98387e-05
0.00278999
-3.94503e-07
0.00275735
6.38636e-05
0.00270197
0.00010835
0.00263698
0.000127339
0.00257444
0.000122657
0.00252373
9.92884e-05
0.00249201
6.15612e-05
0.00248498
1.25818e-05
0.00250619
-4.30358e-05
0.00255461
-9.61989e-05
0.00262255
-0.00013393
0.002696
-0.000144148
0.00275822
-0.000121645
0.00279488
-7.12137e-05
0.00279842
-6.09791e-06
0.00276983
5.69607e-05
0.00271746
0.000103562
0.00265365
0.000125827
0.00259107
0.000123149
0.00254023
9.96723e-05
0.00250902
6.07143e-05
0.00250289
1.12308e-05
0.00252425
-4.26154e-05
0.00257068
-9.14619e-05
0.00263373
-0.000123828
0.00270015
-0.000130419
0.00275534
-0.000108566
0.00278757
-6.36412e-05
0.00279094
-6.85061e-06
0.00276622
4.86873e-05
0.00271985
9.16504e-05
0.00266177
0.000114882
0.00260309
0.00011603
0.00255414
9.66017e-05
0.00252352
6.03042e-05
0.00251731
1.22821e-05
0.00253789
-4.00883e-05
0.00258232
-8.66389e-05
0.00264189
-0.000116334
0.00270379
-0.000121303
0.00275464
-0.000100306
0.00278428
-5.92358e-05
0.00278797
-8.54549e-06
0.00276679
4.05486e-05
0.00272626
7.90985e-05
0.00267455
0.000101665
0.0026209
0.000105953
0.00257454
9.18435e-05
0.002544
6.0856e-05
0.00253606
1.66276e-05
0.002554
-3.39916e-05
0.00259588
-8.08507e-05
0.00265393
-0.000112788
0.00271614
-0.00012155
0.00276948
-0.000105051
0.00280357
-6.80894e-05
0.00281302
-2.02865e-05
0.00279812
2.74389e-05
0.00276364
6.61593e-05
0.00271695
9.07015e-05
0.00266618
9.93726e-05
0.00261926
9.23632e-05
0.00258378
7.03529e-05
0.00256672
3.46204e-05
0.00257329
-1.13725e-05
0.00260503
-6.05524e-05
0.00265834
-0.000102954
0.00272451
-0.000128798
0.00279191
-0.000132155
0.00284902
-0.000113063
0.00288741
-7.71985e-05
0.00290335
-3.36582e-05
0.00289803
7.95566e-06
0.00287649
4.00566e-05
0.00284576
5.85505e-05
0.00281304
6.29893e-05
0.00278439
5.55851e-05
0.0027641
3.97495e-05
0.0027547
1.90401e-05
0.00275689
-3.05147e-06
0.0027695
-2.28727e-05
0.00278936
-3.67464e-05
0.00281178
-4.18242e-05
0.00283161
-3.72291e-05
0.00284463
-2.46818e-05
0.00284873
-8.12719e-06
0.00284445
7.45831e-06
0.00283469
1.75142e-05
0.00282396
1.8945e-05
0.00281734
1.05596e-05
0.00281961
-7.08066e-06
0.0028345
-3.20129e-05
0.00286426
-6.12739e-05
0.00290927
-9.12299e-05
0.0029677
-0.000117415
0.00303596
-0.000136434
0.00310702
-0.000141545
0.00317809
-0.00014111
-9.94372e-05
0.00250268
-8.07489e-06
0.00251056
-2.37781e-05
0.00252359
-3.92148e-05
0.00254172
-5.43252e-05
0.00256485
-6.88841e-05
0.00259261
-8.21196e-05
0.00262422
-9.27029e-05
0.00265804
-9.83719e-05
0.00269148
-9.66844e-05
0.00272123
-8.60539e-05
0.00274377
-6.62301e-05
0.00275822
-4.4032e-05
0.00276555
-2.44559e-05
0.00276887
-1.295e-05
0.00277206
-1.13896e-05
0.00277756
-1.58506e-05
0.00278498
-1.88456e-05
0.00279034
-1.12386e-05
0.00278757
1.22008e-05
0.00277167
4.86233e-05
0.00274124
8.87076e-05
0.00269877
0.000122045
0.00264942
0.000141112
0.00259959
0.000142032
0.00255601
0.000123652
0.00252521
8.65956e-05
0.00251303
3.32837e-05
0.00252372
-3.09353e-05
0.00255788
-9.5552e-05
0.00261006
-0.000144157
0.00266805
-0.00015929
0.00271614
-0.000132153
0.00274124
-6.96987e-05
0.00273784
8.37707e-06
0.00270865
8.03057e-05
0.00266153
0.000131562
0.00260584
0.000156893
0.00255036
0.000156787
0.00250302
0.00013324
0.00247139
8.76385e-05
0.00246289
2.15985e-05
0.00248341
-5.94044e-05
0.00253393
-0.000141309
0.00260679
-0.000201314
0.00268538
-0.000216431
0.00274925
-0.000176811
0.0027822
-9.3343e-05
0.00277829
7.51155e-06
0.00274222
9.73706e-05
0.00268519
0.000157857
0.00261969
0.000183902
0.00255641
0.000179047
0.00250376
0.000148724
0.00246901
9.63382e-05
0.00245905
2.40235e-05
0.00247936
-6.26774e-05
0.00253086
-0.000149678
0.00260645
-0.000214439
0.00269031
-0.000233885
0.00276176
-0.000196567
0.00280265
-0.000110727
0.00280409
-1.83049e-06
0.00276889
9.90624e-05
0.00270873
0.000168508
0.00263844
0.000197629
0.00257113
0.000189968
0.00251642
0.000154002
0.00248142
9.65569e-05
0.00247222
2.17791e-05
0.00249324
-6.40483e-05
0.0025441
-0.00014706
0.00261672
-0.000206557
0.0026957
-0.000223124
0.00276263
-0.000188576
0.00280211
-0.000110688
0.00280623
-1.02243e-05
0.00277623
8.69598e-05
0.00272102
0.000158775
0.00265363
0.000193216
0.00258731
0.000189471
0.00253307
0.000153908
0.0024994
9.43916e-05
0.00249257
1.80532e-05
0.00251574
-6.57813e-05
0.00256641
-0.000142131
0.00263498
-0.000192394
0.00270635
-0.000201793
0.00276442
-0.000166633
0.00279692
-9.61412e-05
0.00279841
-8.34639e-06
0.00277064
7.64611e-05
0.00272092
0.000141366
0.00265974
0.000176067
0.00259837
0.000177394
0.0025474
0.000147577
0.00251592
9.17827e-05
0.00251079
1.74103e-05
0.00253483
-6.4129e-05
0.00258467
-0.000136472
0.00265018
-0.000181846
0.0027168
-0.000187927
0.00276982
-0.000153327
0.00279862
-8.80339e-05
0.00279902
-8.93994e-06
0.00277319
6.63752e-05
0.00272789
0.000124397
0.00267216
0.000157394
0.00261565
0.000162465
0.00256783
0.000139664
0.00253756
9.11229e-05
0.00253204
2.21527e-05
0.00255465
-5.66035e-05
0.00260278
-0.000128979
0.00266728
-0.000177289
0.00273456
-0.000188832
0.00279044
-0.000160925
0.00282403
-0.000101682
0.00283027
-2.65209e-05
0.00281027
4.74365e-05
0.00276997
0.000106454
0.00271781
0.000142863
0.00266268
0.000154504
0.00261302
0.000142027
0.00257679
0.000106578
0.00256134
5.00696e-05
0.00257203
-2.20567e-05
0.00260993
-9.84534e-05
0.00267021
-0.000163241
0.00274265
-0.000201229
0.00281423
-0.000203735
0.00287274
-0.000171576
0.0029097
-0.000114163
0.00292191
-4.58674e-05
0.00291139
1.84814e-05
0.00288408
6.7362e-05
0.0028479
9.47289e-05
0.00281074
0.000100153
0.00277912
8.7199e-05
0.00275773
6.11394e-05
0.00274935
2.74257e-05
0.00275475
-8.44759e-06
0.00277236
-4.0489e-05
0.00279816
-6.25416e-05
0.00282622
-6.98855e-05
0.0028502
-6.12138e-05
0.0028651
-3.95832e-05
0.00286861
-1.16305e-05
0.00286156
1.45078e-05
0.00284751
3.15601e-05
0.00283171
3.47434e-05
0.00281991
2.23656e-05
0.00281736
-4.52849e-06
0.00282815
-4.28034e-05
0.00285478
-8.79096e-05
0.00289789
-0.000134338
0.00295576
-0.000175289
0.00302478
-0.000205454
0.00309745
-0.000214207
0.0031709
-0.000214559
-0.000150626
0.00250264
-1.07168e-05
0.00251043
-3.15655e-05
0.00252336
-5.21498e-05
0.0025415
-7.24571e-05
0.00256487
-9.22576e-05
0.00259332
-0.000110565
0.00262621
-0.000125595
0.00266192
-0.000134083
0.00269768
-0.000132443
0.00272951
-0.000117882
0.00275294
-8.96663e-05
0.00276698
-5.80677e-05
0.00277272
-3.02026e-05
0.00277407
-1.42979e-05
0.00277604
-1.33619e-05
0.00278194
-2.1742e-05
0.00279154
-2.84542e-05
0.00280003
-1.97265e-05
0.00279974
1.2497e-05
0.00278436
6.40024e-05
0.00275218
0.000120883
0.00270624
0.000167984
0.00265251
0.000194844
0.00259808
0.000196459
0.0025502
0.000171538
0.00251589
0.000120898
0.00250179
4.73839e-05
0.00251323
-4.23669e-05
0.0025518
-0.00013413
0.00261191
-0.000204263
0.0026793
-0.000226678
0.00273501
-0.000187865
0.00276337
-9.80604e-05
0.00275838
1.33667e-05
0.00272416
0.000114526
0.00267059
0.000185135
0.00260846
0.000219025
0.00254713
0.000218118
0.00249462
0.000185749
0.00245877
0.000123483
0.00244786
3.25092e-05
0.00246916
-8.07013e-05
0.00252488
-0.000197031
0.00260747
-0.000283901
0.00269818
-0.000307141
0.00277234
-0.000250972
0.00280985
-0.00013085
0.00280368
1.36772e-05
0.00276054
0.000140513
0.00269479
0.000223609
0.00262127
0.000257418
0.00255144
0.000248882
0.00249331
0.000206848
0.00245354
0.000136111
0.00243915
3.84134e-05
0.00245705
-8.05806e-05
0.00251013
-0.000202757
0.00259206
-0.000296367
0.00268563
-0.000327455
0.00276734
-0.000278276
0.00281597
-0.000159355
0.00282043
-6.29105e-06
0.00278309
0.0001364
0.00271709
0.000234513
0.00263954
0.000275176
0.00256531
0.000264197
0.00250468
0.000214635
0.00246507
0.000136165
0.00245353
3.33229e-05
0.0024759
-8.6421e-05
0.00253231
-0.000203474
0.0026132
-0.000287443
0.00270034
-0.000310265
0.00277288
-0.000261114
0.0028144
-0.000152212
0.00281739
-1.32127e-05
0.00278402
0.000120327
0.00272417
0.000218623
0.00265165
0.000265742
0.00258027
0.000260845
0.0025217
0.000212479
0.0024854
0.000130691
0.00247899
2.4462e-05
0.00250643
-9.32215e-05
0.00256459
-0.000200282
0.00264168
-0.000269486
0.00271996
-0.000280077
0.00278137
-0.000228046
0.00281312
-0.000127884
0.00281059
-5.81603e-06
0.00277711
0.000109938
0.00272154
0.000196932
0.00265529
0.000242323
0.00259
0.00024268
0.00253658
0.000201002
0.00250483
0.000123528
0.00250249
1.97561e-05
0.00253254
-9.41832e-05
0.00259049
-0.000194425
0.00266411
-0.000255464
0.00273665
-0.000260468
0.00279196
-0.000208638
0.00281905
-0.000115125
0.00281442
-4.30423e-06
0.00278167
9.9124e-05
0.00272922
0.000176852
0.00266741
0.000219196
0.00260669
0.000223191
0.00255699
0.000189366
0.00252766
0.000120448
0.00252628
2.35315e-05
0.00255594
-8.6261e-05
0.00261267
-0.000185708
0.00268533
-0.000249949
0.00275849
-0.000261994
0.00281686
-0.000219294
0.00284928
-0.000134106
0.00285109
-2.83263e-05
0.00282435
7.41703e-05
0.00277633
0.000154478
0.0027168
0.00020239
0.00265577
0.000215534
0.00260248
0.000195315
0.00256556
0.000143501
0.00255282
6.28093e-05
0.00256955
-3.87855e-05
0.00261578
-0.000144681
0.00268476
-0.000232228
0.00276424
-0.000280704
0.00283983
-0.000279325
0.00289888
-0.000230628
0.00293324
-0.000148516
0.00294041
-5.3044e-05
0.00292334
3.55494e-05
0.00288898
0.000101727
0.00284619
0.000137516
0.00280371
0.000142631
0.00276878
0.000122134
0.00274666
8.32613e-05
0.00274054
3.3539e-05
0.00275118
-1.90875e-05
0.00277624
-6.55458e-05
0.00281017
-9.64707e-05
0.00284526
-0.000104976
0.00287368
-8.96371e-05
0.00288968
-5.5581e-05
0.00289098
-1.29334e-05
0.00287907
2.64182e-05
0.00285844
5.21937e-05
0.00283528
5.78981e-05
0.00281615
4.15031e-05
0.00280688
4.74309e-06
0.00281203
-4.79533e-05
0.00283456
-0.000110444
0.00287551
-0.000175292
0.00293336
-0.000233131
0.00300419
-0.000276292
0.00307965
-0.000289666
0.00315656
-0.000291465
-0.000203239
0.00250259
-1.33045e-05
0.00251022
-3.91989e-05
0.00252298
-6.49084e-05
0.00254105
-9.05285e-05
0.00256469
-0.000115894
0.00259398
-0.000139862
0.00262859
-0.000160198
0.00266693
-0.000172426
0.00270601
-0.000171524
0.00274085
-0.00015272
0.00276556
-0.000114379
0.00277894
-7.14452e-05
0.00278227
-3.35376e-05
0.00278063
-1.26515e-05
0.00278072
-1.34528e-05
0.00278713
-2.81546e-05
0.00279999
-4.1309e-05
0.00281316
-3.28977e-05
0.00281658
9.07884e-06
0.002802
7.85755e-05
0.00276734
0.000155543
0.00271651
0.000218819
0.00265668
0.000254672
0.00259591
0.00025723
0.00254206
0.000225382
0.00250281
0.000160155
0.00248578
6.44078e-05
0.002498
-5.45809e-05
0.00254274
-0.000178871
0.00261427
-0.000275799
0.00269525
-0.000307657
0.00276184
-0.000254448
0.00279461
-0.000130839
0.00278701
2.09659e-05
0.00274539
0.000156154
0.00268263
0.000247891
0.0026116
0.000290058
0.00254236
0.00028736
0.0024829
0.000245206
0.00244103
0.000165352
0.00242535
4.81868e-05
0.00244423
-9.95768e-05
0.00250213
-0.000254932
0.00259386
-0.000375634
0.00270024
-0.000413515
0.00279151
-0.000342248
0.0028403
-0.000179642
0.00283533
1.86526e-05
0.00278468
0.000191165
0.00270752
0.000300762
0.002623
0.000341944
0.00254417
0.000327705
0.00247842
0.000272601
0.00243132
0.00018321
0.0024106
5.91379e-05
0.00242603
-9.60103e-05
0.00248309
-0.00025982
0.0025749
-0.000388179
0.00268077
-0.000433323
0.00277346
-0.000370962
0.00282949
-0.00021539
0.00283675
-1.35453e-05
0.00279731
0.00017584
0.00272519
0.000306631
0.00263944
0.000360921
0.0025568
0.000346837
0.00248873
0.000282704
0.00244383
0.000181064
0.00243101
4.61474e-05
0.00245771
-0.000113117
0.00252349
-0.000269254
0.00261579
-0.000379745
0.00271266
-0.000407138
0.00279061
-0.000339058
0.00283249
-0.000194098
0.00283179
-1.25107e-05
0.00279244
0.000159672
0.00272588
0.000285188
0.00264679
0.000344829
0.00256949
0.00033815
0.00250629
0.000275677
0.00246801
0.000168975
0.0024638
2.86685e-05
0.00249804
-0.000127459
0.00256599
-0.000268239
0.00265301
-0.000356507
0.00273862
-0.000365678
0.00280307
-0.000292501
0.00283319
-0.000158004
0.00282519
2.18019e-06
0.00278413
0.000151
0.00272077
0.000260298
0.00264785
0.000315245
0.00257771
0.000312816
0.00252181
0.000256906
0.00249078
0.00015455
0.00249304
1.75024e-05
0.00253111
-0.000132251
0.00259858
-0.000261898
0.00268072
-0.000337607
0.00275882
-0.000338562
0.00281574
-0.00026556
0.00284041
-0.000139801
0.00282996
6.14499e-06
0.00278929
0.000139799
0.00272847
0.000237673
0.00265941
0.00028825
0.00259367
0.000288929
0.00254202
0.000241023
0.00251445
0.000148013
0.00251872
1.92653e-05
0.00255698
-0.000124527
0.00262324
-0.00025196
0.00270401
-0.000330725
0.00278227
-0.000340247
0.00284211
-0.000279137
0.00287253
-0.000164531
0.00286938
-2.51724e-05
0.00283552
0.000108035
0.00277931
0.000210689
0.00271184
0.00026986
0.00264437
0.000283004
0.00258724
0.000252439
0.00255003
0.000180717
0.00254106
7.17767e-05
0.00256518
-6.29043e-05
0.00262067
-0.000200176
0.00269833
-0.000309885
0.00278376
-0.000366138
0.00286162
-0.000357181
0.0029194
-0.000288405
0.00294972
-0.000178838
0.00295103
-5.43507e-05
0.0029271
5.94738e-05
0.00288571
0.000143118
0.00283655
0.000186681
0.00278916
0.000190017
0.00275163
0.000159667
0.00273002
0.000104868
0.00272803
3.55238e-05
0.00274613
-3.71786e-05
0.00278057
-9.99869e-05
0.00282363
-0.000139533
0.00286544
-0.000146787
0.0028968
-0.000120997
0.00291164
-7.04235e-05
0.00290825
-9.53596e-06
0.00288909
4.55694e-05
0.00285979
8.14934e-05
0.00282754
9.01553e-05
0.00279962
6.94218e-05
0.00278248
2.18808e-05
0.00278129
-4.6758e-05
0.00279968
-0.000128837
0.00283916
-0.000214771
0.00289806
-0.000292034
0.00297163
-0.000349866
0.00305025
-0.000368278
0.00313014
-0.000371359
-0.000256449
0.00250251
-1.58097e-05
0.0025099
-4.65964e-05
0.00252237
-7.73722e-05
0.00254026
-0.000108421
0.0025641
-0.000139739
0.00259437
-0.000170125
0.0026311
-0.000196932
0.0026729
-0.000214224
0.00271654
-0.000215165
0.00275558
-0.000191762
0.00278207
-0.000140862
0.00279453
-8.39108e-05
0.00279444
-3.34479e-05
0.00278845
-6.65749e-06
0.00278567
-1.06761e-05
0.00279261
-3.5092e-05
0.00280996
-5.8664e-05
0.00282981
-5.27452e-05
0.00283859
3.01264e-07
0.00282525
9.19089e-05
0.00278724
0.00019356
0.00272981
0.000276246
0.00266191
0.000322569
0.00259285
0.00032629
0.00253121
0.000287025
0.00248527
0.000206092
0.00246399
8.56938e-05
0.00247694
-6.75357e-05
0.0025303
-0.000232224
0.00261823
-0.000363734
0.00271835
-0.00040778
0.00279944
-0.000335538
0.00283721
-0.000168606
0.00282504
3.31349e-05
0.00277281
0.000208386
0.00269765
0.000323055
0.00261507
0.00037263
0.0025359
0.000366531
0.00246766
0.000313444
0.00241711
0.000215909
0.00239203
7.3268e-05
0.00240236
-0.000109915
0.00245746
-0.000310027
0.0025567
-0.000474879
0.00268087
-0.000537686
0.00279494
-0.000456317
0.00286305
-0.000247747
0.00286647
1.52348e-05
0.00281175
0.000245876
0.0027228
0.000389714
0.00262497
0.000439778
0.0025346
0.00041807
0.00245886
0.000348348
0.00240268
0.000239384
0.00237593
8.58931e-05
0.00239234
-0.000112426
0.00245875
-0.000326221
0.00256483
-0.000494263
0.00268446
-0.000552951
0.00278654
-0.000473043
0.00284661
-0.000275467
0.00285338
-2.0313e-05
0.00280992
0.000219302
0.00273102
0.000385533
0.00263674
0.000455197
0.0025451
0.000438476
0.00246906
0.000358745
0.00241936
0.000230762
0.00240738
5.81332e-05
0.00244138
-0.000147117
0.00251874
-0.000346613
0.00262299
-0.000484002
0.0027289
-0.000513046
0.00281121
-0.000421367
0.00285237
-0.000235258
0.00284662
-6.76054e-06
0.00279967
0.000206618
0.00272489
0.000359971
0.00263822
0.000431502
0.00255457
0.000421794
0.00248711
0.000343142
0.00244811
0.000207971
0.00244801
2.87762e-05
0.00249065
-0.000170106
0.00256884
-0.000346428
0.00266493
-0.000452593
0.00275642
-0.000457173
0.00282282
-0.000358896
0.00285088
-0.000186069
0.00283734
1.5728e-05
0.00278846
0.00019988
0.00271674
0.00033201
0.00263652
0.000395464
0.00256124
0.000388097
0.00250326
0.000314886
0.00247413
0.000183687
0.00248244
9.1899e-06
0.00252944
-0.00017925
0.00260619
-0.000338649
0.00269553
-0.000426949
0.00277744
-0.000420477
0.00283462
-0.000322737
0.00285633
-0.000161505
0.0028402
2.22701e-05
0.00279199
0.000188006
0.00272306
0.000306605
0.00264679
0.000364519
0.0025761
0.000359622
0.00252291
0.000294212
0.00249801
0.000172911
0.00250897
8.30932e-06
0.00255633
-0.000171887
0.00263152
-0.000327148
0.00271883
-0.000418036
0.00280018
-0.000421601
0.00285981
-0.000338771
0.00288735
-0.00019207
0.00287923
-1.70519e-05
0.00283885
0.000148415
0.00277527
0.000274269
0.00270057
0.000344566
0.0026272
0.000356374
0.00256681
0.000312826
0.00253012
0.000217407
0.00252592
7.59801e-05
0.00255807
-9.5059e-05
0.00262248
-0.000264591
0.00270721
-0.000394608
0.00279609
-0.000455019
0.00287349
-0.000434582
0.00292773
-0.000342642
0.00295261
-0.000203722
0.0029476
-4.93384e-05
0.00291719
8.98772e-05
0.00286972
0.000190591
0.00281543
0.000240971
0.00276458
0.000240867
0.00272615
0.000198096
0.00270716
0.000123866
0.00271167
3.10058e-05
0.0027393
-6.48037e-05
0.00278408
-0.000144771
0.00283556
-0.000191009
0.00288179
-0.000193022
0.00291288
-0.000152078
0.00292323
-8.07775e-05
0.00291227
1.42531e-06
0.00288375
7.40912e-05
0.00284438
0.000120864
0.00280217
0.00013236
0.00276503
0.00010656
0.00274001
4.69023e-05
0.00273305
-3.97933e-05
0.00274853
-0.000144316
0.00278799
-0.000254235
0.00284885
-0.000352892
0.0029248
-0.000425816
0.00300503
-0.000448514
0.00308532
-0.000451642
-0.000308217
0.00250239
-1.81948e-05
0.00250944
-5.36474e-05
0.00252144
-8.93713e-05
0.00253896
-0.000125942
0.00256286
-0.000163645
0.00259412
-0.000201383
0.00263337
-0.000236187
0.00267955
-0.000260401
0.00272931
-0.000264925
0.0027741
-0.000236545
0.00280292
-0.000169684
0.00281401
-9.50072e-05
0.002809
-2.84296e-05
0.00279678
5.5543e-06
0.00278988
-3.77326e-06
0.00279747
-4.26856e-05
0.00282115
-8.23421e-05
0.00285045
-8.20434e-05
0.00286676
-1.60091e-05
0.00285513
0.000103542
0.00281256
0.000236124
0.00274648
0.000342328
0.00266828
0.000400769
0.00258882
0.000405754
0.00251733
0.000358515
0.00246261
0.000260807
0.00243526
0.000113042
0.00244849
-8.07618e-05
0.00251235
-0.00029609
0.00262156
-0.000472939
0.00274793
-0.000534153
0.00284955
-0.000437153
0.00289391
-0.000212967
0.00287448
5.25642e-05
0.00280716
0.000275703
0.00271551
0.000414708
0.00261855
0.000469594
0.00252757
0.000457511
0.00244852
0.000392492
0.00238553
0.000278901
0.00234577
0.00011303
0.00234432
-0.00010847
0.00239836
-0.000364066
0.00250933
-0.000585846
0.00265304
-0.000681402
0.00278865
-0.000591921
0.00287587
-0.000334973
0.00289096
1.43655e-07
0.00283659
0.000300247
0.00273814
0.000488164
0.00262658
0.000551339
0.00252276
0.000521894
0.00243511
0.000435991
0.0023697
0.000304795
0.00233988
0.00011572
0.00236239
-0.000134936
0.00244217
-0.000406005
0.00256336
-0.000615454
0.00269506
-0.000684652
0.00280402
-0.000582
0.00286548
-0.000336923
0.00286909
-2.393e-05
0.00281957
0.000268831
0.00273297
0.000472123
0.0026301
0.000558071
0.00252969
0.000538892
0.00244628
0.000442147
0.00239332
0.000283721
0.00238439
6.70633e-05
0.00242716
-0.000189886
0.00251552
-0.000434972
0.0026293
-0.000597776
0.00274139
-0.000625135
0.00282627
-0.000506249
0.00286645
-0.000275438
0.00285626
3.4253e-06
0.00280226
0.000260624
0.00271938
0.000442848
0.00262508
0.0005258
0.00253535
0.000511521
0.00246452
0.000413976
0.00242631
0.000246181
0.00243168
2.34016e-05
0.00248297
-0.000221392
0.00256997
-0.000433432
0.00267256
-0.000555177
0.00276732
-0.000551932
0.00283399
-0.000425569
0.00285976
-0.000211843
0.00284157
3.39195e-05
0.00278616
0.00025529
0.00270712
0.000411052
0.00262022
0.000482363
0.00254033
0.000467983
0.00248112
0.0003741
0.00245498
0.000209825
0.00247013
-5.95822e-06
0.00252574
-0.000234858
0.00261011
-0.000423018
0.00270415
-0.000520994
0.00278743
-0.000503752
0.00284321
-0.000378519
0.00286151
-0.000179801
0.0028404
4.33727e-05
0.00278602
0.000242389
0.00271041
0.000382214
0.00262809
0.000446837
0.00255339
0.000434324
0.00249961
0.000347991
0.00247831
0.000194216
0.0024964
-9.78082e-06
0.00255222
-0.000227706
0.00263448
-0.000409407
0.00272571
-0.000509268
0.0028076
-0.000503487
0.00286517
-0.00039635
0.00288906
-0.00021596
0.00287633
-4.32159e-06
0.00283065
0.000194095
0.00276134
0.000343587
0.00268101
0.000424889
0.00260316
0.00043423
0.00254077
0.000375215
0.00250578
0.000252398
0.00250715
7.46085e-05
0.00254718
-0.000135095
0.00261895
-0.000336359
0.00270795
-0.000483606
0.00279699
-0.000544054
0.00287095
-0.000508545
0.00291951
-0.000391207
0.00293788
-0.000222087
0.00292649
-3.79455e-05
0.0028904
0.000125964
0.00283826
0.000242732
0.00278064
0.000298585
0.00272841
0.000293101
0.00269149
0.000235014
0.0026778
0.00013756
0.00269131
1.74912e-05
0.00272979
-0.000103281
0.00278418
-0.000199159
0.00284119
-0.000248025
0.00288766
-0.000239493
0.00291414
-0.000178549
0.00291645
-8.30915e-05
0.00289557
2.23054e-05
0.00285651
0.00011315
0.00280683
0.000170545
0.00275505
0.000184137
0.00270953
0.000152082
0.00267801
7.84187e-05
0.00266729
-2.9074e-05
0.00268205
-0.000159069
0.00272281
-0.000294992
0.00278513
-0.000415217
0.00286111
-0.000501794
0.00293969
-0.000527098
0.00301668
-0.000528626
-0.000356148
0.00250222
-2.04111e-05
0.00250878
-6.02079e-05
0.00252008
-0.000100674
0.00253694
-0.000142803
0.00256063
-0.000187334
0.00259278
-0.000233535
0.00263488
-0.000278284
0.00268649
-0.000312015
0.00274441
-0.000322841
0.00279701
-0.000289148
0.00282902
-0.000201696
0.0028384
-0.000104382
0.00282666
-1.66891e-05
0.00280557
2.66452e-05
0.00279241
9.37894e-06
0.00280032
-5.05881e-05
0.00283245
-0.000114471
0.00287489
-0.000124489
0.00290186
-4.29746e-05
0.0028928
0.000112602
0.00284428
0.000284638
0.00276697
0.000419643
0.00267577
0.00049197
0.00258349
0.000498035
0.00249985
0.000442151
0.002434
0.000326656
0.00239817
0.000148878
0.00240787
-9.04651e-05
0.00247567
-0.000363888
0.00260107
-0.000598344
0.0027583
-0.00069138
0.00289449
-0.000573344
0.00295822
-0.000276701
0.00293523
7.55569e-05
0.00284942
0.000361515
0.00273633
0.000527794
0.00262163
0.000584294
0.00251697
0.000562173
0.00242482
0.000484641
0.00234586
0.000357867
0.00229003
0.000168858
0.00228228
-0.000100722
0.00234579
-0.00042758
0.00247631
-0.00071636
0.00263948
-0.000844578
0.00278952
-0.000741956
0.00288692
-0.00043237
0.00290867
-2.16104e-05
0.00285508
0.000353842
0.00274981
0.000593432
0.00262605
0.000675096
0.00250847
0.000639473
0.00240848
0.000535982
0.00233546
0.000377816
0.00230647
0.000144713
0.00233838
-0.000166848
0.0024312
-0.000498824
0.00256358
-0.000747833
0.00270256
-0.000823638
0.00281537
-0.000694804
0.00287754
-0.000399093
0.00287847
-2.48685e-05
0.00282334
0.000323966
0.00272944
0.000566021
0.00261856
0.000668952
0.00251031
0.00064714
0.00242105
0.000531413
0.00236681
0.000337955
0.00236242
7.14517e-05
0.00241355
-0.000241013
0.00251022
-0.000531637
0.00262952
-0.000717081
0.00274403
-0.000739643
0.00282922
-0.000591437
0.00286824
-0.000314466
0.00285518
1.64841e-05
0.0027963
0.000319505
0.00270716
0.000531988
0.00260651
0.000626457
0.00251179
0.000606239
0.00243891
0.000486851
0.00240286
0.000282237
0.00241427
1.19927e-05
0.00247312
-0.00028025
0.00256632
-0.000526631
0.0026721
-0.00066095
0.00276717
-0.000647008
0.00283233
-0.000490726
0.00285557
-0.000235089
0.00283396
5.55389e-05
0.00277406
0.000315183
0.00268979
0.00049533
0.0025979
0.000574244
0.00251477
0.000551114
0.00245555
0.000433319
0.00243334
0.000232043
0.00245531
-2.79348e-05
0.00251811
-0.000297656
0.00260749
-0.000512393
0.00270323
-0.000616734
0.00278531
-0.000585833
0.00283816
-0.000431373
0.00285278
-0.000194418
0.00282764
6.85127e-05
0.00276887
0.000301159
0.00268867
0.000462417
0.00260224
0.000533267
0.00252517
0.000511393
0.00247215
0.000401011
0.00245526
0.000211099
0.00248027
-3.47888e-05
0.00254293
-0.000290363
0.00262952
-0.000495997
0.00272162
-0.000601367
0.00280147
-0.000583342
0.0028554
-0.000450279
0.00287517
-0.000235733
0.00285844
1.24095e-05
0.00280894
0.000243596
0.00273587
0.000416656
0.00265203
0.000508729
0.00257165
0.000514615
0.00250899
0.000437877
0.00247703
0.000284352
0.00248443
6.72062e-05
0.00253134
-0.000182003
0.00260791
-0.000412928
0.00269774
-0.000573436
0.00278354
-0.000629859
0.00285145
-0.00057645
0.00289276
-0.000432516
0.00290403
-0.000233356
0.00288654
-2.04633e-05
0.00284578
0.00016673
0.00279052
0.000297986
0.00273156
0.000357545
0.00268034
0.000344329
0.00264773
0.000267618
0.00264221