/*--------------------------------*- C++ -*----------------------------------*\
  =========                 |
  \\      /  F ield         | OpenFOAM: The Open Source CFD Toolbox
   \\    /   O peration     | Website:  https://openfoam.org
    \\  /    A nd           | Version:  11
     \\/     M anipulation  |
\*---------------------------------------------------------------------------*/
FoamFile
{
    format      ascii;
    class       volScalarField;
    location    "11.967101";
    object      p;
}
// * * * * * * * * * * * * * * * * * * * * * * * * * * * * * * * * * * * * * //

dimensions      [0 2 -2 0 0 0 0];

internalField   nonuniform List<scalar> 
7132
(
0.0820949
0.0810077
0.0773343
0.0719657
0.0644386
0.0545361
0.0422415
0.0276248
0.0112566
-0.00589277
-0.0224686
-0.0366962
-0.0477133
-0.0548232
-0.0577191
-0.0564612
-0.051367
-0.0432835
-0.0334062
-0.0228769
-0.012594
-0.00321497
0.00478491
0.0109794
0.0150484
0.0170197
0.0175399
0.0177136
0.0184531
0.0200188
0.0221264
0.0243631
0.0264587
0.0283729
0.0302037
0.0320257
0.033682
0.0346068
0.034033
0.0316835
0.0283665
0.0256279
0.0245773
0.0252249
0.0267511
0.0283005
0.0294236
0.0301109
0.0306301
0.0313041
0.0322253
0.0329209
0.0323742
0.0297614
0.0254696
0.0212943
0.0191985
0.0198448
0.0223211
0.0251078
0.027142
0.0281287
0.0283346
0.0282762
0.0284599
0.0290378
0.0294847
0.0286897
0.0257737
0.0211007
0.0164713
0.0140348
0.0147885
0.0179757
0.0217799
0.024626
0.025891
0.0257984
0.0249885
0.0241498
0.0235949
0.0228861
0.0209124
0.0167269
0.0105937
0.00420966
-0.00023785
-0.00141329
0.000505664
0.00411931
0.00768505
0.00991021
0.0102704
0.00886076
0.00593436
0.00143455
-0.00511271
-0.0141918
-0.0255336
-0.0375968
-0.0478114
-0.0535757
-0.0534627
-0.0478328
-0.0385997
-0.0282261
-0.0187101
-0.0111258
-0.0057379
-0.00234762
-0.000586073
-8.44241e-05
-0.00056248
-0.00186342
-0.00390623
-0.00655032
-0.00943368
-0.0119259
-0.0132871
-0.0130091
-0.011112
-0.00819557
-0.00512869
-0.00261241
-0.000931049
-2.22296e-06
0.000417028
0.000554971
0.000554099
0.000478005
0.000345167
0.000159823
-7.06538e-05
-0.000329534
-0.000591471
-0.000827525
-0.00101226
-0.00113013
-0.00117848
-0.00116635
-0.00110946
-0.00102478
-0.000926481
-0.000824587
-0.00072496
-0.000631401
-0.000545254
-0.000469119
-0.000401297
-0.000346464
-0.000295337
-0.000262713
-0.000216565
-0.000211004
-0.000139873
-0.000194029
-1.88008e-05
-0.000260166
0.00025403
-0.000596306
0.082529
0.0814514
0.0778124
0.0724777
0.064974
0.0550579
0.0426901
0.0279059
0.0112814
-0.00620217
-0.023112
-0.0375511
-0.0486979
-0.0558634
-0.0587573
-0.0574385
-0.052189
-0.043868
-0.0337209
-0.0229336
-0.0124311
-0.00288729
0.0052169
0.0114453
0.0154608
0.0172871
0.0176071
0.0176029
0.0182442
0.0197934
0.0219317
0.0242165
0.0263636
0.0283284
0.0302081
0.0320751
0.0337708
0.0347096
0.034088
0.03161
0.0281189
0.0252452
0.0241535
0.0248499
0.026462
0.0280936
0.0292815
0.0300167
0.0305693
0.0312627
0.0321927
0.0328766
0.0322746
0.0295413
0.0250769
0.0207397
0.0185709
0.0192597
0.0218588
0.0247816
0.0269245
0.0279846
0.0282345
0.0281963
0.0283817
0.0289438
0.0293449
0.0284533
0.0253871
0.0205449
0.0157835
0.0132973
0.0140946
0.0174051
0.0213695
0.0243677
0.0257467
0.0257213
0.0249408
0.0241082
0.0235383
0.0227667
0.0206532
0.0162583
0.00990571
0.00337543
-0.00108512
-0.00213675
-1.6905e-06
0.00386172
0.00766327
0.0100848
0.0105826
0.00923374
0.00627947
0.0016502
-0.00513472
-0.0145472
-0.0262706
-0.0386875
-0.0491495
-0.0550001
-0.0547962
-0.0489192
-0.0393458
-0.0286197
-0.018807
-0.0110166
-0.00551349
-0.00207668
-0.000312347
0.000161934
-0.00037185
-0.00175938
-0.00391436
-0.00668185
-0.00968102
-0.0122653
-0.0136833
-0.0134198
-0.011492
-0.00850721
-0.00535261
-0.00275115
-0.00100271
-2.95277e-05
0.000414924
0.000565247
0.000569113
0.000493193
0.00035763
0.000167676
-6.84111e-05
-0.000333181
-0.000600649
-0.000841261
-0.00102903
-0.00114808
-0.00119577
-0.00118154
-0.00112169
-0.00103376
-0.000932337
-0.000827714
-0.000725877
-0.000630664
-0.000543424
-0.000466696
-0.000398742
-0.000344068
-0.000293395
-0.000261204
-0.000215734
-0.000210419
-0.000140032
-0.000193901
-1.93543e-05
-0.000260161
0.000254976
-0.000599184
0.083393
0.0823359
0.0787675
0.073505
0.0660533
0.0561161
0.0436071
0.028487
0.0113424
-0.00682825
-0.0244234
-0.0392825
-0.0506799
-0.0579408
-0.0608152
-0.059368
-0.0538067
-0.0450133
-0.0343322
-0.0230344
-0.0120962
-0.00222266
0.00609248
0.0123911
0.0162981
0.0178246
0.0177276
0.0173538
0.0177951
0.0193158
0.0215211
0.0239052
0.0261553
0.0282196
0.0301954
0.0321531
0.0339308
0.0349012
0.0341825
0.0314365
0.0275812
0.0244268
0.0232545
0.0240603
0.025856
0.0276578
0.0289756
0.0298034
0.0304188
0.0311495
0.0320961
0.0327546
0.0320337
0.0290445
0.0242178
0.0195439
0.0172276
0.0180159
0.0208811
0.0240938
0.026463
0.0276707
0.0280031
0.0279977
0.0281815
0.0287132
0.0290265
0.0279441
0.0245785
0.0193985
0.0143734
0.0117883
0.012672
0.0162306
0.0205181
0.0238222
0.0254274
0.0255307
0.0248017
0.0239776
0.0233764
0.0224754
0.0200742
0.0152534
0.00846053
0.00164285
-0.00283287
-0.00362108
-0.00103424
0.00334027
0.00761673
0.0104273
0.0111943
0.00996412
0.00695203
0.00205529
-0.00522792
-0.0153436
-0.0278719
-0.0410338
-0.052017
-0.0580442
-0.0576372
-0.051231
-0.0409385
-0.0294732
-0.0190433
-0.0108276
-0.00508736
-0.00155395
0.000218074
0.000639301
-4.61925e-06
-0.00156332
-0.00394018
-0.00695229
-0.0101818
-0.0129496
-0.0144798
-0.0142437
-0.0122546
-0.00913353
-0.00580373
-0.00303212
-0.00114972
-8.77989e-05
0.000407532
0.000583487
0.000597812
0.000523092
0.000382593
0.000183681
-6.35723e-05
-0.000340211
-0.000618933
-0.000868911
-0.00106299
-0.00118461
-0.00123108
-0.00121266
-0.00114684
-0.00105232
-0.000944555
-0.000834364
-0.000727992
-0.000629358
-0.000539829
-0.000461835
-0.000393558
-0.000339176
-0.000289396
-0.000258089
-0.000213969
-0.000209209
-0.000140269
-0.000193703
-2.03596e-05
-0.000260351
0.000257324
-0.000605192
0.0846789
0.0836545
0.0801988
0.0750547
0.0676943
0.0577401
0.0450308
0.029404
0.0114584
-0.00779638
-0.0264703
-0.0419673
-0.0537467
-0.0611661
-0.0640434
-0.062432
-0.0563923
-0.0468456
-0.0353129
-0.0232113
-0.0115956
-0.00121411
0.00742761
0.0138386
0.0175763
0.0186234
0.0178546
0.0168912
0.0170297
0.0185275
0.0208549
0.0234006
0.0258087
0.0280209
0.0301389
0.0322302
0.0341304
0.0351458
0.0342656
0.0310812
0.0266333
0.0230304
0.0217532
0.0227661
0.0248774
0.0269561
0.0284741
0.0294371
0.0301392
0.0309159
0.031874
0.0324796
0.0315615
0.0281573
0.0227471
0.0175344
0.0149898
0.0159593
0.0192791
0.0229763
0.0257123
0.027146
0.0275914
0.0276179
0.0277835
0.0282632
0.0284429
0.0270712
0.0232526
0.0175643
0.0121496
0.00942751
0.0104571
0.0144002
0.019179
0.0229442
0.0248855
0.0251751
0.0245201
0.0237153
0.0230709
0.0219592
0.0190814
0.0135622
0.00606243
-0.00119902
-0.00567141
-0.00600872
-0.00267943
0.00251007
0.00752185
0.0109165
0.0120801
0.0110255
0.00792399
0.00260164
-0.00548937
-0.0167478
-0.0305759
-0.0449287
-0.0567341
-0.0630258
-0.0622731
-0.0550016
-0.0435459
-0.0308962
-0.019488
-0.0106055
-0.00449601
-0.000811371
0.000975077
0.00131786
0.000509639
-0.00130257
-0.00400531
-0.0073745
-0.0109393
-0.0139743
-0.0156695
-0.0154753
-0.0133961
-0.010073
-0.00648237
-0.00345685
-0.00137417
-0.000179038
0.000393457
0.000609065
0.000640085
0.000567627
0.000419558
0.000206695
-5.79606e-05
-0.000353063
-0.000649246
-0.000913671
-0.00111732
-0.00124252
-0.00128657
-0.00126112
-0.00118559
-0.00108053
-0.00096277
-0.000843905
-0.000730545
-0.000626708
-0.000533767
-0.000453968
-0.00038535
-0.00033157
-0.000283295
-0.000253442
-0.000211477
-0.000207574
-0.000140958
-0.000193534
-2.24511e-05
-0.00026029
0.000259692
-0.000612532
0.0863735
0.0853965
0.0821031
0.0771358
0.0699231
0.0599759
0.047024
0.0307189
0.0116679
-0.0091358
-0.029341
-0.0456793
-0.0579364
-0.0655177
-0.0683665
-0.0665396
-0.0598595
-0.0492923
-0.0366083
-0.0234248
-0.0108992
0.000166506
0.00925367
0.0158222
0.0193177
0.0196646
0.0179076
0.0160885
0.0158184
0.017326
0.019861
0.0226493
0.025277
0.0276839
0.0299842
0.032248
0.0343102
0.0353766
0.0342457
0.0303982
0.0250592
0.0208036
0.0194271
0.0208087
0.0234258
0.0259214
0.0277207
0.0288568
0.0296515
0.0304502
0.031382
0.0318925
0.0307137
0.0267786
0.0205971
0.0146241
0.011712
0.0129063
0.0168914
0.0213143
0.0245932
0.026341
0.0269164
0.0269536
0.0270789
0.0274948
0.0275013
0.0257198
0.0212418
0.0148236
0.00888421
0.00603208
0.00733418
0.0118372
0.0172895
0.0216716
0.0240548
0.0245864
0.0240351
0.0232765
0.0225795
0.0211467
0.0175491
0.0110079
0.00250845
-0.00535533
-0.00979226
-0.00946507
-0.00506386
0.00128968
0.00732807
0.0115117
0.013198
0.0123761
0.00914683
0.00321142
-0.00604847
-0.0189397
-0.0345877
-0.0505755
-0.0634899
-0.0701261
-0.0688845
-0.0604061
-0.0473234
-0.033015
-0.0202391
-0.0104273
-0.00380289
9.61986e-05
0.00190838
0.00214899
0.0011245
-0.00101622
-0.00413429
-0.00795271
-0.0119355
-0.0153016
-0.0172026
-0.0170639
-0.0148756
-0.0112994
-0.00737514
-0.00401984
-0.00167425
-0.000302793
0.000372985
0.000642652
0.000696988
0.000627891
0.000469125
0.000236534
-5.26859e-05
-0.00037382
-0.00069463
-0.000979388
-0.00119632
-0.00132604
-0.00136594
-0.00132975
-0.00123979
-0.00111934
-0.000987199
-0.000856008
-0.000732847
-0.000621828
-0.000524298
-0.000442223
-0.000373404
-0.000320737
-0.000274791
-0.000247158
-0.000208329
-0.000205679
-0.000142435
-0.000193596
-2.62966e-05
-0.000259714
0.000260609
-0.000618961
0.088458
0.0875462
0.0844752
0.0797594
0.0727737
0.0628857
0.0496732
0.0325188
0.0120225
-0.0109072
-0.0331982
-0.0505925
-0.0634477
-0.0712576
-0.0741535
-0.0721381
-0.0646168
-0.0526355
-0.038371
-0.0237391
-0.0100229
0.00192548
0.0115922
0.0183769
0.0215462
0.0209128
0.0177547
0.0147398
0.0139577
0.0155598
0.0184396
0.0215795
0.0244955
0.027138
0.0296496
0.0321136
0.0343625
0.035463
0.0339376
0.0291135
0.0224898
0.0173334
0.0159222
0.0179414
0.0213546
0.0244625
0.0266401
0.0279744
0.0288279
0.0295657
0.0303946
0.030761
0.0292705
0.0247114
0.0176091
0.0107
0.00729829
0.00873417
0.0135767
0.0189827
0.0230052
0.0251612
0.0258719
0.0258919
0.0259731
0.0263333
0.0261133
0.0237448
0.0183286
0.0109047
0.00428725
0.00134515
0.00312039
0.00843303
0.0147792
0.0199389
0.0228639
0.0236956
0.0232946
0.0226249
0.0218559
0.0199544
0.0153571
0.0074626
-0.00230795
-0.0109053
-0.0152648
-0.014067
-0.00826961
-0.000396147
0.00696866
0.0121474
0.0144797
0.0139452
0.0105316
0.00376083
-0.0070545
-0.0220485
-0.0399622
-0.0579309
-0.0721631
-0.0791998
-0.077354
-0.0673863
-0.052277
-0.0358822
-0.0213732
-0.0103769
-0.00308983
0.0010916
0.00294449
0.00306225
0.00177577
-0.000754495
-0.00435601
-0.00869113
-0.0131506
-0.0168891
-0.0190159
-0.0189324
-0.0166182
-0.0127543
-0.00844576
-0.00470319
-0.00204331
-0.000457668
0.000345817
0.000683871
0.000768328
0.000703412
0.000530001
0.000270814
-5.11942e-05
-0.000406913
-0.000760431
-0.00107212
-0.00130626
-0.00144105
-0.00147402
-0.00142197
-0.00131139
-0.00116943
-0.00101753
-0.000869715
-0.000733582
-0.000613284
-0.000510063
-0.000425459
-0.00035688
-0.000306176
-0.00026371
-0.000239315
-0.000204831
-0.000203894
-0.000145304
-0.000194189
-3.29397e-05
-0.000258106
0.0002576
-0.000620843
0.0909063
0.0900815
0.087305
0.0829366
0.076288
0.0665516
0.0530984
0.0349332
0.0126104
-0.0131789
-0.0382365
-0.0568457
-0.0703161
-0.0782701
-0.0811816
-0.0790164
-0.0705077
-0.0567707
-0.0405382
-0.0241221
-0.00895449
0.00406749
0.0144544
0.0215239
0.0242605
0.0222763
0.0171699
0.0125293
0.0111485
0.0130091
0.0164462
0.0200873
0.0233687
0.0262772
0.0290071
0.0316507
0.0340395
0.0351253
0.0330977
0.0270011
0.0186209
0.0121871
0.0107671
0.0138122
0.0184533
0.0224532
0.0251291
0.026661
0.0274842
0.0280395
0.0287015
0.0289113
0.0270407
0.0216505
0.0133652
0.00536903
0.0014949
0.00331118
0.00922314
0.0158649
0.0208336
0.0234911
0.0243405
0.0243295
0.0243921
0.0247112
0.0241789
0.0210039
0.0143614
0.00567436
-0.00176686
-0.00477212
-0.0023256
0.00408201
0.011574
0.0176778
0.0212393
0.0224332
0.0222431
0.0217078
0.0208287
0.0182921
0.0124294
0.00290797
-0.00832918
-0.0177341
-0.021964
-0.0197275
-0.0122716
-0.00257871
0.00637567
0.0127354
0.0158266
0.0156222
0.0119392
0.00409276
-0.00862286
-0.026061
-0.0464996
-0.0666142
-0.0822523
-0.0897097
-0.0872044
-0.0755917
-0.0582096
-0.0394381
-0.0229244
-0.0105371
-0.0024569
0.00207366
0.00398737
0.00397122
0.00239135
-0.000568427
-0.00469666
-0.0095915
-0.0145646
-0.0186976
-0.0210498
-0.021002
-0.0185371
-0.0143607
-0.00963971
-0.00547647
-0.00246815
-0.000639543
0.000312639
0.000732675
0.000853888
0.000793337
0.000600256
0.000306471
-5.74198e-05
-0.000457015
-0.000852169
-0.00119828
-0.00145414
-0.00159433
-0.0016167
-0.00154215
-0.00140304
-0.00123186
-0.00105361
-0.000884034
-0.000731264
-0.000599393
-0.000489429
-0.000402284
-0.000334751
-0.000287258
-0.000249803
-0.00022997
-0.000201297
-0.000202635
-0.000150223
-0.000195684
-4.3585e-05
-0.000254903
0.000247417
-0.000613219
0.0936838
0.0929718
0.0905763
0.0866752
0.0805118
0.0710728
0.0574518
0.0381343
0.0135469
-0.0160839
-0.0447908
-0.0647592
-0.0789166
-0.0870753
-0.0902013
-0.0880638
-0.0782947
-0.062177
-0.0433431
-0.0246699
-0.0077341
0.00656357
0.0178184
0.0252582
0.0274363
0.0236115
0.0158092
0.00897396
0.0069211
0.00935253
0.0136894
0.01804
0.0217725
0.0249578
0.0278492
0.0305011
0.0328134
0.0337927
0.031355
0.0240838
0.0136814
0.00538691
0.00363311
0.00802582
0.0144446
0.0197268
0.0230549
0.0247538
0.0254157
0.0256895
0.0261876
0.0262522
0.0238612
0.0173035
0.00747127
-0.00178142
-0.00602214
-0.0035423
0.00373428
0.0118708
0.017971
0.0212128
0.022213
0.0221841
0.0222708
0.0225509
0.0215992
0.017414
0.00932746
-0.000793282
-0.00915911
-0.0122303
-0.00897849
-0.0012373
0.00763244
0.0148338
0.0191151
0.0207317
0.0208158
0.0204509
0.0194097
0.0160852
0.00875804
-0.00255633
-0.0153465
-0.0255602
-0.0295963
-0.026206
-0.0169306
-0.00522992
0.00548959
0.0131634
0.0170979
0.0172383
0.0131751
0.00403728
-0.0107973
-0.0307995
-0.053771
-0.0759884
-0.0929932
-0.100854
-0.097695
-0.0844292
-0.0647282
-0.0434905
-0.0248577
-0.010969
-0.00201012
0.0029235
0.00492247
0.00477625
0.00289266
-0.000511168
-0.00518069
-0.0106476
-0.016142
-0.020668
-0.0232288
-0.0231868
-0.0205405
-0.0160325
-0.0108909
-0.00629974
-0.00293073
-0.000843334
0.000273145
0.00078729
0.000951334
0.000894236
0.000675244
0.000338229
-7.63727e-05
-0.000528561
-0.000974191
-0.00136285
-0.00164581
-0.00179203
-0.00179959
-0.00169455
-0.00151721
-0.00130738
-0.00109482
-0.000897425
-0.000723868
-0.000578014
-0.000460434
-0.000371134
-0.000305955
-0.000263444
-0.000232989
-0.000219378
-0.000198229
-0.000202475
-0.000157978
-0.000198531
-5.96043e-05
-0.00024944
0.000225876
-0.000589603
0.0967456
0.0961771
0.0942634
0.0909787
0.0854955
0.0765728
0.0629363
0.0423762
0.0150257
-0.0197749
-0.0532689
-0.0745634
-0.0891885
-0.0972581
-0.10065
-0.0988995
-0.0878101
-0.0688028
-0.046789
-0.0254248
-0.00644307
0.00930222
0.0215709
0.0294885
0.0309228
0.0245659
0.0130255
0.00338902
0.000606503
0.00414957
0.00991048
0.0152617
0.0195474
0.0229863
0.0258507
0.0280967
0.0299519
0.0306872
0.028012
0.0199069
0.00757478
-0.00294116
-0.00544016
0.000371904
0.00906835
0.0160846
0.0202516
0.0220742
0.0224465
0.0224013
0.0227873
0.0226915
0.019588
0.0115581
-9.60146e-05
-0.0107488
-0.0152913
-0.0118936
-0.00293331
0.00695008
0.0143341
0.0182243
0.0193967
0.0193832
0.0195339
0.0197617
0.0182991
0.0129802
0.00335658
-0.00824843
-0.0175706
-0.0207222
-0.0166196
-0.00741891
0.00297666
0.0113796
0.0164365
0.0185209
0.0189281
0.0187516
0.017498
0.0132861
0.00440802
-0.00872293
-0.0230248
-0.0339701
-0.0377401
-0.0331439
-0.0220135
-0.00826738
0.00426151
0.0132947
0.0181059
0.0185642
0.0140035
0.00344328
-0.0135306
-0.0359515
-0.0612105
-0.0852962
-0.103517
-0.111741
-0.107973
-0.0931763
-0.0713154
-0.0477493
-0.0270774
-0.0117086
-0.00185422
0.00351279
0.00562518
0.00537019
0.00319667
-0.000635781
-0.00582282
-0.0118282
-0.0178063
-0.0226907
-0.0254304
-0.0253668
-0.0225183
-0.017675
-0.0121271
-0.00712795
-0.00341013
-0.00106369
0.000225604
0.000843603
0.00105553
0.000999531
0.000747944
0.000360668
-0.000110042
-0.000619877
-0.00112276
-0.00156246
-0.00187986
-0.00203533
-0.00202547
-0.00188205
-0.00165579
-0.00139648
-0.00114035
-0.000908163
-0.000709183
-0.000546849
-0.00042103
-0.000330437
-0.000269505
-0.000234302
-0.000213284
-0.000207853
-0.00019612
-0.000203944
-0.000169242
-0.00020311
-8.22678e-05
-0.000240997
0.000188116
-0.000542247
0.100035
0.0996443
0.0983274
0.095837
0.0912831
0.083186
0.0697931
0.0479884
0.0172933
-0.0245534
-0.0643332
-0.0868121
-0.101849
-0.109835
-0.113957
-0.11314
-0.100337
-0.0773656
-0.0511862
-0.0265308
-0.00520866
0.0121016
0.0255205
0.0339906
0.0343296
0.0244288
0.007614
-0.00593443
-0.00895298
-0.00327085
0.00477612
0.0115526
0.0165143
0.0201118
0.0225809
0.0238763
0.0249718
0.0254921
0.0226746
0.013613
-0.000736041
-0.0134013
-0.0165336
-0.00918874
0.00217498
0.0113459
0.0165431
0.0184579
0.0184578
0.0181104
0.0184434
0.0181518
0.0141862
0.00454319
-0.00900372
-0.0211007
-0.0259468
-0.021527
-0.0106801
0.00112605
0.0098869
0.0144573
0.0158219
0.0158572
0.0160958
0.0162552
0.0142444
0.00778838
-0.0033183
-0.0163302
-0.026562
-0.029804
-0.0248847
-0.0142341
-0.0022926
0.00732873
0.0131656
0.0157293
0.0164787
0.0164895
0.0149961
0.00988416
-0.000489293
-0.0153026
-0.0309441
-0.0424693
-0.0458961
-0.0401143
-0.027231
-0.0115737
0.00264755
0.012968
0.0186123
0.0193162
0.0141708
0.00219673
-0.0167067
-0.0411491
-0.0682365
-0.0938002
-0.112988
-0.121487
-0.117187
-0.101094
-0.0774137
-0.0518745
-0.0294455
-0.0127654
-0.00208348
0.00371395
0.00596701
0.00563852
0.00321467
-0.000993638
-0.00662397
-0.0130764
-0.019447
-0.0246169
-0.0274913
-0.027387
-0.0243383
-0.0191837
-0.0132731
-0.00791497
-0.00388557
-0.00129715
0.000164486
0.000891952
0.00115461
0.00109631
0.000807712
0.000369752
-0.000153019
-0.000716419
-0.00127772
-0.00177656
-0.00214053
-0.00231444
-0.00228995
-0.00210345
-0.00181861
-0.00149865
-0.00118891
-0.000914255
-0.00068487
-0.000503614
-0.000369329
-0.000278903
-0.000224762
-0.000199742
-0.000190938
-0.000195792
-0.000195365
-0.00020737
-0.000184336
-0.000209531
-0.000112414
-0.000228811
0.000129174
-0.000462943
0.10348
0.103307
0.102713
0.101227
0.097913
0.0910765
0.0783461
0.0554775
0.0207791
-0.0307831
-0.0789089
-0.101842
-0.116362
-0.123555
-0.128913
-0.130338
-0.115972
-0.0880874
-0.056735
-0.0282123
-0.00434413
0.0145338
0.0291627
0.0381123
0.0368039
0.0218026
-0.00232
-0.0209589
-0.023355
-0.0138192
-0.00214352
0.00668043
0.0124677
0.0160308
0.0176086
0.0175543
0.0178947
0.01839
0.0153489
0.00488611
-0.0117245
-0.0263438
-0.0297543
-0.0205837
-0.0062431
0.00539772
0.0117791
0.0137775
0.0133775
0.0127692
0.0130959
0.0125974
0.00775232
-0.00342481
-0.0187174
-0.0321695
-0.0373425
-0.0319546
-0.019224
-0.00547499
0.00465768
0.00988878
0.0114427
0.0115394
0.0118701
0.0119625
0.00944933
0.0019899
-0.0103969
-0.0246142
-0.0356305
-0.0389572
-0.0333203
-0.021362
-0.00800137
0.00273992
0.00928559
0.012286
0.0133552
0.0135374
0.0118199
0.00590584
-0.00575145
-0.0219541
-0.0386391
-0.0505273
-0.0535449
-0.0466672
-0.0322731
-0.015018
0.000602496
0.0120004
0.0183417
0.0191856
0.0134375
0.000227008
-0.0201786
-0.0460423
-0.0743328
-0.100852
-0.120661
-0.129303
-0.124566
-0.107502
-0.0824982
-0.0555316
-0.0318119
-0.0141328
-0.00277892
0.00340692
0.00582077
0.00546475
0.00285901
-0.00162804
-0.00757225
-0.014324
-0.0209469
-0.0262939
-0.0292414
-0.0290822
-0.0258595
-0.020451
-0.0142549
-0.00861736
-0.00433893
-0.00154359
7.88316e-05
0.000914471
0.00122631
0.00116254
0.000839393
0.00036354
-0.000191086
-0.000788922
-0.00139958
-0.00196303
-0.0023905
-0.00260314
-0.00257699
-0.00235063
-0.00200209
-0.00161211
-0.00123901
-0.000914054
-0.000649185
-0.000446763
-0.000304263
-0.000216063
-0.000171775
-0.000160109
-0.000166309
-0.000183383
-0.000195851
-0.000212413
-0.00020273
-0.000217252
-0.000149889
-0.000212075
4.51575e-05
-0.000344708
0.106996
0.107079
0.107342
0.107091
0.105392
0.100381
0.0889394
0.0654675
0.0259691
-0.039158
-0.098174
-0.120721
-0.134457
-0.140431
-0.147961
-0.153192
-0.136783
-0.102018
-0.0638501
-0.0307294
-0.00421643
0.0160706
0.0313394
0.0400929
0.0375478
0.0179605
-0.0145719
-0.0411712
-0.0440835
-0.0287556
-0.011405
0.000420962
0.00721381
0.0104634
0.0106739
0.009115
0.0088815
0.00953928
0.0061758
-0.0058325
-0.0246509
-0.0410518
-0.0445931
-0.0334467
-0.0159945
-0.00174716
0.00588641
0.00796707
0.00717238
0.00633827
0.00669759
0.00605066
0.000484679
-0.0119274
-0.0286237
-0.0432088
-0.0487103
-0.0425273
-0.0281303
-0.0126174
-0.00125047
0.00454707
0.0062411
0.00637457
0.00678601
0.00684903
0.00397701
-0.00421695
-0.0175446
-0.0326545
-0.0442585
-0.0476451
-0.0414385
-0.0284292
-0.0139203
-0.00228463
0.00480476
0.00813038
0.00944989
0.00978061
0.00791187
0.00141366
-0.0111638
-0.0283179
-0.0456422
-0.0576243
-0.060172
-0.0523711
-0.0368422
-0.0184764
-0.00192449
0.0101975
0.0170057
0.0178754
0.0116031
-0.00250027
-0.0238082
-0.050348
-0.0790902
-0.105927
-0.12592
-0.134526
-0.129467
-0.111836
-0.0861316
-0.0584365
-0.0340431
-0.0157991
-0.00400837
0.00248317
0.00506607
0.00473912
0.00205117
-0.00257274
-0.00865326
-0.015513
-0.0222108
-0.0275967
-0.0305364
-0.0303056
-0.0269527
-0.0213778
-0.0150061
-0.00919804
-0.00475696
-0.00180781
-4.98927e-05
0.000881701
0.00123387
0.00116299
0.000817775
0.000331832
-0.00021776
-0.000814239
-0.00145058
-0.00207504
-0.00258282
-0.00286166
-0.00285897
-0.0026072
-0.00219802
-0.00173337
-0.0012893
-0.000906978
-0.000601914
-0.000376482
-0.000226513
-0.000143017
-0.000111798
-0.000116468
-0.000139894
-0.000170394
-0.000196584
-0.000217642
-0.000222567
-0.000224699
-0.000192977
-0.00018995
-6.50196e-05
-0.000184353
0.11048
0.110859
0.112108
0.113348
0.113697
0.111281
0.102059
0.0790436
0.0338647
-0.0508642
-0.124682
-0.143261
-0.153302
-0.157151
-0.169211
-0.181938
-0.163883
-0.120057
-0.0730918
-0.0346141
-0.00544839
0.0154795
0.0292221
0.036006
0.0325087
0.0120745
-0.0247353
-0.0608827
-0.0688434
-0.0483245
-0.0235488
-0.00750119
0.00057474
0.00323418
0.00174534
-0.00129444
-0.0018685
-0.000856398
-0.00445069
-0.0176898
-0.0382541
-0.0561785
-0.0599046
-0.0470106
-0.0266476
-0.00991257
-0.00109178
0.00103993
-0.000151834
-0.00119983
-0.0007604
-0.00139831
-0.0073476
-0.0205037
-0.0381006
-0.0534798
-0.0592686
-0.0525379
-0.0368716
-0.0199739
-0.00766091
-0.00148661
0.000232743
0.000333467
0.000806728
0.000926538
-0.00206323
-0.0106038
-0.0244201
-0.0400183
-0.0519534
-0.0553563
-0.0487624
-0.0350497
-0.0197883
-0.00760709
-0.00023978
0.00322281
0.00467669
0.00513456
0.00325102
-0.00349928
-0.0164994
-0.0340471
-0.0515219
-0.063292
-0.0653265
-0.0568463
-0.040681
-0.0218461
-0.00498772
0.00737269
0.0143407
0.015138
0.00852271
-0.00599354
-0.0274878
-0.0538674
-0.0822187
-0.108636
-0.128294
-0.136653
-0.131408
-0.113687
-0.0880047
-0.0603899
-0.0360458
-0.0177595
-0.00582913
0.000849797
0.0035989
0.00337042
0.000729284
-0.00385292
-0.00985818
-0.0166052
-0.023174
-0.0284357
-0.0312685
-0.0309446
-0.0275159
-0.0218847
-0.0154743
-0.00962944
-0.00513241
-0.00209971
-0.000247784
0.000752798
0.00112686
0.00104656
0.000696495
0.000234018
-0.000266487
-0.000813642
-0.00143398
-0.0020963
-0.00268553
-0.00305261
-0.0031034
-0.00285046
-0.00239381
-0.00185741
-0.00133928
-0.000894813
-0.000545943
-0.00029627
-0.000139904
-6.35532e-05
-4.80035e-05
-7.08347e-05
-0.000112266
-0.00015603
-0.000195532
-0.000220369
-0.000240489
-0.000229134
-0.000238007
-0.000161657
-0.000197662
1.45315e-05
0.113815
0.114521
0.116874
0.119834
0.12272
0.123764
0.11809
0.097233
0.0451288
-0.0661988
-0.159883
-0.173663
-0.178868
-0.17717
-0.195645
-0.220913
-0.200988
-0.143999
-0.0851248
-0.0403012
-0.00861512
0.0108042
0.0191088
0.0217291
0.0167264
-0.000327882
-0.0365077
-0.0797853
-0.0943557
-0.0709968
-0.0383978
-0.0171942
-0.00755069
-0.00568669
-0.00905141
-0.0134724
-0.0141327
-0.0124942
-0.0159303
-0.0297121
-0.0512595
-0.0702826
-0.0743232
-0.0602314
-0.0375504
-0.0187506
-0.0089793
-0.00690226
-0.00853988
-0.00981831
-0.00922447
-0.00958807
-0.01543
-0.0286949
-0.0465722
-0.0623172
-0.0683063
-0.061309
-0.0448968
-0.0271616
-0.0143358
-0.0080791
-0.00652468
-0.00657016
-0.00605296
-0.00573872
-0.00852033
-0.0169284
-0.0306999
-0.046318
-0.0582847
-0.061645
-0.0548666
-0.0408602
-0.025337
-0.0130635
-0.00577817
-0.00243998
-0.00100748
-0.000436196
-0.0021389
-0.00871457
-0.0215381
-0.0388357
-0.0559167
-0.0671505
-0.0686464
-0.059795
-0.0435917
-0.0250519
-0.00863578
0.00337277
0.0101434
0.0108012
0.00411248
-0.0102427
-0.0311454
-0.0564856
-0.0835527
-0.108751
-0.127501
-0.135383
-0.130116
-0.112836
-0.0879637
-0.0612981
-0.0377812
-0.0200229
-0.00828789
-0.00156428
0.00134074
0.00129218
-0.00115025
-0.00548759
-0.0111858
-0.0175817
-0.0237987
-0.0287557
-0.0313697
-0.0309274
-0.0274838
-0.0219213
-0.0156272
-0.00989565
-0.0054639
-0.00243283
-0.000545694
0.000480197
0.000846507
0.000746978
0.000402222
-1.12826e-05
-0.000421082
-0.000862221
-0.001405
-0.00205497
-0.0026995
-0.0031557
-0.00328038
-0.00305448
-0.00257304
-0.00197765
-0.00138968
-0.000882673
-0.000488654
-0.000214474
-5.27958e-05
1.48142e-05
1.37392e-05
-2.69826e-05
-8.48909e-05
-0.000139707
-0.000190422
-0.000217467
-0.00025235
-0.000227202
-0.000279643
-0.000126778
-0.000342844
0.000239417
0.116867
0.117926
0.121461
0.126371
0.132269
0.137982
0.137678
0.123042
0.0621443
-0.0952552
-0.209462
-0.203972
-0.199757
-0.196569
-0.229204
-0.274149
-0.252099
-0.176148
-0.10106
-0.0483991
-0.0147173
-0.000190576
-0.000160286
-0.00181788
-0.00620596
-0.0184861
-0.0526754
-0.0994304
-0.119212
-0.0948629
-0.0551817
-0.0285013
-0.0171313
-0.0161766
-0.0214892
-0.0271912
-0.0276499
-0.0249607
-0.0275708
-0.0409723
-0.0625707
-0.0821226
-0.0865831
-0.072011
-0.047922
-0.0277727
-0.0174759
-0.015669
-0.0178719
-0.0194213
-0.0185592
-0.0182862
-0.023422
-0.0360756
-0.0535501
-0.0691794
-0.0752428
-0.0682619
-0.0516945
-0.0337839
-0.0209966
-0.0150494
-0.0139224
-0.0142635
-0.0137123
-0.0130202
-0.0152063
-0.0229473
-0.0360987
-0.0512367
-0.062913
-0.0661609
-0.0594078
-0.0455489
-0.0303124
-0.0184737
-0.0117044
-0.00881087
-0.00758421
-0.00690272
-0.00818348
-0.0140943
-0.0260812
-0.0424407
-0.0585613
-0.0689357
-0.0698917
-0.0610238
-0.0454477
-0.0280448
-0.0128961
-0.00189405
0.00429825
0.00477941
-0.00165155
-0.0152207
-0.0347365
-0.0581619
-0.0830531
-0.106223
-0.123483
-0.130662
-0.125559
-0.109283
-0.0860238
-0.0611808
-0.0392686
-0.0226113
-0.0114165
-0.00480267
-0.00175738
-0.0015374
-0.00361422
-0.00748905
-0.0126377
-0.0184352
-0.0240696
-0.0285344
-0.0308136
-0.0302278
-0.026834
-0.0214712
-0.0154547
-0.00999275
-0.00575384
-0.00282003
-0.00097169
2.06429e-05
0.000339338
0.000198132
-0.000145626
-0.000491578
-0.000767787
-0.00103784
-0.00142655
-0.00199078
-0.00263613
-0.00315698
-0.00336261
-0.00319035
-0.00271508
-0.00208505
-0.00144166
-0.000878753
-0.000442241
-0.000144926
2.11922e-05
8.00182e-05
6.38743e-05
8.58501e-06
-6.14821e-05
-0.000123017
-0.000180982
-0.000207534
-0.00025512
-0.000216398
-0.000311965
-8.57099e-05
-0.000484576
0.000468986
0.119497
0.120908
0.125658
0.132599
0.141997
0.153181
0.161008
0.155852
0.0867965
-0.111706
-0.292367
-0.263641
-0.236773
-0.211855
-0.263525
-0.346037
-0.324928
-0.220931
-0.122264
-0.0592043
-0.0248113
-0.0188415
-0.0264377
-0.0305321
-0.0306278
-0.0380652
-0.0692958
-0.116395
-0.14017
-0.116873
-0.0722861
-0.0408124
-0.0278895
-0.0279478
-0.0352534
-0.0421523
-0.0420702
-0.0377361
-0.0386597
-0.0506645
-0.0713371
-0.0907678
-0.0956755
-0.0813735
-0.0569688
-0.0364068
-0.0261837
-0.0249852
-0.0279477
-0.0298233
-0.0285355
-0.0271943
-0.0309741
-0.0422792
-0.0586651
-0.0736859
-0.0796728
-0.0729671
-0.0568446
-0.0394711
-0.0273467
-0.0221748
-0.0217933
-0.022602
-0.0220148
-0.0207291
-0.0219023
-0.0284283
-0.0403851
-0.0545474
-0.0656121
-0.0686729
-0.0621477
-0.0488773
-0.034492
-0.0236498
-0.0178736
-0.0157806
-0.0149587
-0.0141606
-0.0147543
-0.0194861
-0.0299636
-0.0446986
-0.0593061
-0.0685196
-0.0689588
-0.0604546
-0.0461965
-0.0307927
-0.0177563
-0.00843427
-0.00320593
-0.00292217
-0.00873618
-0.0208807
-0.0382336
-0.0589187
-0.0808051
-0.101193
-0.116418
-0.122695
-0.117962
-0.103243
-0.0823652
-0.0601629
-0.0405754
-0.0255506
-0.0152253
-0.00888137
-0.00571944
-0.00514092
-0.00667515
-0.00986008
-0.014212
-0.0191648
-0.0239915
-0.0277843
-0.0296195
-0.0288694
-0.0255901
-0.0205543
-0.0149705
-0.00992713
-0.00600485
-0.00326743
-0.00154114
-0.00065154
-0.000428994
-0.000636122
-0.000982584
-0.00123525
-0.00132617
-0.00135788
-0.00151589
-0.00191438
-0.00249123
-0.00303522
-0.00331834
-0.00322461
-0.00279425
-0.0021661
-0.00149399
-0.000891441
-0.000421237
-0.000105031
6.44433e-05
0.000116313
8.9244e-05
2.49475e-05
-5.06528e-05
-0.000112362
-0.000171631
-0.000193455
-0.000249244
-0.000196663
-0.000330111
-4.02013e-05
-0.00060302
0.000676556
0.121559
0.123307
0.129203
0.138218
0.151311
0.169421
0.188817
0.207382
0.124975
-0.103056
-0.338814
-0.299488
-0.241104
-0.210476
-0.276454
-0.399091
-0.399942
-0.275374
-0.149852
-0.0734807
-0.0396381
-0.0440284
-0.0579758
-0.061526
-0.0539379
-0.0558718
-0.0828621
-0.127959
-0.154391
-0.133965
-0.0876341
-0.0530801
-0.0392346
-0.0405239
-0.0499173
-0.0579374
-0.0569098
-0.0502012
-0.0485118
-0.058156
-0.0770062
-0.0956661
-0.10096
-0.0876002
-0.063999
-0.0440703
-0.0346452
-0.0344994
-0.0384751
-0.0407334
-0.0388264
-0.035956
-0.0377431
-0.0470143
-0.0616849
-0.0756373
-0.0813842
-0.0751737
-0.060053
-0.0439135
-0.0330948
-0.029199
-0.0299092
-0.0313629
-0.0307249
-0.0286169
-0.0283654
-0.0331591
-0.0433917
-0.0561243
-0.0662802
-0.0690804
-0.0629657
-0.050693
-0.0376975
-0.028404
-0.0241028
-0.0231719
-0.0229525
-0.0220258
-0.0216694
-0.0247271
-0.0330606
-0.0455344
-0.0581262
-0.0659187
-0.0658864
-0.0581265
-0.0458538
-0.0332678
-0.0231465
-0.0161537
-0.0122703
-0.0122081
-0.0170522
-0.0271528
-0.041616
-0.0588275
-0.0770039
-0.0939796
-0.10672
-0.111947
-0.107787
-0.0951299
-0.0773091
-0.0584493