/*--------------------------------*- C++ -*----------------------------------*\
  =========                 |
  \\      /  F ield         | OpenFOAM: The Open Source CFD Toolbox
   \\    /   O peration     | Website:  https://openfoam.org
    \\  /    A nd           | Version:  11
     \\/     M anipulation  |
\*---------------------------------------------------------------------------*/
FoamFile
{
    format      ascii;
    class       surfaceScalarField;
    location    "11.967101";
    object      phi;
}
// * * * * * * * * * * * * * * * * * * * * * * * * * * * * * * * * * * * * * //

dimensions      [0 3 -1 0 0 0 0];

internalField   nonuniform List<scalar> 
14638
(
0.00250215
-2.15438e-06
0.00250869
-6.53819e-06
0.00252002
-1.13311e-05
0.00253671
-1.66845e-05
0.00255933
-2.26244e-05
0.00258822
-2.88867e-05
0.00262318
-3.4964e-05
0.00266309
-3.99024e-05
0.00270575
-4.2665e-05
0.00274789
-4.21375e-05
0.00278551
-3.76191e-05
0.00281519
-2.9679e-05
0.00283408
-1.88899e-05
0.00284005
-5.97475e-06
0.0028319
8.14871e-06
0.00280982
2.20805e-05
0.00277618
3.3641e-05
0.00273559
4.05908e-05
0.00269412
4.14716e-05
0.00265825
3.58732e-05
0.00263379
2.44597e-05
0.00262484
8.94583e-06
0.0026328
-7.96347e-06
0.00265537
-2.2566e-05
0.00268602
-3.06545e-05
0.00271506
-2.90323e-05
0.00273255
-1.74959e-05
0.00273199
5.6484e-07
0.00271214
1.98462e-05
0.00267653
3.56152e-05
0.00263145
4.50727e-05
0.00258425
4.72026e-05
0.00254225
4.20018e-05
0.00251238
2.98657e-05
0.00250087
1.15116e-05
0.0025124
-1.15325e-05
0.00254839
-3.59868e-05
0.00260464
-5.62484e-05
0.00267024
-6.55981e-05
0.00272964
-5.94036e-05
0.00276792
-3.82796e-05
0.00277631
-8.38611e-06
0.00275461
2.1699e-05
0.00270961
4.4993e-05
0.00265138
5.82347e-05
0.00259008
6.12998e-05
0.00253467
5.54118e-05
0.00249298
4.16919e-05
0.00247221
2.07663e-05
0.00247871
-6.49513e-06
0.00251614
-3.74312e-05
0.00258245
-6.63093e-05
0.00266742
-8.49742e-05
0.00275343
-8.60134e-05
0.0028203
-6.68622e-05
0.00285228
-3.19866e-05
0.00284353
8.75337e-06
0.00279893
4.45991e-05
0.00273055
6.83799e-05
0.00265234
7.82055e-05
0.00257637
7.59714e-05
0.00251175
6.46265e-05
0.00246558
4.61702e-05
0.00244428
2.13007e-05
0.00245362
-9.34681e-06
0.00249681
-4.31884e-05
0.00257133
-7.45191e-05
0.00266681
-9.54803e-05
0.00276581
-9.89999e-05
0.00284787
-8.20563e-05
0.00289533
-4.74612e-05
0.00289862
-3.29648e-06
0.00285891
3.97104e-05
0.00278698
7.19314e-05
0.00269885
8.81309e-05
0.00261038
8.84762e-05
0.00253368
7.66954e-05
0.00247699
5.66927e-05
0.00244672
3.02693e-05
0.00244886
-2.14471e-06
0.00248742
-3.85528e-05
0.00256079
-7.33793e-05
0.00265939
-9.85933e-05
0.00276665
-0.000107266
0.00286355
-9.68923e-05
0.00293392
-7.03719e-05
0.00296838
-3.446e-05
0.00296548
2.90005e-06
0.00293073
3.47433e-05
0.00287467
5.60659e-05
0.00281074
6.39311e-05
0.00275322
5.75159e-05
0.00271506
3.81588e-05
0.00270608
8.98029e-06
0.00273172
-2.56416e-05
0.00279203
-6.03097e-05
0.00288094
-8.89034e-05
0.00298649
-0.000105552
0.00309271
-0.000106219
0.00318276
-9.00477e-05
0.00324252
-5.97669e-05
0.00326359
-2.10667e-05
0.0032448
1.87917e-05
0.00319211
5.26887e-05
0.00311668
7.54274e-05
0.0030317
8.49817e-05
0.002949
8.27051e-05
0.00287675
7.22474e-05
0.0028192
5.75475e-05
0.00277813
4.10686e-05
0.00275466
2.34681e-05
0.00274992
4.74384e-06
0.00276422
-1.43033e-05
0.0027957
-3.14791e-05
0.00283942
-4.37189e-05
0.00288757
-4.81502e-05
0.00293065
-4.30752e-05
0.00295925
-2.86033e-05
0.00296615
-6.89721e-06
0.00294809
1.80559e-05
0.00290682
4.12675e-05
0.00284866
5.81618e-05
0.00278263
6.60272e-05
0.00271789
6.47418e-05
0.00266149
5.63997e-05
0.00261734
4.41488e-05
0.00258638
3.09602e-05
0.00256748
1.89013e-05
0.00255846
9.02486e-06
0.00255683
1.63238e-06
0.00256021
-3.38304e-06
0.00256649
-6.28564e-06
0.00257387
-7.37249e-06
0.00258081
-6.94504e-06
0.00258614
-5.32823e-06
0.00258903
-2.8925e-06
0.00258908
-4.96158e-08
0.0025863
2.7841e-06
0.00258105
5.24374e-06
0.00257399
7.0667e-06
0.00256587
8.11917e-06
0.00255747
8.39359e-06
0.00254949
7.98374e-06
0.00254244
7.04908e-06
0.00253666
5.77888e-06
0.0025323
4.36169e-06
0.00252934
2.96324e-06
0.00252763
1.7119e-06
0.00252693
6.9303e-07
0.00252698
-5.1619e-08
0.0025275
-5.15962e-07
0.00252822
-7.24328e-07
0.00252894
-7.15488e-07
0.00252948
-5.44231e-07
0.00252974
-2.57988e-07
0.00252966
8.40721e-08
0.00252921
4.45296e-07
0.00252843
7.86025e-07
0.00252738
1.04948e-06
1.37114e-06
0.00250213
-4.28753e-06
0.00250861
-1.30171e-05
0.00251986
-2.25816e-05
0.00253648
-3.33034e-05
0.00255911
-4.52494e-05
0.00258812
-5.79049e-05
0.00262342
-7.02616e-05
0.00266389
-8.03738e-05
0.00270735
-8.61262e-05
0.00275039
-8.51748e-05
0.00278883
-7.60598e-05
0.00281919
-6.004e-05
0.00283859
-3.82856e-05
0.00284484
-1.22214e-05
0.0028366
1.63808e-05
0.00281395
4.47366e-05
0.00277923
6.83588e-05
0.00273721
8.26091e-05
0.0026942
8.4487e-05
0.00265692
7.31508e-05
0.00263145
4.99279e-05
0.00262215
1.8248e-05
0.00263064
-1.64555e-05
0.0026547
-4.66229e-05
0.00268754
-6.34966e-05
0.00271882
-6.03099e-05
0.00273788
-3.65611e-05
0.00273778
6.64028e-07
0.00271734
4.02906e-05
0.0026804
7.25514e-05
0.00263365
9.18216e-05
0.00258466
9.61936e-05
0.00254089
8.57724e-05
0.00250941
6.13495e-05
0.00249669
2.4227e-05
0.00250789
-2.27295e-05
0.0025449
-7.29973e-05
0.00260368
-0.000115028
0.00267279
-0.000134707
0.00273558
-0.000122191
0.00277599
-7.86897e-05
0.00278472
-1.71187e-05
0.00276181
4.4604e-05
0.00271474
9.2067e-05
0.00265419
0.000118788
0.00259066
0.000124829
0.00253316
0.000112909
0.00248952
8.533e-05
0.00246712
4.31621e-05
0.00247278
-1.21528e-05
0.0025108
-7.54459e-05
0.00257951
-0.000135026
0.0026685
-0.000173956
0.0027591
-0.000176614
0.00282964
-0.000137411
0.00286325
-6.55903e-05
0.00285378
1.82177e-05
0.00280678
9.16019e-05
0.00273534
0.000139818
0.00265426
0.00015929
0.00257589
0.000154336
0.00250921
0.000131313
0.00246099
9.43895e-05
0.0024375
4.47876e-05
0.00244479
-1.66411e-05
0.00248672
-8.51143e-05
0.00256144
-0.000149235
0.00265879
-0.000192838
0.00276097
-0.00020118
0.00284675
-0.000167831
0.00289758
-9.82922e-05
0.00290309
-8.81101e-06
0.00286398
7.88204e-05
0.00279111
0.000144803
0.00270103
0.000178209
0.00261022
0.000179287
0.00253115
0.000155769
0.00247214
0.0001157
0.00243992
6.2495e-05
0.00244123
-3.45405e-06
0.00248092
-7.82508e-05
0.00255758
-0.000150037
0.00266063
-0.000201646
0.00277191
-0.000218544
0.00287094
-0.00019592
0.00294101
-0.000140446
0.00297321
-6.6656e-05
0.00296716
8.95292e-06
0.00292943
7.24711e-05
0.00287115
0.000114341
0.00280586
0.00012923
0.00274757
0.0001158
0.00270911
7.66242e-05
0.00270057
1.75165e-05
0.00272806
-5.31303e-05
0.00279213
-0.000124379
0.00288653
-0.000183304
0.00299837
-0.000217391
0.00311035
-0.000218199
0.00320448
-0.000184178
0.003266
-0.000121286
0.00328641
-4.14773e-05
0.0032649
4.0299e-05
0.00320803
0.000109561
0.00312767
0.000155785
0.00303772
0.000174928
0.00295058
0.000169845
0.00287479
0.000148044
0.00281474
0.000117595
0.00277225
8.3558e-05
0.00274836
4.73539e-05
0.00274402
9.08578e-06
0.00275926
-2.95367e-05
0.00279185
-6.40696e-05
0.00283657
-8.8447e-05
0.00288552
-9.7094e-05
0.00292923
-8.67853e-05
0.00295842
-5.77973e-05
0.0029659
-1.43777e-05
0.00294833
3.56248e-05
0.00290732
8.22852e-05
0.00284909
0.000116389
0.00278272
0.000132393
0.00271751
0.000129956
0.00266067
0.000113239
0.00261624
8.8573e-05
0.00258524
6.19661e-05
0.00256652
3.76212e-05
0.00255785
1.7691e-05
0.00255669
2.79842e-06
0.00256058
-7.2721e-06
0.00256735
-1.30621e-05
0.00257516
-1.51806e-05
0.00258246
-1.42426e-05
0.00258804
-1.09069e-05
0.00259107
-5.9232e-06
0.00259114
-1.25877e-07
0.00258829
5.64011e-06
0.0025829
1.06339e-05
0.00257564
1.43238e-05
0.00256732
1.64416e-05
0.00255874
1.69764e-05
0.0025506
1.61232e-05
0.00254344
1.42093e-05
0.00253759
1.16209e-05
0.00253321
8.74161e-06
0.00253027
5.90741e-06
0.0025286
3.37768e-06
0.00252797
1.32386e-06
0.00252809
-1.71339e-07
0.00252867
-1.09764e-06
0.00252946
-1.50598e-06
0.00253022
-1.47631e-06
0.00253079
-1.12014e-06
0.00253107
-5.33967e-07
0.00253099
1.62667e-07
0.00253054
8.96162e-07
0.00252974
1.58538e-06
0.00252867
2.11901e-06
2.76265e-06
0.00250209
-6.37742e-06
0.00250844
-1.93716e-05
0.00251953
-3.36652e-05
0.00253601
-4.97831e-05
0.00255863
-6.78678e-05
0.0025879
-8.7182e-05
0.00262387
-0.000106229
0.0026655
-0.000121998
0.00271058
-0.000131211
0.00275544
-0.000130039
0.00279553
-0.000116144
0.00282722
-9.17364e-05
0.00284758
-5.86407e-05
0.00285431
-1.89498e-05
0.00284585
2.48402e-05
0.00282198
6.86019e-05
0.00278507
0.000105277
0.00274018
0.0001275
0.0026941
0.00013056
0.0026541
0.000113148
0.00262677
7.72601e-05
0.00261697
2.80538e-05
0.00262676
-2.62453e-05
0.00265403
-7.38999e-05
0.00269143
-0.00010089
0.00272722
-9.6101e-05
0.00274921
-5.85591e-05
0.00274963
2.48594e-07
0.00272748
6.24374e-05
0.00268746
0.000112573
0.00263709
0.000142197
0.00258446
0.000148825
0.00253729
0.000132939
0.00250288
9.57554e-05
0.0024882
3.89111e-05
0.00249925
-3.37798e-05
0.0025389
-0.00011265
0.00260334
-0.000179463
0.00267987
-0.000211238
0.00274941
-0.000191732
0.00279359
-0.000122868
0.00280217
-2.56983e-05
0.0027759
7.08676e-05
0.00272388
0.000144089
0.00265823
0.000184445
0.00259014
0.000192919
0.0025287
0.000174349
0.00248164
0.000132385
0.00245648
6.83237e-05
0.00246051
-1.61831e-05
0.00249884
-0.000113776
0.00257075
-0.000206931
0.00266625
-0.000269458
0.0027657
-0.000276062
0.00284462
-0.000216334
0.00288289
-0.000103866
0.00287289
2.82261e-05
0.00282114
0.00014335
0.0027432
0.000217756
0.00265602
0.000246469
0.00257286
0.000237502
0.00250233
0.000201835
0.00245044
0.000146284
0.00242309
7.21329e-05
0.00242713
-2.06731e-05
0.002468
-0.000125988
0.00254498
-0.000226218
0.00264741
-0.000295269
0.00275572
-0.000309488
0.00284703
-0.000259142
0.00290198
-0.000153234
0.00290977
-1.66076e-05
0.00287078
0.000117813
0.00279588
0.0002197
0.00270227
0.000271827
0.0026073
0.000274255
0.0025241
0.000238969
0.00246148
0.000178314
0.00242717
9.68128e-05
0.00242952
-5.80967e-06
0.00247451
-0.000123237
0.00255992
-0.000235453
0.00267261
-0.000314331
0.00279134
-0.000337274
0.00289346
-0.000298044
0.0029616
-0.000208583
0.00298771
-9.27646e-05
0.00297345
2.3212e-05
0.0029277
0.000118218
0.00286322
0.000178819
0.00279404
0.000198417
0.0027339
0.000175942
0.0026954
0.000115121
0.00268915
2.37609e-05
0.00272215
-8.61211e-05
0.00279511
-0.000197347
0.00290057
-0.000288759
0.00302338
-0.000340203
0.00314412
-0.000338944
0.00324355
-0.000283608
0.00330654
-0.000184272
0.00332477
-5.97035e-05
0.00329792
6.71423e-05
0.00323339
0.000174097
0.00314414
0.000245027
0.00304528
0.000273797
0.00295017
0.000264947
0.00286804
0.00023018
0.00280362
0.000182015
0.00275883
0.00012835
0.00273459
7.15925e-05
0.00273143
1.22439e-05
0.00274868
-4.67886e-05
0.00278333
-9.87223e-05
0.00282961
-0.000134723
0.00287948
-0.000146967
0.0029238
-0.000131097
0.00295365
-8.76495e-05
0.00296199
-2.27236e-05
0.00294533
5.2289e-05
0.00290494
0.000122671
0.00284687
0.000174466
0.0027802
0.000199059
0.00271447
0.000195685
0.00265721
0.000170506
0.00261268
0.000133101
0.00258199
9.26489e-05
0.002564
5.5616e-05
0.00255635
2.53408e-05
0.00255635
2.80186e-06
0.00256141
-1.23333e-05
0.00256926
-2.09137e-05
0.00257797
-2.38938e-05
0.00258596
-2.2228e-05
0.00259198
-1.69289e-05
0.0025952
-9.14476e-06
0.00259523
-1.56143e-07
0.00259213
8.7385e-06
0.00258636
1.64021e-05
0.00257866
2.20243e-05
0.0025699
2.52054e-05
0.00256093
2.59447e-05
0.0025525
2.45567e-05
0.00254515
2.15558e-05
0.00253923
1.75418e-05
0.00253487
1.3106e-05
0.00253201
8.76302e-06
0.00253048
4.90697e-06
0.00253001
1.79525e-06
0.00253029
-4.51781e-07
0.00253102
-1.82473e-06
0.00253192
-2.40697e-06
0.00253277
-2.3247e-06
0.0025334
-1.75113e-06
0.0025337
-8.3348e-07
0.00253362
2.43081e-07
0.00253314
1.37333e-06
0.0025323
2.42111e-06
0.00253118
3.24447e-06
4.19754e-06
0.00250202
-8.3985e-06
0.00250818
-2.55275e-05
0.00251899
-4.44777e-05
0.00253523
-6.60237e-05
0.0025578
-9.0439e-05
0.00258743
-0.000116812
0.00262439
-0.000143185
0.00266776
-0.000165372
0.00271535
-0.000178805
0.00276305
-0.000177734
0.00280565
-0.000158748
0.0028394
-0.00012548
0.00286126
-8.05034e-05
0.0028688
-2.64954e-05
0.00286007
3.35798e-05
0.00283434
9.43256e-05
0.00279397
0.000145648
0.00274457
0.000176897
0.00269373
0.000181402
0.00264951
0.000157366
0.00261928
0.000107492
0.00260866
3.86768e-05
0.00262044
-3.80215e-05
0.00265276
-0.000106226
0.00269737
-0.000145494
0.00274032
-0.000139052
0.0027669
-8.51445e-05
0.00276799
-8.405e-07
0.00274299
8.74344e-05
0.00269801
0.000157552
0.00264196
0.000198254
0.00258375
0.000207036
0.00253144
0.000185243
0.00249261
0.000134591
0.00247489
5.66229e-05
0.00248576
-4.465e-05
0.00252979
-0.000156676
0.00260356
-0.000253234
0.00269218
-0.000299852
0.00277236
-0.000271916
0.00282201
-0.000172516
0.00282966
-3.33505e-05
0.0027975
0.000103026
0.00273733
0.00020426
0.00266359
0.000258186
0.00258855
0.000267959
0.00252132
0.000241574
0.00246922
0.000184486
0.00243931
9.82351e-05
0.00243888
-1.57538e-05
0.00247419
-0.000149082
0.00254683
-0.000279578
0.00264883
-0.000371457
0.00276022
-0.000387449
0.00285318
-0.00030929
0.00290233
-0.000153024
0.00289593
3.46308e-05
0.00284021
0.00019907
0.0027539
0.000304064
0.00265783
0.000342538
0.00256737
0.000327959
0.00249101
0.000278203
0.0024336
0.000203694
0.00240104
0.000104694
0.0024022
-2.18358e-05
0.00244517
-0.000168958
0.00252959
-0.000310645
0.00264208
-0.000407753
0.00275917
-0.000426579
0.00285557
-0.000355546
0.00291195
-0.000209609
0.00291888
-2.35388e-05
0.00287767
0.000159024
0.00279935
0.000298019
0.00270119
0.00036998
0.00260102
0.000374428
0.00251263
0.000327365
0.00244595
0.000244995
0.00241066
0.000132099
0.00241724
-1.2393e-05
0.00247192
-0.000177917
0.00257
-0.000333528
0.00269445
-0.00043878
0.00282096
-0.000463782
0.0029254
-0.000402486
0.0029902
-0.000273386
0.00300809
-0.00011065
0.00298252
4.87737e-05
0.00292503
0.000175709
0.0028508
0.000253049
0.00277511
0.000274108
0.00271188
0.000239176
0.0026738
0.000153201
0.00267218
2.53797e-05
0.0027145
-0.000128445
0.00280038
-0.000283222
0.00291943
-0.000407812
0.00305345
-0.000474215
0.00318127
-0.000466774
0.00328361
-0.000385944
0.0033461
-0.000246766
0.0033611
-7.47005e-05
0.00332856
9.96789e-05
0.00325615
0.000246515
0.00315749
0.000343681
0.00304874
0.000382551
0.00294444
0.000369247
0.00285475
0.00031987
0.00278506
0.000251704
0.00273759
0.000175819
0.00271316
9.60288e-05
0.00271165
1.3751e-05
0.00273137
-6.65056e-05
0.00276824
-0.000135594
0.00281583
-0.000182319
0.0028661
-0.000197235
0.00291042
-0.000175414
0.00294062
-0.000117852
0.0029501
-3.22043e-05
0.00293521
6.7179e-05
0.00289666
0.000161218
0.00283992
0.000231212
0.00277387
0.000265111
0.00270823
0.000261323
0.00265094
0.000227796
0.00260665
0.000177385
0.0025767
0.000122604
0.00255994
7.2374e-05
0.00255391
3.13675e-05
0.00255573
9.89505e-07
0.0025626
-1.9206e-05
0.0025721
-3.04133e-05
0.00258219
-3.39813e-05
0.0025912
-3.12445e-05
0.00259787
-2.36004e-05
0.00260136
-1.26264e-05
0.00260128
-8.42241e-08
0.00259779
1.22363e-05
0.00259142
2.27711e-05
0.00258302
3.0417e-05
0.00257358
3.46487e-05
0.00256403
3.54969e-05
0.00255516
3.34257e-05
0.00254755
2.91665e-05
0.00254153
2.35594e-05
0.00253722
1.74226e-05
0.00253452
1.14616e-05
0.00253321
6.21044e-06
0.002533
2.01129e-06
0.00253353
-9.83807e-07
0.00253448
-2.77487e-06
0.00253556
-3.48718e-06
0.00253654
-3.30108e-06
0.00253724
-2.45905e-06
0.00253757
-1.16151e-06
0.00253748
3.33178e-07
0.00253696
1.89653e-06
0.00253606
3.31657e-06
0.00253485
4.45961e-06
5.69877e-06
0.00250192
-1.03205e-05
0.00250779
-3.13966e-05
0.0025182
-5.48888e-05
0.00253407
-8.18874e-05
0.0025565
-0.000112873
0.00258653
-0.000146839
0.00262476
-0.000181418
0.0026705
-0.000211107
0.00272158
-0.000229885
0.00277321
-0.000229368
0.00281925
-0.000204789
0.00285575
-0.000161974
0.00287963
-0.000104389
0.00288833
-3.51952e-05
0.00287932
4.25897e-05
0.00285116
0.000122487
0.0028061
0.000190703
0.00275051
0.000232488
0.00269306
0.000238853
0.00264293
0.000207499
0.00260853
0.000141886
0.00259659
5.06242e-05
0.00261099
-5.24231e-05
0.0026504
-0.000145641
0.00270535
-0.000200441
0.00275864
-0.000192339
0.00279178
-0.000118285
0.00279368
-2.73741e-06
0.00276443
0.000116681
0.00271234
0.000209644
0.00264835
0.000262241
0.0025825
0.000272888
0.00252318
0.000244559
0.00247819
0.000179586
0.00245608
7.87289e-05
0.0024663
-5.48638e-05
0.00251569
-0.000206068
0.00260176
-0.000339308
0.00270742
-0.000405508
0.00280364
-0.000368142
0.00286197
-0.000230847
0.00286841
-3.97856e-05
0.00282743
0.000144006
0.00275533
0.000276359
0.00267019
0.000343323
0.00258579
0.00035236
0.00251099
0.00031638
0.00245183
0.000243644
0.00241399
0.000136074
0.00240494
-6.7007e-06
0.00243406
-0.000178205
0.0025071
-0.000352614
0.00261731
-0.000481667
0.00274246
-0.000512606
0.00285128
-0.000418105
0.0029145
-0.000216248
0.00291602
3.31096e-05
0.00285962
0.000255477
0.0027657
0.000397978
0.00265944
0.000448797
0.0025596
0.000427799
0.0024753
0.000362505
0.00241087
0.000268124
0.00237339
0.000142174
0.002375
-2.34415e-05
0.00242576
-0.000219723
0.00252323
-0.000408107
0.00264914
-0.000533669
0.00277575
-0.000553188
0.00287572
-0.000455514
0.00293012
-0.000264006
0.00293176
-2.51864e-05
0.00288441
0.000206378
0.00280026
0.000382171
0.00269651
0.000473725
0.00259068
0.000480266
0.00249689
0.000421146
0.00242673
0.00031516
0.00239247
0.00016636
0.00240626
-2.6181e-05
0.00247295
-0.000244613
0.00258388
-0.000444459
0.00271811
-0.000573005
0.00284941
-0.000595083
0.00295368
-0.000506753
0.00301402
-0.000333726
0.00302369
-0.000120321
0.00298698
8.54835e-05
0.00291721
0.000245477
0.00283196
0.000338298
0.00274838
0.000357686
0.00268143
0.000306131
0.00264465
0.00018998
0.00265012
1.99071e-05
0.00270462
-0.000182945
0.00280457
-0.000383171
0.00293536
-0.000538597
0.00307604
-0.000614899
0.00320541
-0.000596143
0.00330589
-0.000486422
0.0033651
-0.000305973
0.00337642
-8.60212e-05
0.00333973
0.000136361
0.00326212
0.000324126
0.00315692
0.000448883
0.00304062
0.000498848
0.00292869
0.000481181
0.00283235
0.000416206
0.00275795
0.000326106
0.00270828
0.000225486
0.00268414
0.000120169
0.00268473
1.31634e-05
0.00270722
-8.89945e-05
0.00274645
-0.000174822
0.00279529
-0.000231162
0.00284559
-0.000247533
0.00288921
-0.000219034
0.00291891
-0.000147553
0.00292898
-4.22735e-05
0.00291604
8.01141e-05
0.00288031
0.000196954
0.00282635
0.000285169
0.00276241
0.00032905
0.0026981
0.000325639
0.00264166
0.000284233
0.00259823
0.000220817
0.00256949
0.000151345
0.00255444
8.74167e-05
0.00255056
3.52483e-05
0.00255475
-3.19777e-06
0.00256399
-2.84446e-05
0.00257564
-4.20663e-05
0.00258753
-4.58668e-05
0.0025979
-4.1615e-05
0.00260543
-3.11322e-05
0.00260926
-1.64618e-05
0.00260907
1.09167e-07
0.00260506
1.62502e-05
0.0025979
2.99272e-05
0.0025886
3.97221e-05
0.00257826
4.4989e-05
0.00256793
4.58181e-05
0.0025585
4.2863e-05
0.00255055
3.71145e-05
0.00254442
2.96884e-05
0.00254018
2.16576e-05
0.00253771
1.39348e-05
0.00253672
7.20088e-06
0.00253685
1.88017e-06
0.00253772
-1.85244e-06
0.00253896
-4.01873e-06
0.00254028
-4.79916e-06
0.00254141
-4.4392e-06
0.00254222
-3.26047e-06
0.00254257
-1.51968e-06
0.00254247
4.42325e-07
0.00254188
2.48518e-06
0.0025409
4.2935e-06
0.00253956
5.79677e-06
7.28596e-06
0.00250179
-1.2107e-05
0.00250726
-3.68723e-05
0.00251711
-6.47343e-05
0.0025324
-9.71843e-05
0.00255454
-0.000135011
0.00258494
-0.000177239
0.0026247
-0.000221171
0.00267343
-0.000259843
0.00272912
-0.000285576
0.00278598
-0.000286225
0.00283648
-0.000255285
0.00287652
-0.000202015
0.00290313
-0.000131
0.00291358
-4.56488e-05
0.00290446
5.1712e-05
0.00287314
0.000153804
0.00282179
0.00024206
0.00275787
0.000296406
0.0026916
0.000305123
0.00263358
0.000265513
0.00259354
0.000181926
0.00257959
6.45829e-05
0.00259723
-7.00682e-05
0.0026461
-0.000194512
0.00271522
-0.000269562
0.00278282
-0.000259933
0.00282494
-0.000160407
0.00282772
-5.51867e-06
0.00279243
0.000151967
0.00273066
0.000271418
0.00265622
0.000336676
0.00258054
0.000348574
0.00251223
0.000312862
0.00245922
0.000232605
0.0024308
0.000107139
0.00243764
-6.16986e-05
0.00248824
-0.000256666
0.00258309
-0.000434164
0.00270736
-0.000529772
0.0028278
-0.000488584
0.00290491
-0.000307956
0.00291587
-5.07482e-05
0.00286582
0.000194054
0.00277825
0.000363935
0.00267799
0.000443582
0.00258166
0.000448689
0.00249741
0.000400634
0.00242872
0.000312327
0.00237962
0.000185176
0.00236018
1.27444e-05
0.00238607
-0.000204099
0.0024665
-0.00043304
0.00259115
-0.000606321
0.00273119
-0.00065265
0.00285175
-0.000538663
0.00292375
-0.000288247
0.00293095
2.59078e-05
0.00287499
0.000311441
0.00277536
0.000497611
0.00265948
0.00056467
0.00254933
0.000537955
0.00245564
0.000456194
0.00238382
0.00033994
0.00234368
0.000182316
0.00235033
-3.00867e-05
0.00241314
-0.000282537
0.00252494
-0.000519903
0.00266263
-0.000671362
0.00279626
-0.000686815
0.00289822
-0.000557481
0.00294986
-0.000315642
0.00294497
-2.02965e-05
0.00288946
0.000261892
0.00279762
0.000474011
0.00268732
0.000584021
0.0025757
0.000591885
0.00247707
0.000519773
0.00240479
0.000387441
0.00237361
0.000197542
0.00239616
-4.87276e-05
0.00247442
-0.00032287
0.00259534
-0.000565385
0.00273504
-0.000712699
0.00286681
-0.000726861
0.00296776
-0.000607698
0.00302238
-0.000388347
0.00302456
-0.000122502
0.00297867
0.00013137
0.00289864
0.000325511
0.00280358
0.000433358
0.00271259
0.000448678
0.00264248
0.000376234
0.00260849
0.000223973
0.0026231
5.29548e-06
0.00269051
-0.000250355
0.00280204
-0.0004947
0.00293873
-0.000675282
0.00307865
-0.000754825
0.0032027
-0.000720193
0.00329645
-0.000580174
0.00335
-0.000359517
0.00335776
-9.37797e-05
0.00331926
0.000174861
0.00324039
0.000402993
0.00313331
0.000555965
0.00301399
0.000618166
0.0028982
0.00059697
0.00279807
0.00051634
0.00272101
0.000403167
0.00267063
0.000275862
0.00264789
0.000142909
0.00265142
9.63085e-06
0.00267738
-0.000114947
0.0027195
-0.000216948
0.00276991
-0.000281566
0.00282019
-0.000297819
0.0028626
-0.000261444
0.0028908
-0.000175757
0.00290026
-5.17265e-05
0.00288843
9.1944e-05
0.0028555
0.000229883
0.00280524
0.000335433
0.00274487
0.00038942
0.00268339
0.000387112
0.00262907
0.000338562
0.00258739
0.000262495
0.00256048
0.000178248
0.00254763
0.00010027
0.00254631
3.65675e-05
0.00255326
-1.01487e-05
0.00256522
-4.04059e-05
0.00257935
-5.61886e-05
0.00259331
-5.9828e-05
0.00260528
-5.35848e-05
0.00261388
-3.97345e-05
0.00261823
-2.08096e-05
0.002618
3.37869e-07
0.00261347
2.07785e-05
0.00260545
3.79471e-05
0.0025951
5.00706e-05
0.00258371
5.63782e-05
0.00257248
5.70487e-05
0.00256237
5.29735e-05
0.00255403
4.5456e-05
0.00254778
3.59354e-05
0.00254367
2.5775e-05
0.00254148
1.61175e-05
0.00254089
7.79871e-06
0.00254144
1.322e-06
0.00254272
-3.12745e-06
0.00254431
-5.61001e-06
0.00254589
-6.37879e-06
0.00254721
-5.75837e-06
0.00254811
-4.16112e-06
0.00254849
-1.90326e-06
0.00254835
5.81937e-07
0.00254768
3.15689e-06
0.00254661
5.36893e-06
0.00254512
7.28305e-06
8.97137e-06
0.00250161
-1.37143e-05
0.00250656
-4.18251e-05
0.00251563
-7.38072e-05
0.00253011
-0.000111656
0.00255169
-0.0001566
0.00258234
-0.00020788
0.00262378
-0.000262611
0.00267617
-0.00031224
0.00273779
-0.000347198
0.00280137
-0.000349806
0.00285738
-0.000311293
0.00290168
-0.000246314
0.00293157
-0.000160893
0.00294435
-5.84258e-05
0.00293547
6.05955e-05
0.00290054
0.000188731
0.00284141
0.000301193
0.00276697
0.000370843
0.00268944
0.000382657
0.00262121
0.000333738
0.0025736
0.000229537
0.00255651
8.16778e-05
0.00257782
-9.13822e-05
0.00263889
-0.000255588
0.002727
-0.000357665
0.00281395
-0.000346882
0.00286806
-0.000214518
0.00287164
-9.09992e-06
0.00282789
0.000195719
0.00275322
0.000346087
0.00266544
0.000424459
0.00257758
0.000436428
0.00249836
0.000392084
0.00243539
0.000295573
0.00239716
0.000145371
0.00239276
-5.72999e-05
0.00243241
-0.000296313
0.00252472
-0.000526473
0.00266366
-0.00066871
0.00281556
-0.000640492
0.00292757
-0.000419962
0.00295919
-8.23728e-05
0.00290843
0.000244817
0.00280572
0.000466642
0.00268725
0.000562058
0.00257609
0.000559843
0.00248014
0.000496584
0.00239955
0.000392919
0.00233809
0.000246639
0.00231192
3.89106e-05
0.00234332
-0.0002355
0.00243996
-0.000529677
0.00258315
-0.000749512
0.00273672
-0.000806217
0.00286352
-0.000665465
0.00293656
-0.000361286
0.0029428
1.96722e-05
0.00288455
0.000369684
0.00277988
0.00060228
0.00265585
0.000688698
0.00253586
0.000657945
0.0024327
0.000559359
0.00235458
0.000418056
0.00231484
0.000222062
0.00232972
-4.49671e-05
0.00240498
-0.000357801
0.00252785
-0.000642771
0.00267215
-0.000815661
0.00280832
-0.000822984
0.00291038
-0.000659545
0.00296016
-0.000365422
0.00295089
-1.10299e-05
0.00288877
0.000324016
0.0027897
0.00057308
0.00267292
0.000700801
0.0025559
0.000708908
0.00245346
0.000622212
0.00238071
0.000460188
0.00235408
0.000224169
0.0023853
-7.9945e-05
0.00247267
-0.000410239
0.00259936
-0.000692074
0.00273984
-0.000853188
0.00286809
-0.000855103
0.00296292
-0.000702534
0.00301056
-0.000435985
0.00300573
-0.000117667
0.00295271
0.000184387
0.00286523
0.000412994
0.00276294
0.000535642
0.00266651
0.000545108
0.00259507
0.00044768
0.00256582
0.000253218
0.00259062
-1.95083e-05
0.00266905
-0.000328785
0.00278652
-0.000612162
0.00292119
-0.000809953
0.00305267
-0.000886313
0.0031657
-0.00083322
0.00324942
-0.000663891
0.00329605
-0.000406148
0.00330071
-9.84407e-05
0.00326247
0.000213102
0.00318593
0.000479529
0.00308168
0.000660217
0.00296447
0.000735377
0.00284965
0.000711789
0.00274979
0.000616201
0.00267327
0.000479689
0.00262462
0.000324513
0.00260514
0.000162384
0.00261304
1.73262e-06
0.00264339
-0.000145294
0.00268874
-0.000262298
0.00274048
-0.000333314
0.00279028
-0.000347619
0.00283098
-0.000302141
0.00285712
-0.000201894
0.00286517
-5.97742e-05
0.00285356
0.000103546
0.00282295
0.000260499
0.00277666
0.000381719
0.00272091
0.000445174
0.00266372
0.000444301
0.0026129
0.000389377
0.00257409
0.000301311
0.00254978
0.000202554
0.00253958
0.000110466
0.00254107
3.50785e-05
0.00255086
-1.99367e-05
0.00256549
-5.5037e-05
0.00258198
-7.26781e-05
0.00259797
-7.58135e-05
0.00261161
-6.7233e-05
0.00262152
-4.96362e-05
0.00262671
-2.60011e-05
0.00262679
2.52463e-07
0.00262204
2.55327e-05
0.00261334
4.66472e-05
0.00260202
6.1386e-05
0.00258958
6.88189e-05
0.0025774
6.92303e-05
0.00256657
6.3802e-05
0.00255781
5.42148e-05
0.00255146
4.22933e-05
0.00254749
2.97392e-05
0.00254565
1.79555e-05
0.00254551
7.94513e-06
0.00254654
2.85102e-07
0.00254826
-4.84562e-06
0.00255022
-7.56814e-06
0.00255207
-8.23015e-06
0.00255357
-7.252e-06
0.00255455
-5.14885e-06
0.00255495
-2.29876e-06
0.00255477
7.63941e-07
0.002554
3.92239e-06
0.00255282
6.5487e-06
0.00255117
8.93176e-06
1.07531e-05
0.00250138
-1.50908e-05
0.00250565
-4.61003e-05
0.00251369
-8.18501e-05
0.002527
-0.000124962
0.00254766
-0.000177261
0.00257827
-0.000238491
0.00262145
-0.000305784
0.00267818
-0.000368978
0.00274736
-0.000416372
0.00281951
-0.000421954
0.00288223
-0.000374017
0.00293163
-0.000295718
0.00296574
-0.000195002
0.00298199
-7.46697e-05
0.00297396
6.86222e-05
0.00293457
0.000228127
0.00286532
0.000370436
0.00277734
0.000458827
0.00268554
0.000474461
0.00260443
0.00041484
0.00254701
0.000286957
0.00252527
0.000103419
0.00255072
-0.00011683
0.00262811
-0.000332974
0.00274228
-0.000471842
0.00285513
-0.000459734
0.00292421
-0.000283592
0.00292756
-1.24489e-05
0.00287178
0.000251491
0.00278016
0.000437715
0.0026757
0.000528919
0.00257332
0.000538805
0.00248153
0.000483878
0.00240625
0.00037085
0.00235185
0.000199767
0.00232515
-3.05939e-05
0.00234416
-0.000315328
0.00243066
-0.000612973
0.0025837
-0.000821744
0.00276616
-0.000822959
0.00291734
-0.000571135
0.00298226
-0.000147291
0.00294457
0.000282505
0.00283386
0.000577345
0.00269757
0.000698352
0.00256927
0.00068814
0.00245914
0.000606715
0.00236536
0.000486698
0.00229402
0.000317986
0.00226831
6.4611e-05
0.00231257
-0.000279754
0.00242715
-0.000644255
0.00258483
-0.000907193
0.00274651
-0.000967898
0.00287594
-0.000794896
0.00294749
-0.000432834
0.00294989
1.72705e-05
0.0028872
0.00043237
0.0027775
0.000711987
0.00264681
0.000819389
0.00251847
0.000786282
0.00240719
0.000670642
0.00232492
0.000500327
0.00228811
0.000258864
0.00231195
-6.87999e-05
0.00239703
-0.000442879
0.00252589
-0.000771636
0.00267135
-0.000961116
0.00280577
-0.000957411
0.00290574
-0.000759512
0.00295414
-0.000413819
0.00294325
-1.40734e-07
0.00287795
0.000389317
0.00277426
0.000676766
0.00265255
0.00082251
0.00253129
0.000830172
0.00242644
0.000727062
0.00235477
0.000531857
0.00233337
0.000245571
0.00237192
-0.000118501
0.00246499
-0.00050331
0.00259304
-0.000820115
0.00273018
-0.00099033
0.00285173
-0.000976657
0.00293843
-0.000789228
0.00297812
-0.000475678
0.00296648
-0.000106026
0.00290784
0.000243023
0.00281544
0.000505393
0.00270882
0.00064227
0.0026097
0.000644222
0.00253953
0.000517854
0.00251699
0.000275752
0.00255157
-5.40866e-05
0.00263675
-0.000413961
0.00275285
-0.000728259
0.00287782
-0.00093493
0.00299507
-0.00100356
0.00309379
-0.000931944
0.00316615
-0.000736251
0.00320566
-0.000445655
0.00320769
-0.000100473
0.00317098
0.00024981
0.00309921
0.000551302
0.00300147
0.000757959
0.00289093
0.00084591
0.0027819
0.000820826
0.00268678
0.000711318
0.00261462
0.000551845
0.00257084
0.000368296
0.00255708
0.000176145
0.00257089
-1.20818e-05
0.00260596
-0.000180358
0.00265364
-0.000309981
0.00270521
-0.000384886
0.00275321
-0.000395611
0.00279161
-0.00034055
0.00281582
-0.000226097
0.00282282
-6.67769e-05
0.00281161
0.000114757
0.00278331
0.000288798
0.00274123
0.000423799
0.00269083
0.000495572
0.00263911
0.000496024
0.00259313
0.00043536
0.00255832
0.000336118
0.0025374
0.000223469
0.00253023
0.000117639
0.00253444
3.08685e-05
0.00254655
-3.20489e-05
0.00256304
-7.15277e-05
0.00258104
-9.06713e-05
0.00259842
-9.31945e-05
0.00261356
-8.23797e-05
0.00262509
-6.11571e-05
0.00263182
-3.27402e-05
0.0026331
-1.02616e-06
0.00262897
2.9663e-05
0.00262028
5.53422e-05
0.00260847
7.31954e-05
0.00259526
8.20307e-05
0.00258227
8.22207e-05
0.00257078
7.52848e-05
0.00256164
6.33602e-05
0.00255519