/*--------------------------------*- C++ -*----------------------------------*\
  =========                 |
  \\      /  F ield         | OpenFOAM: The Open Source CFD Toolbox
   \\    /   O peration     | Website:  https://openfoam.org
    \\  /    A nd           | Version:  11
     \\/     M anipulation  |
\*---------------------------------------------------------------------------*/
FoamFile
{
    format      ascii;
    class       surfaceScalarField;
    location    "6.649256";
    object      phi_0;
}
// * * * * * * * * * * * * * * * * * * * * * * * * * * * * * * * * * * * * * //

dimensions      [0 3 -1 0 0 0 0];

internalField   nonuniform List<scalar> 
14638
(
0.00250288
-2.87912e-06
0.00251157
-8.68857e-06
0.00252642
-1.48572e-05
0.00254793
-2.15085e-05
0.00257661
-2.86777e-05
0.00261278
-3.61677e-05
0.00265637
-4.35881e-05
0.00270652
-5.01571e-05
0.00276156
-5.50368e-05
0.00281889
-5.73264e-05
0.00287541
-5.65237e-05
0.00292874
-5.33275e-05
0.00297711
-4.83708e-05
0.0030194
-4.22877e-05
0.00305503
-3.56365e-05
0.0030838
-2.877e-05
0.00310571
-2.19052e-05
0.00312088
-1.51695e-05
0.00312955
-8.66768e-06
0.00313208
-2.5323e-06
0.00312902
3.05849e-06
0.0031211
7.91637e-06
0.00310919
1.19152e-05
0.00309412
1.50635e-05
0.00307659
1.75364e-05
0.00305695
1.96428e-05
0.00303521
2.17317e-05
0.00301115
2.40683e-05
0.00298442
2.67286e-05
0.00295486
2.95601e-05
0.00292263
3.22274e-05
0.00288831
3.43205e-05
0.00285283
3.54764e-05
0.00281736
3.54702e-05
0.00278311
3.42519e-05
0.00275117
3.19369e-05
0.00272241
2.87641e-05
0.00269737
2.50435e-05
0.00267626
2.1105e-05
0.002659
1.72566e-05
0.00264525
1.37535e-05
0.00263447
1.07791e-05
0.00262604
8.43617e-06
0.00261929
6.7483e-06
0.00261362
5.66949e-06
0.00260852
5.10089e-06
0.00260361
4.91158e-06
0.00259864
4.96049e-06
0.00259353
5.1156e-06
0.00258826
5.26816e-06
0.00258292
5.34065e-06
0.00257763
5.2887e-06
0.00257253
5.0983e-06
0.00256775
4.77999e-06
0.00256339
4.36155e-06
0.00255951
3.88059e-06
0.00255613
3.37785e-06
0.00255324
2.89167e-06
0.00255079
2.45404e-06
0.0025487
2.08805e-06
0.00254689
1.80682e-06
0.00254528
1.61369e-06
0.00254378
1.50335e-06
0.00254231
1.46377e-06
0.00254083
1.47857e-06
0.0025393
1.52935e-06
0.00253771
1.59801e-06
0.00253604
1.66853e-06
0.00253431
1.72823e-06
0.00253254
1.76843e-06
0.00253076
1.78453e-06
0.00252898
1.77566e-06
0.00252724
1.744e-06
0.00252554
1.69386e-06
0.00252391
1.63081e-06
0.00252235
1.56085e-06
0.00252086
1.48964e-06
0.00251944
1.42205e-06
0.00251808
1.36178e-06
0.00251677
1.31123e-06
0.00251549
1.27148e-06
0.00251425
1.24244e-06
0.00251303
1.22307e-06
0.00251182
1.21162e-06
0.00251061
1.20597e-06
0.00250941
1.20388e-06
0.0025082
1.20323e-06
0.002507
1.20225e-06
0.0025058
1.19959e-06
0.00250461
1.1944e-06
0.00250342
1.18626e-06
0.00250225
1.17518e-06
0.00250109
1.1614e-06
0.00249994
1.14536e-06
0.00249881
1.12751e-06
0.0024977
1.10827e-06
0.00249662
1.08796e-06
0.00249555
1.0667e-06
0.00249451
1.04442e-06
0.00249348
1.02082e-06
0.00249249
9.95409e-07
0.00249152
9.67569e-07
0.00249058
9.36623e-07
0.00248968
9.01921e-07
0.00248882
8.62776e-07
0.002488
8.18171e-07
0.00248724
7.66142e-07
0.00248653
7.02895e-07
0.00248591
6.2191e-07
0.0024854
5.13522e-07
0.00248503
3.65581e-07
0.00248487
1.65644e-07
0.00248496
-9.5211e-08
0.00248538
-4.17572e-07
0.00248617
-7.8916e-07
0.00248735
-1.18232e-06
0.00248891
-1.55512e-06
0.00249076
-1.85697e-06
0.0024928
-2.03811e-06
0.00249486
-2.06113e-06
0.00249677
-1.91138e-06
0.00249838
-1.60301e-06
0.00249955
-1.17842e-06
0.00250026
-7.00653e-07
0.0025005
-2.40426e-07
0.00250036
1.38686e-07
0.00249996
3.92986e-07
0.00249946
5.0599e-07
0.00249897
4.88801e-07
0.0024986
3.74085e-07
0.00249839
2.0593e-07
0.00249836
2.87393e-08
0.00249848
-1.21939e-07
0.00249871
-2.24715e-07
0.00249898
-2.73294e-07
0.00249925
-2.7379e-07
0.00249949
-2.3994e-07
0.00249968
-1.87941e-07
0.00249981
-1.32248e-07
0.0024999
-8.30946e-08
0.00249994
-4.57813e-08
0.00249996
-2.13378e-08
0.00249997
-7.92111e-09
0.00249997
-2.34634e-09
0.00249998
-1.32787e-09
0.00249998
-2.23981e-09
0.00249998
-3.4023e-09
0.00249999
-4.01883e-09
0.00249999
-3.92866e-09
0.00249999
-3.31729e-09
0.0025
-2.47758e-09
0.0025
-1.66044e-09
0.0025
-1.01304e-09
0.0025
-5.79016e-10
0.0025
-3.32159e-10
0.0025
-2.13479e-10
0.0025
-1.6616e-10
0.0025
-1.43153e-10
0.0025
-1.30147e-10
-9.20653e-11
0.00250285
-5.7318e-06
0.00251147
-1.73037e-05
0.00252622
-2.96094e-05
0.00254763
-4.29161e-05
0.00257626
-5.73071e-05
0.00261249
-7.24005e-05
0.00265632
-8.74208e-05
0.00270693
-0.000100767
0.00276262
-0.000110723
0.00282067
-0.000115376
0.00287781
-0.000113668
0.00293161
-0.000107125
0.00298029
-9.70545e-05
0.00302276
-8.47549e-05
0.00305848
-7.13578e-05
0.00308727
-5.75627e-05
0.00310916
-4.37924e-05
0.00312428
-3.02869e-05
0.00313286
-1.72444e-05
0.00313525
-4.92733e-06
0.00313201
6.30007e-06
0.00312388
1.60457e-05
0.00311175
2.40421e-05
0.00309652
3.02998e-05
0.00307888
3.51766e-05
0.00305921
3.93114e-05
0.00303751
4.34292e-05
0.0030135
4.80836e-05
0.00298679
5.34355e-05
0.00295718
5.91712e-05
0.00292481
6.45969e-05
0.00289026
6.88662e-05
0.00285451
7.12328e-05
0.00281874
7.12364e-05
0.00278421
6.87786e-05
0.00275205
6.40977e-05
0.00272313
5.7683e-05
0.00269801
5.0166e-05
0.0026769
4.22162e-05
0.0026597
3.44569e-05
0.00264605
2.74036e-05
0.0026354
2.14255e-05
0.00262711
1.67286e-05
0.0026205
1.33584e-05
0.00261495
1.12196e-05
0.00260994
1.01099e-05
0.00260509
9.76276e-06
0.00260016
9.89137e-06
0.00259505
1.02282e-05
0.00258976
1.05536e-05
0.00258439
1.07116e-05
0.00257906
1.06136e-05
0.00257393
1.02327e-05
0.00256912
9.59139e-06
0.00256473
8.74682e-06
0.00256084
7.7758e-06
0.00255746
6.76112e-06
0.00255457
5.78058e-06
0.00255212
4.89887e-06
0.00255005
4.16261e-06
0.00254826
3.59818e-06
0.00254666
3.21208e-06
0.00254517
2.99336e-06
0.00254371
2.91748e-06
0.00254224
2.95109e-06
0.00254071
3.05689e-06
0.00253911
3.19818e-06
0.00253744
3.34257e-06
0.0025357
3.46447e-06
0.00253392
3.54642e-06
0.00253213
3.57928e-06
0.00253034
3.56143e-06
0.00252859
3.49737e-06
0.00252689
3.39596e-06
0.00252525
3.26856e-06
0.00252368
3.12729e-06
0.00252219
2.98369e-06
0.00252076
2.84757e-06
0.0025194
2.72639e-06
0.00251809
2.62498e-06
0.00251681
2.54548e-06
0.00251557
2.48768e-06
0.00251434
2.44942e-06
0.00251313
2.42717e-06
0.00251191
2.4166e-06
0.00251071
2.41314e-06
0.0025095
2.41255e-06
0.00250829
2.41121e-06
0.00250708
2.40643e-06
0.00250588
2.39648e-06
0.00250468
2.38059e-06
0.0025035
2.35874e-06
0.00250233
2.33149e-06
0.00250118
2.29972e-06
0.00250004
2.26437e-06
0.00249892
2.22632e-06
0.00249782
2.18618e-06
0.00249675
2.14425e-06
0.00249569
2.10038e-06
0.00249466
2.054e-06
0.00249365
2.00414e-06
0.00249267
1.94954e-06
0.00249171
1.88884e-06
0.00249079
1.8207e-06
0.00248991
1.74373e-06
0.00248908
1.65588e-06
0.00248829
1.55331e-06
0.00248756
1.42863e-06
0.00248692
1.2691e-06
0.00248637
1.05585e-06
0.00248597
7.65015e-07
0.00248577
3.72015e-07
0.00248581
-1.40983e-07
0.00248617
-7.75587e-07
0.00248689
-1.50815e-06
0.00248799
-2.28465e-06
0.00248946
-3.02269e-06
0.00249123
-3.62238e-06
0.00249317
-3.98503e-06
0.00249515
-4.03601e-06
0.00249698
-3.74541e-06
0.00249852
-3.14038e-06
0.00249964
-2.30419e-06
0.00250031
-1.36138e-06
0.00250052
-4.52189e-07
0.00250036
2.96912e-07
0.00249995
7.98644e-07
0.00249944
1.0197e-06
0.00249895
9.81731e-07
0.00249857
7.49513e-07
0.00249837
4.10869e-07
0.00249834
5.44958e-08
0.00249847
-2.48404e-07
0.0024987
-4.54858e-07
0.00249898
-5.52138e-07
0.00249925
-5.52478e-07
0.0024995
-4.83533e-07
0.00249969
-3.77993e-07
0.00249982
-2.65104e-07
0.0024999
-1.65603e-07
0.00249995
-9.0245e-08
0.00249997
-4.11031e-08
0.00249997
-1.43963e-08
0.00249998
-3.60081e-09
0.00249998
-1.98746e-09
0.00249998
-4.1839e-09
0.00249998
-6.76596e-09
0.00249999
-8.12967e-09
0.00249999
-7.9793e-09
0.00249999
-6.72707e-09
0.0025
-4.99779e-09
0.0025
-3.31986e-09
0.0025
-1.99953e-09
0.0025
-1.12435e-09
0.0025
-6.35871e-10
0.0025
-4.08841e-10
0.0025
-3.24026e-10
0.0025
-2.84607e-10
0.0025
-2.61858e-10
-1.85449e-10
0.0025028
-8.5311e-06
0.00251126
-2.57647e-05
0.0025258
-4.41443e-05
0.00254699
-6.41095e-05
0.00257551
-8.58244e-05
0.00261185
-0.000108749
0.00265617
-0.000131735
0.00270769
-0.000152289
0.0027647
-0.000167736
0.00282423
-0.000174901
0.00288263
-0.000172068
0.00293737
-0.000161864
0.00298667
-0.000146358
0.00302949
-0.000127571
0.00306537
-0.000107238
0.0030942
-8.63936e-05
0.00311605
-6.56408e-05
0.00313106
-4.5301e-05
0.00313946
-2.56426e-05
0.00314158
-7.05135e-06
0.00313798
9.90598e-06
0.00312942
2.46006e-05
0.00311687
3.6591e-05
0.0031013
4.5877e-05
0.00308346
5.30154e-05
0.00306375
5.90197e-05
0.00304213
6.50489e-05
0.00301822
7.19925e-05
0.00299154
8.01139e-05
0.0029618
8.8916e-05
0.0029291
9.72972e-05
0.00289405
0.000103917
0.00285768
0.000107604
0.00282127
0.000107641
0.00278616
0.000103886
0.00275354
9.67197e-05
0.00272432
8.69071e-05
0.00269906
7.54264e-05
0.00267797
6.33083e-05
0.00266092
5.15072e-05
0.00264751
4.08088e-05
0.00263716
3.17728e-05
0.00262918
2.4708e-05
0.00262287
1.96768e-05
0.00261756
1.65263e-05
0.00261273
1.49404e-05
0.00260798
1.45058e-05
0.0026031
1.47803e-05
0.00259797
1.53536e-05
0.00259263
1.58909e-05
0.00258719
1.61566e-05
0.00258178
1.60194e-05
0.00257657
1.54422e-05
0.0025717
1.44631e-05
0.00256728
1.31726e-05
0.00256336
1.16901e-05
0.00255998
1.01433e-05
0.00255711
8.65148e-06
0.00255469
7.3135e-06
0.00255266
6.20005e-06
0.0025509
5.35068e-06
0.00254934
4.77444e-06
0.00254788
4.45373e-06
0.00254645
4.35027e-06
0.00254499
4.41245e-06
0.00254346
4.58289e-06
0.00254185
4.80535e-06
0.00254017
5.03037e-06
0.00253841
5.2191e-06
0.00253661
5.34527e-06
0.0025348
5.39536e-06
0.00253299
5.36739e-06
0.00253122
5.26866e-06
0.0025295
5.11305e-06
0.00252785
4.91815e-06
0.00252628
4.70266e-06
0.00252478
4.4842e-06
0.00252335
4.27775e-06
0.00252198
4.09463e-06
0.00252066
3.94204e-06
0.00251938
3.82317e-06
0.00251813
3.73753e-06
0.0025169
3.68172e-06
0.00251568
3.65022e-06
0.00251446
3.63634e-06
0.00251324
3.63311e-06
0.00251202
3.634e-06
0.00251079
3.63352e-06
0.00250957
3.6276e-06
0.00250836
3.61368e-06
0.00250715
3.59064e-06
0.00250595
3.55855e-06
0.00250476
3.51832e-06
0.00250359
3.47135e-06
0.00250243
3.41913e-06
0.0025013
3.36302e-06
0.00250018
3.304e-06
0.00249908
3.24251e-06
0.002498
3.17839e-06
0.00249695
3.1108e-06
0.00249591
3.03829e-06
0.0024949
2.95896e-06
0.00249392
2.87073e-06
0.00249297
2.77152e-06
0.00249205
2.65913e-06
0.00249118
2.5305e-06
0.00249035
2.37998e-06
0.00248958
2.19683e-06
0.00248889
1.96265e-06
0.0024883
1.65005e-06
0.00248784
1.22429e-06
0.00248756
6.49369e-07
0.00248752
-1.01152e-07
0.00248777
-1.03026e-06
0.00248837
-2.10411e-06
0.00248933
-3.24425e-06
0.00249064
-4.33027e-06
0.00249223
-5.21541e-06
0.002494
-5.75412e-06
0.0024958
-5.83562e-06
0.00249747
-5.41478e-06
0.00249886
-4.53056e-06
0.00249986
-3.30511e-06
0.00250042
-1.92201e-06
0.00250056
-5.88617e-07
0.00250035
5.07661e-07
0.00249991
1.23722e-06
0.00249938
1.55046e-06
0.00249888
1.47952e-06
0.00249851
1.12092e-06
0.00249831
6.05751e-07
0.0024983
6.66146e-08
0.00249844
-3.89923e-07
0.00249869
-6.99562e-07
0.00249898
-8.43464e-07
0.00249927
-8.40444e-07
0.00249952
-7.32665e-07
0.00249971
-5.6994e-07
0.00249984
-3.9685e-07
0.00249992
-2.44989e-07
0.00249996
-1.30663e-07
0.00249997
-5.68546e-08
0.00249998
-1.75519e-08
0.00249998
-2.54144e-09
0.00249998
-1.33995e-09
0.00249998
-5.62029e-09
0.00249998
-1.01266e-08
0.00249999
-1.24624e-08
0.00249999
-1.22741e-08
0.00249999
-1.02964e-08
0.0025
-7.56709e-09
0.0025
-4.94247e-09
0.0025
-2.90625e-09
0.0025
-1.58549e-09
0.0025
-8.74139e-10
0.0025
-5.64772e-10
0.0025
-4.64746e-10
0.0025
-4.22702e-10
0.0025
-3.96491e-10
-2.80831e-10
0.00250272
-1.12462e-05
0.00251093
-3.39819e-05
0.00252512
-5.83313e-05
0.00254596
-8.49501e-05
0.00257427
-0.000114135
0.00261076
-0.000145233
0.00265577
-0.000176752
0.00270868
-0.000205194
0.00276775
-0.000226807
0.00282957
-0.000236722
0.00288989
-0.00023239
0.00294605
-0.000218021
0.00299627
-0.000196577
0.00303958
-0.000170889
0.00307568
-0.000143337
0.00310456
-0.000115267
0.00312634
-8.74221e-05
0.00314119
-6.01557e-05
0.00314932
-3.37693e-05
0.00315103
-8.76126e-06
0.00314686
1.40717e-05
0.00313765
3.38115e-05
0.00312445
4.97908e-05
0.00310835
6.19762e-05
0.00309022
7.11495e-05
0.00307047
7.87696e-05
0.003049
8.65214e-05
0.00302528
9.57078e-05
0.00299867
0.000106723
0.00296874
0.000118851
0.00293553
0.000130503
0.0028997
0.000139752
0.00286237
0.00014493
0.00282498
0.000145037
0.00278897
0.000139894
0.00275564
0.000130053
0.00272595
0.000116597
0.00270048
0.000100891
0.00267943
8.4361e-05
0.00266262
6.8316e-05
0.0026496
5.38275e-05
0.00263972
4.16526e-05
0.00263223
3.22017e-05
0.00262636
2.55461e-05
0.00262142
2.1462e-05
0.00261686
1.95028e-05
0.00261227
1.90911e-05
0.00260744
1.96143e-05
0.00260229
2.0508e-05
0.00259686
2.13162e-05
0.0025913
2.17221e-05
0.00258576
2.1554e-05
0.00258043
2.07692e-05
0.00257547
1.94275e-05
0.00257098
1.76587e-05
0.00256704
1.56303e-05
0.00256367
1.35194e-05
0.00256083
1.14901e-05
0.00255846
9.67721e-06
0.00255649
8.17643e-06
0.0025548
7.0402e-06
0.00255329
6.27906e-06
0.00255188
5.86707e-06
0.00255048
5.75022e-06
0.00254904
5.85664e-06
0.00254751
6.10694e-06
0.00254589
6.42387e-06
0.00254418
6.73988e-06
0.0025424
7.00238e-06
0.00254057
7.17624e-06
0.00253872
7.24393e-06
0.00253689
7.20371e-06
0.00253509
7.06646e-06
0.00253335
6.85185e-06
0.00253168
6.58445e-06
0.0025301
6.29009e-06
0.00252859
5.99297e-06
0.00252715
5.71348e-06
0.00252578
5.46688e-06
0.00252446
5.2628e-06
0.00252318
5.10526e-06
0.00252192
4.99334e-06
0.00252068
4.92211e-06
0.00251945
4.88384e-06
0.00251821
4.86923e-06
0.00251698
4.86867e-06
0.00251574
4.87321e-06
0.0025145
4.87542e-06
0.00251325
4.86981e-06
0.00251201
4.85303e-06
0.00251078
4.8237e-06
0.00250956
4.78208e-06
0.00250835
4.72954e-06
0.00250715
4.6681e-06
0.00250597
4.5999e-06
0.00250481
4.52682e-06
0.00250366
4.45025e-06
0.00250253
4.37085e-06
0.00250142
4.28843e-06
0.00250033
4.20192e-06
0.00249926
4.10939e-06
0.00249821
4.00832e-06
0.00249718
3.89582e-06
0.00249619
3.76898e-06
0.00249522
3.62475e-06
0.00249429
3.45893e-06
0.00249341
3.26416e-06
0.00249258
3.02671e-06
0.00249182
2.72317e-06
0.00249115
2.31863e-06
0.00249061
1.76869e-06
0.00249023
1.02703e-06
0.00249007
5.92587e-08
0.00249018
-1.13921e-06
0.0024906
-2.52569e-06
0.00249135
-3.99982e-06
0.00249243
-5.40654e-06
0.00249377
-6.55599e-06
0.00249528
-7.25901e-06
0.00249681
-7.37089e-06
0.00249823
-6.83189e-06
0.00249939
-5.69172e-06
0.00250019
-4.10888e-06
0.00250059
-2.32257e-06
0.00250061
-6.03537e-07
0.00250031
8.03164e-07
0.00249982
1.72804e-06
0.00249927
2.10659e-06
0.00249876
1.98189e-06
0.0024984
1.48196e-06
0.00249823
7.80588e-07
0.00249824
5.3584e-08
0.00249841
-5.57791e-07
0.00249868
-9.68601e-07
0.00249899
-1.15468e-06
0.00249929
-1.14236e-06
0.00249955
-9.89337e-07
0.00249974
-7.63531e-07
0.00249987
-5.25641e-07
0.00249994
-3.18551e-07
0.00249998
-1.64158e-07
0.00249999
-6.6055e-08
0.00249998
-1.548e-08
0.00249998
2.03381e-09
0.00249998
1.19868e-09
0.00249998
-6.40414e-09
0.00249998
-1.35808e-08
0.00249999
-1.71909e-08
0.00249999
-1.69596e-08
0.00249999
-1.41001e-08
0.0025
-1.01896e-08
0.0025
-6.486e-09
0.0025
-3.67382e-09
0.0025
-1.90815e-09
0.0025
-1.0089e-09
0.0025
-6.608e-10
0.0025
-5.81037e-10
0.0025
-5.57359e-10
0.0025
-5.36337e-10
-3.79217e-10
0.0025026
-1.38416e-05
0.00251046
-4.18515e-05
0.00252415
-7.20135e-05
0.00254446
-0.000105261
0.00257242
-0.000142094
0.00260901
-0.000181827
0.00265492
-0.000222665
0.0027097
-0.000259973
0.00277165
-0.000288759
0.00283669
-0.000301761
0.00289965
-0.000295345
0.0029577
-0.000276074
0.00300911
-0.000247982
0.00305304
-0.000214825
0.00308939
-0.000179682
0.00311829
-0.000144168
0.00313997
-0.000109107
0.00315463
-7.4807e-05
0.0031624
-4.15477e-05
0.00316357
-9.92288e-06
0.00315864
1.90009e-05
0.00314851
4.39348e-05
0.0031344
6.39046e-05
0.00311757
7.88083e-05
0.00309903
8.96885e-05
0.00307924
9.85534e-05
0.00305802
0.00010775
0.00303462
0.000119108
0.00300815
0.000133193
0.00297798
0.00014902
0.00294409
0.000164391
0.00290718
0.000176663
0.00286853
0.000183573
0.00282977
0.000183798
0.00279253
0.000177133
0.00275823
0.000164352
0.00272792
0.000146912
0.00270219
0.000126622
0.0026812
0.000105345
0.00266474
8.47813e-05
0.00265226
6.63068e-05
0.00264303
5.08849e-05
0.0026362
3.90259e-05
0.00263095
3.07993e-05
0.00262652
2.58918e-05
0.00262232
2.37032e-05
0.00261794
2.3468e-05
0.00261317
2.43819e-05
0.00260797
2.57112e-05
0.00260242
2.68699e-05
0.00259668
2.74588e-05
0.00259097
2.72688e-05
0.00258548
2.6259e-05
0.00258038
2.45192e-05
0.00257582
2.22265e-05
0.00257184
1.96043e-05
0.00256848
1.68851e-05
0.00256568
1.42822e-05
0.00256339
1.19692e-05
0.0025615
1.00675e-05
0.0025599
8.64222e-06
0.00255847
7.70379e-06
0.00255713
7.21561e-06
0.00255577
7.10518e-06
0.00255435
7.27748e-06
0.00255283
7.62862e-06
0.00255119
8.05823e-06
0.00254946
8.47933e-06
0.00254763
8.82489e-06
0.00254576
9.05093e-06
0.00254387
9.13644e-06
0.00254199
9.08078e-06
0.00254016
8.89947e-06
0.00253839
8.6191e-06
0.0025367
8.2722e-06
0.0025351
7.89256e-06
0.00253358
7.51154e-06
0.00253214
7.15529e-06
0.00253076
6.8432e-06
0.00252944
6.58721e-06
0.00252815
6.39205e-06
0.00252689
6.25603e-06
0.00252564
6.17238e-06
0.00252439
6.13075e-06
0.00252314
6.11894e-06
0.00252188
6.12437e-06
0.00252062
6.13551e-06
0.00251936
6.14282e-06
0.00251809
6.13943e-06
0.00251682
6.12121e-06
0.00251555
6.08667e-06
0.0025143
6.03638e-06
0.00251306
5.97236e-06
0.00251183
5.89736e-06
0.00251061
5.81427e-06
0.00250941
5.72562e-06
0.00250823
5.63325e-06
0.00250706
5.53806e-06
0.00250591
5.43989e-06
0.00250478
5.33744e-06
0.00250366
5.22836e-06
0.00250256
5.10942e-06
0.00250148
4.97694e-06
0.00250042
4.82705e-06
0.00249939
4.65567e-06
0.00249839
4.45744e-06
0.00249743
4.22334e-06
0.00249652
3.937e-06
0.00249567
3.57079e-06
0.00249491
3.08354e-06
0.00249425
2.42269e-06
0.00249375
1.53318e-06
0.00249343
3.73686e-07
0.00249336
-1.06196e-06
0.00249355
-2.72366e-06
0.00249405
-4.49217e-06
0.00249482
-6.18208e-06
0.00249583
-7.56541e-06
0.00249699
-8.41407e-06
0.00249817
-8.55288e-06
0.00249924
-7.90891e-06
0.00250009
-6.54175e-06
0.00250063
-4.64318e-06
0.00250081
-2.50345e-06
0.00250066
-4.5161e-07
0.00250025
1.21442e-06
0.00249969
2.28894e-06
0.0024991
2.69483e-06
0.00249859
2.487e-06
0.00249825
1.82484e-06
0.00249811
9.24076e-07
0.00249816
2.74741e-09
0.00249836
-7.64249e-07
0.00249867
-1.27246e-06
0.00249901
-1.49366e-06
0.00249933
-1.4631e-06
0.00249959
-1.2555e-06
0.00249979
-9.58293e-07
0.00249991
-6.49321e-07
0.00249998
-3.83279e-07
0.0025
-1.87617e-07
0.0025
-6.60314e-08
0.00249999
-6.24544e-09
0.00249998
1.12699e-08
0.00249998
6.10819e-09
0.00249998
-6.50483e-09
0.00249998
-1.73214e-08
0.00249999
-2.25536e-08
0.00249999
-2.22141e-08
0.00249999
-1.82198e-08
0.0025
-1.28617e-08
0.0025
-7.89603e-09
0.0025
-4.23269e-09
0.0025
-2.03262e-09
0.0025
-1.00116e-09
0.0025
-6.78362e-10
0.0025
-6.68488e-10
0.0025
-6.91036e-10
0.0025
-6.85286e-10
-4.82046e-10
0.00250243
-1.62751e-05
0.00250983
-4.92502e-05
0.00252282
-8.49989e-05
0.00254237
-0.000124811
0.00256976
-0.000169488
0.00260636
-0.000218428
0.00265332
-0.00026962
0.00271048
-0.000317138
0.00277628
-0.000354555
0.00284562
-0.000371098
0.00291197
-0.000361702
0.0029724
-0.0003365
0.00302523
-0.000300811
0.00306986
-0.000259456
0.00310644
-0.000216264
0.00313532
-0.000173053
0.00315686
-0.000130644
0.00317125
-8.91957e-05
0.00317859
-4.88884e-05
0.00317905
-1.03867e-05
0.00317314
2.49176e-05
0.00316182
5.52528e-05
0.0031465
7.92223e-05
0.00312871
9.66014e-05
0.00310966
0.000108739
0.00308988
0.000118333
0.00306905
0.000128582
0.00304615
0.000142006
0.00301994
0.000159399
0.00298953
0.000179436
0.00295478
0.000199142
0.00291647
0.000214972
0.0028761
0.000223936
0.00283556
0.000224338
0.00279673
0.00021597
0.00276119
0.000199892
0.00273008
0.000178019
0.00270403
0.000152673
0.00268316
0.000126218
0.00266716
0.00010078
0.0026554
7.80704e-05
0.00264701
5.92674e-05
0.00264106
4.49787e-05
0.0026366
3.52568e-05
0.00263282
2.96742e-05
0.00262908
2.74464e-05
0.00262496
2.75886e-05
0.00262026
2.90773e-05
0.00261498
3.09897e-05
0.00260925
3.25997e-05
0.00260329
3.34238e-05
0.00259734
3.32209e-05
0.00259163
3.19608e-05
0.00258638
2.97743e-05
0.00258171
2.68974e-05
0.00257769
2.36187e-05
0.00257434
2.02339e-05
0.00257162
1.7011e-05
0.00256942
1.41656e-05
0.00256764
1.18462e-05
0.00256615
1.01297e-05
0.00256483
9.02458e-06
0.00256357
8.48034e-06
0.00256227
8.40237e-06
0.00256088
8.66883e-06
0.00255936
9.14796e-06
0.0025577
9.71367e-06
0.00255593
1.02578e-05
0.00255405
1.0698e-05
0.00255212
1.09817e-05
0.00255017
1.10848e-05
0.00254825
1.10092e-05
0.00254637
1.07764e-05
0.00254457
1.04214e-05
0.00254285
9.9858e-06
0.00254123
9.51255e-06
0.0025397
9.04086e-06
0.00253826
8.60314e-06
0.00253688
8.22302e-06
0.00253555
7.91472e-06
0.00253426
7.68337e-06
0.00253299
7.52615e-06
0.00253172
7.43397e-06
0.00253046
7.39342e-06
0.00252919
7.38891e-06
0.00252791
7.40458e-06
0.00252662
7.42601e-06
0.00252532
7.44147e-06
0.00252402
7.44262e-06
0.00252272
7.42469e-06
0.00252142
7.38619e-06
0.00252012
7.32823e-06
0.00251884
7.25364e-06
0.00251757
7.16612e-06
0.00251632
7.06945e-06
0.00251508
6.96689e-06
0.00251385
6.86082e-06
0.00251264
6.75242e-06
0.00251143
6.6416e-06
0.00251025
6.52688e-06
0.00250907
6.40546e-06
0.0025079
6.27345e-06
0.00250675
6.12625e-06
0.00250562
5.95896e-06
0.00250451
5.76632e-06
0.00250343
5.54168e-06
0.00250238
5.27441e-06
0.00250137
4.94591e-06
0.00250041
4.52515e-06
0.00249953
3.96611e-06
0.00249874
3.20994e-06
0.00249808
2.19474e-06
0.00249758
8.73726e-07
0.00249728
-7.60486e-07
0.00249721
-2.65175e-06
0.00249738
-4.66526e-06
0.00249779
-6.59047e-06
0.00249839
-8.16747e-06
0.00249911
-9.13549e-06
0.00249985
-9.29375e-06
0.0025005
-8.5586e-06
0.00250096
-6.99888e-06
0.00250115
-4.83613e-06
0.00250106
-2.40593e-06
0.00250069
-8.88979e-08
0.00250014
1.77057e-06
0.00249949
2.93562e-06
0.00249887
3.31971e-06
0.00249836
2.99093e-06
0.00249805
2.13993e-06
0.00249795
1.02339e-06
0.00249805
-9.97289e-08
0.00249831
-1.02235e-06
0.00249866
-1.62208e-06
0.00249903
-1.86835e-06
0.00249938
-1.8073e-06
0.00249965
-1.53268e-06
0.00249985
-1.15322e-06
0.00249997
-7.652e-07
0.00250002
-4.35724e-07
0.00250003
-1.97639e-07
0.00250002
-5.39981e-08
0.0025
1.20552e-08
0.00249998
2.61841e-08
0.00249997
1.3701e-08
0.00249997
-6.05079e-09
0.00249998
-2.1662e-08
0.00249999
-2.88605e-08
0.00249999
-2.82437e-08
0.0025
-2.27349e-08
0.0025
-1.55634e-08
0.0025
-9.09999e-09
0.0025
-4.50052e-09
0.0025
-1.89372e-09
0.0025
-8.1237e-10
0.0025
-6.02529e-10
0.0025
-7.26915e-10
0.0025
-8.29508e-10
0.0025
-8.49066e-10
-5.91158e-10
0.00250222
-1.84974e-05
0.002509
-5.60314e-05
0.00252106
-9.70514e-05
0.00253955
-0.000143301
0.00256606
-0.000196007
0.00260247
-0.000254835
0.00265054
-0.000317687
0.00271062
-0.000377224
0.00278142
-0.000425355
0.00285636
-0.000446036
0.00292697
-0.000432305
0.00299022
-0.000399758
0.00304465
-0.000355234
0.00308997
-0.00030478
0.00312672
-0.000253013
0.00315552
-0.000201855
0.00317687
-0.000151995
0.00319098
-0.000103302
0.00319783
-5.5744e-05
0.00319747
-1.00199e-05
0.00319031
3.20725e-05
0.00317745
6.81124e-05
0.00316056
9.61128e-05
0.00314152
0.000115647
0.00312183
0.000128429
0.00310211
0.000138044
0.00308189
0.000148805
0.00305976
0.000164142
0.00303399
0.00018516
0.00300334
0.000210091
0.00296753
0.00023495
0.00292747
0.000255039
0.00288493
0.000266468
0.00284216
0.00026711
0.00280134
0.000256795
0.00276427
0.00023696
0.00273221
0.000210079
0.0027058
0.000179085
0.0026851
0.000146912
0.00266972
0.000116165
0.00265887
8.89158e-05
0.00265157
6.65721e-05
0.00264671
4.9834e-05
0.00264325
3.87182e-05
0.00264027
3.26525e-05
0.00263709
3.06295e-05
0.00263327
3.14043e-05
0.00262865
3.36993e-05
0.00262326
3.6378e-05
0.0026173
3.85618e-05
0.00261104
3.96818e-05
0.00260479
3.94725e-05
0.00259882
3.79269e-05
0.00259337
3.52308e-05
0.00258857
3.16927e-05
0.00258451
2.76784e-05
0.00258119
2.35566e-05
0.00257854
1.96564e-05
0.00257647
1.62392e-05
0.00257483
1.34821e-05
0.00257349
1.14729e-05
0.0025723
1.0215e-05
0.00257114
9.64047e-06
0.00256992
9.62788e-06
0.00256856
1.00239e-05
0.00256704
1.06649e-05
0.00256536
1.13957e-05
0.00256353
1.20848e-05
0.0025616
1.26338e-05
0.0025596
1.29812e-05
0.00255758
1.31014e-05
0.00255559
1.29998e-05
0.00255366
1.2706e-05
0.00255182
1.22649e-05
0.00255008
1.17292e-05
0.00254844
1.1152e-05
0.0025469
1.05814e-05
0.00254544
1.00565e-05
0.00254406
9.60537e-06
0.00254273
9.24441e-06
0.00254143
8.97882e-06
0.00254016
8.80412e-06
0.00253888
8.70833e-06
0.0025376
8.67438e-06
0.00253631
8.68275e-06
0.002535
8.71384e-06
0.00253367
8.75006e-06
0.00253234
8.7773e-06
0.002531
8.78575e-06
0.00252965
8.77009e-06
0.00252831
8.72905e-06
0.00252697
8.66448e-06
0.00252564
8.58032e-06
0.00252433
8.48142e-06
0.00252303
8.37262e-06
0.00252173
8.25805e-06
0.00252045
8.14069e-06
0.00251918
8.02209e-06
0.00251792
7.90223e-06
0.00251667
7.7795e-06
0.00251543
7.65068e-06
0.00251419
7.51117e-06
0.00251296
7.35545e-06
0.00251174
7.17743e-06
0.00251054
6.97055e-06
0.00250935
6.72673e-06
0.00250819
6.43375e-06
0.00250707
6.07114e-06
0.00250599
5.60538e-06
0.00250497
4.98707e-06
0.00250402
4.15315e-06
0.00250318
3.03718e-06
0.00250247
1.58886e-06
0.0025019
-1.99656e-07
0.00250152
-2.26729e-06
0.00250132
-4.4672e-06
0.0025013
-6.56953e-06
0.00250142
-8.29002e-06
0.00250163
-9.34302e-06
0.00250185
-9.50869e-06
0.00250198
-8.69628e-06
0.00250197
-6.98376e-06
0.00250175
-4.61842e-06
0.00250132
-1.97415e-06
0.0025007
5.25315e-07
0.00249998
2.4973e-06
0.00249923
3.68036e-06
0.00249857
3.98263e-06
0.00249807
3.48709e-06
0.0024978
2.41551e-06
0.00249776
1.06429e-06
0.00249793
-2.68453e-07
0.00249825
-1.34536e-06
0.00249866
-2.0281e-06
0.00249907
-2.28606e-06
0.00249944
-2.17872e-06
0.00249973
-1.82142e-06
0.00249993
-1.34636e-06
0.00250003
-8.69826e-07
0.00250007
-4.71924e-07
0.00250006
-1.90575e-07
0.00250003
-2.71487e-08
0.0025
4.11816e-08
0.00249998
4.75665e-08
0.00249997
2.40521e-08
0.00249997
-5.36626e-09
0.00249998
-2.70458e-08
0.00249998
-3.64848e-08
0.00249999
-3.52664e-08
0.0025
-2.77072e-08
0.0025
-1.82478e-08
0.0025
-1.00022e-08
0.0025
-4.38164e-09
0.0025
-1.42277e-09
0.0025
-4.07077e-10
0.0025
-4.24177e-10
0.0025
-7.61628e-10
0.0025
-9.823e-10
0.0025
-1.03513e-09
-7.08611e-10
0.00250195
-2.04505e-05
0.00250794
-6.20221e-05
0.00251878
-0.000107883
0.00253582
-0.000160347
0.00256103
-0.000221216
0.0025969
-0.000290699
0.00264602
-0.000366816
0.00270958
-0.000440783
0.00278684
-0.000502608
0.00286899
-0.000528185
0.00294476
-0.000508079
0.00301128
-0.000466279
0.0030674
-0.000411357
0.00311335
-0.000350721
0.00315012
-0.000289786
0.00317869
-0.000230429
0.00319976
-0.000173062
0.00321352
-0.000117062
0.00321982
-6.2045e-05
0.00321848
-8.68218e-06
0.00320983
4.07237e-05
0.00319506
8.28826e-05
0.00317619
0.000114981
0.00315557
0.000136267
0.00313511
0.00014889
0.00311558
0.000157575
0.00309628
0.000168104
0.00307529
0.000185132
0.00305026
0.00021019
0.00301943
0.000240921
0.00298237
0.000272015
0.00294013
0.000297279
0.0028949
0.000311696
0.00284937
0.000312644
0.00280611
0.000300054
0.0027672
0.000275869
0.00273402
0.00024326
0.00270722
0.000205885
0.0026868
0.000167334
0.00267221
0.00013075
0.00266253
9.85985e-05
0.00265657
7.25308e-05
0.00265307
5.33329e-05
0.00265083
4.09613e-05
0.00264882
3.46593e-05
0.0026463
3.31475e-05
0.00264284
3.48713e-05
0.00263828
3.82561e-05
0.00263274
4.19222e-05
0.00262647
4.48245e-05
0.00261985
4.63086e-05
0.00261322
4.60947e-05
0.00260694
4.42148e-05
0.00260124
4.09277e-05
0.0025963
3.66316e-05
0.00259219
3.17843e-05
0.00258891
2.68381e-05
0.00258638
2.21915e-05
0.00258446
1.8156e-05
0.002583
1.49384e-05
0.00258184
1.26361e-05
0.00258081
1.12444e-05
0.00257978
1.06724e-05
0.00257864
1.07665e-05
0.00257733
1.13361e-05
0.00257581
1.21804e-05
0.0025741
1.31114e-05
0.00257221
1.39718e-05
0.0025702
1.46459e-05
0.00256812
1.50639e-05
0.00256602
1.51996e-05
0.00256395
1.50643e-05
0.00256196
1.46975e-05
0.00256007
1.41564e-05
0.00255829
1.35066e-05
0.00255663
1.28131e-05
0.00255508
1.21337e-05
0.00255362
1.1515e-05
0.00255224
1.09897e-05
0.00255091
1.0576e-05
0.00254961
1.02789e-05
0.00254832
1.00914e-05
0.00254703
9.99813e-06
0.00254572
9.97751e-06
0.0025444
1.00055e-05
0.00254306
1.00582e-05
0.00254169
1.01144e-05
0.00254031
1.01576e-05
0.00253892
1.01765e-05
0.00253753
1.01653e-05
0.00253613
1.01233e-05
0.00253474
1.00532e-05
0.00253336
9.96048e-06
0.00253199
9.85135e-06
0.00253063
9.73195e-06
0.00252929
9.60739e-06
0.00252794
9.48138e-06
0.00252661
9.35586e-06
0.00252528
9.23098e-06
0.00252396
9.10497e-06
0.00252263
8.97422e-06
0.00252131
8.83346e-06
0.00251999
8.67613e-06
0.00251867
8.49492e-06
0.00251736
8.28179e-06
0.00251606
8.0271e-06
0.00251478
7.7171e-06
0.00251352
7.32973e-06
0.00251229
6.82984e-06
0.00251112
6.16622e-06
0.00250999
5.2738e-06
0.00250895
4.08421e-06
0.00250799
2.54599e-06
0.00250714
6.52092e-07
0.0025064
-1.53227e-06
0.00250579
-3.85174e-06
0.00250528
-6.06361e-06
0.00250486
-7.86794e-06
0.00250448
-8.96369e-06
0.00250409
-9.12015e-06
0.00250364
-8.24453e-06
0.00250308
-6.42429e-06
0.00250239
-3.92798e-06
0.00250158
-1.15946e-06
0.00250068
1.42476e-06
0.00249976
3.41379e-06
0.00249891
4.52966e-06
0.00249821
4.68025e-06
0.00249774
3.96543e-06
0.00249751
2.63778e-06
0.00249755
1.03172e-06
0.00249779
-5.17717e-07
0.00249819
-1.74531e-06
0.00249867
-2.49936e-06
0.00249913
-2.75197e-06
0.00249953
-2.57901e-06
0.00249983
-2.12037e-06
0.00250002
-1.53432e-06
0.00250011
-9.58809e-07
0.00250012
-4.87473e-07
0.0025001
-1.6274e-07
0.00250005
1.7081e-08
0.00250001
8.2517e-08
0.00249998
7.58178e-08
0.00249997
3.69166e-08
0.00249997
-4.98842e-09
0.00249998
-3.40214e-08
0.00249998
-4.58219e-08
0.00249999
-4.34737e-08
0.0025
-3.31549e-08
0.0025
-2.08286e-08
0.0025
-1.04826e-08
0.0025
-3.77187e-09
0.0025
-5.53967e-10
0.0025
2.4188e-10
0.0025
-1.42899e-10
0.0025
-7.8428e-10
0.0025
-1.16229e-09
0.0025
-1.25174e-09
-8.36148e-10
0.00250162
-2.20677e-05
0.00250662
-6.70213e-05
0.00251588
-0.000117149