/*--------------------------------*- C++ -*----------------------------------*\
  =========                 |
  \\      /  F ield         | OpenFOAM: The Open Source CFD Toolbox
   \\    /   O peration     | Website:  https://openfoam.org
    \\  /    A nd           | Version:  11
     \\/     M anipulation  |
\*---------------------------------------------------------------------------*/
FoamFile
{
    format      ascii;
    class       volVectorField;
    location    "6.649256";
    object      U_0;
}
// * * * * * * * * * * * * * * * * * * * * * * * * * * * * * * * * * * * * * //

dimensions      [0 1 -1 0 0 0 0];

internalField   nonuniform List<vector> 
7132
(
(1.00014 -0.000288556 1.63139e-18)
(1.00223 -0.000870635 7.47792e-18)
(1.00698 -0.00148833 7.88152e-18)
(1.01419 -0.00215341 9.38328e-18)
(1.02417 -0.00286909 1.15746e-17)
(1.03712 -0.0036154 1.19025e-17)
(1.0531 -0.00435312 1.12371e-17)
(1.07197 -0.00500494 1.03319e-17)
(1.09321 -0.00548803 9.63876e-18)
(1.11599 -0.00571488 9.25244e-18)
(1.13906 -0.00563675 8.89777e-18)
(1.16124 -0.00532075 8.77285e-18)
(1.18172 -0.00482889 7.55411e-18)
(1.19994 -0.00422386 8.05558e-18)
(1.21557 -0.00356101 -1.84697e-18)
(1.22846 -0.00287568 -1.16139e-17)
(1.23858 -0.00218992 -2.17706e-17)
(1.24598 -0.00151699 -1.39647e-17)
(1.25072 -0.000867781 -1.89018e-17)
(1.25292 -0.000255783 -3.26072e-17)
(1.25275 0.000301348 -3.54508e-17)
(1.25048 0.00078529 -3.99302e-17)
(1.24642 0.00118402 -4.69432e-17)
(1.24095 0.00149878 -5.98595e-17)
(1.23437 0.00174702 -6.19322e-17)
(1.22691 0.00195919 -7.74076e-17)
(1.21865 0.00216951 -9.35159e-17)
(1.20953 0.00240389 -1.08231e-16)
(1.1994 0.00266966 -1.22407e-16)
(1.18814 0.00295171 -1.22439e-16)
(1.17575 0.00321693 -1.17594e-16)
(1.16236 0.00342485 -1.07146e-16)
(1.14829 0.0035396 -1.02431e-16)
(1.13398 0.00353884 -8.69236e-17)
(1.11992 0.0034176 -6.86162e-17)
(1.10658 0.00318724 -4.63461e-17)
(1.09436 0.00287146 -1.91203e-17)
(1.08356 0.00250105 7.82273e-18)
(1.07433 0.00210885 4.39217e-17)
(1.06668 0.00172551 8.59947e-17)
(1.06052 0.00137648 1.34936e-16)
(1.05568 0.00108003 1.89363e-16)
(1.0519 0.000846392 2.45658e-16)
(1.04893 0.000677913 3.07061e-16)
(1.0465 0.000570005 3.68929e-16)
(1.04439 0.000512829 4.29397e-16)
(1.04242 0.000493379 4.86286e-16)
(1.04046 0.000497647 5.37669e-16)
(1.03845 0.000512526 5.85969e-16)
(1.03637 0.000527215 6.28783e-16)
(1.03424 0.000534007 6.64604e-16)
(1.0321 0.000528483 6.94881e-16)
(1.03001 0.000509243 7.21062e-16)
(1.02802 0.000477328 7.40607e-16)
(1.02618 0.000435498 7.5283e-16)
(1.02453 0.00038749 7.56038e-16)
(1.02308 0.00033735 7.49164e-16)
(1.02183 0.000288888 7.32486e-16)
(1.02077 0.00024528 7.03285e-16)
(1.01986 0.000208818 6.61091e-16)
(1.01909 0.000180802 6.0483e-16)
(1.01842 0.000161558 5.35099e-16)
(1.0178 0.000150553 4.52953e-16)
(1.01722 0.000146588 3.57504e-16)
(1.01663 0.000148029 2.52052e-16)
(1.01603 0.000153047 1.37028e-16)
(1.01541 0.000159841 1.32826e-17)
(1.01476 0.00016682 -1.17057e-16)
(1.01407 0.000172722 -2.54508e-16)
(1.01337 0.000176686 -3.96329e-16)
(1.01266 0.000178256 -5.43258e-16)
(1.01195 0.000177346 -6.95794e-16)
(1.01124 0.000174172 -8.535e-16)
(1.01055 0.000169164 -1.01818e-15)
(1.00988 0.000162875 -1.18782e-15)
(1.00925 0.0001559 -1.36301e-15)
(1.00864 0.000148804 -1.54273e-15)
(1.00805 0.000142069 -1.72429e-15)
(1.0075 0.000136063 -1.90645e-15)
(1.00696 0.000131023 -2.08431e-15)
(1.00645 0.000127057 -2.25663e-15)
(1.00595 0.000124156 -2.42189e-15)
(1.00545 0.000122215 -2.57864e-15)
(1.00497 0.000121062 -2.72791e-15)
(1.00449 0.000120485 -2.86776e-15)
(1.004 0.000120261 -2.99941e-15)
(1.00352 0.000120181 -3.12253e-15)
(1.00304 0.000120067 -3.23579e-15)
(1.00256 0.000119786 -3.33929e-15)
(1.00208 0.000119253 -3.43016e-15)
(1.00161 0.000118428 -3.50951e-15)
(1.00113 0.000117308 -3.57796e-15)
(1.00066 0.000115921 -3.63494e-15)
(1.0002 0.000114306 -3.68243e-15)
(0.999749 0.00011251 -3.71717e-15)
(0.999301 0.000110576 -3.73466e-15)
(0.998862 0.000108531 -3.72746e-15)
(0.998431 0.000106389 -3.68339e-15)
(0.998009 0.000104143 -3.59109e-15)
(0.997596 0.000101761 -3.43489e-15)
(0.997192 9.91951e-05 -3.20184e-15)
(0.996799 9.63821e-05 -2.88299e-15)
(0.996418 9.32553e-05 -2.47467e-15)
(0.99605 8.97502e-05 -1.98628e-15)
(0.995696 8.57989e-05 -1.43634e-15)
(0.99536 8.12988e-05 -8.59117e-16)
(0.995042 7.60502e-05 -3.02132e-16)
(0.994747 6.96667e-05 1.79223e-16)
(0.99448 6.1485e-05 5.22936e-16)
(0.994249 5.05257e-05 6.73278e-16)
(0.994069 3.55613e-05 5.80581e-16)
(0.993957 1.5342e-05 2.06557e-16)
(0.993936 -1.10182e-05 -4.688e-16)
(0.994033 -4.35564e-05 -1.44105e-15)
(0.99427 -8.10081e-05 -2.66036e-15)
(0.994664 -0.000120561 -4.02387e-15)
(0.995216 -0.000157976 -5.3703e-15)
(0.995908 -0.000188157 -6.49445e-15)
(0.996702 -0.000206116 -7.1952e-15)
(0.997539 -0.000208127 -7.33892e-15)
(0.998351 -0.000192764 -6.94521e-15)
(0.999068 -0.000161501 -6.2558e-15)
(0.999633 -0.000118641 -5.75295e-15)
(1.00001 -7.05389e-05 -6.11258e-15)
(1.00019 -2.42962e-05 -8.06807e-15)
(1.0002 1.37267e-05 -1.22102e-14)
(1.00008 3.91821e-05 -1.87623e-14)
(0.999889 5.0459e-05 -2.73945e-14)
(0.999678 4.87069e-05 -3.71553e-14)
(0.999498 3.72231e-05 -4.65583e-14)
(0.999379 2.04314e-05 -5.38545e-14)
(0.999333 2.76988e-06 -5.74378e-14)
(0.999356 -1.22211e-05 -5.62724e-14)
(0.99943 -2.24227e-05 -5.02151e-14)
(0.999535 -2.72233e-05 -4.01016e-14)
(0.999649 -2.72447e-05 -2.75711e-14)
(0.999754 -2.38616e-05 -1.46731e-14)
(0.999841 -1.86869e-05 -3.36994e-15)
(0.999905 -1.31551e-05 4.90396e-15)
(0.999947 -8.27806e-06 9.51468e-15)
(0.999971 -4.57736e-06 1.066e-14)
(0.999983 -2.15182e-06 9.18224e-15)
(0.999988 -8.17149e-07 6.25072e-15)
(0.99999 -2.5778e-07 3.0131e-15)
(0.99999 -1.49203e-07 3.31499e-16)
(0.999991 -2.32571e-07 -1.34909e-15)
(0.999992 -3.42416e-07 -1.98817e-15)
(0.999994 -4.00176e-07 -1.82767e-15)
(0.999995 -3.89699e-07 -1.23416e-15)
(0.999997 -3.288e-07 -5.51408e-16)
(0.999998 -2.4587e-07 -1.24426e-17)
(0.999999 -1.65284e-07 2.85059e-16)
(0.999999 -1.01356e-07 3.57724e-16)
(0.999999 -5.83439e-08 2.83261e-16)
(1 -3.37076e-08 1.53072e-16)
(1 -2.17037e-08 3.59846e-17)
(1 -1.67896e-08 -3.6024e-17)
(1 -1.43456e-08 -5.96896e-17)
(1 -1.29637e-08 -5.22893e-17)
(1 -9.15255e-09 -2.10462e-17)
(1.00014 -0.000862814 2.35908e-20)
(1.00221 -0.00260463 3.53851e-19)
(1.00692 -0.00445453 7.246e-19)
(1.01408 -0.00645033 1.10041e-18)
(1.02403 -0.00860274 1.49846e-18)
(1.03698 -0.0108529 1.88119e-18)
(1.05302 -0.0130837 2.24846e-18)
(1.07203 -0.0150595 2.09051e-18)
(1.09349 -0.0165277 5.57577e-18)
(1.11656 -0.0172153 7.14903e-18)
(1.13991 -0.0169709 4.40367e-18)
(1.16231 -0.0160084 4.66662e-18)
(1.18295 -0.0145176 1.02493e-19)
(1.20127 -0.0126897 1.20688e-17)
(1.21694 -0.0106925 4.65453e-17)
(1.22985 -0.00863155 9.19642e-17)
(1.23997 -0.00657162 1.25491e-16)
(1.24736 -0.00455038 1.27436e-16)
(1.25207 -0.0025988 8.90371e-17)
(1.25422 -0.000756541 1.57951e-17)
(1.25399 0.000922707 -7.53624e-17)
(1.25163 0.00238191 -1.71175e-16)
(1.24749 0.00358262 -2.62675e-16)
(1.24193 0.00452714 -3.42774e-16)
(1.2353 0.00526808 -4.04056e-16)
(1.22782 0.00589863 -4.40847e-16)
(1.21956 0.00652411 -4.48958e-16)
(1.21046 0.00722454 -4.27035e-16)
(1.20035 0.00802292 -3.76833e-16)
(1.18909 0.00887331 -3.04625e-16)
(1.17666 0.00967467 -2.03998e-16)
(1.1632 0.0103036 -1.08645e-16)
(1.14902 0.0106508 -1.14181e-17)
(1.13459 0.0106488 9.6524e-17)
(1.12041 0.0102826 2.01389e-16)
(1.10697 0.00958687 3.1978e-16)
(1.09468 0.00863357 4.4e-16)
(1.08383 0.00751582 5.63196e-16)
(1.07458 0.00633276 6.99941e-16)
(1.06694 0.00517685 8.42997e-16)
(1.06082 0.00412476 9.98208e-16)
(1.05602 0.00323155 1.15037e-15)
(1.0523 0.00252809 1.29372e-15)
(1.04939 0.00202146 1.42484e-15)
(1.04701 0.00169787 1.5338e-15)
(1.04495 0.00152761 1.62095e-15)
(1.043 0.00147133 1.67883e-15)
(1.04106 0.00148662 1.71001e-15)
(1.03906 0.00153376 1.71923e-15)
(1.03698 0.00158007 1.70624e-15)
(1.03483 0.00160225 1.67546e-15)
(1.03268 0.00158698 1.62708e-15)
(1.03057 0.00153005 1.55861e-15)
(1.02857 0.00143464 1.46958e-15)
(1.02672 0.00130909 1.35425e-15)
(1.02506 0.00116472 1.21123e-15)
(1.02361 0.00101377 1.03653e-15)
(1.02236 0.000867771 8.27129e-16)
(1.0213 0.000736333 5.83981e-16)
(1.0204 0.000626405 3.06745e-16)
(1.01964 0.000541937 8.08487e-19)
(1.01897 0.000483931 -3.29826e-16)
(1.01836 0.0004508 -6.79623e-16)
(1.01778 0.000438935 -1.04198e-15)
(1.01719 0.00044341 -1.41037e-15)
(1.0166 0.000458703 -1.77707e-15)
(1.01597 0.000479372 -2.1423e-15)
(1.01532 0.0005006 -2.50034e-15)
(1.01463 0.000518575 -2.85078e-15)
(1.01393 0.000530687 -3.19344e-15)
(1.01321 0.000535555 -3.52798e-15)
(1.01249 0.000532919 -3.8609e-15)
(1.01178 0.000523426 -4.1911e-15)
(1.01109 0.000508378 -4.52062e-15)
(1.01042 0.000489449 -4.84837e-15)
(1.00978 0.000468437 -5.17047e-15)
(1.00917 0.000447051 -5.48668e-15)
(1.00858 0.000426752 -5.78791e-15)
(1.00803 0.000408651 -6.06877e-15)
(1.00749 0.000393471 -6.32278e-15)
(1.00698 0.000381536 -6.54508e-15)
(1.00647 0.000372822 -6.73864e-15)
(1.00598 0.000367014 -6.90147e-15)
(1.00549 0.000363588 -7.03726e-15)
(1.00501 0.000361906 -7.14755e-15)
(1.00452 0.000361292 -7.23286e-15)
(1.00404 0.000361114 -7.29704e-15)
(1.00356 0.000360836 -7.33526e-15)
(1.00307 0.000360053 -7.34687e-15)
(1.00259 0.000358507 -7.32974e-15)
(1.00211 0.000356079 -7.28411e-15)
(1.00164 0.000352765 -7.21575e-15)
(1.00116 0.000348642 -7.12452e-15)
(1.0007 0.000343838 -7.01231e-15)
(1.00024 0.000338494 -6.87487e-15)
(0.99979 0.000332736 -6.7013e-15)
(0.999347 0.000326655 -6.47514e-15)
(0.998912 0.000320292 -6.17101e-15)
(0.998485 0.000313626 -5.76359e-15)
(0.998067 0.000306567 -5.22572e-15)
(0.997658 0.000298971 -4.53374e-15)
(0.99726 0.000290648 -3.67327e-15)
(0.996873 0.000281396 -2.63926e-15)
(0.996498 0.00027102 -1.44724e-15)
(0.996138 0.000259314 -1.31691e-16)
(0.995793 0.000245972 1.25105e-15)
(0.995467 0.000230409 2.6242e-15)
(0.995164 0.000211494 3.90241e-15)
(0.994887 0.000187282 4.99575e-15)
(0.994646 0.000154887 5.82521e-15)
(0.994453 0.000110675 6.32715e-15)
(0.994326 5.09204e-05 6.45389e-15)
(0.994288 -2.70603e-05 6.18319e-15)
(0.994363 -0.000123465 5.53368e-15)
(0.994574 -0.000234648 4.60084e-15)
(0.994938 -0.000352357 3.57746e-15)
(0.995456 -0.000464064 2.75192e-15)
(0.996112 -0.000554621 2.46713e-15)
(0.996868 -0.000609117 3.01107e-15)
(0.99767 -0.000616314 4.47178e-15)
(0.998448 -0.000571776 6.57793e-15)
(0.999137 -0.000479692 8.58603e-15)
(0.999678 -0.000352719 9.28927e-15)
(1.00004 -0.000209716 7.1672e-15)
(1.00021 -7.18693e-05 7.00638e-16)
(1.00021 4.17512e-05 -1.11972e-14)
(1.00008 0.000118015 -2.8732e-14)
(0.999882 0.000151939 -5.08922e-14)
(0.999669 0.000146815 -7.53457e-14)
(0.999488 0.000112412 -9.86535e-14)
(0.999369 6.19414e-05 -1.16854e-13)
(0.999324 8.72611e-06 -1.26349e-13)
(0.999348 -3.65546e-05 -1.24843e-13)
(0.999425 -6.74638e-05 -1.12065e-13)
(0.999532 -8.2095e-05 -8.99504e-14)
(0.999648 -8.2272e-05 -6.22313e-14)
(0.999755 -7.21151e-05 -3.35435e-14)
(0.999843 -5.64898e-05 -8.31156e-15)
(0.999907 -3.97443e-05 1.0237e-14)
(0.999949 -2.49598e-05 2.06658e-14)
(0.999973 -1.3735e-05 2.33951e-14)
(0.999985 -6.38311e-06 2.02795e-14)
(0.999989 -2.35107e-06 1.38994e-14)
(0.99999 -6.80557e-07 6.79331e-15)
(0.99999 -3.81795e-07 8.70797e-16)
(0.999991 -6.63262e-07 -2.87191e-15)
(0.999992 -1.01846e-06 -4.32804e-15)
(0.999993 -1.20734e-06 -4.01647e-15)
(0.999995 -1.18177e-06 -2.73525e-15)
(0.999997 -9.9812e-07 -1.24227e-15)
(0.999998 -7.45164e-07 -5.41244e-17)
(0.999999 -4.9889e-07 6.09315e-16)
(0.999999 -3.03853e-07 7.79383e-16)
(0.999999 -1.73257e-07 6.24629e-16)
(1 -9.91492e-08 3.42385e-16)
(1 -6.36848e-08 8.44651e-17)
(1 -4.96719e-08 -7.63068e-17)
(1 -4.29154e-08 -1.3079e-16)
(1 -3.90978e-08 -1.15094e-16)
(1 -2.7661e-08 -4.57572e-17)
(1.00014 -0.00142914 1.80815e-22)
(1.00217 -0.00431618 4.51951e-21)
(1.00679 -0.00738901 4.52596e-21)
(1.01387 -0.0107165 1.15327e-20)
(1.02374 -0.0143213 -1.52734e-19)
(1.03667 -0.0181095 2.43465e-19)
(1.05282 -0.0218876 -8.19209e-19)
(1.0721 -0.0252503 -1.54053e-18)
(1.09402 -0.0277635 6.32148e-18)
(1.11769 -0.0289338 -1.09285e-18)
(1.14162 -0.0284923 -3.79769e-17)
(1.16446 -0.0268377 -3.07268e-17)
(1.18541 -0.0243006 1.05924e-16)
(1.20391 -0.0212093 3.40516e-16)
(1.21967 -0.0178483 5.15307e-16)
(1.23262 -0.0143917 4.5946e-16)
(1.24274 -0.0109439 1.04537e-16)
(1.2501 -0.0075633 -4.81301e-16)
(1.25475 -0.00429837 -1.14288e-15)
(1.25682 -0.00121442 -1.70253e-15)
(1.25646 0.00159657 -2.08525e-15)
(1.25394 0.00403501 -2.29193e-15)
(1.24962 0.00603245 -2.32229e-15)
(1.2439 0.00759104 -2.17932e-15)
(1.23716 0.00880122 -1.87012e-15)
(1.22963 0.00982528 -1.40954e-15)
(1.22138 0.0108478 -8.25383e-16)
(1.21233 0.0120098 -1.60782e-16)
(1.20225 0.0133526 5.30444e-16)
(1.19098 0.0147964 1.19389e-15)
(1.17846 0.0161649 1.78947e-15)
(1.16483 0.0172431 2.29462e-15)
(1.15042 0.0178418 2.70868e-15)
(1.13573 0.0178448 3.04878e-15)
(1.1213 0.0172276 3.33882e-15)
(1.10764 0.0160509 3.60545e-15)
(1.0952 0.0144384 3.86889e-15)
(1.08426 0.0125495 4.13973e-15)
(1.07499 0.010553 4.41789e-15)
(1.06738 0.00860543 4.69006e-15)
(1.06134 0.00683645 4.9335e-15)
(1.05666 0.00533867 5.11909e-15)
(1.05307 0.00416358 5.21899e-15)
(1.05028 0.00332226 5.21415e-15)
(1.04801 0.00279039 5.09794e-15)
(1.04603 0.00251678 4.87772e-15)
(1.04415 0.00243414 4.57035e-15)
(1.04224 0.00247024 4.19693e-15)
(1.04024 0.00255777 3.77711e-15)
(1.03814 0.00264154 3.32364e-15)
(1.03597 0.00268248 2.84144e-15)
(1.03378 0.00265851 2.32649e-15)
(1.03164 0.00256304 1.76548e-15)
(1.02961 0.0024019 1.14523e-15)
(1.02775 0.0021896 4.49608e-16)
(1.02607 0.00194556 -3.33573e-16)
(1.02462 0.00169064 -1.21161e-15)
(1.02337 0.00144444 -2.18551e-15)
(1.02232 0.0012232 -3.24436e-15)
(1.02144 0.00103864 -4.3715e-15)
(1.02069 0.000897345 -5.54266e-15)
(1.02003 0.000800921 -6.73103e-15)
(1.01944 0.000746569 -7.90908e-15)
(1.01887 0.000728087 -9.04981e-15)
(1.01829 0.000737056 -1.01334e-14)
(1.0177 0.000764079 -1.11424e-14)
(1.01707 0.000799925 -1.20702e-14)
(1.01641 0.000836448 -1.29166e-14)
(1.01572 0.000867227 -1.36858e-14)
(1.01501 0.000887891 -1.43891e-14)
(1.01428 0.000896161 -1.50355e-14)
(1.01356 0.000891653 -1.56382e-14)
(1.01284 0.00087552 -1.62062e-14)
(1.01214 0.000850003 -1.67426e-14)
(1.01146 0.000817968 -1.72461e-14)
(1.01082 0.000782475 -1.7705e-14)
(1.0102 0.00074642 -1.81055e-14)
(1.00962 0.000712272 -1.843e-14)
(1.00906 0.000681904 -1.86613e-14)
(1.00852 0.000656518 -1.87896e-14)
(1.00801 0.000636654 -1.88098e-14)
(1.0075 0.000622249 -1.87291e-14)
(1.00701 0.000612757 -1.85599e-14)
(1.00652 0.000607283 -1.83165e-14)
(1.00603 0.000604734 -1.80127e-14)
(1.00554 0.000603967 -1.7653e-14)
(1.00505 0.000603907 -1.72392e-14)
(1.00456 0.00060365 -1.67664e-14)
(1.00407 0.000602519 -1.62289e-14)
(1.00359 0.000600085 -1.56256e-14)
(1.0031 0.000596155 -1.49593e-14)
(1.00262 0.00059073 -1.424e-14)
(1.00214 0.000583953 -1.34774e-14)
(1.00167 0.000576046 -1.26752e-14)
(1.0012 0.000567251 -1.1824e-14)
(1.00074 0.000557789 -1.08977e-14)
(1.00029 0.000547816 -9.85355e-15)
(0.99985 0.000537405 -8.63655e-15)
(0.999415 0.000526524 -7.18658e-15)
(0.998987 0.000515031 -5.4463e-15)
(0.998569 0.000502683 -3.36844e-15)
(0.99816 0.000489165 -9.22347e-16)
(0.997762 0.000474135 1.90051e-15)
(0.997375 0.000457255 5.08052e-15)
(0.997001 0.000438171 8.56565e-15)
(0.996642 0.000416373 1.22713e-14)
(0.996301 0.000390908 1.60868e-14)
(0.995981 0.000359947 1.98916e-14)
(0.995687 0.000320349 2.35748e-14)
(0.995426 0.000267442 2.70531e-14)
(0.995211 0.000195315 3.02758e-14)
(0.995059 9.78653e-05 3.32166e-14)
(0.994989 -2.9358e-05 3.58717e-14)
(0.995027 -0.000186799 3.83048e-14)
(0.995193 -0.000368645 4.0723e-14)
(0.995504 -0.000561537 4.35128e-14)
(0.995961 -0.000745049 4.72104e-14)
(0.99655 -0.000894362 5.2359e-14)
(0.997235 -0.000984922 5.92354e-14)
(0.997965 -0.000998106 6.74915e-14)
(0.998675 -0.000926398 7.58224e-14)
(0.9993 -0.000776461 8.18023e-14)
(0.999787 -0.000568951 8.20164e-14)
(1.0001 -0.000334826 7.25462e-14)
(1.00024 -0.000108996 4.97884e-14)
(1.00021 7.70225e-05 1.14973e-14)
(1.00007 0.000201448 -4.21664e-14)
(0.999859 0.000255944 -1.07929e-13)
(0.999642 0.000245876 -1.79205e-13)
(0.999461 0.00018739 -2.46663e-13)
(0.999345 0.000102401 -2.99718e-13)
(0.999305 1.30676e-05 -3.28796e-13)
(0.999336 -6.28102e-05 -3.27835e-13)
(0.999419 -0.000114481 -2.96162e-13)
(0.999531 -0.00013876 -2.39005e-13)
(0.999652 -0.000138718 -1.6639e-13)
(0.999762 -0.000121296 -9.0746e-14)
(0.999851 -9.47052e-05 -2.39315e-14)
(0.999915 -6.62952e-05 2.54006e-14)
(0.999956 -4.128e-05 5.33667e-14)
(0.999979 -2.23619e-05 6.10097e-14)
(0.999989 -1.00576e-05 5.31807e-14)
(0.999991 -3.4072e-06 3.66489e-14)
(0.999991 -7.59716e-07 1.80927e-14)
(0.999991 -4.13214e-07 2.5513e-15)
(0.999991 -1.01033e-06 -7.33007e-15)
(0.999992 -1.68793e-06 -1.12319e-14)
(0.999993 -2.0445e-06 -1.04918e-14)
(0.999995 -2.00991e-06 -7.18575e-15)
(0.999997 -1.69266e-06 -3.29625e-15)
(0.999998 -1.25391e-06 -1.85298e-16)
(0.999999 -8.2902e-07 1.56638e-15)
(0.999999 -4.95935e-07 2.0276e-15)
(1 -2.76472e-07 1.63449e-15)
(1 -1.55193e-07 9.02243e-16)
(1 -9.9849e-08 2.26541e-16)
(1 -7.99393e-08 -1.9485e-16)
(1 -7.09235e-08 -3.39794e-16)
(1 -6.56548e-08 -3.01189e-16)
(1 -4.64935e-08 -1.18884e-16)
(1.00014 -0.00198203 -2.83816e-20)
(1.00211 -0.0059886 -4.91434e-19)
(1.0066 -0.0102682 -8.51929e-19)
(1.01352 -0.0149278 -1.63842e-18)
(1.02327 -0.0200102 -1.7516e-18)
(1.03616 -0.0253934 -1.6457e-18)
(1.05246 -0.0308111 -1.12406e-17)
(1.07215 -0.03567 1.79612e-17)
(1.09476 -0.0393341 3.44313e-18)
(1.11937 -0.041025 -1.41558e-16)
(1.14419 -0.040329 -2.77272e-17)
(1.1677 -0.0379021 6.74686e-16)
(1.18911 -0.0342374 1.33869e-15)
(1.20789 -0.0298152 8.08863e-16)
(1.22378 -0.0250445 -1.58023e-15)
(1.23677 -0.0201644 -5.43459e-15)
(1.24688 -0.0153116 -9.56632e-15)
(1.25419 -0.0105563 -1.26635e-14)
(1.25876 -0.00595752 -1.38711e-14)
(1.26069 -0.00160445 -1.29463e-14)
(1.26014 0.00236775 -1.05816e-14)
(1.25737 0.00580702 -7.41243e-15)
(1.25277 0.00860538 -3.74131e-15)
(1.24681 0.0107609 2.34145e-16)
(1.23989 0.0124062 4.34211e-15)
(1.2323 0.0137844 8.39212e-15)
(1.22409 0.0151745 1.2161e-14)
(1.21512 0.0167906 1.54119e-14)
(1.20511 0.0186965 1.79455e-14)
(1.19383 0.020773 1.96544e-14)
(1.18117 0.022756 2.05658e-14)
(1.16727 0.0243246 2.07821e-14)
(1.1525 0.0251991 2.05105e-14)
(1.13741 0.0252102 1.99614e-14)
(1.12258 0.024325 1.92964e-14)
(1.1086 0.022635 1.86492e-14)
(1.09591 0.0203226 1.80574e-14)
(1.08484 0.0176195 1.75108e-14)
(1.07554 0.0147693 1.69532e-14)
(1.068 0.0119968 1.62763e-14)
(1.06209 0.00948676 1.53731e-14)
(1.05759 0.00737046 1.41379e-14)
(1.05419 0.00571983 1.25227e-14)
(1.05159 0.0045488 1.05488e-14)
(1.04949 0.00382053 8.29375e-15)
(1.04764 0.00345977 5.88395e-15)
(1.04584 0.0033685 3.44093e-15)
(1.04397 0.00344214 1.06844e-15)
(1.04198 0.00358386 -1.1757e-15)
(1.03985 0.00371491 -3.29081e-15)
(1.03764 0.00378018 -5.31486e-15)
(1.0354 0.00374921 -7.31783e-15)
(1.03321 0.00361376 -9.38386e-15)
(1.03114 0.00338327 -1.15898e-14)
(1.02924 0.00307937 -1.39992e-14)
(1.02755 0.00273041 -1.66434e-14)
(1.02609 0.00236661 -1.95237e-14)
(1.02485 0.00201613 -2.26078e-14)
(1.02382 0.0017022 -2.58295e-14)
(1.02296 0.0014414 -2.91026e-14)
(1.02223 0.00124296 -3.23248e-14)
(1.02161 0.00110891 -3.53966e-14)
(1.02103 0.00103497 -3.82294e-14)
(1.02047 0.00101207 -4.07535e-14)
(1.01991 0.00102797 -4.29248e-14)
(1.01932 0.00106912 -4.47238e-14)
(1.01869 0.00112225 -4.61633e-14)
(1.01802 0.00117572 -4.72693e-14)
(1.01732 0.00122042 -4.80852e-14)
(1.0166 0.00125022 -4.86604e-14)
(1.01586 0.00126198 -4.9042e-14)
(1.01512 0.0012553 -4.92757e-14)
(1.01439 0.00123194 -4.93854e-14)
(1.01368 0.00119521 -4.93799e-14)
(1.013 0.00114928 -4.92455e-14)
(1.01235 0.00109858 -4.89488e-14)
(1.01173 0.00104726 -4.84495e-14)
(1.01114 0.000998828 -4.76982e-14)
(1.01058 0.000955948 -4.66604e-14)
(1.01004 0.000920301 -4.53217e-14)
(1.00952 0.000892617 -4.36942e-14)
(1.00902 0.000872768 -4.18212e-14)
(1.00852 0.000859934 -3.97541e-14)
(1.00802 0.000852809 -3.75498e-14)
(1.00753 0.000849808 -3.52499e-14)
(1.00704 0.000849282 -3.28727e-14)
(1.00654 0.000849696 -3.04181e-14)
(1.00605 0.000849761 -2.78629e-14)
(1.00555 0.000848524 -2.51868e-14)
(1.00505 0.000845389 -2.23796e-14)
(1.00456 0.000840103 -1.94508e-14)
(1.00407 0.000832691 -1.64311e-14)
(1.00358 0.000823378 -1.33487e-14)
(1.0031 0.000812495 -1.02216e-14)
(1.00262 0.000800402 -7.03523e-15)
(1.00215 0.000787421 -3.73568e-15)
(1.00169 0.000773784 -2.34039e-16)
(1.00124 0.000759601 3.58489e-15)
(1.00079 0.000744834 7.83856e-15)
(1.00035 0.00072929 1.26362e-14)
(0.999916 0.000712634 1.80679e-14)
(0.999491 0.000694421 2.42002e-14)
(0.999076 0.000674158 3.10817e-14)
(0.998671 0.000651352 3.8737e-14)
(0.998278 0.000625482 4.71717e-14)
(0.997899 0.000595828 5.63726e-14)
(0.997536 0.000561083 6.63166e-14)
(0.997192 0.000518783 7.69964e-14)
(0.996872 0.000464709 8.84424e-14)
(0.996583 0.000392576 1.00747e-13)
(0.996337 0.000294397 1.14055e-13)
(0.996148 0.000161878 1.28519e-13)
(0.996035 -1.11085e-05 1.44257e-13)
(0.996019 -0.000225312 1.61417e-13)
(0.996122 -0.000473006 1.80363e-13)
(0.996356 -0.000736172 2.01697e-13)
(0.996726 -0.000987063 2.26119e-13)
(0.997218 -0.0011918 2.5401e-13)
(0.997799 -0.00131672 2.84765e-13)
(0.998421 -0.00133613 3.16025e-13)
(0.999027 -0.0012395 3.43083e-13)
(0.999555 -0.00103575 3.58774e-13)
(0.999956 -0.000753075 3.54074e-13)
(1.0002 -0.000433961 3.19424e-13)
(1.00028 -0.000126436 2.46707e-13)
(1.00021 0.000126054 1.31626e-13)
(1.00004 0.000293447 -2.3959e-14)
(0.999817 0.000364244 -2.10514e-13)
(0.999595 0.000345933 -4.10388e-13)
(0.999416 0.000260977 -5.99137e-13)
(0.999306 0.000139897 -7.4917e-13)
(0.999276 1.35756e-05 -8.35473e-13)
(0.999317 -9.31614e-05 -8.42038e-13)
(0.99941 -0.000165346 -7.66856e-13)
(0.999532 -0.000198626 -6.23356e-13)
(0.999659 -0.00019746 -4.37656e-13)
(0.999773 -0.00017177 -2.42324e-13)
(0.999864 -0.00013327 -6.85798e-14)
(0.999928 -9.24438e-05 6.0632e-14)
(0.999967 -5.67147e-05 1.34782e-13)
(0.999987 -2.99022e-05 1.56207e-13)
(0.999994 -1.26836e-05 1.37232e-13)
(0.999994 -3.61306e-06 9.52762e-14)
(0.999992 -2.56527e-07 4.76365e-14)
(0.999991 -1.22563e-07 7.4476e-15)
(0.99999 -1.23767e-06 -1.83093e-14)
(0.999991 -2.36265e-06 -2.86752e-14)
(0.999993 -2.94043e-06 -2.70075e-14)
(0.999995 -2.89972e-06 -1.86226e-14)
(0.999997 -2.42587e-06 -8.63908e-15)
(0.999998 -1.77291e-06 -5.98463e-16)
(0.999999 -1.14794e-06 3.96423e-15)
(0.999999 -6.66545e-07 5.19985e-15)
(1 -3.57706e-07 4.21782e-15)
(1 -1.94451e-07 2.34349e-15)
(1 -1.26053e-07 6.02299e-16)
(1 -1.05958e-07 -4.90759e-16)
(1 -9.81513e-08 -8.71504e-16)
(1 -9.29547e-08 -7.76812e-16)
(1 -6.5803e-08 -3.09329e-16)
(1.00013 -0.00251469 -2.14511e-18)
(1.00201 -0.00760263 -7.25304e-18)
(1.00632 -0.0130635 -6.28388e-18)
(1.01302 -0.0190528 -9.1776e-18)
(1.02257 -0.0256461 6.67967e-19)
(1.03538 -0.0327045 -2.98627e-17)
(1.05185 -0.0398962 2.17185e-17)
(1.07208 -0.0464145 8.3505e-17)
(1.09566 -0.0513932 -4.43304e-16)
(1.12158 -0.0536608 3.47538e-17)
(1.14765 -0.0526179 2.45902e-15)
(1.17205 -0.0492978 2.59943e-15)
(1.19408 -0.0443859 -5.0033e-15)
(1.2132 -0.0385342 -2.03205e-14)
(1.22924 -0.0322855 -3.70738e-14)
(1.24227 -0.0259384 -4.72023e-14)
(1.25236 -0.0196542 -4.56098e-14)
(1.25961 -0.0135041 -3.20622e-14)
(1.26408 -0.0075496 -1.01301e-14)
(1.26584 -0.00190103 1.46879e-14)
(1.26502 0.00325842 3.82697e-14)
(1.2619 0.00771392 5.92041e-14)
(1.25693 0.0113067 7.70473e-14)
(1.25062 0.0140256 9.16683e-14)
(1.24346 0.0160506 1.02921e-13)
(1.23578 0.017722 1.10523e-13)
(1.22763 0.0194346 1.14215e-13)
(1.21879 0.0214947 1.1395e-13)
(1.2089 0.0239955 1.101e-13)
(1.19761 0.0267703 1.03465e-13)
(1.18477 0.029447 9.50648e-14)
(1.17051 0.0315767 8.59105e-14)
(1.15524 0.0327718 7.68042e-14)
(1.13959 0.0328028 6.82367e-14)
(1.12423 0.0316298 6.04355e-14)
(1.1098 0.0293832 5.33752e-14)
(1.09679 0.0263136 4.68308e-14)
(1.08554 0.0227349 4.04352e-14)
(1.07621 0.0189737 3.37291e-14)
(1.06876 0.0153288 2.6269e-14)
(1.06303 0.0120439 1.77283e-14)
(1.05877 0.00929074 8.00788e-15)
(1.05565 0.00716135 -2.69414e-15)
(1.05331 0.00567039 -1.39091e-14)
(1.05144 0.00476514 -2.49982e-14)
(1.04977 0.00434218 -3.53285e-14)
(1.04808 0.00426866 -4.4428e-14)
(1.04627 0.00440415 -5.20836e-14)
(1.04427 0.00461978 -5.83563e-14)
(1.04211 0.00481184 -6.35187e-14)
(1.03983 0.00490883 -6.79697e-14)
(1.03752 0.00487243 -7.2143e-14)
(1.03526 0.00469389 -7.64301e-14)
(1.03312 0.00438769 -8.1119e-14)
(1.03118 0.00398406 -8.63784e-14)
(1.02947 0.00352164 -9.22352e-14)
(1.028 0.00304108 -9.85893e-14)
(1.02678 0.00257986 -1.05232e-13)
(1.02577 0.00216867 -1.11873e-13)
(1.02494 0.00182917 -1.18192e-13)
(1.02426 0.00157314 -1.23876e-13)
(1.02366 0.00140276 -1.28665e-13)
(1.02312 0.00131191 -1.32374e-13)
(1.02258 0.00128808 -1.34904e-13)
(1.02203 0.00131474 -1.36247e-13)
(1.02145 0.00137371 -1.36459e-13)
(1.02082 0.00144735 -1.35662e-13)
(1.02014 0.00152027 -1.34004e-13)
(1.01942 0.00158055 -1.31647e-13)
(1.01868 0.00162029 -1.28745e-13)
(1.01792 0.0016356 -1.25424e-13)
(1.01717 0.00162619 -1.21782e-13)
(1.01642 0.00159464 -1.17862e-13)
(1.0157 0.00154552 -1.13658e-13)
(1.01501 0.00148449 -1.09116e-13)
(1.01435 0.00141745 -1.04137e-13)
(1.01373 0.00134993 -9.86101e-14)
(1.01314 0.00128656 -9.24357e-14)
(1.01257 0.0012308 -8.55582e-14)
(1.01204 0.00118482 -7.79938e-14)
(1.01151 0.00114949 -6.98299e-14)
(1.01101 0.00112457 -6.12229e-14)
(1.0105 0.00110891 -5.23525e-14)
(1.01001 0.00110073 -4.33839e-14)
(1.00951 0.00109789 -3.4429e-14)
(1.00901 0.00109819 -2.5517e-14)
(1.0085 0.00109959 -1.66097e-14)
(1.008 0.00110041 -7.61858e-15)
(1.00749 0.0010994 1.5456e-15)
(1.00698 0.00109582 1.09315e-14)
(1.00647 0.00108938 2.05283e-14)
(1.00597 0.00108014 3.02656e-14)
(1.00547 0.00106844 4.00507e-14)
(1.00498 0.00105475 4.98096e-14)
(1.00449 0.00103956 5.95299e-14)
(1.004 0.00102331 6.9276e-14)
(1.00353 0.00100632 7.91819e-14)
(1.00306 0.000988737 8.94224e-14)
(1.00259 0.000970537 1.00174e-13)
(1.00214 0.000951474 1.116e-13)
(1.00169 0.000931122 1.2385e-13)
(1.00124 0.000908903 1.37095e-13)
(1.0008 0.000884166 1.51573e-13)
(1.00038 0.000856238 1.67616e-13)
(0.999958 0.000824412 1.85682e-13)
(0.999552 0.000787739 2.06344e-13)
(0.999159 0.000744576 2.3029e-13)
(0.998784 0.000691895 2.58311e-13)
(0.998431 0.00062455 2.9129e-13)
(0.998106 0.000534867 3.30184e-13)
(0.997819 0.000413064 3.75944e-13)
(0.997583 0.000248917 4.29375e-13)
(0.997414 3.47911e-05 4.90968e-13)
(0.997332 -0.000230396 5.60899e-13)
(0.997352 -0.000537296 6.39411e-13)
(0.99749 -0.000863786 7.26785e-13)
(0.997746 -0.00117558 8.2282e-13)
(0.99811 -0.00143062 9.25787e-13)
(0.998554 -0.0015869 1.03096e-12)
(0.999034 -0.00161223 1.12917e-12)
(0.999499 -0.00149326 1.20607e-12)
(0.999896 -0.00124094 1.24251e-12)
(1.00018 -0.000890472 1.21651e-12)
(1.00032 -0.000495058 1.10642e-12)
(1.00032 -0.000114969 8.9526e-13)
(1.0002 0.000195221 5.75764e-13)
(0.999995 0.000397775 1.55217e-13)
(0.999753 0.000478395 -3.41314e-13)
(0.999525 0.000446823 -8.69708e-13)
(0.999349 0.000331807 -1.36952e-12)
(0.99925 0.000172336 -1.77233e-12)
(0.999234 7.85556e-06 -2.01547e-12)
(0.999291 -0.000129957 -2.05798e-12)
(0.999399 -0.000222096 -1.89325e-12)
(0.999534 -0.000263247 -1.55333e-12)
(0.999671 -0.000259485 -1.10246e-12)
(0.999791 -0.000223964 -6.2185e-13)
(0.999884 -0.000172141 -1.90109e-13)
(0.999946 -0.000117811 1.34241e-13)
(0.999983 -7.07045e-05 3.23419e-13)
(0.999998 -3.57603e-05 3.81795e-13)
(1 -1.37378e-05 3.38957e-13)
(0.999998 -2.57861e-06 2.37634e-13)
(0.999994 1.07024e-06 1.20716e-13)
(0.999991 6.02136e-07 2.11053e-14)
(0.99999 -1.32392e-06 -4.3412e-14)
(0.999991 -3.06961e-06 -6.99899e-14)
(0.999993 -3.93588e-06 -6.6622e-14)
(0.999995 -3.88408e-06 -4.63273e-14)
(0.999997 -3.21413e-06 -2.17801e-14)
(0.999999 -2.30289e-06 -1.84081e-15)
(0.999999 -1.44643e-06 9.58458e-15)
(1 -8.02962e-07 1.27793e-14)
(1 -4.05538e-07 1.04428e-14)
(1 -2.09101e-07 5.84702e-15)
(1 -1.38262e-07 1.53951e-15)
(1 -1.26458e-07 -1.18101e-15)
(1 -1.24786e-07 -2.14203e-15)
(1 -1.21599e-07 -1.92163e-15)
(1 -8.5838e-08 -7.69218e-16)
(1.00012 -0.00301951 2.12455e-18)
(1.00189 -0.00913586 7.82417e-18)
(1.00595 -0.0157407 5.34133e-18)
(1.01233 -0.0230519 9.83036e-18)
(1.02159 -0.0311945 2.3112e-17)
(1.03424 -0.040032 -9.82225e-17)
(1.05088 -0.0491786 4.69267e-16)
(1.07176 -0.0575846 -9.93409e-16)
(1.0966 -0.0641175 -4.60973e-16)
(1.12431 -0.0670393 6.97746e-15)
(1.15203 -0.0655068 2.45338e-15)
(1.17756 -0.0611204 -3.13162e-14)
(1.20033 -0.0547973 -7.60672e-14)
(1.21985 -0.0473894 -8.97029e-14)
(1.23605 -0.0395843 -4.12167e-14)
(1.2491 -0.0317278 6.99198e-14)
(1.25916 -0.0239879 2.17768e-13)
(1.26633 -0.0164171 3.65576e-13)
(1.27067 -0.00906624 4.82145e-13)
(1.2722 -0.00206336 5.46946e-13)
(1.27104 0.00434709 5.72335e-13)
(1.26748 0.00986431 5.72041e-13)
(1.262 0.014258 5.52972e-13)
(1.25523 0.0174995 5.19234e-13)
(1.24776 0.0198265 4.73254e-13)
(1.23998 0.0217022 4.1684e-13)
(1.23193 0.0236699 3.52669e-13)
(1.22331 0.0261547 2.85165e-13)
(1.21361 0.0292881 2.20111e-13)
(1.20234 0.0328433 1.62969e-13)
(1.18928 0.036313 1.16968e-13)
(1.17455 0.0390897 8.2371e-14)
(1.15864 0.0406562 5.7078e-14)
(1.14226 0.0407139 3.796e-14)
(1.1262 0.03922 2.19094e-14)
(1.11119 0.036354 6.3617e-15)
(1.09777 0.0324481 -1.06877e-14)
(1.0863 0.0279113 -3.08076e-14)
(1.07692 0.0231628 -5.51433e-14)
(1.0696 0.0185828 -8.42863e-14)
(1.06412 0.0144784 -1.17995e-13)
(1.06019 0.0110633 -1.55003e-13)
(1.05742 0.00844946 -1.93082e-13)
(1.05543 0.00664997 -2.2944e-13)
(1.05385 0.0055923 -2.61375e-13)
(1.0524 0.00513978 -2.86913e-13)
(1.05086 0.00511915 -3.05212e-13)
(1.0491 0.0053491 -3.16613e-13)
(1.0471 0.00566503 -3.22378e-13)
(1.04488 0.0059363 -3.24288e-13)
(1.04252 0.00607471 -3.24211e-13)
(1.04011 0.00603501 -3.23779e-13)
(1.03776 0.00580958 -3.24192e-13)
(1.03555 0.0054198 -3.26136e-13)
(1.03355 0.00490639 -3.29785e-13)
(1.03181 0.00431995 -3.3485e-13)
(1.03034 0.00371288 -3.40686e-13)
(1.02913 0.00313299 -3.46418e-13)
(1.02816 0.00261901 -3.51098e-13)
(1.02738 0.00219788 -3.5386e-13)
(1.02674 0.00188383 -3.54041e-13)
(1.02619 0.00167885 -3.51262e-13)