/*--------------------------------*- C++ -*----------------------------------*\
  =========                 |
  \\      /  F ield         | OpenFOAM: The Open Source CFD Toolbox
   \\    /   O peration     | Website:  https://openfoam.org
    \\  /    A nd           | Version:  11
     \\/     M anipulation  |
\*---------------------------------------------------------------------------*/
FoamFile
{
    format      ascii;
    class       volVectorField;
    location    "6.649256";
    object      vorticity;
}
// * * * * * * * * * * * * * * * * * * * * * * * * * * * * * * * * * * * * * //

dimensions      [0 0 -1 0 0 0 0];

internalField   nonuniform List<vector> 
7132
(
(-3.27997e-17 -1.82594e-15 -0.0115712)
(-1.4422e-16 -1.79714e-15 -0.0115954)
(-1.4318e-16 -1.87079e-17 -0.0116452)
(-1.68386e-16 -1.77185e-15 -0.0117242)
(-2.05299e-16 -1.76029e-15 -0.0118358)
(-2.00487e-16 3.52526e-18 -0.0119815)
(-1.7986e-16 1.56825e-17 -0.0121622)
(-1.64999e-16 1.60061e-17 -0.012373)
(-8.20324e-17 1.08512e-17 -0.0126079)
(-4.2153e-17 7.43131e-18 -0.0128549)
(-8.98839e-17 4.78702e-18 -0.0130969)
(-8.21097e-17 1.34344e-17 -0.0133354)
(-1.49045e-16 7.43724e-18 -0.013557)
(8.08104e-17 9.64347e-17 -0.0137553)
(9.66094e-16 -3.27171e-15 -0.0139272)
(2.07126e-15 -1.53673e-15 -0.0140701)
(2.94484e-15 -1.71239e-15 -0.0141832)
(2.82872e-15 -2.97911e-17 -0.0142663)
(2.15725e-15 -1.54833e-15 -0.0143187)
(9.67705e-16 -1.56916e-15 -0.0143394)
(-7.96954e-16 7.33405e-17 -0.014327)
(-2.62141e-15 1.15246e-16 -0.0142809)
(-4.30804e-15 1.99251e-16 -0.0142021)
(-5.65013e-15 1.46936e-16 -0.0140948)
(-6.83869e-15 1.90911e-15 -0.0139673)
(-7.26284e-15 3.18335e-16 -0.0138316)
(-7.10297e-15 3.09027e-16 -0.0137022)
(-6.37219e-15 2.88497e-16 -0.0135928)
(-5.08541e-15 1.42081e-16 -0.0135133)
(-3.64202e-15 1.68727e-15 -0.0134665)
(-1.72669e-15 3.3166e-15 -0.0134474)
(-2.33055e-17 1.58242e-15 -0.0134436)
(1.8429e-15 -2.02874e-16 -0.0134386)
(3.68907e-15 1.39637e-15 -0.0134155)
(5.41858e-15 1.32866e-15 -0.0133602)
(7.33982e-15 1.23964e-15 -0.0132644)
(9.19302e-15 1.19323e-15 -0.0131269)
(1.1115e-14 -6.30576e-16 -0.0129538)
(1.31174e-14 2.68906e-15 -0.0127569)
(1.51318e-14 8.26435e-16 -0.0125518)
(1.72568e-14 7.01627e-16 -0.012355)
(1.9212e-14 6.2728e-16 -0.0121812)
(2.09566e-14 -1.17811e-15 -0.0120412)
(2.23533e-14 5.00261e-16 -0.0119403)
(2.33002e-14 5.09361e-16 -0.0118783)
(2.38387e-14 5.58468e-16 -0.0118501)
(2.386e-14 6.49106e-16 -0.011847)
(2.3456e-14 -9.98974e-16 -0.0118584)
(2.26707e-14 8.22167e-16 -0.0118737)
(2.15504e-14 9.47672e-16 -0.0118836)
(2.02153e-14 -6.612e-16 -0.0118812)
(1.864e-14 -2.29918e-15 -0.0118628)
(1.6743e-14 -4.57076e-16 -0.0118272)
(1.45717e-14 -3.1763e-16 -0.011776)
(1.20228e-14 -1.54364e-16 -0.0117125)
(9.10186e-15 3.64647e-17 -0.0116411)
(5.75069e-15 -1.49948e-15 -0.0115666)
(1.8993e-15 4.58546e-16 -0.0114933)
(-2.37721e-15 7.13932e-16 -0.011425)
(-7.07816e-15 9.8494e-16 -0.0113641)
(-1.20744e-14 1.26093e-15 -0.0113119)
(-1.72985e-14 -2.14348e-16 -0.0112686)
(-2.26611e-14 1.7783e-15 -0.0112332)
(-2.80108e-14 2.7749e-16 -0.0112042)
(-3.32826e-14 4.73784e-16 -0.0111797)
(-3.83302e-14 2.39199e-15 -0.0111574)
(-4.31726e-14 8.10835e-16 -0.0111356)
(-4.7738e-14 2.68265e-15 -0.0111124)
(-5.20059e-14 1.06248e-15 -0.0110869)
(-5.60282e-14 1.15667e-15 -0.0110582)
(-5.97832e-14 2.99775e-15 -0.0110262)
(-6.33899e-14 1.36991e-15 -0.0109911)
(-6.6837e-14 3.22522e-15 -0.0109533)
(-7.01297e-14 1.60917e-15 -0.0109135)
(-7.32879e-14 1.71403e-15 -0.0108723)
(-7.62245e-14 3.54997e-15 -0.0108305)
(-7.89541e-14 1.88009e-15 -0.0107885)
(-8.13505e-14 3.64054e-15 -0.0107466)
(-8.33293e-14 1.87022e-15 -0.0107052)
(-8.48573e-14 1.77296e-15 -0.0106641)
(-8.58621e-14 3.38202e-15 -0.0106232)
(-8.64304e-14 1.49142e-15 -0.0105822)
(-8.65512e-14 3.06525e-15 -0.0105408)
(-8.62788e-14 1.16018e-15 -0.0104986)
(-8.56818e-14 9.83421e-16 -0.0104551)
(-8.47483e-14 2.55073e-15 -0.01041)
(-8.35637e-14 6.32048e-16 -0.0103631)
(-8.20585e-14 2.17067e-15 -0.0103138)
(-8.02165e-14 2.12146e-16 -0.0102622)
(-7.80523e-14 -2.98054e-17 -0.0102079)
(-7.55472e-14 1.47964e-15 -0.0101508)
(-7.28031e-14 -4.79942e-16 -0.0100908)
(-6.98299e-14 1.04474e-15 -0.0100276)
(-6.66274e-14 8.23613e-16 -0.00996117)
(-6.31792e-14 -1.20752e-15 -0.00989124)
(-5.93615e-14 1.14193e-16 -0.00981758)
(-5.49966e-14 -2.22706e-15 -0.00973992)
(-4.98227e-14 -1.33245e-15 -0.00965794)
(-4.35603e-14 -2.4426e-15 -0.00957123)
(-3.59784e-14 -5.57527e-15 -0.00947928)
(-2.68603e-14 -5.4611e-15 -0.0093814)
(-1.60911e-14 -8.94901e-15 -0.00927671)
(-3.638e-15 -8.91964e-15 -0.00916424)
(1.03851e-14 -1.03574e-14 -0.00904323)
(2.5668e-14 -1.30149e-14 -0.00891354)
(4.17771e-14 -1.13969e-14 -0.00877613)
(5.81352e-14 -1.22277e-14 -0.00863328)
(7.41451e-14 -8.41816e-15 -0.00848811)
(8.92466e-14 -5.16333e-15 -0.00834305)
(1.0297e-13 -2.58192e-15 -0.00819726)
(1.15032e-13 4.35963e-15 -0.00804339)
(1.25242e-13 8.43093e-15 -0.00786466)
(1.33548e-13 1.61529e-14 -0.00763401)
(1.40212e-13 2.16355e-14 -0.00731626)
(1.46109e-13 2.39053e-14 -0.00687426)
(1.52994e-13 2.70545e-14 -0.00627825)
(1.63376e-13 2.31064e-14 -0.00551645)
(1.80014e-13 1.85631e-14 -0.00460376)
(2.04712e-13 8.87562e-15 -0.0035854)
(2.36701e-13 -3.81847e-15 -0.00253319)
(2.7115e-13 -1.06177e-14 -0.00153431)
(2.98237e-13 -1.21146e-14 -0.000674631)
(3.03631e-13 -2.18245e-15 -2.09093e-05)
(2.70471e-13 2.1813e-14 0.000393284)
(1.82874e-13 5.74674e-14 0.000573721)
(3.05375e-14 1.05081e-13 0.000561999)
(-1.86754e-13 1.50399e-13 0.000423495)
(-4.56009e-13 1.83451e-13 0.000230639)
(-7.50228e-13 1.92568e-13 4.66021e-05)
(-1.03074e-12 1.67777e-13 -8.6255e-05)
(-1.25329e-12 1.12701e-13 -0.000150754)
(-1.37748e-12 2.88742e-14 -0.000152116)
(-1.37719e-12 -6.76141e-14 -0.000110185)
(-1.24861e-12 -1.58102e-13 -4.9894e-05)
(-1.01262e-12 -2.263e-13 6.95575e-06)
(-7.10347e-13 -2.54467e-13 4.66065e-05)
(-3.93392e-13 -2.44092e-13 6.45041e-05)
(-1.11484e-13 -1.99172e-13 6.3482e-05)
(9.85885e-14 -1.32749e-13 5.04288e-05)
(2.19687e-13 -6.28725e-14 3.29209e-05)
(2.55313e-13 6.93036e-16 1.68431e-05)
(2.25114e-13 4.26976e-14 5.37529e-06)
(1.57159e-13 6.14773e-14 -8.38657e-07)
(7.95043e-14 5.98423e-14 -2.83341e-06)
(1.35837e-14 4.29651e-14 -2.31015e-06)
(-2.90355e-14 2.42904e-14 -8.48144e-07)
(-4.65843e-14 5.61025e-15 5.0339e-07)
(-4.43479e-14 -7.10339e-15 1.28622e-06)
(-3.09035e-14 -1.26846e-14 1.48042e-06)
(-1.46313e-14 -1.41131e-14 1.2854e-06)
(-1.37296e-15 -8.62174e-15 9.37597e-07)
(6.26197e-15 -3.93826e-15 6.08627e-07)
(8.45457e-15 -1.34578e-16 3.78233e-07)
(6.97643e-15 1.98929e-15 2.53969e-07)
(3.95668e-15 7.52295e-16 2.06212e-07)
(1.09554e-15 1.93981e-15 1.97862e-07)
(-7.45421e-16 1.00786e-15 2.01905e-07)
(-1.41632e-15 1.9805e-16 2.00031e-07)
(-1.28162e-15 -3.73728e-16 2.0843e-07)
(-5.21643e-16 -2.04705e-15 1.73895e-07)
(-3.28326e-17 -3.76606e-18 -0.0346062)
(-1.49508e-16 -7.00963e-18 -0.0346799)
(-1.57571e-16 -7.47176e-18 -0.0348285)
(-1.86781e-16 -7.75928e-18 -0.0350621)
(-2.34962e-16 -7.81944e-18 -0.0353904)
(-2.3327e-16 -7.50043e-18 -0.0358186)
(-2.41235e-16 -2.06135e-18 -0.0363501)
(-2.37564e-16 -3.29077e-17 -0.0369721)
(-3.93097e-17 1.68415e-15 -0.0376691)
(-2.06969e-16 1.13571e-17 -0.0384064)
(-9.37624e-16 2.47653e-17 -0.0391299)
(-7.62892e-16 1.77774e-15 -0.0398441)
(1.96789e-15 -7.40228e-17 -0.0405049)
(6.65119e-15 -4.64523e-16 -0.0410928)
(1.03505e-14 -7.99175e-16 -0.0415982)
(9.42663e-15 -7.89683e-16 -0.0420126)
(2.52856e-15 -3.54709e-16 -0.0423343)
(-9.34975e-15 3.64851e-16 -0.0425641)
(-2.24827e-14 1.11669e-15 -0.0427043)
(-3.33901e-14 1.64351e-15 -0.0427588)
(-4.0972e-14 1.86811e-15 -0.0427328)
(-4.50016e-14 1.87079e-15 -0.0426329)
(-4.54607e-14 1.71361e-15 -0.0424679)
(-4.2347e-14 1.41226e-15 -0.0422485)
(-3.61401e-14 9.8074e-16 -0.0419862)
(-2.66333e-14 4.50477e-16 -0.0416919)
(-1.46381e-14 -1.36297e-16 -0.0413742)
(-1.04878e-15 -7.20283e-16 -0.0410384)
(1.30818e-14 -1.2247e-15 -0.0406859)
(2.63912e-14 -1.7302e-15 -0.0403159)
(3.82248e-14 -2.29174e-16 -0.0399272)
(4.8198e-14 -3.66844e-15 -0.0395197)
(5.64215e-14 -3.79039e-15 -0.0390957)
(6.28897e-14 -2.12619e-15 -0.0386596)
(6.83227e-14 -3.96617e-15 -0.0382171)
(7.31514e-14 -6.49274e-16 -0.0377758)
(7.78498e-14 -2.42909e-15 -0.0373442)
(8.26991e-14 -4.32746e-15 -0.0369322)
(8.74904e-14 -2.79047e-15 -0.0365501)
(9.20775e-14 -4.71187e-15 -0.0362073)
(9.59459e-14 -1.33765e-15 -0.0359109)
(9.85818e-14 -2.9565e-15 -0.0356636)
(9.94748e-14 -4.48346e-15 -0.0354639)
(9.81576e-14 -2.40668e-15 -0.0353054)
(9.46063e-14 -3.70237e-15 -0.035179)
(8.89817e-14 2.78553e-16 -0.0350734)
(8.16772e-14 -8.93871e-16 -0.0349778)
(7.31519e-14 -2.13904e-15 -0.0348827)
(6.37521e-14 3.98267e-17 -0.0347809)
(5.37969e-14 -1.29367e-15 -0.0346682)
(4.34121e-14 -9.39436e-16 -0.0345433)
(3.24932e-14 1.17169e-15 -0.0344075)
(2.0756e-14 -1.58477e-16 -0.0342638)
(7.97452e-15 2.04248e-15 -0.0341168)
(-6.15032e-15 8.4581e-16 -0.0339712)
(-2.18448e-14 1.43822e-15 -0.0338316)
(-3.92349e-14 3.83652e-15 -0.0337015)
(-5.83492e-14 2.78735e-15 -0.0335831)
(-7.89271e-14 5.20266e-15 -0.0334769)
(-1.00624e-13 4.09881e-15 -0.0333823)
(-1.22938e-13 4.63648e-15 -0.0332971)
(-1.45347e-13 6.81371e-15 -0.0332186)
(-1.67313e-13 5.39976e-15 -0.0331435)
(-1.88278e-13 7.3231e-15 -0.0330689)
(-2.07901e-13 3.89866e-15 -0.0329922)
(-2.25845e-13 9.0717e-15 -0.0329112)
(-2.4198e-13 7.24946e-15 -0.0328249)
(-2.56342e-13 5.36466e-15 -0.0327329)
(-2.69008e-13 6.94238e-15 -0.0326355)
(-2.80247e-13 3.31039e-15 -0.0325334)
(-2.90239e-13 8.41331e-15 -0.0324277)
(-2.99226e-13 6.63155e-15 -0.0323199)
(-3.07407e-13 4.86039e-15 -0.0322109)
(-3.14817e-13 6.56956e-15 -0.0321018)
(-3.21471e-13 3.0266e-15 -0.0319933)
(-3.27133e-13 8.11777e-15 -0.0318855)
(-3.31546e-13 6.17784e-15 -0.0317785)
(-3.34412e-13 4.09333e-15 -0.0316717)
(-3.35413e-13 5.35856e-15 -0.0315644)
(-3.34438e-13 1.30453e-15 -0.0314559)
(-3.3141e-13 5.90316e-15 -0.031345)
(-3.26489e-13 3.57071e-15 -0.031231)
(-3.19954e-13 1.25461e-15 -0.0311128)
(-3.12073e-13 2.46032e-15 -0.0309898)
(-3.03162e-13 -1.51653e-15 -0.0308613)
(-2.93298e-13 3.22639e-15 -0.0307268)
(-2.82524e-13 1.02186e-15 -0.0305861)
(-2.70775e-13 -1.23768e-15 -0.0304388)
(-2.57931e-13 -5.6134e-17 -0.0302847)
(-2.44023e-13 -4.09927e-15 -0.0301235)
(-2.29084e-13 5.89681e-16 -0.0299548)
(-2.13289e-13 -1.60386e-15 -0.0297783)
(-1.96854e-13 -2.04311e-15 -0.0295934)
(-1.79818e-13 -7.6689e-16 -0.0293995)
(-1.62071e-13 -3.10574e-15 -0.0291958)
(-1.43197e-13 -2.24241e-15 -0.0289814)
(-1.22502e-13 -5.26174e-15 -0.0287555)
(-9.91347e-14 -7.05071e-15 -0.028517)
(-7.21213e-14 -7.62993e-15 -0.0282648)
(-4.06206e-14 -1.21905e-14 -0.0279973)
(-3.93818e-15 -1.367e-14 -0.0277128)
(3.83769e-14 -1.88254e-14 -0.0274087)
(8.64385e-14 -2.21578e-14 -0.0270825)
(1.40064e-13 -2.32755e-14 -0.0267319)
(1.98611e-13 -2.69762e-14 -0.0263568)
(2.61095e-13 -2.58959e-14 -0.0259602)
(3.26275e-13 -2.66769e-14 -0.0255494)
(3.92852e-13 -2.39739e-14 -0.0251346)
(4.59845e-13 -1.78412e-14 -0.0247254)
(5.26689e-13 -1.37399e-14 -0.0243228)
(5.93351e-13 -5.04143e-15 -0.0239095)
(6.60081e-13 9.07528e-16 -0.0234407)
(7.27193e-13 8.6679e-15 -0.0228395)
(7.95804e-13 1.709e-14 -0.0220017)
(8.68949e-13 1.9249e-14 -0.0208124)
(9.5217e-13 2.01555e-14 -0.0191725)
(1.05289e-12 1.1331e-14 -0.0170314)
(1.17794e-12 -2.10493e-15 -0.0144143)
(1.32916e-12 -1.77334e-14 -0.0114377)
(1.49748e-12 -3.53025e-14 -0.00830171)
(1.65795e-12 -3.96508e-14 -0.0052613)
(1.76764e-12 -2.66208e-14 -0.0025781)
(1.76839e-12 1.17006e-14 -0.000467266)
(1.59534e-12 8.39264e-14 0.000947409)
(1.19036e-12 1.79169e-13 0.00165666)
(5.18781e-13 2.9163e-13 0.0017608)
(-4.13902e-13 3.95406e-13 0.0014387)
(-1.55132e-12 4.65188e-13 0.000900755)
(-2.78316e-12 4.81668e-13 0.000340284)
(-3.95403e-12 4.21041e-13 -0.000103449)
(-4.88717e-12 2.87807e-13 -0.000362213)
(-5.42123e-12 9.25598e-14 -0.000434768)
(-5.45173e-12 -1.32049e-13 -0.000367101)
(-4.96324e-12 -3.38649e-13 -0.000225901)
(-4.03902e-12 -4.93698e-13 -7.42956e-05)
(-2.84388e-12 -5.62348e-13 4.39714e-05)
(-1.58483e-12 -5.41789e-13 0.000109894)
(-4.61684e-13 -4.45162e-13 0.000125758)
(3.7749e-13 -2.96599e-13 0.000106751)
(8.63366e-13 -1.395e-13 7.17857e-05)
(1.00903e-12 -2.85783e-16 3.66081e-05)
(8.92257e-13 9.35091e-14 1.04699e-05)
(6.244e-13 1.34282e-13 -3.92009e-06)
(3.17001e-13 1.33365e-13 -8.42036e-06)
(5.55045e-14 9.89697e-14 -6.89068e-06)
(-1.13933e-13 5.61092e-14 -3.10552e-06)
(-1.8397e-13 1.50012e-14 3.77076e-07)
(-1.75501e-13 -1.49438e-14 2.43639e-06)
(-1.22496e-13 -2.58082e-14 3.03481e-06)
(-5.81116e-14 -2.71437e-14 2.67459e-06)
(-5.59536e-15 -1.73336e-14 1.94119e-06)
(2.47352e-14 -7.11731e-15 1.25048e-06)
(3.34743e-14 -4.91806e-16 7.87465e-07)
(2.76093e-14 5.97296e-15 5.61334e-07)
(1.56554e-14 5.42746e-15 4.96173e-07)
(4.30911e-15 6.02559e-15 5.04212e-07)
(-2.93749e-15 3.99852e-15 5.26731e-07)
(-5.57868e-15 4.66149e-16 5.24878e-07)
(-5.07827e-15 9.13655e-16 5.53614e-07)
(-2.06497e-15 -6.92314e-16 4.61904e-07)
(-1.02309e-18 -4.63571e-20 -0.0573299)
(-1.68918e-17 -4.27944e-20 -0.0574485)
(-3.15369e-17 -7.14847e-20 -0.0576891)
(-5.48083e-17 1.57091e-18 -0.0580685)
(-6.50504e-17 -2.31959e-18 -0.0586028)
(-7.05749e-17 6.6616e-18 -0.059301)
(-2.69792e-16 1.78295e-17 -0.0601693)
(3.17576e-16 -7.14038e-17 -0.0611861)
(-4.27241e-17 -4.44632e-18 -0.062327)
(-2.97483e-15 4.43036e-16 -0.063532)
(-6.4479e-16 2.96301e-16 -0.0647065)
(1.34029e-14 -1.43932e-15 -0.0658703)
(2.67788e-14 -3.71316e-15 -0.0669426)
(1.59411e-14 -4.09488e-15 -0.0678921)
(-3.25451e-14 -1.18998e-15 -0.0687032)
(-1.10569e-13 4.10898e-15 -0.0693619)
(-1.93904e-13 9.41052e-15 -0.0698668)
(-2.55894e-13 1.24758e-14 -0.0702207)
(-2.79244e-13 1.22066e-14 -0.070431)
(-2.59197e-13 9.41023e-15 -0.0705095)
(-2.10033e-13 5.87909e-15 -0.0704729)
(-1.44755e-13 2.35961e-15 -0.0703408)
(-6.9595e-14 -1.12807e-15 -0.0701331)
(1.1381e-14 -4.51338e-15 -0.0698654)
(9.46361e-14 -7.68246e-15 -0.0695449)
(1.76305e-13 -1.04326e-14 -0.0691665)
(2.51885e-13 -1.24832e-14 -0.0687134)
(3.16625e-13 -1.35715e-14 -0.0681607)
(3.66548e-13 -1.35779e-14 -0.0674842)
(3.99568e-13 -1.26325e-14 -0.0666703)
(4.1604e-13 -1.10494e-14 -0.0657249)
(4.18608e-13 -9.22354e-15 -0.0646765)
(4.11268e-13 -7.55554e-15 -0.0635734)
(3.98073e-13 -6.29573e-15 -0.0624748)
(3.82541e-13 -5.54366e-15 -0.0614401)
(3.67053e-13 -5.26544e-15 -0.0605193)
(3.52642e-13 -5.30182e-15 -0.0597461)
(3.3911e-13 -5.45085e-15 -0.0591357)
(3.25146e-13 -5.47297e-15 -0.0586844)
(3.08736e-13 -5.13945e-15 -0.0583728)
(2.87606e-13 -4.28863e-15 -0.0581695)
(2.59915e-13 -2.86509e-15 -0.0580364)
(2.24783e-13 -9.65996e-16 -0.0579339)
(1.82659e-13 1.19809e-15 -0.0578262)
(1.35273e-13 3.3617e-15 -0.0576859)
(8.51479e-14 5.28657e-15 -0.0574961)
(3.48922e-14 6.831e-15 -0.0572518)
(-1.34272e-14 7.96359e-15 -0.0569581)
(-5.87067e-14 8.76581e-15 -0.0566285)
(-1.00895e-13 9.38465e-15 -0.0562808)
(-1.40822e-13 9.98894e-15 -0.0559344)
(-1.79891e-13 1.24983e-14 -0.0556072)
(-2.19735e-13 1.18023e-14 -0.0553134)
(-2.61913e-13 1.31355e-14 -0.0550625)
(-3.076e-13 1.47561e-14 -0.0548586)
(-3.57425e-13 1.65771e-14 -0.0547006)
(-4.11364e-13 2.02222e-14 -0.0545832)
(-4.68723e-13 2.03047e-14 -0.0544977)
(-5.28226e-13 2.18511e-14 -0.0544335)
(-5.88143e-13 2.29913e-14 -0.0543792)
(-6.46536e-13 2.36218e-14 -0.0543241)
(-7.01486e-13 2.54422e-14 -0.0542591)
(-7.51308e-13 2.32436e-14 -0.0541775)
(-7.94729e-13 2.40414e-14 -0.0540754)
(-8.30973e-13 2.09918e-14 -0.0539515)
(-8.59787e-13 1.94306e-14 -0.0538071)
(-8.81407e-13 1.95298e-14 -0.0536454)
(-8.96452e-13 1.61966e-14 -0.0534706)
(-9.05802e-13 1.64847e-14 -0.0532879)
(-9.10442e-13 1.35063e-14 -0.0531019)
(-9.11332e-13 1.24865e-14 -0.052917)
(-9.09267e-13 1.34244e-14 -0.0527362)
(-9.04757e-13 1.10206e-14 -0.0525616)
(-8.9796e-13 1.21111e-14 -0.0523939)
(-8.88639e-13 9.60663e-15 -0.0522327)
(-8.76215e-13 8.58659e-15 -0.0520766)
(-8.59895e-13 8.98947e-15 -0.0519235)
(-8.38863e-13 5.57378e-15 -0.0517708)
(-8.12526e-13 5.35338e-15 -0.051616)
(-7.807e-13 1.50564e-15 -0.0514564)
(-7.43707e-13 -5.93428e-16 -0.0512898)
(-7.02334e-13 -7.6629e-16 -0.0511143)
(-6.57643e-13 -4.14283e-15 -0.0509287)
(-6.10713e-13 -3.76603e-15 -0.0507322)
(-5.62356e-13 -6.66943e-15 -0.0505243)
(-5.12958e-13 -7.76854e-15 -0.0503051)
(-4.62454e-13 -7.15958e-15 -0.0500748)
(-4.10485e-13 -1.0126e-14 -0.0498335)
(-3.56655e-13 -9.694e-15 -0.0495813)
(-3.00775e-13 -1.2719e-14 -0.0493184)
(-2.43021e-13 -1.3888e-14 -0.0490442)
(-1.83876e-13 -1.48601e-14 -0.0487581)
(-1.23911e-13 -1.56915e-14 -0.0484593)
(-6.34696e-14 -1.65678e-14 -0.0481464)
(-2.37953e-15 -1.77829e-14 -0.0478182)
(6.01862e-14 -1.96703e-14 -0.047473)
(1.25648e-13 -2.25233e-14 -0.0471092)
(1.95789e-13 -2.65231e-14 -0.0467251)
(2.72452e-13 -3.16996e-14 -0.0463188)
(3.5729e-13 -3.79319e-14 -0.0458879)
(4.51646e-13 -4.49598e-14 -0.0454295)
(5.5658e-13 -5.24024e-14 -0.0449401)
(6.72975e-13 -5.97635e-14 -0.0444154)
(8.01649e-13 -6.64438e-14 -0.0438522)
(9.43427e-13 -7.17955e-14 -0.04325)
(1.0992e-12 -7.5229e-14 -0.0426139)
(1.27005e-12 -7.63715e-14 -0.0419561)
(1.45757e-12 -7.52032e-14 -0.0412951)
(1.66414e-12 -7.20815e-14 -0.0406492)
(1.8932e-12 -6.76002e-14 -0.0400249)
(2.14892e-12 -6.23363e-14 -0.0394003)
(2.43535e-12 -5.6755e-14 -0.0387088)
(2.7554e-12 -5.17088e-14 -0.0378292)
(3.1116e-12 -4.92427e-14 -0.036591)
(3.5091e-12 -5.25427e-14 -0.0347988)
(3.95599e-12 -6.49147e-14 -0.0322747)
(4.46047e-12 -8.80461e-14 -0.0289128)
(5.02378e-12 -1.19574e-13 -0.0247286)
(5.62905e-12 -1.50893e-13 -0.0198888)
(6.2288e-12 -1.66476e-13 -0.0147059)
(6.73609e-12 -1.45696e-13 -0.00959487)
(7.02407e-12 -6.73373e-14 -0.00499669)
(6.93715e-12 8.39643e-14 -0.00128956)
(6.31409e-12 3.10831e-13 0.00128952)
(5.02069e-12 5.97483e-13 0.00268978)
(2.98868e-12 9.0721e-13 0.00304577)
(2.53774e-13 1.18545e-12 0.00263236)
(-3.01998e-12 1.36808e-12 0.00179052)
(-6.53228e-12 1.39393e-12 0.000846746)
(-9.8671e-12 1.22152e-12 4.86427e-05)
(-1.2552e-11 8.46301e-13 -0.00046845)
(-1.41535e-11 3.11154e-13 -0.000680328)
(-1.43871e-11 -2.96607e-13 -0.000645701)
(-1.32049e-11 -8.64457e-13 -0.000464801)
(-1.08244e-11 -1.28425e-12 -0.000239518)
(-7.68507e-12 -1.48157e-12 -4.57132e-05)
(-4.34358e-12 -1.43519e-12 7.8117e-05)
(-1.3407e-12 -1.18033e-12 0.000127715)
(9.19525e-13 -7.95274e-13 0.000121206)
(2.24361e-12 -3.76909e-13 8.50631e-05)
(2.65959e-12 -1.37525e-14 4.29625e-05)
(2.37023e-12 2.35014e-13 9.8855e-06)
(1.67041e-12 3.49106e-13 -8.68964e-06)
(8.57588e-13 3.4429e-13 -1.42768e-05)
(1.61228e-13 2.60167e-13 -1.17262e-05)
(-2.9328e-13 1.44028e-13 -6.11051e-06)
(-4.84167e-13 3.63942e-14 -9.57866e-07)
(-4.65435e-13 -3.78404e-14 2.17077e-06)
(-3.26802e-13 -7.13795e-14 3.22995e-06)
(-1.56439e-13 -7.08289e-14 2.9322e-06)
(-1.65992e-14 -5.00451e-14 2.10072e-06)
(6.46721e-14 -2.34731e-14 1.31199e-06)
(8.85597e-14 -1.57164e-15 8.14399e-07)
(7.33827e-14 1.08987e-14 6.12284e-07)
(4.17937e-14 1.41371e-14 5.97874e-07)
(1.16804e-14 1.12363e-14 6.5399e-07)
(-7.64662e-15 5.95176e-15 7.08829e-07)
(-1.47442e-14 1.26844e-15 7.154e-07)
(-1.34952e-14 -2.13058e-15 7.7273e-07)
(-5.55737e-15 -1.81898e-15 6.37309e-07)
(-4.32528e-17 5.19136e-18 -0.0795209)
(-1.41993e-16 8.24729e-18 -0.079677)
(-1.25726e-16 1.14865e-17 -0.0799972)
(-1.83606e-16 8.99746e-18 -0.0805054)
(1.69369e-17 6.38474e-20 -0.0812247)
(-6.01918e-16 9.48704e-17 -0.0821686)
(4.50492e-16 -1.96137e-16 -0.0833465)
(1.70096e-15 -1.46442e-16 -0.0847272)
(-8.93844e-15 3.33036e-15 -0.0862798)
(7.18408e-16 3.1239e-16 -0.0879131)
(4.98365e-14 -9.89882e-15 -0.0894852)
(5.26667e-14 -1.19341e-14 -0.0910546)
(-1.0219e-13 -1.34313e-15 -0.0924925)
(-4.13292e-13 2.91974e-14 -0.0937598)
(-7.51979e-13 6.24558e-14 -0.0948382)
(-9.53553e-13 7.98898e-14 -0.0957079)
(-9.14601e-13 7.23081e-14 -0.0963683)
(-6.31775e-13 4.30347e-14 -0.0968237)
(-1.79686e-13 2.76808e-15 -0.0970853)
(3.27821e-13 -3.29617e-14 -0.0971712)
(8.06668e-13 -5.53529e-14 -0.0971056)
(1.2287e-12 -6.83484e-14 -0.096917)
(1.58526e-12 -7.63545e-14 -0.0966339)
(1.87406e-12 -8.07033e-14 -0.0962783)
(2.09261e-12 -8.14811e-14 -0.0958595)
(2.23568e-12 -7.8174e-14 -0.0953688)
(2.29862e-12 -7.02965e-14 -0.0947793)
(2.28105e-12 -5.80519e-14 -0.0940512)
(2.19123e-12 -4.26961e-14 -0.0931438)
(2.046e-12 -2.64759e-14 -0.0920308)
(1.86646e-12 -9.74916e-15 -0.0907139)
(1.67343e-12 -1.28255e-15 -0.0892291)
(1.48289e-12 6.47683e-15 -0.0876446)
(1.30442e-12 1.22373e-14 -0.0860499)
(1.14234e-12 1.15441e-14 -0.0845393)
(9.95509e-13 1.43001e-14 -0.0831961)
(8.59344e-13 1.15424e-14 -0.0820797)
(7.26211e-13 9.4206e-15 -0.0812185)
(5.86815e-13 1.23965e-14 -0.0806089)
(4.32674e-13 1.40584e-14 -0.0802193)
(2.57423e-13 2.30727e-14 -0.079997)
(5.95966e-14 2.84549e-14 -0.0798779)
(-1.56518e-13 3.41449e-14 -0.0797961)
(-3.81289e-13 4.23484e-14 -0.0796929)
(-6.01734e-13 4.50531e-14 -0.079524)
(-8.05228e-13 5.04688e-14 -0.0792633)
(-9.82404e-13 4.83937e-14 -0.0789044)
(-1.12921e-12 4.46604e-14 -0.0784579)
(-1.24711e-12 4.37737e-14 -0.0779481)
(-1.34168e-12 3.97641e-14 -0.0774068)
(-1.42102e-12 3.85569e-14 -0.0768684)
(-1.49378e-12 4.06283e-14 -0.0763644)
(-1.56762e-12 4.08542e-14 -0.0759197)
(-1.64816e-12 4.59746e-14 -0.0755505)
(-1.73856e-12 4.86019e-14 -0.0752633)
(-1.83923e-12 5.33187e-14 -0.0750554)
(-1.94811e-12 5.94856e-14 -0.0749163)
(-2.06106e-12 6.12199e-14 -0.0748303)
(-2.1725e-12 6.49125e-14 -0.0747784)
(-2.27637e-12 6.32538e-14 -0.0747407)
(-2.36685e-12 6.13068e-14 -0.074699)
(-2.43922e-12 5.91995e-14 -0.0746382)
(-2.49026e-12 5.2022e-14 -0.0745476)
(-2.51847e-12 4.71557e-14 -0.0744212)
(-2.52402e-12 3.64277e-14 -0.0742578)
(-2.50837e-12 3.42881e-14 -0.0740602)
(-2.47405e-12 2.55822e-14 -0.0738343)
(-2.42403e-12 1.75623e-14 -0.073588)
(-2.36144e-12 1.39375e-14 -0.07333)
(-2.28918e-12 6.07616e-15 -0.0730684)
(-2.20963e-12 7.82479e-15 -0.0728103)
(-2.12445e-12 3.34383e-15 -0.0725608)
(-2.03442e-12 -7.92915e-16 -0.0723231)
(-1.93939e-12 -1.48955e-15 -0.0720981)
(-1.8383e-12 -7.84543e-15 -0.0718847)
(-1.72945e-12 -6.25499e-15 -0.0716806)
(-1.61091e-12 -1.24982e-14 -0.071482)
(-1.481e-12 -1.95905e-14 -0.0712846)
(-1.33891e-12 -2.37225e-14 -0.0710842)
(-1.18508e-12 -3.31047e-14 -0.0708765)
(-1.02133e-12 -3.32807e-14 -0.0706579)
(-8.50593e-13 -3.94613e-14 -0.0704259)
(-6.76221e-13 -4.45563e-14 -0.0701783)
(-5.01275e-13 -4.51833e-14 -0.0699144)
(-3.27771e-13 -5.03927e-14 -0.0696337)
(-1.56283e-13 -4.67249e-14 -0.0693365)
(1.39464e-14 -5.02149e-14 -0.0690235)
(1.8457e-13 -5.41379e-14 -0.0686952)
(3.57277e-13 -5.49113e-14 -0.068352)
(5.33086e-13 -6.09151e-14 -0.067994)
(7.11884e-13 -5.78595e-14 -0.0676209)
(8.92518e-13 -6.11589e-14 -0.0672319)
(1.07333e-12 -6.22464e-14 -0.0668257)
(1.25286e-12 -6.15328e-14 -0.0664006)
(1.43063e-12 -6.49337e-14 -0.0659547)
(1.60731e-12 -6.62564e-14 -0.0654856)
(1.78468e-12 -7.30632e-14 -0.0649911)
(1.96511e-12 -8.04525e-14 -0.0644688)
(2.15091e-12 -8.83803e-14 -0.0639159)
(2.34421e-12 -1.01787e-13 -0.0633295)
(2.54704e-12 -1.13315e-13 -0.0627056)
(2.76219e-12 -1.2949e-13 -0.0620394)
(2.99411e-12 -1.44692e-13 -0.0613254)
(3.24981e-12 -1.58502e-13 -0.0605589)
(3.53935e-12 -1.7575e-13 -0.0597391)
(3.87588e-12 -1.89209e-13 -0.0588725)
(4.27531e-12 -2.05863e-13 -0.0579753)
(4.7559e-12 -2.21019e-13 -0.0570728)
(5.3376e-12 -2.35659e-13 -0.0561918)
(6.04126e-12 -2.5613e-13 -0.0553442)
(6.8871e-12 -2.76113e-13 -0.0545051)
(7.89205e-12 -3.02332e-13 -0.0535885)
(9.06641e-12 -3.29456e-13 -0.052433)
(1.04127e-11 -3.59758e-13 -0.0508051)
(1.19314e-11 -4.02946e-13 -0.0484315)
(1.36208e-11 -4.5553e-13 -0.0450562)
(1.54666e-11 -5.22568e-13 -0.0405161)
(1.74251e-11 -5.86394e-13 -0.0348127)
(1.93987e-11 -6.2024e-13 -0.0281579)
(2.12147e-11 -5.88826e-13 -0.0209718)
(2.26155e-11 -4.37286e-13 -0.0138259)
(2.32696e-11 -1.27151e-13 -0.00733924)
(2.28058e-11 3.6669e-13 -0.00205361)
(2.08676e-11 1.04216e-12 0.00167917)
(1.71816e-11 1.84187e-12 0.00376466)
(1.16379e-11 2.67509e-12 0.00436964)
(4.36606e-12 3.39974e-12 0.00386334)
(-4.21272e-12 3.85821e-12 0.00271613)
(-1.33623e-11 3.90523e-12 0.001387)
(-2.20708e-11 3.43091e-12 0.000231655)
(-2.91829e-11 2.43102e-12 -0.000547337)
(-3.3625e-11 1.01012e-12 -0.000902444)
(-3.46746e-11 -6.06344e-13 -0.000904661)
(-3.21812e-11 -2.11999e-12 -0.0006874)
(-2.66494e-11 -3.25363e-12 -0.000391137)
(-1.91426e-11 -3.80278e-12 -0.000123882)
(-1.10299e-11 -3.71397e-12 5.6182e-05)
(-3.65742e-12 -3.07671e-12 0.000138013)
(1.95437e-12 -2.08876e-12 0.00014249)
(5.29896e-12 -1.00953e-12 0.00010359)
(6.41721e-12 -6.35928e-14 5.29841e-05)
(5.78693e-12 5.88099e-13 1.15225e-05)
(4.1219e-12 8.90602e-13 -1.24044e-05)
(2.15134e-12 8.87956e-13 -1.98799e-05)
(4.44279e-13 6.74404e-13 -1.67407e-05)
(-6.82618e-13 3.78807e-13 -9.42766e-06)
(-1.16715e-12 1.01079e-13 -2.55022e-06)
(-1.13543e-12 -9.36266e-14 1.77742e-06)
(-8.04501e-13 -1.80306e-13 3.41691e-06)
(-3.90367e-13 -1.82245e-13 3.24719e-06)
(-4.72026e-14 -1.27889e-13 2.32292e-06)
(1.5423e-13 -5.96967e-14 1.39897e-06)
(2.15225e-13 -4.8471e-15 8.12746e-07)
(1.79773e-13 2.93559e-14 5.85258e-07)
(1.0319e-13 3.62786e-14 5.88411e-07)
(2.95048e-14 3.07458e-14 6.77396e-07)
(-1.81245e-14 1.72108e-14 7.62942e-07)
(-3.58462e-14 3.39045e-15 7.82956e-07)
(-3.30293e-14 -3.67974e-15 8.77532e-07)
(-1.37021e-14 -4.66124e-15 7.01234e-07)
(4.67517e-17 1.8273e-15 -0.100913)
(1.80523e-16 1.77592e-15 -0.101097)
(1.23791e-16 2.07351e-17 -0.10148)
(2.55496e-16 1.66496e-15 -0.102093)
(5.50827e-16 1.94156e-15 -0.102966)
(-1.87722e-15 1.52461e-15 -0.104119)
(9.61025e-15 -1.13361e-15 -0.105563)
(-2.02295e-14 4.65017e-15 -0.107259)
(-9.28616e-15 4.86828e-16 -0.10917)
(1.42294e-13 -3.07605e-14 -0.111165)
(4.96396e-14 -2.56507e-14 -0.113046)
(-6.39929e-13 7.46279e-14 -0.11495)
(-1.54847e-12 2.29239e-13 -0.116676)
(-1.81078e-12 3.208e-13 -0.118182)
(-7.93161e-13 2.68941e-13 -0.119453)
(1.50741e-12 8.71547e-14 -0.120468)
(4.5483e-12 -1.49744e-13 -0.12123)
(7.56767e-12 -3.54982e-13 -0.121746)
(9.92338e-12 -4.65857e-13 -0.12203)
(1.11981e-11 -4.80298e-13 -0.122103)
(1.16546e-11 -4.44563e-13 -0.121995)
(1.15816e-11 -3.86935e-13 -0.121743)
(1.11244e-11 -3.23805e-13 -0.121384)
(1.03698e-11 -2.58188e-13 -0.120944)
(9.36979e-12 -1.88493e-13 -0.120435)
(8.16361e-12 -1.16907e-13 -0.119845)
(6.80737e-12 -3.517e-14 -0.11914)
(5.39274e-12 4.01224e-14 -0.118267)
(4.03864e-12 1.0395e-13 -0.117175)
(2.8573e-12 1.49741e-13 -0.11583)
(1.91463e-12 1.73527e-13 -0.114229)
(1.21541e-12 1.80867e-13 -0.112415)
(7.14226e-13 1.76923e-13 -0.110468)
(3.44293e-13 1.6223e-13 -0.108499)
(3.94575e-14 1.4715e-13 -0.106625)
(-2.54808e-13 1.34484e-13 -0.104953)
(-5.79764e-13 1.27666e-13 -0.103561)
(-9.66905e-13 1.30814e-13 -0.102488)
(-1.43819e-12 1.39548e-13 -0.101735)
(-2.00386e-12 1.57815e-13 -0.101261)
(-2.65753e-12 1.80502e-13 -0.101)
(-3.37237e-12 2.02384e-13 -0.10087)
(-4.10321e-12 2.19477e-13 -0.100785)
(-4.79447e-12 2.20334e-13 -0.10067)
(-5.39312e-12 2.13593e-13 -0.100467)
(-5.86123e-12 1.93883e-13 -0.100143)
(-6.18343e-12 1.67095e-13 -0.0996882)
(-6.36783e-12 1.40315e-13 -0.0991166)
(-6.44041e-12 1.13264e-13 -0.0984596)
(-6.43674e-12 9.46087e-14 -0.0977588)
(-6.39369e-12 8.60386e-14 -0.0970596)
(-6.34288e-12 8.75334e-14 -0.0964039)
(-6.30705e-12 8.8992e-14 -0.0958254)
(-6.29892e-12 1.00342e-13 -0.0953462)
(-6.32095e-12 1.10294e-13 -0.0949755)
(-6.36712e-12 1.21351e-13 -0.0947104)
(-6.42464e-12 1.32868e-13 -0.0945374)
(-6.47669e-12 1.32498e-13 -0.0944355)
(-6.50564e-12 1.31243e-13 -0.0943794)
(-6.49569e-12 1.20168e-13 -0.0943429)
(-6.43544e-12 1.05043e-13 -0.0943016)
(-6.31908e-12 8.88802e-14 -0.0942354)
(-6.1465e-12 6.28713e-14 -0.0941299)
(-5.92246e-12 4.26542e-14 -0.0939774)
(-5.65476e-12 1.59405e-14 -0.0937759)
(-5.35275e-12 -3.82026e-15 -0.0935294)
(-5.02545e-12 -2.09065e-14 -0.0932456)
(-4.68079e-12 -4.01082e-14 -0.0929351)
(-4.32486e-12 -4.92043e-14 -0.0926093)
(-3.96165e-12 -6.24016e-14 -0.0922791)
(-3.59329e-12 -6.81446e-14 -0.091954)
(-3.2199e-12 -7.24387e-14 -0.091641)
(-2.84014e-12 -8.15114e-14 -0.091344)
(-2.45125e-12 -8.4216e-14 -0.0910646)
(-2.04938e-12 -9.53622e-14 -0.0908013)
(-1.6304e-12 -1.03374e-13 -0.0905507)
(-1.19051e-12 -1.13499e-13 -0.090308)
(-7.27634e-13 -1.3043e-13 -0.0900674)
(-2.42264e-13 -1.40872e-13 -0.0898231)
(2.61993e-13 -1.57283e-13 -0.0895694)
(7.78409e-13 -1.66103e-13 -0.0893016)
(1.29846e-12 -1.71585e-13 -0.0890161)
(1.81325e-12 -1.78802e-13 -0.0887105)
(2.31574e-12 -1.76256e-13 -0.0883835)
(2.80233e-12 -1.79166e-13 -0.0880349)
(3.27354e-12 -1.75159e-13 -0.0876651)
(3.73372e-12 -1.75849e-13 -0.087275)
(4.18926e-12 -1.81791e-13 -0.0868654)
(4.6465e-12 -1.82216e-13 -0.086437)
(5.10976e-12 -1.90023e-13 -0.08599)
(5.57984e-12 -1.91871e-13 -0.0855239)
(6.05423e-12 -1.9558e-13 -0.0850378)
(6.52788e-12 -1.95864e-13 -0.0845301)
(6.99508e-12 -1.95219e-13 -0.0839987)
(7.45095e-12 -1.95007e-13 -0.0834412)
(7.8922e-12 -1.94963e-13 -0.0828546)
(8.31703e-12 -2.01421e-13 -0.0822361)
(8.72435e-12 -2.0964e-13 -0.0815825)
(9.11331e-12 -2.21252e-13 -0.0808905)
(9.48381e-12 -2.35998e-13 -0.0801562)
(9.83837e-12 -2.52214e-13 -0.079375)
(1.01855e-11 -2.75936e-13 -0.0785409)
(1.05435e-11 -3.03575e-13 -0.0776472)
(1.09437e-11 -3.39064e-13 -0.0766878)
(1.14321e-11 -3.84829e-13 -0.0756611)
(1.20688e-11 -4.41471e-13 -0.074574)
(1.29253e-11 -5.16383e-13 -0.0734457)
(1.40795e-11 -6.06348e-13 -0.0723069)
(1.56107e-11 -7.14764e-13 -0.0711914)
(1.7594e-11 -8.42354e-13 -0.0701167)
(2.00939e-11 -9.85992e-13 -0.0690561)
(2.31581e-11 -1.14641e-12 -0.0679082)
(2.68085e-11 -1.31202e-12 -0.0664758)
(3.10334e-11 -1.48176e-12 -0.0644686)
(3.5794e-11 -1.6566e-12 -0.0615396)
(4.10247e-11 -1.83077e-12 -0.0573567)
(4.66081e-11 -1.99019e-12 -0.0516978)
(5.23363e-11 -2.0856e-12 -0.0445458)
(5.78679e-11 -2.0457e-12 -0.0361503)
(6.26977e-11 -1.77488e-12 -0.0270317)
(6.61592e-11 -1.17139e-12 -0.0179123)
(6.74704e-11 -1.62501e-13 -0.00958598)
(6.58195e-11 1.28496e-12 -0.00275759)
(6.04772e-11 3.12291e-12 0.0021047)
(5.09286e-11 5.21231e-12 0.00486026)
(3.70232e-11 7.31673e-12 0.00570539)
(1.91174e-11 9.11076e-12 0.00510135)
(-1.81268e-12 1.02323e-11 0.00364617)
(-2.40976e-11 1.0323e-11 0.00193022)
(-4.54346e-11 9.13178e-12 0.00041672)
(-6.31623e-11 6.62516e-12 -0.000624672)
(-7.47598e-11 3.05702e-12 -0.00112294)