/*--------------------------------*- C++ -*----------------------------------*\
  =========                 |
  \\      /  F ield         | OpenFOAM: The Open Source CFD Toolbox
   \\    /   O peration     | Website:  https://openfoam.org
    \\  /    A nd           | Version:  11
     \\/     M anipulation  |
\*---------------------------------------------------------------------------*/
FoamFile
{
    format      ascii;
    class       surfaceScalarField;
    location    "12.555961";
    object      phi_0;
}
// * * * * * * * * * * * * * * * * * * * * * * * * * * * * * * * * * * * * * //

dimensions      [0 3 -1 0 0 0 0];

internalField   nonuniform List<scalar> 
14638
(
0.00250241
-2.41377e-06
0.0025099
-7.49061e-06
0.00252291
-1.30099e-05
0.00254182
-1.89096e-05
0.0025668
-2.49764e-05
0.00259753
-3.07323e-05
0.00263304
-3.5503e-05
0.0026713
-3.82622e-05
0.0027093
-3.80001e-05
0.00274309
-3.37938e-05
0.00276846
-2.53644e-05
0.00278238
-1.39212e-05
0.00278355
-1.17133e-06
0.00277252
1.10325e-05
0.00275229
2.02226e-05
0.00272805
2.42404e-05
0.00270591
2.21479e-05
0.0026914
1.45061e-05
0.00268804
3.35488e-06
0.00269618
-8.13515e-06
0.00271236
-1.61786e-05
0.00272974
-1.7378e-05
0.00274011
-1.03715e-05
0.00273701
3.09633e-06
0.00271802
1.89953e-05
0.00268497
3.30413e-05
0.00264276
4.22131e-05
0.00259774
4.50178e-05
0.00255669
4.10512e-05
0.00252617
3.05181e-05
0.00251206
1.41111e-05
0.00251874
-6.67467e-06
0.00254759
-2.88556e-05
0.00259507
-4.74736e-05
0.00265163
-5.65637e-05
0.00270354
-5.19121e-05
0.00273744
-3.38967e-05
0.00274527
-7.8278e-06
0.00272649
1.87754e-05
0.0026868
3.96948e-05
0.00263496
5.1837e-05
0.0025802
5.47563e-05
0.002531
4.92054e-05
0.00249499
3.60037e-05
0.00247917
1.58285e-05
0.00248919
-1.00233e-05
0.00252742
-3.82326e-05
0.00259003
-6.26115e-05
0.00266544
-7.54018e-05
0.00273627
-7.08367e-05
0.00278503
-4.87619e-05
0.00280046
-1.54217e-05
0.00278098
1.9474e-05
0.00273374
4.72434e-05
0.00267039
6.33468e-05
0.00260295
6.74382e-05
0.00254158
6.13731e-05
0.00249449
4.7093e-05
0.0024688
2.56914e-05
0.00247076
-1.96459e-06
0.00250428
-3.35212e-05
0.002568
-6.37203e-05
0.00265288
-8.48811e-05
0.00274251
-8.96295e-05
0.00281701
-7.44959e-05
0.00285919
-4.21822e-05
0.00286017
-9.83676e-07
0.00282177
3.84036e-05
0.00275471
6.70627e-05
0.00267389
8.08154e-05
0.00259351
8.03852e-05
0.00252436
6.91459e-05
0.00247409
5.02686e-05
0.00244881
2.52813e-05
0.00245384
-5.02599e-06
0.00249211
-3.82767e-05
0.0025612
-6.90893e-05
0.00265133
-9.01307e-05
0.00274644
-9.51037e-05
0.00282805
-8.16115e-05
0.00288023
-5.21846e-05
0.00289352
-1.32824e-05
0.00286679
2.67233e-05
0.00280707
5.9722e-05
0.0027272
7.98699e-05
0.00264224
8.49568e-05
0.00256587
7.63698e-05
0.00250865
5.72281e-05
0.00247847
3.01741e-05
0.00248129
-2.82166e-06
0.0025198
-3.85013e-05
0.00259073
-7.09311e-05
0.00268351
-9.27845e-05
0.00278202
-9.85115e-05
0.00286897
-8.6945e-05
0.00293071
-6.17414e-05
0.00296046
-2.97522e-05
0.00295892
1.54057e-06
0.00293266
2.62574e-05
0.00289149
4.11769e-05
0.00284609
4.53934e-05
0.00280679
3.93014e-05
0.00278289
2.39009e-05
0.00278203
8.63655e-07
0.00280895
-2.69231e-05
0.00286401
-5.50632e-05
0.00294212
-7.81112e-05
0.00303293
-9.08091e-05
0.00312256
-8.9626e-05
0.00319644
-7.38835e-05
0.00324247
-4.60218e-05
0.00325345
-1.09845e-05
0.00322847
2.49833e-05
0.00317272
5.57473e-05
0.00309605
7.66696e-05
0.00301053
8.5521e-05
0.0029278
8.27306e-05
0.00285687
7.09291e-05
0.002803
5.3871e-05
0.00276793
3.50642e-05
0.00275117
1.67665e-05
0.00275126
-9.03234e-08
0.00276641
-1.51561e-05
0.00279422
-2.781e-05
0.00283105
-3.68259e-05
0.0028717
-4.06506e-05
0.0029097
-3.79974e-05
0.0029381
-2.84019e-05
0.00295067
-1.25716e-05
0.00294318
7.49521e-06
0.00291453
2.86467e-05
0.00286741
4.71174e-05
0.00280792
5.9488e-05
0.00274416
6.37591e-05
0.00268417
5.99931e-05
0.00263404
5.0131e-05
0.00259695
3.70934e-05
0.00257324
2.37033e-05
0.00256128
1.19673e-05
0.00255838
2.89806e-06
0.00256166
-3.27943e-06
0.00256846
-6.80086e-06
0.00257655
-8.09269e-06
0.00258417
-7.62056e-06
0.00259001
-5.83944e-06
0.00259321
-3.19652e-06
0.00259335
-1.38236e-07
0.00259044
2.90495e-06
0.00258488
5.55837e-06
0.00257734
7.54651e-06
0.00256861
8.72134e-06
0.00255955
9.06337e-06
0.00255089
8.66201e-06
0.00254321
7.67866e-06
0.00253689
6.31618e-06
0.00253212
4.7709e-06
0.00252887
3.25015e-06
0.00252704
1.83789e-06
0.00252621
8.21116e-07
-3.74277e-07
0.0025024
-4.81034e-06
0.00250984
-1.49384e-05
0.00252281
-2.59732e-05
0.00254171
-3.78108e-05
0.00256677
-5.00382e-05
0.00259775
-6.17096e-05
0.00263372
-7.14767e-05
0.0026727
-7.72383e-05
0.00271161
-7.69171e-05
0.00274635
-6.85318e-05
0.00277243
-5.14455e-05
0.00278669
-2.81821e-05
0.00278773
-2.20553e-06
0.002776
2.27593e-05
0.0027546
4.16223e-05
0.00272896
4.98872e-05
0.00270552
4.55885e-05
0.00269017
2.98464e-05
0.00268672
6.81067e-06
0.00269562
-1.70403e-05
0.00271332
-3.38778e-05
0.00273252
-3.65761e-05
0.00274438
-2.22266e-05
0.00274194
5.53234e-06
0.00272267
3.8266e-05
0.00268862
6.70903e-05
0.00264497
8.58627e-05
0.00259834
9.16538e-05
0.00255565
8.37363e-05
0.00252364
6.2532e-05
0.00250841
2.93361e-05
0.00251474
-1.30062e-05
0.00254445
-5.85636e-05
0.00259412
-9.71392e-05
0.00265377
-0.00011622
0.00270871
-0.000106852
0.00274457
-6.9751e-05
0.00275279
-1.60494e-05
0.00273302
3.8547e-05
0.0026915
8.12108e-05
0.00263756
0.000105779
0.00258071
0.000111609
0.0025295
0.000100415
0.00249165
7.38554e-05
0.00247439
3.30845e-05
0.00248396
-1.95939e-05
0.00252334
-7.76098e-05
0.00258888
-0.000128155
0.00266837
-0.000154895
0.00274316
-0.000145625
0.00279443
-0.000100033
0.00281029
-3.12789e-05
0.0027894
4.03653e-05
0.00273966
9.69786e-05
0.00267358
0.000129434
0.00260363
0.000137381
0.00254007
0.000124936
0.00249097
9.61971e-05
0.00246337
5.32922e-05
0.00246372
-2.31705e-06
0.00249642
-6.62214e-05
0.00256069
-0.000127988
0.00264778
-0.000171974
0.00274099
-0.000182837
0.00281951
-0.000153013
0.00286494
-8.76192e-05
0.00286747
-3.50738e-06
0.00282864
7.72337e-05
0.00275966
0.000136038
0.00267628
0.000164198
0.00259333
0.000163329
0.00252184
0.000140644
0.0024693
0.000102801
0.00244187
5.27154e-05
0.00244534
-8.49701e-06
0.0024834
-7.63337e-05
0.00255396
-0.000139651
0.0026468
-0.000182973
0.00274483
-0.000193131
0.00282865
-0.00016543
0.00288199
-0.000105528
0.00289558
-2.6877e-05
0.00286865
5.36571e-05
0.00280837
0.000120003
0.0027276
0.000160635
0.00264138
0.000171179
0.00256343
0.00015432
0.00250461
0.000116049
0.0024735
6.12849e-05
0.00247694
-6.25908e-06
0.00251818
-7.97487e-05
0.00259367
-0.00014642
0.0026916
-0.00019071
0.00279428
-0.000201192
0.00288323
-0.000175894
0.00294437
-0.00012288
0.00297125
-5.6636e-05
0.00296545
7.33766e-06
0.00293459
5.71154e-05
0.00288936
8.64065e-05
0.002841
9.37569e-05
0.00279998
8.0322e-05
0.00277562
4.82639e-05
0.00277564
8.39347e-07
0.00280502
-5.63031e-05
0.00286419
-0.000114235
0.00294769
-0.000161611
0.0030443
-0.000187415
0.00313904
-0.000184371
0.00321646
-0.000151295
0.00326394
-9.35035e-05
0.00327432
-2.13714e-05
0.00324703
5.22727e-05
0.00318781
0.000114977
0.00310709
0.000157387
0.00301751
0.000175097
0.00293111
0.00016913
0.0028571
0.000144942
0.00280079
0.00011018
0.00276395
7.19087e-05
0.00274608
3.4633e-05
0.00274577
2.19695e-07
0.00276117
-3.05587e-05
0.0027897
-5.63346e-05
0.00282743
-7.45546e-05
0.00286889
-8.21128e-05
0.00290744
-7.65469e-05
0.00293612
-5.70883e-05
0.00294882
-2.52703e-05
0.00294142
1.4893e-05
0.00291291
5.71598e-05
0.00286595
9.40748e-05
0.0028066
0.00011884
0.00274291
0.000127449
0.00268292
0.000119985
0.00263277
0.000100283
0.00259571
7.41559e-05
0.00257215
4.72561e-05
0.00256049
2.36328e-05
0.00255803
5.35812e-06
0.00256183
-7.08146e-06
0.00256917
-1.41417e-05
0.00257776
-1.66805e-05
0.00258578
-1.56456e-05
0.00259191
-1.19658e-05
0.00259527
-6.55208e-06
0.00259544
-3.11815e-07
0.00259246
5.88164e-06
0.00258675
1.12691e-05
0.002579
1.52939e-05
0.00257007
1.76595e-05
0.0025608
1.83309e-05
0.00255197
1.74944e-05
0.00254416
1.54809e-05
0.00253778
1.27041e-05
0.00253298
9.56455e-06
0.00252975
6.47915e-06
0.00252796
3.62693e-06
0.00252722
1.56759e-06
-8.16617e-07
0.00250236
-7.17198e-06
0.00250972
-2.22948e-05
0.00252258
-3.88377e-05
0.00254146
-5.66847e-05
0.00256667
-7.52564e-05
0.00259813
-9.31608e-05
0.00263503
-0.000108379
0.00267543
-0.000117641
0.0027162
-0.000117685
0.00275285
-0.000105181
0.00278037
-7.89651e-05
0.0027953
-4.31128e-05
0.00279605
-2.95296e-06
0.00278291
3.5893e-05
0.00275914
6.53893e-05
0.0027307
7.83317e-05
0.00270473
7.15547e-05
0.00268784
4.67422e-05
0.00268434
1.03087e-05
0.00269496
-2.766e-05
0.00271585
-5.47649e-05
0.00273874
-5.94681e-05
0.00275345
-3.6939e-05
0.00275205
6.9345e-06
0.00273184
5.84774e-05
0.0026954
0.000103529
0.00264862
0.000132645
0.00259865
0.000141619
0.00255278
0.000129605
0.00251802
9.72961e-05
0.00250093
4.6428e-05
0.002507
-1.90811e-05
0.00253887
-9.04278e-05
0.00259334
-0.000151611
0.00265948
-0.00018236
0.00272051
-0.000167883
0.00275995
-0.000109193
0.00276831
-2.44067e-05
0.00274576
6.10917e-05
0.00269993
0.000127039
0.00264138
0.000164334
0.00258025
0.000172743
0.00252522
0.000155436
0.0024841
0.000114977
0.00246453
5.26541e-05
0.00247363
-2.86875e-05
0.00251537
-0.000119357
0.00258658
-0.000199365
0.00267419
-0.000242502
0.00275716
-0.000228598
0.00281376
-0.000156628
0.00283034
-4.78639e-05
0.00280597
6.47411e-05
0.00275043
0.000152519
0.00267825
0.000201613
0.00260309
0.000212535
0.00253533
0.000192695
0.00248258
0.000148947
0.00245147
8.44033e-05
0.00244868
4.77045e-07
0.00247966
-9.72046e-05
0.00254494
-0.000193264
0.00263622
-0.000263258
0.00273595
-0.000282565
0.00282161
-0.000238671
0.0028729
-0.000138908
0.0028784
-9.01204e-06
0.00283905
0.000116588
0.00276669
0.000208397
0.00267854
0.000252349
0.00259078
0.000251085
0.00251497
0.00021646
0.00245861
0.000159157
0.00242822
8.31068e-05
0.0024308
-1.10766e-05
0.00247128
-0.000116814
0.00254752
-0.000215889
0.0026475
-0.000282957
0.00275159
-0.000297216
0.00283851
-0.000252357
0.00289169
-0.000158704
0.00290287
-3.80522e-05
0.00287268
8.38459e-05
0.00280925
0.000183431
0.00272568
0.000244204
0.00263681
0.000260053
0.00255627
0.00023486
0.00249544
0.000176875
0.00246422
9.25048e-05
0.00247093
-1.29681e-05
0.00251925
-0.000128064
0.00260421
-0.000231386
0.00271143
-0.000297929
0.00282073
-0.000310489
0.00291211
-0.000267278
0.00297115
-0.00018192
0.00299202
-7.75072e-05
0.00297767
2.16951e-05
0.00293749
9.72875e-05
0.00288392
0.000139985
0.00282934
0.000148331
0.00278479
0.000124878
0.00275979
7.32559e-05
0.00276238
-1.75176e-06
0.00279776
-9.16736e-05
0.00286594
-0.000182415
0.00296006
-0.00025574
0.0030669
-0.000294254
0.00316966
-0.00028713
0.00325181
-0.000233448
0.00330052
-0.000142206
0.00330888
-2.97364e-05
0.00327692
8.42359e-05
0.0032112
0.0001807
0.00312315
0.000245433
0.00302635
0.000271901
0.00293351
0.000261966
0.00285421
0.000224246
0.00279385
0.000170539
0.0027542
0.00011155
0.00273483
5.40113e-05
0.0027343
7.48443e-07
0.00275062
-4.68771e-05
0.00278078
-8.65006e-05
0.0028203
-0.000114071
0.00286316
-0.00012497
0.00290242
-0.000115813
0.00293119
-8.58605e-05
0.00294363
-3.77077e-05
0.00293595
2.25769e-05
0.00290733
8.57798e-05
0.00286048
0.000140921
0.00280139
0.000177935
0.00273801
0.000190823
0.00267836
0.000179637
0.00262861
0.000150038
0.00259207
0.000110686
0.00256926
7.00695e-05
0.00255856
3.43306e-05
0.00255725
6.67161e-06
0.00256227
-1.21047e-05
0.00257079
-2.26553e-05
0.00258039
-2.62843e-05
0.0025892
-2.44539e-05
0.00259584
-1.86022e-05
0.00259942
-1.0137e-05
0.00259956
-4.55232e-07
0.00259634
9.10133e-06
0.00259024
1.73707e-05
0.00258203
2.35062e-05
0.00257262
2.70663e-05
0.00256294
2.80135e-05
0.00255379
2.66483e-05
0.00254578
2.34918e-05
0.0025393
1.91837e-05
0.00253451
1.43477e-05
0.00253138
9.60929e-06
0.00252974
5.27209e-06
0.00252919
2.11837e-06
-1.41305e-06
0.00250231
-9.47701e-06
0.00250951
-2.95008e-05
0.0025222
-5.15307e-05
0.002541
-7.54845e-05
0.00256642
-0.000100669
0.00259854
-0.000125287
0.00263683
-0.000146662
0.0026794
-0.000160216
0.00272305
-0.000161332
0.00276269
-0.000144826
0.00279248
-0.000108747
0.0028085
-5.91331e-05
0.00280886
-3.31694e-06
0.00279357
5.1178e-05
0.00276611
9.28513e-05
0.00273327
0.000111176
0.00270331
0.000101511
0.00268392
6.61301e-05
0.00268029
1.3941e-05
0.00269357
-4.09373e-05
0.0027195
-8.06983e-05
0.00274828
-8.82429e-05
0.00276752
-5.61775e-05
0.00276769
6.76525e-06
0.00274589
8.0273e-05
0.00270562
0.000143802
0.00265392
0.00018434
0.00259883
0.000196712
0.00254811
0.000180324
0.00250916
0.000136249
0.00248917
6.64104e-05
0.00249481
-2.47159e-05
0.00253007
-0.000125693
0.00259226
-0.000213795
0.00266879
-0.000258887
0.00273942
-0.000238519
0.0027843
-0.00015407
0.00279251
-3.26236e-05
0.00276524
8.8362e-05
0.0027124
0.000179886
0.00264656
0.000230172
0.00257887
0.000240428
0.00251819
0.000216123
0.00247222
0.000160945
0.00244882
7.60509e-05
0.00245577
-3.56333e-05
0.00249828
-0.000161871
0.00257474
-0.000275822
0.00267264
-0.000340401
0.00276872
-0.000324681
0.00283635
-0.000224258
0.00285737
-6.8876e-05
0.00282982
9.22915e-05
0.00276614
0.000216193
0.00268463
0.000283123
0.00260142
0.000295747
0.00252729
0.000266821
0.00246896
0.000207285
0.00243228
0.000121076
0.00242476
7.99862e-06
0.0024542
-0.000126643
0.00252295
-0.000262019
0.00262204
-0.000362349
0.00273111
-0.000391627
0.00282493
-0.000332497
0.0028819
-0.000195878
0.00289007
-1.71825e-05
0.00284999
0.000156672
0.00277374
0.000284648
0.00267973
0.000346359
0.00258562
0.000345194
0.00250387
0.00029821
0.00244257
0.000220451
0.00240948
0.000116197
0.00241354
-1.51342e-05
0.00246065
-0.000163923
0.00254722
-0.000302455
0.00265795
-0.000393686
0.00276992
-0.000409188
0.00285991
-0.000342351
0.00291111
-0.000209906
0.00291667
-4.36132e-05
0.00287949
0.00012103
0.0028096
0.000253315
0.00272089
0.00033292
0.00262798
0.000352967
0.00254426
0.000318579
0.00248179
0.000239345
0.00245215
0.000122144
0.0024651
-2.59202e-05
0.00252382
-0.000186788
0.00262069
-0.000328255
0.00273798
-0.000415218
0.00285321
-0.000425715
0.0029456
-0.000359669
0.00300097
-0.000237292
0.00301422
-9.07562e-05
0.00298942
4.64986e-05
0.00293765
0.000149051
0.00287328
0.000204356
0.00281037
0.000211248
0.00276101
0.000174236
0.00273554
9.87259e-05
0.0027426
-8.81499e-06
0.00278731
-0.000136383
0.00286814
-0.00026324
0.00297538
-0.000362985
0.00309299
-0.000411866
0.00320262
-0.000396758
0.00328765
-0.000318477
0.00333594
-0.00019049
0.00334129
-3.50957e-05
0.0033042
0.000121326
0.0032317
0.000253204
0.00313589
0.000341241
0.0030312
0.000376595
0.00293112
0.000362041
0.00284574
0.000309632
0.00278069
0.000235589
0.00273787
0.000154369
0.00271695
7.4934e-05
0.00271653
1.15862e-06
0.00273439
-6.47303e-05
0.0027669
-0.000119011
0.00280875
-0.000155921
0.0028532
-0.000169417
0.00289296
-0.000155578
0.0029213
-0.000114203
0.00293291
-4.93179e-05
0.00292459
3.09037e-05
0.00289586
0.00011451
0.00284946
0.000187318
0.00279119
0.000236205
0.0027288
0.000253216
0.00267015
0.000238281
0.00262143
0.000198758
0.00258605
0.00014607
0.00256459
9.15242e-05
0.0025555
4.34206e-05
0.00255599
6.18459e-06
0.00256287
-1.89871e-05
0.00257314
-3.29233e-05
0.00258425
-3.73923e-05
0.00259421
-3.44138e-05
0.00260159
-2.59824e-05
0.0026055
-1.40468e-05
0.00260558
-5.35709e-07
0.00260198
1.27036e-05
0.00259527
2.40755e-05
0.00258635
3.24298e-05
0.00257623
3.71835e-05
0.00256593
3.83168e-05
0.0025563
3.62736e-05
0.002548
3.17963e-05
0.00254141
2.57763e-05
0.00253667
1.90883e-05
0.00253371
1.25652e-05
0.0025323
6.67974e-06
0.00253207
2.35528e-06
-2.24628e-06
0.00250222
-1.16986e-05
0.0025092
-3.64819e-05
0.00252162
-6.39507e-05
0.00254026
-9.41212e-05
0.00256585
-0.000126262
0.00259881
-0.000158241
0.0026389
-0.000186757
0.00268443
-0.000205747
0.00273211
-0.000209011
0.00277599
-0.000188709
0.00280895
-0.000141706
0.00282651
-7.66937e-05
0.00282639
-3.19307e-06
0.00280812
6.94471e-05
0.00277546
0.000125509
0.0027364
0.000150238
0.00270077
0.000137138
0.00267781
8.90965e-05
0.00267394
1.78122e-05
0.00269099
-5.79918e-05
0.00272421
-0.000113914
0.00276152
-0.000125557
0.00278729
-8.19489e-05
0.00278963
4.42825e-06
0.00276543
0.000104473
0.00271962
0.000189608
0.00266102
0.000242944
0.00259885
0.000258882
0.00254148
0.000237696
0.00249668
0.000181043
0.00247248
9.06108e-05
0.0024773
-2.95319e-05
0.00251748
-0.000165878
0.00259117
-0.000287486
0.0026831
-0.000350815
0.00276752
-0.000322933
0.00281957
-0.000206126
0.00282677
-3.98179e-05
0.00279215
0.000122982
0.00272909
0.000242943
0.00265307
0.000306194
0.00257653
0.00031697
0.00250833
0.000284314
0.00245563
0.000213652
0.00242556
0.000106113
0.00242604
-3.61114e-05
0.00246452
-0.000200346
0.00254311
-0.000354414
0.00265154
-0.000448829
0.00276476
-0.000437905
0.00285037
-0.000309867
0.00288304
-0.000101544
0.00285676
0.000118571
0.00278554
0.00028741
0.00269272
0.000375943
0.0025988
0.000389668
0.0025159
0.000349716
0.00244981
0.000273374
0.00240604
0.000164847
0.00239434
1.97053e-05
0.00242593
-0.000158233
0.0025039
-0.000339996
0.0026159
-0.000474341
0.00273655
-0.000512282
0.00283738
-0.000433323
0.00289647
-0.000254966
0.00290341
-2.41305e-05
0.00286001
0.000200073
0.00277874
0.000365916
0.00267836
0.000446741
0.00257725
0.000446309
0.00248876
0.000386697
0.00242237
0.000286837
0.00238808
0.000150491
0.00239681
-2.38613e-05
0.00245403
-0.000221141
0.00255297
-0.000401395
0.00267455
-0.000515276
0.00279348
-0.00052811
0.00288564
-0.000434516
0.00293421
-0.000258473
0.0029331
-4.24992e-05
0.00288705
0.000167073
0.00280845
0.000331922
0.00271265
0.000428716
0.00261455
0.000451064
0.00252747
0.000405661
0.00246428
0.000302535
0.00243818
0.000148245
0.00245961
-4.73496e-05
0.00252998
-0.000257156
0.00263811
-0.000436386
0.0027631
-0.000540212
0.00288111
-0.000543726
0.00297169
-0.000450245
0.00302165
-0.000287259
0.00302677
-9.58672e-05
0.00299178
8.14857e-05
0.0029288
0.000212031
0.00285369
0.000279464
0.00278222
0.000282717
0.00272813
0.000228328
0.00270323
0.000123626
0.00271699
-2.25771e-05
0.00277351
-0.0001929
0.00286798
-0.000357709
0.00298669
-0.000481702
0.00311109
-0.000536265
0.00322271
-0.000508378
0.00330646
-0.000402228
0.00335196
-0.000235991
0.00335403
-3.71601e-05
0.00331323
0.000162126
0.00323631
0.000330122
0.00313527
0.000442283
0.00302483
0.000487036
0.00291907
0.000467799
0.00282862
0.000400086
0.00275953
0.000304676
0.00271405
0.000199847
0.00269216
9.68261e-05
0.00269259
7.27738e-07
0.00271279
-8.49265e-05
0.00274835
-0.000154573
0.00279293
-0.0002005
0.00283893
-0.00021542
0.00287874
-0.000195388
0.0029059
-0.000141365
0.00291587
-5.92847e-05
0.00290631
4.04659e-05
0.00287733
0.000143489
0.00283176
0.000232884
0.0027751
0.000292866
0.00271466
0.000313652
0.002658
0.00029494
0.00261119
0.000245573
0.0025777
0.000179561
0.00255825
0.000110972
0.00255136
5.03144e-05
0.00255419
3.35029e-06
0.00256344
-2.82304e-05
0.0025759
-4.53903e-05
0.00258889
-5.03832e-05
0.00260031
-4.58324e-05
0.00260866
-3.43341e-05
0.00261304
-1.84191e-05
0.00261309
-5.91906e-07
0.00260905
1.6746e-05
0.0026016
3.15207e-05
0.00259178
4.22501e-05
0.00258076
4.82089e-05
0.00256966
4.94183e-05
0.00255943
4.65031e-05
0.00255075
4.04706e-05
0.00254403
3.24994e-05
0.00253937
2.37534e-05
0.00253666
1.52739e-05
0.00253558
7.7606e-06
0.00253577
2.16559e-06
-3.38895e-06
0.0025021
-1.38031e-05
0.00250877
-4.31425e-05
0.00252077
-7.59577e-05
0.0025391
-0.000112448
0.00256478
-0.000151947
0.00259865
-0.000192102
0.00264095
-0.000229058
0.00269027
-0.000255069
0.00274333
-0.000262071
0.00279294
-0.000238324
0.0028302
-0.000178965
0.00284996
-9.64543e-05
0.00284939
-2.61361e-06
0.00282723
9.1602e-05
0.00278756
0.000165181
0.00274001
0.000197782
0.0026966
0.000180552
0.00266861
0.000117088
0.00266418
2.22426e-05
0.00268622
-8.00374e-05
0.00272944
-0.000157134
0.00277865
-0.000174759
0.00281349
-0.00011679
0.00281872
-8.03858e-07
0.00279109
0.000132107
0.00273773
0.000242968
0.00266996
0.000310706
0.00259861
0.000330239
0.00253262
0.00030368
0.00248009
0.00023358
0.00245
0.000120694
0.00245319
-3.27219e-05
0.00249906
-0.000211749
0.00258724
-0.000375663
0.00269997
-0.000463546
0.00280427
-0.000427227
0.00286708
-0.000268941
0.00287277
-4.55044e-05
0.00282747
0.000168278
0.00275019
0.000320229
0.00266067
0.000395711
0.00257298
0.000404664
0.00249548
0.000361807
0.00243356
0.00027558
0.00239265
0.00014702
0.00238186
-2.53216e-05
0.00241393
-0.000232415
0.00249591
-0.000436399
0.00261723
-0.000570146
0.00274866
-0.000569336
0.00285326
-0.000414463
0.00290084
-0.000149128
0.00288052
0.00013889
0.00280499
0.000362941
0.00270129
0.000479643
0.00259512
0.000495842
0.00250124
0.00044359
0.00242563
0.000348988
0.00237491
0.000215572
0.00236234
3.22724e-05
0.00240163
-0.000197528
0.00249363
-0.000431993
0.00262051
-0.000601217
0.00275226
-0.000644032
0.00285821
-0.000539275
0.00291649
-0.000313248
0.00291851
-2.61526e-05
0.00286849
0.000250097
0.00278034
0.00045406
0.00267305
0.000554034
0.0025649
0.000554456
0.00246987
0.000481732
0.00239935
0.000357357
0.00236599
0.000183848
0.00238181
-3.96772e-05
0.00245007
-0.0002894
0.00255992
-0.000511244
0.00268924
-0.000644601
0.00281198
-0.000650851
0.00290465
-0.000527179
0.00295082
-0.000304644
0.00294436
-3.60395e-05
0.00289054
0.000220894
0.00280336
0.000419099
0.00269999
0.000532083
0.00259629
0.000554762
0.00250611
0.000495844
0.00244336
0.000365285
0.00242241
0.000169198
0.00245323
-7.81707e-05
0.00253436
-0.000338285
0.00265091
-0.000552936
0.00277961
-0.000668919
0.00289638
-0.000660495
0.00298198
-0.000535839
0.00302477
-0.000330052
0.00302156
-9.26579e-05
0.00297755
0.000125496
0.00290521
0.000284372
0.00282121
0.000363464
0.00274274
0.000361184
0.00268552
0.000285555
0.0026633
0.000145845
0.00268596
-4.52411e-05
0.00275492
-0.00026186
0.00286049
-0.000463273
0.00298498
-0.000606201
0.00310905
-0.000660335
0.00321621
-0.000615533
0.00329425
-0.000480265
0.00333502
-0.000276761
0.00333425
-3.63902e-05
0.00329221
0.000204167
0.00321467
0.000407654
0.00311272
0.000544241
0.00300064
0.000599116
0.00289263
0.000575802
0.00279974
0.000492978
0.00272855
0.000375865
0.00268192
0.00024648
0.00266039
0.000118352
0.00266293
-1.80731e-06
0.00268652
-0.000108516
0.00272571
-0.000193767
0.002773
-0.000247792
0.00282007
-0.000262489
0.00285923
-0.000234543
0.0028845
-0.000166632
0.00289217
-6.69569e-05
0.00288086
5.17685e-05
0.00285145
0.000172908
0.00280698
0.000277345
0.00275267
0.000347176
0.00269524
0.000371082
0.0026417
0.000348481
0.00259783
0.000289445
0.00256709
0.000210302
0.00255032
0.000127743
0.00254612
5.45105e-05
0.00255166
-2.18464e-06
0.00256349
-4.00637e-05
0.00257831
-6.02054e-05
0.00259331
-6.5387e-05
0.00260635
-5.88726e-05
0.00261588
-4.38695e-05
0.00262095
-2.34893e-05
0.0026212
-8.32758e-07
0.00261685
2.10914e-05
0.00260871
3.96609e-05
0.00259796
5.30045e-05
0.00258593
6.02324e-05
0.00257393
6.14233e-05
0.002563
5.74257e-05
0.00255391
4.95665e-05
0.00254705
3.93599e-05
0.00254249
2.83087e-05
0.0025401
1.76688e-05
0.00253942
8.43702e-06
0.00254013
1.4531e-06
-4.89286e-06
0.00250195
-1.57489e-05
0.00250816
-4.93611e-05
0.00251957
-8.73632e-05
0.00253737
-0.000130244
0.00256295
-0.000177534
0.00259769
-0.000226845
0.00264253
-0.00027389
0.00269652
-0.000309064
0.00275656
-0.000322115
0.00281371
-0.000295468
0.00285652
-0.000221775
0.00287913
-0.000119067
0.00287815
-1.62871e-06
0.0028511
0.000118645
0.00280237
0.000213912
0.00274375
0.000256407
0.00269005
0.000234252
0.00265527
0.000151868
0.00264986
2.76507e-05
0.00267838
-0.000108557
0.00273505
-0.000213807
0.00280044
-0.000240152
0.00284756
-0.000163907
0.00285645
-9.69173e-06
0.00282388
0.000164674
0.00276036
0.000306488
0.00268077
0.000390299
0.00259789
0.000413117
0.00252119
0.000380383
0.00245885
0.000295915
0.00242078
0.000158766
0.00241929
-3.1233e-05
0.00246556
-0.000258018
0.00256279
-0.000472892
0.0026969
-0.000597659
0.00283054
-0.00056087
0.00291658
-0.000354981
0.00292787
-5.6786e-05
0.00287163
0.000224512
0.00277613
0.000415733
0.00266922
0.000502618
0.00256791
0.000505974
0.0024792
0.000450521
0.00240511
0.000349668
0.00234992
0.000202208
0.00232778
-3.18035e-06
0.00235946
-0.000264096
0.00245364
-0.00053058
0.00259295
-0.00070945
0.00274063
-0.000717017
0.00285737
-0.000531209
0.00291382
-0.000205579
0.00289804
0.000154669
0.00282021
0.00044078
0.00270765
0.000592198
0.00258945
0.000614046
0.0024835
0.000549531
0.00239783
0.000434664
0.00234207
0.000271331
0.00233284
4.14985e-05
0.00238339
-0.000248071
0.00248945
-0.000538057
0.00262797
-0.000739736
0.00276692
-0.000782977
0.00287581
-0.00064817
0.002933
-0.000370437
0.00293016
-2.33114e-05
0.00287294
0.000307311
0.00277721
0.000549792
0.00266284
0.00066841
0.00254809
0.000669202
0.0024475
0.000582324
0.00237454
0.000430318
0.00234407
0.000214318
0.00236778
-6.33944e-05
0.00244559
-0.000367207
0.00256281
-0.000628462
0.0026956
-0.000777392
0.00281852
-0.00077377
0.00290964
-0.000618305
0.00295352
-0.000348514
0.0029437
-2.62256e-05
0.00288485
0.000279747
0.00279131
0.000512634
0.00268159
0.000641805
0.00257294
0.000663418
0.00248043
0.00058835
0.00241929
0.000426429
0.00240441
0.000184073
0.00244419
-0.000117951
0.00253367
-0.000427759
0.0026547
-0.000673974
0.00278278
-0.000796991
0.00289452
-0.000772239
0.00297243
-0.000613751
0.00300662
-0.000364242
0.00299502
-8.10511e-05
0.00294321
0.000177305
0.00286368
0.000363898
0.00277335
0.000453792
0.00269051
0.000444027
0.00263292
0.000343142
0.00261616
0.00016261
0.00264912
-7.82067e-05
0.00272857
-0.000341306
0.00283938
-0.000574083
0.00296164
-0.000728467
0.0030778
-0.000776489
0.00317505
-0.000712782
0.00324444
-0.000549657
0.00327967
-0.000311995
0.00327699
-3.37089e-05
0.00323614
0.000245018
0.0031617
0.000482098
0.00306335
0.000642587
0.00295437
0.0007081
0.00284848
0.000681692
0.00275679
0.000584671
0.0026864
0.000446255
0.00264099
0.000291885
0.00262189
0.000137449
0.00262819
-8.10672e-06
0.00265607
-0.000136397
0.00269876
-0.000236458
0.00274777
-0.000296798
0.00279462
-0.000309341
0.00283215
-0.000272074
0.00285513
-0.000189613
0.00286056
-7.23853e-05
0.00284774
6.45888e-05
0.00281817
0.000202485
0.00277524
0.000320269
0.00272399
0.000398425
0.00267055
0.000424521
0.00262125
0.000397786
0.00258139
0.000329304
0.00255429
0.000237406
0.00254081
0.000141217
0.00253962
5.57033e-05
0.00254784
-1.04005e-05
0.00256197
-5.42022e-05
0.00257874
-7.69671e-05
0.00259543
-8.20829e-05
0.00261002
-7.34563e-05
0.00262096
-5.48094e-05
0.00262718
-2.97165e-05
0.00262817
-1.82282e-06
0.00262406
2.52071e-05
0.00261563
4.80871e-05
0.0026042
6.44374e-05
0.0025913
7.31315e-05
0.00257843
7.42968e-05
0.0025668
6.90461e-05
0.00255728
5.90913e-05
0.00255029
4.6348e-05
0.00254588
3.27215e-05
0.00254385
1.97014e-05
0.00254363
8.65776e-06
0.00254492
1.60139e-07
-6.77138e-06
0.00250174
-1.74853e-05
0.00250736
-5.49871e-05
0.00251792
-9.79208e-05
0.00253487
-0.000147191
0.00256003
-0.000202695
0.00259547
-0.000262291
0.00264305
-0.000321464
0.00270265
-0.00036867
0.00277167
-0.000391129
0.00283862
-0.000362422
0.00288863
-0.000271779
0.00291524
-0.00014568
0.00291419
-5.75378e-07
0.00288106
0.000151768
0.00282048
0.000274496
0.00274727
0.000329614
0.00268001
0.000301512
0.00263607
0.000195814
0.00262887
3.4848e-05
0.00266548
-0.000145171
0.00273995
-0.000288277
0.00282721
-0.000327407
0.00289088
-0.000227575
0.0029044
-2.32125e-05
0.00286488
0.000204191
0.00278791
0.000383458
0.00269336
0.000484851
0.00259643
0.000510051
0.00250688
0.000469931
0.00243275
0.000370043
0.00238326
0.000208255
0.00236835
-1.63268e-05
0.00239965
-0.000289311
0.0024901
-0.000563341
0.00263868
-0.000746241
0.00280962
-0.000731817
0.00293913
-0.000484487
0.00297661
-9.4268e-05
0.00291998
0.000281146
0.00280678
0.000528935
0.00267909
0.000630308
0.0025612
0.000623864
0.00245895
0.000552771
0.00237043
0.000438186
0.00230132
0.000271309
0.00227436
2.37866e-05
0.002316
-0.000305735
0.00242953
-0.000644114
0.00258736
-0.000867278
0.00274685
-0.000876505
0.00286854
-0.0006529
0.00292598
-0.000263019
0.0029095
0.00017115
0.00282853
0.000521746
0.0027089
0.000711828
0.00258024
0.000742713
0.00246283
0.00066694
0.00236819
0.000529303
0.00231014
0.000329375
0.0023071
4.45427e-05
0.00236885
-0.000309824
0.00248514
-0.000654343
0.00262945
-0.000884053
0.00277034
-0.000923858
0.00287946
-0.000757289
0.00293603
-0.000427008
0.00293086
-1.81437e-05
0.00286905
0.000369123
0.00276738
0.000651458
0.00264696
0.000788831
0.00252669
0.00078947
0.00242208
0.000686938
0.00234856
0.000503836
0.00232224
0.000240637
0.00235323
-9.43822e-05
0.00243776
-0.000451734
0.0025583
-0.000749006
0.0026906
-0.000909693
0.00281063
-0.000893797
0.00289838
-0.000706052
0.00293964
-0.000389781
0.00292792
-1.45028e-05
0.00286681
0.00034086
0.00276994
0.000609498
0.00265624
0.000755506
0.00254425
0.000775408
0.00245071
0.000681887
0.00239225
0.000484897
0.00238365
0.000192674
0.00243086
-0.000165163
0.00252536
-0.00052226
0.00264666
-0.000795278
0.00277011
-0.000920443
0.00287379
-0.000875915
0.0029421
-0.000682063
0.00296682
-0.000388959
0.00294693
-6.11591e-05
0.00288842
0.00023581
0.00280369
0.000448626
0.00270965
0.000547842
0.00262549
0.00052818
0.00257091
0.000397722
0.00256222
0.000171297
0.00260521
-0.000121197
0.00269056
-0.000426651
0.00279894
-0.000682468
0.00291119
-0.000840711
0.00301384
-0.000879139
0.00309833
-0.000797269
0.00315822
-0.000609547
0.00318813
-0.000341911
0.0031844
-2.99726e-05
0.00314633
0.000283085
0.00307757
0.00055086
0.00298644
0.000733714
0.00288481
0.000809734
0.00278535
0.000781144
0.0026988
0.000671225
0.00263263
0.000512423
0.00259144
0.000333074
0.00257726
0.000151634
0.00258885
-1.97019e-05
0.0026211
-0.000168644
0.00266593
-0.000281286
0.00271457
-0.00034544
0.00275936
-0.000354135
0.00279434
-0.000307048
0.00281516
-0.000210432
0.00281922
-7.64523e-05
0.00280604
7.77731e-05
0.00277736
0.000231161
0.00273686
0.00036077
0.00268951
0.000445772
0.00264099
0.000473046
0.00259693
0.00044185
0.00256206
0.000364172
0.00253937
0.00026009
0.00252961
0.000150985
0.0025313
5.40116e-05
0.00254149
-2.05964e-05
0.00255679
-6.94983e-05
0.00257423
-9.44117e-05
0.00259165
-9.94969e-05