/*--------------------------------*- C++ -*----------------------------------*\
  =========                 |
  \\      /  F ield         | OpenFOAM: The Open Source CFD Toolbox
   \\    /   O peration     | Website:  https://openfoam.org
    \\  /    A nd           | Version:  11
     \\/     M anipulation  |
\*---------------------------------------------------------------------------*/
FoamFile
{
    format      ascii;
    class       volScalarField;
    location    "15.062428";
    object      p;
}
// * * * * * * * * * * * * * * * * * * * * * * * * * * * * * * * * * * * * * //

dimensions      [0 2 -2 0 0 0 0];

internalField   nonuniform List<scalar> 
7132
(
0.109158
0.108093
0.104457
0.0991486
0.0917026
0.0818959
0.0697279
0.055279
0.0392018
0.0225213
0.00679656
-0.00613673
-0.0151619
-0.0196564
-0.0193753
-0.0148387
-0.00723477
0.00207006
0.0118439
0.0210898
0.0290647
0.035205
0.0392336
0.0413779
0.0424603
0.0434698
0.0450006
0.0470537
0.0493174
0.0514896
0.0534409
0.0552236
0.0569393
0.0585883
0.0598474
0.0600708
0.0587449
0.0561316
0.0533697
0.0516431
0.0513698
0.0521104
0.0531426
0.0539581
0.0544179
0.0546764
0.0549943
0.0555013
0.0558844
0.0553869
0.0533863
0.0501865
0.0471052
0.0454826
0.0456905
0.0470498
0.0485601
0.0495642
0.0499249
0.0498731
0.049766
0.0497927
0.049685
0.0487689
0.046537
0.0433507
0.0404772
0.039191
0.0398356
0.0416859
0.0436306
0.0449093
0.0453582
0.0452404
0.0449514
0.0446901
0.0442287
0.0430326
0.0407841
0.0379053
0.0354956
0.0345988
0.035482
0.037507
0.0396409
0.0410996
0.0416542
0.0415387
0.04116
0.0407411
0.0401017
0.0388007
0.0366226
0.0340018
0.0319147
0.0312534
0.0322488
0.0343665
0.0366889
0.0384315
0.039256
0.0392836
0.0388824
0.0383232
0.0375173
0.0360899
0.0338121
0.0310308
0.0286529
0.027615
0.0283044
0.0303656
0.0329596
0.0352271
0.0366242
0.0370278
0.0366494
0.0358094
0.0346334
0.0329069
0.0302632
0.0266373
0.0225688
0.0190381
0.0169289
0.0165481
0.017526
0.0190787
0.0204147
0.0210053
0.0206508
0.0194067
0.0174596
0.0150287
0.0123422
0.00968317
0.00744086
0.00606827
0.00591592
0.00705042
0.00919323
0.0118118
0.014301
0.0161323
0.0169078
0.0163319
0.0141644
0.01022
0.00447926
-0.00281677
-0.010866
-0.0186712
-0.0244421
-0.0278485
-0.0264674
-0.024573
-0.0148301
-0.0160794
0.00619028
-0.0218277
0.109587
0.108531
0.104929
0.099653
0.0922285
0.0824053
0.0701605
0.0555369
0.0391934
0.0221596
0.00607787
-0.00710252
-0.016275
-0.0208164
-0.0204407
-0.015671
-0.00775596
0.00186966
0.0119265
0.0213845
0.0294886
0.0356611
0.0396163
0.041598
0.0424919
0.0433593
0.0448275
0.0468798
0.0491736
0.0513876
0.0533835
0.0552123
0.0569722
0.058664
0.0599547
0.0601692
0.0587641
0.0560105
0.05311
0.0513117
0.0510492
0.05185
0.0529517
0.0538268
0.0543325
0.0546255
0.0549676
0.0554935
0.0558822
0.0553538
0.0532644
0.0499313
0.0467307
0.0450621
0.0453106
0.0467639
0.0483741
0.0494576
0.0498711
0.0498485
0.0497525
0.0497769
0.0496452
0.0486686
0.0463344
0.0430261
0.0400574
0.0387443
0.0394391
0.0413917
0.0434503
0.0448231
0.0453335
0.0452454
0.0449628
0.0446898
0.0441895
0.0429162
0.0405577
0.0375674
0.0350871
0.0341845
0.0351228
0.0372413
0.0394787
0.0410273
0.0416441
0.0415599
0.0411867
0.0407512
0.0400652
0.03868
0.0363911
0.0336662
0.0315215
0.0308678
0.031926
0.0341365
0.0365544
0.0383787
0.0392631
0.0393253
0.0389331
0.0383566
0.0374986
0.0359806
0.033586
0.0306934
0.0282472
0.0272073
0.0279569
0.0301184
0.0328205
0.0351813
0.0366481
0.0370979
0.0367429
0.0359004
0.034687
0.0328787
0.0301136
0.0263525
0.0221742
0.0185936
0.01651
0.0162215
0.0173327
0.0190258
0.0204795
0.0211476
0.0208253
0.0195707
0.0175745
0.0150604
0.0122656
0.00949192
0.00715571
0.00573681
0.00560121
0.00681342
0.00907732
0.0118349
0.0144552
0.0163896
0.0172262
0.0166622
0.0144524
0.0104093
0.00451467
-0.00297968
-0.0112515
-0.0192664
-0.0252032
-0.0286858
-0.0273036
-0.0252836
-0.015413
-0.0163991
0.0059582
-0.0217659
0.110441
0.109405
0.105872
0.100665
0.0932893
0.0834392
0.0710459
0.0560726
0.03919
0.0214307
0.00461807
-0.00905716
-0.0185184
-0.0231473
-0.0225723
-0.0173252
-0.00878031
0.00148978
0.0121139
0.0219981
0.0303611
0.0365964
0.0403973
0.042039
0.042538
0.043112
0.0444556
0.046511
0.0488688
0.0511668
0.0532506
0.0551695
0.057018
0.0587982
0.0601568
0.0603557
0.0587871
0.0557409
0.0525511
0.0506063
0.0503719
0.0513025
0.0525495
0.0535451
0.0541407
0.0544993
0.0548886
0.0554527
0.0558534
0.0552612
0.0529867
0.0493753
0.0459249
0.0441632
0.0445033
0.0461579
0.047978
0.049224
0.0497413
0.0497731
0.0496974
0.0497183
0.0495415
0.0484434
0.0458982
0.0423375
0.0391737
0.0378072
0.0386075
0.0407724
0.0430651
0.044629
0.0452603
0.0452277
0.0449558
0.044661
0.0440866
0.0426613
0.0400833
0.0368702
0.0342489
0.0333365
0.0343879
0.0366961
0.0391405
0.0408667
0.0416042
0.0415791
0.0412163
0.0407494
0.0399711
0.0384162
0.0359025
0.032967
0.0307064
0.0300709
0.0312617
0.033664
0.0362761
0.0382634
0.0392652
0.0393951
0.039022
0.038412
0.0374479
0.0357408
0.0331008
0.0299747
0.0273863
0.0263434
0.0272223
0.0295948
0.0325224
0.0350759
0.0366852
0.0372289
0.0369228
0.0360786
0.0347899
0.0328108
0.0297886
0.0257401
0.0213284
0.0176428
0.0156149
0.0155232
0.0169158
0.018902
0.0205998
0.0214282
0.0211737
0.0199006
0.0178071
0.0151237
0.0121051
0.00909112
0.00655567
0.00503649
0.00493343
0.00630749
0.00882474
0.0118713
0.0147622
0.0169075
0.0178697
0.01733
0.0150345
0.0107917
0.00458548
-0.00331108
-0.012034
-0.0204746
-0.0267465
-0.0303842
-0.028996
-0.0267261
-0.0165881
-0.0170523
0.00549657
-0.0216208
0.111711
0.110708
0.107284
0.102193
0.0949026
0.0850271
0.0724229
0.0569223
0.039211
0.0203091
0.00234485
-0.0120927
-0.0220147
-0.026809
-0.025941
-0.019942
-0.0103975
0.000887852
0.0123973
0.0229413
0.0317066
0.0380399
0.0415931
0.0426856
0.0425492
0.0426615
0.0438237
0.0459016
0.04837
0.0508014
0.0530181
0.0550708
0.0570508
0.0589636
0.0604266
0.0605983
0.0587623
0.055239
0.0515837
0.0494178
0.0492532
0.0504135
0.051901
0.0530852
0.053814
0.0542652
0.05472
0.0553345
0.0557453
0.0550416
0.05246
0.0483948
0.0445444
0.0426482
0.0431607
0.0451611
0.0473285
0.0488322
0.049504
0.0496077
0.0495511
0.0495597
0.0493122
0.0480288
0.0451609
0.0412121
0.0377463
0.0362986
0.0372692
0.0397732
0.0424351
0.044294
0.0451055
0.0451502
0.0448908
0.0445641
0.0438779
0.0422164
0.0392942
0.0357325
0.032897
0.031982
0.0332252
0.0358371
0.0386018
0.0405948
0.0415095
0.0415711
0.0412265
0.0407137
0.0397896
0.0379599
0.0350822
0.0318092
0.0293699
0.028776
0.0301939
0.0329102
0.0358307
0.0380684
0.039246
0.0394785
0.0391389
0.038479
0.0373426
0.0353224
0.0322774
0.0287707
0.0259561
0.0249178
0.0260162
0.0287353
0.0320274
0.0348871
0.0367185
0.0374076
0.0371801
0.0363374
0.0349289
0.0326707
0.0292275
0.0247119
0.019927
0.0160805
0.0141523
0.0143851
0.016232
0.0186853
0.0207678
0.0218469
0.0216991
0.0203989
0.018155
0.0152042
0.0118264
0.008424
0.00556638
0.0038872
0.00384099
0.00548052
0.0084074
0.0119148
0.0152312
0.0177036
0.0188554
0.0183489
0.0159187
0.0113674
0.00468119
-0.00383515
-0.0132534
-0.0223502
-0.0291382
-0.0330125
-0.0316094
-0.0289483
-0.0183986
-0.0180419
0.00474817
-0.0213152
0.113386
0.11243
0.109165
0.104244
0.0970948
0.0872152
0.074355
0.05815
0.0392984
0.01877
-0.000822839
-0.0162833
-0.0267978
-0.0318032
-0.0305202
-0.023469
-0.0125398
0.000134869
0.012848
0.0242847
0.0335935
0.0400509
0.0432328
0.0435107
0.0424372
0.0418911
0.0428264
0.0449742
0.0476221
0.0502456
0.0526411
0.0548677
0.0570182
0.0591077
0.0607135
0.0608383
0.0585986
0.0543585
0.0500164
0.0475565
0.0475442
0.0490834
0.0509404
0.0523952
0.0532996
0.0538594
0.0543779
0.0550333
0.0554416
0.0545846
0.0515825
0.0468764
0.0424422
0.0403424
0.0411188
0.0436518
0.0463455
0.0482236
0.0490992
0.0492771
0.0492219
0.0492046
0.048864
0.0473302
0.0440175
0.0395328
0.0356577
0.0341126
0.0353341
0.0383191
0.0414983
0.0437633
0.044813
0.0449531
0.0447099
0.0443468
0.0435093
0.0415072
0.0380823
0.034017
0.0308868
0.0299963
0.0315447
0.0346039
0.0378192
0.0401733
0.0413218
0.0415002
0.0411886
0.0406175
0.0394807
0.0372421
0.0338266
0.0300638
0.0273751
0.0268583
0.0286239
0.0318069
0.0351739
0.0377625
0.0391807
0.039556
0.0392708
0.0385431
0.0371516
0.0346641
0.0310217
0.026963
0.0238286
0.0228064
0.0242302
0.0274543
0.0312739
0.0345727
0.0367189
0.037614
0.0375013
0.0366653
0.0350831
0.0324157
0.0283607
0.0231784
0.0178729
0.0138133
0.0120398
0.0127395
0.0152305
0.018342
0.0209646
0.0223961
0.0224011
0.0210684
0.0186158
0.0152826
0.0113848
0.00741936
0.00409927
0.00219784
0.00224423
0.00427166
0.00778376
0.0119387
0.0158431
0.0187586
0.0201615
0.0196945
0.017078
0.0121063
0.00476654
-0.00459359
-0.0149579
-0.0249468
-0.0324353
-0.0366285
-0.0351982
-0.0319965
-0.020885
-0.0193796
0.00365429
-0.0207581
0.115447
0.114556
0.111507
0.106832
0.0999003
0.0900661
0.0769292
0.0598433
0.0395053
0.0167519
-0.00506269
-0.0218479
-0.0331991
-0.0385832
-0.0367785
-0.028266
-0.0154162
-0.000858916
0.013451
0.0260523
0.0360722
0.0426893
0.0453449
0.0444625
0.0420602
0.0406218
0.0413065
0.0436145
0.0465434
0.0494333
0.0520548
0.0544884
0.0568402
0.0591434
0.0609236
0.0609569
0.0581164
0.0528315
0.0475137
0.0447047
0.0450098
0.0471657
0.0495772
0.0514051
0.052522
0.0531781
0.0537072
0.0543477
0.0547252
0.0536944
0.0502099
0.0447196
0.0395146
0.0371054
0.0382141
0.0414879
0.0449246
0.0473163
0.0484419
0.0486786
0.0485988
0.0485503
0.0480993
0.0462265
0.0422937
0.0370785
0.0326842
0.0310702
0.0326815
0.036326
0.0401867
0.0429713
0.0443149
0.0445701
0.0443566
0.0439579
0.0429151
0.0404326
0.036304
0.0315501
0.0280388
0.027221
0.029227
0.0329174
0.0367386
0.0395566
0.0409981
0.0413294
0.041074
0.0404289
0.0389906
0.0361757
0.0320205
0.0276013
0.0245923
0.0241983
0.0264513
0.0302792
0.034253
0.0373062
0.0390364
0.0396006
0.039395
0.0385748
0.0368248
0.0336901
0.0292393
0.0244524
0.020909
0.0199205
0.0217835
0.025682
0.0302047
0.0340867
0.0366492
0.0378165
0.0378585
0.0370304
0.0352069
0.0319816
0.0271133
0.0210693
0.0151128
0.010808
0.0092575
0.0105714
0.0138967
0.0178575
0.0211771
0.023066
0.0232732
0.0219012
0.019169
0.0153143
0.0107071
0.00598482
0.00206116
-0.000108692
8.95195e-05
0.00264631
0.00692741
0.0119141
0.0165584
0.0200192
0.0217225
0.0212948
0.0184391
0.0129374
0.00477765
-0.0056363
-0.0171757
-0.0282677
-0.0366203
-0.0412062
-0.0397388
-0.0358528
-0.0240455
-0.0210497
0.00215657
-0.0198486
0.117868
0.117063
0.114302
0.109966
0.103361
0.0936622
0.0802666
0.0621343
0.039927
0.0141989
-0.0105362
-0.0288919
-0.0411521
-0.0469841
-0.0445422
-0.0341828
-0.018904
-0.00199584
0.0142904
0.0283249
0.039223
0.046026
0.0479453
0.0454391
0.0411859
0.038568
0.0390222
0.0416598
0.0450253
0.0482748
0.0511649
0.053821
0.0563806
0.058897
0.0608501
0.0607268
0.0570438
0.050301
0.0436276
0.0404074
0.0413011
0.0444435
0.0476814
0.0500165
0.0513687
0.0520586
0.0524828
0.0530245
0.0533522
0.0521356
0.0480849
0.0416525
0.035528
0.0327649
0.0343017
0.0385319
0.0429446
0.0460014
0.0474196
0.0476928
0.0475752
0.0475095
0.0469257
0.044583
0.0397966
0.0336147
0.0285855
0.026965
0.0291624
0.0336943
0.0384222
0.0418413
0.0435332
0.0439308
0.0437737
0.04334
0.0420174
0.0388869
0.0338379
0.0282101
0.0242361
0.0235444
0.0261733
0.0307
0.0352991
0.0386907
0.0404876
0.041015
0.0408441
0.0401021
0.0382556
0.0346823
0.0295853
0.0243556
0.0209667
0.0207428
0.0236203
0.028272
0.0330167
0.0366529
0.0387707
0.0395737
0.0394721
0.0385256
0.0363012
0.032335
0.0268772
0.0212086
0.0171865
0.0162535
0.0186596
0.0233874
0.0287776
0.0333826
0.036463
0.0379711
0.0382073
0.0373818
0.0352389
0.0313044
0.0254384
0.0183737
0.0116771
0.00712399
0.00586954
0.00793213
0.0122573
0.0172341
0.0213916
0.0238368
0.0242955
0.0228756
0.0197766
0.0152387
0.00971732
0.00405026
-0.000590915
-0.00304104
-0.00260887
0.000620264
0.00583289
0.0118005
0.0172975
0.0213726
0.023404
0.023008
0.0198655
0.0137428
0.00463419
-0.00698356
-0.0198499
-0.0321775
-0.0414987
-0.0465324
-0.0450353
-0.0403624
-0.0277802
-0.0229855
0.000234863
-0.0184995
0.120615
0.119922
0.117535
0.113656
0.107524
0.0981027
0.084519
0.0651949
0.0406778
0.0109711
-0.0176317
-0.0378659
-0.0514319
-0.0581188
-0.0549145
-0.0419793
-0.0233787
-0.00340957
0.0153485
0.0311225
0.0430939
0.0501197
0.0510238
0.0462549
0.0394419
0.0353058
0.0356347
0.0388873
0.0429176
0.0466447
0.0498401
0.052704
0.0553954
0.0579773
0.0600023
0.0597405
0.0552136
0.0467462
0.0382053
0.0342679
0.0359867
0.040621
0.0450799
0.0481025
0.0496908
0.0502952
0.0504761
0.05087
0.0511655
0.0497129
0.0448834
0.0372422
0.0300688
0.0270291
0.0292114
0.0346593
0.040288
0.0441583
0.0459091
0.0462069
0.0460614
0.0460019
0.0452422
0.0422692
0.0363924
0.0290278
0.0232596
0.0216916
0.0246756
0.0303419
0.0361325
0.0402978
0.0423908
0.042967
0.042901
0.0424259
0.040735
0.0367891
0.0306303
0.0239819
0.0194851
0.0189656
0.0223609
0.0279122
0.0334523
0.0375224
0.0397362
0.0405045
0.0404447
0.0395747
0.0372095
0.0327109
0.0265066
0.0203537
0.0165495
0.0165394
0.0201532
0.0257766
0.0314332
0.0357572
0.0383319
0.0394199
0.03944
0.0383253
0.0355133
0.0305579
0.0239423
0.0172905
0.0127539
0.0119021
0.0149302
0.0206023
0.0269853
0.0324245
0.0361079
0.0380167
0.0384802
0.0376425
0.0351008
0.0303274
0.0233298
0.0151534
0.00768982
0.00292084
0.00203473
0.00494991
0.010392
0.0165011
0.0215989
0.0246773
0.0254261
0.0239387
0.02037
0.014977
0.00835284
0.0016018
-0.00380619
-0.00649734
-0.00573779
-0.00171787
0.00453319
0.0115605
0.0179547
0.02266
0.0250166
0.0246344
0.0211699
0.0143766
0.00426821
-0.00859044
-0.0228055
-0.0363821
-0.0466921
-0.0521957
-0.0507024
-0.0452094
-0.031865
-0.0250512
-0.00206665
-0.0166625
0.123645
0.123094
0.12118
0.117906
0.112439
0.103511
0.0898902
0.0692822
0.041966
0.00694712
-0.0266387
-0.0488191
-0.0636051
-0.0713185
-0.0673448
-0.0513421
-0.0286975
-0.0050497
0.0166334
0.0344371
0.0476815
0.0549708
0.0544883
0.0465908
0.0362507
0.0301719
0.03062
0.0349795
0.0400287
0.0443893
0.0479131
0.0509012
0.0534498
0.0556978
0.0575609
0.0572283
0.0522026
0.0421898
0.0314246
0.0262643
0.0287767
0.0353846
0.0415523
0.0454974
0.0473099
0.0476836
0.0475168
0.0477779
0.0480653
0.0462622
0.040382
0.0312527
0.0229077
0.0196958
0.0227987
0.0297702
0.036855
0.041671
0.0437927
0.0441231
0.0439791
0.0439451
0.0429539
0.039208
0.0320711
0.0233907
0.0168192
0.0153371
0.0192501
0.0262508
0.0332705
0.0382754
0.0408148
0.0416072
0.0416649
0.0411358
0.0389966
0.0341107
0.0267239
0.0189796
0.0139367
0.0136219
0.0178753
0.0245792
0.031178
0.0360052
0.0386842
0.0397308
0.0398002
0.0387691
0.0357954
0.0302577
0.0228531
0.0157301
0.0115086
0.0117462
0.0161619
0.0228439
0.0294987
0.0345786
0.0376582
0.0390638
0.0392119
0.0378874
0.0344018
0.0283601
0.0205164
0.0128533
0.0078085
0.00706431
0.0107543
0.0174229
0.0248581
0.0311892
0.0355255
0.0378741
0.0385847
0.0377133
0.0347095
0.0290184
0.0208374
0.0115489
0.00336276
-0.00155628
-0.0020086
0.00181291
0.00841862
0.0157036
0.0217849
0.025536
0.0265928
0.0250025
0.0208544
0.0144557
0.00660629
-0.00126932
-0.00740026
-0.0102434
-0.00907006
-0.00420627
0.00309649
0.0111581
0.0184005
0.0236835
0.0263254
0.0259293
0.0221334
0.0146897
0.0036459
-0.010345
-0.0257821
-0.0404958
-0.0517284
-0.0576831
-0.0562393
-0.0499654
-0.0359738
-0.0270517
-0.00463047
-0.0143498
0.126901
0.126526
0.125199
0.122706
0.11815
0.110022
0.0966188
0.0747211
0.0440224
0.00179203
-0.038377
-0.0626908
-0.0794011
-0.0891051
-0.0841829
-0.0636788
-0.0354157
-0.00707266
0.0180999
0.0382059
0.0529235
0.0604867
0.0580752
0.0457908
0.0305279
0.0221119
0.0232563
0.0295335
0.036118
0.0413176
0.0451745
0.0480749
0.0499704
0.0513481
0.0528563
0.0525789
0.0472501
0.0357687
0.0227515
0.0162765
0.0195847
0.0285367
0.0368895
0.0420151
0.0440462
0.0440687
0.0435111
0.0436891
0.0439723
0.0416913
0.0345754
0.0238167
0.0142312
0.0108926
0.0151005
0.0238514
0.0325923
0.0384532
0.0409765
0.0413611
0.0412531
0.041254
0.0399898
0.0353994
0.0269512
0.0169393
0.00956204
0.00817652
0.0130706
0.021501
0.029839
0.0357319
0.0387414
0.0397756
0.0399784
0.0393841
0.0367529
0.0308826
0.0222536
0.0134289
0.00786237
0.00777042
0.0129054
0.0207991
0.0284959
0.0341067
0.0372692
0.0386118
0.0388158
0.0376003
0.033976
0.0273703
0.0187714
0.0107116
0.00610826
0.00661401
0.0118384
0.0195828
0.0272419
0.0330848
0.0366779
0.0384088
0.0386787
0.037116
0.0329238
0.0257884
0.0167485
0.00813045
0.00262901
0.00201633
0.00636178
0.0140016
0.0224625
0.0296682
0.0346527
0.0374449
0.0384032
0.0374769
0.0339843
0.0273747
0.0180625
0.00776186
-0.00103153
-0.00600734
-0.00597936
-0.00125427
0.00647864
0.0148938
0.0219259
0.0263363
0.0276873
0.0259405
0.0211174
0.0136291
0.00455049
-0.0043564
-0.0110675
-0.0139419
-0.0123042
-0.0066314
0.00161782
0.0105654
0.0185009
0.0242341
0.027082
0.0266401
0.0225435
0.0145571
0.00276727
-0.0121086
-0.028511
-0.044143
-0.0561528
-0.0624944
-0.0611376
-0.0541754
-0.0397364
-0.0287647
-0.00728008
-0.0116441
0.130314
0.130153
0.129538
0.128034
0.124697
0.117799
0.105028
0.0820195
0.0473046
-0.00478343
-0.0534474
-0.079121
-0.0971259
-0.109503
-0.104271
-0.0786771
-0.0435978
-0.00967312
0.019478
0.0420836
0.0585183
0.066233
0.0609036
0.0424085
0.020336
0.00931228
0.0123469
0.0219461
0.0308933
0.0372295
0.0413813
0.0438156
0.0444508
0.0446451
0.0458758
0.0458049
0.0399272
0.0266505
0.011444
0.00395605
0.00837386
0.0200171
0.030951
0.037487
0.039749
0.0393572
0.0384182
0.0385694
0.0388528
0.0360394
0.0276775
0.0153453
0.00455313
0.00107944
0.00641441
0.0170389
0.0275263
0.0344692
0.0374016
0.0378566
0.0378087
0.037852
0.0363184
0.0309212
0.0212541
0.0100235
0.00191098
0.000620257
0.00645155
0.0162723
0.0259021
0.0326574
0.0361184
0.0373929
0.0377458
0.0370892
0.0339851
0.0271939
0.0174299
0.00763867
0.00162006
0.00175495
0.00772119
0.0167354
0.0254666
0.0318118
0.035427
0.0370524
0.0373848
0.0359863
0.0317413
0.0241461
0.0144706
0.00559161
0.000679412
0.00145749
0.0074324
0.0161481
0.0247198
0.0312528
0.0353119
0.0373417
0.037717
0.0359175
0.0310612
0.0229324
0.0128387
0.00340658
-0.00245754
-0.00291944
0.00202517
0.0105283
0.0198919
0.0278652
0.0334229
0.0366159
0.0378013
0.0368093
0.0328579
0.0254262
0.0151472
0.00403158
-0.00519143
-0.0101124
-0.00958263
-0.00401983
0.00471407
0.0141155
0.021979
0.0269728
0.0285669
0.0266009
0.0210548
0.0125053
0.00234534
-0.0073626
-0.0144328
-0.0172125
-0.015116
-0.00876886
0.000197624
0.00975842
0.0181281
0.0241132
0.0270519
0.0265409
0.0222241
0.0138881
0.00164638
-0.0137583
-0.0307651
-0.0470017
-0.0595661
-0.0661842
-0.0649373
-0.0574181
-0.0427917
-0.0299779
-0.00980874
-0.00869246
0.133798
0.133891
0.13412
0.133833
0.132087
0.126978
0.115456
0.0917867
0.0522321
-0.0136213
-0.0734495
-0.100295
-0.121224
-0.138363
-0.132221
-0.0985028
-0.0538147
-0.0129828
0.0205632
0.0457155
0.0636587
0.0711995
0.0620293
0.0349591
0.00359366
-0.0106469
-0.0037165
0.0114861
0.0240435
0.0319191
0.0362675
0.0377623
0.0366622
0.0356691
0.0368469
0.0370505
0.0303818
0.0151705
-0.00210617
-0.0103875
-0.00461017
0.00996887
0.0237284
0.0318206
0.0343324
0.033516
0.0322279
0.0324037
0.0327287
0.0294635
0.0200466
0.00638771
-0.0054569
-0.0090882
-0.00275482
0.00962704
0.0217851
0.0297501
0.0330519
0.0335656
0.0335813
0.0336844
0.0319545
0.0259156
0.0152693
0.00305705
-0.00564897
-0.00684958
-0.000209577
0.0108248
0.0215851
0.0290794
0.0329112
0.034384
0.0348758
0.0341866
0.0307097
0.02318
0.0125115
0.00196222
-0.00439134
-0.00403788
0.00263951
0.0125967
0.0221859
0.0291246
0.0330975
0.0349538
0.0354004
0.0338592
0.0291107
0.0207201
0.0101963
0.000695061
-0.00442001
-0.00338208
0.00322159
0.0127222
0.0220106
0.0290696
0.0334801
0.0357426
0.0362027
0.0342113
0.0288218
0.0199123
0.00901217
-0.0010165
-0.00711265
-0.00741027
-0.00196993
0.00720864
0.0172549
0.0257935
0.031771
0.0352682
0.0366351
0.0355928
0.0312835
0.0232293
0.0122549
0.000606353
-0.00881903
-0.0135634
-0.0125391
-0.00626887
0.00324964
0.0133936
0.0218794
0.027315
0.0290666
0.0268305
0.0205937
0.0111498
0.000205829
-0.00996518
-0.0171295
-0.0197058
-0.0172163
-0.0104219
-0.00107769
0.00871587
0.0171755
0.0231614
0.0260557
0.0254686
0.0210558
0.012625
0.000295742
-0.0152051
-0.0323687
-0.0488076
-0.0616284
-0.0683671
-0.0672449
-0.0593382
-0.0448273
-0.0305182
-0.0120116
-0.00568639
0.137254
0.137639
0.138842
0.140025
0.140299
0.137741
0.128388
0.105108
0.0598606
-0.0256831
-0.100066
-0.123824
-0.145509
-0.17031
-0.166421
-0.123818
-0.0670019
-0.0178403
0.020503
0.0478215
0.0657798
0.0725874
0.0613724
0.027705
-0.014545
-0.0366056
-0.0263289
-0.00290654
0.0151747
0.0252166
0.0296381
0.0297392
0.0266711
0.0246345
0.0260229
0.0265884
0.0192253
0.0024183
-0.0166092
-0.0256258
-0.0186109
-0.00117589
0.0153985
0.0250508
0.0278054
0.0265726
0.0249629
0.025213
0.0256884
0.0222079
0.012115
-0.00246047
-0.0150919
-0.0188854
-0.0117912
0.00203308
0.0155973
0.0243997
0.027959
0.0284723
0.0285312
0.0287346
0.0269634
0.020573
0.00932008
-0.0035285
-0.012623
-0.0137355
-0.00648297
0.0054662
0.0170616
0.0250627
0.0291083
0.03069
0.0312964
0.0306417
0.0269785
0.0190077
0.00777639
-0.00324037
-0.00977269
-0.00921935
-0.00201157
0.00861302
0.0187741
0.0260687
0.0302331
0.0322273
0.0327721
0.0311765
0.0261323
0.0172495
0.00620385
-0.00365593
-0.0088411
-0.00757169
-0.00051751
0.00949445
0.0192045
0.0265341
0.0311113
0.0335017
0.0340287
0.0319415
0.0262395
0.0168644
0.00549575
-0.00484954
-0.0110183
-0.0111445
-0.00535296
0.00424276
0.0146634
0.0234743
0.0296405
0.0332924
0.0347789
0.0337328
0.0292407
0.0208598
0.00955211
-0.00228061
-0.0116459
-0.0160903
-0.0146099
-0.0078241
0.00217745
0.0127261
0.0215419
0.0272193
0.0290207
0.026502
0.0197079
0.00967051
-0.00164684
-0.0118807
-0.0188631
-0.0211541
-0.0183902
-0.0114499
-0.00215294
0.00741645
0.0155694
0.0212785
0.0239907
0.0233359
0.0189784
0.0107397
-0.00127543
-0.0163891
-0.0331949
-0.0493601
-0.0620749
-0.0687426
-0.0677556
-0.0596713
-0.0456076
-0.0302722
-0.0137131
-0.00283649
0.140564
0.141272
0.143566
0.146449
0.149228
0.150079
0.144195
0.122955
0.0705681
-0.0419887
-0.135915
-0.156768
-0.182436
-0.218714
-0.215031
-0.157118
-0.0832848
-0.0242901
0.018896
0.045858
0.0596927
0.0640262
0.0520838
0.0197003
-0.0288499
-0.0619636
-0.0530452
-0.0212462
0.00398859
0.0169625
0.0214007
0.0197772
0.0147005
0.0118348
0.0137337
0.0149145
0.00733272
-0.0103561
-0.0305797
-0.0403084
-0.0324754
-0.012694
0.00634367
0.0173675
0.0202865
0.0186188
0.0166922
0.017075
0.0178916
0.0145761
0.00433611
-0.0106224
-0.0236858
-0.027614
-0.020059
-0.00526118
0.00926988
0.0185903
0.0222056
0.0226019
0.0226627
0.0230374
0.0214592
0.0151144
0.00373186
-0.00932574
-0.0185555
-0.0195768
-0.0119546
0.000516028
0.0125358
0.0207066
0.0247301
0.0262838
0.0269733
0.0264606
0.0228775
0.0148594
0.00349413
-0.00763777
-0.0141642
-0.0134378
-0.00592654
0.00501164
0.0153645
0.022689
0.0268103
0.0288123
0.0294434
0.0279305
0.0228798
0.0138973
0.00273206
-0.00717315
-0.0122771
-0.0108182
-0.0035366
0.00664315
0.0163963
0.0236607
0.0281573
0.0305385
0.0311232
0.0290868
0.0233708
0.0139272
0.00249576
-0.00784121
-0.0139037
-0.0138578
-0.00789179
0.00180772
0.0122229
0.0209378
0.0269948
0.0306074
0.0321417
0.0311716
0.0267378
0.0184036
0.00719181
-0.0044311
-0.0134536
-0.0174804
-0.0156133
-0.00855996
0.00154841
0.012085
0.0208718
0.0265482
0.0282884
0.0255337
0.0184151
0.00818488
-0.00303407
-0.0129122
-0.0194478
-0.0213936
-0.0185172
-0.0117863
-0.00301182
0.00584385
0.013282
0.0184387
0.0208376
0.0201304
0.0159872
0.00823527
-0.00305219
-0.0172725
-0.0331688
-0.0485407
-0.0607483
-0.0671403
-0.0662923
-0.0582677
-0.0449948
-0.0291959
-0.0147879
-0.000344184
0.1436
0.144655
0.148117
0.152927
0.158684
0.164147
0.163539
0.148408
0.0869794
-0.0715777
-0.184129
-0.184254
-0.211981
-0.271688
-0.278703
-0.203128
-0.105872
-0.0340451
0.013894
0.0359662
0.0412234
0.0411461
0.0313619
0.00514752
-0.0446368
-0.0861864
-0.0808823
-0.0422793
-0.00928962
0.00716846
0.0116195
0.00809267
0.00104383
-0.00240313
0.000380911
0.00266404
-0.00437102
-0.022018
-0.042714
-0.053059
-0.0449596
-0.0236888
-0.00288077
0.00910834
0.0120028
0.00981817
0.0075496
0.00814261
0.0095712
0.00690923
-0.00285332
-0.0175886
-0.0306724
-0.0346744
-0.0269802
-0.0117724
0.00315228
0.0125491
0.0159278
0.0160341
0.0160413
0.0166893
0.0156026
0.00977435
-0.00119532
-0.0139862
-0.0230696
-0.0239909
-0.0162668
-0.00372785
0.00822215
0.0161404
0.0198374
0.0211871
0.0219266
0.0216992
0.0185236
0.0109175
-9.7829e-05
-0.0109559
-0.017276
-0.0164087
-0.00885015
0.00199576
0.012093
0.0190529
0.0228424
0.0246949
0.0254081
0.0241559
0.0194478
0.0108187
-1.70467e-05
-0.00962637
-0.0144898
-0.0128933
-0.00563665
0.00432032
0.01368
0.0204852
0.0246079
0.0268219
0.0274665
0.0256681
0.0202918
0.0112301
0.000182067
-0.00979683
-0.0155654
-0.0153528
-0.00941046
4.38893e-05
0.0100268
0.0182252
0.0238288
0.0271785
0.0286869
0.0279
0.0238133
0.0159491
0.00530127
-0.00569611
-0.0140891
-0.0175938
-0.0154389
-0.00841195
0.00137
0.0114233
0.0197803
0.0251932
0.0267775
0.023896
0.0167622
0.00679073
-0.0038483
-0.0129681
-0.0188158
-0.0203823
-0.0175852
-0.011444
-0.00367368
0.00399609
0.0103391
0.0146874
0.0166479
0.0159008
0.0121263
0.005149
-0.00500566
-0.0178348
-0.0322743
-0.0463321
-0.0576236
-0.0635287
-0.0628215
-0.055111
-0.0429625
-0.0273165
-0.0151736
0.00162682
0.14622
0.147622
0.152285
0.159106
0.168327
0.179196
0.186583
0.180455
0.109972
-0.090399
-0.266753
-0.2459
-0.271625
-0.358551
-0.369437
-0.26329
-0.133499
-0.046283
0.0040048
0.0155249
0.0130337
0.00993444
0.0062694
-0.0140373
-0.0620098
-0.108088
-0.106708
-0.0639576
-0.0239078
-0.00390204
0.000535783
-0.00495806
-0.0139306
-0.0176796
-0.0135285
-0.00944957
-0.0150204
-0.0316414
-0.0520171
-0.0627741
-0.0549659
-0.0332471
-0.0116203
0.000725144
0.00327594
0.000412363
-0.0022498
-0.00134385
0.00102866
-0.000433178
-0.00906259
-0.022954
-0.0356288
-0.0396177
-0.0320931
-0.0170711
-0.00240226
0.00654059
0.0093148
0.00891388
0.0088056
0.00985402
0.00959531
0.00478698
-0.00520839
-0.0172471
-0.0258959
-0.0267038
-0.019149
-0.00701634
0.00432729
0.0115185
0.0145387
0.0154842
0.0162432
0.0164688
0.0140599
0.00735251
-0.00281188
-0.0129993
-0.0189108
-0.017938
-0.0105981
-0.000271394
0.00909006
0.0152533
0.0183911
0.0199235
0.0207231
0.0199344
0.0159479
0.00814901
-0.00189389
-0.0108611
-0.015326
-0.0136505
-0.00668326
0.00264153
0.0111459
0.01707
0.0205041
0.0223855
0.0231025
0.0217522
0.0170947
0.00888443
-0.00132349
-0.0105919
-0.0158814
-0.0155134
-0.00980135
-0.000953834
0.00815236
0.0153936
0.0201801
0.0230322
0.0244438
0.0239634
0.0205345
0.0135815
0.00397306
-0.00598662
-0.0134763
-0.0163738
-0.0140554
-0.00738025
0.00161134
0.0106889
0.0182045
0.0230944
0.024456
0.0216049
0.0148057
0.00554726
-0.00406147
-0.0120625
-0.0170191
-0.0182005
-0.0156889
-0.0105068
-0.00417823
0.00189687
0.00681759
0.0101258
0.0115232
0.0107409
0.00748097
0.00155222
-0.00709044
-0.0180712
-0.0305547
-0.0428206
-0.0528146
-0.058033
-0.057466
-0.0503199
-0.0395976
-0.024725
-0.0148742
0.00297954
0.148282
0.150016
0.155813
0.164689
0.177576
0.195324
0.214149
0.231666
0.14698
-0.084321
-0.313159
-0.264413
-0.290492
-0.441589
-0.490562
-0.353259
-0.174797
-0.0638136
-0.0128851
-0.0140424
-0.0217048
-0.0231727
-0.0178697
-0.032183
-0.0759418
-0.123129
-0.126181
-0.0831134
-0.0383592
-0.0155522
-0.0113573
-0.0188845
-0.029756
-0.0334926
-0.0273775
-0.0206874
-0.0238752
-0.038567
-0.0578659
-0.0687511
-0.0616991
-0.0405839
-0.0192151
-0.00726823
-0.0054983
-0.00927528
-0.0123983
-0.0110526
-0.00737449
-0.00709092
-0.0139682
-0.0264406
-0.0383005
-0.042175
-0.0350904
-0.0208242
-0.00707207
0.000846524
0.00260599
0.00145748
0.00117336
0.00276238
0.00367349
0.000373486
-0.0081163
-0.0189478
-0.0268907
-0.0275693
-0.0204374
-0.00916823
0.00103598
0.00701479
0.00899441
0.00933036
0.0100835
0.0109364
0.0096516
0.00431401
-0.00452184
-0.0136636
-0.0189774
-0.0179347
-0.0110697
-0.00167692
0.00647537
0.0114097
0.0135743
0.0146181
0.0155142
0.0153955
0.0125045
0.00599714
-0.00281044
-0.010809
-0.0147297
-0.0130357
-0.00661496
0.00168038
0.00887923
0.0135091
0.0159463
0.0173361
0.0181443
0.0174532
0.0138855
0.00697872
-0.00195381
-0.0101794
-0.0148193
-0.0143116
-0.00903162
-0.00114017
0.00666061
0.0125187
0.0161362
0.0182646
0.0195143
0.0194642
0.0169967
0.0113787
0.00325965
-0.00527996
-0.0116225
-0.0138538
-0.0115145
-0.00552644
0.00221488
0.00984148
0.0161238
0.0202502
0.0213478
0.0187085
0.0125966
0.00447094
-0.00371767
-0.0103042
-0.014218
-0.0150366
-0.0130094
-0.00910333
-0.00456406
-0.000399153
0.00283351
0.00489049
0.00559756
0.00477697
0.00216791
-0.0024566
-0.00924754
-0.0179901
-0.0281045
-0.0381853
-0.0465621
-0.0509266
-0.0504947
-0.0441377
-0.03509
-0.021561
-0.0139558
0.00370569
0.149649
0.151655
0.158441
0.169061
0.185681
0.209518
0.245242
0.252989
0.2345
-0.112941
-0.427037
-0.290072
-0.285855
-0.456278
-0.543074
-0.421715
-0.214425
-0.0844505
-0.0370736
-0.0496131
-0.0619991
-0.0549808
-0.038624
-0.0459477
-0.0838017
-0.129504
-0.136821
-0.0969558
-0.0508346
-0.0267276
-0.0233083
-0.0330424
-0.045811
-0.0491756
-0.040423
-0.0303175
-0.0303545
-0.0424178
-0.0600177
-0.0707105
-0.0647383
-0.0451462
-0.0250898
-0.014353
-0.0138747
-0.0188433
-0.0224947
-0.0205665
-0.0152319
-0.0127206
-0.0173283
-0.0279082
-0.0386091
-0.0422671
-0.0358358
-0.0228203
-0.0105939
-0.00425246
-0.00391736
-0.00604963
-0.00656168
-0.00429456
-0.00190261
-0.00326791
-0.00979835
-0.0190357
-0.0260404
-0.0265734
-0.0200824
-0.0100805
-0.00149914
0.00281673
0.00341476
0.00295177
0.00367921
0.00532027
0.00547883
0.00192434
-0.00516808
-0.0129402
-0.017494
-0.016415
-0.0102521
-0.00216296
0.00435407
0.00766712
0.00856615
0.00896965
0.00997445
0.0107127
0.00924997
0.00444079
-0.00274395
-0.00949021
-0.0127437
-0.0110891
-0.00544521
0.00146712
0.00696033
0.00992874
0.0110953
0.0118536
0.0127719
0.0129292
0.0107801
0.00557584
-0.00169885
-0.00859247
-0.0124373
-0.0118095
-0.00714378
-0.00051922
0.00559723
0.00969713
0.011836
0.0130403
0.0140701
0.0145593
0.0133197
0.00940859
0.0031711
-0.00362196
-0.00862069
-0.0101566
-0.00794667
-0.00296314
0.00311199
0.00886783
0.0135696
0.0167171
0.0175208
0.0152722
0.0101729
0.00354074
-0.00291703