/*--------------------------------*- C++ -*----------------------------------*\
  =========                 |
  \\      /  F ield         | OpenFOAM: The Open Source CFD Toolbox
   \\    /   O peration     | Website:  https://openfoam.org
    \\  /    A nd           | Version:  11
     \\/     M anipulation  |
\*---------------------------------------------------------------------------*/
FoamFile
{
    format      ascii;
    class       surfaceScalarField;
    location    "15.062428";
    object      phi;
}
// * * * * * * * * * * * * * * * * * * * * * * * * * * * * * * * * * * * * * //

dimensions      [0 3 -1 0 0 0 0];

internalField   nonuniform List<scalar> 
14638
(
0.00250217
-2.17022e-06
0.00250895
-6.77802e-06
0.00252089
-1.19372e-05
0.00253855
-1.76688e-05
0.00256238
-2.38224e-05
0.00259232
-2.99411e-05
0.00262766
-3.53382e-05
0.00266657
-3.89137e-05
0.00270614
-3.95677e-05
0.00274233
-3.61955e-05
0.00277066
-2.83316e-05
0.00278754
-1.68765e-05
0.00279079
-3.24419e-06
0.00277986
1.09292e-05
0.00275653
2.3328e-05
0.00272512
3.14061e-05
0.00269172
3.34e-05
0.00266293
2.87956e-05
0.0026445
1.84236e-05
0.00264012
4.38616e-06
0.00265028
-1.01606e-05
0.00267154
-2.12679e-05
0.00269664
-2.50927e-05
0.00271627
-1.96307e-05
0.00272243
-6.16451e-06
0.00271122
1.12177e-05
0.0026835
2.7718e-05
0.00264376
3.97389e-05
0.00259835
4.54104e-05
0.00255421
4.41367e-05
0.00251823
3.59818e-05
0.00249683
2.13975e-05
0.00249537
1.45964e-06
0.00251682
-2.14505e-05
0.00255969
-4.28712e-05
0.00261636
-5.66664e-05
0.00267379
-5.74296e-05
0.00271749
-4.37025e-05
0.00273686
-1.93662e-05
0.00272859
8.273e-06
0.00269649
3.20906e-05
0.00264871
4.7788e-05
0.00259457
5.41393e-05
0.00254289
5.16801e-05
0.00250157
4.13178e-05
0.0024778
2.37682e-05
0.00247774
6.10137e-08
0.0025049
-2.71572e-05
0.00255741
-5.25154e-05
0.00262607
-6.86531e-05
0.00269534
-6.92747e-05
0.00274814
-5.27994e-05
0.00277195
-2.38089e-05
0.00276292
9.02519e-06
0.00272593
3.69944e-05
0.00267123
5.47026e-05
0.0026104
6.08268e-05
0.00255374
5.66554e-05
0.00250967
4.40799e-05
0.00248516
2.4503e-05
0.0024859
-7.37074e-07
0.00251476
-2.88644e-05
0.00256933
-5.45656e-05
0.00264015
-7.08239e-05
0.00271188
-7.1731e-05
0.00276752
-5.56373e-05
0.00279402
-2.64959e-05
0.00278643
7.58391e-06
0.00274879
3.76474e-05
0.00269154
5.72456e-05
0.00262749
6.4049e-05
0.00256831
5.91805e-05
0.0025231
4.52117e-05
0.00249861
2.44897e-05
0.00249956
-9.54729e-07
0.00252768
-2.81189e-05
0.00257975
-5.20664e-05
0.00264652
-6.67673e-05
0.00271401
-6.7498e-05
0.00276719
-5.31792e-05
0.00279431
-2.71146e-05
0.00279014
4.1692e-06
0.00275698
3.31629e-05
0.00270326
5.37139e-05
0.0026407
6.25606e-05
0.00258117
5.95305e-05
0.00253469
4.64767e-05
0.00250881
2.58808e-05
0.00250841
4.03341e-07
0.0025348
-2.63848e-05
0.00258426
-4.94636e-05
0.00264757
-6.33148e-05
0.00271163
-6.40591e-05
0.00276289
-5.12571e-05
0.00279103
-2.81382e-05
0.00279131
-2.84969e-07
0.00276506
2.62511e-05
0.00271855
4.6509e-05
0.00266115
5.73994e-05
0.00260338
5.77728e-05
0.00255535
4.80308e-05
0.00252571
2.96355e-05
0.00252069
5.02109e-06
0.00254269
-2.2e-05
0.00258886
-4.61645e-05
0.0026507
-6.18467e-05
0.00271573
-6.50258e-05
0.00277066
-5.49322e-05
0.002805
-3.43402e-05
0.00281341
-8.40746e-06
0.00279622
1.71922e-05
0.0027583
3.79173e-05
0.00270719
5.11109e-05
0.00265145
5.57403e-05
0.00259978
5.1665e-05
0.00256064
3.91405e-05
0.00254163
1.9015e-05
0.00254813
-6.50501e-06
0.00258143
-3.32949e-05
0.00263728
-5.58538e-05
0.00270626
-6.89805e-05
0.00277595
-6.96857e-05
0.0028342
-5.82533e-05
0.0028722
-3.80006e-05
0.00288623
-1.40228e-05
0.0028778
8.42962e-06
0.00285245
2.53499e-05
0.00281771
3.47352e-05
0.0027812
3.65074e-05
0.0027494
3.18025e-05
0.00272724
2.21603e-05
0.00271807
9.16899e-06
0.00272341
-5.33556e-06
0.00274241
-1.89978e-05
0.00277156
-2.91521e-05
0.00280515
-3.35922e-05
0.00283661
-3.14611e-05
0.0028603
-2.36865e-05
0.002873
-1.27053e-05
0.00287467
-1.66363e-06
0.00286816
6.50847e-06
0.00285837
9.78865e-06
0.00285103
7.343e-06
0.00285157
-5.39714e-07
0.00286427
-1.27022e-05
0.00289166
-2.73917e-05
0.00293412
-4.24591e-05
0.00298963
-5.55107e-05
0.00305373
-6.40962e-05
0.00311979
-6.60639e-05
0.0031798
-6.00133e-05
0.0032256
-4.57988e-05
0.00325027
-2.46659e-05
0.00324959
6.76529e-07
0.00322268
2.69086e-05
0.00317264
5.00466e-05
0.00310487
6.77674e-05
0.0030282
7.66679e-05
0.00294777
8.04307e-05
6.71538e-05
0.00250215
-4.32056e-06
0.00250888
-1.35048e-05
0.00252075
-2.38131e-05
0.00253839
-3.53076e-05
0.00256227
-4.77018e-05
0.00259242
-6.00944e-05
0.0026282
-7.11149e-05
0.00266781
-7.85189e-05
0.00270829
-8.00553e-05
0.00274548
-7.3381e-05
0.00277464
-5.74903e-05
0.00279204
-3.42749e-05
0.00279539
-6.59691e-06
0.00278403
2.22851e-05
0.00275972
4.76432e-05
0.00272692
6.42087e-05
0.00269198
6.83321e-05
0.00266183
5.89468e-05
0.00264253
3.77236e-05
0.00263801
8.90633e-06
0.00264895
-2.11012e-05
0.00267185
-4.41663e-05
0.002699
-5.22459e-05
0.00272045
-4.10773e-05
0.0027276
-1.33172e-05
0.00271635
2.24747e-05
0.00268774
5.63224e-05
0.0026466
8.0879e-05
0.00259956
9.24551e-05
0.00255373
8.99668e-05
0.00251612
7.35869e-05
0.00249337
4.41487e-05
0.00249119
3.64366e-06
0.00251301
-4.32778e-05
0.00255766
-8.75201e-05
0.00261727
-0.000116276
0.00267795
-0.00011811
0.00272413
-8.98743e-05
0.00274446
-3.96972e-05
0.00273561
1.71227e-05
0.00270189
6.5808e-05
0.00265203
9.76493e-05
0.00259577
0.000110401
0.00254206
0.00010539
0.00249885
8.45235e-05
0.00247352
4.91006e-05
0.00247267
9.06008e-07
0.00250043
-5.49143e-05
0.00255525
-0.000107339
0.00262755
-0.000140949
0.00270071
-0.000142437
0.00275635
-0.000108437
0.00278113
-4.85923e-05
0.00277121
1.89533e-05
0.00273205
7.61512e-05
0.00267473
0.000112023
0.0026114
0.00012416
0.00255253
0.000115518
0.00250649
9.01194e-05
0.00248027
5.07269e-05
0.00247978
-2.44174e-07
0.00250839
-5.74768e-05
0.00256411
-0.000110289
0.00263752
-0.00014423
0.00271267
-0.000146885
0.00277157
-0.000114533
0.00280018
-5.51054e-05
0.00279304
1.4717e-05
0.00275429
7.63969e-05
0.00269496
0.00011658
0.00262848
0.000130525
0.00256696
0.000120709
0.00251962
9.25517e-05
0.00249332
5.07895e-05
0.00249308
-7.1522e-07
0.00252106
-5.61028e-05
0.00257429
-0.000105294
0.00264325
-0.000135733
0.00271331
-0.000137558
0.0027687
-0.000108562
0.0027972
-5.56191e-05
0.00279347
7.89621e-06
0.00275989
6.67418e-05
0.00270511
0.000108502
0.00264103
0.000126632
0.00257976
0.000120802
0.00253155
9.4687e-05
0.00250432
5.31148e-05
0.00250346
1.26481e-06
0.0025307
-5.36236e-05
0.00258228
-0.000101048
0.00264835
-0.000129384
0.00271486
-0.000130568
0.00276751
-0.000103909
0.00279576
-5.63861e-05
0.00279513
3.38626e-07
0.00276744
5.3941e-05
0.0027194
9.45578e-05
0.00266058
0.000116216
0.00260157
0.00011678
0.00255257
9.70364e-05
0.00252248
5.97186e-05
0.00251798
9.52794e-06
0.00254177
-4.57976e-05
0.00259088
-9.52676e-05
0.00265611
-0.000127082
0.00272402
-0.000132928
0.00278051
-0.000111423
0.00281475
-6.85883e-05
0.00282161
-1.52656e-05
0.00280196
3.68455e-05
0.00276132
7.85599e-05
0.00270775
0.000104682
0.00265011
0.000113378
0.00259723
0.000104542
0.00255768
7.8687e-05
0.00253929
3.74086e-05
0.00254767
-1.4881e-05
0.00258403
-6.96564e-05
0.00264363
-0.000115454
0.00271618
-0.000141531
0.0027884
-0.00014191
0.00284762
-0.000117472
0.00288492
-7.52967e-05
0.00289686
-2.59642e-05
0.00288549
1.98019e-05
0.0028569
5.3933e-05
0.00281915
7.24847e-05
0.00278024
7.54268e-05
0.00274689
6.5148e-05
0.00272426
4.4787e-05
0.00271587
1.75572e-05
0.00272329
-1.27541e-05
0.00274547
-4.11738e-05
0.00277835
-6.20333e-05
0.00281545
-7.06888e-05
0.00284943
-6.54459e-05
0.00287418
-4.84294e-05
0.00288637
-2.49037e-05
0.00288622
-1.50726e-06
0.00287702
1.57074e-05
0.00286414
2.26625e-05
0.00285372
1.77665e-05
0.00285147
1.71497e-06
0.00286184
-2.3075e-05
0.00288749
-5.30456e-05
0.00292892
-8.3888e-05
0.00298421
-0.000110796
0.0030489
-0.000128793
0.00311627
-0.000133434
0.00317803
-0.000121767
0.00322564
-9.34076e-05
0.00325184
-5.08739e-05
0.00325221
3.08469e-07
0.00322577
5.33524e-05
0.00317565
0.000100168
0.00310741
0.000136005
0.00303009
0.000153989
0.00294884
0.000161676
0.000134766
0.00250211
-6.43065e-06
0.00250873
-2.01242e-05
0.00252048
-3.55627e-05
0.00253805
-5.28795e-05
0.00256204
-7.16868e-05
0.0025926
-9.06631e-05
0.00262925
-0.000107763
0.00267024
-0.000119509
0.00271259
-0.000122398
0.00275176
-0.00011256
0.00278257
-8.82923e-05
0.00280097
-5.26837e-05
0.0028045
-1.01243e-05
0.00279225
3.45405e-05
0.00276591
7.39753e-05
0.0027303
9.98213e-05
0.00269233
0.000106299
0.00265956
9.1722e-05
0.00263866
5.86274e-05
0.00263407
1.34969e-05
0.00264678
-3.38179e-05
0.00267313
-7.05175e-05
0.00270451
-8.36185e-05
0.00272951
-6.60768e-05
0.00273834
-2.2157e-05
0.00272658
3.42422e-05
0.00269576
8.71445e-05
0.00265148
0.000125159
0.002601
0.000142931
0.00255181
0.000139153
0.00251117
0.000114229
0.00248607
6.92532e-05
0.00248289
6.82385e-06
0.00250598
-6.63681e-05
0.0025547
-0.000136243
0.00262061
-0.000182189
0.00268795
-0.000185444
0.00273882
-0.000140746
0.00276047
-6.13458e-05
0.00274965
2.79398e-05
0.00271191
0.000103549
0.00265737
0.00015219
0.00259665
0.000171121
0.00253898
0.000163059
0.00249235
0.000131154
0.00246437
7.7079e-05
0.00246234
2.93917e-06
0.00249131
-8.38893e-05
0.00255042
-0.000166448
0.00262971
-0.000220245
0.00271079
-0.000223509
0.00277252
-0.000170171
0.00279946
-7.55329e-05
0.00278745
3.09628e-05
0.00274337
0.000120228
0.00268025
0.000175144
0.00261164
0.000192775
0.00254844
0.000178716
0.00249879
0.000139772
0.00246945
8.00622e-05
0.00246669
2.5168e-06
0.00249482
-8.56085e-05
0.00255276
-0.000168223
0.00263107
-0.000222542
0.00271265
-0.000228464
0.00277762
-0.000179504
0.00281018
-8.7669e-05
0.00280389
2.10081e-05
0.00276301
0.000117276
0.00269963
0.000179963
0.00262847
0.000201681
0.00256252
0.000186664
0.00251138
0.000143685
0.00248224
7.99299e-05
0.0024808
7.25651e-07
0.00251003
-8.53279e-05
0.00256705
-0.000162313
0.0026413
-0.000209987
0.0027164
-0.000212658
0.00277512
-0.000167284
0.00280473
-8.52237e-05
0.00280014
1.24809e-05
0.00276438
0.000102506
0.00270669
0.000166196
0.00263942
0.000193896
0.00257499
0.000185238
0.00252406
0.000145612
0.0024953
8.18714e-05
0.00249506
1.50915e-06
0.0025256
-8.41597e-05
0.00258264
-0.000158094
0.00265476
-0.0002015
0.00272597
-0.000201781
0.00278061
-0.000158549
0.00280785
-8.36285e-05
0.00280398
4.21471e-06
0.00277203
8.58913e-05
0.00271982
0.000146765
0.00265756
0.000178472
0.00259603
0.000178318
0.00254556
0.0001475
0.00251556
8.97221e-05
0.00251331
1.17718e-05
0.00254179
-7.42773e-05
0.0025973
-0.000150779
0.00266915
-0.000198928
0.00274215
-0.000205922
0.00280095
-0.000170229
0.0028343
-0.000101938
0.00283747
-1.84305e-05
0.00281238
6.19359e-05
0.00276585
0.00012509
0.00270704
0.000163485
0.0026455
0.000174922
0.00259038
0.000159664
0.00255053
0.000118534
0.00253414
5.37931e-05
0.002547
-2.77368e-05
0.00258981
-0.000112463
0.00265654
-0.000182184
0.00273528
-0.000220276
0.00281143
-0.000218062
0.00287165
-0.000177687
0.00290704
-0.000110685
0.00291472
-3.3647e-05
0.00289762
3.69019e-05
0.00286285
8.8699e-05
0.00281941
0.000115926
0.00277604
0.0001188
0.00274003
0.000101156
0.00271698
6.78402e-05
0.00271072
2.38139e-05
0.00272281
-2.48418e-05
0.00275156
-6.99246e-05
0.00279165
-0.000102126
0.00283504
-0.000114077
0.00287308
-0.000103481
0.00289894
-7.42927e-05
0.00290936
-3.533e-05
0.00290514
2.71616e-06
0.00289046
3.03899e-05
0.00287158
4.15423e-05
0.00285535
3.39955e-05
0.00284798
9.08643e-06
0.00285424
-2.9335e-05
0.00287704
-7.58423e-05
0.00291711
-0.000123964
0.00297272
-0.00016641
0.00303937
-0.000195441
0.00310992
-0.00020398
0.00317539
-0.000187233
0.00322647
-0.000144494
0.00325529
-7.96905e-05
0.00325705
-1.4556e-06
0.00323075
7.96581e-05
0.00317975
0.000151165
0.00310995
0.000205799
0.003031
0.000232945
0.0029479
0.000244776
0.000203121
0.00250205
-8.47644e-06
0.00250849
-2.65703e-05
0.00252003
-4.71007e-05
0.00253747
-7.03193e-05
0.00256157
-9.57908e-05
0.00259273
-0.000121818
0.00263067
-0.000145701
0.00267376
-0.000162604
0.00271898
-0.000167614
0.00276127
-0.000154847
0.00279463
-0.000121657
0.00281464
-7.26967e-05
0.0028185
-1.39851e-05
0.0028049
4.81457e-05
0.00277543
0.000103439
0.00273543
0.00013983
0.00269271
0.000149014
0.00265583
0.000128601
0.0026324
8.20634e-05
0.00262765
1.82483e-05
0.00264311
-4.92852e-05
0.00267491
-0.000102318
0.00271299
-0.000121694
0.00274361
-9.66973e-05
0.00275504
-3.35845e-05
0.00274232
4.69565e-05
0.00270788
0.000121587
0.00265862
0.000174416
0.00260283
0.000198723
0.00254853
0.000193453
0.00250329
0.000159472
0.00247459
9.79548e-05
0.00246987
1.1544e-05
0.00249503
-9.15302e-05
0.00255044
-0.000191652
0.00262662
-0.00025837
0.00270454
-0.000263366
0.00276255
-0.000198758
0.00278578
-8.4571e-05
0.00277135
4.23652e-05
0.00272692
0.000147987
0.00266488
0.000214222
0.00259726
0.000238741
0.00253366
0.00022666
0.00248195
0.000182864
0.00244972
0.000109311
0.00244472
7.94101e-06
0.00247319
-0.000112355
0.00253587
-0.000229128
0.00262365
-0.000308024
0.00271659
-0.000316453
0.00278957
-0.000243149
0.00282272
-0.000108689
0.00280996
4.37229e-05
0.00275963
0.000170566
0.00268797
0.000246798
0.00261127
0.000269481
0.00254142
0.000248563
0.0024862
0.000194995
0.00245196
0.000114299
0.0024457
8.77068e-06
0.00247354
-0.000113449
0.00253562
-0.000230298
0.00262171
-0.000308635
0.00271226
-0.000319008
0.00278482
-0.000252069
0.00282196
-0.000124811
0.00281653
2.64368e-05
0.00277297
0.000160838
0.00270439
0.000248543
0.00262698
0.000279095
0.00255489
0.000258748
0.00249853
0.00020005
0.00246594
0.000112524
0.00246415
2.5103e-06
0.00249716
-0.000118333
0.00256154
-0.000226697
0.00264446
-0.000292906
0.00272666
-0.000294862
0.00278896
-0.000229579
0.00281827
-0.000114534
0.0028105
2.02538e-05
0.00277006
0.000142944
0.00270732
0.000228935
0.00263523
0.000265983
0.00256652
0.000253949
0.00251242
0.000199712
0.00248267
0.000111619
0.00248483
-6.47306e-07
0.00252146
-0.000120787
0.002587
-0.000223636
0.0026676
-0.000282097
0.00274484
-0.000279027
0.00280154
-0.000215244
0.00282662
-0.000108713
0.00281736
1.34797e-05
0.0027785
0.000124747
0.00271957
0.0002057
0.00265184
0.000246196
0.00258656
0.000243605
0.00253439
0.000199663
0.00250535
0.00011877
0.00250731
9.81144e-06
0.00254302
-0.000109994
0.00260736
-0.000215121
0.00268749
-0.000279057
0.0027663
-0.000284731
0.00282733
-0.000231254
0.00285904
-0.000133648
0.00285718
-1.6577e-05
0.00282482
9.4296e-05
0.0027703
0.000179616
0.00270424
0.000229543
0.00263724
0.000241925
0.00257911
0.000217795
0.00253922
0.000158419
0.00252618
6.68312e-05
0.00254563
-4.71818e-05
0.0025971
-0.000163933
0.00267256
-0.00025765
0.00275811
-0.000305825
0.00283788
-0.000297827
0.0028982
-0.000238006
0.00293053
-0.000143022
0.00293271
-3.5822e-05
0.00290854
6.1067e-05
0.00286621
0.000131035
0.00281578
0.00016636
0.00276697
0.000167609
0.00272793
0.00014019
0.002705
9.07681e-05
0.00270249
2.63325e-05
0.0027217
-4.40512e-05
0.00275971
-0.000107938
0.00280915
-0.000151573
0.00285985
-0.000164772
0.00290167
-0.000145304
0.00292734
-9.99601e-05
0.00293401
-4.2004e-05
0.00292344
1.32879e-05
0.00290096
5.28704e-05
0.0028739
6.86002e-05
0.00284994
5.79566e-05
0.00283585
2.31784e-05
0.00283684
-3.03247e-05
0.00285628
-9.52815e-05
0.00289536
-0.000163045
0.00295252
-0.00022357
0.00302291
-0.000265825
0.0030985
-0.000279578
0.00316926
-0.000257988
0.00322493
-0.000200163
0.003257
-0.000111758
0.00326039
-4.84866e-06
0.00323409
0.000105952
0.00318181
0.000203448
0.00310987
0.000277741
0.0030287
0.000314117
0.00294316
0.000330309
0.000272293
0.00250195
-1.0429e-05
0.00250814
-3.27623e-05
0.00251936
-5.83146e-05
0.00253656
-8.75212e-05
0.00256075
-0.000119976
0.00259261
-0.000153681
0.00263223
-0.000185323
0.00267818
-0.00020855
0.0027274
-0.000216835
0.00277405
-0.000201501
0.00281098
-0.000158589
0.00283323
-9.49425e-05
0.00283761
-1.83631e-05
0.00282219
6.35579e-05
0.00278841
0.000137225
0.00274228
0.000185961
0.00269291
0.000198375
0.00265024
0.000171274
0.00262316
0.000109141
0.00261808
2.33345e-05
0.00263737
-6.85803e-05
0.00267697
-0.000141912
0.00272473
-0.000169457
0.00276345
-0.000135423
0.0027785
-4.86317e-05
0.00276426
6.11973e-05
0.00272454
0.00016131
0.00266824
0.000230713
0.0026051
0.000261865
0.00254381
0.000254744
0.00249222
0.000211063
0.00245839
0.000131777
0.00245132
1.86209e-05
0.00247926
-0.000119471
0.00254418
-0.000256573
0.00263528
-0.00034947
0.00272873
-0.000356812
0.00279699
-0.000267024
0.00282198
-0.000109563
0.00280173
6.26166e-05
0.00274731
0.000202409
0.0026746
0.000286931
0.00259754
0.000315801
0.00252605
0.000298149
0.00246737
0.000241541
0.0024283
0.000148383
0.00241672
1.95214e-05
0.00244102
-0.000136654
0.00250532
-0.000293432
0.00260225
-0.000404954
0.00271011
-0.000424306
0.00279911
-0.000332154
0.00284381
-0.000153385
0.00283423
5.3303e-05
0.00277883
0.000225959
0.00269745
0.000328181
0.00261036
0.000356569
0.00253148
0.000327447
0.00246854
0.000257938
0.00242791
0.000154926
0.00241836
1.83242e-05
0.0024485
-0.000143596
0.00251892
-0.000300712
0.0026166
-0.000406321
0.00271788
-0.000420283
0.00279742
-0.00033161
0.00283707
-0.000164462
0.00283032
3.31845e-05
0.00278251
0.000208646
0.00270769
0.000323365
0.00262307
0.00036372
0.00254383
0.00033799
0.00248148
0.000262398
0.00244573
0.000148271
0.0024455
2.74436e-06
0.00248537
-0.00015821
0.00256022
-0.000301544
0.00265388
-0.000386569
0.00274394
-0.00038492
0.00280936
-0.000294993
0.00283687
-0.000142047
0.00282365
3.34743e-05
0.00277607
0.000190518
0.00270619
0.00029882
0.00262783
0.000344344
0.00255411
0.000327662
0.00249697
0.000256862
0.00246738
0.0001412
0.00247398
-7.24528e-06
0.00251891
-0.000165719
0.00259448
-0.0002992
0.00268404
-0.000371656
0.00276704
-0.000362029
0.00282522
-0.000273428
0.00284745
-0.000130943
0.00283181
2.91228e-05
0.00278467
0.000171888
0.00271743
0.000272941
0.00264284
0.000320782
0.002573
0.000313452
0.00251922
0.000253443
0.00249218
0.000145801
0.00250006
1.93404e-06
0.00254464
-0.000154569
0.00261861
-0.00028909
0.00270676
-0.000367211
0.00279043
-0.000368405
0.00285265
-0.000293472
0.00288202
-0.00016302
0.00287478
-9.32886e-06
0.00283481
0.000134259
0.00277177
0.000242662
0.00269775
0.000303563
0.00262464
0.000315032
0.00256328
0.000279155
0.00252385
0.000197849
0.00251533
7.53521e-05
0.00254272
-7.45743e-05
0.00260366
-0.000224872
0.00268761
-0.000341601
0.0027787
-0.000396912
0.0028603
-0.000379426
0.00291903
-0.000296745
0.00294715
-0.000171137
0.00294326
-3.19301e-05
0.00291192
9.24008e-05
0.00286213
0.000180829
0.00280488
0.00022361
0.00275092
0.000221565
0.00270951
0.000181609
0.00268798
0.000112292
0.00269116
2.31532e-05
0.00271969
-7.25842e-05
0.0027686
-0.000156841
0.00282773
-0.000210706
0.00288458
-0.000221626
0.00292795
-0.00018867
0.00295073
-0.000122742
0.00295108
-4.23548e-05
0.00293202
3.23493e-05
0.0029001
8.47864e-05
0.00286366
0.000105044
0.00283108
9.05329e-05
0.00280969
4.45675e-05
0.0028053
-2.59261e-05
0.00282196
-0.000111946
0.00286137
-0.000202459
0.00292177
-0.000283965
0.00299727
-0.000341331
0.00307854
-0.000360845
0.00315446
-0.000333908
0.00321429
-0.000259986
0.00324935
-0.00014682
0.00325451
-1.00103e-05
0.00322871
0.000131747
0.00317579
0.000256371
0.00310233
0.000351206
0.00301947
0.000396974
0.00293191
0.000417868
0.000341776
0.00250182
-1.22534e-05
0.00250766
-3.86e-05
0.0025184
-6.90559e-05
0.00253521
-0.000104324
0.00255936
-0.00014413
0.00259198
-0.000186299
0.00263364
-0.00022698
0.00268322
-0.000258131
0.00273775
-0.00027137
0.00279026
-0.000254011
0.00283196
-0.00020029
0.00285729
-0.000120273
0.00286256
-2.36329e-05
0.00284489
8.12323e-05
0.00280534
0.000176778
0.00275095
0.000240351
0.00269263
0.000256693
0.00264213
0.000221773
0.00261002
0.000141253
0.00260424
2.91087e-05
0.00262853
-9.28654e-05
0.00267873
-0.000192115
0.0027399
-0.000230627
0.00278984
-0.000185365
0.00280975
-6.85406e-05
0.0027932
7.77499e-05
0.00274616
0.000208356
0.00268044
0.000296431
0.00260773
0.000334576
0.00253744
0.000325031
0.00247759
0.000270914
0.00243684
0.000172524
0.00242581
2.96535e-05
0.00245506
-0.000148724
0.0025288
-0.00033031
0.00263701
-0.000457679
0.00275211
-0.000471917
0.00283782
-0.00035273
0.00286842
-0.000140166
0.00284153
8.95111e-05
0.00277362
0.000270321
0.00268651
0.000374038
0.00259726
0.000405048
0.00251591
0.000379505
0.002448
0.000309448
0.00239873
0.000197657
0.00237708
4.11666e-05
0.00239618
-0.000155752
0.00246452
-0.000361768
0.00257408
-0.000514522
0.00269854
-0.000548764
0.00280352
-0.000437127
0.00286021
-0.000210083
0.00285578
5.77321e-05
0.00279742
0.000284327
0.00270693
0.000418668
0.00260845
0.00045505
0.00251864
0.000417255
0.00244626
0.00033032
0.00239902
0.000202159
0.00238852
2.8832e-05
0.00242529
-0.000180366
0.00250815
-0.000383574
0.00261956
-0.000517733
0.00273152
-0.000532242
0.00281638
-0.00041647
0.00285585
-0.000203931
0.00284483
4.42007e-05
0.00279048
0.000263002
0.00270811
0.000405729
0.00261566
0.000456172
0.00252896
0.000424687
0.00246086
0.000330498
0.00242324
0.000185891
0.00242682
-8.27995e-07
0.00247572
-0.000207109
0.0025619
-0.000387723
0.00266574
-0.00049041
0.00276249
-0.000481675
0.00283012
-0.00036262
0.00285528
-0.000167203
0.00283594
5.28061e-05
0.00278022
0.000246239
0.00270205
0.000376988
0.00261656
0.000429835
0.00253762
0.000406607
0.00247805
0.000316431
0.00245008
0.000169174
0.00246277
-1.99411e-05
0.00251692
-0.00021987
0.00260208
-0.000384357
0.00269907
-0.000468647
0.00278606
-0.000449014
0.00284456
-0.000331937
0.00286368
-0.000150063
0.00284198
5.08252e-05
0.00278687
0.000227001
0.00271129
0.000348515
0.00262959
0.000402484
0.0025551
0.000387941
0.00250018
0.000308367
0.00247622
0.000169761
0.00249113
-1.29751e-05
0.00254493
-0.000208372
0.00262768
-0.000371839
0.00272201
-0.000461541
0.00280842
-0.000454817
0.0028702
-0.000355249
0.00289657
-0.000189387
0.00288422
3.01445e-06
0.00283753
0.000180951
0.00276689
0.0003133
0.00268557
0.000384884
0.00260679
0.000393816
0.00254268
0.00034326
0.00250448
0.000236049
0.0025014
7.84368e-05
0.00253721
-0.000110387
0.00260702
-0.000294682
0.00269765
-0.000432233
0.00279172
-0.000490983
0.00287256
-0.000460268
0.00292772
-0.000351899
0.00295053
-0.00019395
0.00294046
-2.18585e-05
0.00290262
0.000130242
0.00284648
0.00023697
0.00278369
0.000286399
0.00272595
0.000279307
0.00268374
0.000223814
0.00266563
0.000130407
0.0026767
1.20809e-05
0.00271616
-0.000112045
0.00277603
-0.000216713
0.00284301
-0.000277689
0.00290272
-0.000281328
0.00294379
-0.000229742
0.00296023
-0.000139183
0.0029517
-3.38267e-05
0.00292261
6.14392e-05
0.00288058
0.000126816
0.00283466
0.000150968
0.00279373
0.000131457
0.00276567
7.26288e-05
0.00275706
-1.73167e-05
0.00277274
-0.000127625
0.0028144
-0.000244117
0.00287913
-0.00034869
0.00295934
-0.000421548
0.00304447
-0.000445968
0.00312314
-0.000412583
0.00318509
-0.000321934
0.00322219
-0.000183923
0.00322946
-1.728e-05
0.00320558
0.000155625
0.00315405
0.000307902
0.00308125
0.000424008
0.00299868
0.000479542
0.00291082
0.000505728
0.000410297
0.00250165
-1.3907e-05
0.00250701
-4.39597e-05
0.00251709
-7.913e-05
0.00253326
-0.000120495
0.00255717
-0.000168043
0.00259048
-0.000219611
0.00263445
-0.000270946
0.00268848
-0.000312164
0.00274986
-0.000332752
0.00280999
-0.000314137
0.00285777
-0.000248065
0.002887
-0.00014951
0.00289359
-3.02165e-05
0.00287329
0.000101529
0.00282651
0.000223559
0.00276154
0.000305316
0.00269164
0.000326596
0.00263089
0.000282525
0.00259197
0.000180172
0.00258491
3.61688e-05
0.00261545
-0.000123402
0.0026797
-0.000256371
0.00275901
-0.000309936
0.00282415
-0.000250505
0.00285039
-9.47768e-05
0.00283032
9.78127e-05
0.00277329
0.000265393
0.00269529
0.000374431
0.00261054
0.000419319
0.00252916
0.000406414
0.0024591
0.00034097
0.00240916
0.000222467
0.00238994
4.8874e-05
0.00241262
-0.000171399
0.00248568
-0.000403374
0.00260621
-0.000578207
0.00274812
-0.00061383
0.00286477
-0.000469378
0.0029146
-0.00019
0.00288772
0.000116391
0.00280586
0.00035218
0.00270091
0.000478995
0.00259635
0.000509605
0.00250285
0.000473002
0.00242323
0.000389074
0.00236125
0.000259638
0.00232983
7.25859e-05
0.00234891
-0.000174831
0.00242882
-0.000441686
0.00255597
-0.000641669
0.00269671
-0.000689504
0.00281303
-0.000553449
0.00287617
-0.000273218
0.00287373
6.01699e-05
0.00281228
0.00034578
0.00271374
0.000517204
0.00260421
0.00056458
0.00250281
0.000518652
0.00242054
0.000412598
0.00236805
0.000254642
0.00235989
3.69913e-05
0.00240646
-0.000226933
0.00250254
-0.000479653
0.00262592
-0.000641112
0.00274603
-0.000652354
0.00283447
-0.000504906
0.00287285
-0.000242312
0.00285675
6.0297e-05
0.00279493
0.000324822
0.00270437
0.000496292
0.00260392
0.000556618
0.00251014
0.000518468
0.00243736
0.000403275
0.00239966
0.000223596
0.00240874
-9.91059e-06
0.00246701
-0.000265376
0.00256294
-0.000483657
0.00267415
-0.000601621
0.00277495
-0.000582472
0.00284344
-0.000431107
0.00286642
-0.00019019
0.00284202
7.72113e-05
0.00277911
0.000309145
0.00269314
0.000462958
0.00260074
0.00052224
0.002517
0.000490342
0.00245601
0.000377424
0.00243097
0.000194216
0.00245059
-3.95636e-05
0.00251344
-0.000282726
0.00260621
-0.000477121
0.00270786
-0.000570297
0.00279628
-0.000537432
0.00285362
-0.000389276
0.00286955
-0.000165992
0.00284287
7.75037e-05
0.00278134
0.000288529
0.0026988
0.00043105
0.00261094
0.000490347
0.00253258
0.000466307
0.00247739
0.000363555
0.00245741
0.000189741
0.00247969
-3.52548e-05
0.00254185
-0.00027054
0.00263126
-0.000461248
0.002729
-0.000559273
0.00281555
-0.000541373
0.00287514
-0.000414839
0.00289795
-0.000212197
0.00288116
1.98031e-05
0.00282926
0.000232855
0.00275286
0.000389696
0.00266592
0.00047183
0.00258281
0.000476928
0.0025171
0.00040897
0.00248114
0.000272006
0.00248408
7.54995e-05
0.00252787
-0.000154184
0.00260476
-0.000371566
0.00269922
-0.000526696
0.00279313
-0.00058489
0.00287051
-0.000537651
0.00292026
-0.000401651
0.00293699
-0.000210676
0.00292094
-5.80984e-06
0.00287761
0.00017357
0.00281669
0.00029789
0.00275022
0.000352876
0.00269073
0.000338796
0.00265004
0.000264501
0.00263782
0.000142628
0.0026588
-8.8944e-06
0.00270959
-0.000162837
0.00277846
-0.000285581
0.00284923
-0.000348467
0.00290684
-0.000338929
0.0029411
-0.000264002
0.00294795
-0.000146032
0.00292879
-1.46722e-05
0.00288924
0.000100986
0.00283761
0.000178447
0.00278327
0.000205307
0.00273543
0.000179298
0.0027026
0.000105464
0.00269223
-6.94921e-06
0.00270942
-0.000144818
0.00275467
-0.000289365
0.00282289
-0.000416909
0.00290487
-0.000503528
0.00298989
-0.000530992
0.00306767
-0.000490357
0.00312924
-0.000383512
0.00316742
-0.000222097
0.00317739
-2.72551e-05
0.00315739
0.000175627
0.00311011
0.000355178
0.00304123
0.00049289
0.00296204
0.000558734
0.00287675
0.000591015
0.000475879
0.00250143
-1.53391e-05
0.00250616
-4.86904e-05
0.00251532
-8.8289e-05
0.00253054
-0.00013571
0.00255387
-0.000191372
0.00258766
-0.000253406
0.00263409
-0.000317372
0.00269343
-0.000371502
0.00276354
-0.000402866
0.00283349
-0.000384087
0.00288901
-0.00030359
0.00292351
-0.000184006
0.00293224
-3.89455e-05
0.00290883
0.000124942
0.00285268
0.000279707
0.00277397
0.000384024
0.00268916
0.000411405
0.00261523
0.000356458
0.00256729
0.000228107
0.00255799
4.54687e-05
0.00259618
-0.000161584
0.00267894
-0.000339137
0.00278263
-0.000413622
0.00286806
-0.00033594
0.00290232
-0.000129037
0.00287702
0.00012312
0.00280652
0.00033589
0.00271278
0.000468169
0.00261328
0.000518815
0.00251877
0.000500924
0.00243668
0.000423061
0.00237396
0.000285188
0.00233806
8.4775e-05
0.00234154
-0.000174875
0.00240329
-0.000465123
0.00253133
-0.000706246
0.00270125
-0.00078375
0.00285769
-0.000625817
0.0029423
-0.00027461
0.00292987
0.000128816
0.00284072
0.000441326
0.00271765
0.000602071
0.00259504
0.000632211
0.00248673
0.000581315
0.00239334
0.000482463
0.00231901
0.000333971
0.00228286
0.000108731
0.00230981
-0.000201776
0.0024065
-0.00053838
0.00255098
-0.000786151
0.00270423
-0.000842755
0.00282712
-0.000676338
0.00289186
-0.000337956
0.00288757
6.44573e-05
0.00282154
0.000411813
0.00271557
0.000623176
0.00259611
0.00068404
0.00248387
0.000630889
0.00239281
0.000503656
0.00233742
0.000310038
0.00233413
4.02778e-05
0.00239088
-0.000283683
0.00249743
-0.000586208
0.0026282
-0.000771881
0.00275231
-0.000776464
0.00284231
-0.000594903
0.00287999
-0.000279995
0.00286045
7.98437e-05
0.00279269
0.00039258
0.00269492
0.000594059
0.00258726
0.000664278
0.00248745
0.000618279
0.00241159
0.000479139
0.0023755
0.000259686
0.00239076
-2.51736e-05
0.0024571
-0.000331713
0.00255971
-0.000586273
0.00267456
-0.00071647
0.00277625
-0.00068416
0.00284395
-0.000498807
0.002865
-0.000211243
0.00283726
0.000104957
0.00276942
0.000376979
0.00267757
0.000554811
0.00257964
0.000620171
0.0024923
0.000577675
0.00243114
0.000438587
0.00241
0.000215353
0.00243645
-6.60051e-05
0.00250633
-0.000352612
0.00260382
-0.000574608
0.00270694
-0.00067342
0.00279419
-0.000624678
0.00284891
-0.000443996
0.00286161
-0.000178698
0.00283124
0.000107874
0.00276539
0.000354381
0.0026781
0.000518342
0.00258595
0.000582501
0.0025052
0.00054705
0.00245096
0.000417796
0.00243563
0.000205073
0.00246484
-6.44632e-05
0.00253351
-0.000339212
0.00262669
-0.000554426
0.00272475
-0.000657337
0.00280897
-0.00062559
0.0028649
-0.000470769
0.00288383
-0.000231129
0.0028634
4.02328e-05
0.00280799
0.000288261
0.00272804
0.000469651
0.00263768
0.000562189
0.00255219
0.000562419
0.00248649
0.000474672
0.00245389
0.0003046
0.00246301
6.6384e-05
0.0025135
-0.000204672
0.00259478
-0.000452853
0.00268975
-0.00062166
0.00278039
-0.000675532
0.00285202
-0.00060928
0.00289506
-0.000444691
0.00290532
-0.000220935
0.00288373
1.57783e-05
0.00283604
0.000221257
0.00277199
0.000361939
0.00270385
0.000421018
0.00264498
0.000397668
0.00260848
0.000300999
0.00260466
0.000146447
0.00263669
-4.09191e-05
0.00269735
-0.000223505
0.00277102
-0.000359244
0.00283987
-0.000417316
0.00288986
-0.000388922
0.00291328
-0.000287426
0.00290844
-0.000141188
0.00287829
1.54797e-05
0.00282919
0.000150086
0.00276963
0.000238006
0.00270899
0.000265948
0.00265677
0.000231519
0.00262223