/*--------------------------------*- C++ -*----------------------------------*\
  =========                 |
  \\      /  F ield         | OpenFOAM: The Open Source CFD Toolbox
   \\    /   O peration     | Website:  https://openfoam.org
    \\  /    A nd           | Version:  11
     \\/     M anipulation  |
\*---------------------------------------------------------------------------*/
FoamFile
{
    format      ascii;
    class       volVectorField;
    location    "15.062428";
    object      vorticity;
}
// * * * * * * * * * * * * * * * * * * * * * * * * * * * * * * * * * * * * * //

dimensions      [0 0 -1 0 0 0 0];

internalField   nonuniform List<vector> 
7132
(
(-7.6097e-17 -1.91303e-15 -0.00895018)
(-2.68216e-16 -1.83482e-15 -0.00947755)
(-2.51911e-16 -2.49181e-17 -0.0100635)
(-2.97381e-16 -1.81285e-15 -0.0105746)
(-3.91028e-16 -1.78199e-15 -0.0109188)
(-3.62492e-16 2.68763e-17 -0.0110474)
(-3.11643e-16 4.11819e-17 -0.0109632)
(-2.51904e-16 3.42542e-17 -0.0107119)
(-2.55651e-16 2.72325e-17 -0.0103722)
(-2.31224e-16 1.89121e-17 -0.0100302)
(-1.98017e-16 9.33481e-18 -0.00976344)
(-1.68614e-16 1.03551e-18 -0.00964128)
(-1.65482e-16 -3.23481e-19 -0.00970086)
(-1.48637e-16 1.87659e-17 -0.00991884)
(-9.11452e-17 -1.69964e-15 -0.0102395)
(-3.45548e-17 -1.70757e-15 -0.0105729)
(-8.17099e-18 -1.71162e-15 -0.0108118)
(-2.10115e-17 3.13516e-17 -0.0108576)
(-6.35652e-17 -1.71556e-15 -0.0106469)
(-1.33928e-16 -1.72904e-15 -0.0101918)
(3.8387e-17 -7.81237e-18 -0.00962174)
(5.82692e-16 -3.0274e-17 -0.00909162)
(1.14771e-15 -2.78234e-17 -0.00873812)
(1.21916e-15 3.19859e-17 -0.00869262)
(9.15601e-16 1.81691e-15 -0.00906547)
(4.41373e-16 3.13316e-17 -0.00982657)
(5.70338e-16 -2.04383e-16 -0.0107681)
(2.018e-15 1.24145e-16 -0.0116412)
(-2.97803e-15 2.99806e-15 -0.012242)
(-2.40104e-14 1.37378e-15 -0.0124272)
(1.72385e-14 -3.92417e-14 -0.0121144)
(3.41697e-13 -6.03768e-14 -0.0113076)
(4.07224e-13 4.04091e-13 -0.0101678)
(-4.23588e-12 2.02415e-12 -0.00904951)
(-2.06285e-11 3.8936e-12 -0.00825646)
(-4.46226e-11 3.29471e-12 -0.00785567)
(-5.64006e-11 -1.95872e-13 -0.00778904)
(-4.40858e-11 -3.22469e-12 -0.00810206)
(-2.11504e-11 -3.45783e-12 -0.00897659)
(-5.68367e-12 -2.04507e-12 -0.0104209)
(3.53223e-13 -8.19307e-13 -0.0120651)
(1.45622e-12 -1.48254e-13 -0.0134318)
(4.31165e-13 8.69618e-13 -0.0141751)
(-1.43613e-12 2.69957e-12 -0.0141413)
(-8.46344e-13 1.1901e-12 -0.0133729)
(5.41726e-12 -1.77972e-11 -0.0121151)
(9.20788e-12 -7.55601e-11 -0.0108576)
(-2.31312e-11 -1.70175e-10 -0.0102788)
(-1.53489e-10 -2.39014e-10 -0.0106786)
(-3.49022e-10 -1.93219e-10 -0.0116547)
(-4.54342e-10 -2.67692e-11 -0.012454)
(-4.05619e-10 1.48873e-10 -0.0126577)
(-2.77576e-10 2.20878e-10 -0.0126623)
(-1.22513e-10 1.88478e-10 -0.0131743)
(-1.63882e-11 1.16959e-10 -0.0141433)
(1.32264e-11 4.78025e-11 -0.0150623)
(2.17669e-11 -3.37625e-12 -0.0155191)
(5.68773e-11 -1.10998e-11 -0.0152964)
(3.02609e-11 8.66927e-11 -0.0142163)
(-4.34536e-10 3.67955e-10 -0.011861)
(-2.03803e-09 8.45636e-10 -0.0075178)
(-5.48199e-09 1.38571e-09 -0.000649038)
(-1.07183e-08 1.70408e-09 0.00834152)
(-1.63375e-08 1.51343e-09 0.017469)
(-2.00128e-08 7.57936e-10 0.0236271)
(-1.99922e-08 -2.99979e-10 0.0242153)
(-1.63797e-08 -1.24379e-09 0.018663)
(-1.09508e-08 -1.73388e-09 0.00876065)
(-5.75686e-09 -1.6612e-09 -0.00219899)
(-2.06795e-09 -1.18518e-09 -0.0110359)
(-1.3022e-10 -5.97606e-10 -0.0160257)
(4.91397e-10 -1.09854e-10 -0.0170588)
(3.58249e-10 2.5074e-10 -0.0148541)
(-2.17992e-10 5.72041e-10 -0.0101405)
(-1.21078e-09 9.12875e-10 -0.0034742)
(-2.6577e-09 1.22325e-09 0.00447705)
(-4.40989e-09 1.37177e-09 0.0129898)
(-6.07463e-09 1.23542e-09 0.0215749)
(-7.17219e-09 7.84787e-10 0.0296634)
(-7.35515e-09 1.11927e-10 0.0358027)
(-6.56617e-09 -6.075e-10 0.0375759)
(-5.07399e-09 -1.18298e-09 0.033027)
(-3.33261e-09 -1.46564e-09 0.0224761)
(-1.77361e-09 -1.40375e-09 0.00879035)
(-6.56982e-10 -1.09892e-09 -0.00392034)
(-1.44601e-11 -7.75185e-10 -0.0122865)
(2.92268e-10 -6.33771e-10 -0.0152245)
(4.50423e-10 -7.19472e-10 -0.0141214)
(5.91829e-10 -9.24628e-10 -0.0116607)
(7.58955e-10 -1.10307e-09 -0.0101118)
(9.37779e-10 -1.17055e-09 -0.00983685)
(1.10434e-09 -1.12006e-09 -0.00909367)
(1.24499e-09 -9.76017e-10 -0.00556706)
(1.35366e-09 -7.45085e-10 0.00158197)
(1.41862e-09 -3.9607e-10 0.010675)
(1.41272e-09 1.19778e-10 0.0182552)
(1.30771e-09 7.96319e-10 0.0211762)
(1.09691e-09 1.47707e-09 0.0182072)
(8.06182e-10 1.85854e-09 0.0104017)
(5.0009e-10 1.67522e-09 0.000433892)
(2.69151e-10 9.31755e-10 -0.00910881)
(1.97267e-10 -6.60278e-11 -0.017299)
(3.25555e-10 -9.29589e-10 -0.0249643)
(6.32734e-10 -1.43022e-09 -0.0332672)
(1.04122e-09 -1.55987e-09 -0.0418545)
(1.4462e-09 -1.43522e-09 -0.0483919)
(1.75046e-09 -1.18524e-09 -0.0501)
(1.89048e-09 -8.96883e-10 -0.0456338)
(1.84885e-09 -6.02653e-10 -0.0358505)
(1.65315e-09 -2.75808e-10 -0.0233031)
(1.36143e-09 1.59126e-10 -0.0109492)
(1.03797e-09 7.5588e-10 -0.00111093)
(7.32025e-10 1.42994e-09 0.00454605)
(4.72722e-10 1.91836e-09 0.0051442)
(2.78133e-10 1.92752e-09 0.000629467)
(1.63857e-10 1.38001e-09 -0.00853276)
(1.40538e-10 5.0584e-10 -0.0216764)
(2.0411e-10 -3.2834e-10 -0.0378352)
(3.29916e-10 -8.67008e-10 -0.0551817)
(4.78549e-10 -1.06445e-09 -0.0705412)
(6.10821e-10 -1.01509e-09 -0.080274)
(7.00036e-10 -8.42082e-10 -0.0820666)
(7.34871e-10 -6.35348e-10 -0.076003)
(7.15764e-10 -4.4159e-10 -0.0642392)
(6.51185e-10 -2.71676e-10 -0.0498269)
(5.55899e-10 -1.03909e-10 -0.0354148)
(4.48263e-10 1.07353e-10 -0.0224222)
(3.4442e-10 3.99077e-10 -0.0114664)
(2.54268e-10 7.50437e-10 -0.00306298)
(1.82672e-10 1.0611e-09 0.00190904)
(1.33097e-10 1.1976e-09 0.00215252)
(1.0869e-10 1.08258e-09 -0.00359057)
(1.09733e-10 7.48932e-10 -0.0157701)
(1.31292e-10 3.13813e-10 -0.0333276)
(1.6369e-10 -9.48406e-11 -0.0534268)
(1.9599e-10 -3.95823e-10 -0.0721153)
(2.19957e-10 -5.66708e-10 -0.0856934)
(2.31921e-10 -6.24312e-10 -0.0919597)
(2.32181e-10 -5.99985e-10 -0.0906907)
(2.23224e-10 -5.24142e-10 -0.0832851)
(2.08061e-10 -4.20879e-10 -0.0718279)
(1.89394e-10 -3.07995e-10 -0.0582315)
(1.69475e-10 -1.977e-10 -0.043883)
(1.50065e-10 -9.65725e-11 -0.0295351)
(1.32282e-10 -6.16285e-12 -0.0154771)
(1.16301e-10 7.47194e-11 -0.00180044)
(1.0172e-10 1.47305e-10 0.0112187)
(8.85504e-11 2.11623e-10 0.0229369)
(7.83332e-11 2.6692e-10 0.0324645)
(7.43606e-11 3.12829e-10 0.0390137)
(8.0295e-11 3.50222e-10 0.0422125)
(9.77389e-11 3.8116e-10 0.0421608)
(1.24287e-10 4.08041e-10 0.0391647)
(1.53422e-10 4.32193e-10 0.0334267)
(1.76954e-10 4.50848e-10 0.0251568)
(1.88343e-10 4.55394e-10 0.0151263)
(1.84274e-10 4.13979e-10 0.0036832)
(1.64833e-10 3.36666e-10 -0.00555221)
(1.37354e-10 6.07982e-11 -0.0218303)
(8.66684e-11 -8.82556e-11 -0.0181489)
(-7.67617e-17 -7.2056e-18 -0.0267709)
(-2.79663e-16 -1.19777e-17 -0.028365)
(-2.7661e-16 -1.11827e-17 -0.0301537)
(-3.29724e-16 -1.19601e-17 -0.0317402)
(-4.34746e-16 -1.30158e-17 -0.0328409)
(-4.23111e-16 -9.42784e-18 -0.0332917)
(-3.9307e-16 -1.41123e-17 -0.0330746)
(-3.57721e-16 6.25801e-18 -0.0322997)
(-2.54553e-16 1.75162e-15 -0.0311803)
(-2.79058e-16 -9.90456e-18 -0.0299613)
(-3.80503e-16 -2.19702e-17 -0.0288678)
(-4.44089e-16 1.71949e-15 -0.0281182)
(-4.17183e-16 -1.0312e-17 -0.0278435)
(-3.13127e-16 -1.67082e-17 -0.02806)
(-1.43149e-16 -1.85702e-17 -0.0287271)
(9.67476e-19 -1.26356e-17 -0.0297242)
(-4.29097e-18 1.29407e-17 -0.0308729)
(-2.41226e-16 5.73546e-17 -0.0319701)
(-5.59323e-16 7.60467e-17 -0.0328222)
(-2.11307e-16 -4.69828e-17 -0.0333017)
(-3.95109e-16 -3.66546e-16 -0.0334095)
(-1.10987e-14 -5.84935e-16 -0.0331419)
(-2.31199e-14 -3.46059e-16 -0.0324504)
(-1.53082e-14 1.48887e-16 -0.0313821)
(-2.8437e-15 4.71077e-16 -0.030193)
(1.34913e-15 2.03116e-16 -0.029191)
(4.6498e-15 -9.92698e-16 -0.0285597)
(3.05151e-15 1.89833e-15 -0.0283421)
(-3.28903e-14 1.60055e-14 -0.0284689)
(1.41728e-14 -1.04726e-14 -0.0288017)
(3.43477e-13 -2.22091e-13 -0.0292244)
(-7.50858e-13 -2.58836e-13 -0.0297604)
(-5.49699e-12 2.69115e-12 -0.0306352)
(1.01219e-11 1.25403e-11 -0.0321762)
(1.1491e-10 2.40835e-11 -0.0343477)
(2.88412e-10 2.11807e-11 -0.0363446)
(3.51825e-10 -4.65974e-13 -0.0369803)
(2.40686e-10 -2.08515e-11 -0.0359022)
(9.46287e-11 -2.26606e-11 -0.0339493)
(1.55018e-11 -1.28003e-11 -0.0321434)
(-4.65838e-12 -4.38925e-12 -0.0309535)
(-3.77827e-12 -1.88956e-13 -0.0303529)
(-5.0102e-12 2.31405e-12 -0.0300517)
(1.80372e-12 3.33659e-12 -0.0298029)
(5.86124e-11 -2.24006e-12 -0.0297337)
(9.56284e-11 -2.28243e-11 -0.0303585)
(-4.64704e-10 -6.12876e-11 -0.031912)
(-2.96385e-09 -8.88283e-11 -0.033423)
(-8.42832e-09 -7.60706e-11 -0.033107)
(-1.50964e-08 -4.2796e-11 -0.0311821)
(-1.86119e-08 1.52772e-12 -0.0303701)
(-1.64543e-08 6.04918e-11 -0.0320781)
(-1.06149e-08 7.93233e-11 -0.0346417)
(-4.82875e-09 5.78839e-11 -0.0360862)
(-1.23657e-09 4.90873e-11 -0.0357395)
(1.58897e-10 2.87232e-11 -0.0342119)
(4.11595e-10 -2.52e-11 -0.0326055)
(3.99708e-10 -1.53486e-11 -0.0315015)
(5.4943e-11 3.324e-10 -0.0302854)
(-2.02811e-09 1.4021e-09 -0.0266735)
(-8.26595e-09 3.36936e-09 -0.0170053)
(-2.0464e-08 5.72585e-09 0.00166527)
(-3.75248e-08 7.13185e-09 0.0284925)
(-5.48181e-08 6.1607e-09 0.0578145)
(-6.6127e-08 2.58527e-09 0.080766)
(-6.67521e-08 -2.11652e-09 0.08841)
(-5.62368e-08 -5.7645e-09 0.0763673)
(-3.89846e-08 -7.04532e-09 0.0484755)
(-2.13853e-08 -6.10261e-09 0.0149632)
(-8.19137e-09 -3.9985e-09 -0.0134106)
(-8.92731e-10 -1.87728e-09 -0.030458)
(1.63457e-09 -3.54085e-10 -0.0357249)
(1.28454e-09 6.05432e-10 -0.0321059)
(-6.90091e-10 1.35656e-09 -0.0231311)
(-3.86911e-09 2.13273e-09 -0.0118006)
(-7.98253e-09 2.82281e-09 -0.000148631)
(-1.23268e-08 3.08023e-09 0.0120247)
(-1.5933e-08 2.61657e-09 0.0277159)
(-1.80678e-08 1.42505e-09 0.049424)
(-1.83771e-08 -1.91087e-10 0.0741647)
(-1.67688e-08 -1.74808e-09 0.0925637)
(-1.34995e-08 -2.79976e-09 0.0943423)
(-9.31543e-09 -3.11583e-09 0.0759484)
(-5.23664e-09 -2.74157e-09 0.0433112)
(-2.08817e-09 -1.9785e-09 0.00832239)
(-1.51588e-10 -1.24981e-09 -0.0180632)
(8.11277e-10 -8.66211e-10 -0.031854)
(1.25095e-09 -8.69254e-10 -0.037246)
(1.52779e-09 -1.07889e-09 -0.0422306)
(1.81565e-09 -1.27604e-09 -0.051688)
(2.16633e-09 -1.34324e-09 -0.0627936)
(2.56134e-09 -1.27367e-09 -0.0668107)
(2.92979e-09 -1.10068e-09 -0.0559252)
(3.19963e-09 -8.31895e-10 -0.0290667)
(3.34356e-09 -4.25603e-10 0.00698263)
(3.34617e-09 1.75232e-10 0.04061)
(3.15929e-09 9.54228e-10 0.0608128)
(2.73041e-09 1.72783e-09 0.0618962)
(2.07564e-09 2.15695e-09 0.0453204)
(1.34029e-09 1.94374e-09 0.01803)
(7.70742e-10 1.08317e-09 -0.0127522)
(5.99323e-10 -9.42284e-11 -0.0442681)
(9.2237e-10 -1.14732e-09 -0.0778492)
(1.65618e-09 -1.78805e-09 -0.11369)
(2.59092e-09 -1.9666e-09 -0.14622)
(3.49085e-09 -1.78984e-09 -0.165762)
(4.16877e-09 -1.40738e-09 -0.165072)
(4.51136e-09 -9.46077e-10 -0.143832)
(4.47825e-09 -4.83989e-10 -0.107855)
(4.09891e-09 -3.20946e-11 -0.0655581)
(3.465e-09 4.6672e-10 -0.0249749)
(2.70407e-09 1.07058e-09 0.00750613)
(1.93562e-09 1.71256e-09 0.0269596)
(1.25312e-09 2.14531e-09 0.0302896)
(7.32925e-10 2.08195e-09 0.0164401)
(4.36182e-10 1.44881e-09 -0.0141369)
(3.86716e-10 4.85715e-10 -0.0596509)
(5.47618e-10 -4.2303e-10 -0.115526)
(8.28322e-10 -1.00423e-09 -0.172499)
(1.12464e-09 -1.2049e-09 -0.217524)
(1.36097e-09 -1.12583e-09 -0.239215)
(1.50579e-09 -9.04106e-10 -0.23365)
(1.55951e-09 -6.43212e-10 -0.205514)
(1.53312e-09 -3.99745e-10 -0.164373)
(1.43566e-09 -1.91742e-10 -0.119734)
(1.27675e-09 -2.44602e-12 -0.077969)
(1.07592e-09 2.13094e-10 -0.0418656)
(8.5831e-10 4.96075e-10 -0.0123693)
(6.47117e-10 8.31313e-10 0.00939716)
(4.64211e-10 1.12169e-09 0.0207354)
(3.33331e-10 1.23459e-09 0.0173908)
(2.74744e-10 1.09426e-09 -0.00460026)
(2.92502e-10 7.37631e-10 -0.0458998)
(3.67878e-10 2.86836e-10 -0.101482)
(4.66436e-10 -1.27188e-10 -0.160812)
(5.53691e-10 -4.23955e-10 -0.211352)
(6.08091e-10 -5.84672e-10 -0.243348)
(6.24653e-10 -6.30425e-10 -0.252857)
(6.10301e-10 -5.95632e-10 -0.241684)
(5.76044e-10 -5.1208e-10 -0.215199)
(5.31182e-10 -4.03963e-10 -0.179558)
(4.81817e-10 -2.887e-10 -0.139939)
(4.31502e-10 -1.78036e-10 -0.0997802)
(3.82044e-10 -7.79742e-11 -0.0606619)
(3.33623e-10 1.0721e-11 -0.0229663)
(2.84696e-10 9.0002e-11 0.0131201)
(2.33505e-10 1.61182e-10 0.0466081)
(1.81991e-10 2.23317e-10 0.0754911)
(1.39225e-10 2.74018e-10 0.0976211)
(1.20004e-10 3.11851e-10 0.111889)
(1.37723e-10 3.38536e-10 0.118585)
(1.96084e-10 3.59165e-10 0.118706)
(2.85157e-10 3.802e-10 0.112943)
(3.83551e-10 4.05862e-10 0.101126)
(4.66052e-10 4.3339e-10 0.082833)
(5.12679e-10 4.51738e-10 0.0591223)
(5.13202e-10 4.25736e-10 0.0301991)
(4.67794e-10 3.60125e-10 0.00611331)
(3.9761e-10 9.98821e-11 -0.0405229)
(2.63746e-10 -6.29092e-11 -0.0309657)
(-2.35256e-18 -9.07174e-20 -0.0443711)
(-2.90744e-17 -1.72325e-19 -0.0470591)
(-5.18134e-17 1.12451e-19 -0.0500895)
(-8.33645e-17 9.37522e-19 -0.0527991)
(-1.04222e-16 -5.72193e-19 -0.0547056)
(-1.519e-16 6.03846e-18 -0.0555175)
(-2.48819e-16 8.48677e-18 -0.0551801)
(-2.13081e-17 -2.14517e-17 -0.0538515)
(-2.24113e-17 -1.2099e-17 -0.0518691)
(-8.38577e-16 6.83343e-17 -0.0496257)
(-1.18679e-15 9.52384e-17 -0.0474895)
(-3.9666e-16 1.93758e-17 -0.0458419)
(4.34786e-16 -6.91925e-17 -0.0449428)
(1.06415e-15 -1.18252e-16 -0.0448952)
(1.38781e-15 -1.21965e-16 -0.0457509)
(1.07675e-15 -4.22713e-17 -0.0474533)
(-2.48022e-16 1.44197e-16 -0.049842)
(-2.40558e-15 3.08868e-16 -0.0526594)
(-2.42872e-15 4.20565e-18 -0.0555667)
(2.50715e-15 -7.64193e-17 -0.0581863)
(-2.95226e-14 5.4359e-15 -0.0601243)
(-1.59119e-13 1.13321e-14 -0.0608931)
(-2.79717e-13 2.07691e-15 -0.0600061)
(-2.36043e-13 -1.01061e-14 -0.0572535)
(-1.00874e-13 -8.24648e-15 -0.0530123)
(-1.73142e-14 -3.71542e-15 -0.0481152)
(1.72645e-14 -1.05557e-15 -0.0435065)
(-7.89773e-14 1.88942e-14 -0.0400218)
(-1.11528e-13 -2.56259e-15 -0.0382488)
(1.43131e-12 -1.88558e-13 -0.0384718)
(1.00551e-12 3.41546e-13 -0.0407532)
(-2.44836e-11 2.85813e-12 -0.0450409)
(-4.47462e-11 -5.03231e-12 -0.0512415)
(3.0848e-10 -5.81813e-11 -0.0594666)
(1.64972e-09 -1.35253e-10 -0.0695352)
(3.63611e-09 -1.15164e-10 -0.0787748)
(4.59903e-09 2.36655e-11 -0.0821108)
(3.60659e-09 1.25374e-10 -0.0771613)
(1.75686e-09 1.09133e-10 -0.0669011)
(4.72974e-10 4.75967e-11 -0.0557666)
(-1.73711e-11 8.81897e-12 -0.0462443)
(-9.24455e-11 2.59616e-14 -0.0393263)
(-6.29978e-11 -1.92138e-12 -0.035358)
(5.95592e-11 -2.91135e-11 -0.0346192)
(4.06712e-10 -4.5724e-11 -0.0376425)
(2.11764e-10 2.43859e-10 -0.0439436)
(-4.0632e-09 1.45418e-09 -0.0485986)
(-1.85652e-08 3.81163e-09 -0.0414003)
(-4.58042e-08 5.82724e-09 -0.0159865)
(-7.68302e-08 4.89858e-09 0.0177987)
(-9.41693e-08 6.52195e-10 0.037679)
(-8.64856e-08 -3.84966e-09 0.0294798)
(-5.95195e-08 -5.59189e-09 0.00106912)
(-2.97966e-08 -4.50066e-09 -0.027348)
(-9.33011e-09 -2.37686e-09 -0.0424332)
(-7.22176e-11 -7.76279e-10 -0.0440375)
(2.13487e-09 -1.23778e-10 -0.039678)
(1.7254e-09 1.67226e-10 -0.0361753)
(-1.05495e-10 1.3006e-09 -0.0346099)
(-5.84472e-09 4.5284e-09 -0.0301509)
(-1.91376e-08 1.00636e-08 -0.0160254)
(-4.04345e-08 1.60152e-08 0.0108378)
(-6.49986e-08 1.88811e-08 0.0482993)
(-8.63713e-08 1.58145e-08 0.0930291)
(-1.00223e-07 6.72492e-09 0.13918)
(-1.0356e-07 -5.24512e-09 0.172269)
(-9.36255e-08 -1.51275e-08 0.173713)
(-7.12945e-08 -1.91596e-08 0.137286)
(-4.34936e-08 -1.70578e-08 0.0773699)
(-1.91959e-08 -1.14315e-08 0.0182745)
(-3.81214e-09 -5.51058e-09 -0.0219509)
(2.49858e-09 -1.19849e-09 -0.0389395)
(2.47023e-09 1.41307e-09 -0.0391178)
(-1.17666e-09 3.14887e-09 -0.0335005)
(-6.63549e-09 4.5591e-09 -0.032229)
(-1.23249e-08 5.45211e-09 -0.0387793)
(-1.66037e-08 5.34702e-09 -0.0450523)
(-1.8631e-08 4.10589e-09 -0.0349993)
(-1.89411e-08 2.00683e-09 0.00186902)
(-1.86017e-08 -5.3753e-10 0.0594725)
(-1.78567e-08 -3.04631e-09 0.116462)
(-1.59702e-08 -4.90969e-09 0.148038)
(-1.24625e-08 -5.59706e-09 0.140903)
(-7.95e-09 -5.01738e-09 0.100531)
(-3.68857e-09 -3.64145e-09 0.0462654)
(-6.31182e-10 -2.22491e-09 -0.00184827)
(1.04697e-09 -1.33504e-09 -0.0359182)
(1.73924e-09 -1.07773e-09 -0.0631132)
(1.986e-09 -1.20697e-09 -0.0955439)
(2.2399e-09 -1.42234e-09 -0.135132)
(2.76509e-09 -1.54339e-09 -0.16767)
(3.5397e-09 -1.50179e-09 -0.173337)
(4.28241e-09 -1.29516e-09 -0.142721)
(4.68497e-09 -9.51969e-10 -0.0825039)
(4.66692e-09 -4.69339e-10 -0.00951761)
(4.38146e-09 2.11913e-10 0.0571186)
(3.97144e-09 1.1042e-09 0.101232)
(3.42125e-09 2.01889e-09 0.113468)
(2.67365e-09 2.55359e-09 0.0941739)
(1.82502e-09 2.32767e-09 0.0518418)
(1.1599e-09 1.30224e-09 -0.00413077)
(9.72559e-10 -1.4184e-10 -0.0697261)
(1.35597e-09 -1.45802e-09 -0.143556)
(2.15498e-09 -2.2645e-09 -0.217394)
(3.09729e-09 -2.47721e-09 -0.27257)
(3.95583e-09 -2.22414e-09 -0.290002)
(4.61067e-09 -1.69549e-09 -0.264102)
(5.01015e-09 -1.05162e-09 -0.205914)
(5.11444e-09 -3.96429e-10 -0.133978)
(4.88787e-09 2.3082e-10 -0.0635567)
(4.33641e-09 8.56546e-10 -0.0030933)
(3.53607e-09 1.52057e-09 0.042613)
(2.61288e-09 2.15541e-09 0.0689506)
(1.71919e-09 2.51971e-09 0.0708984)
(1.01442e-09 2.33599e-09 0.0441926)
(6.21109e-10 1.55312e-09 -0.0132374)
(5.62592e-10 4.50123e-10 -0.0985356)
(7.43087e-10 -5.49143e-10 -0.199397)
(1.00552e-09 -1.15552e-09 -0.292393)
(1.22119e-09 -1.33077e-09 -0.350437)
(1.33857e-09 -1.20567e-09 -0.356932)
(1.37264e-09 -9.4135e-10 -0.31471)
(1.36541e-09 -6.49012e-10 -0.242538)
(1.34921e-09 -3.79666e-10 -0.16334)
(1.32686e-09 -1.43489e-10 -0.0934156)
(1.27592e-09 7.59614e-11 -0.0386252)
(1.17273e-09 3.16572e-10 0.00240872)
(1.00939e-09 6.13479e-10 0.0329068)
(8.0068e-10 9.47486e-10 0.0534097)
(5.86838e-10 1.218e-09 0.0594521)
(4.26198e-10 1.29233e-09 0.0427638)
(3.69219e-10 1.10299e-09 -0.00369769)
(4.27613e-10 7.02365e-10 -0.0790037)
(5.65725e-10 2.26846e-10 -0.170405)
(7.21502e-10 -1.87745e-10 -0.256585)
(8.39059e-10 -4.6665e-10 -0.317107)
(8.89991e-10 -6.02189e-10 -0.341278)
(8.75891e-10 -6.25417e-10 -0.330482)
(8.17613e-10 -5.7568e-10 -0.29406)
(7.40219e-10 -4.84581e-10 -0.243144)
(6.61596e-10 -3.73766e-10 -0.186424)
(5.89408e-10 -2.58154e-10 -0.12931)
(5.23579e-10 -1.47814e-10 -0.074211)
(4.59507e-10 -4.7633e-11 -0.0213463)
(3.89653e-10 4.25129e-11 0.0297472)
(3.05841e-10 1.24778e-10 0.0782214)
(2.0532e-10 1.98658e-10 0.121194)
(9.98783e-11 2.58763e-10 0.155209)
(1.81888e-11 2.97914e-10 0.179044)
(-6.00489e-12 3.13583e-10 0.194768)
(4.70022e-11 3.12182e-10 0.205492)
(1.71685e-10 3.07443e-10 0.212126)
(3.40836e-10 3.14308e-10 0.212396)
(5.17272e-10 3.41746e-10 0.202548)
(6.64508e-10 3.86286e-10 0.179865)
(7.54587e-10 4.3182e-10 0.145323)
(7.72951e-10 4.36422e-10 0.0994778)
(7.19341e-10 3.94461e-10 0.0595726)
(6.25326e-10 1.62822e-10 -0.0193939)
(4.35427e-10 -2.13199e-11 -0.00932971)
(-7.66683e-17 8.50789e-18 -0.0615888)
(-2.62471e-16 1.27527e-17 -0.0654061)
(-2.16584e-16 1.59624e-17 -0.0697082)
(-2.8505e-16 1.4244e-17 -0.0735543)
(-2.11355e-16 2.12519e-17 -0.0762606)
(-6.54596e-16 6.28708e-17 -0.0774113)
(1.72631e-16 -7.94082e-17 -0.0769256)
(7.3215e-16 -1.06946e-16 -0.0750219)
(-3.628e-15 2.16025e-15 -0.0721807)
(-3.43104e-15 5.72284e-16 -0.0689526)
(5.13519e-15 -3.71238e-15 -0.0658492)
(1.3184e-14 2.64343e-15 -0.0634495)
(1.38509e-14 -7.40715e-16 -0.0620851)
(1.06509e-14 -4.93221e-16 -0.0618979)
(5.40641e-15 -2.4874e-17 -0.0630154)
(-2.42634e-15 8.05281e-16 -0.0654046)
(-1.33744e-14 1.75411e-15 -0.0688723)
(-2.1206e-14 1.1477e-15 -0.0730719)
(-4.7245e-15 -2.38032e-15 -0.0774878)
(-4.99819e-14 1.35e-14 -0.0814906)
(-1.47988e-13 8.04463e-14 -0.0844923)
(1.30701e-12 1.24512e-13 -0.0858427)
(3.35506e-12 3.81159e-14 -0.0847866)
(2.43357e-12 -8.92725e-14 -0.0808732)
(5.15649e-13 -1.08893e-13 -0.0745309)
(-1.1407e-13 -5.88663e-14 -0.0669107)
(-1.6194e-13 2.98389e-14 -0.059406)
(-6.54453e-13 6.62944e-14 -0.0533935)
(8.74751e-13 -7.39137e-13 -0.0500472)
(7.77524e-12 -5.68991e-13 -0.0501221)
(-1.31769e-11 1.27354e-11 -0.0538396)
(-1.09916e-10 2.2617e-11 -0.0609806)
(1.95908e-11 -1.63791e-10 -0.0715181)
(1.30316e-09 -8.34691e-10 -0.0863846)
(4.02032e-09 -1.63973e-09 -0.105205)
(7.09874e-09 -1.45348e-09 -0.122914)
(9.2295e-09 1.42918e-11 -0.131255)
(8.79331e-09 1.40023e-09 -0.1244)
(5.62996e-09 1.54415e-09 -0.105244)
(2.25725e-09 8.74316e-10 -0.0830841)
(3.12705e-10 2.78321e-10 -0.0641111)
(-3.10871e-10 2.26244e-11 -0.0504652)
(-2.60309e-10 -7.36883e-11 -0.0427801)
(3.22776e-10 -2.31518e-10 -0.0419484)
(1.23521e-09 -7.83423e-11 -0.0484279)
(-1.15446e-09 2.21213e-09 -0.0567679)
(-1.69377e-08 9.32718e-09 -0.0495149)
(-5.69219e-08 2.07817e-08 -0.00483981)
(-1.18278e-07 2.90564e-08 0.0796159)
(-1.80641e-07 2.41398e-08 0.176417)
(-2.17838e-07 4.82924e-09 0.242125)
(-2.11002e-07 -1.72644e-08 0.240351)
(-1.60978e-07 -2.82652e-08 0.169308)
(-9.27455e-08 -2.50368e-08 0.0697761)
(-3.62465e-08 -1.48131e-08 -0.00918293)
(-5.03778e-09 -5.70377e-09 -0.0466342)
(5.24679e-09 -9.24007e-10 -0.0526191)
(4.96145e-09 1.10484e-09 -0.0468846)
(-4.9188e-10 4.11746e-09 -0.0397041)
(-1.24108e-08 1.09182e-08 -0.0302801)
(-3.22605e-08 2.06642e-08 -0.017501)
(-5.49466e-08 2.86563e-08 -0.00452605)
(-7.14653e-08 3.01003e-08 0.0131165)
(-7.86553e-08 2.37728e-08 0.0540957)
(-8.22182e-08 1.11794e-08 0.129455)
(-8.78921e-08 -5.41521e-09 0.217859)
(-9.18181e-08 -2.18971e-08 0.272928)
(-8.39727e-08 -3.21113e-08 0.259199)
(-6.1621e-08 -3.21519e-08 0.182732)
(-3.33412e-08 -2.38392e-08 0.0837826)
(-1.0417e-08 -1.27245e-08 0.00408873)
(1.47e-09 -3.49527e-09 -0.0379212)
(3.13591e-09 2.44305e-09 -0.0508426)
(-1.59537e-09 5.90942e-09 -0.0592933)
(-8.50554e-09 7.70685e-09 -0.0854822)
(-1.38284e-08 7.8069e-09 -0.12909)
(-1.51996e-08 6.23327e-09 -0.161036)
(-1.27993e-08 3.78528e-09 -0.14562)
(-9.12216e-09 1.41042e-09 -0.0720198)
(-7.11631e-09 -7.33262e-10 0.0374729)
(-7.90561e-09 -3.06382e-09 0.143723)
(-9.90558e-09 -5.49687e-09 0.210315)
(-1.05123e-08 -7.12594e-09 0.217756)
(-8.57049e-09 -7.12854e-09 0.171163)
(-4.99088e-09 -5.63791e-09 0.0960876)
(-1.49871e-09 -3.61758e-09 0.02076)
(7.91562e-10 -2.05142e-09 -0.0437858)
(1.81724e-09 -1.33877e-09 -0.107373)
(2.21902e-09 -1.32922e-09 -0.181478)
(2.76625e-09 -1.66559e-09 -0.255218)
(3.85426e-09 -1.99314e-09 -0.295061)
(5.32273e-09 -2.03233e-09 -0.272703)
(6.6425e-09 -1.67331e-09 -0.19016)
(7.26445e-09 -1.02415e-09 -0.0765622)
(6.96384e-09 -2.73849e-10 0.0342437)
(5.99656e-09 5.22973e-10 0.119761)
(4.83761e-09 1.43433e-09 0.16895)
(3.76823e-09 2.37673e-09 0.17737)
(2.80259e-09 2.95507e-09 0.146866)
(1.94017e-09 2.70061e-09 0.0846955)
(1.34699e-09 1.5094e-09 -0.00195412)
(1.22833e-09 -1.92261e-10 -0.109185)
(1.59888e-09 -1.73853e-09 -0.22833)
(2.25054e-09 -2.65871e-09 -0.334265)
(2.92448e-09 -2.86703e-09 -0.390038)
(3.47873e-09 -2.54653e-09 -0.370957)
(3.90749e-09 -1.93454e-09 -0.284121)
(4.24821e-09 -1.19796e-09 -0.163902)
(4.48486e-09 -4.22848e-10 -0.0491761)
(4.52587e-09 3.56921e-10 0.0372648)
(4.26642e-09 1.14262e-09 0.0925722)
(3.67278e-09 1.93235e-09 0.122988)
(2.82324e-09 2.621e-09 0.132261)
(1.90161e-09 2.94454e-09 0.116617)
(1.14325e-09 2.63099e-09 0.0670956)
(7.26011e-10 1.67472e-09 -0.0235547)
(6.64878e-10 4.24726e-10 -0.151008)
(8.14971e-10 -6.44494e-10 -0.290527)
(9.88151e-10 -1.24328e-09 -0.399493)
(1.06858e-09 -1.37142e-09 -0.437341)
(1.04127e-09 -1.20156e-09 -0.389827)
(9.52621e-10 -9.17528e-10 -0.276819)
(8.63204e-10 -6.31499e-10 -0.139114)
(8.18781e-10 -3.80469e-10 -0.0166018)
(8.33767e-10 -1.55095e-10 0.068054)
(8.83287e-10 7.46188e-11 0.113181)
(9.12631e-10 3.46355e-10 0.13034)
(8.6934e-10 6.82101e-10 0.133227)
(7.38689e-10 1.04259e-09 0.128184)
(5.63605e-10 1.30893e-09 0.110114)
(4.30069e-10 1.3434e-09 0.0661901)
(4.1525e-10 1.09355e-09 -0.013254)
(5.3523e-10 6.39378e-10 -0.122502)
(7.3698e-10 1.39892e-10 -0.236649)
(9.35902e-10 -2.63855e-10 -0.322273)
(1.0634e-09 -5.08199e-10 -0.355816)
(1.09143e-09 -6.03088e-10 -0.334892)
(1.03059e-09 -5.94236e-10 -0.275274)
(9.14413e-10 -5.27798e-10 -0.198922)
(7.81252e-10 -4.34071e-10 -0.122921)
(6.5915e-10 -3.28557e-10 -0.0553177)
(5.59482e-10 -2.19692e-10 0.00306062)
(4.7851e-10 -1.13085e-10 0.0553972)
(4.01627e-10 -1.10111e-11 0.1056)
(3.0797e-10 8.75539e-11 0.155291)
(1.80351e-10 1.82168e-10 0.201531)
(2.32385e-11 2.64164e-10 0.238853)
(-1.24518e-10 3.16883e-10 0.265334)
(-2.02978e-10 3.26958e-10 0.286587)
(-1.67138e-10 2.97445e-10 0.311895)
(-1.50533e-11 2.49691e-10 0.345322)
(2.14265e-10 2.12249e-10 0.380533)
(4.65696e-10 2.07406e-10 0.40398)
(6.93019e-10 2.44026e-10 0.403179)
(8.66204e-10 3.14733e-10 0.372507)
(9.66359e-10 3.97516e-10 0.315576)
(9.84439e-10 4.43359e-10 0.237219)
(9.20571e-10 4.33938e-10 0.166272)
(8.1066e-10 2.41839e-10 0.0416337)
(5.82412e-10 3.20406e-11 0.039181)
(8.15101e-17 1.9042e-15 -0.0782199)
(3.04499e-16 1.80451e-15 -0.0832181)
(2.01384e-16 1.1402e-17 -0.0888461)
(5.31362e-16 1.73305e-15 -0.0938738)
(2.75836e-16 1.91892e-15 -0.0974068)
(-3.19169e-16 1.54877e-15 -0.0988998)
(6.0137e-15 -6.84886e-16 -0.098245)
(-8.35351e-15 1.90597e-15 -0.095722)
(-1.97115e-14 2.0695e-15 -0.0919665)
(3.30536e-14 -6.08864e-15 -0.0876844)
(6.89195e-14 -8.19872e-15 -0.083521)
(2.43676e-14 -4.32491e-15 -0.0802709)
(-2.20684e-14 1.18379e-15 -0.07841)
(-5.60126e-14 4.10398e-15 -0.0780894)
(-8.41028e-14 6.41666e-15 -0.0794877)
(-1.11374e-13 1.10829e-14 -0.0825662)
(-1.33539e-13 1.12688e-14 -0.0870685)
(-8.3822e-14 -4.01611e-15 -0.0925457)
(-3.56265e-14 1.61269e-14 -0.0983646)
(-6.19211e-13 7.32902e-14 -0.103779)
(2.54837e-12 -6.73062e-13 -0.107973)
(1.82609e-11 -1.74019e-12 -0.109968)
(3.51219e-11 -5.612e-13 -0.108747)
(3.13729e-11 1.4096e-12 -0.103696)
(1.26343e-11 1.26557e-12 -0.0953729)
(1.3741e-12 3.31609e-13 -0.0853147)
(-1.98777e-12 2.69136e-13 -0.0752967)
(-1.91333e-12 -4.99451e-13 -0.0671035)
(8.08667e-12 -4.21741e-12 -0.0624012)
(3.03004e-12 6.83725e-12 -0.0623026)
(-8.95656e-11 5.91856e-11 -0.0671341)
(3.21964e-11 -1.35274e-11 -0.0772432)
(8.85764e-10 -7.11572e-10 -0.0931733)
(-7.9796e-10 -2.05855e-09 -0.109716)
(-1.36944e-08 -3.03304e-09 -0.112304)
(-3.56567e-08 -2.71976e-09 -0.0996493)
(-4.56449e-08 -8.23622e-10 -0.0951721)
(-3.25776e-08 1.92515e-09 -0.107925)
(-1.20873e-08 3.37716e-09 -0.11657)
(-4.47725e-10 2.70622e-09 -0.106866)
(1.76467e-09 1.29287e-09 -0.0852887)
(5.39721e-10 2.86532e-10 -0.0642592)
(-1.07523e-10 -3.18745e-10 -0.051872)
(1.02393e-09 -7.76875e-10 -0.051438)
(1.70784e-09 6.92891e-10 -0.0600342)
(-8.06986e-09 9.33031e-09 -0.0608593)
(-4.36386e-08 2.93379e-08 -0.0259809)
(-1.07308e-07 5.44819e-08 0.0575364)
(-1.77571e-07 6.76867e-08 0.173216)
(-2.32117e-07 5.46787e-08 0.301498)
(-2.6714e-07 1.58326e-08 0.422501)
(-2.78414e-07 -3.22801e-08 0.485875)
(-2.48049e-07 -6.47199e-08 0.435312)
(-1.73579e-07 -6.68662e-08 0.28107)
(-8.67613e-08 -4.62307e-08 0.105573)
(-2.34078e-08 -2.15229e-08 -0.0146591)
(5.44061e-09 -5.12339e-09 -0.0623832)
(9.30376e-09 3.03656e-09 -0.0636473)
(-7.25514e-10 9.98671e-09 -0.0488152)
(-1.95516e-08 2.04127e-08 -0.0399375)
(-4.12423e-08 3.13315e-08 -0.0564142)
(-5.45551e-08 3.56176e-08 -0.100621)
(-5.13302e-08 3.07355e-08 -0.132047)
(-3.58007e-08 2.1191e-08 -0.0898401)
(-2.22888e-08 1.13433e-08 0.0440447)
(-2.43621e-08 -4.45164e-10 0.220561)
(-4.24539e-08 -1.70872e-08 0.358274)
(-6.05099e-08 -3.42581e-08 0.393836)
(-6.1163e-08 -4.23735e-08 0.319081)
(-4.31006e-08 -3.70335e-08 0.183099)
(-1.91612e-08 -2.29162e-08 0.0538913)
(-2.50405e-09 -7.97495e-09 -0.0280237)
(2.16255e-09 2.94576e-09 -0.0702529)
(-2.03542e-09 8.9696e-09 -0.113342)
(-8.59693e-09 1.06756e-08 -0.188148)
(-1.18059e-08 8.79916e-09 -0.275478)
(-9.47274e-09 4.83248e-09 -0.312167)
(-3.17677e-09 1.06715e-09 -0.248405)
(3.60742e-09 -8.34642e-10 -0.0944655)
(7.43093e-09 -1.1458e-09 0.0904171)
(6.35491e-09 -1.65167e-09 0.243086)
(1.35642e-09 -3.60633e-09 0.325617)
(-3.98249e-09 -6.26461e-09 0.327218)
(-6.35945e-09 -7.7781e-09 0.260501)
(-5.23127e-09 -7.17734e-09 0.156306)
(-2.399e-09 -5.11613e-09 0.0458882)
(1.23616e-10 -2.99301e-09 -0.0608558)
(1.60532e-09 -1.79146e-09 -0.175197)
(2.55884e-09 -1.68147e-09 -0.298784)
(3.75621e-09 -2.23996e-09 -0.3961)
(5.42115e-09 -2.82163e-09 -0.411407)
(7.24758e-09 -2.8959e-09 -0.317989)
(8.78951e-09 -2.26602e-09 -0.144761)
(9.61684e-09 -1.11264e-09 0.04423)
(9.37675e-09 1.64608e-10 0.192246)
(8.06325e-09 1.27503e-09 0.275697)
(6.16453e-09 2.21836e-09 0.298496)
(4.30538e-09 3.03641e-09 0.27324)
(2.82893e-09 3.46763e-09 0.210293)
(1.8171e-09 3.05547e-09 0.115095)
(1.30958e-09 1.65816e-09 -0.0115915)
(1.31737e-09 -2.67787e-10 -0.167054)
(1.70133e-09 -1.96912e-09 -0.330013)
(2.19855e-09 -2.92729e-09 -0.451473)
(2.59706e-09 -3.0913e-09 -0.476267)
(2.85213e-09 -2.71565e-09 -0.383021)
(3.04583e-09 -2.08024e-09 -0.202604)
(3.27216e-09 -1.34031e-09 0.000150589)
(3.54477e-09 -5.35255e-10 0.163057)
(3.76447e-09 3.4004e-10 0.255177)
(3.76312e-09 1.28309e-09 0.281508)
(3.40819e-09 2.24216e-09 0.265857)
(2.7085e-09 3.041e-09 0.228478)
(1.85009e-09 3.35971e-09 0.17216)
(1.12063e-09 2.92378e-09 0.0840571)
(7.35998e-10 1.7923e-09 -0.0491428)
(6.99975e-10 4.05644e-10 -0.219931)
(8.37626e-10 -7.10779e-10 -0.386579)
(9.55503e-10 -1.28233e-09 -0.48531)
(9.60421e-10 -1.35733e-09 -0.467544)
(8.62699e-10 -1.14768e-09 -0.331687)
(7.17694e-10 -8.5232e-10 -0.122949)
(5.79426e-10 -5.82092e-10 0.0930068)
(4.87998e-10 -3.64947e-10 0.260273)
(4.68771e-10 -1.75742e-10 0.351411)
(5.18675e-10 3.65314e-11 0.37011)
(5.90135e-10 3.23546e-10 0.340444)
(6.12451e-10 7.0045e-10 0.290361)
(5.45355e-10 1.10035e-09 0.235555)
(4.24477e-10 1.37231e-09 0.172224)
(3.48943e-10 1.36651e-09 0.0841654)
(4.07106e-10 1.05041e-09 -0.0377919)
(6.06333e-10 5.415e-10 -0.177203)
(8.7095e-10 2.651e-11 -0.292225)
(1.09929e-09 -3.50953e-10 -0.339691)
(1.22193e-09 -5.44413e-10 -0.303004)
(1.22139e-09 -5.85784e-10 -0.200106)
(1.11975e-09 -5.36907e-10 -0.0689346)
(9.57944e-10 -4.51014e-10 0.0543119)
(7.79059e-10 -3.56949e-10 0.149233)
(6.16378e-10 -2.62879e-10 0.21259)
(4.85626e-10 -1.67834e-10 0.252687)
(3.81356e-10 -6.88859e-11 0.281946)
(2.78218e-10 3.76368e-11 0.309767)
(1.41602e-10 1.53151e-10 0.337763)
(-4.48198e-11 2.67146e-10 0.360208)
(-2.46066e-10 3.51092e-10 0.373156)
(-3.77666e-10 3.71872e-10 0.385525)
(-3.58711e-10 3.19224e-10 0.417129)
(-1.69767e-10 2.19621e-10 0.482495)
(1.38057e-10 1.21482e-10 0.576304)