/*--------------------------------*- C++ -*----------------------------------*\
  =========                 |
  \\      /  F ield         | OpenFOAM: The Open Source CFD Toolbox
   \\    /   O peration     | Website:  https://openfoam.org
    \\  /    A nd           | Version:  11
     \\/     M anipulation  |
\*---------------------------------------------------------------------------*/
FoamFile
{
    format      ascii;
    class       surfaceScalarField;
    location    "16.072212";
    object      phi;
}
// * * * * * * * * * * * * * * * * * * * * * * * * * * * * * * * * * * * * * //

dimensions      [0 3 -1 0 0 0 0];

internalField   nonuniform List<scalar> 
14638
(
0.00250208
-2.07729e-06
0.00250827
-6.1932e-06
0.00251887
-1.05954e-05
0.00253434
-1.5477e-05
0.00255527
-2.09319e-05
0.00258205
-2.67738e-05
0.00261462
-3.25717e-05
0.00265206
-3.74366e-05
0.00269244
-4.03783e-05
0.00273275
-4.03197e-05
0.00276932
-3.65648e-05
0.002799
-2.96816e-05
0.00281914
-2.01389e-05
0.00282758
-8.43868e-06
0.00282267
4.90837e-06
0.00280364
1.90303e-05
0.00277162
3.20181e-05
0.00273009
4.15325e-05
0.00268436
4.57258e-05
0.00264072
4.36423e-05
0.00260547
3.5253e-05
0.00258404
2.14247e-05
0.0025801
3.94325e-06
0.00259444
-1.43419e-05
0.00262384
-2.94014e-05
0.0026606
-3.67512e-05
0.00269397
-3.33738e-05
0.00271372
-1.97559e-05
0.00271375
-2.88783e-08
0.0026936
2.01579e-05
0.00265743
3.61688e-05
0.00261193
4.54936e-05
0.00256458
4.73571e-05
0.00252273
4.1851e-05
0.00249336
2.93606e-05
0.00248275
1.06126e-05
0.00249544
-1.26835e-05
0.00253226
-3.68215e-05
0.00258806
-5.58064e-05
0.00265116
-6.30916e-05
0.00270613
-5.49721e-05
0.00273932
-3.31923e-05
0.00274371
-4.38808e-06
0.0027204
2.33039e-05
0.00267659
4.38098e-05
0.00262201
5.45824e-05
0.00256627
5.57426e-05
0.00251787
4.84035e-05
0.00248435
3.35192e-05
0.00247246
1.18861e-05
0.00248722
-1.47643e-05
0.00252953
-4.2306e-05
0.00259351
-6.39757e-05
0.00266599
-7.24834e-05
0.00272968
-6.36914e-05
0.00276902
-3.93343e-05
0.00277562
-6.60325e-06
0.00275042
2.52027e-05
0.00270177
4.86472e-05
0.00264139
6.03824e-05
0.00258068
6.07081e-05
0.00252908
5.16023e-05
0.00249414
3.4935e-05
0.00248208
1.20568e-05
0.00249719
-1.51032e-05
0.0025397
-4.25137e-05
0.00260358
-6.38754e-05
0.00267616
-7.25817e-05
0.00274099
-6.48321e-05
0.00278286
-4.18653e-05
0.00279267
-9.81589e-06
0.00276998
2.26906e-05
0.00272216
4.78185e-05
0.00266111
6.10518e-05
0.00259935
6.17648e-05
0.00254742
5.19274e-05
0.00251325
3.41677e-05
0.00250247
1.07805e-05
0.00251811
-1.56389e-05
0.0025591
-4.09882e-05
0.00261879
-5.96907e-05
0.00268528
-6.6492e-05
0.00274415
-5.88686e-05
0.00278251
-3.83654e-05
0.00279261
-1.0096e-05
0.00277354
1.90737e-05
0.00273086
4.26764e-05
0.00267452
5.63368e-05
0.00261605
5.84749e-05
0.00256612
4.99269e-05
0.00253324
3.2879e-05
0.00252318
1.0062e-05
0.00253832
-1.51352e-05
0.00257655
-3.82327e-05
0.00263068
-5.41341e-05
0.00268943
-5.87517e-05
0.0027402
-5.0766e-05
0.00277246
-3.22623e-05
0.00278035
-7.88615e-06
0.00276354
1.68117e-05
0.00272659
3.69437e-05
0.00267739
4.92047e-05
0.00262532
5.20647e-05
0.0025798
4.55191e-05
0.00254908
3.07267e-05
0.00253919
9.88641e-06
0.00255276
-1.35659e-05
0.00258774
-3.49821e-05
0.00263715
-4.94065e-05
0.00269036
-5.32162e-05
0.00273593
-4.55684e-05
0.00276465
-2.87234e-05
0.00277174
-7.08345e-06
0.00275732
1.44177e-05
0.00272558
3.17442e-05
0.00268316
4.24195e-05
0.00263779
4.53696e-05
0.00259736
4.0427e-05
0.00256929
2.807e-05
0.00255961
9.6796e-06
0.00257155
-1.19448e-05
0.00260409
-3.25309e-05
0.00265134
-4.72564e-05
0.00270371
-5.23668e-05
0.00275032
-4.66086e-05
0.002782
-3.16784e-05
0.00279351
-1.15099e-05
0.00278436
9.14867e-06
0.00275816
2.61984e-05
0.00272105
3.71104e-05
0.00268006
4.09885e-05
0.00264209
3.79721e-05
0.00261352
2.85642e-05
0.00260003
1.34926e-05
0.00260581
-5.77651e-06
0.00263227
-2.64644e-05
0.00267692
-4.46463e-05
0.00273326
-5.63377e-05
0.00279218
-5.89279e-05
0.00284431
-5.21261e-05
0.00288228
-3.79751e-05
0.00290234
-2.00534e-05
0.00290466
-2.31886e-06
0.00289271
1.19486e-05
0.00287189
2.08205e-05
0.002848
2.38874e-05
0.00282602
2.19763e-05
0.0028094
1.66284e-05
0.00279983
9.57017e-06
0.00279741
2.41542e-06
0.0028009
-3.48586e-06
0.00280796
-7.06045e-06
0.00281574
-7.78129e-06
0.00282139
-5.65438e-06
0.0028231
-1.70338e-06
0.00282011
2.98531e-06
0.00281404
6.07465e-06
0.00280657
7.46911e-06
0.00280197
4.59809e-06
-3.36953e-06
0.00250206
-4.13486e-06
0.00250819
-1.23299e-05
0.00251871
-2.11123e-05
0.00253412
-3.08881e-05
0.00255505
-4.18595e-05
0.00258194
-5.36675e-05
0.00261483
-6.54554e-05
0.0026528
-7.54082e-05
0.00269392
-8.15037e-05
0.00273508
-8.14761e-05
0.0027724
-7.388e-05
0.0028027
-5.99882e-05
0.00282334
-4.0776e-05
0.00283214
-1.72358e-05
0.00282734
9.70214e-06
0.002808
3.837e-05
0.00277517
6.48522e-05
0.0027324
8.43033e-05
0.0026852
9.29262e-05
0.00264006
8.87837e-05
0.00260349
7.18152e-05
0.00258118
4.37369e-05
0.00257704
8.08185e-06
0.00259214
-2.94377e-05
0.0026233
-6.05575e-05
0.00266244
-7.59006e-05
0.00269813
-6.90587e-05
0.00271937
-4.09925e-05
0.00271969
-3.54264e-07
0.00269878
4.10741e-05
0.00266118
7.37609e-05
0.00261397
9.27091e-05
0.00256481
9.65169e-05
0.00252119
8.54732e-05
0.00249022
6.03219e-05
0.00247848
2.23544e-05
0.002491
-2.52015e-05
0.00252908
-7.49039e-05
0.00258759
-0.000114317
0.00265415
-0.000129651
0.00271222
-0.000113034
0.00274713
-6.81059e-05
0.00275153
-8.78585e-06
0.00272686
4.79728e-05
0.00268097
8.96998e-05
0.00262415
0.000111404
0.00256627
0.000113623
0.00251588
9.87912e-05
0.0024806
6.8801e-05
0.00246746
2.50198e-05
0.00248203
-2.93326e-05
0.00252569
-8.59696e-05
0.00259263
-0.000130907
0.00266899
-0.000148845
0.00273626
-0.000130966
0.00277772
-8.07951e-05
0.00278448
-1.33595e-05
0.00275773
5.19539e-05
0.00270659
9.9782e-05
0.00264355
0.000123424
0.00258043
0.000123825
0.00252672
0.000105315
0.00248989
7.17676e-05
0.00247624
2.57064e-05
0.00249045
-2.93155e-05
0.00253328
-8.53458e-05
0.00259892
-0.000129512
0.0026744
-0.000148058
0.00274247
-0.000132901
0.00278698
-8.63757e-05
0.00279816
-2.09973e-05
0.00277534
4.55071e-05
0.00272617
9.6988e-05
0.00266307
0.000124155
0.00259904
0.00012579
0.00254494
0.000106033
0.00250885
7.02529e-05
0.00249669
2.29415e-05
0.00251191
-3.08583e-05
0.00255375
-8.28247e-05
0.00261541
-0.000121355
0.00268438
-0.000135459
0.00274545
-0.00011994
0.00278522
-7.81324e-05
0.00279577
-2.06512e-05
0.00277635
3.84966e-05
0.00273275
8.62774e-05
0.00267512
0.000113962
0.00261515
0.000118443
0.00256369
0.000101391
0.0025295
6.70677e-05
0.00251878
2.07817e-05
0.00253434
-3.06943e-05
0.0025742
-7.8087e-05
0.00263074
-0.000110683
0.00269191
-0.00011992
0.00274432
-0.000103175
0.00277707
-6.50051e-05
0.00278436
-1.5181e-05
0.00276628
3.48929e-05
0.00272783
7.53965e-05
0.00267717
9.98563e-05
0.00262386
0.000105381
0.00257736
9.20148e-05
0.00254612
6.19731e-05
0.00253648
1.95189e-05
0.00255135
-2.8433e-05
0.00258862
-7.2256e-05
0.0026408
-0.00010158
0.00269646
-0.000108878
0.00274344
-9.25483e-05
0.00277221
-5.74942e-05
0.00277811
-1.2979e-05
0.00276171
3.08151e-05
0.00272773
6.57233e-05
0.00268326
8.68864e-05
0.00263631
9.23267e-05
0.00259491
8.18191e-05
0.00256667
5.63132e-05
0.00255782
1.85309e-05
0.00257171
-2.58367e-05
0.00260712
-6.79379e-05
0.00265761
-9.77444e-05
0.00271277
-0.000107535
0.00276106
-9.4898e-05
0.00279295
-6.35686e-05
0.00280327
-2.18292e-05
0.00279191
2.0512e-05
0.00276299
5.51164e-05
0.00272316
7.69412e-05
0.00267984
8.43108e-05
0.00264018
7.76266e-05
0.0026108
5.79449e-05
0.00259758
2.67168e-05
0.00260487
-1.307e-05
0.00263404
-5.56268e-05
0.00268213
-9.27383e-05
0.00274193
-0.000116139
0.00280356
-0.00012056
0.00285708
-0.000105646
0.00289496
-7.58527e-05
0.0029136
-3.86971e-05
0.00291361
-2.32777e-06
0.00289894
2.66233e-05
0.00287541
4.43433e-05
0.00284918
5.01173e-05
0.00282545
4.57137e-05
0.00280778
3.42951e-05
0.00279799
1.93602e-05
0.00279622
4.18511e-06
0.00280116
-8.4263e-06
0.00281027
-1.61704e-05
0.00282031
-1.78242e-05
0.00282799
-1.33356e-05
0.00283107
-4.77715e-06
0.0028286
5.45007e-06
0.00282208
1.2601e-05
0.00281353
1.60135e-05
0.00280707
1.10594e-05
-5.07608e-06
0.00250202
-6.15191e-06
0.00250803
-1.83469e-05
0.00251839
-3.14658e-05
0.00253366
-4.61582e-05
0.00255457
-6.27707e-05
0.0025817
-8.07983e-05
0.00261522
-9.89716e-05
0.00265428
-0.000114473
0.00269694
-0.000124165
0.00273981
-0.000124343
0.00277863
-0.000112702
0.00281016
-9.15164e-05
0.00283173
-6.23507e-05
0.00284117
-2.66749e-05
0.00283653
1.43429e-05
0.0028165
5.84078e-05
0.00278195
9.93992e-05
0.00273664
0.000129616
0.00268646
0.000143101
0.00263836
0.000136885
0.0025993
0.000110878
0.00257541
6.76251e-05
0.00257114
1.23503e-05
0.00258803
-4.63308e-05
0.00262297
-9.54982e-05
0.0026671
-0.000120031
0.0027074
-0.000109357
0.00273133
-6.49215e-05
0.00273177
-7.8791e-07
0.00270878
6.40614e-05
0.00266788
0.000114663
0.00261695
0.000143639
0.00256413
0.000149328
0.00251714
0.000132472
0.00248331
9.41439e-05
0.00246979
3.58764e-05
0.00248257
-3.79808e-05
0.00252385
-0.000116188
0.00258842
-0.000178884
0.00266229
-0.000203516
0.00272641
-0.000177162
0.00276416
-0.000105853
0.00276766
-1.22896e-05
0.00273933
7.63107e-05
0.00268855
0.000140475
0.00262686
0.000173091
0.00256468
0.000175807
0.00251059
0.000152881
0.0024722
0.000107186
0.00245689
4.03376e-05
0.00247093
-4.33771e-05
0.00251664
-0.000131677
0.00258864
-0.00020291
0.00267237
-0.000232572
0.00274714
-0.000205742
0.00279357
-0.000127218
0.00280112
-2.09135e-05
0.00277128
8.17909e-05
0.00271487
0.000156197
0.00264621
0.000192084
0.0025782
0.00019183
0.00252046
0.000163055
0.0024802
0.000112028
0.00246382
4.20924e-05
0.00247676
-4.22575e-05
0.00252077
-0.000129361
0.00259032
-0.000199055
0.00267151
-0.000229251
0.00274544
-0.000206833
0.00279436
-0.000135291
0.00280748
-3.41176e-05
0.00278393
6.90592e-05
0.0027319
0.00014902
0.00266477
0.000191278
0.00259649
0.000194076
0.00253848
0.000164044
0.00249929
0.00010944
0.00248549
3.67414e-05
0.00250135
-4.67228e-05
0.00254645
-0.000127921
0.00261323
-0.000188134
0.0026875
-0.000209732
0.00275238
-0.000184819
0.00279358
-0.000119333
0.00280333
-3.04022e-05
0.0027816
6.02242e-05
0.002735
0.000132879
0.00267424
0.000174725
0.00261129
0.000181396
0.00255724
0.000155435
0.00252137
0.000102943
0.00251063
3.15221e-05
0.00252847
-4.85413e-05
0.0025728
-0.000122418
0.00263489
-0.000172764
0.00270093
-0.000185968
0.00275608
-0.000158326
0.00278881
-9.77303e-05
0.0027937
-2.00723e-05
0.00277184
5.67519e-05
0.00272934
0.0001179
0.00267513
0.00015406
0.00261912
0.000161397
0.00257096
0.000140169
0.00253943
9.3509e-05
0.00253136
2.75823e-05
0.00254991
-4.69816e-05
0.00259252
-0.000114862
0.00265044
-0.000159496
0.0027107
-0.000169143
0.00275991
-0.000141759
0.00278807
-8.56523e-05
0.00279087
-1.57782e-05
0.00276984
5.18413e-05
0.00273084
0.000104723
0.00268192
0.000135809
0.00263168
0.000142563
0.00258857
0.000124936
0.00256049
8.43863e-05
0.00255401
2.50088e-05
0.00257246
-4.42845e-05
0.00261394
-0.000109412
0.00267072
-0.000154523
0.00273093
-0.000167752
0.0027819
-0.000145865
0.00281362
-9.52929e-05
0.00282115
-2.93537e-05
0.0028051
3.65576e-05
0.00277062
8.95956e-05
0.00272534
0.000122221
0.00267746
0.000132191
0.0026347
0.000120393
0.0026041
8.85391e-05
0.00259197
3.88511e-05
0.00260282
-2.39258e-05
0.00263763
-9.04296e-05
0.00269236
-0.000147473
0.00275835
-0.000182122
0.00282437
-0.000186589
0.00287973
-0.000160999
0.00291676
-0.000112889
0.00293232
-5.42558e-05
0.00292775
2.23882e-06
0.00290788
4.65006e-05
0.00287932
7.28965e-05
0.00284886
8.05863e-05
0.00282209
7.24812e-05
0.00280287
5.35122e-05
0.00279318
2.90458e-05
0.00279322
4.1503e-06
0.00280146
-1.66683e-05
0.00281483
-2.954e-05
0.00282926
-3.2255e-05
0.00284057
-2.46448e-05
0.00284578
-9.98959e-06
0.0028437
7.53847e-06
0.00283571
2.05836e-05
0.0028246
2.71311e-05
0.00281422
2.14383e-05
-3.46416e-06
0.00250195
-8.10424e-06
0.00250778
-2.41727e-05
0.00251787
-4.15532e-05
0.0025329
-6.11879e-05
0.00255375
-8.36218e-05
0.0025812
-0.000108252
0.00261565
-0.000133422
0.00265638
-0.000155201
0.00270142
-0.000169206
0.00274694
-0.000169865
0.00278807
-0.00015383
0.00282146
-0.000124902
0.00284448
-8.53779e-05
0.00285497
-3.71664e-05
0.00285064
1.86756e-05
0.00282953
7.95138e-05
0.00279228
0.000136653
0.00274296
0.000178932
0.00268816
0.000197909
0.0026355
0.000189546
0.0025926
0.000153777
0.00256627
9.39521e-05
0.00256176
1.68572e-05
0.00258143
-6.59941e-05
0.00262232
-0.000136389
0.00267435
-0.00017206
0.00272195
-0.00015696
0.00275005
-9.30213e-05
0.00275047
-1.2086e-06
0.00272402
9.05146e-05
0.00267779
0.000160892
0.00262104
0.000200384
0.00256265
0.000207723
0.00251055
0.000184568
0.00247241
0.000132287
0.00245619
5.20994e-05
0.00246944
-5.12314e-05
0.00251586
-0.000162611
0.00259016
-0.00025318
0.00267577
-0.000289134
0.00274953
-0.00025092
0.00279146
-0.000147783
0.00279302
-1.38471e-05
0.00275837
0.000110963
0.00269958
0.000199264
0.00263022
0.00024245
0.00256151
0.000244514
0.00250194
0.000212456
0.00245871
0.000150413
0.00243916
5.98863e-05
0.00245047
-5.46838e-05
0.00249672
-0.000177931
0.00257411
-0.000280296
0.00266775
-0.000326212
0.00275426
-0.000292248
0.00281015
-0.000183113
0.00282159
-3.23478e-05
0.00278932
0.000114053
0.00272617
0.000219351
0.00264943
0.000268824
0.00257407
0.000267194
0.00251018
0.000226945
0.00246473
0.000157478
0.0024445
6.2315e-05
0.00245646
-5.42143e-05
0.00250373
-0.000176632
0.0025804
-0.000275721
0.00267028
-0.000319137
0.00275173
-0.000288278
0.00280523
-0.000188796
0.00281956
-4.8442e-05
0.00279414
9.44749e-05
0.00273793
0.000205228
0.00266534
0.000263869
0.00259129
0.000268126
0.00252803
0.000227304
0.002485
0.000152475
0.00247001
5.17254e-05
0.00248853
-6.5242e-05
0.00254009
-0.000179481
0.00261538
-0.000263421
0.00269745
-0.000291808
0.00276708
-0.00025444
0.00280898
-0.000161234
0.00281592
-3.73457e-05
0.0027893
8.68393e-05
0.00273721
0.000184972
0.00267131
0.000240628
0.00260399
0.000248718
0.00254666
0.000212766
0.00250926
0.00014034
0.00249977
4.10069e-05
0.00252225
-7.1015e-05
0.00257391
-0.000174084
0.00264411
-0.000242962
0.00271672
-0.000258571
0.00277509
-0.000216702
0.00280707
-0.000129713
0.00280782
-2.08169e-05
0.00277982
8.47527e-05
0.00273081
0.000166912
0.00267097
0.000213897
0.00261086
0.000221504
0.00256054
0.000190493
0.00252924
0.000124811
0.00252433
3.24891e-05
0.00254892
-7.15769e-05
0.00259939
-0.000165326
0.00266507
-0.000225181
0.00273106
-0.000235131
0.00278264
-0.00019334
0.00280944
-0.000112447
0.00280765
-1.3991e-05
0.00278
7.94953e-05
0.00273381
0.000150912
0.00267848
0.000191142
0.00262357
0.000197472
0.00257817
0.000170333
0.00255074
0.000111814
0.00254814
2.76111e-05
0.00257334
-6.94877e-05
0.00262317
-0.000159238
0.002688
-0.000219358
0.00275419
-0.000233935
0.00280791
-0.000199586
0.00283886
-0.000126245
0.00284245
-3.29452e-05
0.00282018
5.88328e-05
0.00277835
0.000131425
0.00272583
0.000174741
0.00267188
0.000186141
0.00262506
0.000167211
0.00259315
0.000120446
0.002583
4.90063e-05
0.00259916
-4.00849e-05
0.0026417
-0.00013297
0.00270485
-0.000210629
0.00277796
-0.000255228
0.00284835
-0.000256984
0.00290475
-0.000217398
0.00293974
-0.00014788
0.00295087
-6.53854e-05
0.0029404
1.2713e-05
0.00291409
7.28128e-05
0.00287946
0.000107527
0.00284399
0.000116047
0.00281387
0.000102605
0.00279335
7.40359e-05
0.00278468
3.77086e-05
0.00278809
7.42761e-07
0.00280162
-3.01955e-05
0.00282122
-4.91432e-05
0.00284153
-5.25649e-05
0.00285714
-4.02524e-05
0.00286423
-1.70788e-05
0.00286144
1.03238e-05
0.00285031
3.172e-05
0.00283469
4.27519e-05
0.00281808
3.80442e-05
3.09405e-06
0.00250186
-9.96289e-06
0.00250741
-2.97218e-05
0.0025171
-5.12474e-05
0.00253175
-7.58407e-05
0.00255245
-0.000104322
0.00258027
-0.00013607
0.00261593
-0.000169085
0.00265892
-0.000198183
0.00270727
-0.000217563
0.00275649
-0.000219085
0.00280075
-0.000198086
0.00283659
-0.000160745
0.00286153
-0.000110312
0.00287347
-4.91101e-05
0.00286969
2.2452e-05
0.00284729
0.000101919
0.00280643
0.000177512
0.00275165
0.00023371
0.00269046
0.000259101
0.00263146
0.000248547
0.00258315
0.000202085
0.00255326
0.00012384
0.0025482
2.19196e-05
0.00257158
-8.93721e-05
0.00262086
-0.000185665
0.00268423
-0.000235437
0.00274238
-0.000215106
0.0027764
-0.000127045
0.00277661
-1.41797e-06
0.00274502
0.000122108
0.00269117
0.00021474
0.00262633
0.000265222
0.00256031
0.000273745
0.00250127
0.000243605
0.00245714
0.00017642
0.00243686
7.23787e-05
0.00244975
-6.41235e-05
0.0025014
-0.00021426
0.00258736
-0.000339134
0.00268914
-0.00039092
0.0027781
-0.000339875
0.00282804
-0.000197728
0.00282801
-1.3815e-05
0.00278458
0.000154396
0.0027143
0.00026954
0.00263419
0.000322562
0.00255668
0.000322028
0.00248969
0.000279442
0.00243927
0.000200831
0.00241245
8.67037e-05
0.00241831
-6.05434e-05
0.00246434
-0.000223952
0.00254858
-0.000364535
0.00265462
-0.000432255
0.00275534
-0.00039297
0.00282327
-0.000251044
0.00284125
-5.03255e-05
0.00280844
0.000146866
0.0027388
0.000288991
0.00265273
0.000354886
0.00256801
0.000351913
0.00249591
0.000299052
0.00244376
0.000209626
0.00241967
8.63992e-05
0.00243283
-6.73678e-05
0.00248726
-0.000231061
0.00257502
-0.000363488
0.00267607
-0.000420184
0.00276533
-0.000377535
0.00282185
-0.000245313
0.00283485
-6.14506e-05
0.00280514
0.00012419
0.00274294
0.000267428
0.00266362
0.000343187
0.00258284
0.000348909
0.00251365
0.000296489
0.00246684
0.000199288
0.00245202
6.65476e-05
0.00247573
-8.89508e-05
0.00253657
-0.000240328
0.00262246
-0.000349308
0.00271329
-0.000382638
0.00278759
-0.000328739
0.0028293
-0.000202941
0.0028318
-3.98461e-05
0.00279817
0.000120472
0.00273842
0.000244718
0.00266563
0.000313422
0.00259284
0.000321504
0.00253194
0.000273663
0.00249373
0.000178555
0.00248718
4.7551e-05
0.00251648
-0.000100314
0.00257739
-0.000234994
0.00265674
-0.000322305
0.00273603
-0.00033786
0.0027972
-0.000277878
0.00282773
-0.000160238
0.00282332
-1.64127e-05
0.00278785
0.000120227
0.0027308
0.000223961
0.00266391
0.000280785
0.00259876
0.000286655
0.00254609
0.00024316
0.0025158
0.000155099
0.00251564
3.26487e-05
0.00254814
-0.000104067
0.00260784
-0.000225034
0.00268179
-0.000299129
0.00275319
-0.000306534
0.00280643
-0.000246572
0.00283106
-0.000137084
0.00282389
-6.81994e-06
0.00278873
0.000114656
0.00273436
0.000205281
0.00267164
0.000253864
0.00261135
0.000257756
0.00256356
0.000218127
0.00253744
0.000137931
0.00254005
2.50035e-05
0.00257351
-0.000102952
0.00263272
-0.000218448
0.00270579
-0.000292419
0.00277734
-0.000305489
0.00283287
-0.000255112
0.00286215
-0.00015553
0.00286113
-3.19276e-05
0.00283211
8.78595e-05
0.00278242
0.000181111
0.00272211
0.000235049
0.00266161
0.000246648
0.00261054
0.000218274
0.00257769
0.000153299
0.00257052
5.61727e-05
0.00259334
-6.29057e-05
0.00264469
-0.00018432
0.00271645
-0.000282381
0.00279576
-0.000334546
0.00286883
-0.000330051
0.00292435
-0.00027292
0.00295566
-0.00017918
0.00296125
-7.09837e-05
0.00294434
2.96274e-05
0.00291152
0.000105637
0.00287105
0.000147993
0.00283109
0.00015601
0.00279838
0.000135305
0.00277774
9.4678e-05
0.00277178
4.36737e-05
0.0027806
-8.07632e-06
0.00280142
-5.10163e-05
0.00282869
-7.642e-05
0.00285533
-7.92032e-05
0.00287458
-5.95026e-05
0.00288198
-2.4481e-05
0.00287638
1.59262e-05
0.00285976
4.83429e-05
0.00283741
6.51025e-05
0.00281232
6.3133e-05
1.59186e-05
0.00250173
-1.16928e-05
0.0025069
-3.48901e-05
0.00251604
-6.03875e-05
0.00253013
-8.99298e-05
0.00255052
-0.000124714
0.00257867
-0.000164223
0.00261578
-0.000206196
0.00266164
-0.00024404
0.0027144
-0.000270325
0.00276854
-0.000273221
0.00281683
-0.000246376
0.00285578
-0.0001997
0.00288322
-0.000137744
0.00289727
-6.31623e-05
0.00289449
2.52253e-05
0.00287048
0.000125934
0.00282477
0.000223226
0.00276265
0.000295828
0.00269299
0.00032876
0.00262566
0.000315873
0.00257021
0.000257539
0.00253544
0.000158608
0.00252931
2.80514e-05
0.00255735
-0.000117413
0.00261787
-0.000246183
0.00269683
-0.0003144
0.00276955
-0.000287822
0.00281162
-0.000169122
0.00281126
-1.05689e-06
0.00277239
0.000160977
0.0027082
0.000278932
0.00263274
0.00034068
0.00255695
0.000349535
0.00248909
0.000311469
0.00243708
0.00022843
0.00241016
9.93005e-05
0.00241837
-7.23378e-05
0.00246964
-0.000265524
0.00256359
-0.000433087
0.00268368
-0.000511009
0.00279616
-0.000452353
0.0028642
-0.000265776
0.0028689
-1.85071e-05
0.00281744
0.000205856
0.00273299
0.000353986
0.00263887
0.000416683
0.00255002
0.000410877
0.00247341
0.000356052
0.00241319
0.00026105
0.00237688
0.000123016
0.00237768
-6.13456e-05
0.00242735
-0.000273623
0.00252352
-0.000460703
0.00264486
-0.000553593
0.00275921
-0.000507321
0.00283666
-0.000328498
0.00285931
-7.29772e-05
0.00282574
0.000180434
0.00275012
0.000364614
0.00265469
0.000450322
0.00255963
0.000446972
0.00247796
0.000380722
0.00241862
0.000268963
0.00239219
0.00011283
0.00240993
-8.51064e-05
0.00247506
-0.000296196
0.00257591
-0.000464332
0.00268823
-0.000532511
0.00278429
-0.00047359
0.0028422
-0.000303224
0.00285181
-7.10597e-05
0.0028156
0.000160404
0.00274564
0.000337379
0.00265852
0.000430308
0.00257051
0.000436925
0.00249547
0.000371527
0.00244581
0.000248945
0.002433
7.93557e-05
0.00246394
-0.000119887
0.00253517
-0.000311561
0.00263133
-0.000445465
0.00272968
-0.000480992
0.00280748
-0.000406537
0.00284835
-0.000243814
0.00284607
-3.75655e-05
0.00280492
0.000161626
0.00273672
0.000312915
0.0026562
0.00039395
0.00257745
0.000400245
0.0025132
0.000337913
0.00247525
0.000216511
0.00247328
4.95224e-05
0.00251079
-0.000137827
0.00258129
-0.000305499
0.00266894
-0.000409952
0.00275344
-0.000422364
0.00281612
-0.000340557
0.00284455
-0.000188662
0.00283492
-6.78912e-06
0.00279206
0.000163088
0.00272689
0.000289134
0.00265268
0.00035499
0.00258233
0.00035701
0.00252764
0.000297853
0.00249932
0.000183419
0.00250519
2.67727e-05
0.0025465
-0.000145376
0.0026154
-0.000293935
0.00269654
-0.000380264
0.00277176
-0.000381759
0.00282523
-0.000300038
0.00284692
-0.000158774
0.00283424
5.85648e-06
0.00279184
0.000157061
0.0027296
0.000267521
0.00265969
0.000323772
0.00259424
0.00032321
0.00254452
0.000267847
0.00252058
0.000161862
0.00252944
1.61502e-05
0.00257177
-0.00014528
0.00264001
-0.000286688
0.00271996
-0.000372373
0.00279505
-0.000380577
0.0028507
-0.000310759
0.00287727
-0.0001821
0.00287137
-2.60359e-05
0.00283594
0.000123293
0.00277903
0.000238026
0.00271157
0.00030251
0.00264506
0.000313153
0.00259038
0.000272953
0.00255747
0.000186207
0.0025544
5.92452e-05
0.00258473
-9.32312e-05
0.00264479
-0.000244384
0.00272374
-0.000361331
0.00280681
-0.000417614
0.00287969
-0.000402935
0.0029318
-0.000325033
0.00295768
-0.000205054
0.00295697
-7.0275e-05
0.00293372
5.28744e-05
0.00289516
0.000144196
0.00285007
0.000193089
0.00280709
0.000198992
0.00277356
0.000168836
0.00275488
0.000113358
0.00275398
4.45678e-05
0.00277053
-2.46261e-05
0.00280029
-8.07771e-05
0.00283564
-0.000111769
0.00286758
-0.000111138
0.00288828
-8.0212e-05
0.00289322
-2.94186e-05
0.00288195
2.71996e-05
0.00285732
7.29718e-05
0.00282616
9.62591e-05
0.00279094
9.8359e-05
3.56278e-05
0.00250156
-1.32514e-05
0.00250622
-3.95515e-05
0.0025146
-6.87706e-05
0.00252788
-0.000103203
0.00254771
-0.00014455
0.00257608
-0.000192588
0.00261481
-0.000244924
0.00266419
-0.000293424
0.00272265
-0.000328783
0.00278313
-0.000333706
0.00283637
-0.000299617
0.00287896
-0.000242282
0.00290927
-0.000168058
0.00292602
-7.99145e-05
0.00292494
2.63132e-05
0.00289938
0.000151489
0.00284783
0.000274774
0.00277652
0.000367142
0.00269612
0.000409156
0.00261815
0.000393843
0.0025534
0.000322293
0.00251193
0.000200072
0.00250376
3.62224e-05
0.00253747
-0.00015112
0.00261309
-0.000321803
0.00271334
-0.000414654
0.00280558
-0.000380062
0.00285787
-0.000221405
0.00285598
8.25971e-07
0.00280692
0.000210044
0.00272902
0.000356827
0.00264009
0.000429613
0.00255235
0.000437274
0.00247387
0.000389956
0.00241156
0.00029074
0.00237293
0.000137929
0.00236796
-6.73719e-05
0.00240994
-0.000307505
0.00250673
-0.000529874
0.00264527
-0.000649552
0.00278722
-0.000594301
0.00288441
-0.000362973
0.00290543
-3.95215e-05
0.00285266
0.000258625
0.00275485
0.000451797
0.00264443
0.000527101
0.00254153
0.000513779
0.00245284
0.000444741
0.00238104
0.000332847
0.00233604
0.000168019
0.0023366
-6.19019e-05
0.00239661
-0.000333636
0.00250924
-0.000573333
0.00264638
-0.000690737
0.00277158
-0.000632522
0.00285403
-0.000410942
0.00287691
-9.58634e-05
0.00283999
0.000217361
0.00275788
0.000446724
0.00265344
0.000554763
0.00254813
0.000552278
0.00245682
0.000472028
0.00239118
0.000334608
0.00236479
0.000139219
0.00238976
-0.000110081
0.00246648
-0.000372909
0.00257882
-0.000576675
0.00269963
-0.000653323
0.00280027
-0.000574229
0.00285875
-0.000361699
0.00286496
-7.72749e-05
0.00282222
0.000203148
0.00274422
0.000415374
0.00264904
0.00052549
0.0025539
0.000532069
0.00247374
0.000451681
0.0024227
0.000299982
0.0024136
8.84615e-05
0.00245257
-0.000158857
0.00253328
-0.00039227
0.0026373
-0.000549483
0.00274036
-0.000584053
0.00281964
-0.000485818
0.00285912
-0.000283301
0.00285277
-3.12115e-05
0.00280526
0.000209131
0.00272953
0.00038865
0.00264176
0.000481718
0.00255747
0.000484539
0.00249062
0.000404759
0.00245414
0.000252996
0.00245789
4.57651e-05
0.00250385
-0.000183782
0.00258277
-0.000384416
0.00267645
-0.000503633
0.00276369
-0.000509605
0.00282608
-0.000402952
0.00285182
-0.000214395
0.00283753
7.49589e-06
0.00278848
0.000212142
0.0027164
0.000361208
0.00263582
0.000435575
0.00256102
0.000431813
0.00250516
0.000353708
0.00247983
0.000208745
0.00249251
1.41006e-05
0.00254246
-0.000195333
0.00261916
-0.00037063
0.00270522
-0.000466326
0.00278192
-0.000458456
0.0028339
-0.000352026
0.00285198
-0.000176851
0.00283418
2.36602e-05
0.00278561
0.000205623
0.00271683
0.000336309
0.00264096
0.000399643
0.00257141
0.000392759
0.00252082
0.000318436
0.0025001
0.000182583
0.0025158
4.49569e-07
0.00256659
-0.000196077
0.00264225
-0.000362341
0.00272664
-0.000456764
0.00280272
-0.000456655
0.00285655
-0.000364592
0.00287947
-0.00020502
0.00286881
-1.53819e-05
0.00282792
0.00016419
0.00276517
0.00030077
0.00269204
0.00037564
0.00262093
0.000384263
0.00256397
0.000329916
0.00253233
0.000217848
0.0025344
5.71767e-05
0.00257236
-0.000131199
0.00263982
-0.000311835
0.00272323
-0.000444747
0.0028066
-0.000500982
0.00287601
-0.000472347
0.00292223
-0.000371254
0.00294128
-0.000224104
0.00293395
-6.29436e-05
0.00290498
8.18473e-05
0.00286199
0.000187187
0.00281403
0.000241043
0.00277014
0.000242889
0.00273821
0.000200766
0.00272423
0.000127338
0.00273115
3.76444e-05
0.00275749
-5.09612e-05
0.00279675
-0.000120038
0.00283887
-0.00015389
0.00287328
-0.000145549
0.0028919
-9.88325e-05
0.00289093
-2.84453e-05
0.00287114
4.69891e-05
0.00283655
0.000107556
0.00279531
0.0001375
0.00274953
0.000144142
6.17894e-05
0.00250134
-1.45881e-05
0.00250534
-4.35543e-05
0.00251271
-7.61451e-05
0.00252484
-0.000115326
0.00254375
-0.000163463
0.00257206
-0.000220903
0.00261247
-0.000285325
0.00266606
-0.000347021
0.00273182
-0.000394543
0.00280043
-0.000402318
0.00285966
-0.000358846
0.00290644
-0.000289063
0.00294028
-0.000201892
0.00296087
-0.000100505
0.00296255
2.46345e-05
0.00293527
0.000178765
0.00287611
0.000333931
0.00279293
0.000450321
0.00269902
0.000503065
0.00260788
0.000484989
0.0025315
0.000398669
0.00248115
0.000250427
0.00246959
4.77802e-05
0.00251059
-0.000192125
0.00260747
-0.000418681
0.00273765
-0.000544833
0.00285582
-0.000498233
0.00291965
-0.000285235
0.0029134
7.07531e-06
0.00284953
0.000273912
0.00275359
0.00045277
0.00264801
0.000535197
0.0025463
0.000538978
0.00245549
0.000480767
0.00237937
0.000366864
0.0023223
0.000195
0.00229795
-4.30264e-05
0.00233097
-0.000340522
0.00243587
-0.000634778
0.00259518
-0.000808861
0.00276349
-0.000762605
0.00288774
-0.000487231
0.00292934
-8.11192e-05
0.00288271
0.000305256
0.00277631
0.000558203
0.00265011
0.000653299
0.0025313
0.000632587
0.00242855
0.000547494
0.00234525
0.000416139
0.00229539
0.000217881
0.00230171
-6.8219e-05
0.0023757
-0.00040763
0.00250356
-0.000701191
0.00265229
-0.00083946
0.00278437
-0.00076461
0.00286931
-0.000495876
0.00289069
-0.000117244
0.00284915
0.000258898
0.00276029
0.000535586
0.00264747
0.000667578
0.00253284
0.000666911
0.00243309
0.000571783
0.00236306
0.000404637
0.00233891
0.000163363
0.0023719
-0.000143067
0.00245831
-0.00045932
0.00257819
-0.000696554
0.00270318
-0.000778309
0.00280544
-0.000676492
0.00286378
-0.000420042
0.00286788
-8.13696e-05
0.00282061
0.000250411
0.00273625
0.000499738
0.00263412
0.000627615
0.00253282
0.00063337
0.00244885
0.000535658
0.00239801
0.000350821
0.00239365
9.28182e-05
0.00244013
-0.000205341
0.00252797
-0.000480106
0.00263643
-0.000657943
0.00274087
-0.000688487
0.00281935
-0.000564307
0.00285681
-0.000320757
0.00284738
-2.17783e-05
0.00279553
0.000260981
0.00271438
0.000469793
0.00262109
0.000575015
0.00253258
0.000573046
0.00246441
0.00047293
0.00243057
0.000286837
0.00244052
3.58102e-05
0.00249401
-0.000237269
0.00257903
-0.00046943
0.00267573
-0.000600341
0.00276295
-0.000596819
0.00282326
-0.000463259
0.00284582
-0.000236958
0.0028277
2.56163e-05
0.00277418
0.000265656
0.00269723
0.000438164
0.0026121
0.000520705
0.00253438
0.000509527
0.00247869
0.000409401
0.00245734
0.000230097
0.00247692
-5.48426e-06
0.00253431
-0.000252722
0.00261639
-0.000452702
0.00270447
-0.000554414
0.0027801
-0.000534085
0.00282902
-0.000400941
0.00284307
-0.000190899
0.00282084
4.58844e-05
0.00276765
0.000258812
0.00269423
0.000409736
0.00261429
0.00047958
0.00254236
0.000464689
0.00249238
0.000368414
0.00247589
0.000199074
0.00249847
-2.21308e-05
0.00255636
-0.000253971
0.00263685
-0.000442823
0.00272263
-0.000542552
0.00279705
-0.000531071
0.00284734
-0.000414885
0.002866
-0.000223679
0.00285103
-4.12845e-07
0.00280596
0.000209263
0.00273918
0.000367552
0.00266234
0.00045248
0.00258853
0.000458068
0.00253109
0.000387362
0.00250224
0.000246693
0.00251019
4.92285e-05
0.00255506
-0.000176068
0.00262745
-0.00038423
0.00271176
-0.000529056
0.00279173
-0.000580948
0.00285467
-0.00053529
0.0028931
-0.000409681
0.00290453
-0.00023554
0.00289075
-4.91593e-05