/*--------------------------------*- C++ -*----------------------------------*\
  =========                 |
  \\      /  F ield         | OpenFOAM: The Open Source CFD Toolbox
   \\    /   O peration     | Website:  https://openfoam.org
    \\  /    A nd           | Version:  11
     \\/     M anipulation  |
\*---------------------------------------------------------------------------*/
FoamFile
{
    format      ascii;
    class       volVectorField;
    location    "19.315244";
    object      U;
}
// * * * * * * * * * * * * * * * * * * * * * * * * * * * * * * * * * * * * * //

dimensions      [0 1 -1 0 0 0 0];

internalField   nonuniform List<vector> 
7132
(
(1.00011 -0.000207716 3.73528e-18)
(1.0016 -0.0006195 1.28883e-17)
(1.00497 -0.00105991 1.35596e-17)
(1.01011 -0.0015478 1.67112e-17)
(1.01733 -0.00209219 2.26118e-17)
(1.02684 -0.00267403 2.23087e-17)
(1.03874 -0.00324987 1.97766e-17)
(1.05288 -0.00373137 1.7197e-17)
(1.06867 -0.00402019 1.49098e-17)
(1.08517 -0.00401068 1.30075e-17)
(1.10091 -0.00363429 1.15853e-17)
(1.11444 -0.00294416 1.07184e-17)
(1.12462 -0.00198569 1.02518e-17)
(1.13047 -0.000808712 1.00609e-17)
(1.13124 0.000532933 7.74356e-18)
(1.12637 0.00194554 5.66464e-18)
(1.11584 0.00323479 4.26217e-18)
(1.10059 0.0041684 4.83901e-18)
(1.0825 0.00456593 3.7425e-18)
(1.06399 0.00433676 3.70513e-18)
(1.04767 0.00348265 3.80394e-18)
(1.03597 0.0020945 3.12067e-18)
(1.03079 0.000354427 4.40719e-18)
(1.03312 -0.00145056 -2.05025e-18)
(1.04255 -0.00292006 -7.07459e-17)
(1.05682 -0.00361637 -1.66103e-16)
(1.07195 -0.00325313 -1.57836e-16)
(1.08334 -0.00188943 -7.26546e-17)
(1.08746 6.32717e-05 -1.24917e-17)
(1.08303 0.0020506 2.66192e-17)
(1.07104 0.00362025 4.7179e-17)
(1.05389 0.00452667 -1.59512e-16)
(1.03453 0.0046925 -5.41509e-16)
(1.01599 0.00412551 7.51882e-16)
(1.00114 0.00286495 6.69611e-15)
(0.992673 0.000988536 9.2458e-15)
(0.992901 -0.00132475 -5.06145e-14)
(1.00313 -0.00369986 -3.04053e-13)
(1.02264 -0.00554471 -7.7062e-13)
(1.04792 -0.00622412 -1.14578e-12)
(1.07305 -0.00538838 -1.08231e-12)
(1.09166 -0.00322004 -6.66538e-13)
(1.09929 -0.000374429 -2.66438e-13)
(1.09486 0.00235209 -5.16799e-14)
(1.0804 0.00436723 3.20745e-14)
(1.05964 0.00542219 3.53758e-14)
(1.03664 0.00552645 -4.66868e-14)
(1.015 0.00478624 -1.98907e-13)
(0.997893 0.00329538 -2.07101e-13)
(0.988187 0.00113826 6.57024e-13)
(0.988416 -0.00150372 4.1424e-12)
(1.00006 -0.00421646 1.20395e-11)
(1.02233 -0.00633589 2.30335e-11)
(1.05127 -0.00715378 3.13978e-11)
(1.08028 -0.00627171 3.129e-11)
(1.10216 -0.00386292 2.30464e-11)
(1.11171 -0.000633193 1.30194e-11)
(1.10745 0.00250474 5.9941e-12)
(1.09157 0.00482205 1.80117e-12)
(1.06852 0.00598947 3.24605e-13)
(1.04319 0.00603218 1.73078e-12)
(1.01978 0.00513875 2.27282e-12)
(1.0016 0.00348968 -1.13891e-11)
(0.991382 0.0012196 -6.26896e-11)
(0.991407 -0.00147608 -1.74649e-10)
(1.0029 -0.00419612 -3.52064e-10)
(1.02494 -0.00631897 -5.65736e-10)
(1.05373 -0.00719364 -7.54152e-10)
(1.08304 -0.00644361 -8.50574e-10)
(1.10596 -0.00418605 -8.18861e-10)
(1.11718 -0.00102078 -6.70588e-10)
(1.11458 0.00220322 -4.56062e-10)
(1.09971 0.00471204 -2.40873e-10)
(1.07674 0.00605711 -7.70263e-11)
(1.05089 0.00617077 1.14197e-11)
(1.02691 0.00523978 1.79528e-11)
(1.00846 0.00351619 -6.73788e-11)
(0.998274 0.00122025 -2.63661e-10)
(0.998264 -0.00139916 -5.81974e-10)
(1.00919 -0.00394506 -1.00242e-09)
(1.02979 -0.00586861 -1.46479e-09)
(1.05636 -0.00663835 -1.88009e-09)
(1.08331 -0.0059787 -2.15638e-09)
(1.10469 -0.00401385 -2.22633e-09)
(1.1159 -0.0012333 -2.06551e-09)
(1.11492 0.00168197 -1.69857e-09)
(1.10263 0.00407828 -1.19746e-09)
(1.08229 0.00550625 -6.75951e-10)
(1.05841 0.00579586 -2.61686e-10)
(1.03562 0.0050208 -5.24432e-11)
(1.01786 0.00339227 -8.52006e-11)
(1.00809 0.00117559 -3.36327e-10)
(1.00815 -0.0013035 -7.44432e-10)
(1.01839 -0.00361537 -1.23456e-09)
(1.03719 -0.00526369 -1.73287e-09)
(1.06083 -0.00583445 -2.17376e-09)
(1.08429 -0.0051691 -2.50311e-09)
(1.10257 -0.0034404 -2.67845e-09)
(1.11208 -0.00108608 -2.66732e-09)
(1.11138 0.00134638 -2.44851e-09)
(1.10129 0.00336063 -2.02527e-09)
(1.08437 0.00461407 -1.4551e-09)
(1.06418 0.00494571 -8.62629e-10)
(1.04456 0.00435577 -4.04592e-10)
(1.02908 0.00296881 -1.98761e-10)
(1.02059 0.00101301 -2.70947e-10)
(1.02085 -0.00117518 -5.59858e-10)
(1.03003 -0.00316386 -9.64607e-10)
(1.0464 -0.00450694 -1.39168e-09)
(1.06646 -0.00488284 -1.77655e-09)
(1.08586 -0.00421713 -2.08257e-09)
(1.10051 -0.00271115 -2.28947e-09)
(1.1077 -0.000760775 -2.38023e-09)
(1.10657 0.00118314 -2.33241e-09)
(1.09807 0.00274373 -2.12254e-09)
(1.08437 0.00368343 -1.75128e-09)
(1.06832 0.003901 -1.2723e-09)
(1.0529 0.00339981 -7.93484e-10)
(1.04091 0.00226782 -4.35896e-10)
(1.03464 0.000685822 -2.76469e-10)
(1.03543 -0.0010586 -3.19029e-10)
(1.04327 -0.00259826 -5.09824e-10)
(1.05653 -0.00357495 -7.75469e-10)
(1.07226 -0.0037576 -1.05343e-09)
(1.08696 -0.00312747 -1.30312e-09)
(1.09753 -0.00188089 -1.50215e-09)
(1.10208 -0.000351254 -1.63637e-09)
(1.10024 0.00110605 -1.69034e-09)
(1.093 0.00221284 -1.64456e-09)
(1.08223 0.00281167 -1.48522e-09)
(1.07018 0.00285467 -1.22186e-09)
(1.05911 0.00237122 -8.98302e-10)
(1.05101 0.00144994 -5.83002e-10)
(1.04743 0.000245757 -3.4154e-10)
(1.04911 -0.00101264 -2.10661e-10)
(1.05575 -0.00205167 -1.90681e-10)
(1.06586 -0.00262468 -2.56238e-10)
(1.07713 -0.00259645 -3.73195e-10)
(1.08697 -0.00199395 -5.10845e-10)
(1.09328 -0.00099453 -6.46197e-10)
(1.09496 0.000140111 -7.62406e-10)
(1.09204 0.0011505 -8.44972e-10)
(1.08551 0.00184786 -8.7954e-10)
(1.07694 0.00213902 -8.54113e-10)
(1.06808 0.00201333 -7.65274e-10)
(1.06056 0.00151721 -6.23932e-10)
(1.05575 0.000740413 -4.54916e-10)
(1.05457 -0.000181117 -2.89011e-10)
(1.05727 -0.00106699 -1.52194e-10)
(1.06333 -0.00172067 -5.8595e-11)
(1.07133 -0.00198426 -9.96636e-12)
(1.07959 -0.00179616 3.3503e-13)
(1.08595 -0.00121221 -1.74674e-11)
(1.08956 -0.00040048 -5.28139e-11)
(1.08904 0.000451832 -9.60737e-11)
(1.08608 0.00111138 -1.38424e-10)
(1.07954 0.00155624 -1.72287e-10)
(1.07389 0.00151362 -1.89082e-10)
(1.06635 0.00150444 -1.93386e-10)
(1.06263 0.000345653 -1.48787e-10)
(1.00011 -0.000621066 6.24714e-20)
(1.00159 -0.00185297 6.60439e-19)
(1.00492 -0.00317194 1.27901e-18)
(1.01003 -0.00463668 1.89879e-18)
(1.01723 -0.00627559 2.64923e-18)
(1.02676 -0.00803286 3.2906e-18)
(1.03874 -0.00977882 3.52521e-18)
(1.05304 -0.011245 4.55135e-18)
(1.0691 -0.0121324 2.57002e-18)
(1.08593 -0.012114 1.96327e-18)
(1.10201 -0.0109795 3.50786e-18)
(1.11581 -0.00890278 5.60123e-18)
(1.12621 -0.00602497 4.52077e-18)
(1.13225 -0.00249971 3.66836e-18)
(1.13312 0.00151803 3.9407e-18)
(1.12823 0.005763 4.90675e-18)
(1.11746 0.00965679 5.97253e-18)
(1.10179 0.0124966 7.05784e-18)
(1.08313 0.0137308 7.81117e-18)
(1.064 0.0130755 7.02673e-18)
(1.0471 0.0105251 3.78225e-18)
(1.03494 0.00634318 4.61181e-18)
(1.02952 0.00107032 1.02169e-17)
(1.03195 -0.00443002 -8.43862e-17)
(1.0419 -0.00893673 -4.70136e-16)
(1.05707 -0.0110969 -9.80249e-16)
(1.07322 -0.0100135 -1.02435e-15)
(1.08542 -0.00585836 -5.14032e-16)
(1.0899 0.000103887 -7.95756e-17)
(1.08534 0.00616985 1.03045e-16)
(1.07286 0.0109568 -1.06951e-16)
(1.05505 0.0137255 -5.11507e-16)
(1.03497 0.0142532 2.00277e-15)
(1.01571 0.0125711 5.03632e-15)
(1.00016 0.00879313 -2.92044e-14)
(0.991114 0.00313396 -1.09992e-13)
(0.991033 -0.00389279 1.84788e-13)
(1.00145 -0.011163 2.08805e-12)
(1.0218 -0.0168579 5.98223e-12)
(1.04842 -0.0190013 9.0328e-12)
(1.07499 -0.0164934 8.30827e-12)
(1.09462 -0.00988869 4.99137e-12)
(1.10258 -0.00120538 1.94591e-12)
(1.09781 0.00710938 3.42329e-13)
(1.08259 0.013245 -1.25612e-13)
(1.06093 0.0164555 -1.70597e-13)
(1.03704 0.0167892 -7.92059e-14)
(1.01458 0.0145817 5.09561e-13)
(0.996712 0.0101118 1.14583e-12)
(0.986359 0.00360656 -3.31208e-12)
(0.986238 -0.00442277 -2.5201e-11)
(0.99808 -0.0127322 -7.92915e-11)
(1.02124 -0.0192729 -1.61116e-10)
(1.05165 -0.0218381 -2.30607e-10)
(1.08229 -0.019183 -2.43209e-10)
(1.1054 -0.0118412 -1.95435e-10)
(1.11542 -0.00198653 -1.19533e-10)
(1.11081 0.00758475 -5.0933e-11)
(1.09405 0.0146437 -1.06607e-11)
(1.06991 0.0181933 5.27833e-12)
(1.04355 0.0183314 1.16057e-11)
(1.01925 0.0156527 1.01785e-11)
(1.00027 0.0107087 -3.27871e-11)
(0.989325 0.00388293 -1.93779e-10)
(0.988789 -0.00427281 -5.61993e-10)
(1.00011 -0.0125664 -1.16771e-09)
(1.02257 -0.0191024 -1.90624e-09)
(1.05235 -0.0218683 -2.54012e-09)
(1.08298 -0.0196809 -2.81544e-09)
(1.10718 -0.0128741 -2.61776e-09)
(1.11926 -0.00326828 -2.04049e-09)
(1.11692 0.00654986 -1.31089e-09)
(1.10171 0.0142137 -6.52467e-10)
(1.07802 0.0183457 -1.96802e-10)
(1.05127 0.0187383 3.09718e-11)
(1.02638 0.0159671 5.807e-11)
(1.0071 0.0107998 -1.05074e-10)
(0.996197 0.00388639 -4.86293e-10)
(0.995756 -0.00404826 -1.10995e-09)
(1.00672 -0.0118128 -1.93313e-09)
(1.02792 -0.0177237 -2.82086e-09)
(1.05547 -0.0201359 -3.58239e-09)
(1.08346 -0.0181924 -4.0359e-09)
(1.10563 -0.0122708 -4.06463e-09)
(1.11724 -0.00386335 -3.6536e-09)
(1.11627 0.00496565 -2.8968e-09)
(1.10371 0.0122397 -1.96658e-09)
(1.0829 0.0165999 -1.07056e-09)
(1.05844 0.0175303 -3.9613e-10)
(1.03502 0.0152468 -6.23687e-11)
(1.01666 0.0103727 -1.02275e-10)
(1.00643 0.0036873 -4.75244e-10)
(1.00638 -0.0038411 -1.09071e-09)
(1.01702 -0.010903 -1.82818e-09)
(1.03667 -0.01596 -2.55874e-09)
(1.06136 -0.0177235 -3.17014e-09)
(1.08572 -0.0157053 -3.58225e-09)
(1.10449 -0.0104483 -3.74585e-09)
(1.11398 -0.00330389 -3.63541e-09)
(1.11288 0.00406107 -3.2489e-09)
(1.10219 0.0101496 -2.61944e-09)
(1.08463 0.0139375 -1.84004e-09)
(1.06387 0.0149497 -1.06945e-09)
(1.04378 0.0131885 -4.91116e-10)
(1.02796 0.00901757 -2.37937e-10)
(1.01935 0.00310582 -3.36366e-10)
(1.01984 -0.00354274 -7.09822e-10)
(1.02967 -0.00960982 -1.22876e-09)
(1.04698 -0.0137139 -1.76674e-09)
(1.06806 -0.0148553 -2.23366e-09)
(1.08821 -0.0128072 -2.58067e-09)
(1.10316 -0.00820059 -2.78697e-09)
(1.11013 -0.0022589 -2.8417e-09)
(1.10842 0.00364132 -2.73151e-09)
(1.09913 0.00836026 -2.44307e-09)
(1.08465 0.0111876 -1.98741e-09)
(1.06794 0.0118286 -1.42879e-09)
(1.05206 0.0102994 -8.85646e-10)
(1.03985 0.0068626 -4.87726e-10)
(1.03366 0.00205541 -3.1603e-10)
(1.0349 -0.00325687 -3.71794e-10)
(1.04352 -0.0079516 -5.92539e-10)
(1.05776 -0.0109229 -8.93388e-10)
(1.0744 -0.0114571 -1.20184e-09)
(1.08972 -0.00950226 -1.47134e-09)
(1.10045 -0.00567224 -1.67752e-09)
(1.10471 -0.00099629 -1.80708e-09)
(1.10223 0.00344008 -1.84684e-09)
(1.09417 0.00679385 -1.78007e-09)
(1.08259 0.00859329 -1.59572e-09)
(1.06985 0.00870065 -1.30613e-09)
(1.05831 0.00720948 -9.58203e-10)
(1.05003 0.00438819 -6.23292e-10)
(1.04661 0.000704197 -3.68765e-10)
(1.0488 -0.00314696 -2.31382e-10)
(1.05623 -0.00632424 -2.09969e-10)
(1.06726 -0.00806536 -2.77091e-10)
(1.07934 -0.00795421 -3.96916e-10)
(1.0897 -0.00608004 -5.37772e-10)
(1.09612 -0.00299686 -6.762e-10)
(1.0975 0.000487054 -7.95015e-10)
(1.09398 0.00357737 -8.79285e-10)
(1.0867 0.00570027 -9.14128e-10)
(1.07737 0.00657601 -8.87117e-10)
(1.06785 0.00617651 -7.94763e-10)
(1.05988 0.00464505 -6.48393e-10)
(1.05489 0.00225436 -4.73567e-10)
(1.05386 -0.000582015 -3.01721e-10)
(1.05703 -0.00331058 -1.59146e-10)
(1.06382 -0.00532315 -6.00335e-11)
(1.07264 -0.00612887 -6.22735e-12)
(1.08161 -0.00553743 8.55639e-12)
(1.08842 -0.00372462 -6.04293e-12)
(1.09214 -0.00121362 -3.99969e-11)
(1.09135 0.00141599 -8.38658e-11)
(1.0879 0.00344924 -1.28536e-10)
(1.08067 0.00481491 -1.65772e-10)
(1.0744 0.00468784 -1.86049e-10)
(1.06617 0.00465935 -1.93406e-10)
(1.06209 0.00109097 -1.50542e-10)
(1.00011 -0.00102844 4.68167e-22)
(1.00155 -0.00306907 6.77412e-21)
(1.00483 -0.00526021 1.29358e-20)
(1.00987 -0.00770565 1.61088e-20)
(1.01703 -0.010458 -6.30982e-20)
(1.02658 -0.0134287 -7.27905e-21)
(1.03872 -0.0164033 -3.67256e-20)
(1.05337 -0.0189218 -1.90909e-18)
(1.06996 -0.0204719 -7.37803e-19)
(1.08748 -0.0204703 8.23424e-18)
(1.10424 -0.0185483 6.78265e-18)
(1.11858 -0.0150402 -1.42042e-17)
(1.12942 -0.0101922 -3.00667e-17)
(1.13578 -0.00425189 -2.42698e-17)
(1.13684 0.00255385 -1.00037e-17)
(1.13186 0.00979867 7.6401e-19)
(1.1206 0.0164732 7.12333e-18)
(1.10404 0.0213442 1.13775e-17)
(1.08423 0.0234615 1.22131e-17)
(1.06387 0.0223521 1.53645e-19)
(1.04583 0.0180133 2.17235e-18)
(1.03281 0.010883 4.55568e-17)
(1.02701 0.00185044 -5.90437e-16)
(1.02975 -0.00764119 -2.58342e-16)
(1.04086 -0.0154858 1.51276e-14)
(1.05792 -0.0192903 3.99493e-14)
(1.07617 -0.0174383 3.85848e-14)
(1.08994 -0.0102185 1.70278e-14)
(1.09496 0.0001228 3.27553e-15)
(1.0899 0.0105816 -4.75911e-16)
(1.07624 0.0187695 -3.0948e-15)
(1.05696 0.0234676 -4.36732e-17)
(1.03539 0.0243581 3.57394e-14)
(1.0147 0.0215289 1.5903e-14)
(0.997879 0.0151605 -5.14616e-13)
(0.987831 0.00555747 -1.20384e-12)
(0.987347 -0.00648459 4.40345e-12)
(0.998416 -0.0190771 3.13731e-11)
(1.02072 -0.0290357 8.21375e-11)
(1.05025 -0.0328354 1.23477e-10)
(1.07974 -0.0284966 1.17923e-10)
(1.10127 -0.0170038 7.37179e-11)
(1.10956 -0.00194654 2.94672e-11)
(1.10371 0.0123648 5.58524e-12)
(1.08661 0.0228112 -2.02535e-12)
(1.06292 0.0281925 -2.55644e-12)
(1.03718 0.0286937 -3.55964e-13)
(1.01314 0.0249456 5.98991e-12)
(0.993903 0.0174064 9.51816e-12)
(0.982436 0.00638133 -3.9732e-11)
(0.981678 -0.00735234 -2.59256e-10)
(0.993737 -0.0217083 -7.69037e-10)
(1.01832 -0.0331259 -1.50046e-09)
(1.05137 -0.0376951 -2.10388e-09)
(1.08526 -0.0331575 -2.20009e-09)
(1.11112 -0.0204159 -1.74549e-09)
(1.12235 -0.00331468 -1.04745e-09)
(1.11717 0.0132104 -4.48684e-10)
(1.09853 0.0252771 -1.00404e-10)
(1.07206 0.0312296 3.39332e-11)
(1.04356 0.0313545 6.14442e-11)
(1.0175 0.0267733 3.79317e-11)
(0.997056 0.0184507 -1.08177e-10)
(0.984823 0.00696741 -5.7302e-10)
(0.983362 -0.00685815 -1.55853e-09)
(0.994573 -0.0210773 -3.07001e-09)
(1.01808 -0.0324413 -4.79908e-09)
(1.04995 -0.0374162 -6.22561e-09)
(1.0831 -0.0338706 -6.85015e-09)
(1.10951 -0.022315 -6.4209e-09)
(1.12294 -0.00586805 -5.08208e-09)
(1.12083 0.0109941 -3.32054e-09)
(1.10483 0.0241663 -1.68676e-09)
(1.07966 0.031271 -5.37253e-10)
(1.05118 0.031979 4.57695e-11)
(1.02462 0.0273188 1.3869e-10)
(1.00387 0.0186082 -1.91755e-10)
(0.991907 0.00689762 -9.43575e-10)
(0.99114 -0.00665458 -2.09271e-09)
(1.00285 -0.0200228 -3.48742e-09)
(1.02583 -0.0302473 -4.86452e-09)
(1.05567 -0.0344205 -5.96289e-09)
(1.08569 -0.0310628 -6.59402e-09)
(1.10903 -0.0208908 -6.63183e-09)
(1.12078 -0.0065345 -6.01838e-09)
(1.11915 0.00846213 -4.83013e-09)
(1.10545 0.0207691 -3.31486e-09)
(1.08336 0.0281341 -1.82513e-09)
(1.05763 0.0297246 -6.91174e-10)
(1.03304 0.0259072 -1.19129e-10)
(1.01373 0.0176886 -1.60684e-10)
(1.00304 0.00631816 -7.34204e-10)
(1.00334 -0.00659187 -1.661e-09)
(1.01532 -0.0187569 -2.71187e-09)
(1.03708 -0.0274423 -3.67499e-09)
(1.06403 -0.0303717 -4.4153e-09)
(1.09009 -0.0267331 -4.87853e-09)
(1.1095 -0.0175586 -5.04394e-09)
(1.11852 -0.00526548 -4.88235e-09)
(1.11613 0.00725624 -4.36604e-09)
(1.10378 0.0174884 -3.52112e-09)
(1.08462 0.0237675 -2.47132e-09)
(1.06254 0.0253624 -1.436e-09)
(1.04152 0.0223054 -6.63903e-10)
(1.02521 0.0151831 -3.30488e-10)
(1.01673 0.00507569 -4.64464e-10)
(1.01812 -0.00632815 -9.51499e-10)
(1.02962 -0.0167345 -1.60465e-09)
(1.04908 -0.0237077 -2.25071e-09)
(1.0722 -0.025501 -2.78225e-09)
(1.0937 -0.0217636 -3.15819e-09)
(1.10897 -0.0136636 -3.37126e-09)
(1.11523 -0.0033808 -3.41391e-09)
(1.11204 0.00669316 -3.2655e-09)
(1.10092 0.0146306 -2.90691e-09)
(1.08467 0.0192769 -2.35316e-09)
(1.06655 0.0201921 -1.68495e-09)
(1.04976 0.0174391 -1.04491e-09)
(1.03726 0.0114625 -5.84223e-10)
(1.03151 0.00316016 -3.92253e-10)
(1.03395 -0.00598747 -4.62355e-10)
(1.0444 -0.0140246 -7.14287e-10)
(1.06071 -0.0190171 -1.0466e-09)
(1.07917 -0.0197385 -1.37878e-09)
(1.09557 -0.0161465 -1.66434e-09)
(1.10642 -0.00936865 -1.88148e-09)
(1.10987 -0.00123245 -2.01677e-09)
(1.10591 0.00637763 -2.05392e-09)
(1.09607 0.0120338 -1.97314e-09)
(1.08275 0.0149688 -1.76276e-09)
(1.06862 0.0149884 -1.43859e-09)
(1.05619 0.0122777 -1.05454e-09)
(1.04769 0.00730161 -6.89516e-10)
(1.04477 0.000864155 -4.15241e-10)
(1.04819 -0.00582315 -2.68004e-10)
(1.05738 -0.0112833 -2.42878e-10)
(1.07032 -0.0141825 -3.0858e-10)
(1.08399 -0.0138151 -4.27593e-10)
(1.09526 -0.01038 -5.68761e-10)
(1.10172 -0.00489109 -7.09738e-10)
(1.10234 0.00121471 -8.33389e-10)
(1.09747 0.00655513 -9.23324e-10)
(1.08858 0.0101558 -9.62314e-10)
(1.07767 0.0115632 -9.35769e-10)
(1.06686 0.0107552 -8.39343e-10)
(1.05807 0.00799212 -6.8523e-10)
(1.05286 0.00374851 -5.00918e-10)
(1.0523 -0.00125465 -3.19602e-10)
(1.05658 -0.0060411 -1.68332e-10)
(1.06493 -0.0095323 -6.11629e-11)
(1.0754 -0.0108632 3.29987e-13)
(1.08575 -0.00971398 2.21726e-11)
(1.09333 -0.0064244 1.31149e-11)
(1.0971 -0.001939 -1.79024e-11)
(1.09566 0.00269951 -6.21098e-11)
(1.09109 0.00626141 -1.10204e-10)
(1.0824 0.00859538 -1.52946e-10)
(1.0749 0.00835097 -1.79108e-10)
(1.0653 0.00822082 -1.91672e-10)
(1.06069 0.001934 -1.515e-10)
(1.0001 -0.00142551 -5.325e-20)
(1.0015 -0.00425464 -7.74574e-19)
(1.00468 -0.00730663 -1.41814e-18)
(1.0096 -0.0107381 -2.26914e-18)
(1.01668 -0.0146349 -3.43377e-18)
(1.02627 -0.0188826 -2.65665e-18)
(1.03864 -0.0231859 -1.00277e-17)
(1.0538 -0.026874 -1.15298e-17)
(1.07121 -0.0292004 3.59927e-17)
(1.08981 -0.0292606 2.92102e-17)
(1.10761 -0.0265001 -1.48394e-16)
(1.12279 -0.0214935 -3.65657e-16)
(1.13428 -0.0146161 -3.83659e-16)
(1.14115 -0.00621498 -1.83184e-16)
(1.14253 0.00345639 -4.45446e-19)
(1.13745 0.013871 7.09611e-17)
(1.12542 0.0235572 7.62329e-17)
(1.10744 0.0306706 6.15197e-17)
(1.08582 0.0338029 1.53285e-17)
(1.06355 0.0322648 -7.88694e-17)
(1.04378 0.0260468 1.5484e-16)
(1.02944 0.015751 -2.43231e-16)
(1.02304 0.00260323 -6.15708e-15)
(1.02624 -0.0113574 1.16853e-14)
(1.03917 -0.0230309 1.38242e-13)
(1.05922 -0.0287665 3.24661e-13)
(1.0808 -0.0260318 3.5494e-13)
(1.09704 -0.0152422 1.93715e-13)
(1.10285 0.000141804 4.88524e-14)
(1.09693 0.0155428 -5.93756e-15)
(1.08133 0.027435 -2.25453e-14)
(1.05971 0.0341518 2.44012e-14)
(1.03582 0.0353772 1.82305e-13)
(1.01299 0.0313229 -2.24776e-13)
(0.994248 0.0222291 -2.5378e-12)
(0.982683 0.00840597 -2.11574e-12)
(0.981588 -0.00917351 2.38637e-11)
(0.993702 -0.0278414 1.0186e-10)
(1.01914 -0.0427851 2.17223e-10)
(1.05337 -0.0485327 3.13127e-10)
(1.08755 -0.0420091 3.25009e-10)
(1.11202 -0.0247792 2.36595e-10)
(1.12063 -0.00239835 1.15821e-10)
(1.11284 0.0185995 3.28701e-11)
(1.09262 0.0336419 -3.54805e-12)
(1.06565 0.041165 -1.05709e-11)
(1.03707 0.041672 -2.47315e-13)
(1.01068 0.0362192 2.69648e-11)
(0.989414 0.0254656 2.18292e-11)
(0.976096 0.00972748 -2.35247e-10)
(0.973794 -0.0100575 -1.15231e-09)
(0.985212 -0.0310402 -3.00281e-09)
(1.0109 -0.0480943 -5.42212e-09)
(1.0472 -0.055329 -7.37345e-09)
(1.08581 -0.0490711 -7.803e-09)
(1.11632 -0.0303811 -6.46074e-09)
(1.13045 -0.00499118 -4.1255e-09)
(1.12545 0.0195167 -1.92951e-09)
(1.10468 0.0371999 -5.26109e-10)
(1.07497 0.04567 7.86391e-11)
(1.04327 0.0456021 2.10531e-10)
(1.01455 0.0388988 1.09458e-10)
(0.991857 0.0270497 -3.02825e-10)
(0.977705 0.010739 -1.34759e-09)
(0.975078 -0.00913498 -3.24101e-09)
(0.986656 -0.0299178 -5.757e-09)
(1.0124 -0.0467964 -8.29312e-09)
(1.04775 -0.0543956 -1.02431e-08)
(1.08442 -0.0494728 -1.11805e-08)
(1.11339 -0.032781 -1.08031e-08)
(1.12799 -0.00890373 -9.04101e-09)
(1.12571 0.0156235 -6.31948e-09)
(1.10841 0.0348028 -3.47172e-09)
(1.0812 0.04516 -1.26412e-09)
(1.05039 0.0462486 -4.21638e-11)
(1.02155 0.0396159 2.1946e-10)
(0.998857 0.0271555 -3.40483e-10)
(0.985692 0.01026 -1.58664e-09)
(0.985053 -0.00951054 -3.29725e-09)
(0.998589 -0.0291534 -5.10428e-09)
(1.02475 -0.0441425 -6.63825e-09)
(1.05815 -0.0500814 -7.71563e-09)
(1.09093 -0.0448764 -8.32743e-09)
(1.11551 -0.0298046 -8.45335e-09)
(1.12686 -0.00890256 -7.95263e-09)
(1.12361 0.0126456 -6.70418e-09)
(1.10774 0.0301401 -4.84908e-09)
(1.08344 0.0405075 -2.82405e-09)
(1.05575 0.0426779 -1.16735e-09)
(1.02955 0.0371891 -2.79155e-10)
(1.00913 0.0253758 -2.91354e-10)
(0.998194 0.00888991 -1.06395e-09)
(0.999548 -0.0099764 -2.26569e-09)
(1.01394 -0.0277724 -3.51392e-09)
(1.03894 -0.0403236 -4.53056e-09)
(1.06904 -0.0442374 -5.22095e-09)
(1.09723 -0.0384399 -5.62663e-09)
(1.11726 -0.0246553 -5.80157e-09)
(1.12533 -0.00660247 -5.71408e-09)
(1.12083 0.011444 -5.25891e-09)
(1.10585 0.0259066 -4.37576e-09)
(1.08416 0.0345507 -3.16275e-09)
(1.06005 0.0364917 -1.89528e-09)
(1.03768 0.0318479 -9.20611e-10)
(1.02084 0.0214139 -4.89645e-10)
(1.01284 0.0066582 -6.39162e-10)
(1.01591 -0.00998745 -1.20109e-09)
(1.03011 -0.0250937 -1.91971e-09)
(1.05268 -0.0350046 -2.58548e-09)
(1.0785 -0.037169 -3.09999e-09)
(1.10163 -0.0311943 -3.45676e-09)
(1.11709 -0.018959 -3.67864e-09)
(1.12216 -0.00378112 -3.76136e-09)
(1.11675 0.0108051 -3.65829e-09)
(1.10296 0.0220431 -3.31433e-09)
(1.08413 0.0283727 -2.72363e-09)
(1.06395 0.0292824 -1.97599e-09)
(1.04589 0.024937 -1.24671e-09)
(1.03311 0.0159851 -7.20634e-10)
(1.02821 0.00371306 -5.0057e-10)
(1.03262 -0.00969993 -5.69382e-10)
(1.04584 -0.0213316 -8.26274e-10)
(1.0651 -0.0283109 -1.15618e-09)
(1.08596 -0.0288876 -1.47882e-09)
(1.10363 -0.0231245 -1.75751e-09)
(1.11442 -0.0128156 -1.9803e-09)
(1.11657 -0.00073347 -2.13545e-09)
(1.11044 0.0103429 -2.19818e-09)
(1.09804 0.0183717 -2.13517e-09)
(1.08227 0.0223168 -1.92436e-09)
(1.06617 0.0219778 -1.58062e-09)
(1.05257 0.0176736 -1.16642e-09)
(1.04387 0.0101002 -7.72409e-10)
(1.04188 0.000450353 -4.77651e-10)
(1.04727 -0.00945468 -3.18375e-10)
(1.05909 -0.0173888 -2.85013e-10)
(1.07471 -0.0213727 -3.42018e-10)
(1.09049 -0.020422 -4.51097e-10)
(1.10282 -0.0149393 -5.83762e-10)
(1.10914 -0.0065308 -7.21477e-10)
(1.10852 0.00261723 -8.49122e-10)
(1.10166 0.0104596 -9.48831e-10)
(1.09046 0.0156005 -9.98914e-10)
(1.07733 0.0174328 -9.79719e-10)
(1.06474 0.0159759 -8.83935e-10)
(1.05488 0.0116406 -7.24141e-10)
(1.04952 0.00513838 -5.30581e-10)
(1.04981 -0.00244414 -3.39352e-10)
(1.05585 -0.00961906 -1.78981e-10)
(1.06651 -0.0147432 -6.35095e-11)
(1.07932 -0.0165247 6.06179e-12)
(1.09149 -0.0145303 3.59133e-11)
(1.09998 -0.00934817 3.40731e-11)
(1.10363 -0.00244892 8.06644e-12)
(1.1011 0.00455258 -3.47304e-11)
(1.09487 0.00987234 -8.5482e-11)
(1.08408 0.0132226 -1.3414e-10)
(1.07483 0.0127958 -1.67368e-10)
(1.06331 0.0123851 -1.86536e-10)
(1.05816 0.00289326 -1.49794e-10)
(1.0001 -0.00180689 -3.81462e-18)
(1.00143 -0.00539404 -1.27122e-17)
(1.00446 -0.00928832 -1.11821e-17)
(1.00921 -0.0137106 -1.44557e-17)
(1.01616 -0.0187931 -1.35775e-17)
(1.02575 -0.0244078 -1.46782e-17)
(1.03841 -0.0301846 -6.25045e-17)
(1.05425 -0.0352167 1.09909e-16)
(1.07279 -0.0384928 1.66646e-16)
(1.0929 -0.038679 -7.9016e-16)
(1.11214 -0.0349905 -1.46015e-15)
(1.12843 -0.0283699 -3.9864e-16)
(1.14078 -0.0193513 1.06223e-15)
(1.14833 -0.00835683 1.47365e-15)
(1.15019 0.00442503 1.07182e-15)
(1.14503 0.0184056 5.19107e-16)
(1.132 0.0315238 1.29127e-16)
(1.1121 0.0411678 -1.15451e-16)
(1.088 0.045413 -4.77006e-16)
(1.0631 0.0433747 -2.97039e-16)
(1.0409 0.0350664 -2.28228e-16)
(1.02469 0.0212533 -9.7637e-15)
(1.01735 0.00345699 3.16719e-14)
(1.0211 -0.0157043 7.99284e-14)
(1.03654 -0.0319833 -9.5557e-13)
(1.06086 -0.0401239 -2.77132e-12)
(1.08726 -0.0363575 -2.60859e-12)
(1.10705 -0.0212331 -9.9716e-13)
(1.11395 0.000202 -9.49816e-14)
(1.10668 0.0213628 2.97248e-14)
(1.08825 0.0373843 -1.32482e-14)
(1.06335 0.0462166 1.85463e-13)
(1.03629 0.04771 1.49224e-13)
(1.01055 0.0423136 -1.8898e-12)
(0.989174 0.0303165 -1.60072e-12)
(0.975465 0.0118943 1.56658e-11)
(0.973306 -0.0119799 1.4625e-11)
(0.986259 -0.0378408 -1.83218e-10)
(1.01511 -0.0588735 -6.73203e-10)
(1.05531 -0.0670608 -1.08726e-09)
(1.09647 -0.0578314 -9.79379e-10)
(1.12605 -0.033525 -5.00524e-10)
(1.13585 -0.00232837 -1.05869e-10)
(1.12551 0.0263939 3.98175e-11)
(1.10078 0.046408 3.14321e-11)
(1.06915 0.0559569 -4.25086e-13)
(1.03667 0.0561721 1.37587e-11)
(1.00716 0.0487712 7.21435e-11)
(0.983091 0.0346998 -2.98346e-11)
(0.966815 0.0142016 -8.78806e-10)
(0.961654 -0.0118925 -3.20612e-09)
(0.971626 -0.0402515 -7.07948e-09)
(0.99869 -0.0641257 -1.14688e-08)
(1.03921 -0.0751666 -1.48399e-08)
(1.08358 -0.0677303 -1.58949e-08)
(1.11969 -0.0427216 -1.4032e-08)
(1.13777 -0.00785268 -9.89665e-09)
(1.13397 0.0261141 -5.27301e-09)
(1.11151 0.0505161 -1.81116e-09)
(1.07829 0.0619204 -3.85613e-11)
(1.04266 0.061556 4.6893e-10)
(1.01041 0.0524755 2.41879e-10)
(0.984692 0.0368719 -6.67606e-10)
(0.968215 0.0153648 -2.525e-09)
(0.964819 -0.0113218 -5.28246e-09)
(0.978099 -0.0397323 -8.28898e-09)
(1.00782 -0.0629952 -1.07741e-08)
(1.04803 -0.0734443 -1.24358e-08)
(1.08878 -0.0667005 -1.3346e-08)
(1.12001 -0.0440876 -1.33871e-08)
(1.1349 -0.0120025 -1.21008e-08)
(1.1314 0.0208074 -9.31357e-09)
(1.11194 0.0464242 -5.70487e-09)
(1.08211 0.0602713 -2.43136e-09)
(1.04853 0.0617957 -3.68321e-10)
(1.01705 0.0530775 2.04687e-10)
(0.992219 0.0365343 -5.66821e-10)
(0.978073 0.0138066 -2.3011e-09)
(0.978358 -0.0130939 -4.4292e-09)
(0.994869 -0.0398701 -6.33375e-09)
(1.02525 -0.0600344 -7.6362e-09)
(1.06276 -0.0675233 -8.34893e-09)
(1.09844 -0.0597483 -8.7221e-09)
(1.12406 -0.038843 -8.91461e-09)
(1.13455 -0.0105707 -8.75917e-09)
(1.12898 0.0180321 -7.88054e-09)
(1.11009 0.0408597 -6.12695e-09)
(1.08279 0.0541267 -3.8536e-09)
(1.05255 0.0566604 -1.77843e-09)
(1.02443 0.0492095 -5.71837e-10)
(1.00294 0.0333637 -5.1602e-10)
(0.992219 0.0111135 -1.41627e-09)
(0.995428 -0.01446 -2.76307e-09)
(1.01311 -0.0384541 -4.03018e-09)
(1.04196 -0.0549962 -4.92242e-09)
(1.07538 -0.0595239 -5.42737e-09)
(1.10559 -0.0508443 -5.69541e-09)
(1.12598 -0.0316006 -5.86322e-09)
(1.13278 -0.00703917 -5.91636e-09)
(1.12574 0.0170049 -5.67603e-09)
(1.10758 0.0358223 -4.95118e-09)
(1.08278 0.0466607 -3.74832e-09)
(1.05616 0.0485969 -2.35959e-09)
(1.03217 0.0419086 -1.2324e-09)
(1.01488 0.027601 -7.09753e-10)
(1.00784 0.00754395 -8.42936e-10)
(1.01334 -0.0149578 -1.41206e-09)
(1.03098 -0.0351194 -2.10708e-09)
(1.05714 -0.0479081 -2.70641e-09)
(1.08576 -0.0499818 -3.13795e-09)
(1.11032 -0.0410589 -3.43489e-09)
(1.12564 -0.0239231 -3.65301e-09)
(1.12915 -0.00320316 -3.79844e-09)
(1.12113 0.0162984 -3.80066e-09)
(1.10423 0.0309399 -3.55356e-09)
(1.08238 0.0387805 -3.00605e-09)
(1.05978 0.0393084 -2.2391e-09)
(1.0403 0.0328517 -1.45676e-09)
(1.02739 0.0203033 -8.81326e-10)
(1.02381 0.00340907 -6.3206e-10)
(1.0309 -0.0148041 -6.83304e-10)
(1.0476 -0.0302671 -9.18407e-10)
(1.07024 -0.0390753 -1.21554e-09)
(1.09357 -0.0390033 -1.49995e-09)
(1.11232 -0.0303747 -1.74781e-09)
(1.12268 -0.0158305 -1.96085e-09)
(1.12311 0.000764895 -2.1344e-09)
(1.11437 0.0156433 -2.23764e-09)
(1.09898 0.0261158 -2.21901e-09)
(1.08037 0.0308991 -2.03704e-09)
(1.06205 0.0298352 -1.6981e-09)
(1.04719 0.0234238 -1.2706e-09)
(1.03852 0.0126427 -8.58115e-10)
(1.03795 -0.000832903 -5.48806e-10)
(1.04598 -0.0144232 -3.79765e-10)
(1.06107 -0.025004 -3.3723e-10)
(1.07981 -0.0298871 -3.81752e-10)
(1.0978 -0.0278682 -4.74465e-10)
(1.11102 -0.0196973 -5.90044e-10)
(1.11684 -0.00773473 -7.15474e-10)
(1.11455 0.00495461 -8.40542e-10)
(1.10524 0.015586 -9.48143e-10)
(1.09128 0.0223211 -1.01212e-09)
(1.07557 0.0244199 -1.00567e-09)
(1.06095 0.02198 -9.15997e-10)
(1.04999 0.015601 -7.54633e-10)
(1.0447 0.00628425 -5.54549e-10)
(1.04632 -0.00442277 -3.55451e-10)
(1.05475 -0.0143866 -1.88044e-10)
(1.06832 -0.0212784 -6.66629e-11)
(1.08386 -0.0233367 8.50184e-12)
(1.09796 -0.0200699 4.45203e-11)
(1.10721 -0.0124405 4.95253e-11)
(1.11041 -0.00257607 2.99082e-11)
(1.10637 0.00721377 -8.92253e-12)
(1.09805 0.0145537 -5.96852e-11)
(1.08469 0.0189508 -1.12407e-10)
(1.07343 0.0182373 -1.51855e-10)
(1.05964 0.0172693 -1.7749e-10)
(1.05419 0.00392759 -1.43651e-10)
(1.00009 -0.00216628 3.59769e-18)
(1.00133 -0.00646863 1.28386e-17)
(1.00416 -0.0111771 1.15717e-17)
(1.00867 -0.016592 1.07574e-17)
(1.01541 -0.0229094 4.94401e-17)
(1.02496 -0.0300073 -9.24818e-17)
(1.03793 -0.0374529 1.19681e-16)
(1.05461 -0.0440727 8.50043e-16)
(1.07462 -0.0485518 -2.21673e-15)
(1.09676 -0.0489539 -4.93326e-15)
(1.1179 -0.0442016 4.64831e-15)
(1.13559 -0.0358204 2.61183e-14)
(1.14903 -0.0245634 3.99476e-14)
(1.1575 -0.0109429 3.09538e-14)
(1.16011 0.00504816 1.33859e-14)
(1.15495 0.0229378 1.85092e-15)
(1.14058 0.0399978 -2.85299e-15)
(1.11809 0.05264 -4.33517e-15)
(1.09068 0.0582822 -4.40749e-15)
(1.0623 0.0558039 9.69308e-16)
(1.03692 0.0452454 -2.46959e-14)
(1.0182 0.0275233 -2.11318e-14)
(1.00952 0.0044002 5.68972e-13)
(1.01385 -0.0209465 -5.94666e-13)
(1.03255 -0.0429171 -1.1238e-11)
(1.06271 -0.0541459 -2.75783e-11)
(1.09576 -0.0491363 -3.08249e-11)
(1.12045 -0.0285698 -1.73871e-11)
(1.12875 0.000358807 -4.62569e-12)
(1.1195 0.0284102 3.03056e-14)
(1.09717 0.0491044 7.09742e-13)
(1.06788 0.0601323 5.9896e-13)
(1.03672 0.0617715 -2.32521e-12)
(1.00729 0.0548768 -3.01854e-12)
(0.982565 0.0397723 3.43487e-11)
(0.965919 0.0163497 6.54778e-11)
(0.961394 -0.0145486 -3.97569e-10)
(0.972998 -0.0487238 -2.24821e-09)
(1.00297 -0.0773133 -5.47262e-09)
(1.04858 -0.0892374 -8.18359e-09)
(1.09907 -0.0774047 -8.20307e-09)
(1.13812 -0.0444652 -5.58066e-09)
(1.1528 -0.00210382 -2.4577e-09)
(1.1412 0.0361578 -5.244e-10)
(1.11121 0.061825 1.19051e-10)
(1.0735 0.0732095 1.42411e-10)
(1.03595 0.0726557 1.08875e-10)
(1.00249 0.063005 1.27006e-10)
(0.974685 0.0456425 -3.19291e-10)
(0.9543 0.0204566 -2.26135e-09)
(0.945697 -0.0124471 -6.31425e-09)
(0.955198 -0.049551 -1.16353e-08)
(0.985818 -0.0819016 -1.65186e-08)
(1.03243 -0.0977971 -1.99067e-08)
(1.08296 -0.0893197 -2.14251e-08)
(1.12378 -0.0574552 -2.03916e-08)
(1.14471 -0.0120929 -1.62459e-08)
(1.14171 0.0326745 -1.00759e-08)
(1.11776 0.0650391 -4.31173e-09)
(1.0812 0.0800774 -6.83613e-10)
(1.04142 0.0795302 6.7829e-10)
(1.00507 0.0678785 3.95468e-10)
(0.975827 0.0481462 -1.17772e-09)
(0.957148 0.0206834 -3.89552e-09)
(0.954067 -0.0140651 -7.16942e-09)
(0.970635 -0.051414 -9.9889e-09)
(1.00552 -0.0817721 -1.17164e-08)
(1.0509 -0.0948968 -1.25382e-08)
(1.09544 -0.0854772 -1.30584e-08)
(1.12838 -0.0558332 -1.34884e-08)
(1.14286 -0.0145779 -1.3194e-08)
(1.13729 0.0271213 -1.12788e-08)
(1.11489 0.0594497 -7.76609e-09)
(1.08188 0.0768558 -3.84637e-09)
(1.04524 0.0787672 -9.78838e-10)