/*--------------------------------*- C++ -*----------------------------------*\
  =========                 |
  \\      /  F ield         | OpenFOAM: The Open Source CFD Toolbox
   \\    /   O peration     | Website:  https://openfoam.org
    \\  /    A nd           | Version:  11
     \\/     M anipulation  |
\*---------------------------------------------------------------------------*/
FoamFile
{
    format      ascii;
    class       surfaceScalarField;
    location    "1.23718";
    object      phi;
}
// * * * * * * * * * * * * * * * * * * * * * * * * * * * * * * * * * * * * * //

dimensions      [0 3 -1 0 0 0 0];

internalField   nonuniform List<scalar> 
14638
(
0.00250268
-2.67767e-06
0.00251072
-8.04639e-06
0.0025244
-1.3672e-05
0.00254402
-1.9621e-05
0.00256987
-2.58552e-05
0.00260196
-3.2084e-05
0.00263975
-3.77967e-05
0.00268182
-4.20711e-05
0.00272573
-4.39012e-05
0.00276796
-4.22329e-05
0.00280441
-3.64497e-05
0.00283166
-2.72502e-05
0.0028472
-1.55418e-05
0.00284963
-2.42942e-06
0.00283915
1.04765e-05
0.0028175
2.1648e-05
0.00278753
2.9972e-05
0.00275254
3.4989e-05
0.00271573
3.6813e-05
0.00267982
3.59063e-05
0.00264694
3.28884e-05
0.00261847
2.84628e-05
0.00259507
2.34008e-05
0.00257659
1.84794e-05
0.00256226
1.43322e-05
0.00255098
1.12824e-05
0.0025417
9.28185e-06
0.00253369
8.01104e-06
0.00252661
7.07983e-06
0.0025204
6.20401e-06
0.00251513
5.27242e-06
0.00251082
4.3071e-06
0.00250744
3.38045e-06
0.00250489
2.55255e-06
0.00250304
1.85111e-06
0.00250176
1.2803e-06
0.00250092
8.345e-07
0.00250042
5.04571e-07
0.00250014
2.77294e-07
0.00250001
1.34238e-07
0.00249995
5.34841e-08
0.00249994
1.35269e-08
0.00249994
-3.12894e-09
0.00249995
-8.38466e-09
0.00249996
-8.98677e-09
0.00249997
-8.09517e-09
0.00249998
-6.8865e-09
0.00249998
-5.69568e-09
0.00249999
-4.59976e-09
0.00249999
-3.62894e-09
0.00249999
-2.80494e-09
0.00249999
-2.13474e-09
0.0025
-1.6079e-09
0.0025
-1.20301e-09
0.0025
-8.9568e-10
0.0025
-6.63903e-10
0.0025
-4.89762e-10
0.0025
-3.5938e-10
0.0025
-2.62068e-10
0.0025
-1.8968e-10
0.0025
-1.35955e-10
0.0025
-9.61903e-11
0.0025
-6.67999e-11
0.0025
-4.51421e-11
0.0025
-2.92014e-11
0.0025
-1.75206e-11
0.0025
-8.97183e-12
0.0025
-2.7618e-12
0.0025
1.74173e-12
0.0025
4.96358e-12
0.0025
7.26192e-12
0.0025
8.85756e-12
0.0025
9.95796e-12
0.0025
1.06728e-11
0.0025
1.1126e-11
0.0025
1.13666e-11
0.0025
1.14726e-11
0.0025
1.14603e-11
0.0025
1.13823e-11
0.0025
1.12376e-11
0.0025
1.10647e-11
0.0025
1.08536e-11
0.0025
1.06344e-11
0.0025
1.0393e-11
0.0025
1.01541e-11
0.0025
9.90189e-12
0.0025
9.65784e-12
0.0025
9.4055e-12
0.0025
9.16408e-12
0.0025
8.91741e-12
0.0025
8.68288e-12
0.0025
8.44502e-12
0.0025
8.21961e-12
0.0025
7.99214e-12
0.0025
7.77693e-12
0.0025
7.56054e-12
0.0025
7.35595e-12
0.0025
7.15083e-12
0.0025
6.95687e-12
0.0025
6.76289e-12
0.0025
6.5793e-12
0.0025
6.3961e-12
0.0025
6.22249e-12
0.0025
6.04957e-12
0.0025
5.8854e-12
0.0025
5.72219e-12
0.0025
5.56689e-12
0.0025
5.41281e-12
0.0025
5.2658e-12
0.0025
5.12024e-12
0.0025
4.98097e-12
0.0025
4.84335e-12
0.0025
4.71126e-12
0.0025
4.58102e-12
0.0025
4.45557e-12
0.0025
4.33217e-12
0.0025
4.2129e-12
0.0025
4.09587e-12
0.0025
3.98231e-12
0.0025
3.87119e-12
0.0025
3.76294e-12
0.0025
3.65731e-12
0.0025
3.55399e-12
0.0025
3.45349e-12
0.0025
3.35477e-12
0.0025
3.25905e-12
0.0025
3.16462e-12
0.0025
3.07338e-12
0.0025
2.98297e-12
0.0025
2.89592e-12
0.0025
2.80931e-12
0.0025
2.7262e-12
0.0025
2.64314e-12
0.0025
2.56374e-12
0.0025
2.48403e-12
0.0025
2.40813e-12
0.0025
2.33161e-12
0.0025
2.25901e-12
0.0025
2.18549e-12
0.0025
2.11602e-12
0.0025
2.04535e-12
0.0025
1.97884e-12
0.0025
1.91089e-12
0.0025
1.84718e-12
0.0025
1.78182e-12
0.0025
1.72077e-12
0.0025
1.65788e-12
0.0025
1.59938e-12
0.0025
1.53887e-12
0.0025
1.48278e-12
0.0025
1.4246e-12
0.0025
1.37066e-12
0.0025
1.31509e-12
0.0025
1.26273e-12
0.0025
1.21228e-12
0.0025
1.15697e-12
0.0025
1.12708e-12
0.0025
1.03371e-12
0.0025
1.12204e-12
8.25206e-13
0.00250266
-5.33413e-06
0.00251065
-1.60358e-05
0.00252424
-2.72693e-05
0.00254381
-3.9189e-05
0.00256969
-5.17323e-05
0.00260194
-6.43314e-05
0.00264011
-7.59701e-05
0.0026828
-8.47641e-05
0.00272756
-8.86549e-05
0.00277073
-8.54121e-05
0.00280802
-7.373e-05
0.00283588
-5.51124e-05
0.00285173
-3.1397e-05
0.0028541
-4.79906e-06
0.0028432
2.13752e-05
0.00282087
4.39855e-05
0.00279009
6.07512e-05
0.00275432
7.07596e-05
0.00271684
7.42868e-05
0.00268043
7.23159e-05
0.00264719
6.61307e-05
0.00261849
5.71602e-05
0.00259495
4.6948e-05
0.00257639
3.70398e-05
0.00256202
2.86946e-05
0.00255075
2.25559e-05
0.0025415
1.85282e-05
0.00253354
1.59742e-05
0.00252651
1.41123e-05
0.00252034
1.23702e-05
0.00251509
1.05203e-05
0.0025108
8.60188e-06
0.00250742
6.75702e-06
0.00250487
5.10497e-06
0.00250302
3.70197e-06
0.00250174
2.55803e-06
0.00250091
1.66389e-06
0.00250041
1.00263e-06
0.00250014
5.48317e-07
0.00250001
2.63778e-07
0.00249996
1.04408e-07
0.00249995
2.64553e-08
0.00249995
-5.50966e-09
0.00249996
-1.53608e-08
0.00249997
-1.64376e-08
0.00249997
-1.48222e-08
0.00249998
-1.26733e-08
0.00249998
-1.05501e-08
0.00249999
-8.5666e-09
0.00249999
-6.78207e-09
0.00249999
-5.25164e-09
0.00249999
-4.00049e-09
0.0025
-3.01532e-09
0.0025
-2.25794e-09
0.0025
-1.68299e-09
0.0025
-1.24915e-09
0.0025
-9.22954e-10
0.0025
-6.78528e-10
0.0025
-4.95987e-10
0.0025
-3.60115e-10
0.0025
-2.59237e-10
0.0025
-1.84522e-10
0.0025
-1.2928e-10
0.0025
-8.85347e-11
0.0025
-5.85346e-11
0.0025
-3.65192e-11
0.0025
-2.04018e-11
0.0025
-8.66368e-12
0.0025
-1.46984e-13
0.0025
5.97578e-12
0.0025
1.03475e-11
0.0025
1.34138e-11
0.0025
1.5534e-11
0.0025
1.69452e-11
0.0025
1.78495e-11
0.0025
1.83697e-11
0.0025
1.86223e-11
0.0025
1.86678e-11
0.0025
1.85755e-11
0.0025
1.83726e-11
0.0025
1.81025e-11
0.0025
1.77746e-11
0.0025
1.74177e-11
0.0025
1.70319e-11
0.0025
1.66378e-11
0.0025
1.62304e-11
0.0025
1.58256e-11
0.0025
1.54163e-11
0.0025
1.50153e-11
0.0025
1.46145e-11
0.0025
1.4225e-11
0.0025
1.38383e-11
0.0025
1.34643e-11
0.0025
1.30944e-11
0.0025
1.27377e-11
0.0025
1.23859e-11
0.0025
1.20472e-11
0.0025
1.17137e-11
0.0025
1.13929e-11
0.0025
1.10775e-11
0.0025
1.07743e-11
0.0025
1.04763e-11
0.0025
1.01898e-11
0.0025
9.90843e-12
0.0025
9.63788e-12
0.0025
9.37212e-12
0.0025
9.11649e-12
0.0025
8.86538e-12
0.0025
8.62371e-12
0.0025
8.38627e-12
0.0025
8.15759e-12
0.0025
7.93286e-12
0.0025
7.71624e-12
0.0025
7.50331e-12
0.0025
7.29787e-12
0.0025
7.09587e-12
0.0025
6.90079e-12
0.0025
6.70894e-12
0.0025
6.52347e-12
0.0025
6.34103e-12
0.0025
6.16448e-12
0.0025
5.99079e-12
0.0025
5.82253e-12
0.0025
5.65699e-12
0.0025
5.49647e-12
0.0025
5.33853e-12
0.0025
5.18522e-12
0.0025
5.03439e-12
0.0025
4.88786e-12
0.0025
4.7437e-12
0.0025
4.60353e-12
0.0025
4.46563e-12
0.0025
4.33142e-12
0.0025
4.19943e-12
0.0025
4.07086e-12
0.0025
3.94443e-12
0.0025
3.8212e-12
0.0025
3.70004e-12
0.0025
3.58184e-12
0.0025
3.46566e-12
0.0025
3.35226e-12
0.0025
3.24082e-12
0.0025
3.13197e-12
0.0025
3.02502e-12
0.0025
2.92049e-12
0.0025
2.81783e-12
0.0025
2.71746e-12
0.0025
2.61889e-12
0.0025
2.52251e-12
0.0025
2.42782e-12
0.0025
2.33544e-12
0.0025
2.24423e-12
0.0025
2.1565e-12
0.0025
2.0675e-12
0.0025
1.98881e-12
0.0025
1.89365e-12
0.0025
1.84883e-12
0.0025
1.69378e-12
0.0025
1.82773e-12
1.38653e-12
0.00250261
-7.94738e-06
0.00251048
-2.39032e-05
0.00252392
-4.07087e-05
0.00254337
-5.86363e-05
0.00256927
-7.76349e-05
0.00260183
-9.68872e-05
0.00264074
-0.000114884
0.00268468
-0.000128702
0.00273116
-0.000135136
0.00277626
-0.000130512
0.00281522
-0.000112685
0.0028443
-8.41978e-05
0.00286076
-4.786e-05
0.00286297
-7.00709e-06
0.00285117
3.31783e-05
0.00282739
6.77665e-05
0.00279494
9.31994e-05
0.00275757
0.000108129
0.00271876
0.000113097
0.00268135
0.000109725
0.00264743
0.000100055
0.0026183
8.62877e-05
0.0025945
7.07475e-05
0.0025758
5.57343e-05
0.00256139
4.31123e-05
0.00255011
3.38298e-05
0.0025409
2.77364e-05
0.002533
2.3875e-05
0.00252604
2.10723e-05
0.00251995
1.8466e-05
0.00251476
1.57076e-05
0.00251051
1.28486e-05
0.00250718
1.00952e-05
0.00250466
7.62357e-06
0.00250284
5.5187e-06
0.0025016
3.79926e-06
0.00250081
2.45557e-06
0.00250035
1.46511e-06
0.0025001
7.89499e-07
0.0025
3.71404e-07
0.00249996
1.41553e-07
0.00249995
3.23265e-08
0.00249996
-1.03791e-08
0.00249997
-2.23195e-08
0.00249997
-2.28481e-08
0.00249998
-2.03189e-08
0.00249998
-1.73844e-08
0.00249999
-1.45559e-08
0.00249999
-1.18806e-08
0.00249999
-9.43062e-09
0.00249999
-7.30667e-09
0.0025
-5.5642e-09
0.0025
-4.19318e-09
0.0025
-3.14117e-09
0.0025
-2.34352e-09
0.0025
-1.74172e-09
0.0025
-1.28899e-09
0.0025
-9.49529e-10
0.0025
-6.95888e-10
0.0025
-5.07022e-10
0.0025
-3.66752e-10
0.0025
-2.62815e-10
0.0025
-1.85929e-10
0.0025
-1.29177e-10
0.0025
-8.73628e-11
0.0025
-5.66438e-11
0.0025
-3.4129e-11
0.0025
-1.7701e-11
0.0025
-5.75764e-12
0.0025
2.85949e-12
0.0025
9.03717e-12
0.0025
1.3402e-11
0.0025
1.64477e-11
0.0025
1.85109e-11
0.0025
1.98661e-11
0.0025
2.06909e-11
0.0025
2.11406e-11
0.0025
2.13059e-11
0.0025
2.1277e-11
0.0025
2.10975e-11
0.0025
2.08217e-11
0.0025
2.04681e-11
0.0025
2.00712e-11
0.0025
1.9636e-11
0.0025
1.91858e-11
0.0025
1.87188e-11
0.0025
1.82519e-11
0.0025
1.77796e-11
0.0025
1.73153e-11
0.0025
1.68519e-11
0.0025
1.64004e-11
0.0025
1.5953e-11
0.0025
1.55195e-11
0.0025
1.50918e-11
0.0025
1.46787e-11
0.0025
1.42721e-11
0.0025
1.38801e-11
0.0025
1.34949e-11
0.0025
1.3124e-11
0.0025
1.276e-11
0.0025
1.24095e-11
0.0025
1.20658e-11
0.0025
1.1735e-11
0.0025
1.14105e-11
0.0025
1.10982e-11
0.0025
1.07919e-11
0.0025
1.0497e-11
0.0025
1.02076e-11
0.0025
9.9289e-12
0.0025
9.65538e-12
0.0025
9.39171e-12
0.0025
9.13287e-12
0.0025
8.88317e-12
0.0025
8.63796e-12
0.0025
8.40122e-12
0.0025
8.16861e-12
0.0025
7.94386e-12
0.0025
7.72295e-12
0.0025
7.50932e-12
0.0025
7.29925e-12
0.0025
7.09594e-12
0.0025
6.89594e-12
0.0025
6.70222e-12
0.0025
6.51161e-12
0.0025
6.32682e-12
0.0025
6.14495e-12
0.0025
5.96851e-12
0.0025
5.79482e-12
0.0025
5.62619e-12
0.0025
5.46018e-12
0.0025
5.2989e-12
0.0025
5.14009e-12
0.0025
4.98572e-12
0.0025
4.83369e-12
0.0025
4.68582e-12
0.0025
4.5402e-12
0.0025
4.3985e-12
0.0025
4.25894e-12
0.0025
4.12306e-12
0.0025
3.98924e-12
0.0025
3.85891e-12
0.0025
3.73056e-12
0.0025
3.60549e-12
0.0025
3.48233e-12
0.0025
3.36229e-12
0.0025
3.24408e-12
0.0025
3.12887e-12
0.0025
3.0154e-12
0.0025
2.90488e-12
0.0025
2.79592e-12
0.0025
2.69015e-12
0.0025
2.58524e-12
0.0025
2.48517e-12
0.0025
2.38265e-12
0.0025
2.29361e-12
0.0025
2.18373e-12
0.0025
2.13239e-12
0.0025
1.96024e-12
0.0025
2.08295e-12
1.63488e-12
0.00250254
-1.04915e-05
0.00251022
-3.15747e-05
0.00252339
-5.38879e-05
0.00254263
-7.78693e-05
0.00256853
-0.000103535
0.00260151
-0.000129867
0.00264151
-0.000154891
0.00268734
-0.000174529
0.00273649
-0.00018429
0.00278458
-0.0001786
0.00282613
-0.000154231
0.00285711
-0.000115181
0.00287454
-6.52859e-05
0.00287651
-8.98126e-06
0.0028633
4.63875e-05
0.00283726
9.38106e-05
0.00280219
0.000128266
0.00276232
0.000147999
0.00272144
0.000153977
0.0026825
0.000148662
0.00264756
0.000134998
0.00261781
0.000116035
0.00259367
9.4894e-05
0.0025748
7.46038e-05
0.00256031
5.75994e-05
0.00254903
4.51046e-05
0.00253987
3.68979e-05
0.00253205
3.16964e-05
0.00252519
2.79355e-05
0.00251919
2.44621e-05
0.0025141
2.08033e-05
0.00250993
1.70154e-05
0.00250666
1.33625e-05
0.00250421
1.00735e-05
0.00250247
7.26364e-06
0.0025013
4.96435e-06
0.00250059
3.17054e-06
0.0025002
1.85697e-06
0.00250001
9.72351e-07
0.00249995
4.36315e-07
0.00249994
1.51298e-07
0.00249995
2.31255e-08
0.00249996
-2.2037e-08
0.00249997
-3.1434e-08
0.00249998
-2.93553e-08
0.00249998
-2.52715e-08
0.00249998
-2.15011e-08
0.00249999
-1.80703e-08
0.00249999
-1.48008e-08
0.00249999
-1.17544e-08
0.00249999
-9.09095e-09
0.0025
-6.90696e-09
0.0025
-5.19683e-09
0.0025
-3.89125e-09
0.0025
-2.90441e-09
0.0025
-2.16059e-09
0.0025
-1.60094e-09
0.0025
-1.18113e-09
0.0025
-8.67408e-10
0.0025
-6.33795e-10
0.0025
-4.60289e-10
0.0025
-3.31701e-10
0.0025
-2.36551e-10
0.0025
-1.66283e-10
0.0025
-1.14481e-10
0.0025
-7.63921e-11
0.0025
-4.84504e-11
0.0025
-2.80323e-11
0.0025
-1.31624e-11
0.0025
-2.40259e-12
0.0025
5.33846e-12
0.0025
1.08397e-11
0.0025
1.47088e-11
0.0025
1.73659e-11
0.0025
1.91464e-11
0.0025
2.0274e-11
0.0025
2.09367e-11
0.0025
2.12507e-11
0.0025
2.13231e-11
0.0025
2.12119e-11
0.0025
2.09799e-11
0.0025
2.06536e-11
0.0025
2.02717e-11
0.0025
1.98436e-11
0.0025
1.93946e-11
0.0025
1.89253e-11
0.0025
1.84535e-11
0.0025
1.79751e-11
0.0025
1.75036e-11
0.0025
1.70329e-11
0.0025
1.65739e-11
0.0025
1.61194e-11
0.0025
1.56787e-11
0.0025
1.52444e-11
0.0025
1.48247e-11
0.0025
1.44122e-11
0.0025
1.40145e-11
0.0025
1.36241e-11
0.0025
1.32481e-11
0.0025
1.28795e-11
0.0025
1.25246e-11
0.0025
1.21767e-11
0.0025
1.18419e-11
0.0025
1.15138e-11
0.0025
1.1198e-11
0.0025
1.08884e-11
0.0025
1.05902e-11
0.0025
1.02979e-11
0.0025
1.00163e-11
0.0025
9.74e-12
0.0025
9.4737e-12
0.0025
9.21233e-12
0.0025
8.96023e-12
0.0025
8.71267e-12
0.0025
8.47371e-12
0.0025
8.23893e-12
0.0025
8.01213e-12
0.0025
7.78917e-12
0.0025
7.57365e-12
0.0025
7.36166e-12
0.0025
7.15657e-12
0.0025
6.95476e-12
0.0025
6.75939e-12
0.0025
6.56705e-12
0.0025
6.38071e-12
0.0025
6.19721e-12
0.0025
6.01932e-12
0.0025
5.84407e-12
0.0025
5.67409e-12
0.0025
5.50658e-12
0.0025
5.34403e-12
0.0025
5.1838e-12
0.0025
5.02822e-12
0.0025
4.87484e-12
0.0025
4.72584e-12
0.0025
4.57893e-12
0.0025
4.43617e-12
0.0025
4.29538e-12
0.0025
4.15852e-12
0.0025
4.02354e-12
0.0025
3.8923e-12
0.0025
3.76285e-12
0.0025
3.63696e-12
0.0025
3.51279e-12
0.0025
3.39201e-12
0.0025
3.27287e-12
0.0025
3.15702e-12
0.0025
3.04272e-12
0.0025
2.9317e-12
0.0025
2.82204e-12
0.0025
2.71598e-12
0.0025
2.61047e-12
0.0025
2.51049e-12
0.0025
2.40738e-12
0.0025
2.31901e-12
0.0025
2.20887e-12
0.0025
2.156e-12
0.0025
1.99205e-12
0.0025
2.07954e-12
1.69059e-12
0.00250244
-1.29352e-05
0.00250983
-3.89602e-05
0.00252262
-6.66761e-05
0.0025415
-9.67528e-05
0.00256732
-0.000129351
0.00260078
-0.000163334
0.00264221
-0.000196311
0.00269059
-0.00022291
0.00274346
-0.000237167
0.00279574
-0.000230872
0.00284087
-0.000199365
0.00287448
-0.000148787
0.00289323
-8.40368e-05
0.00289484
-1.0599e-05
0.00287964
6.15912e-05
0.00285043
0.000123022
0.00281175
0.000166949
0.00276847
0.000191271
0.00272482
0.000197633
0.00268387
0.000189611
0.00264761
0.000171256
0.00261708
0.000146566
0.00259251
0.000119469
0.00257342
9.36882e-05
0.00255884
7.21763e-05
0.00254756
5.63894e-05
0.00253845
4.60109e-05
0.00253072
3.9426e-05
0.00252397
3.46803e-05
0.0025181
3.03316e-05
0.00251313
2.57786e-05
0.00250907
2.10736e-05
0.0025059
1.65295e-05
0.00250355
1.24235e-05
0.00250191
8.90193e-06
0.00250086
6.0157e-06
0.00250026
3.77123e-06
0.00249997
2.14427e-06
0.00249988
1.06957e-06
0.00249987
4.39076e-07
0.0024999
1.21496e-07
0.00249994
-7.76644e-09
0.00249996
-4.36222e-08
0.00249997
-4.40685e-08
0.00249998
-3.65969e-08
0.00249998
-3.00901e-08
0.00249999
-2.53635e-08
0.00249999
-2.1377e-08
0.00249999
-1.75418e-08
0.00249999
-1.39e-08
0.0025
-1.06989e-08
0.0025
-8.08911e-09
0.0025
-6.0663e-09
0.0025
-4.53588e-09
0.0025
-3.38511e-09
0.0025
-2.51928e-09
0.0025
-1.86787e-09
0.0025
-1.3792e-09
0.0025
-1.01412e-09
0.0025
-7.42403e-10
0.0025
-5.40681e-10
0.0025
-3.91203e-10
0.0025
-2.80591e-10
0.0025
-1.98887e-10
0.0025
-1.38636e-10
0.0025
-9.43151e-11
0.0025
-6.17821e-11
0.0025
-3.79866e-11
0.0025
-2.06366e-11
0.0025
-8.05839e-12
0.0025
1.01567e-12
0.0025
7.48808e-12
0.0025
1.20668e-11
0.0025
1.52407e-11
0.0025
1.7397e-11
0.0025
1.87977e-11
0.0025
1.96591e-11
0.0025
2.01179e-11
0.0025
2.02965e-11
0.0025
2.02635e-11
0.0025
2.00901e-11
0.0025
1.98084e-11
0.0025
1.94613e-11
0.0025
1.90612e-11
0.0025
1.86357e-11
0.0025
1.81866e-11
0.0025
1.77329e-11
0.0025
1.72713e-11
0.0025
1.68157e-11
0.0025
1.63604e-11
0.0025
1.59163e-11
0.0025
1.54765e-11
0.0025
1.50505e-11
0.0025
1.46307e-11
0.0025
1.42254e-11
0.0025
1.38272e-11
0.0025
1.34435e-11
0.0025
1.30672e-11
0.0025
1.2705e-11
0.0025
1.23499e-11
0.0025
1.20084e-11
0.0025
1.16737e-11
0.0025
1.13518e-11
0.0025
1.10364e-11
0.0025
1.07329e-11
0.0025
1.04355e-11
0.0025
1.01492e-11
0.0025
9.86854e-12
0.0025
9.59827e-12
0.0025
9.33313e-12
0.0025
9.07766e-12
0.0025
8.82692e-12
0.0025
8.58516e-12
0.0025
8.34773e-12
0.0025
8.11862e-12
0.0025
7.89351e-12
0.0025
7.67611e-12
0.0025
7.46238e-12
0.0025
7.25582e-12
0.0025
7.05264e-12
0.0025
6.8561e-12
0.0025
6.66271e-12
0.0025
6.47551e-12
0.0025
6.29123e-12
0.0025
6.11269e-12
0.0025
5.93689e-12
0.0025
5.76646e-12
0.0025
5.59859e-12
0.0025
5.43575e-12
0.0025
5.27531e-12
0.0025
5.11959e-12
0.0025
4.96614e-12
0.0025
4.81711e-12
0.0025
4.67024e-12
0.0025
4.52753e-12
0.0025
4.38687e-12
0.0025
4.25013e-12
0.0025
4.11536e-12
0.0025
3.98431e-12
0.0025
3.85512e-12
0.0025
3.72947e-12
0.0025
3.60562e-12
0.0025
3.48513e-12
0.0025
3.36637e-12
0.0025
3.25084e-12
0.0025
3.13696e-12
0.0025
3.02621e-12
0.0025
2.91705e-12
0.0025
2.81104e-12
0.0025
2.70641e-12
0.0025
2.60533e-12
0.0025
2.50477e-12
0.0025
2.40979e-12
0.0025
2.31164e-12
0.0025
2.22801e-12
0.0025
2.12406e-12
0.0025
2.07121e-12
0.0025
1.92472e-12
0.0025
1.97614e-12
1.65929e-12
0.00250231
-1.52405e-05
0.00250929
-4.59493e-05
0.00252152
-7.89052e-05
0.00253987
-0.000115095
0.00256544
-0.000154929
0.00259939
-0.000197278
0.0026425
-0.000239421
0.00269412
-0.000274538
0.00275193
-0.000294973
0.00280979
-0.000288726
0.00285964
-0.000249223
0.00289673
-0.000185871
0.0029173
-0.000104615
0.0029185
-1.17954e-05
0.00290063
7.94584e-05
0.00286715
0.000156506
0.00282361
0.000210485
0.00277584
0.000239049
0.00272858
0.000244888
0.0026851
0.000233095
0.00264725
0.000209102
0.00261583
0.000177984
0.00259082
0.000144484
0.00257154
0.000112961
0.00255691
8.68062e-05
0.00254565
6.76483e-05
0.00253662
5.50412e-05
0.00252902
4.70293e-05
0.00252243
4.1272e-05
0.00251672
3.60417e-05
0.00251189
3.06046e-05
0.00250797
2.49985e-05
0.00250492
1.95731e-05
0.0025027
1.46477e-05
0.0025012
1.0403e-05
0.0025003
6.91813e-06
0.00249985
4.22122e-06
0.0024997
2.29401e-06
0.00249971
1.05532e-06
0.00249979
3.625e-07
0.00249987
4.27523e-08
0.00249992
-6.42293e-08
0.00249996
-7.5972e-08
0.00249997
-5.9906e-08
0.00249998
-4.41325e-08
0.00249998
-3.45556e-08
0.00249999
-2.89552e-08
0.00249999
-2.45454e-08
0.00249999
-2.01731e-08
0.00249999
-1.5908e-08
0.0025
-1.21464e-08
0.0025
-9.11481e-09
0.0025
-6.80261e-09
0.0025
-5.0761e-09
0.0025
-3.7869e-09
0.0025
-2.81874e-09
0.0025
-2.09025e-09
0.0025
-1.54372e-09
0.0025
-1.13567e-09
0.0025
-8.3227e-10
0.0025
-6.07211e-10
0.0025
-4.40515e-10
0.0025
-3.17184e-10
0.0025
-2.26084e-10
0.0025
-1.58901e-10
0.0025
-1.09472e-10
0.0025
-7.31825e-11
0.0025
-4.66264e-11
0.0025
-2.72511e-11
0.0025
-1.31894e-11
0.0025
-3.02547e-12
0.0025
4.237e-12
0.0025
9.39557e-12
0.0025
1.29929e-11
0.0025
1.54579e-11
0.0025
1.70852e-11
0.0025
1.81128e-11
0.0025
1.86952e-11
0.0025
1.8966e-11
0.0025
1.9004e-11
0.0025
1.88855e-11
0.0025
1.86484e-11
0.0025
1.83379e-11
0.0025
1.79698e-11
0.0025
1.75721e-11
0.0025
1.71491e-11
0.0025
1.67195e-11
0.0025
1.62814e-11
0.0025
1.58482e-11
0.0025
1.54152e-11
0.0025
1.49929e-11
0.0025
1.45749e-11
0.0025
1.41701e-11
0.0025
1.37716e-11
0.0025
1.33872e-11
0.0025
1.30098e-11
0.0025
1.26465e-11
0.0025
1.22904e-11
0.0025
1.19479e-11
0.0025
1.16124e-11
0.0025
1.12899e-11
0.0025
1.09741e-11
0.0025
1.06704e-11
0.0025
1.0373e-11
0.0025
1.0087e-11
0.0025
9.80678e-12
0.0025
9.53718e-12
0.0025
9.27291e-12
0.0025
9.01851e-12
0.0025
8.76901e-12
0.0025
8.52866e-12
0.0025
8.2928e-12
0.0025
8.06543e-12
0.0025
7.84217e-12
0.0025
7.62678e-12
0.0025
7.41514e-12
0.0025
7.21082e-12
0.0025
7.00993e-12
0.0025
6.81583e-12
0.0025
6.62488e-12
0.0025
6.44024e-12
0.0025
6.25852e-12
0.0025
6.08267e-12
0.0025
5.90951e-12
0.0025
5.74182e-12
0.0025
5.57665e-12
0.0025
5.4166e-12
0.0025
5.25889e-12
0.0025
5.10598e-12
0.0025
4.95525e-12
0.0025
4.80903e-12
0.0025
4.66489e-12
0.0025
4.52498e-12
0.0025
4.38702e-12
0.0025
4.25306e-12
0.0025
4.12094e-12
0.0025
3.99262e-12
0.0025
3.86605e-12
0.0025
3.74308e-12
0.0025
3.62179e-12
0.0025
3.50392e-12
0.0025
3.38766e-12
0.0025
3.27469e-12
0.0025
3.16326e-12
0.0025
3.05499e-12
0.0025
2.94821e-12
0.0025
2.84451e-12
0.0025
2.74224e-12
0.0025
2.64311e-12
0.0025
2.5452e-12
0.0025
2.45088e-12
0.0025
2.35693e-12
0.0025
2.26853e-12
0.0025
2.17705e-12
0.0025
2.09929e-12
0.0025
2.00359e-12
0.0025
1.95151e-12
0.0025
1.82385e-12
0.0025
1.84722e-12
1.59362e-12
0.00250212
-1.73614e-05
0.00250858
-5.24063e-05
0.00252003
-9.03598e-05
0.00253757
-0.000132631
0.00256265
-0.000180012
0.00259695
-0.000231575
0.00264194
-0.000284413
0.00269753
-0.00033013
0.00276169
-0.000359131
0.00282679
-0.000353821
0.00288264
-0.000305074
0.00292412
-0.000227353
0.00294701
-0.000127503
0.00294761
-1.23984e-05
0.00292627
0.0001008
0.00288729
0.000195486
0.00283761
0.000260165
0.00278423
0.000292427
0.0027326
0.000296519
0.00268612
0.000279576
0.00264647
0.000248756
0.00261409
0.000210357
0.00258864
0.000169934
0.00256921
0.000132392
0.00255456
0.000101462
0.00254335
7.88595e-05
0.00253442
6.39665e-05
0.00252697
5.44785e-05
0.00252056
4.76776e-05
0.00251505
4.15584e-05
0.0025104
3.52511e-05
0.00250664
2.87648e-05
0.00250374
2.24706e-05
0.00250166
1.67218e-05
0.00250033
1.17367e-05
0.00249961
7.63605e-06
0.00249935
4.48307e-06
0.00249937
2.27234e-06
0.00249952
9.03798e-07
0.0024997
1.90501e-07
0.00249983
-9.2506e-08
0.00249991
-1.48145e-07
0.00249996
-1.18266e-07
0.00249997
-7.75119e-08
0.00249998
-5.09145e-08
0.00249998
-3.8191e-08
0.00249999
-3.21803e-08
0.00249999
-2.7626e-08
0.00249999
-2.27522e-08
0.0025
-1.78007e-08
0.0025
-1.34288e-08
0.0025
-9.97044e-09
0.0025
-7.39404e-09
0.0025
-5.50456e-09
0.0025
-4.10545e-09
0.0025
-3.05606e-09
0.0025
-2.26565e-09
0.0025
-1.67257e-09
0.0025
-1.23029e-09
0.0025
-9.0195e-10
0.0025
-6.58711e-10
0.0025
-4.78677e-10
0.0025
-3.45522e-10
0.0025
-2.4718e-10
0.0025
-1.74671e-10
0.0025
-1.2133e-10
0.0025
-8.21706e-11
0.0025
-5.35119e-11
0.0025
-3.25989e-11
0.0025
-1.7413e-11
0.0025
-6.43297e-12
0.0025
1.43096e-12
0.0025
7.02286e-12
0.0025
1.09372e-11
0.0025
1.36333e-11
0.0025
1.54305e-11
0.0025
1.65831e-11
0.0025
1.72595e-11
0.0025
1.76016e-11
0.0025
1.76955e-11
0.0025
1.76217e-11
0.0025
1.74222e-11
0.0025
1.71438e-11
0.0025
1.68048e-11
0.0025
1.64338e-11
0.0025
1.60364e-11
0.0025
1.56311e-11
0.0025
1.52172e-11
0.0025
1.48076e-11
0.0025
1.43982e-11
0.0025
1.39991e-11
0.0025
1.36045e-11
0.0025
1.32226e-11
0.0025
1.28471e-11
0.0025
1.24852e-11
0.0025
1.21303e-11
0.0025
1.1789e-11
0.0025
1.14548e-11
0.0025
1.11336e-11
0.0025
1.08193e-11
0.0025
1.05173e-11
0.0025
1.02218e-11
0.0025
9.93779e-12
0.0025
9.65985e-12
0.0025
9.39268e-12
0.0025
9.13104e-12
0.0025
8.8794e-12
0.0025
8.63285e-12
0.0025
8.39556e-12
0.0025
8.1629e-12
0.0025
7.93884e-12
0.0025
7.71902e-12
0.0025
7.50714e-12
0.0025
7.29914e-12
0.0025
7.09849e-12
0.0025
6.90139e-12
0.0025
6.71109e-12
0.0025
6.52404e-12
0.0025
6.34331e-12
0.0025
6.16555e-12
0.0025
5.99367e-12
0.0025
5.82452e-12
0.0025
5.66082e-12
0.0025
5.49967e-12
0.0025
5.3436e-12
0.0025
5.18989e-12
0.0025
5.04094e-12
0.0025
4.89419e-12
0.0025
4.75189e-12
0.0025
4.61165e-12
0.0025
4.47559e-12
0.0025
4.34148e-12
0.0025
4.2113e-12
0.0025
4.08297e-12
0.0025
3.95834e-12
0.0025
3.83545e-12
0.0025
3.71608e-12
0.0025
3.59837e-12
0.0025
3.48401e-12
0.0025
3.37123e-12
0.0025
3.26165e-12
0.0025
3.1536e-12
0.0025
3.04861e-12
0.0025
2.9451e-12
0.0025
2.84454e-12
0.0025
2.74542e-12
0.0025
2.6492e-12
0.0025
2.55435e-12
0.0025
2.46249e-12
0.0025
2.37183e-12
0.0025
2.28461e-12
0.0025
2.19779e-12
0.0025
2.11624e-12
0.0025
2.03198e-12
0.0025
1.96014e-12
0.0025
1.87327e-12
0.0025
1.82251e-12
0.0025
1.71243e-12
0.0025
1.71638e-12
1.51334e-12
0.00250188
-1.92425e-05
0.00250764
-5.81668e-05
0.00251805
-0.000100769
0.00253442
-0.000149003
0.00255862
-0.000204211
0.002593
-0.000265953
0.00263994
-0.000331356
0.00270024
-0.000390424
0.00277248
-0.000431374
0.00284684
-0.000428186
0.00291017
-0.000368399
0.00295721
-0.0002744
0.00298323
-0.000153515
0.00298318
-1.23562e-05
0.00295733
0.00012665
0.00291116
0.000241657
0.00285355
0.000317778
0.00279313
0.000352848
0.00273619
0.000353453
0.00268626
0.000329511
0.00264468
0.000290339
0.00261142
0.000243618
0.00258567
0.000195677
0.00256623
0.000151839
0.00255166
0.000116029
0.00254058
8.99386e-05
0.00253182
7.27244e-05
0.00252458
6.17228e-05
0.0025184
5.38531e-05
0.00251312
4.68452e-05
0.00250868
3.96908e-05
0.00250509
3.2354e-05
0.00250235
2.52068e-05
0.00250045
1.8626e-05
0.00249931
1.28742e-05
0.00249881
8.13146e-06
0.00249878
4.51528e-06
0.00249901
2.04209e-06
0.00249933
5.88159e-07
0.00249961
-9.15535e-08
0.00249981
-2.88767e-07
0.00249992
-2.57938e-07
0.00249996
-1.66783e-07
0.00249998
-9.35285e-08
0.00249998
-5.48684e-08
0.00249999
-4.00844e-08
0.00249999
-3.47961e-08
0.00249999
-3.06167e-08
0.00249999
-2.52959e-08
0.0025
-1.95569e-08
0.0025
-1.4503e-08
0.0025
-1.06154e-08
0.0025
-7.81305e-09
0.0025
-5.80563e-09
0.0025
-4.33216e-09
0.0025
-3.22588e-09
0.0025
-2.39021e-09
0.0025
-1.7628e-09
0.0025
-1.29571e-09
0.0025
-9.49784e-10
0.0025
-6.93965e-10
0.0025
-5.04786e-10
0.0025
-3.64922e-10
0.0025
-2.61654e-10
0.0025
-1.85537e-10
0.0025
-1.29561e-10
0.0025
-8.84824e-11
0.0025
-5.84264e-11
0.0025
-3.64983e-11
0.0025
-2.05748e-11
0.0025
-9.06381e-12
0.0025
-8.11319e-13
0.0025
5.05812e-12
0.0025
9.17473e-12
0.0025
1.2017e-11
0.0025
1.3922e-11
0.0025
1.5154e-11
0.0025
1.58911e-11
0.0025
1.62799e-11
0.0025
1.64122e-11
0.0025
1.63701e-11
0.0025
1.61991e-11
0.0025
1.59461e-11
0.0025
1.56318e-11
0.0025
1.5284e-11
0.0025
1.49101e-11
0.0025
1.45277e-11
0.0025
1.41371e-11
0.0025
1.37504e-11
0.0025
1.33646e-11
0.0025
1.29885e-11
0.0025
1.26175e-11
0.0025
1.22586e-11
0.0025
1.19065e-11
0.0025
1.15673e-11
0.0025
1.12355e-11
0.0025
1.09164e-11
0.0025
1.06046e-11
0.0025
1.0305e-11
0.0025
1.00123e-11
0.0025
9.73113e-12
0.0025
9.45641e-12
0.0025
9.19246e-12
0.0025
8.9344e-12
0.0025
8.68635e-12
0.0025
8.4437e-12
0.0025
8.21031e-12
0.0025
7.98183e-12
0.0025
7.76192e-12
0.0025
7.54648e-12
0.0025
7.33895e-12
0.0025
7.1355e-12
0.0025
6.93936e-12
0.0025
6.74692e-12
0.0025
6.56127e-12
0.0025
6.37897e-12
0.0025
6.20295e-12
0.0025
6.03e-12
0.0025
5.86286e-12
0.0025
5.69853e-12
0.0025
5.53961e-12
0.0025
5.38325e-12
0.0025
5.23192e-12
0.0025
5.08297e-12
0.0025
4.93872e-12
0.0025
4.79666e-12
0.0025
4.65901e-12
0.0025
4.52337e-12
0.0025
4.39188e-12
0.0025
4.26229e-12
0.0025
4.13657e-12
0.0025
4.01264e-12
0.0025
3.89238e-12
0.0025
3.77379e-12
0.0025
3.65867e-12
0.0025
3.54513e-12
0.0025
3.43489e-12
0.0025
3.32616e-12
0.0025
3.22056e-12
0.0025
3.11641e-12
0.0025
3.01527e-12
0.0025
2.91552e-12
0.0025
2.81866e-12
0.0025
2.72315e-12
0.0025
2.63045e-12
0.0025
2.53907e-12
0.0025
2.45047e-12
0.0025
2.36313e-12
0.0025
2.27866e-12
0.0025
2.19531e-12
0.0025
2.1153e-12
0.0025
2.03568e-12
0.0025
1.96104e-12
0.0025
1.88409e-12
0.0025
1.81819e-12
0.0025
1.74005e-12
0.0025
1.6914e-12
0.0025
1.59699e-12
0.0025
1.58868e-12
1.42538e-12
0.00250158
-2.0819e-05
0.00250645
-6.30357e-05
0.00251547
-0.000109798
0.00253022
-0.000163744
0.00255297
-0.000226965
0.00258694
-0.000299923
0.0026357
-0.00038011
0.00270143
-0.000456154
0.00278391
-0.000513858
0.00287005
-0.000514326
0.00294248
-0.000440825
0.00299627
-0.000328198
0.00302611
-0.000183351
0.00302523
-1.14753e-05
0.00299373
0.000158151
0.0029386
0.000296781
0.00287126
0.00038512
0.00280238
0.000421732
0.00273926
0.000416575
0.00268546
0.000383305
0.00264188
0.000333926
0.00260783
0.000277667
0.00258194
0.000221558
0.00256262
0.000171163
0.00254824
0.000130406
0.00253736
0.00010082
0.00252882
8.12669e-05
0.00252182
6.87179e-05
0.00251592
5.97542e-05
0.00251091
5.18618e-05
0.0025067
4.38932e-05
0.00250331
3.57456e-05
0.00250075
2.77654e-05
0.00249904
2.034e-05
0.00249813
1.37838e-05
0.0024979
8.36147e-06
0.00249815
4.27064e-06
0.00249863
1.56143e-06
0.00249913
7.9425e-08
0.00249954
-4.97815e-07
0.0024998
-5.48333e-07
0.00249993
-3.89405e-07
0.00249998
-2.15708e-07
0.00249999
-1.03403e-07
0.00249999
-5.35082e-08
0.00249999
-3.93632e-08
0.00249999
-3.67446e-08
0.00249999
-3.3674e-08
0.0025
-2.79068e-08
0.0025
-2.11867e-08
0.0025
-1.53327e-08
0.0025
-1.10113e-08
0.0025
-8.03579e-09
0.0025
-5.96853e-09
0.0025
-4.46274e-09
0.0025
-3.3258e-09
0.0025
-2.46177e-09
0.0025
-1.81241e-09
0.0025
-1.33033e-09
0.0025
-9.74581e-10
0.0025
-7.12132e-10
0.0025
-5.18242e-10
0.0025
-3.7494e-10
0.0025
-2.69163e-10
0.0025
-1.91239e-10
0.0025
-1.33969e-10
0.0025
-9.19699e-11
0.0025
-6.12563e-11
0.0025
-3.88612e-11
0.0025
-2.26068e-11
0.0025
-1.08631e-11
0.0025
-2.44454e-12
0.0025
3.53881e-12
0.0025
7.73679e-12
0.0025
1.06364e-11
0.0025
1.25837e-11
0.0025
1.38469e-11
0.0025
1.46095e-11
0.0025
1.50191e-11
0.0025
1.51709e-11
0.0025
1.51469e-11
0.0025
1.49944e-11
0.0025
1.47597e-11
0.0025
1.44648e-11
0.0025
1.41367e-11
0.0025
1.37836e-11
0.0025
1.34222e-11
0.0025
1.30537e-11
0.0025
1.26892e-11
0.0025
1.23263e-11
0.0025
1.1973e-11
0.0025
1.16253e-11
0.0025
1.12894e-11
0.0025
1.09607e-11
0.0025
1.06443e-11
0.0025
1.03355e-11
0.0025
1.00388e-11
0.0025
9.74945e-12
0.0025
9.47164e-12
0.0025
9.20069e-12
0.0025
8.94055e-12
0.0025
8.68673e-12
0.0025
8.44294e-12
0.0025
8.2049e-12
0.0025
7.97613e-12
0.0025
7.75259e-12
0.0025
7.53757e-12
0.0025
7.32729e-12
0.0025
7.12489e-12
0.0025
6.92677e-12
0.0025
6.73591e-12
0.0025
6.54892e-12
0.0025
6.36864e-12
0.0025
6.19187e-12
0.0025
6.0213e-12
0.0025
5.85391e-12
0.0025
5.69224e-12
0.0025
5.53347e-12
0.0025
5.38e-12
0.0025
5.22918e-12
0.0025
5.08329e-12
0.0025
4.93981e-12
0.0025
4.80091e-12
0.0025
4.66425e-12
0.0025
4.53186e-12
0.0025
4.40154e-12
0.0025
4.27521e-12
0.0025
4.15079e-12
0.0025
4.03013e-12
0.0025
3.91126e-12
0.0025
3.79591e-12
0.0025
3.68225e-12
0.0025
3.57191e-12
0.0025
3.46315e-12
0.0025
3.35755e-12
0.0025
3.25344e-12
0.0025
3.15233e-12
0.0025
3.05264e-12
0.0025
2.95582e-12
0.0025
2.86036e-12
0.0025
2.76766e-12
0.0025
2.67628e-12
0.0025
2.58755e-12
0.0025
2.50012e-12
0.0025
2.41527e-12
0.0025
2.33168e-12
0.0025
2.25067e-12
0.0025
2.17089e-12
0.0025
2.0938e-12
0.0025
2.01782e-12
0.0025
1.94496e-12
0.0025
1.87259e-12
0.0025
1.80479e-12
0.0025
1.73521e-12
0.0025
1.67522e-12
0.0025
1.60561e-12
0.0025
1.55983e-12
0.0025
1.47929e-12
0.0025
1.46393e-12
1.33224e-12
0.0025012
-2.20168e-05
0.00250495