/*--------------------------------*- C++ -*----------------------------------*\
  =========                 |
  \\      /  F ield         | OpenFOAM: The Open Source CFD Toolbox
   \\    /   O peration     | Website:  https://openfoam.org
    \\  /    A nd           | Version:  11
     \\/     M anipulation  |
\*---------------------------------------------------------------------------*/
FoamFile
{
    format      ascii;
    class       surfaceScalarField;
    location    "17.987447";
    object      phi_0;
}
// * * * * * * * * * * * * * * * * * * * * * * * * * * * * * * * * * * * * * //

dimensions      [0 3 -1 0 0 0 0];

internalField   nonuniform List<scalar> 
14638
(
0.00250272
-2.71778e-06
0.00251074
-8.01986e-06
0.00252396
-1.32189e-05
0.00254221
-1.82563e-05
0.00256523
-2.3022e-05
0.00259247
-2.72333e-05
0.00262291
-3.04382e-05
0.00265485
-3.19456e-05
0.00268588
-3.10257e-05
0.00271321
-2.73285e-05
0.00273409
-2.08884e-05
0.00274782
-1.37207e-05
0.00275524
-7.42918e-06
0.0027589
-3.657e-06
0.00276194
-3.04224e-06
0.00276641
-4.4703e-06
0.00277212
-5.70583e-06
0.0027761
-3.97542e-06
0.00277355
2.54391e-06
0.00276015
1.34012e-05
0.00273411
2.60356e-05
0.00269691
3.72034e-05
0.00265262
4.42941e-05
0.00260684
4.57791e-05
0.00256577
4.10692e-05
0.00253551
3.02565e-05
0.00252143
1.40809e-05
0.00252724
-5.81255e-06
0.0025536
-2.63552e-05
0.0025964
-4.27995e-05
0.00264623
-4.98324e-05
0.00269039
-4.41612e-05
0.00271723
-2.6842e-05
0.00272033
-3.09401e-06
0.00269992
2.04117e-05
0.00266141
3.85066e-05
0.0026127
4.87143e-05
0.00256208
5.06164e-05
0.00251742
4.46624e-05
0.00248601
3.14025e-05
0.00247448
1.15386e-05
0.00248773
-1.32502e-05
0.00252681
-3.90829e-05
0.00258637
-5.95584e-05
0.00265403
-6.76635e-05
0.00271341
-5.93836e-05
0.00274986
-3.64482e-05
0.00275569
-5.82249e-06
0.00273191
2.37705e-05
0.00268624
4.56716e-05
0.00262919
5.70577e-05
0.00257102
5.81662e-05
0.00252058
5.04381e-05
0.00248547
3.51139e-05
0.00247237
1.31016e-05
0.00248626
-1.38949e-05
0.00252811
-4.18459e-05
0.00259222
-6.41175e-05
0.00266571
-7.34847e-05
0.00273135
-6.56464e-05
0.00277327
-4.19178e-05
0.00278235
-9.07337e-06
0.00275871
2.36387e-05
0.00271035
4.83576e-05
0.0026492
6.11448e-05
0.00258722
6.19829e-05
0.00253427
5.29545e-05
0.00249801
3.62576e-05
0.00248451
1.35041e-05
0.00249784
-1.33312e-05
0.00253823
-4.03899e-05
0.00259992
-6.16975e-05
0.00267091
-7.09814e-05
0.00273546
-6.45533e-05
0.00277881
-4.33472e-05
0.00279163
-1.28287e-05
0.00277258
1.90507e-05
0.00272788
4.47005e-05
0.00266862
5.92676e-05
0.00260713
6.14848e-05
0.0025543
5.28333e-05
0.00251845
3.5844e-05
0.00250546
1.29899e-05
0.00251843
-1.29684e-05
0.0025564
-3.79676e-05
0.00261306
-5.66617e-05
0.00267712
-6.40619e-05
0.00273488
-5.77579e-05
0.00277402
-3.91379e-05
0.00278691
-1.2889e-05
0.00277221
1.4698e-05
0.00273456
3.76548e-05
0.00268277
5.17846e-05
0.00262751
5.52625e-05
0.00257909
4.84164e-05
0.0025461
3.29923e-05
0.00253454
1.1557e-05
0.00254703
-1.24833e-05
0.00258171
-3.4687e-05
0.00263187
-5.01575e-05
0.00268693
-5.50588e-05
0.00273512
-4.81904e-05
0.00276665
-3.15269e-05
0.00277605
-9.40364e-06
0.002763
1.30484e-05
0.00273163
3.13762e-05
0.002689
4.26267e-05
0.00264355
4.54469e-05
0.00260374
3.98151e-05
0.00257695
2.67825e-05
0.00256851
8.44872e-06
0.00258042
-1.19188e-05
0.00261053
-3.01005e-05
0.00265239
-4.18599e-05
0.00269673
-4.434e-05
0.00273388
-3.71555e-05
0.00275639
-2.25047e-05
0.00276065
-4.26355e-06
0.00274727
1.3381e-05
0.00272017
2.70943e-05
0.00268527
3.49036e-05
0.0026492
3.60704e-05
0.00261847
3.07304e-05
0.00259875
1.97221e-05
0.00259401
4.73722e-06
0.0026055
-1.14938e-05
0.00263098
-2.54745e-05
0.00266483
-3.38485e-05
0.00269939
-3.45661e-05
0.00272705
-2.76612e-05
0.00274225
-1.51945e-05
0.00274268
-4.3302e-07
0.00272941
1.32699e-05
0.00270603
2.33797e-05
0.0026775
2.85282e-05
0.00264916
2.83439e-05
0.00262605
2.31094e-05
0.00261244
1.36148e-05
0.00261113
1.30653e-06
0.00262269
-1.15563e-05
0.00264484
-2.2159e-05
0.00267274
-2.79001e-05
0.00270007
-2.73273e-05
0.00272079
-2.07132e-05
0.00273073
-9.94437e-06
0.00272855
2.18278e-06
0.00271566
1.28911e-05
0.0026955
2.01573e-05
0.00267252
2.29815e-05
0.00265129
2.12235e-05
0.00263601
1.52877e-05
0.00263002
5.98174e-06
0.00263542
-5.39488e-06
0.00265225
-1.68296e-05
0.00267832
-2.60669e-05
0.00270886
-3.05493e-05
0.00273886
-2.99942e-05
0.00276128
-2.24252e-05
0.00277662
-1.53364e-05
4.956e-06
0.00250271
-5.42665e-06
0.00251071
-1.60183e-05
0.00252391
-2.64214e-05
0.00254219
-3.65377e-05
0.00256533
-4.61568e-05
0.00259281
-5.47197e-05
0.00262369
-6.13154e-05
0.00265625
-6.45083e-05
0.002688
-6.27685e-05
0.00271594
-5.52782e-05
0.00273709
-4.20299e-05
0.00275064
-2.72771e-05
0.00275754
-1.43255e-05
0.00276053
-6.64729e-06
0.00276312
-5.6322e-06
0.00276763
-8.97886e-06
0.00277395
-1.20328e-05
0.00277893
-8.94691e-06
0.0027773
4.16768e-06
0.00276431
2.63908e-05
0.002738
5.23492e-05
0.00269991
7.52898e-05
0.00265434
8.98675e-05
0.00260709
9.30261e-05
0.00256454
8.36237e-05
0.00253295
6.18399e-05
0.00251796
2.90792e-05
0.00252362
-1.14755e-05
0.00255094
-5.36804e-05
0.00259589
-8.77452e-05
0.00264857
-0.000102509
0.00269537
-9.09626e-05
0.0027238
-5.52699e-05
0.00272707
-6.37323e-06
0.00270567
4.18186e-05
0.00266548
7.86899e-05
0.00261485
9.93526e-05
0.00256228
0.000103178
0.00251574
9.12081e-05
0.00248263
6.45107e-05
0.00246989
2.42828e-05
0.00248299
-2.63529e-05
0.0025235
-7.95909e-05
0.00258604
-0.000122101
0.00265746
-0.00013908
0.00272012
-0.000122043
0.00275833
-7.46638e-05
0.00276408
-1.15752e-05
0.00273878
4.90732e-05
0.00269083
9.36191e-05
0.00263138
0.000116514
0.00257099
0.000118557
0.00251853
0.000102892
0.00248161
7.20333e-05
0.00246711
2.76002e-05
0.00248048
-2.7258e-05
0.00252317
-8.45354e-05
0.0025897
-0.000130649
0.00266674
-0.000150528
0.00273607
-0.00013497
0.0027806
-8.64475e-05
0.00279047
-1.89519e-05
0.00276584
4.82738e-05
0.00271529
9.89025e-05
0.00265155
0.000124888
0.00258709
0.000126442
0.00253193
0.000108115
0.0024937
7.44905e-05
0.00247855
2.86519e-05
0.00249097
-2.57453e-05
0.00253164
-8.10678e-05
0.00259499
-0.000125048
0.00266862
-0.000144605
0.00273605
-0.000131984
0.00278173
-8.90335e-05
0.00279585
-2.69483e-05
0.00277689
3.80129e-05
0.00273124
9.03503e-05
0.00267034
0.000120173
0.00260689
0.000124934
0.00255204
0.000107676
0.0025144
7.34883e-05
0.00250018
2.72088e-05
0.00251294
-2.573e-05
0.00255199
-7.70124e-05
0.00261078
-0.000115459
0.00267734
-0.000130621
0.00273715
-0.000117567
0.00277739
-7.93732e-05
0.00279036
-2.58627e-05
0.00277498
3.00751e-05
0.00273622
7.64244e-05
0.00268313
0.000104871
0.00262651
0.000111879
0.0025768
9.81282e-05
0.00254279
6.7006e-05
0.00253085
2.3491e-05
0.00254398
-2.56079e-05
0.0025804
-7.11116e-05
0.00263299
-0.000102744
0.00269041
-0.000112479
0.00274015
-9.79331e-05
0.00277204
-6.34112e-05
0.00278068
-1.80466e-05
0.00276614
2.75837e-05
0.00273303
6.4494e-05
0.00268877
8.68842e-05
0.002642
9.22149e-05
0.00260128
8.0535e-05
0.00257415
5.39146e-05
0.00256611
1.64846e-05
0.00257935
-2.51612e-05
0.00261157
-6.23142e-05
0.00265586
-8.6148e-05
0.00270227
-9.07501e-05
0.00274055
-7.54432e-05
0.002763
-4.49531e-05
0.00276615
-7.40979e-06
0.00275097
2.85581e-05
0.00272186
5.62053e-05
0.00268511
7.16558e-05
0.00264762
7.35605e-05
0.00261607
6.22811e-05
0.00259627
3.95198e-05
0.00259232
8.68512e-06
0.00260547
-2.46365e-05
0.00263319
-5.32035e-05
0.0026694
-7.00504e-05
0.00270582
-7.09852e-05
0.00273437
-5.62145e-05
0.00274933
-3.01586e-05
0.00274856
3.37765e-07
0.00273347
2.83656e-05
0.00270805
4.87937e-05
0.00267765
5.89326e-05
0.00264786
5.81281e-05
0.00262396
4.70131e-05
0.00261037
2.7209e-05
0.00260999
1.67934e-06
0.00262333
-2.48942e-05
0.00264781
-4.664e-05
0.00267806
-5.81472e-05
0.00270719
-5.64631e-05
0.00272876
-4.22821e-05
0.00273847
-1.96531e-05
0.0027351
5.55606e-06
0.00272038
2.76096e-05
0.00269814
4.2398e-05
0.00267317
4.79502e-05
0.00265034
4.40502e-05
0.00263408
3.15554e-05
0.00262794
1.21186e-05
0.00263413
-1.15855e-05
0.00265266
-3.53633e-05
0.00268105
-5.44543e-05
0.00271407
-6.35669e-05
0.00274607
-6.19956e-05
0.00276974
-4.60941e-05
0.00278517
-3.07653e-05
1.07632e-05
0.00250269
-8.1165e-06
0.00251064
-2.39645e-05
0.00252379
-3.95789e-05
0.0025421
-5.48487e-05
0.00256544
-6.94929e-05
0.00259341
-8.26908e-05
0.00262516
-9.30628e-05
0.00265897
-9.83219e-05
0.0026922
-9.5997e-05
0.00272146
-8.45378e-05
0.00274316
-6.37315e-05
0.00275642
-4.05391e-05
0.00276226
-2.01651e-05
0.00276392
-8.30222e-06
0.00276562
-7.33032e-06
0.00277024
-1.36024e-05
0.00277786
-1.96562e-05
0.00278486
-1.59385e-05
0.00278501
4.01051e-06
0.00277267
3.87312e-05
0.00274555
7.94695e-05
0.00270545
0.000115391
0.00265714
0.000138174
0.00260691
0.000143266
0.00256146
0.000129071
0.00252743
9.58714e-05
0.0025109
4.56024e-05
0.00251664
-1.72132e-05
0.0025463
-8.33393e-05
0.0025959
-0.000137342
0.00265449
-0.000161103
0.00270655
-0.000143023
0.0027378
-8.65216e-05
0.00274084
-9.41059e-06
0.00271676
6.59033e-05
0.00267266
0.000122789
0.00261785
0.000154156
0.00256136
0.000159674
0.00251125
0.000141319
0.00247513
0.000100627
0.00246053
3.88856e-05
0.00247396
-3.97841e-05
0.00251792
-0.000123552
0.00258695
-0.000191128
0.00266623
-0.000218361
0.00273547
-0.000191285
0.00277677
-0.000115961
0.00278151
-1.63156e-05
0.00275214
7.84451e-05
0.00269881
0.00014694
0.00263411
0.000181216
0.00256923
0.000183443
0.002513
0.000159118
0.00247283
0.000112198
0.00245573
4.47043e-05
0.00246779
-3.932e-05
0.0025115
-0.000128247
0.00258206
-0.000201201
0.00266566
-0.000234134
0.0027423
-0.00021161
0.00279248
-0.000136628
0.00280452
-3.09894e-05
0.00277824
7.45505e-05
0.00272341
0.000153734
0.00265444
0.00019386
0.00258506
0.000195821
0.00252571
0.000167468
0.00248398
0.000116219
0.00246628
4.63532e-05
0.00247789
-3.73595e-05
0.00252034
-0.000123519
0.00258797
-0.000192673
0.00266714
-0.00022378
0.00273969
-0.000204532
0.00278876
-0.000138101
0.00280401
-4.21964e-05
0.00278406
5.796e-05
0.00273585
0.000138563
0.00267149
0.000184535
0.00260431
0.000192111
0.00254595
0.000166029
0.00250555
0.000113891
0.0024901
4.26615e-05
0.00250397
-3.95954e-05
0.00254666
-0.000119708
0.00261078
-0.000179578
0.00268263
-0.000202471
0.00274602
-0.00018096
0.00278727
-0.000120625
0.00279888
-3.74685e-05
0.00278061
4.83421e-05
0.0027384
0.000118633
0.00268201
0.000161266
0.00262253
0.000171355
0.0025706
0.000150064
0.00253537
0.00010223
0.00252387
3.4993e-05
0.00253957
-4.13119e-05
0.00258054
-0.000112073
0.00263853
-0.000160733
0.00270063
-0.00017458
0.00275295
-0.000150256
0.00278471
-9.51745e-05
0.00279084
-2.41763e-05
0.00277234
4.60856e-05
0.0027349
0.000101932
0.00268683
0.000134956
0.00263723
0.000141811
0.00259492
0.000122845
0.0025677
8.11369e-05
0.00256138
2.28081e-05
0.00257819
-4.1979e-05
0.00261532
-9.94383e-05
0.00266472
-0.000135545
0.00271508
-0.000141116
0.00275515
-0.000115506
0.00277684
-6.66507e-05
0.00277708
-7.6514e-06
0.0027577
4.7938e-05
0.00272409
8.98247e-05
0.00268336
0.000112386
0.00264298
0.000113932
0.00261002
9.52488e-05
0.00259054
5.8991e-05
0.00258882
1.04124e-05
0.00260588
-4.17031e-05
0.00263853
-8.58514e-05
0.00267952
-0.000111038
0.00271941
-0.000110879
0.00274932
-8.61232e-05
0.00276332
-4.41603e-05
0.00275966
3.99875e-06
0.00274052
4.75109e-05
0.00271077
7.8544e-05
0.0026765
9.31982e-05
0.0026439
9.07242e-05
0.00261867
7.22529e-05
0.00260552
4.03499e-05
0.0026075
-3.01192e-07
0.00262482
-4.22099e-05
0.00265415
-7.5966e-05
0.00268901
-9.30144e-05
0.00272146
-8.89137e-05
0.00274433
-6.51439e-05
0.00275314
-2.84651e-05
0.00274703
1.16676e-05
0.00272841
4.62274e-05
0.00270189
6.89155e-05
0.00267298
7.68624e-05
0.00264712
6.99088e-05
0.0026292
4.94731e-05
0.00262317
1.81498e-05
0.00263138
-1.97957e-05
0.00265364
-5.76219e-05
0.00268673
-8.7548e-05
0.00272449
-0.000101323
0.00276005
-9.75588e-05
0.00278573
-7.17721e-05
0.00280074
-4.57685e-05
1.84996e-05
0.00250266
-1.0773e-05
0.00251051
-3.18178e-05
0.00252358
-5.26443e-05
0.0025419
-7.31716e-05
0.0025655
-9.3095e-05
0.00259417
-0.000111363
0.00262723
-0.00012612
0.00266297
-0.000134067
0.00269855
-0.000131575
0.00272991
-0.000115894
0.00275251
-8.633e-05
0.00276531
-5.33392e-05
0.00276945
-2.43102e-05
0.00276894
-7.78893e-06
0.00276916
-7.54708e-06
0.00277391
-1.83548e-05
0.00278358
-2.93321e-05
0.00279382
-2.61778e-05
0.00279685
9.85371e-07
0.00278554
5.00406e-05
0.00275711
0.0001079
0.0027138
0.000158701
0.00266121
0.000190762
0.00260635
0.000198123
0.00255648
0.000178941
0.00251871
0.000133645
0.00249982
6.44947e-05
0.00250562
-2.30119e-05
0.00253888
-0.000116598
0.00259579
-0.000194258
0.00266378
-0.000229089
0.00272417
-0.000203414
0.00275978
-0.000122131
0.0027622
-1.18321e-05
0.00273363
9.44737e-05
0.0026832
0.000173213
0.00262187
0.000215494
0.00255936
0.000222177
0.00250392
0.000196763
0.00246331
0.000141234
0.00244575
5.64464e-05
0.00245902
-5.30503e-05
0.00250696
-0.000171492
0.00258463
-0.000268802
0.00267574
-0.000309475
0.00275619
-0.000271731
0.00280376
-0.000163525
0.00280789
-2.04466e-05
0.00277238
0.000113951
0.0027105
0.000208821
0.0026375
0.000254219
0.00256572
0.000255214
0.00250383
0.000221013
0.00245854
0.00015749
0.00243675
6.64952e-05
0.00244574
-4.83158e-05
0.00249001
-0.000172513
0.00256589
-0.00027708
0.00265865
-0.000326891
0.00274563
-0.000298592
0.00280429
-0.000195294
0.00282056
-4.72557e-05
0.00279337
0.000101737
0.00273351
0.000213602
0.00265753
0.000269835
0.00258112
0.000272236
0.00251559
0.000232993
0.00246886
0.000162948
0.0024481
6.71145e-05
0.00246002
-4.92845e-05
0.00250703
-0.000170528
0.0025825
-0.000268137
0.00267021
-0.000311489
0.00274928
-0.000283606
0.0028014
-0.000190223
0.00281627
-5.70595e-05
0.00279337
8.08542e-05
0.00274069
0.000191246
0.0026712
0.00025402
0.00259889
0.000264426
0.00253596
0.000228959
0.00249239
0.00015746
0.00247642
5.86294e-05
0.00249346
-5.66313e-05
0.00254281
-0.00016906
0.00261529
-0.000252061
0.00269464
-0.000281814
0.00276247
-0.000248793
0.00280415
-0.000162305
0.0028126
-4.59222e-05
0.00278898
7.19625e-05
0.00274081
0.000166808
0.00267899
0.000223085
0.00261519
0.000235156
0.00256034
0.000204914
0.00252414
0.000138425
0.00251439
4.47497e-05
0.00253493
-6.18549e-05
0.0025831
-0.000160239
0.00264883
-0.000226473
0.00271708
-0.00024283
0.00277236
-0.00020553
0.0028033
-0.000126118
0.00280533
-2.61992e-05
0.00278069
7.07186e-05
0.00273664
0.000145988
0.00268275
0.000188842
0.00262895
0.000195611
0.00258453
0.000167269
0.0025577
0.000107966
0.00255459
2.59106e-05
0.00257725
-6.46338e-05
0.00262173
-0.000143917
0.00267822
-0.00019204
0.00273365
-0.000196544
0.00277558
-0.000157439
0.0027957
-8.67705e-05
0.0027915
-3.44628e-06
0.00276595
7.34863e-05
0.00272578
0.000129991
0.00267931
0.000158857
0.00263487
0.000158377
0.0026001
0.00013002
0.00258152
7.75672e-05
0.00258351
8.42119e-06
0.00260663
-6.48206e-05
0.00264642
-0.000125639
0.00269395
-0.000158569
0.00273825
-0.000155178
0.00276951
-0.000117389
0.00278172
-5.63711e-05
0.00277372
1.19993e-05
0.00274873
7.24998e-05
0.00271282
0.000114461
0.00267312
0.000132892
0.00263668
0.000127171
0.00260981
9.91176e-05
0.00259772
5.24443e-05
0.00260348
-6.06393e-06
0.00262674
-6.54703e-05
0.00266293
-0.000112154
0.00270399
-0.000134077
0.00274057
-0.000125498
0.00276471
-8.92753e-05
0.00277185
-3.56053e-05
0.00276166
2.18541e-05
0.00273749
7.03979e-05
0.00270499
0.000101413
0.00267065
0.000111209
0.00264072
9.98315e-05
0.0026208
6.9396e-05
0.00261534
2.361e-05
0.00262682
-3.12802e-05
0.00265459
-8.53827e-05
0.00269422
-0.000127185
0.00273818
-0.000145283
0.00277805
-0.00013743
0.00280583
-9.95458e-05
0.00281965
-5.95957e-05
2.91645e-05
0.0025026
-1.33757e-05
0.00251031
-3.95202e-05
0.0025232
-6.55408e-05
0.00254148
-9.14476e-05
0.00256536
-0.000116982
0.00259492
-0.000140915
0.00262972
-0.000160927
0.00266815
-0.00017249
0.00270709
-0.000170521
0.00274149
-0.000150295
0.00276537
-0.000110209
0.00277746
-6.54284e-05
0.00277905
-2.59002e-05
0.00277526
-4.00075e-06
0.00277323
-5.50949e-06
0.00277812
-2.32515e-05
0.00279083
-4.20426e-05
0.00280592
-4.12664e-05
0.00281323
-6.3201e-06
0.00280346
5.98101e-05
0.00277315
0.00013821
0.00272529
0.000206559
0.00266673
0.000249325
0.00260549
0.000259357
0.00254952
0.000234916
0.00250648
0.000176679
0.00248408
8.68976e-05
0.00248969
-2.86206e-05
0.00252791
-0.00015482
0.00259538
-0.000261729
0.00267699
-0.000310696
0.0027493
-0.000275719
0.00279089
-0.000163722
0.00279207
-1.30146e-05
0.00275682
0.000129724
0.00269733
0.000232704
0.0026269
0.000285925
0.00255625
0.000292826
0.00249366
0.000259357
0.00244678
0.000188111
0.002424
7.92251e-05
0.00243395
-6.29989e-05
0.00248253
-0.000220076
0.00256745
-0.000353715
0.0026729
-0.000414929
0.00277079
-0.00036962
0.00283175
-0.000224485
0.00283979
-2.84882e-05
0.00279869
0.000155047
0.00272602
0.000281496
0.00264172
0.000338523
0.00256049
0.000336444
0.00249075
0.000290752
0.00243808
0.000210152
0.00240959
9.49861e-05
0.00241507
-5.37904e-05
0.00246192
-0.000219361
0.00254669
-0.000361857
0.0026516
-0.000431799
0.00275006
-0.000397049
0.00281692
-0.000262152
0.00283693
-6.72711e-05
0.00280868
0.000129987
0.00274354
0.000278745
0.00265977
0.000353607
0.00257495
0.000357055
0.00250172
0.000306224
0.00244905
0.000215616
0.00242581
9.03582e-05
0.00244052
-6.39997e-05
0.00249569
-0.0002257
0.00258227
-0.000354712
0.0026804
-0.000409616
0.00276623
-0.000369437
0.00282018
-0.000244178
0.00283245
-6.93258e-05
0.00280409
0.000109213
0.00274474
0.000250591
0.00266854
0.000330226
0.00259004
0.00034292
0.00252205
0.000296956
0.00247564
0.00020387
0.00246058
7.36838e-05
0.00248309
-7.91388e-05
0.00254144
-0.000227411
0.00262385
-0.000334473
0.00271123
-0.000369196
0.00278329
-0.00032085
0.00282468
-0.00020369
0.00282877
-5.00189e-05
0.00279815
0.000102584
0.00274218
0.000222783
0.0026733
0.000291962
0.00260407
0.000304382
0.002546
0.000262991
0.00250949
0.000174932
0.00250306
5.11742e-05
0.0025305
-8.92854e-05
0.00258762
-0.000217363
0.00266201
-0.000300859
0.00273641
-0.000317236
0.00279408
-0.000263202
0.0028234
-0.000155436
0.00282034
-2.3141e-05
0.00278841
0.000102655
0.00273643
0.000197967
0.00267551
0.000249764
0.00261667
0.000254449
0.00256999
0.000213949
0.0025443
0.000133651
0.00254597
2.42416e-05
0.00257634
-9.49997e-05
0.0026297
-0.000197279
0.00269402
-0.000256359
0.0027544
-0.00025693
0.00279755
-0.000200588
0.00281518
-0.000104401
0.0028055
6.23476e-06
0.00277268
0.000106304
0.00272487
0.000177809
0.0026717
0.000212027
0.0026226
0.000207477
0.00258607
0.000166551
0.0025692
9.44292e-05
0.0025764
1.22955e-06
0.00260727
-9.56975e-05
0.00265557
-0.000173935
0.00271029
-0.000213287
0.00275888
-0.000203774
0.00279087
-0.000149373
0.00280037
-6.58703e-05
0.00278698
2.53813e-05
0.00275508
0.000104405
0.00271198
0.000157558
0.00266604
0.000178833
0.00262531
0.000167899
0.00259698
0.000127449
0.00258678
6.26426e-05
0.00259773
-1.70135e-05
0.00262849
-9.62301e-05
0.00267275
-0.000156412
0.00272055
-0.000181877
0.00276112
-0.000166066
0.00278587
-0.000114027
0.00279042
-4.01519e-05
0.00277513
3.71467e-05
0.00274436
0.000101162
0.00270492
0.000140854
0.00266437
0.000151758
0.00262998
0.000134224
0.00260819
9.1183e-05
0.00260408
2.77185e-05
0.00262012
-4.73224e-05
0.00265478
-0.000120043
0.002702
-0.000174396
0.00275253
-0.000195819
0.00279639
-0.000181289
0.00282551
-0.000128669
0.00283708
-7.11642e-05
4.36379e-05
0.00250252
-1.58967e-05
0.00250999
-4.69903e-05
0.0025226
-7.81512e-05
0.00254072
-0.000109561
0.00256484
-0.000141103
0.00259539
-0.000171472
0.00263238
-0.000197914
0.00267432
-0.000214426
0.00271788
-0.00021409
0.00275654
-0.000188954
0.00278221
-0.000135875
0.00279334
-7.65586e-05
0.00279134
-2.39019e-05
0.00278283
4.50813e-06
0.00277741
-8.98429e-08
0.00278229
-2.81254e-05
0.00279916
-5.89169e-05
0.00282112
-6.3229e-05
0.00283458
-1.97782e-05
0.00282707
6.73192e-05
0.00279423
0.000171049
0.00274023
0.000260559
0.00267373
0.000315825
0.00260416
0.000328933
0.00254021
0.00029886
0.00249015
0.00022674
0.00246275
0.000114296
0.00246775
-3.36191e-05
0.00251283
-0.000199895
0.00259544
-0.000344341
0.00269639
-0.000411645
0.00278486
-0.000364189
0.00283364
-0.000212506
0.00283201
-1.13874e-05
0.00278698
0.000174754
0.0027151
0.000304585
0.00263279
0.00036824
0.00255187
0.000373747
0.00248031
0.000330909
0.00242476
0.000243661
0.00239257
0.000111415
0.00239334
-6.37698e-05
0.00243741
-0.00026414
0.00252746
-0.00044377
0.00264866
-0.000536125
0.00276861
-0.000489574
0.00285021
-0.000306078
0.00286958
-4.78585e-05
0.00282731
0.00019731
0.00274432
0.000364485
0.00264678
0.000436064
0.00255356
0.000429664
0.00247358
0.000370733
0.00241164
0.000272099
0.00237623
0.000130388
0.00238099
-5.85467e-05
0.0024355
-0.000273875
0.00253387
-0.00046022
0.00265302
-0.000550954
0.00276204
-0.000506069
0.00283413
-0.00033424
0.00285454
-8.76851e-05
0.00282293
0.000161598
0.00275154
0.000350139
0.00265958
0.000445561
0.00256585
0.000450793
0.00248432
0.000387751
0.00242588
0.000274057
0.00240184
0.000114402
0.00242213
-8.42923e-05
0.00248784
-0.000291413
0.00258632
-0.000453196
0.00269425
-0.000517542
0.00278574
-0.000460928
0.00284051
-0.000298951
0.0028491
-7.79132e-05
0.00281393
0.000144381
0.00274653
0.000317995
0.00266251
0.000414246
0.00257726
0.000428168
0.00250431
0.000369912
0.00245603
0.000252147
0.0024436
8.61125e-05
0.00247329
-0.000108827
0.00254138
-0.000295504
0.00263313
-0.00042622
0.00272714
-0.000463207
0.00280209
-0.000395799
0.00284248
-0.000244082
0.00284205
-4.95901e-05
0.00280432
0.000140314
0.00274019
0.000286913
0.00266373
0.000368428
0.00258871
0.000379395
0.00252761
0.000324096
0.00249175
0.000210786
0.00249015
5.27816e-05
0.00252574
-0.000124884
0.00259216
-0.000283778
0.0026744
-0.000383096
0.0027535
-0.000396336
0.00281217
-0.000321875
0.00283903
-0.000182295
0.00283065
-1.47605e-05
0.00279146
0.000141844
0.00273159
0.000257836
0.00266356
0.000317791
0.0025997
0.000318308
0.00255119
0.000262463
0.00252765
0.00015719
0.00253545
1.64436e-05
0.00257462
-0.000134167
0.00263709
-0.000259753
0.00270848
-0.000327746
0.00277249
-0.000320941
0.00281554
-0.000243636
0.00282979
-0.000118648
0.00281423
2.17931e-05
0.00277406
0.000146472
0.00271862
0.000233244
0.00265883
0.000271818
0.00260532
0.000260991
0.00256765
0.000204222
0.00255359
0.000108488
0.00256729
-1.24738e-05
0.00260692
-0.000135326
0.00266392
-0.000230928
0.00272514
-0.000274515
0.00277684
-0.000255471
0.00280832
-0.000180855
0.00281421
-7.17534e-05
0.00279493
4.46533e-05
0.0027559
0.000143436
0.00270559
0.000207873
0.0026535
0.000230922
0.00260882
0.000212576
0.00257974
0.00015653
0.00257256
6.98196e-05
0.00258996
-3.44135e-05
0.00262913
-0.000135398
0.00268161
-0.000208888
0.00273548
-0.000235755
0.00277889
-0.000209469
0.00280305
-0.00013819
0.00280404
-4.11459e-05
0.00278303
5.81577e-05
0.00274536
0.000138837
0.00269886
0.000187352
0.00265218
0.000198442
0.00261365
0.000172754
0.00259072
0.000114111
0.00258907
2.93714e-05
0.00261086
-6.91176e-05
0.00265321
-0.000162393
0.00270799
-0.000229172
0.00276425
-0.000252081
0.00281072
-0.00022776
0.00283974
-0.000157692
0.0028478
-7.92165e-05
6.25737e-05
0.0025024
-1.82983e-05
0.00250953
-5.41179e-05
0.00252168
-9.03068e-05
0.00253944
-0.000127322
0.00256366
-0.000165315
0.00259525
-0.000203067
0.00263482
-0.000237481
0.00268121
-0.000260816
0.00273098
-0.000263859
0.00277545
-0.000233428
0.00280349
-0.000163916
0.00281321
-8.62782e-05
0.00280609
-1.67819e-05
0.00279092
1.96822e-05
0.00278069
1.01369e-05
0.00278546
-3.28959e-05
0.00280816
-8.16127e-05
0.00283982
-9.48921e-05
0.0028619
-4.18524e-05
0.00285747
7.17402e-05
0.00282115
0.000207373
0.00275901
0.000322695
0.00268232
0.000392515
0.00260226
0.000408994
0.0025283
0.000372819
0.00246912
0.000285925
0.00243479
0.000148626
0.00243827
-3.70942e-05
0.00249125
-0.000252878
0.0025928
-0.000445893
0.00271973
-0.000538571
0.00283124
-0.000475707
0.00289035
-0.000271612
0.00288423
-5.26671e-06
0.00282514
0.000233844
0.00273654
0.000393183
0.00263919
0.000465592
0.00254597
0.000466964
0.00246359
0.000413288
0.00239609
0.000311168
0.0023495
0.000157999
0.00233749
-5.17539e-05
0.0023783
-0.000304952
0.00247808
-0.000543546
0.00261772
-0.00067577
0.00275867
-0.000630518
0.00285951
-0.000406923
0.0028921
-8.04422e-05
0.00285273
0.000236679
0.00276228
0.000454933
0.00265171
0.00054663
0.00254489
0.000536482
0.0024527
0.000462925
0.00238082
0.000343983
0.00234074
0.000170468
0.00234951
-6.73218e-05
0.00241602
-0.000340384
0.00252932
-0.000573514
0.00266128
-0.000682915
0.00277841
-0.000623199
0.00285327
-0.000409105
0.00287168
-0.000106093
0.00283467
0.000198604
0.00275593
0.000428883
0.00265557
0.000545918
0.00255308
0.00055329
0.00246372
0.000477108
0.00240076
0.000337013
0.002378
0.000137169
0.00240559
-0.000111884
0.00248176
-0.00036759
0.00259006
-0.000561491
0.00270484
-0.000632323
0.00279975
-0.000555841
0.00285464
-0.000353835
0.00286004
-8.33157e-05
0.00281881
0.00018561
0.00274374
0.000393063
0.002652
0.000505991
0.00256018
0.000519986
0.00248296
0.000447138
0.00243412
0.000300977
0.00242577
9.4471e-05
0.00246323
-0.000146288
0.0025401
-0.000372379
0.00263888
-0.000525002
0.00273682
-0.000561141
0.00281261
-0.000471589
0.00285126
-0.000282734
0.00284683
-4.51599e-05
0.00280318
0.000183967
0.00273204
0.000358049
0.00264878
0.000451693
0.00256857
0.000459597
0.00250523
0.000387438
0.00247116
0.000244861
0.00247542
4.85196e-05
0.0025194
-0.000168861
0.00259401
-0.000358389
0.00268195
-0.000471035
0.00276333
-0.000477721
0.00282117
-0.000379711
0.00284479
-0.00020592
0.00283139
-1.36039e-06
0.00278595
0.000187287
0.00271937
0.000324415
0.00264528
0.00039188
0.00257733
0.000386263
0.002528
0.000311787
0.00250778
0.000177412
0.00252264
1.58455e-06
0.00257067
-0.000182196
0.00264111
-0.0003302
0.00271754
-0.000404171
0.00278298
-0.000386384
0.00282428
-0.000284938
0.00283443
-0.000128793
0.00281318
4.304e-05
0.00276646
0.000193191
0.00270445
0.00029526
0.00263908
0.000337183
0.00258221
0.00031786
0.00254459
0.000241845
0.0025346
0.000118484
0.00255573
-3.3612e-05
0.00260414
-0.000183734
0.00266874
-0.000295525
0.00273459
-0.000340364
0.00278738
-0.000308264
0.00281686
-0.000210332
0.00281843
-7.3324e-05
0.00279334
6.9737e-05
0.0027478
0.000188981
0.00269113
0.000264541
0.00263386
0.000288197
0.0025863
0.000260132
0.00255771
0.000185117
0.00255484
7.2688e-05
0.0025796
-5.9169e-05
0.00262719
-0.000182989
0.00268684
-0.000268532
0.00274501
-0.000293928
0.00278934
-0.000253804
0.00281145
-0.000160294
0.00280812
-3.78199e-05
0.00278131
8.49665e-05
0.00273715
0.000183003
0.00268429
0.000240207
0.00263233
0.000250402
0.0025907
0.000214384
0.00256788
0.000136935
0.00256996
2.72857e-05
0.00259837
-9.75229e-05
0.00264832
-0.000212346
0.00270947
-0.000290318
0.00276947
-0.000312083
0.00281642
-0.00027471
0.00284356
-0.000184832
0.00284699
-8.26474e-05
8.62579e-05
0.00250223
-2.05319e-05
0.00250887
-6.0759e-05
0.00252034
-0.000101777
0.00253746
-0.000144441
0.00256149
-0.000189343
0.00259403
-0.000235607
0.00263651
-0.000279961
0.00268843
-0.000312732
0.00274646
-0.00032189
0.00279886
-0.000285828
0.00283016
-0.000195221
0.00283816
-9.42761e-05
0.00282412
-2.7418e-06
0.00279954
4.42652e-05
0.00278215
2.75226e-05
0.00278616
-3.69025e-05
0.00281653
-0.000111986
0.00286161
-0.000139968
0.00289578
-7.60285e-05
0.00289582
7.17045e-05
0.00285495
0.00024824
0.00278221
0.000395441
0.00269259
0.000482135
0.00259957
0.000502006
0.00251331
0.000459086
0.00244267
0.000356564
0.002399
0.000192292
0.00239726
-3.53477e-05
0.00245114
-0.000306763
0.00256441
-0.000559162
0.00271872
-0.000692875
0.00286622
-0.000623216
0.00295076
-0.000356146
0.00294708
-1.58454e-06
0.00287219
0.000308726
0.00276201
0.000503365
0.00264581
0.000581793
0.00253819
0.000574581
0.00244294
0.00050854
0.00236021
0.000393902
0.00229725
0.000220954
0.00227667
-3.11718e-05
0.00232429
-0.000352578
0.00244257
-0.000661818
0.00260221
-0.000835418
0.00275836
-0.000786661
0.00286953
-0.000518099
0.00290898
-0.000119887
0.00287154
0.000274115
0.00277592
0.000550555
0.00265425
0.000668301
0.00253395
0.000656778
0.00242903
0.000567851
0.00234827
0.000424739
0.00230697
0.000211764
0.00232337
-8.37163e-05
0.00240233
-0.00041935
0.0025272
-0.000698383
0.00266706
-0.000822774
0.00278866
-0.000744802
0.00286514
-0.000485585
0.00288202
-0.000122964
0.00284034
0.000240279
0.00275479
0.00051443
0.00264663
0.000654083
0.00253622
0.000663698
0.00244035
0.000572978
0.00237475
0.000402616
0.00235495
0.000156965
0.00238999
-0.000146921
0.00247452
-0.000452121
0.00258892
-0.000675894
0.00270667
-0.000750071
0.00280224
-0.000651411
0.00285639
-0.000407988
0.00285967
-8.65935e-05
0.00281447
0.000230813
0.00273377
0.000473763
0.00263579
0.000603974
0.00253854
0.000617226
0.00245829
0.000527389
0.00241028
0.000348986
0.00240683
9.79225e-05
0.0024515
-0.000190951
0.00253496
-0.000455844
0.00263762
-0.000627666
0.00273639
-0.000659905
0.00281084
-0.000546036
0.00284697
-0.000318872
0.00283925
-3.74347e-05
0.00279143
0.000231785
0.00271536
0.000434119
0.00262712
0.000539929
0.00254322
0.000543502
0.00247897
0.000451688
0.00244782
0.000276011
0.00245839
3.79468e-05
0.00250988
-0.000220348
0.00259046
-0.000438975
0.00268119
-0.000561763
0.00276215
-0.000558682
0.00281733
-0.000434891
0.00283713
-0.000225721
0.00281934
1.6436e-05
0.00276915
0.000237476
0.00269774
0.000395823
0.00261942
0.000470197
0.00254902
0.000456665
0.00250038
0.00036043
0.00248464
0.000193152
0.00250687
-2.06484e-05
0.00256273
-0.000238052
0.00263885
-0.000406327
0.00271748
-0.000482796
0.00278184
-0.000450749
0.00281984
-0.000322929
0.00282548
-0.000134442
0.00279922
6.93059e-05
0.00274735
0.00024506
0.00268048
0.000362129
0.0026113
0.000406365
0.00255276
0.000376391
0.00251678
0.00027783
0.00251206
0.000123202
0.00254092
-6.24718e-05
0.00259705
-0.000239857
0.002667
-0.000365478
0.00273477
-0.00040813
0.00278633
-0.000359828
0.00281241
-0.000236409
0.00280936
-7.02778e-05
0.0027791
9.99934e-05
0.00272831
0.000239777
0.00266684
0.000326009
0.00260601
0.000349026
0.00255723
0.000308913
0.00253073
0.000211616
0.00253338
7.00401e-05
0.00256575
-9.15418e-05
0.00262071
-0.000237949