/*--------------------------------*- C++ -*----------------------------------*\
  =========                 |
  \\      /  F ield         | OpenFOAM: The Open Source CFD Toolbox
   \\    /   O peration     | Website:  https://openfoam.org
    \\  /    A nd           | Version:  11
     \\/     M anipulation  |
\*---------------------------------------------------------------------------*/
FoamFile
{
    format      ascii;
    class       volVectorField;
    location    "17.987447";
    object      U;
}
// * * * * * * * * * * * * * * * * * * * * * * * * * * * * * * * * * * * * * //

dimensions      [0 1 -1 0 0 0 0];

internalField   nonuniform List<vector> 
7132
(
(1.00014 -0.000272296 2.26634e-18)
(1.00211 -0.000803687 8.71758e-18)
(1.00645 -0.0013247 9.58676e-18)
(1.01276 -0.00182862 1.22654e-17)
(1.02107 -0.00230387 1.69251e-17)
(1.03121 -0.00272173 1.90946e-17)
(1.04288 -0.00303685 1.96401e-17)
(1.05558 -0.00318115 1.95094e-17)
(1.06842 -0.00308316 1.90913e-17)
(1.08039 -0.00271065 1.83683e-17)
(1.09021 -0.00206923 1.72275e-17)
(1.09706 -0.00135598 1.60038e-17)
(1.10104 -0.000729517 1.47214e-17)
(1.10283 -0.000350802 1.34139e-17)
(1.10375 -0.00028371 8.82234e-18)
(1.10504 -0.000421202 4.33752e-18)
(1.10718 -0.000545183 8.0929e-19)
(1.10959 -0.000383431 1.7274e-19)
(1.11055 0.000246891 -7.76081e-19)
(1.10795 0.00130915 8.32551e-20)
(1.10035 0.00255752 2.07457e-18)
(1.08764 0.00367236 3.86579e-18)
(1.07098 0.00439111 4.69836e-18)
(1.05239 0.00455685 6.08808e-18)
(1.03432 0.00410725 1.24441e-17)
(1.01928 0.00304978 1.5263e-17)
(1.00965 0.00145762 -1.07427e-16)
(1.00739 -0.000506397 -2.57259e-16)
(1.0136 -0.00254194 1.72303e-15)
(1.02783 -0.0041866 8.94502e-15)
(1.04743 -0.00491917 1.67986e-14)
(1.0677 -0.00440644 1.62577e-14)
(1.08323 -0.00273384 8.941e-15)
(1.09 -0.000400359 2.71613e-15)
(1.08665 0.00193764 -7.25053e-17)
(1.07447 0.0037594 -7.03195e-16)
(1.05636 0.00480618 1.6223e-15)
(1.0357 0.00502628 5.02747e-15)
(1.01576 0.00446031 -1.41006e-14)
(0.999593 0.00316418 -8.36535e-14)
(0.99002 0.00121138 -6.09199e-14)
(0.989538 -0.00123022 6.57879e-13)
(0.999687 -0.00378363 2.97371e-12)
(1.01994 -0.00582914 6.79224e-12)
(1.04677 -0.00667966 9.99876e-12)
(1.07403 -0.00592582 1.02495e-11)
(1.09486 -0.00371142 7.60564e-12)
(1.10425 -0.000702282 4.09214e-12)
(1.10071 0.0022432 1.43212e-12)
(1.08623 0.00445325 8.25291e-14)
(1.06479 0.00562918 -2.99507e-13)
(1.04079 0.00577943 -1.00665e-13)
(1.01811 0.00504119 4.34559e-13)
(0.999996 0.00354026 1.81052e-13)
(0.989324 0.00137324 -4.21443e-12)
(0.988614 -0.00128844 -1.73431e-11)
(0.999422 -0.00405295 -4.17464e-11)
(1.02113 -0.00627722 -7.40132e-11)
(1.05007 -0.00725292 -1.03581e-10)
(1.07983 -0.00654364 -1.18147e-10)
(1.10316 -0.0042538 -1.11242e-10)
(1.11447 -0.00102978 -8.4975e-11)
(1.11172 0.00222031 -4.9549e-11)
(1.09669 0.00470907 -1.92601e-11)
(1.07375 0.00602828 -5.20649e-13)
(1.04801 0.00615796 8.28513e-12)
(1.02398 0.00529414 5.47726e-12)
(1.00515 0.00365493 -2.58319e-11)
(0.994247 0.00140692 -1.17124e-10)
(0.993441 -0.00124934 -2.97156e-10)
(1.00391 -0.00393505 -5.68175e-10)
(1.02483 -0.00606664 -8.89652e-10)
(1.05264 -0.0070258 -1.1829e-09)
(1.08149 -0.00643862 -1.36038e-09)
(1.10476 -0.0043802 -1.36453e-09)
(1.11715 -0.0013758 -1.19199e-09)
(1.11625 0.00179259 -8.91993e-10)
(1.10305 0.00436725 -5.46505e-10)
(1.08128 0.00585442 -2.42438e-10)
(1.05596 0.00611432 -4.36139e-11)
(1.03196 0.00528479 1.99023e-11)
(1.01321 0.00361643 -5.84816e-11)
(1.00255 0.00135975 -2.75013e-10)
(1.00191 -0.00120874 -6.15515e-10)
(1.01197 -0.00369154 -1.04609e-09)
(1.03145 -0.00556777 -1.50874e-09)
(1.05676 -0.00634489 -1.92924e-09)
(1.08261 -0.00577286 -2.23312e-09)
(1.10339 -0.00397 -2.36109e-09)
(1.11477 -0.0013853 -2.27963e-09)
(1.11475 0.00136134 -1.98745e-09)
(1.104 0.00367113 -1.52305e-09)
(1.08536 0.00511549 -9.7682e-10)
(1.06293 0.00550104 -4.79821e-10)
(1.0411 0.00485274 -1.58086e-10)
(1.02378 0.00334312 -7.94658e-11)
(1.01402 0.00122991 -2.33061e-10)
(1.0137 -0.00114857 -5.51615e-10)
(1.02314 -0.00335763 -9.50851e-10)
(1.04071 -0.004919 -1.3573e-09)
(1.06283 -0.00545178 -1.71756e-09)
(1.08474 -0.00482474 -1.99582e-09)
(1.1018 -0.00321551 -2.16703e-09)
(1.11069 -0.00104021 -2.20968e-09)
(1.11018 0.00119509 -2.10227e-09)
(1.10105 0.00304234 -1.83142e-09)
(1.08566 0.00419825 -1.41735e-09)
(1.06723 0.0045185 -9.34936e-10)
(1.04927 0.00399435 -5.00242e-10)
(1.03505 0.0027276 -2.19955e-10)
(1.02727 0.000925941 -1.40456e-10)
(1.02757 -0.00108861 -2.3666e-10)
(1.03607 -0.00290243 -4.41496e-10)
(1.05106 -0.0040989 -6.8481e-10)
(1.06925 -0.00439079 -9.16008e-10)
(1.08658 -0.00372762 -1.10711e-09)
(1.09936 -0.00231235 -1.24516e-09)
(1.1052 -0.000519268 -1.32226e-09)
(1.10345 0.00123744 -1.32775e-09)
(1.0951 0.00262148 -1.24746e-09)
(1.0822 0.00342915 -1.07445e-09)
(1.06736 0.00357993 -8.24761e-10)
(1.05329 0.00308255 -5.43436e-10)
(1.0425 0.00201744 -2.90235e-10)
(1.03704 0.000549833 -1.12743e-10)
(1.03813 -0.00105332 -2.74734e-11)
(1.04566 -0.00244991 -2.10435e-11)
(1.05806 -0.00330865 -6.52165e-11)
(1.07253 -0.00342102 -1.32073e-10)
(1.08579 -0.00277906 -2.01536e-10)
(1.095 -0.00157475 -2.61781e-10)
(1.09846 -0.000124539 -3.06286e-10)
(1.09589 0.00123927 -3.30589e-10)
(1.0883 0.00226072 -3.30634e-10)
(1.07749 0.00279784 -3.03651e-10)
(1.06559 0.00280852 -2.50712e-10)
(1.05473 0.00231747 -1.78605e-10)
(1.04685 0.00140076 -9.86586e-11)
(1.04345 0.000198795 -2.26654e-11)
(1.04534 -0.00106883 4.12919e-11)
(1.05225 -0.00212766 9.04339e-11)
(1.06273 -0.00272089 1.26051e-10)
(1.07443 -0.0026996 1.51166e-10)
(1.0847 -0.00208088 1.68757e-10)
(1.09131 -0.00104131 1.80987e-10)
(1.09308 0.000148061 1.89053e-10)
(1.09 0.00121218 1.93103e-10)
(1.08311 0.0019467 1.92212e-10)
(1.07408 0.00224745 1.84799e-10)
(1.06475 0.00209637 1.69752e-10)
(1.057 0.00153116 1.47833e-10)
(1.05222 0.000630255 1.2231e-10)
(1.05192 -0.000480003 9.8107e-11)
(1.05601 -0.00160448 7.99391e-11)
(1.06521 -0.00252447 7.0713e-11)
(1.07622 -0.0029875 7.10177e-11)
(1.09022 -0.00296405 7.96341e-11)
(1.09927 -0.00224447 9.49871e-11)
(1.11026 -0.00157352 1.11948e-10)
(1.10913 0.000433897 1.45e-10)
(1.00014 -0.000815838 3.01756e-20)
(1.0021 -0.00240919 4.18356e-19)
(1.00643 -0.00397303 9.05741e-19)
(1.01275 -0.00548951 1.52992e-18)
(1.02107 -0.00692447 2.38664e-18)
(1.03128 -0.00819216 3.29886e-18)
(1.04309 -0.00915555 3.98281e-18)
(1.056 -0.00960508 4.9814e-18)
(1.06912 -0.00931924 6.61011e-18)
(1.08138 -0.00819051 6.00092e-18)
(1.0914 -0.00622879 5.30871e-18)
(1.09827 -0.00404798 9.30771e-18)
(1.10209 -0.00213529 9.52661e-18)
(1.10361 -0.000994236 7.8608e-18)
(1.10427 -0.00082801 2.45085e-18)
(1.10544 -0.00130547 -5.40665e-18)
(1.10771 -0.00175149 -1.06925e-17)
(1.11048 -0.00131922 -9.29377e-18)
(1.11188 0.000566273 -3.7509e-18)
(1.1096 0.00379603 1.45043e-18)
(1.10204 0.00760922 5.00083e-18)
(1.08909 0.0110217 6.73079e-18)
(1.07198 0.0132335 5.16198e-18)
(1.05283 0.0137719 9.11323e-18)
(1.03414 0.0124501 2.64211e-17)
(1.01852 0.00928656 -3.99151e-17)
(1.0084 0.0044906 -1.71628e-16)
(1.00587 -0.00146315 6.29195e-16)
(1.0122 -0.00767705 3.21059e-15)
(1.02705 -0.0127376 4.15849e-15)
(1.04771 -0.0150279 7.87185e-15)
(1.06918 -0.0135017 1.52595e-14)
(1.08565 -0.00841103 1.28358e-14)
(1.0928 -0.00129173 4.69542e-15)
(1.08927 0.00583923 -7.83919e-16)
(1.07651 0.0113891 -1.85462e-15)
(1.05765 0.0145793 1.18294e-14)
(1.0362 0.0152682 2.6572e-14)
(1.01549 0.0135891 -9.65912e-14)
(0.998585 0.00970703 -5.27039e-13)
(0.988375 0.00382134 -3.66859e-13)
(0.987539 -0.00359302 4.86199e-12)
(0.997877 -0.0114083 2.2849e-11)
(1.01902 -0.0177189 5.36402e-11)
(1.0473 -0.020387 7.98375e-11)
(1.07611 -0.0181298 8.078e-11)
(1.09805 -0.0113845 5.70712e-11)
(1.1078 -0.00220201 2.8198e-11)
(1.10391 0.00678192 8.89045e-12)
(1.08861 0.013512 1.25742e-13)
(1.06618 0.0170879 -1.97924e-12)
(1.04124 0.0175562 -4.12983e-13)
(1.01771 0.0153504 3.28545e-12)
(0.998825 0.0108508 1.9022e-12)
(0.987471 0.00432386 -2.97883e-11)
(0.986303 -0.00374917 -1.37481e-10)
(0.997101 -0.0121994 -3.60958e-10)
(1.01944 -0.0190536 -6.73673e-10)
(1.04962 -0.022112 -9.50728e-10)
(1.08095 -0.0200084 -1.04411e-09)
(1.10566 -0.0130529 -9.07775e-10)
(1.11773 -0.00322797 -6.26708e-10)
(1.11495 0.00668736 -3.32665e-10)
(1.09923 0.0142816 -1.1884e-10)
(1.07526 0.018307 -6.06682e-12)
(1.04847 0.0187164 3.37269e-11)
(1.0235 0.0161278 2.49474e-11)
(1.00384 0.0112125 -5.58899e-11)
(0.992179 0.00445612 -2.85495e-10)
(0.990795 -0.00357239 -7.48227e-10)
(1.00108 -0.011751 -1.45838e-09)
(1.02236 -0.0183026 -2.30065e-09)
(1.05108 -0.0213189 -3.04632e-09)
(1.08111 -0.01963 -3.44907e-09)
(1.1055 -0.0134442 -3.3652e-09)
(1.11867 -0.00435158 -2.8269e-09)
(1.11807 0.00527331 -2.01898e-09)
(1.10469 0.0131232 -1.17753e-09)
(1.08238 0.0176881 -4.97513e-10)
(1.05631 0.0185365 -8.07577e-11)
(1.03149 0.0160853 5.50276e-11)
(1.01194 0.01109 -7.25791e-11)
(1.00063 0.00429183 -4.46131e-10)
(0.999643 -0.00349506 -1.03991e-09)
(1.00984 -0.0110707 -1.78738e-09)
(1.02999 -0.0168313 -2.57019e-09)
(1.05631 -0.0192489 -3.24581e-09)
(1.08316 -0.0175491 -3.68669e-09)
(1.10461 -0.0120995 -3.80588e-09)
(1.11623 -0.00427769 -3.5716e-09)
(1.11607 0.00403419 -3.017e-09)
(1.10494 0.0110292 -2.23948e-09)
(1.0858 0.0154187 -1.39439e-09)
(1.06282 0.0166226 -6.64863e-10)
(1.04045 0.0147121 -2.06187e-10)
(1.02264 0.0101923 -9.36185e-11)
(1.01255 0.00381833 -3.06394e-10)
(1.01222 -0.00340366 -7.52704e-10)
(1.02214 -0.0101484 -1.31125e-09)
(1.04059 -0.0149331 -1.86752e-09)
(1.06376 -0.0165709 -2.33628e-09)
(1.08653 -0.0146574 -2.66663e-09)
(1.104 -0.00975066 -2.8328e-09)
(1.11281 -0.00313776 -2.82052e-09)
(1.11181 0.00363702 -2.62005e-09)
(1.10199 0.0092204 -2.23303e-09)
(1.0859 0.012706 -1.69675e-09)
(1.06686 0.0136703 -1.10332e-09)
(1.04844 0.0120916 -5.83932e-10)
(1.03394 0.00826939 -2.55439e-10)
(1.02614 0.00281468 -1.66751e-10)
(1.02676 -0.00330955 -2.86544e-10)
(1.03597 -0.00884119 -5.34343e-10)
(1.05192 -0.0124919 -8.24161e-10)
(1.07108 -0.0133706 -1.09265e-09)
(1.08911 -0.011325 -1.30506e-09)
(1.10214 -0.0069895 -1.44716e-09)
(1.10773 -0.00152029 -1.51321e-09)
(1.10537 0.00381772 -1.49639e-09)
(1.09622 0.00800611 -1.3868e-09)
(1.08251 0.0104353 -1.18148e-09)
(1.06699 0.0108716 -8.99976e-10)
(1.05244 0.00934737 -5.90478e-10)
(1.04144 0.00610399 -3.15048e-10)
(1.03611 0.00163472 -1.22149e-10)
(1.03767 -0.00325456 -2.76169e-11)
(1.04602 -0.00751624 -1.65056e-11)
(1.05939 -0.0101277 -5.90839e-11)
(1.07477 -0.0104461 -1.26587e-10)
(1.08864 -0.00845339 -1.98573e-10)
(1.098 -0.00475004 -2.62764e-10)
(1.10115 -0.000312878 -3.11791e-10)
(1.09795 0.00384287 -3.40128e-10)
(1.08955 0.00694082 -3.42813e-10)
(1.07792 0.00855549 -3.16578e-10)
(1.06533 0.00856567 -2.62467e-10)
(1.054 0.00705015 -1.87534e-10)
(1.04593 0.00423906 -1.03377e-10)
(1.0427 0.000556386 -2.18782e-11)
(1.04513 -0.00332867 4.88393e-11)
(1.05289 -0.00657053 1.05641e-10)
(1.06437 -0.00837457 1.48927e-10)
(1.07697 -0.00828244 1.80438e-10)
(1.08781 -0.00635402 2.01934e-10)
(1.09457 -0.00314247 2.14916e-10)
(1.09604 0.00051431 2.2071e-10)
(1.09233 0.00377397 2.20236e-10)
(1.08463 0.00601506 2.13645e-10)
(1.07475 0.00692431 2.00393e-10)
(1.06467 0.00645115 1.80168e-10)
(1.05637 0.00471178 1.54261e-10)
(1.05133 0.00194348 1.26239e-10)
(1.05114 -0.00147186 1.01129e-10)
(1.05572 -0.00493548 8.35338e-11)
(1.06576 -0.00776961 7.60058e-11)
(1.07776 -0.00919226 7.85675e-11)
(1.09276 -0.0091016 8.93793e-11)
(1.1024 -0.00688145 1.06263e-10)
(1.11391 -0.00477877 1.24068e-10)
(1.11225 0.00134699 1.56318e-10)
(1.00014 -0.00135668 4.50111e-23)
(1.00209 -0.00400772 5.39323e-21)
(1.00639 -0.00661582 -2.20007e-22)
(1.01269 -0.00915669 7.82284e-21)
(1.02106 -0.0115774 -3.4023e-20)
(1.03139 -0.0137372 -1.59e-19)
(1.04346 -0.0154054 -2.20824e-19)
(1.05681 -0.016215 3.49899e-20)
(1.0705 -0.0157733 -1.0772e-18)
(1.08338 -0.0138608 -3.54405e-18)
(1.09382 -0.010468 -4.43909e-19)
(1.10074 -0.00669182 8.0775e-18)
(1.10427 -0.00337487 5.95459e-18)
(1.10523 -0.00141666 -1.66507e-17)
(1.10536 -0.0011963 -4.55913e-17)
(1.10632 -0.00214322 -5.15139e-17)
(1.10886 -0.00307421 -2.03515e-17)
(1.11237 -0.00247767 2.72172e-17)
(1.11465 0.000687731 5.65128e-17)
(1.11295 0.00623758 5.67592e-17)
(1.10539 0.0128215 4.22029e-17)
(1.09184 0.0187084 1.83959e-17)
(1.07374 0.0225204 1.15512e-17)
(1.05341 0.0234695 1.23864e-16)
(1.03352 0.0212589 -3.25183e-16)
(1.01678 0.0159211 -1.95038e-15)
(1.00579 0.00778283 9.98008e-15)
(1.00286 -0.00239887 3.89374e-14)
(1.00958 -0.0131271 -2.02439e-13)
(1.02582 -0.0219508 -1.19887e-12)
(1.04874 -0.0259985 -2.30892e-12)
(1.07268 -0.0233824 -2.2027e-12)
(1.09095 -0.0145361 -1.14436e-12)
(1.09867 -0.00219017 -3.05017e-13)
(1.09448 0.0100964 -4.50166e-15)
(1.08031 0.0195713 3.99666e-14)
(1.05975 0.0249596 7.1288e-14)
(1.03665 0.0260993 4.94368e-14)
(1.01443 0.0232644 -4.7085e-13)
(0.99617 0.0167224 -1.45011e-12)
(0.984881 0.00673922 6.37485e-13)
(0.983579 -0.00597045 1.54879e-11)
(0.994547 -0.0195152 5.00408e-11)
(1.0177 -0.0305469 9.48348e-11)
(1.04907 -0.0352431 1.3169e-10)
(1.08107 -0.0313094 1.41486e-10)
(1.10518 -0.0195447 1.13236e-10)
(1.11539 -0.00360823 6.52445e-11)
(1.11037 0.0118619 2.62198e-11)
(1.09302 0.0233221 3.30475e-12)
(1.06836 0.0293072 -4.70584e-12)
(1.04143 0.0300085 3.06314e-13)
(1.01626 0.0262421 1.4244e-11)
(0.995976 0.0186578 2.28866e-12)
(0.983404 0.00764009 -1.50021e-10)
(0.981336 -0.00609118 -6.37789e-10)
(0.991925 -0.0206114 -1.60039e-09)
(1.01518 -0.0325429 -2.88794e-09)
(1.04755 -0.0380259 -4.00025e-09)
(1.08187 -0.0345756 -4.37532e-09)
(1.10945 -0.0226359 -3.81693e-09)
(1.12327 -0.00564852 -2.6459e-09)
(1.12061 0.0114944 -1.41568e-09)
(1.10359 0.0245574 -5.1724e-10)
(1.07757 0.0313995 -4.38949e-11)
(1.04866 0.0320268 1.15687e-10)
(1.02186 0.0276028 8.61404e-11)
(1.00065 0.0193162 -1.39084e-10)
(0.987708 0.00793534 -7.03388e-10)
(0.985518 -0.00568741 -1.74771e-09)
(0.995889 -0.019712 -3.2267e-09)
(1.01841 -0.0310734 -4.85221e-09)
(1.04924 -0.0364137 -6.21563e-09)
(1.08158 -0.0336583 -6.94599e-09)
(1.10779 -0.0231526 -6.81127e-09)
(1.12192 -0.00763904 -5.80968e-09)
(1.12134 0.00880219 -4.2223e-09)
(1.10722 0.0222202 -2.5066e-09)
(1.08364 0.0300412 -1.08862e-09)
(1.05609 0.0315458 -2.05269e-10)
(1.02978 0.0274586 1.01883e-10)
(1.0089 0.0190479 -1.13448e-10)
(0.996672 0.0075153 -7.77915e-10)
(0.995549 -0.00581001 -1.78635e-09)
(1.00668 -0.0188633 -2.96248e-09)
(1.02874 -0.0288074 -4.08663e-09)
(1.05737 -0.0329374 -4.97623e-09)
(1.08617 -0.0299267 -5.52303e-09)
(1.10862 -0.0204941 -5.6602e-09)
(1.12014 -0.00709547 -5.33422e-09)
(1.11906 0.00702017 -4.54256e-09)
(1.10658 0.0188135 -3.39656e-09)
(1.08603 0.0261689 -2.12807e-09)
(1.0618 0.0281655 -1.02415e-09)
(1.03838 0.0249371 -3.25623e-10)
(1.01981 0.0172934 -1.45897e-10)
(1.00946 0.00644248 -4.47778e-10)
(1.00968 -0.00593843 -1.07806e-09)
(1.02104 -0.0175416 -1.8352e-09)
(1.04162 -0.0257357 -2.54232e-09)
(1.06698 -0.0284263 -3.0938e-09)
(1.09135 -0.0249454 -3.45405e-09)
(1.10938 -0.0163451 -3.61959e-09)
(1.11763 -0.00492982 -3.58116e-09)
(1.11525 0.0066141 -3.31697e-09)
(1.10367 0.0160015 -2.82026e-09)
(1.08587 0.0217594 -2.13722e-09)
(1.06546 0.0232424 -1.38714e-09)
(1.04611 0.0204504 -7.36362e-10)
(1.03122 0.0138755 -3.28985e-10)
(1.02368 0.00451622 -2.21202e-10)
(1.02534 -0.00600016 -3.67385e-10)
(1.0363 -0.01548 -6.61142e-10)
(1.05439 -0.0216601 -9.9387e-10)
(1.07552 -0.0229912 -1.29208e-09)
(1.09482 -0.0192522 -1.52193e-09)
(1.10809 -0.0116123 -1.67328e-09)
(1.11292 -0.00212799 -1.741e-09)
(1.10907 0.00700267 -1.71519e-09)
(1.09807 0.0140552 -1.58339e-09)
(1.08259 0.0180385 -1.3433e-09)
(1.06564 0.0186087 -1.01935e-09)
(1.05017 0.0158526 -6.67339e-10)
(1.0389 0.0101837 -3.56257e-10)
(1.03403 0.00243488 -1.37629e-10)
(1.03684 -0.00600618 -2.60698e-11)
(1.04702 -0.0133099 -3.47958e-12)
(1.06247 -0.0176886 -3.79657e-11)
(1.07963 -0.018042 -1.00791e-10)
(1.09456 -0.0143874 -1.72803e-10)
(1.10403 -0.00782703 -2.42418e-10)
(1.10639 -9.57255e-05 -3.01081e-10)
(1.10173 0.00704348 -3.40479e-10)
(1.09158 0.012275 -3.52567e-10)
(1.07823 0.0149066 -3.3183e-10)
(1.06424 0.0147683 -2.78515e-10)
(1.05201 0.0120159 -2.00104e-10)
(1.0437 0.00704836 -1.09078e-10)
(1.041 0.000597593 -1.80543e-11)
(1.04472 -0.00616458 6.4231e-11)
(1.05433 -0.0117476 1.33704e-10)
(1.06782 -0.0147583 1.89268e-10)
(1.08212 -0.0144179 2.30875e-10)
(1.09397 -0.0108769 2.587e-10)
(1.10084 -0.00515025 2.73309e-10)
(1.10156 0.00127106 2.75978e-10)
(1.09647 0.00692004 2.68468e-10)
(1.08706 0.0107394 2.52393e-10)
(1.07547 0.0122177 2.28883e-10)
(1.06393 0.0112937 1.99152e-10)
(1.05463 0.00817906 1.65705e-10)
(1.04921 0.00328255 1.32924e-10)
(1.04941 -0.00273187 1.06158e-10)
(1.05514 -0.00881016 8.97549e-11)
(1.06696 -0.0137373 8.54636e-11)
(1.08092 -0.0161556 9.21536e-11)
(1.09779 -0.0158424 1.06858e-10)
(1.10841 -0.0118859 1.26413e-10)
(1.12072 -0.00798025 1.45715e-10)
(1.11778 0.00253711 1.76691e-10)
(1.00014 -0.0018926 -3.50849e-20)
(1.00206 -0.00559251 -5.50447e-19)
(1.00632 -0.00924638 -1.15332e-18)
(1.01259 -0.0128301 -1.83366e-18)
(1.021 -0.0162796 -3.08524e-18)
(1.03151 -0.019403 -3.80218e-18)
(1.04397 -0.0218744 -4.9119e-18)
(1.05797 -0.023142 -4.22928e-18)
(1.07255 -0.0226064 -1.3636e-17)
(1.08643 -0.0198669 -1.69659e-17)
(1.09754 -0.0148533 2.18959e-17)
(1.10453 -0.00926818 5.30852e-17)
(1.1076 -0.00436208 -2.90178e-17)
(1.10768 -0.00153419 -1.51618e-16)
(1.10693 -0.00139623 -5.60988e-17)
(1.10752 -0.00308789 4.66611e-16)
(1.11049 -0.00481507 1.19843e-15)
(1.11518 -0.00424237 1.52963e-15)
(1.11888 0.000268765 1.27854e-15)
(1.11811 0.00843906 8.18225e-16)
(1.11053 0.018177 3.88904e-16)
(1.09604 0.0268542 4.04326e-17)
(1.07637 0.0324543 1.799e-16)
(1.0542 0.0338853 7.85677e-16)
(1.03245 0.0307674 -5.32554e-15)
(1.01401 0.0231518 -7.83662e-15)
(1.00169 0.0114504 9.66968e-14)
(0.998136 -0.00334864 1.29934e-13)
(1.00542 -0.0191517 -1.50336e-12)
(1.02384 -0.0323279 -6.24327e-12)
(1.05033 -0.0384701 -1.15732e-11)
(1.07818 -0.0346134 -1.23388e-11)
(1.0993 -0.0213974 -7.69625e-12)
(1.10784 -0.00303709 -2.63616e-12)
(1.10251 0.015037 -2.47158e-13)
(1.086 0.0287572 3.33999e-13)
(1.06275 0.0364021 2.79807e-13)
(1.0371 0.0379229 -3.30377e-13)
(1.0126 0.0338286 -9.00342e-13)
(0.99232 0.0244841 3.43861e-12)
(0.979412 0.0101237 1.08306e-11)
(0.977285 -0.00841259 -3.45158e-11)
(0.988812 -0.028458 -2.68341e-10)
(1.01441 -0.0449838 -7.30255e-10)
(1.05007 -0.0520938 -1.14032e-09)
(1.08717 -0.0461961 -1.14101e-09)
(1.11525 -0.0285289 -7.58939e-10)
(1.12676 -0.00477481 -3.25486e-10)
(1.12023 0.0179879 -6.39654e-11)
(1.09965 0.0345233 1.83071e-11)
(1.07141 0.0428772 1.80782e-11)
(1.04137 0.0436003 2.0169e-11)
(1.01374 0.0380731 4.21547e-11)
(0.991351 0.027278 -3.62401e-11)
(0.976768 0.0116525 -5.48265e-10)
(0.972933 -0.00799457 -1.92834e-09)
(0.982747 -0.029112 -4.30532e-09)
(1.00707 -0.0468695 -7.1645e-09)
(1.04246 -0.0554732 -9.52412e-09)
(1.08097 -0.0509731 -1.04321e-08)
(1.11263 -0.0337481 -9.44195e-09)
(1.12926 -0.00878796 -6.94363e-09)
(1.12736 0.0165481 -4.00083e-09)
(1.10904 0.0358057 -1.62902e-09)
(1.08042 0.0457641 -2.56085e-10)
(1.04855 0.0465649 2.58319e-10)
(1.01905 0.040128 2.12013e-10)
(0.995564 0.0282864 -3.05842e-10)
(0.980856 0.0120291 -1.42898e-09)
(0.977899 -0.00765154 -3.21672e-09)
(0.989151 -0.0281902 -5.39666e-09)
(1.01429 -0.0449839 -7.47488e-09)
(1.04869 -0.0529191 -9.05464e-09)
(1.08431 -0.0489156 -9.93394e-09)
(1.11257 -0.0336034 -9.94341e-09)
(1.12722 -0.011104 -8.90547e-09)
(1.12591 0.0126438 -6.8855e-09)
(1.11023 0.0319782 -4.37451e-09)
(1.08467 0.0432457 -2.07122e-09)
(1.05501 0.0454578 -5.12967e-10)
(1.0267 0.0396703 9.31283e-11)
(1.00414 0.0276435 -2.04695e-10)
(0.990987 0.0109754 -1.21686e-09)
(0.990262 -0.00849195 -2.64589e-09)
(1.0034 -0.0276618 -4.12415e-09)
(1.02867 -0.0421831 -5.34331e-09)
(1.06076 -0.0479745 -6.17728e-09)
(1.09217 -0.043178 -6.65836e-09)
(1.11569 -0.029078 -6.82549e-09)
(1.12663 -0.0094775 -6.6038e-09)
(1.12372 0.010831 -5.85758e-09)
(1.10883 0.0275456 -4.57916e-09)
(1.08591 0.0378024 -2.99997e-09)
(1.05968 0.0404413 -1.52453e-09)
(1.03476 0.0356995 -5.44516e-10)
(1.01531 0.0246492 -2.64738e-10)
(1.00498 0.0088924 -6.36411e-10)
(1.00646 -0.00918584 -1.4138e-09)
(1.02033 -0.0261188 -2.29004e-09)
(1.04411 -0.0379086 -3.03519e-09)
(1.07248 -0.0414441 -3.55938e-09)
(1.09884 -0.0358568 -3.88142e-09)
(1.11737 -0.0228821 -4.0458e-09)
(1.1246 -0.00605991 -4.05057e-09)
(1.12006 0.0106255 -3.83627e-09)
(1.10579 0.0239103 -3.34411e-09)
(1.08538 0.0318083 -2.59319e-09)
(1.06288 0.0335468 -1.72039e-09)
(1.04218 0.0292085 -9.40819e-10)
(1.02686 0.0194831 -4.44465e-10)
(1.01997 0.00575415 -3.02674e-10)
(1.02346 -0.00962018 -4.52293e-10)
(1.03719 -0.023367 -7.576e-10)
(1.05837 -0.0321048 -1.09179e-09)
(1.08212 -0.0335852 -1.38195e-09)
(1.10294 -0.0276054 -1.60646e-09)
(1.11631 -0.0160351 -1.76657e-09)
(1.1199 -0.00200112 -1.85814e-09)
(1.11382 0.0112484 -1.86038e-09)
(1.10016 0.0212457 -1.74527e-09)
(1.0821 0.0266517 -1.49989e-09)
(1.06308 0.0270772 -1.14912e-09)
(1.04635 0.0227141 -7.58675e-10)
(1.03481 0.0141737 -4.0944e-10)
(1.03082 0.0026659 -1.597e-10)
(1.03562 -0.00975033 -2.42615e-11)
(1.04859 -0.0203343 1.7692e-11)
(1.06696 -0.0264349 -3.28758e-13)
(1.08648 -0.0264897 -5.04752e-11)
(1.10266 -0.0206471 -1.16163e-10)
(1.11208 -0.0106589 -1.88199e-10)
(1.11317 0.000841706 -2.58207e-10)
(1.10639 0.0112527 -3.14879e-10)
(1.09372 0.0186914 -3.44981e-10)
(1.07795 0.0222233 -3.37969e-10)
(1.06199 0.021674 -2.91201e-10)
(1.04858 0.0173136 -2.11856e-10)
(1.04007 0.00974039 -1.13747e-10)
(1.03831 4.80554e-05 -1.13162e-11)
(1.04402 -0.00999054 8.4818e-11)
(1.05632 -0.018121 1.6862e-10)
(1.0726 -0.022274 2.37145e-10)
(1.08912 -0.0213586 2.88966e-10)
(1.10215 -0.0157081 3.23421e-10)
(1.10897 -0.00693218 3.40521e-10)
(1.10851 0.00270314 3.41162e-10)
(1.10142 0.0110265 3.27207e-10)
(1.0896 0.016518 3.01153e-10)
(1.07563 0.0184837 2.65728e-10)
(1.06209 0.0168828 2.24147e-10)
(1.05147 0.0120493 1.80881e-10)
(1.04568 0.0045888 1.41814e-10)
(1.04661 -0.00449615 1.12933e-10)
(1.05413 -0.0136036 9.82066e-11)
(1.0685 -0.0208541 9.81549e-11)
(1.08511 -0.0242646 1.10013e-10)
(1.10435 -0.0234326 1.29362e-10)
(1.11606 -0.0173619 1.51923e-10)
(1.12922 -0.0110594 1.72777e-10)
(1.12428 0.00420097 2.02068e-10)
(1.00013 -0.00242007 -2.49492e-18)
(1.00202 -0.0071539 -8.50633e-18)
(1.0062 -0.0118526 -7.82783e-18)
(1.01242 -0.0165026 -1.02674e-17)
(1.02084 -0.02104 -1.05661e-17)
(1.03156 -0.0252301 -1.30349e-17)
(1.04453 -0.0286504 -3.44509e-18)
(1.05943 -0.0305273 -2.95148e-17)
(1.07525 -0.0300028 -8.44355e-17)
(1.09057 -0.0263762 1.34489e-16)
(1.10266 -0.0194475 4.0227e-16)
(1.10976 -0.0117156 2.19652e-16)
(1.11213 -0.00489563 -2.53501e-16)
(1.11086 -0.00103532 -2.06272e-16)
(1.10881 -0.00109996 1.25324e-15)
(1.10883 -0.00390459 4.3359e-15)
(1.11241 -0.00690474 7.65738e-15)
(1.11886 -0.00668157 8.51541e-15)
(1.12468 -0.000780815 6.30744e-15)
(1.1253 0.0104216 3.65889e-15)
(1.1177 0.0238652 1.39395e-15)
(1.10185 0.0357894 -4.32807e-17)
(1.07997 0.0434357 1.48874e-15)
(1.05525 0.0454255 -3.06195e-15)
(1.03094 0.0413505 -1.93685e-14)
(1.01015 0.0313002 7.77613e-14)
(0.995928 0.0157238 4.55832e-15)
(0.991378 -0.00425375 -1.37638e-12)
(0.999353 -0.0259724 3.14828e-12)
(1.02086 -0.0444122 3.06504e-11)
(1.05255 -0.0531868 6.26813e-11)
(1.08607 -0.0478751 5.66602e-11)
(1.11119 -0.0293518 2.43249e-11)
(1.12077 -0.00377192 3.09267e-12)
(1.11366 0.0210393 -1.72432e-12)
(1.09372 0.0394561 -5.13693e-13)
(1.06667 0.0494037 -2.62249e-13)
(1.03752 0.0511693 -2.25327e-12)
(1.00996 0.0456503 4.96642e-12)
(0.986987 0.0333157 3.84267e-11)
(0.971723 0.014265 5.80763e-12)
(0.967718 -0.0106527 -4.99131e-10)
(0.978352 -0.0380594 -2.05409e-09)
(1.00514 -0.061178 -4.56619e-09)
(1.0451 -0.0716497 -6.74187e-09)
(1.08913 -0.0639196 -7.04617e-09)
(1.12423 -0.0393317 -5.28511e-09)
(1.13973 -0.00607562 -2.78035e-09)
(1.13278 0.0254383 -9.06948e-10)
(1.10848 0.0477384 -4.82995e-11)
(1.07543 0.0584372 1.43138e-10)
(1.04112 0.0588349 1.30472e-10)
(1.01011 0.0512491 9.73852e-11)
(0.984777 0.0371425 -2.20685e-10)
(0.967237 0.0168577 -1.4676e-09)
(0.960952 -0.00906631 -4.15125e-09)
(0.970246 -0.0376698 -7.95996e-09)
(0.996928 -0.062408 -1.18329e-08)
(1.0369 -0.0749946 -1.47592e-08)
(1.08049 -0.0696716 -1.61082e-08)
(1.11631 -0.0467689 -1.5367e-08)
(1.13547 -0.0129826 -1.23766e-08)
(1.13419 0.0216275 -7.98561e-09)
(1.11456 0.0480317 -3.77358e-09)
(1.08316 0.061635 -9.24744e-10)
(1.0479 0.0626968 3.42445e-10)
(1.01507 0.0540894 3.72446e-10)
(0.988705 0.0384141 -5.66161e-10)
(0.972041 0.0167747 -2.38713e-09)
(0.968904 -0.00982416 -4.82253e-09)
(0.982372 -0.0379044 -7.26479e-09)
(1.01167 -0.0608518 -9.13999e-09)
(1.05075 -0.0714387 -1.03104e-08)
(1.0901 -0.0656049 -1.09795e-08)
(1.12019 -0.0445961 -1.12217e-08)
(1.13465 -0.0142892 -1.07002e-08)
(1.13159 0.0173178 -9.00427e-09)
(1.11335 0.0428451 -6.28158e-09)
(1.08504 0.0576411 -3.32332e-09)
(1.05275 0.0605236 -1.05922e-09)
(1.02209 0.0528873 -5.63453e-11)
(0.99777 0.0369004 -3.79309e-10)
(0.98401 0.0144604 -1.6893e-09)
(0.984472 -0.0120078 -3.41137e-09)
(1.00064 -0.0380656 -4.96668e-09)
(1.02999 -0.0574947 -6.02171e-09)
(1.06596 -0.0646961 -6.57878e-09)
(1.10002 -0.057399 -6.84715e-09)
(1.12442 -0.0377179 -7.00283e-09)
(1.13441 -0.0110906 -6.99274e-09)
(1.12909 0.0159319 -6.54683e-09)
(1.11108 0.037717 -5.44556e-09)
(1.08505 0.0507381 -3.80156e-09)
(1.05623 0.0537355 -2.08343e-09)
(1.02948 0.0471174 -8.57303e-10)
(1.00918 0.0321779 -4.62219e-10)
(0.99934 0.0108713 -8.52256e-10)
(1.00287 -0.0136035 -1.68541e-09)
(1.02008 -0.0363635 -2.56205e-09)
(1.04764 -0.0518184 -3.2311e-09)
(1.0792 -0.0558036 -3.64359e-09)
(1.10742 -0.0473921 -3.87886e-09)
(1.12615 -0.029217 -4.03053e-09)
(1.13202 -0.00626199 -4.11293e-09)
(1.12489 0.0160293 -4.03328e-09)
(1.10742 0.0333406 -3.66049e-09)
(1.08387 0.0432094 -2.95085e-09)
(1.05883 0.0448338 -2.0327e-09)
(1.03655 0.0384541 -1.16529e-09)
(1.02089 0.0249802 -5.92025e-10)
(1.01513 0.0062187 -4.05861e-10)
(1.02118 -0.0146045 -5.30604e-10)
(1.03843 -0.032933 -8.09135e-10)
(1.06319 -0.0441318 -1.10662e-09)
(1.08969 -0.045279 -1.35737e-09)
(1.11185 -0.0363438 -1.55421e-09)
(1.12499 -0.0200882 -1.71222e-09)
(1.12695 -0.000875874 -1.83294e-09)
(1.11822 0.0168786 -1.88658e-09)
(1.10143 0.0299158 -1.82326e-09)
(1.08036 0.0365732 -1.60832e-09)
(1.05894 0.0364791 -1.25813e-09)
(1.0408 0.0299862 -8.45539e-10)
(1.02914 0.0179471 -4.65325e-10)
(1.02651 0.00202875 -1.85864e-10)
(1.034 -0.0148872 -2.50934e-11)
(1.05041 -0.0289766 3.84214e-11)
(1.07214 -0.0366372 3.91533e-11)
(1.09413 -0.0358959 4.96311e-12)
(1.11141 -0.0271832 -4.90278e-11)
(1.12044 -0.013075 -1.16657e-10)
(1.11987 0.00275422 -1.92495e-10)
(1.11053 0.0167712 -2.65004e-10)
(1.09492 0.0264939 -3.16271e-10)
(1.07633 0.0307656 -3.28828e-10)
(1.05814 0.0294507 -2.94391e-10)
(1.04345 0.0229744 -2.17921e-10)
(1.03494 0.0121824 -1.14236e-10)
(1.03457 -0.00137532 -5.7127e-13)
(1.04292 -0.015172 1.09079e-10)
(1.05853 -0.0260372 2.0563e-10)
(1.07797 -0.0311595 2.84261e-10)
(1.09679 -0.0291931 3.43194e-10)
(1.11082 -0.020794 3.82346e-10)
(1.11725 -0.00832316 4.0208e-10)
(1.11521 0.00505107 4.02746e-10)
(1.1057 0.0163733 3.85216e-10)
(1.09107 0.023633 3.5154e-10)
(1.07435 0.0259665 3.05262e-10)
(1.05855 0.0233813 2.51658e-10)
(1.04654 0.0163612 1.97856e-10)
(1.04054 0.00574975 1.52005e-10)
(1.04263 -0.00701694 1.21143e-10)
(1.05252 -0.0196445 1.08778e-10)
(1.06999 -0.0294287 1.13814e-10)
(1.08955 -0.0337265 1.31456e-10)
(1.1112 -0.0319352 1.5562e-10)
(1.12371 -0.0232533 1.80923e-10)
(1.13744 -0.0138413 2.0285e-10)
(1.12985 0.00653197 2.29663e-10)
(1.00013 -0.00293438 2.47042e-18)
(1.00195 -0.00867835 8.15506e-18)
(1.00602 -0.0144159 1.02543e-17)
(1.01212 -0.0201581 4.01881e-18)
(1.02054 -0.0258575 2.74992e-17)
(1.03146 -0.0312508 -1.39626e-17)
(1.04503 -0.035823 1.2441e-16)
(1.06107 -0.0385305 -4.12699e-16)
(1.07857 -0.0381894 2.06972e-16)
(1.0959 -0.0336067 2.49002e-15)
(1.10937 -0.0243523 1.20735e-15)
(1.11662 -0.0140212 -3.80175e-15)
(1.11802 -0.00488915 -6.47043e-15)
(1.11486 0.000103547 -4.6516e-15)
(1.11089 -0.000454602 -4.24484e-15)
(1.11001 -0.00495307 -1.55758e-14)
(1.11437 -0.0098961 -3.96975e-14)
(1.12328 -0.0104268 -5.33788e-14)
(1.13214 -0.0029646 -4.26378e-14)
(1.13476 0.0119573 -2.43625e-14)
(1.12716 0.0299376 -1.08447e-14)
(1.10945 0.0457396 -9.30639e-16)
(1.08461 0.0557601 4.6396e-16)
(1.05653 0.0584011 -4.95266e-14)
(1.02889 0.053317 1.3435e-13)
(1.00502 0.0406613 5.02577e-13)
(0.988206 0.0208427 -3.84502e-12)
(0.982143 -0.0050488 -7.19303e-12)
(0.990935 -0.0338813 6.67351e-11)
(1.01681 -0.058929 3.00679e-10)
(1.056 -0.0710948 5.64376e-10)
(1.09748 -0.063945 5.91439e-10)
(1.12781 -0.0387272 3.61131e-10)
(1.13831 -0.00423723 1.20221e-10)
(1.12837 0.0285861 9.35433e-12)
(1.10361 0.0522545 -1.19555e-11)
(1.07147 0.0644985 -9.68039e-12)
(1.03783 0.0662728 -5.63738e-12)
(1.00648 0.0590925 4.07849e-11)
(0.9801 0.0436044 1.19941e-10)
(0.961307 0.0197691 -2.22123e-10)
(0.953315 -0.0117036 -2.1194e-09)
(0.960516 -0.0471459 -6.44503e-09)
(0.986855 -0.0783591 -1.22953e-08)
(1.03099 -0.0941156 -1.71266e-08)
(1.08309 -0.0857848 -1.83801e-08)
(1.12762 -0.0538228 -1.51757e-08)
(1.15038 -0.00902252 -9.29491e-09)
(1.14569 0.033633 -3.86903e-09)
(1.11867 0.0631964 -7.17114e-10)
(1.08034 0.076546 3.57325e-10)
(1.04074 0.0762505 4.422e-10)
(1.00535 0.0662395 1.99136e-10)
(0.97615 0.0487147 -6.73788e-10)
(0.955019 0.0235734 -2.9733e-09)
(0.946669 -0.00948563 -6.83244e-09)
(0.957199 -0.0470933 -1.11479e-08)
(0.988511 -0.0802078 -1.45727e-08)
(1.03459 -0.0972802 -1.67377e-08)
(1.08352 -0.0906927 -1.79886e-08)
(1.12261 -0.0612202 -1.8156e-08)
(1.14285 -0.0176968 -1.62774e-08)
(1.14095 0.0270277 -1.19963e-08)
(1.11937 0.0613253 -6.65036e-09)
(1.08501 0.0790855 -2.22717e-09)
(1.04621 0.0805946 1.51254e-10)
(1.00979 0.0697149 4.54708e-10)
(0.980338 0.0498007 -9.05721e-10)
(0.962018 0.0219369 -3.39189e-09)
(0.959694 -0.0128049 -6.21421e-09)
(0.976595 -0.0495667 -8.49047e-09)
(1.01076 -0.0791836 -9.7679e-09)
(1.0545 -0.0921531 -1.02505e-08)
(1.09713 -0.0836495 -1.04874e-08)
(1.12863 -0.0558736 -1.08151e-08)
(1.14252 -0.0167878 -1.0925e-08)
(1.13724 0.023307 -1.00322e-08)