/*--------------------------------*- C++ -*----------------------------------*\
  =========                 |
  \\      /  F ield         | OpenFOAM: The Open Source CFD Toolbox
   \\    /   O peration     | Website:  https://openfoam.org
    \\  /    A nd           | Version:  11
     \\/     M anipulation  |
\*---------------------------------------------------------------------------*/
FoamFile
{
    format      ascii;
    class       volScalarField;
    location    "18.251572";
    object      p;
}
// * * * * * * * * * * * * * * * * * * * * * * * * * * * * * * * * * * * * * //

dimensions      [0 2 -2 0 0 0 0];

internalField   nonuniform List<scalar> 
7132
(
0.0824236
0.0813021
0.0774619
0.0718869
0.0641015
0.0539253
0.041397
0.0266855
0.0105235
-0.00593272
-0.0210421
-0.0329112
-0.0404445
-0.0431946
-0.0410607
-0.0349026
-0.0261254
-0.0161389
-0.00621329
0.00267543
0.00982006
0.0148512
0.0179138
0.0197578
0.0213538
0.0233366
0.0257676
0.0283743
0.0308673
0.0331097
0.0351447
0.0370699
0.0388951
0.0403282
0.0407523
0.0396406
0.0371888
0.0344729
0.0326829
0.0322993
0.0329497
0.0339399
0.0347546
0.0352324
0.0355097
0.0358417
0.0363798
0.0368534
0.0365278
0.034729
0.0316494
0.0285276
0.0267332
0.0267388
0.0279566
0.0294092
0.0304111
0.0307832
0.030731
0.030614
0.0306688
0.0306924
0.0300264
0.0280673
0.0250117
0.0220272
0.0204446
0.0207595
0.0223811
0.0242309
0.0255019
0.0259635
0.0258349
0.0255097
0.0252383
0.0248586
0.0238459
0.0217864
0.0189502
0.0163513
0.0150876
0.0155696
0.0172936
0.0192772
0.020706
0.0212835
0.0211779
0.0207554
0.0202477
0.0195307
0.0182297
0.0161391
0.013617
0.0115222
0.0106694
0.011297
0.0129539
0.0148313
0.0162326
0.0168536
0.0167824
0.0162992
0.0155941
0.0146047
0.0131298
0.0111533
0.00907591
0.00757836
0.00719808
0.00799767
0.00955087
0.011216
0.0124583
0.0130293
0.0129638
0.0124426
0.011604
0.0104551
0.00896594
0.0072693
0.00575335
0.00490305
0.00500959
0.00599608
0.00746603
0.00892195
0.00997723
0.0104563
0.010377
0.00985422
0.00898996
0.00783901
0.00647729
0.00510589
0.00406022
0.00366639
0.00405661
0.00508774
0.00641329
0.00764903
0.0085131
0.00888047
0.00876275
0.0082371
0.00738897
0.00629822
0.00509621
0.00400426
0.00330306
0.00323186
0.0037714
0.00488056
0.0059058
0.00725694
0.00710623
0.00862688
0.0050981
0.00978789
-0.00304926
0.015859
0.082876
0.0817631
0.0779527
0.0724046
0.0646323
0.0544277
0.0418068
0.026902
0.0104529
-0.00637435
-0.0218513
-0.0339635
-0.041619
-0.0443727
-0.0420735
-0.0356184
-0.0264947
-0.0161767
-0.00598588
0.00307569
0.0102851
0.0152648
0.0181757
0.0198302
0.0212756
0.0231853
0.0256074
0.0282398
0.0307724
0.0330585
0.0351394
0.0371096
0.0389786
0.0404454
0.0408649
0.0396797
0.0370909
0.034234
0.0323652
0.031984
0.0326884
0.0337445
0.034617
0.0351401
0.0354522
0.03581
0.0363688
0.0368529
0.0365043
0.034625
0.0314164
0.028172
0.0263234
0.02636
0.0276647
0.029213
0.0302922
0.0307165
0.0306942
0.0305901
0.0306461
0.0306534
0.0299383
0.0278876
0.0247144
0.02163
0.0200102
0.0203636
0.0220794
0.0240389
0.025403
0.0259268
0.0258299
0.0255136
0.0252352
0.0248247
0.0237453
0.021584
0.0186379
0.0159623
0.0146837
0.0152127
0.0170264
0.0191131
0.0206337
0.0212765
0.0212053
0.0207908
0.0202691
0.0195102
0.0181333
0.0159417
0.0133232
0.011173
0.0103247
0.0110097
0.0127546
0.0147248
0.0162058
0.0168839
0.0168431
0.0163635
0.0156358
0.0145938
0.0130386
0.0109692
0.00881452
0.0072829
0.00692251
0.00778564
0.00942403
0.0111725
0.0124819
0.0130975
0.0130521
0.0125257
0.0116551
0.0104471
0.00887941
0.0071031
0.00553045
0.00466523
0.004802
0.00585218
0.00739907
0.00892594
0.0100347
0.0105456
0.0104757
0.00993952
0.00903826
0.0078287
0.00639654
0.0049603
0.00387479
0.0034784
0.00390277
0.00499311
0.00638545
0.00768013
0.0085862
0.00897548
0.00885938
0.00831503
0.00742793
0.00628145
0.00501724
0.00387228
0.00314366
0.00307855
0.00365734
0.00482497
0.00591853
0.00732435
0.00722324
0.00876108
0.00523936
0.00993226
-0.00307218
0.016169
0.0837772
0.0826826
0.0789337
0.0734442
0.0657034
0.0554484
0.0426474
0.0273551
0.0103246
-0.00726464
-0.0234953
-0.0360951
-0.0439898
-0.046745
-0.0441013
-0.0370365
-0.0272094
-0.0162218
-0.00549695
0.0039108
0.0112467
0.0161144
0.0187058
0.0199629
0.021096
0.0228583
0.0252665
0.0279531
0.0305654
0.0329378
0.035109
0.0371692
0.0391284
0.0406676
0.0410811
0.0397445
0.03687
0.0337179
0.0316874
0.0313171
0.032139
0.0333333
0.0343229
0.0349346
0.0353131
0.0357203
0.0363216
0.0368275
0.0364317
0.0343851
0.030907
0.0274063
0.0254469
0.0255549
0.0270465
0.0287965
0.0300343
0.0305614
0.0305947
0.0305138
0.030573
0.0305503
0.029737
0.0274976
0.0240807
0.0207907
0.0190958
0.0195316
0.0214437
0.0236299
0.0251836
0.0258304
0.0257926
0.0254917
0.0252
0.0247314
0.0235211
0.021157
0.0179905
0.0151613
0.0138546
0.0144804
0.0164769
0.018771
0.0204739
0.0212441
0.0212388
0.0208394
0.0202912
0.0194502
0.017921
0.0155253
0.0127119
0.0104505
0.00961389
0.010419
0.012345
0.0145034
0.0161437
0.0169341
0.0169525
0.0164809
0.0157087
0.0145612
0.0128414
0.0105806
0.0082666
0.00666542
0.00634731
0.00734376
0.00915837
0.0110776
0.0125229
0.013228
0.0132234
0.0126879
0.0117536
0.0104252
0.00869504
0.00675261
0.00506142
0.00416498
0.00436489
0.0055479
0.00725391
0.0089266
0.0101446
0.0107204
0.0106707
0.0101092
0.00913379
0.00780427
0.00622587
0.00465377
0.00348415
0.00308162
0.0035768
0.00479
0.00632033
0.00773627
0.00872854
0.00916325
0.00905196
0.00847139
0.00750587
0.00624497
0.00485121
0.00359457
0.00280712
0.00275333
0.00341287
0.00470149
0.0059351
0.00745389
0.00745289
0.00902809
0.00552128
0.0102188
-0.00310476
0.0167343
0.0851202
0.0840552
0.0804053
0.075014
0.0673342
0.0570184
0.0439586
0.0280814
0.0101562
-0.00863363
-0.0260535
-0.0394074
-0.0476868
-0.0504713
-0.0472995
-0.0392728
-0.0283366
-0.0162998
-0.00474458
0.00520183
0.0127353
0.0174215
0.0194963
0.0201121
0.0207505
0.0222936
0.0246977
0.0274813
0.0302212
0.0327249
0.0350301
0.0372242
0.0393187
0.0409696
0.041372
0.0397885
0.0364479
0.0328198
0.0305429
0.0302147
0.031247
0.0326712
0.0338445
0.0345879
0.0350602
0.0355363
0.0361947
0.0367263
0.0362451
0.033919
0.0300003
0.0260876
0.0239647
0.0242137
0.0260295
0.0281153
0.0296058
0.0302865
0.0303937
0.0303355
0.0303912
0.0303199
0.0293564
0.0268281
0.023036
0.0194277
0.0176177
0.0181876
0.0204159
0.022962
0.0248105
0.0256416
0.0256866
0.0254037
0.0250922
0.0245363
0.0231226
0.0204398
0.0169277
0.013863
0.0125235
0.0133166
0.0156077
0.0182253
0.0202044
0.0211631
0.0212542
0.0208789
0.0202929
0.0193239
0.0175507
0.0148268
0.0117027
0.00926947
0.00846221
0.00947195
0.0116926
0.014148
0.0160325
0.0169912
0.0170991
0.0166423
0.0158033
0.0144879
0.0125014
0.00993
0.00736017
0.00565218
0.00540983
0.00662766
0.00872701
0.0109168
0.0125729
0.0134149
0.0134735
0.0129262
0.0118936
0.010373
0.00837969
0.00616756
0.00428565
0.00334247
0.00364912
0.00504954
0.00701108
0.00891427
0.0103025
0.0109787
0.0109611
0.0103618
0.00927044
0.0077494
0.00593493
0.00414304
0.00283851
0.00242873
0.00304118
0.00445376
0.00620478
0.00781211
0.00893899
0.00944443
0.00934138
0.00870525
0.00761617
0.00617211
0.00456912
0.00313176
0.00224963
0.00221576
0.00300693
0.00449041
0.00594633
0.00764206
0.00779786
0.00942532
0.00595819
0.010621
-0.00307772
0.0173957
0.0868933
0.0858717
0.0823667
0.0771257
0.0695536
0.0591867
0.0458063
0.0291452
0.00998804
-0.0105112
-0.0296172
-0.0439864
-0.0527665
-0.0555846
-0.0516566
-0.0422703
-0.0297919
-0.0163128
-0.00362521
0.00704753
0.0148351
0.0192365
0.020537
0.0202015
0.0201312
0.0213911
0.0238256
0.0267684
0.0296929
0.0323738
0.0348541
0.037223
0.0394983
0.041304
0.0416848
0.0397296
0.0356905
0.0313613
0.0287493
0.0285287
0.0299115
0.0316913
0.0331294
0.0340475
0.0346314
0.0351777
0.035887
0.0364361
0.0358342
0.033121
0.0285759
0.0240617
0.0216963
0.0221673
0.0244881
0.0270871
0.0289477
0.0298329
0.0300171
0.0299628
0.0300003
0.0298636
0.0286986
0.0257736
0.0214641
0.0174222
0.0154655
0.0162364
0.0189164
0.0219704
0.024228
0.0253047
0.0254519
0.0251901
0.0248577
0.0241855
0.0224794
0.0193307
0.0153179
0.0119249
0.0105637
0.0116273
0.014355
0.0174311
0.0197875
0.0209964
0.021216
0.0208797
0.0202475
0.0190958
0.0169633
0.0137565
0.010182
0.00750909
0.00676037
0.00808374
0.0107397
0.0136219
0.0158464
0.0170343
0.0172657
0.0168359
0.0159068
0.0143482
0.0119684
0.0089404
0.00600027
0.00414488
0.00402244
0.0055692
0.00808323
0.0106606
0.0126136
0.0136465
0.0137952
0.0132366
0.0120668
0.0102677
0.00788826
0.00528104
0.00312328
0.00211761
0.00258543
0.00430435
0.00663481
0.00886676
0.0104954
0.0113136
0.0113439
0.0106954
0.0094404
0.00764241
0.0054833
0.00337081
0.00187171
0.00145524
0.00224152
0.00394385
0.00601192
0.00789158
0.00920899
0.00981558
0.00972724
0.00901563
0.00775112
0.00604196
0.00413371
0.00243271
0.00141352
0.00141049
0.00239335
0.00415747
0.0059293
0.00787425
0.00825099
0.00994501
0.00655942
0.0111112
-0.0029156
0.0179572
0.0890799
0.0881186
0.0848147
0.0797932
0.0723992
0.0620191
0.0482804
0.0306354
0.00987004
-0.0129686
-0.034378
-0.050071
-0.0595555
-0.0625036
-0.057572
-0.0463092
-0.0317238
-0.0163088
-0.00212668
0.00950005
0.0176176
0.0216068
0.0218009
0.0201128
0.019068
0.0199901
0.0225302
0.0257306
0.0289154
0.0318226
0.0345129
0.037088
0.0395841
0.0415835
0.0419129
0.0394066
0.0343486
0.0290173
0.0259932
0.0260262
0.0279864
0.0303026
0.0321079
0.0332398
0.0339273
0.0344953
0.0351987
0.0357361
0.0349972
0.0318438
0.0265339
0.0212235
0.0184942
0.0192418
0.0222727
0.0256038
0.0279779
0.029117
0.0293625
0.0292808
0.0292911
0.0290792
0.0276434
0.0241659
0.0191489
0.0145498
0.0124539
0.0135499
0.0168553
0.0205844
0.0233701
0.0247522
0.0250213
0.0247922
0.024445
0.0236173
0.0214981
0.0176954
0.0129958
0.00917314
0.00781871
0.00929164
0.0126372
0.0163331
0.0191778
0.0207012
0.0210862
0.0208121
0.020125
0.0187186
0.0160816
0.0122088
0.00802829
0.00504723
0.00439794
0.00616465
0.00942182
0.0128809
0.0155527
0.0170362
0.0174305
0.0170442
0.0159966
0.0141007
0.0111748
0.00752266
0.00408893
0.00204968
0.00210372
0.0041037
0.0071802
0.0102766
0.0126219
0.0139053
0.0141754
0.0136062
0.0122514
0.0100685
0.00715736
0.0040132
0.00148988
0.000412323
0.00110918
0.00326316
0.00609033
0.00876026
0.0107067
0.011713
0.0118097
0.0110982
0.00962178
0.00744374
0.00481266
0.00226645
0.000511299
9.60992e-05
0.00112582
0.00322209
0.00571567
0.00795743
0.00952716
0.010269
0.0102031
0.00939216
0.00788928
0.0058165
0.00349064
0.00143331
0.000234284
0.000280319
0.00152666
0.00366927
0.00586059
0.00813308
0.00880101
0.010573
0.00732823
0.0116501
-0.00254476
0.0181988
0.0916561
0.0907762
0.087743
0.0830316
0.0759176
0.0656033
0.0515068
0.0326866
0.00989556
-0.0160702
-0.040523
-0.0577939
-0.0680783
-0.0712037
-0.064968
-0.0512685
-0.0339963
-0.0161483
-0.000110684
0.01269
0.0211963
0.0245864
0.0232173
0.0196332
0.0172897
0.0178604
0.0206556
0.0242615
0.0277988
0.0309769
0.0338963
0.0366901
0.0394204
0.0416263
0.0418435
0.0385389
0.032041
0.02532
0.021811
0.0223546
0.0252519
0.0283737
0.0306816
0.0320555
0.0327908
0.033264
0.0338642
0.0343619
0.0334836
0.0298322
0.0236176
0.0173536
0.0141885
0.0152858
0.0192369
0.023539
0.0265863
0.0280268
0.0283084
0.0281763
0.0281711
0.027875
0.0260624
0.0218185
0.0158592
0.0105691
0.00837162
0.00997203
0.0141268
0.0187227
0.0221598
0.0239062
0.0243233
0.0241516
0.0237986
0.0227597
0.0200801
0.0154184
0.00984467
0.0054968
0.00418276
0.00621372
0.0103773
0.0148705
0.0183216
0.0202268
0.0208204
0.0206384
0.0198838
0.0181347
0.0148306
0.0101037
0.00516969
0.0018227
0.00131877
0.00366056
0.00768933
0.0118809
0.0151119
0.0169615
0.0175629
0.0172382
0.016036
0.0136935
0.0100557
0.00561077
0.00156969
-0.000678524
-0.000384897
0.00219479
0.005983
0.00973193
0.0125676
0.0141649
0.0145908
0.0140102
0.0124125
0.00972482
0.00612495
0.00230162
-0.000667941
-0.00181736
-0.00081501
0.00189461
0.00534832
0.00856733
0.0109117
0.0121557
0.0123394
0.0115479
0.00978121
0.00710553
0.00386519
0.000771768
-0.00129335
-0.00168995
-0.000339128
0.00226013
0.00529053
0.00798647
0.00987312
0.0107875
0.0107534
0.00981467
0.00799949
0.00545111
0.00258625
7.9288e-05
-0.00133585
-0.00121423
0.000373754
0.00299662
0.00571234
0.00839116
0.0094225
0.0112826
0.00825023
0.012193
-0.00191797
0.0179291
0.0945904
0.0938171
0.0911388
0.0868535
0.0801606
0.0700445
0.0556433
0.0354737
0.010176
-0.0199725
-0.0484521
-0.0676363
-0.079074
-0.0826587
-0.074718
-0.0576895
-0.0368507
-0.0158892
0.00245434
0.0166965
0.0256707
0.0282158
0.0246627
0.0184485
0.0143991
0.0146566
0.0179626
0.0222015
0.0262168
0.0297086
0.03285
0.0358112
0.0386608
0.0409835
0.0410849
0.0369189
0.0286495
0.0200087
0.0157361
0.0170545
0.0214059
0.0257308
0.0287256
0.0303499
0.0310168
0.0312412
0.031666
0.0321372
0.0310934
0.0267629
0.0193878
0.0120265
0.00847688
0.0101224
0.0152499
0.0207712
0.0246514
0.0264386
0.0267386
0.0265555
0.026561
0.0261558
0.0238294
0.0185963
0.0114777
0.0053768
0.00311301
0.00539831
0.0106455
0.0163118
0.0205223
0.0226901
0.0232897
0.0232102
0.0228559
0.0215363
0.0181468
0.0124444
0.0058478
0.000904702
-0.000338407
0.00237839
0.00754116
0.012998
0.0171675
0.01952
0.0203678
0.0203085
0.0194669
0.0172806
0.0131556
0.00741514
0.00161648
-0.00213061
-0.00244342
0.000586148
0.00553269
0.0105936
0.0144848
0.016767
0.0176192
0.0173711
0.0159704
0.013068
0.00856426
0.00318634
-0.00154321
-0.00400566
-0.00340962
-0.000139994
0.00448752
0.00900421
0.0124175
0.0143877
0.0150025
0.0144044
0.012497
0.00918007
0.00474547
0.000125705
-0.00334296
-0.00454328
-0.00316416
0.00020695
0.00440013
0.00826528
0.0110794
0.0126076
0.0128977
0.0120032
0.0098692
0.0065751
0.00259741
-0.00113647
-0.00354407
-0.00389341
-0.00214453
0.00105758
0.00472387
0.00795589
0.0102183
0.0113406
0.0113467
0.0102456
0.00803627
0.00489733
0.00137956
-0.00165398
-0.00330494
-0.00307223
-0.00106611
0.00212991
0.00546275
0.00861651
0.0100767
0.012032
0.00928583
0.0126866
-0.00103442
0.0170271
0.0978408
0.0972045
0.094981
0.091268
0.0851857
0.0754752
0.060903
0.0392605
0.0109183
-0.0248093
-0.0585185
-0.0796976
-0.0922556
-0.096532
-0.0865623
-0.0653884
-0.0401584
-0.0154329
0.00564436
0.0215932
0.0311111
0.0324789
0.025887
0.0160134
0.00974263
0.0098678
0.0141485
0.019368
0.0240185
0.0278513
0.0311505
0.0340509
0.0366383
0.0388237
0.0388559
0.0341666
0.0243009
0.0133245
0.00771181
0.00977334
0.016102
0.0221457
0.0260766
0.0279469
0.0283936
0.0282386
0.0284856
0.0289635
0.0276666
0.0223982
0.0135748
0.00497634
0.00113203
0.00359273
0.0102044
0.0171972
0.0220563
0.0242329
0.0245527
0.0243409
0.0243833
0.0238314
0.0208648
0.0144792
0.00606628
-0.000918514
-0.00323188
-0.00013749
0.00639653
0.0133071
0.0183944
0.0210331
0.0218517
0.0218998
0.021542
0.0198769
0.0156636
0.0088059
0.00110944
-0.00445611
-0.00560349
-0.00211965
0.00416342
0.0107019
0.0156729
0.0185241
0.0196654
0.0197526
0.0188015
0.016098
0.0110412
0.00419189
-0.00252106
-0.0066689
-0.00675111
-0.00296104
0.00299533
0.0090144
0.0136349
0.0163997
0.0175379
0.0173738
0.0157298
0.0121722
0.00669297
0.000301793
-0.00514489
-0.00780283
-0.00685214
-0.00281966
0.0027272
0.0080847
0.0121342
0.0145213
0.0153502
0.0147221
0.0124394
0.00838786
0.00301426
-0.00246732
-0.00644623
-0.00766531
-0.00584845
-0.00174466
0.00326149
0.00783611
0.0111697
0.0130175
0.0134285
0.0124026
0.0098267
0.0058121
0.00100565
-0.00341891
-0.00616994
-0.00643475
-0.00422668
-0.000351024
0.00401798
0.00784146
0.0105219
0.0118794
0.0119296
0.010629
0.00794751
0.00412067
-0.000132086
-0.00373383
-0.00561661
-0.00523382
-0.00274936
0.00108516
0.00509715
0.00877012
0.0107065
0.0127584
0.0103631
0.0130702
5.13382e-05
0.0154794
0.101354
0.100889
0.0992354
0.0962715
0.0910455
0.0820396
0.0675363
0.0443801
0.012354
-0.0309449
-0.07155
-0.0949814
-0.109475
-0.115158
-0.102338
-0.0752932
-0.0442331
-0.0148323
0.00948152
0.0273961
0.0375356
0.0372437
0.026389
0.0114513
0.00238331
0.00277435
0.00877335
0.0154944
0.0210021
0.0251989
0.028483
0.0308366
0.0325532
0.0343112
0.0343637
0.0294809
0.0182548
0.00490307
-0.00228438
0.000422342
0.00911155
0.0173934
0.0225463
0.0246644
0.0247548
0.0241524
0.0242652
0.0247681
0.0231042
0.0167073
0.00628102
-0.00363369
-0.00773456
-0.00427828
0.00408226
0.012763
0.0187147
0.0213157
0.021672
0.021463
0.0215605
0.0208314
0.0171583
0.0095675
-0.000157183
-0.00802854
-0.0103865
-0.00644104
0.00147009
0.00971919
0.0157401
0.0188771
0.0199404
0.0201409
0.0197753
0.0177282
0.0126489
0.00462008
-0.00416107
-0.0103235
-0.0113552
-0.00708288
0.000353748
0.00801147
0.0138117
0.017182
0.0186375
0.018883
0.0178051
0.0145428
0.00851856
0.000556794
-0.00704276
-0.0115541
-0.0113771
-0.00680784
0.000173965
0.00716659
0.0125313
0.0157955
0.0172363
0.017155
0.0152345
0.0109712
0.0044824
-0.00291778
-0.00904573
-0.0118566
-0.0105184
-0.00570395
0.000773063
0.00697977
0.0116765
0.0144953
0.0155486
0.0148732
0.012167
0.0073235
0.000979283
-0.00535436
-0.00980651
-0.0110073
-0.00871631
-0.00385626
0.00197497
0.00726801
0.0111324
0.013313
0.013849
0.0126635
0.00959153
0.00480117
-0.00086055
-0.00596431
-0.00902319
-0.00916429
-0.00646524
-0.00189359
0.00319286
0.00761914
0.0107297
0.0123331
0.0124238
0.0108908
0.00768123
0.00311344
-0.00189894
-0.00605916
-0.00814286
-0.00757529
-0.00458362
-9.1295e-05
0.0046124
0.00880904
0.0112373
0.0133772
0.0113774
0.013275
0.00123484
0.0133858
0.105061
0.104807
0.103852
0.101848
0.097789
0.0899155
0.0758843
0.0513572
0.0149439
-0.0386875
-0.0882374
-0.113142
-0.128938
-0.137099
-0.121474
-0.0873407
-0.0491752
-0.0142463
0.0137242
0.0339322
0.0446979
0.0419769
0.025169
0.00304823
-0.0094532
-0.00780703
0.00125588
0.0103023
0.0169711
0.0215182
0.0244436
0.0255925
0.025974
0.0272947
0.0275636
0.0223544
0.00948698
-0.00616765
-0.0146521
-0.0110338
0.000358438
0.0113176
0.017959
0.020345
0.019999
0.018943
0.0189802
0.0195224
0.0174339
0.00988265
-0.00209988
-0.0132957
-0.0176616
-0.0131885
-0.00297647
0.00749903
0.0145943
0.0176317
0.0180394
0.0178573
0.018022
0.0171204
0.012772
0.00406067
-0.00686444
-0.0155454
-0.0179426
-0.0131876
-0.00393913
0.00562524
0.0125598
0.0161795
0.0174864
0.0178464
0.0174763
0.015063
0.00917347
7.48985e-05
-0.00967552
-0.0163538
-0.0172538
-0.0122353
-0.00371327
0.00499848
0.0115777
0.0154368
0.0171966
0.0175983
0.0163945
0.0125943
0.0056656
-0.0033054
-0.011681
-0.0164811
-0.0160309
-0.0107254
-0.00279225
0.00509786
0.0111487
0.0148804
0.0166122
0.0166057
0.0144046
0.00945554
0.00202186
-0.00628583
-0.0129922
-0.0158917
-0.0141605
-0.00861
-0.00127594
0.00570663
0.0109974
0.0142213
0.0154889
0.0147513
0.0116116
0.00599429
-0.00125736
-0.00834928
-0.0131877
-0.0143244
-0.0115632
-0.00599041
0.000601462
0.00655176
0.0109057
0.0134
0.0140507
0.0126895
0.00911082
0.00356317
-0.0028953
-0.00859722
-0.011894
-0.0118783
-0.00869739
-0.00346987
0.00228089
0.00726231
0.0107729
0.0126089
0.0127291
0.0109471
0.00719867
0.00190673
-0.00381421
-0.00846524
-0.0106954
-0.00992153
-0.00643739
-0.00132865
0.00401431
0.00868568
0.0115781
0.0137828
0.0121986
0.0132299
0.00238372
0.0109327
0.10888
0.108876
0.108757
0.107949
0.105434
0.0992554
0.0863044
0.0608194
0.0191085
-0.0489328
-0.110285
-0.136689
-0.156519
-0.168227
-0.147598
-0.102839
-0.0552518
-0.0137653
0.0181842
0.04081
0.0519383
0.0453677
0.0197692
-0.0121168
-0.0284003
-0.0235192
-0.00920818
0.00342027
0.0116949
0.0165409
0.0186373
0.0179883
0.0169386
0.0180442
0.0186725
0.01287
-0.00186829
-0.0197114
-0.0292191
-0.0243897
-0.0100268
0.00389748
0.0122113
0.0148934
0.0140903
0.0126083
0.0126266
0.0132497
0.0108014
0.00226819
-0.0110276
-0.0233394
-0.0279821
-0.0226153
-0.0106619
0.00154421
0.00973434
0.0131739
0.0136226
0.0134721
0.0137189
0.0127066
0.00783004
-0.00177584
-0.0136654
-0.0230009
-0.025423
-0.0199713
-0.0095548
0.00116732
0.00889531
0.0129188
0.0144274
0.0149332
0.0145804
0.0118856
0.00535159
-0.00459541
-0.0151028
-0.0221639
-0.0229194
-0.0172573
-0.00781948
0.00176992
0.00898463
0.013237
0.0152506
0.0157946
0.0144969
0.0102581
0.00259731
-0.00717164
-0.0161344
-0.0211149
-0.0203938
-0.014457
-0.00573907
0.00287319
0.00946715
0.0135736
0.0155512
0.0156111
0.0131705
0.00764343
-0.000562358
-0.00958
-0.016701
-0.0196089
-0.0175089
-0.0113358
-0.00330661
0.00428826
0.0100453
0.0135972
0.0150464
0.0142446
0.0107193
0.00443985
-0.00355372
-0.0112285
-0.0163232
-0.0173479
-0.0141626
-0.00799306
-0.000788915
0.00567801
0.0104182
0.0131684
0.0139106
0.0123827
0.00835022
0.00215419
-0.00495176
-0.011105
-0.0145422
-0.0143483
-0.0107403
-0.00496558
0.00132046
0.006741
0.0105707
0.0125971
0.0127325
0.0107156
0.00648241
0.000568275
-0.00572965
-0.0107495
-0.0130536
-0.0120707
-0.0081582
-0.00254176
0.0033148
0.00835007
0.0116279
0.0138575
0.0126863
0.0128694
0.00336525
0.00834265
0.112711
0.112999
0.113852
0.1145
0.113974
0.110262
0.0993157
0.073892
0.0259386
-0.0627046
-0.139282
-0.16251
-0.181425
-0.203763
-0.18027
-0.122725
-0.0633661
-0.0142489
0.0219455
0.046241
0.0570547
0.0475686
0.0128602
-0.0316677
-0.0554817
-0.0464999
-0.0237362
-0.00550595
0.00501861
0.0100579
0.0108277
0.00803207
0.00566477
0.00685243
0.0079633
0.00159441
-0.0147422
-0.0344452
-0.0448749
-0.0389012
-0.0216098
-0.00469262
0.0053296
0.00831172
0.00705966
0.00518222
0.00523449
0.00603766
0.00344254
-0.00571233
-0.0199116
-0.0330561
-0.0379587
-0.0319204
-0.0185343
-0.0048554
0.00425221
0.00798726
0.00842151
0.00828199
0.00863871
0.00764737
0.00250554
-0.00764094
-0.0201505
-0.0299175
-0.0323371
-0.0263564
-0.0150539
-0.00346259
0.00482872
0.00909926
0.0107178
0.0113373
0.0110504
0.00823481
0.0013294
-0.00913594
-0.0201041
-0.0273708
-0.0279724
-0.0218213
-0.0117283
-0.00154437
0.00606572
0.0105428
0.0127155
0.0133801
0.012061
0.00756719
-0.000547663
-0.0108064
-0.0201005
-0.0251271
-0.0241535
-0.0177469
-0.00849642
0.000566439
0.00747347
0.0117974
0.0139413
0.0140663
0.0114828
0.0055787
-0.00312381
-0.0125695
-0.0198927
-0.0227219
-0.0203047
-0.0136838
-0.00520605
0.00274854
0.00876739
0.0125176
0.0140952
0.0132525
0.00945887
0.00272618
-0.00574904
-0.0137628
-0.0189513
-0.0198221
-0.0162977
-0.00971452
-0.00212801
0.00463536
0.00959454
0.0125037
0.0133078
0.0116586
0.00729995
0.000656633
-0.00686551
-0.0132696
-0.0167307
-0.0163518
-0.012416
-0.00626908
0.000347935
0.00602201
0.0100374
0.0121839
0.012324
0.0101292
0.00554035
-0.00080824
-0.00747956
-0.0127028
-0.0149986
-0.0138236
-0.00959426
-0.00364436
0.0025271
0.0077526
0.0112853
0.0134843
0.0127095
0.0121433
0.00407101
0.00582546
0.116438
0.117051
0.119001
0.12135
0.123315
0.122948
0.115323
0.0915764
0.0357473
-0.0811877
-0.178912
-0.20022
-0.227629
-0.257492
-0.225528
-0.148126
-0.073509
-0.0158453
0.0235976
0.0459234
0.0544338
0.0435864
0.00677241
-0.0464216
-0.0829176
-0.0750645
-0.0429231
-0.0169451
-0.00324223
0.00195512
0.000997677
-0.00405686
-0.00753027
-0.00591813
-0.00407424
-0.0105903
-0.0278253
-0.0487967
-0.0600822
-0.0533594
-0.0336353
-0.0140579
-0.0024962
0.000718663
-0.000992829
-0.0032556
-0.00311297
-0.0019566
-0.0043444
-0.0136091
-0.0281763
-0.0417764
-0.0468805
-0.0404466
-0.0260869
-0.0113713
-0.00166208
0.00217171
0.00247787
0.00230403
0.00281963
0.00205017
-0.00299493
-0.0132271
-0.0259301
-0.0358535
-0.0382309
-0.0319254
-0.0201042
-0.00804331
0.000476675
0.00475705
0.00634276
0.00703003
0.0068885
0.0041836
-0.00272912
-0.0132967
-0.0243659
-0.0316295
-0.0320706
-0.0256251
-0.0152098
-0.00480465
0.00287274
0.0073358
0.00953191
0.0102934
0.00906807
0.0045802
-0.00362241
-0.0139869
-0.0233076
-0.0282283
-0.0270354
-0.0203662
-0.010906
-0.00174663
0.00516539
0.00948964
0.0116914
0.0118936
0.00932083
0.00332469
-0.00551475
-0.0150429
-0.022321
-0.0249802
-0.0223234
-0.0154825
-0.00687425
0.00111031
0.00711833
0.0108901
0.012528
0.0117007
0.00782565
0.000934245
-0.00768697
-0.0157458
-0.0208454
-0.0215281
-0.0177836
-0.0110267
-0.00335787
0.00341196
0.00836619
0.011304
0.012142
0.0104591
0.00597444
-0.000836023
-0.00847978
-0.014897
-0.0182548
-0.0176986
-0.0135724
-0.00728532
-0.000607381
0.00507301
0.00909412
0.0112678
0.0114136
0.00914579
0.00440198
-0.00212088
-0.00890735
-0.0141389
-0.0163391
-0.0150078
-0.0106135
-0.0045607
0.00166331
0.00685012
0.0104625
0.0125648
0.0121651
0.011024
0.0044306
0.003546
0.11993
0.120895
0.124032
0.128325
0.133282
0.137501
0.135043
0.117085
0.0513688
-0.113383
-0.230046
-0.23051
-0.264495
-0.322331
-0.286758
-0.18358
-0.0884033
-0.0203467
0.0190022
0.0327845
0.0362019
0.0242202
-0.00557168
-0.0596095
-0.107093
-0.10474
-0.0652799
-0.0307009
-0.0130944
-0.00772583
-0.0106597
-0.0179667
-0.0222919
-0.0198486
-0.0167977
-0.0227177
-0.0399082
-0.0613689
-0.073352
-0.066427
-0.0451474
-0.0236136
-0.0109164
-0.00764994
-0.0098922
-0.0125618
-0.0122594
-0.0105015
-0.0122189
-0.020984
-0.0353098
-0.0489302
-0.0541379
-0.047598
-0.0328132
-0.0176318
-0.00776173
-0.00411907
-0.00411375
-0.00438666
-0.00363938
-0.00392865
-0.00844526
-0.0182449
-0.0306667
-0.0404411
-0.0427267
-0.0363186
-0.0243987
-0.0123467
-0.00401666
-3.37657e-05
0.00133312
0.0020338
0.00214585
-0.000161876
-0.0066549
-0.0168543
-0.0276277
-0.0346617
-0.0349388
-0.0284188
-0.0180619
-0.00787284
-0.000523567
0.00363062
0.00568275
0.00651987
0.00554026
0.00137788
-0.00648524
-0.0165236
-0.0255379
-0.0301932
-0.028826
-0.0221334
-0.0128353
-0.0039926
0.00255789
0.00662014
0.00875211
0.00905892
0.006698
0.000957607
-0.00760189
-0.0168276
-0.0237958
-0.0261939
-0.0233963
-0.0166015
-0.00823218
-0.000603139
0.00507128
0.00865422
0.010279
0.00955449
0.00584206
-0.000851253
-0.00923383
-0.0170153
-0.0218343
-0.022304
-0.0184848
-0.0118354
-0.00443515
0.00200075
0.00668516
0.00949982
0.0103516
0.00876136
0.00440857
-0.00223331
-0.00966465
-0.0158368
-0.0189613
-0.0182486
-0.0140988
-0.00794567
-0.00152492
0.00386981
0.00768355
0.00977898
0.00994696
0.00775384
0.00311178
-0.0032751
-0.00988478
-0.0149138
-0.0169312
-0.0154942
-0.0111175
-0.00523377
0.000734313
0.00561434
0.00910029
0.0110361
0.0109936
0.00951025
0.00441506
0.00161371
0.123046
0.124365
0.128734
0.135075
0.143547
0.153187
0.158707
0.149277
0.0733441
-0.135746
-0.319409
-0.299661
-0.336547
-0.420205
-0.370056
-0.228128
-0.106708
-0.0283548
0.00445035
0.00632788
0.00388689
-0.00418861
-0.0251898
-0.076141
-0.129266
-0.132507
-0.0887119
-0.0460557
-0.024309
-0.018767
-0.0237845
-0.0333079
-0.0381965
-0.0344168
-0.0294688
-0.0338689
-0.0499983
-0.0710974
-0.0835117
-0.0769271
-0.0551683
-0.0326653
-0.019457
-0.0164566
-0.0193842
-0.0225135
-0.0219621
-0.0192938
-0.0198166
-0.0274389
-0.0408998
-0.0540889
-0.059293
-0.0529006
-0.0382658
-0.0232644
-0.0137647
-0.0106805
-0.011197
-0.0116448
-0.0105725
-0.0100879
-0.0136132
-0.0224439
-0.0341003
-0.0434143
-0.045553
-0.0392651
-0.0276834
-0.0161573
-0.00848714
-0.00515636
-0.00422245
-0.00356493
-0.00307118
-0.00466517
-0.0102847
-0.0196284
-0.0297013
-0.0362784
-0.0363913
-0.0300256
-0.0201264
-0.0106212
-0.00403223
-0.000514532
0.00120896
0.00210498
0.00154649
-0.00194003
-0.00901044
-0.0182755
-0.0266455
-0.0308789
-0.0293912
-0.0229288
-0.0141866
-0.00610182
-0.00030914
0.00320521
0.0051315
0.00558366
0.00366467
-0.00143966
-0.00927837
-0.0178056
-0.0241983
-0.0262519
-0.0234257
-0.0169625
-0.00922557
-0.00236358
0.00263056
0.00579921
0.00733959
0.00682739
0.00355571
-0.00255138
-0.0102915
-0.017467
-0.0218169
-0.0220586
-0.0183266
-0.0120877
-0.00533103
0.000407396
0.00453865
0.00707067
0.00792599
0.00658192
0.00265232
-0.00345875
-0.0103296
-0.0159955
-0.0187616
-0.0179244
-0.0139352
-0.00821258
-0.00239041
0.00240611
0.00578507
0.00769402
0.0079155
0.00597346
0.00172162
-0.00419558
-0.0103247
-0.014938
-0.0166903
-0.0152098
-0.0110505
-0.00562924
-0.000247078
0.00404148
0.00718235
0.00888401
0.00918645
0.00762656
0.0040331
8.48471e-05
0.125638
0.127301
0.132848
0.141305
0.153532
0.170164
0.187176
0.201575
0.111628
-0.129781
-0.370163
-0.320356
-0.384529
-0.54164
-0.496009
-0.298006
-0.133483
-0.0430185
-0.0223161
-0.0283818
-0.0342687
-0.0324123
-0.0452542
-0.0905076
-0.144522
-0.153455
-0.109683
-0.0614243
-0.0362085
-0.030698
-0.0378731
-0.0495959
-0.0547213
-0.0489848
-0.0413085
-0.0432459
-0.0573773
-0.07731
-0.0898116
-0.0840114
-0.0628546
-0.04051
-0.0275763
-0.0252861
-0.0291338
-0.0327975
-0.031886
-0.0279658
-0.0267662
-0.0326369
-0.044656
-0.0569866
-0.0620325
-0.0560361
-0.0421
-0.0279341
-0.0193765
-0.0172635
-0.0185499
-0.0192501
-0.0177471
-0.0161882
-0.0182718
-0.0256261
-0.0360646
-0.0446257
-0.0465625
-0.0406014
-0.0297766
-0.0192883
-0.012758
-0.0104492
-0.0101705
-0.00960984
-0.00859959
-0.00916373
-0.0134694
-0.0214927
-0.0304838
-0.0363921
-0.0363436
-0.0303531
-0.0212991
-0.0129378
-0.00754121
-0.0049908
-0.00378089
-0.00283824
-0.00279586
-0.00525852
-0.0110955
-0.019159
-0.0265663
-0.0302351
-0.0286849
-0.0227025
-0.0149014
-0.00800761
-0.00336444
-0.000681702
0.000906203
0.00155056
0.000308291
-0.00378213
-0.0104709
-0.0179208
-0.0234905
-0.025128
-0.0223909
-0.0165427
-0.00982455
-0.00413211
-0.000158028
0.00237566
0.00376665
0.00358411
0.00103691
-0.00409881
-0.0108047
-0.0170616
-0.0207698
-0.0207791
-0.0173001
-0.011773
-0.00602776
-0.00134132
0.00196066
0.00405642
0.00491276
0.00397704
0.000766375
-0.00445609
-0.0104302
-0.0153433
-0.0176386
-0.0167175
-0.0130768
-0.00807957
-0.00319085
0.000702776
0.00342591
0.00504604
0.00536064
0.00385487
0.000285552
-0.00483251
-0.0101874
-0.0141836
-0.0155984
-0.0141431
-0.0104039
-0.00573536
-0.00126131
0.00216053
0.0047445
0.00614976
0.00678908
0.00542155
0.00332454
-0.00103097
0.127566
0.129517
0.136107
0.146392
0.162495
0.185388
0.21969
0.224607
0.199833
-0.163253
-0.494437
-0.343721
-0.364736
-0.587537
-0.576961
-0.363207
-0.163615
-0.0665315
-0.0588669
-0.0706931
-0.0728382
-0.0570947
-0.0613375
-0.0993143
-0.150799
-0.164603
-0.124809
-0.0747485
-0.0476799
-0.0427529
-0.0522569
-0.0661838
-0.0711712
-0.062774
-0.0515331
-0.0502124
-0.0616251
-0.0797385
-0.0919677
-0.0872363
-0.0676175
-0.0465371
-0.0347282
-0.033675
-0.0387297
-0.0430076
-0.0416083
-0.0361
-0.0327074
-0.0363176
-0.046422
-0.0575349
-0.062291
-0.0568666
-0.0441009
-0.0313724
-0.0243114
-0.0235843
-0.0258878
-0.0269177
-0.0248706
-0.0219618
-0.0222102
-0.0276558
-0.0364932
-0.044052
-0.0457371