/*--------------------------------*- C++ -*----------------------------------*\
  =========                 |
  \\      /  F ield         | OpenFOAM: The Open Source CFD Toolbox
   \\    /   O peration     | Website:  https://openfoam.org
    \\  /    A nd           | Version:  11
     \\/     M anipulation  |
\*---------------------------------------------------------------------------*/
FoamFile
{
    format      ascii;
    class       volVectorField;
    location    "18.251572";
    object      vorticity;
}
// * * * * * * * * * * * * * * * * * * * * * * * * * * * * * * * * * * * * * //

dimensions      [0 0 -1 0 0 0 0];

internalField   nonuniform List<vector> 
7132
(
(-6.4134e-17 -1.87263e-15 -0.00949346)
(-2.02211e-16 -1.80771e-15 -0.0100245)
(-1.91596e-16 -2.59833e-17 -0.0105265)
(-2.3841e-16 -1.79887e-15 -0.0108668)
(-3.03716e-16 -1.76908e-15 -0.0109853)
(-2.81809e-16 1.74861e-17 -0.0108803)
(-2.47486e-16 2.46987e-17 -0.0106027)
(-2.08477e-16 1.63975e-17 -0.0102348)
(-1.92339e-16 4.8986e-18 -0.00986932)
(-1.84442e-16 -4.34126e-18 -0.00958777)
(-1.77268e-16 -8.75244e-18 -0.00944468)
(-1.27073e-16 -7.26801e-18 -0.00948035)
(-1.34409e-16 -2.83436e-18 -0.0096911)
(-1.30701e-16 3.44019e-17 -0.010018)
(-4.33305e-17 -1.6667e-15 -0.0103815)
(3.49523e-17 -1.6771e-15 -0.0106785)
(5.50125e-17 -1.70014e-15 -0.0108087)
(-5.21692e-18 3.55467e-17 -0.0107002)
(-4.57787e-17 -1.70125e-15 -0.0103439)
(2.50921e-17 -1.73027e-15 -0.00983571)
(5.05922e-16 -1.11968e-17 -0.00931812)
(1.12573e-15 -1.41387e-17 -0.00892895)
(1.20649e-15 -2.15969e-17 -0.00880679)
(8.48314e-16 -1.14403e-18 -0.00907105)
(4.32968e-16 1.76285e-15 -0.00971334)
(2.24826e-16 -7.79971e-17 -0.010557)
(1.34122e-15 -1.12194e-16 -0.0113757)
(3.70658e-16 1.24749e-15 -0.0119735)
(-1.70594e-14 1.47071e-15 -0.0122043)
(-1.32654e-14 -1.58108e-14 -0.0119735)
(2.40609e-13 -4.14328e-14 -0.0112636)
(5.86994e-13 1.57293e-13 -0.0102026)
(-2.69903e-12 9.84978e-13 -0.009115)
(-1.76066e-11 2.05887e-12 -0.00830615)
(-4.17973e-11 1.85828e-12 -0.00786504)
(-5.43792e-11 8.73952e-15 -0.00775111)
(-4.24848e-11 -1.68282e-12 -0.00800522)
(-2.01653e-11 -1.86847e-12 -0.00879954)
(-5.25842e-12 -1.11578e-12 -0.0101619)
(3.37099e-13 -4.69571e-13 -0.0117526)
(1.34796e-12 -1.6219e-13 -0.0131102)
(7.00963e-13 5.55293e-13 -0.0138914)
(-1.56382e-12 2.41163e-12 -0.013933)
(-4.8425e-12 2.17831e-12 -0.0132536)
(-1.89389e-12 -1.3659e-11 -0.0120675)
(3.03127e-11 -6.80728e-11 -0.0108421)
(1.3372e-10 -1.6427e-10 -0.0102875)
(3.05901e-10 -2.42334e-10 -0.0107921)
(4.81282e-10 -2.06269e-10 -0.011951)
(5.75679e-10 -4.0137e-11 -0.0128696)
(5.1369e-10 1.44575e-10 -0.0130018)
(3.22375e-10 2.26309e-10 -0.0127572)
(1.55495e-10 1.96367e-10 -0.0129811)
(5.89077e-11 1.21184e-10 -0.0137729)
(3.24419e-12 4.82711e-11 -0.0146542)
(-1.00907e-12 -6.47117e-12 -0.0151713)
(6.23846e-11 -1.9305e-11 -0.0150636)
(7.84876e-11 8.31804e-11 -0.0141611)
(-4.4602e-10 4.09649e-10 -0.012115)
(-2.53264e-09 9.98818e-10 -0.00828238)
(-7.36049e-09 1.70163e-09 -0.002116)
(-1.51255e-08 2.15828e-09 0.00611987)
(-2.38478e-08 1.9738e-09 0.0146796)
(-2.98293e-08 1.04016e-09 0.0206553)
(-3.00999e-08 -3.18251e-10 0.0215159)
(-2.46911e-08 -1.55258e-09 0.0166238)
(-1.64026e-08 -2.20501e-09 0.00757081)
(-8.50691e-09 -2.12706e-09 -0.00260227)
(-2.96372e-09 -1.53779e-09 -0.0108921)
(-8.21205e-11 -7.82566e-10 -0.0156421)
(7.99938e-10 2.797e-11 -0.0167281)
(2.72923e-10 1.10976e-09 -0.0148205)
(-1.80454e-09 2.72488e-09 -0.0105875)
(-6.16483e-09 4.79383e-09 -0.00449657)
(-1.32933e-08 6.7588e-09 0.0028877)
(-2.25015e-08 7.79035e-09 0.0108637)
(-3.17673e-08 7.19602e-09 0.0189108)
(-3.8489e-08 4.80088e-09 0.0265015)
(-4.05614e-08 1.07787e-09 0.0323777)
(-3.72683e-08 -3.03516e-09 0.0343558)
(-2.96806e-08 -6.48912e-09 0.0305261)
(-2.01435e-08 -8.41391e-09 0.0210106)
(-1.11393e-08 -8.31656e-09 0.00836383)
(-4.4029e-09 -6.27716e-09 -0.0036159)
(-5.95767e-10 -2.93566e-09 -0.0117011)
(3.83113e-10 8.47394e-10 -0.0146615)
(-1.10793e-09 4.35253e-09 -0.0134958)
(-4.66789e-09 7.11368e-09 -0.0104711)
(-9.69741e-09 8.83216e-09 -0.0076923)
(-1.52229e-08 9.30718e-09 -0.00582348)
(-2.00892e-08 8.4626e-09 -0.00377864)
(-2.33561e-08 6.38413e-09 0.000108595)
(-2.45052e-08 3.2969e-09 0.00636951)
(-2.34097e-08 -4.85573e-10 0.0135012)
(-2.03096e-08 -4.55811e-09 0.0186394)
(-1.58192e-08 -8.28481e-09 0.0193875)
(-1.08122e-08 -1.06693e-08 0.0151695)
(-6.20277e-09 -1.0679e-08 0.00736541)
(-2.7275e-09 -7.98792e-09 -0.00143381)
(-8.26307e-10 -3.41398e-09 -0.00887349)
(-6.14442e-10 1.47278e-09 -0.0140484)
(-1.88674e-09 5.25955e-09 -0.0175796)
(-4.1425e-09 7.31247e-09 -0.0205772)
(-6.68984e-09 7.74342e-09 -0.0232458)
(-8.86715e-09 7.01178e-09 -0.0244425)
(-1.02511e-08 5.56895e-09 -0.022651)
(-1.07083e-08 3.69158e-09 -0.0173156)
(-1.03077e-08 1.45743e-09 -0.00946449)
(-9.21694e-09 -1.17472e-09 -0.00127384)
(-7.64775e-09 -4.13698e-09 0.00506157)
(-5.83168e-09 -6.95072e-09 0.00810447)
(-4.00655e-09 -8.70724e-09 0.00739492)
(-2.40625e-09 -8.55521e-09 0.00343481)
(-1.23451e-09 -6.36725e-09 -0.00272318)
(-6.18871e-10 -2.94706e-09 -0.0100454)
(-5.66655e-10 4.66007e-10 -0.0178061)
(-9.54913e-10 2.9246e-09 -0.0253933)
(-1.57212e-09 4.12701e-09 -0.0317962)
(-2.19868e-09 4.28041e-09 -0.0355588)
(-2.67628e-09 3.76985e-09 -0.035475)
(-2.92955e-09 2.90984e-09 -0.0313454)
(-2.9493e-09 1.84704e-09 -0.0241788)
(-2.76738e-09 5.76055e-10 -0.0157159)
(-2.43569e-09 -9.46945e-10 -0.00765497)
(-2.01052e-09 -2.6272e-09 -0.00132829)
(-1.54497e-09 -4.12564e-09 0.00232573)
(-1.08862e-09 -4.96638e-09 0.0027869)
(-6.85012e-10 -4.82891e-09 -5.35714e-05)
(-3.62587e-10 -3.78582e-09 -0.00590004)
(-1.26816e-10 -2.26427e-09 -0.0140296)
(3.5423e-11 -7.76791e-10 -0.0232391)
(1.41821e-10 3.35137e-10 -0.031811)
(2.02065e-10 9.76259e-10 -0.0378519)
(2.16033e-10 1.21878e-09 -0.0399782)
(1.82732e-10 1.18644e-09 -0.0378631)
(1.10088e-10 9.78761e-10 -0.0322816)
(1.67587e-11 6.48499e-10 -0.0246438)
(-7.39096e-11 2.18722e-10 -0.0163905)
(-1.41493e-10 -2.80268e-10 -0.00879803)
(-1.73828e-10 -7.81819e-10 -0.00297603)
(-1.68111e-10 -1.18799e-09 0.00013331)
(-1.27593e-10 -1.41176e-09 -0.000170505)
(-5.65363e-11 -1.42447e-09 -0.00416106)
(4.21128e-11 -1.26814e-09 -0.011469)
(1.63718e-10 -1.02481e-09 -0.0209466)
(2.97231e-10 -7.71613e-10 -0.0307325)
(4.23908e-10 -5.54157e-10 -0.0387188)
(5.21677e-10 -3.85857e-10 -0.0432488)
(5.72969e-10 -2.60597e-10 -0.0436316)
(5.71262e-10 -1.63895e-10 -0.0402094)
(5.22483e-10 -7.77712e-11 -0.0339704)
(4.41071e-10 1.59312e-11 -0.0260903)
(3.44545e-10 1.28538e-10 -0.017759)
(2.48755e-10 2.5511e-10 -0.0101754)
(1.65739e-10 3.70115e-10 -0.00446887)
(1.03596e-10 4.39337e-10 -0.00182944)
(6.70243e-11 4.30836e-10 -0.00261716)
(5.80313e-11 3.60352e-10 -0.00820303)
(6.86688e-11 2.06766e-10 -0.0147005)
(1.20566e-10 4.80471e-11 -0.0340287)
(-6.48233e-17 -5.79131e-18 -0.0284102)
(-2.10826e-16 -9.04085e-18 -0.0300176)
(-2.10637e-16 -8.73103e-18 -0.0315548)
(-2.63163e-16 -9.78526e-18 -0.0326212)
(-3.40605e-16 -1.09587e-17 -0.0330229)
(-3.30712e-16 -8.93487e-18 -0.0327333)
(-3.17012e-16 -1.19673e-17 -0.031881)
(-2.9402e-16 -1.11755e-17 -0.0306929)
(-2.27299e-16 1.7276e-15 -0.0294378)
(-2.649e-16 -1.1877e-17 -0.028362)
(-3.79601e-16 -3.74373e-17 -0.0276394)
(-4.36877e-16 1.70603e-15 -0.0274181)
(-3.94047e-16 -1.02029e-18 -0.0277334)
(-2.71828e-16 -9.44328e-18 -0.028509)
(-6.37099e-17 -1.14189e-17 -0.0296255)
(3.82231e-17 8.44968e-18 -0.0308946)
(-1.12693e-16 5.12755e-17 -0.0321032)
(-4.81425e-16 8.46718e-17 -0.0330455)
(-5.36075e-16 1.74688e-17 -0.0335705)
(6.45798e-16 -2.71824e-16 -0.0336502)
(2.58901e-15 -5.60667e-16 -0.033297)
(4.10616e-15 -3.64424e-16 -0.0325038)
(5.50851e-15 1.1711e-16 -0.0313414)
(4.75685e-15 3.84772e-16 -0.0300583)
(2.50286e-15 3.39871e-16 -0.0289576)
(2.21808e-15 -5.31275e-16 -0.0282369)
(6.5855e-15 -1.8511e-16 -0.0279594)
(-1.20764e-14 1.04478e-14 -0.0280746)
(-6.06659e-14 8.28535e-15 -0.0284513)
(1.3643e-13 -1.46382e-13 -0.0289572)
(5.46336e-13 -3.4156e-13 -0.0295736)
(-1.38075e-12 1.62365e-12 -0.0304672)
(-5.46581e-12 1.008e-11 -0.0319025)
(9.28617e-12 2.16063e-11 -0.0338187)
(4.74713e-11 2.02411e-11 -0.035528)
(5.53326e-11 3.52455e-13 -0.0360646)
(2.1013e-11 -1.87915e-11 -0.0351171)
(-4.92359e-12 -2.04834e-11 -0.0333424)
(-8.0772e-12 -1.13687e-11 -0.0316207)
(-2.25842e-12 -3.77623e-12 -0.0304238)
(1.7125e-12 -3.45859e-13 -0.0297939)
(-1.18989e-12 2.00946e-12 -0.0294994)
(-3.87055e-12 5.18162e-12 -0.0292962)
(2.73959e-11 2.34161e-12 -0.029257)
(8.36564e-11 -3.12401e-11 -0.0298884)
(-1.79269e-10 -1.3588e-10 -0.0316539)
(-1.75877e-09 -3.02066e-10 -0.0340736)
(-5.69093e-09 -4.16117e-10 -0.0355586)
(-1.08827e-08 -3.41159e-10 -0.0355908)
(-1.38102e-08 -5.63446e-11 -0.0357099)
(-1.22515e-08 2.71225e-10 -0.0367996)
(-7.79079e-09 4.05409e-10 -0.0376749)
(-3.41906e-09 3.28099e-10 -0.0372885)
(-7.92207e-10 1.97309e-10 -0.0356521)
(1.45207e-10 7.82278e-11 -0.0335016)
(3.02284e-10 -3.60431e-11 -0.0317359)
(4.15127e-10 -5.90516e-11 -0.0307228)
(2.37827e-10 3.37381e-10 -0.0298568)
(-2.25147e-09 1.71521e-09 -0.0270928)
(-1.09236e-08 4.45605e-09 -0.0189712)
(-2.94144e-08 7.99807e-09 -0.00233359)
(-5.70229e-08 1.04019e-08 0.0225343)
(-8.64243e-08 9.3257e-09 0.0504318)
(-1.0642e-07 4.16621e-09 0.0727403)
(-1.08145e-07 -2.88737e-09 0.0807262)
(-9.07105e-08 -8.40123e-09 0.0700469)
(-6.20632e-08 -1.02971e-08 0.0442042)
(-3.33433e-08 -8.84652e-09 0.0128784)
(-1.22869e-08 -5.75018e-09 -0.0137251)
(-9.03924e-10 -2.66439e-09 -0.0297398)
(2.75478e-09 -1.49548e-10 -0.0347805)
(9.57663e-10 2.412e-09 -0.0316344)
(-6.03032e-09 5.94376e-09 -0.0236007)
(-1.93082e-08 1.05382e-08 -0.0133865)
(-3.8711e-08 1.49271e-08 -0.00282846)
(-6.10766e-08 1.70274e-08 0.00811299)
(-8.14953e-08 1.51898e-08 0.0221357)
(-9.56864e-08 9.19792e-09 0.0418519)
(-1.00778e-07 4.67533e-10 0.0649933)
(-9.51027e-08 -8.47556e-09 0.0830921)
(-7.90956e-08 -1.50515e-08 0.0862918)
(-5.64171e-08 -1.76846e-08 0.0706293)
(-3.29121e-08 -1.61869e-08 0.0410925)
(-1.39792e-08 -1.15489e-08 0.00852875)
(-2.63394e-09 -5.32867e-09 -0.0166056)
(5.56309e-10 1.10348e-09 -0.0298068)
(-3.50315e-09 6.87803e-09 -0.0339525)
(-1.30417e-08 1.14084e-08 -0.0358451)
(-2.54294e-08 1.41097e-08 -0.0403834)
(-3.75264e-08 1.45031e-08 -0.0463039)
(-4.68412e-08 1.25292e-08 -0.0469793)
(-5.24083e-08 8.59214e-09 -0.0359592)
(-5.43821e-08 3.32371e-09 -0.0123872)
(-5.29267e-08 -2.58339e-09 0.0176191)
(-4.78099e-08 -8.35338e-09 0.0438159)
(-3.91456e-08 -1.30335e-08 0.0570723)
(-2.81562e-08 -1.54775e-08 0.0536236)
(-1.69895e-08 -1.47213e-08 0.0361317)
(-7.97609e-09 -1.06762e-08 0.0116183)
(-2.82841e-09 -4.4705e-09 -0.0130825)
(-2.13464e-09 2.003e-09 -0.0350975)
(-5.22811e-09 7.02358e-09 -0.0553138)
(-1.04564e-08 9.71402e-09 -0.0746071)
(-1.58627e-08 1.01058e-08 -0.0902916)
(-2.00053e-08 8.7924e-09 -0.0967271)
(-2.23674e-08 6.48953e-09 -0.0894395)
(-2.31282e-08 3.71992e-09 -0.0684911)
(-2.26167e-08 7.11739e-10 -0.0387035)
(-2.09676e-08 -2.50471e-09 -0.0075408)
(-1.82144e-08 -5.8296e-09 0.0177738)
(-1.45421e-08 -8.77132e-09 0.0321927)
(-1.04017e-08 -1.042e-08 0.0336394)
(-6.47577e-09 -9.94123e-09 0.0229814)
(-3.47425e-09 -7.26093e-09 0.00286686)
(-1.85438e-09 -3.28098e-09 -0.0237214)
(-1.63215e-09 6.34029e-10 -0.0538049)
(-2.40904e-09 3.42733e-09 -0.0834884)
(-3.60587e-09 4.74889e-09 -0.107266)
(-4.74463e-09 4.83249e-09 -0.119402)
(-5.58967e-09 4.13529e-09 -0.116667)
(-6.09924e-09 3.04635e-09 -0.0999616)
(-6.29183e-09 1.76595e-09 -0.0737018)
(-6.16229e-09 3.19249e-10 -0.0438498)
(-5.69905e-09 -1.32537e-09 -0.0159221)
(-4.92426e-09 -3.07256e-09 0.00575815)
(-3.91722e-09 -4.58659e-09 0.0181222)
(-2.81742e-09 -5.39636e-09 0.0193373)
(-1.78641e-09 -5.19193e-09 0.00882321)
(-9.42031e-10 -4.06491e-09 -0.0125156)
(-3.14698e-10 -2.46328e-09 -0.0418047)
(1.36662e-10 -9.11108e-10 -0.0738993)
(4.66936e-10 2.51817e-10 -0.102013)
(6.96416e-10 9.39153e-10 -0.119746)
(8.05509e-10 1.22845e-09 -0.123462)
(7.66892e-10 1.23941e-09 -0.113377)
(5.83803e-10 1.06175e-09 -0.0928641)
(3.04556e-10 7.40499e-10 -0.0667312)
(5.13872e-12 2.97848e-10 -0.0396245)
(-2.38881e-10 -2.30307e-10 -0.0155446)
(-3.76752e-10 -7.68509e-10 0.00209311)
(-3.92216e-10 -1.2111e-09 0.0103696)
(-2.95047e-10 -1.46754e-09 0.00712556)
(-1.03802e-10 -1.50932e-09 -0.00827071)
(1.64451e-10 -1.37826e-09 -0.0339825)
(4.89694e-10 -1.15236e-09 -0.0653155)
(8.39179e-10 -9.01706e-10 -0.0955543)
(1.16568e-09 -6.66378e-10 -0.118065)
(1.41749e-09 -4.60387e-10 -0.128529)
(1.55387e-09 -2.85388e-10 -0.12599)
(1.55734e-09 -1.3865e-10 -0.112398)
(1.4377e-09 -1.26738e-11 -0.0912221)
(1.22661e-09 1.04902e-10 -0.0662126)
(9.66746e-10 2.24696e-10 -0.0409806)
(7.00658e-10 3.44515e-10 -0.0190564)
(4.64424e-10 4.42696e-10 -0.00383823)
(2.85215e-10 4.88696e-10 0.00120295)
(1.80174e-10 4.5362e-10 -0.00484001)
(1.56328e-10 3.5953e-10 -0.025042)
(1.89831e-10 1.755e-10 -0.0474186)
(3.39792e-10 2.21002e-11 -0.103163)
(-2.05958e-18 -8.03511e-20 -0.0471359)
(-2.30372e-17 -7.67277e-20 -0.0498482)
(-4.17479e-17 1.85201e-19 -0.0524566)
(-6.85238e-17 8.32989e-19 -0.054286)
(-8.23492e-17 -5.7785e-19 -0.0549991)
(-1.26548e-16 5.68957e-18 -0.0545316)
(-2.12949e-16 6.35253e-18 -0.0530764)
(3.74274e-17 -2.16826e-17 -0.050995)
(-5.49236e-17 -9.66122e-18 -0.048729)
(-8.85775e-16 6.50333e-17 -0.0466902)
(-1.16649e-15 8.06242e-17 -0.0451746)
(-4.19974e-16 -4.49737e-20 -0.0444692)
(4.99002e-16 -8.87472e-17 -0.0446934)
(1.21225e-15 -1.30766e-16 -0.0458081)
(1.26334e-15 -8.70058e-17 -0.0477327)
(2.36762e-16 8.21128e-17 -0.0502667)
(-1.76441e-15 2.94403e-16 -0.053128)
(-3.0571e-15 2.47238e-16 -0.0559667)
(1.46296e-16 -5.30141e-16 -0.0584105)
(-3.22308e-15 -1.55809e-15 -0.0600949)
(-7.22351e-14 -1.74138e-15 -0.0606118)
(-1.63887e-13 -1.47389e-15 -0.0595631)
(-1.34619e-13 -3.46943e-16 -0.0567808)
(-4.95305e-14 1.50168e-15 -0.0526044)
(-7.64792e-15 1.29751e-15 -0.0478059)
(1.43811e-14 -2.11931e-15 -0.0432803)
(-1.13708e-14 7.03507e-15 -0.0398393)
(-1.41039e-13 3.48732e-14 -0.0380717)
(4.75968e-13 -7.27826e-14 -0.0382721)
(1.73363e-12 -3.21054e-13 -0.0405015)
(-1.01133e-11 7.15425e-13 -0.0446916)
(-3.72395e-11 3.16164e-12 -0.0506707)
(1.28393e-10 -4.34848e-12 -0.0582965)
(9.71912e-10 -2.44114e-11 -0.0672291)
(2.3761e-09 -2.11667e-11 -0.0753025)
(3.10732e-09 1.32362e-11 -0.0783105)
(2.41582e-09 2.84435e-11 -0.0741239)
(1.12967e-09 1.26766e-11 -0.0650862)
(2.75431e-10 -2.45008e-12 -0.0548754)
(-2.22578e-11 -5.36617e-12 -0.0457689)
(-5.4384e-11 -6.99931e-13 -0.0389118)
(-4.14094e-11 3.34511e-12 -0.0348433)
(2.22347e-11 -1.18813e-11 -0.0339011)
(3.13003e-10 -4.15869e-11 -0.0366283)
(3.98376e-10 8.96719e-11 -0.0429705)
(-2.66203e-09 8.53139e-10 -0.0492244)
(-1.50371e-08 2.59156e-09 -0.0462905)
(-4.06545e-08 4.31964e-09 -0.0269085)
(-7.17718e-08 3.85335e-09 0.00179952)
(-9.01324e-08 6.44245e-10 0.0198085)
(-8.30958e-08 -2.86512e-09 0.0134434)
(-5.65049e-08 -4.1899e-09 -0.0104991)
(-2.75354e-08 -3.30292e-09 -0.0337524)
(-8.17027e-09 -1.66095e-09 -0.0446667)
(1.67271e-10 -4.98974e-10 -0.0437853)
(2.00751e-09 -1.41431e-10 -0.0383522)
(1.80448e-09 1.29268e-11 -0.034675)
(1.79531e-10 1.41648e-09 -0.0337056)
(-7.24359e-09 5.99034e-09 -0.0307561)
(-2.74173e-08 1.45803e-08 -0.0188063)
(-6.33323e-08 2.47513e-08 0.00608832)
(-1.08614e-07 3.06632e-08 0.0421547)
(-1.50903e-07 2.66722e-08 0.0854321)
(-1.7912e-07 1.19006e-08 0.129857)
(-1.8533e-07 -8.17285e-09 0.161939)
(-1.65125e-07 -2.45936e-08 0.164149)
(-1.22757e-07 -3.08886e-08 0.130166)
(-7.26222e-08 -2.70152e-08 0.0733861)
(-3.06128e-08 -1.77575e-08 0.0171104)
(-5.03924e-09 -8.3034e-09 -0.0212272)
(4.49067e-09 -9.02824e-10 -0.0374511)
(1.63935e-09 5.50231e-09 -0.0377774)
(-1.12075e-08 1.28578e-08 -0.032667)
(-3.22029e-08 2.11342e-08 -0.0317854)
(-5.68498e-08 2.7643e-08 -0.0388533)
(-7.84192e-08 2.91825e-08 -0.046755)
(-9.27087e-08 2.45009e-08 -0.0399198)
(-1.00703e-07 1.44422e-08 -0.00705667)
(-1.05192e-07 7.86041e-10 0.0471887)
(-1.0544e-07 -1.38764e-08 0.102747)
(-9.6953e-08 -2.58319e-08 0.13555)
(-7.73194e-08 -3.15057e-08 0.131958)
(-5.05076e-08 -2.95355e-08 0.0961853)
(-2.45976e-08 -2.14163e-08 0.04593)
(-6.92387e-09 -1.02034e-08 0.00046196)
(-9.9723e-10 1.282e-09 -0.031247)
(-6.14313e-09 1.11516e-08 -0.0540407)
(-1.83855e-08 1.80768e-08 -0.0787375)
(-3.19847e-08 2.10745e-08 -0.108978)
(-4.19606e-08 2.00131e-08 -0.134506)
(-4.65133e-08 1.59036e-08 -0.138417)
(-4.73064e-08 1.01546e-08 -0.111221)
(-4.73084e-08 3.55608e-09 -0.0577864)
(-4.7918e-08 -3.77169e-09 0.00645256)
(-4.76776e-08 -1.14486e-08 0.0630978)
(-4.38597e-08 -1.81116e-08 0.0972758)
(-3.53012e-08 -2.17473e-08 0.102051)
(-2.36641e-08 -2.0769e-08 0.0801318)
(-1.25868e-08 -1.50685e-08 0.0411668)
(-5.58103e-09 -6.3347e-09 -0.00506407)
(-4.17265e-09 2.67263e-09 -0.0540139)
(-7.30596e-09 9.42042e-09 -0.104549)
(-1.22396e-08 1.26298e-08 -0.151964)
(-1.63209e-08 1.25179e-08 -0.184754)
(-1.83726e-08 1.02641e-08 -0.1907)
(-1.88219e-08 7.13042e-09 -0.16594)
(-1.88096e-08 3.81619e-09 -0.117467)
(-1.9088e-08 3.77118e-10 -0.0582345)
(-1.94304e-08 -3.37587e-09 -0.00121115)
(-1.89421e-08 -7.34973e-09 0.0435779)
(-1.6872e-08 -1.08571e-08 0.069423)
(-1.32438e-08 -1.27404e-08 0.0730926)
(-8.95823e-09 -1.20189e-08 0.0548058)
(-5.28426e-09 -8.67794e-09 0.0172804)
(-3.11058e-09 -3.8681e-09 -0.0351339)
(-2.50376e-09 7.43337e-10 -0.0955473)
(-2.85647e-09 3.91146e-09 -0.152918)
(-3.42928e-09 5.2948e-09 -0.193473)
(-3.81377e-09 5.27231e-09 -0.20656)
(-4.02511e-09 4.44715e-09 -0.190193)
(-4.28755e-09 3.26092e-09 -0.151184)
(-4.74045e-09 1.87856e-09 -0.10051)
(-5.27476e-09 2.79666e-10 -0.0484891)
(-5.60668e-09 -1.56596e-09 -0.00273961)
(-5.46555e-09 -3.51811e-09 0.0312401)
(-4.76273e-09 -5.17905e-09 0.0491529)
(-3.64911e-09 -6.03178e-09 0.0476585)
(-2.41692e-09 -5.76661e-09 0.0250409)
(-1.31957e-09 -4.52167e-09 -0.0172354)
(-4.52991e-10 -2.80362e-09 -0.0727178)
(2.22783e-10 -1.16761e-09 -0.129676)
(7.78308e-10 5.52594e-11 -0.174139)
(1.2316e-09 8.06972e-10 -0.195523)
(1.5352e-09 1.18354e-09 -0.190869)
(1.6163e-09 1.29729e-09 -0.164637)
(1.43591e-09 1.20993e-09 -0.125076)
(1.03235e-09 9.37831e-10 -0.0804268)
(5.19002e-10 4.9044e-10 -0.0372255)
(4.08611e-11 -8.93223e-11 -0.000710938)
(-2.83494e-10 -7.0515e-10 0.0242804)
(-3.98705e-10 -1.22884e-09 0.0329902)
(-3.1025e-10 -1.55597e-09 0.0216762)
(-5.62806e-11 -1.65421e-09 -0.0102339)
(3.1638e-10 -1.56489e-09 -0.0579668)
(7.5717e-10 -1.36217e-09 -0.111191)
(1.20959e-09 -1.1096e-09 -0.157058)
(1.61574e-09 -8.43313e-10 -0.185241)
(1.9259e-09 -5.79954e-10 -0.191579)
(2.10427e-09 -3.30524e-10 -0.178108)
(2.13087e-09 -1.05808e-10 -0.15036)
(2.00506e-09 8.75981e-11 -0.114385)
(1.74968e-09 2.51408e-10 -0.0754146)
(1.40806e-09 3.91511e-10 -0.0381167)
(1.03534e-09 5.06271e-10 -0.00740696)
(6.89153e-10 5.77838e-10 0.011386)
(4.20228e-10 5.81462e-10 0.0126417)
(2.63437e-10 4.9528e-10 -0.00443997)
(2.32323e-10 3.55523e-10 -0.0430067)
(2.89737e-10 1.15034e-10 -0.0820291)
(5.15208e-10 -2.69313e-11 -0.161034)
(-6.70512e-17 6.75707e-18 -0.065527)
(-2.03142e-16 1.08033e-17 -0.0693806)
(-1.75349e-16 1.40123e-17 -0.0730859)
(-2.22215e-16 1.05154e-17 -0.0756848)
(-1.35033e-16 1.80537e-17 -0.0766964)
(-5.83463e-16 5.6365e-17 -0.0760255)
(3.10951e-16 -9.39552e-17 -0.073942)
(5.48091e-16 -9.01883e-17 -0.0709544)
(-3.48955e-15 2.18921e-15 -0.0676938)
(-2.59039e-15 5.43906e-16 -0.0647429)
(6.26518e-15 -2.00506e-15 -0.0625114)
(1.34273e-14 8.7328e-16 -0.0614453)
(1.33763e-14 -8.17133e-16 -0.0616844)
(9.49656e-15 -3.9161e-16 -0.0631831)
(1.65652e-15 4.76326e-16 -0.0658837)
(-9.6611e-15 1.52232e-15 -0.0695343)
(-2.01684e-14 1.69821e-15 -0.0737545)
(-1.49921e-14 -8.70682e-16 -0.0780286)
(6.60963e-15 1.00457e-16 -0.0817482)
(-1.22538e-13 3.59189e-14 -0.0843585)
(-3.86876e-13 7.97711e-14 -0.08532)
(-5.00304e-13 3.08276e-14 -0.0840262)
(-6.00424e-13 -5.70609e-14 -0.0800919)
(-4.65663e-13 -6.31008e-14 -0.0738821)
(-2.05979e-13 -3.16159e-14 -0.0664628)
(-1.83794e-14 1.33015e-15 -0.0591605)
(-3.41742e-13 7.75248e-14 -0.0532922)
(-2.29247e-13 -2.33222e-13 -0.0499948)
(5.26448e-12 -9.29049e-13 -0.0500194)
(4.73134e-13 5.14824e-12 -0.0536139)
(-7.92147e-11 1.9145e-11 -0.0605247)
(-8.94829e-11 -6.76297e-11 -0.0704425)
(9.09318e-10 -4.94496e-10 -0.0841263)
(3.95786e-09 -1.10225e-09 -0.10216)
(8.20352e-09 -1.04746e-09 -0.120248)
(1.09105e-08 -1.95092e-11 -0.129049)
(9.73175e-09 9.70035e-10 -0.122048)
(5.62906e-09 1.04971e-09 -0.103)
(1.95682e-09 5.64594e-10 -0.0815353)
(1.61513e-10 1.61131e-10 -0.0633507)
(-2.91365e-10 9.22993e-12 -0.050097)
(-2.33645e-10 -3.62999e-11 -0.0423023)
(2.08839e-10 -1.72025e-10 -0.040934)
(1.21056e-09 -1.85729e-10 -0.0469414)
(-5.77152e-12 1.45628e-09 -0.0565014)
(-1.36019e-08 7.58186e-09 -0.0541748)
(-5.36509e-08 1.86942e-08 -0.0173694)
(-1.21585e-07 2.79513e-08 0.0602583)
(-1.95446e-07 2.43978e-08 0.153597)
(-2.40971e-07 5.60562e-09 0.218305)
(-2.32997e-07 -1.65425e-08 0.217385)
(-1.7438e-07 -2.73748e-08 0.149834)
(-9.72646e-08 -2.38392e-08 0.0563649)
(-3.61296e-08 -1.3654e-08 -0.0158156)
(-4.07071e-09 -5.01066e-09 -0.0479778)
(5.78476e-09 -8.54646e-10 -0.0510684)
(5.43892e-09 8.54939e-10 -0.0446657)
(-5.39139e-10 4.86141e-09 -0.0385279)
(-1.71525e-08 1.55136e-08 -0.0308216)
(-5.00389e-08 3.25004e-08 -0.0187763)
(-9.36638e-08 4.85963e-08 -0.00498634)
(-1.32444e-07 5.41871e-08 0.0127842)
(-1.56757e-07 4.4579e-08 0.0509086)
(-1.71148e-07 2.138e-08 0.121503)
(-1.81944e-07 -9.88526e-09 0.206395)
(-1.82292e-07 -3.96877e-08 0.261326)
(-1.58469e-07 -5.65483e-08 0.250558)
(-1.10643e-07 -5.49188e-08 0.178167)
(-5.66091e-08 -3.95416e-08 0.0827595)
(-1.5754e-08 -2.02161e-08 0.005311)
(3.16317e-09 -3.48884e-09 -0.0357007)
(1.19705e-09 1.02611e-08 -0.048112)
(-1.61255e-08 2.28649e-08 -0.0555177)
(-4.03096e-08 3.33593e-08 -0.0802327)
(-6.04685e-08 3.80353e-08 -0.124062)
(-6.84587e-08 3.49568e-08 -0.160011)
(-6.47194e-08 2.63315e-08 -0.151235)
(-5.77033e-08 1.54394e-08 -0.0834608)
(-5.70108e-08 2.83628e-09 0.0230891)
(-6.51639e-08 -1.25949e-08 0.129032)
(-7.43256e-08 -2.91119e-08 0.19738)
(-7.30297e-08 -4.09073e-08 0.208447)
(-5.7212e-08 -4.25478e-08 0.166671)
(-3.34773e-08 -3.33408e-08 0.0962258)
(-1.32531e-08 -1.71289e-08 0.024838)
(-4.77772e-09 7.13103e-10 -0.0346143)
(-8.86357e-09 1.55722e-08 -0.0892088)
(-1.96307e-08 2.43292e-08 -0.150743)
(-2.89315e-08 2.58973e-08 -0.213547)
(-3.16312e-08 2.17674e-08 -0.250298)
(-2.80029e-08 1.52021e-08 -0.234109)
(-2.2195e-08 8.98966e-09 -0.162813)
(-1.90578e-08 3.62954e-09 -0.0601645)
(-2.12268e-08 -2.39878e-09 0.0421827)
(-2.72485e-08 -1.03825e-08 0.120425)
(-3.22798e-08 -1.92216e-08 0.162051)
(-3.17461e-08 -2.55753e-08 0.163687)
(-2.49962e-08 -2.60786e-08 0.13024)
(-1.56574e-08 -1.97177e-08 0.0720735)
(-8.61626e-09 -8.67755e-09 -0.00133736)
(-6.413e-09 2.86546e-09 -0.0849984)
(-7.94644e-09 1.1057e-08 -0.172535)
(-1.01332e-08 1.42215e-08 -0.246996)
(-1.06161e-08 1.31723e-08 -0.283297)
(-9.11254e-09 1.00429e-08 -0.264983)
(-6.919e-09 6.70805e-09 -0.197766)
(-5.72368e-09 3.85293e-09 -0.10556)
(-6.58134e-09 1.02214e-09 -0.0146956)
(-9.24696e-09 -2.57764e-09 0.0580197)
(-1.22011e-08 -7.10882e-09 0.105966)
(-1.35907e-08 -1.16205e-08 0.127273)
(-1.2521e-08 -1.43768e-08 0.121154)
(-9.62693e-09 -1.3921e-08 0.0871746)
(-6.45197e-09 -1.01848e-08 0.0262467)
(-4.22704e-09 -4.67123e-09 -0.0567923)
(-3.14623e-09 5.06974e-10 -0.149075)
(-2.62929e-09 3.89009e-09 -0.228401)
(-2.06347e-09 5.22754e-09 -0.270633)
(-1.27175e-09 5.13041e-09 -0.263205)
(-5.01293e-10 4.37218e-09 -0.212561)
(-1.72168e-10 3.40402e-09 -0.138675)
(-5.85232e-10 2.25955e-09 -0.0625595)
(-1.68516e-09 7.52364e-10 0.00254443)
(-3.02025e-09 -1.22997e-09 0.0514655)
(-3.98058e-09 -3.49453e-09 0.0824433)
(-4.16297e-09 -5.49481e-09 0.0930587)
(-3.58153e-09 -6.56927e-09 0.0791857)
(-2.57319e-09 -6.3567e-09 0.0374206)
(-1.51023e-09 -5.04687e-09 -0.0301482)
(-5.86535e-10 -3.23446e-09 -0.111694)
(1.82533e-10 -1.52676e-09 -0.186353)
(8.45409e-10 -2.52589e-10 -0.232371)
(1.42536e-09 5.60705e-10 -0.238204)
(1.89139e-09 1.03609e-09 -0.207545)
(2.16238e-09 1.28906e-09 -0.154691)
(2.14392e-09 1.35373e-09 -0.095239)
(1.80045e-09 1.19895e-09 -0.0396274)
(1.21457e-09 7.93592e-10 0.00722353)
(5.66706e-10 1.70942e-10 0.042616)
(5.09611e-11 -5.48726e-10 0.0627971)
(-2.08288e-10 -1.19772e-09 0.0620536)
(-1.85631e-10 -1.63876e-09 0.035186)
(7.01294e-11 -1.82263e-09 -0.0176328)
(4.75136e-10 -1.78499e-09 -0.0868707)
(9.36791e-10 -1.59897e-09 -0.154618)
(1.37377e-09 -1.33099e-09 -0.201911)
(1.73357e-09 -1.02454e-09 -0.217883)
(1.99637e-09 -7.04654e-10 -0.203748)
(2.15865e-09 -3.87872e-10 -0.169264)
(2.21182e-09 -8.90431e-11 -0.125692)
(2.1387e-09 1.7792e-10 -0.0807924)
(1.93056e-09 4.03401e-10 -0.0385064)
(1.60449e-09 5.81867e-10 -0.00143498)
(1.20919e-09 7.03968e-10 0.0262889)
(8.16723e-10 7.50253e-10 0.0384032)
(5.02761e-10 7.01554e-10 0.0274673)
(3.23463e-10 5.47573e-10 -0.00602433)
(2.99627e-10 3.4638e-10 -0.0635111)
(3.85494e-10 3.40576e-11 -0.113775)
(6.61854e-10 -9.06355e-11 -0.189928)
(6.86361e-17 1.86974e-15 -0.0833965)
(2.52112e-16 1.7888e-15 -0.0884445)
(1.63584e-16 9.72154e-18 -0.0932953)
(4.52476e-16 1.7154e-15 -0.0966946)
(8.6056e-17 1.91477e-15 -0.0980107)
(-2.04437e-16 1.51742e-15 -0.097115)
(6.08507e-15 -5.59425e-16 -0.0943576)
(-1.28646e-14 1.90567e-15 -0.0903989)
(-1.09028e-14 1.55958e-15 -0.0860747)
(5.01796e-14 -6.58771e-15 -0.0821398)
(6.97245e-14 -7.92144e-15 -0.0790992)
(2.90244e-14 -3.54206e-15 -0.0775976)
(-1.57549e-14 1.86984e-15 -0.0778388)
(-5.99585e-14 5.72913e-15 -0.079724)
(-1.021e-13 9.49182e-15 -0.0832085)
(-1.35745e-13 1.4464e-14 -0.0879569)
(-1.28516e-13 4.69463e-15 -0.0934682)
(-2.39923e-14 -1.31418e-14 -0.0990908)
(-1.6612e-13 5.49777e-14 -0.104109)
(-1.20302e-13 1.9692e-13 -0.107783)
(7.26135e-12 1.87141e-13 -0.109297)
(1.86906e-11 1.053e-13 -0.107803)
(1.58559e-11 -1.76673e-14 -0.102724)
(4.68402e-12 -1.95721e-13 -0.0945467)
(-4.19849e-13 -2.22344e-13 -0.084745)
(-1.15064e-12 6.40274e-14 -0.0750122)
(-1.89023e-12 1.12469e-13 -0.0670383)
(3.52245e-12 -2.76824e-12 -0.0624193)
(1.37248e-11 -4.23973e-13 -0.0622816)
(-5.10369e-11 4.19185e-11 -0.0669421)
(-1.27368e-10 4.56917e-11 -0.0763346)
(4.64202e-10 -4.91106e-10 -0.0910323)
(1.09894e-09 -2.02802e-09 -0.109518)
(-3.43606e-09 -3.67152e-09 -0.122578)
(-1.40605e-08 -3.4975e-09 -0.12492)
(-1.87917e-08 -7.50881e-10 -0.127261)
(-1.10705e-08 2.66918e-09 -0.132945)
(-1.20143e-09 3.90014e-09 -0.128289)
(2.44921e-09 2.73132e-09 -0.109075)
(1.54246e-09 1.11872e-09 -0.0841995)
(1.40561e-11 1.96876e-10 -0.0631413)
(-3.91328e-10 -2.46759e-10 -0.0509569)
(8.22801e-10 -7.33985e-10 -0.0500112)
(2.36006e-09 6.57166e-11 -0.0588863)
(-5.08907e-09 7.49591e-09 -0.0634689)
(-4.05497e-08 2.76757e-08 -0.0352697)
(-1.14562e-07 5.65831e-08 0.0447497)
(-2.08309e-07 7.52171e-08 0.16351)
(-2.89994e-07 6.35466e-08 0.295861)
(-3.41957e-07 1.94198e-08 0.415924)
(-3.51364e-07 -3.6161e-08 0.47435)
(-3.01555e-07 -7.20561e-08 0.419723)
(-2.01376e-07 -7.24279e-08 0.265878)
(-9.51511e-08 -4.82579e-08 0.0951398)
(-2.29782e-08 -2.14562e-08 -0.0187726)
(7.65822e-09 -4.89624e-09 -0.0616928)
(1.09271e-08 3.17488e-09 -0.0612465)
(-1.93099e-09 1.27122e-08 -0.0469535)
(-2.98795e-08 3.07402e-08 -0.0377294)
(-6.85434e-08 5.28359e-08 -0.0507752)
(-9.99834e-08 6.59536e-08 -0.091756)
(-1.06529e-07 6.221e-08 -0.126371)
(-9.11584e-08 4.60246e-08 -0.0937645)
(-7.63636e-08 2.44937e-08 0.0309056)
(-8.36685e-08 -2.60077e-09 0.203874)
(-1.11481e-07 -3.63308e-08 0.343749)
(-1.3217e-07 -6.67136e-08 0.384695)
(-1.19932e-07 -7.79452e-08 0.315687)
(-7.80541e-08 -6.52017e-08 0.183865)
(-3.16187e-08 -3.81896e-08 0.0567236)
(-3.63905e-09 -9.37834e-09 -0.024255)
(-1.85031e-09 1.51467e-08 -0.0646951)
(-1.93337e-08 3.36111e-08 -0.10404)
(-4.05864e-08 4.33056e-08 -0.175753)
(-5.05462e-08 4.17175e-08 -0.266101)
(-4.37362e-08 3.1308e-08 -0.313673)
(-2.59422e-08 1.91232e-08 -0.262782)
(-8.32581e-09 1.05879e-08 -0.115701)
(-1.42303e-09 4.51635e-09 0.0706324)
(-1.06126e-08 -5.21894e-09 0.228998)
(-3.11166e-08 -2.1899e-08 0.316932)
(-4.85622e-08 -4.00625e-08 0.322681)
(-5.0323e-08 -4.93118e-08 0.259644)
(-3.66878e-08 -4.33957e-08 0.159159)
(-1.92621e-08 -2.45532e-08 0.0534471)
(-9.8876e-09 -9.12771e-10 -0.0449139)
(-1.145e-08 1.8578e-08 -0.145456)
(-1.77019e-08 2.81108e-08 -0.253904)
(-2.04281e-08 2.70747e-08 -0.343959)
(-1.62845e-08 1.95487e-08 -0.366118)
(-7.5729e-09 1.11855e-08 -0.290898)
(1.20185e-09 5.68207e-09 -0.138221)
(5.99788e-09 3.07202e-09 0.0360554)
(4.17684e-09 3.23673e-10 0.177805)
(-4.15878e-09 -5.92218e-09 0.260313)
(-1.4851e-08 -1.58629e-08 0.28272)
(-2.17236e-08 -2.53891e-08 0.255758)
(-2.14991e-08 -2.88134e-08 0.192309)
(-1.62648e-08 -2.32584e-08 0.102829)
(-1.08769e-08 -1.09569e-08 -0.00713098)
(-8.29524e-09 2.33772e-09 -0.133224)
(-7.73491e-09 1.12805e-08 -0.259322)
(-6.75973e-09 1.39646e-08 -0.349464)
(-4.10247e-09 1.20075e-08 -0.363562)
(-3.24245e-10 8.4156e-09 -0.287954)
(3.19827e-09 5.43599e-09 -0.148899)
(5.13393e-09 3.64737e-09 0.00389802)
(4.51006e-09 2.13876e-09 0.126908)
(1.16745e-09 -5.65998e-10 0.201075)
(-3.65902e-09 -5.17787e-09 0.229058)
(-7.74165e-09 -1.06971e-08 0.22138)
(-9.38007e-09 -1.47223e-08 0.185142)
(-8.56935e-09 -1.50534e-08 0.120694)
(-6.6425e-09 -1.13779e-08 0.0261064)
(-4.87538e-09 -5.52098e-09 -0.0932395)
(-3.59468e-09 -5.5534e-11 -0.215338)
(-2.45611e-09 3.37008e-09 -0.303017)
(-1.14337e-09 4.61603e-09 -0.322353)
(3.30452e-10 4.49122e-09 -0.265445)
(1.70994e-09 3.89736e-09 -0.156154)
(2.61945e-09 3.30289e-09 -0.034384)
(2.6697e-09 2.63506e-09 0.0664892)
(1.69274e-09 1.49718e-09 0.132178)
(6.99608e-12 -4.18251e-10 0.164632)
(-1.66989e-09 -2.94675e-09 0.171357)
(-2.66486e-09 -5.37858e-09 0.155845)
(-2.75711e-09 -6.82667e-09 0.114742)
(-2.19777e-09 -6.80225e-09 0.0431554)
(-1.39468e-09 -5.515e-09 -0.0551347)
(-6.22593e-10 -3.65e-09 -0.160085)
(2.80993e-11 -1.88358e-09 -0.239216)
(5.72261e-10 -5.66153e-10 -0.264391)
(1.05963e-09 2.8398e-10 -0.229114)
(1.52562e-09 8.15029e-10 -0.151369)
(1.93684e-09 1.17103e-09 -0.0608253)
(2.1709e-09 1.3909e-09 0.0178877)
(2.09017e-09 1.4025e-09 0.0739372)
(1.67059e-09 1.10731e-09 0.107899)
(1.052e-09 4.92482e-10 0.123924)
(4.67733e-10 -3.17653e-10 0.122437)
(1.16361e-10 -1.11054e-09 0.098193)
(7.6751e-11 -1.69517e-09 0.0452763)