/*--------------------------------*- C++ -*----------------------------------*\
  =========                 |
  \\      /  F ield         | OpenFOAM: The Open Source CFD Toolbox
   \\    /   O peration     | Website:  https://openfoam.org
    \\  /    A nd           | Version:  11
     \\/     M anipulation  |
\*---------------------------------------------------------------------------*/
FoamFile
{
    format      ascii;
    class       surfaceScalarField;
    location    "4.391571";
    object      phi_0;
}
// * * * * * * * * * * * * * * * * * * * * * * * * * * * * * * * * * * * * * //

dimensions      [0 3 -1 0 0 0 0];

internalField   nonuniform List<scalar> 
14638
(
0.00250289
-2.88928e-06
0.00251161
-8.7194e-06
0.00252652
-1.49112e-05
0.00254811
-2.15897e-05
0.0025769
-2.87915e-05
0.00261322
-3.63201e-05
0.00265701
-4.37846e-05
0.00270741
-5.03994e-05
0.00276272
-5.5319e-05
0.00282035
-5.76251e-05
0.00287714
-5.67874e-05
0.00293059
-5.34563e-05
0.00297879
-4.81993e-05
0.00302036
-4.15659e-05
0.00305438
-3.40184e-05
0.0030802
-2.58188e-05
0.00309731
-1.71161e-05
0.00310533
-8.01691e-06
0.003104
1.32768e-06
0.00309334
1.06579e-05
0.00307376
1.9582e-05
0.00304614
2.7622e-05
0.00301184
3.42994e-05
0.0029726
3.92393e-05
0.00293035
4.2253e-05
0.00288698
4.33667e-05
0.00284419
4.27948e-05
0.00280331
4.08745e-05
0.00276532
3.79939e-05
0.00273079
3.45295e-05
0.00269998
3.08052e-05
0.00267291
2.70734e-05
0.0026494
2.35121e-05
0.00262916
2.02332e-05
0.00261187
1.72953e-05
0.00259715
1.47177e-05
0.00258466
1.24934e-05
0.00257406
1.05993e-05
0.00256505
9.00372e-06
0.00255738
7.67149e-06
0.00255082
6.56754e-06
0.00254516
5.65861e-06
0.00254024
4.91429e-06
0.00253594
4.30735e-06
0.00253212
3.81381e-06
0.00252871
3.41286e-06
0.00252562
3.08669e-06
0.0025228
2.82032e-06
0.0025202
2.60132e-06
0.00251778
2.41962e-06
0.00251551
2.26716e-06
0.00251338
2.13762e-06
0.00251135
2.02606e-06
0.00250942
1.92866e-06
0.00250758
1.84249e-06
0.00250581
1.76527e-06
0.00250412
1.69531e-06
0.00250249
1.63128e-06
0.00250091
1.57216e-06
0.0024994
1.51703e-06
0.00249793
1.46497e-06
0.00249652
1.41489e-06
0.00249515
1.36544e-06
0.00249384
1.31509e-06
0.00249257
1.26237e-06
0.00249137
1.20621e-06
0.00249022
1.14614e-06
0.00248914
1.08198e-06
0.00248813
1.01241e-06
0.0024872
9.32711e-07
0.00248636
8.31991e-07
0.00248567
6.91772e-07
0.00248518
4.87668e-07
0.00248499
1.95601e-07
0.00248519
-1.9786e-07
0.00248587
-6.83888e-07
0.00248709
-1.22328e-06
0.00248884
-1.74681e-06
0.00249101
-2.16676e-06
0.00249341
-2.3981e-06
0.00249579
-2.38332e-06
0.0024979
-2.11228e-06
0.00249953
-1.62926e-06
0.00250055
-1.02373e-06
0.00250096
-4.07363e-07
0.00250085
1.14907e-07
0.00250038
4.70178e-07
0.00249974
6.31334e-07
0.00249913
6.16321e-07
0.00249865
4.75321e-07
0.00249838
2.71877e-07
0.00249832
6.4835e-08
0.00249842
-1.03865e-07
0.00249863
-2.13644e-07
0.0024989
-2.63016e-07
0.00249916
-2.63357e-07
0.00249939
-2.31731e-07
0.00249958
-1.85017e-07
0.00249971
-1.36361e-07
0.00249981
-9.39248e-08
0.00249987
-6.12897e-08
0.00249991
-3.8698e-08
0.00249993
-2.44799e-08
0.00249995
-1.62558e-08
0.00249996
-1.17495e-08
0.00249997
-9.21015e-09
0.00249998
-7.52383e-09
0.00249998
-6.12835e-09
0.00249999
-4.83745e-09
0.00249999
-3.65881e-09
0.00249999
-2.65605e-09
0.0025
-1.87192e-09
0.0025
-1.3048e-09
0.0025
-9.18185e-10
0.0025
-6.61636e-10
0.0025
-4.88731e-10
0.0025
-3.66045e-10
0.0025
-2.73856e-10
0.0025
-2.0235e-10
0.0025
-1.46969e-10
0.0025
-1.05047e-10
0.0025
-7.41962e-11
0.0025
-5.19716e-11
0.0025
-3.60898e-11
0.0025
-2.4686e-11
0.0025
-1.64052e-11
0.0025
-1.03349e-11
0.0025
-5.8759e-12
0.0025
-2.61802e-12
0.0025
-2.63001e-13
0.0025
1.41936e-12
0.0025
2.60544e-12
0.0025
3.4307e-12
0.0025
3.99356e-12
0.0025
4.36681e-12
0.0025
4.6013e-12
0.0025
4.73553e-12
0.0025
4.79602e-12
0.0025
4.80412e-12
0.0025
4.77378e-12
0.0025
4.71715e-12
0.0025
4.64122e-12
0.0025
4.55305e-12
0.0025
4.4558e-12
0.0025
4.35383e-12
0.0025
4.2482e-12
0.0025
4.14188e-12
0.0025
4.03471e-12
0.0025
3.92911e-12
0.0025
3.82388e-12
0.0025
3.72198e-12
0.0025
3.61985e-12
0.0025
3.52468e-12
0.0025
3.42335e-12
0.0025
3.34407e-12
0.0025
3.22767e-12
0.0025
3.20735e-12
0.0025
2.99347e-12
0.0025
3.22971e-12
2.62755e-12
0.00250286
-5.75193e-06
0.00251151
-1.73648e-05
0.00252631
-2.97165e-05
0.0025478
-4.30775e-05
0.00257654
-5.75335e-05
0.00261293
-7.27044e-05
0.00265696
-8.78139e-05
0.00270781
-0.000101254
0.00276379
-0.000111295
0.00282215
-0.000115987
0.00287958
-0.000114222
0.00293355
-0.000107425
0.00298213
-9.67745e-05
0.00302396
-8.33968e-05
0.00305817
-6.82279e-05
0.00308413
-5.1781e-05
0.00310135
-3.43377e-05
0.00310943
-1.60914e-05
0.00310808
2.66955e-06
0.00309731
2.14291e-05
0.0030775
3.93941e-05
0.00304953
5.55888e-05
0.0030148
6.90332e-05
0.00297508
7.89597e-05
0.00293235
8.49836e-05
0.00288855
8.71634e-05
0.00284541
8.59412e-05
0.00280427
8.20087e-05
0.00276611
7.61565e-05
0.00273149
6.91477e-05
0.00270066
6.16356e-05
0.00267361
5.41262e-05
0.00265015
4.6974e-05
0.00262998
4.03998e-05
0.00261276
3.45173e-05
0.00259811
2.93624e-05
0.00258569
2.49185e-05
0.00257515
2.11373e-05
0.0025662
1.7954e-05
0.00255857
1.52977e-05
0.00255204
1.30975e-05
0.00254642
1.12868e-05
0.00254152
9.8046e-06
0.00253724
8.59638e-06
0.00253344
7.61423e-06
0.00253003
6.81659e-06
0.00252695
6.16789e-06
0.00252413
5.63819e-06
0.00252153
5.20273e-06
0.00251911
4.84141e-06
0.00251684
4.53823e-06
0.0025147
4.28056e-06
0.00251266
4.05863e-06
0.00251073
3.86484e-06
0.00250888
3.69337e-06
0.0025071
3.53975e-06
0.0025054
3.40057e-06
0.00250375
3.27323e-06
0.00250217
3.15571e-06
0.00250064
3.04624e-06
0.00249916
2.94301e-06
0.00249773
2.84387e-06
0.00249635
2.74615e-06
0.00249502
2.64681e-06
0.00249374
2.54287e-06
0.00249252
2.43214e-06
0.00249135
2.31362e-06
0.00249024
2.18686e-06
0.00248921
2.04937e-06
0.00248825
1.89197e-06
0.00248739
1.69349e-06
0.00248666
1.41775e-06
0.00248613
1.0167e-06
0.00248588
4.42503e-07
0.00248602
-3.3214e-07
0.00248662
-1.29092e-06
0.00248776
-2.35754e-06
0.00248941
-3.39588e-06
0.00249147
-4.23246e-06
0.00249377
-4.69815e-06
0.00249607
-4.67752e-06
0.0024981
-4.14865e-06
0.00249967
-3.19774e-06
0.00250065
-2.00128e-06
0.00250102
-7.8084e-07
0.00250088
2.54565e-07
0.0025004
9.58918e-07
0.00249975
1.27707e-06
0.00249912
1.24377e-06
0.00249864
9.58518e-07
0.00249836
5.48048e-07
0.0024983
1.30259e-07
0.0024984
-2.10422e-07
0.00249862
-4.32252e-07
0.00249889
-5.31914e-07
0.00249916
-5.32181e-07
0.0024994
-4.67541e-07
0.00249958
-3.72289e-07
0.00249972
-2.73242e-07
0.00249981
-1.87092e-07
0.00249987
-1.21141e-07
0.00249991
-7.58207e-08
0.00249993
-4.76156e-08
0.00249995
-3.15623e-08
0.00249996
-2.29429e-08
0.00249997
-1.81606e-08
0.00249998
-1.49621e-08
0.00249998
-1.22436e-08
0.00249999
-9.6721e-09
0.00249999
-7.30028e-09
0.00249999
-5.27953e-09
0.0025
-3.70532e-09
0.0025
-2.57455e-09
0.0025
-1.80989e-09
0.0025
-1.30602e-09
0.0025
-9.67443e-10
0.0025
-7.2659e-10
0.0025
-5.44547e-10
0.0025
-4.02587e-10
0.0025
-2.92352e-10
0.0025
-2.08912e-10
0.0025
-1.47626e-10
0.0025
-1.03581e-10
0.0025
-7.21639e-11
0.0025
-4.96128e-11
0.0025
-3.32251e-11
0.0025
-2.11923e-11
0.0025
-1.23429e-11
0.0025
-5.86901e-12
0.0025
-1.18799e-12
0.0025
2.16001e-12
0.0025
4.52168e-12
0.0025
6.17058e-12
0.0025
7.29786e-12
0.0025
8.05206e-12
0.0025
8.52936e-12
0.0025
8.81024e-12
0.0025
8.94279e-12
0.0025
8.97361e-12
0.0025
8.92595e-12
0.0025
8.82826e-12
0.0025
8.68995e-12
0.0025
8.52942e-12
0.0025
8.34848e-12
0.0025
8.16016e-12
0.0025
7.96214e-12
0.0025
7.76471e-12
0.0025
7.56311e-12
0.0025
7.36659e-12
0.0025
7.16826e-12
0.0025
6.97849e-12
0.0025
6.78583e-12
0.0025
6.60875e-12
0.0025
6.41749e-12
0.0025
6.27024e-12
0.0025
6.0509e-12
0.0025
6.01182e-12
0.0025
5.61533e-12
0.0025
6.03856e-12
4.95231e-12
0.00250281
-8.5608e-06
0.0025113
-2.58549e-05
0.00252589
-4.43027e-05
0.00254716
-6.43487e-05
0.00257578
-8.6161e-05
0.00261228
-0.000109202
0.00265679
-0.000132324
0.00270856
-0.000153025
0.00276588
-0.000168609
0.00282574
-0.000175854
0.00288449
-0.000172964
0.00293948
-0.00016242
0.0029888
-0.000146095
0.00303115
-0.000125748
0.00306574
-0.00010281
0.00309198
-7.8025e-05
0.00310941
-5.17698e-05
0.0031176
-2.42842e-05
0.00311624
4.03669e-06
0.00310524
3.24289e-05
0.00308495
5.9677e-05
0.00305628
8.42659e-05
0.00302065
0.000104665
0.00297993
0.000119674
0.00293621
0.000128701
0.00289153
0.000131846
0.00284766
0.000129811
0.00280599
0.000123676
0.00276749
0.000114664
0.00273269
0.000103947
0.00270181
9.25166e-05
0.0026748
8.11357e-05
0.00265144
7.03316e-05
0.00263141
6.04279e-05
0.00261434
5.1587e-05
0.00259985
4.38547e-05
0.00258757
3.71998e-05
0.00257716
3.15451e-05
0.00256832
2.679e-05
0.0025608
2.28258e-05
0.00255435
1.95452e-05
0.00254879
1.68473e-05
0.00254395
1.46404e-05
0.00253971
1.28427e-05
0.00253594
1.13824e-05
0.00253256
1.0197e-05
0.00252949
9.2335e-06
0.00252668
8.44698e-06
0.00252409
7.80048e-06
0.00252166
7.26404e-06
0.00251939
6.81379e-06
0.00251724
6.43105e-06
0.00251519
6.10129e-06
0.00251325
5.81329e-06
0.00251138
5.55843e-06
0.00250959
5.3301e-06
0.00250787
5.12328e-06
0.00250621
4.93417e-06
0.0025046
4.75981e-06
0.00250305
4.59764e-06
0.00250155
4.44505e-06
0.00250009
4.29889e-06
0.00249869
4.15524e-06
0.00249732
4.00953e-06
0.00249601
3.85726e-06
0.00249475
3.69499e-06
0.00249354
3.52106e-06
0.00249239
3.33467e-06
0.00249131
3.1322e-06
0.0024903
2.90045e-06
0.00248938
2.60881e-06
0.0024886
2.20465e-06
0.002488
1.6176e-06
0.00248766
7.76981e-07
0.00248769
-3.585e-07
0.00248816
-1.76658e-06
0.00248914
-3.33672e-06
0.00249062
-4.86968e-06
0.00249249
-6.10981e-06
0.0024946
-6.80645e-06
0.00249671
-6.78708e-06
0.00249858
-6.01689e-06
0.0025
-4.62132e-06
0.00250086
-2.8605e-06
0.00250114
-1.06253e-06
0.00250094
4.61924e-07
0.0025004
1.49502e-06
0.00249972
1.95369e-06
0.00249908
1.88893e-06
0.00249859
1.44877e-06
0.00249831
8.22661e-07
0.00249826
1.8749e-07
0.00249838
-3.29545e-07
0.00249861
-6.65244e-07
0.00249889
-8.14468e-07
0.00249917
-8.11858e-07
0.00249941
-7.10191e-07
0.0024996
-5.622e-07
0.00249974
-4.09259e-07
0.00249983
-2.77115e-07
0.00249989
-1.76901e-07
0.00249992
-1.08991e-07
0.00249994
-6.76e-08
0.00249995
-4.4741e-08
0.00249996
-3.29285e-08
0.00249997
-2.6555e-08
0.00249998
-2.22061e-08
0.00249998
-1.83037e-08
0.00249999
-1.44643e-08
0.00249999
-1.08676e-08
0.00249999
-7.80219e-09
0.0025
-5.43382e-09
0.0025
-3.75481e-09
0.0025
-2.63631e-09
0.0025
-1.90834e-09
0.0025
-1.42125e-09
0.0025
-1.07261e-09
0.0025
-8.06044e-10
0.0025
-5.96184e-10
0.0025
-4.32553e-10
0.0025
-3.08814e-10
0.0025
-2.18285e-10
0.0025
-1.53522e-10
0.0025
-1.07469e-10
0.0025
-7.44291e-11
0.0025
-5.03754e-11
0.0025
-3.26663e-11
0.0025
-1.96111e-11
0.0025
-1.00483e-11
0.0025
-3.12827e-12
0.0025
1.82361e-12
0.0025
5.32311e-12
0.0025
7.77335e-12
0.0025
9.45875e-12
0.0025
1.05954e-11
0.0025
1.13265e-11
0.0025
1.17677e-11
0.0025
1.19918e-11
0.0025
1.20648e-11
0.0025
1.20233e-11
0.0025
1.19068e-11
0.0025
1.17314e-11
0.0025
1.15218e-11
0.0025
1.12829e-11
0.0025
1.10315e-11
0.0025
1.07665e-11
0.0025
1.05006e-11
0.0025
1.02294e-11
0.0025
9.9637e-12
0.0025
9.69615e-12
0.0025
9.43923e-12
0.0025
9.17898e-12
0.0025
8.93917e-12
0.0025
8.68063e-12
0.0025
8.48098e-12
0.0025
8.18533e-12
0.0025
8.127e-12
0.0025
7.60429e-12
0.0025
8.12832e-12
6.73577e-12
0.00250272
-1.12849e-05
0.00251097
-3.40997e-05
0.0025252
-5.85383e-05
0.00254612
-8.52634e-05
0.00257454
-0.000114577
0.00261117
-0.000145833
0.00265638
-0.000177537
0.00270954
-0.000206184
0.00276893
-0.000227999
0.00283113
-0.000238055
0.00289187
-0.000233702
0.0029484
-0.000218957
0.00299883
-0.000196519
0.00304194
-0.000168858
0.00307706
-0.000137936
0.00310372
-0.000104684
0.00312147
-6.95184e-05
0.00312985
-3.26605e-05
0.00312845
5.43481e-06
0.00311711
4.37684e-05
0.00309611
8.06702e-05
0.00306636
0.000114021
0.00302936
0.000141663
0.00298713
0.000161904
0.00294191
0.00017392
0.00289588
0.000177875
0.00285092
0.000174775
0.00280845
0.000166144
0.00276943
0.000153686
0.00273436
0.000139012
0.00270341
0.000123468
0.00267647
0.000108075
0.00265328
9.35285e-05
0.00263346
8.02455e-05
0.00261662
6.84264e-05
0.00260236
5.81175e-05
0.00259029
4.92652e-05
0.00258008
4.17575e-05
0.00257141
3.54543e-05
0.00256403
3.02066e-05
0.00255771
2.58689e-05
0.00255225
2.23055e-05
0.0025475
1.93937e-05
0.00254332
1.70241e-05
0.0025396
1.51009e-05
0.00253625
1.35414e-05
0.00253321
1.22745e-05
0.00253042
1.12409e-05
0.00252783
1.03914e-05
0.00252541
9.68647e-06
0.00252313
9.09463e-06
0.00252097
8.59132e-06
0.00251891
8.15749e-06
0.00251694
7.77849e-06
0.00251506
7.44304e-06
0.00251325
7.14254e-06
0.0025115
6.87044e-06
0.00250981
6.62183e-06
0.00250818
6.39294e-06
0.0025066
6.18053e-06
0.00250506
5.98128e-06
0.00250357
5.79115e-06
0.00250212
5.60501e-06
0.00250071
5.41681e-06
0.00249935
5.22045e-06
0.00249803
5.01114e-06
0.00249677
4.78634e-06
0.00249556
4.54474e-06
0.00249441
4.28162e-06
0.00249333
3.98025e-06
0.00249233
3.6017e-06
0.00249146
3.07859e-06
0.00249076
2.3202e-06
0.0024903
1.23452e-06
0.00249017
-2.33434e-07
0.00249046
-2.05708e-06
0.00249122
-4.09532e-06
0.00249244
-6.09087e-06
0.00249405
-7.71136e-06
0.00249587
-8.62893e-06
0.0024977
-8.61611e-06
0.00249931
-7.62463e-06
0.0025005
-5.8162e-06
0.00250117
-3.53e-06
0.0025013
-1.19574e-06
0.00250099
7.78483e-07
0.00250038
2.1057e-06
0.00249965
2.67609e-06
0.00249899
2.55677e-06
0.00249849
1.94363e-06
0.00249823
1.08815e-06
0.00249819
2.25991e-07
0.00249833
-4.72835e-07
0.00249859
-9.23618e-07
0.00249889
-1.11975e-06
0.00249919
-1.10871e-06
0.00249944
-9.62997e-07
0.00249964
-7.55367e-07
0.00249977
-5.43036e-07
0.00249985
-3.61516e-07
0.0024999
-2.25815e-07
0.00249993
-1.35783e-07
0.00249995
-8.26419e-08
0.00249996
-5.46807e-08
0.00249996
-4.1146e-08
0.00249997
-3.41858e-08
0.00249998
-2.92169e-08
0.00249998
-2.43117e-08
0.00249999
-1.91977e-08
0.00249999
-1.43131e-08
0.00249999
-1.01581e-08
0.0025
-6.99144e-09
0.0025
-4.7922e-09
0.0025
-3.36066e-09
0.0025
-2.44626e-09
0.0025
-1.83752e-09
0.0025
-1.39671e-09
0.0025
-1.05327e-09
0.0025
-7.79007e-10
0.0025
-5.64036e-10
0.0025
-4.01855e-10
0.0025
-2.83983e-10
0.0025
-2.00264e-10
0.0025
-1.41006e-10
0.0025
-9.85086e-11
0.0025
-6.74737e-11
0.0025
-4.45293e-11
0.0025
-2.75589e-11
0.0025
-1.51098e-11
0.0025
-6.09745e-12
0.0025
3.52789e-13
0.0025
4.91852e-12
0.0025
8.12582e-12
0.0025
1.03467e-11
0.0025
1.18586e-11
0.0025
1.28475e-11
0.0025
1.34604e-11
0.0025
1.3793e-11
0.0025
1.39289e-11
0.0025
1.39172e-11
0.0025
1.38069e-11
0.0025
1.36211e-11
0.0025
1.33893e-11
0.0025
1.31202e-11
0.0025
1.28331e-11
0.0025
1.25288e-11
0.0025
1.22215e-11
0.0025
1.19075e-11
0.0025
1.15989e-11
0.0025
1.12881e-11
0.0025
1.0989e-11
0.0025
1.06862e-11
0.0025
1.04069e-11
0.0025
1.01059e-11
0.0025
9.87287e-12
0.0025
9.53027e-12
0.0025
9.4536e-12
0.0025
8.8663e-12
0.0025
9.40215e-12
7.89418e-12
0.0025026
-1.38885e-05
0.0025105
-4.19944e-05
0.00252423
-7.22654e-05
0.00254461
-0.000105643
0.00257266
-0.000142637
0.0026094
-0.000182566
0.0026555
-0.000223641
0.00271054
-0.000261221
0.00277283
-0.000290291
0.0028383
-0.000303521
0.00290176
-0.000297167
0.00296036
-0.000277551
0.00301221
-0.000248375
0.00305629
-0.000212934
0.0030921
-0.000173749
0.0031193
-0.000131883
0.00313749
-8.77045e-05
0.00314615
-4.13186e-05
0.00314475
6.83172e-06
0.00313298
5.55331e-05
0.00311104
0.000102612
0.00307982
0.000145248
0.00304094
0.000180541
0.00299662
0.00020622
0.00294934
0.000221199
0.00290148
0.000225737
0.00285504
0.000221215
0.00281151
0.000209679
0.00277181
0.00019338
0.00273642
0.000174409
0.00270539
0.000154488
0.00267857
0.000134899
0.00265561
0.000116493
0.00263608
9.9769e-05
0.00261956
8.49492e-05
0.00260561
7.2068e-05
0.00259384
6.10389e-05
0.00258389
5.17077e-05
0.00257545
4.38892e-05
0.00256827
3.7391e-05
0.00256211
3.20278e-05
0.00255678
2.76281e-05
0.00255214
2.40375e-05
0.00254805
2.11194e-05
0.00254439
1.8754e-05
0.0025411
1.6838e-05
0.00253809
1.5283e-05
0.00253531
1.40151e-05
0.00253273
1.29732e-05
0.00253031
1.21085e-05
0.00252802
1.13822e-05
0.00252585
1.07641e-05
0.00252378
1.02311e-05
0.00252179
9.76525e-06
0.00251988
9.35284e-06
0.00251804
8.98341e-06
0.00251626
8.64904e-06
0.00251454
8.34385e-06
0.00251287
8.06338e-06
0.00251124
7.80388e-06
0.00250966
7.56147e-06
0.00250812
7.33133e-06
0.00250662
7.10721e-06
0.00250516
6.88159e-06
0.00250373
6.6467e-06
0.00250234
6.39625e-06
0.002501
6.12659e-06
0.00249971
5.83567e-06
0.00249848
5.51768e-06
0.0024973
5.15289e-06
0.00249621
4.69536e-06
0.00249522
4.06509e-06
0.00249439
3.15356e-06
0.00249378
1.84962e-06
0.00249346
8.53472e-08
0.00249351
-2.10996e-06
0.00249398
-4.56898e-06
0.00249488
-6.98289e-06
0.00249611
-8.94991e-06
0.00249756
-1.00713e-05
0.00249901
-1.00682e-05
0.00250026
-8.87902e-06
0.00250115
-6.6984e-06
0.00250155
-3.93875e-06
0.00250148
-1.12466e-06
0.00250102
1.24439e-06
0.00250031
2.81659e-06
0.00249952
3.45745e-06
0.00249883
3.25051e-06
0.00249834
2.43879e-06
0.00249809
1.33504e-06
0.00249808
2.3322e-07
0.00249826
-6.53872e-07
0.00249856
-1.22015e-06
0.0024989
-1.45824e-06
0.00249922
-1.42996e-06
0.00249949
-1.22968e-06
0.00249968
-9.52401e-07
0.00249981
-6.7295e-07
0.00249989
-4.37493e-07
0.00249993
-2.64865e-07
0.00249995
-1.53632e-07
0.00249995
-9.09461e-08
0.00249996
-6.03621e-08
0.00249997
-4.71701e-08
0.00249997
-4.09768e-08
0.00249998
-3.60547e-08
0.00249999
-3.03304e-08
0.00249999
-2.38831e-08
0.00249999
-1.75957e-08
0.0025
-1.22794e-08
0.0025
-8.30959e-09
0.0025
-5.63307e-09
0.0025
-3.9484e-09
0.0025
-2.90086e-09
0.0025
-2.20687e-09
0.0025
-1.69384e-09
0.0025
-1.28244e-09
0.0025
-9.47459e-10
0.0025
-6.83356e-10
0.0025
-4.85043e-10
0.0025
-3.42381e-10
0.0025
-2.42121e-10
0.0025
-1.71598e-10
0.0025
-1.21016e-10
0.0025
-8.38934e-11
0.0025
-5.62817e-11
0.0025
-3.5773e-11
0.0025
-2.07075e-11
0.0025
-9.8047e-12
0.0025
-2.00681e-12
0.0025
3.51849e-12
0.0025
7.41221e-12
0.0025
1.01264e-11
0.0025
1.19916e-11
0.0025
1.32312e-11
0.0025
1.40182e-11
0.0025
1.4469e-11
0.0025
1.46821e-11
0.0025
1.47184e-11
0.0025
1.4635e-11
0.0025
1.44613e-11
0.0025
1.42309e-11
0.0025
1.39559e-11
0.0025
1.36575e-11
0.0025
1.33387e-11
0.0025
1.30144e-11
0.0025
1.26821e-11
0.0025
1.23542e-11
0.0025
1.20239e-11
0.0025
1.17054e-11
0.0025
1.13828e-11
0.0025
1.10852e-11
0.0025
1.07644e-11
0.0025
1.05151e-11
0.0025
1.01526e-11
0.0025
1.00588e-11
0.0025
9.46092e-12
0.0025
9.9388e-12
8.47223e-12
0.00250244
-1.63292e-05
0.00250986
-4.94153e-05
0.00252289
-8.52909e-05
0.0025425
-0.000125256
0.00256999
-0.000170123
0.00260672
-0.000219299
0.00265386
-0.000270782
0.00271128
-0.000318644
0.00277744
-0.000356443
0.00284725
-0.000373337
0.00291423
-0.000364144
0.00297539
-0.000338711
0.00302897
-0.000301962
0.00307418
-0.00025814
0.00311079
-0.000210362
0.00313864
-0.000159728
0.00315738
-0.000106441
0.00316641
-5.03561e-05
0.00316506
8.18982e-06
0.00315279
6.77994e-05
0.00312967
0.000125734
0.00309657
0.000178342
0.00305529
0.000221827
0.00300829
0.000253215
0.00295837
0.000271118
0.00290818
0.000275934
0.00285988
0.000269515
0.00281502
0.000254538
0.00277451
0.000233886
0.00273873
0.000210187
0.00270766
0.00018556
0.00268101
0.000161545
0.00265837
0.000139141
0.00263923
0.000118905
0.00262312
0.000101062
0.00260957
8.56192e-05
0.00259816
7.24429e-05
0.00258854
6.13273e-05
0.00258039
5.20362e-05
0.00257346
4.433e-05
0.0025675
3.79813e-05
0.00256235
3.27818e-05
0.00255784
2.85455e-05
0.00255385
2.51081e-05
0.00255028
2.23261e-05
0.00254704
2.00758e-05
0.00254407
1.82516e-05
0.00254132
1.67651e-05
0.00253875
1.5544e-05
0.00253633
1.45301e-05
0.00253404
1.3678e-05
0.00253185
1.29523e-05
0.00252975
1.23259e-05
0.00252774
1.17782e-05
0.0025258
1.12932e-05
0.00252392
1.08587e-05
0.00252211
1.04657e-05
0.00252034
1.01074e-05
0.00251863
9.77886e-06
0.00251696
9.47605e-06
0.00251532
9.19468e-06
0.00251372
8.92933e-06
0.00251216
8.67272e-06
0.00251062
8.41586e-06
0.00250912
8.14929e-06
0.00250765
7.86498e-06
0.00250622
7.55793e-06
0.00250483
7.22509e-06
0.00250349
6.85955e-06
0.0025022
6.43912e-06
0.00250099
5.91228e-06
0.00249986
5.18886e-06
0.00249887
4.14565e-06
0.00249807
2.65525e-06
0.00249751
6.38122e-07
0.00249728
-1.87515e-06
0.00249741
-4.69582e-06
0.00249789
-7.47132e-06
0.00249868
-9.73966e-06
0.00249965
-1.10396e-05
0.00250063
-1.10465e-05
0.00250144
-9.68648e-06
0.00250192
-7.18329e-06
0.002502
-4.0155e-06
0.00250167
-7.93881e-07
0.00250101
1.89885e-06
0.00250018
3.65196e-06
0.00249933
4.30937e-06
0.00249861
3.97162e-06
0.00249812
2.92812e-06
0.0024979
1.55187e-06
0.00249794
1.94591e-07
0.00249817
-8.88211e-07
0.00249852
-1.56931e-06
0.00249891
-1.84162e-06
0.00249926
-1.78345e-06
0.00249954
-1.51398e-06
0.00249974
-1.15351e-06
0.00249987
-7.96758e-07
0.00249993
-5.01635e-07
0.00249996
-2.90588e-07
0.00249996
-1.59757e-07
0.00249996
-9.07066e-08
0.00249996
-6.08929e-08
0.00249997
-5.07563e-08
0.00249997
-4.70199e-08
0.00249998
-4.29001e-08
0.00249999
-3.64878e-08
0.00249999
-2.85536e-08
0.00249999
-2.0673e-08
0.0025
-1.4089e-08
0.0025
-9.31252e-09
0.0025
-6.22192e-09
0.0025
-4.36742e-09
0.0025
-3.25752e-09
0.0025
-2.52402e-09
0.0025
-1.96179e-09
0.0025
-1.49132e-09
0.0025
-1.09851e-09
0.0025
-7.87159e-10
0.0025
-5.55339e-10
0.0025
-3.91098e-10
0.0025
-2.77386e-10
0.0025
-1.98049e-10
0.0025
-1.41069e-10
0.0025
-9.89185e-11
0.0025
-6.72995e-11
0.0025
-4.36928e-11
0.0025
-2.63356e-11
0.0025
-1.37953e-11
0.0025
-4.84399e-12
0.0025
1.49896e-12
0.0025
5.98172e-12
0.0025
9.12642e-12
0.0025
1.13069e-11
0.0025
1.27759e-11
0.0025
1.37277e-11
0.0025
1.42957e-11
0.0025
1.45909e-11
0.0025
1.46847e-11
0.0025
1.46409e-11
0.0025
1.44943e-11
0.0025
1.42817e-11
0.0025
1.40183e-11
0.0025
1.37268e-11
0.0025
1.34118e-11
0.0025
1.3089e-11
0.0025
1.27568e-11
0.0025
1.2428e-11
0.0025
1.20962e-11
0.0025
1.17757e-11
0.0025
1.14511e-11
0.0025
1.11513e-11
0.0025
1.08283e-11
0.0025
1.0576e-11
0.0025
1.02144e-11
0.0025
1.01053e-11
0.0025
9.53526e-12
0.0025
9.91575e-12
8.59006e-12
0.00250223
-1.85575e-05
0.00250903
-5.62152e-05
0.00252111
-9.73775e-05
0.00253966
-0.0001438
0.00256626
-0.000196723
0.00260279
-0.000255826
0.00265103
-0.000319024
0.00271137
-0.000378984
0.00278254
-0.000427612
0.002858
-0.000448802
0.00292934
-0.000435485
0.00299355
-0.000402924
0.0030491
-0.000357505
0.00309553
-0.000304568
0.003133
-0.000247842
0.0031616
-0.000188324
0.00318105
-0.000125886
0.00319064
-5.99501e-05
0.00318944
9.39272e-06
0.00317663
8.06036e-05
0.00315208
0.000150283
0.00311666
0.000213769
0.00307234
0.000266146
0.00302197
0.000303582
0.00296875
0.000324335
0.00291568
0.000329012
0.00286512
0.000320072
0.00281869
0.000300964
0.00277726
0.000275317
0.00274109
0.000246358
0.00271002
0.000216628
0.00268365
0.000187922
0.00266143
0.000161362
0.00264279
0.000137539
0.0026272
0.000116658
0.00261414
9.86736e-05
0.00260319
8.33918e-05
0.00259398
7.05434e-05
0.00258618
5.9834e-05
0.00257954
5.09725e-05
0.00257383
4.36874e-05
0.00256888
3.77328e-05
0.00256454
3.28905e-05
0.00256067
2.8969e-05
0.0025572
2.58012e-05
0.00255403
2.32431e-05
0.00255111
2.11722e-05
0.00254839
1.94861e-05
0.00254583
1.81011e-05
0.00254341
1.69507e-05
0.00254111
1.59829e-05
0.0025389
1.51578e-05
0.00253678
1.4445e-05
0.00253474
1.38211e-05
0.00253277
1.32685e-05
0.00253085
1.27735e-05
0.00252899
1.23259e-05
0.00252718
1.19185e-05
0.00252541
1.15459e-05
0.00252368
1.12041e-05
0.00252199
1.08887e-05
0.00252033
1.05937e-05
0.00251869
1.0311e-05
0.00251707
1.00302e-05
0.00251548
9.74001e-06
0.00251392
9.43049e-06
0.00251238
9.09499e-06
0.00251088
8.7292e-06
0.00250941
8.32504e-06
0.00250799
7.8584e-06
0.00250663
7.27371e-06
0.00250534
6.47328e-06
0.00250417
5.32281e-06
0.00250314
3.68217e-06
0.00250232
1.46227e-06
0.00250175
-1.306e-06
0.00250147
-4.41754e-06
0.00250148
-7.48491e-06
0.00250174
-9.99713e-06
0.00250214
-1.14413e-05
0.00250255
-1.14546e-05
0.00250282
-9.95292e-06
0.00250282
-7.18563e-06
0.00250249
-3.6888e-06
0.00250185
-1.48415e-07
0.00250097
2.78001e-06
0.00249998
4.6346e-06
0.00249905
5.24173e-06
0.0024983
4.71979e-06
0.00249783
3.40358e-06
0.00249765
1.72514e-06
0.00249775
9.34271e-08
0.00249806
-1.19337e-06
0.00249848
-1.98714e-06
0.00249892
-2.28252e-06
0.00249931
-2.17722e-06
0.00249962
-1.8192e-06
0.00249982
-1.35799e-06
0.00249994
-9.11172e-07
0.00249998
-5.49606e-07
0.00249999
-2.9889e-07
0.00249998
-1.51088e-07
0.00249997
-8.01205e-08
0.00249997
-5.556e-08
0.00249997
-5.18981e-08
0.00249997
-5.2617e-08
0.00249998
-5.00727e-08
0.00249999
-4.2978e-08
0.00249999
-3.32554e-08
0.0025
-2.34893e-08
0.0025
-1.5492e-08
0.0025
-9.91272e-09
0.0025
-6.50022e-09
0.0025
-4.5888e-09
0.0025
-3.50714e-09
0.0025
-2.7887e-09
0.0025
-2.20166e-09
0.0025
-1.6792e-09
0.0025
-1.2296e-09
0.0025
-8.72126e-10
0.0025
-6.09682e-10
0.0025
-4.27822e-10
0.0025
-3.04498e-10
0.0025
-2.19319e-10
0.0025
-1.57901e-10
0.0025
-1.11903e-10
0.0025
-7.69864e-11
0.0025
-5.07594e-11
0.0025
-3.14778e-11
0.0025
-1.75975e-11
0.0025
-7.72802e-12
0.0025
-7.41982e-13
0.0025
4.20776e-12
0.0025
7.70154e-12
0.0025
1.01441e-11
0.0025
1.18087e-11
0.0025
1.29042e-11
0.0025
1.35777e-11
0.0025
1.39502e-11
0.0025
1.4102e-11
0.0025
1.41018e-11
0.0025
1.39894e-11
0.0025
1.38035e-11
0.0025
1.35619e-11
0.0025
1.32882e-11
0.0025
1.29887e-11
0.0025
1.2679e-11
0.0025
1.23591e-11
0.0025
1.20412e-11
0.0025
1.172e-11
0.0025
1.14092e-11
0.0025
1.10942e-11
0.0025
1.08031e-11
0.0025
1.04899e-11
0.0025
1.02431e-11
0.0025
9.89653e-12
0.0025
9.77455e-12
0.0025
9.25438e-12
0.0025
9.52626e-12
8.38526e-12
0.00250196
-2.05152e-05
0.00250796
-6.22205e-05
0.00251882
-0.000108237
0.00253591
-0.00016089
0.00256119
-0.000222
0.00259716
-0.000291794
0.00264644
-0.00036831
0.00271024
-0.000442783
0.00278787
-0.000505236
0.00287058
-0.000531518
0.00294721
-0.000512114
0.00301493
-0.000470637
0.00307258
-0.000415156
0.00312024
-0.000352233
0.00315858
-0.000286182
0.00318797
-0.000217711
0.00320824
-0.000146153
0.00321854
-7.0256e-05
0.00321762
1.03098e-05
0.00320429
9.39356e-05
0.00317812
0.000176456
0.00313993
0.000251961
0.00309194
0.000314133
0.00303747
0.000358049
0.00298026
0.00038155
0.00292372
0.000385549
0.0028705
0.000373292
0.00282227
0.000349191
0.00277983
0.000317759
0.00274329
0.000282903
0.00271231
0.000247607
0.00268632
0.000213908
0.00266466
0.000183024
0.00264666
0.000155542
0.0026317
0.000131617
0.00261924
0.000111127
0.00260884
9.3796e-05
0.0026001
7.92804e-05
0.00259272
6.72194e-05
0.00258642
5.72663e-05
0.00258101
4.91033e-05
0.00257629
4.24461e-05
0.00257214
3.70447e-05
0.00256843
3.26802e-05
0.00256507
2.91624e-05
0.00256198
2.63275e-05
0.00255912
2.40361e-05
0.00255643
2.2172e-05
0.00255389
2.0641e-05
0.00255148
1.93684e-05
0.00254916
1.82965e-05
0.00254694
1.73813e-05
0.00254479
1.65897e-05
0.00254272
1.58962e-05
0.00254071
1.52817e-05
0.00253875
1.47311e-05
0.00253684
1.42336e-05
0.00253498
1.37815e-05
0.00253315
1.33695e-05
0.00253136
1.29936e-05
0.0025296
1.26496e-05
0.00252787
1.23313e-05
0.00252615
1.20299e-05
0.00252444
1.17335e-05
0.00252275
1.14289e-05
0.00252108
1.11041e-05
0.00251943
1.07506e-05
0.00251779
1.03625e-05
0.00251619
9.93042e-06
0.00251462
9.42882e-06
0.00251309
8.79955e-06
0.00251162
7.94025e-06
0.00251024
6.70943e-06
0.00250896
4.95848e-06
0.00250783
2.59165e-06
0.00250689
-3.60167e-07
0.00250615
-3.68046e-06
0.00250562
-6.95675e-06
0.00250527
-9.64221e-06
0.00250501
-1.11859e-05
0.00250475
-1.11967e-05
0.00250438
-9.58437e-06
0.00250382
-6.62021e-06
0.00250302
-2.88767e-06
0.002502
8.6551e-07
0.00250086
3.92417e-06
0.00249971
5.78502e-06
0.00249869
6.26198e-06
0.00249792
5.49221e-06
0.00249746
3.85468e-06
0.00249735
1.83898e-06
0.00249753
-8.92035e-08
0.00249793
-1.58877e-06
0.00249843
-2.49097e-06
0.00249894
-2.79403e-06
0.00249939
-2.6189e-06
0.00249971
-2.1475e-06
0.00249992
-1.56367e-06
0.00250002
-1.01141e-06
0.00250005
-5.75887e-07
0.00250003
-2.84959e-07
0.00250001
-1.24307e-07
0.00249998
-5.74833e-08
0.00249997
-4.39339e-08
0.00249997
-5.09059e-08
0.00249998
-5.83211e-08
0.00249998
-5.80405e-08
0.00249999
-5.005e-08
0.0025
-3.80304e-08
0.0025
-2.59607e-08
0.0025
-1.63662e-08
0.0025
-1.0008e-08
0.0025
-6.40724e-09
0.0025
-4.58896e-09
0.0025
-3.64814e-09
0.0025
-3.00678e-09
0.0025
-2.4181e-09
0.0025
-1.84686e-09
0.0025
-1.33845e-09
0.0025
-9.34833e-10
0.0025
-6.44986e-10
0.0025
-4.504e-10
0.0025
-3.22168e-10
0.0025
-2.34651e-10
0.0025
-1.70984e-10
0.0025
-1.22371e-10
0.0025
-8.48692e-11
0.0025
-5.65089e-11
0.0025
-3.56998e-11
0.0025
-2.0817e-11
0.0025
-1.03017e-11
0.0025
-2.87597e-12
0.0025
2.3984e-12
0.0025
6.14516e-12
0.0025
8.78521e-12
0.0025
1.06013e-11
0.0025
1.18101e-11
0.0025
1.25686e-11
0.0025
1.30055e-11
0.0025
1.32081e-11
0.0025
1.32489e-11
0.0025
1.31709e-11
0.0025
1.30141e-11
0.0025
1.27985e-11
0.0025
1.25477e-11
0.0025
1.22696e-11
0.0025
1.19795e-11
0.0025
1.16785e-11
0.0025
1.13783e-11
0.0025
1.10745e-11
0.0025
1.07801e-11
0.0025
1.04818e-11
0.0025
1.02057e-11
0.0025
9.90944e-12
0.0025
9.67322e-12
0.0025
9.3497e-12
0.0025
9.21799e-12
0.0025
8.75663e-12
0.0025
8.9283e-12
7.97559e-12
0.00250162
-2.21354e-05
0.00250663
-6.72296e-05
0.00251591
-0.000117521
0.00253106
-0.000176036
0.00255442
-0.000245356
0.00258927
-0.000326653
0.00263936
-0.000418392
0.00270716
-0.000510591
0.00279309
-0.000591158
0.00288508
-0.000623514
0.00296801
-0.00059504
0.00303959
-0.000542216
0.00309934
-0.000474904
0.00314809
-0.000400987
0.00318718
-0.000325276
0.0032174
-0.000247922
0.00323869
-0.000167447
0.00325003
-8.15917e-05
0.00324967
1.06652e-05
0.00323587
0.000107735
0.00320782
0.000204503
0.00316629
0.000293492
0.00311384
0.000366587
0.0030544
0.000417493
0.00299238
0.000443564
0.00293177
0.000446161
0.00287549
0.000429568
0.00282528
0.000399403
0.0027818
0.000361237
0.00274497
0.000319737
0.00271422
0.000278352
0.0026888
0.000239335
0.00266787
0.000203955
0.00265065
0.000172757
0.00263647
0.000145801
0.00262473
0.00012286
0.00261497
0.000103556
0.0026068
8.7456e-05
0.00259989
7.41247e-05
0.002594
6.31557e-05
0.00258892
5.41832e-05
0.00258449
4.68845e-05
0.00258055
4.09777e-05
0.00257702
3.62174e-05
0.00257379
3.23908e-05
0.0025708
2.93144e-05
0.002568
2.68323e-05
0.00256536
2.48151e-05
0.00256284
2.31582e-05
0.00256043
2.17796e-05
0.00255811
2.06164e-05
0.00255587
1.96217e-05
0.0025537
1.87598e-05