/*--------------------------------*- C++ -*----------------------------------*\
  =========                 |
  \\      /  F ield         | OpenFOAM: The Open Source CFD Toolbox
   \\    /   O peration     | Website:  https://openfoam.org
    \\  /    A nd           | Version:  11
     \\/     M anipulation  |
\*---------------------------------------------------------------------------*/
FoamFile
{
    format      ascii;
    class       surfaceScalarField;
    location    "6.25434";
    object      phi_0;
}
// * * * * * * * * * * * * * * * * * * * * * * * * * * * * * * * * * * * * * //

dimensions      [0 3 -1 0 0 0 0];

internalField   nonuniform List<scalar> 
14638
(
0.00250288
-2.87919e-06
0.00251157
-8.68833e-06
0.00252642
-1.48563e-05
0.00254793
-2.15068e-05
0.00257661
-2.86748e-05
0.00261277
-3.61629e-05
0.00265635
-4.35797e-05
0.00270649
-5.0142e-05
0.0027615
-5.50101e-05
0.00281878
-5.72806e-05
0.00287523
-5.64499e-05
0.00292845
-5.32169e-05
0.00297667
-4.82224e-05
0.00301879
-4.21202e-05
0.0030543
-3.55092e-05
0.0030831
-2.88041e-05
0.00310539
-2.22884e-05
0.00312151
-1.61215e-05
0.00313187
-1.03526e-05
0.0031368
-4.92897e-06
0.00313651
2.86332e-07
0.00313103
5.47877e-06
0.00312021
1.08162e-05
0.00310384
1.63695e-05
0.0030818
2.20427e-05
0.00305425
2.75524e-05
0.00302177
3.24768e-05
0.00298541
3.63627e-05
0.00294656
3.88472e-05
0.00290681
3.97489e-05
0.00286771
3.90988e-05
0.0028306
3.71166e-05
0.00279645
3.41483e-05
0.00276586
3.05929e-05
0.00273902
2.68357e-05
0.00271582
2.31994e-05
0.00269591
1.99164e-05
0.00267878
1.71205e-05
0.00266393
1.48544e-05
0.00265084
1.30882e-05
0.0026391
1.17427e-05
0.00262839
1.07142e-05
0.00261849
9.89542e-06
0.0026093
9.19186e-06
0.00260077
8.5311e-06
0.0025929
7.86669e-06
0.00258572
7.17714e-06
0.00257926
6.46187e-06
0.00257353
5.73537e-06
0.0025685
5.02107e-06
0.00256416
4.34545e-06
0.00256043
3.73335e-06
0.00255722
3.20437e-06
0.00255445
2.77076e-06
0.00255201
2.43657e-06
0.00254982
2.19801e-06
0.00254777
2.04466e-06
0.00254581
1.96131e-06
0.00254388
1.93011e-06
0.00254195
1.93267e-06
0.00254
1.95192e-06
0.00253802
1.97346e-06
0.00253604
1.98645e-06
0.00253405
1.98392e-06
0.00253209
1.96266e-06
0.00253017
1.92264e-06
0.0025283
1.86635e-06
0.0025265
1.79795e-06
0.00252478
1.72241e-06
0.00252313
1.64483e-06
0.00252156
1.56984e-06
0.00252006
1.50118e-06
0.00251862
1.44149e-06
0.00251723
1.3922e-06
0.00251588
1.35362e-06
0.00251455
1.32505e-06
0.00251325
1.30504e-06
0.00251195
1.29167e-06
0.00251067
1.2828e-06
0.0025094
1.27634e-06
0.00250813
1.27048e-06
0.00250686
1.26377e-06
0.00250561
1.25523e-06
0.00250436
1.24434e-06
0.00250313
1.23095e-06
0.00250192
1.2152e-06
0.00250072
1.19742e-06
0.00249954
1.178e-06
0.00249838
1.1573e-06
0.00249725
1.13562e-06
0.00249613
1.1131e-06
0.00249504
1.0897e-06
0.00249398
1.06515e-06
0.00249294
1.03898e-06
0.00249193
1.01054e-06
0.00249095
9.7912e-07
0.00249001
9.44033e-07
0.0024891
9.04655e-07
0.00248824
8.60211e-07
0.00248743
8.09215e-07
0.00248668
7.48521e-07
0.00248601
6.72225e-07
0.00248544
5.70888e-07
0.00248501
4.31775e-07
0.00248477
2.4078e-07
0.00248478
-1.37222e-08
0.00248512
-3.3557e-07
0.00248583
-7.15383e-07
0.00248696
-1.12697e-06
0.00248849
-1.52758e-06
0.00249035
-1.86318e-06
0.00249243
-2.07858e-06
0.00249456
-2.13014e-06
0.00249656
-1.99794e-06
0.00249825
-1.6933e-06
0.00249951
-1.25901e-06
0.00250027
-7.61495e-07
0.00250055
-2.76815e-07
0.00250042
1.25849e-07
0.00250002
3.98428e-07
0.0024995
5.22255e-07
0.00249899
5.08569e-07
0.0024986
3.91901e-07
0.00249838
2.18952e-07
0.00249835
3.65204e-08
0.00249846
-1.1829e-07
0.00249869
-2.23543e-07
0.00249896
-2.73192e-07
0.00249923
-2.73985e-07
0.00249947
-2.40282e-07
0.00249966
-1.88643e-07
0.0024998
-1.3358e-07
0.00249988
-8.51556e-08
0.00249993
-4.84339e-08
0.00249995
-2.42645e-08
0.00249997
-1.07486e-08
0.00249997
-4.76506e-09
0.00249997
-3.16354e-09
0.00249998
-3.46533e-09
0.00249998
-4.10397e-09
0.00249999
-4.34204e-09
0.00249999
-4.02613e-09
0.00249999
-3.31374e-09
0.0025
-2.45464e-09
0.0025
-1.65794e-09
0.0025
-1.03979e-09
0.0025
-6.26739e-10
0.0025
-3.86509e-10
0.0025
-2.63113e-10
0.0025
-2.03131e-10
0.0025
-1.68881e-10
0.0025
-1.40537e-10
0.0025
-1.11734e-10
0.0025
-8.33412e-11
0.0025
-5.82438e-11
0.0025
-3.85502e-11
0.0025
-2.45292e-11
0.0025
-1.54736e-11
0.0025
-9.64341e-12
-5.07798e-12
0.00250285
-5.73195e-06
0.00251147
-1.73033e-05
0.00252622
-2.96078e-05
0.00254763
-4.29131e-05
0.00257625
-5.73019e-05
0.00261248
-7.23917e-05
0.00265631
-8.74053e-05
0.0027069
-0.000100739
0.00276257
-0.000110672
0.00282057
-0.000115286
0.00287764
-0.000113522
0.00293133
-0.000106903
0.00297986
-9.67514e-05
0.00302214
-8.4403e-05
0.0030577
-7.10717e-05
0.00308648
-5.75855e-05
0.00310871
-4.45092e-05
0.00312474
-3.21581e-05
0.00313502
-2.06283e-05
0.0031399
-9.80932e-06
0.0031396
5.82322e-07
0.00313415
1.09328e-05
0.00312337
2.15962e-05
0.00310701
3.2729e-05
0.00308491
4.41434e-05
0.0030572
5.52613e-05
0.00302446
6.52157e-05
0.00298775
7.30732e-05
0.00294851
7.80877e-05
0.00290837
7.98876e-05
0.00286893
7.85398e-05
0.00283155
7.44966e-05
0.00279723
6.84667e-05
0.00276656
6.12634e-05
0.00273973
5.36693e-05
0.00271659
4.63372e-05
0.00269677
3.97343e-05
0.00267976
3.4127e-05
0.00266502
2.95973e-05
0.00265203
2.60798e-05
0.00264036
2.34111e-05
0.0026297
2.13784e-05
0.00261983
1.97635e-05
0.00261065
1.83747e-05
0.00260211
1.70659e-05
0.00259423
1.57441e-05
0.00258704
1.43669e-05
0.00258057
1.29344e-05
0.00257483
1.14768e-05
0.00256981
1.00422e-05
0.00256547
8.68501e-06
0.00256175
7.45561e-06
0.00255856
6.3939e-06
0.0025558
5.52471e-06
0.00255338
4.85621e-06
0.0025512
4.38064e-06
0.00254917
4.07679e-06
0.00254722
3.91381e-06
0.00254529
3.85551e-06
0.00254336
3.86466e-06
0.00254141
3.90673e-06
0.00253943
3.95266e-06
0.00253743
3.98066e-06
0.00253544
3.97677e-06
0.00253347
3.9346e-06
0.00253154
3.85427e-06
0.00252966
3.74094e-06
0.00252786
3.60309e-06
0.00252613
3.45087e-06
0.00252448
3.29461e-06
0.0025229
3.14369e-06
0.0025214
3.00569e-06
0.00251995
2.88591e-06
0.00251856
2.78725e-06
0.0025172
2.71026e-06
0.00251587
2.65352e-06
0.00251457
2.61407e-06
0.00251327
2.58798e-06
0.00251198
2.57094e-06
0.0025107
2.55871e-06
0.00250942
2.54761e-06
0.00250815
2.53473e-06
0.00250689
2.51813e-06
0.00250564
2.49674e-06
0.0025044
2.4703e-06
0.00250317
2.43913e-06
0.00250197
2.4039e-06
0.00250078
2.36541e-06
0.00249961
2.32443e-06
0.00249847
2.28156e-06
0.00249734
2.2371e-06
0.00249624
2.19096e-06
0.00249516
2.14266e-06
0.00249411
2.09125e-06
0.00249309
2.03545e-06
0.00249209
1.9738e-06
0.00249113
1.90491e-06
0.00249021
1.8275e-06
0.00248933
1.73999e-06
0.0024885
1.63945e-06
0.00248773
1.51976e-06
0.00248703
1.36941e-06
0.00248643
1.16998e-06
0.00248596
8.96477e-07
0.00248568
5.21096e-07
0.00248565
2.06887e-08
0.00248593
-6.12774e-07
0.00248657
-1.36141e-06
0.00248762
-2.17419e-06
0.00248906
-2.96714e-06
0.00249083
-3.63368e-06
0.00249282
-4.06434e-06
0.00249486
-4.17214e-06
0.00249678
-3.91666e-06
0.0024984
-3.31928e-06
0.00249961
-2.46394e-06
0.00250033
-1.48191e-06
0.00250058
-5.23989e-07
0.00250043
2.72159e-07
0.00250002
8.1048e-07
0.00249949
1.05324e-06
0.00249897
1.02228e-06
0.00249858
7.86084e-07
0.00249836
4.37675e-07
0.00249833
7.05769e-08
0.00249845
-2.40842e-07
0.00249868
-4.52466e-07
0.00249896
-5.52027e-07
0.00249923
-5.53018e-07
0.00249948
-4.84356e-07
0.00249967
-3.79491e-07
0.0024998
-2.67808e-07
0.00249989
-1.6973e-07
0.00249994
-9.554e-08
0.00249996
-4.69496e-08
0.00249997
-2.00551e-08
0.00249997
-8.45063e-09
0.00249997
-5.67218e-09
0.00249998
-6.64187e-09
0.00249998
-8.16607e-09
0.00249999
-8.7636e-09
0.00249999
-8.15666e-09
0.00249999
-6.70246e-09
0.0025
-4.93837e-09
0.0025
-3.30705e-09
0.0025
-2.0505e-09
0.0025
-1.22075e-09
0.0025
-7.46978e-10
0.0025
-5.10343e-10
0.0025
-3.99257e-10
0.0025
-3.36339e-10
0.0025
-2.82024e-10
0.0025
-2.24689e-10
0.0025
-1.67291e-10
0.0025
-1.16448e-10
0.0025
-7.67318e-11
0.0025
-4.8709e-11
0.0025
-3.07759e-11
0.0025
-1.94132e-11
-1.03918e-11
0.0025028
-8.53133e-06
0.00251126
-2.57641e-05
0.00252579
-4.41422e-05
0.00254699
-6.41055e-05
0.0025755
-8.58177e-05
0.00261185
-0.000108737
0.00265616
-0.000131714
0.00270767
-0.00015225
0.00276466
-0.000167664
0.00282415
-0.000174773
0.00288248
-0.000171855
0.00293711
-0.000161531
0.00298625
-0.00014589
0.00302885
-0.000127003
0.00306451
-0.000106732
0.00309324
-8.63148e-05
0.00311532
-6.65903e-05
0.00313118
-4.80236e-05
0.00314131
-3.07516e-05
0.00314609
-1.45965e-05
0.00314579
8.91752e-07
0.00314039
1.63317e-05
0.00312968
3.2301e-05
0.00311334
4.90725e-05
0.00309111
6.63735e-05
0.00306306
8.33072e-05
0.00302977
9.85112e-05
0.00299232
0.000110516
0.00295226
0.000118148
0.00291132
0.000120832
0.00287118
0.000118681
0.00283327
0.000112407
0.00279862
0.000103118
0.00276781
9.20744e-05
0.00274099
8.04806e-05
0.002718
6.93337e-05
0.00269839
5.93404e-05
0.00268162
5.08967e-05
0.0026671
4.41147e-05
0.0026543
3.88826e-05
0.00264277
3.49401e-05
0.0026322
3.19549e-05
0.00262237
2.95899e-05
0.00261319
2.75509e-05
0.00260464
2.56165e-05
0.00259674
2.36471e-05
0.00258953
2.15818e-05
0.00258304
1.94237e-05
0.00257729
1.72223e-05
0.00257228
1.50534e-05
0.00256796
1.30012e-05
0.00256427
1.1144e-05
0.00256113
9.54285e-06
0.00255841
8.23573e-06
0.00255604
7.23472e-06
0.00255389
6.52742e-06
0.00255189
6.08091e-06
0.00254995
5.84756e-06
0.00254804
5.77173e-06
0.0025461
5.7964e-06
0.00254414
5.86882e-06
0.00254215
5.94486e-06
0.00254014
5.99153e-06
0.00253813
5.98799e-06
0.00253614
5.92493e-06
0.00253419
5.80301e-06
0.0025323
5.63049e-06
0.00253048
5.42062e-06
0.00252874
5.18909e-06
0.00252709
4.95183e-06
0.00252551
4.72316e-06
0.002524
4.51463e-06
0.00252255
4.33426e-06
0.00252115
4.18635e-06
0.00251979
4.07165e-06
0.00251845
3.98787e-06
0.00251714
3.93038e-06
0.00251583
3.89314e-06
0.00251453
3.86946e-06
0.00251324
3.8529e-06
0.00251195
3.83781e-06
0.00251066
3.81982e-06
0.00250939
3.79598e-06
0.00250812
3.76478e-06
0.00250686
3.72587e-06
0.00250562
3.67982e-06
0.0025044
3.6277e-06
0.00250319
3.57079e-06
0.00250201
3.5103e-06
0.00250084
3.44715e-06
0.0024997
3.38184e-06
0.00249857
3.31428e-06
0.00249747
3.24375e-06
0.0024964
3.16887e-06
0.00249534
3.08772e-06
0.00249432
2.99808e-06
0.00249333
2.8978e-06
0.00249237
2.78483e-06
0.00249145
2.65676e-06
0.00249058
2.50925e-06
0.00248977
2.33341e-06
0.00248902
2.11259e-06
0.00248837
1.8201e-06
0.00248785
1.41961e-06
0.0024875
8.70409e-07
0.00248738
1.3831e-07
0.00248756
-7.8912e-07
0.00248809
-1.88658e-06
0.00248899
-3.0801e-06
0.00249027
-4.24708e-06
0.00249187
-5.23098e-06
0.00249368
-5.87034e-06
0.00249554
-6.03609e-06
0.00249729
-5.66739e-06
0.00249877
-4.79454e-06
0.00249984
-3.54057e-06
0.00250046
-2.099e-06
0.00250063
-6.92865e-07
0.00250043
4.73705e-07
0.00249998
1.25794e-06
0.00249943
1.60354e-06
0.00249891
1.54287e-06
0.00249852
1.17791e-06
0.00249831
6.47579e-07
0.00249829
9.17595e-08
0.00249842
-3.78138e-07
0.00249867
-6.96001e-07
0.00249896
-8.43618e-07
0.00249925
-8.41685e-07
0.0024995
-7.34292e-07
0.00249969
-5.72461e-07
0.00249982
-4.01048e-07
0.0024999
-2.51222e-07
0.00249995
-1.38599e-07
0.00249997
-6.56115e-08
0.00249997
-2.604e-08
0.00249997
-9.82737e-09
0.00249997
-6.87658e-09
0.00249998
-9.3017e-09
0.00249998
-1.22002e-08
0.00249999
-1.33695e-08
0.00249999
-1.24893e-08
0.00249999
-1.02131e-08
0.0025
-7.44434e-09
0.0025
-4.90514e-09
0.0025
-2.97789e-09
0.0025
-1.73353e-09
0.0025
-1.04718e-09
0.0025
-7.22449e-10
0.0025
-5.80288e-10
0.0025
-5.00455e-10
0.0025
-4.24717e-10
0.0025
-3.39066e-10
0.0025
-2.51291e-10
0.0025
-1.73486e-10
0.0025
-1.133e-10
0.0025
-7.15674e-11
0.0025
-4.5312e-11
0.0025
-2.91333e-11
-1.60294e-11
0.00250272
-1.12465e-05
0.00251093
-3.39814e-05
0.00252512
-5.8329e-05
0.00254596
-8.49459e-05
0.00257427
-0.000114128
0.00261075
-0.000145222
0.00265577
-0.00017673
0.00270867
-0.00020515
0.00276773
-0.000226721
0.00282952
-0.000236563
0.00288978
-0.000232117
0.00294583
-0.000217578
0.00299587
-0.000195929
0.00303892
-0.00017006
0.00307471
-0.000142519
0.00310334
-0.000114944
0.00312519
-8.84409e-05
0.00314078
-6.36114e-05
0.00315065
-4.06281e-05
0.00315529
-1.92318e-05
0.00315496
1.22234e-06
0.00314965
2.16352e-05
0.00313909
4.28688e-05
0.0031228
6.53631e-05
0.00310039
8.87746e-05
0.00307185
0.000111849
0.00303771
0.00013265
0.00299915
0.000149079
0.00295783
0.000159471
0.00291564
0.000163016
0.00287443
0.000159893
0.00283571
0.000151124
0.00280056
0.000138269
0.00276955
0.000123088
0.00274279
0.000107245
0.00272002
9.21023e-05
0.00270074
7.86142e-05
0.00268434
6.72998e-05
0.00267017
5.82875e-05
0.00265765
5.14005e-05
0.00264633
4.62628e-05
0.00263588
4.24062e-05
0.0026261
3.93618e-05
0.00261693
3.6726e-05
0.00260835
3.41986e-05
0.0026004
3.15949e-05
0.00259314
2.88383e-05
0.00258663
2.59401e-05
0.00258087
2.29736e-05
0.00257588
2.0047e-05
0.0025716
1.72786e-05
0.00256797
1.47769e-05
0.00256489
1.26262e-05
0.00256224
1.08779e-05
0.00255993
9.54768e-06
0.00255784
8.61747e-06
0.00255588
8.04101e-06
0.00255398
7.75209e-06
0.00255207
7.67389e-06
0.00255014
7.72804e-06
0.00254817
7.84248e-06
0.00254616
7.95726e-06
0.00254412
8.02803e-06
0.00254208
8.02715e-06
0.00254006
7.94289e-06
0.00253809
7.77707e-06
0.00253618
7.54175e-06
0.00253434
7.25567e-06
0.00253259
6.94069e-06
0.00253092
6.61877e-06
0.00252934
6.30955e-06
0.00252782
6.02871e-06
0.00252637
5.78706e-06
0.00252497
5.59024e-06
0.0025236
5.43903e-06
0.00252226
5.33005e-06
0.00252093
5.25681e-06
0.00251961
5.21084e-06
0.0025183
5.18294e-06
0.00251699
5.16424e-06
0.00251568
5.14706e-06
0.00251437
5.1255e-06
0.00251307
5.09566e-06
0.00251178
5.05561e-06
0.0025105
5.00504e-06
0.00250924
4.94486e-06
0.00250799
4.87664e-06
0.00250676
4.80223e-06
0.00250555
4.72332e-06
0.00250435
4.64122e-06
0.00250318
4.55665e-06
0.00250202
4.46956e-06
0.00250089
4.37904e-06
0.00249977
4.28329e-06
0.00249868
4.17974e-06
0.00249761
4.06539e-06
0.00249657
3.93724e-06
0.00249557
3.79237e-06
0.00249459
3.62743e-06
0.00249367
3.43668e-06
0.00249279
3.2087e-06
0.00249198
2.92234e-06
0.00249126
2.54358e-06
0.00249065
2.02601e-06
0.00249021
1.31732e-06
0.00248997
3.7311e-07
0.00249001
-8.23435e-07
0.00249036
-2.24078e-06
0.00249106
-3.78452e-06
0.00249211
-5.29687e-06
0.00249346
-6.5753e-06
0.002495
-7.40989e-06
0.00249659
-7.63196e-06
0.00249809
-7.16106e-06
0.00249933
-6.03542e-06
0.0025002
-4.41457e-06
0.00250065
-2.55072e-06
0.0025007
-7.35307e-07
0.00250041
7.64477e-07
0.0024999
1.76165e-06
0.00249932
2.18272e-06
0.00249879
2.07099e-06
0.00249841
1.56171e-06
0.00249822
8.39061e-07
0.00249822
8.8689e-08
0.00249839
-5.41548e-07
0.00249865
-9.64141e-07
0.00249897
-1.15567e-06
0.00249927
-1.14495e-06
0.00249953
-9.92334e-07
0.00249972
-7.6747e-07
0.00249985
-5.31547e-07
0.00249993
-3.26967e-07
0.00249996
-1.74741e-07
0.00249998
-7.77061e-08
0.00249998
-2.6788e-08
0.00249998
-7.6876e-09
0.00249997
-6.18533e-09
0.00249998
-1.1287e-08
0.00249998
-1.62833e-08
0.00249999
-1.83093e-08
0.00249999
-1.71462e-08
0.00249999
-1.39005e-08
0.0025
-9.96352e-09
0.0025
-6.40408e-09
0.0025
-3.76233e-09
0.0025
-2.11354e-09
0.0025
-1.2524e-09
0.0025
-8.81302e-10
0.0025
-7.39797e-10
0.0025
-6.60741e-10
0.0025
-5.6974e-10
0.0025
-4.55372e-10
0.0025
-3.34712e-10
0.0025
-2.27988e-10
0.0025
-1.46756e-10
0.0025
-9.19109e-11
0.0025
-5.83374e-11
0.0025
-3.8465e-11
-2.19498e-11
0.0025026
-1.38419e-05
0.00251047
-4.18511e-05
0.00252415
-7.20115e-05
0.00254446
-0.000105257
0.00257242
-0.000142089
0.00260901
-0.000181817
0.00265493
-0.000222645
0.00270971
-0.00025993
0.00277166
-0.000288669
0.00283668
-0.000301583
0.00289958
-0.000295023
0.00295753
-0.000275528
0.00300875
-0.000247141
0.00305236
-0.000213679
0.00308827
-0.000178427
0.00311673
-0.000143401
0.00313824
-0.000109951
0.00315343
-7.88043e-05
0.00316296
-5.01597e-05
0.00316739
-2.36619e-05
0.00316705
1.56807e-06
0.0031619
2.67818e-05
0.00315156
5.32128e-05
0.00313538
8.15425e-05
0.00311277
0.000111378
0.00308357
0.000141054
0.00304828
0.000167943
0.00300817
0.000189187
0.00296511
0.000202529
0.00292123
0.000206899
0.00287856
0.000202566
0.00283875
0.000190928
0.00280294
0.00017408
0.00277168
0.000154352
0.002745
0.000133918
0.00272257
0.000114537
0.00270376
9.74172e-05
0.00268787
8.31915e-05
0.00267417
7.19849e-05
0.00266205
6.35297e-05
0.002651
5.73082e-05
0.00264071
5.26931e-05
0.00263101
4.9067e-05
0.00262183
4.5907e-05
0.0026132
4.28306e-05
0.00260518
3.96093e-05
0.00259786
3.61557e-05
0.00259131
3.24958e-05
0.00258555
2.8734e-05
0.00258058
2.50171e-05
0.00257635
2.15028e-05
0.0025728
1.83337e-05
0.0025698
1.56194e-05
0.00256726
1.34254e-05
0.00256503
1.17708e-05
0.00256302
1.06299e-05
0.00256112
9.9411e-06
0.00255926
9.61706e-06
0.00255737
9.5573e-06
0.00255544
9.66005e-06
0.00255345
9.83235e-06
0.00255141
9.99753e-06
0.00254934
1.00995e-05
0.00254726
1.01042e-05
0.00254521
9.99809e-06
0.0025432
9.78494e-06
0.00254126
9.48169e-06
0.0025394
9.1135e-06
0.00253763
8.70925e-06
0.00253595
8.2976e-06
0.00253436
7.90396e-06
0.00253284
7.5484e-06
0.00253138
7.24455e-06
0.00252997
6.99931e-06
0.0025286
6.81327e-06
0.00252725
6.68167e-06
0.00252591
6.5958e-06
0.00252457
6.54446e-06
0.00252324
6.51561e-06
0.00252191
6.49775e-06
0.00252057
6.48101e-06
0.00251924
6.45791e-06
0.00251791
6.42365e-06
0.00251659
6.37598e-06
0.00251528
6.31475e-06
0.00251399
6.24135e-06
0.00251271
6.15803e-06
0.00251144
6.06726e-06
0.00251019
5.97133e-06
0.00250896
5.872e-06
0.00250775
5.77025e-06
0.00250655
5.6661e-06
0.00250537
5.5585e-06
0.00250421
5.44526e-06
0.00250307
5.32317e-06
0.00250194
5.18842e-06
0.00250084
5.03703e-06
0.00249977
4.86511e-06
0.00249873
4.6682e-06
0.00249773
4.43916e-06
0.00249677
4.16432e-06
0.00249588
3.81869e-06
0.00249506
3.36215e-06
0.00249434
2.73978e-06
0.00249377
1.88937e-06
0.00249339
7.57626e-07
0.00249324
-6.76349e-07
0.00249337
-2.37598e-06
0.00249382
-4.22931e-06
0.00249457
-6.04778e-06
0.00249558
-7.5881e-06
0.00249677
-8.59692e-06
0.00249801
-8.86976e-06
0.00249916
-8.30824e-06
0.00250008
-6.95779e-06
0.00250067
-5.01138e-06
0.0025009
-2.77524e-06
0.00250077
-6.03905e-07
0.00250035
1.1773e-06
0.00249978
2.34097e-06
0.00249916
2.79875e-06
0.00249862
2.60573e-06
0.00249826
1.93025e-06
0.00249809
1.00109e-06
0.00249813
4.86876e-08
0.00249834
-7.43567e-07
0.00249864
-1.26778e-06
0.00249898
-1.4965e-06
0.0024993
-1.4681e-06
0.00249957
-1.26075e-06
0.00249977
-9.64247e-07
0.00249989
-6.57245e-07
0.00249996
-3.93978e-07
0.00249999
-2.00835e-07
0.00249999
-8.05382e-08
0.00249998
-2.03485e-08
0.00249998
-8.79167e-10
0.00249997
-3.11395e-09
0.00249998
-1.25582e-08
0.00249998
-2.05917e-08
0.00249999
-2.37991e-08
0.00249999
-2.22819e-08
0.00249999
-1.78263e-08
0.0025
-1.24796e-08
0.0025
-7.74438e-09
0.0025
-4.33503e-09
0.0025
-2.30481e-09
0.0025
-1.32769e-09
0.0025
-9.71024e-10
0.0025
-8.74256e-10
0.0025
-8.19057e-10
0.0025
-7.19558e-10
0.0025
-5.74548e-10
0.0025
-4.16798e-10
0.0025
-2.78241e-10
0.0025
-1.75263e-10
0.0025
-1.083e-10
0.0025
-6.8957e-11
0.0025
-4.6943e-11
-2.80124e-11
0.00250243
-1.62756e-05
0.00250983
-4.92499e-05
0.00252282
-8.49975e-05
0.00254237
-0.000124809
0.00256977
-0.000169486
0.00260637
-0.000218423
0.00265334
-0.000269607
0.00271051
-0.000317103
0.00277631
-0.000354471
0.00284565
-0.000370917
0.00291197
-0.000361351
0.00297231
-0.000335864
0.00302494
-0.00029977
0.00306919
-0.00025793
0.00310518
-0.000214414
0.00313335
-0.00017157
0.00315436
-0.000130969
0.003169
-9.34385e-05
0.00317804
-5.9205e-05
0.00318218
-2.78014e-05
0.00318182
1.92962e-06
0.00317692
3.16851e-05
0.00316694
6.31927e-05
0.003151
9.74854e-05
0.00312822
0.000134156
0.00309822
0.000171056
0.00306146
0.000204701
0.00301935
0.000231291
0.00297404
0.000247846
0.00292795
0.000252987
0.00288339
0.000247122
0.0028422
0.000232116
0.00280558
0.00021071
0.00277403
0.000185898
0.00274751
0.000160433
0.00272555
0.000136506
0.00270738
0.000115586
0.00269216
9.84066e-05
0.00267908
8.50622e-05
0.00266745
7.51595e-05
0.00265676
6.80038e-05
0.00264667
6.27795e-05
0.00263704
5.8699e-05
0.00262784
5.51074e-05
0.00261913
5.15365e-05
0.00261103
4.77164e-05
0.00260363
4.35557e-05
0.00259702
3.91042e-05
0.00259125
3.45063e-05
0.00258631
2.99561e-05
0.00258215
2.5657e-05
0.0025787
2.17907e-05
0.00257582
1.84947e-05
0.0025734
1.585e-05
0.00257129
1.38775e-05
0.00256938
1.25424e-05
0.00256755
1.17645e-05
0.00256574
1.1432e-05
0.00256388
1.14177e-05
0.00256194
1.15936e-05
0.00255993
1.1844e-05
0.00255786
1.20743e-05
0.00255574
1.22163e-05
0.00255361
1.22299e-05
0.00255151
1.21005e-05
0.00254946
1.18353e-05
0.00254749
1.14572e-05
0.0025456
1.09991e-05
0.00254381
1.04979e-05
0.00254212
9.98997e-06
0.00254052
9.50692e-06
0.00253899
9.07355e-06
0.00253753
8.70638e-06
0.00253611
8.41341e-06
0.00253473
8.19476e-06
0.00253337
8.04391e-06
0.00253202
7.94945e-06
0.00253066
7.89704e-06
0.00252931
7.87142e-06
0.00252795
7.85815e-06
0.00252658
7.845e-06
0.00252522
7.82289e-06
0.00252386
7.78612e-06
0.0025225
7.73226e-06
0.00252115
7.66153e-06
0.00251982
7.57598e-06
0.0025185
7.47867e-06
0.00251719
7.37289e-06
0.0025159
7.26162e-06
0.00251463
7.14713e-06
0.00251337
7.03071e-06
0.00251212
6.91253e-06
0.00251089
6.79141e-06
0.00250967
6.66482e-06
0.00250846
6.52894e-06
0.00250727
6.37907e-06
0.0025061
6.2102e-06
0.00250495
6.01725e-06
0.00250382
5.79453e-06
0.00250273
5.53345e-06
0.00250167
5.21837e-06
0.00250067
4.82116e-06
0.00249973
4.29695e-06
0.00249889
3.58422e-06
0.00249817
2.61294e-06
0.0024976
1.32268e-06
0.00249724
-3.10801e-07
0.00249711
-2.24694e-06
0.00249724
-4.35939e-06
0.00249762
-6.43403e-06
0.00249823
-8.19327e-06
0.00249898
-9.34701e-06
0.00249977
-9.66029e-06
0.00250048
-9.0197e-06
0.002501
-7.47746e-06
0.00250125
-5.2565e-06
0.00250118
-2.71121e-06
0.00250083
-2.52293e-07
0.00250026
1.74344e-06
0.00249959
3.01336e-06
0.00249893
3.4575e-06
0.00249839
3.14408e-06
0.00249805
2.27442e-06
0.00249793
1.12094e-06
0.00249802
-4.23215e-08
0.00249828
-9.97762e-07
0.00249863
-1.6185e-06
0.002499
-1.87474e-06
0.00249935
-1.81636e-06
0.00249963
-1.54149e-06
0.00249983
-1.16201e-06
0.00249995
-7.7553e-07
0.0025
-4.48786e-07
0.00250002
-2.13422e-07
0.00250001
-7.12637e-08
0.00249999
-4.78133e-09
0.00249998
1.16302e-08
0.00249997
2.65375e-09
0.00249997
-1.32393e-08
0.00249998
-2.54274e-08
0.00249999
-3.01298e-08
0.00249999
-2.80807e-08
0.0025
-2.20509e-08
0.0025
-1.49606e-08
0.0025
-8.84922e-09
0.0025
-4.61541e-09
0.0025
-2.24678e-09
0.0025
-1.23915e-09
0.0025
-9.79589e-10
0.0025
-9.8431e-10
0.0025
-9.80323e-10
0.0025
-8.78208e-10
0.0025
-6.97922e-10
0.0025
-4.96531e-10
0.0025
-3.22087e-10
0.0025
-1.96624e-10
0.0025
-1.19089e-10
0.0025
-7.61946e-11
0.0025
-5.406e-11
-3.40277e-11
0.00250222
-1.84979e-05
0.002509
-5.60313e-05
0.00252106
-9.7051e-05
0.00253955
-0.000143301
0.00256607
-0.00019601
0.00260249
-0.000254838
0.00265057
-0.000317686
0.00271067
-0.000377205
0.00278149
-0.000425291
0.00285644
-0.000445871
0.00292705
-0.000431952
0.00299024
-0.00039906
0.00304447
-0.000354001
0.00308935
-0.000302813
0.00312532
-0.000250382
0.00315306
-0.000199303
0.00317341
-0.000151322
0.00318731
-0.000107342
0.00319573
-6.76206e-05
0.0031995
-3.15727e-05
0.00319914
2.2916e-06
0.00319459
3.62312e-05
0.00318515
7.26327e-05
0.0031696
0.000113034
0.00314669
0.000157067
0.00311575
0.000202001
0.00307717
0.000243278
0.00303255
0.000275907
0.00298439
0.000296005
0.00293555
0.000301836
0.00288866
0.000294007
0.00284579
0.000274986
0.0028082
0.0002483
0.00277637
0.000217728
0.00275012
0.000186687
0.00272878
0.00015784
0.00271145
0.000132923
0.0026971
0.000112753
0.00268481
9.73547e-05
0.0026738
8.6166e-05
0.00266353
7.82711e-05
0.00265368
7.26281e-05
0.00264413
6.8253e-05
0.00263489
6.43446e-05
0.00262609
6.03447e-05
0.00261786
5.59461e-05
0.00261035
5.10631e-05
0.00260367
4.57802e-05
0.00259789
4.02937e-05
0.00259299
3.48551e-05
0.00258892
2.97224e-05
0.00258559
2.51218e-05
0.00258286
2.12223e-05
0.00258059
1.81207e-05
0.00257863
1.58392e-05
0.00257684
1.43307e-05
0.00257511
1.34927e-05
0.00257336
1.31852e-05
0.00257153
1.32499e-05
0.00256959
1.35295e-05
0.00256755
1.38828e-05
0.00256543
1.41961e-05
0.00256326
1.43888e-05
0.00256107
1.44149e-05
0.00255891
1.42602e-05
0.00255681
1.39365e-05
0.0025548
1.34747e-05
0.00255288
1.29168e-05
0.00255107
1.23092e-05
0.00254936
1.16967e-05
0.00254775
1.11182e-05
0.00254622
1.06033e-05
0.00254475
1.01715e-05
0.00254334
9.8318e-06
0.00254195
9.58341e-06
0.00254057
9.41754e-06
0.0025392
9.31954e-06
0.00253783
9.2714e-06
0.00253645
9.25414e-06
0.00253505
9.25004e-06
0.00253365
9.24432e-06
0.00253225
9.22617e-06
0.00253085
9.18912e-06
0.00252945
9.13073e-06
0.00252806
9.05177e-06
0.00252668
8.95522e-06
0.00252531
8.84518e-06
0.00252396
8.72592e-06
0.00252262
8.60121e-06
0.00252129
8.47394e-06
0.00251998
8.34579e-06
0.00251867
8.21709e-06
0.00251738
8.08663e-06
0.00251609
7.95154e-06
0.00251481
7.80742e-06
0.00251354
7.64868e-06
0.00251229
7.46911e-06
0.00251104
7.26234e-06
0.00250981
7.02124e-06
0.00250861
6.73573e-06
0.00250744
6.38838e-06
0.00250631
5.94874e-06
0.00250524
5.36857e-06
0.00250424
4.58182e-06
0.00250334
3.51312e-06
0.00250257
2.09719e-06
0.00250195
3.07587e-07
0.00250152
-1.81181e-06
0.00250128
-4.12355e-06
0.00250124
-6.39374e-06
0.00250137
-8.31831e-06
0.0025016
-9.57871e-06
0.00250185
-9.91664e-06
0.00250204
-9.20787e-06
0.00250208
-7.51166e-06
0.0025019
-5.07701e-06
0.00250148
-2.29928e-06
0.00250087
3.63393e-07
0.00250012
2.49123e-06
0.00249934
3.79316e-06
0.00249864
4.16185e-06
0.0024981
3.68038e-06
0.00249779
2.5829e-06
0.00249773
1.18423e-06
0.00249789
-1.9954e-07
0.00249821
-1.3183e-06
0.00249862
-2.02802e-06
0.00249904
-2.2987e-06
0.00249942
-2.1943e-06
0.00249971
-1.83561e-06
0.00249991
-1.35907e-06
0.00250002
-8.82977e-07
0.00250006
-4.87327e-07
0.00250005
-2.08708e-07
0.00250003
-4.69515e-08
0.0025
2.17508e-08
0.00249998
3.06625e-08
0.00249997
1.11968e-08
0.00249997
-1.36583e-08
0.00249998
-3.12314e-08
0.00249999
-3.76632e-08
0.00249999
-3.47433e-08
0.0025
-2.66198e-08
0.0025
-1.73486e-08
0.0025
-9.6194e-09
0.0025
-4.5101e-09
0.0025
-1.87584e-09
0.0025
-9.56229e-10
0.0025
-9.0079e-10
0.0025
-1.07595e-09
0.0025
-1.15294e-09
0.0025
-1.05125e-09
0.0025
-8.26988e-10
0.0025
-5.72444e-10
0.0025
-3.56851e-10
0.0025
-2.08315e-10
0.0025
-1.22523e-10
0.0025
-7.91049e-11
0.0025
-5.93852e-11
-3.98258e-11
0.00250195
-2.04509e-05
0.00250794
-6.20223e-05
0.00251878
-0.000107884
0.00253583
-0.00016035
0.00256104
-0.000221225
0.00259692
-0.000290714
0.00264607
-0.000366834
0.00270965
-0.000440791
0.00278694
-0.00050258
0.00286913
-0.000528063
0.00294494
-0.000507762
0.00301144
-0.000465564
0.00306741
-0.000409961
0.00311286
-0.000348266
0.00314864
-0.00028616
0.0031757
-0.000226365
0.00319512
-0.000170741
0.00320802
-0.00012024
0.00321557
-7.51727e-05
0.00321883
-3.4836e-05
0.00321848
2.64232e-06
0.00321447
4.02434e-05
0.00320586
8.12377e-05
0.00319101
0.000127887
0.00316813
0.000179946
0.00313616
0.000233975
0.0030954
0.000284039
0.00304769
0.000323612
0.00299602
0.000347677
0.00294378
0.000354081
0.00289406
0.000343725
0.00284919
0.000319858
0.0028105
0.00028698
0.00277842
0.000249812
0.00275258
0.000212531
0.0027321
0.000178319
0.00271583
0.000149186
0.00270258
0.000126003
0.00269126
0.000108676
0.00268101
9.64161e-05
0.00267125
8.80316e-05
0.00266167
8.22087e-05
0.00265219
7.77353e-05
0.00264289
7.36471e-05
0.00263394
6.9293e-05
0.00262555
6.43352e-05
0.00261791
5.87056e-05
0.00261115
5.25383e-05
0.00260535
4.6096e-05
0.0026005
3.97004e-05
0.00259655
3.36737e-05
0.00259338
2.82937e-05
0.00259084
2.37645e-05
0.00258876
2.01999e-05
0.00258698
1.76213e-05
0.00258534
1.59662e-05
0.00258373
1.51049e-05
0.00258205
1.48638e-05
0.00258025
1.50489e-05
0.00257831
1.54692e-05
0.00257624
1.59555e-05
0.00257406
1.63729e-05
0.00257182
1.66282e-05
0.00256957
1.66706e-05
0.00256734
1.64873e-05
0.00256518
1.60971e-05
0.00256311
1.55403e-05
0.00256116
1.48704e-05
0.00255932
1.41448e-05
0.0025576
1.34181e-05
0.00255598
1.27367e-05
0.00255445
1.21361e-05
0.00255298
1.16385e-05
0.00255156
1.12536e-05
0.00255017
1.09792e-05
0.00254878
1.08037e-05
0.00254739
1.07084e-05
0.00254599
1.0671e-05
0.00254458
1.06683e-05
0.00254315
1.06789e-05
0.00254171
1.06851e-05
0.00254026
1.06744e-05
0.00253881
1.06396e-05
0.00253736
1.05785e-05
0.00253592
1.04927e-05
0.00253449
1.03864e-05
0.00253307
1.02649e-05
0.00253166
1.01338e-05
0.00253027
9.99774e-06
0.00252888
9.86033e-06
0.0025275
9.72372e-06
0.00252613
9.58846e-06
0.00252476
9.45335e-06
0.0025234
9.31525e-06
0.00252204
9.16915e-06
0.00252068
9.00855e-06
0.00251932
8.82601e-06
0.00251797
8.61365e-06
0.00251663
8.36279e-06
0.0025153
8.06173e-06
0.002514
7.69148e-06
0.00251273
7.21995e-06
0.0025115
6.59698e-06
0.00251033
5.7542e-06
0.00250923
4.61366e-06
0.00250822
3.10793e-06
0.00250731
1.21013e-06
0.00250653
-1.03285e-06
0.00250589
-3.47556e-06
0.00250536
-5.87069e-06
0.00250494
-7.89663e-06
0.00250458
-9.21644e-06
0.00250422
-9.55754e-06
0.0025038
-8.79065e-06
0.00250327
-6.98304e-06
0.0025026
-4.40546e-06
0.00250179
-1.48577e-06
0.00250087
1.28124e-06
0.00249992
3.44336e-06
0.00249902
4.68951e-06
0.00249827
4.91022e-06
0.00249775
4.20548e-06
0.00249749
2.84195e-06
0.0024975
1.1753e-06
0.00249774
-4.38429e-07
0.00249814
-1.71872e-06
0.00249862
-2.50673e-06
0.00249909
-2.77497e-06
0.0024995
-2.60462e-06
0.00249981
-2.14241e-06
0.0025
-1.55226e-06
0.0025001
-9.75121e-07
0.00250011
-5.0495e-07
0.00250009
-1.82728e-07
0.00250005
-4.80851e-09
0.00250001
6.07722e-08
0.00249998
5.6677e-08
0.00249997
2.22751e-08
0.00249997
-1.43688e-08
0.00249998
-3.85669e-08
0.00249999
-4.67974e-08
0.00249999
-4.24538e-08
0.0025
-3.15397e-08
0.0025
-1.95486e-08
0.0025
-9.93154e-09
0.0025
-3.91676e-09
0.0025
-1.13062e-09
0.0025
-4.56108e-10
0.0025
-7.36699e-10
0.0025
-1.16124e-09
0.0025
-1.34848e-09
0.0025
-1.2451e-09
0.0025
-9.62843e-10
0.0025
-6.42336e-10
0.0025
-3.79313e-10
0.0025
-2.07609e-10
0.0025
-1.16913e-10
0.0025
-7.69207e-11
0.0025
-6.26816e-11
-4.53142e-11
0.00250162
-2.2068e-05
0.00250662
-6.70216e-05
0.00251588
-0.000117151
0.002531
-0.000175468
0.00255431
-0.000244537
0.0025891
-0.000325505
0.00263908
-0.000416808
0.00270671
-0.00050842
0.00279233
-0.000588199
0.00288381
-0.000619543
0.00296586