/*--------------------------------*- C++ -*----------------------------------*\
  =========                 |
  \\      /  F ield         | OpenFOAM: The Open Source CFD Toolbox
   \\    /   O peration     | Website:  https://openfoam.org
    \\  /    A nd           | Version:  11
     \\/     M anipulation  |
\*---------------------------------------------------------------------------*/
FoamFile
{
    format      ascii;
    class       volVectorField;
    location    "14.423594";
    object      U_0;
}
// * * * * * * * * * * * * * * * * * * * * * * * * * * * * * * * * * * * * * //

dimensions      [0 1 -1 0 0 0 0];

internalField   nonuniform List<vector> 
7132
(
(1.0001 -0.00020584 3.86611e-18)
(1.00159 -0.000619171 1.28684e-17)
(1.00497 -0.00106806 1.33838e-17)
(1.01016 -0.00157044 1.70285e-17)
(1.01751 -0.002133 2.26136e-17)
(1.02722 -0.00273311 2.20694e-17)
(1.03939 -0.00332328 1.9575e-17)
(1.05384 -0.00381038 1.68092e-17)
(1.06996 -0.00409202 1.41759e-17)
(1.08672 -0.0040574 1.20612e-17)
(1.10258 -0.00363545 1.06453e-17)
(1.116 -0.00287618 9.9028e-18)
(1.12575 -0.00183023 9.63331e-18)
(1.1308 -0.000560623 9.60898e-18)
(1.13039 0.000851584 7.15495e-18)
(1.12413 0.00227206 5.64611e-18)
(1.11234 0.00348108 4.27549e-18)
(1.09634 0.00425291 4.53126e-18)
(1.07828 0.00443549 3.11293e-18)
(1.06075 0.00397356 2.7996e-18)
(1.04635 0.00290841 2.4287e-18)
(1.03734 0.0013759 1.8238e-18)
(1.03527 -0.000392288 2.38961e-18)
(1.04055 -0.00205555 -1.12075e-17)
(1.05197 -0.00318675 -6.48188e-17)
(1.06646 -0.00339942 -9.69101e-17)
(1.07966 -0.002555 -6.40287e-17)
(1.08735 -0.000887685 -2.15022e-17)
(1.08706 0.00110093 2.48858e-18)
(1.07864 0.00288947 3.71145e-17)
(1.06385 0.00412564 1.49361e-17)
(1.0454 0.00465295 -3.28281e-16)
(1.02629 0.00444228 -4.73467e-16)
(1.00948 0.00351941 2.61858e-15)
(0.997743 0.00194031 1.04663e-14)
(0.993591 -0.000174319 -2.45361e-15)
(0.998893 -0.0025572 -1.3814e-13)
(1.01404 -0.00471973 -5.09814e-13)
(1.03694 -0.00601912 -9.7874e-13)
(1.06274 -0.0059272 -1.15274e-12)
(1.08501 -0.00435186 -8.78445e-13)
(1.09813 -0.00174611 -4.3938e-13)
(1.09932 0.00111517 -1.36379e-13)
(1.08926 0.00350724 7.50578e-16)
(1.07107 0.00501475 3.83658e-14)
(1.04879 0.00554106 1.06415e-14)
(1.02632 0.00516484 -8.17264e-14)
(1.00703 0.00399518 -1.71882e-13)
(0.9939 0.00211879 4.69723e-14)
(0.989656 -0.000339269 1.40391e-12)
(0.996349 -0.0030811 5.2288e-12)
(1.01433 -0.00554463 1.18271e-11)
(1.04109 -0.00700257 1.87485e-11)
(1.07101 -0.00687185 2.17329e-11)
(1.09681 -0.00505375 1.87129e-11)
(1.11207 -0.00204863 1.2247e-11)
(1.11356 0.00126205 6.57062e-12)
(1.10201 0.00401617 2.79179e-12)
(1.08117 0.00569481 5.5284e-13)
(1.05601 0.00618702 -3.15496e-13)
(1.03118 0.00564031 -1.73469e-13)
(1.0104 0.00426001 -4.07626e-13)
(0.996623 0.00220357 -3.9067e-12)
(0.992318 -0.00037201 -1.43816e-11)
(0.999242 -0.00316383 -3.4333e-11)
(1.01748 -0.00563271 -6.24579e-11)
(1.04446 -0.0071026 -9.20864e-11)
(1.07475 -0.00703587 -1.13197e-10)
(1.1014 -0.00531819 -1.17674e-10)
(1.118 -0.00236367 -1.0372e-10)
(1.12087 0.00103081 -7.63705e-11)
(1.11005 0.00399649 -4.51836e-11)
(1.08887 0.00590815 -1.97519e-11)
(1.06248 0.00653833 -4.64009e-12)
(1.03611 0.00599751 3.59354e-12)
(1.01399 0.00454059 1.51776e-11)
(0.999252 0.00240151 4.16371e-11)
(0.994267 -0.000213246 8.94174e-11)
(1.00055 -0.00299418 1.56783e-10)
(1.01802 -0.00543769 2.35169e-10)
(1.04413 -0.00693711 3.13164e-10)
(1.07384 -0.00702383 3.79637e-10)
(1.1008 -0.00559239 4.24485e-10)
(1.1191 -0.00296457 4.38405e-10)
(1.12497 0.000225721 4.13893e-10)
(1.11762 0.00324254 3.48278e-10)
(1.09918 0.00546349 2.49698e-10)
(1.07387 0.00652613 1.4133e-10)
(1.04675 0.0063654 5.51099e-11)
(1.0226 0.00513364 1.66471e-11)
(1.00526 0.0030674 3.30969e-11)
(0.997653 0.000427164 9.34479e-11)
(1.00158 -0.00243998 1.78336e-10)
(1.01717 -0.00503409 2.69729e-10)
(1.04216 -0.00677353 3.5528e-10)
(1.07188 -0.0072003 4.2822e-10)
(1.10032 -0.0061804 4.85435e-10)
(1.12176 -0.00396417 5.25065e-10)
(1.13225 -0.00108102 5.43721e-10)
(1.13041 0.00185133 5.33873e-10)
(1.11729 0.00430288 4.84705e-10)
(1.09576 0.0059204 3.91216e-10)
(1.06967 0.0065285 2.66913e-10)
(1.04327 0.00609201 1.46134e-10)
(1.02068 0.00467347 6.74931e-11)
(1.00565 0.00241725 5.06773e-11)
(1.0012 -0.000413472 8.79684e-11)
(1.00903 -0.00338319 1.55317e-10)
(1.02863 -0.00591387 2.28853e-10)
(1.05695 -0.0074364 2.93742e-10)
(1.08883 -0.00759607 3.44243e-10)
(1.11833 -0.0063881 3.80199e-10)
(1.14029 -0.00415287 4.03824e-10)
(1.15159 -0.00144691 4.17431e-10)
(1.15163 0.00114069 4.21211e-10)
(1.14203 0.00315495 4.11123e-10)
(1.12585 0.00435891 3.79699e-10)
(1.10663 0.00470959 3.21878e-10)
(1.08774 0.00427092 2.42975e-10)
(1.07217 0.00313884 1.60844e-10)
(1.06251 0.00143832 9.78438e-11)
(1.06076 -0.000616803 6.86342e-11)
(1.06781 -0.00268259 7.40829e-11)
(1.08284 -0.00433466 1.04511e-10)
(1.10327 -0.00520045 1.47106e-10)
(1.12523 -0.00510151 1.91438e-10)
(1.14469 -0.00412217 2.3121e-10)
(1.15851 -0.00257372 2.63636e-10)
(1.16523 -0.000884136 2.88177e-10)
(1.16523 0.000529989 3.05509e-10)
(1.16043 0.00136614 3.16741e-10)
(1.15363 0.00148507 3.22786e-10)
(1.14785 0.000905287 3.23846e-10)
(1.14572 -0.000236789 3.19266e-10)
(1.14915 -0.00173621 3.08014e-10)
(1.15913 -0.00335546 2.89537e-10)
(1.17567 -0.00484163 2.64389e-10)
(1.19774 -0.00593604 2.34239e-10)
(1.22325 -0.00639792 2.01363e-10)
(1.24924 -0.00605057 1.68026e-10)
(1.27216 -0.00483526 1.36077e-10)
(1.28853 -0.00284694 1.0686e-10)
(1.29554 -0.00033326 8.13863e-11)
(1.29171 0.00234504 6.0647e-11)
(1.27714 0.00479115 4.5939e-11)
(1.25354 0.00666059 3.90853e-11)
(1.22382 0.00773346 4.22257e-11)
(1.19147 0.00794569 5.69024e-11)
(1.15996 0.00737423 8.26346e-11)
(1.13213 0.00618839 1.15906e-10)
(1.11012 0.00459715 1.50593e-10)
(1.09503 0.00280788 1.7989e-10)
(1.08741 0.0010116 1.98593e-10)
(1.08668 -0.000627481 2.04444e-10)
(1.09229 -0.00197273 1.9808e-10)
(1.10228 -0.00291401 1.82056e-10)
(1.11557 -0.00342125 1.59741e-10)
(1.12966 -0.00338299 1.3413e-10)
(1.14238 -0.00317847 1.10224e-10)
(1.15581 -0.00175043 7.67485e-11)
(1.0001 -0.000615342 5.43484e-20)
(1.00157 -0.00185174 6.53284e-19)
(1.00492 -0.00319607 1.23458e-18)
(1.01008 -0.00470433 1.83463e-18)
(1.01741 -0.00639796 2.57255e-18)
(1.02713 -0.00821048 3.2282e-18)
(1.03939 -0.0100002 3.45612e-18)
(1.05402 -0.0114842 4.4003e-18)
(1.0704 -0.0123515 2.19158e-18)
(1.08751 -0.0122591 1.70286e-18)
(1.10373 -0.010989 3.0988e-18)
(1.11744 -0.00870447 4.77018e-18)
(1.12743 -0.00556153 3.94685e-18)
(1.13265 -0.00175384 3.79312e-18)
(1.13232 0.00248408 4.45407e-18)
(1.12596 0.00676125 5.48132e-18)
(1.11385 0.0104184 6.51143e-18)
(1.09736 0.0127714 7.47909e-18)
(1.0787 0.0133543 7.83007e-18)
(1.06054 0.01199 6.23503e-18)
(1.04559 0.00879189 2.51049e-18)
(1.03621 0.00415988 6.60347e-18)
(1.03405 -0.00121295 1.38911e-17)
(1.03961 -0.00629537 -2.14123e-16)
(1.05172 -0.00977684 -9.37142e-16)
(1.06719 -0.0104567 -1.42986e-15)
(1.08133 -0.00789431 -9.90419e-16)
(1.08963 -0.00280496 -3.1206e-16)
(1.08945 0.00326879 2.1245e-17)
(1.08072 0.00872728 1.12771e-16)
(1.06534 0.0124993 -2.37242e-16)
(1.0462 0.01412 -4.04521e-16)
(1.02637 0.0135121 2.80029e-15)
(1.00885 0.0107556 1.92717e-15)
(0.996466 0.00600745 -3.95016e-14)
(0.991849 -0.00039283 -7.16478e-14)
(0.997072 -0.00765927 4.12208e-13)
(1.01273 -0.014306 2.23239e-12)
(1.03675 -0.018344 4.67169e-12)
(1.06399 -0.0181222 5.37972e-12)
(1.08753 -0.0133406 3.84159e-12)
(1.10133 -0.00539159 1.79698e-12)
(1.10249 0.00333878 4.76367e-13)
(1.09184 0.0106288 -1.32281e-14)
(1.07278 0.015217 -8.26088e-14)
(1.0496 0.0168262 -8.30125e-14)
(1.02627 0.0157132 5.96717e-14)
(1.00618 0.0122128 6.15094e-13)
(0.992344 0.0065694 3.25263e-13)
(0.987595 -0.000875142 -6.2299e-12)
(0.994229 -0.00924611 -2.87942e-11)
(1.01282 -0.0168248 -7.30145e-11)
(1.04086 -0.0213514 -1.23845e-10)
(1.07242 -0.0210051 -1.49994e-10)
(1.09969 -0.0154752 -1.35412e-10)
(1.11577 -0.00630627 -9.31201e-11)
(1.11722 0.00379521 -4.63895e-11)
(1.10495 0.0121909 -1.37126e-11)
(1.08304 0.0172989 6.57335e-13)
(1.05679 0.0187972 3.65815e-12)
(1.03101 0.0171581 3.07697e-12)
(1.0094 0.0130183 2.36172e-13)
(0.994865 0.00684336 -1.26755e-11)
(0.989916 -0.000927166 -5.02525e-11)
(0.996473 -0.00940991 -1.25137e-10)
(1.01485 -0.0169753 -2.33913e-10)
(1.04256 -0.0215459 -3.47566e-10)
(1.07408 -0.0214483 -4.21472e-10)
(1.1021 -0.0163024 -4.22878e-10)
(1.11983 -0.00735535 -3.52962e-10)
(1.12326 0.00296863 -2.43483e-10)
(1.11235 0.0120171 -1.34088e-10)
(1.09056 0.0178717 -5.30915e-11)
(1.06329 0.0198322 -8.51915e-12)
(1.03597 0.0182416 1.12889e-11)
(1.01295 0.0138843 2.94856e-11)
(0.997388 0.0074628 6.83494e-11)
(0.99176 -0.000427005 1.38211e-10)
(0.997794 -0.00887508 2.33613e-10)
(1.01558 -0.0163512 3.38997e-10)
(1.04253 -0.0209843 4.39091e-10)
(1.07333 -0.0213215 5.23708e-10)
(1.10125 -0.0170346 5.83752e-10)
(1.12016 -0.0091079 6.05871e-10)
(1.12624 0.000533019 5.7504e-10)
(1.11877 0.00966548 4.85055e-10)
(1.09999 0.0164118 3.4847e-10)
(1.0742 0.019677 1.98629e-10)
(1.0465 0.0192595 7.88159e-11)
(1.0217 0.0156062 2.28695e-11)
(1.00375 0.00940779 4.08397e-11)
(0.995787 0.00142254 1.19309e-10)
(0.99987 -0.00731199 2.32677e-10)
(1.01626 -0.0152548 3.54941e-10)
(1.04255 -0.0205904 4.66449e-10)
(1.07367 -0.0218922 5.55686e-10)
(1.10315 -0.0187583 6.18067e-10)
(1.12497 -0.0119881 6.52897e-10)
(1.13517 -0.00322644 6.5914e-10)
(1.13258 0.00564392 6.31684e-10)
(1.11852 0.0130298 5.61921e-10)
(1.09611 0.0178858 4.46775e-10)
(1.06934 0.0197067 3.01935e-10)
(1.04242 0.0183977 1.64644e-10)
(1.01947 0.0141352 7.66608e-11)
(1.00431 0.00732414 5.96331e-11)
(1.00015 -0.00126929 1.05316e-10)
(1.00883 -0.0103254 1.86469e-10)
(1.02981 -0.018051 2.74638e-10)
(1.05974 -0.0226732 3.50952e-10)
(1.09303 -0.0230992 4.07435e-10)
(1.12339 -0.0193373 4.43589e-10)
(1.14546 -0.0124641 4.62573e-10)
(1.15617 -0.00420268 4.68305e-10)
(1.15509 0.00365398 4.62785e-10)
(1.14413 0.0097355 4.43572e-10)
(1.12663 0.0133357 4.04121e-10)
(1.1063 0.0143397 3.39596e-10)
(1.08666 0.012954 2.55335e-10)
(1.07077 0.0094722 1.69465e-10)
(1.06128 0.00426478 1.0481e-10)
(1.06028 -0.00202889 7.62571e-11)
(1.06865 -0.00835645 8.43344e-11)
(1.08542 -0.0133991 1.18493e-10)
(1.10763 -0.0159973 1.64864e-10)
(1.13102 -0.0156059 2.12138e-10)
(1.15124 -0.0125068 2.535e-10)
(1.16505 -0.00768392 2.86002e-10)
(1.17106 -0.00246612 3.09227e-10)
(1.16986 0.00187628 3.24194e-10)
(1.16361 0.00443569 3.32511e-10)
(1.15533 0.00480316 3.35624e-10)
(1.14817 0.00304584 3.3416e-10)
(1.14486 -0.000417981 3.27691e-10)
(1.14737 -0.00497133 3.15222e-10)
(1.15674 -0.00990502 2.9614e-10)
(1.17305 -0.0144625 2.70984e-10)
(1.19533 -0.0178611 2.41507e-10)
(1.22152 -0.0193611 2.10099e-10)
(1.24853 -0.0184081 1.79008e-10)
(1.27263 -0.0148057 1.49779e-10)
(1.2901 -0.00883259 1.23165e-10)
(1.29798 -0.00124172 9.94636e-11)
(1.29465 0.00687583 7.91154e-11)
(1.28019 0.0143089 6.32484e-11)
(1.25635 0.0200065 5.39377e-11)
(1.22614 0.0232953 5.3884e-11)
(1.19318 0.0239764 6.52979e-11)
(1.16102 0.0222819 8.82669e-11)
(1.13261 0.0187258 1.19596e-10)
(1.11011 0.0139424 1.53194e-10)
(1.09464 0.00855961 1.8206e-10)
(1.08673 0.00315183 2.00714e-10)
(1.0858 -0.00178893 2.06691e-10)
(1.0913 -0.0058527 2.0058e-10)
(1.10125 -0.00870619 1.85052e-10)
(1.11459 -0.0102547 1.63673e-10)
(1.12873 -0.0101602 1.39595e-10)
(1.14156 -0.00956355 1.17527e-10)
(1.15497 -0.00527047 8.75896e-11)
(1.0001 -0.0010186 2.27707e-22)
(1.00154 -0.00306641 6.94022e-21)
(1.00482 -0.00529984 1.37724e-20)
(1.00991 -0.00781817 1.401e-20)
(1.0172 -0.0106625 -5.78928e-20)
(1.02695 -0.0137264 3.25707e-20)
(1.03938 -0.0167758 -1.39334e-19)
(1.05436 -0.0193266 -1.71826e-18)
(1.0713 -0.0208465 -5.72782e-21)
(1.08912 -0.020725 6.63788e-18)
(1.10605 -0.0185794 2.98496e-18)
(1.12035 -0.0147223 -1.22106e-17)
(1.1308 -0.00942199 -1.97761e-17)
(1.13633 -0.00298783 -1.35901e-17)
(1.1361 0.00421312 -3.96432e-18)
(1.12952 0.0115275 3.41803e-18)
(1.11677 0.0178018 8.66633e-18)
(1.09925 0.0218398 1.24599e-17)
(1.07937 0.022844 1.09246e-17)
(1.05999 0.0205226 -3.11697e-18)
(1.044 0.0150701 5.05075e-18)
(1.03394 0.00715019 -2.4e-18)
(1.03167 -0.0020886 -6.06763e-16)
(1.03791 -0.0108971 9.8364e-16)
(1.05154 -0.0169869 1.13505e-14)
(1.06903 -0.0182161 1.8265e-14)
(1.08506 -0.0137775 1.13441e-14)
(1.09446 -0.00493547 3.09951e-15)
(1.09431 0.0055755 3.55642e-16)
(1.08471 0.0149559 -6.42192e-16)
(1.06799 0.0213868 -3.14665e-15)
(1.04736 0.0241321 7.23566e-15)
(1.02608 0.0231106 4.39781e-14)
(1.0072 0.018471 -8.71268e-14)
(0.993665 0.010443 -7.90952e-13)
(0.988305 -0.000469512 -2.87103e-13)
(0.9936 -0.0129895 1.08506e-11)
(1.01055 -0.0245603 4.3976e-11)
(1.03707 -0.0316619 8.68019e-11)
(1.06734 -0.0313324 1.03065e-10)
(1.09338 -0.0230209 7.83891e-11)
(1.1083 -0.0092059 3.84756e-11)
(1.10902 0.00588552 1.10448e-11)
(1.0968 0.018373 -4.00725e-14)
(1.07572 0.0261324 -2.10824e-12)
(1.05058 0.0287894 -1.31945e-12)
(1.02553 0.0268671 1.35435e-12)
(1.00397 0.0209556 6.35772e-12)
(0.988899 0.0114144 -8.55446e-13)
(0.983296 -0.00127206 -7.3663e-11)
(0.989778 -0.0156815 -2.98238e-10)
(1.0093 -0.0288571 -7.05003e-10)
(1.03954 -0.0368198 -1.1534e-09)
(1.07426 -0.0363073 -1.38286e-09)
(1.10465 -0.026722 -1.24673e-09)
(1.12266 -0.01079 -8.51772e-10)
(1.12422 0.00669881 -4.29785e-10)
(1.11044 0.0211187 -1.38461e-10)
(1.08622 0.0297669 -3.58385e-12)
(1.05766 0.0321946 2.969e-11)
(1.02993 0.0293309 2.34616e-11)
(1.00676 0.0223274 4.69972e-12)
(0.99088 0.0119476 -4.21882e-11)
(0.984798 -0.00116553 -1.57845e-10)
(0.990769 -0.0156187 -3.71211e-10)
(1.00956 -0.0286749 -6.60096e-10)
(1.03885 -0.0367333 -9.43942e-10)
(1.07276 -0.0368219 -1.12042e-09)
(1.10326 -0.0281887 -1.11837e-09)
(1.1229 -0.0129246 -9.37642e-10)
(1.1272 0.00479321 -6.5173e-10)
(1.11599 0.020357 -3.61942e-10)
(1.09298 0.0304317 -1.44369e-10)
(1.06401 0.0338211 -2.24152e-11)
(1.03491 0.0311603 3.00905e-11)
(1.01025 0.0238298 6.31007e-11)
(0.993343 0.0129992 1.18325e-10)
(0.986926 -0.00040714 2.08202e-10)
(0.993158 -0.0148972 3.17911e-10)
(1.01235 -0.0278089 4.26373e-10)
(1.0416 -0.0358248 5.24108e-10)
(1.07479 -0.036393 6.12896e-10)
(1.10439 -0.0290004 6.92752e-10)
(1.12387 -0.0154386 7.48311e-10)
(1.12954 0.000942375 7.47624e-10)
(1.12105 0.0163783 6.63247e-10)
(1.10101 0.0277486 4.99222e-10)
(1.07395 0.0332632 2.9902e-10)
(1.04505 0.0326066 1.28128e-10)
(1.01914 0.0264996 4.14337e-11)
(1.00039 0.016023 5.85194e-11)
(0.992296 0.00237758 1.61846e-10)
(0.997366 -0.0126694 3.13273e-10)
(1.01592 -0.0263733 4.73708e-10)
(1.04507 -0.035487 6.14857e-10)
(1.07893 -0.0375111 7.21607e-10)
(1.11021 -0.0318291 7.89329e-10)
(1.13245 -0.0199613 8.19433e-10)
(1.14168 -0.0048633 8.13589e-10)
(1.13713 0.0101937 7.68309e-10)
(1.12077 0.0225393 6.75512e-10)
(1.09626 0.0305091 5.32776e-10)
(1.06786 0.0333687 3.58701e-10)
(1.03986 0.0310185 1.96433e-10)
(1.01637 0.0237232 9.42609e-11)
(1.00133 0.0120795 7.69594e-11)
(0.998223 -0.0026634 1.33689e-10)
(1.00901 -0.0182065 2.30506e-10)
(1.03286 -0.0313728 3.32376e-10)
(1.06576 -0.0390593 4.17079e-10)
(1.1014 -0.0394278 4.76605e-10)
(1.13297 -0.0325987 5.11927e-10)
(1.15495 -0.0205286 5.27528e-10)
(1.16433 -0.00624324 5.27931e-10)
(1.16103 0.00716838 5.15398e-10)
(1.14739 0.0173891 4.8801e-10)
(1.12726 0.0232697 4.39792e-10)
(1.10478 0.0246836 3.66471e-10)
(1.08371 0.0220333 2.74367e-10)
(1.06729 0.0158275 1.83091e-10)
(1.05837 0.00668296 1.16678e-10)
(1.05913 -0.00429823 8.9996e-11)
(1.07035 -0.0152499 1.02227e-10)
(1.09054 -0.0238267 1.40983e-10)
(1.11601 -0.0280058 1.90996e-10)
(1.14175 -0.0269067 2.40376e-10)
(1.16296 -0.0211275 2.82379e-10)
(1.17633 -0.0124702 3.14356e-10)
(1.18071 -0.00328077 3.36103e-10)
(1.1771 0.00425851 3.48725e-10)
(1.16806 0.00863379 3.54029e-10)
(1.157 0.00920322 3.53844e-10)
(1.14735 0.00613262 3.49222e-10)
(1.14198 0.000159494 3.4001e-10)
(1.14296 -0.00767486 3.253e-10)
(1.15146 -0.0161953 3.04545e-10)
(1.16772 -0.024142 2.78542e-10)
(1.19085 -0.0301783 2.4956e-10)
(1.2187 -0.0330011 2.20519e-10)
(1.24787 -0.0316074 1.9378e-10)
(1.2742 -0.0256208 1.70302e-10)
(1.29357 -0.0155117 1.49613e-10)
(1.30273 -0.00258797 1.30525e-10)
(1.29993 0.011262 1.12252e-10)
(1.28529 0.0239562 9.54038e-11)
(1.26069 0.0336903 8.23853e-11)
(1.22935 0.0393142 7.69059e-11)
(1.19511 0.0404961 8.24814e-11)
(1.16175 0.0376432 1.0035e-10)
(1.13231 0.0316414 1.27977e-10)
(1.10903 0.0235759 1.59335e-10)
(1.09302 0.0145122 1.87041e-10)
(1.08479 0.00541678 2.05101e-10)
(1.08372 -0.00289102 2.10715e-10)
(1.08925 -0.00972618 2.04492e-10)
(1.09932 -0.0145361 1.89429e-10)
(1.11289 -0.017145 1.69495e-10)
(1.12719 -0.0170008 1.48139e-10)
(1.14029 -0.0159847 1.29423e-10)
(1.15354 -0.00875268 1.06196e-10)
(1.0001 -0.00141112 -6.54056e-20)
(1.00149 -0.0042497 -7.61774e-19)
(1.00467 -0.00736097 -1.33862e-18)
(1.00964 -0.0108952 -2.22062e-18)
(1.01685 -0.0149222 -3.19794e-18)
(1.02664 -0.019303 -2.85977e-18)
(1.0393 -0.0237145 -1.00846e-17)
(1.05481 -0.0274529 -7.28169e-18)
(1.07259 -0.029744 3.23596e-17)
(1.09153 -0.0296438 1.01218e-17)
(1.10956 -0.0265764 -1.47091e-16)
(1.12475 -0.0210776 -2.90387e-16)
(1.1359 -0.0135471 -2.41745e-16)
(1.14194 -0.00441406 -6.79496e-17)
(1.14192 0.00586824 4.57953e-17)
(1.13501 0.016421 7.84968e-17)
(1.12122 0.0255444 7.36808e-17)
(1.10209 0.0314529 5.47812e-17)
(1.08031 0.0329694 -9.60598e-18)
(1.05904 0.0296664 -8.46801e-17)
(1.04144 0.0218106 2.21013e-16)
(1.03034 0.0103207 -1.21087e-15)
(1.0279 -0.0031991 -7.05038e-15)
(1.03519 -0.0162297 3.76924e-14)
(1.05117 -0.0253442 2.011e-13)
(1.07188 -0.0272346 3.26731e-13)
(1.09092 -0.0206125 2.41464e-13)
(1.10202 -0.00741376 8.45091e-14)
(1.10184 0.00816153 9.20799e-15)
(1.09081 0.0218973 -1.26769e-14)
(1.07192 0.0311797 -1.53979e-14)
(1.04895 0.0350744 7.66068e-14)
(1.02544 0.0335846 1.66687e-13)
(1.00454 0.0269605 -8.734e-13)
(0.989251 0.0154601 -3.36289e-12)
(0.982755 -0.000350709 3.66744e-12)
(0.988188 -0.01877 4.96326e-11)
(1.00724 -0.0360399 1.48833e-10)
(1.03782 -0.0467534 2.63598e-10)
(1.07299 -0.0462931 3.22235e-10)
(1.10297 -0.0338173 2.75816e-10)
(1.11948 -0.0131885 1.59862e-10)
(1.11926 0.00911489 5.92309e-11)
(1.10434 0.0272869 6.83528e-12)
(1.07997 0.0383249 -8.71223e-12)
(1.05174 0.041914 -6.46135e-12)
(1.02411 0.0390096 7.21385e-12)
(1.00039 0.0305285 2.39501e-11)
(0.983421 0.0169125 -3.20744e-11)
(0.976162 -0.00130122 -3.66591e-10)
(0.981562 -0.0222331 -1.22526e-09)
(1.00132 -0.0417038 -2.59813e-09)
(1.03384 -0.053846 -4.02316e-09)
(1.07278 -0.0535813 -4.79885e-09)
(1.10817 -0.0396785 -4.48087e-09)
(1.13011 -0.0160696 -3.25416e-09)
(1.13305 0.00992887 -1.7851e-09)
(1.11792 0.0311955 -6.61903e-10)
(1.09065 0.0436844 -7.5981e-11)
(1.05867 0.0469341 1.04162e-10)
(1.028 0.0425986 9.51448e-11)
(1.00244 0.0325433 2.31068e-11)
(0.984475 0.0178311 -1.14855e-10)
(0.976728 -0.000859374 -3.84052e-10)
(0.982132 -0.0217803 -8.04433e-10)
(1.00216 -0.0410183 -1.29236e-09)
(1.03437 -0.0531592 -1.71054e-09)
(1.07188 -0.0536682 -1.95099e-09)
(1.10551 -0.0413687 -1.95441e-09)
(1.12712 -0.0193026 -1.70386e-09)
(1.13205 0.00644536 -1.25594e-09)
(1.12019 0.029136 -7.47601e-10)
(1.09552 0.0438578 -3.26104e-10)
(1.06429 0.0488562 -6.5938e-11)
(1.0328 0.0451107 5.57023e-11)
(1.00592 0.034666 1.15607e-10)
(0.987319 0.019131 1.78466e-10)
(0.980306 -0.000324097 2.6216e-10)
(0.987656 -0.0215794 3.54208e-10)
(1.00972 -0.0405722 4.46018e-10)
(1.04279 -0.0522145 5.40219e-10)
(1.07947 -0.0527288 6.3795e-10)
(1.11117 -0.0415749 7.34177e-10)
(1.13092 -0.0216649 8.16405e-10)
(1.13525 0.00196888 8.54353e-10)
(1.12455 0.0239413 8.04354e-10)
(1.10212 0.0399581 6.46109e-10)
(1.07291 0.0476511 4.16107e-10)
(1.0422 0.0466565 1.98352e-10)
(1.01487 0.0379304 7.62778e-11)
(0.995348 0.0228311 8.66182e-11)
(0.987665 0.00294148 2.0942e-10)
(0.994732 -0.0191165 3.92583e-10)
(1.01667 -0.0391085 5.84052e-10)
(1.04973 -0.052104 7.49365e-10)
(1.08696 -0.0544742 8.7205e-10)
(1.12027 -0.045519 9.47179e-10)
(1.14279 -0.0277084 9.76127e-10)
(1.1506 -0.00555119 9.62012e-10)
(1.14333 0.0161102 9.03453e-10)
(1.12365 0.0334718 7.92559e-10)
(1.096 0.0443366 6.25901e-10)
(1.06516 0.0478938 4.23807e-10)
(1.03557 0.0441365 2.36052e-10)
(1.01142 0.0333988 1.18944e-10)
(0.996855 0.0164009 1.00224e-10)
(0.995591 -0.00509812 1.64531e-10)
(1.00949 -0.0276355 2.70042e-10)
(1.0371 -0.0464286 3.76458e-10)
(1.07345 -0.0569554 4.61083e-10)
(1.11149 -0.0567179 5.18318e-10)
(1.14404 -0.0461149 5.51665e-10)
(1.16556 -0.0281367 5.66725e-10)
(1.1732 -0.00722739 5.67602e-10)
(1.16716 0.0121342 5.55249e-10)
(1.15024 0.0266207 5.26358e-10)
(1.12681 0.0346398 4.74092e-10)
(1.10154 0.0361095 3.94416e-10)
(1.07864 0.0316903 2.95423e-10)
(1.06167 0.0221372 1.99426e-10)
(1.05379 0.00834392 1.32314e-10)
(1.05728 -0.00801567 1.08599e-10)
(1.07256 -0.0240608 1.25335e-10)
(1.09726 -0.0362323 1.67814e-10)
(1.12655 -0.0416015 2.19475e-10)
(1.15459 -0.0390793 2.68383e-10)
(1.17625 -0.0297926 3.08552e-10)
(1.18838 -0.0165534 3.38266e-10)
(1.19022 -0.00284171 3.5791e-10)
(1.18328 0.00820596 3.68661e-10)
(1.17063 0.0144807 3.72083e-10)
(1.15607 0.015156 3.69799e-10)
(1.1433 0.0105571 3.62812e-10)
(1.13539 0.00178028 3.50966e-10)
(1.1346 -0.00970863 3.33362e-10)
(1.14235 -0.0222842 3.09758e-10)
(1.15911 -0.0341618 2.81843e-10)
(1.18401 -0.0433578 2.53213e-10)
(1.21453 -0.0478743 2.27826e-10)
(1.2467 -0.0461638 2.08037e-10)
(1.27578 -0.0376592 1.93598e-10)
(1.29726 -0.0230872 1.82104e-10)
(1.30768 -0.00440526 1.70382e-10)
(1.30529 0.0156111 1.56101e-10)
(1.29023 0.0339427 1.39112e-10)
(1.26457 0.047981 1.22052e-10)
(1.23176 0.0560751 1.09811e-10)
(1.19592 0.0577675 1.07635e-10)
(1.16106 0.0536707 1.18432e-10)
(1.13039 0.0450838 1.40712e-10)
(1.10621 0.0335808 1.68626e-10)
(1.08963 0.0206906 1.94286e-10)
(1.08114 0.00778389 2.10984e-10)
(1.08006 -0.00399427 2.15506e-10)
(1.08578 -0.013679 2.08591e-10)
(1.09618 -0.0205048 1.93778e-10)
(1.11019 -0.0241813 1.75613e-10)
(1.12476 -0.0239759 1.5787e-10)
(1.13825 -0.0224496 1.43607e-10)
(1.15112 -0.0121543 1.29206e-10)
(1.0001 -0.00178738 -4.02439e-18)
(1.00141 -0.00538566 -1.22496e-17)
(1.00444 -0.00935623 -1.0664e-17)
(1.00924 -0.0139119 -1.38779e-17)
(1.01632 -0.0191642 -1.27358e-17)
(1.02612 -0.0249538 -1.82294e-17)
(1.03908 -0.0308757 -5.16371e-17)
(1.05528 -0.0359813 1.12238e-16)
(1.07423 -0.0392242 8.64466e-17)
(1.09473 -0.0392177 -7.28313e-16)
(1.11428 -0.0351463 -1.13125e-15)
(1.13067 -0.0278866 -3.80039e-16)
(1.14275 -0.0179929 4.80039e-16)
(1.14946 -0.00597163 7.73037e-16)
(1.14977 0.00770862 5.8899e-16)
(1.14247 0.0219325 2.70572e-16)
(1.12731 0.0343043 1.84268e-17)
(1.10599 0.0423146 -2.15972e-16)
(1.08159 0.0443775 -6.20703e-16)
(1.05769 0.0399581 -2.45974e-16)
(1.03783 0.0294188 -9.448e-16)
(1.02521 0.0139223 -1.02867e-14)
(1.02244 -0.00450757 3.73801e-14)
(1.03111 -0.0225348 3.73094e-14)
(1.05044 -0.0353472 -5.41731e-13)
(1.07577 -0.0381062 -8.92312e-13)
(1.09916 -0.0288487 -3.62512e-13)
(1.11268 -0.0103763 4.38968e-14)
(1.11237 0.0112075 5.58476e-14)
(1.0992 0.0299282 -3.26029e-14)
(1.07721 0.0423151 6.73433e-15)
(1.051 0.0473648 2.94315e-13)
(1.02446 0.0453123 -3.06482e-13)
(1.00078 0.0365661 -2.93833e-12)
(0.983074 0.0213369 1.68042e-12)
(0.974907 7.32518e-05 2.41994e-11)
(0.980236 -0.0252161 -7.95072e-12)
(1.00159 -0.0493733 -2.57037e-10)
(1.0372 -0.0645533 -6.41083e-10)
(1.07923 -0.0639222 -7.5763e-10)
(1.11543 -0.0462607 -4.77441e-10)
(1.13489 -0.0173219 -1.3002e-10)
(1.13356 0.0134849 3.57788e-11)
(1.11475 0.0380263 4.33881e-11)
(1.0856 0.0524311 6.62827e-12)
(1.05305 0.0567123 -5.27717e-12)
(1.02196 0.0525357 2.52119e-11)
(0.995368 0.0412987 4.27227e-11)
(0.975589 0.0235335 -1.97585e-10)
(0.965354 -0.000327247 -1.13893e-09)
(0.968338 -0.0282447 -3.05966e-09)
(0.987792 -0.0549917 -5.6262e-09)
(1.02306 -0.0725642 -8.01913e-09)
(1.0672 -0.0734932 -9.40679e-09)
(1.10867 -0.0553845 -9.19837e-09)
(1.13584 -0.0232069 -7.32615e-09)
(1.14157 0.0128145 -4.546e-09)
(1.12602 0.0423226 -2.009e-09)
(1.09575 0.0593841 -4.32517e-10)
(1.05974 0.063509 1.88629e-10)
(1.02525 0.05744 2.47512e-10)
(0.996412 0.044089 7.30394e-11)
(0.975681 0.0248076 -2.465e-10)
(0.966171 1.72548e-05 -7.41512e-10)
(0.971916 -0.0283239 -1.35602e-09)
(0.994906 -0.0547953 -1.90937e-09)
(1.03181 -0.0716104 -2.25443e-09)
(1.074 -0.0724097 -2.39042e-09)
(1.11082 -0.0558015 -2.37615e-09)
(1.13361 -0.0261668 -2.1926e-09)
(1.13803 0.00828205 -1.77847e-09)
(1.12454 0.0386334 -1.18547e-09)
(1.09756 0.0583762 -5.92452e-10)
(1.06366 0.0651681 -1.62484e-10)
(1.0294 0.0603346 6.92643e-11)
(1.00001 0.046566 1.73549e-10)
(0.979717 0.0258115 2.32541e-10)
(0.972711 -0.0005656 2.8781e-10)
(0.982326 -0.0295975 3.59154e-10)
(1.00849 -0.0553769 4.65818e-10)
(1.04618 -0.0707142 6.09456e-10)
(1.08665 -0.0706006 7.60469e-10)
(1.12039 -0.0547211 8.80682e-10)
(1.14008 -0.0274626 9.53453e-10)
(1.14249 0.00414675 9.75561e-10)
(1.12871 0.032956 9.24138e-10)
(1.10295 0.0535668 7.68257e-10)
(1.0708 0.0632158 5.23786e-10)
(1.03778 0.0616149 2.7413e-10)
(1.00889 0.0499173 1.22602e-10)
(0.988865 0.0296274 1.23544e-10)
(0.982278 0.00269483 2.57627e-10)
(0.992223 -0.0271641 4.61922e-10)
(1.0182 -0.0538737 6.74448e-10)
(1.05532 -0.0706421 8.5733e-10)
(1.09562 -0.0727945 9.94739e-10)
(1.13052 -0.0597517 1.08157e-09)
(1.15303 -0.0351175 1.11637e-09)
(1.15929 -0.005113 1.09962e-09)
(1.14918 0.0236782 1.03045e-09)
(1.12594 0.0462 9.02838e-10)
(1.09473 0.0597479 7.14211e-10)
(1.06098 0.0635737 4.86949e-10)
(1.0295 0.0578799 2.76845e-10)
(1.00471 0.0430791 1.47048e-10)
(0.991017 0.0199998 1.26461e-10)
(0.992244 -0.00897174 1.94074e-10)
(1.00983 -0.0389525 3.01284e-10)
(1.04134 -0.063357 4.05126e-10)
(1.08079 -0.0762704 4.84473e-10)
(1.12052 -0.0747345 5.36678e-10)
(1.15331 -0.0596337 5.67349e-10)
(1.17383 -0.035102 5.82775e-10)
(1.17951 -0.00703548 5.86579e-10)
(1.17075 0.018656 5.78318e-10)
(1.15062 0.0375654 5.52556e-10)
(1.12391 0.0476103 5.00502e-10)
(1.09584 0.0487591 4.17697e-10)
(1.07111 0.0419608 3.14205e-10)
(1.05383 0.0282482 2.15684e-10)
(1.04759 0.00887917 1.50101e-10)
(1.05469 -0.0136802 1.31174e-10)
(1.07481 -0.0352337 1.53219e-10)
(1.10427 -0.0508222 1.98948e-10)
(1.13695 -0.056677 2.50713e-10)
(1.16631 -0.0517617 2.96987e-10)
(1.18721 -0.0380164 3.32991e-10)
(1.19695 -0.0194471 3.58328e-10)
(1.1954 -0.000729213 3.74348e-10)
(1.18456 0.0140545 3.82578e-10)
(1.16797 0.0222385 3.84318e-10)
(1.14973 0.0228662 3.80621e-10)
(1.13377 0.0164691 3.71858e-10)
(1.12337 0.0045104 3.57315e-10)
(1.12108 -0.0111528 3.35929e-10)
(1.12872 -0.0284513 3.08278e-10)
(1.14691 -0.0449733 2.78067e-10)
(1.17446 -0.0578933 2.51168e-10)
(1.20813 -0.0643547 2.32533e-10)
(1.2432 -0.0622429 2.23487e-10)
(1.27452 -0.0509056 2.21359e-10)
(1.2975 -0.0314573 2.21172e-10)
(1.30878 -0.00658914 2.17877e-10)
(1.30665 0.020001 2.08068e-10)
(1.29131 0.0443216 1.91111e-10)
(1.26485 0.0629232 1.69841e-10)
(1.23087 0.0736243 1.50188e-10)
(1.19369 0.0758353 1.39147e-10)
(1.15753 0.0703978 1.41529e-10)
(1.1258 0.0590656 1.57169e-10)
(1.10087 0.043945 1.80522e-10)
(1.0839 0.0270575 2.03121e-10)
(1.07532 0.0101909 2.17426e-10)
(1.07442 -0.00518582 2.19829e-10)
(1.08057 -0.017815 2.11424e-10)
(1.0915 -0.0267158 1.96582e-10)
(1.10609 -0.0314375 1.8053e-10)
(1.12093 -0.0311228 1.67222e-10)
(1.13477 -0.0289251 1.58307e-10)
(1.14696 -0.0154066 1.53737e-10)
(1.00009 -0.00214092 3.69342e-18)
(1.00131 -0.00645534 1.37341e-17)
(1.00413 -0.0112571 1.13101e-17)
(1.00869 -0.0168368 1.33319e-17)
(1.01556 -0.0233652 4.27827e-17)
(1.02532 -0.0306825 -8.63412e-17)
(1.03861 -0.0383141 1.6466e-16)
(1.05566 -0.0450367 6.7967e-16)
(1.07612 -0.0494946 -2.34764e-15)
(1.09872 -0.0496838 -4.04289e-15)
(1.12026 -0.0444863 5.87287e-15)
(1.13817 -0.0353217 2.27641e-14)
(1.15146 -0.022947 2.80554e-14)
(1.15914 -0.00795404 1.68924e-14)
(1.15998 0.00931083 4.59372e-15)
(1.15223 0.02762 -1.93884e-15)
(1.13523 0.0437545 -4.07106e-15)
(1.11095 0.0542821 -4.91776e-15)
(1.08306 0.057097 -4.14003e-15)
(1.0557 0.051531 -2.9301e-16)
(1.03287 0.0380426 -3.61385e-14)
(1.01817 0.0180169 5.819e-14)
(1.01483 -0.00614521 6.5121e-13)
(1.02523 -0.0302277 -2.4718e-12)
(1.04901 -0.0476877 -1.48527e-11)
(1.08071 -0.0516125 -2.4974e-11)
(1.11012 -0.0390626 -1.9063e-11)
(1.12694 -0.0139929 -6.87715e-12)
(1.12633 0.014933 -7.94739e-13)
(1.11013 0.0394875 3.78572e-13)
(1.08393 0.0552775 5.36047e-13)
(1.05347 0.0614451 2.89782e-15)
(1.02305 0.0586874 -3.92244e-12)
(0.995853 0.0476534 3.98599e-12)
(0.974989 0.0284032 5.5068e-11)
(0.964271 0.00108414 -1.18948e-11)
(0.967978 -0.0320869 -8.52696e-10)
(0.989447 -0.0645127 -3.07269e-09)
(1.0286 -0.0855937 -5.86473e-09)
(1.07852 -0.0854371 -7.156e-09)
(1.12465 -0.0616531 -5.84488e-09)
(1.15124 -0.0222329 -3.14446e-09)
(1.15099 0.0192128 -9.77472e-10)
(1.12807 0.0512761 -1.89201e-11)
(1.09275 0.0691675 1.40892e-10)
(1.05451 0.0737239 8.13027e-11)
(1.01902 0.0678455 7.78214e-11)
(0.988742 0.0537154 5.40739e-12)
(0.965026 0.0319264 -6.59474e-10)
(0.95063 0.00233927 -2.48606e-09)
(0.951085 -0.0334385 -5.36106e-09)
(0.971794 -0.0690666 -8.35933e-09)
(1.01199 -0.0935728 -1.06487e-08)
(1.06253 -0.0964093 -1.2031e-08)
(1.1097 -0.0739875 -1.2333e-08)
(1.14099 -0.0324828 -1.09903e-08)
(1.14897 0.0148736 -7.91281e-09)
(1.13326 0.0541138 -4.2161e-09)
(1.10041 0.0768123 -1.33746e-09)
(1.06036 0.0821721 1.16406e-10)
(1.02156 0.0742537 4.39306e-10)
(0.988786 0.0573248 1.59333e-10)
(0.964978 0.0329561 -4.25719e-10)
(0.95434 0.00103453 -1.18179e-09)
(0.961999 -0.0361382 -1.90211e-09)
(0.989629 -0.0709688 -2.33008e-09)
(1.03216 -0.0927236 -2.38508e-09)
(1.0791 -0.0931949 -2.23693e-09)
(1.1187 -0.0711753 -2.11966e-09)
(1.14192 -0.032887 -2.07437e-09)
(1.14481 0.011002 -1.91245e-09)
(1.12865 0.0493843 -1.48053e-09)
(1.0986 0.0742956 -8.69859e-10)
(1.06163 0.0829194 -3.10915e-10)
(1.02446 0.0769225 4.8575e-11)
(0.992585 0.0595039 2.15189e-10)
(0.971003 0.0327847 2.71725e-10)
(0.964828 -0.00161651 3.04525e-10)
(0.977591 -0.039458 3.85987e-10)
(1.00822 -0.0725021 5.54862e-10)
(1.0502 -0.0913154 7.91543e-10)
(1.09375 -0.0898542 1.02792e-09)
(1.12893 -0.0682938 1.18976e-09)
(1.14838 -0.0327052 1.24241e-09)
(1.14891 0.00767271 1.20069e-09)
(1.132 0.043722 1.08423e-09)
(1.10266 0.0689069 8.86409e-10)
(1.06722 0.0802204 6.1515e-10)
(1.03166 0.077599 3.41109e-10)