/*--------------------------------*- C++ -*----------------------------------*\
  =========                 |
  \\      /  F ield         | OpenFOAM: The Open Source CFD Toolbox
   \\    /   O peration     | Website:  https://openfoam.org
    \\  /    A nd           | Version:  11
     \\/     M anipulation  |
\*---------------------------------------------------------------------------*/
FoamFile
{
    format      ascii;
    class       volVectorField;
    location    "6.705666";
    object      U;
}
// * * * * * * * * * * * * * * * * * * * * * * * * * * * * * * * * * * * * * //

dimensions      [0 1 -1 0 0 0 0];

internalField   nonuniform List<vector> 
7132
(
(1.00014 -0.000288499 2.00246e-18)
(1.00223 -0.000870496 6.74938e-18)
(1.00697 -0.00148812 7.61006e-18)
(1.01419 -0.00215312 9.14404e-18)
(1.02417 -0.00286871 1.14963e-17)
(1.03712 -0.00361491 1.19379e-17)
(1.0531 -0.0043525 1.13362e-17)
(1.07196 -0.0050042 1.04678e-17)
(1.0932 -0.00548728 9.73915e-18)
(1.11597 -0.00571436 9.29634e-18)
(1.13904 -0.00563693 8.92392e-18)
(1.16122 -0.00532247 8.80777e-18)
(1.18172 -0.00483337 7.60836e-18)
(1.19996 -0.00423263 7.94374e-18)
(1.21563 -0.00357555 -1.75499e-18)
(1.22859 -0.00289663 -1.14851e-17)
(1.23882 -0.0022158 -2.11749e-17)
(1.24633 -0.00154293 -1.47012e-17)
(1.25117 -0.00088506 -1.98014e-17)
(1.25341 -0.000252928 -3.21338e-17)
(1.25318 0.000335302 -3.52699e-17)
(1.2507 0.000855835 -4.01173e-17)
(1.24628 0.00128641 -4.7494e-17)
(1.24034 0.00161576 -6.0547e-17)
(1.23328 0.00185062 -6.01577e-17)
(1.22546 0.0020168 -7.46243e-17)
(1.21709 0.0021528 -9.22155e-17)
(1.2082 0.00229789 -1.0781e-16)
(1.19868 0.00247872 -1.21654e-16)
(1.18835 0.00269983 -1.22163e-16)
(1.17706 0.00294189 -1.16831e-16)
(1.16479 0.0031686 -1.07097e-16)
(1.15168 0.00333854 -1.01677e-16)
(1.13803 0.00341711 -8.54535e-17)
(1.12428 0.00338443 -6.60743e-17)
(1.1109 0.00323793 -4.36446e-17)
(1.09832 0.00299056 -1.66777e-17)
(1.08692 0.00266649 1.00187e-17)
(1.07695 0.002296 4.52722e-17)
(1.06853 0.00191069 8.61512e-17)
(1.06166 0.00153968 1.33617e-16)
(1.05621 0.00120678 1.87053e-16)
(1.05201 0.000928741 2.43498e-16)
(1.0488 0.000714475 3.0598e-16)
(1.04632 0.000565227 3.69775e-16)
(1.0443 0.000475554 4.32803e-16)
(1.04254 0.000434982 4.9276e-16)
(1.04085 0.000430093 5.4692e-16)
(1.03912 0.000446675 5.97467e-16)
(1.03729 0.000471612 6.41506e-16)
(1.03535 0.000494248 6.77894e-16)
(1.03333 0.000507127 7.08231e-16)
(1.03129 0.000506146 7.34288e-16)
(1.02928 0.000490232 7.53625e-16)
(1.02736 0.00046074 7.65791e-16)
(1.02559 0.0004207 7.6916e-16)
(1.02399 0.000374069 7.62615e-16)
(1.02259 0.00032506 7.46408e-16)
(1.02139 0.000277599 7.17609e-16)
(1.02037 0.000234935 6.75503e-16)
(1.01951 0.000199399 6.18798e-16)
(1.01877 0.000172305 5.47896e-16)
(1.01813 0.000153976 4.63925e-16)
(1.01754 0.000143864 3.65619e-16)
(1.01698 0.000140752 2.56508e-16)
(1.01642 0.000142985 1.3714e-16)
(1.01584 0.000148718 8.35685e-18)
(1.01523 0.000156136 -1.27285e-16)
(1.01459 0.000163642 -2.70025e-16)
(1.01392 0.000169974 -4.1672e-16)
(1.01323 0.000174276 -5.67806e-16)
(1.01253 0.000176103 -7.23634e-16)
(1.01182 0.00017538 -8.83576e-16)
(1.01112 0.00017234 -1.04946e-15)
(1.01044 0.000167424 -1.21962e-15)
(1.00978 0.000161202 -1.39517e-15)
(1.00915 0.000154279 -1.57581e-15)
(1.00854 0.000147229 -1.75946e-15)
(1.00797 0.00014054 -1.94519e-15)
(1.00742 0.000134584 -2.12821e-15)
(1.00689 0.0001296 -2.3068e-15)
(1.00638 0.000125697 -2.47869e-15)
(1.00588 0.000122864 -2.64165e-15)
(1.0054 0.000120995 -2.79614e-15)
(1.00492 0.000119916 -2.94001e-15)
(1.00444 0.000119413 -3.07479e-15)
(1.00396 0.000119261 -3.20062e-15)
(1.00348 0.00011925 -3.31667e-15)
(1.003 0.000119201 -3.42333e-15)
(1.00253 0.00011898 -3.51739e-15)
(1.00205 0.0001185 -3.59937e-15)
(1.00158 0.000117721 -3.66931e-15)
(1.00111 0.000116641 -3.72649e-15)
(1.00064 0.000115288 -3.77368e-15)
(1.00018 0.000113703 -3.80943e-15)
(0.999732 0.000111933 -3.83187e-15)
(0.999287 0.00011002 -3.83663e-15)
(0.99885 0.000107996 -3.81436e-15)
(0.998421 0.000105874 -3.75562e-15)
(0.998 0.000103645 -3.64511e-15)
(0.997589 0.000101282 -3.46827e-15)
(0.997188 9.87344e-05 -3.21209e-15)
(0.996797 9.59415e-05 -2.86593e-15)
(0.996417 9.28366e-05 -2.42923e-15)
(0.996051 8.93554e-05 -1.908e-15)
(0.995699 8.5429e-05 -1.32271e-15)
(0.995363 8.09539e-05 -7.08157e-16)
(0.995047 7.57299e-05 -1.10718e-16)
(0.994753 6.93729e-05 4.10837e-16)
(0.994487 6.12274e-05 7.97854e-16)
(0.994258 5.03273e-05 9.92795e-16)
(0.994078 3.5464e-05 9.45737e-16)
(0.993966 1.54064e-05 6.19849e-16)
(0.993945 -1.07216e-05 -7.64469e-18)
(0.99404 -4.29651e-05 -9.27665e-16)
(0.994274 -8.00934e-05 -2.09e-15)
(0.994664 -0.000119354 -3.38908e-15)
(0.995211 -0.000156583 -4.65955e-15)
(0.995897 -0.000186758 -5.69841e-15)
(0.996685 -0.000204936 -6.30423e-15)
(0.997518 -0.000207389 -6.35276e-15)
(0.998328 -0.000192632 -5.88098e-15)
(0.999046 -0.000162029 -5.15065e-15)
(0.999614 -0.000119751 -4.67179e-15)
(0.999997 -7.2029e-05 -5.1463e-15)
(1.00019 -2.58885e-05 -7.33182e-15)
(1.0002 1.23199e-05 -1.18351e-14)
(1.00009 3.81896e-05 -1.88754e-14)
(0.999896 4.99995e-05 -2.81014e-14)
(0.999686 4.87724e-05 -3.85141e-14)
(0.999504 3.76952e-05 -4.85613e-14)
(0.999383 2.11258e-05 -5.64161e-14)
(0.999334 3.49067e-06 -6.039e-14)
(0.999354 -1.1633e-05 -5.93828e-14)
(0.999427 -2.20597e-05 -5.32163e-14)
(0.999531 -2.71046e-05 -4.27358e-14)
(0.999645 -2.733e-05 -2.96367e-14)
(0.999751 -2.40766e-05 -1.60558e-14)
(0.999838 -1.89503e-05 -4.06283e-15)
(0.999903 -1.34005e-05 4.80963e-15)
(0.999946 -8.46498e-06 9.85456e-15)
(0.999971 -4.69216e-06 1.12355e-14)
(0.999984 -2.20169e-06 9.80707e-15)
(0.999989 -8.20768e-07 6.78158e-15)
(0.99999 -2.36446e-07 3.37104e-15)
(0.99999 -1.20668e-07 5.00091e-16)
(0.999991 -2.08182e-07 -1.33944e-15)
(0.999992 -3.27089e-07 -2.07871e-15)
(0.999993 -3.94023e-07 -1.95708e-15)
(0.999995 -3.90218e-07 -1.35256e-15)
(0.999997 -3.32783e-07 -6.30818e-16)
(0.999998 -2.50629e-07 -4.79014e-17)
(0.999999 -1.69184e-07 2.85322e-16)
(0.999999 -1.03755e-07 3.77471e-16)
(0.999999 -5.93841e-08 3.08443e-16)
(1 -3.3756e-08 1.74041e-16)
(1 -2.13963e-08 4.71885e-17)
(1 -1.6239e-08 -3.30457e-17)
(1 -1.43432e-08 -6.50271e-17)
(1 -1.16739e-08 -4.70347e-17)
(1.00014 -0.000862646 2.34746e-20)
(1.00221 -0.00260422 3.35398e-19)
(1.00692 -0.00445391 7.06102e-19)
(1.01408 -0.00644948 1.09348e-18)
(1.02403 -0.0086016 1.513e-18)
(1.03697 -0.0108514 1.90883e-18)
(1.05301 -0.0130818 2.2836e-18)
(1.07202 -0.0150572 2.09089e-18)
(1.09348 -0.0165254 5.42383e-18)
(1.11654 -0.0172136 7.05442e-18)
(1.13989 -0.0169713 4.37367e-18)
(1.16229 -0.0160133 4.70124e-18)
(1.18294 -0.0145307 1.30712e-19)
(1.20128 -0.0127157 1.21319e-17)
(1.21699 -0.0107361 4.68087e-17)
(1.22998 -0.0086949 9.2618e-17)
(1.2402 -0.00665058 1.26427e-16)
(1.24771 -0.00463041 1.28267e-16)
(1.25253 -0.00265341 8.93621e-17)
(1.25473 -0.00075049 1.57789e-17)
(1.25445 0.00102349 -7.4602e-17)
(1.25189 0.00259498 -1.68448e-16)
(1.24737 0.00389422 -2.57292e-16)
(1.24133 0.004885 -3.34908e-16)
(1.23418 0.00558679 -3.94734e-16)
(1.22631 0.00607829 -4.31927e-16)
(1.21792 0.00647768 -4.41978e-16)
(1.20904 0.00690584 -4.22127e-16)
(1.19955 0.00744503 -3.72599e-16)
(1.18925 0.00810945 -2.98796e-16)
(1.17797 0.00884013 -1.9502e-16)
(1.16566 0.00952615 -9.46493e-17)
(1.15247 0.0100412 9.41278e-18)
(1.13872 0.01028 1.2166e-16)
(1.12486 0.0101823 2.27396e-16)
(1.11136 0.00974057 3.44989e-16)
(1.0987 0.00899424 4.60452e-16)
(1.08723 0.00801655 5.76855e-16)
(1.07722 0.00689902 7.05506e-16)
(1.06879 0.00573707 8.40773e-16)
(1.06193 0.0046185 9.90231e-16)
(1.05652 0.00361507 1.14042e-15)
(1.05237 0.0027773 1.28548e-15)
(1.04922 0.00213212 1.42149e-15)
(1.04679 0.00168335 1.53715e-15)
(1.04483 0.00141463 1.63125e-15)
(1.04311 0.00129433 1.69449e-15)
(1.04144 0.00128187 1.72818e-15)
(1.03973 0.00133419 1.73672e-15)
(1.0379 0.00141156 1.72046e-15)
(1.03596 0.00148172 1.68509e-15)
(1.03393 0.00152212 1.63238e-15)
(1.03187 0.0015204 1.56092e-15)
(1.02985 0.00147336 1.47105e-15)
(1.02792 0.00138513 1.35741e-15)
(1.02613 0.00126487 1.21834e-15)
(1.02453 0.00112456 1.04908e-15)
(1.02312 0.000976941 8.45256e-16)
(1.02192 0.000833898 6.0639e-16)
(1.0209 0.000705263 3.3077e-16)
(1.02004 0.000598097 2.27242e-17)
(1.01932 0.00051639 -3.14161e-16)
(1.01868 0.000461131 -6.74576e-16)
(1.0181 0.000430687 -1.05148e-15)
(1.01754 0.000421392 -1.43743e-15)
(1.01698 0.000428257 -1.82328e-15)
(1.0164 0.000445706 -2.20802e-15)
(1.01579 0.000468258 -2.58439e-15)
(1.01515 0.000491076 -2.95057e-15)
(1.01448 0.000510346 -3.30539e-15)
(1.01379 0.000523474 -3.6479e-15)
(1.01308 0.000529111 -3.98446e-15)
(1.01237 0.000527034 -4.31448e-15)
(1.01166 0.000517937 -4.64112e-15)
(1.01098 0.000503165 -4.96488e-15)
(1.01032 0.000484433 -5.28388e-15)
(1.00968 0.000463574 -5.59975e-15)
(1.00908 0.000442322 -5.90455e-15)
(1.0085 0.000422159 -6.19304e-15)
(1.00795 0.000404209 -6.45771e-15)
(1.00742 0.000389196 -6.69169e-15)
(1.00691 0.00037745 -6.89555e-15)
(1.00641 0.00036894 -7.06529e-15)
(1.00592 0.000363347 -7.20366e-15)
(1.00544 0.000360143 -7.31262e-15)
(1.00496 0.000358684 -7.39414e-15)
(1.00448 0.000358288 -7.45404e-15)
(1.004 0.000358319 -7.48909e-15)
(1.00352 0.000358235 -7.49892e-15)
(1.00304 0.00035763 -7.48041e-15)
(1.00256 0.000356244 -7.43192e-15)
(1.00208 0.000353955 -7.35759e-15)
(1.00161 0.000350761 -7.25719e-15)
(1.00114 0.000346742 -7.13485e-15)
(1.00068 0.000342026 -6.99107e-15)
(1.00022 0.000336758 -6.82138e-15)
(0.999775 0.000331066 -6.61616e-15)
(0.999334 0.000325047 -6.35555e-15)
(0.998901 0.000318741 -6.01726e-15)
(0.998476 0.000312128 -5.57381e-15)
(0.99806 0.000305124 -4.9974e-15)
(0.997653 0.000297583 -4.26533e-15)
(0.997257 0.00028932 -3.35974e-15)
(0.996871 0.000280134 -2.2787e-15)
(0.996498 0.000269829 -1.0353e-15)
(0.99614 0.000258197 3.37204e-16)
(0.995797 0.00024493 1.78279e-15)
(0.995472 0.00022944 3.22991e-15)
(0.99517 0.000210604 4.59235e-15)
(0.994894 0.000186498 5.78484e-15)
(0.994654 0.000154277 6.73129e-15)
(0.994462 0.000110363 7.36936e-15)
(0.994335 5.10852e-05 7.65661e-15)
(0.994297 -2.62084e-05 7.56917e-15)
(0.99437 -0.000121738 7.12952e-15)
(0.994579 -0.000231955 6.43524e-15)
(0.994938 -0.000348786 5.67847e-15)
(0.995451 -0.000459925 5.14736e-15)
(0.996102 -0.000550445 5.17119e-15)
(0.996853 -0.000605573 6.02001e-15)
(0.99765 -0.000614071 7.75278e-15)
(0.998426 -0.000571329 1.00556e-14)
(0.999116 -0.000481214 1.2143e-14)
(0.99966 -0.000355986 1.27591e-14)
(1.00002 -0.000214134 1.03411e-14)
(1.0002 -7.66127e-05 3.33914e-15)
(1.00021 3.75438e-05 -9.35107e-15)
(1.00008 0.000115032 -2.79204e-14)
(0.99989 0.000150544 -5.13146e-14)
(0.999677 0.000146992 -7.71211e-14)
(0.999495 0.000113813 -1.01783e-13)
(0.999373 6.40187e-05 -1.21197e-13)
(0.999325 1.08918e-05 -1.31605e-13)
(0.999347 -3.47805e-05 -1.30581e-13)
(0.999422 -6.63629e-05 -1.17769e-13)
(0.999528 -8.17293e-05 -9.50979e-14)
(0.999644 -8.25233e-05 -6.63891e-14)
(0.999752 -7.27609e-05 -3.64372e-14)
(0.99984 -5.72854e-05 -9.87397e-15)
(0.999906 -4.04882e-05 9.86916e-15)
(0.999949 -2.5528e-05 2.11993e-14)
(0.999973 -1.40849e-05 2.44524e-14)
(0.999985 -6.53548e-06 2.14906e-14)
(0.99999 -2.3622e-06 1.49681e-14)
(0.999991 -6.15161e-07 7.54198e-15)
(0.99999 -2.94105e-07 1.24843e-15)
(0.999991 -5.88163e-07 -2.81771e-15)
(0.999992 -9.7117e-07 -4.4868e-15)
(0.999993 -1.18832e-06 -4.26562e-15)
(0.999995 -1.18335e-06 -2.97405e-15)
(0.999997 -1.01043e-06 -1.40964e-15)
(0.999998 -7.59874e-07 -1.34594e-16)
(0.999999 -5.10933e-07 6.02924e-16)
(0.999999 -3.11238e-07 8.16843e-16)
(0.999999 -1.76422e-07 6.7512e-16)
(1 -9.9254e-08 3.8529e-16)
(1 -6.26842e-08 1.08102e-16)
(1 -4.79572e-08 -6.90944e-17)
(1 -4.28639e-08 -1.40143e-16)
(1 -3.51944e-08 -1.01635e-16)
(1.00014 -0.00142887 1.99832e-22)
(1.00217 -0.00431552 3.62822e-21)
(1.00679 -0.00738799 2.49171e-21)
(1.01386 -0.0107151 1.08613e-20)
(1.02374 -0.0143194 -1.51431e-19)
(1.03667 -0.018107 2.45185e-19)
(1.05281 -0.0218844 -8.14732e-19)
(1.07209 -0.0252464 -1.5151e-18)
(1.09401 -0.0277593 6.33293e-18)
(1.11767 -0.0289305 -1.13614e-18)
(1.1416 -0.0284921 -3.81731e-17)
(1.16443 -0.0268448 -3.0796e-17)
(1.18539 -0.0243212 1.06512e-16)
(1.20392 -0.0212515 3.42334e-16)
(1.21972 -0.0179207 5.18435e-16)
(1.23274 -0.0144988 4.62529e-16)
(1.24297 -0.0110797 1.04541e-16)
(1.25045 -0.00770389 -4.86355e-16)
(1.25524 -0.00439852 -1.15083e-15)
(1.25738 -0.00121278 -1.70205e-15)
(1.25699 0.00176057 -2.06929e-15)
(1.25426 0.00439421 -2.25996e-15)
(1.24955 0.00656558 -2.2803e-15)
(1.2433 0.0082096 -2.13785e-15)
(1.23598 0.00935822 -1.84037e-15)
(1.22799 0.0101473 -1.39802e-15)
(1.21957 0.0107828 -8.29097e-16)
(1.21073 0.0114761 -1.6576e-16)
(1.20131 0.0123715 5.45139e-16)
(1.19106 0.0134942 1.24806e-15)
(1.17977 0.0147409 1.89366e-15)
(1.16737 0.0159178 2.44625e-15)
(1.15401 0.0168052 2.89356e-15)
(1.14004 0.0172212 3.24582e-15)
(1.12593 0.0170627 3.52571e-15)
(1.1122 0.0163182 3.76336e-15)
(1.09933 0.0150566 3.98529e-15)
(1.08773 0.0134037 4.20985e-15)
(1.07765 0.0115161 4.44528e-15)
(1.06921 0.00955583 4.68584e-15)
(1.06239 0.00767177 4.91381e-15)
(1.05708 0.00598508 5.10066e-15)
(1.05304 0.00458074 5.21413e-15)
(1.05002 0.00350364 5.22692e-15)
(1.04772 0.00275941 5.12295e-15)
(1.04586 0.00231946 4.90214e-15)
(1.04422 0.00212944 4.57829e-15)
(1.04261 0.00211996 4.17442e-15)
(1.04092 0.0022178 3.71607e-15)
(1.03909 0.0023556 3.22379e-15)
(1.03713 0.00247893 2.71006e-15)
(1.03508 0.00255002 2.17682e-15)
(1.03298 0.00254842 1.61377e-15)
(1.03092 0.00246922 1.00809e-15)
(1.02896 0.00231984 3.41275e-16)
(1.02715 0.0021162 -4.03602e-16)
(1.02554 0.0018788 -1.24037e-15)
(1.02413 0.00162936 -2.17715e-15)
(1.02293 0.00138802 -3.20973e-15)
(1.02192 0.00117142 -4.32692e-15)
(1.02108 0.000991448 -5.50759e-15)
(1.02037 0.000854755 -6.72559e-15)
(1.01975 0.000762916 -7.95142e-15)
(1.01918 0.000713057 -9.15376e-15)
(1.01863 0.000698872 -1.03073e-14)
(1.01808 0.000711837 -1.13881e-14)
(1.0175 0.000742465 -1.23832e-14)
(1.01689 0.000781457 -1.32865e-14)
(1.01625 0.000820632 -1.40982e-14)
(1.01557 0.000853567 -1.48269e-14)
(1.01486 0.00087592 -1.54816e-14)
(1.01415 0.000885462 -1.60767e-14)
(1.01343 0.000881878 -1.66249e-14)
(1.01272 0.000866393 -1.71351e-14)
(1.01203 0.000841325 -1.76124e-14)
(1.01136 0.000809609 -1.80516e-14)
(1.01072 0.000774362 -1.84441e-14)
(1.01011 0.000738526 -1.87742e-14)
(1.00953 0.000704602 -1.90229e-14)
(1.00898 0.000674482 -1.91748e-14)
(1.00845 0.000649377 -1.92168e-14)
(1.00794 0.000629826 -1.9148e-14)
(1.00744 0.000615763 -1.89755e-14)
(1.00695 0.000606632 -1.87122e-14)
(1.00646 0.00060153 -1.83756e-14)
(1.00598 0.000599355 -1.79769e-14)
(1.00549 0.000598952 -1.75253e-14)
(1.00501 0.000599241 -1.70211e-14)
(1.00452 0.00059931 -1.64588e-14)
(1.00404 0.000598476 -1.58335e-14)
(1.00355 0.000596308 -1.51415e-14)
(1.00307 0.00059261 -1.43871e-14)
(1.00259 0.000587385 -1.35797e-14)
(1.00212 0.000580779 -1.27293e-14)
(1.00165 0.000573018 -1.18402e-14)
(1.00118 0.000564349 -1.09035e-14)
(1.00073 0.000554997 -9.89375e-15)
(1.00028 0.000545124 -8.76846e-15)
(0.999838 0.000534807 -7.47292e-15)
(0.999405 0.000524016 -5.94711e-15)
(0.99898 0.000512612 -4.13352e-15)
(0.998563 0.000500356 -1.9845e-15)
(0.998156 0.000486936 5.32055e-16)
(0.99776 0.000472013 3.42704e-15)
(0.997374 0.000455249 6.68522e-15)
(0.997002 0.000436287 1.02615e-14)
(0.996645 0.000414612 1.40807e-14)
(0.996306 0.000389268 1.80445e-14)
(0.995987 0.000358438 2.20459e-14)
(0.995694 0.000319014 2.59883e-14)
(0.995434 0.000266391 2.98019e-14)
(0.99522 0.000194747 3.34476e-14)
(0.995068 9.80741e-05 3.69089e-14)
(0.994998 -2.8026e-05 4.01888e-14)
(0.995034 -0.000184031 4.33546e-14)
(0.995198 -0.000364286 4.66122e-14)
(0.995505 -0.000555719 5.03362e-14)
(0.995957 -0.000738273 5.50343e-14)
(0.996541 -0.000887494 6.11981e-14)
(0.997221 -0.000979062 6.90274e-14)
(0.997947 -0.000994358 7.80767e-14)
(0.998655 -0.000925588 8.69327e-14)
(0.999281 -0.00077889 9.30648e-14)
(0.99977 -0.000574261 9.29683e-14)
(1.00009 -0.000342051 8.26597e-14)
(1.00023 -0.000116778 5.84993e-14)
(1.00021 7.01063e-05 1.82374e-14)
(1.00007 0.000196541 -3.79273e-14)
(0.999867 0.000253656 -1.06629e-13)
(0.99965 0.000246188 -1.81129e-13)
(0.999468 0.000189732 -2.51868e-13)
(0.999349 0.000105867 -3.07962e-13)
(0.999306 1.66807e-05 -3.39496e-13)
(0.999334 -5.985e-05 -3.40074e-13)
(0.999415 -0.000112646 -3.08784e-13)
(0.999527 -0.000138157 -2.50778e-13)
(0.999647 -0.00013915 -1.76221e-13)
(0.999758 -0.000122391 -9.78737e-14)
(0.999848 -9.60527e-05 -2.80599e-14)
(0.999914 -6.75547e-05 2.40783e-14)
(0.999956 -4.2241e-05 5.42526e-14)
(0.999979 -2.29518e-05 6.32686e-14)
(0.999989 -1.03112e-05 5.59419e-14)
(0.999992 -3.4203e-06 3.91867e-14)
(0.999991 -6.42904e-07 1.99428e-14)
(0.999991 -2.59489e-07 3.54437e-15)
(0.999991 -8.79598e-07 -7.11271e-15)
(0.999992 -1.60623e-06 -1.15517e-14)
(0.999993 -2.0123e-06 -1.10609e-14)
(0.999995 -2.01362e-06 -7.75685e-15)
(0.999997 -1.71485e-06 -3.71397e-15)
(0.999998 -1.27995e-06 -3.96379e-16)
(0.999999 -8.50074e-07 1.53564e-15)
(0.999999 -5.08625e-07 2.10891e-15)
(1 -2.81679e-07 1.75417e-15)
(1 -1.55082e-07 1.00606e-15)
(1 -9.78749e-08 2.88229e-16)
(1 -7.68358e-08 -1.73897e-16)
(1 -7.0761e-08 -3.61701e-16)
(1 -5.90376e-08 -2.62462e-16)
(1.00014 -0.00198166 -2.95535e-20)
(1.00211 -0.00598771 -4.75534e-19)
(1.0066 -0.0102669 -8.45517e-19)
(1.01352 -0.0149259 -1.65748e-18)
(1.02326 -0.0200077 -1.78119e-18)
(1.03616 -0.02539 -1.66246e-18)
(1.05245 -0.0308066 -1.12451e-17)
(1.07214 -0.0356644 1.8093e-17)
(1.09475 -0.0393278 3.49216e-18)
(1.11935 -0.0410194 -1.41923e-16)
(1.14417 -0.0403272 -2.92384e-17)
(1.16767 -0.0379099 6.76532e-16)
(1.18909 -0.0342636 1.34595e-15)
(1.20787 -0.0298718 8.16602e-16)
(1.22381 -0.025145 -1.58803e-15)
(1.23686 -0.0203173 -5.47852e-15)
(1.24709 -0.0155105 -9.65563e-15)
(1.25456 -0.0107683 -1.27794e-14)
(1.25929 -0.00611707 -1.39665e-14)
(1.26134 -0.00161989 -1.29567e-14)
(1.26077 0.00258955 -1.05232e-14)
(1.2578 0.00631975 -7.35196e-15)
(1.25278 0.00938264 -3.75813e-15)
(1.24621 0.0116752 8.08218e-17)
(1.23862 0.013241 4.04003e-15)
(1.23047 0.0142819 7.99041e-15)
(1.22201 0.0151065 1.17642e-14)
(1.21324 0.0160334 1.51505e-14)
(1.20394 0.0172801 1.79332e-14)
(1.19378 0.0188843 1.99482e-14)
(1.18248 0.02069 2.11508e-14)
(1.16994 0.0224065 2.15757e-14)
(1.15632 0.0237062 2.13967e-14)
(1.14199 0.024321 2.08244e-14)
(1.1275 0.0241023 2.00409e-14)
(1.1134 0.0230363 1.92197e-14)
(1.10023 0.0212267 1.84401e-14)
(1.08842 0.0188586 1.77308e-14)
(1.07823 0.0161593 1.70644e-14)
(1.06978 0.0133627 1.63486e-14)
(1.06304 0.0106819 1.54726e-14)
(1.05787 0.00828978 1.43035e-14)
(1.05402 0.0063067 1.27499e-14)
(1.05119 0.0047953 1.07853e-14)
(1.04908 0.00376188 8.45243e-15)
(1.04739 0.0031636 5.86917e-15)
(1.04587 0.00292078 3.17892e-15)
(1.04434 0.00293246 5.27618e-16)
(1.04269 0.00309269 -1.97776e-15)
(1.04086 0.00330463 -4.29344e-15)
(1.03886 0.00349067 -6.42973e-15)
(1.03676 0.00359762 -8.44608e-15)
(1.03461 0.00359735 -1.04319e-14)
(1.03249 0.00348409 -1.24813e-14)
(1.03049 0.00326955 -1.46839e-14)
(1.02865 0.00297732 -1.71013e-14)
(1.02701 0.00263733 -1.97661e-14)
(1.0256 0.00228095 -2.26745e-14)
(1.02441 0.00193714 -2.57829e-14)
(1.02342 0.00162962 -2.90187e-14)
(1.0226 0.00137523 -3.22825e-14)
(1.02191 0.00118324 -3.54674e-14)
(1.02132 0.00105565 -3.84695e-14)
(1.02077 0.000988056 -4.11983e-14)
(1.02024 0.000971224 -4.35863e-14)
(1.0197 0.000992769 -4.55917e-14)
(1.01912 0.001039 -4.72075e-14)
(1.01851 0.00109655 -4.84452e-14)
(1.01786 0.00115375 -4.93395e-14)
(1.01717 0.00120147 -4.99373e-14)
(1.01645 0.00123361 -5.02897e-14)
(1.01572 0.00124713 -5.04518e-14)
(1.01499 0.0012417 -5.04621e-14)
(1.01427 0.00121922 -5.0348e-14)
(1.01357 0.00118309 -5.01158e-14)
(1.01289 0.00113759 -4.97495e-14)
(1.01225 0.00108721 -4.92201e-14)
(1.01163 0.00103618 -4.84789e-14)
(1.01105 0.000988058 -4.74803e-14)
(1.0105 0.000945521 -4.61884e-14)
(1.00997 0.000910267 -4.45895e-14)
(1.00945 0.000883024 -4.27036e-14)
(1.00895 0.000863657 -4.05693e-14)
(1.00846 0.000851335 -3.82454e-14)
(1.00797 0.000844736 -3.57896e-14)
(1.00748 0.000842261 -3.32453e-14)
(1.00699 0.000842251 -3.0637e-14)
(1.0065 0.000843156 -2.79568e-14)
(1.00601 0.000843679 -2.51847e-14)
(1.00551 0.000842859 -2.22956e-14)
(1.00502 0.000840096 -1.92773e-14)
(1.00453 0.000835134 -1.61414e-14)
(1.00404 0.000828001 -1.29117e-14)
(1.00356 0.000818924 -9.62137e-15)
(1.00308 0.000808242 -6.28913e-15)
(1.0026 0.000796322 -2.90389e-15)
(1.00214 0.000783494 5.82656e-16)
(1.00168 0.000769995 4.25803e-15)
(1.00122 0.00075594 8.22989e-15)
(1.00078 0.000741297 1.26141e-14)
(1.00034 0.000725877 1.75183e-14)
(0.999909 0.000709346 2.30317e-14)
(0.999487 0.000691267 2.92282e-14)
(0.999073 0.00067115 3.61626e-14)
(0.99867 0.000648503 4.38781e-14)
(0.998279 0.0006228 5.24062e-14)
(0.997901 0.000593315 6.17673e-14)
(0.997539 0.000558737 7.19838e-14)
(0.997197 0.000516617 8.3092e-14)
(0.996878 0.000462783 9.51716e-14)
(0.996591 0.000391035 1.08359e-13)
(0.996345 0.000293513 1.22834e-13)
(0.996157 0.00016205 1.3878e-13)
(0.996043 -9.40448e-06 1.5633e-13)
(0.996027 -0.000221641 1.75638e-13)
(0.996127 -0.000467146 1.97045e-13)
(0.996359 -0.000728288 2.21097e-13)
(0.996724 -0.000977828 2.48382e-13)
(0.99721 -0.00118239 2.79104e-13)
(0.997787 -0.00130865 3.12426e-13)
(0.998406 -0.00133092 3.45722e-13)
(0.999009 -0.00123829 3.7402e-13)
(0.999538 -0.00103898 3.89943e-13)
(0.999941 -0.000760271 3.84319e-13)
(1.00019 -0.000443807 3.47526e-13)
(1.00027 -0.000137067 2.71445e-13)
(1.00021 0.000116601 1.51821e-13)
(1.00004 0.000286757 -9.39003e-15)
(0.999825 0.000361166 -2.02503e-13)
(0.999603 0.000346448 -4.09619e-13)
(0.999422 0.0002643 -6.05904e-13)
(0.99931 0.000144769 -7.63208e-13)
(0.999276 1.86396e-05 -8.55787e-13)
(0.999314 -8.90235e-05 -8.66846e-13)
(0.999406 -0.000162795 -7.93701e-13)
(0.999527 -0.000197813 -6.4944e-13)
(0.999654 -0.000198107 -4.60309e-13)
(0.999769 -0.000173351 -2.595e-13)
(0.999862 -0.000135203 -7.92345e-14)
(0.999927 -9.42449e-05 5.63986e-14)
(0.999967 -5.80837e-05 1.35854e-13)
(0.999987 -3.07356e-05 1.60799e-13)
(0.999995 -1.30325e-05 1.43356e-13)
(0.999995 -3.61627e-06 1.01184e-13)
(0.999993 -7.47544e-08 5.2134e-14)
(0.999991 1.08901e-07 1.00187e-14)
(0.99999 -1.04352e-06 -1.75738e-14)
(0.999991 -2.24312e-06 -2.92717e-14)
(0.999993 -2.89519e-06 -2.82761e-14)
(0.999995 -2.90777e-06 -1.99669e-14)
(0.999997 -2.46074e-06 -9.66245e-15)
(0.999998 -1.81261e-06 -1.14688e-15)
(0.999999 -1.17937e-06 3.85139e-15)
(0.999999 -6.84946e-07 5.37014e-15)
(1 -3.64706e-07 4.49607e-15)
(1 -1.93596e-07 2.59585e-15)
(1 -1.22617e-07 7.57528e-16)
(1 -1.01083e-07 -4.32652e-16)
(1 -9.78109e-08 -9.21117e-16)
(1 -8.34481e-08 -6.73669e-16)
(1.00013 -0.00251425 -2.07563e-18)
(1.00201 -0.00760155 -6.97235e-18)
(1.00632 -0.0130619 -6.07342e-18)
(1.01302 -0.0190505 -9.18519e-18)
(1.02257 -0.0256429 4.2083e-19)
(1.03538 -0.0327002 -3.00047e-17)
(1.05184 -0.0398903 2.17784e-17)
(1.07207 -0.046407 8.34833e-17)
(1.09564 -0.0513844 -4.43711e-16)
(1.12156 -0.0536522 3.59151e-17)
(1.14763 -0.052613 2.46575e-15)
(1.17202 -0.049304 2.60956e-15)
(1.19404 -0.0444147 -5.01117e-15)
(1.21316 -0.0386024 -2.03975e-14)
(1.22924 -0.0324128 -3.72842e-14)
(1.24234 -0.0261396 -4.75586e-14)
(1.25256 -0.0199249 -4.60048e-14)
(1.25999 -0.0138033 -3.23052e-14)
(1.26467 -0.00778967 -1.00925e-14)
(1.26659 -0.00195402 1.48184e-14)
(1.26581 0.00352722 3.808e-14)
(1.2625 0.00838781 5.82806e-14)
(1.25705 0.0123586 7.51507e-14)
(1.25003 0.0152861 8.88485e-14)
(1.24207 0.0172229 9.9543e-14)
(1.23369 0.0184473 1.07169e-13)
(1.22518 0.0193921 1.11498e-13)
(1.21652 0.0205071 1.12263e-13)
(1.2074 0.0221007 1.09509e-13)
(1.19738 0.024226 1.03746e-13)
(1.18609 0.0266621 9.58659e-14)
(1.17336 0.0289986 8.68926e-14)
(1.15938 0.0307782 7.77188e-14)
(1.14457 0.0316316 6.89376e-14)
(1.12954 0.0313589 6.0867e-14)
(1.11494 0.029948 5.35748e-14)
(1.10136 0.0275455 4.69218e-14)
(1.08926 0.0244055 4.06101e-14)
(1.07892 0.0208351 3.42113e-14)
(1.07047 0.0171473 2.7247e-14)
(1.06384 0.0136252 1.92719e-14)
(1.05887 0.0104967 9.9961e-15)
(1.05527 0.00791894 -5.94207e-16)
(1.05272 0.00597203 -1.21872e-14)
(1.05088 0.00466077 -2.41787e-14)
(1.04941 0.00392473 -3.5824e-14)
(1.04806 0.00365479 -4.64282e-14)
(1.04663 0.00371437 -5.55148e-14)
(1.04502 0.00396132 -6.29162e-14)
(1.04318 0.00426686 -6.87602e-14)
(1.04114 0.00452889 -7.33987e-14)
(1.03896 0.00467853 -7.73026e-14)
(1.03674 0.00468062 -8.09575e-14)
(1.03455 0.00452968 -8.47757e-14)
(1.03248 0.00424317 -8.90593e-14)
(1.03059 0.00385389 -9.39622e-14)
(1.02893 0.0034025 -9.9494e-14)
(1.02752 0.00293114 -1.05529e-13)
(1.02634 0.0024783 -1.11822e-13)
(1.02537 0.00207525 -1.18064e-13)
(1.02459 0.00174397 -1.23912e-13)
(1.02394 0.00149627 -1.29049e-13)
(1.02338 0.00133426 -1.3322e-13)
(1.02286 0.00125164 -1.36252e-13)
(1.02235 0.0012357 -1.38071e-13)
(1.02182 0.00126969 -1.38683e-13)
(1.02125 0.00133525 -1.38175e-13)
(1.02064 0.0014146 -1.36677e-13)
(1.01997 0.00149231 -1.34347e-13)
(1.01927 0.00155646 -1.3135e-13)
(1.01854 0.00159918 -1.27832e-13)
(1.01779 0.0016167 -1.2392e-13)
(1.01704 0.00160886 -1.19699e-13)
(1.0163 0.00157839 -1.15204e-13)
(1.01558 0.00153 -1.10427e-13)
(1.0149 0.00146946 -1.05302e-13)
(1.01425 0.00140281 -9.97345e-14)
(1.01363 0.00133565 -9.36121e-14)
(1.01305 0.00127266 -8.68367e-14)
(1.01249 0.00121734 -7.93594e-14)
(1.01196 0.00117186 -7.11967e-14)
(1.01144 0.0011371 -6.2449e-14)
(1.01094 0.00111281 -5.32735e-14)
(1.01044 0.00109782 -4.38565e-14)
(1.00995 0.00109032 -3.43697e-14)
(1.00945 0.00108817 -2.49223e-14)
(1.00896 0.00108914 -1.555e-14)
(1.00846 0.00109118 -6.20596e-15)
(1.00796 0.00109258 3.2034e-15)
(1.00745 0.00109212 1.27744e-14)
(1.00695 0.00108902 2.25672e-14)
(1.00644 0.00108298 3.25749e-14)
(1.00594 0.0010741 4.27325e-14)
(1.00544 0.0010627 5.29431e-14)
(1.00495 0.00104926 6.31252e-14)
(1.00447 0.00103429 7.32505e-14)
(1.00399 0.00101823 8.33659e-14)
(1.00351 0.00100141 9.35881e-14)
(1.00304 0.000983996 1.04072e-13)
(1.00258 0.000965951 1.1498e-13)
(1.00213 0.000947043 1.26466e-13)
(1.00168 0.000926848 1.38682e-13)
(1.00124 0.000904797 1.51814e-13)
(1.0008 0.00088024 1.66129e-13)
(1.00037 0.00085251 1.82014e-13)
(0.999958 0.000820892 2.00001e-13)
(0.999553 0.00078443 2.20768e-13)
(0.999162 0.000741478 2.45126e-13)
(0.998789 0.000689025 2.73995e-13)
(0.998437 0.000621979 3.08392e-13)
(0.998113 0.000532776 3.49388e-13)
(0.997827 0.000411785 3.98028e-13)
(0.997592 0.000248947 4.55186e-13)
(0.997423 3.67236e-05 5.21386e-13)
(0.99734 -0.00022601 5.96792e-13)
(0.997359 -0.000530162 6.81557e-13)
(0.997494 -0.00085409 7.75769e-13)
(0.997746 -0.00116415 8.78894e-13)
(0.998106 -0.0014189 9.88718e-13)
(0.998545 -0.00157677 1.09992e-12)
(0.999022 -0.00160562 1.2027e-12)
(0.999485 -0.00149162 1.28217e-12)
(0.999882 -0.00124484 1.31882e-12)
(1.00017 -0.000899345 1.29049e-12)
(1.00032 -0.000507267 1.17559e-12)
(1.00032 -0.000128175 9.57288e-13)
(1.0002 0.000183488 6.28501e-13)
(1 0.000389517 1.96672e-13)
(0.999761 0.000474693 -3.12973e-13)
(0.999532 0.000447656 -8.56077e-13)
(0.999355 0.00033618 -1.37172e-12)
(0.999254 0.00017865 -1.79059e-12)
(0.999234 1.43779e-05 -2.04863e-12)
(0.999288 -0.000124655 -2.1031e-12)
(0.999395 -0.00021886 -1.94567e-12)
(0.999529 -0.000262267 -1.60713e-12)
(0.999666 -0.000260399 -1.15155e-12)
(0.999787 -0.000226086 -6.61045e-13)
(0.999881 -0.000174709 -2.16208e-13)
(0.999945 -0.00012019 1.21944e-13)
(0.999982 -7.25011e-05 3.23204e-13)
(0.999999 -3.68399e-05 3.90171e-13)
(1 -1.41711e-05 3.51659e-13)
(0.999999 -2.55315e-06 2.50662e-13)
(0.999994 1.33741e-06 1.31143e-13)
(0.999991 9.28431e-07 2.74628e-14)
(0.99999 -1.0554e-06 -4.11787e-14)
(0.999991 -2.90784e-06 -7.09152e-14)
(0.999993 -3.87833e-06 -6.92768e-14)
(0.999995 -3.90007e-06 -4.93376e-14)
(0.999997 -3.26595e-06 -2.41815e-14)
(0.999998 -2.35965e-06 -3.2037e-15)
(0.999999 -1.49011e-06 9.22564e-15)
(1 -8.27535e-07 1.31056e-14)
(1 -4.13859e-07 1.10587e-14)
(1 -2.06667e-07 6.43117e-15)
(1 -1.32626e-07 1.91587e-15)
(1 -1.19279e-07 -1.02714e-15)
(1 -1.24199e-07 -2.2488e-15)
(1 -1.08894e-07 -1.65601e-15)
(1.00012 -0.00301902 2.28435e-18)
(1.00189 -0.00913464 8.0979e-18)
(1.00595 -0.0157388 5.35764e-18)
(1.01233 -0.0230493 9.72558e-18)
(1.02159 -0.0311908 2.28301e-17)
(1.03424 -0.0400268 -9.83046e-17)
(1.05087 -0.0491713 4.69494e-16)
(1.07175 -0.057575 -9.95351e-16)
(1.09659 -0.0641056 -4.60665e-16)
(1.12429 -0.0670266 6.99488e-15)
(1.152 -0.065497 2.47354e-15)
(1.17751 -0.0611221 -3.14046e-14)
(1.20027 -0.0548248 -7.64291e-14)
(1.21978 -0.0474649 -9.03465e-14)
(1.23601 -0.0397357 -4.17845e-14)
(1.24913 -0.0319796 7.0174e-14)
(1.25932 -0.0243413 2.19698e-13)
(1.26671 -0.0168251 3.69428e-13)
(1.27132 -0.00941608 4.86968e-13)
(1.2731 -0.00218241 5.49748e-13)
(1.27204 0.00464819 5.7109e-13)
(1.2683 0.0107109 5.66504e-13)
(1.26229 0.0156281 5.4419e-13)
(1.25468 0.0191768 5.09183e-13)
(1.24621 0.0214179 4.64239e-13)
(1.23754 0.0227247 4.10581e-13)
(1.22899 0.023687 3.49353e-13)
(1.22051 0.0249211 2.8308e-13)
(1.21167 0.0268502 2.16354e-13)
(1.20187 0.029546 1.54974e-13)
(1.1906 0.0327036 1.03862e-13)
(1.17765 0.0357624 6.52595e-14)
(1.16319 0.0381051 3.82847e-14)
(1.14775 0.0392418 1.99459e-14)
(1.13202 0.0389165 6.56034e-15)
(1.11676 0.0371237 -5.16575e-15)
(1.10265 0.0340644 -1.77759e-14)
(1.09019 0.0300748 -3.31626e-14)
(1.07968 0.0255536 -5.27426e-14)
(1.07122 0.0209022 -7.75114e-14)
(1.06475 0.0164801 -1.07838e-13)
(1.06004 0.0125741 -1.4317e-13)
(1.05678 0.00937993 -1.81846e-13)
(1.05459 0.00699463 -2.21214e-13)
(1.05308 0.00541931 -2.58152e-13)
(1.0519 0.00457194 -2.89785e-13)
(1.05076 0.00430883 -3.14163e-13)
(1.04947 0.00445215 -3.30623e-13)
(1.04791 0.00481861 -3.39765e-13)
(1.04605 0.00524389 -3.4312e-13)
(1.04395 0.00559951 -3.42673e-13)
(1.04167 0.00580073 -3.40422e-13)
(1.03934 0.00580642 -3.3805e-13)
(1.03705 0.00561309 -3.36752e-13)
(1.03491 0.00524597 -3.3716e-13)
(1.03297 0.00474895 -3.39365e-13)
(1.03128 0.00417513 -3.42991e-13)
(1.02986 0.00357871 -3.47305e-13)
(1.02869 0.00300871 -3.51369e-13)
(1.02776 0.00250452 -3.54195e-13)
(1.02702 0.0020934 -3.54918e-13)
(1.02642 0.00178961 -3.5291e-13)