/*--------------------------------*- C++ -*----------------------------------*\
  =========                 |
  \\      /  F ield         | OpenFOAM: The Open Source CFD Toolbox
   \\    /   O peration     | Website:  https://openfoam.org
    \\  /    A nd           | Version:  11
     \\/     M anipulation  |
\*---------------------------------------------------------------------------*/
FoamFile
{
    format      ascii;
    class       volVectorField;
    location    "6.705666";
    object      vorticity;
}
// * * * * * * * * * * * * * * * * * * * * * * * * * * * * * * * * * * * * * //

dimensions      [0 0 -1 0 0 0 0];

internalField   nonuniform List<vector> 
7132
(
(-4.00032e-17 -1.82224e-15 -0.0115694)
(-1.29974e-16 -1.7908e-15 -0.0115943)
(-1.38079e-16 -2.39466e-17 -0.0116446)
(-1.64399e-16 -1.77359e-15 -0.0117241)
(-2.06443e-16 -1.76266e-15 -0.011836)
(-2.00581e-16 1.60162e-18 -0.0119818)
(-1.81051e-16 1.47009e-17 -0.0121623)
(-1.67538e-16 1.597e-17 -0.0123728)
(-8.63065e-17 1.17144e-17 -0.0126073)
(-4.48383e-17 8.15237e-18 -0.0128538)
(-9.10048e-17 4.88562e-18 -0.0130952)
(-8.21307e-17 1.31556e-17 -0.013333)
(-1.49553e-16 8.64034e-18 -0.013554)
(8.37635e-17 9.36335e-17 -0.013752)
(9.64497e-16 -1.54044e-15 -0.013924)
(2.07867e-15 -3.27525e-15 -0.0140676)
(2.94866e-15 -3.43729e-15 -0.0141825)
(2.85937e-15 -1.37351e-17 -0.0142685)
(2.18158e-15 -1.5604e-15 -0.0143254)
(9.57832e-16 -1.58004e-15 -0.014352)
(-7.86642e-16 7.98347e-17 -0.0143464)
(-2.56662e-15 1.22241e-16 -0.0143064)
(-4.19596e-15 2.04297e-16 -0.0142312)
(-5.48722e-15 1.26637e-16 -0.0141227)
(-6.69491e-15 3.61022e-15 -0.0139872)
(-7.14606e-15 3.20578e-16 -0.0138357)
(-6.99526e-15 3.31856e-16 -0.0136834)
(-6.28634e-15 2.9439e-16 -0.0135469)
(-5.0189e-15 1.43536e-16 -0.0134409)
(-3.53943e-15 3.42122e-15 -0.0133738)
(-1.57055e-15 1.58406e-15 -0.0133458)
(2.48961e-16 1.58318e-15 -0.0133477)
(2.22179e-15 -2.16438e-16 -0.0133634)
(4.1355e-15 1.3787e-15 -0.0133735)
(5.86263e-15 1.31663e-15 -0.0133593)
(7.76589e-15 1.24076e-15 -0.0133068)
(9.53583e-15 1.19809e-15 -0.0132086)
(1.13367e-14 -6.19498e-16 -0.0130653)
(1.32013e-14 9.73398e-16 -0.012885)
(1.50891e-14 2.586e-15 -0.0126816)
(1.71289e-14 7.25704e-16 -0.0124722)
(1.9064e-14 2.37064e-15 -0.0122742)
(2.08397e-14 -1.18927e-15 -0.0121024)
(2.23094e-14 4.7195e-16 -0.0119673)
(2.33457e-14 4.66498e-16 -0.0118734)
(2.3968e-14 2.23959e-15 -0.0118194)
(2.40337e-14 5.93555e-16 -0.0117992)
(2.36252e-14 -1.04707e-15 -0.0118033)
(2.27841e-14 7.88859e-16 -0.0118205)
(2.15781e-14 9.3045e-16 -0.01184)
(2.0144e-14 -6.67246e-16 -0.0118525)
(1.84839e-14 -2.29866e-15 -0.0118514)
(1.65327e-14 -4.53946e-16 -0.0118332)
(1.43485e-14 -3.15027e-16 -0.0117972)
(1.18324e-14 -1.55344e-16 -0.0117452)
(8.9837e-15 3.1763e-17 -0.0116811)
(5.73023e-15 -1.50721e-15 -0.0116094)
(1.97695e-15 4.50059e-16 -0.011535)
(-2.22438e-15 7.0905e-16 -0.0114623)
(-6.89467e-15 9.88112e-16 -0.011395)
(-1.19215e-14 1.27607e-15 -0.0113354)
(-1.72409e-14 -1.85999e-16 -0.0112848)
(-2.277e-14 1.82277e-15 -0.0112431)
(-2.83419e-14 3.39448e-16 -0.0112093)
(-3.38786e-14 5.50069e-16 -0.0111818)
(-3.92085e-14 2.48151e-15 -0.0111585)
(-4.43274e-14 9.09529e-16 -0.0111373)
(-4.91422e-14 2.78382e-15 -0.0111162)
(-5.36104e-14 1.15962e-15 -0.0110936)
(-5.77733e-14 -4.91642e-16 -0.0110685)
(-6.16019e-14 3.06915e-15 -0.0110401)
(-6.52162e-14 1.42298e-15 -0.0110082)
(-6.86182e-14 3.25824e-15 -0.0109732)
(-7.1833e-14 1.62576e-15 -0.0109356)
(-7.49047e-14 1.72235e-15 -0.0108959)
(-7.77744e-14 3.56184e-15 -0.0108549)
(-8.04787e-14 1.90818e-15 -0.0108133)
(-8.29019e-14 3.69384e-15 -0.0107716)
(-8.49568e-14 1.95286e-15 -0.0107301)
(-8.65897e-14 1.88138e-15 -0.0106889)
(-8.76978e-14 3.50477e-15 -0.0106482)
(-8.8337e-14 1.61373e-15 -0.0106076)
(-8.84729e-14 3.17452e-15 -0.0105669)
(-8.81501e-14 1.24892e-15 -0.0105258)
(-8.74519e-14 1.05173e-15 -0.0104838)
(-8.63871e-14 2.6061e-15 -0.0104406)
(-8.50682e-14 6.84131e-16 -0.0103958)
(-8.34483e-14 2.22706e-15 -0.0103489)
(-8.15117e-14 2.72418e-16 -0.0102999)
(-7.92603e-14 2.56926e-17 -0.0102483)
(-7.6651e-14 1.51925e-15 -0.0101942)
(-7.37654e-14 -4.63553e-16 -0.0101372)
(-7.06141e-14 1.04366e-15 -0.0100772)
(-6.72234e-14 8.29412e-16 -0.0100142)
(-6.36326e-14 -1.15286e-15 -0.00994784)
(-5.97904e-14 2.71982e-16 -0.009878)
(-5.55905e-14 -1.9098e-15 -0.00980443)
(-5.08238e-14 -8.10081e-16 -0.00972685)
(-4.52328e-14 -1.6925e-15 -0.00964493)
(-3.85739e-14 -4.60821e-15 -0.00955829)
(-3.05826e-14 -4.33014e-15 -0.00946638)
(-2.10647e-14 -7.75811e-15 -0.00936852)
(-9.87624e-15 -7.82864e-15 -0.00926381)
(3.0105e-15 -9.57931e-15 -0.00915133)
(1.74542e-14 -1.27999e-14 -0.00903032)
(3.31983e-14 -1.19984e-14 -0.00890072)
(4.98191e-14 -1.38547e-14 -0.00876353)
(6.68126e-14 -1.11899e-14 -0.00862105)
(8.36302e-14 -9.08571e-15 -0.00847632)
(9.97398e-14 -7.5543e-15 -0.00833161)
(1.1477e-13 -1.47884e-15 -0.00818581)
(1.28472e-13 1.99474e-15 -0.00803122)
(1.40735e-13 9.53382e-15 -0.00785083)
(1.51536e-13 1.54751e-14 -0.00761748)
(1.61144e-13 1.90888e-14 -0.00729621)
(1.70505e-13 2.46141e-14 -0.00685044)
(1.81351e-13 2.39608e-14 -0.00625117)
(1.96138e-13 2.30934e-14 -0.00548746)
(2.17392e-13 1.64468e-14 -0.00457487)
(2.46484e-13 4.80869e-15 -0.00355886)
(2.82111e-13 -4.23245e-15 -0.00251099)
(3.18732e-13 -1.20211e-14 -0.0015177)
(3.45872e-13 -1.20919e-14 -0.000663836)
(3.48618e-13 -4.35371e-17 -1.51562e-05)
(3.09749e-13 2.48655e-14 0.000395485)
(2.13419e-13 6.68878e-14 0.000574112)
(4.96801e-14 1.15436e-13 0.000562095)
(-1.80899e-13 1.62664e-13 0.000424246)
(-4.64263e-13 1.96387e-13 0.000232327)
(-7.7214e-13 2.02864e-13 4.89614e-05)
(-1.06443e-12 1.7902e-13 -8.37739e-05)
(-1.29561e-12 1.18287e-13 -0.000148692)
(-1.42431e-12 2.96668e-14 -0.000150799)
(-1.42397e-12 -7.1737e-14 -0.00010965)
(-1.29105e-12 -1.68204e-13 -4.99412e-05)
(-1.04724e-12 -2.35796e-13 6.63192e-06)
(-7.35048e-13 -2.668e-13 4.62862e-05)
(-4.07628e-13 -2.55739e-13 6.43549e-05)
(-1.16223e-13 -2.08654e-13 6.35378e-05)
(1.0119e-13 -1.40909e-13 5.06238e-05)
(2.26894e-13 -6.42588e-14 3.31495e-05)
(2.64338e-13 4.74882e-16 1.70149e-05)
(2.3367e-13 4.45393e-14 5.44556e-06)
(1.63731e-13 6.43603e-14 -8.65829e-07)
(8.34187e-14 6.10802e-14 -2.92224e-06)
(1.49668e-14 4.71048e-14 -2.41621e-06)
(-2.95655e-14 2.5788e-14 -9.36852e-07)
(-4.81619e-14 6.17639e-15 4.48506e-07)
(-4.61708e-14 -7.2615e-15 1.26472e-06)
(-3.24299e-14 -1.49973e-14 1.48182e-06)
(-1.55765e-14 -1.30466e-14 1.29676e-06)
(-1.73385e-15 -9.1614e-15 9.48951e-07)
(6.35203e-15 -4.25373e-15 6.14922e-07)
(8.78743e-15 -2.31213e-16 3.78766e-07)
(7.33354e-15 2.99577e-16 2.50536e-07)
(4.22498e-15 2.61255e-15 2.00971e-07)
(1.21828e-15 2.07087e-15 1.93538e-07)
(-7.20974e-16 1.12216e-15 1.94957e-07)
(-1.50231e-15 1.3989e-16 2.107e-07)
(-1.09201e-15 -1.91465e-15 1.7689e-07)
(-4.00452e-17 -3.58872e-18 -0.0346006)
(-1.34915e-16 -6.82627e-18 -0.0346765)
(-1.52151e-16 -7.58083e-18 -0.0348269)
(-1.82664e-16 -8.06902e-18 -0.035062)
(-2.32955e-16 -8.15349e-18 -0.0353911)
(-2.33854e-16 -7.70595e-18 -0.0358197)
(-2.43018e-16 -1.82062e-18 -0.0363509)
(-2.39658e-16 -3.14023e-17 -0.0369724)
(-4.10194e-17 1.68509e-15 -0.0376684)
(-2.08649e-16 1.05016e-17 -0.0384046)
(-9.4194e-16 2.35318e-17 -0.0391268)
(-7.6497e-16 1.77715e-15 -0.0398398)
(1.97807e-15 -7.43067e-17 -0.0404996)
(6.68781e-15 -4.66779e-16 -0.0410872)
(1.04038e-14 -8.04861e-16 -0.041593)
(9.48028e-15 -7.96186e-16 -0.0420088)
(2.51431e-15 -3.56493e-16 -0.042333)
(-9.43308e-15 3.70652e-16 -0.0425659)
(-2.26205e-14 1.12488e-15 -0.0427094)
(-3.33983e-14 1.63964e-15 -0.0427664)
(-4.06803e-14 1.84227e-15 -0.0427407)
(-4.43969e-14 1.8269e-15 -0.0426379)
(-4.4656e-14 1.6646e-15 -0.042466)
(-4.1546e-14 1.37442e-15 -0.0422359)
(-3.56042e-14 9.70192e-16 -0.0419604)
(-2.6468e-14 4.72442e-16 -0.0416529)
(-1.47376e-14 -9.80043e-17 -0.0413253)
(-1.15901e-15 -6.93789e-16 -0.0409864)
(1.33359e-14 -1.2333e-15 -0.0406402)
(2.74045e-14 -1.77579e-15 -0.0402865)
(4.01962e-14 1.42798e-15 -0.0399226)
(5.10804e-14 -5.51378e-15 -0.0395455)
(5.99183e-14 -3.89782e-15 -0.0391535)
(6.66255e-14 -2.17983e-15 -0.0387474)
(7.18492e-14 -5.70273e-15 -0.0383302)
(7.61131e-14 -5.9584e-16 -0.0379068)
(8.00393e-14 -2.31866e-15 -0.0374838)
(8.40101e-14 -4.18526e-15 -0.03707)
(8.80002e-14 -2.63918e-15 -0.0366757)
(9.20073e-14 -4.58197e-15 -0.0363117)
(9.5597e-14 -1.26179e-15 -0.0359881)
(9.82721e-14 -2.95251e-15 -0.0357116)
(9.9416e-14 -4.54539e-15 -0.0354847)
(9.84188e-14 -2.51664e-15 -0.0353049)
(9.50668e-14 -3.83228e-15 -0.035165)
(8.93851e-14 1.6131e-16 -0.0350548)
(8.17105e-14 -9.69342e-16 -0.0349627)
(7.25518e-14 -2.15701e-15 -0.0348777)
(6.23721e-14 7.72585e-17 -0.0347901)
(5.16474e-14 -1.21849e-15 -0.0346934)
(4.06467e-14 -8.53993e-16 -0.0345838)
(2.93719e-14 1.2417e-15 -0.0344607)
(1.75929e-14 -1.21412e-16 -0.0343257)
(5.08927e-15 2.03513e-15 -0.0341827)
(-8.48862e-15 7.92342e-16 -0.0340366)
(-2.34535e-14 1.34853e-15 -0.0338923)
(-4.00596e-14 3.73089e-15 -0.0337547)
(-5.84695e-14 2.69222e-15 -0.0336271)
(-7.85468e-14 5.14486e-15 -0.0335117)
(-1.00047e-13 4.10193e-15 -0.0334088)
(-1.22527e-13 4.71458e-15 -0.0333176)
(-1.4547e-13 6.973e-15 -0.0332356)
(-1.68306e-13 5.63852e-15 -0.0331601)
(-1.90388e-13 7.62855e-15 -0.0330876)
(-2.11274e-13 4.24853e-15 -0.0330151)
(-2.30506e-13 9.44065e-15 -0.0329399)
(-2.47831e-13 7.61111e-15 -0.0328601)
(-2.63183e-13 5.69072e-15 -0.0327746)
(-2.76564e-13 7.21001e-15 -0.0326831)
(-2.88202e-13 3.50386e-15 -0.032586)
(-2.98276e-13 8.52535e-15 -0.0324841)
(-3.07061e-13 6.66585e-15 -0.0323788)
(-3.14827e-13 4.83188e-15 -0.0322712)
(-3.21712e-13 6.50399e-15 -0.0321627)
(-3.27854e-13 2.95821e-15 -0.0320542)
(-3.3313e-13 8.08345e-15 -0.0319463)
(-3.37366e-13 6.20669e-15 -0.0318393)
(-3.40293e-13 4.19814e-15 -0.0317331)
(-3.41554e-13 5.5316e-15 -0.0316271)
(-3.40931e-13 1.51705e-15 -0.0315207)
(-3.382e-13 6.11312e-15 -0.0314129)
(-3.33387e-13 3.73604e-15 -0.0313028)
(-3.26676e-13 1.34637e-15 -0.0311894)
(-3.18322e-13 2.4732e-15 -0.0310717)
(-3.0871e-13 -1.56461e-15 -0.0309492)
(-2.98043e-13 4.88375e-15 -0.0308211)
(-2.86495e-13 9.49431e-16 -0.030687)
(-2.74088e-13 -1.28595e-15 -0.0305466)
(-2.6071e-13 -8.67136e-17 -0.0303996)
(-2.46321e-13 -4.13947e-15 -0.0302457)
(-2.30842e-13 5.06485e-16 -0.0300847)
(-2.14356e-13 -1.74728e-15 -0.0299163)
(-1.97064e-13 -2.22742e-15 -0.0297401)
(-1.79114e-13 -9.26504e-16 -0.0295554)
(-1.60616e-13 -3.13465e-15 -0.0293617)
(-1.41434e-13 -2.01438e-15 -0.0291582)
(-1.21142e-13 -4.65836e-15 -0.0289441)
(-9.9082e-14 -5.98901e-15 -0.0287184)
(-7.43465e-14 -6.08264e-15 -0.0284801)
(-4.60401e-14 -1.01986e-14 -0.028228)
(-1.33054e-14 -1.13501e-14 -0.0279606)
(2.45518e-14 -1.63766e-14 -0.0276761)
(6.79597e-14 -1.98662e-14 -0.027372)
(1.17125e-13 -2.15097e-14 -0.0270457)
(1.71864e-13 -2.61591e-14 -0.0266952)
(2.31684e-13 -2.64462e-14 -0.0263203)
(2.95777e-13 -2.89271e-14 -0.0259244)
(3.63105e-13 -2.80955e-14 -0.0255147)
(4.32701e-13 -2.38145e-14 -0.0251014)
(5.03809e-13 -2.13894e-14 -0.0246935)
(5.76182e-13 -1.41105e-14 -0.0242912)
(6.50036e-13 -9.25322e-15 -0.0238763)
(7.25781e-13 -1.99817e-15 -0.023403)
(8.03929e-13 7.00565e-15 -0.0227941)
(8.85645e-13 1.13393e-14 -0.021946)
(9.74044e-13 1.62452e-14 -0.020745)
(1.07451e-12 1.28788e-14 -0.0190946)
(1.19388e-12 5.07279e-15 -0.0169464)
(1.33793e-12 -6.99181e-15 -0.014328)
(1.50663e-12 -2.58159e-14 -0.0113567)
(1.68859e-12 -3.86216e-14 -0.00823233)
(1.85627e-12 -4.21671e-14 -0.00520777)
(1.96431e-12 -2.70349e-14 -0.00254182)
(1.9528e-12 1.97529e-14 -0.000446584)
(1.75612e-12 9.41999e-14 0.000956444)
(1.31662e-12 1.98657e-13 0.00165902)
(6.01449e-13 3.1433e-13 0.00176108)
(-3.81039e-13 4.19635e-13 0.00144001)
(-1.57056e-12 4.93742e-13 0.000904356)
(-2.8523e-12 5.04682e-13 0.000345769)
(-4.06613e-12 4.42492e-13 -9.74243e-05)
(-5.03091e-12 2.99962e-13 -0.000357112)
(-5.58212e-12 9.38445e-14 -0.000431539)
(-5.61382e-12 -1.36634e-13 -0.000365916)
(-5.11135e-12 -3.54833e-13 -0.000226264)
(-4.16084e-12 -5.12061e-13 -7.53794e-05)
(-2.93168e-12 -5.84873e-13 4.29512e-05)
(-1.63636e-12 -5.65151e-13 0.000109418)
(-4.7994e-13 -4.61329e-13 0.00012593)
(3.85373e-13 -3.10732e-13 0.000107381)
(8.8796e-13 -1.44098e-13 7.256e-05)
(1.04066e-12 -1.17812e-15 3.72457e-05)
(9.22696e-13 9.4843e-14 1.08195e-05)
(6.48102e-13 1.41221e-13 -3.86678e-06)
(3.31436e-13 1.37197e-13 -8.57241e-06)
(6.08856e-14 1.05332e-13 -7.12391e-06)
(-1.15465e-13 5.90871e-14 -3.31736e-06)
(-1.8946e-13 1.44791e-14 2.4085e-07)
(-1.82077e-13 -1.33928e-14 2.38235e-06)
(-1.28086e-13 -2.85597e-14 3.03951e-06)
(-6.1663e-14 -2.66599e-14 2.7056e-06)
(-6.96956e-15 -1.83909e-14 1.97246e-06)
(2.50064e-14 -9.51437e-15 1.26856e-06)
(3.46288e-14 1.01276e-15 7.90322e-07)
(2.89144e-14 4.31552e-15 5.53615e-07)
(1.66404e-14 7.4049e-15 4.83543e-07)
(4.8208e-15 6.27857e-15 4.93891e-07)
(-2.81702e-15 2.48245e-15 5.08369e-07)
(-5.93348e-15 2.06013e-15 5.56996e-07)
(-4.30855e-15 -3.85074e-16 4.6363e-07)
(-1.06056e-18 -3.82806e-20 -0.0573209)
(-1.62186e-17 -2.29188e-20 -0.057443)
(-3.10324e-17 -7.23303e-20 -0.0576867)
(-5.50192e-17 1.53923e-18 -0.0580684)
(-6.58839e-17 -2.34324e-18 -0.0586041)
(-7.14259e-17 6.63301e-18 -0.059303)
(-2.70573e-16 1.76029e-17 -0.0601711)
(3.20042e-16 -7.14766e-17 -0.0611871)
(-3.86334e-17 -3.78965e-18 -0.0623267)
(-2.97955e-15 4.4506e-16 -0.0635302)
(-6.72241e-16 2.96598e-16 -0.0647031)
(1.34366e-14 -1.44685e-15 -0.0658655)
(2.69164e-14 -3.7313e-15 -0.0669369)
(1.60894e-14 -4.11923e-15 -0.0678863)
(-3.26967e-14 -1.20195e-15 -0.0686983)
(-1.11423e-13 4.13895e-15 -0.0693587)
(-1.95641e-13 9.48884e-15 -0.0698653)
(-2.58153e-13 1.25537e-14 -0.0702193)
(-2.81117e-13 1.21569e-14 -0.0704259)
(-2.5945e-13 9.18459e-15 -0.0704947)
(-2.08972e-13 5.57915e-15 -0.0704408)
(-1.4367e-13 2.1101e-15 -0.0702844)
(-7.00169e-14 -1.22115e-15 -0.0700491)
(8.3146e-15 -4.39929e-15 -0.0697571)
(8.86953e-14 -7.39825e-15 -0.0694246)
(1.68447e-13 -1.01127e-14 -0.0690555)
(2.44123e-13 -1.23226e-14 -0.0686396)
(3.11453e-13 -1.37424e-14 -0.0681536)
(3.66116e-13 -1.41382e-14 -0.0675674)
(4.0494e-13 -1.34852e-14 -0.0668544)
(4.26916e-13 -1.19819e-14 -0.0660032)
(4.33406e-13 -9.99905e-15 -0.065025)
(4.27746e-13 -7.99576e-15 -0.0639549)
(4.14056e-13 -6.32146e-15 -0.0628467)
(3.96271e-13 -5.17542e-15 -0.0617625)
(3.77493e-13 -4.59581e-15 -0.0607614)
(3.59593e-13 -4.46483e-15 -0.0598905)
(3.4308e-13 -4.59996e-15 -0.0591789)
(3.27178e-13 -4.75991e-15 -0.0586366)
(3.10156e-13 -4.68523e-15 -0.0582552)
(2.89648e-13 -4.14817e-15 -0.0580108)
(2.63262e-13 -3.00324e-15 -0.0578684)
(2.29289e-13 -1.26265e-15 -0.0577875)
(1.87277e-13 9.11833e-16 -0.057727)
(1.38306e-13 3.24778e-15 -0.0576508)
(8.47586e-14 5.4466e-15 -0.057532)
(2.96887e-14 7.27719e-15 -0.0573555)
(-2.40113e-14 8.62215e-15 -0.057118)
(-7.42894e-14 9.50634e-15 -0.0568269)
(-1.20278e-13 1.00601e-14 -0.0564976)
(-1.62296e-13 1.04697e-14 -0.0561496)
(-2.01573e-13 1.26977e-14 -0.0558035)
(-2.39856e-13 1.16874e-14 -0.0554779)
(-2.79047e-13 1.27249e-14 -0.0551875)
(-3.20826e-13 1.41169e-14 -0.0549415)
(-3.66394e-13 1.58164e-14 -0.0547437)
(-4.16308e-13 1.94702e-14 -0.0545927)
(-4.70395e-13 1.96937e-14 -0.0544826)
(-5.27785e-13 2.14977e-14 -0.0544043)
(-5.8699e-13 2.29786e-14 -0.0543465)
(-6.46104e-13 2.39867e-14 -0.0542978)
(-7.03065e-13 2.6173e-14 -0.0542471)
(-7.55899e-13 2.42818e-14 -0.0541852)
(-8.02937e-13 2.52935e-14 -0.0541056)
(-8.42978e-13 2.23436e-14 -0.0540045)
(-8.75368e-13 2.07587e-14 -0.0538808)
(-8.99992e-13 2.07184e-14 -0.053736)
(-9.17216e-13 1.71504e-14 -0.0535736)
(-9.2778e-13 1.71391e-14 -0.0533982)
(-9.32639e-13 1.38336e-14 -0.0532149)
(-9.32837e-13 1.24974e-14 -0.0530287)
(-9.29349e-13 1.31685e-14 -0.0528438)
(-9.22952e-13 1.05841e-14 -0.0526635)
(-9.14137e-13 1.16092e-14 -0.0524896)
(-9.03018e-13 9.16543e-15 -0.052323)
(-8.89312e-13 8.31709e-15 -0.052163)
(-8.72408e-13 8.96013e-15 -0.0520081)
(-8.51487e-13 5.78782e-15 -0.0518563)
(-8.25746e-13 5.74116e-15 -0.0517049)
(-7.94614e-13 1.93871e-15 -0.0515512)
(-7.57957e-13 -2.67739e-16 -0.0513926)
(-7.16162e-13 -6.78167e-16 -0.0512269)
(-6.7008e-13 -4.35789e-15 -0.0510521)
(-6.20836e-13 -4.26416e-15 -0.050867)
(-5.6954e-13 -7.35333e-15 -0.0506708)
(-5.17022e-13 -8.50233e-15 -0.0504632)
(-4.63659e-13 -7.82349e-15 -0.0502443)
(-4.09355e-13 -1.06654e-14 -0.0500141)
(-3.53717e-13 -1.0141e-14 -0.049773)
(-2.96304e-13 -1.31733e-14 -0.0495211)
(-2.36907e-13 -1.44643e-14 -0.0492583)
(-1.75676e-13 -1.56181e-14 -0.0489843)
(-1.13091e-13 -1.65775e-14 -0.0486985)
(-4.97304e-14 -1.73945e-14 -0.0484)
(1.40388e-14 -1.82582e-14 -0.0480874)
(7.83498e-14 -1.94647e-14 -0.0477594)
(1.43976e-13 -2.13506e-14 -0.0474145)
(2.12272e-13 -2.42083e-14 -0.0470509)
(2.84943e-13 -2.82135e-14 -0.046667)
(3.63759e-13 -3.3394e-14 -0.0462608)
(4.50314e-13 -3.96261e-14 -0.04583)
(5.4594e-13 -4.66557e-14 -0.0453717)
(6.51759e-13 -5.41154e-14 -0.0448821)
(7.68826e-13 -6.15316e-14 -0.0443573)
(8.98268e-13 -6.83447e-14 -0.043794)
(1.04138e-12 -7.39548e-14 -0.0431922)
(1.19969e-12 -7.78301e-14 -0.0425572)
(1.37508e-12 -7.96521e-14 -0.0419013)
(1.56999e-12 -7.94381e-14 -0.0412428)
(1.78774e-12 -7.75601e-14 -0.0405993)
(2.03256e-12 -7.45923e-14 -0.039976)
(2.3093e-12 -7.10698e-14 -0.0393494)
(2.62246e-12 -6.74125e-14 -0.0386512)
(2.97523e-12 -6.44567e-14 -0.0377596)
(3.37017e-12 -6.42337e-14 -0.0365046)
(3.8122e-12 -6.98162e-14 -0.0346927)
(4.30837e-12 -8.42216e-14 -0.03215)
(4.86469e-12 -1.08619e-13 -0.0287748)
(5.47866e-12 -1.39931e-13 -0.0245863)
(6.12812e-12 -1.68786e-13 -0.0197532)
(6.75938e-12 -1.79053e-13 -0.0145877)
(7.27929e-12 -1.49881e-13 -0.00950191)
(7.556e-12 -6.03568e-14 -0.00493216)
(7.43121e-12 1.04051e-13 -0.00125162)
(6.7437e-12 3.4469e-13 0.00130679)
(5.36212e-12 6.44223e-13 0.00269432)
(3.22345e-12 9.64266e-13 0.00304528)
(3.70606e-13 1.24867e-12 0.00263242)
(-3.02377e-12 1.43202e-12 0.00179372)
(-6.64996e-12 1.45238e-12 0.000852969)
(-1.00824e-11 1.26832e-12 5.60593e-05)
(-1.28402e-11 8.7628e-13 -0.000462044)
(-1.44836e-11 3.21122e-13 -0.000676459)
(-1.47253e-11 -3.07122e-13 -0.00064473)
(-1.35187e-11 -8.92959e-13 -0.000466031)
(-1.10868e-11 -1.32563e-12 -0.000241701)
(-7.87841e-12 -1.52904e-12 -4.76355e-05)
(-4.46125e-12 -1.48161e-12 7.7206e-05)
(-1.38721e-12 -1.21952e-12 0.000127968)
(9.30589e-13 -8.23124e-13 0.000122298)
(2.2931e-12 -3.91903e-13 8.64609e-05)
(2.72693e-12 -1.68932e-14 4.41788e-05)
(2.43731e-12 2.40819e-13 1.06414e-05)
(1.72432e-12 3.59991e-13 -8.43482e-06)
(8.9184e-13 3.56423e-13 -1.43921e-05)
(1.75405e-13 2.70556e-13 -1.20149e-05)
(-2.95122e-13 1.50961e-13 -6.40172e-06)
(-4.95697e-13 3.94821e-14 -1.15401e-06)
(-4.80209e-13 -3.79486e-14 2.09114e-06)
(-3.39857e-13 -7.34695e-14 3.23779e-06)
(-1.65056e-13 -7.36047e-14 2.98097e-06)
(-2.02458e-14 -5.24961e-14 2.1512e-06)
(6.49693e-14 -2.50529e-14 1.34323e-06)
(9.1066e-14 -2.18525e-15 8.22667e-07)
(7.6419e-14 1.10285e-14 6.04224e-07)
(4.42112e-14 1.46594e-14 5.81907e-07)
(1.29885e-14 1.17996e-14 6.41195e-07)
(-7.27116e-15 6.4993e-15 6.82182e-07)
(-1.56195e-14 8.85652e-16 7.7003e-07)
(-1.14407e-14 -9.92394e-16 6.28941e-07)
(-4.15166e-17 5.05087e-18 -0.0795089)
(-1.3952e-16 8.15963e-18 -0.0796697)
(-1.21518e-16 1.18195e-17 -0.0799939)
(-1.83921e-16 9.35675e-18 -0.0805053)
(1.14452e-17 4.98184e-20 -0.0812265)
(-6.04997e-16 9.46387e-17 -0.0821712)
(4.51863e-16 -1.97555e-16 -0.0833487)
(1.69997e-15 -1.47372e-16 -0.0847284)
(-8.94668e-15 3.33488e-15 -0.0862792)
(7.41024e-16 3.27305e-16 -0.0879104)
(4.99701e-14 -1.1654e-14 -0.0894803)
(5.28613e-14 -1.20172e-14 -0.0910478)
(-1.02354e-13 -1.4007e-15 -0.0924845)
(-4.14796e-13 2.93398e-14 -0.0937517)
(-7.56053e-13 6.29513e-14 -0.0948315)
(-9.60422e-13 8.0676e-14 -0.0957039)
(-9.22186e-13 7.30084e-14 -0.096367)
(-6.36377e-13 4.31085e-14 -0.096823)
(-1.78833e-13 1.77376e-15 -0.0970795)
(3.30409e-13 -3.44329e-14 -0.0971513)
(8.02987e-13 -5.60478e-14 -0.0970603)
(1.21081e-12 -6.76506e-14 -0.0968358)
(1.54862e-12 -7.43278e-14 -0.0965115)
(1.81973e-12 -7.79817e-14 -0.0961196)
(2.02767e-12 -7.90959e-14 -0.0956824)
(2.17135e-12 -7.72413e-14 -0.0952049)
(2.24655e-12 -7.16012e-14 -0.09467)
(2.24858e-12 -6.16904e-14 -0.0940405)
(2.17927e-12 -4.79767e-14 -0.093268)
(2.04997e-12 -3.21757e-14 -0.0923078)
(1.87942e-12 -1.45399e-14 -0.0911357)
(1.68898e-12 -4.19421e-15 -0.089761)
(1.49653e-12 5.77736e-15 -0.0882305)
(1.31384e-12 1.35578e-14 -0.0866225)
(1.14688e-12 1.43132e-14 -0.0850333)
(9.96174e-13 1.94777e-14 -0.0835592)
(8.5873e-13 1.48881e-14 -0.0822809)
(7.28033e-13 1.2022e-14 -0.0812514)
(5.95319e-13 1.38229e-14 -0.080491)
(4.51251e-13 1.41832e-14 -0.0799875)
(2.87134e-13 2.21849e-14 -0.0797012)
(9.79089e-14 2.72272e-14 -0.0795728)
(-1.16153e-13 3.17128e-14 -0.0795336)
(-3.48283e-13 4.29748e-14 -0.0795151)
(-5.86027e-13 4.5692e-14 -0.0794581)
(-8.14522e-13 5.44698e-14 -0.0793196)
(-1.02013e-12 5.34156e-14 -0.079076)
(-1.19378e-12 4.98321e-14 -0.0787243)
(-1.33265e-12 4.82106e-14 -0.0782787)
(-1.43967e-12 4.2785e-14 -0.0777666)
(-1.52218e-12 3.97916e-14 -0.0772229)
(-1.58959e-12 4.00213e-14 -0.0766838)
(-1.65142e-12 3.86175e-14 -0.0761819)
(-1.71568e-12 4.25201e-14 -0.0757425)
(-1.788e-12 4.44657e-14 -0.0753815)
(-1.87116e-12 4.9088e-14 -0.0751047)
(-1.96507e-12 5.57314e-14 -0.0749086)
(-2.06703e-12 5.84324e-14 -0.0747818)
(-2.17225e-12 6.34425e-14 -0.0747075)
(-2.27474e-12 6.32613e-14 -0.074666)
(-2.36808e-12 6.27521e-14 -0.0746369)
(-2.44646e-12 6.18708e-14 -0.0746018)
(-2.50537e-12 5.5574e-14 -0.0745455)
(-2.54196e-12 5.11681e-14 -0.0744574)
(-2.55526e-12 4.04643e-14 -0.0743319)
(-2.5459e-12 3.79467e-14 -0.0741681)
(-2.51584e-12 2.85352e-14 -0.0739694)
(-2.46782e-12 1.95847e-14 -0.0737421)
(-2.40498e-12 1.49213e-14 -0.0734943)
(-2.33046e-12 6.03315e-15 -0.0732352)
(-2.24701e-12 6.87947e-15 -0.0729729)
(-2.15687e-12 1.72361e-15 -0.0727148)
(-2.06147e-12 -2.77285e-15 -0.0724658)
(-1.96139e-12 -3.46332e-15 -0.0722292)
(-1.85628e-12 -9.4546e-15 -0.0720056)
(-1.745e-12 -7.22231e-15 -0.071794)
(-1.62581e-12 -1.27055e-14 -0.0715917)
(-1.49676e-12 -1.91325e-14 -0.071395)
(-1.35628e-12 -2.29053e-14 -0.0711993)
(-1.20369e-12 -3.2377e-14 -0.0710004)
(-1.0396e-12 -3.3113e-14 -0.0707939)
(-8.66018e-13 -4.02023e-14 -0.0705763)
(-6.85959e-13 -4.63169e-14 -0.0703449)
(-5.02886e-13 -4.7797e-14 -0.0700979)
(-3.1988e-13 -5.34708e-14 -0.0698342)
(-1.3891e-13 -4.97916e-14 -0.0695536)
(3.95078e-14 -5.28842e-14 -0.0692565)
(2.16304e-13 -5.62576e-14 -0.0689435)
(3.93244e-13 -5.66124e-14 -0.0686152)
(5.72162e-13 -6.25436e-14 -0.0682721)
(7.54172e-13 -5.98073e-14 -0.0679142)
(9.39239e-13 -6.36552e-14 -0.0675413)
(1.12624e-12 -6.52004e-14 -0.0671524)
(1.31345e-12 -6.44914e-14 -0.0667464)
(1.49931e-12 -6.71748e-14 -0.0663215)
(1.68308e-12 -6.69831e-14 -0.0658757)
(1.86519e-12 -7.16192e-14 -0.0654068)
(2.04713e-12 -7.64723e-14 -0.0649125)
(2.23089e-12 -8.18262e-14 -0.0643902)
(2.41854e-12 -9.28842e-14 -0.0638374)
(2.61199e-12 -1.02441e-13 -0.0632509)
(2.81333e-12 -1.17099e-13 -0.0626269)
(3.02564e-12 -1.31309e-13 -0.0619603)
(3.25403e-12 -1.44764e-13 -0.061246)
(3.50657e-12 -1.62437e-13 -0.0604793)
(3.79479e-12 -1.77157e-13 -0.0596599)
(4.13375e-12 -1.95775e-13 -0.0587945)
(4.54162e-12 -2.13247e-13 -0.0578998)
(5.03898e-12 -2.30144e-13 -0.0570007)
(5.64808e-12 -2.52671e-13 -0.0561229)
(6.39172e-12 -2.7489e-13 -0.055277)
(7.2916e-12 -3.04207e-13 -0.0544355)
(8.36553e-12 -3.34964e-13 -0.0535103)
(9.62394e-12 -3.66849e-13 -0.0523386)
(1.10687e-11 -4.07147e-13 -0.0506878)
(1.26989e-11 -4.52854e-13 -0.0482871)
(1.45086e-11 -5.13366e-13 -0.0448857)
(1.64772e-11 -5.8007e-13 -0.0403262)
(1.85504e-11 -6.38707e-13 -0.0346157)
(2.06178e-11 -6.66179e-13 -0.0279691)
(2.24926e-11 -6.14205e-13 -0.0208062)
(2.39048e-11 -4.40475e-13 -0.0136949)
(2.45151e-11 -1.02995e-13 -0.00724793)
(2.39504e-11 4.25901e-13 -0.00199998)
(2.18585e-11 1.12875e-12 0.00170295)
(1.79758e-11 1.95878e-12 0.00376952)
(1.22053e-11 2.81008e-12 0.00436642)
(4.69199e-12 3.54324e-12 0.00386011)
(-4.12687e-12 4.00402e-12 0.00271692)
(-1.3499e-11 4.03401e-12 0.00139203)
(-2.2397e-11 3.53763e-12 0.000238698)
(-2.96525e-11 2.50057e-12 -0.000541166)
(-3.41827e-11 1.03638e-12 -0.000899205)
(-3.52605e-11 -6.19124e-13 -0.000904885)
(-3.27376e-11 -2.17406e-12 -0.000690202)
(-2.71271e-11 -3.33219e-12 -0.000394879)
(-1.95066e-11 -3.89766e-12 -0.000126971)
(-1.12634e-11 -3.81075e-12 5.47114e-05)
(-3.76295e-12 -3.15725e-12 0.000138309)
(1.95732e-12 -2.15089e-12 0.000144051)
(5.37903e-12 -1.04227e-12 0.000105629)
(6.53805e-12 -7.32813e-14 5.47897e-05)
(5.91434e-12 5.96151e-13 1.26801e-05)
(4.22951e-12 9.13954e-13 -1.19676e-05)
(2.224e-12 9.11653e-13 -1.99877e-05)
(4.78368e-13 6.98813e-13 -1.71172e-05)
(-6.8132e-13 3.94638e-13 -9.82749e-06)
(-1.18727e-12 1.07022e-13 -2.82834e-06)
(-1.16432e-12 -9.13129e-14 1.65882e-06)
(-8.31614e-13 -1.86136e-13 3.4225e-06)
(-4.09351e-13 -1.86465e-13 3.31415e-06)
(-5.61464e-14 -1.33404e-13 2.39631e-06)
(1.538e-13 -6.51703e-14 1.44805e-06)
(2.19934e-13 -4.7121e-15 8.3063e-07)
(1.86091e-13 2.77429e-14 5.79979e-07)
(1.08502e-13 3.91201e-14 5.71158e-07)
(3.25528e-14 3.20198e-14 6.63677e-07)
(-1.70649e-14 1.67864e-14 7.29004e-07)
(-3.77419e-14 4.14489e-15 8.6163e-07)
(-2.7871e-14 -2.47448e-15 6.78723e-07)
(4.96663e-17 1.8252e-15 -0.100899)
(1.85021e-16 1.7747e-15 -0.101088)
(1.24063e-16 2.21283e-17 -0.101476)
(2.54766e-16 1.66978e-15 -0.102093)
(5.46436e-16 1.94292e-15 -0.102968)
(-1.82442e-15 1.52115e-15 -0.104122)
(9.61478e-15 -1.13488e-15 -0.105566)
(-2.02689e-14 4.6549e-15 -0.10726)
(-9.28315e-15 4.75683e-16 -0.109168)
(1.42628e-13 -3.08294e-14 -0.111161)
(5.00555e-14 -2.57364e-14 -0.113039)
(-6.41623e-13 7.47692e-14 -0.114941)
(-1.5555e-12 2.3007e-13 -0.116665)
(-1.82326e-12 3.2273e-13 -0.118172)
(-8.03929e-13 2.71611e-13 -0.119445)
(1.5131e-12 8.89404e-14 -0.120464)
(4.5871e-12 -1.49065e-13 -0.12123)
(7.64414e-12 -3.59123e-13 -0.121748)
(1.00187e-11 -4.69501e-13 -0.122028)
(1.12541e-11 -4.7999e-13 -0.122083)
(1.16323e-11 -4.34622e-13 -0.121944)
(1.14771e-11 -3.70707e-13 -0.121646)
(1.0959e-11 -3.05679e-13 -0.121234)
(1.0182e-11 -2.43923e-13 -0.120747)
(9.20397e-12 -1.83209e-13 -0.120213)
(8.05183e-12 -1.21287e-13 -0.119637)
(6.75178e-12 -5.09403e-14 -0.118998)
(5.3586e-12 1.98968e-14 -0.118247)
(3.96841e-12 8.51704e-14 -0.117322)
(2.70051e-12 1.36426e-13 -0.116167)
(1.65428e-12 1.66803e-13 -0.114748)
(8.73731e-13 1.79737e-13 -0.113073)
(3.3776e-13 1.7955e-13 -0.111198)
(-1.75158e-14 1.66783e-13 -0.109215)
(-2.69557e-13 1.51894e-13 -0.107246)
(-4.87654e-13 1.37717e-13 -0.10541)
(-7.24266e-13 1.27912e-13 -0.103812)
(-1.01787e-12 1.27105e-13 -0.102524)
(-1.39611e-12 1.31896e-13 -0.101575)
(-1.87717e-12 1.47659e-13 -0.100953)
(-2.46618e-12 1.70775e-13 -0.100609)
(-3.14944e-12 1.96926e-13 -0.100466)
(-3.89191e-12 2.21833e-13 -0.100437)
(-4.63998e-12 2.32376e-13 -0.100433)
(-5.33209e-12 2.34633e-13 -0.100376)
(-5.91308e-12 2.19026e-13 -0.100211)
(-6.34683e-12 1.95174e-13 -0.0999071)
(-6.62301e-12 1.6488e-13 -0.0994602)
(-6.75574e-12 1.30719e-13 -0.0988884)
(-6.77652e-12 1.0309e-13 -0.0982272)
(-6.72487e-12 8.54242e-14 -0.0975223)
(-6.63953e-12 7.90571e-14 -0.0968212)
(-6.55237e-12 7.4731e-14 -0.0961677)
(-6.48542e-12 8.27528e-14 -0.0955958)
(-6.44952e-12 9.18649e-14 -0.0951273)
(-6.44528e-12 1.04347e-13 -0.0947707)
(-6.46452e-12 1.19134e-13 -0.0945215)
(-6.49262e-12 1.23283e-13 -0.0943651)
(-6.51172e-12 1.27089e-13 -0.0942791)
(-6.50353e-12 1.20893e-13 -0.0942373)
(-6.4527e-12 1.09848e-13 -0.0942126)
(-6.34886e-12 9.65521e-14 -0.0941804)
(-6.18782e-12 7.20315e-14 -0.0941205)
(-5.97149e-12 5.19772e-14 -0.0940187)
(-5.70633e-12 2.4312e-14 -0.0938675)
(-5.40168e-12 2.77889e-15 -0.0936658)
(-5.06748e-12 -1.6588e-14 -0.093418)
(-4.71301e-12 -3.82785e-14 -0.0931323)
(-4.34574e-12 -4.98063e-14 -0.09282)
(-3.97083e-12 -6.51524e-14 -0.0924927)
(-3.59134e-12 -7.25606e-14 -0.0921617)
(-3.20814e-12 -7.78629e-14 -0.0918366)
(-2.82054e-12 -8.71584e-14 -0.0915243)
(-2.42644e-12 -8.92491e-14 -0.0912288)
(-2.02254e-12 -9.90289e-14 -0.0909512)
(-1.60494e-12 -1.05189e-13 -0.0906902)
(-1.16942e-12 -1.13425e-13 -0.090442)
(-7.12636e-13 -1.28978e-13 -0.0902016)
(-2.32933e-13 -1.39058e-13 -0.0899632)
(2.68755e-13 -1.56399e-13 -0.0897206)
(7.88245e-13 -1.6737e-13 -0.0894683)
(1.3186e-12 -1.75763e-13 -0.0892016)
(1.85096e-12 -1.85924e-13 -0.0889167)
(2.37645e-12 -1.85568e-13 -0.0886114)
(2.8882e-12 -1.89342e-13 -0.0882844)
(3.38281e-12 -1.86463e-13 -0.0879357)
(3.86131e-12 -1.83694e-13 -0.0875656)
(4.32833e-12 -1.87534e-13 -0.0871752)
(4.79068e-12 -1.86334e-13 -0.0867653)
(5.25516e-12 -1.93638e-13 -0.0863367)
(5.72627e-12 -1.9627e-13 -0.0858894)
(6.20511e-12 -2.01653e-13 -0.0854232)
(6.68904e-12 -2.03682e-13 -0.0849369)
(7.17282e-12 -2.03927e-13 -0.0844291)
(7.65027e-12 -2.03074e-13 -0.0838977)
(8.11574e-12 -2.00673e-13 -0.08334)
(8.56498e-12 -2.03376e-13 -0.0827533)
(8.9951e-12 -2.07056e-13 -0.0821346)
(9.404e-12 -2.1392e-13 -0.0814808)
(9.79007e-12 -2.23947e-13 -0.0807885)
(1.01528e-11 -2.35284e-13 -0.0800539)
(1.04951e-11 -2.53481e-13 -0.0792722)
(1.08264e-11 -2.74468e-13 -0.0784374)
(1.11671e-11 -3.01995e-13 -0.0775429)
(1.15515e-11 -3.38724e-13 -0.0765831)
(1.20296e-11 -3.8581e-13 -0.0755565)
(1.26665e-11 -4.51244e-13 -0.0744707)
(1.35387e-11 -5.32267e-13 -0.0733451)
(1.47295e-11 -6.32666e-13 -0.0722102)
(1.63232e-11 -7.5393e-13 -0.0710987)
(1.83987e-11 -8.94619e-13 -0.0700261)
(2.10232e-11 -1.05798e-12 -0.0689627)
(2.42451e-11 -1.23358e-12 -0.0678044)
(2.80855e-11 -1.41606e-12 -0.0663523)
(3.25294e-11 -1.60171e-12 -0.0643167)
(3.75323e-11 -1.78803e-12 -0.0613538)
(4.30178e-11 -1.97337e-12 -0.0571377)
(4.88512e-11 -2.12949e-12 -0.051454)
(5.48011e-11 -2.21022e-12 -0.0442923)
(6.04983e-11 -2.13986e-12 -0.0359067)
(6.54109e-11 -1.82083e-12 -0.0268175)
(6.88521e-11 -1.16116e-12 -0.0177425)
(7.00317e-11 -8.31847e-14 -0.00946759)
(6.81426e-11 1.43234e-12 -0.00268853)
(6.24731e-11 3.33203e-12 0.00213414)
(5.25331e-11 5.47259e-12 0.00486403)
(3.82012e-11 7.60616e-12 0.00569755)
(1.98618e-11 9.41474e-12 0.00509261)
(-1.48294e-12 1.05275e-11 0.00364214)
(-2.41407e-11 1.05874e-11 0.00193165)
(-4.57902e-11 9.34684e-12 0.000421121)
(-6.37562e-11 6.76914e-12 -0.000620721)
(-7.55097e-11 3.12512e-12 -0.00112194)