/*--------------------------------*- C++ -*----------------------------------*\
  =========                 |
  \\      /  F ield         | OpenFOAM: The Open Source CFD Toolbox
   \\    /   O peration     | Website:  https://openfoam.org
    \\  /    A nd           | Version:  11
     \\/     M anipulation  |
\*---------------------------------------------------------------------------*/
FoamFile
{
    format      ascii;
    class       volScalarField;
    location    "1.740573";
    object      p;
}
// * * * * * * * * * * * * * * * * * * * * * * * * * * * * * * * * * * * * * //

dimensions      [0 2 -2 0 0 0 0];

internalField   nonuniform List<scalar> 
7132
(
0.0528098
0.0514064
0.0466725
0.0397553
0.0300887
0.0173914
0.00160767
-0.0172242
-0.0385187
-0.0612304
-0.0837907
-0.10413
-0.120852
-0.13273
-0.138858
-0.139059
-0.133772
-0.124069
-0.111403
-0.0972637
-0.0829179
-0.069292
-0.0569572
-0.0461879
-0.0370426
-0.0294417
-0.0232301
-0.0182212
-0.0142239
-0.0110589
-0.00856696
-0.00661203
-0.00508269
-0.00389
-0.00296366
-0.00224765
-0.00169694
-0.00127549
-0.000954752
-0.00071222
-0.000530005
-0.000393841
-0.000292444
-0.000217047
-0.000160981
-0.000119268
-8.82279e-05
-6.51453e-05
-4.80052e-05
-3.53022e-05
-2.5907e-05
-1.89709e-05
-1.38578e-05
-1.00929e-05
-7.32278e-06
-5.28603e-06
-3.78947e-06
-2.69067e-06
-1.88469e-06
-1.29421e-06
-8.62261e-07
-5.46883e-07
-3.17199e-07
-1.50487e-07
-3.00393e-08
5.64303e-08
1.17954e-07
1.61173e-07
1.90971e-07
2.10936e-07
2.23713e-07
2.31238e-07
2.34946e-07
2.3588e-07
2.34822e-07
2.3233e-07
2.28832e-07
2.24627e-07
2.19951e-07
2.14961e-07
2.09788e-07
2.04512e-07
1.99209e-07
1.93916e-07
1.88679e-07
1.83512e-07
1.78442e-07
1.73472e-07
1.6862e-07
1.63883e-07
1.5927e-07
1.54776e-07
1.50407e-07
1.46158e-07
1.4203e-07
1.38019e-07
1.34123e-07
1.30338e-07
1.26663e-07
1.23093e-07
1.19625e-07
1.16257e-07
1.12981e-07
1.09801e-07
1.06705e-07
1.03698e-07
1.00769e-07
9.79219e-08
9.51447e-08
9.2445e-08
8.98074e-08
8.72423e-08
8.47323e-08
8.22898e-08
7.98959e-08
7.7565e-08
7.52764e-08
7.30464e-08
7.08531e-08
6.87144e-08
6.66069e-08
6.45504e-08
6.252e-08
6.05373e-08
5.85761e-08
5.66594e-08
5.476e-08
5.29022e-08
5.10578e-08
4.92524e-08
4.74569e-08
4.56978e-08
4.39455e-08
4.22275e-08
4.05133e-08
3.88313e-08
3.71505e-08
3.55002e-08
3.38485e-08
3.22258e-08
3.05996e-08
2.90008e-08
2.73964e-08
2.58182e-08
2.42327e-08
2.2672e-08
2.11021e-08
1.95565e-08
1.79989e-08
1.64668e-08
1.49171e-08
1.34009e-08
1.18486e-08
1.03624e-08
8.7789e-09
7.36805e-09
5.66408e-09
4.48008e-09
2.38766e-09
1.9166e-09
0.0533693
0.0519769
0.047282
0.0404044
0.0307667
0.0180594
0.00220072
-0.0168107
-0.03839
-0.0614883
-0.0844629
-0.105125
-0.122098
-0.134137
-0.140298
-0.140401
-0.134892
-0.124887
-0.111899
-0.0974679
-0.0828917
-0.0691065
-0.056678
-0.0458675
-0.0367183
-0.029137
-0.0229577
-0.0179859
-0.0140259
-0.0108955
-0.00843391
-0.00650491
-0.00499717
-0.00382218
-0.0029102
-0.00220575
-0.00166425
-0.00125009
-0.000935094
-0.000697061
-0.000518374
-0.000384977
-0.000285739
-0.000212011
-0.000157219
-0.000116466
-8.61447e-05
-6.35993e-05
-4.686e-05
-3.44553e-05
-2.52813e-05
-1.85089e-05
-1.35167e-05
-9.84094e-06
-7.1368e-06
-5.14884e-06
-3.68838e-06
-2.61627e-06
-1.82998e-06
-1.25399e-06
-8.327e-07
-5.2516e-07
-3.01237e-07
-1.38761e-07
-2.14254e-08
6.27542e-08
1.22597e-07
1.64578e-07
1.93469e-07
2.12765e-07
2.25053e-07
2.32217e-07
2.35662e-07
2.36401e-07
2.352e-07
2.32603e-07
2.29029e-07
2.24767e-07
2.2005e-07
2.15028e-07
2.09834e-07
2.04541e-07
1.99227e-07
1.93925e-07
1.88682e-07
1.8351e-07
1.78437e-07
1.73465e-07
1.68612e-07
1.63873e-07
1.5926e-07
1.54765e-07
1.50397e-07
1.46147e-07
1.4202e-07
1.38008e-07
1.34112e-07
1.30328e-07
1.26653e-07
1.23084e-07
1.19616e-07
1.16248e-07
1.12973e-07
1.09793e-07
1.06697e-07
1.03691e-07
1.00761e-07
9.7915e-08
9.51379e-08
9.24386e-08
8.98012e-08
8.72365e-08
8.47266e-08
8.22846e-08
7.98907e-08
7.75602e-08
7.52716e-08
7.30421e-08
7.08487e-08
6.87105e-08
6.66029e-08
6.45468e-08
6.25164e-08
6.05341e-08
5.85728e-08
5.66565e-08
5.47569e-08
5.28996e-08
5.1055e-08
4.92501e-08
4.74543e-08
4.56958e-08
4.39432e-08
4.22257e-08
4.05111e-08
3.88297e-08
3.71486e-08
3.54988e-08
3.38468e-08
3.22246e-08
3.0598e-08
2.89997e-08
2.7395e-08
2.58173e-08
2.42313e-08
2.26712e-08
2.11009e-08
1.95558e-08
1.79978e-08
1.64662e-08
1.49161e-08
1.34004e-08
1.18477e-08
1.03622e-08
8.77787e-09
7.36829e-09
5.66153e-09
4.483e-09
2.37336e-09
1.94386e-09
0.0544834
0.0531147
0.0484996
0.041706
0.032132
0.0194115
0.00340885
-0.0159613
-0.0381162
-0.0620065
-0.0858287
-0.107141
-0.124622
-0.136987
-0.143213
-0.143115
-0.137153
-0.126532
-0.112887
-0.0978657
-0.0828258
-0.0687225
-0.056109
-0.045219
-0.0360647
-0.0285249
-0.0224118
-0.0175156
-0.0136308
-0.0105699
-0.00816933
-0.00629221
-0.00482753
-0.0036877
-0.00280415
-0.00212254
-0.0015993
-0.00119964
-0.00089611
-0.000667098
-0.000495486
-0.000367616
-0.000272666
-0.000202224
-0.000149918
-0.000111027
-8.2093e-05
-6.05821e-05
-4.46158e-05
-3.27893e-05
-2.40469e-05
-1.7596e-05
-1.28424e-05
-9.34341e-06
-6.76991e-06
-4.87843e-06
-3.48918e-06
-2.4696e-06
-1.72205e-06
-1.17461e-06
-7.74332e-07
-4.82253e-07
-2.69699e-07
-1.15583e-07
-4.39312e-09
7.52684e-08
1.31791e-07
1.71331e-07
1.9843e-07
2.16408e-07
2.27728e-07
2.34181e-07
2.37104e-07
2.37458e-07
2.35976e-07
2.33171e-07
2.29446e-07
2.25072e-07
2.20274e-07
2.15192e-07
2.09953e-07
2.04628e-07
1.9929e-07
1.93971e-07
1.88715e-07
1.83534e-07
1.78455e-07
1.73478e-07
1.68621e-07
1.63879e-07
1.59264e-07
1.54768e-07
1.50399e-07
1.46149e-07
1.42021e-07
1.38009e-07
1.34113e-07
1.30329e-07
1.26653e-07
1.23084e-07
1.19616e-07
1.16248e-07
1.12973e-07
1.09793e-07
1.06698e-07
1.03691e-07
1.00762e-07
9.79155e-08
9.51384e-08
9.24392e-08
8.98018e-08
8.72371e-08
8.47272e-08
8.22852e-08
7.98913e-08
7.75609e-08
7.52722e-08
7.30428e-08
7.08494e-08
6.87112e-08
6.66035e-08
6.45476e-08
6.2517e-08
6.05349e-08
5.85734e-08
5.66573e-08
5.47576e-08
5.29004e-08
5.10557e-08
4.92508e-08
4.74549e-08
4.56965e-08
4.39438e-08
4.22264e-08
4.05117e-08
3.88304e-08
3.71491e-08
3.54994e-08
3.38473e-08
3.22252e-08
3.05985e-08
2.90003e-08
2.73954e-08
2.58178e-08
2.42318e-08
2.26718e-08
2.11013e-08
1.95563e-08
1.79982e-08
1.64667e-08
1.49163e-08
1.34008e-08
1.18478e-08
1.03627e-08
8.77742e-09
7.36945e-09
5.6581e-09
4.48865e-09
2.35131e-09
1.98408e-09
0.0561432
0.054812
0.0503239
0.0436674
0.0342036
0.0214799
0.00527552
-0.0146322
-0.0376675
-0.0627958
-0.0879393
-0.110239
-0.128497
-0.141369
-0.147699
-0.147293
-0.140625
-0.129042
-0.114375
-0.0984416
-0.0826933
-0.0681107
-0.0552242
-0.0442223
-0.035068
-0.0275967
-0.0215878
-0.0168085
-0.0130387
-0.0100831
-0.00777467
-0.00597543
-0.00457514
-0.00348777
-0.00264654
-0.00199889
-0.00150278
-0.00112469
-0.000838197
-0.000622598
-0.00046151
-0.000341862
-0.000253287
-0.000187729
-0.000139112
-0.000102978
-7.60978e-05
-5.61169e-05
-4.12932e-05
-3.03208e-05
-2.22164e-05
-1.62407e-05
-1.18406e-05
-8.60376e-06
-6.22435e-06
-4.47636e-06
-3.19308e-06
-2.25168e-06
-1.56174e-06
-1.05672e-06
-6.87666e-07
-4.18553e-07
-2.22886e-07
-8.11858e-08
2.08784e-08
9.38329e-08
1.45427e-07
1.81346e-07
2.05784e-07
2.21808e-07
2.31692e-07
2.3709e-07
2.39238e-07
2.39024e-07
2.37125e-07
2.34013e-07
2.30063e-07
2.25523e-07
2.20604e-07
2.15433e-07
2.10129e-07
2.04756e-07
1.99383e-07
1.94038e-07
1.88764e-07
1.83569e-07
1.7848e-07
1.73495e-07
1.68634e-07
1.63888e-07
1.5927e-07
1.54772e-07
1.50402e-07
1.4615e-07
1.42022e-07
1.38009e-07
1.34113e-07
1.30329e-07
1.26653e-07
1.23084e-07
1.19615e-07
1.16248e-07
1.12973e-07
1.09793e-07
1.06697e-07
1.03691e-07
1.00761e-07
9.79154e-08
9.51381e-08
9.24391e-08
8.98015e-08
8.72371e-08
8.4727e-08
8.22853e-08
7.98911e-08
7.7561e-08
7.5272e-08
7.30429e-08
7.08492e-08
6.87113e-08
6.66034e-08
6.45477e-08
6.25168e-08
6.0535e-08
5.85732e-08
5.66574e-08
5.47574e-08
5.29005e-08
5.10554e-08
4.92509e-08
4.74547e-08
4.56966e-08
4.39435e-08
4.22265e-08
4.05114e-08
3.88305e-08
3.71488e-08
3.54995e-08
3.3847e-08
3.22252e-08
3.05981e-08
2.90003e-08
2.73951e-08
2.58179e-08
2.42314e-08
2.26718e-08
2.11009e-08
1.95563e-08
1.79978e-08
1.64666e-08
1.49158e-08
1.34008e-08
1.18471e-08
1.03627e-08
8.77606e-09
7.37042e-09
5.65334e-09
4.49498e-09
2.32795e-09
2.02548e-09
0.0583336
0.0570567
0.052751
0.0462976
0.0370089
0.0243142
0.00786988
-0.0127513
-0.0369913
-0.0638702
-0.0908721
-0.114507
-0.133826
-0.147399
-0.153872
-0.153035
-0.145375
-0.132439
-0.116349
-0.0991602
-0.0824504
-0.0672298
-0.05399
-0.0428534
-0.033713
-0.0263448
-0.0204831
-0.015865
-0.012252
-0.00943855
-0.00725346
-0.00555804
-0.00424324
-0.00322525
-0.00243987
-0.00183694
-0.0013765
-0.00102673
-0.000762613
-0.000564621
-0.000417339
-0.000308466
-0.000228225
-0.000169026
-0.000125192
-9.26166e-05
-6.83771e-05
-5.03618e-05
-3.7007e-05
-2.71341e-05
-1.9852e-05
-1.44901e-05
-1.05466e-05
-7.64855e-06
-5.51996e-06
-3.95732e-06
-2.81085e-06
-1.97033e-06
-1.35474e-06
-9.04476e-07
-5.75722e-07
-3.36259e-07
-1.624e-07
-3.67333e-08
5.35437e-08
1.17834e-07
1.63061e-07
1.943e-07
2.153e-07
2.28797e-07
2.36826e-07
2.4086e-07
2.42007e-07
2.41057e-07
2.38618e-07
2.35109e-07
2.30868e-07
2.26114e-07
2.21038e-07
2.15752e-07
2.10364e-07
2.04928e-07
1.99511e-07
1.94132e-07
1.88834e-07
1.8362e-07
1.78518e-07
1.73524e-07
1.68656e-07
1.63905e-07
1.59283e-07
1.54783e-07
1.5041e-07
1.46157e-07
1.42028e-07
1.38014e-07
1.34118e-07
1.30333e-07
1.26657e-07
1.23087e-07
1.19619e-07
1.16251e-07
1.12976e-07
1.09796e-07
1.067e-07
1.03694e-07
1.00764e-07
9.79181e-08
9.51406e-08
9.24417e-08
8.98038e-08
8.72395e-08
8.47291e-08
8.22875e-08
7.98931e-08
7.75631e-08
7.52739e-08
7.30449e-08
7.08509e-08
6.87132e-08
6.6605e-08
6.45495e-08
6.25183e-08
6.05366e-08
5.85746e-08
5.66589e-08
5.47586e-08
5.29019e-08
5.10565e-08
4.92522e-08
4.74557e-08
4.56978e-08
4.39444e-08
4.22276e-08
4.05122e-08
3.88315e-08
3.71495e-08
3.55004e-08
3.38476e-08
3.2226e-08
3.05986e-08
2.9001e-08
2.73955e-08
2.58185e-08
2.42317e-08
2.26724e-08
2.11012e-08
1.95568e-08
1.7998e-08
1.64671e-08
1.49159e-08
1.34012e-08
1.18469e-08
1.03633e-08
8.77505e-09
7.37182e-09
5.6489e-09
4.50159e-09
2.30802e-09
2.06055e-09
0.0610333
0.0598307
0.055774
0.0496077
0.0405841
0.0279815
0.0112879
-0.0102161
-0.0360126
-0.0652572
-0.0947482
-0.120072
-0.14076
-0.155271
-0.161954
-0.160554
-0.151559
-0.136805
-0.118818
-0.0999815
-0.0820358
-0.0660164
-0.0523526
-0.041072
-0.0319729
-0.024753
-0.0190898
-0.0146829
-0.0112716
-0.00863887
-0.00660919
-0.00504358
-0.00383506
-0.00290295
-0.00218645
-0.00163854
-0.00122191
-0.000906871
-0.000670184
-0.000493773
-0.000363421
-0.000267762
-0.000197735
-0.000146314
-0.000108306
-8.00519e-05
-5.90121e-05
-4.33783e-05
-3.18047e-05
-2.32664e-05
-1.6983e-05
-1.23663e-05
-8.97722e-06
-6.49051e-06
-4.66634e-06
-3.32859e-06
-2.34803e-06
-1.62981e-06
-1.1043e-06
-7.20337e-07
-4.40365e-07
-2.36779e-07
-8.92972e-08
1.69792e-08
9.30056e-08
1.46823e-07
1.84355e-07
2.09941e-07
2.26787e-07
2.37233e-07
2.43021e-07
2.45409e-07
2.45347e-07
2.43509e-07
2.40417e-07
2.36429e-07
2.31837e-07
2.26825e-07
2.2156e-07
2.16134e-07
2.10645e-07
2.05134e-07
1.99662e-07
1.94243e-07
1.88916e-07
1.83681e-07
1.78563e-07
1.73557e-07
1.6868e-07
1.63923e-07
1.59297e-07
1.54794e-07
1.50419e-07
1.46164e-07
1.42033e-07
1.38019e-07
1.34121e-07
1.30336e-07
1.2666e-07
1.2309e-07
1.19621e-07
1.16253e-07
1.12978e-07
1.09798e-07
1.06702e-07
1.03696e-07
1.00766e-07
9.79199e-08
9.51422e-08
9.24434e-08
8.98053e-08
8.72411e-08
8.47304e-08
8.2289e-08
7.98943e-08
7.75644e-08
7.5275e-08
7.30461e-08
7.08518e-08
6.87143e-08
6.66058e-08
6.45504e-08
6.2519e-08
6.05375e-08
5.85751e-08
5.66597e-08
5.47591e-08
5.29026e-08
5.10569e-08
4.92528e-08
4.7456e-08
4.56983e-08
4.39446e-08
4.2228e-08
4.05123e-08
3.88319e-08
3.71495e-08
3.55007e-08
3.38476e-08
3.22263e-08
3.05986e-08
2.90012e-08
2.73954e-08
2.58187e-08
2.42316e-08
2.26725e-08
2.1101e-08
1.95569e-08
1.79977e-08
1.64671e-08
1.49155e-08
1.34012e-08
1.18463e-08
1.03634e-08
8.77363e-09
7.37287e-09
5.64448e-09
4.50735e-09
2.29215e-09
2.08751e-09
0.0642132
0.0631089
0.0593811
0.053608
0.0449726
0.0325688
0.0156591
-0.00688116
-0.0346196
-0.0669969
-0.0997375
-0.1271
-0.149483
-0.165193
-0.172149
-0.170036
-0.159305
-0.142188
-0.121759
-0.10084
-0.0813687
-0.0643959
-0.0502534
-0.0388379
-0.0298236
-0.0228098
-0.0174047
-0.0132641
-0.0101021
-0.00768991
-0.00584789
-0.00443782
-0.00335586
-0.00252553
-0.00189033
-0.00140716
-0.00104193
-0.00076757
-0.000562949
-0.000411748
-0.000301161
-0.000220914
-0.000162771
-0.000120356
-8.90498e-05
-6.57317e-05
-4.83315e-05
-3.54051e-05
-2.58606e-05
-1.88456e-05
-1.37035e-05
-9.939e-06
-7.18413e-06
-5.16777e-06
-3.69156e-06
-2.61074e-06
-1.81965e-06
-1.24105e-06
-8.18352e-07
-5.10074e-07
-2.85786e-07
-1.23158e-07
-5.79226e-09
7.83435e-08
1.38096e-07
1.79952e-07
2.08694e-07
2.27821e-07
2.39921e-07
2.46881e-07
2.50107e-07
2.50613e-07
2.49169e-07
2.46316e-07
2.42479e-07
2.37944e-07
2.32949e-07
2.27643e-07
2.22161e-07
2.16576e-07
2.1097e-07
2.05374e-07
1.99839e-07
1.94374e-07
1.89013e-07
1.83753e-07
1.78617e-07
1.73599e-07
1.68712e-07
1.63948e-07
1.59317e-07
1.54809e-07
1.50431e-07
1.46174e-07
1.42042e-07
1.38027e-07
1.34128e-07
1.30342e-07
1.26665e-07
1.23095e-07
1.19626e-07
1.16258e-07
1.12982e-07
1.09802e-07
1.06706e-07
1.037e-07
1.00769e-07
9.79234e-08
9.51455e-08
9.24466e-08
8.98083e-08
8.72441e-08
8.47332e-08
8.22917e-08
7.98968e-08
7.75669e-08
7.52772e-08
7.30484e-08
7.08538e-08
6.87164e-08
6.66075e-08
6.45523e-08
6.25206e-08
6.05392e-08
5.85765e-08
5.66612e-08
5.47603e-08
5.29039e-08
5.1058e-08
4.92541e-08
4.74569e-08
4.56994e-08
4.39454e-08
4.2229e-08
4.0513e-08
3.88327e-08
3.71501e-08
3.55014e-08
3.3848e-08
3.2227e-08
3.05989e-08
2.90018e-08
2.73957e-08
2.58192e-08
2.42318e-08
2.26729e-08
2.11011e-08
1.95572e-08
1.79977e-08
1.64674e-08
1.49154e-08
1.34014e-08
1.1846e-08
1.03638e-08
8.77255e-09
7.37405e-09
5.64085e-09
4.51242e-09
2.28039e-09
2.10737e-09
0.0678344
0.0668572
0.063553
0.0583056
0.0502221
0.0381814
0.0211482
-0.00255164
-0.0326595
-0.0691625
-0.106088
-0.1358
-0.160242
-0.177506
-0.184847
-0.181864
-0.168886
-0.148705
-0.125156
-0.101645
-0.0803339
-0.0622607
-0.047607
-0.0360914
-0.0272282
-0.0204955
-0.0154204
-0.0116085
-0.00874784
-0.00659779
-0.00497612
-0.00374693
-0.00281103
-0.00209744
-0.0015551
-0.0011456
-0.000838707
-0.000610407
-0.000442068
-0.000319397
-0.000231199
-0.000168423
-0.000123734
-9.14689e-05
-6.76623e-05
-4.98288e-05
-3.64582e-05
-2.65324e-05
-1.92432e-05
-1.39255e-05
-1.00561e-05
-7.24172e-06
-5.19325e-06
-3.70032e-06
-2.61093e-06
-1.81545e-06
-1.23461e-06
-8.10811e-07
-5.02039e-07
-2.7757e-07
-1.14914e-07
2.40325e-09
8.64636e-08
1.46123e-07
1.87889e-07
2.1653e-07
2.35562e-07
2.47556e-07
2.54416e-07
2.57526e-07
2.57925e-07
2.56354e-07
2.53385e-07
2.49411e-07
2.44752e-07
2.39613e-07
2.34175e-07
2.28543e-07
2.22823e-07
2.17062e-07
2.11328e-07
2.05638e-07
2.00033e-07
1.94518e-07
1.89119e-07
1.83832e-07
1.78677e-07
1.73643e-07
1.68746e-07
1.63974e-07
1.59337e-07
1.54825e-07
1.50444e-07
1.46185e-07
1.42051e-07
1.38034e-07
1.34135e-07
1.30348e-07
1.26671e-07
1.231e-07
1.19631e-07
1.16262e-07
1.12986e-07
1.09806e-07
1.0671e-07
1.03703e-07
1.00773e-07
9.79266e-08
9.51484e-08
9.24495e-08
8.98109e-08
8.72467e-08
8.47355e-08
8.22941e-08
7.98989e-08
7.7569e-08
7.5279e-08
7.30503e-08
7.08554e-08
6.8718e-08
6.66089e-08
6.45538e-08
6.25218e-08
6.05405e-08
5.85775e-08
5.66624e-08
5.47611e-08
5.29049e-08
5.10586e-08
4.92549e-08
4.74574e-08
4.57001e-08
4.39458e-08
4.22296e-08
4.05133e-08
3.88332e-08
3.71503e-08
3.55018e-08
3.38481e-08
3.22273e-08
3.05989e-08
2.9002e-08
2.73956e-08
2.58194e-08
2.42317e-08
2.2673e-08
2.1101e-08
1.95573e-08
1.79975e-08
1.64675e-08
1.49151e-08
1.34014e-08
1.18454e-08
1.03639e-08
8.77135e-09
7.3749e-09
5.63764e-09
4.51641e-09
2.27165e-09
2.12158e-09
0.0718468
0.0710303
0.0682605
0.0637017
0.0563834
0.0449471
0.0279682
0.00304472
-0.0299082
-0.0718621
-0.114152
-0.146443
-0.173303
-0.192509
-0.200373
-0.19637
-0.180549
-0.156459
-0.128982
-0.102289
-0.0788002
-0.0594937
-0.0443263
-0.0327764
-0.0241559
-0.0177974
-0.0131351
-0.0097211
-0.00721667
-0.00537143
-0.00400275
-0.00297916
-0.00220797
-0.00162524
-0.00118642
-0.000858706
-0.000616316
-0.000438792
-0.000310361
-0.000219046
-0.000155459
-0.000111877
-8.19225e-05
-6.06885e-05
-4.49362e-05
-3.29246e-05
-2.3812e-05
-1.70617e-05
-1.21719e-05
-8.66738e-06
-6.15978e-06
-4.36203e-06
-3.069e-06
-2.1354e-06
-1.45898e-06
-9.67881e-07
-6.11191e-07
-3.52372e-07
-1.64988e-07
-2.98078e-08
6.71867e-08
1.36229e-07
1.84802e-07
2.18379e-07
2.40977e-07
2.55533e-07
2.64216e-07
2.68604e-07
2.69878e-07
2.68883e-07
2.66267e-07
2.62481e-07
2.57885e-07
2.52717e-07
2.4718e-07
2.41397e-07
2.35486e-07
2.29507e-07
2.23531e-07
2.17584e-07
2.11713e-07
2.05922e-07
2.00243e-07
1.94674e-07
1.89236e-07
1.83919e-07
1.78743e-07
1.73693e-07
1.68784e-07
1.64004e-07
1.59361e-07
1.54844e-07
1.5046e-07
1.46199e-07
1.42062e-07
1.38044e-07
1.34144e-07
1.30356e-07
1.26678e-07
1.23107e-07
1.19637e-07
1.16268e-07
1.12992e-07
1.09812e-07
1.06715e-07
1.03708e-07
1.00777e-07
9.79311e-08
9.51525e-08
9.24535e-08
8.98146e-08
8.72503e-08
8.47388e-08
8.22973e-08
7.99018e-08
7.75719e-08
7.52816e-08
7.30529e-08
7.08577e-08
6.87203e-08
6.66109e-08
6.45558e-08
6.25235e-08
6.05422e-08
5.8579e-08
5.66638e-08
5.47623e-08
5.29062e-08
5.10597e-08
4.9256e-08
4.74582e-08
4.57011e-08
4.39465e-08
4.22304e-08
4.05138e-08
3.88338e-08
3.71507e-08
3.55024e-08
3.38484e-08
3.22277e-08
3.05991e-08
2.90024e-08
2.73957e-08
2.58196e-08
2.42317e-08
2.26732e-08
2.11009e-08
1.95575e-08
1.79974e-08
1.64676e-08
1.49149e-08
1.34015e-08
1.1845e-08
1.03641e-08
8.77041e-09
7.37572e-09
5.63515e-09
4.51968e-09
2.26538e-09
2.13178e-09
0.0761872
0.0755694
0.0734597
0.0697836
0.063501
0.0530063
0.0363744
0.010265
-0.026068
-0.0753024
-0.124419
-0.159313
-0.18905
-0.21082
-0.219462
-0.214206
-0.194706
-0.165582
-0.133151
-0.102588
-0.0765708
-0.0559304
-0.0402926
-0.0288181
-0.0205664
-0.0146994
-0.010548
-0.00760905
-0.00551952
-0.00402262
-0.00293881
-0.00214406
-0.00155457
-0.00111515
-0.000789106
-0.000550074
-0.000377385
-0.000254594
-0.000169152
-0.000111652
-7.46708e-05
-5.18766e-05
-3.78464e-05
-2.84324e-05
-2.11873e-05
-1.52424e-05
-1.05417e-05
-7.09872e-06
-4.72828e-06
-3.13677e-06
-2.06706e-06
-1.3414e-06
-8.43701e-07
-4.97957e-07
-2.54858e-07
-8.2665e-08
3.94757e-08
1.25828e-07
1.86418e-07
2.28396e-07
2.56892e-07
2.75598e-07
2.87186e-07
2.93589e-07
2.96224e-07
2.96113e-07
2.94022e-07
2.90497e-07
2.85957e-07
2.80692e-07
2.7494e-07
2.6885e-07
2.62563e-07
2.56152e-07
2.49704e-07
2.43251e-07
2.36848e-07
2.30508e-07
2.24268e-07
2.18126e-07
2.12112e-07
2.06216e-07
2.00462e-07
1.94836e-07
1.89356e-07
1.8401e-07
1.78811e-07
1.73745e-07
1.68824e-07
1.64035e-07
1.59386e-07
1.54864e-07
1.50477e-07
1.46213e-07
1.42074e-07
1.38055e-07
1.34153e-07
1.30365e-07
1.26686e-07
1.23114e-07
1.19644e-07
1.16275e-07
1.12998e-07
1.09817e-07
1.0672e-07
1.03713e-07
1.00782e-07
9.79355e-08
9.51567e-08
9.24575e-08
8.98183e-08
8.72539e-08
8.47421e-08
8.23005e-08
7.99047e-08
7.75748e-08
7.52841e-08
7.30554e-08
7.08599e-08
6.87225e-08
6.66128e-08
6.45577e-08
6.25251e-08
6.05439e-08
5.85804e-08
5.66653e-08
5.47635e-08
5.29074e-08
5.10606e-08
4.9257e-08
4.7459e-08
4.57019e-08
4.39471e-08
4.22311e-08
4.05143e-08
3.88344e-08
3.7151e-08
3.55028e-08
3.38486e-08
3.22281e-08
3.05992e-08
2.90026e-08
2.73958e-08
2.58198e-08
2.42317e-08
2.26734e-08
2.11008e-08
1.95575e-08
1.79973e-08
1.64676e-08
1.49146e-08
1.34015e-08
1.18445e-08
1.03641e-08
8.7695e-09
7.37631e-09
5.63308e-09
4.52214e-09
2.26078e-09
2.13899e-09
0.0807769
0.0804001
0.079089
0.0765231
0.0716109
0.0625226
0.0466944
0.0196258
-0.020687
-0.0797732
-0.137683
-0.174848
-0.207724
-0.232734
-0.242592
-0.236036
-0.211884
-0.176302
-0.13762
-0.102359
-0.0734333
-0.0513962
-0.035387
-0.0241475
-0.0164272
-0.0111917
-0.00766229
-0.00528218
-0.00366873
-0.00256407
-0.00179636
-0.00125261
-0.000860576
-0.000575752
-0.000370571
-0.000226038
-0.000127232
-6.22164e-05
-2.20487e-05
-1.73045e-07
8.72109e-06
9.5482e-06
6.8259e-06
3.97732e-06
2.59481e-06
2.51877e-06
2.86947e-06
3.01753e-06
2.84183e-06
2.48441e-06
2.08742e-06
1.72119e-06
1.41026e-06
1.15924e-06
9.63086e-07
8.12408e-07
6.97274e-07
6.09238e-07
5.4165e-07
4.89421e-07
4.48682e-07
4.1651e-07
3.90713e-07
3.69647e-07
3.52099e-07
3.3716e-07
3.24174e-07
3.12645e-07
3.02226e-07
2.92642e-07
2.83717e-07
2.75297e-07
2.67298e-07
2.59631e-07
2.5226e-07
2.45129e-07
2.38229e-07
2.31523e-07
2.25016e-07
2.18677e-07
2.12519e-07
2.06517e-07
2.00685e-07
1.95002e-07
1.89481e-07
1.84104e-07
1.78882e-07
1.738e-07
1.68867e-07
1.64069e-07
1.59413e-07
1.54887e-07
1.50495e-07
1.46228e-07
1.42088e-07
1.38067e-07
1.34164e-07
1.30375e-07
1.26695e-07
1.23123e-07
1.19652e-07
1.16282e-07
1.13005e-07
1.09824e-07
1.06726e-07
1.03719e-07
1.00788e-07
9.79409e-08
9.51617e-08
9.24624e-08
8.98228e-08
8.72582e-08
8.4746e-08
8.23043e-08
7.99081e-08
7.75781e-08
7.52871e-08
7.30582e-08
7.08625e-08
6.8725e-08
6.6615e-08
6.45598e-08
6.25269e-08
6.05457e-08
5.85819e-08
5.66668e-08
5.47648e-08
5.29087e-08
5.10616e-08
4.9258e-08
4.74598e-08
4.57027e-08
4.39477e-08
4.22317e-08
4.05147e-08
3.88349e-08
3.71513e-08
3.55032e-08
3.38488e-08
3.22283e-08
3.05993e-08
2.90028e-08
2.73958e-08
2.58199e-08
2.42316e-08
2.26734e-08
2.11007e-08
1.95575e-08
1.79971e-08
1.64675e-08
1.49144e-08
1.34014e-08
1.18441e-08
1.03641e-08
8.76876e-09
7.3768e-09
5.6315e-09
4.52406e-09
2.25751e-09
2.14416e-09
0.0855207
0.0854282
0.0850619
0.0838572
0.0807174
0.0736382
0.059286
0.0317795
-0.0132212
-0.0858749
-0.154764
-0.193326
-0.230092
-0.259431
-0.270922
-0.262837
-0.232643
-0.188716
-0.142168
-0.10127
-0.06908
-0.0456618
-0.0294637
-0.0186877
-0.0117089
-0.00727428
-0.00449329
-0.00276186
-0.00168642
-0.00101588
-0.000592308
-0.000318337
-0.000136441
-1.48813e-05
6.34467e-05
0.000109329
0.000131353
0.000136494
0.000129733
0.000114545
9.40388e-05
7.17693e-05
5.14946e-05
3.60185e-05
2.60216e-05
2.01088e-05
1.62679e-05
1.31811e-05
1.04521e-05
8.1228e-06
6.24386e-06
4.77897e-06
3.65694e-06
2.80867e-06
2.17387e-06
1.70139e-06
1.35012e-06
1.08871e-06
8.93799e-07
7.48061e-07
6.38644e-07
5.56031e-07
4.93188e-07
4.44912e-07
4.07379e-07
3.77761e-07
3.53994e-07
3.34546e-07
3.1831e-07
3.04454e-07
2.92392e-07
2.81669e-07
2.71978e-07
2.63068e-07
2.54785e-07
2.46984e-07
2.39593e-07
2.32527e-07
2.25754e-07
2.19222e-07
2.12921e-07
2.06815e-07
2.00906e-07
1.95167e-07
1.89605e-07
1.84197e-07
1.78953e-07
1.73855e-07
1.6891e-07
1.64103e-07
1.59441e-07
1.5491e-07
1.50514e-07
1.46245e-07
1.42103e-07
1.3808e-07
1.34176e-07
1.30386e-07
1.26705e-07
1.23132e-07
1.1966e-07
1.1629e-07
1.13013e-07
1.09831e-07
1.06733e-07
1.03726e-07
1.00794e-07
9.79466e-08
9.5167e-08
9.24674e-08
8.98275e-08
8.72627e-08
8.47502e-08
8.23083e-08
7.99118e-08
7.75816e-08
7.52904e-08
7.30614e-08
7.08653e-08
6.87277e-08
6.66174e-08
6.45622e-08
6.2529e-08
6.05477e-08
5.85837e-08
5.66685e-08
5.47662e-08
5.29101e-08
5.10628e-08
4.92592e-08
4.74608e-08
4.57037e-08
4.39485e-08
4.22325e-08
4.05153e-08
3.88355e-08
3.71518e-08
3.55037e-08
3.38491e-08
3.22287e-08
3.05995e-08
2.90031e-08
2.73958e-08
2.58201e-08
2.42316e-08
2.26735e-08
2.11007e-08
1.95576e-08
1.79969e-08
1.64675e-08
1.49141e-08
1.34013e-08
1.18437e-08
1.03642e-08
8.76812e-09
7.37716e-09
5.63025e-09
4.52547e-09
2.25512e-09
2.14781e-09
0.0903058
0.0905415
0.0912634
0.0916942
0.0907899
0.0865229
0.074622
0.0477858
-0.00270577
-0.0945593
-0.178014
-0.21512
-0.255463
-0.290953
-0.30558
-0.296193
-0.258161
-0.203294
-0.146683
-0.0989713
-0.0631576
-0.0384737
-0.0223722
-0.012365
-0.00638561
-0.00294728
-0.00105349
-6.5296e-05
0.000409355
0.000604811
0.000657714
0.000644745
0.000605381
0.000556497
0.000503445
0.000447958
0.000391664
0.00033606
0.000281764
0.000228901
0.000178298
0.000132274
9.40711e-05
6.60478e-05
4.79094e-05
3.67427e-05
2.91491e-05
2.30492e-05
1.78503e-05
1.35874e-05
1.02602e-05
7.72845e-06
5.82154e-06
4.39634e-06
3.33855e-06
2.55624e-06
1.97781e-06
1.54968e-06
1.23236e-06
9.9673e-07
8.21293e-07
6.90192e-07
5.91734e-07
5.17298e-07
4.60549e-07
4.16816e-07
3.82681e-07
3.55616e-07
3.33786e-07
3.15822e-07
3.00741e-07
2.87801e-07
2.76483e-07
2.66378e-07
2.57217e-07
2.48772e-07
2.40908e-07
2.33495e-07
2.26468e-07
2.19748e-07
2.1331e-07
2.07104e-07
2.01121e-07
1.95328e-07
1.89726e-07
1.84289e-07
1.79024e-07
1.7391e-07
1.68954e-07
1.64138e-07
1.59469e-07
1.54934e-07
1.50535e-07
1.46263e-07
1.42118e-07
1.38094e-07
1.34189e-07
1.30397e-07
1.26716e-07
1.23142e-07
1.1967e-07
1.16299e-07
1.13021e-07
1.09839e-07
1.06741e-07
1.03733e-07
1.008e-07
9.7953e-08
9.5173e-08
9.24731e-08
8.98328e-08
8.72676e-08
8.47548e-08
8.23126e-08
7.99158e-08
7.75853e-08
7.52938e-08
7.30646e-08
7.08682e-08
6.87304e-08
6.66198e-08
6.45644e-08
6.2531e-08
6.05496e-08
5.85853e-08
5.667e-08
5.47676e-08
5.29114e-08
5.10639e-08
4.92602e-08
4.74616e-08
4.57045e-08
4.3949e-08
4.22331e-08
4.05157e-08
3.88359e-08
3.7152e-08
3.55039e-08
3.38492e-08
3.22288e-08
3.05995e-08
2.90031e-08
2.73957e-08
2.582e-08
2.42314e-08
2.26734e-08
2.11004e-08
1.95574e-08
1.79967e-08
1.64673e-08
1.49138e-08
1.34011e-08
1.18433e-08
1.0364e-08
8.76753e-09
7.37738e-09
5.62928e-09
4.52652e-09
2.2534e-09
2.15043e-09
0.0950019
0.0956016
0.0975428
0.0998647
0.101715
0.101176
0.0930995
0.0686976
0.0115569
-0.106308
-0.207487
-0.241707
-0.286934
-0.329704
-0.348347
-0.337821
-0.289456
-0.220198
-0.150777
-0.0949321
-0.0552136
-0.0295361
-0.0139579
-0.00512587
-0.000463459
0.00175432
0.00261246
0.00276377
0.00258069
0.00226745
0.0019303
0.00161932
0.00135241
0.0011296
0.000943428
0.000785948
0.000651334
0.00053517
0.000433355
0.000342464
0.000261056
0.000190474
0.000133855
9.34091e-05
6.77868e-05
5.21587e-05
4.13813e-05
3.25298e-05
2.49462e-05
1.87944e-05
1.4069e-05
1.05197e-05
7.86731e-06
5.89477e-06
4.43644e-06
3.36138e-06
2.56861e-06
1.9833e-06
1.55065e-06
1.2304e-06
9.92851e-07
8.16161e-07
6.84235e-07
5.85226e-07
5.10433e-07
4.5345e-07
4.09583e-07
3.75373e-07
3.48295e-07
3.26476e-07
3.08566e-07
2.93548e-07
2.80704e-07
2.69479e-07
2.59496e-07
2.50447e-07
2.42141e-07
2.34402e-07
2.27136e-07
2.20242e-07
2.13676e-07
2.07375e-07
2.01324e-07
1.9548e-07
1.89841e-07
1.84377e-07
1.79092e-07
1.73963e-07
1.68996e-07
1.64172e-07
1.59498e-07
1.54957e-07
1.50555e-07
1.46281e-07
1.42134e-07
1.38109e-07
1.34202e-07
1.3041e-07
1.26727e-07
1.23153e-07
1.1968e-07
1.16309e-07
1.1303e-07
1.09847e-07
1.06749e-07
1.0374e-07
1.00807e-07
9.79598e-08
9.51794e-08
9.24792e-08
8.98384e-08
8.72731e-08
8.47599e-08
8.23174e-08
7.99203e-08
7.75896e-08
7.52977e-08
7.30683e-08
7.08716e-08
6.87337e-08
6.66228e-08
6.45673e-08
6.25336e-08
6.0552e-08
5.85875e-08
5.66721e-08
5.47693e-08
5.2913e-08
5.10654e-08
4.92616e-08
4.74628e-08
4.57056e-08
4.395e-08
4.2234e-08
4.05164e-08
3.88366e-08
3.71526e-08
3.55045e-08
3.38496e-08
3.22292e-08
3.05998e-08
2.90034e-08
2.73959e-08
2.58202e-08
2.42315e-08
2.26735e-08
2.11004e-08
1.95575e-08
1.79966e-08
1.64673e-08
1.49137e-08
1.34011e-08
1.1843e-08
1.0364e-08
8.76711e-09
7.37757e-09
5.62855e-09
4.5273e-09
2.25216e-09
2.15229e-09
0.0994632
0.100456
0.103709
0.108169
0.113284
0.117709
0.115329
0.0974176
0.0317189
-0.130532
-0.250649
-0.268477
-0.321215
-0.378936
-0.404014
-0.391817
-0.329382
-0.240473
-0.154137
-0.0884208
-0.0446106
-0.0184523
-0.00401688
0.00311276
0.00607763
0.00682141
0.00648413
0.00570201
0.00480482
0.003951
0.00320624
0.00258789
0.00208877
0.00169026
0.00137111
0.00111301
0.000901994
0.00072715
0.000579213
0.000450971
0.000338758
0.000243324
0.000168295
0.000116143
8.4348e-05
6.55917e-05
5.25235e-05
4.132e-05
3.14957e-05
2.35492e-05
1.75274e-05
1.30521e-05
9.72366e-06
7.25363e-06
5.43153e-06
4.09113e-06
3.10413e-06
2.37636e-06
1.83917e-06
1.44221e-06
1.14837e-06
9.30366e-07
7.68104e-07
6.46821e-07
5.5567e-07
4.86673e-07
4.33984e-07
3.93293e-07
3.61456e-07
3.36142e-07
3.15666e-07
2.98763e-07
2.84535e-07
2.72294e-07
2.61565e-07
2.51969e-07
2.43261e-07
2.35227e-07
2.27746e-07
2.20693e-07
2.1401e-07
2.07625e-07
2.0151e-07
1.95621e-07
1.89948e-07
1.8446e-07
1.79157e-07
1.74015e-07
1.69037e-07
1.64206e-07
1.59526e-07
1.54982e-07
1.50577e-07
1.46299e-07
1.42151e-07
1.38124e-07
1.34216e-07
1.30423e-07
1.2674e-07
1.23165e-07
1.19691e-07
1.16319e-07
1.1304e-07
1.09857e-07
1.06757e-07
1.03749e-07
1.00815e-07
9.79671e-08
9.51862e-08
9.24856e-08
8.98444e-08
8.72787e-08
8.47651e-08
8.23223e-08
7.99247e-08
7.75937e-08
7.53015e-08
7.30717e-08
7.08747e-08
6.87365e-08
6.66254e-08
6.45696e-08
6.25357e-08
6.05539e-08
5.85891e-08
5.66736e-08
5.47707e-08
5.29143e-08
5.10664e-08
4.92625e-08
4.74635e-08
4.57063e-08
4.39505e-08
4.22344e-08
4.05167e-08
3.88369e-08
3.71527e-08
3.55046e-08
3.38496e-08
3.22292e-08
3.05996e-08
2.90033e-08
2.73957e-08
2.582e-08
2.42312e-08
2.26732e-08
2.11001e-08
1.95572e-08
1.79962e-08
1.6467e-08
1.49132e-08
1.34008e-08
1.18426e-08
1.03638e-08
8.76661e-09
7.37759e-09
5.62793e-09
4.52782e-09
2.25125e-09
2.15361e-09
0.103532
0.104922
0.109532
0.116242
0.125139
0.135403
0.141511
0.133188
0.0597788
-0.141219
-0.319049
-0.31562
-0.362929
-0.431337
-0.465965
-0.453346
-0.374976
-0.262776
-0.15594
-0.0787105
-0.0307478
-0.00485105
0.00761668
0.0123755
0.0131892
0.0121787
0.0104852
0.0086837
0.00703014
0.00561737
0.00445864
0.00353201
0.00280203
0.00223027
0.00178138
0.00142631
0.00114249
0.000911931
0.000719787
0.000554906
0.000411589
0.000290598
0.000196894
0.00013375
9.72793e-05
7.696e-05
6.25636e-05
4.93603e-05
3.73934e-05
2.77504e-05
2.05629e-05
1.52792e-05
1.13581e-05
8.44875e-06
6.30582e-06
4.732e-06
3.57427e-06
2.72121e-06
2.09215e-06
1.62784e-06
1.28462e-06
1.03038e-06
8.41527e-07
7.00729e-07
5.95252e-07
5.15736e-07
4.55324e-07
4.08963e-07
3.72962e-07
3.44591e-07
3.2187e-07
3.0332e-07
2.87882e-07
2.74753e-07
2.63373e-07
2.53299e-07
2.4424e-07
2.35949e-07
2.28279e-07
2.21088e-07
2.14304e-07
2.07844e-07
2.01676e-07
1.95746e-07
1.90044e-07
1.84534e-07
1.79216e-07
1.74062e-07
1.69076e-07
1.64238e-07
1.59553e-07
1.55005e-07
1.50597e-07
1.46318e-07
1.42168e-07
1.3814e-07
1.34231e-07
1.30437e-07
1.26753e-07
1.23177e-07
1.19702e-07
1.1633e-07
1.1305e-07
1.09866e-07
1.06766e-07
1.03757e-07