/*--------------------------------*- C++ -*----------------------------------*\
  =========                 |
  \\      /  F ield         | OpenFOAM: The Open Source CFD Toolbox
   \\    /   O peration     | Website:  https://openfoam.org
    \\  /    A nd           | Version:  11
     \\/     M anipulation  |
\*---------------------------------------------------------------------------*/
FoamFile
{
    format      ascii;
    class       volVectorField;
    location    "1.740573";
    object      U_0;
}
// * * * * * * * * * * * * * * * * * * * * * * * * * * * * * * * * * * * * * //

dimensions      [0 1 -1 0 0 0 0];

internalField   nonuniform List<vector> 
7132
(
(1.00014 -0.000278844 2.17336e-18)
(1.00216 -0.00083945 7.92541e-18)
(1.00673 -0.00143018 8.19185e-18)
(1.01365 -0.00205963 9.58174e-18)
(1.02318 -0.00272678 1.19974e-17)
(1.03545 -0.00340575 1.25462e-17)
(1.05044 -0.00404947 1.21164e-17)
(1.06789 -0.00456992 1.13527e-17)
(1.0871 -0.00487081 1.06707e-17)
(1.10699 -0.00484778 1.01685e-17)
(1.12604 -0.00443509 9.63125e-18)
(1.14267 -0.00368296 9.54871e-18)
(1.15566 -0.00265133 9.2193e-18)
(1.164 -0.00141434 1.02148e-17)
(1.16706 -8.3321e-05 1.78046e-18)
(1.16469 0.0012157 -7.15688e-18)
(1.15731 0.0023528 -1.6e-17)
(1.1458 0.00322537 -1.51003e-17)
(1.1314 0.00378277 -2.07072e-17)
(1.11543 0.00402988 -2.63926e-17)
(1.09908 0.00401264 -2.48521e-17)
(1.08327 0.00379823 -2.25417e-17)
(1.06866 0.0034571 -2.00813e-17)
(1.05561 0.00305149 -1.72514e-17)
(1.04426 0.00262965 -1.14632e-17)
(1.0346 0.00222396 -9.27574e-18)
(1.0265 0.00185081 -8.41614e-18)
(1.01982 0.00151231 -8.71328e-18)
(1.01442 0.00120098 -8.11933e-18)
(1.01022 0.000907992 -4.46724e-18)
(1.00716 0.000632181 9.45248e-19)
(1.00515 0.000384876 5.46111e-18)
(1.00406 0.000186678 6.89529e-18)
(1.00364 5.70604e-05 5.36573e-18)
(1.00359 2.7797e-06 7.13164e-19)
(1.00361 1.22841e-05 -3.63364e-18)
(1.00348 5.94628e-05 -6.21354e-18)
(1.00313 0.00011417 -5.80329e-18)
(1.00257 0.000153213 -3.14093e-18)
(1.0019 0.000166233 -1.3106e-18)
(1.00123 0.000154884 -5.87187e-19)
(1.00065 0.000127642 -1.45136e-18)
(1.0002 9.41181e-05 -2.04323e-18)
(0.999891 6.15453e-05 -1.22147e-18)
(0.999703 3.39235e-05 -2.68281e-19)
(0.999615 1.27666e-05 9.68881e-19)
(0.999598 -1.84435e-06 1.22683e-18)
(0.999628 -1.05711e-05 1.29924e-18)
(0.999682 -1.4508e-05 1.8529e-18)
(0.999744 -1.50006e-05 1.25082e-18)
(0.999802 -1.34291e-05 -3.92906e-19)
(0.999851 -1.09739e-05 -1.078e-18)
(0.999889 -8.45434e-06 -7.20389e-19)
(0.999918 -6.30104e-06 -6.99538e-19)
(0.999939 -4.64057e-06 -6.05942e-19)
(0.999955 -3.42555e-06 -1.13988e-18)
(0.999967 -2.54777e-06 -1.32102e-18)
(0.999975 -1.90514e-06 -6.98588e-19)
(0.999982 -1.42493e-06 -5.56979e-19)
(0.999987 -1.06166e-06 -4.29357e-19)
(0.99999 -7.86913e-07 -9.94754e-19)
(0.999993 -5.80813e-07 -1.11113e-18)
(0.999995 -4.27685e-07 -9.22546e-19)
(0.999996 -3.14661e-07 -1.57747e-18)
(0.999997 -2.31444e-07 -1.07503e-18)
(0.999998 -1.70155e-07 -8.49654e-19)
(0.999999 -1.24967e-07 -7.91457e-19)
(0.999999 -9.16333e-08 -5.91239e-19)
(0.999999 -6.70531e-08 -1.27231e-18)
(1 -4.8944e-08 -7.98319e-19)
(1 -3.56139e-08 -5.95472e-19)
(1 -2.58088e-08 -5.55184e-19)
(1 -1.86e-08 -3.71924e-19)
(1 -1.33032e-08 -1.0707e-18)
(1 -9.41358e-09 -6.1266e-19)
(1 -6.56008e-09 -4.17472e-19)
(1 -4.46914e-09 -3.68852e-19)
(1 -2.93941e-09 -1.56856e-19)
(1 -1.82256e-09 -8.09446e-19)
(1 -1.00937e-09 -2.99233e-19)
(1 -4.19496e-10 -6.27549e-20)
(1 6.20554e-12 4.27518e-22)
(1 3.11424e-10 1.92008e-19)
(1 5.28049e-10 -5.13319e-19)
(1 6.79594e-10 -7.60745e-20)
(1 7.83516e-10 8.36073e-20)
(1 8.52455e-10 8.09982e-20)
(1 8.95897e-10 2.27396e-19)
(1 9.20647e-10 -4.99239e-19)
(1 9.31868e-10 -6.45137e-20)
(1 9.33236e-10 1.26e-19)
(1 9.27549e-10 4.0443e-20)
(1 9.16807e-10 7.87736e-19)
(1 9.02498e-10 3.55353e-19)
(1 8.85748e-10 2.63454e-19)
(1 8.67298e-10 2.97049e-19)
(1 8.47835e-10 1.30156e-19)
(1 8.27664e-10 8.22344e-19)
(1 8.07269e-10 3.5526e-19)
(1 7.86682e-10 2.46432e-19)
(1 7.66313e-10 2.75308e-19)
(1 7.46005e-10 1.09063e-19)
(1 7.26168e-10 8.01909e-19)
(1 7.06503e-10 3.3305e-19)
(1 6.87455e-10 2.20167e-19)
(1 6.68609e-10 2.44122e-19)
(1 6.50468e-10 7.34642e-20)
(1 6.32516e-10 7.63121e-19)
(1 6.15325e-10 2.92372e-19)
(1 5.98282e-10 1.78655e-19)
(1 5.82036e-10 2.02526e-19)
(1 5.65884e-10 3.22617e-20)
(1 5.50552e-10 7.22633e-19)
(1 5.35254e-10 2.52974e-19)
(1 5.2079e-10 1.41214e-19)
(1 5.06297e-10 1.67983e-19)
(1 4.92652e-10 2.92541e-21)
(1 4.78918e-10 6.90027e-19)
(1 4.66037e-10 2.42432e-19)
(1 4.53006e-10 -8.10875e-21)
(1 4.40839e-10 5.54244e-19)
(1 4.28465e-10 5.99966e-19)
(1 4.1696e-10 6.61612e-19)
(1 4.05193e-10 4.29306e-20)
(1 3.94302e-10 -2.47968e-19)
(1 3.83099e-10 3.30416e-19)
(1 3.72778e-10 4.23517e-19)
(1 3.62097e-10 5.44634e-19)
(1 3.52304e-10 -2.01007e-20)
(1 3.42109e-10 -2.74299e-19)
(1 3.32808e-10 3.2053e-19)
(1 3.23064e-10 4.143e-19)
(1 3.14221e-10 5.28236e-19)
(1 3.049e-10 -4.44115e-20)
(1 2.96482e-10 -3.0335e-19)
(1 2.87554e-10 2.90521e-19)
(1 2.79536e-10 3.85793e-19)
(1 2.70978e-10 5.02006e-19)
(1 2.63332e-10 -6.8709e-20)
(1 2.55121e-10 -3.26416e-19)
(1 2.47828e-10 2.68176e-19)
(1 2.39944e-10 3.6413e-19)
(1 2.32979e-10 4.81508e-19)
(1 2.25405e-10 -8.73328e-20)
(1 2.18755e-10 -3.43069e-19)
(1 2.11476e-10 2.51653e-19)
(1 2.05121e-10 3.42847e-19)
(1 1.98118e-10 4.47743e-19)
(1 1.92044e-10 -1.41807e-19)
(1 1.85303e-10 -4.23011e-19)
(1 1.7951e-10 1.48688e-19)
(1 1.73005e-10 2.27612e-19)
(1 1.67535e-10 3.36575e-19)
(1 1.61137e-10 -2.32783e-19)
(1 1.56289e-10 -4.83155e-19)
(1 1.49263e-10 1.18746e-19)
(1 1.47169e-10 2.29475e-19)
(1 1.34902e-10 3.19427e-19)
(1 1.48521e-10 -9.34319e-20)
(1 1.1172e-10 -1.06093e-18)
(1.00014 -0.000833969 3.15132e-20)
(1.00214 -0.00251198 3.84485e-19)
(1.00668 -0.00428181 7.52226e-19)
(1.01356 -0.0061718 1.11926e-18)
(1.02307 -0.00818005 1.5557e-18)
(1.03536 -0.0102302 2.01197e-18)
(1.05043 -0.0121816 2.39299e-18)
(1.06806 -0.0137667 2.56487e-18)
(1.08754 -0.0146923 5.3025e-18)
(1.10781 -0.0146344 5.86114e-18)
(1.12723 -0.0133898 4.35171e-18)
(1.14417 -0.0111194 9.6392e-18)
(1.1574 -0.00800506 9.0234e-18)
(1.1659 -0.00426887 9.30059e-18)
(1.16898 -0.000248788 9.72393e-18)
(1.16652 0.00367372 9.49741e-18)
(1.15892 0.00710312 8.21359e-18)
(1.14711 0.00972791 6.49082e-18)
(1.1324 0.0113964 4.42113e-18)
(1.11613 0.0121266 2.1366e-18)
(1.09953 0.0120605 1.00029e-20)
(1.08355 0.0114034 -1.91624e-18)
(1.06883 0.0103689 -3.1139e-18)
(1.05573 0.00914467 -2.78671e-18)
(1.04436 0.00787523 -1.08195e-18)
(1.0347 0.00665715 -5.427e-19)
(1.02663 0.00553904 -3.71694e-18)
(1.01997 0.00452678 -9.39741e-18)
(1.0146 0.00359756 -1.17019e-17)
(1.01041 0.00272416 -3.57952e-18)
(1.00735 0.0019019 1.32273e-17)
(1.00533 0.00116349 2.67143e-17)
(1.00421 0.000569938 2.81372e-17)
(1.00377 0.000179742 1.1803e-17)
(1.00369 1.41609e-05 -1.36241e-17)
(1.00369 3.9904e-05 -3.22556e-17)
(1.00355 0.000179721 -3.61971e-17)
(1.00319 0.00034355 -2.34869e-17)
(1.00262 0.000461486 -4.72049e-18)
(1.00194 0.000501763 9.19876e-18)
(1.00126 0.000468682 1.31451e-17)
(1.00067 0.000387311 6.69784e-18)
(1.00022 0.00028645 -1.50088e-18)
(0.999897 0.000187984 -7.12865e-18)
(0.999706 0.000104181 -8.04909e-18)
(0.999616 3.98181e-05 -5.28818e-18)
(0.999599 -4.71246e-06 -3.2824e-18)
(0.99963 -3.13416e-05 -8.75372e-19)
(0.999686 -4.33745e-05 8.6325e-19)
(0.999748 -4.49134e-05 7.7873e-19)
(0.999807 -4.01774e-05 1.09037e-18)
(0.999855 -3.27703e-05 6.8088e-19)
(0.999893 -2.51867e-05 1.21136e-19)
(0.999921 -1.87293e-05 -1.37132e-19)
(0.999942 -1.37714e-05 -9.91205e-19)
(0.999957 -1.01589e-05 -5.34289e-19)
(0.999968 -7.55691e-06 -3.77865e-19)
(0.999976 -5.65404e-06 -3.42917e-19)
(0.999982 -4.23124e-06 -1.94738e-19)
(0.999987 -3.15353e-06 -8.74926e-19)
(0.99999 -2.33758e-06 -3.9872e-19)
(0.999993 -1.72524e-06 -3.24208e-19)
(0.999995 -1.27033e-06 -1.7204e-19)
(0.999996 -9.3468e-07 -7.99995e-19)
(0.999997 -6.87618e-07 -6.23209e-19)
(0.999998 -5.05675e-07 8.13293e-19)
(0.999999 -3.71519e-07 -1.66873e-19)
(0.999999 -2.72544e-07 -2.48442e-19)
(0.999999 -1.99552e-07 -9.12994e-19)
(1 -1.45772e-07 -7.22873e-19)
(1 -1.06182e-07 7.40605e-19)
(1 -7.70597e-08 -2.11414e-19)
(1 -5.56473e-08 -2.70165e-19)
(1 -3.99114e-08 -9.19238e-19)
(1 -2.83545e-08 -7.18012e-19)
(1 -1.98739e-08 7.58979e-19)
(1 -1.36579e-08 -1.6971e-19)
(1 -9.10829e-09 -1.91381e-19)
(1 -5.78478e-09 -7.92359e-19)
(1 -3.36293e-09 -5.41732e-19)
(1 -1.6042e-09 9.72574e-19)
(1 -3.32812e-10 5.75735e-20)
(1 5.80517e-10 2.13715e-20)
(1 1.23091e-09 -6.18156e-19)
(1 1.68817e-09 -4.19305e-19)
(1 2.00395e-09 1.04294e-18)
(1 2.21594e-09 8.54225e-20)
(1 2.35214e-09 2.38992e-20)
(1 2.43288e-09 -6.32477e-19)
(1 2.47337e-09 -4.04514e-19)
(1 2.4846e-09 9.58507e-19)
(1 2.47479e-09 4.49272e-19)
(1 2.44991e-09 8.96632e-19)
(1 2.41436e-09 9.1354e-19)
(1 2.37143e-09 7.99288e-19)
(1 2.3234e-09 8.39011e-19)
(1 2.27218e-09 7.26946e-20)
(1 2.21883e-09 5.1378e-19)
(1 2.16456e-09 5.80866e-19)
(1 2.10975e-09 5.26304e-19)
(1 2.05526e-09 6.2165e-19)
(1 2.00104e-09 -9.86815e-20)
(1 1.94781e-09 3.76804e-19)
(1 1.89524e-09 4.67624e-19)
(1 1.84404e-09 4.28849e-19)
(1 1.79365e-09 5.3512e-19)
(1 1.74482e-09 -1.76807e-19)
(1 1.69683e-09 3.05834e-19)
(1 1.65051e-09 4.03025e-19)
(1 1.60498e-09 3.69925e-19)
(1 1.56116e-09 4.81192e-19)
(1 1.51805e-09 -2.26409e-19)
(1 1.47665e-09 2.59939e-19)
(1 1.43585e-09 3.60423e-19)
(1 1.39676e-09 3.30856e-19)
(1 1.35815e-09 4.46335e-19)
(1 1.32123e-09 -2.54693e-19)
(1 1.28468e-09 2.3144e-19)
(1 1.24979e-09 3.55642e-19)
(1 1.21515e-09 2.00123e-19)
(1 1.18216e-09 8.41267e-19)
(1 1.14931e-09 3.22925e-19)
(1 1.11807e-09 1.82718e-19)
(1 1.08687e-09 1.43782e-19)
(1 1.05726e-09 -4.57336e-20)
(1 1.02759e-09 6.14105e-19)
(1 9.995e-10 1.43539e-19)
(1 9.71257e-10 6.29879e-20)
(1 9.44567e-10 7.92386e-20)
(1 9.17647e-10 -7.11456e-20)
(1 8.92263e-10 6.08099e-19)
(1 8.66572e-10 1.40848e-19)
(1 8.42404e-10 5.48874e-20)
(1 8.17862e-10 6.40187e-20)
(1 7.94827e-10 -9.10584e-20)
(1 7.71358e-10 5.86875e-19)
(1 7.49385e-10 1.2065e-19)
(1 7.26923e-10 3.6513e-20)
(1 7.05943e-10 4.71801e-20)
(1 6.84425e-10 -1.07027e-19)
(1 6.64382e-10 5.71265e-19)
(1 6.43756e-10 1.05319e-19)
(1 6.24593e-10 2.18737e-20)
(1 6.04808e-10 3.38817e-20)
(1 5.86478e-10 -1.18864e-19)
(1 5.67489e-10 5.59275e-19)
(1 5.49948e-10 8.87758e-20)
(1 5.31714e-10 -6.26681e-21)
(1 5.14929e-10 -1.34621e-20)
(1 4.97403e-10 -1.89948e-19)
(1 4.81376e-10 4.6646e-19)
(1 4.64473e-10 -1.60859e-20)
(1 4.4934e-10 -1.08214e-19)
(1 4.32695e-10 -9.75207e-20)
(1 4.19345e-10 -2.46075e-19)
(1 4.00958e-10 4.38195e-19)
(1 3.95101e-10 -1.54708e-20)
(1 3.63084e-10 -1.2249e-19)
(1 3.97111e-10 2.43935e-20)
(1 3.04583e-10 -7.61747e-19)
(1.00014 -0.00138199 2.54835e-22)
(1.0021 -0.00416468 6.00993e-21)
(1.00657 -0.00710664 4.40659e-21)
(1.01337 -0.0102612 4.3142e-21)
(1.02283 -0.0136305 -1.04777e-19)
(1.03514 -0.0170916 7.84798e-20)
(1.05039 -0.0204126 -4.96754e-19)
(1.06836 -0.023135 -9.71132e-19)
(1.08841 -0.0247568 2.56505e-18)
(1.10941 -0.0246982 4.52839e-21)
(1.12959 -0.0226001 -1.25724e-17)
(1.14716 -0.0187667 -1.25181e-17)
(1.16089 -0.013507 9.08051e-18)
(1.16969 -0.0071877 3.17922e-17)
(1.17283 -0.000379679 3.53351e-17)
(1.17015 0.00626596 3.00243e-17)
(1.16209 0.0120677 2.15092e-17)
(1.14967 0.0164884 1.19874e-17)
(1.13429 0.0192713 3.16191e-18)
(1.11742 0.0204556 -2.94985e-18)
(1.10033 0.0202934 -5.28465e-18)
(1.08399 0.0191412 -4.51155e-18)
(1.06905 0.0173653 -2.00392e-18)
(1.05584 0.0152834 9.9254e-19)
(1.04445 0.013138 1.7695e-18)
(1.03481 0.0110891 -4.81076e-18)
(1.02679 0.00921598 -2.10956e-17)
(1.02019 0.00752691 -3.75888e-17)
(1.01487 0.00598223 -3.3248e-17)
(1.01072 0.00453467 6.72548e-18)
(1.00767 0.00317402 6.8365e-17)
(1.00564 0.00195216 1.08385e-16)
(1.0045 0.000968593 8.60658e-17)
(1.004 0.000319931 4.40322e-19)
(1.00388 4.2164e-05 -1.01905e-16)
(1.00383 8.13839e-05 -1.58739e-16)
(1.00365 0.000310606 -1.37234e-16)
(1.00325 0.000580938 -5.39221e-17)
(1.00266 0.000776196 4.13615e-17)
(1.00196 0.00084302 1.01059e-16)
(1.00127 0.000787815 1.06468e-16)
(1.00067 0.000651701 6.96716e-17)
(1.0002 0.000482387 1.80121e-17)
(0.999879 0.000316486 -2.46122e-17)
(0.999687 0.000174871 -4.68223e-17)
(0.999601 6.5988e-05 -4.87985e-17)
(0.999591 -9.18089e-06 -3.73208e-17)
(0.999628 -5.37861e-05 -2.05092e-17)
(0.999689 -7.35038e-05 -5.12478e-18)
(0.999755 -7.54587e-05 4.52193e-18)
(0.999815 -6.69573e-05 8.44573e-18)
(0.999863 -5.41799e-05 7.29962e-18)
(0.9999 -4.13355e-05 3.37679e-18)
(0.999927 -3.05556e-05 3.24035e-19)
(0.999946 -2.23846e-05 -1.38757e-18)
(0.999959 -1.64924e-05 -1.05743e-18)
(0.99997 -1.22749e-05 -3.81315e-19)
(0.999978 -9.19465e-06 -4.42114e-19)
(0.999983 -6.88675e-06 -2.19209e-19)
(0.999988 -5.1337e-06 -3.29374e-19)
(0.999991 -3.80417e-06 1.86018e-19)
(0.999993 -2.80628e-06 2.3806e-19)
(0.999995 -2.06563e-06 2.14204e-19)
(0.999996 -1.51977e-06 2.92724e-19)
(0.999997 -1.11829e-06 -4.53625e-19)
(0.999998 -8.22717e-07 1.19701e-19)
(0.999999 -6.04754e-07 2.37879e-19)
(0.999999 -4.43917e-07 2.18586e-19)
(0.999999 -3.25289e-07 2.71502e-19)
(1 -2.37882e-07 -4.9799e-19)
(1 -1.7354e-07 6.74131e-20)
(1 -1.26208e-07 1.89438e-19)
(1 -9.1405e-08 1.77018e-19)
(1 -6.5824e-08 2.34271e-19)
(1 -4.70321e-08 -5.32886e-19)
(1 -3.3238e-08 3.77664e-20)
(1 -2.31229e-08 1.73306e-19)
(1 -1.57152e-08 1.84563e-19)
(1 -1.02992e-08 2.72104e-19)
(1 -6.34811e-09 -4.66345e-19)
(1 -3.47412e-09 1.22116e-19)
(1 -1.39169e-09 2.58498e-19)
(1 1.08984e-10 2.53705e-19)
(1 1.18257e-09 3.14329e-19)
(1 1.94262e-09 -4.53131e-19)
(1 2.47279e-09 1.12203e-19)
(1 2.83449e-09 2.33772e-19)
(1 3.07299e-09 2.29341e-19)
(1 3.22148e-09 2.6859e-19)
(1 3.30443e-09 -3.78085e-19)
(1 3.33983e-09 -3.78447e-19)
(1 3.34086e-09 -3.10032e-19)
(1 3.31731e-09 -1.96159e-19)
(1 3.2762e-09 -8.68923e-20)
(1 3.2229e-09 -9.45325e-21)
(1 3.16109e-09 7.65747e-20)
(1 3.0938e-09 7.02009e-20)
(1 3.02285e-09 9.24577e-20)
(1 2.95002e-09 1.2971e-19)
(1 2.87611e-09 1.57164e-19)
(1 2.80228e-09 2.08147e-19)
(1 2.7287e-09 1.74153e-19)
(1 2.65624e-09 1.71684e-19)
(1 2.58471e-09 1.85912e-19)
(1 2.51484e-09 1.92885e-19)
(1 2.4462e-09 2.27127e-19)
(1 2.37948e-09 1.80629e-19)
(1 2.3141e-09 1.69494e-19)
(1 2.25076e-09 1.78007e-19)
(1 2.18874e-09 1.81307e-19)
(1 2.12878e-09 2.13225e-19)
(1 2.07007e-09 1.65245e-19)
(1 2.01341e-09 1.53104e-19)
(1 1.95789e-09 1.60972e-19)
(1 1.90436e-09 1.64421e-19)
(1 1.85185e-09 1.98042e-19)
(1 1.80127e-09 1.54545e-19)
(1 1.75159e-09 1.46533e-19)
(1 1.70378e-09 1.62745e-19)
(1 1.65674e-09 1.45563e-19)
(1 1.6115e-09 1.92985e-19)
(1 1.56691e-09 1.88862e-19)
(1 1.52406e-09 1.53825e-19)
(1 1.48175e-09 1.20459e-19)
(1 1.44111e-09 6.47924e-20)
(1 1.40091e-09 1.0027e-19)
(1 1.36233e-09 1.11339e-19)
(1 1.32408e-09 1.08662e-19)
(1 1.28741e-09 1.10524e-19)
(1 1.25099e-09 8.09696e-20)
(1 1.21609e-09 1.28035e-19)
(1 1.18135e-09 1.37683e-19)
(1 1.14811e-09 1.2621e-19)
(1 1.11495e-09 1.17929e-19)
(1 1.08324e-09 8.07256e-20)
(1 1.05156e-09 1.23688e-19)
(1 1.02129e-09 1.31926e-19)
(1 9.90995e-10 1.20301e-19)
(1 9.62079e-10 1.12026e-19)
(1 9.33079e-10 7.45196e-20)
(1 9.05436e-10 1.16903e-19)
(1 8.77661e-10 1.24605e-19)
(1 8.51216e-10 1.12885e-19)
(1 8.24595e-10 1.05155e-19)
(1 7.99282e-10 6.83711e-20)
(1 7.73755e-10 1.10132e-19)
(1 7.49519e-10 1.13392e-19)
(1 7.25028e-10 9.10292e-20)
(1 7.01828e-10 6.58785e-20)
(1 6.78306e-10 7.54591e-21)
(1 6.56151e-10 2.94054e-20)
(1 6.33465e-10 2.12655e-20)
(1 6.12579e-10 7.94996e-22)
(1 5.90202e-10 -8.99284e-21)
(1 5.71881e-10 -4.29432e-20)
(1 5.47072e-10 4.24306e-21)
(1 5.38808e-10 1.85536e-20)
(1 4.96669e-10 2.78216e-21)
(1 5.36863e-10 2.03145e-20)
(1 4.21728e-10 -8.19672e-20)
(1.00013 -0.00191789 -2.82011e-20)
(1.00204 -0.00578253 -4.6983e-19)
(1.00639 -0.00988424 -8.65835e-19)
(1.01307 -0.0143088 -1.57617e-18)
(1.02244 -0.0190711 -2.04635e-18)
(1.03477 -0.0240097 -2.03556e-18)
(1.05024 -0.0288052 -8.18115e-18)
(1.06875 -0.0327905 7.29505e-18)
(1.08966 -0.0352339 4.36689e-18)
(1.11181 -0.0352335 -6.28736e-17)
(1.13314 -0.0322417 -4.15899e-17)
(1.15168 -0.0267686 1.70066e-16)
(1.16617 -0.0192592 3.52316e-16)
(1.17543 -0.0102192 3.21316e-16)
(1.17866 -0.000467691 1.48591e-16)
(1.17565 0.00905601 -3.68777e-18)
(1.16689 0.0173499 -9.13605e-17)
(1.15351 0.0236257 -1.28447e-16)
(1.13711 0.0275174 -1.40845e-16)
(1.11929 0.0291015 -1.39177e-16)
(1.10145 0.0287631 -1.19128e-16)
(1.08458 0.0270319 -7.96548e-17)
(1.06932 0.0244414 -3.65558e-17)
(1.05594 0.0214463 -1.68132e-17)
(1.04451 0.0183875 -3.97471e-17)
(1.03492 0.0154864 -9.871e-17)
(1.02697 0.0128497 -1.53224e-16)
(1.02047 0.0104847 -1.43256e-16)
(1.01524 0.00833283 -3.17406e-17)
(1.01115 0.00632441 1.45157e-16)
(1.00813 0.00444129 2.68898e-16)
(1.00609 0.00275163 2.15209e-16)
(1.0049 0.00139065 -2.74009e-17)
(1.00434 0.000491128 -3.29184e-16)
(1.00413 0.00010331 -4.96235e-16)
(1.004 0.000153647 -4.09645e-16)
(1.00376 0.000467303 -1.03648e-16)
(1.0033 0.000838522 2.79182e-16)
(1.00267 0.0011062 5.78143e-16)
(1.00195 0.00119583 7.01326e-16)
(1.00123 0.00111563 6.44981e-16)
(1.00062 0.000922165 4.59802e-16)
(1.00014 0.000681618 2.16968e-16)
(0.999819 0.00044535 -2.21022e-17)
(0.999633 0.000243254 -2.049e-16)
(0.999559 8.79877e-05 -2.94409e-16)
(0.999564 -1.85255e-05 -2.83465e-16)
(0.999616 -8.06803e-05 -1.95341e-16)
(0.999689 -0.000106885 -8.08791e-17)
(0.999762 -0.000107793 1.00846e-17)
(0.999825 -9.42391e-05 5.46429e-17)
(0.999874 -7.52233e-05 5.49325e-17)
(0.999909 -5.67017e-05 3.20426e-17)
(0.999933 -4.1527e-05 7.93092e-18)
(0.999951 -3.02601e-05 -6.7135e-18)
(0.999963 -2.22655e-05 -9.04199e-18)
(0.999972 -1.65938e-05 -5.63147e-18)
(0.999979 -1.24549e-05 -1.54853e-18)
(0.999985 -9.34058e-06 9.33157e-19)
(0.999989 -6.96378e-06 6.8076e-19)
(0.999992 -5.15677e-06 7.42015e-19)
(0.999994 -3.80072e-06 3.51003e-19)
(0.999996 -2.79595e-06 2.7102e-19)
(0.999997 -2.05683e-06 -3.17589e-19)
(0.999998 -1.51387e-06 -9.84494e-20)
(0.999998 -1.11424e-06 1.40641e-18)
(0.999999 -8.19472e-07 4.46445e-19)
(0.999999 -6.01884e-07 3.31204e-19)
(0.999999 -4.4137e-07 -3.20348e-19)
(1 -3.23101e-07 -1.87053e-19)
(1 -2.36049e-07 1.26858e-18)
(1 -1.72013e-07 3.04554e-19)
(1 -1.24924e-07 2.07708e-19)
(1 -9.03076e-08 -4.24281e-19)
(1 -6.48722e-08 -2.77404e-19)
(1 -4.61959e-08 1.18924e-18)
(1 -3.24951e-08 2.39342e-19)
(1 -2.24559e-08 1.61709e-19)
(1 -1.51102e-08 -4.49267e-19)
(1 -9.74551e-09 -2.86166e-19)
(1 -5.83725e-09 1.18595e-18)
(1 -2.99937e-09 2.28933e-19)
(1 -9.47967e-10 1.35225e-19)
(1 5.25972e-10 -4.9343e-19)
(1 1.57607e-09 -3.42344e-19)
(1 2.31539e-09 1.12759e-18)
(1 2.827e-09 1.76423e-19)
(1 3.172e-09 9.69616e-20)
(1 3.39533e-09 -5.32e-19)
(1 3.52997e-09 -3.29516e-19)
(1 3.60022e-09 9.92726e-19)
(1 3.62384e-09 4.25938e-19)
(1 3.61403e-09 7.78024e-19)
(1 3.58024e-09 7.1981e-19)
(1 3.52971e-09 5.81371e-19)
(1 3.46738e-09 6.30163e-19)
(1 3.39729e-09 -1.30339e-19)
(1 3.32192e-09 2.76782e-19)
(1 3.24362e-09 3.20776e-19)
(1 3.16348e-09 2.81608e-19)
(1 3.08301e-09 4.1295e-19)
(1 3.00251e-09 -2.85267e-19)
(1 2.92304e-09 1.65127e-19)
(1 2.84444e-09 2.37475e-19)
(1 2.76758e-09 2.16798e-19)
(1 2.69201e-09 3.61115e-19)
(1 2.61854e-09 -3.26908e-19)
(1 2.5465e-09 1.32105e-19)
(1 2.47672e-09 2.11783e-19)
(1 2.40837e-09 1.97144e-19)
(1 2.34232e-09 3.46231e-19)
(1 2.27762e-09 -3.38222e-19)
(1 2.2152e-09 1.23221e-19)
(1 2.15403e-09 2.04394e-19)
(1 2.09508e-09 1.9109e-19)
(1 2.03724e-09 3.42453e-19)
(1 1.98155e-09 -3.36072e-19)
(1 1.92684e-09 1.28676e-19)
(1 1.87421e-09 2.38937e-19)
(1 1.82241e-09 1.20396e-19)
(1 1.77262e-09 7.97441e-19)
(1 1.72353e-09 2.81387e-19)
(1 1.67638e-09 1.22541e-19)
(1 1.6298e-09 7.50498e-20)
(1 1.58509e-09 -8.05355e-20)
(1 1.54085e-09 6.0313e-19)
(1 1.4984e-09 1.18546e-19)
(1 1.45632e-09 4.70163e-21)
(1 1.41598e-09 3.46083e-21)
(1 1.37589e-09 -1.15202e-19)
(1 1.33751e-09 5.9077e-19)
(1 1.29929e-09 1.14698e-19)
(1 1.26272e-09 4.16511e-22)
(1 1.22624e-09 -4.58413e-21)
(1 1.19137e-09 -1.26393e-19)
(1 1.15652e-09 5.78527e-19)
(1 1.12323e-09 1.03144e-19)
(1 1.0899e-09 -9.73673e-21)
(1 1.05811e-09 -1.34817e-20)
(1 1.02621e-09 -1.34547e-19)
(1 9.95816e-10 5.70661e-19)
(1 9.65263e-10 9.54158e-20)
(1 9.3619e-10 -1.70997e-20)
(1 9.06909e-10 -2.0044e-20)
(1 8.79085e-10 -1.40259e-19)
(1 8.51012e-10 5.64484e-19)
(1 8.24376e-10 8.52062e-20)
(1 7.97444e-10 -3.71006e-20)
(1 7.71958e-10 -5.61409e-20)
(1 7.46092e-10 -1.96334e-19)
(1 7.21775e-10 4.89883e-19)
(1 6.96824e-10 -1.07817e-22)
(1 6.73949e-10 -1.20826e-19)
(1 6.49304e-10 -1.25791e-19)
(1 6.29323e-10 -2.43303e-19)
(1 6.02056e-10 4.65675e-19)
(1 5.92516e-10 4.3831e-22)
(1 5.48321e-10 -1.35935e-19)
(1 5.83442e-10 -1.01883e-20)
(1 4.70896e-10 -7.43551e-19)
(1.00013 -0.00243538 -1.9777e-18)
(1.00196 -0.00734779 -7.05349e-18)
(1.00614 -0.0125888 -6.1023e-18)
(1.01263 -0.0182878 -8.81969e-18)
(1.02185 -0.0244859 -3.02158e-18)
(1.03417 -0.0309952 -2.13664e-17)
(1.04992 -0.0374172 5.67808e-18)
(1.06911 -0.0428518 5.41967e-17)
(1.0912 -0.046309 -2.34979e-16)
(1.11496 -0.0464546 -5.29954e-17)
(1.13791 -0.0425041 9.87091e-16)
(1.15777 -0.0352798 1.31653e-15)
(1.17329 -0.0253723 -1.20155e-16)
(1.18319 -0.0134095 -2.15225e-15)
(1.18655 -0.000472433 -2.94762e-15)
(1.18309 0.0121757 -2.94983e-15)
(1.17333 0.0231552 -2.49284e-15)
(1.15863 0.0313829 -1.86801e-15)
(1.1408 0.0363769 -1.28558e-15)
(1.1217 0.0382765 -8.52779e-16)
(1.10284 0.0376381 -5.38708e-16)
(1.08527 0.035198 -2.60685e-16)
(1.06958 0.0316787 -3.23173e-17)
(1.05602 0.0276819 3.32639e-17)
(1.04455 0.0236487 -1.38708e-16)
(1.03502 0.0198581 -4.24054e-16)
(1.02719 0.0164396 -4.96187e-16)
(1.02082 0.0133952 -9.0582e-17)
(1.0157 0.0106434 6.69851e-16)
(1.0117 0.00808934 1.19625e-15)
(1.00872 0.00570353 8.43886e-16)
(1.00667 0.00356641 -4.30723e-16)
(1.00543 0.00184492 -1.81624e-15)
(1.00477 0.00070505 -2.18919e-15)
(1.00445 0.000210263 -1.04418e-15)
(1.00421 0.000268416 1.08104e-15)
(1.00387 0.000659282 3.08602e-15)
(1.00334 0.00112299 4.1608e-15)
(1.00265 0.00145556 4.2409e-15)
(1.00189 0.00156212 3.78966e-15)
(1.00115 0.00145236 3.24655e-15)
(1.00052 0.0011975 2.67919e-15)
(1.00003 0.00088159 1.87739e-15)
(0.999715 0.00057078 7.20703e-16)
(0.999543 0.0003046 -5.74245e-16)
(0.99949 0.000100701 -1.55584e-15)
(0.999519 -3.75906e-05 -1.86382e-15)
(0.999594 -0.000116033 -1.48958e-15)
(0.999684 -0.000146384 -7.5234e-16)
(0.999768 -0.000143638 -5.96407e-17)
(0.999836 -0.000122827 3.29439e-16)
(0.999886 -9.61116e-05 3.86476e-16)
(0.999919 -7.12028e-05 2.47197e-16)
(0.999942 -5.1475e-05 7.58029e-17)
(0.999956 -3.72495e-05 -3.23301e-17)
(0.999967 -2.738e-05 -5.96852e-17)
(0.999975 -2.04572e-05 -4.10358e-17)
(0.999982 -1.54019e-05 -1.37865e-17)
(0.999986 -1.15698e-05 3.53042e-18)
(0.99999 -8.62447e-06 7.07448e-18)
(0.999993 -6.37826e-06 5.5277e-18)
(0.999995 -4.69409e-06 2.11651e-18)
(0.999996 -3.44985e-06 1.25462e-19)
(0.999997 -2.53726e-06 -1.63378e-19)
(0.999998 -1.86797e-06 -7.10628e-19)
(0.999998 -1.3755e-06 8.05994e-19)
(0.999999 -1.01208e-06 5.52361e-19)
(0.999999 -7.43682e-07 4.08314e-19)
(0.999999 -5.45644e-07 4.14779e-19)
(1 -3.99744e-07 -4.96248e-19)
(1 -2.92375e-07 6.80148e-19)
(1 -2.13404e-07 3.10614e-19)
(1 -1.55332e-07 2.01397e-19)
(1 -1.12637e-07 2.7848e-19)
(1 -8.126e-08 -5.8327e-19)
(1 -5.82155e-08 6.17523e-19)
(1 -4.1305e-08 2.62781e-19)
(1 -2.89085e-08 1.69307e-19)
(1 -1.98326e-08 2.63301e-19)
(1 -1.31984e-08 -5.86198e-19)
(1 -8.35945e-09 6.16638e-19)
(1 -4.83967e-09 2.5265e-19)
(1 -2.28909e-09 1.42843e-19)
(1 -4.50107e-10 2.20781e-19)
(1 8.66638e-10 -6.37961e-19)
(1 1.80047e-09 5.65931e-19)
(1 2.45377e-09 2.09062e-19)
(1 2.90181e-09 1.20956e-19)
(1 3.1999e-09 1.65679e-19)
(1 3.38866e-09 -4.6285e-19)
(1 3.498e-09 -3.76727e-19)
(1 3.54975e-09 -8.89987e-19)
(1 3.56011e-09 -8.26257e-19)
(1 3.54073e-09 -8.07149e-19)
(1 3.50043e-09 -1.6036e-19)
(1 3.44533e-09 1.3598e-19)
(1 3.3803e-09 -4.16966e-19)
(1 3.30846e-09 -4.30548e-19)
(1 3.23258e-09 -4.7685e-19)
(1 3.15411e-09 1.2151e-19)
(1 3.07474e-09 3.80373e-19)
(1 2.99498e-09 -2.05561e-19)
(1 2.91597e-09 -2.51044e-19)
(1 2.83769e-09 -3.28318e-19)
(1 2.76101e-09 2.41626e-19)
(1 2.68557e-09 4.76317e-19)
(1 2.61215e-09 -1.28842e-19)
(1 2.54017e-09 -1.88982e-19)
(1 2.4704e-09 -2.77346e-19)
(1 2.4021e-09 2.84028e-19)
(1 2.33605e-09 5.11846e-19)
(1 2.27141e-09 -9.90955e-20)
(1 2.20901e-09 -1.64387e-19)
(1 2.14791e-09 -2.5746e-19)
(1 2.08899e-09 3.00121e-19)
(1 2.03124e-09 5.26182e-19)
(1 1.97559e-09 -8.2417e-20)
(1 1.92098e-09 -1.43108e-19)
(1 1.8684e-09 -2.23507e-19)
(1 1.81672e-09 3.22087e-19)
(1 1.76699e-09 5.73736e-19)
(1 1.71803e-09 1.63962e-20)
(1 1.67095e-09 -6.33692e-20)
(1 1.6245e-09 -1.92803e-19)
(1 1.57987e-09 3.06083e-19)
(1 1.53576e-09 5.30293e-19)
(1 1.49339e-09 -3.07985e-20)
(1 1.45144e-09 -9.60067e-20)
(1 1.41118e-09 -2.03312e-19)
(1 1.37124e-09 3.14702e-19)
(1 1.33293e-09 5.48871e-19)
(1 1.29486e-09 -1.19887e-20)
(1 1.25836e-09 -8.32833e-20)
(1 1.22203e-09 -1.98503e-19)
(1 1.18723e-09 3.13023e-19)
(1 1.15253e-09 5.43322e-19)
(1 1.11931e-09 -1.91868e-20)
(1 1.08613e-09 -9.09204e-20)
(1 1.05441e-09 -2.06233e-19)
(1 1.02265e-09 3.05121e-19)
(1 9.92329e-10 5.35127e-19)
(1 9.61925e-10 -2.76046e-20)
(1 9.32921e-10 -9.92049e-20)
(1 9.0379e-10 -2.13888e-19)
(1 8.76035e-10 2.9818e-19)
(1 8.48112e-10 5.27632e-19)
(1 8.21547e-10 -3.9132e-20)
(1 7.9477e-10 -1.20397e-19)
(1 7.69363e-10 -2.50911e-19)
(1 7.43654e-10 2.41547e-19)
(1 7.19435e-10 4.52867e-19)
(1 6.94633e-10 -1.24283e-19)
(1 6.71899e-10 -2.03759e-19)
(1 6.47384e-10 -3.20157e-19)
(1 6.27566e-10 1.94948e-19)
(1 6.0058e-10 4.28775e-19)
(1 5.90317e-10 -1.23264e-19)
(1 5.48918e-10 -2.19936e-19)
(1 5.7429e-10 -2.03324e-19)
(1 4.77239e-10 -2.89291e-19)
(1.00012 -0.00292725 2.29918e-18)
(1.00184 -0.00883941 8.27068e-18)
(1.0058 -0.0151887 6.90994e-18)
(1.01201 -0.0221629 7.98006e-18)
(1.02099 -0.0298469 2.49652e-17)
(1.03324 -0.0380471 -7.5262e-17)
(1.0493 -0.0462992 3.24808e-16)
(1.06933 -0.0534417 -5.74492e-16)
(1.09294 -0.0581902 -5.06613e-16)
(1.11885 -0.0586035 3.74161e-15)
(1.14391 -0.0535928 2.76234e-15)
(1.16546 -0.0444654 -9.82534e-15)
(1.18233 -0.0319686 -2.47796e-14)
(1.19309 -0.0168259 -2.95142e-14)
(1.19662 -0.000404702 -2.23644e-14)
(1.19258 0.0156803 -1.36181e-14)
(1.18151 0.0295903 -6.61234e-15)
(1.16503 0.0398888 -1.79955e-15)
(1.14533 0.0459689 1.16111e-15)
(1.12457 0.0480689 2.67064e-15)
(1.10441 0.0469673 3.19395e-15)
(1.08596 0.0436521 3.25058e-15)
(1.06978 0.0390629 3.10231e-15)
(1.056 0.0339599 2.58699e-15)
(1.04452 0.0288841 1.57428e-15)
(1.0351 0.0241665 6.59231e-16)
(1.02743 0.0199514 1.12749e-15)
(1.02123 0.0162296 3.6439e-15)
(1.01627 0.0128924 6.73463e-15)
(1.01239 0.0098162 7.07447e-15)
(1.00946 0.00695624 2.37936e-15)
(1.0074 0.00440065 -5.32843e-15)
(1.00608 0.00234303 -9.93405e-15)
(1.00531 0.000978532 -5.99266e-15)
(1.00484 0.000382175 6.04957e-15)
(1.00446 0.000444373 1.96121e-14)
(1.004 0.000902739 2.72411e-14)
(1.00337 0.00144714 2.63611e-14)
(1.00261 0.00183366 2.04378e-14)
(1.0018 0.00194836 1.51967e-14)
(1.00102 0.00180212 1.37204e-14)
(1.00037 0.00147974 1.4511e-14)
(0.999882 0.00108239 1.36243e-14)
(0.999569 0.000691041 8.53224e-15)
(0.999418 0.00035573 3.21809e-16)
(0.999395 0.000100166 -7.30091e-15)
(0.999458 -7.0331e-05 -1.09307e-14)
(0.999564 -0.000163113 -9.73816e-15)
(0.999678 -0.000194215 -5.5242e-15)
(0.999777 -0.000184136 -1.06083e-15)
(0.999851 -0.000153037 1.69609e-15)
(0.999901 -0.000116679 2.34359e-15)
(0.999932 -8.44979e-05 1.62962e-15)
(0.999951 -6.00774e-05 5.83527e-16)
(0.999963 -4.31266e-05 -1.27597e-16)
(0.999972 -3.17056e-05 -3.55207e-16)
(0.999979 -2.37989e-05 -2.70936e-16)
(0.999984 -1.80006e-05 -1.04045e-16)
(0.999988 -1.35505e-05 9.17146e-18)
(0.999992 -1.0095e-05 4.40805e-17)
(0.999994 -7.45008e-06 3.2073e-17)
(0.999995 -5.47097e-06 1.06935e-17)
(0.999997 -4.01557e-06 -2.08805e-18)
(0.999998 -2.95253e-06 -5.76425e-18)
(0.999998 -2.17454e-06 -3.48971e-18)
(0.999999 -1.60211e-06 -9.67291e-19)
(0.999999 -1.17929e-06 2.07696e-19)
(0.999999 -8.66783e-07 4.99286e-19)
(0.999999 -6.36149e-07 -3.95369e-19)
(1 -4.66272e-07 -1.66668e-19)
(1 -3.41304e-07 -3.41831e-20)
(1 -2.4941e-07 5.37721e-21)
(1 -1.81837e-07 1.75953e-19)
(1 -1.32152e-07 -4.90952e-19)
(1 -9.5633e-08 -8.36439e-20)
(1 -6.88078e-08 9.89091e-20)
(1 -4.91194e-08 1.20874e-19)
(1 -3.46826e-08 2.68316e-19)
(1 -2.41086e-08 -4.05944e-19)
(1 -1.63749e-08 3.17923e-21)
(1 -1.0729e-08 1.84052e-19)
(1 -6.61733e-09 1.94091e-19)
(1 -3.63271e-09 3.20533e-19)
(1 -1.4755e-09 -3.77795e-19)
(1 7.45583e-11 1.08296e-20)
(1 1.1795e-09 1.79071e-19)
(1 1.95837e-09 1.84228e-19)
(1 2.49869e-09 3.13541e-19)
(1 2.86472e-09 -3.86072e-19)
(1 3.10367e-09 2.12196e-20)
(1 3.25025e-09 1.67414e-19)
(1 3.32981e-09 1.97384e-20)
(1 3.36113e-09 6.6718e-19)
(1 3.35773e-09 1.55886e-19)
(1 3.32981e-09 3.71089e-20)
(1 3.28448e-09 7.78741e-20)
(1 3.22734e-09 -8.48952e-20)
(1 3.16201e-09 5.7139e-19)
(1 3.09166e-09 7.86881e-20)
(1 3.01801e-09 -1.79058e-20)
(1 2.94293e-09 4.32458e-20)
(1 2.86709e-09 -1.04945e-19)
(1 2.7917e-09 5.58737e-19)
(1 2.71684e-09 6.74903e-20)
(1 2.6434e-09 -3.09119e-20)
(1 2.57108e-09 2.779e-20)
(1 2.50066e-09 -1.21893e-19)
(1 2.4316e-09 5.41678e-19)
(1 2.36465e-09 5.13582e-20)
(1 2.29911e-09 -4.56375e-20)
(1 2.23574e-09 1.44915e-20)
(1 2.17374e-09 -1.34076e-19)
(1 2.11389e-09 5.30082e-19)
(1 2.0553e-09 3.98399e-20)
(1 1.99881e-09 -5.69168e-20)
(1 1.94345e-09 4.63638e-21)
(1 1.89013e-09 -1.38247e-19)
(1 1.8378e-09 5.29014e-19)
(1 1.78743e-09 7.19235e-20)
(1 1.73793e-09 -1.33684e-19)
(1 1.6903e-09 4.75545e-19)
(1 1.64342e-09 5.359e-19)
(1 1.59833e-09 5.90438e-19)
(1 1.55387e-09 -2.81623e-20)
(1 1.51114e-09 -2.80375e-19)
(1 1.46892e-09 3.2296e-19)
(1 1.42837e-09 4.0071e-19)
(1 1.38823e-09 4.86313e-19)
(1 1.3497e-09 -9.79409e-20)
(1 1.31148e-09 -3.21722e-19)
(1 1.27483e-09 2.99194e-19)
(1 1.2384e-09 3.83833e-19)
(1 1.20349e-09 4.69262e-19)
(1 1.16874e-09 -1.17795e-19)
(1 1.13545e-09 -3.43844e-19)
(1 1.10225e-09 2.76544e-19)
(1 1.07049e-09 3.62128e-19)
(1 1.03875e-09 4.49155e-19)
(1 1.00841e-09 -1.36331e-19)
(1 9.78042e-10 -3.61133e-19)
(1 9.49043e-10 2.60204e-19)
(1 9.19971e-10 3.46656e-19)
(1 8.92239e-10 4.34758e-19)
(1 8.64389e-10 -1.49307e-19)
(1 8.37856e-10 -3.72749e-19)
(1 8.11164e-10 2.48542e-19)
(1 7.85776e-10 3.31342e-19)