/*--------------------------------*- C++ -*----------------------------------*\
  =========                 |
  \\      /  F ield         | OpenFOAM: The Open Source CFD Toolbox
   \\    /   O peration     | Website:  https://openfoam.org
    \\  /    A nd           | Version:  11
     \\/     M anipulation  |
\*---------------------------------------------------------------------------*/
FoamFile
{
    format      ascii;
    class       volVectorField;
    location    "10.119193";
    object      vorticity;
}
// * * * * * * * * * * * * * * * * * * * * * * * * * * * * * * * * * * * * * //

dimensions      [0 0 -1 0 0 0 0];

internalField   nonuniform List<vector> 
7132
(
(-4.6559e-17 -1.838e-15 -0.0107148)
(-1.52256e-16 -1.79293e-15 -0.0108891)
(-1.48379e-16 -2.01758e-17 -0.0110272)
(-1.8093e-16 -1.78589e-15 -0.011103)
(-2.3642e-16 -1.7686e-15 -0.0111271)
(-2.25832e-16 7.10544e-18 -0.0111272)
(-2.01923e-16 1.67464e-17 -0.011137)
(-1.78923e-16 1.37543e-17 -0.0111838)
(-1.21103e-16 8.15871e-18 -0.0112858)
(-1.06072e-16 5.85493e-18 -0.0114445)
(-1.15517e-16 3.95629e-18 -0.0116434)
(-4.21024e-17 5.27919e-18 -0.0118705)
(-6.49685e-17 3.54611e-18 -0.0120906)
(-7.43434e-17 5.81311e-17 -0.0122664)
(7.17038e-17 -1.59756e-15 -0.012361)
(2.90385e-16 -3.31612e-15 -0.0123405)
(5.28239e-16 -1.66959e-15 -0.0121836)
(6.02892e-16 1.07715e-17 -0.0118901)
(6.79002e-16 -1.68956e-15 -0.0114898)
(6.09437e-16 -3.45273e-15 -0.0110515)
(3.29039e-16 -4.69164e-18 -0.0106894)
(-3.09136e-17 1.7843e-17 -0.0105064)
(-3.15549e-16 2.83853e-17 -0.0105885)
(-4.05825e-16 1.05046e-17 -0.0109953)
(-3.79283e-16 1.74074e-15 -0.0116958)
(-2.86168e-16 1.16362e-17 -0.0125427)
(-2.21351e-16 1.00334e-17 -0.0133384)
(-2.89389e-16 2.73879e-17 -0.0138962)
(-6.44649e-16 -2.40389e-17 -0.0140734)
(2.90762e-16 1.46586e-15 -0.0137818)
(3.97851e-15 2.48237e-15 -0.012991)
(-1.38641e-14 7.48593e-15 -0.011759)
(-9.80288e-14 1.20196e-15 -0.0103233)
(1.10316e-13 -5.94624e-14 -0.00907828)
(1.87749e-12 -1.80548e-13 -0.00830564)
(5.48808e-12 -2.15644e-13 -0.00804725)
(7.96231e-12 -6.51428e-14 -0.00821185)
(6.6569e-12 1.25747e-13 -0.00879926)
(3.33724e-12 1.90953e-13 -0.00999401)
(9.72597e-13 1.37388e-13 -0.0118545)
(5.29817e-14 5.9917e-14 -0.013986)
(-1.12215e-13 1.71146e-14 -0.015834)
(-1.01317e-13 3.08981e-14 -0.0169924)
(-1.40615e-13 3.33888e-14 -0.0172609)
(1.49873e-13 -2.62792e-13 -0.0166049)
(1.34441e-12 -9.0325e-13 -0.0151257)
(9.51756e-13 8.29435e-14 -0.0131259)
(-1.08875e-11 9.00748e-12 -0.0113394)
(-4.17788e-11 3.36049e-11 -0.0110295)
(-5.87879e-11 6.88689e-11 -0.0130326)
(-5.20894e-12 8.68145e-11 -0.0167481)
(8.70627e-11 5.80185e-11 -0.020508)
(1.11445e-10 -8.57458e-12 -0.0224441)
(5.78837e-11 -6.56133e-11 -0.0215656)
(2.64367e-12 -7.87056e-11 -0.0192737)
(-2.61219e-11 -5.90164e-11 -0.0180193)
(-2.44356e-11 -3.3141e-11 -0.0181854)
(-8.15564e-12 -1.39017e-11 -0.0190091)
(5.01433e-12 -2.14322e-12 -0.0195583)
(9.26498e-13 9.25011e-12 -0.0192748)
(-3.32097e-11 2.05256e-11 -0.0182287)
(-5.61607e-11 -7.20104e-13 -0.0165022)
(1.42017e-10 -1.27728e-10 -0.0129417)
(9.81111e-10 -4.37965e-10 -0.00493421)
(2.8563e-09 -9.33844e-10 0.00957794)
(5.71905e-09 -1.48309e-09 0.0295688)
(8.98167e-09 -1.85611e-09 0.0522124)
(1.19174e-08 -1.84143e-09 0.0767386)
(1.40287e-08 -1.35016e-09 0.104047)
(1.49552e-08 -4.65114e-10 0.130962)
(1.43014e-08 5.74339e-10 0.147051)
(1.19519e-08 1.48575e-09 0.140891)
(8.45159e-09 2.02677e-09 0.10985)
(4.81348e-09 2.02969e-09 0.0632108)
(1.97444e-09 1.5308e-09 0.0173374)
(3.30103e-10 8.1761e-10 -0.0141066)
(-2.92252e-10 2.34379e-10 -0.027068)
(-3.30531e-10 -5.58786e-11 -0.0263272)
(-1.75953e-10 -1.09214e-10 -0.0197106)
(-3.92957e-11 -6.30331e-11 -0.0131643)
(2.29244e-11 -1.27487e-11 -0.00939036)
(2.96224e-11 1.14822e-11 -0.0085604)
(1.63026e-11 1.40954e-11 -0.00955094)
(7.93887e-12 6.83379e-12 -0.0110386)
(1.1515e-11 -1.17368e-12 -0.0122665)
(1.93234e-11 -5.23934e-12 -0.0132922)
(2.04987e-11 -5.34061e-12 -0.0144705)
(1.49326e-11 -3.7551e-12 -0.015733)
(7.85603e-12 -2.11548e-12 -0.0167488)
(2.72841e-12 -9.61393e-13 -0.0172346)
(2.09461e-13 -3.04891e-13 -0.01708)
(-5.18549e-13 -4.91312e-15 -0.0163528)
(-4.59696e-13 9.22709e-14 -0.0152412)
(-2.42201e-13 9.02484e-14 -0.0139753)
(-1.01906e-13 5.75432e-14 -0.0127578)
(-5.675e-14 3.26659e-14 -0.0117268)
(-5.72111e-14 1.66144e-14 -0.0109486)
(-5.7888e-14 1.17238e-14 -0.0104327)
(-3.41767e-14 5.92768e-15 -0.0101558)
(2.27138e-14 -4.7718e-15 -0.0100764)
(1.11718e-13 -1.52266e-14 -0.0101433)
(2.23918e-13 -2.95742e-14 -0.0103053)
(3.43375e-13 -3.6763e-14 -0.0105184)
(4.4926e-13 -3.83125e-14 -0.0107472)
(5.20504e-13 -3.27058e-14 -0.0109636)
(5.42845e-13 -1.65833e-14 -0.0111435)
(5.16183e-13 -1.32555e-15 -0.0112673)
(4.52738e-13 1.53906e-14 -0.0113233)
(3.70321e-13 2.51704e-14 -0.0113098)
(2.86274e-13 2.67801e-14 -0.0112344)
(2.13826e-13 2.59668e-14 -0.011112)
(1.60879e-13 1.73254e-14 -0.0109615)
(1.30675e-13 9.60491e-15 -0.0108022)
(1.23231e-13 -8.82097e-16 -0.010651)
(1.36702e-13 -1.31162e-14 -0.0105205)
(1.68394e-13 -2.12262e-14 -0.0104182)
(2.15114e-13 -3.17068e-14 -0.0103464)
(2.73232e-13 -3.71722e-14 -0.0103036)
(3.38581e-13 -4.23705e-14 -0.0102853)
(4.06541e-13 -4.69297e-14 -0.0102854)
(4.72493e-13 -4.53682e-14 -0.0102974)
(5.32058e-13 -4.28757e-14 -0.0103151)
(5.81584e-13 -3.8062e-14 -0.010333)
(6.18696e-13 -3.16322e-14 -0.0103469)
(6.42668e-13 -2.62648e-14 -0.0103539)
(6.54414e-13 -1.76992e-14 -0.0103523)
(6.56124e-13 -1.19773e-14 -0.0103414)
(6.50826e-13 -7.96585e-15 -0.0103217)
(6.41827e-13 -5.95595e-15 -0.0102943)
(6.32218e-13 -7.67838e-15 -0.010261)
(6.24595e-13 -7.63916e-15 -0.0102235)
(6.20804e-13 -1.06117e-14 -0.0101839)
(6.21929e-13 -1.43707e-14 -0.0101438)
(6.28302e-13 -1.84311e-14 -0.0101046)
(6.39596e-13 -2.41157e-14 -0.010067)
(6.55064e-13 -2.58684e-14 -0.0100317)
(6.73649e-13 -2.86693e-14 -0.0099985)
(6.94205e-13 -3.06705e-14 -0.00996717)
(7.15601e-13 -3.18489e-14 -0.00993711)
(7.36807e-13 -3.40051e-14 -0.00990759)
(7.57054e-13 -3.20328e-14 -0.00987789)
(7.7583e-13 -3.13125e-14 -0.00984727)
(7.92961e-13 -3.03358e-14 -0.00981514)
(8.0856e-13 -2.93507e-14 -0.00978101)
(8.22974e-13 -3.03461e-14 -0.00974454)
(8.36788e-13 -2.8302e-14 -0.00970553)
(8.50695e-13 -2.85618e-14 -0.00966386)
(8.65449e-13 -2.94408e-14 -0.0096195)
(8.81716e-13 -3.08735e-14 -0.00957246)
(8.99949e-13 -3.44247e-14 -0.00952276)
(9.20361e-13 -3.4593e-14 -0.00947038)
(9.42814e-13 -3.62545e-14 -0.00941532)
(9.66839e-13 -3.73582e-14 -0.00935743)
(9.91631e-13 -3.76232e-14 -0.00929668)
(1.01606e-12 -3.86755e-14 -0.00923275)
(1.03896e-12 -3.50953e-14 -0.00916531)
(1.05895e-12 -3.28554e-14 -0.00909538)
(1.07533e-12 -2.81556e-14 -0.00901507)
(1.08669e-12 -3.16183e-14 -0.0089593)
(1.09601e-12 -2.11401e-14 -0.00878402)
(-4.67534e-17 -4.07889e-18 -0.0320602)
(-1.59695e-16 -7.08273e-18 -0.0325892)
(-1.63066e-16 -7.53274e-18 -0.033013)
(-2.00084e-16 -8.83796e-18 -0.0332484)
(-2.67468e-16 -9.73629e-18 -0.0333212)
(-2.65712e-16 -8.449e-18 -0.0333077)
(-2.62988e-16 -6.70836e-18 -0.0333058)
(-2.52189e-16 -2.66556e-17 -0.0333967)
(-1.42975e-16 1.70646e-15 -0.0336394)
(-2.10784e-16 3.06167e-18 -0.0340465)
(-4.66587e-16 -2.80287e-17 -0.0345752)
(-5.56338e-16 1.71473e-15 -0.0352044)
(-2.49029e-16 1.96666e-17 -0.0358485)
(3.10846e-16 -9.78155e-18 -0.0364255)
(9.92052e-16 -4.35069e-17 -0.0368642)
(1.64775e-15 -7.36651e-17 -0.0371197)
(2.03888e-15 -9.28157e-17 -0.0371795)
(1.62554e-15 -6.54572e-17 -0.0370624)
(1.98048e-16 4.21041e-17 -0.0368149)
(-2.53003e-15 1.90855e-16 -0.0365088)
(-6.44104e-15 3.15272e-16 -0.0362452)
(-9.79684e-15 3.40137e-16 -0.036069)
(-9.90223e-15 2.15841e-16 -0.0359704)
(-7.16344e-15 4.15246e-17 -0.0359418)
(-4.44267e-15 -5.38171e-17 -0.0359746)
(-2.6537e-15 -6.64831e-17 -0.0360301)
(-1.80822e-15 1.16442e-17 -0.0360486)
(-2.22774e-15 2.39037e-16 -0.0359668)
(-2.9359e-15 -3.17503e-16 -0.035725)
(3.96332e-15 -2.58383e-15 -0.035285)
(1.13754e-15 9.56148e-15 -0.0346762)
(-1.04833e-13 5.50235e-14 -0.034076)
(-5.89547e-14 -6.26194e-14 -0.0338738)
(1.68356e-12 -1.04895e-12 -0.0344731)
(5.64757e-12 -2.87289e-12 -0.035808)
(9.29937e-12 -3.25805e-12 -0.037283)
(1.16372e-11 -6.51293e-13 -0.0382224)
(1.11293e-11 2.43654e-12 -0.0383655)
(6.6074e-12 3.03137e-12 -0.0380071)
(2.23798e-12 1.77604e-12 -0.0376495)
(1.55642e-13 6.02317e-13 -0.0375512)
(-3.9248e-13 9.25326e-14 -0.0376535)
(-5.15262e-13 4.33635e-14 -0.03768)
(-2.2436e-13 -9.39479e-14 -0.0372867)
(2.31944e-12 -1.00877e-12 -0.0362704)
(2.48953e-12 -1.30419e-12 -0.0349096)
(-2.39958e-11 6.19717e-12 -0.0344169)
(-7.06024e-11 3.0371e-11 -0.0366601)
(1.02642e-10 5.75534e-11 -0.0414723)
(1.08657e-09 5.05805e-11 -0.0432445)
(3.18412e-09 1.38875e-11 -0.0363874)
(5.47192e-09 -3.06824e-13 -0.0263402)
(6.27343e-09 6.01317e-12 -0.0253157)
(5.003e-09 -1.12125e-11 -0.0348766)
(2.78674e-09 -3.67045e-11 -0.0449093)
(9.99065e-10 -4.54785e-11 -0.0487107)
(1.1454e-10 -4.21224e-11 -0.0467944)
(-1.06316e-10 -2.86302e-11 -0.043013)
(-6.74785e-11 -6.68429e-12 -0.040087)
(-4.49191e-11 2.83604e-11 -0.0386369)
(-1.31457e-10 4.90675e-11 -0.0384803)
(-7.89066e-11 -8.83316e-11 -0.0376897)
(9.29616e-10 -6.46365e-10 -0.0304901)
(3.98955e-09 -1.7951e-09 -0.0109044)
(9.39654e-09 -3.30281e-09 0.018211)
(1.5935e-08 -4.54578e-09 0.0464304)
(2.173e-08 -4.95528e-09 0.0714741)
(2.57866e-08 -4.36496e-09 0.107655)
(2.84428e-08 -2.86907e-09 0.173315)
(3.03057e-08 -6.01472e-10 0.268544)
(3.08103e-08 2.076e-09 0.361564)
(2.83027e-08 4.41068e-09 0.401498)
(2.21547e-08 5.59598e-09 0.356942)
(1.39685e-08 5.26827e-09 0.241761)
(6.44949e-09 3.77249e-09 0.105789)
(1.49807e-09 1.95096e-09 0.000239066)
(-6.70954e-10 5.64698e-10 -0.052373)
(-1.00104e-09 -1.1403e-10 -0.0612586)
(-6.03315e-10 -2.5483e-10 -0.0495729)
(-1.63606e-10 -1.62474e-10 -0.0364351)
(1.08774e-10 -4.7206e-11 -0.0303104)
(2.63637e-10 1.47948e-11 -0.0311481)
(3.80126e-10 2.49354e-11 -0.035298)
(4.63327e-10 9.22933e-12 -0.0392797)
(4.76984e-10 -6.8677e-12 -0.0413915)
(4.08538e-10 -9.7295e-12 -0.0418589)
(2.83946e-10 -3.14346e-12 -0.0418331)
(1.55835e-10 2.56453e-12 -0.0416173)
(6.31807e-11 3.98835e-12 -0.041004)
(1.36269e-11 2.85842e-12 -0.0398823)
(-4.64874e-12 1.32032e-12 -0.038301)
(-7.0696e-12 3.314e-13 -0.0364099)
(-4.42033e-12 -4.59065e-14 -0.0344269)
(-1.74769e-12 -8.69101e-14 -0.0326037)
(-3.52718e-13 -3.34475e-14 -0.0311648)
(4.6421e-14 1.20524e-14 -0.0302486)
(2.87339e-14 1.89182e-14 -0.0298823)
(-4.09857e-15 2.05756e-16 -0.0299969)
(1.25681e-13 -3.26389e-14 -0.0304639)
(4.56112e-13 -7.59846e-14 -0.0311299)
(9.53487e-13 -1.14094e-13 -0.0318433)
(1.54339e-12 -1.43668e-13 -0.0324791)
(2.12588e-12 -1.49434e-13 -0.0329545)
(2.59296e-12 -1.25142e-13 -0.0332314)
(2.85304e-12 -7.77637e-14 -0.0333093)
(2.86018e-12 -1.26879e-14 -0.0332109)
(2.63884e-12 4.54628e-14 -0.0329713)
(2.26499e-12 8.83212e-14 -0.032631)
(1.83026e-12 1.10138e-13 -0.0322327)
(1.41439e-12 1.06762e-13 -0.0318178)
(1.07175e-12 9.03989e-14 -0.0314236)
(8.30138e-13 6.06359e-14 -0.0310803)
(6.9661e-13 2.84283e-14 -0.0308093)
(6.65614e-13 -2.16055e-15 -0.0306211)
(7.25404e-13 -3.39626e-14 -0.0305159)
(8.61861e-13 -5.86978e-14 -0.0304845)
(1.05972e-12 -8.23912e-14 -0.0305111)
(1.30223e-12 -9.89058e-14 -0.0305758)
(1.57082e-12 -1.0729e-13 -0.0306583)
(1.84567e-12 -1.12151e-13 -0.0307399)
(2.10729e-12 -1.06392e-13 -0.0308054)
(2.33787e-12 -9.56865e-14 -0.0308443)
(2.52303e-12 -8.1381e-14 -0.0308506)
(2.65414e-12 -6.04396e-14 -0.0308231)
(2.72974e-12 -4.23892e-14 -0.0307636)
(2.75498e-12 -2.26923e-14 -0.0306771)
(2.74008e-12 -8.44825e-15 -0.03057)
(2.69814e-12 -8.1759e-16 -0.0304493)
(2.64295e-12 5.08286e-15 -0.0303221)
(2.58716e-12 2.67252e-15 -0.0301947)
(2.54095e-12 -1.97529e-16 -0.030072)
(2.51137e-12 -7.54416e-15 -0.0299574)
(2.50221e-12 -1.81197e-14 -0.0298528)
(2.51428e-12 -2.553e-14 -0.0297584)
(2.54596e-12 -3.57623e-14 -0.0296732)
(2.5939e-12 -4.11601e-14 -0.029595)
(2.65379e-12 -4.65049e-14 -0.0295211)
(2.7209e-12 -5.16462e-14 -0.0294487)
(2.79074e-12 -5.14153e-14 -0.0293749)
(2.85942e-12 -5.2997e-14 -0.029297)
(2.92404e-12 -4.98093e-14 -0.0292131)
(2.98286e-12 -4.75311e-14 -0.0291218)
(3.03532e-12 -4.67013e-14 -0.0290221)
(3.08205e-12 -4.26226e-14 -0.0289138)
(3.12462e-12 -4.27251e-14 -0.0287971)
(3.16535e-12 -4.04278e-14 -0.0286724)
(3.20702e-12 -4.11576e-14 -0.0285402)
(3.25242e-12 -4.49514e-14 -0.0284011)
(3.30401e-12 -4.63888e-14 -0.0282556)
(3.36349e-12 -5.20125e-14 -0.028104)
(3.43155e-12 -5.42908e-14 -0.0279462)
(3.50764e-12 -5.77586e-14 -0.027782)
(3.58983e-12 -6.17668e-14 -0.0276109)
(3.67503e-12 -6.05009e-14 -0.0274324)
(3.75903e-12 -6.0603e-14 -0.0272452)
(3.83731e-12 -5.48055e-14 -0.0270483)
(3.90494e-12 -4.93088e-14 -0.0268442)
(3.95872e-12 -4.20223e-14 -0.0266101)
(3.99493e-12 -4.02242e-14 -0.0264478)
(4.01799e-12 -2.40683e-14 -0.0259341)
(-1.41933e-18 -5.06184e-20 -0.0531668)
(-1.76882e-17 -4.85053e-20 -0.0540568)
(-3.24964e-17 1.88455e-20 -0.0547719)
(-5.52831e-17 1.03707e-18 -0.0551691)
(-6.89363e-17 -1.06764e-18 -0.0552858)
(-9.22714e-17 4.86534e-18 -0.0552438)
(-2.04547e-16 9.98515e-18 -0.0552032)
(1.11595e-16 -3.27e-17 -0.0552984)
(-1.05029e-16 -1.25437e-17 -0.0556326)
(-1.38206e-15 1.54108e-16 -0.0562301)
(-1.05721e-15 1.8351e-16 -0.0570234)
(2.57062e-15 -1.03499e-16 -0.0580033)
(6.99543e-15 -4.36822e-16 -0.0590398)
(8.99779e-15 -5.62409e-16 -0.0600286)
(8.16073e-15 -5.31291e-16 -0.0609039)
(4.73623e-15 -3.7008e-16 -0.0616417)
(-2.31065e-15 7.62387e-17 -0.0622604)
(-1.42849e-14 9.31185e-16 -0.062798)
(-3.0515e-14 2.12295e-15 -0.0632823)
(-4.86475e-14 3.33627e-15 -0.0637118)
(-6.94583e-14 3.62872e-15 -0.0640336)
(-7.89655e-14 1.74844e-15 -0.0640602)
(-5.79312e-14 -1.28832e-15 -0.0635419)
(-2.2568e-14 -2.71928e-15 -0.0623227)
(-2.18424e-15 -2.24886e-15 -0.0604602)
(4.20264e-15 -1.30559e-15 -0.0581865)
(2.93811e-15 -2.02945e-16 -0.0558541)
(-1.95209e-15 5.91228e-16 -0.0538686)
(9.71921e-15 -3.11957e-15 -0.0525944)
(8.9348e-15 -2.31914e-15 -0.0523047)
(-2.62452e-13 5.51491e-14 -0.0532141)
(5.21394e-14 3.58092e-14 -0.0555404)
(5.19263e-12 -8.92996e-13 -0.0594015)
(3.98675e-12 -2.91447e-12 -0.0645687)
(-6.60812e-11 -3.99016e-12 -0.0703752)
(-2.34062e-10 -3.21217e-12 -0.0755133)
(-3.61665e-10 -9.81886e-13 -0.0778618)
(-3.10495e-10 2.64064e-12 -0.0762438)
(-1.58414e-10 4.6349e-12 -0.0715222)
(-4.66405e-11 3.36152e-12 -0.0651134)
(-2.92332e-12 1.37341e-12 -0.0583031)
(4.17465e-12 3.50866e-13 -0.0522773)
(1.40757e-12 -5.31619e-14 -0.0478376)
(2.88774e-12 -1.38571e-12 -0.0451935)
(9.91279e-12 -1.62149e-12 -0.0443183)
(-2.51688e-11 1.22526e-11 -0.0462487)
(-1.59671e-10 3.66272e-11 -0.0536633)
(-3.36212e-11 -5.43115e-11 -0.065323)
(1.77583e-09 -5.44984e-10 -0.0641916)
(7.14244e-09 -1.47187e-09 -0.020547)
(1.59083e-08 -2.10586e-09 0.0729255)
(2.45514e-08 -1.48663e-09 0.173489)
(2.8177e-08 2.25882e-10 0.213767)
(2.43345e-08 1.67773e-09 0.164245)
(1.55163e-08 1.92326e-09 0.0651024)
(6.92886e-09 1.27708e-09 -0.0184829)
(1.68247e-09 5.19553e-10 -0.0567324)
(-2.6801e-10 7.71076e-11 -0.0592893)
(-4.74812e-10 -3.28414e-11 -0.0494164)
(-3.19422e-10 4.12392e-11 -0.0431049)
(-2.81464e-10 3.75194e-11 -0.0436628)
(3.09934e-10 -5.31253e-10 -0.0434209)
(2.94305e-09 -2.16195e-09 -0.0325409)
(8.35875e-09 -4.67142e-09 -0.0175316)
(1.49107e-08 -6.90657e-09 -0.0249498)
(1.95311e-08 -7.64983e-09 -0.0657757)
(2.05671e-08 -6.78189e-09 -0.105894)
(1.8992e-08 -5.19785e-09 -0.0908988)
(1.73513e-08 -3.60972e-09 0.0110847)
(1.81534e-08 -1.64883e-09 0.194613)
(2.1942e-08 1.57585e-09 0.413735)
(2.57608e-08 5.81354e-09 0.580947)
(2.53656e-08 9.19385e-09 0.610611)
(1.95061e-08 9.88231e-09 0.485591)
(1.09482e-08 7.76602e-09 0.274452)
(3.63391e-09 4.37783e-09 0.078141)
(-3.97483e-10 1.48393e-09 -0.0401048)
(-1.51608e-09 -8.96981e-11 -0.0789266)
(-1.13065e-09 -5.27927e-10 -0.0733197)
(-3.41128e-10 -4.19076e-10 -0.0575725)
(4.99545e-10 -2.2637e-10 -0.0465471)
(1.45761e-09 -1.24191e-10 -0.0390886)
(2.46917e-09 -8.57495e-11 -0.0318702)
(3.1631e-09 -4.15915e-11 -0.0271939)
(3.18607e-09 2.62226e-11 -0.0290603)
(2.56681e-09 9.12795e-11 -0.0369971)
(1.66493e-09 1.21014e-10 -0.0466838)
(8.51687e-10 1.06628e-10 -0.053352)
(3.14052e-10 6.89923e-11 -0.054997)
(4.92187e-11 3.29551e-11 -0.0527586)
(-3.73878e-11 1.00433e-11 -0.0489724)
(-4.17541e-11 -1.17371e-13 -0.045481)
(-2.36697e-11 -2.56869e-12 -0.0431596)
(-8.27682e-12 -1.94356e-12 -0.042188)
(-7.11649e-13 -8.37772e-13 -0.042426)
(1.37882e-12 -1.5806e-13 -0.043629)
(1.26861e-12 4.36123e-14 -0.0455213)
(1.03592e-12 -3.67492e-14 -0.0478144)
(1.527e-12 -2.24178e-13 -0.0502179)
(2.86283e-12 -4.16939e-13 -0.0524561)
(4.81563e-12 -5.58863e-13 -0.0542961)
(6.99996e-12 -6.14039e-13 -0.0555755)
(8.97874e-12 -5.61549e-13 -0.0562201)
(1.03569e-11 -4.01889e-13 -0.0562461)
(1.08734e-11 -1.64581e-13 -0.0557461)
(1.04743e-11 9.05163e-14 -0.0548625)
(9.34677e-12 2.98001e-13 -0.053757)
(7.81414e-12 4.19678e-13 -0.0525846)
(6.20339e-12 4.50474e-13 -0.0514769)
(4.76274e-12 4.0777e-13 -0.0505321)
(3.63557e-12 3.18091e-13 -0.0498113)
(2.87413e-12 2.06632e-13 -0.0493398)
(2.47009e-12 9.18653e-14 -0.0491126)
(2.38436e-12 -1.5279e-14 -0.0491004)
(2.56744e-12 -1.09504e-13 -0.049258)
(2.96869e-12 -1.88385e-13 -0.049531)
(3.5376e-12 -2.50155e-13 -0.0498635)
(4.22146e-12 -2.92723e-13 -0.0502036)
(4.96364e-12 -3.14091e-13 -0.050508)
(5.70616e-12 -3.1343e-13 -0.0507442)
(6.39366e-12 -2.91469e-13 -0.050892)
(6.97736e-12 -2.50743e-13 -0.0509432)
(7.42042e-12 -1.96197e-13 -0.0509001)
(7.70345e-12 -1.3499e-13 -0.0507736)
(7.82787e-12 -7.49506e-14 -0.0505803)
(7.81328e-12 -2.28705e-14 -0.05034)
(7.69209e-12 1.64461e-14 -0.050073)
(7.50311e-12 4.06003e-14 -0.0497983)
(7.28532e-12 4.95296e-14 -0.0495319)
(7.07298e-12 4.50585e-14 -0.0492859)
(6.89254e-12 3.02555e-14 -0.0490677)
(6.76128e-12 8.75517e-15 -0.0488804)
(6.68745e-12 -1.58254e-14 -0.0487231)
(6.67145e-12 -4.03049e-14 -0.0485919)
(6.70751e-12 -6.21914e-14 -0.0484804)
(6.78573e-12 -7.97837e-14 -0.0483813)
(6.89391e-12 -9.21681e-14 -0.0482868)
(7.01938e-12 -9.91453e-14 -0.0481898)
(7.15038e-12 -1.0111e-13 -0.0480841)
(7.27718e-12 -9.89196e-14 -0.047965)
(7.3928e-12 -9.3749e-14 -0.0478296)
(7.49341e-12 -8.69526e-14 -0.0476762)
(7.57833e-12 -7.99312e-14 -0.0475048)
(7.64978e-12 -7.39983e-14 -0.0473162)
(7.71232e-12 -7.02609e-14 -0.0471121)
(7.77219e-12 -6.95037e-14 -0.0468945)
(7.8364e-12 -7.2097e-14 -0.0466654)
(7.91185e-12 -7.79347e-14 -0.0464264)
(8.00438e-12 -8.64115e-14 -0.046179)
(8.11794e-12 -9.64626e-14 -0.0459236)
(8.25386e-12 -1.06666e-13 -0.0456603)
(8.41043e-12 -1.15396e-13 -0.0453888)
(8.58273e-12 -1.21053e-13 -0.0451074)
(8.76296e-12 -1.22221e-13 -0.0448154)
(8.94086e-12 -1.18082e-13 -0.0445103)
(9.10534e-12 -1.0805e-13 -0.0441901)
(9.24461e-12 -9.35606e-14 -0.0438585)
(9.34982e-12 -7.31487e-14 -0.0434788)
(9.41678e-12 -6.12534e-14 -0.0432154)
(9.43464e-12 -3.09384e-14 -0.0423886)
(-5.11796e-17 5.47487e-18 -0.0738592)
(-1.59556e-16 8.45583e-18 -0.0751161)
(-1.34275e-16 1.12647e-17 -0.0761213)
(-1.80374e-16 9.38195e-18 -0.0766707)
(-4.84242e-17 8.75789e-18 -0.0768149)
(-5.06837e-16 5.93564e-17 -0.0767252)
(3.46048e-16 -1.08641e-16 -0.0766284)
(8.39805e-16 -7.64146e-17 -0.0767134)
(-5.19658e-15 2.45329e-15 -0.0771324)
(-8.85498e-16 4.79154e-16 -0.0779153)
(2.06041e-14 -3.73909e-15 -0.0789583)
(3.17007e-14 -2.3116e-15 -0.0802849)
(1.37328e-14 -3.19392e-15 -0.081702)
(-1.83457e-14 -5.92428e-16 -0.0830604)
(-5.2494e-14 2.08727e-15 -0.0842623)
(-9.19366e-14 5.16202e-15 -0.0852967)
(-1.3943e-13 9.41777e-15 -0.0862102)
(-1.90631e-13 1.40367e-14 -0.0870595)
(-2.22416e-13 1.72234e-14 -0.0878652)
(-2.02704e-13 1.96625e-14 -0.0885843)
(-1.20247e-13 1.54743e-14 -0.0891376)
(4.70495e-14 -5.4234e-15 -0.0892799)
(2.37314e-13 -2.79829e-14 -0.0886026)
(3.18554e-13 -2.7832e-14 -0.0868027)
(2.71273e-13 -1.34392e-14 -0.0839399)
(1.85182e-13 -2.62766e-15 -0.080355)
(1.06242e-13 3.08901e-15 -0.0765664)
(7.02969e-14 -3.15151e-15 -0.0732537)
(1.46227e-13 -5.76095e-15 -0.07112)
(-2.24473e-13 1.33502e-13 -0.0707335)
(-1.3839e-12 -1.20408e-14 -0.0724939)
(5.49925e-12 -2.67252e-12 -0.0765857)
(2.53879e-11 -2.02992e-12 -0.0826811)
(-5.3445e-11 3.4588e-11 -0.0908004)
(-4.77086e-10 1.16151e-10 -0.102949)
(-1.23994e-09 1.44536e-10 -0.11843)
(-1.83791e-09 3.75652e-11 -0.127859)
(-1.72453e-09 -9.91892e-11 -0.123055)
(-1.02786e-09 -1.28896e-10 -0.108623)
(-3.81557e-10 -7.59693e-11 -0.0933903)
(-5.92879e-11 -2.48052e-11 -0.080312)
(2.66073e-11 -2.07292e-12 -0.0694697)
(2.28534e-11 6.86821e-13 -0.0612239)
(2.19697e-11 -4.34656e-12 -0.056079)
(1.00924e-11 1.30195e-11 -0.0549686)
(-1.70443e-10 8.34879e-11 -0.0614358)
(-3.75943e-10 1.04233e-11 -0.0775464)
(1.05914e-09 -9.37382e-10 -0.0839976)
(7.37256e-09 -3.53047e-09 -0.0288965)
(1.98384e-08 -7.01566e-09 0.1286)
(3.49106e-08 -8.69059e-09 0.363513)
(4.73507e-08 -6.13466e-09 0.597909)
(5.36098e-08 1.14472e-10 0.735364)
(5.07584e-08 6.31918e-09 0.69098)
(3.80889e-08 8.6661e-09 0.470164)
(2.10813e-08 6.87141e-09 0.1985)
(7.45283e-09 3.55631e-09 0.00622669)
(5.56112e-10 1.05001e-09 -0.0701411)
(-1.24226e-09 1.90219e-11 -0.0736725)
(-1.06606e-09 -6.83134e-11 -0.0593838)
(-4.4882e-10 -2.65611e-10 -0.0502748)
(1.42107e-09 -1.70059e-09 -0.0405752)
(5.85295e-09 -4.67077e-09 -0.0346463)
(1.16543e-08 -7.77893e-09 -0.074975)
(1.5016e-08 -8.88899e-09 -0.196616)
(1.34313e-08 -7.37396e-09 -0.349814)
(8.18604e-09 -4.68574e-09 -0.421645)
(2.36986e-09 -2.75706e-09 -0.341241)
(-1.7285e-09 -2.44977e-09 -0.127649)
(-2.51429e-09 -2.89685e-09 0.157734)
(1.55979e-09 -1.72771e-09 0.46166)
(9.77032e-09 2.69887e-09 0.719362)
(1.71238e-08 8.72334e-09 0.832328)
(1.83447e-08 1.2477e-08 0.735828)
(1.32036e-08 1.17086e-08 0.478056)
(5.92882e-09 7.62379e-09 0.191824)
(5.93126e-10 3.13969e-09 -0.00919686)
(-1.60304e-09 2.52556e-10 -0.0957545)
(-1.54026e-09 -8.42306e-10 -0.104193)
(-2.39182e-10 -9.77574e-10 -0.0786524)
(2.0225e-09 -9.46575e-10 -0.0352275)
(5.17496e-09 -9.70015e-10 0.0284218)
(8.52858e-09 -8.27809e-10 0.102344)
(1.07835e-08 -3.49223e-10 0.155083)
(1.08854e-08 2.91275e-10 0.157474)
(8.8799e-09 7.5084e-10 0.110176)
(5.86884e-09 8.54421e-10 0.0414347)
(3.07363e-09 6.78004e-10 -0.018327)
(1.16772e-09 4.05222e-10 -0.0536832)
(1.98669e-10 1.7858e-10 -0.0658794)
(-1.31216e-10 4.68067e-11 -0.0645121)
(-1.54826e-10 -6.52766e-12 -0.0589046)
(-9.00135e-11 -1.67846e-11 -0.054422)
(-3.21793e-11 -1.15659e-11 -0.0528161)
(-2.61867e-12 -4.86126e-12 -0.053883)
(6.30843e-12 -9.76342e-13 -0.0567874)
(6.51596e-12 1.90367e-13 -0.0606999)
(5.84291e-12 -1.28988e-13 -0.0649715)
(7.59269e-12 -9.46094e-13 -0.0691125)
(1.22556e-11 -1.7203e-12 -0.0727418)
(1.89033e-11 -2.18266e-12 -0.0755757)
(2.60023e-11 -2.22522e-12 -0.0774386)
(3.19362e-11 -1.82792e-12 -0.0782755)
(3.54325e-11 -1.07246e-12 -0.0781523)
(3.5871e-11 -1.3646e-13 -0.0772359)
(3.34115e-11 7.50616e-13 -0.0757583)
(2.89241e-11 1.37555e-12 -0.0739722)
(2.35586e-11 1.66001e-12 -0.0721181)
(1.83278e-11 1.63584e-12 -0.0704003)
(1.39023e-11 1.39067e-12 -0.0689712)
(1.05942e-11 1.0347e-12 -0.0679227)
(8.44716e-12 6.43377e-13 -0.0672873)
(7.35348e-12 2.73313e-13 -0.0670455)
(7.14724e-12 -5.08379e-14 -0.067139)
(7.65812e-12 -3.26126e-13 -0.0674849)
(8.72926e-12 -5.43779e-13 -0.0679898)
(1.02136e-11 -7.08776e-13 -0.0685617)
(1.1963e-11 -8.11926e-13 -0.0691195)
(1.38236e-11 -8.49641e-13 -0.069599)
(1.56424e-11 -8.27157e-13 -0.0699549)
(1.72772e-11 -7.41994e-13 -0.0701622)
(1.86075e-11 -6.09065e-13 -0.0702145)
(1.95489e-11 -4.44423e-13 -0.0701215)
(2.00647e-11 -2.64168e-13 -0.0699045)
(2.01722e-11 -9.73035e-14 -0.0695923)
(1.99335e-11 4.51966e-14 -0.0692167)
(1.94403e-11 1.46633e-13 -0.0688095)
(1.87957e-11 2.02569e-13 -0.0683989)
(1.8099e-11 2.2015e-13 -0.0680081)
(1.74342e-11 1.99063e-13 -0.0676536)
(1.68631e-11 1.55654e-13 -0.0673448)
(1.64235e-11 9.49983e-14 -0.0670847)
(1.6131e-11 2.67953e-14 -0.06687)
(1.59821e-11 -3.55602e-14 -0.0666933)
(1.59594e-11 -9.29008e-14 -0.0665441)
(1.60366e-11 -1.34358e-13 -0.0664107)
(1.61828e-11 -1.63334e-13 -0.0662814)
(1.63673e-11 -1.79883e-13 -0.0661455)
(1.65624e-11 -1.80313e-13 -0.0659947)
(1.6746e-11 -1.74205e-13 -0.0658227)
(1.69029e-11 -1.57924e-13 -0.0656258)
(1.70257e-11 -1.40296e-13 -0.0654027)
(1.71147e-11 -1.24885e-13 -0.0651538)
(1.71761e-11 -1.09619e-13 -0.0648813)
(1.72217e-11 -1.03934e-13 -0.064588)
(1.72663e-11 -1.02468e-13 -0.0642771)
(1.73258e-11 -1.10986e-13 -0.0639517)
(1.74156e-11 -1.2894e-13 -0.0636144)
(1.7548e-11 -1.49434e-13 -0.0632668)
(1.7731e-11 -1.76753e-13 -0.0629099)
(1.79667e-11 -2.00538e-13 -0.0625433)
(1.82504e-11 -2.22194e-13 -0.0621663)
(1.85706e-11 -2.38028e-13 -0.0617767)
(1.89097e-11 -2.39564e-13 -0.0613731)
(1.92451e-11 -2.31793e-13 -0.060952)
(1.95522e-11 -2.06684e-13 -0.0605109)
(1.98059e-11 -1.71552e-13 -0.0600545)
(1.99851e-11 -1.28103e-13 -0.0595336)
(2.00895e-11 -8.263e-14 -0.0591703)
(2.00568e-11 -3.29977e-14 -0.0580612)
(5.07148e-17 1.84004e-15 -0.0939167)
(2.02781e-16 1.77622e-15 -0.0955502)
(1.38512e-16 1.04278e-17 -0.0968477)
(3.02164e-16 1.69284e-15 -0.09754)
(3.62315e-16 1.89689e-15 -0.0976902)
(-8.82467e-16 1.54235e-15 -0.0975201)
(6.40311e-15 -6.63336e-16 -0.0973259)
(-1.39081e-14 2.76572e-15 -0.0973526)
(-5.19383e-15 8.50108e-16 -0.0978082)
(7.68412e-14 -1.45352e-14 -0.0987207)
(5.89659e-14 -1.60825e-14 -0.0999338)
(-1.65965e-13 3.35928e-15 -0.101548)
(-4.71734e-13 2.45593e-14 -0.103269)
(-6.49193e-13 3.2551e-14 -0.104916)
(-7.05328e-13 3.62641e-14 -0.106391)
(-7.01628e-13 4.48325e-14 -0.107682)
(-6.29269e-13 5.11581e-14 -0.108836)
(-4.18789e-13 4.24243e-14 -0.109917)
(4.6913e-14 9.89445e-15 -0.110959)
(9.66122e-13 -4.60135e-14 -0.111952)
(2.81395e-12 -1.21248e-13 -0.112792)
(5.2856e-12 -1.77032e-13 -0.113091)
(6.06067e-12 -1.3704e-13 -0.112277)
(4.36538e-12 -1.96991e-14 -0.109928)
(2.4591e-12 6.44371e-14 -0.10621)
(1.27742e-12 7.77409e-14 -0.101587)
(6.7069e-13 5.72395e-14 -0.096673)
(5.48931e-13 -1.94013e-14 -0.0923115)
(4.7834e-13 1.44265e-13 -0.0894403)
(-1.64944e-12 7.62745e-13 -0.0888748)
(1.35302e-12 -2.80843e-12 -0.0912018)
(2.78805e-11 -1.33518e-11 -0.0963442)
(-1.66989e-11 2.85791e-11 -0.103789)
(-3.5546e-10 2.48321e-10 -0.116882)
(-6.30735e-10 5.89257e-10 -0.141979)
(-1.55183e-10 6.772e-10 -0.175368)
(3.05728e-10 2.41309e-10 -0.199756)
(-1.98653e-10 -4.02387e-10 -0.196095)
(-7.77461e-10 -6.66854e-10 -0.165311)
(-7.06822e-10 -4.80925e-10 -0.129966)
(-3.1203e-10 -2.02711e-10 -0.10359)
(-2.71233e-11 -4.07214e-11 -0.0863346)
(6.121e-11 2.26565e-12 -0.07502)
(7.21576e-11 4.99305e-12 -0.067995)
(-5.48145e-11 9.4583e-11 -0.0679904)
(-4.8709e-10 2.05268e-10 -0.0814579)
(-8.40935e-11 -5.78167e-10 -0.0980305)
(4.84493e-09 -3.92856e-09 -0.0634019)
(1.69691e-08 -9.9346e-09 0.081676)
(3.17752e-08 -1.52409e-08 0.311938)
(4.1143e-08 -1.5862e-08 0.554407)
(4.40937e-08 -1.08362e-08 0.802169)
(4.6914e-08 -1.47795e-09 1.05769)
(5.13807e-08 9.43822e-09 1.19636)
(4.96386e-08 1.67618e-08 1.05112)
(3.62348e-08 1.65951e-08 0.652966)
(1.78996e-08 1.07822e-08 0.233715)
(4.36258e-09 4.42465e-09 -0.0211829)
(-1.37755e-09 7.78245e-10 -0.100769)
(-2.12087e-09 -3.5548e-10 -0.0915629)
(-5.94586e-10 -1.20604e-09 -0.0609215)
(3.00918e-09 -3.68213e-09 -0.0390544)
(8.23359e-09 -7.27856e-09 -0.0773739)
(1.1659e-08 -9.25293e-09 -0.243997)
(9.80033e-09 -7.7951e-09 -0.507882)
(3.5585e-09 -4.23487e-09 -0.697591)
(-2.95769e-09 -1.25114e-09 -0.648494)
(-6.89591e-09 -2.40574e-10 -0.348339)
(-8.46545e-09 -1.16765e-09 0.0776773)
(-8.96251e-09 -3.29298e-09 0.482851)
(-7.60731e-09 -4.56645e-09 0.796468)
(-1.97537e-09 -1.96846e-09 1.01369)
(6.69506e-09 4.90667e-09 1.09964)
(1.26795e-08 1.18424e-08 0.987214)
(1.2163e-08 1.3974e-08 0.685808)
(7.02447e-09 1.06831e-08 0.319754)
(1.6611e-09 5.24986e-09 0.0334297)
(-1.28192e-09 9.76997e-10 -0.111816)
(-1.43048e-09 -1.20985e-09 -0.13832)
(9.9985e-10 -2.20046e-09 -0.0823282)
(5.82363e-09 -2.93344e-09 0.0469715)
(1.21508e-08 -3.37723e-09 0.241375)
(1.82026e-08 -2.89e-09 0.455726)
(2.20712e-08 -1.21998e-09 0.611244)
(2.24609e-08 9.77997e-10 0.638186)
(1.9202e-08 2.59954e-09 0.525264)
(1.35909e-08 3.02415e-09 0.330949)
(7.73698e-09 2.45719e-09 0.13767)
(3.28744e-09 1.50647e-09 0.00142195)
(7.61728e-10 6.8242e-10 -0.0662271)
(-2.34597e-10 1.86792e-10 -0.0846014)
(-3.93134e-10 -2.07183e-11 -0.080034)
(-2.57387e-10 -6.38919e-11 -0.0710848)
(-1.04266e-10 -4.5641e-11 -0.0659498)
(-1.5648e-11 -2.00817e-11 -0.0659834)
(1.65515e-11 -4.72364e-12 -0.0697349)
(2.16545e-11 2.76385e-13 -0.0753492)
(2.21114e-11 -5.7511e-13 -0.0814336)
(2.86335e-11 -3.4305e-12 -0.0871131)
(4.33751e-11 -6.07226e-12 -0.0918579)
(6.35693e-11 -7.4305e-12 -0.0953691)
(8.42082e-11 -7.13049e-12 -0.0975222)
(1.00128e-10 -5.27665e-12 -0.0983459)
(1.07685e-10 -2.36926e-12 -0.0980003)
(1.05717e-10 8.45942e-13 -0.0967403)
(9.55809e-11 3.56572e-12 -0.0948652)
(8.04568e-11 5.22443e-12 -0.0926662)
(6.389e-11 5.71782e-12 -0.0904085)
(4.86578e-11 5.27864e-12 -0.0883224)
(3.63557e-11 4.27458e-12 -0.0865888)
(2.75199e-11 3.04738e-12 -0.0853241)
(2.19928e-11 1.82697e-12 -0.084574)
(1.92906e-11 7.41825e-13 -0.0843167)
(1.88579e-11 -1.67602e-13 -0.0844773)
(2.01891e-11 -9.00513e-13 -0.0849462)
(2.28513e-11 -1.46436e-12 -0.0855994)
(2.6457e-11 -1.86704e-12 -0.0863164)
(3.06268e-11 -2.09772e-12 -0.0869936)
(3.49763e-11 -2.15378e-12 -0.0875517)
(3.91334e-11 -2.04025e-12 -0.0879389)
(4.27582e-11 -1.7723e-12 -0.0881303)
(4.55755e-11 -1.38661e-12 -0.088126)
(4.7407e-11 -9.24773e-13 -0.0879454)
(4.8196e-11 -4.46613e-13 -0.087621)
(4.8014e-11 -9.37552e-15 -0.0871918)
(4.70346e-11 3.44799e-13 -0.0866978)
(4.54927e-11 5.8537e-13 -0.0861766)
(4.3641e-11 7.11232e-13 -0.0856607)
(4.17137e-11 7.30277e-13 -0.0851751)
(3.99011e-11 6.63045e-13 -0.0847371)
(3.83378e-11 5.37336e-13 -0.0843553)
(3.71005e-11 3.74794e-13 -0.0840307)
(3.6214e-11 2.04886e-13 -0.0837578)
(3.56613e-11 4.54747e-14 -0.0835262)
(3.53959e-11 -8.94302e-14 -0.0833227)
(3.53533e-11 -1.89742e-13 -0.0831328)
(3.5462e-11 -2.57553e-13 -0.0829428)
(3.56523e-11 -2.88951e-13 -0.082741)
(3.58634e-11 -2.90422e-13 -0.0825182)
(3.60485e-11 -2.69142e-13 -0.0822683)
(3.61772e-11 -2.31906e-13 -0.0819882)
(3.62365e-11 -1.92843e-13 -0.0816775)
(3.62294e-11 -1.55115e-13 -0.0813378)
(3.61725e-11 -1.27535e-13 -0.0809722)
(3.60926e-11 -1.15344e-13 -0.0805846)