/*--------------------------------*- C++ -*----------------------------------*\
  =========                 |
  \\      /  F ield         | OpenFOAM: The Open Source CFD Toolbox
   \\    /   O peration     | Website:  https://openfoam.org
    \\  /    A nd           | Version:  11
     \\/     M anipulation  |
\*---------------------------------------------------------------------------*/
FoamFile
{
    format      ascii;
    class       volScalarField;
    location    "13.411182";
    object      p;
}
// * * * * * * * * * * * * * * * * * * * * * * * * * * * * * * * * * * * * * //

dimensions      [0 2 -2 0 0 0 0];

internalField   nonuniform List<scalar> 
7132
(
0.0778925
0.0767827
0.0729957
0.0674797
0.0597631
0.0496393
0.0371283
0.0223503
0.00600269
-0.0108232
-0.0265145
-0.0391862
-0.0477064
-0.0514909
-0.0503465
-0.04492
-0.0365187
-0.0265695
-0.0163737
-0.00697011
0.000872095
0.00666093
0.0103256
0.0124025
0.0138691
0.0155738
0.0178115
0.0203946
0.0229974
0.0253956
0.0275576
0.0295639
0.0314649
0.0330937
0.0339296
0.03334
0.0312002
0.028329
0.0260371
0.0251543
0.025585
0.0266494
0.0277008
0.0284301
0.0288768
0.029267
0.0298087
0.0303952
0.0304232
0.0291034
0.0262661
0.0228828
0.0204925
0.0199951
0.0211125
0.0228383
0.0242749
0.0250454
0.0252529
0.0252513
0.0253848
0.0256479
0.0254869
0.0240902
0.0211936
0.0176802
0.0151677
0.0147925
0.0164272
0.0189268
0.0210823
0.022285
0.0225821
0.0223978
0.0222084
0.022171
0.0218815
0.0205563
0.0177395
0.0139818
0.0107601
0.00953654
0.0107905
0.0137667
0.0170634
0.0195003
0.02062
0.0206528
0.0201858
0.0197545
0.0194212
0.0186307
0.0165782
0.0129849
0.00860921
0.00495851
0.00336278
0.0041973
0.00676267
0.00978294
0.0120861
0.0130395
0.0126306
0.0112731
0.00942559
0.00718412
0.004196
5.83464e-05
-0.00505852
-0.0101786
-0.013956
-0.0154452
-0.0145884
-0.01215
-0.0092603
-0.00692588
-0.00580367
-0.00622046
-0.00832177
-0.0122066
-0.0179448
-0.025438
-0.0341646
-0.0429926
-0.0502859
-0.0543662
-0.0541684
-0.0496854
-0.0420093
-0.0328665
-0.0239573
-0.0164501
-0.0108211
-0.0070048
-0.00467758
-0.00349919
-0.00322649
-0.00372075
-0.00488246
-0.00657566
-0.0085673
-0.0105131
-0.0120019
-0.0126518
-0.0122245
-0.0107095
-0.00835039
-0.00559123
-0.00294171
-0.000816685
0.000597119
0.00135856
0.00164684
0.00171174
0.00156691
0.00150869
0.00100333
0.00115983
-0.000262853
0.001324
0.0783392
0.0772385
0.0734832
0.0679973
0.0602982
0.0501521
0.0375561
0.0225932
0.00596728
-0.0112238
-0.0272823
-0.0402054
-0.0488688
-0.0526844
-0.0514151
-0.0457216
-0.0369831
-0.026696
-0.016214
-0.00660888
0.00133509
0.00711306
0.0106571
0.0125453
0.0138346
0.0154324
0.0176402
0.0202415
0.022884
0.0253285
0.0275389
0.0295934
0.0315399
0.0332081
0.0340559
0.0334165
0.0311534
0.0281263
0.0257226
0.0248124
0.0252874
0.0264228
0.0275418
0.0283258
0.0288146
0.0292358
0.0298002
0.0304007
0.0304166
0.0290312
0.0260693
0.0225432
0.0200639
0.0195655
0.0207612
0.0225908
0.0241188
0.0249549
0.0252025
0.0252199
0.0253571
0.0256077
0.0254055
0.023923
0.0209005
0.0172569
0.0146631
0.0142885
0.0160031
0.0186236
0.0208976
0.0221896
0.0225396
0.0223774
0.0221898
0.0221355
0.021795
0.0203679
0.0174072
0.0135056
0.0101933
0.00896028
0.0102764
0.0133606
0.016779
0.019328
0.0205328
0.0206167
0.0201707
0.0197394
0.0193797
0.018518
0.016341
0.0125933
0.00808257
0.00436585
0.00279503
0.00372965
0.00643598
0.00959887
0.0120244
0.0130712
0.0127217
0.0113858
0.00951764
0.00720132
0.00407597
-0.000246139
-0.00554861
-0.0107965
-0.0146
-0.0160036
-0.0149719
-0.0123113
-0.00920098
-0.00668604
-0.00544447
-0.00580921
-0.00792628
-0.0118988
-0.0178019
-0.0255337
-0.0345481
-0.0436657
-0.0511931
-0.0554038
-0.0552068
-0.0506
-0.0427092
-0.0333128
-0.0241614
-0.0164576
-0.0106912
-0.00679609
-0.00444027
-0.0032729
-0.00303973
-0.00359336
-0.00482757
-0.00660085
-0.00867341
-0.010692
-0.012236
-0.0129164
-0.0124935
-0.0109599
-0.00856566
-0.0057617
-0.00306384
-0.000891869
0.000561468
0.00135348
0.00165856
0.00173546
0.00158619
0.00153674
0.00100518
0.0011941
-0.000303169
0.00139796
0.0792285
0.0781473
0.0744576
0.0690363
0.0613778
0.0511931
0.0384324
0.0230993
0.00590971
-0.012031
-0.0288414
-0.0422688
-0.0512121
-0.0550847
-0.0535542
-0.0473123
-0.0378895
-0.0269213
-0.0158638
-0.00585408
0.00229214
0.00804282
0.0113326
0.0128251
0.0137449
0.0151238
0.0172748
0.0199169
0.0226402
0.0251769
0.0274825
0.0296327
0.0316718
0.0334231
0.034299
0.0335588
0.031039
0.0276865
0.0250506
0.0240882
0.0246611
0.0259469
0.0272045
0.0280971
0.0286673
0.0291482
0.0297578
0.030387
0.030378
0.0288566
0.0256348
0.0218101
0.0191432
0.0186522
0.0200167
0.0220669
0.0237847
0.0247522
0.0250762
0.0251274
0.0252709
0.0254991
0.0252163
0.0235585
0.0202753
0.0163625
0.0136028
0.0132324
0.0151137
0.0179844
0.0205018
0.0219736
0.0224252
0.0223012
0.0221142
0.0220276
0.0215875
0.0199587
0.0167122
0.0125256
0.0090349
0.00778625
0.00923226
0.0125357
0.0161975
0.0189664
0.0203354
0.0205154
0.0201087
0.0196782
0.0192659
0.0182577
0.0158239
0.011759
0.00697285
0.00312435
0.0016101
0.00275938
0.00576029
0.00921766
0.011892
0.0131255
0.0128946
0.0116046
0.0096979
0.00722739
0.00381154
-0.000904405
-0.00660322
-0.0121225
-0.0159799
-0.0171987
-0.0157943
-0.0126675
-0.00910116
-0.00621778
-0.00473572
-0.00499715
-0.00714756
-0.0112994
-0.0175406
-0.0257632
-0.035371
-0.0450872
-0.0531003
-0.05758
-0.0573836
-0.0525185
-0.0441809
-0.0342566
-0.0246021
-0.0164916
-0.0104434
-0.00638805
-0.00397488
-0.00282939
-0.00267432
-0.00334503
-0.00472263
-0.00665486
-0.00888822
-0.0110512
-0.0127042
-0.013444
-0.013028
-0.0114555
-0.00899034
-0.00609699
-0.00330373
-0.00103992
0.000490277
0.00134173
0.0016797
0.00178081
0.00162327
0.00159248
0.00100815
0.00126451
-0.000384726
0.0015484
0.0805531
0.0795032
0.0759185
0.0706044
0.0630202
0.0527928
0.0397969
0.0239055
0.00584926
-0.0132716
-0.031267
-0.045472
-0.0548622
-0.058852
-0.0569311
-0.0498267
-0.0393215
-0.0272827
-0.0153275
-0.0046896
0.00377265
0.00947805
0.0123578
0.0132106
0.0135392
0.0145806
0.0166598
0.019381
0.0222377
0.0249174
0.0273655
0.0296582
0.0318356
0.0337141
0.0346331
0.0337285
0.03079
0.0269092
0.023906
0.0228826
0.0236385
0.0251794
0.0266593
0.0277169
0.0284049
0.0289698
0.0296416
0.0303072
0.0302482
0.0284968
0.024847
0.0205381
0.0175796
0.0171251
0.0187874
0.0212098
0.0232357
0.0244054
0.0248365
0.0249256
0.0250661
0.0252542
0.0248478
0.0229244
0.0192448
0.0149206
0.0119047
0.0115405
0.0136867
0.0169535
0.0198517
0.0215981
0.0221973
0.0221231
0.0219349
0.0218012
0.0212076
0.0192592
0.0155584
0.0109225
0.00716079
0.00590875
0.00758582
0.0112476
0.0152884
0.0183869
0.0199947
0.0203138
0.0199684
0.0195455
0.0190501
0.0177988
0.0149405
0.0103592
0.00513394
0.00108549
-0.000320816
0.0011911
0.00467425
0.00860401
0.0116673
0.0131858
0.0131367
0.0119235
0.00996302
0.00724325
0.00334632
-0.00201989
-0.00836323
-0.014312
-0.0182397
-0.0191443
-0.0171318
-0.0132612
-0.00897935
-0.00552855
-0.00368402
-0.00379603
-0.0060067
-0.0104451
-0.0172221
-0.0262206
-0.0367638
-0.0474206
-0.0561938
-0.0610904
-0.0608847
-0.0556011
-0.0465482
-0.0357826
-0.0253307
-0.0165805
-0.0100936
-0.00579163
-0.00329078
-0.00217738
-0.00213839
-0.00298369
-0.00457606
-0.00674689
-0.00922127
-0.0115996
-0.0134134
-0.0142385
-0.0138283
-0.0121931
-0.00961818
-0.00658981
-0.00365524
-0.00125742
0.000384179
0.00132218
0.00170898
0.00184689
0.00167784
0.00167499
0.00101035
0.00136993
-0.000512716
0.00178471
0.0823007
0.0812964
0.0778641
0.0727122
0.0652534
0.0549992
0.0417147
0.0250765
0.00582795
-0.0149721
-0.0346441
-0.0498953
-0.0598686
-0.0640086
-0.0615287
-0.0532081
-0.0411986
-0.0276897
-0.0145102
-0.00302189
0.00586187
0.0114817
0.0137468
0.0136481
0.0131139
0.0136919
0.0157074
0.0185712
0.021628
0.0245053
0.027142
0.0296208
0.0319808
0.0340339
0.0350101
0.0338574
0.0302908
0.0256234
0.0221018
0.0210244
0.0220975
0.0240414
0.0258497
0.027134
0.0279706
0.0286301
0.02936
0.0300521
0.029915
0.0278449
0.0235916
0.0185811
0.0151888
0.0147928
0.0169208
0.0199174
0.0224039
0.0238556
0.0244129
0.0245231
0.0246375
0.0247679
0.0241977
0.0219121
0.0176862
0.0128004
0.00944643
0.00911015
0.0116341
0.0154549
0.0188815
0.0210007
0.0217899
0.0217753
0.021591
0.0214016
0.0205894
0.0181683
0.0137967
0.00850924
0.0043732
0.00315302
0.00520784
0.00941192
0.0139967
0.0175437
0.0194644
0.0199668
0.0197132
0.0193119
0.0186944
0.0170747
0.013587
0.00826011
0.0024167
-0.00190207
-0.00314158
-0.00109896
0.00308566
0.00769724
0.0113118
0.0132267
0.0134329
0.0123374
0.010307
0.00722036
0.00261031
-0.00370356
-0.0109615
-0.0174959
-0.0214929
-0.0219332
-0.0190568
-0.014148
-0.00887944
-0.00465671
-0.00232721
-0.00224627
-0.00455091
-0.0093987
-0.0169349
-0.027024
-0.0388687
-0.0508195
-0.060627
-0.066081
-0.0658484
-0.0599768
-0.049924
-0.0379811
-0.0264128
-0.0167698
-0.00967493
-0.00503484
-0.00241434
-0.00134164
-0.00145393
-0.00252813
-0.00440397
-0.00689084
-0.00968389
-0.0123449
-0.0143668
-0.0152982
-0.0148878
-0.0131621
-0.0104366
-0.00722743
-0.0041074
-0.00153655
0.00024765
0.00129671
0.00174732
0.00193412
0.00175068
0.00178406
0.00101047
0.00151043
-0.000693451
0.00212264
0.0844535
0.0835123
0.0802904
0.0753724
0.0681136
0.0578768
0.0442749
0.0267016
0.00589862
-0.0171966
-0.0391543
-0.0557647
-0.0665601
-0.0709903
-0.0677912
-0.0577912
-0.0437111
-0.0282167
-0.0134133
-0.000810373
0.00862726
0.0141156
0.0155051
0.0140495
0.0123078
0.0122826
0.0142765
0.0173884
0.0207387
0.0238782
0.0267468
0.0294471
0.0320276
0.0342987
0.0353335
0.033807
0.0293209
0.0235152
0.0192856
0.0182373
0.019855
0.0224222
0.0247001
0.0262789
0.0272785
0.0280029
0.0287312
0.0294041
0.0291647
0.0267382
0.0217729
0.0158645
0.0118531
0.0114816
0.0142452
0.0180588
0.021196
0.0230194
0.0237065
0.0238026
0.0238703
0.023938
0.0231583
0.0203677
0.0153775
0.00974107
0.00599171
0.00577273
0.00884608
0.0134085
0.0175192
0.020108
0.0211287
0.021191
0.0210296
0.0207749
0.0196514
0.0165599
0.0112622
0.00509941
0.000480506
-0.000661097
0.00194922
0.00692454
0.0122525
0.0163815
0.0186923
0.0194274
0.0193063
0.0189431
0.0181483
0.0160077
0.011666
0.0053632
-0.00126653
-0.00591657
-0.00693003
-0.00419068
0.000921839
0.00643809
0.0107795
0.0132119
0.0137552
0.0128244
0.0106984
0.00709973
0.00151385
-0.00605557
-0.0144786
-0.0217176
-0.0257492
-0.0255615
-0.0215697
-0.0153441
-0.00883798
-0.00365619
-0.000730779
-0.000420328
-0.00286321
-0.00826187
-0.0168002
-0.028298
-0.0417844
-0.0553327
-0.0663934
-0.0725119
-0.0722296
-0.0656175
-0.0543068
-0.040874
-0.0278844
-0.0171018
-0.00923226
-0.00416303
-0.00138918
-0.000361419
-0.000654223
-0.00200614
-0.00422962
-0.00710535
-0.0102885
-0.0132914
-0.0155599
-0.0166102
-0.0161874
-0.0143397
-0.0114215
-0.00798769
-0.00464323
-0.00186723
8.45564e-05
0.00126497
0.00179309
0.0020404
0.00184052
0.00191663
0.00100495
0.00168278
-0.000936615
0.00258324
0.0869869
0.0861301
0.0831893
0.0785981
0.0716451
0.0615108
0.0476015
0.0289152
0.00615696
-0.0200039
-0.0449706
-0.0631995
-0.0748837
-0.0796861
-0.0755887
-0.0634362
-0.0467224
-0.0287366
-0.0119146
0.00206321
0.0121809
0.0174583
0.0176153
0.014251
0.0108513
0.0100863
0.0121748
0.0157076
0.0194772
0.0229466
0.0260785
0.029017
0.0318343
0.0343388
0.0354054
0.0333235
0.0275292
0.0201254
0.0149559
0.0141031
0.0166343
0.0201595
0.0231038
0.0250513
0.0261944
0.0268879
0.0274946
0.0280875
0.0277365
0.024926
0.019144
0.0121761
0.00741082
0.00705681
0.0106134
0.0154947
0.0194929
0.0217833
0.0225946
0.0226426
0.0226665
0.0226802
0.021619
0.0181203
0.0120883
0.00548023
0.00128751
0.00132422
0.00518617
0.0107222
0.0156851
0.0188374
0.0201334
0.0203033
0.0201942
0.0198549
0.0183018
0.014325
0.00785415
0.000615231
-0.00458266
-0.00560689
-0.00227384
0.00370629
0.00998843
0.0148401
0.0176202
0.0186419
0.0186987
0.018385
0.0173449
0.0145265
0.00912526
0.00165556
-0.00588775
-0.0109093
-0.0116462
-0.00807328
-0.00183792
0.00478609
0.0100229
0.0130952
0.0140617
0.0133426
0.0110797
0.0068051
-1.83793e-05
-0.00911297
-0.0188851
-0.0268819
-0.0308766
-0.0299016
-0.0245875
-0.0168287
-0.00889522
-0.00261337
0.000992358
0.00155687
-0.00107969
-0.00717759
-0.0169428
-0.0301013
-0.0454563
-0.0607738
-0.0731984
-0.0800341
-0.079692
-0.0722508
-0.0595162
-0.0443733
-0.0297307
-0.0176094
-0.00882455
-0.00324562
-0.000284389
0.000701512
0.000209076
-0.00145934
-0.00408434
-0.00740915
-0.0110379
-0.0144246
-0.016963
-0.0181345
-0.0176827
-0.0156819
-0.0125327
-0.00883756
-0.00523887
-0.00223556
-9.96246e-05
0.00122666
0.00184388
0.0021619
0.00194448
0.00206727
0.000990281
0.00188166
-0.00125014
0.00318968
0.0898677
0.0891209
0.0865464
0.0824
0.0758972
0.066004
0.0518503
0.0318924
0.00671856
-0.0235376
-0.0524836
-0.0726627
-0.0857248
-0.0912329
-0.0859657
-0.0708279
-0.0505575
-0.0293485
-0.00999957
0.00565976
0.0166138
0.0215798
0.0200211
0.0139966
0.00835132
0.00671466
0.00911543
0.0133402
0.0177066
0.0215849
0.0249953
0.0281468
0.0311141
0.0337368
0.0347932
0.0321332
0.0248018
0.0152822
0.00871628
0.00811224
0.0120569
0.0170335
0.0209244
0.0233201
0.0245363
0.0250435
0.0254091
0.0259079
0.0254522
0.0221362
0.0152814
0.00704515
0.00150211
0.00131823
0.00589395
0.0121029
0.01717
0.0200194
0.0209525
0.0209394
0.0209457
0.0209082
0.0194602
0.0150302
0.00769749
-7.62132e-05
-0.00476113
-0.00434244
0.000557704
0.00731883
0.0133058
0.0171105
0.0187276
0.0190462
0.0190197
0.0185636
0.0164571
0.0114068
0.0035746
-0.00487782
-0.0107183
-0.0116005
-0.00742293
-0.000250703
0.00716757
0.0128677
0.0161899
0.017549
0.0178243
0.0175615
0.0162068
0.0125786
0.00596978
-0.00278405
-0.0113049
-0.0167073
-0.0171279
-0.0126317
-0.00514232
0.00273666
0.00900134
0.0128182
0.0142861
0.0138164
0.0113598
0.00624744
-0.00203016
-0.0128278
-0.0240237
-0.0327465
-0.0366028
-0.0347091
-0.0279403
-0.018532
-0.00908072
-0.00163547
0.00268699
0.00350466
0.000605281
-0.00632256
-0.0174608
-0.0323845
-0.0496466
-0.0667269
-0.0804982
-0.0880443
-0.0876514
-0.0793812
-0.0651908
-0.0482655
-0.0318678
-0.0183024
-0.00851719
-0.00237244
0.000807445
0.00176378
0.00106591
-0.000942958
-0.00400494
-0.0078143
-0.0119143
-0.0156971
-0.0185059
-0.0197907
-0.0192933
-0.0171159
-0.0137099
-0.00973139
-0.00586409
-0.00262592
-0.000300847
0.00117801
0.00189266
0.00228918
0.00205419
0.00222473
0.000962129
0.00209784
-0.00163486
0.00395671
0.0930528
0.0924466
0.0903386
0.0867844
0.080924
0.0714849
0.0572304
0.0358947
0.0077922
-0.0279226
-0.061994
-0.0842123
-0.0984673
-0.104916
-0.0984183
-0.0796883
-0.055074
-0.0299735
-0.00761778
0.0100268
0.0219817
0.0265018
0.0225769
0.0128504
0.00415468
0.00155382
0.0046977
0.0100583
0.0152689
0.0196372
0.0233061
0.02653
0.0293079
0.0317065
0.0326608
0.0296731
0.0211392
0.00932019
0.000709315
-3.04076e-06
0.00574065
0.0127647
0.0179808
0.0209184
0.0220976
0.0222539
0.022327
0.0227711
0.0221873
0.0181499
0.00989488
0.000160613
-0.00614841
-0.00593379
-2.84028e-05
0.00778724
0.0141142
0.0176027
0.0186674
0.0186072
0.0186309
0.0185313
0.0165888
0.0110537
0.00225565
-0.00679539
-0.0120095
-0.0111362
-0.00501743
0.0031743
0.0103304
0.0148592
0.0168377
0.0173446
0.0174224
0.0168131
0.014057
0.00781861
-0.00146264
-0.0111753
-0.0176743
-0.0184026
-0.0133253
-0.00486152
0.00380226
0.0104316
0.0143443
0.016076
0.0165958
0.0163758
0.0146539
0.0101415
0.00226795
-0.00778927
-0.017275
-0.0230321
-0.0231098
-0.01766
-0.00887214
0.000322839
0.00768296
0.0123098
0.0143345
0.0141329
0.0114222
0.00534574
-0.00450811
-0.0170497
-0.0296109
-0.0389414
-0.0425413
-0.0396483
-0.0313974
-0.0203559
-0.00942584
-0.000856498
0.00415206
0.00518328
0.00194849
-0.00587855
-0.018393
-0.0349833
-0.0539821
-0.07265
-0.0876414
-0.0958465
-0.0954198
-0.0863961
-0.0708566
-0.0522465
-0.0341557
-0.019169
-0.00837977
-0.00165135
0.00177059
0.00271853
0.00182448
-0.000527134
-0.00403047
-0.00831906
-0.0128711
-0.0170222
-0.0200747
-0.0214551
-0.0209002
-0.0185387
-0.0148725
-0.010612
-0.00648354
-0.00302169
-0.0005166
0.00111172
0.00192707
0.00240547
0.00215424
0.00237126
0.00091801
0.0023197
-0.00207209
0.00487131
0.0964869
0.0960557
0.0945295
0.0917449
0.086774
0.078093
0.0639875
0.0412534
0.00961299
-0.0335036
-0.0743687
-0.0988265
-0.115148
-0.123451
-0.115278
-0.0913012
-0.0607345
-0.0307085
-0.00475601
0.0151675
0.0283015
0.0321577
0.0249265
0.0100113
-0.00275267
-0.00625965
-0.00163345
0.00553936
0.0119443
0.0169052
0.0207569
0.023709
0.025672
0.0273938
0.02817
0.0251375
0.0157461
0.00174105
-0.00914503
-0.0102104
-0.00249159
0.00711345
0.0140703
0.0176589
0.018691
0.018378
0.0181746
0.0186131
0.017838
0.0128846
0.00302714
-0.00833267
-0.0154167
-0.0146599
-0.00715762
0.00251268
0.0102504
0.0144357
0.0156502
0.0155716
0.0156414
0.0154638
0.0129617
0.00625546
-0.00403481
-0.0143646
-0.0201124
-0.0187714
-0.0113694
-0.00164916
0.00675034
0.0120365
0.0143961
0.0151146
0.0153044
0.0145173
0.0110754
0.00364191
-0.00705189
-0.017968
-0.0250865
-0.0256576
-0.0196981
-0.00995273
-3.83808e-05
0.00752653
0.0120325
0.0141412
0.0149095
0.0147205
0.0126155
0.0072269
-0.00185742
-0.0131283
-0.023486
-0.0295355
-0.0292581
-0.0228879
-0.0128555
-0.00238994
0.00604378
0.0114842
0.0140821
0.0141436
0.011132
0.00403848
-0.00737781
-0.021542
-0.0352722
-0.0450166
-0.04824
-0.0443378
-0.0346992
-0.0221889
-0.00996545
-0.000429655
0.00515388
0.00631485
0.00269235
-0.00599977
-0.0197186
-0.0376779
-0.0580687
-0.0780196
-0.0940178
-0.102779
-0.102331
-0.0926835
-0.0760154
-0.0559768
-0.0364234
-0.0201814
-0.0084808
-0.00119989
0.00247316
0.00343875
0.00237484
-0.00029174
-0.00419716
-0.00890712
-0.0138402
-0.01829
-0.0215326
-0.022978
-0.0223621
-0.0198296
-0.0159269
-0.0114151
-0.00705991
-0.00340769
-0.000747973
0.00101476
0.00192651
0.00248317
0.00221902
0.00248041
0.000856591
0.00253004
-0.00251612
0.00586521
0.100101
0.0998837
0.0990666
0.0972621
0.0934911
0.0859991
0.0724541
0.048486
0.0126437
-0.0405713
-0.090147
-0.116126
-0.133964
-0.144903
-0.135424
-0.105366
-0.0676053
-0.031737
-0.00167022
0.0208175
0.0353346
0.0380984
0.0262132
0.00397562
-0.0143217
-0.0182275
-0.0107223
-0.000604926
0.00751281
0.0131843
0.0170284
0.0191518
0.019671
0.0205176
0.0212853
0.0182613
0.00771886
-0.00854377
-0.0214639
-0.0225817
-0.012654
-4.69937e-05
0.00901597
0.013365
0.0141787
0.0133476
0.0129175
0.0133943
0.0123853
0.00645346
-0.00499201
-0.0179333
-0.025792
-0.0244816
-0.0152924
-0.00364892
0.00556796
0.0104666
0.0118402
0.0117657
0.0118973
0.0116422
0.00859684
0.00079456
-0.0108619
-0.0223544
-0.0285952
-0.0268222
-0.0181994
-0.00699672
0.00261172
0.00862265
0.0113424
0.0122658
0.0125627
0.0116027
0.0075246
-0.000984197
-0.0129211
-0.024879
-0.0325223
-0.0329391
-0.0261847
-0.0152823
-0.00423356
0.00417668
0.0092125
0.0116586
0.0126536
0.012489
0.0100387
0.00388041
-0.00624178
-0.0185277
-0.0295873
-0.0358341
-0.0352048
-0.0280112
-0.0168894
-0.00531492
0.00406488
0.0102425
0.0133778
0.013676
0.0103522
0.00229547
-0.0105092
-0.0260096
-0.0405905
-0.0504985
-0.0532407
-0.0483981
-0.0375941
-0.0239322
-0.0107491
-0.00052414
0.00544262
0.00661913
0.002607
-0.00679272
-0.0213832
-0.0402609
-0.0615722
-0.0823977
-0.0991079
-0.108268
-0.107798
-0.0976938
-0.0802086
-0.0591332
-0.0385012
-0.0213072
-0.00888608
-0.00113821
0.00277442
0.00378494
0.00259683
-0.000319187
-0.00453643
-0.00955563
-0.014751
-0.0193944
-0.0227501
-0.0242211
-0.0235416
-0.0208685
-0.0167795
-0.0120774
-0.00755785
-0.00377165
-0.000999799
0.000868678
0.00186238
0.0024842
0.00221303
0.00251632
0.000773349
0.00269725
-0.00290066
0.00679558
0.103811
0.103847
0.103874
0.103283
0.101088
0.0953481
0.0829789
0.058213
0.0173052
-0.0499826
-0.111086
-0.138486
-0.159636
-0.175153
-0.163331
-0.123845
-0.0761489
-0.0331409
0.00148735
0.0267201
0.0424606
0.043353
0.0245453
-0.00799096
-0.0334211
-0.0364538
-0.023693
-0.0088784
0.00171272
0.00823735
0.0117698
0.0124322
0.0111806
0.0112864
0.0123026
0.00917136
-0.00284882
-0.0213873
-0.0360556
-0.0369245
-0.0245441
-0.00866977
0.00273242
0.00791923
0.00848934
0.0071436
0.00654005
0.00710474
0.00590557
-0.000875877
-0.0136714
-0.0279742
-0.0365528
-0.0347796
-0.024028
-0.0104932
0.000140806
0.00570158
0.00721006
0.00713609
0.00733387
0.00703888
0.00357137
-0.0051023
-0.0178498
-0.0302776
-0.0369213
-0.0347867
-0.0251218
-0.0126346
-0.00198296
0.00463064
0.00763053
0.00871322
0.00910435
0.00802109
0.00345489
-0.00587963
-0.0187635
-0.0315047
-0.039527
-0.0397955
-0.0323955
-0.0205682
-0.00862377
0.000434524
0.0058575
0.0085477
0.00972199
0.00959027
0.00689641
0.000177247
-0.0106964
-0.0236998
-0.0352238
-0.0415446
-0.0405822
-0.0327219
-0.0207619
-0.0083556
0.00173072
0.0084782
0.0120549
0.0125493
0.0089583
0.000118994
-0.0137374
-0.0301402
-0.0451555
-0.0549428
-0.0571342
-0.0514949
-0.0398668
-0.0255141
-0.0118415
-0.00131021
0.00478413
0.00586036
0.00152397
-0.00831682
-0.0233339
-0.0425814
-0.0642479
-0.0854425
-0.102482
-0.11183
-0.111329
-0.100969
-0.0830567
-0.0614473
-0.0402459
-0.0225195
-0.00965652
-0.00158054
0.00253633
0.00361975
0.00237455
-0.000685768
-0.00507597
-0.0102467
-0.015549
-0.0202521
-0.0236243
-0.0250702
-0.0243247
-0.021551
-0.0173479
-0.0125435
-0.00794809
-0.00410568
-0.00128053
0.000650726
0.0017001
0.00236338
0.00209321
0.00243237
0.000650303
0.00276364
-0.00316282
0.00745696
0.107515
0.107845
0.10885
0.10973
0.109549
0.106332
0.0960638
0.0715387
0.0246775
-0.0627166
-0.138692
-0.163177
-0.18571
-0.209444
-0.197784
-0.14744
-0.0873003
-0.0358159
0.00378383
0.0313708
0.0472907
0.0468007
0.0220464
-0.0220252
-0.0588718
-0.062798
-0.0421636
-0.0199179
-0.00566232
0.00188523
0.00472441
0.00341917
0.000337386
-3.01386e-05
0.00148581
-0.00173968
-0.0150689
-0.0355229
-0.051697
-0.0523391
-0.0375863
-0.0184735
-0.00471221
0.00131254
0.0016319
-0.000210117
-0.000944863
-0.000215202
-0.0014371
-0.00874223
-0.0224546
-0.0377462
-0.0469142
-0.044827
-0.032822
-0.0176942
-0.0058666
0.000210136
0.00177112
0.00165576
0.00191886
0.00167433
-0.00198423
-0.0111663
-0.0245999
-0.0376395
-0.0445507
-0.0421468
-0.031713
-0.0182775
-0.00688281
0.000108764
0.00323718
0.0043918
0.00486354
0.0037596
-0.00104819
-0.0108411
-0.0242671
-0.0374522
-0.0456658
-0.0457944
-0.0379477
-0.025518
-0.0130272
-0.00362283
0.00196128
0.00474623
0.00603045
0.00596264
0.00319316
-0.00378406
-0.0150251
-0.0283668
-0.0400634
-0.0463143
-0.0450526
-0.0367341
-0.0242713
-0.0114154
-0.000969532
0.00608879
0.00995137
0.0105973
0.00685354
-0.0024593
-0.0168867
-0.033642
-0.0486076
-0.0579744
-0.0595776
-0.0533635
-0.041364
-0.0269047
-0.0133198
-0.00293965
0.00299566
0.00388078
-0.000651936
-0.0105961
-0.0255372
-0.0445508
-0.0659338
-0.0869015
-0.103805
-0.113081
-0.112538
-0.102168
-0.0842864
-0.0627308
-0.0415603
-0.0238057
-0.0108467
-0.00262666
0.00163621
0.0028198
0.00160728
-0.00145596
-0.00584219
-0.0109745
-0.016202
-0.0208089
-0.0240828
-0.0254433
-0.0246251
-0.0217991
-0.0175708
-0.0127728
-0.0082104
-0.00440626
-0.0016
0.00033811
0.00140552
0.00207711
0.00181581
0.00217592
0.000453197
0.00265276
-0.00326373
0.00763964
0.111098
0.111754
0.113858
0.116447
0.118776
0.118951
0.112097
0.0894535
0.0351121
-0.0798631
-0.176012
-0.19808
-0.225828
-0.260787
-0.246131
-0.178149
-0.101116
-0.0398248
0.004591
0.0314841
0.0441231
0.0423141
0.0163839
-0.0317031
-0.080888
-0.0928011
-0.065938
-0.0342617
-0.0148834
-0.00601175
-0.00419804
-0.00776604
-0.0125756
-0.0130898
-0.0107719
-0.0137752
-0.0277801
-0.0494338
-0.0667936
-0.0674315
-0.0508305
-0.0289239
-0.0130639
-0.00632597
-0.00629651
-0.00863934
-0.00947621
-0.00845777
-0.00940457
-0.0167397
-0.0307857
-0.0465766
-0.0561307
-0.0538966
-0.0410758
-0.0248424
-0.0122097
-0.00587528
-0.00441868
-0.00465964
-0.00432945
-0.00437571
-0.00789542
-0.0171119
-0.0307279
-0.0439841
-0.0509914
-0.0484219
-0.0375586
-0.0236207
-0.0119023
-0.00485848
-0.00182626
-0.000725481
-0.000181092
-0.00115052
-0.0058684
-0.0156594
-0.0291415
-0.0423731
-0.05056
-0.0505581
-0.0424989
-0.0298567
-0.0172563
-0.00789745
-0.00245387
0.000226267
0.00153471
0.00158753
-0.00103103
-0.00788822
-0.0190395
-0.0322819
-0.0438222
-0.0498472
-0.0483338
-0.0398063
-0.0272419
-0.014404
-0.0040369
0.00299167
0.00693399
0.00769181
0.00397914
-0.00538684
-0.0197941
-0.0362745
-0.0506696
-0.0593185
-0.0603245
-0.053833
-0.0420079
-0.0281157
-0.0152592
-0.00551968
-2.64649e-05
0.000611267
-0.003948
-0.0136285
-0.0279766
-0.0461303
-0.0665441
-0.0866247
-0.102868
-0.111783
-0.111195
-0.101094
-0.0837537
-0.0628915
-0.042402
-0.0251703
-0.0125014
-0.0043525
-1.99916e-05
0.00129028
0.000218491
-0.00267996
-0.00686027
-0.0117434
-0.0166964
-0.0210349
-0.0240815
-0.0252847
-0.0243888
-0.0215663
-0.0174127
-0.0127435
-0.00833493
-0.00467297
-0.00196599
-8.60654e-05
0.000953493
0.00159402
0.00134785
0.0017041
0.00014651
0.00230265
-0.00319131
0.0072093
0.114427
0.115435
0.118723
0.123258
0.128585
0.133375
0.131766
0.115089
0.0513203
-0.110394
-0.225386
-0.226769
-0.258613
-0.319093
-0.310291
-0.220789
-0.120781
-0.0469819
0.00104131
0.0211927
0.0265675
0.021026
0.000524811
-0.0433818
-0.10006
-0.121522
-0.0923377
-0.0513262
-0.025915
-0.0154523
-0.0148893
-0.0208533
-0.0272385
-0.027525
-0.023959
-0.0260977
-0.0398494
-0.0617717
-0.0798496
-0.0807606
-0.0631459
-0.0392904
-0.0218932
-0.0147283
-0.0151078
-0.0180043
-0.0189215
-0.0174335
-0.017696
-0.0244519
-0.0381576
-0.0538877
-0.063571
-0.0613466
-0.0482151
-0.0314964
-0.0185875
-0.0123646
-0.0112466
-0.0117352
-0.0113272
-0.0109757
-0.0139532
-0.0226581
-0.035895
-0.0489313
-0.055841
-0.0532113
-0.0422945
-0.0283709
-0.0168371
-0.0101509
-0.00750229
-0.00661045
-0.00599166
-0.0066278
-0.0108637
-0.020134
-0.0331398
-0.0459891
-0.0539158
-0.0537935
-0.0457751
-0.0333488
-0.021132
-0.012274
-0.00732965
-0.00499096
-0.00375306
-0.00349968
-0.00569825
-0.0120091
-0.022571
-0.0352459
-0.0462838
-0.0519237
-0.0502175
-0.0417566
-0.0295346
-0.0172393
-0.00745434
-0.000856587
0.00292348
0.00376307
0.00032137
-0.00859844
-0.0223277
-0.0378702
-0.0511689
-0.0588217
-0.059261
-0.0528462
-0.0418025
-0.0291912
-0.017714
-0.00909244
-0.00429915
-0.00393857
-0.00833705
-0.0173879
-0.0306389
-0.0473154
-0.0660686
-0.0845844
-0.0996256
-0.107885
-0.107258
-0.0977298
-0.0814582
-0.0619398
-0.0427861
-0.0266328
-0.0146495
-0.0068015
-0.00248879
-0.00102803
-0.00184183
-0.00439268
-0.00815061
-0.0125621
-0.0170313
-0.0209211
-0.0236061
-0.0245789
-0.0236011
-0.0208415
-0.0168678
-0.0124536
-0.00832154
-0.00490584
-0.00237979
-0.000626252
0.000336537
0.00090487
0.000680895
0.00100757
-0.000281167
0.00170167
-0.00295223
0.00615803
0.117362
0.118723
0.123235
0.129809
0.138641
0.148865
0.155267
0.14739
0.0740615
-0.130612
-0.310489
-0.291257
-0.323827
-0.412366
-0.400262
-0.275797
-0.145
-0.0567976
-0.0095704
-0.0021897
-0.00349581
-0.0106939
-0.022341
-0.0602522
-0.11858
-0.147065
-0.118554
-0.0698671
-0.0383859
-0.0262539
-0.0270573
-0.0354646
-0.0432645
-0.0428864
-0.0374438
-0.037846
-0.0502972
-0.0714899
-0.0897098
-0.0911208
-0.0734439
-0.0487579
-0.0306444
-0.0235097
-0.0245247
-0.0280837
-0.0290577
-0.0268653
-0.0259612
-0.0314785
-0.0441469
-0.0592392
-0.0687659
-0.0666812
-0.0537543
-0.0372353
-0.0246729
-0.0190196
-0.0185388
-0.0194232
-0.0189149
-0.01793
-0.0199239
-0.0275475
-0.0398321
-0.0522057
-0.0588168
-0.0562268
-0.0456377
-0.0322726
-0.0214792
-0.0156137
-0.0136775
-0.0131657
-0.0124602
-0.0125373
-0.0158714
-0.0240841
-0.0360741
-0.0481113
-0.0555449
-0.0553123
-0.0475891
-0.0358152
-0.0244949
-0.0166224
-0.0125656
-0.0108231
-0.00975135
-0.00920243
-0.010692
-0.0160148
-0.0254806
-0.0371191
-0.0473132
-0.0524159
-0.0505833
-0.0424743
-0.0310529
-0.0198471
-0.0111771
-0.00544228
-0.00208479
-0.00118583
-0.0040854
-0.0120234
-0.0243984
-0.0383476
-0.0500515
-0.0564669
-0.0564095
-0.0504625
-0.0408245
-0.0301882
-0.0206972
-0.0136275
-0.0097651
-0.00970049
-0.013751
-0.0218211
-0.0335011
-0.0481249
-0.0645727
-0.0808868
-0.0942146
-0.101542
-0.100896
-0.0922383
-0.0775437
-0.0599832
-0.0427769
-0.0282193
-0.0172968
-0.00997975
-0.0057883
-0.0041614
-0.00459926
-0.0066125
-0.00972382
-0.0134366
-0.0172129
-0.0204789
-0.0226745
-0.0233494
-0.0222888
-0.019652
-0.01596
-0.0119201
-0.0081774
-0.00510254
-0.00283296
-0.00127062
-0.000430602
2.94635e-05
-0.000161538
0.000122627
-0.000803874
0.000899374
-0.00256634
0.00460215
0.119756
0.121458
0.127132
0.135803
0.148361
0.165541
0.183436
0.199295
0.111964
-0.124287
-0.358295
-0.309554
-0.353986
-0.511715
-0.526258
-0.359765
-0.181181
-0.0721992
-0.03021
-0.0352444
-0.0413736
-0.04277
-0.045133
-0.0761259
-0.131659
-0.164914
-0.140205
-0.0875337
-0.0513269
-0.0379068
-0.0402172
-0.0511152
-0.0601603
-0.0586062
-0.0505021
-0.04821
-0.0583638
-0.0779026
-0.0956597
-0.0976885
-0.0808515
-0.0565536
-0.0387082
-0.0322053
-0.0341866
-0.0385626
-0.0395602
-0.0363905
-0.0338157
-0.0374559
-0.048438
-0.0623544
-0.0714399
-0.0695897
-0.0573428
-0.041703
-0.0301424
-0.0255654
-0.0260578
-0.0274968
-0.026854
-0.0249865
-0.0255599
-0.0315591
-0.0423557
-0.053653
-0.0597741
-0.0573109
-0.0474066
-0.0351263
-0.0256294
-0.0210612
-0.0201777
-0.0202175
-0.0194045
-0.0186917
-0.0207129
-0.0273568
-0.037825
-0.0486501
-0.0553744
-0.0550414
-0.0478517
-0.0371429
-0.0272125
-0.0208006
-0.0180163
-0.0171209
-0.0163042
-0.0153613
-0.0158592
-0.0197719
-0.0276641
-0.0378288
-0.046864
-0.0512941
-0.049405
-0.0419243
-0.031745
-0.0221579
-0.0151241
-0.0106813
-0.00800734
-0.00707042
-0.00915739
-0.0155895
-0.0259649
-0.0377164
-0.0473877
-0.0523787
-0.0519307
-0.0468493
-0.0392015
-0.0311527
-0.0241685
-0.0190296
-0.0163138
-0.0165674
-0.0200923
-0.0268493
-0.0365245
-0.0485926
-0.0621877
-0.0757623
-0.0869424
-0.0931069
-0.0924669
-0.0849514
-0.0722816
-0.05721
-0.0424716
-0.0299497
-0.0204197
-0.0138581
-0.00990363
-0.0081081
-0.00805625
-0.00933935
-0.0115771
-0.0143671
-0.0172537
-0.019739
-0.0213367
-0.0216592
-0.020519
-0.0180602
-0.0147395
-0.0111749
-0.00791365
-0.00525647
-0.00330698
-0.00199192
-0.00131287
-0.000984165
-0.00112471
-0.000877033
-0.00136774
-1.13961e-05
-0.00206863
0.00274374
0.121471
0.123455
0.130153
0.140622
0.156999
0.180382
0.215376
0.221686
0.199996
-0.154751
-0.475923
-0.333323
-0.34122
-0.532069
-0.590581
-0.428746
-0.21803