/*--------------------------------*- C++ -*----------------------------------*\
  =========                 |
  \\      /  F ield         | OpenFOAM: The Open Source CFD Toolbox
   \\    /   O peration     | Website:  https://openfoam.org
    \\  /    A nd           | Version:  11
     \\/     M anipulation  |
\*---------------------------------------------------------------------------*/
FoamFile
{
    format      ascii;
    class       volScalarField;
    location    "14.103183";
    object      p;
}
// * * * * * * * * * * * * * * * * * * * * * * * * * * * * * * * * * * * * * //

dimensions      [0 2 -2 0 0 0 0];

internalField   nonuniform List<scalar> 
7132
(
0.0681571
0.0669088
0.06262
0.0564543
0.0479193
0.0369218
0.0235816
0.00825163
-0.00821663
-0.0243885
-0.0385832
-0.0487236
-0.0539421
-0.0539963
-0.0491674
-0.0408274
-0.0306155
-0.0200953
-0.0105409
-0.00277298
0.00292157
0.00691911
0.010082
0.0132179
0.0166501
0.0202509
0.0237444
0.0269297
0.0297797
0.0323692
0.0347405
0.0367314
0.0378517
0.037518
0.0356337
0.0329926
0.0308455
0.0299901
0.0303517
0.0313137
0.0322838
0.032976
0.0334279
0.0338485
0.0344233
0.0350221
0.0350299
0.0336756
0.0308306
0.0274839
0.0251268
0.024587
0.0255628
0.0270953
0.0283573
0.0290129
0.0291677
0.0291479
0.0292466
0.0293976
0.0290349
0.0274431
0.0245307
0.0212755
0.0191581
0.0190266
0.0205528
0.022642
0.0243013
0.0251179
0.0252209
0.0250121
0.0248573
0.0247475
0.0241867
0.0225386
0.019724
0.0166153
0.0145872
0.0145432
0.0163227
0.0188944
0.02112
0.0223718
0.0226606
0.0224006
0.0220512
0.0217264
0.0210332
0.0193532
0.0164955
0.0131466
0.0106108
0.00997686
0.0114506
0.0142916
0.0173261
0.0195754
0.0206238
0.0206327
0.0200976
0.0194544
0.0186877
0.0172786
0.0146414
0.0107845
0.00658359
0.00336301
0.00209636
0.00288465
0.0049957
0.00734566
0.00901628
0.00952455
0.00883501
0.0072032
0.00491704
0.00208343
-0.00135857
-0.00535835
-0.00945476
-0.0128024
-0.014571
-0.0144076
-0.0126074
-0.00994132
-0.00729981
-0.00540618
-0.00472883
-0.00553671
-0.0080063
-0.012257
-0.0182792
-0.0257602
-0.0339032
-0.0414146
-0.046762
-0.0486683
-0.046603
-0.0410067
-0.0331315
-0.0245439
-0.0165944
-0.0101009
-0.00531194
-0.00209119
-0.000120481
0.000867297
0.00111333
0.000629809
-0.000326102
-0.00196588
-0.00338937
-0.00555607
-0.00562447
-0.00807832
-0.00364081
-0.0098325
0.0060992
-0.0186864
0.0686615
0.0674196
0.0631537
0.0570041
0.0484652
0.0374163
0.023952
0.00839308
-0.00840322
-0.0249751
-0.0395551
-0.0499129
-0.055197
-0.0551586
-0.0500468
-0.0413271
-0.0307316
-0.0198978
-0.0101475
-0.00232269
0.00329236
0.00711971
0.0101067
0.0131283
0.0165208
0.0201321
0.0236605
0.0268899
0.0297875
0.0324256
0.0348431
0.036874
0.0380064
0.037623
0.0356157
0.0328194
0.0305591
0.0296727
0.0300714
0.0310966
0.0321286
0.0328723
0.0333654
0.0338182
0.0344184
0.0350352
0.0350344
0.033616
0.0306467
0.0271595
0.024717
0.0241804
0.0252329
0.0268652
0.0282142
0.0289324
0.0291263
0.0291262
0.0292305
0.0293712
0.0289692
0.0272944
0.0242617
0.0208864
0.0187023
0.0185845
0.0201954
0.0223987
0.0241622
0.0250529
0.0251972
0.0250036
0.0248467
0.0247144
0.0240966
0.022348
0.0194072
0.0161895
0.0141112
0.0140884
0.0159479
0.0186289
0.0209638
0.0223025
0.0226451
0.0224079
0.0220584
0.0217097
0.0209546
0.0191659
0.016171
0.0126999
0.0101021
0.00948442
0.0110366
0.0139862
0.0171293
0.0194714
0.0205903
0.0206438
0.0201277
0.0194779
0.018669
0.0171707
0.0144018
0.0104019
0.00609218
0.00283542
0.00161771
0.00252166
0.00478237
0.00727722
0.00906364
0.00964966
0.00899866
0.00736447
0.00502999
0.00209541
-0.0014939
-0.0056598
-0.00989669
-0.0133159
-0.015064
-0.014793
-0.0128255
-0.00996919
-0.0071515
-0.00512288
-0.00436735
-0.00515924
-0.0076767
-0.01204
-0.0182386
-0.0259495
-0.0343494
-0.0421026
-0.0476302
-0.049618
-0.0475216
-0.0417904
-0.0337124
-0.0248992
-0.016742
-0.0100843
-0.00518362
-0.00190097
8.9207e-05
0.00106279
0.00126937
0.000729092
-0.000295664
-0.00200564
-0.00350012
-0.0057173
-0.00583336
-0.00827957
-0.00386245
-0.00995455
0.00594562
-0.0186338
0.0696673
0.0684398
0.0642218
0.0581093
0.0495687
0.0384233
0.0247154
0.00869658
-0.00876544
-0.0261596
-0.041532
-0.0523262
-0.0577359
-0.0575004
-0.0517977
-0.0422944
-0.030914
-0.0194437
-0.00930304
-0.00137427
0.00406318
0.00752608
0.0101412
0.012924
0.0162365
0.0198717
0.0234722
0.0267906
0.0297832
0.032519
0.0350316
0.0371476
0.0383089
0.0378254
0.0355629
0.032442
0.0299452
0.0289993
0.029481
0.0306407
0.0317996
0.0326453
0.0332181
0.0337328
0.034384
0.0350379
0.03502
0.0334691
0.0302407
0.0264594
0.0238395
0.0233155
0.0245346
0.0263782
0.0279072
0.0287507
0.0290193
0.0290557
0.0291713
0.0292936
0.0288135
0.0269668
0.0236827
0.0200581
0.0177375
0.0176521
0.0194412
0.021882
0.0238599
0.0248995
0.0251224
0.0249544
0.0247921
0.0246179
0.0238895
0.0219418
0.0187494
0.015314
0.0131364
0.0131584
0.0151809
0.0180822
0.0206345
0.0221434
0.0225891
0.0223939
0.0220443
0.0216491
0.0207692
0.0187594
0.0154853
0.0117666
0.00904552
0.00846513
0.0101841
0.0133595
0.0167243
0.0192519
0.0205083
0.0206486
0.0201708
0.0195099
0.0186151
0.0169295
0.0138825
0.00958109
0.00504381
0.00171342
0.000600761
0.0017526
0.00432679
0.00712284
0.00914839
0.00989438
0.00932388
0.00768883
0.00525842
0.00211521
-0.0017848
-0.00630466
-0.0108422
-0.014415
-0.0161203
-0.0156206
-0.0132985
-0.010045
-0.00686367
-0.0045598
-0.00364642
-0.00440661
-0.00702142
-0.0116134
-0.0181712
-0.0263516
-0.0352764
-0.0435242
-0.0494207
-0.0515754
-0.0494147
-0.0434073
-0.0349127
-0.0256362
-0.0170534
-0.0100606
-0.00493312
-0.00152592
0.000502994
0.00144837
0.00157649
0.000923382
-0.000237844
-0.00208775
-0.00372284
-0.00604168
-0.00624977
-0.00868484
-0.00429885
-0.010207
0.0056608
-0.018544
0.0711694
0.0699655
0.0658268
0.059781
0.051252
0.0399768
0.0259143
0.00919917
-0.00928886
-0.0279801
-0.0446075
-0.0560792
-0.0616996
-0.0611809
-0.0545567
-0.0438223
-0.0312118
-0.0187491
-0.00799501
9.51487e-05
0.00524303
0.00811405
0.010133
0.0125468
0.0157516
0.0194397
0.0231591
0.026614
0.029748
0.0326288
0.035284
0.0375309
0.0387375
0.0380916
0.0354135
0.0317672
0.0289036
0.0278793
0.0285181
0.029906
0.0312676
0.0322681
0.0329564
0.0335589
0.0342818
0.0349858
0.0349302
0.0331547
0.0294989
0.0252397
0.0223436
0.0218684
0.0233829
0.0255828
0.0274027
0.0284379
0.0288121
0.028892
0.0290138
0.0291027
0.0285016
0.0263918
0.0227205
0.0187086
0.0161738
0.0161404
0.0182181
0.02104
0.0233562
0.0246227
0.0249573
0.0248199
0.024647
0.0244107
0.0235129
0.0212544
0.017668
0.0138959
0.0115744
0.0116832
0.0139738
0.0172213
0.0201044
0.0218654
0.022461
0.0223284
0.0219827
0.0215166
0.0204343
0.0180627
0.0143349
0.0102203
0.00731139
0.00680804
0.00881354
0.0123615
0.0160809
0.0188939
0.0203554
0.0206259
0.0202112
0.0195377
0.0185031
0.0165057
0.0129989
0.00820699
0.00330758
-0.000130639
-0.00106245
0.000496906
0.00357691
0.00685269
0.0092543
0.0102498
0.00980674
0.00817564
0.00559687
0.00211756
-0.00229039
-0.00738864
-0.0124119
-0.0162246
-0.0178484
-0.0169698
-0.0140733
-0.0101875
-0.00643717
-0.00371063
-0.00256041
-0.00327804
-0.00604799
-0.0109977
-0.0181174
-0.0270321
-0.0367775
-0.0457967
-0.0522663
-0.0546749
-0.0524047
-0.0459582
-0.0368061
-0.0268024
-0.0175555
-0.0100435
-0.00456766
-0.000970639
0.00111705
0.00202047
0.00203089
0.00120851
-0.000157876
-0.0022186
-0.00406548
-0.00653699
-0.00688299
-0.00929888
-0.00496113
-0.0105836
0.0052152
-0.0183794
0.0731583
0.0719904
0.0679712
0.0620351
0.0535493
0.0421314
0.027619
0.00996711
-0.00993756
-0.0304784
-0.0488949
-0.0612793
-0.0671655
-0.0662355
-0.0582788
-0.0457951
-0.031462
-0.0176267
-0.00605287
0.00221745
0.00689805
0.00886847
0.0100036
0.0118954
0.0149744
0.0187628
0.0226619
0.0263085
0.0296328
0.0327066
0.035553
0.0379825
0.0392545
0.0383681
0.03507
0.0306429
0.027245
0.0261521
0.0270679
0.0288174
0.0304783
0.0316905
0.0325247
0.0332293
0.0340275
0.0347801
0.0346601
0.0325607
0.0282857
0.023325
0.0200243
0.0196436
0.0216305
0.0243838
0.0266376
0.0279383
0.0284367
0.0285461
0.0286528
0.02869
0.0279293
0.0254684
0.021274
0.0167362
0.0139095
0.0139507
0.0164352
0.019796
0.0225874
0.0241624
0.0246368
0.0245313
0.0243478
0.0240344
0.0228976
0.0201847
0.0160221
0.0117699
0.0092673
0.00953992
0.0122424
0.0159893
0.0193281
0.0214242
0.0222163
0.0221716
0.0218419
0.0212772
0.0198919
0.0169798
0.0125864
0.007903
0.00473622
0.00436317
0.00680399
0.0109073
0.0151434
0.0183582
0.0200993
0.020549
0.0202299
0.0195441
0.0183017
0.0158392
0.0116598
0.00616663
0.000762561
-0.00281504
-0.00348101
-0.001339
0.00246124
0.00641805
0.00935158
0.0107002
0.010442
0.0088252
0.00603622
0.00206603
-0.00308542
-0.00901927
-0.0147272
-0.0188597
-0.0203433
-0.0189123
-0.0152017
-0.0104339
-0.00590208
-0.00260469
-0.00114097
-0.00180849
-0.00479591
-0.010243
-0.0181445
-0.0280792
-0.0389587
-0.049037
-0.056287
-0.0590329
-0.0565992
-0.0495376
-0.0394696
-0.0284547
-0.0182874
-0.0100596
-0.00410692
-0.000252491
0.00191428
0.00276207
0.00261733
0.00157118
-6.74417e-05
-0.00240886
-0.00453732
-0.00721139
-0.00773886
-0.0101263
-0.00585368
-0.011084
0.00458689
-0.0181019
0.0756204
0.0745039
0.0706564
0.0648911
0.0565051
0.0449606
0.0299263
0.0110918
-0.0106674
-0.0337435
-0.0546187
-0.0682014
-0.0744883
-0.0730761
-0.0633053
-0.0484274
-0.0317626
-0.0160939
-0.00342688
0.00506233
0.00905704
0.00972524
0.00960738
0.010806
0.0137772
0.0177577
0.0219234
0.0258232
0.029381
0.0326857
0.0357646
0.0384282
0.0397779
0.0385382
0.0343388
0.0287893
0.0246944
0.0235688
0.0249626
0.0272709
0.0293577
0.0308433
0.0318391
0.0326235
0.033446
0.0342066
0.0340007
0.0315327
0.0265071
0.0206217
0.0167289
0.0164359
0.019095
0.0226527
0.0255235
0.0271717
0.0277946
0.0278957
0.0279613
0.0279376
0.0269759
0.0240405
0.0191366
0.0139145
0.0107509
0.0109477
0.0139948
0.0180708
0.0214809
0.023445
0.0240851
0.0240189
0.0238366
0.0234287
0.0219553
0.0185973
0.0136324
0.00873329
0.00601914
0.00656687
0.00987355
0.0143126
0.0182505
0.0207684
0.0218067
0.0218851
0.0215895
0.0208874
0.0190687
0.0154046
0.0101134
0.00468332
0.00119089
0.00100725
0.00404606
0.0089108
0.0138487
0.017596
0.0196986
0.0203826
0.0201974
0.0194946
0.0179593
0.0148577
0.00978294
0.00338453
-0.00265103
-0.00638702
-0.00669883
-0.00380062
0.000934774
0.0057786
0.0094073
0.0112208
0.0112111
0.00961788
0.00653892
0.00189126
-0.00426753
-0.0113
-0.0178708
-0.0223685
-0.0236236
-0.0214528
-0.0166909
-0.0108053
-0.00529803
-0.00129866
0.000543193
-7.25436e-05
-0.00334523
-0.00943783
-0.0183479
-0.0295838
-0.0418897
-0.0532818
-0.0614879
-0.0646388
-0.0619887
-0.0541467
-0.0429172
-0.0306169
-0.0192779
-0.01014
-0.00358357
0.000595286
0.00286243
0.00364401
0.00331062
0.0019903
1.6191e-05
-0.00267178
-0.00514671
-0.00806772
-0.00881562
-0.0111607
-0.00697364
-0.0116959
0.00374819
-0.0176607
0.0785355
0.0774905
0.0738812
0.0683712
0.0601752
0.0485623
0.0329721
0.0127135
-0.0113897
-0.0378601
-0.0620085
-0.0770176
-0.0837463
-0.08171
-0.0695164
-0.0515034
-0.0318405
-0.0138536
0.000147212
0.00882968
0.0117943
0.0105946
0.00873971
0.00905398
0.0119784
0.0162899
0.0208361
0.0250581
0.0288869
0.0324481
0.0357925
0.0387324
0.0401503
0.0383738
0.0328736
0.0257331
0.0206999
0.0197278
0.0219445
0.0251145
0.0278022
0.0296274
0.030768
0.0315393
0.0322591
0.0329565
0.0326555
0.0298153
0.023963
0.0169839
0.0123285
0.0120956
0.0156068
0.0202407
0.0239417
0.0260254
0.0267579
0.0268071
0.0268262
0.0267495
0.025524
0.0219257
0.0160553
0.00995841
0.00644168
0.00694495
0.010776
0.0157759
0.0199534
0.0223842
0.0232196
0.0232139
0.0230545
0.0225233
0.0205858
0.0163675
0.0103689
0.00466161
0.00170765
0.00264621
0.00676779
0.0121147
0.0168085
0.019839
0.0211777
0.0214218
0.0211794
0.0202877
0.0178889
0.0132596
0.00685671
0.00052787
-0.00334472
-0.00328622
0.000497544
0.00631899
0.0121416
0.0165544
0.0191034
0.02008
0.0200667
0.0193334
0.0174107
0.0134996
0.00733268
-0.000134214
-0.00689034
-0.0107861
-0.0106636
-0.00686248
-0.00100782
0.00490691
0.00938461
0.011775
0.0120806
0.0105144
0.00704559
0.00151263
-0.00591493
-0.0142708
-0.0218227
-0.0266778
-0.0275927
-0.024508
-0.0185003
-0.0113161
-0.00469235
0.000100472
0.00236324
0.00179267
-0.00183438
-0.00871095
-0.0188222
-0.0315715
-0.0454991
-0.0583594
-0.0676241
-0.0712258
-0.068334
-0.0596053
-0.0470405
-0.0332451
-0.0205308
-0.0103185
-0.00304758
0.00151616
0.00390554
0.00461592
0.00406808
0.00243186
6.9241e-05
-0.00301874
-0.00589033
-0.00908884
-0.0100854
-0.0123698
-0.00829297
-0.0123916
0.00268724
-0.0170072
0.0818757
0.0809273
0.0776392
0.0724967
0.0646228
0.0530554
0.0369281
0.0150155
-0.0119984
-0.0430152
-0.0715252
-0.0882879
-0.0957265
-0.093056
-0.0776102
-0.0553981
-0.0318237
-0.0108875
0.00479312
0.0136615
0.0151493
0.011304
0.00703923
0.006247
0.00928867
0.0141823
0.0192819
0.0239041
0.0280208
0.0318275
0.035407
0.0385757
0.0400192
0.0375505
0.0303242
0.0210002
0.014683
0.0140773
0.0176505
0.0221439
0.0256805
0.0279127
0.0291262
0.0297166
0.0301816
0.0307781
0.030396
0.0271019
0.0202145
0.0119566
0.00649681
0.00644519
0.0110269
0.0170124
0.0217606
0.0243665
0.0251923
0.0251636
0.0251574
0.0250345
0.0234465
0.0189636
0.0118661
0.00471215
0.000828989
0.00180045
0.00667251
0.0128299
0.0179259
0.0208961
0.0219621
0.0220516
0.0219376
0.0212395
0.0187006
0.0134249
0.0062053
-0.000430948
-0.00364605
-0.00222407
0.00289507
0.00934893
0.0149475
0.018577
0.0202698
0.0207226
0.0205458
0.0194049
0.0162875
0.0105171
0.00284678
-0.00447899
-0.00876078
-0.00841979
-0.00378485
0.00314134
0.00999575
0.0151865
0.0182568
0.019578
0.0197671
0.0189803
0.0165806
0.0117238
0.00432975
-0.00429779
-0.0118076
-0.0158418
-0.0152203
-0.0104156
-0.00331664
0.00380063
0.00924684
0.0123099
0.0129898
0.0114411
0.00746645
0.000845196
-0.00806252
-0.0178754
-0.0264295
-0.0315704
-0.0320265
-0.0278979
-0.0205295
-0.0119597
-0.00416455
0.00144944
0.00413965
0.00359243
-0.000453235
-0.0082118
-0.0196245
-0.0339576
-0.04954
-0.0638797
-0.0742126
-0.0782843
-0.0751662
-0.0655381
-0.0515858
-0.0362054
-0.0220082
-0.0106222
-0.00256317
0.00243045
0.00496319
0.00560522
0.00482849
0.00284933
6.46443e-05
-0.00345206
-0.0067429
-0.0102251
-0.011482
-0.0136838
-0.00974863
-0.0131189
0.00141864
-0.0161029
0.0856033
0.0847819
0.0819163
0.0772867
0.0699196
0.0585904
0.0420277
0.0182772
-0.012285
-0.0493718
-0.0835968
-0.102169
-0.110311
-0.106965
-0.0873498
-0.0598212
-0.031386
-0.00685623
0.010806
0.0197668
0.019109
0.0115207
0.00398278
0.00189881
0.00537158
0.0112143
0.0170874
0.0221885
0.0265824
0.0305466
0.0341195
0.0372255
0.0386241
0.0356596
0.0268278
0.0148691
0.00653416
0.00611416
0.0116212
0.018081
0.0228229
0.0255346
0.0266938
0.0269064
0.0270301
0.0275572
0.0270904
0.0231388
0.0148836
0.00512484
-0.00110555
-0.000728736
0.00523273
0.0128575
0.0188537
0.0220587
0.0229744
0.0228712
0.0228747
0.022699
0.02064
0.0150884
0.00658519
-0.00174341
-0.00601156
-0.00446156
0.00166371
0.00918759
0.0153345
0.0189055
0.020238
0.0204604
0.020408
0.019496
0.0162451
0.00978222
0.00124036
-0.00637873
-0.00986105
-0.00790222
-0.0016725
0.00602347
0.012634
0.0169265
0.0190149
0.0197091
0.0196001
0.0181567
0.0142237
0.00721374
-0.00178883
-0.0101357
-0.0148229
-0.0141757
-0.0086425
-0.000541141
0.00742311
0.013457
0.0170957
0.0187956
0.0192029
0.0183366
0.0153973
0.00952381
0.000859526
-0.00892977
-0.0171621
-0.0212914
-0.0201293
-0.0142821
-0.00589543
0.00247746
0.00895348
0.0127511
0.0138455
0.0122885
0.00769377
-0.000171675
-0.0106662
-0.0219353
-0.0313985
-0.036699
-0.0365991
-0.0313699
-0.0226386
-0.0127216
-0.00381226
0.00256866
0.00564443
0.00507974
0.000574456
-0.00808027
-0.0207472
-0.0365502
-0.0536422
-0.0693338
-0.080658
-0.0851872
-0.0818887
-0.0714436
-0.0561909
-0.039287
-0.023632
-0.0110701
-0.00220708
0.00323559
0.00592882
0.00651362
0.00550889
0.00318281
-2.52222e-05
-0.00396009
-0.00765244
-0.0113918
-0.0129
-0.014994
-0.0112403
-0.0138019
-7.94026e-06
-0.0149287
0.0896685
0.0890096
0.0866858
0.0827491
0.076135
0.0653336
0.048547
0.0228525
-0.0120176
-0.0573444
-0.0991612
-0.119855
-0.129336
-0.125464
-0.100056
-0.065325
-0.030631
-0.00165022
0.0183921
0.0273364
0.0236403
0.0107816
-0.00128972
-0.00489441
-0.000388911
0.00704829
0.0140447
0.0197238
0.0243372
0.0281768
0.0311209
0.0336023
0.0347867
0.0317243
0.0219687
0.00751027
-0.00343583
-0.00419044
0.00354376
0.0126311
0.0190208
0.022303
0.0232646
0.0229416
0.0227207
0.0232333
0.0226293
0.0178108
0.00795255
-0.00345034
-0.0104363
-0.00944677
-0.00180734
0.00772206
0.0151282
0.0189902
0.0200059
0.0198525
0.0198976
0.0196568
0.0170552
0.0103539
0.000399465
-0.0091222
-0.0137827
-0.0116175
-0.00413678
0.00487416
0.0121508
0.016356
0.0179784
0.018361
0.0183768
0.0172204
0.0132097
0.00553401
-0.00431973
-0.0128946
-0.0166265
-0.0141219
-0.006761
0.00221288
0.00986734
0.0148409
0.0173382
0.0182854
0.0182379
0.0164637
0.0116889
0.00344692
-0.00684221
-0.016151
-0.0212034
-0.0202445
-0.0138336
-0.00458216
0.00447637
0.0113468
0.0155533
0.0176346
0.0182565
0.0172933
0.0138004
0.00692942
-0.00293854
-0.0137916
-0.0226498
-0.0268107
-0.0250945
-0.0182359
-0.00861372
0.000969774
0.00845695
0.0129977
0.0145152
0.0129104
0.00761137
-0.00155937
-0.0135981
-0.0261672
-0.0363378
-0.0416373
-0.0409164
-0.0346318
-0.0246677
-0.0135829
-0.00374145
0.0032604
0.00662587
0.00598852
0.00103077
-0.00841913
-0.0221301
-0.0391178
-0.0574275
-0.0742327
-0.0863976
-0.0913343
-0.0879085
-0.0767973
-0.0604531
-0.0422384
-0.0252976
-0.0116723
-0.00206279
0.00381284
0.00667526
0.00722222
0.00600908
0.00336408
-0.000225114
-0.00451924
-0.00855034
-0.0124865
-0.0142155
-0.0161737
-0.0126455
-0.0143514
-0.00151226
-0.0134909
0.094007
0.0935517
0.0919052
0.0888808
0.0833379
0.0734913
0.0568654
0.0293031
-0.0107091
-0.067287
-0.119034
-0.141036
-0.151767
-0.147983
-0.115456
-0.0717475
-0.0294065
0.00484024
0.027656
0.0363625
0.0283201
0.00795516
-0.0102371
-0.0152593
-0.00862905
0.00134309
0.0099109
0.016277
0.0209628
0.0241344
0.0256032
0.0269779
0.0279851
0.025105
0.0145309
-0.00227645
-0.0157136
-0.0167671
-0.00664022
0.00560269
0.0140718
0.0180312
0.0186859
0.0177466
0.0172279
0.0177783
0.0169898
0.0112175
-0.000254553
-0.0132744
-0.0210151
-0.0193767
-0.00992857
0.00165369
0.0105536
0.0150941
0.0162194
0.0160406
0.0161486
0.0158451
0.0127105
0.00491953
-0.00637996
-0.0170025
-0.022034
-0.019286
-0.0104841
8.70736e-07
0.0083946
0.0132159
0.0151207
0.0156679
0.0157532
0.0143594
0.00963294
0.000844874
-0.0101881
-0.019607
-0.0235462
-0.0205282
-0.0121151
-0.00194649
0.00668295
0.0122862
0.0151603
0.0163437
0.0163483
0.0142589
0.00870942
-0.00063523
-0.0120487
-0.0221765
-0.0275181
-0.0262604
-0.0190618
-0.00878732
0.00124247
0.00885309
0.0135624
0.0159859
0.0168002
0.0157431
0.01175
0.00400522
-0.00688515
-0.0186077
-0.027935
-0.0320495
-0.0297962
-0.0220302
-0.0113262
-0.000686399
0.00769834
0.0129227
0.014832
0.0131383
0.00711516
-0.00328761
-0.0166587
-0.0302247
-0.0408161
-0.0459438
-0.0445911
-0.0373988
-0.0264673
-0.0145357
-0.00406691
0.00332251
0.00683473
0.00607395
0.000737424
-0.00928946
-0.023698
-0.0414571
-0.0605802
-0.0781658
-0.090947
-0.0961992
-0.0926964
-0.0811176
-0.0639887
-0.0448091
-0.0268939
-0.0124352
-0.00221588
0.00403505
0.007062
0.00759572
0.00621874
0.00332208
-0.000557752
-0.00510435
-0.00937068
-0.0134139
-0.0153127
-0.0171018
-0.0138411
-0.0146807
-0.00299637
-0.0118233
0.0985384
0.0983297
0.0975087
0.0956452
0.0915689
0.083249
0.067385
0.0383043
-0.00793005
-0.0801603
-0.14516
-0.168745
-0.182257
-0.178938
-0.135839
-0.0797481
-0.0277462
0.0127604
0.0388102
0.0466189
0.0321574
0.0011551
-0.0255259
-0.0313961
-0.0206503
-0.0064863
0.00440563
0.011623
0.0160985
0.0178451
0.0172161
0.0174817
0.0186366
0.0159223
0.00409696
-0.0150804
-0.0305926
-0.0315376
-0.0187829
-0.0030266
0.00784495
0.0125782
0.0128766
0.0113087
0.0105534
0.0111994
0.0102578
0.00364083
-0.00921731
-0.0236426
-0.0320957
-0.0299005
-0.0187459
-0.00516467
0.00518621
0.0103652
0.0115839
0.0113841
0.0115662
0.0112402
0.00768867
-0.000979727
-0.0133692
-0.0248933
-0.0302365
-0.0269918
-0.0170343
-0.00523964
0.00414012
0.0094843
0.0116151
0.012301
0.0124586
0.0108892
0.00559727
-0.00407197
-0.0160325
-0.0261041
-0.0301819
-0.0267225
-0.0174297
-0.00627164
0.00314989
0.00924545
0.0124054
0.0137763
0.0138296
0.0114979
0.00534414
-0.00485165
-0.0171173
-0.0278451
-0.0333697
-0.0318424
-0.024009
-0.0129364
-0.00216743
0.00598923
0.0110618
0.0137406
0.0147105
0.013593
0.00923032
0.000842177
-0.0107817
-0.0230939
-0.0326831
-0.0366629
-0.0339212
-0.025422
-0.0138896
-0.00245956
0.00660707
0.0123788
0.0146079
0.0128009
0.00612712
-0.00528181
-0.0196131
-0.0337554
-0.0444271
-0.0492194
-0.0472824
-0.0394292
-0.0279199
-0.0155887
-0.00490137
0.00257292
0.00606009
0.0051512
-0.000423517
-0.0107216
-0.0253933
-0.0434238
-0.0628637
-0.0808018
-0.0938972
-0.0993284
-0.0958051
-0.0839998
-0.0664736
-0.0467838
-0.0283235
-0.0133654
-0.00274788
0.00377789
0.00694875
0.00749964
0.00603054
0.00298971
-0.00104643
-0.0057
-0.0100665
-0.0141036
-0.0161014
-0.0176863
-0.0147212
-0.0147195
-0.00435992
-0.00998439
0.103165
0.103248
0.103403
0.102983
0.100845
0.0948532
0.0806933
0.051065
-0.00248395
-0.0971384
-0.179193
-0.199924
-0.216631
-0.217179
-0.161591
-0.0899777
-0.0262486
0.0214886
0.0507518
0.0568393
0.0329362
-0.0133126
-0.0509121
-0.0561251
-0.0377952
-0.0169394
-0.00270266
0.00552918
0.00939193
0.00899377
0.00604176
0.00548343
0.00716418
0.00458631
-0.0085266
-0.0297891
-0.0470301
-0.0477664
-0.0323701
-0.0130298
0.00035892
0.00590526
0.0058396
0.00366355
0.00272719
0.0035528
0.00261591
-0.00452962
-0.0183398
-0.0337978
-0.042846
-0.0402633
-0.0277167
-0.0124195
-0.000822047
0.00486541
0.00610955
0.00585857
0.00612222
0.00586837
0.0021297
-0.00706227
-0.020156
-0.032289
-0.0378471
-0.0342283
-0.0233906
-0.0105946
-0.000487781
0.00519427
0.00743335
0.00819964
0.00844198
0.00682256
0.00122185
-0.00897738
-0.0215102
-0.0319757
-0.0361063
-0.0323036
-0.0223846
-0.0105537
-0.00063565
0.0057224
0.00901323
0.0104918
0.0106041
0.00816681
0.00167925
-0.00900685
-0.0217592
-0.0328053
-0.0383802
-0.0366275
-0.0283665
-0.0168055
-0.00562921
0.0027846
0.00800531
0.0108055
0.0118848
0.010778
0.0062534
-0.00245135
-0.0144287
-0.0269818
-0.0365871
-0.0403396
-0.0371883
-0.0281942
-0.016178
-0.00432818
0.00510582
0.0112129
0.0136566
0.0117482
0.00460512
-0.00743911
-0.022231
-0.0364508
-0.0468365
-0.05115
-0.0487324
-0.040552
-0.0289583
-0.0167716
-0.00634441
0.000875433
0.00416348
0.00311546
-0.0025102
-0.012728
-0.0271848
-0.0449295
-0.0641106
-0.0818868
-0.0949246
-0.100369
-0.0968883
-0.0851401
-0.0676699
-0.048006
-0.0295173
-0.0144738
-0.00373064
0.00293152
0.00621032
0.00681584
0.00535126
0.00230787
-0.00171715
-0.00630499
-0.0106132
-0.014512
-0.016519
-0.0178524
-0.0152048
-0.0144205
-0.00551261
-0.00805112
0.107769
0.108183
0.109459
0.110753
0.111099
0.108357
0.0972674
0.0686735
0.00590367
-0.119373
-0.225807
-0.244651
-0.26681
-0.271645
-0.196125
-0.103026
-0.0250067
0.030728
0.0615388
0.0655815
0.0348708
-0.0266358
-0.0818234
-0.0906793
-0.0622766
-0.030976
-0.0116583
-0.00213385
0.000675243
-0.00236962
-0.00759843
-0.00858502
-0.00597478
-0.00818014
-0.0220362
-0.0446741
-0.0632858
-0.0640192
-0.0464549
-0.0238976
-0.00816851
-0.00188294
-0.00232875
-0.00510151
-0.00617434
-0.00503846
-0.00567567
-0.0128543
-0.0270234
-0.0430187
-0.0524753
-0.0497005
-0.0362229
-0.0196994
-0.00723094
-0.00127504
-0.000144615
-0.000516916
-0.000159727
-0.000186812
-0.00378044
-0.0130279
-0.0263403
-0.0387184
-0.0443625
-0.0405126
-0.0291503
-0.01578
-0.00532401
0.000416275
0.00258108
0.00334036
0.00369596
0.00221404
-0.00334687
-0.0136291
-0.0262999
-0.0368505
-0.0409265
-0.0369075
-0.0266762
-0.0145789
-0.0045579
0.00174698
0.0049529
0.00643457
0.00663442
0.00428813
-0.00217845
-0.0129088
-0.025713
-0.0367508
-0.0422251
-0.0403031
-0.0318624
-0.0201877
-0.00901593
-0.000714281
0.00437307
0.00712094
0.00826072
0.00727202
0.00285948
-0.00575923
-0.0176428
-0.0300395
-0.0393908
-0.0428247
-0.0393696
-0.0301715
-0.0180916
-0.00628067
0.00312097
0.00928634
0.0118189
0.00986972
0.00254187
-0.00965148
-0.0243213
-0.0380817
-0.0478129
-0.0515318
-0.0487873
-0.0406836
-0.0295727
-0.0181276
-0.00846283
-0.00183596
0.00109741
-5.80495e-05
-0.00552858
-0.0153052
-0.0290574
-0.0459293
-0.0642252
-0.0812662
-0.0938283
-0.0990995
-0.0957372
-0.0843633
-0.0674465
-0.0483932
-0.0304432
-0.0157763
-0.00521957
0.00141277
0.00475105
0.00545427
0.00410954
0.00122884
-0.00259633
-0.00692838
-0.0110038
-0.014618
-0.0165297
-0.0175658
-0.0152403
-0.0137638
-0.00638347
-0.00610975
0.112218
0.112997
0.115504
0.118794
0.122178
0.124013
0.117933
0.0945697
0.0203985
-0.156644
-0.28429
-0.285088
-0.320437
-0.342137
-0.243255
-0.12217
-0.0260113
0.0347358
0.0600008
0.062498
0.0290657
-0.0332059
-0.102088
-0.125088
-0.0916653
-0.0486357
-0.0226315
-0.0114292
-0.0100188
-0.0159747
-0.0233093
-0.0242519
-0.020202
-0.0214302
-0.0350902
-0.058117
-0.0776097
-0.0786541
-0.0598108
-0.0348747
-0.0173158
-0.0105266
-0.0114347
-0.0148341
-0.0160063
-0.0143709
-0.0142931
-0.0208847
-0.0347241
-0.0506862
-0.0603019
-0.0575249
-0.043661
-0.0265504
-0.0137352
-0.00786361
-0.00706284
-0.00766312
-0.00718979
-0.00678116
-0.00982112
-0.0185818
-0.0315672
-0.0437844
-0.0493637
-0.045433
-0.0339474
-0.0205109
-0.010177
-0.00474047
-0.00288939
-0.00224604
-0.00173075
-0.00283722
-0.00794446
-0.0178014
-0.0301292
-0.040428
-0.0443377
-0.040238
-0.0300458
-0.0181479
-0.00848844
-0.00261928
0.000238731
0.00160239
0.00193765
-7.47535e-05
-0.0061077
-0.016383
-0.0287643
-0.0394432
-0.0446605
-0.0426317
-0.034282
-0.0229083
-0.0122054
-0.00444143
0.000183348
0.00267803
0.00383128
0.00309798
-0.000882666
-0.00896513
-0.0202689
-0.0320874
-0.0409061
-0.043937
-0.0403054
-0.0312325
-0.0195621
-0.00831033
0.000598114
0.0064988
0.00898677
0.00710587
-4.09444e-05
-0.0118248
-0.0257548
-0.038517
-0.0472444
-0.0502866
-0.0474133
-0.0398371
-0.0298062
-0.0196983
-0.0112741
-0.0055505
-0.00310689
-0.00433027
-0.00944153
-0.0184273
-0.0309975
-0.046414
-0.0631919
-0.0789109
-0.0905665
-0.095475
-0.0923129
-0.0816442
-0.0657911
-0.0479428
-0.0311077
-0.01729
-0.00724641
-0.000825793
0.00251295
0.00335773
0.00225804
-0.000281236
-0.00370546
-0.00758185
-0.0112412
-0.014419
-0.0161242
-0.0168187
-0.0148097
-0.012758
-0.00692767
-0.00424544
0.116366
0.117519
0.121329
0.126756
0.13378
0.141114
0.143046
0.127562
0.0413302
-0.184274
-0.386979
-0.361319
-0.40438
-0.444918
-0.306536
-0.146814
-0.0301265
0.0276352
0.0386927
0.0320167
0.00559625
-0.0449901
-0.118135
-0.154239
-0.121708
-0.0685214
-0.0352773
-0.0221878
-0.0224086
-0.0314012
-0.0406584
-0.0410044
-0.0348168
-0.034172
-0.0465287
-0.0688644
-0.0886198
-0.0902559
-0.0712045
-0.0450778
-0.0265038
-0.01963
-0.0211884
-0.0252994
-0.0265332
-0.0241518
-0.0228627
-0.0281912
-0.0409878
-0.056328
-0.0658223
-0.0632032
-0.0495117
-0.0325296
-0.0199956
-0.0146549
-0.014466
-0.0154271
-0.0148017
-0.0137103
-0.0157486
-0.0234542
-0.0355535
-0.047195
-0.0525494
-0.0486826
-0.0374862
-0.0245282
-0.0148426
-0.0101276
-0.00886826
-0.0084609
-0.00772416
-0.00818726
-0.0123972
-0.0213005
-0.0327941
-0.0425001
-0.0461295
-0.0420894
-0.0322988
-0.0210899
-0.0122919
-0.00727825
-0.00505715
-0.00393845
-0.00340545
-0.00481574
-0.00997817
-0.0192833
-0.03076
-0.0407288
-0.0455341
-0.0434648
-0.035483
-0.0248362
-0.0150855
-0.00830859
-0.00449728
-0.00246605
-0.00134192
-0.00166681
-0.00487673
-0.0119587
-0.0221905
-0.0330104
-0.0410255
-0.0435809
-0.0399152
-0.0313155
-0.0205518
-0.0104067
-0.00248108
0.00280984
0.0051214
0.0034523
-0.00310174
-0.0138924
-0.0264743
-0.0377329
-0.0451492
-0.0474685
-0.0446992
-0.038115
-0.0297363
-0.0215035
-0.0147378
-0.0101911
-0.00836151
-0.00961665
-0.0141753
-0.0220408
-0.032984
-0.0464063
-0.0610796
-0.0749277
-0.0852705
-0.0896355
-0.0867575
-0.077114
-0.0628106
-0.0467282
-0.031549
-0.0190267
-0.00981305
-0.00379227
-0.00052356
0.000500819
-0.000226598
-0.00223947
-0.00505544
-0.00827353
-0.0113349
-0.0139305
-0.0153223
-0.0156387
-0.0139328
-0.0114402
-0.00713089
-0.00253078
0.120056
0.12158
0.126663
0.134347
0.145323
0.159918
0.17355
0.182333
0.0829214
-0.17718
-0.446141
-0.396659
-0.500185
-0.588449
-0.404541
-0.184264
-0.0430387
-0.00123397
0.000793016
-0.0158856
-0.0257386
-0.0626317
-0.131043
-0.175249
-0.148113
-0.0884981
-0.0488162
-0.0340047
-0.0360167
-0.0481117
-0.0590796
-0.0581966
-0.0489987
-0.0454603
-0.0554454
-0.0760846
-0.0954413
-0.097831
-0.0796131
-0.0536387
-0.0350737
-0.0287003
-0.0312106
-0.036168
-0.0374163
-0.0340004
-0.0309769
-0.0343865
-0.0454773
-0.0596471
-0.0687381
-0.0663958
-0.0533943
-0.0372557
-0.0256718
-0.0213637
-0.0221097
-0.0235755
-0.0227501
-0.0207148
-0.0213072
-0.0274158
-0.0381047
-0.0487809
-0.0537551
-0.0500815
-0.0395646
-0.0276191
-0.0191168
-0.0155595
-0.0151826
-0.015131
-0.0141022
-0.0136502
-0.0165298
-0.0239751
-0.0341714
-0.0429651
-0.0462082
-0.0423606
-0.0333179
-0.0232729
-0.0158301
-0.0120926
-0.0107978
-0.0100468
-0.00924661
-0.00978688
-0.0136549
-0.0214987
-0.0316161
-0.0405465
-0.0447966
-0.0427528
-0.0354031
-0.0258897
-0.0175567
-0.0122042
-0.00954872
-0.00818507
-0.00712654
-0.00689001
-0.00900105
-0.0146397
-0.0233352
-0.0327644
-0.0397297
-0.0417531
-0.0382016
-0.0304198
-0.0210494
-0.0125447
-0.00608348
-0.00174515
0.000262944
-0.00104055
-0.00658534
-0.0158195
-0.0264952
-0.0358112
-0.0416729
-0.0432631
-0.0408466
-0.035686
-0.0294479
-0.023527
-0.0187627
-0.0156367
-0.0145454
-0.0158046
-0.0196282
-0.0260668
-0.0349862
-0.0459542
-0.0580318
-0.069548
-0.0782335
-0.0819061
-0.0793849
-0.0710474
-0.0587175
-0.0448847
-0.0318243
-0.0209838
-0.0128896
-0.0074588
-0.00434443
-0.00311314
-0.00334403
-0.0046441
-0.00664356
-0.0090056
-0.0112993
-0.0131852
-0.0141718
-0.0140866
-0.0126659
-0.00987189
-0.00701015
-0.00101501
0.123138
0.124983
0.131232
0.140926
0.156083
0.177314
0.20908
0.209
0.173665
-0.215749
-0.592593
-0.427513
-0.48893
-0.6943
-0.496022
-0.23161
-0.0771711
-0.0498941
-0.0535241
-0.0616444
-0.0539848
-0.076981
-0.135919
-0.183492
-0.165027
-0.105089
-0.0616841
-0.0460238
-0.050118
-0.0654118
-0.0778305