/*--------------------------------*- C++ -*----------------------------------*\
  =========                 |
  \\      /  F ield         | OpenFOAM: The Open Source CFD Toolbox
   \\    /   O peration     | Website:  https://openfoam.org
    \\  /    A nd           | Version:  11
     \\/     M anipulation  |
\*---------------------------------------------------------------------------*/
FoamFile
{
    format      ascii;
    class       volVectorField;
    location    "17.400619";
    object      U;
}
// * * * * * * * * * * * * * * * * * * * * * * * * * * * * * * * * * * * * * //

dimensions      [0 1 -1 0 0 0 0];

internalField   nonuniform List<vector> 
7132
(
(1.00011 -0.000241851 3.0068e-18)
(1.00188 -0.000751668 1.07428e-17)
(1.00602 -0.00130437 1.07091e-17)
(1.01237 -0.00188978 1.37459e-17)
(1.02112 -0.00248209 1.7808e-17)
(1.03223 -0.00302994 1.76689e-17)
(1.04541 -0.00346243 1.67318e-17)
(1.06001 -0.0036786 1.62025e-17)
(1.07496 -0.00357896 1.60376e-17)
(1.08882 -0.00308379 1.61365e-17)
(1.09981 -0.00217563 1.64098e-17)
(1.1064 -0.000995147 1.68728e-17)
(1.10787 0.000269251 1.71701e-17)
(1.10425 0.00141681 1.70366e-17)
(1.09647 0.00219088 1.33244e-17)
(1.08658 0.00240339 9.8878e-18)
(1.07709 0.00200546 7.41552e-18)
(1.07043 0.00110149 5.75494e-18)
(1.06829 -6.56304e-05 3.1081e-18)
(1.07113 -0.00115359 2.72373e-18)
(1.07786 -0.00178117 2.96083e-18)
(1.08583 -0.00165518 3.52971e-18)
(1.09157 -0.000733902 4.4317e-18)
(1.09209 0.000723848 6.3152e-18)
(1.086 0.00229398 4.73623e-18)
(1.07376 0.00358535 5.63317e-18)
(1.05718 0.00434704 1.5189e-17)
(1.03873 0.00446473 -1.4057e-17)
(1.02114 0.00391244 -1.26057e-16)
(1.00709 0.00271585 3.15601e-16)
(0.999069 0.000956783 2.2338e-15)
(0.999155 -0.00118304 -8.86518e-16)
(1.00842 -0.00335115 -3.14881e-14)
(1.02611 -0.00500976 -9.72817e-14)
(1.04891 -0.00558945 -1.47847e-13)
(1.07139 -0.00478418 -1.33583e-13)
(1.08776 -0.00277483 -7.7195e-14)
(1.09403 -0.000165569 -2.78158e-14)
(1.08927 0.00232432 -3.70042e-15)
(1.07536 0.00416849 6.12449e-15)
(1.05566 0.0051412 1.46551e-14)
(1.03387 0.00523391 -5.56513e-15)
(1.01338 0.00451908 -1.31231e-13)
(0.997275 0.00306716 -2.89714e-13)
(0.988403 0.000959269 3.01895e-13)
(0.989247 -0.00161535 3.69112e-12)
(1.00119 -0.00423517 1.20756e-11)
(1.02332 -0.00623687 2.41008e-11)
(1.05161 -0.00692868 3.32164e-11)
(1.07946 -0.00594897 3.31461e-11)
(1.09989 -0.00351646 2.45583e-11)
(1.10808 -0.000359575 1.3623e-11)
(1.10295 0.00263411 5.27527e-12)
(1.08689 0.0047984 6.67513e-13)
(1.06422 0.00586117 -7.67462e-13)
(1.03956 0.00586444 6.11252e-14)
(1.01684 0.00497394 1.37777e-12)
(0.999297 0.00333434 -2.27259e-12)
(0.989703 0.00105815 -2.18974e-11)
(0.990432 -0.00165773 -6.99041e-11)
(1.00275 -0.00439033 -1.50601e-10)
(1.02563 -0.00648595 -2.4983e-10)
(1.05503 -0.0072689 -3.34766e-10)
(1.08442 -0.00636881 -3.70839e-10)
(1.1067 -0.00395117 -3.43015e-10)
(1.11665 -0.000686504 -2.62706e-10)
(1.11255 0.00252825 -1.60278e-10)
(1.09645 0.00493029 -6.9957e-11)
(1.07284 0.00613163 -1.06588e-11)
(1.04695 0.00612769 1.554e-11)
(1.02332 0.00512971 7.59814e-12)
(1.0054 0.00337293 -5.08324e-11)
(0.995833 0.00104683 -1.89643e-10)
(0.996582 -0.0016157 -4.31114e-10)
(1.00846 -0.0042073 -7.65713e-10)
(1.03019 -0.00614826 -1.14097e-09)
(1.05787 -0.0068733 -1.47219e-09)
(1.08562 -0.00609201 -1.67168e-09)
(1.10717 -0.00394844 -1.68175e-09)
(1.11776 -0.000985427 -1.49493e-09)
(1.11548 0.00205036 -1.15482e-09)
(1.10157 0.00446059 -7.43469e-10)
(1.07977 0.00579771 -3.61239e-10)
(1.05496 0.00593742 -9.54309e-11)
(1.0319 0.00501111 4.95444e-12)
(1.01443 0.00326437 -6.72936e-11)
(1.00534 0.000964221 -2.90518e-10)
(1.00636 -0.00157489 -6.27181e-10)
(1.01778 -0.00392416 -1.02923e-09)
(1.03784 -0.00557225 -1.44069e-09)
(1.06266 -0.00608755 -1.80313e-09)
(1.08696 -0.00530759 -2.0632e-09)
(1.10553 -0.00342173 -2.17859e-09)
(1.11465 -0.000901076 -2.12142e-09)
(1.11292 0.00166601 -1.88246e-09)
(1.10136 0.00374617 -1.48258e-09)
(1.08287 0.00497611 -9.91383e-10)
(1.06137 0.00520073 -5.22958e-10)
(1.04101 0.0044513 -1.9468e-10)
(1.02548 0.00289306 -7.33432e-11)
(1.0176 0.000788201 -1.51264e-10)
(1.019 -0.00150326 -3.66914e-10)
(1.02964 -0.00353214 -6.44811e-10)
(1.04748 -0.00484128 -9.23954e-10)
(1.06874 -0.00511119 -1.16582e-09)
(1.08878 -0.00428732 -1.34953e-09)
(1.10336 -0.00260369 -1.46314e-09)
(1.10977 -0.000490157 -1.49569e-09)
(1.10728 0.00157641 -1.4331e-09)
(1.09702 0.00320354 -1.26362e-09)
(1.08142 0.00414464 -9.95562e-10)
(1.06361 0.00429467 -6.72063e-10)
(1.04682 0.00366118 -3.63965e-10)
(1.03411 0.00234764 -1.38678e-10)
(1.0279 0.000562423 -2.81894e-11)
(1.02959 -0.0013688 -2.13571e-11)
(1.03901 -0.00303663 -8.12581e-11)
(1.0542 -0.00404836 -1.68574e-10)
(1.07179 -0.00415983 -2.55251e-10)
(1.08785 -0.00336709 -3.2639e-10)
(1.09898 -0.00190354 -3.7602e-10)
(1.10316 -0.000147372 -4.01945e-10)
(1.10007 0.00150803 -4.02111e-10)
(1.09087 0.00276052 -3.73867e-10)
(1.07768 0.00343888 -3.16594e-10)
(1.06305 0.00348353 -2.35371e-10)
(1.04954 0.0029102 -1.41987e-10)
(1.03957 0.00179805 -5.11921e-11)
(1.03509 0.000311483 2.5481e-11)
(1.03716 -0.001279 8.35642e-11)
(1.04557 -0.00262772 1.24919e-10)
(1.05858 -0.00340702 1.54243e-10)
(1.07327 -0.00342269 1.75935e-10)
(1.08634 -0.00268818 1.92803e-10)
(1.09501 -0.00141631 2.06145e-10)
(1.09771 6.25839e-05 2.16101e-10)
(1.09436 0.00141279 2.21613e-10)
(1.08612 0.00238477 2.20318e-10)
(1.07491 0.00284862 2.09307e-10)
(1.06295 0.00277354 1.87165e-10)
(1.0524 0.00218907 1.56206e-10)
(1.04521 0.00116875 1.22818e-10)
(1.04297 -0.000150237 9.50935e-11)
(1.04651 -0.00154309 7.93116e-11)
(1.0556 -0.00271692 7.77858e-11)
(1.06869 -0.00338667 8.90655e-11)
(1.0832 -0.00337586 1.09608e-10)
(1.09616 -0.00268579 1.35491e-10)
(1.10498 -0.0014988 1.63382e-10)
(1.10824 -0.00011175 1.90658e-10)
(1.10575 0.0011541 2.14898e-10)
(1.09876 0.0020549 2.33188e-10)
(1.08884 0.00244598 2.41922e-10)
(1.07889 0.00232521 2.37716e-10)
(1.06955 0.00170104 2.19255e-10)
(1.06547 0.000731589 1.88837e-10)
(1.06241 -0.000599382 1.52028e-10)
(1.07224 -0.0019508 1.16053e-10)
(1.07422 -0.00329849 8.64715e-11)
(1.10583 -0.00465254 6.24166e-11)
(1.00011 -0.000723786 4.11685e-20)
(1.00187 -0.00225108 5.01589e-19)
(1.00598 -0.00390899 9.75468e-19)
(1.01232 -0.00566963 1.49719e-18)
(1.02109 -0.00745671 2.12184e-18)
(1.03228 -0.00911704 2.76829e-18)
(1.04559 -0.0104376 3.24265e-18)
(1.06045 -0.0111104 4.23927e-18)
(1.07574 -0.0108307 4.77625e-18)
(1.08999 -0.00934633 5.19868e-18)
(1.10133 -0.00659749 5.72285e-18)
(1.1081 -0.00301857 8.6322e-18)
(1.10957 0.000816603 8.70586e-18)
(1.10572 0.00430162 9.15942e-18)
(1.0975 0.00665035 9.69366e-18)
(1.08702 0.00728694 9.24181e-18)
(1.07698 0.00606086 6.48481e-18)
(1.06992 0.0032863 1.79041e-18)
(1.06767 -0.000295938 -6.69178e-19)
(1.07076 -0.00364037 8.07055e-18)
(1.07807 -0.0055795 2.86923e-17)
(1.0868 -0.00520795 4.1056e-17)
(1.09321 -0.00239211 3.78815e-17)
(1.09408 0.00207245 2.74663e-17)
(1.08794 0.00687933 1.15991e-17)
(1.07534 0.01083 2.68753e-17)
(1.0582 0.0131661 9.50953e-17)
(1.03912 0.0135505 -2.74446e-16)
(1.02087 0.0119108 -1.32987e-15)
(1.00618 0.00832124 3.76212e-15)
(0.997647 0.00301322 2.58192e-14)
(0.997473 -0.00348651 -1.95116e-14)
(1.00694 -0.010121 -4.75762e-13)
(1.02538 -0.0152395 -1.51067e-12)
(1.04941 -0.017071 -2.35656e-12)
(1.07319 -0.0146521 -2.12445e-12)
(1.0905 -0.0085311 -1.15795e-12)
(1.09706 -0.000569346 -3.64252e-13)
(1.092 0.00702304 -2.44762e-14)
(1.0774 0.0126381 5.81755e-14)
(1.05688 0.0156007 6.11644e-14)
(1.03425 0.0159028 -2.98332e-14)
(1.01297 0.0137743 -3.5723e-13)
(0.996116 0.00942148 -6.56459e-13)
(0.986619 0.0030616 1.04117e-12)
(0.987165 -0.00476734 9.98313e-12)
(0.999409 -0.0127967 3.11201e-11)
(1.02256 -0.0189787 6.01934e-11)
(1.05239 -0.0211568 8.19629e-11)
(1.08183 -0.0181997 8.12968e-11)
(1.10333 -0.0107821 5.86852e-11)
(1.1118 -0.0011484 3.11199e-11)
(1.1062 0.0079801 1.1921e-11)
(1.08922 0.0145681 1.52538e-12)
(1.06551 0.0177977 -1.67882e-12)
(1.03987 0.0178189 1.33901e-12)
(1.0163 0.0151524 6.00234e-12)
(0.997986 0.0102353 -9.02814e-12)
(0.987703 0.0033812 -9.50311e-11)
(0.987948 -0.00485238 -3.22619e-10)
(1.00021 -0.0132013 -7.29291e-10)
(1.02365 -0.0196631 -1.24279e-09)
(1.05421 -0.0221429 -1.66904e-09)
(1.08508 -0.0194755 -1.80491e-09)
(1.10871 -0.0121504 -1.58933e-09)
(1.11945 -0.0022147 -1.13934e-09)
(1.11541 0.00759085 -6.4774e-10)
(1.09872 0.0149286 -2.63333e-10)
(1.07419 0.0186088 -3.86277e-11)
(1.04729 0.0186258 4.94405e-11)
(1.02272 0.0156394 3.42935e-11)
(1.00396 0.0103695 -9.63627e-11)
(0.993664 0.0033701 -4.03699e-10)
(0.99392 -0.00468878 -9.44141e-10)
(1.00575 -0.0125904 -1.69695e-09)
(1.02799 -0.0185622 -2.53007e-09)
(1.05663 -0.0208562 -3.23542e-09)
(1.08548 -0.0185641 -3.60953e-09)
(1.10797 -0.0121132 -3.5356e-09)
(1.11914 -0.00315061 -3.03324e-09)
(1.117 0.00605987 -2.24819e-09)
(1.10287 0.0133983 -1.38663e-09)
(1.08056 0.0175017 -6.46019e-10)
(1.05508 0.0179875 -1.58675e-10)
(1.03129 0.015248 2.5667e-11)
(1.01311 0.0100151 -8.18536e-11)
(1.00347 0.00307652 -4.39079e-10)
(1.0043 -0.00463444 -9.83721e-10)
(1.01604 -0.0118124 -1.6287e-09)
(1.03691 -0.0168754 -2.26757e-09)
(1.06277 -0.018482 -2.79655e-09)
(1.08799 -0.0161311 -3.13461e-09)
(1.10708 -0.0104138 -3.2297e-09)
(1.11625 -0.00277807 -3.0598e-09)
(1.11421 0.00498977 -2.63798e-09)
(1.10215 0.0112825 -2.02083e-09)
(1.0831 0.0150124 -1.31851e-09)
(1.06107 0.0157184 -6.79991e-10)
(1.04022 0.0134913 -2.44744e-10)
(1.02429 0.00881356 -8.68217e-11)
(1.01622 0.00245405 -1.91887e-10)
(1.01779 -0.00451129 -4.79938e-10)
(1.02905 -0.0107079 -8.49151e-10)
(1.04784 -0.0147169 -1.21194e-09)
(1.07012 -0.0155431 -1.51127e-09)
(1.09092 -0.0130213 -1.7191e-09)
(1.10578 -0.00788319 -1.82509e-09)
(1.11197 -0.00145535 -1.82427e-09)
(1.10889 0.00480884 -1.71023e-09)
(1.09788 0.0097247 -1.47933e-09)
(1.08156 0.0125575 -1.14786e-09)
(1.06313 0.0130018 -7.66454e-10)
(1.04591 0.0110848 -4.12217e-10)
(1.03298 0.00711111 -1.56409e-10)
(1.02685 0.00169635 -3.13823e-11)
(1.02898 -0.00418091 -2.29237e-11)
(1.03919 -0.00926763 -8.90266e-11)
(1.05539 -0.0123493 -1.8539e-10)
(1.07393 -0.0126706 -2.80628e-10)
(1.09061 -0.0102251 -3.58289e-10)
(1.10188 -0.00574123 -4.11839e-10)
(1.10573 -0.000384785 -4.3886e-10)
(1.10196 0.00464461 -4.37321e-10)
(1.09193 0.00843281 -4.04929e-10)
(1.07794 0.0104688 -3.41712e-10)
(1.06263 0.0105813 -2.53521e-10)
(1.04869 0.00882245 -1.52746e-10)
(1.03857 0.00542933 -5.42623e-11)
(1.0343 0.000894054 3.07555e-11)
(1.03697 -0.00396322 9.82235e-11)
(1.0463 -0.00808033 1.49734e-10)
(1.06037 -0.0104449 1.88771e-10)
(1.07601 -0.0104599 2.17934e-10)
(1.08967 -0.00817612 2.38439e-10)
(1.09844 -0.00425983 2.50933e-10)
(1.10077 0.000269759 2.561e-10)
(1.0967 0.00438767 2.54276e-10)
(1.08756 0.00733761 2.44742e-10)
(1.07546 0.00873087 2.25997e-10)
(1.06273 0.0084804 1.97567e-10)
(1.05165 0.00667885 1.62271e-10)
(1.04425 0.00354787 1.26702e-10)
(1.04218 -0.000498954 9.89202e-11)
(1.04635 -0.00477501 8.49235e-11)
(1.05641 -0.00837546 8.64557e-11)
(1.07066 -0.0104165 1.01267e-10)
(1.08623 -0.0103548 1.24971e-10)
(1.09991 -0.00820302 1.52982e-10)
(1.10898 -0.0045346 1.81645e-10)
(1.11199 -0.000268957 2.0839e-10)
(1.10884 0.00361126 2.31122e-10)
(1.10095 0.00636419 2.47324e-10)
(1.09007 0.00755569 2.53721e-10)
(1.07919 0.0071818 2.47138e-10)
(1.06911 0.00527585 2.26409e-10)
(1.06452 0.00231005 1.94019e-10)
(1.06131 -0.00176527 1.55771e-10)
(1.07142 -0.00590332 1.19121e-10)
(1.07388 -0.0100913 8.95313e-11)
(1.10708 -0.014149 6.68748e-11)
(1.00011 -0.00120104 -1.34009e-22)
(1.00185 -0.00373894 6.35919e-21)
(1.00592 -0.00650252 9.24449e-21)
(1.01223 -0.00945109 -2.54568e-21)
(1.02103 -0.0124623 -6.1411e-20)
(1.03234 -0.0152838 3.59038e-20)
(1.04595 -0.0175601 -6.29802e-19)
(1.06129 -0.0187607 -5.38169e-19)
(1.07726 -0.0183568 1.34465e-18)
(1.09231 -0.0158822 -1.65335e-20)
(1.10434 -0.0112084 -5.16878e-18)
(1.11148 -0.00509843 -7.1572e-18)
(1.11294 0.00147351 -3.48893e-18)
(1.10863 0.00748408 3.64022e-18)
(1.0995 0.011555 9.40656e-18)
(1.08788 0.0126693 5.84147e-18)
(1.07674 0.0105568 -1.07273e-17)
(1.06894 0.00575081 -2.75157e-17)
(1.06653 -0.000487003 -3.73023e-18)
(1.07017 -0.00635816 1.32648e-16)
(1.07872 -0.00981302 3.47094e-16)
(1.08901 -0.00923309 4.3848e-16)
(1.09673 -0.00436701 3.38369e-16)
(1.09818 0.00337158 1.88879e-16)
(1.0918 0.011674 6.79518e-17)
(1.0783 0.0184599 1.91236e-16)
(1.05994 0.022456 2.80927e-16)
(1.03952 0.0231285 -2.08194e-15)
(1.01997 0.0203795 -3.09156e-15)
(1.00411 0.0143262 2.35284e-14)
(0.994674 0.00531497 5.25292e-14)
(0.994156 -0.00582042 -2.0872e-13)
(1.0042 -0.0173033 -1.04674e-12)
(1.02436 -0.026252 -2.1165e-12)
(1.05097 -0.0295102 -3.20183e-12)
(1.07741 -0.0253356 -3.68267e-12)
(1.09648 -0.0146942 -2.69342e-12)
(1.1034 -0.000895651 -1.15465e-12)
(1.0974 0.012168 -1.98557e-13)
(1.08114 0.0217308 1.62367e-13)
(1.05877 0.0267104 1.15215e-13)
(1.03442 0.0271821 -2.19957e-13)
(1.0116 0.023584 -1.96773e-14)
(0.993395 0.0162424 2.24388e-12)
(0.982857 0.00544081 1.63916e-12)
(0.983001 -0.00799875 -2.82915e-11)
(0.995917 -0.021927 -1.34672e-10)
(1.02107 -0.0327377 -3.15189e-10)
(1.05397 -0.0365779 -4.57453e-10)
(1.08666 -0.0314216 -4.45734e-10)
(1.11043 -0.0184859 -3.03604e-10)
(1.11941 -0.0017699 -1.42193e-10)
(1.11264 0.0139431 -3.62805e-11)
(1.0935 0.0251478 3.46321e-12)
(1.06745 0.0305274 9.15966e-12)
(1.03978 0.0304578 1.44196e-11)
(1.01456 0.0259108 2.03863e-11)
(0.994843 0.0176336 -4.51026e-11)
(0.983312 0.00608444 -3.55874e-10)
(0.98263 -0.0078969 -1.12709e-09)
(0.994714 -0.0222316 -2.42476e-09)
(1.01915 -0.033494 -3.97993e-09)
(1.05188 -0.0380039 -5.23557e-09)
(1.08556 -0.03363 -5.64343e-09)
(1.11178 -0.0211233 -5.00972e-09)
(1.12409 -0.00401191 -3.63459e-09)
(1.12022 0.0129092 -2.09651e-09)
(1.10243 0.0255447 -8.73654e-10)
(1.07607 0.0318414 -1.52443e-10)
(1.0472 0.0318515 1.31195e-10)
(1.02085 0.0267861 1.03906e-10)
(1.00058 0.0179008 -2.06372e-10)
(0.989114 0.00607496 -8.79202e-10)
(0.988847 -0.00765064 -1.96776e-09)
(1.00118 -0.0212372 -3.35836e-09)
(1.02501 -0.031593 -4.77443e-09)
(1.05588 -0.0356335 -5.9034e-09)
(1.08687 -0.0317679 -6.4948e-09)
(1.11076 -0.0207625 -6.38823e-09)
(1.12239 -0.00548012 -5.55997e-09)
(1.1199 0.0102013 -4.18865e-09)
(1.10482 0.0226858 -2.62431e-09)
(1.08126 0.029682 -1.24864e-09)
(1.05443 0.0305622 -3.28786e-10)
(1.02931 0.0259915 3.60081e-11)
(1.01 0.0171721 -1.257e-10)
(0.999714 0.00537403 -7.13906e-10)
(1.00074 -0.00785114 -1.57904e-09)
(1.01374 -0.0202285 -2.53349e-09)
(1.03671 -0.0289465 -3.39639e-09)
(1.06485 -0.0316347 -4.04765e-09)
(1.0918 -0.0274601 -4.43411e-09)
(1.11157 -0.0175393 -4.5275e-09)
(1.12031 -0.00444968 -4.29416e-09)
(1.11707 0.00872895 -3.7195e-09)
(1.10348 0.0193049 -2.86148e-09)
(1.08296 0.0255112 -1.87348e-09)
(1.05969 0.026633 -9.71648e-10)
(1.0379 0.0228366 -3.55991e-10)
(1.02142 0.0148919 -1.3022e-10)
(1.01338 0.00403831 -2.70332e-10)
(1.0158 -0.00791223 -6.55182e-10)
(1.02873 -0.0185581 -1.13152e-09)
(1.04972 -0.0253859 -1.57464e-09)
(1.07407 -0.0266511 -1.91687e-09)
(1.09621 -0.0221121 -2.13934e-09)
(1.11135 -0.0131194 -2.24375e-09)
(1.11676 -0.00203344 -2.22776e-09)
(1.11215 0.00862794 -2.0795e-09)
(1.09932 0.0168727 -1.79187e-09)
(1.08129 0.0215179 -1.38525e-09)
(1.06152 0.022112 -9.22585e-10)
(1.04347 0.0187308 -4.96664e-10)
(1.03028 0.0118757 -1.90335e-10)
(1.02461 0.00256382 -3.84296e-11)
(1.02798 -0.00753613 -2.07409e-11)
(1.04008 -0.0162397 -8.62087e-11)
(1.05843 -0.0214186 -1.84269e-10)
(1.07882 -0.0217721 -2.82172e-10)
(1.09658 -0.0173407 -3.6497e-10)
(1.10791 -0.00945484 -4.26994e-10)
(1.11085 -0.000178767 -4.64064e-10)
(1.10551 0.00841102 -4.70724e-10)
(1.09363 0.0147735 -4.41819e-10)
(1.07789 0.0180848 -3.76266e-10)
(1.06121 0.0181014 -2.80682e-10)
(1.04644 0.014937 -1.69102e-10)
(1.03617 0.00899552 -5.76377e-11)
(1.03254 0.00111471 4.21976e-11)
(1.03665 -0.00728147 1.26196e-10)
(1.04801 -0.0143306 1.94995e-10)
(1.06425 -0.0182646 2.50005e-10)
(1.08169 -0.0180714 2.91282e-10)
(1.09635 -0.0138955 3.17953e-10)
(1.10512 -0.0069563 3.29692e-10)
(1.10653 0.000940737 3.27622e-10)
(1.10087 0.00801976 3.13795e-10)
(1.08985 0.0130022 2.89949e-10)
(1.07592 0.0152593 2.57058e-10)
(1.06168 0.0146767 2.1665e-10)
(1.04962 0.0114299 1.72901e-10)
(1.04195 0.0058998 1.33101e-10)
(1.04045 -0.00119839 1.05291e-10)
(1.04602 -0.00865641 9.47047e-11)
(1.05813 -0.0148731 1.01725e-10)
(1.07464 -0.0182966 1.22513e-10)
(1.09218 -0.0180014 1.51299e-10)
(1.10709 -0.0140607 1.82622e-10)
(1.11645 -0.00752869 2.12516e-10)
(1.11879 -4.06823e-05 2.38556e-10)
(1.11423 0.00669408 2.59056e-10)
(1.10451 0.01141 2.71985e-10)
(1.0917 0.0133935 2.74454e-10)
(1.07905 0.0126638 2.63566e-10)
(1.06762 0.00930018 2.38494e-10)
(1.06219 0.00410643 2.02241e-10)
(1.05889 -0.00302784 1.61248e-10)
(1.06975 -0.010196 1.23489e-10)
(1.07339 -0.0176873 9.41589e-11)
(1.1096 -0.0242813 7.45607e-11)
(1.0001 -0.00167015 -5.55146e-20)
(1.00181 -0.00520573 -6.41539e-19)
(1.00581 -0.00907478 -1.13765e-18)
(1.01208 -0.013231 -2.01848e-18)
(1.0209 -0.0175145 -2.26574e-18)
(1.03238 -0.0215788 -4.12844e-18)
(1.04641 -0.0249262 -7.94249e-18)
(1.06249 -0.0267793 5.3168e-18)
(1.07951 -0.0263536 -1.05367e-18)
(1.09582 -0.022893 -4.21789e-17)
(1.10894 -0.016157 -5.23197e-17)
(1.11666 -0.00730864 -6.49008e-18)
(1.11814 0.00224094 4.46469e-17)
(1.11313 0.0110389 7.45486e-17)
(1.10259 0.0170206 5.52948e-17)
(1.08916 0.0186513 -2.524e-17)
(1.0763 0.0155148 -1.25645e-16)
(1.06731 0.00837521 -1.16982e-16)
(1.06461 -0.000929498 8.63812e-17)
(1.06912 -0.00975327 -3.59992e-16)
(1.07962 -0.0150159 -2.16894e-15)
(1.0924 -0.0142247 -2.34477e-15)
(1.1022 -0.00697451 -7.92473e-16)
(1.10455 0.00455483 -9.31767e-18)
(1.09772 0.0168331 2.92902e-16)
(1.08278 0.0267651 8.31891e-16)
(1.06247 0.0325561 -2.68261e-15)
(1.04 0.0335323 -3.93121e-15)
(1.01846 0.0296176 4.99469e-14)
(1.00082 0.0209695 -2.61361e-14)
(0.990012 0.00799455 -9.86967e-13)
(0.988943 -0.00823852 3.93373e-14)
(0.999896 -0.0252204 1.85535e-11)
(1.02284 -0.0386362 6.38812e-11)
(1.05363 -0.0436137 1.01478e-10)
(1.08428 -0.037413 9.02765e-11)
(1.10603 -0.0215083 4.70222e-11)
(1.11334 -0.00100737 1.31155e-11)
(1.10571 0.0181676 5.47662e-14)
(1.08671 0.0319568 -1.67914e-12)
(1.0614 0.0389561 -1.29669e-12)
(1.03439 0.0394836 -7.99939e-13)
(1.00927 0.0342847 6.96718e-12)
(0.989083 0.023794 2.19313e-11)
(0.97691 0.00826707 -3.26844e-11)
(0.976035 -0.0112822 -3.90273e-10)
(0.989056 -0.0318196 -1.31874e-09)
(1.01608 -0.0480137 -2.68401e-09)
(1.05289 -0.0539764 -3.75319e-09)
(1.09069 -0.0464424 -3.77984e-09)
(1.11888 -0.0271437 -2.78118e-09)
(1.12979 -0.00222718 -1.47101e-09)
(1.12198 0.0209567 -5.00641e-10)
(1.09979 0.0371666 -4.05472e-11)
(1.07014 0.044651 7.91805e-11)
(1.03931 0.0442541 8.38393e-11)
(1.01159 0.037615 5.24613e-11)
(0.989724 0.025861 -1.83689e-10)
(0.976183 0.00949759 -1.01031e-09)
(0.973963 -0.0105387 -2.76318e-09)
(0.985839 -0.0314531 -5.33359e-09)
(1.01201 -0.0482552 -8.08762e-09)
(1.04808 -0.0553669 -1.02078e-08)
(1.08564 -0.0494343 -1.1018e-08)
(1.11516 -0.0314055 -1.01583e-08)
(1.12946 -0.00641032 -7.83004e-09)
(1.12589 0.018441 -4.85852e-09)
(1.10681 0.037007 -2.22873e-09)
(1.07811 0.0462171 -5.24281e-10)
(1.04656 0.046226 2.17677e-10)
(1.01769 0.0389435 2.14872e-10)
(0.995282 0.0262368 -3.96973e-10)
(0.982363 0.00924335 -1.60612e-09)
(0.981895 -0.0107102 -3.31097e-09)
(0.995764 -0.0306658 -5.18322e-09)
(1.02266 -0.0459222 -6.82361e-09)
(1.05713 -0.0517997 -7.99736e-09)
(1.09105 -0.0460088 -8.63766e-09)
(1.11641 -0.0298649 -8.65735e-09)
(1.12793 -0.00769744 -7.88907e-09)
(1.12415 0.0148615 -6.29882e-09)
(1.10718 0.0327185 -4.19981e-09)
(1.08156 0.0426926 -2.15114e-09)
(1.05273 0.0439564 -6.70064e-10)
(1.02582 0.0374561 -2.64078e-11)
(1.00517 0.024812 -2.21117e-10)
(0.994399 0.00771155 -1.05752e-09)
(0.996318 -0.0116392 -2.2197e-09)
(1.0117 -0.0297928 -3.37023e-09)
(1.03799 -0.042441 -4.27308e-09)
(1.06941 -0.0460386 -4.86107e-09)
(1.09859 -0.0394886 -5.186e-09)
(1.11899 -0.0246602 -5.29427e-09)
(1.12677 -0.00551488 -5.13813e-09)
(1.12141 0.0134171 -4.61208e-09)
(1.10525 0.0283433 -3.68765e-09)
(1.08229 0.0369053 -2.50718e-09)
(1.05708 0.0382377 -1.35806e-09)
(1.03396 0.0326206 -5.40411e-10)
(1.01689 0.0210735 -2.21966e-10)
(1.00928 0.00526828 -3.74819e-10)
(1.01336 -0.0121822 -8.22317e-10)
(1.02905 -0.0276671 -1.3502e-09)
(1.05324 -0.0373915 -1.80558e-09)
(1.08038 -0.0387978 -2.13102e-09)
(1.10416 -0.0316616 -2.33674e-09)
(1.11942 -0.0181447 -2.44755e-09)
(1.12351 -0.00184101 -2.4617e-09)
(1.11657 0.0135356 -2.34583e-09)
(1.101 0.0251572 -2.06567e-09)
(1.0804 0.0314514 -1.62763e-09)
(1.05865 0.0319075 -1.10266e-09)
(1.0394 0.0267015 -6.06112e-10)
(1.026 0.0165383 -2.41703e-10)
(1.02125 0.00285133 -5.16396e-11)
(1.02668 -0.0119139 -1.04068e-11)
(1.04167 -0.0244934 -5.83394e-11)
(1.06306 -0.0317251 -1.40889e-10)
(1.0859 -0.0317521 -2.27265e-10)
(1.10492 -0.0247669 -3.07245e-10)
(1.11611 -0.0128673 -3.78393e-10)
(1.11763 0.000826592 -4.35079e-10)
(1.10997 0.0132614 -4.65632e-10)
(1.09543 0.0222446 -4.56994e-10)
(1.07718 0.0266773 -4.02414e-10)
(1.05854 0.0263026 -3.07054e-10)
(1.04265 0.0213374 -1.86805e-10)
(1.03231 0.0123776 -6.0573e-11)
(1.0298 0.000655211 5.78566e-11)
(1.03614 -0.011697 1.62279e-10)
(1.05044 -0.0218826 2.50985e-10)
(1.06966 -0.0272913 3.22994e-10)
(1.08941 -0.0265101 3.76644e-10)
(1.1052 -0.0198857 4.10104e-10)
(1.11377 -0.00933962 4.2242e-10)
(1.11377 0.00240208 4.14386e-10)
(1.10586 0.0127279 3.88635e-10)
(1.09222 0.0198132 3.48765e-10)
(1.07574 0.0228134 2.98533e-10)
(1.05944 0.021628 2.42458e-10)
(1.04609 0.0165459 1.87224e-10)
(1.03818 0.00813383 1.41587e-10)
(1.03766 -0.00253411 1.13658e-10)
(1.04536 -0.0136178 1.074e-10)
(1.06037 -0.0226883 1.21091e-10)
(1.07989 -0.0274419 1.48727e-10)
(1.09987 -0.0265812 1.82943e-10)
(1.11617 -0.0203351 2.17512e-10)
(1.12565 -0.0103712 2.48427e-10)
(1.12693 0.000836529 2.73625e-10)
(1.12042 0.0107684 2.91868e-10)
(1.1082 0.0175994 3.01454e-10)
(1.09281 0.0203473 2.99638e-10)
(1.07781 0.0190873 2.83658e-10)
(1.06462 0.0139696 2.53112e-10)
(1.05816 0.00616233 2.11858e-10)
(1.05498 -0.00453875 1.67377e-10)
(1.06703 -0.0151081 1.28417e-10)
(1.07261 -0.0265643 9.97693e-11)
(1.11253 -0.0353119 8.46226e-11)
(1.0001 -0.00212649 -3.1457e-18)
(1.00175 -0.00663916 -1.03864e-17)
(1.00565 -0.0116103 -8.61056e-18)
(1.01182 -0.016999 -1.11958e-17)
(1.02065 -0.0226201 -6.86032e-18)
(1.03233 -0.0280429 -2.96299e-17)
(1.0469 -0.0326303 1.45501e-17)
(1.06397 -0.0353233 2.53812e-17)
(1.08245 -0.035038 -1.77902e-16)
(1.10053 -0.0306007 -1.28887e-16)
(1.1152 -0.0215893 3.1462e-16)
(1.12375 -0.00967733 6.59812e-16)
(1.12526 0.00325958 6.56861e-16)
(1.1193 0.0153202 3.82932e-16)
(1.10676 0.023575 -1.48703e-16)
(1.09079 0.0258312 -7.73234e-16)
(1.07548 0.021496 -1.04581e-15)
(1.06477 0.0115973 -2.49156e-16)
(1.06165 -0.00139481 -6.87998e-16)
(1.06738 -0.0138701 -1.4662e-14)
(1.08069 -0.0214656 -4.04066e-14)
(1.09708 -0.0205323 -4.84773e-14)
(1.10989 -0.0104377 -3.03684e-14)
(1.11351 0.00563306 -1.23003e-14)
(1.10597 0.0225798 -1.42273e-15)
(1.08892 0.0360883 -2.08155e-15)
(1.06588 0.0438437 -2.64876e-14)
(1.04057 0.0451284 7.09671e-14)
(1.01632 0.0399655 3.44273e-13)
(0.996223 0.0285526 -1.33788e-12)
(0.983431 0.0112607 -6.16312e-12)
(0.981488 -0.0107507 1.2082e-11)
(0.993722 -0.0342456 1.19149e-10)
(1.02079 -0.0531293 3.24993e-10)
(1.05781 -0.0602459 5.02714e-10)
(1.09457 -0.0515401 4.9481e-10)
(1.11999 -0.0292062 3.10519e-10)
(1.12752 -0.000705677 1.17463e-10)
(1.11726 0.0255045 1.66398e-11)
(1.09421 0.0438887 -1.11183e-11)
(1.06476 0.0528628 -1.11756e-11)
(1.03413 0.0532386 -6.22216e-13)
(1.00598 0.0462353 3.87279e-11)
(0.983099 0.0324259 6.02203e-11)
(0.968306 0.0119752 -2.84609e-10)
(0.964909 -0.014052 -1.71285e-09)
(0.976366 -0.0419355 -4.69306e-09)
(1.00429 -0.0646603 -8.54482e-09)
(1.04526 -0.073904 -1.1512e-08)
(1.0897 -0.0644325 -1.19228e-08)
(1.12476 -0.0380255 -9.48948e-09)
(1.14012 -0.00329482 -5.64842e-09)
(1.13278 0.0289578 -2.31754e-09)
(1.10767 0.0510625 -4.26298e-10)
(1.07361 0.0607556 2.30934e-10)
(1.03856 0.0597253 2.93829e-10)
(1.00738 0.0507011 1.14392e-10)
(0.9825 0.0353387 -5.34395e-10)
(0.966248 0.0139746 -2.19621e-09)
(0.962441 -0.0127115 -5.05418e-09)
(0.975126 -0.0412468 -8.49994e-09)
(1.00477 -0.0646258 -1.15835e-08)
(1.04574 -0.0748401 -1.37404e-08)
(1.08784 -0.0671774 -1.47734e-08)
(1.12037 -0.0430162 -1.43467e-08)
(1.13587 -0.00934568 -1.209e-08)
(1.13189 0.0242564 -8.35836e-09)
(1.11107 0.0494377 -4.37446e-09)
(1.07969 0.0619558 -1.36287e-09)
(1.04506 0.0620493 1.61947e-10)
(1.01318 0.0524179 3.04045e-10)
(0.988258 0.0355626 -6.65907e-10)
(0.973956 0.0127758 -2.46257e-09)
(0.974076 -0.0143413 -4.63949e-09)
(0.990799 -0.0416143 -6.61309e-09)
(1.02204 -0.0622863 -7.98527e-09)
(1.06093 -0.069844 -8.76229e-09)
(1.09802 -0.0614109 -9.1924e-09)
(1.12461 -0.0391908 -9.37762e-09)
(1.13537 -0.00933195 -9.04781e-09)
(1.12939 0.0205896 -7.80971e-09)
(1.10956 0.0439863 -5.66991e-09)
(1.08107 0.0569028 -3.19824e-09)
(1.0497 0.0584179 -1.19177e-09)
(1.02073 0.0497643 -2.18638e-10)
(0.998743 0.0328836 -3.92585e-10)
(0.987944 0.00980454 -1.41045e-09)
(0.991604 -0.0164926 -2.74809e-09)
(1.01033 -0.0410659 -3.92108e-09)
(1.04066 -0.0578131 -4.68714e-09)
(1.07562 -0.0619447 -5.07405e-09)
(1.10697 -0.0522531 -5.25268e-09)
(1.12777 -0.0316174 -5.35799e-09)
(1.1342 -0.0056433 -5.3549e-09)
(1.12619 0.0194991 -5.04843e-09)
(1.10678 0.0388644 -4.26702e-09)
(1.08072 0.04959 -3.06715e-09)
(1.05303 0.0507921 -1.76962e-09)
(1.02831 0.0429253 -7.84025e-10)
(1.01077 0.0272303 -3.65943e-10)
(1.00412 0.00580703 -4.95042e-10)
(1.01068 -0.0177906 -9.43736e-10)
(1.02992 -0.0384953 -1.45008e-09)
(1.05781 -0.0510566 -1.85235e-09)
(1.08784 -0.0521177 -2.11512e-09)
(1.11307 -0.041634 -2.27918e-09)
(1.12815 -0.022788 -2.39329e-09)
(1.13056 -0.000597191 -2.46135e-09)
(1.12085 0.0198895 -2.42898e-09)
(1.10204 0.0349567 -2.22168e-09)
(1.07837 0.042689 -1.81254e-09)
(1.05423 0.0426068 -1.26713e-09)
(1.03362 0.0350495 -7.21331e-10)
(1.02016 0.0209524 -3.04334e-10)
(1.01684 0.00222787 -7.10544e-11)
(1.02509 -0.0177461 4.54334e-12)
(1.04367 -0.0344331 -1.38661e-11)
(1.06852 -0.043538 -7.05328e-11)
(1.09386 -0.0427049 -1.36482e-10)
(1.11394 -0.0324419 -2.05186e-10)
(1.12465 -0.0157986 -2.7867e-10)
(1.12437 0.00289711 -3.53522e-10)
(1.11399 0.0195131 -4.14214e-10)
(1.09635 0.0311704 -4.38031e-10)
(1.07518 0.0365241 -4.07961e-10)
(1.05428 0.0353609 -3.23396e-10)
(1.03717 0.0280486 -2.00161e-10)
(1.02696 0.0154214 -6.06317e-11)
(1.02607 -0.000797714 7.68648e-11)
(1.03532 -0.017601 2.01555e-10)
(1.05316 -0.0310913 3.07876e-10)
(1.0757 -0.037752 3.92844e-10)
(1.09776 -0.0358435 4.55e-10)
(1.11447 -0.0260736 4.93679e-10)
(1.1225 -0.0112327 5.08234e-10)
(1.1207 0.00490155 4.98264e-10)
(1.11015 0.0187993 4.64943e-10)
(1.09348 0.028061 4.11843e-10)
(1.07411 0.0316443 3.44811e-10)
(1.05549 0.0294978 2.71984e-10)
(1.04079 0.0220558 2.03819e-10)
(1.03283 0.0101158 1.51551e-10)
(1.03375 -0.00478662 1.23625e-10)
(1.04419 -0.0200109 1.22339e-10)
(1.06262 -0.032137 1.43287e-10)
(1.08541 -0.0380476 1.7791e-10)
(1.10778 -0.0361417 2.17171e-10)
(1.12518 -0.0269494 2.54247e-10)
(1.13442 -0.012902 2.85384e-10)
(1.13427 0.0025738 3.09187e-10)
(1.12545 0.0160744 3.25017e-10)
(1.11044 0.0251812 3.31379e-10)
(1.09218 0.0286494 3.25378e-10)
(1.07458 0.0266322 3.04115e-10)
(1.05954 0.0193723 2.67604e-10)
(1.05211 0.00842814 2.20836e-10)
(1.04947 -0.00648304 1.72686e-10)
(1.06308 -0.0209296 1.32877e-10)
(1.07134 -0.0370058 1.05649e-10)
(1.11469 -0.0472926 9.63558e-11)
(1.00009 -0.0025644 3.18378e-18)
(1.00166 -0.0080234 1.09221e-17)
(1.00541 -0.0140873 7.79522e-18)
(1.01144 -0.0207354 1.84334e-17)
(1.02022 -0.0277745 3.2291e-18)
(1.0321 -0.0347069 -1.46018e-17)
(1.0473 -0.0407636 2.89709e-16)
(1.0656 -0.0445632 -6.72353e-16)
(1.08599 -0.0446659 -3.83296e-16)
(1.1065 -0.0392839 2.58947e-15)
(1.12327 -0.0277158 3.54397e-15)
(1.13297 -0.0123405 1.63662e-15)
(1.13461 0.00444118 -9.67237e-16)
(1.12743 0.0203039 -3.73437e-15)
(1.11221 0.0312524 -6.27526e-15)
(1.09277 0.0342602 -7.58034e-15)
(1.0741 0.0284936 -5.36186e-15)
(1.06103 0.0152583 -2.31327e-16)
(1.05723 -0.00225239 -1.44575e-14)
(1.06453 -0.0192927 1.80827e-14)
(1.08169 -0.0298896 2.3173e-13)
(1.1031 -0.0288398 2.65191e-13)
(1.12011 -0.0151786 5.29278e-14)
(1.12544 0.00654625 -5.2117e-14)
(1.11684 0.0291486 -3.84344e-14)
(1.09689 0.046813 -5.34332e-14)
(1.0702 0.0567318 -4.71469e-14)
(1.04119 0.0583065 5.35321e-13)
(1.01347 0.0517882 5.13699e-14)
(0.990147 0.0374184 -6.40619e-12)
(0.974644 0.0153697 -2.21619e-12)
(0.971338 -0.0133681 5.69141e-11)
(0.984817 -0.0448592 9.73753e-11)
(1.01664 -0.0706866 -3.52627e-11)
(1.06164 -0.0805231 -1.48989e-10)
(1.1072 -0.0685088 1.70209e-11)
(1.13842 -0.0379583 2.23264e-10)
(1.14655 0.000393699 2.17379e-10)
(1.13254 0.0348459 9.58956e-11)
(1.10379 0.0582109 1.01528e-12)
(1.06877 0.0689887 -2.79515e-11)
(1.03355 0.0688643 8.06772e-12)
(1.00167 0.0598 1.11236e-10)
(0.975246 0.0426357 2.30148e-11)
(0.956354 0.0173754 -1.15127e-09)
(0.948603 -0.0152913 -4.53386e-09)
(0.957552 -0.0514949 -1.00727e-08)
(0.986982 -0.0824735 -1.60726e-08)
(1.03336 -0.0967084 -2.04665e-08)
(1.08512 -0.0862015 -2.16891e-08)
(1.12745 -0.0523299 -1.88838e-08)
(1.14827 -0.00620166 -1.28846e-08)
(1.14291 0.0371992 -6.37772e-09)
(1.11586 0.0667495 -1.81155e-09)
(1.0774 0.0791927 2.52407e-10)
(1.03748 0.0773574 6.6473e-10)
(1.00195 0.0656407 2.17402e-10)
(0.973269 0.0464272 -1.13955e-09)
(0.954137 0.0195353 -3.78211e-09)
(0.949732 -0.0149652 -7.37581e-09)
(0.965144 -0.0526101 -1.07729e-08)
(1.00005 -0.0835759 -1.30744e-08)
(1.04679 -0.09693 -1.436e-08)
(1.09334 -0.0867632 -1.5185e-08)
(1.12809 -0.0554053 -1.55217e-08)
(1.14359 -0.0121416 -1.44576e-08)
(1.13801 0.0308655 -1.13088e-08)
(1.11462 0.0631108 -6.81867e-09)
(1.08018 0.0792066 -2.67389e-09)
(1.04228 0.0794641 -1.90642e-10)
(1.00723 0.0673383 2.60915e-10)
(0.979806 0.0458501 -1.00201e-09)
(0.964625 0.0163432 -3.28669e-09)
(0.966313 -0.0191202 -5.69936e-09)
(0.986829 -0.0546448 -7.47434e-09)
(1.02276 -0.080999 -8.34812e-09)
(1.06577 -0.0898089 -8.58863e-09)
(1.10551 -0.0778578 -8.68092e-09)
(1.13294 -0.0485314 -8.9098e-09)