/*--------------------------------*- C++ -*----------------------------------*\
  =========                 |
  \\      /  F ield         | OpenFOAM: The Open Source CFD Toolbox
   \\    /   O peration     | Website:  https://openfoam.org
    \\  /    A nd           | Version:  11
     \\/     M anipulation  |
\*---------------------------------------------------------------------------*/
FoamFile
{
    format      ascii;
    class       volVectorField;
    location    "17.880103";
    object      vorticity;
}
// * * * * * * * * * * * * * * * * * * * * * * * * * * * * * * * * * * * * * //

dimensions      [0 0 -1 0 0 0 0];

internalField   nonuniform List<vector> 
7132
(
(-4.92417e-17 -1.86018e-15 -0.00983484)
(-1.91875e-16 -1.82917e-15 -0.00933542)
(-2.14536e-16 -5.44155e-17 -0.0088691)
(-2.75404e-16 -1.82158e-15 -0.00855567)
(-3.60106e-16 -1.79926e-15 -0.00845857)
(-3.67519e-16 -1.12772e-17 -0.00860194)
(-3.51006e-16 1.05784e-17 -0.00897033)
(-3.10363e-16 2.0217e-17 -0.00950699)
(-2.77278e-16 2.88579e-17 -0.0101236)
(-2.73076e-16 3.59029e-17 -0.0107146)
(-2.3153e-16 3.5686e-17 -0.0111699)
(-1.10664e-16 3.08485e-17 -0.0114224)
(-1.02177e-16 2.8248e-17 -0.0114297)
(-1.86157e-16 5.70778e-17 -0.0112094)
(-2.38488e-16 -1.65602e-15 -0.0108296)
(-2.14009e-16 -1.67951e-15 -0.0104048)
(-1.2431e-16 -1.72324e-15 -0.0100789)
(-5.66178e-17 -2.91004e-18 -0.00996712)
(2.86458e-17 -1.73875e-15 -0.0101038)
(6.25546e-17 -1.76449e-15 -0.0104359)
(4.49941e-17 -3.1869e-17 -0.0108513)
(-1.66497e-17 -1.63492e-17 -0.0112139)
(3.31454e-17 -5.00542e-17 -0.011388)
(7.12453e-16 7.10331e-17 -0.0112583)
(-1.59582e-15 2.50075e-15 -0.0107611)
(-1.656e-14 -8.85539e-16 -0.00995916)
(3.67158e-14 -1.31525e-14 -0.00908976)
(4.18628e-13 -2.82914e-14 -0.00838857)
(1.00213e-12 -1.8662e-14 -0.00796877)
(1.10125e-12 1.25608e-14 -0.00787832)
(6.33554e-13 2.66981e-14 -0.0082249)
(1.87173e-13 1.94819e-14 -0.0091163)
(3.07439e-15 8.39755e-15 -0.0104103)
(-4.38414e-14 3.0111e-15 -0.0117398)
(3.39865e-14 -1.66273e-14 -0.0127606)
(3.06344e-13 -3.90014e-15 -0.0132516)
(-1.64976e-13 2.09049e-13 -0.0131129)
(-4.23312e-12 4.00736e-13 -0.0123566)
(-8.33997e-12 -1.22196e-12 -0.0111485)
(2.8488e-11 -7.57884e-12 -0.00992859)
(2.06239e-10 -1.77328e-11 -0.0093328)
(5.68794e-10 -2.25031e-11 -0.00960823)
(9.23186e-10 -1.31863e-11 -0.0102378)
(9.75223e-10 4.90341e-12 -0.0105032)
(6.98228e-10 1.80476e-11 -0.0104393)
(3.4084e-10 1.97955e-11 -0.0107567)
(1.03038e-10 1.34737e-11 -0.0117922)
(3.50935e-13 5.92387e-12 -0.0131533)
(-2.27805e-11 1.21998e-12 -0.0142586)
(-8.86999e-12 -1.64659e-12 -0.0147064)
(3.24637e-11 -2.37183e-12 -0.0143838)
(5.41398e-11 9.66817e-12 -0.0133763)
(-1.96761e-10 4.86357e-11 -0.0117441)
(-1.29818e-09 1.12173e-10 -0.0094089)
(-3.92197e-09 1.76728e-10 -0.00625195)
(-7.98274e-09 2.0705e-10 -0.00250599)
(-1.18882e-08 1.75343e-10 0.000660638)
(-1.34181e-08 7.85834e-11 0.00166608)
(-1.17347e-08 -6.52448e-11 -0.000168624)
(-8.02187e-09 -2.06677e-10 -0.00423486)
(-4.16859e-09 -2.57705e-10 -0.00914593)
(-1.44055e-09 -2.01917e-10 -0.0132749)
(-7.13453e-11 -1.2404e-10 -0.0156844)
(3.76112e-10 -4.71127e-11 -0.0163209)
(3.35634e-10 1.8029e-10 -0.0154732)
(-3.26897e-10 8.23832e-10 -0.0131483)
(-2.50071e-09 2.03868e-09 -0.00888602)
(-7.42441e-09 3.638e-09 -0.00218865)
(-1.56754e-08 5.03731e-09 0.00678717)
(-2.60956e-08 5.45996e-09 0.0169743)
(-3.57065e-08 4.37038e-09 0.0265641)
(-4.09981e-08 1.87308e-09 0.0333131)
(-3.98432e-08 -1.27111e-09 0.0349851)
(-3.27747e-08 -4.0372e-09 0.0302659)
(-2.26059e-08 -5.60365e-09 0.0198895)
(-1.26127e-08 -5.63763e-09 0.0067819)
(-5.06357e-09 -4.35719e-09 -0.00523762)
(-7.09041e-10 -2.30962e-09 -0.0131843)
(7.79654e-10 3.23893e-11 -0.0159552)
(-5.57206e-11 2.47601e-09 -0.0142648)
(-2.99289e-09 4.93432e-09 -0.00983765)
(-7.97104e-09 7.14173e-09 -0.00452549)
(-1.45245e-08 8.59917e-09 0.000386136)
(-2.14936e-08 8.78396e-09 0.00480809)
(-2.73629e-08 7.41637e-09 0.00968727)
(-3.08179e-08 4.59101e-09 0.0157635)
(-3.10773e-08 7.4067e-10 0.0222078)
(-2.80593e-08 -3.48198e-09 0.0265126)
(-2.24849e-08 -7.29917e-09 0.026054)
(-1.56835e-08 -9.80958e-09 0.0200548)
(-9.13869e-09 -1.01551e-08 0.0101183)
(-4.02759e-09 -8.02368e-09 -0.000568938)
(-9.85576e-10 -4.01671e-09 -0.00888733)
(-1.50817e-10 5.88046e-10 -0.0133961)
(-1.31036e-09 4.52076e-09 -0.0147983)
(-3.97735e-09 7.06165e-09 -0.0150015)
(-7.41189e-09 8.09644e-09 -0.015489)
(-1.07502e-08 7.85764e-09 -0.0160604)
(-1.32727e-08 6.66445e-09 -0.0151259)
(-1.45971e-08 4.78175e-09 -0.0112202)
(-1.46576e-08 2.37e-09 -0.00439223)
(-1.35769e-08 -4.97507e-10 0.00351863)
(-1.15924e-08 -3.71103e-09 0.00986131)
(-9.03538e-09 -6.8543e-09 0.0126215)
(-6.29956e-09 -9.05411e-09 0.0111035)
(-3.78938e-09 -9.33622e-09 0.00603416)
(-1.85709e-09 -7.34248e-09 -0.000930864)
(-7.38727e-10 -3.7437e-09 -0.0081759)
(-5.00069e-10 1.24204e-10 -0.0148781)
(-1.01277e-09 3.07837e-09 -0.0209829)
(-1.98463e-09 4.62727e-09 -0.026446)
(-3.05722e-09 4.92231e-09 -0.030445)
(-3.93141e-09 4.39338e-09 -0.0316006)
(-4.44262e-09 3.43282e-09 -0.0289614)
(-4.55595e-09 2.25656e-09 -0.0227911)
(-4.31942e-09 8.97767e-10 -0.0145786)
(-3.8208e-09 -7.07399e-10 -0.00631808)
(-3.15824e-09 -2.53583e-09 0.0003016)
(-2.42363e-09 -4.29583e-09 0.00412141)
(-1.69899e-09 -5.45316e-09 0.00460408)
(-1.05683e-09 -5.53311e-09 0.00181453)
(-5.52329e-10 -4.47974e-09 -0.00375711)
(-2.09309e-10 -2.73108e-09 -0.0113834)
(-1.48349e-11 -9.34417e-10 -0.0201505)
(6.85e-11 4.2389e-10 -0.0288095)
(8.0888e-11 1.18226e-09 -0.0356834)
(4.90289e-11 1.4289e-09 -0.0391275)
(-1.39787e-11 1.34091e-09 -0.0382697)
(-9.76143e-11 1.06813e-09 -0.0334309)
(-1.85838e-10 6.92165e-10 -0.0259366)
(-2.59038e-10 2.38516e-10 -0.0174549)
(-3.01057e-10 -2.80612e-10 -0.00944722)
(-3.03904e-10 -8.19652e-10 -0.00311478)
(-2.68637e-10 -1.28444e-09 0.00058632)
(-2.01868e-10 -1.56759e-09 0.000957633)
(-1.09653e-10 -1.6119e-09 -0.00234817)
(6.61494e-12 -1.44693e-09 -0.00915265)
(1.47755e-10 -1.16652e-09 -0.0185951)
(3.08612e-10 -8.70987e-10 -0.0290646)
(4.72244e-10 -6.22917e-10 -0.0384026)
(6.11961e-10 -4.39796e-10 -0.0445545)
(7.00842e-10 -3.11277e-10 -0.0463063)
(7.22827e-10 -2.17704e-10 -0.0436456)
(6.78842e-10 -1.37943e-10 -0.0375613)
(5.84661e-10 -4.99176e-11 -0.0294423)
(4.63359e-10 6.55736e-11 -0.0206314)
(3.378e-10 2.12974e-10 -0.0123694)
(2.25763e-10 3.6978e-10 -0.00582735)
(1.38856e-10 4.89137e-10 -0.0021154)
(8.35856e-11 5.23219e-10 -0.00214082)
(6.22341e-11 4.5213e-10 -0.00633135)
(7.27038e-11 2.95155e-10 -0.0143179)
(1.0793e-10 9.72787e-11 -0.0247583)
(1.56353e-10 -9.53959e-11 -0.0355075)
(2.04448e-10 -2.52239e-10 -0.0443141)
(2.40408e-10 -3.63228e-10 -0.0494776)
(2.57684e-10 -4.26796e-10 -0.0505751)
(2.54509e-10 -4.441e-10 -0.047472)
(2.40934e-10 -4.81057e-10 -0.0420441)
(1.97883e-10 -2.60077e-10 -0.0264188)
(-4.93483e-17 -5.53462e-18 -0.0294591)
(-2.01394e-16 -1.15921e-17 -0.0279481)
(-2.38053e-16 -1.39214e-17 -0.0265155)
(-3.10016e-16 -1.57626e-17 -0.0255198)
(-4.13398e-16 -1.67876e-17 -0.0251615)
(-4.43543e-16 -1.41332e-17 -0.0255326)
(-4.30218e-16 -1.79996e-17 -0.0266138)
(-4.36458e-16 -1.66467e-17 -0.0282632)
(-4.47301e-16 1.74494e-15 -0.0302409)
(-3.29586e-16 1.30287e-17 -0.0322451)
(-8.57384e-17 -4.55198e-17 -0.0339403)
(-1.23259e-16 1.7009e-15 -0.0351015)
(-8.01019e-16 6.59944e-17 -0.0355474)
(-1.81374e-15 1.24386e-16 -0.0352478)
(-2.30675e-15 9.26339e-17 -0.0342898)
(-1.78849e-15 -6.02182e-19 -0.0328667)
(-8.04592e-16 -6.72131e-17 -0.0312553)
(-1.10016e-16 -7.81173e-17 -0.0297541)
(2.24175e-16 -6.02293e-17 -0.0286057)
(2.94635e-16 -3.96311e-17 -0.0279549)
(1.59172e-16 4.34503e-18 -0.0278394)
(-1.33377e-16 -1.04249e-17 -0.0281957)
(8.57668e-16 -4.14605e-16 -0.0288797)
(-1.61851e-16 8.83821e-16 -0.0297089)
(-1.41391e-14 9.40225e-15 -0.0305338)
(3.5909e-14 -2.00397e-14 -0.0313317)
(1.3153e-13 -2.30746e-13 -0.0321962)
(-8.00262e-13 -5.10999e-13 -0.0330285)
(-2.39753e-12 -3.59969e-13 -0.0334343)
(-1.96722e-12 1.95117e-13 -0.0330364)
(-4.39952e-13 4.83733e-13 -0.0319212)
(1.48271e-13 3.31251e-13 -0.0306166)
(5.20778e-14 1.22166e-13 -0.029587)
(-1.29445e-13 -1.41831e-14 -0.0290053)
(3.60377e-13 -1.95189e-13 -0.0288186)
(1.58941e-12 9.55776e-14 -0.0288521)
(-2.47574e-12 2.47705e-12 -0.0289446)
(-2.32795e-11 4.4865e-12 -0.0291333)
(-2.81991e-11 -1.75843e-11 -0.029849)
(1.83727e-10 -1.14872e-10 -0.0320389)
(9.70118e-10 -2.87886e-10 -0.0366803)
(2.36823e-09 -3.80978e-10 -0.0431894)
(3.70537e-09 -2.16403e-10 -0.048671)
(4.02467e-09 1.17381e-10 -0.0498295)
(3.0667e-09 3.35236e-10 -0.0461191)
(1.61514e-09 3.17391e-10 -0.0402721)
(5.5287e-10 1.83716e-10 -0.0352922)
(3.67504e-11 6.88312e-11 -0.0321938)
(-1.07515e-10 5.8287e-12 -0.0306719)
(-4.13249e-11 -2.92721e-11 -0.030042)
(1.82195e-10 -3.38785e-11 -0.0298971)
(2.43231e-10 1.24282e-10 -0.0300093)
(-1.34636e-09 7.24792e-10 -0.0292502)
(-7.77162e-09 1.97478e-09 -0.0246271)
(-2.22319e-08 3.51901e-09 -0.0127061)
(-4.3538e-08 4.19018e-09 0.00603231)
(-6.35254e-08 2.89301e-09 0.0244805)
(-7.15149e-08 1.7963e-12 0.0328452)
(-6.30178e-08 -2.76334e-09 0.0263722)
(-4.34698e-08 -3.98971e-09 0.00895233)
(-2.28761e-08 -3.54836e-09 -0.0107554)
(-8.11824e-09 -2.25054e-09 -0.0255823)
(-6.1581e-10 -1.03237e-09 -0.0329961)
(1.79018e-09 -2.50601e-10 -0.0344502)
(1.49994e-09 5.31793e-10 -0.0323761)
(-1.33209e-09 2.24201e-09 -0.0276378)
(-9.16604e-09 5.58744e-09 -0.0192235)
(-2.50008e-08 1.02254e-08 -0.00582309)
(-4.89688e-08 1.43729e-08 0.0124515)
(-7.65963e-08 1.54755e-08 0.0342846)
(-1.00622e-07 1.18216e-08 0.0580431)
(-1.14102e-07 3.94142e-09 0.080327)
(-1.12554e-07 -5.38281e-09 0.0942186)
(-9.57854e-08 -1.26559e-08 0.0920056)
(-6.89604e-08 -1.56846e-08 0.0713975)
(-4.03635e-08 -1.44088e-08 0.038519)
(-1.72724e-08 -1.0309e-08 0.0045879)
(-3.17737e-09 -5.23124e-09 -0.0202816)
(1.97881e-09 -2.94269e-10 -0.0316922)
(-3.73922e-10 4.36229e-09 -0.031739)
(-8.98277e-09 8.89198e-09 -0.0265231)
(-2.24704e-08 1.29075e-08 -0.0221599)
(-3.83217e-08 1.53605e-08 -0.0209863)
(-5.31578e-08 1.52032e-08 -0.0196378)
(-6.43007e-08 1.20785e-08 -0.0114868)
(-7.05876e-08 6.4482e-09 0.00748083)
(-7.15928e-08 -6.38602e-10 0.0341936)
(-6.67901e-08 -7.77816e-09 0.059067)
(-5.61363e-08 -1.34871e-08 0.0713142)
(-4.12625e-08 -1.64827e-08 0.0654735)
(-2.53652e-08 -1.59831e-08 0.0440907)
(-1.19349e-08 -1.21002e-08 0.0158106)
(-3.48372e-09 -5.95509e-09 -0.00995453)
(-9.86122e-10 7.5044e-10 -0.0285578)
(-3.92121e-09 6.43403e-09 -0.0416928)
(-1.05514e-08 1.01124e-08 -0.0537903)
(-1.84266e-08 1.14829e-08 -0.0664211)
(-2.52588e-08 1.07881e-08 -0.0756277)
(-2.97743e-08 8.58789e-09 -0.0748397)
(-3.18662e-08 5.47417e-09 -0.0602232)
(-3.19795e-08 1.85991e-09 -0.0337065)
(-3.03959e-08 -2.03007e-09 -0.00227687)
(-2.70919e-08 -5.98179e-09 0.0251189)
(-2.21749e-08 -9.50074e-09 0.0413021)
(-1.6205e-08 -1.16771e-08 0.0430017)
(-1.0182e-08 -1.15575e-08 0.0314301)
(-5.2539e-09 -8.86781e-09 0.0108669)
(-2.2973e-09 -4.42221e-09 -0.0141988)
(-1.58228e-09 2.61229e-10 -0.041023)
(-2.69145e-09 3.82065e-09 -0.0679282)
(-4.74956e-09 5.6495e-09 -0.0920072)
(-6.85572e-09 5.8957e-09 -0.108189)
(-8.44316e-09 5.08608e-09 -0.111455)
(-9.35208e-09 3.74509e-09 -0.0999928)
(-9.65318e-09 2.19496e-09 -0.0763676)
(-9.43471e-09 5.30191e-10 -0.0462976)
(-8.72819e-09 -1.28798e-09 -0.0163699)
(-7.57268e-09 -3.23441e-09 0.00786541)
(-6.06667e-09 -5.02545e-09 0.0225002)
(-4.39285e-09 -6.13655e-09 0.0255102)
(-2.79239e-09 -6.10644e-09 0.0166621)
(-1.48209e-09 -4.9035e-09 -0.00287666)
(-5.65718e-10 -2.99983e-09 -0.030714)
(-9.40332e-12 -1.07332e-09 -0.0629008)
(2.99162e-10 3.76031e-10 -0.0936427)
(4.60674e-10 1.19199e-09 -0.116202)
(5.13109e-10 1.47633e-09 -0.125301)
(4.46253e-10 1.41423e-09 -0.119313)
(2.53327e-10 1.15406e-09 -0.100597)
(-2.93054e-11 7.72879e-10 -0.0740789)
(-3.25744e-10 2.96129e-10 -0.0452204)
(-5.55925e-10 -2.58177e-10 -0.0187062)
(-6.6507e-10 -8.35862e-10 0.00168074)
(-6.38031e-10 -1.33546e-09 0.0129159)
(-4.91468e-10 -1.64708e-09 0.0127206)
(-2.51118e-10 -1.71614e-09 -2.99436e-05)
(6.63909e-11 -1.57563e-09 -0.0244615)
(4.51008e-10 -1.31752e-09 -0.0569114)
(8.8057e-10 -1.03323e-09 -0.090994)
(1.30825e-09 -7.7459e-10 -0.119156)
(1.66927e-09 -5.54093e-10 -0.135303)
(1.90161e-09 -3.66708e-10 -0.136854)
(1.96723e-09 -2.06704e-10 -0.125027)
(1.86401e-09 -6.88591e-11 -0.103578)
(1.62421e-09 5.78257e-11 -0.0770019)
(1.30196e-09 1.89006e-10 -0.0494519)
(9.56412e-10 3.31773e-10 -0.0246367)
(6.38859e-10 4.69252e-10 -0.00605636)
(3.87395e-10 5.60228e-10 0.0029236)
(2.26326e-10 5.61531e-10 -0.000384497)
(1.65348e-10 4.57574e-10 -0.0168334)
(1.97672e-10 2.72309e-10 -0.0442497)
(2.99827e-10 5.54542e-11 -0.0772189)
(4.36283e-10 -1.43653e-10 -0.108449)
(5.68794e-10 -2.94265e-10 -0.13137)
(6.66506e-10 -3.89845e-10 -0.142127)
(7.138e-10 -4.33844e-10 -0.140784)
(7.06624e-10 -4.35725e-10 -0.128078)
(6.72406e-10 -4.52743e-10 -0.109413)
(5.54799e-10 -2.38549e-10 -0.0629142)
(-1.46399e-18 -8.6536e-20 -0.0489429)
(-2.32994e-17 -9.87488e-20 -0.0463852)
(-5.00615e-17 -1.04575e-19 -0.0439385)
(-7.969e-17 8.19041e-19 -0.0422073)
(-1.33547e-16 2.22459e-18 -0.0415393)
(-1.41564e-16 -2.86733e-18 -0.0421075)
(-1.81347e-16 7.03592e-18 -0.0439034)
(-4.33683e-16 3.55346e-17 -0.0467113)
(-2.19695e-16 -2.45779e-17 -0.0501486)
(8.44194e-16 -1.51654e-16 -0.0537169)
(3.10326e-16 -6.07012e-17 -0.0568438)
(-3.5673e-15 3.88489e-16 -0.0591452)
(-6.93453e-15 8.6671e-16 -0.0602632)
(-4.12099e-15 8.09942e-16 -0.0600741)
(4.11024e-15 6.60842e-17 -0.0586072)
(1.07935e-14 -6.95861e-16 -0.0560583)
(1.18292e-14 -8.27754e-16 -0.0527583)
(8.80877e-15 -5.17294e-16 -0.0491428)
(4.90876e-15 -2.06357e-16 -0.0457145)
(2.02428e-15 2.73883e-18 -0.0429758)
(-4.64309e-16 1.82137e-16 -0.0413587)
(2.06936e-15 -3.65597e-16 -0.0411559)
(5.45885e-15 -3.58173e-17 -0.0424676)
(-9.01521e-14 7.56943e-15 -0.0451975)
(7.57095e-14 -1.72694e-14 -0.0491002)
(1.98959e-12 -7.37204e-14 -0.0538067)
(-3.50636e-12 4.04933e-13 -0.0587302)
(-4.70065e-11 1.23624e-12 -0.0628596)
(-1.14181e-10 5.64816e-13 -0.0649538)
(-1.26184e-10 -9.67956e-13 -0.064107)
(-7.2579e-11 -1.03278e-12 -0.0602764)
(-2.09045e-11 -2.28271e-13 -0.0543303)
(-8.95565e-13 1.47258e-13 -0.0476366)
(2.08411e-12 -1.52863e-13 -0.0416245)
(2.85025e-12 -8.77803e-13 -0.0373763)
(1.37049e-12 1.41241e-12 -0.0354682)
(-1.66912e-11 1.26418e-11 -0.0360937)
(-2.47954e-11 1.32624e-11 -0.0394726)
(9.92647e-11 -1.04727e-10 -0.0461288)
(2.54049e-10 -5.06739e-10 -0.0561938)
(-6.69608e-10 -1.10999e-09 -0.0676713)
(-3.83981e-09 -1.39013e-09 -0.0768113)
(-7.27706e-09 -8.41404e-10 -0.0821898)
(-7.31694e-09 3.24235e-10 -0.0842923)
(-4.15378e-09 1.22281e-09 -0.0814242)
(-1.06359e-09 1.27671e-09 -0.0722292)
(3.2238e-10 8.02668e-10 -0.0593447)
(3.53002e-10 3.36117e-10 -0.0467551)
(3.33846e-11 4.02559e-11 -0.0375985)
(6.78526e-11 -1.46504e-10 -0.0332876)
(6.05897e-10 -1.4465e-10 -0.033852)
(2.47558e-10 7.73951e-10 -0.0373699)
(-5.92191e-09 4.05606e-09 -0.0377654)
(-2.59627e-08 1.0555e-08 -0.0247754)
(-6.46074e-08 1.80599e-08 0.00901111)
(-1.15077e-07 2.08538e-08 0.0592776)
(-1.59777e-07 1.41638e-08 0.110029)
(-1.79582e-07 -1.75209e-10 0.140496)
(-1.64427e-07 -1.40878e-08 0.135045)
(-1.20854e-07 -2.02775e-08 0.0950236)
(-6.89488e-08 -1.79335e-08 0.0402477)
(-2.75768e-08 -1.1332e-08 -0.00612305)
(-4.20345e-09 -5.07825e-09 -0.0322588)
(4.27432e-09 -1.10499e-09 -0.0401911)
(3.85873e-09 1.74142e-09 -0.0379551)
(-3.25638e-09 6.15682e-09 -0.0315179)
(-1.92398e-08 1.3873e-08 -0.0232868)
(-4.54226e-08 2.35394e-08 -0.014671)
(-7.72888e-08 3.08351e-08 -0.00598657)
(-1.06499e-07 3.12864e-08 0.00783459)
(-1.27661e-07 2.31235e-08 0.0360481)
(-1.40105e-07 7.83939e-09 0.0806958)
(-1.42818e-07 -1.04296e-08 0.127916)
(-1.31702e-07 -2.58341e-08 0.154291)
(-1.0486e-07 -3.33146e-08 0.143992)
(-6.83623e-08 -3.14816e-08 0.101013)
(-3.33219e-08 -2.29503e-08 0.0450597)
(-8.86596e-09 -1.19352e-08 -0.0022846)
(1.46471e-09 -1.36933e-09 -0.0298979)
(-1.41892e-09 7.95681e-09 -0.0411963)
(-1.42327e-08 1.59826e-08 -0.0490689)
(-3.19193e-08 2.18112e-08 -0.0647829)
(-4.83674e-08 2.39429e-08 -0.0873548)
(-5.90634e-08 2.17735e-08 -0.102035)
(-6.36262e-08 1.61313e-08 -0.0916452)
(-6.5121e-08 8.23707e-09 -0.0507013)
(-6.63905e-08 -1.15806e-09 0.0103172)
(-6.67945e-08 -1.12102e-08 0.0710417)
(-6.27464e-08 -2.0063e-08 0.110877)
(-5.18331e-08 -2.51952e-08 0.118123)
(-3.56403e-08 -2.48189e-08 0.0943894)
(-1.90118e-08 -1.89644e-08 0.0523217)
(-7.16604e-09 -9.4911e-09 0.00683922)
(-3.05004e-09 8.06794e-10 -0.0345245)
(-6.25195e-09 9.30341e-09 -0.0737148)
(-1.35819e-08 1.43143e-08 -0.114265)
(-2.09449e-08 1.54501e-08 -0.151477)
(-2.55587e-08 1.35315e-08 -0.171941)
(-2.70583e-08 9.96818e-09 -0.163718)
(-2.68948e-08 5.88435e-09 -0.125859)
(-2.67381e-08 1.63484e-09 -0.0684859)
(-2.70582e-08 -2.94128e-09 -0.00650739)
(-2.68452e-08 -7.82152e-09 0.045998)
(-2.46906e-08 -1.22978e-08 0.0787409)
(-2.00619e-08 -1.50506e-08 0.0866309)
(-1.3859e-08 -1.48118e-08 0.0704736)
(-7.94637e-09 -1.12848e-08 0.0353518)
(-4.04284e-09 -5.57951e-09 -0.0128563)
(-2.77251e-09 3.21278e-10 -0.0691312)
(-3.4962e-09 4.66202e-09 -0.126942)
(-4.94656e-09 6.70941e-09 -0.175357)
(-6.10835e-09 6.76911e-09 -0.201411)
(-6.67696e-09 5.64156e-09 -0.197327)
(-6.92031e-09 4.03783e-09 -0.165255)
(-7.22634e-09 2.29787e-09 -0.115194)
(-7.70308e-09 4.35273e-10 -0.059272)
(-8.08581e-09 -1.63841e-09 -0.00761454)
(-7.97405e-09 -3.86659e-09 0.0325316)
(-7.11764e-09 -5.88574e-09 0.0560444)
(-5.5991e-09 -7.09029e-09 0.0595927)
(-3.79383e-09 -6.98849e-09 0.041753)
(-2.13542e-09 -5.59308e-09 0.00346098)
(-8.71012e-10 -3.46743e-09 -0.0508371)
(7.03707e-12 -1.36686e-09 -0.11179)
(6.38688e-10 1.88854e-10 -0.165696)
(1.13112e-09 1.07528e-09 -0.198915)
(1.48434e-09 1.43611e-09 -0.204008)
(1.62178e-09 1.4708e-09 -0.182568)
(1.47214e-09 1.30591e-09 -0.14282)
(1.04667e-09 9.81703e-10 -0.0948043)
(4.61393e-10 5.01826e-10 -0.0469041)
(-1.10089e-10 -1.10949e-10 -0.00526836)
(-5.11567e-10 -7.78599e-10 0.0251745)
(-6.62662e-10 -1.37124e-09 0.0398283)
(-5.65905e-10 -1.76104e-09 0.0345665)
(-2.69686e-10 -1.89083e-09 0.00726291)
(1.7209e-10 -1.79799e-09 -0.0397403)
(7.10029e-10 -1.57361e-09 -0.0979061)
(1.28668e-09 -1.29961e-09 -0.153705)
(1.83238e-09 -1.01726e-09 -0.193437)
(2.27825e-09 -7.36474e-10 -0.208905)
(2.57039e-09 -4.60258e-10 -0.199865)
(2.67489e-09 -1.98905e-10 -0.172079)
(2.58022e-09 3.35658e-11 -0.133341)
(2.30355e-09 2.31111e-10 -0.0904822)
(1.89337e-09 3.99473e-10 -0.0488338)
(1.4196e-09 5.44522e-10 -0.0130974)
(9.5856e-10 6.54288e-10 0.0116262)
(5.79411e-10 6.95404e-10 0.0197985)
(3.32904e-10 6.34244e-10 0.00706907)
(2.41451e-10 4.66457e-10 -0.0268532)
(2.93569e-10 2.27916e-10 -0.0759108)
(4.47508e-10 -2.20267e-11 -0.128393)
(6.44981e-10 -2.2988e-10 -0.171229)
(8.2934e-10 -3.67349e-10 -0.195478)
(9.60061e-10 -4.35731e-10 -0.198966)
(1.02045e-09 -4.46855e-10 -0.185929)
(1.00826e-09 -4.23403e-10 -0.159981)
(9.62899e-10 -4.05145e-10 -0.128781)
(8.00192e-10 -2.01272e-10 -0.0611315)
(-6.23254e-17 6.84707e-18 -0.0681733)
(-2.03016e-16 1.27067e-17 -0.0645209)
(-1.85107e-16 1.42739e-17 -0.0610121)
(-2.46079e-16 2.59801e-17 -0.0585116)
(-2.71905e-16 1.41492e-17 -0.0575201)
(-1.4702e-16 9.76662e-18 -0.05829)
(-8.28275e-16 1.2806e-16 -0.0608132)
(-1.29389e-16 2.5273e-18 -0.0647838)
(2.37303e-15 1.106e-15 -0.0696616)
(4.72176e-16 -2.51981e-16 -0.0747343)
(-8.91168e-15 4.25504e-16 -0.0791763)
(-1.51622e-14 5.32332e-15 -0.0824789)
(1.04291e-14 3.42837e-16 -0.0841168)
(9.07285e-14 -5.398e-15 -0.0839224)
(1.90625e-13 -7.36462e-15 -0.081928)
(2.24227e-13 -3.86006e-15 -0.0783589)
(1.72769e-13 9.25162e-16 -0.0735989)
(9.80791e-14 3.38208e-15 -0.0682427)
(3.878e-14 3.33202e-15 -0.0630303)
(3.54863e-15 2.64691e-15 -0.0587202)
(-1.13372e-14 -1.8198e-17 -0.0560135)
(2.76538e-14 -2.97201e-15 -0.0554636)
(-7.19414e-14 4.56961e-14 -0.0573525)
(-5.55832e-13 -3.42415e-14 -0.0616126)
(1.97008e-12 -1.03047e-12 -0.0678384)
(6.51378e-12 1.771e-12 -0.0753104)
(-2.90396e-11 2.42673e-11 -0.0829731)
(-1.36656e-10 5.48263e-11 -0.0893734)
(-2.74524e-10 3.9229e-11 -0.0927385)
(-3.6048e-10 -2.06059e-11 -0.0915734)
(-2.86281e-10 -5.21545e-11 -0.0858807)
(-1.23802e-10 -3.55105e-11 -0.0768857)
(-2.16384e-11 -1.13721e-11 -0.0662455)
(1.15084e-11 -1.88709e-12 -0.0560276)
(1.12106e-11 1.61617e-13 -0.0482428)
(-2.12219e-11 9.86633e-12 -0.0443591)
(-2.90959e-11 1.556e-11 -0.045286)
(3.11168e-10 -5.34914e-11 -0.0519793)
(7.247e-10 -1.57006e-10 -0.0643162)
(-3.00629e-09 2.69564e-10 -0.0754355)
(-2.03384e-08 1.75904e-09 -0.0692695)
(-5.46073e-08 2.92275e-09 -0.0378238)
(-8.86628e-08 1.52216e-09 -0.00224691)
(-9.61828e-08 -1.44426e-09 0.004406)
(-7.16578e-08 -2.79144e-09 -0.0224023)
(-3.59778e-08 -1.92069e-09 -0.0550661)
(-1.0476e-08 -5.24579e-10 -0.0692905)
(1.31336e-10 2.13329e-10 -0.0635379)
(1.82337e-09 1.48403e-10 -0.0500437)
(1.39949e-09 -3.15528e-10 -0.0408041)
(1.51646e-09 -1.23731e-10 -0.0402861)
(-1.51254e-09 3.38818e-09 -0.043357)
(-1.80413e-08 1.38299e-08 -0.0366893)
(-5.80255e-08 3.13175e-08 -0.00744066)
(-1.17909e-07 4.80764e-08 0.045104)
(-1.79666e-07 5.17751e-08 0.112723)
(-2.26991e-07 3.51451e-08 0.188861)
(-2.52303e-07 2.32649e-09 0.259113)
(-2.47343e-07 -3.21269e-08 0.290699)
(-2.04828e-07 -5.17287e-08 0.255562)
(-1.35032e-07 -5.01871e-08 0.164443)
(-6.493e-08 -3.46232e-08 0.0620315)
(-1.66371e-08 -1.69579e-08 -0.0113541)
(5.11531e-09 -4.28169e-09 -0.0440578)
(6.70397e-09 4.29714e-09 -0.0475145)
(-6.08515e-09 1.37913e-08 -0.03993)
(-3.04976e-08 2.66705e-08 -0.038013)
(-6.05126e-08 3.92498e-08 -0.0528556)
(-8.46667e-08 4.49114e-08 -0.0793901)
(-9.46493e-08 4.06618e-08 -0.0900547)
(-9.37406e-08 2.86245e-08 -0.0541079)
(-9.34425e-08 1.15198e-08 0.0319326)
(-1.01012e-07 -9.5846e-09 0.136997)
(-1.10167e-07 -3.16349e-08 0.215066)
(-1.06402e-07 -4.73543e-08 0.232496)
(-8.32258e-08 -5.01779e-08 0.187426)
(-4.88295e-08 -4.00572e-08 0.107687)
(-1.81905e-08 -2.26245e-08 0.0300096)
(-2.35572e-09 -4.01779e-09 -0.0238612)
(-3.84238e-09 1.2211e-08 -0.0582475)
(-1.74772e-08 2.41422e-08 -0.0943037)
(-3.366e-08 2.99749e-08 -0.145723)
(-4.34088e-08 2.89325e-08 -0.198914)
(-4.33245e-08 2.28325e-08 -0.219566)
(-3.66925e-08 1.51073e-08 -0.182722)
(-3.03568e-08 7.83038e-09 -0.0942904)
(-3.00832e-08 1.98156e-10 0.0155341)
(-3.65043e-08 -9.60024e-09 0.112813)
(-4.40713e-08 -2.09678e-08 0.173199)
(-4.53312e-08 -3.00357e-08 0.185861)
(-3.7252e-08 -3.23937e-08 0.154583)
(-2.35516e-08 -2.63374e-08 0.0951089)
(-1.14273e-08 -1.3936e-08 0.0250594)
(-6.17692e-09 2.93395e-10 -0.0474219)
(-8.0136e-09 1.17e-08 -0.12364)
(-1.29197e-08 1.74589e-08 -0.200464)
(-1.62614e-08 1.74713e-08 -0.258919)
(-1.59697e-08 1.38448e-08 -0.272769)
(-1.30336e-08 9.25591e-09 -0.230344)
(-9.99446e-09 5.31408e-09 -0.145087)
(-9.19216e-09 1.94165e-09 -0.045206)
(-1.14378e-08 -1.97655e-09 0.04387)
(-1.53899e-08 -7.16561e-09 0.107841)
(-1.83046e-08 -1.28924e-08 0.141018)
(-1.79865e-08 -1.70929e-08 0.142168)
(-1.43989e-08 -1.76152e-08 0.113081)
(-9.52527e-09 -1.37759e-08 0.0576503)
(-5.6897e-09 -7.00914e-09 -0.0193128)
(-3.89337e-09 -1.20918e-11 -0.110277)
(-3.53068e-09 4.90768e-09 -0.19985)
(-3.39576e-09 6.95558e-09 -0.264101)
(-2.77809e-09 6.7609e-09 -0.281267)
(-1.77466e-09 5.49206e-09 -0.246213)
(-9.6805e-10 4.01978e-09 -0.173865)
(-9.59894e-10 2.58634e-09 -0.0886584)
(-1.97413e-09 9.59928e-10 -0.0108191)
(-3.64764e-09 -1.1525e-09 0.0495356)
(-5.18068e-09 -3.7185e-09 0.0892654)
(-5.81972e-09 -6.21293e-09 0.106928)
(-5.31805e-09 -7.79846e-09 0.0999663)
(-4.0112e-09 -7.83828e-09 0.0653006)
(-2.4786e-09 -6.36491e-09 0.00258097)
(-1.12712e-09 -4.07106e-09 -0.0811256)
(-4.97425e-11 -1.82817e-09 -0.168333)
(8.31675e-10 -1.86012e-10 -0.234703)
(1.58618e-09 7.69169e-10 -0.260312)
(2.20299e-09 1.231e-09 -0.240571)
(2.5997e-09 1.42033e-09 -0.18727)
(2.66103e-09 1.44162e-09 -0.119635)
(2.3145e-09 1.27825e-09 -0.053804)
(1.61833e-09 8.74505e-10 0.00173046)
(7.77656e-10 2.28302e-10 0.0438088)
(5.09299e-11 -5.59575e-10 0.0702136)
(-3.71965e-10 -1.30829e-09 0.0767059)
(-4.31253e-10 -1.84357e-09 0.057541)
(-1.7436e-10 -2.08513e-09 0.00953615)
(3.01534e-10 -2.06549e-09 -0.0623903)
(8.86333e-10 -1.87481e-09 -0.142499)
(1.47295e-09 -1.59441e-09 -0.208431)
(1.97809e-09 -1.27037e-09 -0.241667)
(2.36041e-09 -9.23094e-10 -0.236657)
(2.61323e-09 -5.65032e-10 -0.201533)
(2.73446e-09 -2.11619e-10 -0.150923)
(2.70602e-09 1.16814e-10 -0.0975335)
(2.50683e-09 4.01247e-10 -0.048324)
(2.14237e-09 6.30979e-10 -0.00611073)
(1.66091e-09 7.99183e-10 0.0267416)
(1.14782e-09 8.89347e-10 0.0454139)
(7.02628e-10 8.73056e-10 0.0427675)
(4.08389e-10 7.30512e-10 0.0132)
(3.04877e-10 4.7724e-10 -0.0415801)
(3.77665e-10 1.69283e-10 -0.109182)
(5.68241e-10 -1.20252e-10 -0.169848)
(7.99486e-10 -3.3457e-10 -0.205815)
(1.00283e-09 -4.51805e-10 -0.210208)
(1.13537e-09 -4.85398e-10 -0.188335)
(1.1853e-09 -4.57944e-10 -0.153373)
(1.15709e-09 -4.06951e-10 -0.113433)
(1.09933e-09 -3.48708e-10 -0.0760618)
(9.13123e-10 -1.57196e-10 -0.00826791)
(5.72137e-17 1.86731e-15 -0.0869921)
(2.11809e-16 1.79602e-15 -0.0821762)
(2.79929e-16 2.14268e-17 -0.0775258)
(8.70304e-17 1.77894e-15 -0.0741835)
(1.13494e-15 1.68742e-15 -0.0728166)
(-6.53701e-16 2.01004e-15 -0.073764)
(-7.13133e-16 -1.77938e-18 -0.0770188)
(6.41605e-15 -1.53801e-15 -0.0821768)
(6.22963e-15 -3.2536e-16 -0.0885325)
(-2.04683e-14 3.70177e-15 -0.0951425)
(-2.91858e-14 7.77005e-15 -0.100898)
(4.98682e-14 -9.25479e-15 -0.10521)
(1.83132e-13 -5.20922e-14 -0.107357)
(3.00959e-13 -8.92879e-14 -0.107149)
(3.84376e-13 -6.66833e-14 -0.104597)
(3.86627e-13 9.96676e-15 -0.0999927)
(2.70274e-13 6.3981e-14 -0.0938308)
(1.42831e-13 6.64772e-14 -0.0868548)
(4.21173e-14 4.87936e-14 -0.0800222)
(-4.19995e-14 2.67961e-14 -0.0743197)
(-2.4115e-14 -1.18704e-14 -0.0706598)
(1.32906e-14 2.99365e-14 -0.0697986)
(-8.49666e-13 2.91707e-13 -0.0721613)
(1.857e-12 -1.01344e-12 -0.0777219)
(4.79138e-12 -3.55208e-12 -0.0859634)
(-5.96662e-11 1.54294e-11 -0.0957806)
(5.46347e-11 7.19896e-11 -0.106387)
(1.39596e-09 1.23979e-10 -0.118168)
(3.56658e-09 1.12477e-10 -0.127894)
(3.90915e-09 4.91066e-12 -0.127778)
(2.1085e-09 -1.19373e-10 -0.116569)
(4.85018e-10 -1.32552e-10 -0.100714)
(-5.55702e-11 -6.7508e-11 -0.0848589)
(-5.66686e-11 -1.65791e-11 -0.0707139)
(-2.4427e-11 1.54856e-11 -0.0598538)
(-1.06392e-10 2.15639e-11 -0.0541448)
(2.00598e-10 -1.53555e-10 -0.0558845)
(1.70202e-09 -3.63635e-10 -0.0673339)
(4.25347e-10 1.554e-09 -0.0823797)
(-2.03945e-08 1.00248e-08 -0.0722713)
(-8.21173e-08 2.46905e-08 0.00184757)
(-1.79874e-07 3.27721e-08 0.138225)
(-2.70694e-07 1.99464e-08 0.273009)
(-3.01345e-07 -8.17828e-09 0.322703)
(-2.49948e-07 -2.88797e-08 0.252272)
(-1.49627e-07 -2.93142e-08 0.112496)
(-5.91371e-08 -1.72519e-08 -0.00805944)
(-9.25155e-09 -5.81357e-09 -0.0641452)
(5.97488e-09 -5.93824e-10 -0.0686053)
(6.28524e-09 6.95086e-12 -0.0566563)
(3.29927e-09 1.31137e-09 -0.0496111)
(-7.35366e-09 1.05528e-08 -0.0445508)
(-3.85245e-08 3.23126e-08 -0.0296215)
(-9.11946e-08 6.04886e-08 -0.00682941)
(-1.43083e-07 7.88802e-08 0.012727)
(-1.705e-07 7.5395e-08 0.0441415)
(-1.77479e-07 5.04823e-08 0.125821)
(-1.87848e-07 1.00009e-08 0.260854)
(-2.08554e-07 -3.78254e-08 0.38757)
(-2.13598e-07 -7.64334e-08 0.423976)
(-1.76331e-07 -8.78824e-08 0.340849)
(-1.07143e-07 -7.05293e-08 0.188669)
(-4.0385e-08 -4.01009e-08 0.0477022)
(-8.81777e-10 -1.27755e-08 -0.0338762)
(7.12363e-09 7.34166e-09 -0.0582086)
(-9.19444e-09 2.47576e-08 -0.060589)
(-3.79069e-08 4.10867e-08 -0.0842314)
(-6.27248e-08 5.06239e-08 -0.150139)
(-6.91781e-08 4.79034e-08 -0.228592)
(-5.5215e-08 3.58233e-08 -0.250531)
(-3.24237e-08 2.25201e-08 -0.168484)
(-1.76637e-08 1.14749e-08 -0.00165947)
(-2.3202e-08 -2.06762e-09 0.181837)
(-4.71889e-08 -2.31391e-08 0.312986)
(-7.12487e-08 -4.67849e-08 0.352495)
(-7.51949e-08 -6.02677e-08 0.3002)
(-5.58248e-08 -5.5468e-08 0.191636)
(-2.78091e-08 -3.51721e-08 0.0763049)
(-9.16598e-09 -8.54336e-09 -0.0149114)
(-7.8107e-09 1.55175e-08 -0.0881982)
(-1.83997e-08 3.08914e-08 -0.170587)
(-2.87749e-08 3.4777e-08 -0.268181)
(-2.98982e-08 2.87751e-08 -0.341999)
(-2.11919e-08 1.84153e-08 -0.335668)
(-8.19996e-09 9.64742e-09 -0.228698)
(2.29593e-09 4.9324e-09 -0.0566338)
(4.88813e-09 1.91571e-09 0.117202)
(-2.64751e-09 -4.21616e-09 0.242751)
(-1.67399e-08 -1.56495e-08 0.300277)
(-2.85975e-08 -2.86048e-08 0.292406)
(-3.09045e-08 -3.57087e-08 0.23378)
(-2.39946e-08 -3.18768e-08 0.144356)
(-1.46704e-08 -1.81785e-08 0.0403614)
(-9.41222e-09 -9.00045e-10 -0.0732571)
(-9.17357e-09 1.26748e-08 -0.195428)
(-1.02718e-08 1.84382e-08 -0.308413)
(-9.05567e-09 1.69751e-08 -0.371589)
(-4.91092e-09 1.19176e-08 -0.347409)
(4.01282e-10 6.98054e-09 -0.234892)
(4.63767e-09 3.96364e-09 -0.0742392)
(5.98448e-09 2.35652e-09 0.0798708)
(3.44252e-09 1.57617e-10 0.189424)
(-2.34398e-09 -4.38815e-09 0.2442)
(-8.6789e-09 -1.09995e-08 0.251574)
(-1.23971e-08 -1.70034e-08 0.22234)
(-1.22474e-08 -1.90424e-08 0.16303)
(-9.57742e-09 -1.56394e-08 0.0754352)
(-6.67479e-09 -8.39546e-09 -0.0386958)
(-4.7109e-09 -7.58234e-10 -0.168143)
(-3.36051e-09 4.41321e-09 -0.283814)
(-1.88395e-09 6.33311e-09 -0.345201)
(-4.22657e-11 5.95856e-09 -0.324719)
(1.87209e-09 4.73654e-09 -0.22867)
(3.35772e-09 3.63045e-09 -0.0941196)
(3.88745e-09 2.80091e-09 0.0343554)
(3.08145e-09 1.77915e-09 0.127651)
(1.04793e-09 -3.51323e-11 0.179107)
(-1.42999e-09 -2.78055e-09 0.195727)
(-3.30416e-09 -5.81706e-09 0.185704)
(-3.93982e-09 -7.99455e-09 0.150593)
(-3.43967e-09 -8.40821e-09 0.08613)
(-2.35915e-09 -7.03511e-09 -0.00951932)
(-1.19839e-09 -4.68186e-09 -0.124985)
(-1.76343e-10 -2.34626e-09 -0.23118)
(6.78498e-10 -6.29107e-10 -0.291488)
(1.39899e-09 3.89629e-10 -0.283259)
(2.02338e-09 9.2935e-10 -0.212473)
(2.54958e-09 1.24178e-09 -0.10883)
(2.88188e-09 1.44851e-09 -0.00692113)
(2.85577e-09 1.50305e-09 0.0708524)
(2.3819e-09 1.27025e-09 0.118953)
(1.57494e-09 6.72753e-10 0.142015)
(7.17722e-10 -2.03788e-10 0.145028)
(1.02657e-10 -1.13015e-09 0.126766)
(-1.12218e-10 -1.85984e-09 0.0807553)
(6.29514e-11 -2.25722e-09 0.00349049)
(5.03382e-10 -2.32834e-09 -0.0954031)
(1.04011e-09 -2.15932e-09 -0.190045)
(1.52187e-09 -1.84549e-09 -0.248451)
(1.86714e-09 -1.46099e-09 -0.250922)
(2.07987e-09 -1.05404e-09 -0.201442)
(2.21418e-09 -6.4728e-10 -0.123168)