/*--------------------------------*- C++ -*----------------------------------*\
  =========                 |
  \\      /  F ield         | OpenFOAM: The Open Source CFD Toolbox
   \\    /   O peration     | Website:  https://openfoam.org
    \\  /    A nd           | Version:  11
     \\/     M anipulation  |
\*---------------------------------------------------------------------------*/
FoamFile
{
    format      ascii;
    class       volVectorField;
    location    "14.582257";
    object      vorticity;
}
// * * * * * * * * * * * * * * * * * * * * * * * * * * * * * * * * * * * * * //

dimensions      [0 0 -1 0 0 0 0];

internalField   nonuniform List<vector> 
7132
(
(-6.56352e-17 -1.88589e-15 -0.00928995)
(-2.25029e-16 -1.82623e-15 -0.00886647)
(-2.25595e-16 -4.17217e-17 -0.0085402)
(-2.85576e-16 -1.82552e-15 -0.00841532)
(-3.79154e-16 -1.80588e-15 -0.0085298)
(-3.88896e-16 -7.24569e-18 -0.00887416)
(-3.62021e-16 2.54016e-17 -0.00939794)
(-3.04115e-16 3.95379e-17 -0.0100165)
(-2.75053e-16 4.73196e-17 -0.0106287)
(-2.57352e-16 4.85342e-17 -0.0111326)
(-1.89031e-16 4.15248e-17 -0.0114406)
(-8.14687e-17 3.13572e-17 -0.0115196)
(-1.00664e-16 2.51967e-17 -0.01137)
(-1.77772e-16 4.84842e-17 -0.0110475)
(-1.71904e-16 -1.67039e-15 -0.0106525)
(-1.02105e-16 -1.69172e-15 -0.010314)
(-1.52553e-17 -1.72828e-15 -0.0101481)
(1.86105e-17 -2.78558e-18 -0.010208)
(7.72269e-17 -3.47001e-15 -0.0104655)
(9.27789e-17 -1.75475e-15 -0.0108276)
(5.78957e-17 -1.59975e-17 -0.0111686)
(1.06482e-17 -3.48805e-18 -0.0113564)
(3.13583e-16 -6.63677e-18 -0.0112741)
(1.21045e-16 1.55409e-16 -0.0108479)
(-7.64309e-15 1.9242e-15 -0.0101103)
(1.99007e-15 -1.3679e-15 -0.00926761)
(1.78798e-13 -3.70933e-15 -0.00855487)
(5.05447e-13 -2.69897e-15 -0.00810652)
(5.8366e-13 1.09019e-15 -0.00798693)
(3.38157e-13 4.6561e-15 -0.00829906)
(1.00226e-13 3.82105e-15 -0.00914422)
(4.34922e-15 3.27217e-15 -0.0103954)
(-2.48579e-14 2.4221e-15 -0.0117033)
(8.97098e-16 -2.74656e-15 -0.012729)
(1.87737e-13 -1.4085e-14 -0.0132477)
(1.00766e-13 5.09131e-14 -0.0131504)
(-2.34706e-12 1.97907e-13 -0.0124355)
(-6.50352e-12 -1.82818e-13 -0.0112426)
(1.25966e-11 -2.22218e-12 -0.00995914)
(1.26546e-10 -5.75715e-12 -0.00916713)
(3.79027e-10 -7.59589e-12 -0.00914727)
(6.39283e-10 -4.70759e-12 -0.00953744)
(6.85886e-10 1.06245e-12 -0.00977143)
(4.91718e-10 5.52255e-12 -0.00988186)
(2.37909e-10 6.71344e-12 -0.0104441)
(7.00445e-11 4.88669e-12 -0.0116842)
(-5.14622e-13 2.15122e-12 -0.0131855)
(-1.53196e-11 5.98414e-13 -0.0143744)
(-7.24893e-12 -2.41558e-13 -0.0148573)
(1.63307e-11 -1.09154e-12 -0.0145261)
(3.56671e-11 1.73688e-12 -0.0134998)
(-8.04569e-11 1.40886e-11 -0.0119455)
(-6.57617e-10 3.5518e-11 -0.00995878)
(-2.10365e-09 5.84669e-11 -0.00753894)
(-4.41078e-09 7.22585e-11 -0.00480445)
(-6.67526e-09 6.80185e-11 -0.00255868)
(-7.58603e-09 4.10685e-11 -0.00197063)
(-6.6346e-09 -1.20937e-11 -0.00352893)
(-4.51067e-09 -7.69016e-11 -0.00679654)
(-2.31335e-09 -1.04358e-10 -0.0107629)
(-7.74702e-10 -7.60744e-11 -0.014106)
(-2.90879e-11 -3.29306e-11 -0.0160438)
(1.77051e-10 -5.6514e-12 -0.0165183)
(1.45688e-10 2.26129e-11 -0.0157272)
(4.46815e-12 1.00316e-10 -0.0135661)
(-3.4608e-10 2.63468e-10 -0.00943001)
(-1.13769e-09 4.95357e-10 -0.00261634)
(-2.52528e-09 7.13557e-10 0.00691547)
(-4.34792e-09 7.95746e-10 0.0180741)
(-6.0626e-09 6.48407e-10 0.0286587)
(-6.98889e-09 2.79681e-10 0.0358576)
(-6.72575e-09 -1.9154e-10 0.0371083)
(-5.41481e-09 -6.00263e-10 0.0312731)
(-3.61884e-09 -8.12887e-10 0.0196247)
(-1.93473e-09 -7.81642e-10 0.00560257)
(-7.32983e-10 -5.74958e-10 -0.00674102)
(-7.88648e-11 -3.57692e-10 -0.0145143)
(1.97553e-10 -3.03423e-10 -0.0168621)
(3.52495e-10 -4.85347e-10 -0.0146817)
(5.82312e-10 -8.33898e-10 -0.00975853)
(9.41415e-10 -1.19475e-09 -0.00398797)
(1.35703e-09 -1.42829e-09 0.00124364)
(1.72892e-09 -1.47096e-09 0.00582846)
(2.02442e-09 -1.32626e-09 0.0109779)
(2.27765e-09 -1.0153e-09 0.0178767)
(2.50534e-09 -5.4264e-10 0.0258944)
(2.63741e-09 9.42139e-11 0.032114)
(2.55125e-09 8.58496e-10 0.0330128)
(2.18769e-09 1.60271e-09 0.0270292)
(1.60489e-09 2.05046e-09 0.0156094)
(9.54758e-10 1.93602e-09 0.00250424)
(4.21126e-10 1.22261e-09 -0.00827563)
(1.5034e-10 1.73696e-10 -0.0147877)
(2.03882e-10 -8.17661e-10 -0.0180678)
(5.47593e-10 -1.47442e-09 -0.0209159)
(1.07235e-09 -1.73716e-09 -0.0255228)
(1.63359e-09 -1.69667e-09 -0.0314676)
(2.09698e-09 -1.48093e-09 -0.0358408)
(2.37342e-09 -1.18751e-09 -0.0353953)
(2.4334e-09 -8.63618e-10 -0.0287481)
(2.29945e-09 -5.0058e-10 -0.0172256)
(2.02394e-09 -3.33566e-11 -0.00421099)
(1.66654e-09 6.15793e-10 0.00656904)
(1.27886e-09 1.41473e-09 0.0124271)
(8.97967e-10 2.11429e-09 0.0121929)
(5.57425e-10 2.33462e-09 0.00651041)
(2.99194e-10 1.85708e-09 -0.00280164)
(1.6824e-10 8.49829e-10 -0.0141446)
(1.90023e-10 -2.38409e-10 -0.0270062)
(3.495e-10 -1.00837e-09 -0.0414288)
(5.89614e-10 -1.32718e-09 -0.0564942)
(8.34347e-10 -1.29109e-09 -0.0693516)
(1.02004e-09 -1.06998e-09 -0.0764194)
(1.11312e-09 -7.97867e-10 -0.0755688)
(1.10914e-09 -5.46549e-10 -0.06721)
(1.0232e-09 -3.37419e-10 -0.0537704)
(8.8154e-10 -1.49558e-10 -0.0383984)
(7.15409e-10 7.73855e-11 -0.0236446)
(5.53273e-10 4.11147e-10 -0.0109429)
(4.11911e-10 8.5392e-10 -0.001292)
(2.96355e-10 1.28434e-09 0.00428725)
(2.07873e-10 1.49867e-09 0.00465978)
(1.50589e-10 1.35288e-09 -0.00120465)
(1.30043e-10 8.7981e-10 -0.0137583)
(1.46862e-10 2.66035e-10 -0.0323122)
(1.92968e-10 -2.78896e-10 -0.0545395)
(2.53304e-10 -6.33768e-10 -0.0764564)
(3.11501e-10 -7.85289e-10 -0.0935805)
(3.5495e-10 -7.8351e-10 -0.102652)
(3.76802e-10 -6.91759e-10 -0.102729)
(3.7544e-10 -5.60427e-10 -0.0951198)
(3.53246e-10 -4.21817e-10 -0.0824575)
(3.15596e-10 -2.93063e-10 -0.0674186)
(2.69886e-10 -1.79541e-10 -0.0518352)
(2.23813e-10 -7.70503e-11 -0.0366321)
(1.83477e-10 2.44773e-11 -0.0220083)
(1.52204e-10 1.33583e-10 -0.00788174)
(1.30646e-10 2.50178e-10 0.00562372)
(1.18304e-10 3.64306e-10 0.0178558)
(1.15575e-10 4.61748e-10 0.0276571)
(1.24603e-10 5.31416e-10 0.0338049)
(1.47987e-10 5.6938e-10 0.0355999)
(1.85838e-10 5.78268e-10 0.0332051)
(2.33148e-10 5.63766e-10 0.0274982)
(2.79576e-10 5.30505e-10 0.019537)
(3.12396e-10 4.78867e-10 0.0100334)
(3.21605e-10 4.02908e-10 -0.000420233)
(3.03705e-10 2.90155e-10 -0.010973)
(2.62416e-10 1.2692e-10 -0.0206305)
(2.07008e-10 -8.81059e-11 -0.0284114)
(1.49123e-10 -3.28047e-10 -0.0335542)
(9.92326e-11 -5.35828e-10 -0.0357037)
(6.37805e-11 -6.46722e-10 -0.0349409)
(4.39494e-11 -6.23531e-10 -0.0316604)
(3.65395e-11 -4.76491e-10 -0.0262836)
(3.6608e-11 -2.5634e-10 -0.0193634)
(3.98555e-11 -1.45324e-11 -0.010999)
(4.68569e-11 1.60898e-10 -0.00279546)
(5.20489e-11 4.37673e-10 0.00697798)
(8.79047e-11 3.3038e-10 0.0159892)
(-6.62833e-17 -6.47395e-18 -0.0278137)
(-2.35905e-16 -1.13102e-17 -0.0265298)
(-2.49249e-16 -1.27186e-17 -0.0255215)
(-3.1921e-16 -1.5707e-17 -0.0251054)
(-4.32236e-16 -1.78076e-17 -0.0254093)
(-4.63991e-16 -1.41182e-17 -0.026425)
(-4.39498e-16 -1.69888e-17 -0.0280245)
(-4.39056e-16 -3.94609e-18 -0.0299731)
(-4.00797e-16 1.75866e-15 -0.0319779)
(-2.22107e-16 5.52352e-18 -0.0337313)
(1.9077e-17 -4.64168e-17 -0.0349471)
(-2.15094e-16 1.7219e-15 -0.0354876)
(-1.16899e-15 7.33484e-17 -0.0352882)
(-2.11027e-15 8.32571e-17 -0.0344319)
(-2.04692e-15 2.6602e-17 -0.0331087)
(-1.17511e-15 -3.27784e-17 -0.0315771)
(-3.60787e-16 -5.40233e-17 -0.0301286)
(6.52213e-17 -4.73326e-17 -0.0290086)
(2.45626e-16 -3.42614e-17 -0.0283663)
(2.71776e-16 -1.37489e-17 -0.0282426)
(2.35142e-17 2.16797e-17 -0.0285796)
(-4.3593e-17 -1.31332e-16 -0.0292408)
(2.39196e-15 -6.18353e-17 -0.030047)
(-4.19476e-15 4.13332e-15 -0.0308348)
(-4.68644e-14 -7.45042e-16 -0.0315446)
(9.18781e-14 -9.45883e-14 -0.0322584)
(9.99032e-13 -2.55438e-13 -0.0329385)
(2.52051e-12 -2.0513e-13 -0.0332771)
(3.24006e-12 8.47386e-14 -0.0329296)
(2.23499e-12 2.44639e-13 -0.0319404)
(7.9021e-13 1.7072e-13 -0.0307751)
(6.10598e-14 6.23437e-14 -0.0298627)
(-1.78946e-13 2.41175e-15 -0.0293632)
(9.23602e-14 -1.10782e-13 -0.0292268)
(1.25963e-12 -6.74889e-14 -0.0292881)
(-3.88776e-13 1.31831e-12 -0.029386)
(-1.63675e-11 3.49832e-12 -0.0295258)
(-3.16913e-11 -7.65638e-12 -0.0300514)
(1.11162e-10 -6.87484e-11 -0.0317947)
(7.5669e-10 -1.88976e-10 -0.0357699)
(2.02127e-09 -2.63965e-10 -0.0416937)
(3.30138e-09 -1.58139e-10 -0.0469086)
(3.63325e-09 7.48431e-11 -0.0481128)
(2.75108e-09 2.2951e-10 -0.0447394)
(1.41808e-09 2.17547e-10 -0.0394636)
(4.6274e-10 1.24098e-10 -0.0351008)
(2.14483e-11 4.48315e-11 -0.0325101)
(-8.97735e-11 3.96383e-12 -0.0312976)
(-4.52569e-11 -1.60684e-11 -0.0307582)
(9.54309e-11 -2.2553e-11 -0.0305373)
(1.74698e-10 5.01289e-11 -0.0306236)
(-6.22324e-10 3.60732e-10 -0.0303336)
(-4.1601e-09 1.04712e-09 -0.0271141)
(-1.24465e-08 1.93505e-09 -0.0174433)
(-2.4977e-08 2.35806e-09 -0.00111463)
(-3.69862e-08 1.65564e-09 0.0153658)
(-4.19771e-08 2.07416e-11 0.0224917)
(-3.70812e-08 -1.54978e-09 0.0159427)
(-2.55116e-08 -2.23752e-09 -1.14864e-05)
(-1.33144e-08 -1.97234e-09 -0.0171064)
(-4.63195e-09 -1.21821e-09 -0.0291601)
(-3.19999e-10 -5.08805e-10 -0.0345659)
(9.30709e-10 -9.30413e-11 -0.0351525)
(7.8111e-10 1.08906e-10 -0.0331604)
(7.45683e-11 3.46199e-10 -0.0288935)
(-1.36128e-09 8.3455e-10 -0.0205019)
(-4.17162e-09 1.58496e-09 -0.00573505)
(-8.59279e-09 2.31867e-09 0.0157656)
(-1.38666e-08 2.56441e-09 0.0420579)
(-1.8478e-08 1.96889e-09 0.0698923)
(-2.09053e-08 6.11257e-10 0.0940925)
(-2.02684e-08 -9.78574e-10 0.106702)
(-1.67449e-08 -2.15372e-09 0.100368)
(-1.15885e-08 -2.55293e-09 0.0745234)
(-6.45313e-09 -2.22457e-09 0.03729)
(-2.5842e-09 -1.50289e-09 0.00109314)
(-3.60482e-10 -8.22958e-10 -0.0239593)
(6.26629e-10 -5.19105e-10 -0.0342657)
(1.10106e-09 -6.77725e-10 -0.0327909)
(1.59206e-09 -1.12836e-09 -0.0263222)
(2.20379e-09 -1.58211e-09 -0.0216179)
(2.76963e-09 -1.82204e-09 -0.0214631)
(3.17404e-09 -1.80465e-09 -0.0220695)
(3.4899e-09 -1.60062e-09 -0.0152199)
(3.88483e-09 -1.25577e-09 0.00501307)
(4.45742e-09 -7.22517e-10 0.0364051)
(5.08797e-09 7.12597e-11 0.0682179)
(5.41532e-09 1.08335e-09 0.0867614)
(5.08951e-09 2.07589e-09 0.0836153)
(4.04877e-09 2.66692e-09 0.0601492)
(2.59752e-09 2.5279e-09 0.0262688)
(1.2646e-09 1.62482e-09 -0.006023)
(5.35087e-10 2.82317e-10 -0.0305543)
(6.29387e-10 -1.01629e-09 -0.0501412)
(1.44659e-09 -1.90866e-09 -0.0719579)
(2.6677e-09 -2.28015e-09 -0.0989897)
(3.92592e-09 -2.20899e-09 -0.125128)
(4.93518e-09 -1.85085e-09 -0.138987)
(5.53551e-09 -1.35572e-09 -0.132312)
(5.68441e-09 -8.26631e-10 -0.104843)
(5.42943e-09 -2.95844e-10 -0.0632959)
(4.8675e-09 2.83101e-10 -0.0179385)
(4.10386e-09 9.8833e-10 0.0207765)
(3.22922e-09 1.79902e-09 0.0446192)
(2.3182e-09 2.47501e-09 0.0492382)
(1.46603e-09 2.63401e-09 0.0353626)
(8.09049e-10 2.05168e-09 0.00721149)
(4.82891e-10 9.04414e-10 -0.0312888)
(5.41033e-10 -3.29037e-10 -0.0782953)
(9.0714e-10 -1.20816e-09 -0.131248)
(1.40936e-09 -1.5696e-09 -0.182532)
(1.87188e-09 -1.50631e-09 -0.219743)
(2.18749e-09 -1.20937e-09 -0.232307)
(2.32844e-09 -8.42415e-10 -0.217927)
(2.31385e-09 -5.01591e-10 -0.182932)
(2.17498e-09 -2.23616e-10 -0.1375)
(1.94166e-09 4.34095e-12 -0.0906494)
(1.64725e-09 2.41519e-10 -0.0479441)
(1.33161e-09 5.62898e-10 -0.0121722)
(1.02584e-09 9.8238e-10 0.0144974)
(7.50262e-10 1.38636e-09 0.0291126)
(5.27201e-10 1.57156e-09 0.0277337)
(3.86292e-10 1.3918e-09 0.00648161)
(3.49302e-10 8.81675e-10 -0.0362257)
(4.105e-10 2.34574e-10 -0.096953)
(5.34931e-10 -3.32116e-10 -0.165783)
(6.75456e-10 -6.93032e-10 -0.228255)
(7.9314e-10 -8.36111e-10 -0.270888)
(8.67393e-10 -8.16159e-10 -0.286603)
(8.94249e-10 -7.02e-10 -0.276332)
(8.78545e-10 -5.48647e-10 -0.246692)
(8.27096e-10 -3.91893e-10 -0.206169)
(7.47483e-10 -2.51383e-10 -0.161876)
(6.50531e-10 -1.33647e-10 -0.118269)
(5.49321e-10 -3.38426e-11 -0.0772176)
(4.55555e-10 6.02832e-11 -0.0387136)
(3.75869e-10 1.6e-10 -0.00222492)
(3.11937e-10 2.67128e-10 0.0317771)
(2.64736e-10 3.71844e-10 0.0610804)
(2.40367e-10 4.586e-10 0.0823587)
(2.51594e-10 5.15212e-10 0.0930654)
(3.11617e-10 5.38764e-10 0.0930924)
(4.23229e-10 5.35687e-10 0.0847193)
(5.71183e-10 5.16899e-10 0.0710043)
(7.23403e-10 4.90883e-10 0.0540531)
(8.40612e-10 4.57854e-10 0.0343099)
(8.90888e-10 4.07256e-10 0.0117716)
(8.60981e-10 3.19749e-10 -0.0125001)
(7.59286e-10 1.75271e-10 -0.0363741)
(6.11779e-10 -3.14576e-11 -0.0571376)
(4.5263e-10 -2.74158e-10 -0.0723094)
(3.12952e-10 -4.93155e-10 -0.0804047)
(2.11671e-10 -6.1908e-10 -0.0812065)
(1.519e-10 -6.09909e-10 -0.0754707)
(1.24099e-10 -4.72819e-10 -0.064139)
(1.1442e-10 -2.57996e-10 -0.0485004)
(1.11908e-10 -1.96551e-11 -0.0284987)
(1.20486e-10 1.54801e-10 -0.00829861)
(1.26219e-10 4.17151e-10 0.0172711)
(2.21618e-10 3.12454e-10 0.0418619)
(-2.06772e-18 -7.67728e-20 -0.0461654)
(-2.57603e-17 -1.93816e-20 -0.0439861)
(-5.174e-17 -6.91203e-20 -0.0422553)
(-8.09827e-17 7.01391e-19 -0.0415114)
(-1.33367e-16 1.22923e-18 -0.0419822)
(-1.24835e-16 -3.6144e-18 -0.0436726)
(-2.09411e-16 1.29339e-17 -0.0463868)
(-5.10765e-16 3.37399e-17 -0.0497448)
(2.18595e-16 -6.11545e-17 -0.0532626)
(1.26562e-15 -1.74955e-16 -0.0564171)
(-1.20444e-15 4.47943e-17 -0.058704)
(-6.37872e-15 6.25391e-16 -0.0598687)
(-8.49836e-15 9.66009e-16 -0.0597396)
(-5.17643e-15 4.87449e-16 -0.0583743)
(3.94369e-16 -4.03251e-16 -0.0559925)
(4.10113e-15 -8.00062e-16 -0.0529326)
(4.5905e-15 -6.13725e-16 -0.0496126)
(3.27853e-15 -3.05992e-16 -0.0464935)
(1.86152e-15 -1.03843e-16 -0.0440213)
(5.56442e-16 9.10297e-17 -0.0425709)
(-8.0025e-16 1.41687e-16 -0.0424008)
(3.91051e-15 -1.18771e-15 -0.0436051)
(-1.43543e-14 2.06895e-15 -0.0460979)
(-7.16054e-14 2.47836e-14 -0.0496426)
(5.82826e-13 -4.78469e-14 -0.0538909)
(3.43648e-13 -5.24316e-13 -0.0583407)
(-1.51295e-11 -1.21803e-12 -0.062147)
(-4.537e-11 -1.12321e-12 -0.064195)
(-5.19721e-11 1.43853e-13 -0.0635599)
(-2.82958e-11 1.22785e-12 -0.0601032)
(-7.01341e-12 1.08905e-12 -0.0546179)
(3.17802e-14 4.86121e-13 -0.0483861)
(4.48377e-13 -1.32315e-14 -0.0427307)
(1.40139e-12 -7.23763e-13 -0.0386746)
(2.88747e-12 2.24748e-13 -0.036793)
(-1.01021e-11 8.86275e-12 -0.0372827)
(-3.74413e-11 1.58474e-11 -0.0402794)
(3.03563e-11 -6.39475e-11 -0.046213)
(3.24376e-10 -3.96415e-10 -0.0556404)
(3.8019e-10 -9.60811e-10 -0.0679257)
(-7.03999e-10 -1.27994e-09 -0.0800875)
(-2.12857e-09 -8.10701e-10 -0.0887983)
(-1.89437e-09 2.76217e-10 -0.0916055)
(-3.11293e-10 1.1131e-09 -0.086493)
(7.33176e-10 1.15088e-09 -0.0744708)
(7.6955e-10 7.03203e-10 -0.0601087)
(3.06844e-10 2.78406e-10 -0.047448)
(-5.50973e-11 3.3951e-11 -0.0387519)
(-4.49807e-11 -9.28455e-11 -0.0347029)
(3.26813e-10 -1.11071e-10 -0.0352492)
(2.71212e-10 3.60614e-10 -0.0390796)
(-3.03987e-09 2.18149e-09 -0.0408399)
(-1.44588e-08 5.9476e-09 -0.029893)
(-3.70971e-08 1.04669e-08 0.00300474)
(-6.72589e-08 1.23421e-08 0.0546447)
(-9.45532e-08 8.5681e-09 0.107173)
(-1.0727e-07 8.8619e-11 0.136749)
(-9.88344e-08 -8.24485e-09 0.127414)
(-7.2838e-08 -1.19603e-08 0.0837554)
(-4.15044e-08 -1.05442e-08 0.0287345)
(-1.64912e-08 -6.57325e-09 -0.0146045)
(-2.50946e-09 -2.81426e-09 -0.0368305)
(2.35939e-09 -5.56206e-10 -0.042234)
(2.3725e-09 4.50687e-10 -0.0394185)
(3.72157e-10 1.17151e-09 -0.0330908)
(-3.15112e-09 2.38656e-09 -0.0233832)
(-8.61943e-09 4.11111e-09 -0.00996065)
(-1.54534e-08 5.56103e-09 0.00644568)
(-2.18198e-08 5.73835e-09 0.028454)
(-2.61585e-08 4.16775e-09 0.0628737)
(-2.81106e-08 1.17489e-09 0.110459)
(-2.76751e-08 -2.27172e-09 0.15648)
(-2.447e-08 -4.9402e-09 0.176945)
(-1.85912e-08 -5.95877e-09 0.157228)
(-1.14967e-08 -5.2838e-09 0.104575)
(-5.24535e-09 -3.62128e-09 0.041971)
(-1.11636e-09 -1.9631e-09 -0.0076805)
(9.51033e-10 -1.03419e-09 -0.0341592)
(1.7945e-09 -9.68059e-10 -0.0430135)
(2.12952e-09 -1.38526e-09 -0.0496409)
(2.20721e-09 -1.78353e-09 -0.0674515)
(2.13242e-09 -1.91341e-09 -0.0958548)
(2.13651e-09 -1.83109e-09 -0.117651)
(2.39651e-09 -1.68165e-09 -0.11157)
(2.87121e-09 -1.49906e-09 -0.069047)
(3.485e-09 -1.14421e-09 6.70878e-05)
(4.25882e-09 -3.84729e-10 0.0735057)
(5.0572e-09 8.57727e-10 0.126469)
(5.41397e-09 2.28599e-09 0.142192)
(4.8885e-09 3.29646e-09 0.119215)
(3.54428e-09 3.3281e-09 0.0711135)
(2.00591e-09 2.25383e-09 0.0164697)
(1.03789e-09 4.91303e-10 -0.034943)
(1.04592e-09 -1.27341e-09 -0.087069)
(1.90722e-09 -2.49358e-09 -0.147263)
(3.1809e-09 -2.97682e-09 -0.210596)
(4.43509e-09 -2.83041e-09 -0.256642)
(5.41886e-09 -2.28573e-09 -0.264301)
(6.03878e-09 -1.56212e-09 -0.228412)
(6.27254e-09 -8.10575e-10 -0.161457)
(6.13268e-09 -9.21267e-11 -0.0824842)
(5.66995e-09 6.29429e-10 -0.00721595)
(4.9551e-09 1.43493e-09 0.0535016)
(4.04803e-09 2.30757e-09 0.0911626)
(3.01042e-09 2.99589e-09 0.0998435)
(1.97212e-09 3.08919e-09 0.0783386)
(1.1503e-09 2.34865e-09 0.0295526)
(7.46786e-10 9.83837e-10 -0.0429347)
(8.00173e-10 -4.50533e-10 -0.134738)
(1.14825e-09 -1.44253e-09 -0.234292)
(1.54628e-09 -1.80954e-09 -0.318641)
(1.8231e-09 -1.68015e-09 -0.361617)
(1.94061e-09 -1.29827e-09 -0.349927)
(1.94914e-09 -8.61048e-10 -0.291522)
(1.91304e-09 -4.69815e-10 -0.209191)
(1.86305e-09 -1.51323e-10 -0.12644)
(1.78897e-09 1.14306e-10 -0.0569617)
(1.66391e-09 3.82408e-10 -0.00342824)
(1.47291e-09 7.21851e-10 0.036515)
(1.2199e-09 1.1446e-09 0.0640924)
(9.33938e-10 1.53366e-09 0.0758693)
(6.7569e-10 1.68066e-09 0.0639224)
(5.19583e-10 1.44183e-09 0.0196161)
(5.08642e-10 8.67706e-10 -0.0598395)
(6.22866e-10 1.73222e-10 -0.164941)
(7.93522e-10 -4.11374e-10 -0.27287)
(9.46416e-10 -7.62872e-10 -0.355803)
(1.03652e-09 -8.81257e-10 -0.394263)
(1.05603e-09 -8.34065e-10 -0.385345)
(1.02261e-09 -6.97331e-10 -0.340551)
(9.6073e-10 -5.2685e-10 -0.277026)
(8.86698e-10 -3.56286e-10 -0.209282)
(8.05134e-10 -2.0478e-10 -0.145487)
(7.15878e-10 -8.04603e-11 -0.0884165)
(6.20429e-10 2.04411e-11 -0.0372612)
(5.22034e-10 1.11204e-10 0.0102375)
(4.21843e-10 2.05392e-10 0.0553975)
(3.20061e-10 3.05744e-10 0.096304)
(2.24487e-10 4.00091e-10 0.127909)
(1.59266e-10 4.6832e-10 0.145458)
(1.61112e-10 4.95791e-10 0.148845)
(2.59698e-10 4.83562e-10 0.14338)
(4.5629e-10 4.48485e-10 0.135665)
(7.17612e-10 4.13679e-10 0.128573)
(9.87305e-10 3.95793e-10 0.11989)
(1.20436e-09 3.95125e-10 0.104889)
(1.32017e-09 3.92723e-10 0.0802455)
(1.31146e-09 3.55956e-10 0.0465242)
(1.18613e-09 2.51521e-10 0.00786298)
(9.80396e-10 6.52239e-11 -0.0297719)
(7.46393e-10 -1.78633e-10 -0.0607468)
(5.34055e-10 -4.15349e-10 -0.0814143)
(3.74729e-10 -5.66196e-10 -0.0906254)
(2.74064e-10 -5.79745e-10 -0.0891434)
(2.17199e-10 -4.5775e-10 -0.0782732)
(1.8318e-10 -2.50244e-10 -0.0599749)
(1.5738e-10 -1.75653e-11 -0.0339407)
(1.49813e-10 1.53742e-10 -0.00660822)
(1.43265e-10 3.87107e-10 0.0309779)
(2.788e-10 2.82683e-10 0.0693495)
(-6.16604e-17 7.44004e-18 -0.064212)
(-2.1978e-16 1.3526e-17 -0.0610892)
(-1.99967e-16 1.48926e-17 -0.0585946)
(-2.79468e-16 2.51064e-17 -0.0574999)
(-2.86002e-16 4.11872e-18 -0.0581341)
(-1.33562e-16 2.39037e-17 -0.0605078)
(-1.08883e-15 1.75976e-16 -0.0643449)
(3.93608e-16 -2.17949e-16 -0.069105)
(3.84656e-15 8.7047e-16 -0.0741035)
(-3.25912e-15 7.17043e-16 -0.0785927)
(-2.11009e-14 2.04103e-15 -0.0818447)
(-1.82686e-14 5.36885e-15 -0.083531)
(4.27508e-14 -5.27796e-16 -0.0833895)
(1.40256e-13 -4.36311e-15 -0.0815101)
(1.88223e-13 -4.61218e-15 -0.0781798)
(1.50846e-13 -2.13084e-15 -0.0737874)
(8.62249e-14 3.57275e-16 -0.0688922)
(3.3517e-14 1.31716e-15 -0.0641728)
(4.66316e-15 1.32678e-15 -0.0603068)
(-1.03341e-14 1.31714e-15 -0.0578983)
(-1.53107e-15 -1.65536e-15 -0.0574247)
(2.26344e-14 6.64569e-15 -0.0591406)
(-3.35195e-13 3.76961e-14 -0.0629919)
(1.24153e-13 -2.94457e-13 -0.0686042)
(6.39257e-12 -2.08372e-13 -0.0753328)
(-8.14442e-12 7.76157e-12 -0.0822603)
(-1.28064e-10 2.26014e-11 -0.0880203)
(-3.3283e-10 1.82162e-11 -0.09103)
(-4.20467e-10 -8.45235e-12 -0.0901377)
(-2.87283e-10 -2.22347e-11 -0.0852273)
(-1.02469e-10 -1.39931e-11 -0.0771253)
(-1.17731e-11 -3.66855e-12 -0.0673032)
(9.14843e-12 -6.82392e-13 -0.0577331)
(9.35046e-12 -1.33033e-12 -0.0503442)
(-9.26597e-12 5.68427e-12 -0.0465573)
(-4.15635e-11 2.14827e-11 -0.0471598)
(1.39929e-10 -1.67309e-11 -0.0528743)
(6.19566e-10 -1.88565e-10 -0.0641909)
(-1.13343e-09 -2.43665e-10 -0.077301)
(-1.23383e-08 3.25211e-10 -0.079849)
(-3.70562e-08 9.90414e-10 -0.062295)
(-6.31494e-08 4.37048e-10 -0.0384932)
(-6.94981e-08 -8.33794e-10 -0.034642)
(-5.11544e-08 -1.08426e-09 -0.0537708)
(-2.46676e-08 -3.22874e-10 -0.0734116)
(-6.44403e-09 3.37264e-10 -0.0767608)
(5.53759e-10 4.57155e-10 -0.0656333)
(1.28772e-09 1.79876e-10 -0.0510331)
(7.76563e-10 -2.07024e-10 -0.0422637)
(8.69472e-10 -1.8065e-10 -0.0425075)
(-6.03892e-10 1.73347e-09 -0.0469773)
(-9.8848e-09 7.72574e-09 -0.041866)
(-3.31599e-08 1.80757e-08 -0.0109857)
(-6.85287e-08 2.83351e-08 0.0497289)
(-1.05204e-07 3.10861e-08 0.129892)
(-1.33566e-07 2.16611e-08 0.215801)
(-1.49583e-07 2.16134e-09 0.286779)
(-1.48245e-07 -1.87657e-08 0.308733)
(-1.24084e-07 -3.09025e-08 0.258615)
(-8.24432e-08 -3.01457e-08 0.155735)
(-3.98514e-08 -2.07157e-08 0.0496952)
(-1.04148e-08 -9.93412e-09 -0.0209223)
(2.79718e-09 -2.53402e-09 -0.0494263)
(4.73872e-09 1.10252e-09 -0.050253)
(1.03584e-09 3.10801e-09 -0.0404285)
(-5.50621e-09 5.33034e-09 -0.0334266)
(-1.33401e-08 7.73608e-09 -0.0393487)
(-1.99042e-08 8.91886e-09 -0.0562808)
(-2.25985e-08 7.91698e-09 -0.0606582)
(-2.15069e-08 5.11429e-09 -0.0222798)
(-1.95511e-08 1.36955e-09 0.0646924)
(-1.93012e-08 -2.79889e-09 0.170248)
(-2.00337e-08 -6.69568e-09 0.24599)
(-1.87998e-08 -9.03956e-09 0.255546)
(-1.42755e-08 -8.8975e-09 0.198515)
(-8.02904e-09 -6.69306e-09 0.107723)
(-2.57056e-09 -3.92115e-09 0.0242109)
(7.64348e-10 -1.97454e-09 -0.0297054)
(2.08748e-09 -1.26697e-09 -0.0616408)
(2.09309e-09 -1.33472e-09 -0.0979638)
(1.55786e-09 -1.58356e-09 -0.156105)
(1.32214e-09 -1.78669e-09 -0.221182)
(1.96531e-09 -1.93669e-09 -0.252586)
(3.3294e-09 -1.96797e-09 -0.219011)
(4.63183e-09 -1.80002e-09 -0.124589)
(5.19754e-09 -1.41632e-09 -0.00185315)
(5.0999e-09 -7.14838e-10 0.111943)
(4.93465e-09 5.05781e-10 0.188979)
(4.90626e-09 2.16024e-09 0.213818)
(4.60098e-09 3.60177e-09 0.18614)
(3.66805e-09 3.9692e-09 0.121426)
(2.39224e-09 2.87801e-09 0.0405916)
(1.47571e-09 7.6231e-10 -0.0463081)
(1.38482e-09 -1.45095e-09 -0.1434)
(2.02922e-09 -2.97614e-09 -0.250742)
(2.98931e-09 -3.54408e-09 -0.344675)
(3.90231e-09 -3.32796e-09 -0.385278)
(4.62973e-09 -2.65269e-09 -0.347962)
(5.17354e-09 -1.78256e-09 -0.244726)
(5.52701e-09 -8.73583e-10 -0.11471)
(5.62547e-09 5.45034e-12 0.00320828)
(5.41276e-09 8.71893e-10 0.0897421)
(4.8956e-09 1.79929e-09 0.143334)
(4.11525e-09 2.77136e-09 0.16685)
(3.13828e-09 3.51296e-09 0.160048)
(2.11831e-09 3.56407e-09 0.120097)
(1.30919e-09 2.66434e-09 0.0443076)
(9.20109e-10 1.07948e-09 -0.067668)
(9.39782e-10 -5.29769e-10 -0.207103)
(1.14803e-09 -1.58122e-09 -0.346352)
(1.3054e-09 -1.90702e-09 -0.441131)
(1.31015e-09 -1.70347e-09 -0.453391)
(1.20163e-09 -1.27238e-09 -0.376684)
(1.07418e-09 -8.28634e-10 -0.240424)
(1.00352e-09 -4.58546e-10 -0.0917076)
(1.01711e-09 -1.61581e-10 0.0293671)
(1.09271e-09 1.0391e-10 0.105435)
(1.17141e-09 3.99547e-10 0.141653)
(1.18261e-09 7.849e-10 0.153295)
(1.08172e-09 1.25187e-09 0.15226)
(8.8433e-10 1.65846e-09 0.138454)
(6.76347e-10 1.77874e-09 0.0999772)
(5.69662e-10 1.47532e-09 0.022168)
(6.22511e-10 8.30033e-10 -0.0978872)
(7.98952e-10 9.21338e-11 -0.239972)
(1.00277e-09 -4.93891e-10 -0.363731)
(1.14377e-09 -8.14529e-10 -0.429071)
(1.18001e-09 -8.90916e-10 -0.418939)
(1.11969e-09 -8.09205e-10 -0.346106)
(1.00049e-09 -6.54353e-10 -0.241478)
(8.65832e-10 -4.80691e-10 -0.135994)
(7.46683e-10 -3.14094e-10 -0.048367)
(6.52751e-10 -1.65973e-10 0.0168102)
(5.76367e-10 -4.12949e-11 0.0642157)
(5.03168e-10 6.30798e-11 0.102287)
(4.17962e-10 1.59576e-10 0.138112)
(3.06773e-10 2.60986e-10 0.173446)
(1.66137e-10 3.65806e-10 0.203053)
(2.11401e-11 4.52241e-10 0.218944)
(-6.86604e-11 4.90288e-10 0.219675)
(-3.53117e-11 4.64996e-10 0.215184)
(1.53908e-10 3.91175e-10 0.220213)
(4.73576e-10 3.0673e-10 0.241821)
(8.54529e-10 2.51392e-10 0.272912)
(1.21709e-09 2.47509e-10 0.296868)
(1.49654e-09 2.91423e-10 0.298093)
(1.64963e-09 3.53707e-10 0.269509)
(1.65532e-09 3.86769e-10 0.214132)
(1.52022e-09 3.40802e-10 0.142765)
(1.28107e-09 1.8841e-10 0.0691089)
(9.97059e-10 -5.09874e-11 0.00505414)
(7.30085e-10 -3.07323e-10 -0.0420968)
(5.21864e-10 -4.89085e-10 -0.0699716)
(3.8127e-10 -5.31143e-10 -0.0797556)
(2.89653e-10 -4.27377e-10 -0.073837)
(2.21049e-10 -2.28085e-10 -0.0557229)
(1.60549e-10 -2.9715e-12 -0.0253439)
(1.27002e-10 1.61858e-10 0.00835889)
(1.05154e-10 3.52659e-10 0.0587394)
(2.7375e-10 2.44687e-10 0.115815)
(7.00296e-17 1.87537e-15 -0.0817774)
(2.31344e-16 1.80386e-15 -0.0776422)
(2.74731e-16 2.97747e-17 -0.0743156)
(9.90049e-17 1.77844e-15 -0.0728196)
(1.29239e-15 1.663e-15 -0.0735929)
(-1.31145e-15 2.13252e-15 -0.0766533)
(-1.51192e-16 -2.50651e-16 -0.0816385)
(1.44026e-14 -2.40685e-15 -0.087837)
(-1.27076e-14 1.76521e-15 -0.0943556)
(-6.14806e-14 8.78866e-15 -0.100206)
(6.50008e-15 7.56311e-15 -0.104415)
(2.09141e-13 -3.12869e-14 -0.10662)
(4.68112e-13 -7.83099e-14 -0.106447)
(7.39085e-13 -7.22486e-14 -0.104017)
(8.50341e-13 -5.69815e-15 -0.0996852)
(6.45963e-13 5.19337e-14 -0.0939819)
(3.48316e-13 5.97855e-14 -0.0876064)
(1.14982e-13 4.04749e-14 -0.0814266)
(-2.36644e-14 2.35565e-14 -0.0763271)
(-8.26899e-14 4.92287e-15 -0.0730861)
(3.33707e-14 -1.63425e-14 -0.072346)
(-2.69819e-13 1.65644e-13 -0.0744822)
(-1.00769e-12 -4.86905e-14 -0.0794728)
(5.40777e-12 -3.3391e-12 -0.0868825)
(-4.16742e-12 4.08644e-12 -0.095806)
(-5.09469e-11 6.67024e-11 -0.10504)
(2.56674e-10 1.61125e-10 -0.113845)
(9.94654e-10 1.45078e-10 -0.120251)
(1.06519e-09 -2.26298e-11 -0.11984)
(3.80474e-10 -1.57771e-10 -0.11173)
(-5.39562e-11 -1.36668e-10 -0.0994814)
(-8.1568e-11 -5.53243e-11 -0.0859366)
(-5.01339e-12 -1.0575e-11 -0.0729973)
(1.22008e-11 8.4817e-12 -0.0627389)
(-7.82741e-11 2.568e-11 -0.0571339)
(3.20289e-11 -6.57365e-11 -0.0580418)
(1.18626e-09 -3.14719e-10 -0.0678414)
(1.29103e-09 5.72734e-10 -0.0839865)
(-1.23079e-08 6.0825e-09 -0.0838932)
(-5.91775e-08 1.70006e-08 -0.0277649)
(-1.39455e-07 2.41256e-08 0.0929406)
(-2.18089e-07 1.54102e-08 0.219225)
(-2.4682e-07 -5.72125e-09 0.264427)
(-2.04484e-07 -2.13021e-08 0.195374)
(-1.20298e-07 -2.12043e-08 0.0680152)
(-4.573e-08 -1.19075e-08 -0.0332305)
(-6.06038e-09 -3.58747e-09 -0.0733544)
(5.06764e-09 -7.74511e-11 -0.0702619)
(4.55104e-09 1.16275e-10 -0.0573356)
(2.22925e-09 5.79155e-10 -0.0524485)
(-3.90703e-09 5.73775e-09 -0.0498512)
(-2.2012e-08 1.84595e-08 -0.0328753)
(-5.31693e-08 3.52696e-08 0.00210632)
(-8.36837e-08 4.64889e-08 0.0422743)
(-9.83355e-08 4.48605e-08 0.0922532)
(-9.9628e-08 3.07579e-08 0.18262)
(-1.04123e-07 7.42845e-09 0.316481)
(-1.18253e-07 -2.09944e-08 0.43326)
(-1.2547e-07 -4.48614e-08 0.45111)
(-1.06555e-07 -5.26607e-08 0.346359)
(-6.61517e-08 -4.25874e-08 0.179263)
(-2.57075e-08 -2.41385e-08 0.0343176)
(-1.08912e-09 -8.13298e-09 -0.0440545)
(6.04585e-09 1.33136e-09 -0.0630086)
(1.75882e-09 6.29398e-09 -0.0584999)
(-7.49499e-09 9.57454e-09 -0.0724221)
(-1.62291e-08 1.13101e-08 -0.128127)
(-1.96884e-08 1.01902e-08 -0.201382)
(-1.59709e-08 6.53965e-09 -0.225208)
(-7.66557e-09 2.64409e-09 -0.148287)
(-2.79176e-10 7.2069e-11 0.0157522)
(1.34428e-09 -2.03044e-09 0.201326)
(-3.2515e-09 -5.19089e-09 0.336597)
(-9.39618e-09 -8.83788e-09 0.375942)
(-1.17819e-08 -1.06692e-08 0.315943)
(-9.19162e-09 -9.47374e-09 0.195816)
(-4.26584e-09 -6.3598e-09 0.0719396)
(-1.51316e-10 -3.36321e-09 -0.0214539)
(1.72424e-09 -1.63243e-09 -0.0940092)
(1.75181e-09 -1.12045e-09 -0.180152)
(1.36297e-09 -1.39805e-09 -0.290011)
(1.96857e-09 -2.11713e-09 -0.379893)
(3.98079e-09 -2.83472e-09 -0.383136)
(6.71365e-09 -3.01491e-09 -0.272359)
(8.99611e-09 -2.43314e-09 -0.0846894)
(9.81713e-09 -1.37824e-09 0.10941)
(8.9332e-09 -2.53281e-10 0.25374)
(7.13428e-09 9.54544e-10 0.326316)
(5.48252e-09 2.45282e-09 0.328452)
(4.30721e-09 3.91557e-09 0.272475)
(3.29682e-09 4.43248e-09 0.177528)
(2.311e-09 3.35e-09 0.0614374)
(1.65013e-09 9.95012e-10 -0.0708548)
(1.59607e-09 -1.55017e-09 -0.222167)
(2.04642e-09 -3.29582e-09 -0.375896)
(2.66238e-09 -3.91337e-09 -0.480755)
(3.19736e-09 -3.65063e-09 -0.479143)
(3.62666e-09 -2.92134e-09 -0.354826)
(4.03956e-09 -2.01076e-09 -0.14944)
(4.4668e-09 -1.03654e-09 0.0637922)
(4.80039e-09 -3.4998e-11 0.222662)
(4.86523e-09 9.94366e-10 0.303703)
(4.55649e-09 2.08369e-09 0.319169)
(3.88755e-09 3.18623e-09 0.293379)
(2.96729e-09 3.99436e-09 0.241579)
(2.00653e-09 4.00374e-09 0.163237)
(1.28275e-09 2.94775e-09 0.0481398)
(9.68946e-10 1.16854e-09 -0.110237)
(9.86196e-10 -5.64496e-10 -0.296228)
(1.08817e-09 -1.62534e-09 -0.460352)
(1.07992e-09 -1.8906e-09 -0.535818)
(9.2964e-10 -1.62827e-09 -0.480257)
(7.17154e-10 -1.18028e-09 -0.305159)
(5.34986e-10 -7.61989e-10 -0.0685288)
(4.37613e-10 -4.41278e-10 0.156955)
(4.4218e-10 -1.95917e-10 0.315854)
(5.38568e-10 3.71554e-11 0.387724)
(6.81956e-10 3.37456e-10 0.386103)
(7.91576e-10 7.66692e-10 0.342437)
(7.93169e-10 1.29374e-09 0.28454)
(6.82692e-10 1.73635e-09 0.220036)
(5.53732e-10 1.83799e-09 0.134935)
(5.3577e-10 1.46875e-09 0.00983284)
(6.85433e-10 7.53061e-10 -0.154233)
(9.41882e-10 -1.69074e-11 -0.319791)
(1.18239e-09 -5.83779e-10 -0.426286)
(1.31e-09 -8.51493e-10 -0.42816)
(1.29664e-09 -8.69217e-10 -0.32415)
(1.17072e-09 -7.44304e-10 -0.154443)
(9.84196e-10 -5.70403e-10 0.0257086)
(7.87759e-10 -3.99945e-10 0.17284)
(6.18448e-10 -2.49745e-10 0.268133)
(4.92757e-10 -1.19622e-10 0.314942)
(4.05277e-10 -5.66914e-12 0.329721)
(3.32818e-10 9.96437e-11 0.331806)
(2.41069e-10 2.09403e-10 0.334041)
(9.91529e-11 3.31305e-10 0.337095)
(-9.01472e-11 4.48561e-10 0.332084)
(-2.62e-10 5.1749e-10 0.314061)
(-3.08791e-10 4.96546e-10 0.296374)
(-1.51134e-10 3.84509e-10 0.306397)
(2.04417e-10 2.29118e-10 0.363499)
(6.73541e-10 9.81748e-11 0.461242)
(1.14754e-09 4.19225e-11 0.568974)
(1.54065e-09 7.47887e-11 0.648192)
(1.80703e-09 1.78858e-10 0.670757)
(1.93045e-09 3.13329e-10 0.627902)
(1.90853e-09 4.20661e-10 0.529384)
(1.75189e-09 4.38649e-10 0.398112)
(1.4915e-09 3.26803e-10 0.260685)
(1.18103e-09 9.68615e-11 0.138996)
(8.82624e-10 -1.77752e-10 0.0458656)
(6.41232e-10 -3.91788e-10 -0.0148386)