/*--------------------------------*- C++ -*----------------------------------*\
  =========                 |
  \\      /  F ield         | OpenFOAM: The Open Source CFD Toolbox
   \\    /   O peration     | Website:  https://openfoam.org
    \\  /    A nd           | Version:  11
     \\/     M anipulation  |
\*---------------------------------------------------------------------------*/
FoamFile
{
    format      ascii;
    class       volScalarField;
    location    "5.464258";
    object      p;
}
// * * * * * * * * * * * * * * * * * * * * * * * * * * * * * * * * * * * * * //

dimensions      [0 2 -2 0 0 0 0];

internalField   nonuniform List<scalar> 
7132
(
0.0508769
0.0494234
0.0445194
0.0373343
0.027257
0.0139483
-0.00273399
-0.0228779
-0.0460861
-0.0715602
-0.0980776
-0.123958
-0.148299
-0.170278
-0.189338
-0.205207
-0.217717
-0.226786
-0.232371
-0.23445
-0.233038
-0.228221
-0.220197
-0.209299
-0.196002
-0.180902
-0.16466
-0.147948
-0.131379
-0.115465
-0.100589
-0.0870013
-0.0748326
-0.0641136
-0.0548009
-0.0468015
-0.0399926
-0.0342386
-0.0294019
-0.0253512
-0.0219658
-0.0191379
-0.0167734
-0.0147915
-0.0131242
-0.0117144
-0.010515
-0.00948767
-0.00860119
-0.00783044
-0.00715529
-0.00655967
-0.00603072
-0.00555815
-0.00513367
-0.00475052
-0.00440316
-0.00408698
-0.00379809
-0.00353319
-0.00328945
-0.00306445
-0.00285608
-0.00266254
-0.00248227
-0.00231394
-0.0021564
-0.00200867
-0.00186991
-0.00173942
-0.00161659
-0.00150087
-0.00139181
-0.00128901
-0.00119211
-0.00110078
-0.00101474
-0.000933733
-0.000857508
-0.000785856
-0.000718583
-0.000655512
-0.000596485
-0.00054136
-0.000490006
-0.000442303
-0.000398133
-0.000357369
-0.000319857
-0.000285392
-0.000253695
-0.000224405
-0.000197103
-0.000171368
-0.000146889
-0.000123574
-0.000101629
-8.15166e-05
-6.38062e-05
-4.89397e-05
-3.70442e-05
-2.78851e-05
-2.09809e-05
-1.57986e-05
-1.19072e-05
-9.01774e-06
-6.93117e-06
-5.46663e-06
-4.43334e-06
-3.65249e-06
-2.99495e-06
-2.39863e-06
-1.85576e-06
-1.38344e-06
-9.98021e-07
-7.02782e-07
-4.88308e-07
-3.38393e-07
-2.36063e-07
-1.66785e-07
-1.19612e-07
-8.67978e-08
-6.32818e-08
-4.58445e-08
-3.26393e-08
-2.25359e-08
-1.49057e-08
-9.23467e-09
-5.16808e-09
-2.30965e-09
-3.86567e-10
9.06551e-10
1.73075e-09
2.27592e-09
2.59633e-09
2.79914e-09
2.87942e-09
2.90907e-09
2.86191e-09
2.79933e-09
2.68723e-09
2.58206e-09
2.44383e-09
2.3251e-09
2.18134e-09
2.06307e-09
1.92282e-09
1.8111e-09
1.67778e-09
1.57552e-09
1.44959e-09
1.35911e-09
1.2379e-09
1.16357e-09
1.04069e-09
9.86782e-10
8.64606e-10
8.13162e-10
7.72469e-10
5.67087e-10
0.0514566
0.0500155
0.0451552
0.0380172
0.0279802
0.0146784
-0.00205484
-0.0223445
-0.0457914
-0.0715908
-0.0984454
-0.124556
-0.14906
-0.171132
-0.19023
-0.206108
-0.218613
-0.227674
-0.233251
-0.235318
-0.233885
-0.229028
-0.220937
-0.209942
-0.196523
-0.181281
-0.164892
-0.148039
-0.131345
-0.115331
-0.100381
-0.0867461
-0.0745534
-0.0638289
-0.0545248
-0.0465432
-0.0397579
-0.0340301
-0.0292201
-0.0251951
-0.0218334
-0.0190268
-0.016681
-0.0147152
-0.0130615
-0.011663
-0.010473
-0.00945328
-0.00857297
-0.00780716
-0.00713598
-0.00654351
-0.00601709
-0.00554655
-0.00512371
-0.00474191
-0.00439567
-0.00408042
-0.00379233
-0.00352812
-0.00328497
-0.00306048
-0.00285256
-0.0026594
-0.00247946
-0.00231141
-0.0021541
-0.00200658
-0.001868
-0.00173766
-0.00161495
-0.00149934
-0.00139038
-0.00128766
-0.00119083
-0.00109957
-0.0010136
-0.000932637
-0.00085646
-0.00078485
-0.000717613
-0.000654574
-0.000595575
-0.000540473
-0.00048914
-0.000441457
-0.000397307
-0.000356569
-0.00031909
-0.000284669
-0.000253026
-0.000223801
-0.000196566
-0.000170894
-0.000146466
-0.000123185
-0.000101254
-8.11453e-05
-6.34364e-05
-4.85809e-05
-3.67125e-05
-2.75955e-05
-2.07409e-05
-1.56055e-05
-1.17505e-05
-8.88453e-06
-6.81154e-06
-5.35624e-06
-4.33288e-06
-3.56523e-06
-2.92421e-06
-2.3461e-06
-1.82103e-06
-1.36416e-06
-9.90589e-07
-7.03091e-07
-4.92504e-07
-3.43466e-07
-2.40149e-07
-1.69129e-07
-1.20282e-07
-8.62983e-08
-6.22173e-08
-4.47013e-08
-3.17078e-08
-2.19166e-08
-1.45746e-08
-9.10501e-09
-5.14884e-09
-2.32874e-09
-4.05433e-10
9.03834e-10
1.74128e-09
2.29393e-09
2.61315e-09
2.81237e-09
2.8865e-09
2.9127e-09
2.8621e-09
2.79922e-09
2.68599e-09
2.58175e-09
2.44274e-09
2.32489e-09
2.18019e-09
2.06272e-09
1.92151e-09
1.81066e-09
1.67644e-09
1.57512e-09
1.44822e-09
1.35885e-09
1.23637e-09
1.16374e-09
1.03814e-09
9.88657e-10
8.56799e-10
8.23729e-10
7.37586e-10
6.30185e-10
0.0526104
0.0511957
0.0464246
0.0393854
0.0294346
0.0161528
-0.000676931
-0.0212583
-0.0451889
-0.0716574
-0.0992034
-0.125777
-0.150603
-0.172857
-0.192025
-0.207917
-0.220409
-0.229452
-0.235015
-0.237064
-0.235593
-0.230659
-0.222436
-0.211249
-0.197581
-0.182052
-0.165363
-0.148222
-0.131276
-0.115058
-0.09996
-0.0862307
-0.0739903
-0.0632559
-0.0539697
-0.0460249
-0.0392874
-0.0336125
-0.0288562
-0.0248828
-0.0215688
-0.0188049
-0.0164965
-0.0145629
-0.0129363
-0.0115605
-0.0103891
-0.00938464
-0.00851662
-0.0077607
-0.00709741
-0.00651126
-0.00598988
-0.00552339
-0.00510384
-0.00472473
-0.00438072
-0.00406736
-0.00378086
-0.00351802
-0.00327605
-0.00305258
-0.00284554
-0.00265315
-0.00247386
-0.00230637
-0.00214954
-0.00200242
-0.00186419
-0.00173415
-0.00161169
-0.00149631
-0.00138754
-0.00128499
-0.00118831
-0.00109718
-0.00101133
-0.000930476
-0.000854396
-0.000782873
-0.000715712
-0.00065274
-0.000593799
-0.000538748
-0.000487461
-0.000439821
-0.000395718
-0.000355037
-0.000317635
-0.000283317
-0.000251809
-0.000222743
-0.000195681
-0.000170174
-0.000145878
-0.000122677
-0.000100767
-8.0628e-05
-6.28627e-05
-4.79558e-05
-3.60667e-05
-2.69716e-05
-2.01772e-05
-1.51252e-05
-1.13598e-05
-8.57631e-06
-6.57293e-06
-5.17361e-06
-4.1941e-06
-3.45993e-06
-2.84363e-06
-2.28344e-06
-1.77178e-06
-1.32579e-06
-9.61707e-07
-6.82542e-07
-4.7882e-07
-3.34871e-07
-2.3488e-07
-1.65754e-07
-1.17846e-07
-8.42835e-08
-6.04207e-08
-4.30933e-08
-3.03266e-08
-2.08002e-08
-1.37321e-08
-8.51035e-09
-4.75358e-09
-2.07604e-09
-2.44893e-10
1.0107e-09
1.818e-09
2.35357e-09
2.66062e-09
2.85008e-09
2.91498e-09
2.93364e-09
2.87659e-09
2.80941e-09
2.69286e-09
2.58686e-09
2.44633e-09
2.32784e-09
2.18225e-09
2.06453e-09
1.92268e-09
1.8118e-09
1.67707e-09
1.57591e-09
1.44846e-09
1.35956e-09
1.23597e-09
1.16496e-09
1.03549e-09
9.92798e-10
8.44117e-10
8.43775e-10
6.75404e-10
7.4253e-10
0.0543283
0.0529552
0.0483248
0.0414442
0.0316366
0.0184005
0.00143893
-0.0195808
-0.0442545
-0.0717752
-0.100402
-0.12767
-0.152975
-0.17549
-0.19475
-0.210653
-0.223119
-0.232133
-0.237672
-0.239695
-0.238168
-0.233119
-0.224698
-0.213219
-0.199175
-0.18321
-0.166065
-0.148487
-0.131158
-0.114633
-0.0993135
-0.0854438
-0.0731341
-0.0623873
-0.0531304
-0.0452428
-0.0385787
-0.0329846
-0.02831
-0.0244147
-0.0211726
-0.018473
-0.0162208
-0.0143355
-0.0127497
-0.0114078
-0.0102643
-0.00928258
-0.0084329
-0.00769167
-0.0070401
-0.00646328
-0.00594936
-0.00548887
-0.00507417
-0.00469905
-0.00435835
-0.00404778
-0.00376366
-0.00350286
-0.00326267
-0.00304073
-0.00283501
-0.00264376
-0.00246546
-0.00229881
-0.0021427
-0.0019962
-0.00185849
-0.00172888
-0.00160681
-0.00149175
-0.00138326
-0.00128096
-0.00118451
-0.00109358
-0.0010079
-0.000927215
-0.000851279
-0.000779883
-0.000712835
-0.000649961
-0.000591105
-0.000536127
-0.000484904
-0.000437324
-0.000393285
-0.00035268
-0.00031538
-0.0002812
-0.00024987
-0.000221018
-0.000194188
-0.000168904
-0.000144787
-0.000121694
-9.98123e-05
-7.96352e-05
-6.18011e-05
-4.68379e-05
-3.49413e-05
-2.59032e-05
-1.92234e-05
-1.43208e-05
-1.07137e-05
-8.07725e-06
-6.1994e-06
-4.90116e-06
-3.99915e-06
-3.32118e-06
-2.74304e-06
-2.20743e-06
-1.7118e-06
-1.27756e-06
-9.23521e-07
-6.53434e-07
-4.57503e-07
-3.19589e-07
-2.23816e-07
-1.57439e-07
-1.11324e-07
-7.90366e-08
-5.62008e-08
-3.97672e-08
-2.77891e-08
-1.89332e-08
-1.24055e-08
-7.59102e-09
-4.12404e-09
-1.64068e-09
6.2913e-11
1.23597e-09
1.98607e-09
2.48091e-09
2.75561e-09
2.92059e-09
2.96547e-09
2.97004e-09
2.90181e-09
2.82774e-09
2.70546e-09
2.59644e-09
2.45278e-09
2.33301e-09
2.18545e-09
2.0673e-09
1.92409e-09
1.81327e-09
1.67747e-09
1.57672e-09
1.44818e-09
1.36017e-09
1.23471e-09
1.16619e-09
1.03112e-09
9.98071e-10
8.26441e-10
8.704e-10
5.94157e-10
8.87638e-10
0.0565936
0.0552799
0.0508496
0.0442
0.0346099
0.0214657
0.004355
-0.0172483
-0.0429451
-0.0719668
-0.102123
-0.130313
-0.156245
-0.179082
-0.198436
-0.214332
-0.22675
-0.235725
-0.241242
-0.243244
-0.241659
-0.23647
-0.227788
-0.215915
-0.201354
-0.184789
-0.167015
-0.148837
-0.130985
-0.114044
-0.0984251
-0.0843693
-0.0719707
-0.0612118
-0.0519986
-0.0441912
-0.0376286
-0.0321448
-0.0275808
-0.0237909
-0.0206455
-0.0180321
-0.0158551
-0.0140341
-0.0125025
-0.0112057
-0.0100993
-0.00914761
-0.00832217
-0.00760034
-0.00696424
-0.00639975
-0.00589567
-0.00544308
-0.00503479
-0.00466494
-0.00432863
-0.00402175
-0.00374079
-0.00348271
-0.00324487
-0.00302498
-0.00282102
-0.00263129
-0.0024543
-0.00228877
-0.00213361
-0.00198792
-0.0018509
-0.00172188
-0.00160031
-0.00148568
-0.00137757
-0.00127561
-0.00117945
-0.00108879
-0.00100335
-0.000922875
-0.000847133
-0.000775908
-0.000709011
-0.000646267
-0.000587523
-0.000532641
-0.0004815
-0.000433995
-0.000390033
-0.000349521
-0.000312344
-0.000278329
-0.000247216
-0.000218628
-0.000192088
-0.000167085
-0.0001432
-0.000120257
-9.84284e-05
-7.82225e-05
-6.03196e-05
-4.53012e-05
-3.34085e-05
-2.44545e-05
-1.79319e-05
-1.32329e-05
-9.84413e-06
-7.41456e-06
-5.71683e-06
-4.56465e-06
-3.77262e-06
-3.17002e-06
-2.63749e-06
-2.12589e-06
-1.64212e-06
-1.21548e-06
-8.69406e-07
-6.08757e-07
-4.22736e-07
-2.93772e-07
-2.05144e-07
-1.44006e-07
-1.01562e-07
-7.18209e-08
-5.078e-08
-3.56513e-08
-2.46595e-08
-1.65721e-08
-1.06522e-08
-6.31265e-09
-3.20846e-09
-9.91641e-10
5.21449e-10
1.56281e-09
2.22157e-09
2.65357e-09
2.88276e-09
3.01502e-09
3.03464e-09
3.02091e-09
2.93831e-09
2.85443e-09
2.72437e-09
2.61054e-09
2.46272e-09
2.34071e-09
2.19078e-09
2.07165e-09
1.92693e-09
1.8158e-09
1.67891e-09
1.5783e-09
1.44866e-09
1.36139e-09
1.23392e-09
1.1681e-09
1.02658e-09
1.00465e-09
8.06741e-10
9.0111e-10
5.05914e-10
1.0453e-09
0.059383
0.0581498
0.0539894
0.04766
0.0383856
0.0254089
0.00815831
-0.0141698
-0.0411987
-0.0722717
-0.104488
-0.133816
-0.160509
-0.183711
-0.203142
-0.218998
-0.231334
-0.240245
-0.245731
-0.247711
-0.246063
-0.240707
-0.231706
-0.219337
-0.204119
-0.186784
-0.1682
-0.149252
-0.130731
-0.113262
-0.0972692
-0.0829846
-0.0704814
-0.0597151
-0.0505638
-0.0428634
-0.0364326
-0.0310906
-0.026668
-0.0230118
-0.0199885
-0.0174838
-0.0154012
-0.0136608
-0.012197
-0.0109563
-0.00989586
-0.00898144
-0.00818593
-0.00748798
-0.00687086
-0.00632143
-0.00582936
-0.00538641
-0.00498595
-0.00462253
-0.0042916
-0.00398928
-0.00371223
-0.00345754
-0.00322264
-0.0030053
-0.00280356
-0.00261575
-0.00244039
-0.00227626
-0.0021223
-0.00197761
-0.00184144
-0.00171315
-0.00159219
-0.00147809
-0.00137045
-0.0012689
-0.0011731
-0.00108278
-0.000997635
-0.000917431
-0.000841929
-0.000770919
-0.000704208
-0.000641624
-0.000583016
-0.000528247
-0.000477201
-0.000429779
-0.000385899
-0.00034548
-0.000308424
-0.000274576
-0.000243682
-0.000215365
-0.000189128
-0.000164428
-0.000140805
-0.000118045
-9.63077e-05
-7.61161e-05
-5.81934e-05
-4.31762e-05
-3.13514e-05
-2.25519e-05
-1.62604e-05
-1.18394e-05
-8.74021e-06
-6.58344e-06
-5.12364e-06
-4.16439e-06
-3.51599e-06
-3.00858e-06
-2.52958e-06
-2.04216e-06
-1.56712e-06
-1.14512e-06
-8.05766e-07
-5.54972e-07
-3.80155e-07
-2.6158e-07
-1.81343e-07
-1.26459e-07
-8.85428e-08
-6.20938e-08
-4.34897e-08
-3.01923e-08
-2.05934e-08
-1.35702e-08
-8.46164e-09
-4.73063e-09
-2.07456e-09
-1.79458e-10
1.10489e-09
1.98569e-09
2.52974e-09
2.87995e-09
3.04852e-09
3.13675e-09
3.12289e-09
3.08526e-09
2.98439e-09
2.88811e-09
2.74832e-09
2.62832e-09
2.47524e-09
2.35025e-09
2.1973e-09
2.07681e-09
1.93022e-09
1.81862e-09
1.6804e-09
1.57989e-09
1.44897e-09
1.3625e-09
1.23276e-09
1.16992e-09
1.0214e-09
1.01146e-09
7.86071e-10
9.32656e-10
4.19743e-10
1.19816e-09
0.0626648
0.0615369
0.057729
0.0518301
0.043001
0.0303088
0.0129669
-0.0102147
-0.0389219
-0.072748
-0.107678
-0.138331
-0.165895
-0.18946
-0.208903
-0.224658
-0.236869
-0.245707
-0.251182
-0.253177
-0.251492
-0.245961
-0.236582
-0.223602
-0.207558
-0.189252
-0.169648
-0.149733
-0.13038
-0.112262
-0.0958155
-0.081261
-0.068642
-0.0578782
-0.0488126
-0.0412504
-0.0349859
-0.0298203
-0.0255714
-0.0220786
-0.0192037
-0.0168301
-0.0148612
-0.0132175
-0.0118346
-0.0106609
-0.00965511
-0.00878488
-0.00802477
-0.00735501
-0.00676025
-0.00622856
-0.00575061
-0.005319
-0.00492775
-0.00457194
-0.00424738
-0.00395048
-0.0036781
-0.00342746
-0.00319608
-0.0029818
-0.00278272
-0.00259719
-0.0024238
-0.00226134
-0.00210879
-0.00196529
-0.00183013
-0.0017027
-0.00158247
-0.00146901
-0.00136192
-0.00126085
-0.0011655
-0.00107556
-0.000990781
-0.000910901
-0.00083569
-0.000764936
-0.000698448
-0.000636055
-0.000577605
-0.000522965
-0.000472024
-0.000424689
-0.000380888
-0.000340555
-0.000303608
-0.000269909
-0.000239218
-0.000211159
-0.000185219
-0.00016083
-0.000137493
-0.000114962
-9.33761e-05
-7.32726e-05
-5.54114e-05
-4.04796e-05
-2.88056e-05
-2.02393e-05
-1.42522e-05
-1.01778e-05
-7.43331e-06
-5.61227e-06
-4.44804e-06
-3.72932e-06
-3.25742e-06
-2.86133e-06
-2.4374e-06
-1.96699e-06
-1.491e-06
-1.06618e-06
-7.30094e-07
-4.8912e-07
-3.2734e-07
-2.21496e-07
-1.51782e-07
-1.04865e-07
-7.27779e-08
-5.0562e-08
-3.50279e-08
-2.39533e-08
-1.59737e-08
-1.01466e-08
-5.93567e-09
-2.88055e-09
-7.30996e-10
7.90947e-10
1.80346e-09
2.48966e-09
2.89416e-09
3.14528e-09
3.24192e-09
3.27853e-09
3.22621e-09
3.16096e-09
3.03914e-09
2.92822e-09
2.77713e-09
2.64964e-09
2.49047e-09
2.36176e-09
2.20541e-09
2.08315e-09
1.93453e-09
1.82219e-09
1.6826e-09
1.582e-09
1.44978e-09
1.36401e-09
1.23196e-09
1.17209e-09
1.01654e-09
1.01857e-09
7.66529e-10
9.63133e-10
3.42842e-10
1.33441e-09
0.0663972
0.065404
0.0620452
0.0567125
0.0484971
0.0362609
0.018932
-0.0052066
-0.0359847
-0.073493
-0.111953
-0.144055
-0.172566
-0.196463
-0.215826
-0.231389
-0.243395
-0.252114
-0.257566
-0.259592
-0.257897
-0.252198
-0.242401
-0.228707
-0.211674
-0.192189
-0.171342
-0.150251
-0.129894
-0.111001
-0.0940242
-0.079164
-0.0664247
-0.0556803
-0.0467304
-0.0393428
-0.0332829
-0.0283309
-0.0242905
-0.0209921
-0.0182928
-0.0160738
-0.0142381
-0.0127074
-0.0114188
-0.0103228
-0.00938018
-0.00856077
-0.00784117
-0.00720349
-0.00663406
-0.00612237
-0.00566031
-0.00524144
-0.00486057
-0.00451334
-0.00419602
-0.00390533
-0.00363833
-0.00339238
-0.00316512
-0.00295444
-0.00275848
-0.00257564
-0.00240455
-0.00224404
-0.00209313
-0.00195102
-0.00181702
-0.00169056
-0.00157117
-0.00145842
-0.00135196
-0.00125145
-0.0011566
-0.00106713
-0.000982765
-0.000903264
-0.000828394
-0.000757941
-0.000691713
-0.00062954
-0.000571269
-0.000516772
-0.00046594
-0.000418688
-0.000374952
-0.000334681
-0.00029781
-0.000264217
-0.000233678
-0.000205823
-0.000180137
-0.000156034
-0.000132992
-0.000110735
-8.9389e-05
-6.9493e-05
-5.18313e-05
-3.71246e-05
-2.57285e-05
-1.75022e-05
-1.19069e-05
-8.25342e-06
-5.93045e-06
-4.51033e-06
-3.70304e-06
-3.27619e-06
-3.01538e-06
-2.74543e-06
-2.37441e-06
-1.9095e-06
-1.41956e-06
-9.82808e-07
-6.46195e-07
-4.15108e-07
-2.68015e-07
-1.76576e-07
-1.1856e-07
-8.03917e-08
-5.47349e-08
-3.72781e-08
-2.52681e-08
-1.67804e-08
-1.06929e-08
-6.2591e-09
-3.08477e-09
-8.01287e-10
7.7721e-10
1.88242e-09
2.59277e-09
3.06203e-09
3.30982e-09
3.44841e-09
3.46276e-09
3.43994e-09
3.3435e-09
3.24659e-09
3.10103e-09
2.97349e-09
2.80969e-09
2.67366e-09
2.50765e-09
2.37463e-09
2.21449e-09
2.09012e-09
1.93927e-09
1.82602e-09
1.68494e-09
1.58416e-09
1.45058e-09
1.36545e-09
1.23109e-09
1.17412e-09
1.0118e-09
1.02525e-09
7.48723e-10
9.90669e-10
2.78376e-10
1.44798e-09
0.0705273
0.0697027
0.0669048
0.0623026
0.0549167
0.0433818
0.0262502
0.00110429
-0.0321931
-0.0746472
-0.117688
-0.151257
-0.180711
-0.204796
-0.223899
-0.239153
-0.250896
-0.259507
-0.264997
-0.267146
-0.265507
-0.259658
-0.249386
-0.23484
-0.216604
-0.195677
-0.173313
-0.150797
-0.129238
-0.109433
-0.0918466
-0.0766494
-0.0637936
-0.053095
-0.0442994
-0.0371302
-0.0313189
-0.0266218
-0.0228271
-0.0197557
-0.0172597
-0.0152187
-0.0135357
-0.0121337
-0.0109522
-0.00994394
-0.00907247
-0.00831006
-0.00763575
-0.00703383
-0.00649254
-0.00600305
-0.0055586
-0.00515387
-0.00478453
-0.00444689
-0.0041377
-0.00385401
-0.00359312
-0.00335253
-0.00312997
-0.0029234
-0.002731
-0.00255123
-0.00238275
-0.00222444
-0.00207538
-0.00193482
-0.00180211
-0.00167675
-0.00155829
-0.00144635
-0.0013406
-0.00124072
-0.00114644
-0.00105749
-0.00097361
-0.000894547
-0.000820071
-0.000749966
-0.000684038
-0.000622114
-0.000564043
-0.000509698
-0.000458975
-0.000411796
-0.000368105
-0.000327863
-0.00029102
-0.000257471
-0.00022701
-0.000199283
-0.000173787
-0.000149931
-0.000127192
-0.000105277
-8.42903e-05
-6.47637e-05
-4.74827e-05
-3.31745e-05
-2.22023e-05
-1.44255e-05
-9.2984e-06
-6.12265e-06
-4.27547e-06
-3.31493e-06
-2.92567e-06
-2.8439e-06
-2.82827e-06
-2.69412e-06
-2.36491e-06
-1.88398e-06
-1.35887e-06
-8.96191e-07
-5.53402e-07
-3.32182e-07
-2.01912e-07
-1.26962e-07
-8.20343e-08
-5.34988e-08
-3.49314e-08
-2.27727e-08
-1.47002e-08
-9.07388e-09
-5.04105e-09
-2.09654e-09
-2.13635e-11
1.44366e-09
2.41342e-09
3.07074e-09
3.45363e-09
3.68587e-09
3.76193e-09
3.77712e-09
3.7018e-09
3.61444e-09
3.4705e-09
3.33943e-09
3.1684e-09
3.02281e-09
2.84537e-09
2.69995e-09
2.5266e-09
2.38878e-09
2.22461e-09
2.09785e-09
1.94469e-09
1.83033e-09
1.68776e-09
1.58665e-09
1.45173e-09
1.36712e-09
1.23057e-09
1.17627e-09
1.00773e-09
1.03156e-09
7.33552e-10
1.01468e-09
2.27309e-10
1.53796e-09
0.0749885
0.0743706
0.0722595
0.0685823
0.0622964
0.0518003
0.0351597
0.00904968
-0.0272849
-0.0764599
-0.125413
-0.160237
-0.190602
-0.214727
-0.233343
-0.248074
-0.259374
-0.267785
-0.273306
-0.275635
-0.274162
-0.268243
-0.257501
-0.242003
-0.222363
-0.199722
-0.175544
-0.151332
-0.128356
-0.107498
-0.0892268
-0.0736706
-0.0607128
-0.0500966
-0.0415026
-0.034602
-0.029088
-0.0246906
-0.0211811
-0.0183709
-0.0161073
-0.0142685
-0.0127582
-0.0115013
-0.0104398
-0.00952939
-0.00873674
-0.00803709
-0.00741228
-0.00684914
-0.00633817
-0.00587243
-0.00544676
-0.00505709
-0.00470008
-0.00437276
-0.0040724
-0.00379641
-0.00354231
-0.00330773
-0.00309048
-0.00288858
-0.00270025
-0.00252396
-0.00235844
-0.00220261
-0.00205562
-0.00191677
-0.00178549
-0.00166133
-0.00154388
-0.00143281
-0.00132783
-0.00122865
-0.001135
-0.00104664
-0.0009633
-0.000884736
-0.000810711
-0.000741005
-0.000675418
-0.000613776
-0.000555925
-0.000501742
-0.000451126
-0.000404005
-0.000360331
-0.000320073
-0.000283193
-0.000249604
-0.000219123
-0.000191421
-0.000166024
-0.000142365
-0.000119935
-9.84453e-05
-7.79823e-05
-5.9047e-05
-4.23869e-05
-2.86982e-05
-1.8318e-05
-1.10963e-05
-6.49628e-06
-3.83186e-06
-2.50011e-06
-2.05261e-06
-2.14487e-06
-2.46596e-06
-2.73106e-06
-2.73829e-06
-2.43138e-06
-1.90355e-06
-1.31511e-06
-8.0922e-07
-4.54132e-07
-2.43359e-07
-1.32369e-07
-7.56178e-08
-4.43632e-08
-2.55181e-08
-1.40846e-08
-7.39587e-09
-3.48285e-09
-9.02832e-10
9.43734e-10
2.30671e-09
3.21438e-09
3.81052e-09
4.13642e-09
4.32222e-09
4.36156e-09
4.34508e-09
4.24059e-09
4.12545e-09
3.95519e-09
3.79925e-09
3.6049e-09
3.43753e-09
3.23959e-09
3.07486e-09
2.88306e-09
2.72767e-09
2.54662e-09
2.40367e-09
2.23528e-09
2.10593e-09
1.95037e-09
1.83477e-09
1.69068e-09
1.58916e-09
1.45294e-09
1.36875e-09
1.23013e-09
1.17825e-09
1.00414e-09
1.03713e-09
7.20939e-10
1.03472e-09
1.88425e-10
1.60633e-09
0.0796991
0.0793299
0.0780433
0.0755172
0.0706633
0.0616667
0.0459678
0.019116
-0.0208526
-0.0792671
-0.13596
-0.17148
-0.202403
-0.226124
-0.243944
-0.258023
-0.26885
-0.277123
-0.282796
-0.285501
-0.284294
-0.278354
-0.267094
-0.250475
-0.229146
-0.20443
-0.178064
-0.151827
-0.127187
-0.105119
-0.0860896
-0.0701632
-0.057133
-0.0466508
-0.0383189
-0.0317479
-0.0265877
-0.0225398
-0.0193582
-0.0168449
-0.0148431
-0.0132302
-0.0119116
-0.0108148
-0.00988494
-0.00908142
-0.00837444
-0.00774265
-0.00717111
-0.00664952
-0.0061709
-0.00573045
-0.00532475
-0.00495114
-0.00460734
-0.00429115
-0.0040004
-0.00373285
-0.00348624
-0.00325834
-0.00304701
-0.00285031
-0.00266649
-0.00249406
-0.00233179
-0.00217868
-0.00203393
-0.00189693
-0.00176719
-0.0016443
-0.00152794
-0.00141782
-0.00131367
-0.00121526
-0.00112232
-0.00103461
-0.000951881
-0.000873883
-0.000800372
-0.000731121
-0.000665923
-0.000604596
-0.000546988
-0.000492975
-0.00044246
-0.000395377
-0.000351684
-0.000311357
-0.000274369
-0.000240648
-0.000210038
-0.00018225
-0.000156861
-0.000133359
-0.000111266
-9.03259e-05
-7.06006e-05
-5.25181e-05
-3.6753e-05
-2.39132e-05
-1.42803e-05
-7.6921e-06
-3.63211e-06
-1.47433e-06
-6.68223e-07
-7.73486e-07
-1.40838e-06
-2.1914e-06
-2.77075e-06
-2.91676e-06
-2.6e-06
-1.98144e-06
-1.29229e-06
-7.21703e-07
-3.47754e-07
-1.49053e-07
-6.06523e-08
-2.39634e-08
-6.68158e-09
2.74396e-09
7.21508e-09
8.35679e-09
7.9646e-09
7.39753e-09
7.01679e-09
6.78284e-09
6.51149e-09
6.2266e-09
5.89794e-09
5.6035e-09
5.29225e-09
5.021e-09
4.73118e-09
4.48207e-09
4.21442e-09
3.9882e-09
3.74241e-09
3.53793e-09
3.3126e-09
3.12828e-09
2.92186e-09
2.7562e-09
2.56733e-09
2.41905e-09
2.24641e-09
2.11433e-09
1.95637e-09
1.83944e-09
1.69386e-09
1.59183e-09
1.45438e-09
1.37048e-09
1.23e-09
1.1802e-09
1.00129e-09
1.04208e-09
7.1096e-10
1.05109e-09
1.59919e-10
1.65676e-09
0.0845606
0.0844831
0.0841655
0.0830388
0.0800139
0.0731116
0.0590136
0.0319249
-0.0124009
-0.0837465
-0.150259
-0.185376
-0.216789
-0.239725
-0.256166
-0.269086
-0.279084
-0.287087
-0.292962
-0.296179
-0.295596
-0.289861
-0.278163
-0.260322
-0.237027
-0.209845
-0.180867
-0.152229
-0.125652
-0.102212
-0.0823598
-0.0660672
-0.0530103
-0.042728
-0.0347297
-0.0285567
-0.0238117
-0.0201665
-0.0173577
-0.0151787
-0.0134695
-0.012108
-0.0110014
-0.0100806
-0.00929476
-0.00860729
-0.00799253
-0.0074331
-0.00691775
-0.00643948
-0.00599424
-0.00557964
-0.00519427
-0.00483702
-0.00450675
-0.00420212
-0.0039215
-0.00366301
-0.00342457
-0.00320404
-0.00299931
-0.00280843
-0.00262967
-0.00246156
-0.0023029
-0.00215277
-0.00201046
-0.00187544
-0.00174732
-0.00162577
-0.00151055
-0.00140142
-0.00129817
-0.00120057
-0.00110839
-0.0010214
-0.000939353
-0.000861991
-0.000789063
-0.000720331
-0.000655576
-0.000594608
-0.00053727
-0.000483438
-0.000433022
-0.000385958
-0.000342212
-0.000301763
-0.000264591
-0.000230644
-0.000199797
-0.000171821
-0.000146365
-0.000123003
-0.000101326
-8.1085e-05
-6.23432e-05
-4.54364e-05
-3.08632e-05
-1.91038e-05
-1.03449e-05
-4.39757e-06
-8.27393e-07
8.73586e-07
1.17434e-06
4.89122e-07
-7.48591e-07
-2.05465e-06
-2.98015e-06
-3.25505e-06
-2.88601e-06
-2.12277e-06
-1.28979e-06
-6.32039e-07
-2.34466e-07
-5.15598e-08
9.99219e-09
2.50323e-08
2.88946e-08
2.99925e-08
2.82033e-08
2.40227e-08
1.93528e-08
1.56474e-08
1.30647e-08
1.12542e-08
9.80932e-09
8.64099e-09
7.65578e-09
6.8815e-09
6.22113e-09
5.69629e-09
5.22177e-09
4.83887e-09
4.4739e-09
4.1773e-09
3.88003e-09
3.63835e-09
3.38565e-09
3.1817e-09
2.96071e-09
2.78475e-09
2.58808e-09
2.43443e-09
2.25757e-09
2.12272e-09
1.96239e-09
1.84409e-09
1.69706e-09
1.59446e-09
1.45584e-09
1.37214e-09
1.22999e-09
1.18197e-09
9.98973e-10
1.04628e-09
7.03197e-10
1.06408e-09
1.39535e-10
1.69302e-09
0.0894575
0.0897147
0.0905073
0.0910499
0.0903097
0.0862913
0.0747486
0.0484992
-0.001021
-0.0908551
-0.170705
-0.202509
-0.232974
-0.254502
-0.269538
-0.281423
-0.290686
-0.298563
-0.3048
-0.308767
-0.308852
-0.303449
-0.291278
-0.271991
-0.246318
-0.216133
-0.183991
-0.152485
-0.123642
-0.0986489
-0.0779148
-0.0612816
-0.0482701
-0.0382789
-0.0307067
-0.0250163
-0.0207595
-0.0175774
-0.0151903
-0.0133846
-0.0119987
-0.0109121
-0.0100357
-0.0093047
-0.0086731
-0.00810913
-0.00759187
-0.00710843
-0.00665168
-0.00621832
-0.00580749
-0.00541947
-0.00505501
-0.00471465
-0.00439849
-0.00410605
-0.00383625
-0.00358754
-0.003358
-0.00314553
-0.00294803
-0.00276353
-0.00259028
-0.00242683
-0.00227204
-0.00212508
-0.00198533
-0.00185238
-0.00172594
-0.0016058
-0.00149177
-0.00138368
-0.00128137
-0.00118465
-0.00109331
-0.00100712
-0.000925828
-0.000849181
-0.000776913
-0.000708768
-0.000644513
-0.000583948
-0.000526909
-0.000473273
-0.000422954
-0.000375895
-0.000332065
-0.000291449
-0.000254034
-0.000219788
-0.00018863
-0.000160403
-0.000134858
-0.000111677
-9.05442e-05
-7.12466e-05
-5.37582e-05
-3.82849e-05
-2.51574e-05
-1.46276e-05
-6.75996e-06
-1.3955e-06
1.78339e-06
3.1303e-06
2.97761e-06
1.70127e-06
-1.91797e-07
-2.07622e-06
-3.37186e-06
-3.75621e-06
-3.28399e-06
-2.31614e-06
-1.29541e-06
-5.31189e-07
-1.09691e-07
5.01628e-08
7.88477e-08
7.02881e-08
6.15089e-08
5.5666e-08
4.84131e-08
3.91944e-08
3.03322e-08
2.35718e-08
1.88862e-08
1.55787e-08
1.30079e-08
1.0983e-08
9.36008e-09
8.1209e-09
7.12276e-09
6.35214e-09
5.69829e-09
5.1853e-09
4.72579e-09
4.36083e-09
4.01367e-09
3.7359e-09
3.45671e-09
3.2337e-09
2.99861e-09
2.81261e-09
2.60841e-09
2.44951e-09
2.26857e-09
2.131e-09
1.9684e-09
1.84871e-09
1.70031e-09
1.59712e-09
1.45745e-09
1.37382e-09
1.23021e-09
1.18365e-09
9.97274e-10
1.04987e-09
6.97403e-10
1.07426e-09
1.25344e-10
1.71868e-09
0.0942567
0.0948838
0.0969145
0.0993771
0.101431
0.101198
0.0935535
0.069865
0.0139344
-0.10126
-0.197659
-0.22486
-0.254602
-0.27306
-0.285034
-0.294781
-0.302691
-0.310324
-0.317161
-0.32223
-0.323489
-0.318815
-0.306349
-0.285515
-0.257088
-0.223337
-0.187418
-0.15252
-0.121055
-0.0943289
-0.0726707
-0.0557439
-0.0428698
-0.0332756
-0.0262323
-0.0211156
-0.0174236
-0.0147675
-0.0128533
-0.0114621
-0.0104327
-0.00964762
-0.00902216
-0.00849677
-0.00803082
-0.00759816
-0.00718332
-0.00677855
-0.00638149
-0.00599308
-0.00561612
-0.00525393
-0.00490968
-0.00458572
-0.00428344
-0.00400325
-0.0037446
-0.0035062
-0.00328622
-0.00308255
-0.002893
-0.00271554
-0.00254836
-0.00239003
-0.00223945
-0.00209588
-0.00195884
-0.00182805
-0.00170334
-0.00158461
-0.00147179
-0.00136477
-0.00126343
-0.00116763
-0.00107716
-0.000991827
-0.000911363
-0.000835504
-0.000763968
-0.000696481
-0.00063279
-0.000572678
-0.000515978
-0.000462564
-0.000412356
-0.000365304
-0.000321383
-0.000280583
-0.000242903
-0.000208336
-0.000176856
-0.000148394
-0.000122817
-9.99333e-05
-7.95143e-05
-6.13648e-05
-4.5384e-05
-3.15767e-05
-2.00082e-05
-1.07271e-05
-3.69172e-06
1.2297e-06
4.1883e-06
5.31298e-06
4.76905e-06
2.8953e-06
3.00017e-07
-2.21051e-06
-3.89379e-06
-4.36602e-06
-3.74324e-06
-2.52084e-06
-1.28132e-06
-4.03358e-07
3.36275e-08
1.58252e-07
1.46013e-07
1.11374e-07
9.07114e-08
7.93758e-08
6.74889e-08
5.35668e-08
4.06719e-08
3.10118e-08
2.43734e-08
1.96778e-08
1.60451e-08
1.32025e-08
1.09711e-08
9.29117e-09
7.97438e-09
6.97193e-09
6.1488e-09
5.51291e-09
4.96413e-09
4.53453e-09
4.1402e-09
3.82826e-09
3.52403e-09
3.28297e-09
3.03457e-09
2.83906e-09
2.62775e-09
2.46384e-09
2.27908e-09
2.13888e-09
1.97416e-09
1.85313e-09
1.70346e-09
1.59966e-09
1.45905e-09
1.37541e-09
1.23054e-09
1.18515e-09
9.96017e-10
1.05282e-09
6.93126e-10
1.08206e-09
1.15603e-10
1.73655e-09
0.0988101
0.0998348
0.103193
0.107817
0.113165
0.117929
0.116025
0.0988766
0.0345784
-0.124192
-0.23853
-0.24779
-0.275785
-0.292766
-0.302525
-0.310004
-0.316034
-0.322927
-0.329938
-0.336039
-0.338498
-0.33481
-0.322292
-0.300003
-0.268673
-0.230994
-0.190833
-0.152112
-0.117723
-0.0891209
-0.0665334
-0.0493959
-0.0367839
-0.0277204
-0.0213289
-0.0168903
-0.0138474
-0.0117833
-0.0103921
-0.00945286
-0.00880722
-0.00834279
-0.00798154
-0.00767067
-0.00737624
-0.00707854
-0.00676819
-0.00644314
-0.00610617
-0.00576278
-0.00541964
-0.00508324
-0.00475924
-0.00445183
-0.00416373
-0.00389621
-0.00364918
-0.0034216
-0.00321166
-0.00301722
-0.00283599
-0.00266584
-0.00250494
-0.00235185
-0.00220558
-0.00206547
-0.00193118
-0.00180258
-0.00167964
-0.00156238
-0.00145081
-0.00134491
-0.0012446
-0.00114976
-0.00106023
-0.000975803
-0.000896221
-0.000821203
-0.00075045
-0.000683667
-0.00062058
-0.000560959
-0.000504627
-0.000451463
-0.000401391
-0.000354372
-0.000310388
-0.000269439
-0.000231537
-0.000196712
-0.000165
-0.000136426
-0.000110977
-8.85715e-05
-6.90572e-05
-5.2226e-05
-3.78502e-05
-2.57222e-05
-1.56574e-05
-7.48655e-06
-1.07964e-06
3.60965e-06
6.51982e-06
7.53307e-06
6.64166e-06
4.16134e-06
8.30139e-07
-2.33545e-06
-4.413e-06
-4.9555e-06
-4.15332e-06
-2.65688e-06
-1.19705e-06
-2.20187e-07
2.10588e-07
2.81193e-07
2.16804e-07
1.51704e-07
1.18464e-07
1.01906e-07
8.56215e-08
6.708e-08
5.02483e-08
3.78459e-08
2.94186e-08
2.34593e-08
1.88461e-08
1.52423e-08
1.24467e-08
1.03616e-08
8.75338e-09
7.53889e-09
6.56086e-09
5.8125e-09
5.1821e-09
4.69341e-09
4.256e-09
3.91284e-09
3.58576e-09
3.3282e-09
3.06766e-09
2.86342e-09
2.64563e-09
2.47713e-09
2.28887e-09
2.14625e-09
1.9796e-09
1.85731e-09
1.70649e-09
1.60209e-09
1.46052e-09
1.37695e-09
1.23101e-09
1.18653e-09
9.95198e-10
1.05528e-09
6.90091e-10
1.08801e-09
1.09028e-10
1.7489e-09
0.102958
0.104384
0.109111
0.116001
0.125149
0.135773
0.142351
0.134782
0.0628366
-0.133979
-0.305587
-0.293334
-0.307416
-0.312695
-0.315621
-0.318766
-0.322329
-0.328733
-0.336455
-0.344424
-0.348947
-0.346865
-0.335
-0.312035
-0.2785
-0.237388
-0.193258
-0.150847
-0.113614
-0.0832136
-0.0597888
-0.0425456
-0.0303001
-0.0218613
-0.0162017
-0.0125052
-0.0101609
-0.00872589
-0.00788551
-0.00741873
-0.0071719
-0.00703924
-0.00694974
-0.00685778
-0.00673682
-0.00657433
-0.00636758
-0.00612063
-0.00584174
-0.00554117
-0.0052297
-0.00491717
-0.00461181
-0.00431965
-0.00404476
-0.00378918
-0.00355331
-0.00333623
-0.00313617
-0.00295087
-0.00277793
-0.00261512
-0.00246053
-0.00231276
-0.00217084
-0.00203425
-0.00190279
-0.00177645
-0.00165534
-0.00153959
-0.00142931
-0.00132454
-0.00122526
-0.0011314
-0.0010428
-0.000959267
-0.000880555
-0.00080637
-0.000736396
-0.000670317
-0.000607842
-0.000548729
-0.000492795
-0.000439921
-0.00039004
-0.000343121
-0.000299157
-0.000258161
-0.000220171
-0.000185254
-0.000153511
-0.000125052
-9.99565e-05
-7.82243e-05
-5.97335e-05
-4.42317e-05
-3.136e-05
-2.07028e-05
-1.18531e-05
-4.48843e-06
1.5482e-06
6.18804e-06
9.14811e-06