/*--------------------------------*- C++ -*----------------------------------*\
  =========                 |
  \\      /  F ield         | OpenFOAM: The Open Source CFD Toolbox
   \\    /   O peration     | Website:  https://openfoam.org
    \\  /    A nd           | Version:  11
     \\/     M anipulation  |
\*---------------------------------------------------------------------------*/
FoamFile
{
    format      ascii;
    class       volVectorField;
    location    "11.643296";
    object      U;
}
// * * * * * * * * * * * * * * * * * * * * * * * * * * * * * * * * * * * * * //

dimensions      [0 1 -1 0 0 0 0];

internalField   nonuniform List<vector> 
7132
(
(1.00013 -0.000266025 2.36803e-18)
(1.00207 -0.000808957 7.91987e-18)
(1.00648 -0.00137423 8.15805e-18)
(1.01311 -0.00195278 1.01559e-17)
(1.02209 -0.00252534 1.28135e-17)
(1.03333 -0.0030512 1.3461e-17)
(1.04654 -0.00347214 1.32926e-17)
(1.06118 -0.00370019 1.30791e-17)
(1.07626 -0.00364658 1.30379e-17)
(1.09051 -0.00324186 1.30444e-17)
(1.10235 -0.00247174 1.28405e-17)
(1.11044 -0.00148149 1.26253e-17)
(1.11426 -0.000445682 1.20861e-17)
(1.11398 0.000450187 1.18528e-17)
(1.11059 0.000995255 6.45633e-18)
(1.1059 0.00106768 1.06944e-18)
(1.10196 0.000695186 -3.03002e-18)
(1.10035 5.82196e-05 -4.03126e-18)
(1.10165 -0.000554424 -6.81154e-18)
(1.10508 -0.000814475 -8.46389e-18)
(1.10855 -0.000479702 -8.08481e-18)
(1.10931 0.000464918 -7.59269e-18)
(1.10513 0.00177816 -7.22785e-18)
(1.09522 0.00309018 -5.98872e-18)
(1.08036 0.00406885 -5.85019e-18)
(1.06248 0.00450363 -7.30639e-18)
(1.04406 0.00430284 -1.9547e-18)
(1.02774 0.00345807 1.61208e-17)
(1.01607 0.00202008 -5.67251e-17)
(1.01128 0.000108709 -3.5991e-16)
(1.015 -0.00204429 -1.78182e-17)
(1.02763 -0.00403821 3.36835e-15)
(1.04755 -0.00532573 9.78593e-15)
(1.07071 -0.00540334 1.40728e-14)
(1.09138 -0.00410329 1.27401e-14)
(1.1041 -0.00175806 7.80862e-15)
(1.10581 0.00094825 3.06864e-15)
(1.09661 0.00331997 7.60579e-16)
(1.0791 0.00492071 -2.62199e-16)
(1.05694 0.00561003 -3.33744e-15)
(1.03383 0.00542496 -4.12779e-15)
(1.01311 0.00444889 2.45909e-14)
(0.997783 0.00274784 9.62058e-14)
(0.990668 0.00039618 2.51387e-14)
(0.994244 -0.0024221 -8.5442e-13)
(1.00991 -0.0052802 -3.48292e-12)
(1.0367 -0.00747877 -7.72372e-12)
(1.07032 -0.00824634 -1.13376e-11)
(1.10347 -0.00712552 -1.17467e-11)
(1.12812 -0.00429346 -8.88429e-12)
(1.13842 -0.000547067 -4.99597e-12)
(1.13276 0.00307462 -2.0025e-12)
(1.11372 0.00576316 -3.56933e-13)
(1.08629 0.00718998 2.4252e-13)
(1.05573 0.00742666 2.60374e-13)
(1.0264 0.00670572 -5.91172e-14)
(1.00161 0.00521867 -5.02028e-13)
(0.984155 0.00304806 5.65056e-14)
(0.976719 0.0002381 4.52265e-12)
(0.9818 -0.00304248 1.70188e-11)
(1.00079 -0.00634359 4.02853e-11)
(1.03257 -0.00892645 7.14249e-11)
(1.07258 -0.00998042 1.00306e-10)
(1.11313 -0.00898063 1.14602e-10)
(1.14533 -0.00598552 1.08148e-10)
(1.1619 -0.00169713 8.43369e-11)
(1.15954 0.00277717 5.27775e-11)
(1.13989 0.00636172 2.43599e-11)
(1.10842 0.00842299 5.78439e-12)
(1.07201 0.00890031 -2.82015e-12)
(1.03665 0.00812214 -4.81657e-12)
(1.00648 0.00647941 -7.54894e-13)
(0.984251 0.00418457 1.53266e-11)
(0.972375 0.00126646 5.29981e-11)
(0.97346 -0.00220778 1.18338e-10)
(0.989503 -0.00587411 2.08469e-10)
(1.02022 -0.00902539 3.11409e-10)
(1.06185 -0.010851 4.10711e-10)
(1.10745 -0.0108019 4.90762e-10)
(1.14877 -0.00883298 5.39299e-10)
(1.17856 -0.00540033 5.47708e-10)
(1.19232 -0.00127235 5.11645e-10)
(1.18902 0.0026944 4.32324e-10)
(1.17098 0.00573312 3.18815e-10)
(1.14326 0.0072983 1.92503e-10)
(1.11255 0.00717341 8.23405e-11)
(1.08568 0.00550587 1.15775e-11)
(1.06819 0.00269172 -1.22208e-11)
(1.0638 -0.000800377 4.42966e-12)
(1.07439 -0.00449413 4.95071e-11)
(1.0999 -0.00786291 1.11779e-10)
(1.13793 -0.0103222 1.8227e-10)
(1.18355 -0.0113474 2.53839e-10)
(1.23 -0.0106508 3.21129e-10)
(1.26998 -0.00830054 3.80852e-10)
(1.29728 -0.00472652 4.31839e-10)
(1.30817 -0.000620178 4.75086e-10)
(1.30212 0.00323443 5.13208e-10)
(1.28174 0.00617589 5.48283e-10)
(1.25184 0.00785654 5.78698e-10)
(1.21787 0.00830985 5.93992e-10)
(1.18438 0.00784818 5.74434e-10)
(1.15428 0.00683073 5.02247e-10)
(1.12917 0.00545839 3.78808e-10)
(1.11029 0.00375128 2.30872e-10)
(1.09904 0.00170148 9.70816e-11)
(1.09668 -0.000559093 6.18417e-12)
(1.1036 -0.00271738 -3.46485e-11)
(1.11857 -0.00436963 -3.59262e-11)
(1.13873 -0.00515429 -1.49912e-11)
(1.16001 -0.0048591 1.2405e-11)
(1.17785 -0.0034842 3.54778e-11)
(1.18817 -0.001266 4.85796e-11)
(1.18828 0.00135175 5.03334e-11)
(1.17761 0.00381929 4.27236e-11)
(1.15786 0.00564372 2.98864e-11)
(1.13245 0.00654351 1.65144e-11)
(1.10538 0.00651274 6.17343e-12)
(1.08014 0.0057676 2.55451e-13)
(1.05903 0.0046208 -1.87032e-12)
(1.04302 0.00336034 -1.79916e-12)
(1.03205 0.00218408 -9.99426e-13)
(1.0255 0.00119401 -2.9833e-13)
(1.0225 0.000423317 6.6844e-14)
(1.02215 -0.000131466 1.67701e-13)
(1.0236 -0.000488046 1.46315e-13)
(1.02612 -0.000667648 1.03557e-13)
(1.02902 -0.000692791 8.13455e-14)
(1.03173 -0.000589449 8.31075e-14)
(1.0338 -0.000389575 9.71569e-14)
(1.0349 -0.000131259 1.1097e-13)
(1.03488 0.000144453 1.16831e-13)
(1.03376 0.000399095 1.12533e-13)
(1.03168 0.000602465 9.97737e-14)
(1.02892 0.000736268 8.20999e-14)
(1.02577 0.000794876 6.32824e-14)
(1.02253 0.000783585 4.63371e-14)
(1.01946 0.000715415 3.31487e-14)
(1.01677 0.000607554 2.45106e-14)
(1.01458 0.000478195 2.03977e-14)
(1.01293 0.000344086 2.02895e-14)
(1.01182 0.000218906 2.34381e-14)
(1.01118 0.00011241 2.90427e-14)
(1.01092 3.02643e-05 3.63255e-14)
(1.01094 -2.55665e-05 4.45602e-14)
(1.01113 -5.60903e-05 5.30797e-14)
(1.0114 -6.44019e-05 6.12761e-14)
(1.01166 -5.48676e-05 6.86164e-14)
(1.01185 -3.23761e-05 7.46679e-14)
(1.01192 -1.87671e-06 7.91377e-14)
(1.01187 3.21442e-05 8.19054e-14)
(1.01167 6.57055e-05 8.3037e-14)
(1.01134 9.59034e-05 8.27672e-14)
(1.0109 0.000120339 8.14509e-14)
(1.01039 0.000138219 7.95047e-14)
(1.00977 0.000148523 7.73504e-14)
(1.00922 0.000152713 7.53382e-14)
(1.0085 0.000149881 7.38133e-14)
(1.0081 0.000145189 7.27256e-14)
(1.00719 0.000128651 7.28757e-14)
(1.00013 -0.000796429 3.29316e-20)
(1.00206 -0.00242333 3.77131e-19)
(1.00645 -0.00411911 7.45654e-19)
(1.01307 -0.00585912 1.14105e-18)
(1.02206 -0.00758649 1.63736e-18)
(1.03337 -0.00917985 2.18937e-18)
(1.04672 -0.0104641 2.66208e-18)
(1.06159 -0.0111702 3.28764e-18)
(1.07699 -0.0110257 5.46284e-18)
(1.0916 -0.00980958 5.78554e-18)
(1.10375 -0.00747166 5.39848e-18)
(1.11199 -0.00446189 9.20805e-18)
(1.11578 -0.0013128 8.54192e-18)
(1.11527 0.0014089 8.25333e-18)
(1.11147 0.00305285 8.0678e-18)
(1.10631 0.00324433 7.58644e-18)
(1.102 0.00206792 6.80849e-18)
(1.10026 8.00224e-05 6.94705e-18)
(1.10173 -0.00182948 8.9997e-18)
(1.10562 -0.0026537 1.1382e-17)
(1.10969 -0.00164313 1.19718e-17)
(1.11096 0.00125094 1.0528e-17)
(1.10699 0.00528076 7.77117e-18)
(1.09694 0.00930343 5.71845e-18)
(1.08168 0.0123032 -3.2354e-19)
(1.06324 0.013647 -1.88446e-17)
(1.04418 0.0130663 4.73017e-17)
(1.02722 0.0105392 3.02725e-16)
(1.01497 0.00621248 -8.09003e-16)
(1.00977 0.000431199 -6.19446e-15)
(1.01339 -0.00612298 5.53566e-15)
(1.02641 -0.0122387 1.13427e-13)
(1.04727 -0.0162301 3.27087e-13)
(1.07172 -0.0165261 4.51407e-13)
(1.09362 -0.0125909 3.53299e-13)
(1.1071 -0.00544133 1.65179e-13)
(1.10891 0.00281483 4.32039e-14)
(1.09925 0.010043 -1.80491e-16)
(1.08098 0.0149153 -8.45393e-15)
(1.05796 0.0170196 -1.55025e-14)
(1.03402 0.0164856 -6.5939e-15)
(1.0125 0.0135741 1.04015e-13)
(0.996411 0.00847496 2.91868e-13)
(0.988653 0.00138242 -2.10753e-13)
(0.991927 -0.00718441 -3.62506e-12)
(1.00794 -0.0159429 -1.21346e-11)
(1.03589 -0.0227363 -2.43529e-11)
(1.07127 -0.0251615 -3.45634e-11)
(1.10625 -0.0217884 -3.61452e-11)
(1.13216 -0.0131621 -2.76566e-11)
(1.14282 -0.00173812 -1.55067e-11)
(1.13665 0.00929903 -6.36392e-12)
(1.11658 0.0174741 -1.26134e-12)
(1.08799 0.0217972 7.25146e-13)
(1.05638 0.0225119 8.14213e-13)
(1.02616 0.0203491 -3.88665e-13)
(1.00059 0.0158992 -1.93234e-12)
(0.982369 0.00939999 1.51797e-12)
(0.974166 0.00095151 2.40184e-11)
(0.978583 -0.00897439 8.59606e-11)
(0.99723 -0.0190333 1.9903e-10)
(1.02926 -0.0269801 3.45528e-10)
(1.07028 -0.0303226 4.75316e-10)
(1.11249 -0.0274132 5.30916e-10)
(1.14658 -0.0183866 4.8532e-10)
(1.16464 -0.00536871 3.61887e-10)
(1.16292 0.00826257 2.15582e-10)
(1.14294 0.0192068 9.48609e-11)
(1.1105 0.0255056 2.17074e-11)
(1.07292 0.0269713 -8.98195e-12)
(1.0365 0.024633 -1.41556e-11)
(1.0054 0.0197161 -3.2105e-12)
(0.982239 0.0128711 3.15827e-11)
(0.969386 0.00414176 1.07869e-10)
(0.969712 -0.00633579 2.35074e-10)
(0.985667 -0.0174923 4.00171e-10)
(1.01721 -0.0271515 5.71781e-10)
(1.0603 -0.0327832 7.19032e-10)
(1.10738 -0.032678 8.24899e-10)
(1.14959 -0.0267223 8.82369e-10)
(1.17949 -0.0163545 8.83249e-10)
(1.1928 -0.00392649 8.16899e-10)
(1.18887 0.00799853 6.81626e-10)
(1.1703 0.0171476 4.95149e-10)
(1.14219 0.0219002 2.95009e-10)
(1.11114 0.0216014 1.25405e-10)
(1.08387 0.0166687 1.81775e-11)
(1.06596 0.00825144 -1.73058e-11)
(1.0614 -0.0022899 1.00322e-11)
(1.07244 -0.013548 8.28785e-11)
(1.09936 -0.0239048 1.81797e-10)
(1.13969 -0.0315152 2.88119e-10)
(1.18807 -0.0347075 3.86743e-10)
(1.23709 -0.0325675 4.68519e-10)
(1.27889 -0.0253194 5.30503e-10)
(1.30695 -0.0143285 5.74204e-10)
(1.31748 -0.001752 6.03492e-10)
(1.31013 0.0100175 6.23646e-10)
(1.28779 0.0189784 6.40228e-10)
(1.25562 0.0240746 6.54662e-10)
(1.21943 0.0254079 6.57744e-10)
(1.18407 0.0239347 6.28615e-10)
(1.15262 0.0207642 5.46915e-10)
(1.12672 0.0165311 4.12084e-10)
(1.10756 0.0113174 2.51199e-10)
(1.09642 0.00510514 1.05646e-10)
(1.09444 -0.00171785 8.34544e-12)
(1.10185 -0.00822228 -2.96009e-11)
(1.11731 -0.0132011 -1.73721e-11)
(1.1379 -0.0155729 2.44951e-11)
(1.15956 -0.0147032 7.30247e-11)
(1.17779 -0.0105909 1.09499e-10)
(1.1885 -0.00393702 1.23728e-10)
(1.18894 0.00394116 1.15092e-10)
(1.17845 0.0113978 9.01958e-11)
(1.15867 0.0169379 5.89698e-11)
(1.13302 0.0196937 3.0565e-11)
(1.10561 0.019632 1.04626e-11)
(1.08005 0.0173992 -2.85585e-13)
(1.0587 0.0139409 -3.84202e-12)
(1.04257 0.0101321 -3.48342e-12)
(1.03161 0.00657554 -1.90284e-12)
(1.02516 0.00358224 -5.52799e-13)
(1.02231 0.00125342 1.6022e-13)
(1.02214 -0.00042194 3.70849e-13)
(1.02379 -0.00149809 3.42206e-13)
(1.02649 -0.00203949 2.66781e-13)
(1.02955 -0.00211417 2.28275e-13)
(1.0324 -0.00180026 2.34881e-13)
(1.03456 -0.001194 2.62844e-13)
(1.03571 -0.000410392 2.85885e-13)
(1.0357 0.000426308 2.88313e-13)
(1.03455 0.00119935 2.67345e-13)
(1.03242 0.0018169 2.29036e-13)
(1.02958 0.00222333 1.82836e-13)
(1.02634 0.00240153 1.37548e-13)
(1.02303 0.00236764 9.92978e-14)
(1.01991 0.00216125 7.11715e-14)
(1.01718 0.00183457 5.38059e-14)
(1.01496 0.00144281 4.63034e-14)
(1.01331 0.00103677 4.70445e-14)
(1.0122 0.000657912 5.42153e-14)
(1.01158 0.00033577 6.60657e-14)
(1.01135 8.74641e-05 8.09695e-14)
(1.01139 -8.11145e-05 9.74239e-14)
(1.01161 -0.000173078 1.1406e-13)
(1.0119 -0.000197847 1.29647e-13)
(1.01217 -0.000168671 1.43132e-13)
(1.01237 -0.000100365 1.53706e-13)
(1.01246 -7.89807e-06 1.60873e-13)
(1.0124 9.5157e-05 1.64515e-13)
(1.0122 0.000196785 1.64898e-13)
(1.01187 0.000288178 1.62609e-13)
(1.01142 0.000362144 1.58436e-13)
(1.0109 0.000416186 1.53236e-13)
(1.01028 0.000447413 1.47832e-13)
(1.00971 0.000459905 1.42884e-13)
(1.00899 0.000451536 1.38969e-13)
(1.00858 0.000436955 1.36122e-13)
(1.00767 0.000387152 1.35018e-13)
(1.00012 -0.00132249 1.64202e-22)
(1.00203 -0.00402666 5.83183e-21)
(1.00639 -0.00685292 4.12007e-21)
(1.01299 -0.00976603 -3.15949e-21)
(1.022 -0.0126758 -7.82331e-20)
(1.03342 -0.0153829 2.62916e-20)
(1.04704 -0.0175949 -5.06787e-19)
(1.06237 -0.0188466 -4.89531e-19)
(1.07842 -0.0186629 1.73368e-18)
(1.09378 -0.0166308 -6.39369e-20)
(1.10656 -0.0126388 -7.21e-18)
(1.11511 -0.00748169 -9.44109e-18)
(1.11884 -0.00206645 -2.45347e-18)
(1.11786 0.00264168 8.72353e-18)
(1.11324 0.00549244 1.7908e-17)
(1.10716 0.00581034 2.11556e-17)
(1.10214 0.00372625 2.10295e-17)
(1.10015 0.000194529 3.0295e-17)
(1.10201 -0.00324347 6.31097e-17)
(1.10687 -0.00480728 9.86561e-17)
(1.11217 -0.00315155 1.05199e-16)
(1.11441 0.00182447 8.92554e-17)
(1.11077 0.00879668 6.33357e-17)
(1.10033 0.0157502 3.79697e-17)
(1.08414 0.0209242 -1.9456e-17)
(1.06447 0.0232529 -1.11381e-16)
(1.04412 0.0223058 3.94673e-16)
(1.02593 0.0180595 1.32234e-15)
(1.01263 0.0107466 -6.57641e-15)
(1.00673 0.000905863 -2.62768e-14)
(1.01031 -0.0103562 7.86086e-14)
(1.02427 -0.0209778 6.23718e-13)
(1.04716 -0.0279964 1.56343e-12)
(1.07431 -0.0285964 2.15444e-12)
(1.09869 -0.0217916 1.77231e-12)
(1.11354 -0.00938107 8.58815e-13)
(1.11527 0.00489604 2.25859e-13)
(1.10437 0.0172966 -1.03701e-14)
(1.0843 0.0255641 -5.69021e-14)
(1.05944 0.0290804 -4.85618e-14)
(1.03381 0.0281509 7.00996e-14)
(1.01077 0.0232523 2.49861e-13)
(0.993329 0.0146725 -4.41621e-13)
(0.984527 0.00264601 -2.66903e-12)
(0.987448 -0.0120502 3.72495e-13)
(1.00429 -0.0272517 2.88331e-11)
(1.03456 -0.039154 9.03551e-11)
(1.07348 -0.0434505 1.45853e-10)
(1.11225 -0.0375841 1.45128e-10)
(1.14081 -0.0225571 9.39649e-11)
(1.15206 -0.00275487 3.80187e-11)
(1.14451 0.0162207 5.10386e-12)
(1.12192 0.0301005 -4.1402e-12)
(1.09066 0.037283 -2.38787e-12)
(1.05681 0.0383289 -2.82934e-13)
(1.02488 0.0345919 -2.36012e-12)
(0.997917 0.0271115 -4.97951e-12)
(0.978348 0.0162632 1.30178e-11)
(0.968669 0.00214333 9.60249e-11)
(0.971608 -0.0145555 2.90008e-10)
(0.98933 -0.0316713 5.94592e-10)
(1.02167 -0.0454579 9.41882e-10)
(1.06446 -0.0516182 1.22982e-09)
(1.10958 -0.0471536 1.36423e-09)
(1.14701 -0.032057 1.28588e-09)
(1.16795 -0.00983338 1.009e-09)
(1.16774 0.0136589 6.37242e-10)
(1.14753 0.0325757 3.01002e-10)
(1.11347 0.0434227 8.12064e-11)
(1.07372 0.045888 -1.79333e-11)
(1.03527 0.0418702 -3.7079e-11)
(1.00245 0.0336031 -8.68224e-12)
(0.9777 0.0221943 6.95981e-11)
(0.963511 0.00754126 2.1647e-10)
(0.96345 -0.0103309 4.26989e-10)
(0.980756 -0.0296117 6.56295e-10)
(1.01539 -0.0463527 8.48852e-10)
(1.0623 -0.0559613 9.78329e-10)
(1.1125 -0.0554637 1.05597e-09)
(1.15607 -0.0448775 1.10581e-09)
(1.18528 -0.0269691 1.13084e-09)
(1.19641 -0.00592482 1.09925e-09)
(1.18981 0.0139679 9.70909e-10)
(1.16892 0.0290771 7.43244e-10)
(1.13918 0.0368675 4.64776e-10)
(1.10709 0.0363205 2.10406e-10)
(1.07909 0.0280837 4.15232e-11)
(1.06079 0.0139294 -1.71452e-11)
(1.05659 -0.00402883 2.43864e-11)
(1.06945 -0.0234657 1.34865e-10)
(1.0999 -0.0414846 2.75758e-10)
(1.14497 -0.0546902 4.13522e-10)
(1.19822 -0.0600659 5.27644e-10)
(1.25118 -0.0560674 6.11457e-10)
(1.29538 -0.0432131 6.67504e-10)
(1.32411 -0.0239843 7.02056e-10)
(1.33363 -0.00216742 7.21341e-10)
(1.32378 0.0181143 7.31107e-10)
(1.29782 0.0334425 7.37869e-10)
(1.26149 0.0420258 7.44423e-10)
(1.22121 0.0440658 7.41844e-10)
(1.18237 0.0412397 7.06871e-10)
(1.14837 0.0354981 6.15049e-10)
(1.12101 0.0279871 4.63567e-10)
(1.1014 0.0189046 2.8203e-10)
(1.09064 0.00826158 1.1917e-10)
(1.08956 -0.00327195 1.7484e-11)
(1.09797 -0.0141486 -4.60877e-12)
(1.11423 -0.0223974 4.37284e-11)
(1.13533 -0.0262851 1.32797e-10)
(1.15736 -0.0248056 2.24559e-10)
(1.17604 -0.0179506 2.85729e-10)
(1.1874 -0.00683654 2.98336e-10)
(1.18856 0.00638527 2.63949e-10)
(1.17857 0.0189664 1.98963e-10)
(1.15889 0.0283625 1.25649e-10)
(1.13297 0.0330657 6.28799e-11)
(1.10508 0.0329888 2.04032e-11)
(1.07904 0.0292166 -1.48302e-12)
(1.05738 0.0233577 -8.39922e-12)
(1.04118 0.0169061 -7.43227e-12)
(1.03038 0.0108913 -4.06313e-12)
(1.02426 0.00584289 -1.18575e-12)
(1.02184 0.00192948 3.82406e-13)
(1.02213 -0.000872822 8.99479e-13)
(1.02422 -0.00266083 8.96353e-13)
(1.02732 -0.00354677 7.75441e-13)
(1.03072 -0.00364662 7.19217e-13)
(1.03382 -0.00309218 7.47894e-13)
(1.03614 -0.00204579 8.08754e-13)
(1.03736 -0.000702406 8.42688e-13)
(1.03733 0.000726564 8.16808e-13)
(1.03608 0.00204231 7.30891e-13)
(1.03379 0.00308897 6.06032e-13)
(1.03078 0.00377301 4.69516e-13)
(1.02737 0.0040671 3.44172e-13)
(1.02391 0.00400054 2.43876e-13)
(1.02068 0.00364215 1.73794e-13)
(1.01788 0.00308169 1.32964e-13)
(1.01564 0.00241344 1.17226e-13)
(1.01399 0.0017237 1.21421e-13)
(1.01292 0.00108255 1.40558e-13)
(1.01235 0.000539557 1.70177e-13)
(1.01218 0.000123069 2.06294e-13)
(1.01229 -0.000157646 2.45272e-13)
(1.01256 -0.000308518 2.83809e-13)
(1.01289 -0.000346016 3.18965e-13)
(1.0132 -0.000292913 3.48291e-13)
(1.01342 -0.000174457 3.70011e-13)
(1.01352 -1.60114e-05 3.83186e-13)
(1.01346 0.000159505 3.87824e-13)
(1.01325 0.000331883 3.84856e-13)
(1.01291 0.000486336 3.75903e-13)
(1.01243 0.000610878 3.62974e-13)
(1.01189 0.00070137 3.48141e-13)
(1.01125 0.000753175 3.33291e-13)
(1.01067 0.000773143 3.19896e-13)
(1.00993 0.000758107 3.09079e-13)
(1.00951 0.000732496 3.01149e-13)
(1.00859 0.000647507 2.96013e-13)
(1.00012 -0.00184096 -3.55291e-20)
(1.00199 -0.00560959 -4.82891e-19)
(1.00629 -0.00956539 -8.95615e-19)
(1.01283 -0.0136695 -1.59874e-18)
(1.02186 -0.0178069 -1.9572e-18)
(1.03344 -0.0217054 -2.79129e-18)
(1.04746 -0.0249556 -6.65633e-18)
(1.06348 -0.0268713 4.86925e-18)
(1.08052 -0.0267437 1.15474e-18)
(1.09708 -0.0238927 -4.35246e-17)
(1.11085 -0.0181035 -5.37986e-17)
(1.11989 -0.0105937 3.21974e-17)
(1.12356 -0.00268382 1.33621e-16)
(1.12186 0.00422686 1.87245e-16)
(1.11595 0.00839286 1.62778e-16)
(1.10841 0.00877479 5.32983e-17)
(1.10223 0.0055447 -1.07213e-16)
(1.09983 0.000113548 -2.70431e-16)
(1.10227 -0.00521889 -3.94991e-16)
(1.10866 -0.00775789 -3.53869e-16)
(1.11592 -0.00542253 -1.03366e-16)
(1.11972 0.00195716 1.35924e-16)
(1.1166 0.0123349 2.17855e-16)
(1.10552 0.0226322 1.22861e-16)
(1.08785 0.0302384 -1.76409e-16)
(1.06628 0.0336551 1.93732e-16)
(1.04394 0.0323359 1.39889e-15)
(1.02386 0.0262872 -9.18552e-15)
(1.00895 0.0158146 -1.08162e-14)
(1.00197 0.00159681 1.9292e-13)
(1.00545 -0.0148846 2.2404e-13)
(1.02086 -0.0306625 -2.86276e-12)
(1.04693 -0.0412637 -1.02632e-11)
(1.07837 -0.0423095 -1.47514e-11)
(1.10668 -0.0322063 -1.11539e-11)
(1.12366 -0.0137093 -4.77953e-12)
(1.12515 0.00742494 -1.01588e-12)
(1.11218 0.0255366 8.34485e-14)
(1.0892 0.0373809 8.02134e-14)
(1.06143 0.0422615 1.08419e-13)
(1.03322 0.0408158 5.25925e-13)
(1.00793 0.0338124 -8.54841e-13)
(0.988513 0.0215992 -7.75763e-12)
(0.978126 0.00433373 -4.08641e-12)
(0.980152 -0.0170494 8.53683e-11)
(0.997203 -0.039485 3.69938e-10)
(1.02939 -0.0573391 8.35811e-10)
(1.07247 -0.0640358 1.24536e-09)
(1.11711 -0.0554743 1.30955e-09)
(1.15109 -0.0330516 9.87021e-10)
(1.16483 -0.00354955 5.23728e-10)
(1.15611 0.024396 1.74587e-10)
(1.1299 0.0444027 1.17288e-11)
(1.09443 0.054343 -2.44699e-11)
(1.05705 0.0553913 -1.68912e-11)
(1.02254 0.0497897 -1.18976e-11)
(0.993557 0.0391628 -5.49365e-12)
(0.971876 0.0240291 5.89319e-11)
(0.95968 0.00433691 2.64514e-10)
(0.960286 -0.0192843 6.42536e-10)
(0.977218 -0.044051 1.11093e-09)
(1.01117 -0.0645557 1.53629e-09)
(1.0574 -0.0743058 1.84471e-09)
(1.10639 -0.0687071 2.02118e-09)
(1.14719 -0.0475601 2.01868e-09)
(1.17078 -0.0156972 1.75682e-09)
(1.1722 0.0185066 1.25365e-09)
(1.15206 0.0463495 6.81121e-10)
(1.11642 0.0623972 2.34082e-10)
(1.0741 0.0660529 -4.83176e-12)
(1.03295 0.0602553 -6.86233e-11)
(0.997695 0.0484962 -1.64409e-11)
(0.970866 0.032343 1.28211e-10)
(0.955522 0.0112791 3.55858e-10)
(0.956345 -0.0149395 6.20911e-10)
(0.977161 -0.0434496 8.46603e-10)
(1.01707 -0.0679316 9.81667e-10)
(1.06923 -0.0813632 1.03175e-09)
(1.12308 -0.0795855 1.04118e-09)
(1.16787 -0.0631134 1.05968e-09)
(1.1957 -0.0364998 1.1099e-09)
(1.20332 -0.00615666 1.15736e-09)
(1.19218 0.0217688 1.12057e-09)
(1.16704 0.0424636 9.40537e-10)
(1.13416 0.0528028 6.41602e-10)
(1.10011 0.0516301 3.21953e-10)
(1.07105 0.0398072 8.85596e-11)
(1.05258 0.0195075 -3.23273e-13)
(1.04968 -0.00660527 4.96124e-11)
(1.06598 -0.0351918 1.88047e-10)
(1.10175 -0.0616664 3.53555e-10)
(1.15272 -0.0806907 5.01451e-10)
(1.21094 -0.0878388 6.13134e-10)
(1.2671 -0.081172 6.89116e-10)
(1.31266 -0.0617875 7.37297e-10)
(1.34124 -0.0334335 7.6561e-10)
(1.34936 -0.00155749 7.80493e-10)
(1.33689 0.0279406 7.88243e-10)
(1.30719 0.0501227 7.95781e-10)
(1.26635 0.0623667 8.06444e-10)
(1.22138 0.0649518 8.1036e-10)
(1.17834 0.0603404 7.79896e-10)
(1.14117 0.0514376 6.84218e-10)
(1.11194 0.0400171 5.17599e-10)
(1.09182 0.0264995 3.15074e-10)
(1.08164 0.0110258 1.38641e-10)
(1.08168 -0.0053782 4.52532e-11)
(1.09115 -0.0205543 5.94354e-11)
(1.108 -0.0318821 1.64675e-10)
(1.12921 -0.0371421 3.15323e-10)
(1.15119 -0.0350669 4.57696e-10)
(1.17013 -0.0256179 5.47154e-10)
(1.1823 -0.0101888 5.58392e-10)
(1.18471 0.00837022 4.91721e-10)
(1.17601 0.0262358 3.71788e-10)
(1.1572 0.0397324 2.36243e-10)
(1.13154 0.0465912 1.19259e-10)
(1.10343 0.04659 3.93961e-11)
(1.077 0.0412436 -2.26834e-12)
(1.05507 0.0328678 -1.58697e-11)
(1.03887 0.0236329 -1.44322e-11)
(1.02837 0.015039 -8.14735e-12)
(1.02279 0.0078547 -2.52774e-12)
(1.02104 0.00231847 7.34701e-13)
(1.02205 -0.00161435 1.99979e-12)
(1.02484 -0.00409356 2.21509e-12)
(1.02856 -0.00528745 2.14062e-12)
(1.03247 -0.00536488 2.13584e-12)
(1.03596 -0.00451421 2.2438e-12)
(1.03853 -0.00296724 2.35927e-12)
(1.03984 -0.00100407 2.36651e-12)
(1.03976 0.00107012 2.21116e-12)
(1.03834 0.00296825 1.91346e-12)
(1.03581 0.00446659 1.53846e-12)
(1.03252 0.00543335 1.15828e-12)
(1.02885 0.00583355 8.274e-13)
(1.02516 0.00571406 5.74317e-13)
(1.02177 0.00517789 4.05025e-13)
(1.01887 0.0043568 3.11441e-13)
(1.01659 0.0033876 2.79512e-13)
(1.01497 0.00239447 2.94563e-13)
(1.01396 0.00147729 3.43643e-13)
(1.01348 0.000705884 4.15823e-13)
(1.01341 0.0001192 5.016e-13)
(1.01361 -0.000271248 5.92386e-13)
(1.01397 -0.000475541 6.80402e-13)
(1.01437 -0.000518508 7.58769e-13)
(1.01472 -0.000433556 8.21909e-13)
(1.01498 -0.000257219 8.66022e-13)
(1.01508 -2.58656e-05 8.89441e-13)
(1.01502 0.000227858 8.92786e-13)
(1.01479 0.000475309 8.78788e-13)
(1.01442 0.000695683 8.51652e-13)
(1.01392 0.000872172 8.16277e-13)
(1.01335 0.000999289 7.77517e-13)
(1.01268 0.00107063 7.39618e-13)
(1.01207 0.00109657 7.0578e-13)
(1.01131 0.00107242 6.78201e-13)
(1.01087 0.00103414 6.57913e-13)
(1.00994 0.000910295 6.41973e-13)
(1.00012 -0.0023473 -2.39195e-18)
(1.00194 -0.00715994 -7.6568e-18)
(1.00613 -0.0122408 -6.50366e-18)
(1.01258 -0.0175583 -8.90141e-18)
(1.0216 -0.0229848 -3.96016e-18)
(1.03336 -0.0281851 -2.26708e-17)
(1.04788 -0.0326353 1.64372e-17)
(1.06485 -0.0353943 2.05255e-17)
(1.08327 -0.0354749 -2.01562e-16)
(1.10151 -0.0318051 -6.74558e-17)
(1.1167 -0.0239976 5.89547e-16)
(1.12643 -0.0138171 1.08728e-15)
(1.13001 -0.00302483 9.72506e-16)
(1.1273 0.00650675 3.72933e-16)
(1.11954 0.0122615 -6.5417e-16)
(1.10988 0.0127059 -2.05752e-15)
(1.10203 0.00803497 -3.63495e-15)
(1.09903 0.000179002 -5.77572e-15)
(1.10233 -0.00766575 -9.88415e-15)
(1.11096 -0.0116424 -1.30086e-14)
(1.12109 -0.00868338 -9.78097e-15)
(1.12717 0.00149652 -4.29846e-15)
(1.12477 0.0159141 -1.09083e-15)
(1.11274 0.0301385 -3.44483e-16)
(1.09292 0.0405465 -7.83186e-17)
(1.06869 0.0452021 6.1862e-15)
(1.0436 0.0435082 -1.13597e-14)
(1.02095 0.035551 -1.04127e-13)
(1.00379 0.0216933 2.78909e-13)
(0.99521 0.00266267 1.89982e-12)
(0.998413 -0.0197869 -2.84454e-12)
(1.01582 -0.0417168 -3.59396e-11)
(1.04661 -0.0567691 -9.8491e-11)
(1.08436 -0.0584872 -1.40677e-10)
(1.11826 -0.0444313 -1.19307e-10)
(1.13808 -0.0185891 -6.13711e-11)
(1.139 0.0106671 -1.80476e-11)
(1.1229 0.0352828 -6.70946e-13)
(1.09574 0.0509364 2.25301e-12)
(1.06392 0.0570664 2.01588e-12)
(1.03222 0.054895 1.31713e-12)
(1.00396 0.0456031 -9.21894e-12)
(0.98193 0.0295765 -2.70179e-11)
(0.969064 0.00683932 4.47686e-11)
(0.968501 -0.0215659 4.37693e-10)
(0.98323 -0.0518508 1.31476e-09)
(1.01498 -0.0767963 2.48962e-09)
(1.06135 -0.0873462 3.48062e-09)
(1.11325 -0.0769213 3.78807e-09)
(1.15619 -0.0464134 3.18918e-09)
(1.17662 -0.00523821 1.99966e-09)
(1.16943 0.0337111 8.62577e-10)
(1.14004 0.0609401 1.79247e-10)
(1.09937 0.0736914 -6.14527e-11)
(1.0572 0.0742572 -7.74095e-11)
(1.01918 0.0663319 -4.51705e-11)
(0.987418 0.0524444 5.68119e-12)
(0.962731 0.0332063 1.67218e-10)
(0.947301 0.00795185 5.26733e-10)
(0.946088 -0.0233076 1.02237e-09)
(0.964507 -0.0571063 1.46276e-09)
(1.00314 -0.085563 1.72195e-09)
(1.05508 -0.0992564 1.84905e-09)
(1.1085 -0.0920684 1.97151e-09)
(1.15143 -0.0642347 2.11235e-09)
(1.17541 -0.0222939 2.10548e-09)
(1.17652 0.0230616 1.76176e-09)
(1.15557 0.0604809 1.13487e-09)
(1.11827 0.0823878 4.9245e-10)
(1.07343 0.0875978 6.61753e-11)
(1.02937 0.0800588 -8.68087e-11)
(0.99127 0.0646408 -2.06728e-11)
(0.962263 0.043281 1.9614e-10)
(0.946526 0.0148135 4.903e-10)
(0.949846 -0.0211315 7.65241e-10)
(0.975758 -0.0599639 9.3973e-10)
(1.02153 -0.0924017 9.99017e-10)
(1.07837 -0.109 9.846e-10)
(1.13475 -0.104811 9.49879e-10)
(1.17985 -0.0811909 9.39256e-10)
(1.20599 -0.0446769 9.84089e-10)
(1.21006 -0.00414345 1.07443e-09)
(1.19403 0.0321228 1.12845e-09)
(1.1638 0.058086 1.03814e-09)
(1.12678 0.0703179 7.74928e-10)
(1.09001 0.0678586 4.31035e-10)
(1.05963 0.0518419 1.52015e-10)
(1.04141 0.0246197 3.61434e-11)
(1.04099 -0.0107174 8.68994e-11)
(1.0621 -0.0494876 2.3752e-10)
(1.10381 -0.0848552 4.09418e-10)
(1.15989 -0.109307 5.54181e-10)
(1.22109 -0.117291 6.59181e-10)
(1.27799 -0.106961 7.31168e-10)
(1.32282 -0.0802991 7.79283e-10)
(1.35004 -0.0423263 8.08251e-10)
(1.35658 2.63824e-05 8.21198e-10)
(1.34222 0.0392057 8.24709e-10)
(1.30999 0.0687028 8.29229e-10)
(1.26585 0.0849085 8.42325e-10)
(1.21711 0.0880437 8.54867e-10)
(1.17039 0.0813265 8.33622e-10)
(1.13029 0.0686869 7.38605e-10)
(1.09936 0.0526585 5.60311e-10)
(1.0789 0.0340578 3.42773e-10)
(1.06945 0.013336 1.6625e-10)
(1.07065 -0.00802361 1.00836e-10)
(1.08104 -0.027308 1.66151e-10)
(1.09826 -0.0414313 3.26374e-10)
(1.11933 -0.0478873 5.19476e-10)
(1.14095 -0.0452677 6.89388e-10)
(1.15977 -0.0335023 7.96801e-10)
(1.17248 -0.0141212 8.15521e-10)
(1.17626 0.00954332 7.35652e-10)
(1.1694 0.032731 5.75537e-10)
(1.15232 0.0505947 3.80151e-10)
(1.1278 0.0599392 2.0073e-10)
(1.10015 0.0602451 7.15397e-11)
(1.07375 0.053389 3.4959e-13)
(1.05177 0.0424201 -2.52209e-11)
(1.03571 0.0302567 -2.47561e-11)
(1.02564 0.0189367 -1.48481e-11)
(1.02077 0.00950905 -5.09151e-12)
(1.01992 0.00229557 1.14652e-12)
(1.02189 -0.00277379 4.0872e-12)
(1.02561 -0.00591419 5.1456e-12)
(1.03015 -0.00736204 5.55168e-12)
(1.03475 -0.00734715 5.90155e-12)
(1.03875 -0.00611933 6.25546e-12)
(1.04163 -0.00398475 6.42539e-12)
(1.04307 -0.00131589 6.2292e-12)
(1.04291 0.00147904 5.6223e-12)
(1.04127 0.00401588 4.71047e-12)
(1.03842 0.00599754 3.67534e-12)
(1.03476 0.00725328 2.69069e-12)
(1.03073 0.00774432 1.87336e-12)
(1.02675 0.00754165 1.27296e-12)
(1.02313 0.00678973 8.86934e-13)
(1.02011 0.00566885 6.83951e-13)
(1.0178 0.00436348 6.23667e-13)
(1.01621 0.00303897 6.68331e-13)
(1.01529 0.0018267 7.86776e-13)
(1.01493 0.000816857 9.53766e-13)
(1.01499 5.79762e-05 1.14779e-12)
(1.01533 -0.000437938 1.34956e-12)
(1.0158 -0.000687149 1.5416e-12)
(1.01628 -0.000724765 1.7086e-12)
(1.0167 -0.000596424 1.8385e-12)
(1.01699 -0.000351139 1.92365e-12)
(1.0171 -3.70948e-05 1.9615e-12)
(1.01703 0.000302838 1.95468e-12)
(1.01678 0.000631301 1.91037e-12)
(1.01638 0.000921429 1.83868e-12)
(1.01583 0.00115161 1.75083e-12)
(1.01522 0.00131539 1.65755e-12)
(1.01451 0.00140468 1.56792e-12)
(1.01387 0.00143426 1.48857e-12)
(1.01308 0.00139758 1.42358e-12)
(1.01262 0.00134407 1.37569e-12)
(1.01168 0.00117639 1.33388e-12)
(1.00011 -0.00283594 2.34704e-18)
(1.00185 -0.00866182 8.25633e-18)
(1.00589 -0.0148569 6.50302e-18)
(1.01219 -0.0214117 1.15137e-17)
(1.02116 -0.028203 1.2006e-17)
(1.03309 -0.0348496 -4.04949e-17)
(1.0482 -0.0407207 2.95234e-16)
(1.06634 -0.0445788 -6.3998e-16)
(1.08658 -0.0451016 -4.02755e-16)
(1.10713 -0.0406292 3.17598e-15)
(1.12426 -0.0305067 4.34057e-15)
(1.13495 -0.0172505 -5.18428e-16)
(1.13847 -0.00313294 -7.26065e-15)
(1.13444 0.00946895 -1.34851e-14)
(1.12416 0.0170658 -1.81381e-14)
(1.11155 0.0174854 -2.06027e-14)
(1.10132 0.0109167 -2.02723e-14)
(1.09739 -8.6346e-05 -2.01818e-14)
(1.10177 -0.0112286 -2.85741e-14)
(1.11349 -0.0171779 -3.88216e-14)
(1.12766 -0.0135437 -3.59734e-14)
(1.13695 0.000129451 -2.4355e-14)
(1.13557 0.0195802 -1.53856e-14)
(1.12221 0.038577 -8.59259e-15)
(1.09951 0.052267 6.27948e-15)
(1.07175 0.0583148 2.47692e-14)
(1.04309 0.0562068 -1.36544e-13)
(1.01708 0.0461985 -1.78541e-13)
(0.99692 0.0286883 2.09276e-12)
(0.986057 0.00429438 2.82595e-12)
(0.9887 -0.0251775 -2.31935e-11)
(1.00883 -0.0547575 -8.64342e-11)
(1.04631 -0.0755475 -1.51035e-10)
(1.0931 -0.0781568 -2.01594e-10)
(1.13478 -0.0590573 -2.13952e-10)
(1.15806 -0.0240347 -1.53408e-10)
(1.1576 0.0150594 -6.96419e-11)
(1.13682 0.0471805 -1.44677e-11)
(1.10391 0.0668658 5.65242e-12)
(1.06677 0.0740142 8.45665e-12)
(1.03071 0.0707852 -2.29996e-14)
(0.998867 0.0589561 -3.34205e-11)
(0.973478 0.0390538 -3.19258e-11)
(0.956536 0.0110651 2.71635e-10)
(0.950661 -0.0241058 1.19282e-09)
(0.960605 -0.0627053 2.62248e-09)
(0.991243 -0.0964111 4.04863e-09)
(1.0414 -0.113204 5.13133e-09)
(1.10081 -0.102913 5.73423e-09)
(1.15333 -0.0647162 5.50041e-09)
(1.18287 -0.0101256 4.17627e-09)
(1.18068 0.0427081 2.29305e-09)
(1.15048 0.0794224 7.59424e-10)
(1.10502 0.0957425 -3.10147e-12)
(1.05733 0.0954689 -1.80678e-10)
(1.01486 0.0846753 -1.21474e-10)
(0.979437 0.0673887 3.03486e-11)
(0.95109 0.0440904 3.34743e-10)
(0.932848 0.01267 8.08747e-10)
(0.932038 -0.0278715 1.27489e-09)
(0.955039 -0.0725713 1.52615e-09)
(1.00047 -0.109861 1.54891e-09)
(1.05854 -0.127018 1.49648e-09)
(1.11575 -0.116912 1.53841e-09)
(1.15974 -0.0810178 1.74587e-09)
(1.18247 -0.0282101 1.98601e-09)
(1.18121 0.0284672 1.95536e-09)
(1.15787 0.0754909 1.49274e-09)
(1.11832 0.103452 7.91714e-10)
(1.07104 0.110479 2.01208e-10)
(1.02419 0.10132 -6.85383e-11)
(0.983309 0.0820413 -1.14123e-11)
(0.952511 0.0547155 2.61585e-10)
(0.937402 0.0175032 5.96448e-10)
(0.944335 -0.0295323 8.53744e-10)
(0.975549 -0.0792815 9.71964e-10)
(1.02609 -0.119256 9.79685e-10)
(1.0857 -0.138011 9.41217e-10)
(1.14267 -0.130364 9.0285e-10)
(1.18681 -0.0987449 8.87019e-10)
(1.21097 -0.0515859 9.15223e-10)
(1.2121 -0.00015694 9.99749e-10)
(1.19211 0.0449038 1.08912e-09)
(1.15736 0.0760792 1.06501e-09)
(1.11623 0.08968 8.52094e-10)