/*--------------------------------*- C++ -*----------------------------------*\
  =========                 |
  \\      /  F ield         | OpenFOAM: The Open Source CFD Toolbox
   \\    /   O peration     | Website:  https://openfoam.org
    \\  /    A nd           | Version:  11
     \\/     M anipulation  |
\*---------------------------------------------------------------------------*/
FoamFile
{
    format      ascii;
    class       surfaceScalarField;
    location    "14.371001";
    object      phi;
}
// * * * * * * * * * * * * * * * * * * * * * * * * * * * * * * * * * * * * * //

dimensions      [0 3 -1 0 0 0 0];

internalField   nonuniform List<scalar> 
14638
(
0.00250203
-2.03421e-06
0.00250824
-6.21021e-06
0.00251909
-1.0846e-05
0.00253519
-1.60976e-05
0.00255717
-2.19834e-05
0.00258538
-2.82114e-05
0.00261962
-3.42367e-05
0.00265866
-3.90427e-05
0.0027002
-4.15409e-05
0.00274074
-4.0536e-05
0.00277605
-3.53074e-05
0.00280244
-2.63911e-05
0.00281692
-1.44823e-05
0.00281742
-5.0427e-07
0.00280319
1.42363e-05
0.0027754
2.77886e-05
0.00273769
3.77133e-05
0.00269562
4.20657e-05
0.00265572
3.99026e-05
0.00262438
3.13371e-05
0.00260684
1.75437e-05
0.00260613
7.05084e-07
0.00262208
-1.59465e-05
0.00265034
-2.82595e-05
0.00268252
-3.21816e-05
0.00270826
-2.57402e-05
0.00271884
-1.05809e-05
0.00271017
8.66967e-06
0.00268342
2.67536e-05
0.00264355
3.98622e-05
0.00259741
4.61493e-05
0.00255226
4.5148e-05
0.00251523
3.70286e-05
0.00249296
2.22651e-05
0.00249108
1.88806e-06
0.00251283
-2.17543e-05
0.00255695
-4.41241e-05
0.00261581
-5.88537e-05
0.00267602
-6.0208e-05
0.00272248
-4.64594e-05
0.00274393
-2.14501e-05
0.00273666
7.26228e-06
0.00270452
3.21472e-05
0.00265594
4.85809e-05
0.00260069
5.52461e-05
0.0025479
5.27853e-05
0.00250563
4.2273e-05
0.0024811
2.45321e-05
0.0024805
6.02965e-07
0.00250741
-2.69183e-05
0.00256013
-5.27164e-05
0.00262955
-6.94203e-05
0.00270014
-7.05937e-05
0.00275455
-5.44023e-05
0.00277976
-2.52098e-05
0.00277145
8.3102e-06
0.00273426
3.71866e-05
0.0026786
5.56613e-05
0.00261641
6.21903e-05
0.00255833
5.80816e-05
0.00251292
4.54081e-05
0.00248717
2.57511e-05
0.00248667
4.97566e-07
0.00251436
-2.76858e-05
0.00256804
-5.36795e-05
0.00263864
-7.0604e-05
0.00271112
-7.24849e-05
0.00276848
-5.7353e-05
0.00279719
-2.87114e-05
0.00279154
5.65012e-06
0.00275479
3.67484e-05
0.00269703
5.7757e-05
0.00263116
6.58737e-05
0.00256922
6.19391e-05
0.00252072
4.84979e-05
0.00249278
2.79386e-05
0.00249059
2.19185e-06
0.00251656
-2.59709e-05
0.0025683
-5.17395e-05
0.00263719
-6.88908e-05
0.00270937
-7.21772e-05
0.00276921
-5.9838e-05
0.00280377
-3.45608e-05
0.00280627
-2.49845e-06
0.00277744
2.883e-05
0.00272464
5.27926e-05
0.00265934
6.53001e-05
0.00259399
6.53577e-05
0.00253964
5.43472e-05
0.00250504
3.46022e-05
0.00249643
8.608e-06
0.00251685
-2.04232e-05
0.00256451
-4.76535e-05
0.00263159
-6.70845e-05
0.0027052
-7.36098e-05
0.00277047
-6.52649e-05
0.00281458
-4.41123e-05
0.00282989
-1.53135e-05
0.00281506
1.48268e-05
0.00277435
4.07099e-05
0.00271588
5.8477e-05
0.00264975
6.6128e-05
0.00258658
6.31706e-05
0.00253643
5.01482e-05
0.00250805
2.83765e-05
0.00250781
2.4075e-07
0.00253796
-3.01514e-05
0.00259498
-5.7018e-05
0.0026693
-7.43218e-05
0.00274726
-7.79541e-05
0.0028146
-6.73369e-05
0.00286016
-4.55676e-05
0.00287835
-1.81842e-05
0.00286961
8.73405e-06
0.00283931
3.0307e-05
0.00279549
4.38168e-05
0.0027469
4.85946e-05
0.00270172
4.5171e-05
0.00266727
3.44493e-05
0.0026497
1.7575e-05
0.00265317
-3.46608e-06
0.00267845
-2.52879e-05
0.00272191
-4.34546e-05
0.00277573
-5.38266e-05
0.00282989
-5.41506e-05
0.00287482
-4.49388e-05
0.00290404
-2.92116e-05
0.00291541
-1.13768e-05
0.00291127
4.14353e-06
0.00289725
1.40241e-05
0.00288064
1.66024e-05
0.00286876
1.18779e-05
0.00286764
1.1203e-06
0.0028813
-1.36591e-05
0.00291142
-3.01128e-05
0.00295715
-4.57334e-05
0.00301507
-5.79155e-05
0.00307921
-6.41399e-05
0.00314162
-6.24136e-05
0.00319347
-5.18494e-05
0.00322657
-3.31056e-05
0.00323503
-8.4568e-06
0.00321645
1.85819e-05
0.00317248
4.39668e-05
0.00310844
6.4045e-05
0.0030321
7.63363e-05
0.00295217
7.99337e-05
0.00287675
7.54134e-05
0.00281237
6.4384e-05
0.00276345
4.89161e-05
0.00273231
3.11393e-05
0.00271932
1.29938e-05
0.00272311
-3.78819e-06
0.00274091
-1.77996e-05
0.00276882
-2.7913e-05
0.00280225
-3.34267e-05
0.00283658
-3.43364e-05
0.0028667
-3.0121e-05
0.00289154
-2.48324e-05
-7.6688e-06
0.00250201
-4.04679e-06
0.00250816
-1.23607e-05
0.00251893
-2.16118e-05
0.00253496
-3.21319e-05
0.00255695
-4.39731e-05
0.00258531
-5.65647e-05
0.00261989
-6.88239e-05
0.00265953
-7.86794e-05
0.0027019
-8.39124e-05
0.00274338
-8.20122e-05
0.00277955
-7.1475e-05
0.00280663
-5.34791e-05
0.00282159
-2.94346e-05
0.00282223
-1.15249e-06
0.00280768
2.87863e-05
0.00277905
5.6426e-05
0.00274004
7.67191e-05
0.00269645
8.5659e-05
0.00265503
8.13216e-05
0.00262244
6.39289e-05
0.00260415
3.5827e-05
0.00260348
1.37481e-06
0.00262043
-3.28918e-05
0.00265058
-5.84107e-05
0.00268507
-6.66758e-05
0.00271281
-5.34732e-05
0.00272444
-2.22151e-05
0.0027157
1.74131e-05
0.00268797
5.44834e-05
0.00264661
8.12244e-05
0.00259874
9.40171e-05
0.00255183
9.20594e-05
0.00251311
7.57488e-05
0.00248941
4.59592e-05
0.00248673
4.57368e-06
0.00250882
-4.38429e-05
0.00255474
-9.00456e-05
0.00261662
-0.000120742
0.00268022
-0.000123806
0.00272929
-9.55252e-05
0.00275179
-4.39493e-05
0.00274395
1.5096e-05
0.00271012
6.59819e-05
0.00265938
9.93205e-05
0.00260194
0.000112687
0.00254708
0.000107643
0.0025029
8.64553e-05
0.00247678
5.0651e-05
0.00247534
2.0414e-06
0.00250276
-5.43398e-05
0.00255767
-0.000107623
0.00263067
-0.000142418
0.00270521
-0.000145132
0.00276262
-0.000111813
0.002789
-5.15913e-05
0.00277992
1.73925e-05
0.00274059
7.65105e-05
0.00268226
0.000113995
0.00261749
0.00012696
0.00255715
0.000118422
0.00250975
9.28076e-05
0.00248223
5.32715e-05
0.00248039
2.33091e-06
0.00250765
-5.4941e-05
0.00256226
-0.000108285
0.00263521
-0.000143556
0.00271096
-0.000148235
0.00277157
-0.000117961
0.00280257
-5.97151e-05
0.00279768
1.05434e-05
0.00276015
7.42762e-05
0.00270054
0.000117365
0.00263235
0.000134063
0.00256806
0.000126226
0.00251737
9.91973e-05
0.00248751
5.77961e-05
0.00248402
5.67928e-06
0.00250981
-5.17647e-05
0.00256276
-0.000104683
0.00263394
-0.000140069
0.00270872
-0.000146961
0.0027707
-0.000121816
0.0028065
-7.03681e-05
0.00280933
-5.32167e-06
0.00278008
5.80773e-05
0.00272634
0.000106532
0.00265972
0.000131916
0.0025928
0.000132279
0.00253682
0.000110331
0.00250087
7.05555e-05
0.00249176
1.77102e-05
0.00251309
-4.17541e-05
0.00256315
-9.77098e-05
0.00263354
-0.000137479
0.00271032
-0.000150383
0.0027776
-0.000132545
0.00282209
-8.86022e-05
0.0028363
-2.95253e-05
0.00281948
3.1646e-05
0.00277656
8.36318e-05
0.00271612
0.000118912
0.00264845
0.000133796
0.00258414
0.000127488
0.00253327
0.000101011
0.0025049
5.67473e-05
0.00250583
-6.88459e-07
0.00253855
-6.28697e-05
0.00259921
-0.000117676
0.00267739
-0.000152501
0.0027584
-0.000158965
0.00282723
-0.000136167
0.00287245
-9.07932e-05
0.00288869
-3.44187e-05
0.00287696
2.04653e-05
0.00284329
6.3977e-05
0.00279636
9.07408e-05
0.00274536
9.96033e-05
0.00269871
9.18126e-05
0.00266391
6.92504e-05
0.0026473
3.4192e-05
0.00265317
-9.33664e-06
0.00268216
-5.42806e-05
0.00273002
-9.13173e-05
0.00278802
-0.000111825
0.00284516
-0.000111295
0.00289132
-9.1092e-05
0.00291986
-5.77491e-05
0.00292899
-2.05132e-05
0.00292159
1.15411e-05
0.00290388
3.17378e-05
0.00288363
3.6856e-05
0.00286845
2.70496e-05
0.00286459
4.98466e-06
0.0028762
-2.52711e-05
0.00290513
-5.90415e-05
0.00295073
-9.13281e-05
0.00300965
-0.000116843
0.00307586
-0.00013035
0.00314106
-0.000127614
0.0031959
-0.00010668
0.00323163
-6.88437e-05
0.00324197
-1.87905e-05
0.0032243
3.62503e-05
0.00318027
8.79933e-05
0.00311536
0.000128958
0.00303762
0.000154074
0.00295605
0.000161504
0.00287902
0.000152447
0.0028132
0.000130205
0.0027631
9.90101e-05
0.00273106
6.31865e-05
0.0027174
2.66459e-05
0.00272076
-7.14866e-06
0.00273835
-3.53876e-05
0.00276624
-5.58064e-05
0.00279981
-6.69876e-05
0.00283434
-6.88713e-05
0.00286466
-6.04401e-05
0.00288959
-4.97609e-05
-1.51986e-05
0.00250197
-6.01535e-06
0.00250799
-1.83861e-05
0.00251859
-3.22124e-05
0.0025345
-4.8033e-05
0.00255649
-6.59689e-05
0.00258513
-8.5199e-05
0.00262042
-0.000104116
0.00266126
-0.000119519
0.00270532
-0.000127974
0.0027487
-0.000125391
0.00278658
-0.000109355
0.00281502
-8.1921e-05
0.00283085
-4.52596e-05
0.00283172
-2.02513e-06
0.00281647
4.40389e-05
0.00278607
8.68259e-05
0.00274443
0.000118353
0.00269778
0.000132311
0.00265338
0.00012572
0.0026184
9.89069e-05
0.00259883
5.53952e-05
0.00259848
1.73331e-06
0.00261768
-5.20949e-05
0.00265184
-9.25737e-05
0.00269108
-0.000105913
0.00272271
-8.5104e-05
0.00273612
-3.56285e-05
0.00272674
2.67931e-05
0.00269656
8.46665e-05
0.00265182
0.000125964
0.00260034
0.000145502
0.00254993
0.000142465
0.00250805
0.000117628
0.00248188
7.21341e-05
0.00247808
8.36473e-06
0.00250142
-6.71757e-05
0.00255155
-0.000140178
0.00262002
-0.000189208
0.00269057
-0.000194365
0.00274457
-0.000149523
0.00276848
-6.78565e-05
0.00275861
2.49644e-05
0.00272057
0.000104024
0.00266494
0.000154952
0.00260288
0.00017475
0.00254397
0.000166547
0.00249633
0.000134101
0.00246749
7.9488e-05
0.00246465
4.88422e-06
0.00249286
-8.25507e-05
0.00255149
-0.000166255
0.00263105
-0.000221982
0.00271348
-0.000227558
0.00277746
-0.000175789
0.00280672
-8.08521e-05
0.00279617
2.79421e-05
0.00275222
0.000120462
0.00268808
0.00017813
0.00261789
0.000197147
0.00255309
0.000183224
0.002502
0.000143898
0.0024713
8.39688e-05
0.00246711
6.52272e-06
0.00249376
-8.15913e-05
0.00255041
-0.000164934
0.00262803
-0.00022118
0.00270992
-0.000230124
0.00277639
-0.000184427
0.00281137
-9.46929e-05
0.00280763
1.42803e-05
0.00276845
0.000113454
0.00270523
0.000180586
0.00263261
0.000206685
0.00256394
0.000194894
0.00250937
0.000153771
0.00247658
9.05882e-05
0.0024719
1.03536e-05
0.00249915
-7.90108e-05
0.00255628
-0.000161819
0.00263321
-0.000216993
0.00271333
-0.000227085
0.00277861
-0.000187091
0.00281512
-0.000106883
0.00281654
-6.7434e-06
0.00278468
8.99371e-05
0.00272788
0.000163336
0.00265815
0.000201642
0.00258825
0.000202186
0.00252967
0.000168909
0.0024922
0.000108026
0.00248369
2.62209e-05
0.00250847
-6.65349e-05
0.00256452
-0.000153765
0.00264196
-0.000214911
0.00272475
-0.000233173
0.00279531
-0.000203109
0.00283961
-0.000132901
0.00285054
-4.046e-05
0.00282859
5.35981e-05
0.00278017
0.000132058
0.00271498
0.000184094
0.00264381
0.000204966
0.00257729
0.000194017
0.00252561
0.000152683
0.00249831
8.4047e-05
0.00250276
-5.13316e-06
0.00254139
-0.000101499
0.0026093
-0.000185587
0.00269436
-0.000237566
0.00278027
-0.000244873
0.00285101
-0.000206907
0.00289492
-0.000134703
0.00290704
-4.65338e-05
0.00288931
3.81919e-05
0.00284898
0.000104308
0.00279591
0.000143808
0.00274018
0.000155337
0.00269081
0.00014118
0.00265572
0.000104342
0.00264163
4.82813e-05
0.00265293
-2.06354e-05
0.00268961
-9.09588e-05
0.00274593
-0.000147636
0.00281126
-0.000177162
0.00287305
-0.000173085
0.00292039
-0.000138426
0.00294674
-8.41037e-05
0.00295106
-2.48338e-05
0.00293724
2.53627e-05
0.00291253
5.64502e-05
0.00288554
6.38419e-05
0.00286447
4.81244e-05
0.00285588
1.3573e-05
0.00286424
-3.36371e-05
0.00289176
-8.65578e-05
0.00293811
-0.000137674
0.003
-0.000178738
0.00307096
-0.000201304
0.00314178
-0.000198438
0.00320203
-0.000166934
0.00324206
-0.000108873
0.00325499
-3.17138e-05
0.00323803
5.321e-05
0.00319298
0.000133035
0.00312575
0.000196192
0.00304495
0.000234878
0.00296013
0.000246322
0.00288011
0.000232464
0.00281184
0.000198474
0.00275994
0.000150914
0.0027267
9.64299e-05
0.00271238
4.09621e-05
0.00271552
-1.02856e-05
0.00273325
-5.31209e-05
0.00276155
-8.41093e-05
0.00279569
-0.00010113
0.00283074
-0.000103915
0.00286144
-9.11411e-05
0.00288625
-7.45727e-05
-2.21984e-05
0.0025019
-7.91405e-06
0.00250773
-2.42124e-05
0.00251806
-4.25445e-05
0.00253373
-6.37045e-05
0.0025557
-8.79369e-05
0.00258472
-0.000114219
0.00262105
-0.000140449
0.00266371
-0.000162183
0.00271039
-0.000174646
0.00275671
-0.00017172
0.00279723
-0.000149874
0.00282777
-0.000112459
0.00284499
-6.24834e-05
0.00284627
-3.30397e-06
0.00282997
6.03395e-05
0.00279681
0.000119986
0.00275105
0.000164118
0.00269962
0.000183736
0.00265061
0.000174732
0.00261195
0.000137572
0.00259037
7.69746e-05
0.00259045
1.64526e-06
0.00261317
-7.48054e-05
0.00265366
-0.000133069
0.00270042
-0.000152677
0.00273821
-0.000122887
0.00275432
-5.17455e-05
0.00274376
3.7355e-05
0.00270956
0.000118872
0.00265945
0.000176072
0.00260236
0.000202596
0.00254663
0.000198189
0.00249998
0.000164283
0.00247003
0.000102084
0.00246456
1.38312e-05
0.00248998
-9.25926e-05
0.00254704
-0.00019724
0.00262624
-0.000268413
0.00270795
-0.000276068
0.00276949
-0.000211062
0.00279506
-9.34299e-05
0.00278138
3.86461e-05
0.00273626
0.000149137
0.00267276
0.000218458
0.00260353
0.000243978
0.00253857
0.000231504
0.00248578
0.000186893
0.0024525
0.000112769
0.00244621
1.11691e-05
0.00247316
-0.000109498
0.00253449
-0.000227582
0.00262174
-0.000309236
0.00271562
-0.000321433
0.00279112
-0.000251295
0.00282763
-0.000117356
0.00281762
3.79469e-05
0.00276837
0.00016971
0.00269609
0.000250417
0.00261777
0.000275465
0.00254615
0.000254845
0.00248937
0.00020067
0.00245379
0.000119552
0.00244626
1.40542e-05
0.00247287
-0.000108197
0.00253387
-0.000225935
0.00261928
-0.000306593
0.00270984
-0.000320683
0.00278337
-0.000257961
0.00282244
-0.000133763
0.00281942
1.73069e-05
0.0027778
0.000155069
0.00270982
0.000248564
0.00263131
0.000285194
0.0025567
0.000269513
0.00249694
0.000213531
0.00246076
0.000126761
0.00245599
1.51299e-05
0.00248746
-0.000110487
0.00255254
-0.000226899
0.00263871
-0.000303157
0.00272636
-0.000314738
0.00279531
-0.000256043
0.00283117
-0.000142742
0.00282865
-4.21939e-06
0.00279127
0.000127316
0.00272883
0.000225779
0.00265407
0.000276401
0.00257994
0.000276313
0.00251828
0.000230564
0.00247981
0.000146497
0.00247364
3.23963e-05
0.00250459
-9.74915e-05
0.00256957
-0.000218745
0.00265634
-0.000301676
0.00274642
-0.000323251
0.00282055
-0.000277238
0.00286405
-0.000176409
0.00287025
-4.66569e-05
0.00284096
8.28913e-05
0.00278445
0.000188563
0.00271212
0.000256429
0.00263565
0.000281437
0.00256599
0.000263676
0.00251365
0.000205022
0.0024887
0.000108996
0.00249884
-1.52746e-05
0.00254581
-0.000148464
0.00262284
-0.00026262
0.00271564
-0.000330361
0.00280632
-0.000335556
0.00287827
-0.000278853
0.00291991
-0.000176344
0.00292678
-5.34113e-05
0.0029017
6.32772e-05
0.0028531
0.000152908
0.00279223
0.000204679
0.00273039
0.000217175
0.00267761
0.000193965
0.0026426
0.000139347
0.00263267
5.82097e-05
0.00265205
-4.00127e-05
0.00269932
-0.000138234
0.00276631
-0.000214624
0.00283985
-0.0002507
0.00290572
-0.000238957
0.00295263
-0.000185334
0.00297467
-0.000106142
0.00297191
-2.2074e-05
0.00294948
4.7785e-05
0.00291579
9.0142e-05
0.00288035
9.92846e-05
0.00285197
7.65065e-05
0.0028377
2.78383e-05
0.00284257
-3.85024e-05
0.00286939
-0.000113382
0.00291824
-0.00018652
0.00298551
-0.000246011
0.00306362
-0.00027941
0.00314188
-0.000276697
0.00320854
-0.000233601
0.00325315
-0.000153483
0.00326849
-4.70507e-05
0.00325178
6.99225e-05
0.00320507
0.000179744
0.00313473
0.000266528
0.00305002
0.000319586
0.00296116
0.000335186
0.0028775
0.000316123
0.00280633
0.000269641
0.0027524
0.000204851
0.00271795
0.000130879
0.00270315
5.57621e-05
0.0027064
-1.35433e-05
0.00272476
-7.14718e-05
0.00275399
-0.000113342
0.00278919
-0.000136328
0.00282503
-0.000139755
0.00285622
-0.00012233
0.00288062
-9.89819e-05
-2.8264e-05
0.0025018
-9.71246e-06
0.00250734
-2.97518e-05
0.00251727
-5.24796e-05
0.00253258
-7.90117e-05
0.00255444
-0.000109793
0.0025839
-0.000143681
0.00262158
-0.000178127
0.0026667
-0.000207309
0.002717
-0.000224943
0.00276744
-0.000222158
0.00281157
-0.000194005
0.00284494
-0.000145835
0.00286407
-8.1612e-05
0.00286598
-5.21558e-06
0.00284835
7.79702e-05
0.00281149
0.000156854
0.00276007
0.000215535
0.00270205
0.000241758
0.0026466
0.000230178
0.00260272
0.000181457
0.00257817
0.000101517
0.00257871
1.11314e-06
0.00260625
-0.000102351
0.00265576
-0.000182579
0.00271338
-0.000210296
0.00276002
-0.000169529
0.00277991
-7.16329e-05
0.00276746
4.98045e-05
0.00272738
0.000158955
0.00266967
0.000233779
0.00260483
0.000267438
0.00254185
0.000261167
0.00248864
0.000217497
0.00245335
0.000137368
0.00244525
2.19386e-05
0.0024729
-0.000120252
0.00253872
-0.000263057
0.00263253
-0.000362219
0.00273055
-0.000374089
0.00280388
-0.000284392
0.00283242
-0.00012197
0.00281319
5.78743e-05
0.00275768
0.000204653
0.0026829
0.000293236
0.00260381
0.000323061
0.00253079
0.000304529
0.00247091
0.000246778
0.00243052
0.000153153
0.00241733
2.43571e-05
0.00244
-0.000132165
0.00250303
-0.000290607
0.00259921
-0.00040542
0.00270714
-0.000429368
0.00279766
-0.00034181
0.00284546
-0.000165151
0.00283948
4.39254e-05
0.00278648
0.000222707
0.00270542
0.000331473
0.00261706
0.000363832
0.00253635
0.000335552
0.00247181
0.000265209
0.00243004
0.000161324
0.00241968
2.4415e-05
0.00244914
-0.000137654
0.00251884
-0.00029564
0.0026159
-0.000403653
0.00271694
-0.00042172
0.00279693
-0.000337948
0.00283782
-0.000174661
0.00283291
2.22176e-05
0.00278687
0.000201116
0.00271284
0.000322588
0.00262748
0.000370555
0.00254602
0.000350973
0.00248053
0.000279023
0.00244147
0.000165815
0.00243859
1.8013e-05
0.00247729
-0.000149185
0.00255309
-0.000302703
0.00265017
-0.000400229
0.00274583
-0.000410407
0.00281809
-0.000328303
0.0028522
-0.000176844
0.00284388
4.09582e-06
0.00279867
0.000172528
0.00272835
0.000296096
0.00264687
0.000357885
0.0025676
0.000355578
0.00250287
0.000295295
0.00246445
0.000184918
0.00246252
3.433e-05
0.00250167
-0.000136644
0.00257679
-0.000293863
0.00267289
-0.000397775
0.00276941
-0.000419773
0.00284615
-0.000353979
0.00288829
-0.000218547
0.00288945
-4.78195e-05
0.00285238
0.000119964
0.00278695
0.000253991
0.00270633
0.000337049
0.00262354
0.000364233
0.00255028
0.000336934
0.00249766
0.000257634
0.0024763
0.000130359
0.0024937
-3.26701e-05
0.00255004
-0.000204808
0.00263611
-0.000348687
0.00273542
-0.000429675
0.0028291
-0.000429231
0.0029006
-0.000350354
0.00293894
-0.000214691
0.00294026
-5.47246e-05
0.00290791
9.56206e-05
0.0028512
0.000209625
0.00278252
0.000273361
0.0027145
0.00028519
0.00265851
0.000249958
0.00262449
0.000173362
0.00262046
6.22458e-05
0.00264999
-6.95485e-05
0.00270933
-0.00019757
0.00278699
-0.000292286
0.00286711
-0.000330822
0.00293436
-0.000306209
0.00297788
-0.000228848
0.00299303
-0.000121291
0.00298131
-1.03597e-05
0.00294912
7.99812e-05
0.00290581
0.000133452
0.00286161
0.000143484
0.00282588
0.000112238
0.00280629
4.74289e-05
0.0028087
-4.09147e-05
0.00283671
-0.000141399
0.00289038
-0.000240183
0.0029649
-0.000320529
0.0030508
-0.000365309
0.0031358
-0.0003617
0.00320742
-0.000305222
0.00325518
-0.000201245
0.00327209
-6.39575e-05
0.0032555
8.65104e-05
0.00320756
0.000227685
0.00313482
0.000339264
0.00304694
0.00040747
0.00295466
0.000427469
0.00286787
0.000402912
0.00279424
0.000343273
0.00273867
0.000260415
0.00270344
0.000166112
0.00268863
7.05686e-05
0.00269256
-1.74687e-05
0.00271209
-9.10088e-05
0.00274273
-0.000143976
0.00277925
-0.000172847
0.00281586
-0.000176364
0.00284731
-0.000153784
0.00287082
-0.000122487
-3.2976e-05
0.00250166
-1.13743e-05
0.00250681
-3.48981e-05
0.00251618
-6.18553e-05
0.00253094
-9.37687e-05
0.00255253
-0.000131386
0.00258242
-0.000173569
0.0026217
-0.000217409
0.00266995
-0.00025556
0.00272504
-0.000280029
0.00278093
-0.00027805
0.00282978
-0.000242853
0.00286689
-0.000182945
0.00288868
-0.000103405
0.00289166
-8.18833e-06
0.00287241
9.72182e-05
0.00283057
0.00019869
0.00277154
0.000274572
0.00270471
0.000308584
0.00264074
0.000294148
0.0025899
0.000232302
0.00256123
0.000130178
0.00256207
2.79753e-07
0.0025959
-0.000136179
0.00265763
-0.000244311
0.00273023
-0.000282895
0.00278911
-0.000228409
0.00281403
-9.65528e-05
0.00279872
6.51155e-05
0.00275046
0.00020721
0.00268257
0.000301666
0.00260766
0.000342357
0.00253539
0.000333438
0.00247373
0.000279157
0.00243123
0.000179865
0.00241812
3.5049e-05
0.00244449
-0.000146624
0.00251532
-0.000333887
0.00262323
-0.000470129
0.002743
-0.000493861
0.00283733
-0.000378718
0.00287617
-0.000160808
0.00285339
8.06486e-05
0.00278519
0.000272856
0.00269552
0.000382908
0.0026036
0.000414974
0.00252036
0.000387773
0.00245107
0.000316063
0.00240053
0.000203698
0.00237796
4.69286e-05
0.0023969
-0.000151109
0.00246552
-0.000359226
0.00257492
-0.000514822
0.00269849
-0.000552938
0.00280278
-0.000446096
0.00286034
-0.000222717
0.00285854
4.5729e-05
0.00280305
0.000278196
0.00271395
0.000420571
0.00261497
0.00046282
0.00252364
0.000426872
0.00244986
0.000338992
0.00240188
0.000209306
0.0023911
3.51916e-05
0.00242755
-0.000174102
0.0025097
-0.000377794
0.00262021
-0.000514162
0.0027316
-0.000533103
0.00281662
-0.000422966
0.00285702
-0.000215067
0.00284747
3.17699e-05
0.0027946
0.00025399
0.00271302
0.000404161
0.00262009
0.000463491
0.00253155
0.000439506
0.00246071
0.000349866
0.00242014
0.000206381
0.0024213
1.68542e-05
0.00246904
-0.000196924
0.00255595
-0.00038961
0.00266281
-0.000507096
0.00276487
-0.00051246
0.00283934
-0.000402773
0.00287139
-0.000208891
0.00285723
1.82463e-05
0.0028038
0.000225962
0.00272481
0.000375082
0.0026358
0.000446903
0.00255104
0.00044033
0.00248369
0.000362648
0.00244658
0.000222031
0.00245038
3.05313e-05
0.00249847
-0.000184739
0.00258305
-0.00037844
0.00268653
-0.000501257
0.00278711
-0.00052035
0.00286461
-0.000431484
0.00290471
-0.000258642
0.00290133
-4.44431e-05
0.00285756
0.00016373
0.00278417
0.00032738
0.00269574
0.000425482
0.00260674
0.000453229
0.0025301
0.000413577
0.00247788
0.000309856
0.00246109
0.000147144
0.00248642
-5.79937e-05
0.00255175
-0.000270143
0.00264518
-0.000442114
0.00274849
-0.000532981
0.00284253
-0.000523275
0.00291155
-0.000419378
0.00294558
-0.000248715
0.00294139
-5.05392e-05
0.00290271
0.000134304
0.00283919
0.000273145
0.00276398
0.000348572
0.0026909
0.000358271
0.00263285
0.000308006
0.00260133
0.000204882
0.00260494
5.86326e-05
0.00264587
-0.000110479
0.00271696
-0.000268658
0.00280301
-0.000378332
0.00288596
-0.00041377
0.00295043
-0.000370686
0.00298699
-0.00026541
0.00299284
-0.000127132
0.00297098
1.14985e-05
0.00292885
0.000122114
0.00287644
0.000185855
0.00282439
0.000195537
0.00278249
0.000154133
0.00275924
7.06808e-05
0.00276152
-4.31962e-05
0.00279331
-0.000173182
0.00285348
-0.000300354
0.00293493
-0.000401983
0.00302616
-0.000456538
0.00311421
-0.000449746
0.00318719
-0.0003782
0.00323567
-0.000249732
0.00325337
-8.1652e-05
0.00323769
0.000102189
0.00319042
0.000274949
0.00311775
0.000411942
0.00302918
0.000496032
0.00293571
0.000520942
0.00284762
0.000490999
0.00277297
0.000417923
0.00271692
0.000316471
0.00268184
0.000201195
0.00266785
8.45575e-05
0.00267316
-2.27823e-05
0.00269439
-0.000112237
0.00272656
-0.000176147
0.00276411
-0.000210394
0.00280087
-0.000213126
0.00283189
-0.000184803
0.00285383
-0.000144425
-3.60245e-05
0.00250148
-1.2856e-05
0.00250611
-3.95231e-05
0.00251472
-7.04668e-05
0.00252867
-0.000107721
0.00254975
-0.000152467
0.00257994
-0.000203761
0.00262101
-0.000258475
0.00267307
-0.00030762
0.0027343
-0.000341264
0.00279722
-0.000340963
0.00285194
-0.000297573
0.00289359
-0.000224592
0.00291866
-0.000128481
0.00292324
-1.2763e-05
0.00290233
0.000118126
0.00285449
0.000246526
0.00278591
0.000343156
0.00270788
0.000386609
0.00263295
0.000369085
0.00257296
0.000292289
0.00253856
0.00016458
0.0025392
-3.67471e-07
0.00258087
-0.000177844
0.00265882
-0.000322258
0.00275166
-0.00037574
0.00282701
-0.000303759
0.00285838
-0.000127926
0.00283877
8.47324e-05
0.00277936
0.000266619
0.00269819
0.000382834
0.00261062
0.000429923
0.002527
0.00041706
0.00245504
0.000351119
0.00240265
0.000232258
0.00237886
5.88326e-05
0.00239443
-0.000162193
0.00246026
-0.000399709
0.00257706
-0.000586935
0.00272171
-0.000638504
0.0028484
-0.000505414
0.00291194
-0.000224345
0.00289564
9.69467e-05
0.00281743
0.000351063
0.00271081
0.000489535
0.00260302
0.000522763
0.002507
0.000483795
0.00242586
0.000397194
0.00236341
0.000266156
0.00233295
7.73809e-05
0.00235409
-0.000172241
0.00243554
-0.000440683
0.00256238
-0.000641663
0.00270108
-0.000691636
0.00281487
-0.000559884
0.0028766
-0.000284448
0.00287491
4.74228e-05
0.00281572
0.000337387
0.00271913
0.000517163
0.00260999
0.00057195
0.00250779
0.000529081
0.00242463
0.000422148
0.00237188
0.000262059
0.00236375
4.33157e-05
0.00240993
-0.000220274
0.00250488
-0.00047275
0.00262682
-0.000636103
0.00274592
-0.000652206
0.00283433
-0.000511373
0.00287369
-0.000254424
0.00285913
4.63236e-05
0.00279881
0.000314316
0.00270908
0.000493886
0.00260837
0.000564207
0.00251313
0.000534742
0.00243804
0.000424957
0.00239769
0.000246732
0.00240439
1.01509e-05
0.00246123
-0.000253764
0.00255738
-0.00048576
0.00267097
-0.000620677
0.00277643
-0.000617921
0.00285141
-0.000477755
0.00288143
-0.000238916
0.00286273
3.69541e-05
0.00280258
0.000286111
0.00271594
0.000461722
0.00261989
0.000542953
0.00253011
0.000530108
0.00246099
0.000431767
0.00242635
0.000256672
0.00243661
2.02723e-05
0.00249307
-0.0002412
0.00258501
-0.000470381
0.00269287
-0.000609116
0.00279454
-0.000622017
0.00287071
-0.000507656
0.00290803
-0.000295966
0.00290085
-3.72636e-05
0.00285218
0.000212399
0.00277292
0.00040664
0.00267842
0.000519984
0.00258445
0.000547204
0.00250537
0.000492651
0.00245445
0.000360775
0.0024429
0.000158696
0.00247592
-9.10124e-05
0.00254868
-0.000342905
0.00264679
-0.000540219
0.00275102
-0.000637209
0.00284272
-0.00061498
0.0029074
-0.000484053
0.00293627
-0.00027759
0.00292683
-4.11029e-05
0.00288299
0.00017815
0.00281443
0.000341706
0.00273462
0.000428376
0.00265835
0.00043454
0.00260013
0.000366228
0.00257305
0.000231969
0.00258582
4.58553e-05
0.00263818
-0.000162833
0.00271874
-0.000349226
0.00280887
-0.000468458
0.00288953
-0.000494424
0.00294664
-0.000427804
0.00297305
-0.000291816
0.00296797
-0.000122055
0.00293576
4.37133e-05
0.00288451
0.000173366
0.00282446
0.000245905
0.00276636
0.00025363
0.00272052
0.000199972
0.00269642
9.47867e-05
0.00270165
-4.84284e-05
0.00273926
-0.000210797
0.00280545
-0.000366536
0.00289039
-0.000486924
0.0029817
-0.000547856
0.00306754
-0.000535586
0.00313794
-0.000448592
0.00318505
-0.000296845
0.00320333
-9.99279e-05
0.00319004
0.000115477
0.0031462
0.000318783
0.00307706
0.000481082
0.00299148
0.000581619
0.0029002
0.000612218
0.0028137
0.000577505
0.00274033
0.000491288
0.00268558
0.000371223
0.00265206
0.000234716
0.00263999
9.66245e-05
0.00264741
-3.02006e-05
0.00267047
-0.000135298
0.00270365
-0.000209321
0.00274115
-0.0002479
0.00277684
-0.000248813
0.00280639
-0.000214352
0.0028262
-0.000164241
-3.73946e-05
0.00250125
-1.41065e-05
0.0025052
-4.34741e-05
0.00251279
-7.80603e-05
0.00252561
-0.000120533
0.0025458
-0.000172664
0.00257604
-0.000233994
0.00261894
-0.000301383
0.00267551
-0.000364191
0.00274456
-0.00041031
0.00281642
-0.000412827
0.00287838
-0.000359524
0.00292567
-0.000271883
0.00295524
-0.000158056
0.00296234
-1.98609e-05
0.00293958
0.000140884
0.00288394
0.000302172
0.00280296
0.000424135
0.0027107
0.000478861
0.00262204
0.000457748
0.0025505
0.000363829
0.00250836
0.000206717
0.00250804
-4.41493e-08
0.00255985
-0.000229648
0.0026602
-0.000422615
0.00278075
-0.00049629
0.0028774
-0.000400411
0.00291584
-0.000166363
0.00288922
0.000111356
0.00281459
0.000341244
0.0027164
0.000481028
0.00261342
0.0005329
0.00251657
0.000513907
0.00243242
0.000435269
0.0023658
0.000298886
0.00232284
0.000101791
0.00231883
-0.000158182
0.00237646
-0.000457339
0.0025032
-0.000713677
0.00267286
-0.000808165
0.00283279
-0.00066535
0.00292788
-0.000319427
0.00292904
9.5784e-05
0.00284888
0.000431219
0.00272742
0.000610999
0.00260213
0.000648053
0.00249077
0.000595152
0.00239597
0.000492
0.00232258
0.000339538
0.0022895
0.000110462
0.00231967
-0.000202413
0.00241739
-0.000538401
0.00256006
-0.000784328
0.00270983
-0.000841407
0.00282923
-0.000679287
0.00289175
-0.00034697
0.00288727
5.19097e-05
0.00282286
0.000401793
0.00271899
0.000621037
0.00260069
0.000690242
0.00248854
0.000641231
0.00239735
0.000513343
0.00234212
0.000317289
0.00233887
4.65596e-05
0.00239487
-0.000276266
0.0024998
-0.00057768
0.00262866
-0.000764969
0.00275139
-0.000774933
0.00284114
-0.000601119
0.00287982
-0.000293109
0.00286206
6.40882e-05
0.00279607
0.000380302
0.00269938
0.000590577
0.00259173
0.000671856
0.00249084
0.000635633
0.00241303
0.00050277
0.00237446
0.000285299
0.00238722
-2.60509e-06
0.00245174
-0.000318293
0.00255403
-0.000588044
0.00267058
-0.000737233
0.00277622
-0.000723557
0.00284982
-0.000551352
0.00287771
-0.000266812
0.002856
5.86698e-05
0.00279154
0.000350567
0.00269954
0.000553723
0.00259818
0.000644314
0.0025047
0.000623593
0.00243503
0.000501434
0.00240378
0.000287921
0.00242041
3.63982e-06
0.00248362
-0.000304403
0.00258003
-0.00056679
0.00268897
-0.000718058
0.0027889
-0.000721946
0.00286189
-0.000580648
0.00289583
-0.000329909
0.00288556
-2.69929e-05
0.00283384
0.000264116
0.00275118
0.000489306
0.00265303
0.000618136
0.00255606
0.000644169
0.00247609
0.000572621
0.00242756
0.000409307
0.00242152
0.000164736
0.00246121
-0.000130699
0.00253901
-0.000420704
0.00263865
-0.000639866
0.00274077
-0.00073933
0.00282782
-0.000702023
0.00288674
-0.000542977
0.00290998
-0.000300824
0.00289566
-2.67856e-05
0.00284781
0.000225997
0.00277598
0.00041354
0.00269367
0.000510683
0.00261643
0.000511783
0.00256031
0.00042235
0.00253968
0.000252592
0.00256246
2.30821e-05
0.0026247
-0.000225076
0.00271063
-0.000435151
0.00279925
-0.000557079
0.00287223
-0.000567412
0.00291806
-0.000473628
0.00293222
-0.000305975
0.00291579
-0.000105623
0.00287402
8.54781e-05
0.00281527
0.00023212
0.00274966
0.000311506
0.00268804
0.000315259
0.00264134
0.000246664
0.00261993
0.000116197
0.00263091
-5.94052e-05
0.00267448
-0.000254363
0.00274327
-0.000435331
0.002826
-0.00056965
0.00291163
-0.000633485
0.00299099
-0.000614955
0.0030564
-0.000513999
0.00310123
-0.000341676
0.00312031
-0.000119006