/*--------------------------------*- C++ -*----------------------------------*\
  =========                 |
  \\      /  F ield         | OpenFOAM: The Open Source CFD Toolbox
   \\    /   O peration     | Website:  https://openfoam.org
    \\  /    A nd           | Version:  11
     \\/     M anipulation  |
\*---------------------------------------------------------------------------*/
FoamFile
{
    format      ascii;
    class       surfaceScalarField;
    location    "10.776654";
    object      phi_0;
}
// * * * * * * * * * * * * * * * * * * * * * * * * * * * * * * * * * * * * * //

dimensions      [0 3 -1 0 0 0 0];

internalField   nonuniform List<scalar> 
14638
(
0.00250272
-2.72202e-06
0.0025109
-8.18159e-06
0.0025247
-1.37936e-05
0.00254423
-1.95363e-05
0.00256954
-2.53046e-05
0.00260032
-3.07819e-05
0.00263579
-3.54662e-05
0.00267431
-3.85221e-05
0.00271339
-3.90771e-05
0.00274977
-3.63887e-05
0.00277999
-3.02181e-05
0.00280191
-2.19151e-05
0.0028149
-1.29878e-05
0.00281996
-5.06243e-06
0.0028198
1.53626e-07
0.00281799
1.80927e-06
0.00281758
4.17208e-07
0.00281976
-2.18667e-06
0.00282316
-3.39375e-06
0.00282379
-6.36821e-07
0.00281657
7.22577e-06
0.00279757
1.89949e-05
0.00276591
3.16652e-05
0.00272398
4.19313e-05
0.00267663
4.7352e-05
0.00262996
4.66618e-05
0.00259041
3.95519e-05
0.00256403
2.63849e-05
0.00255589
8.14118e-06
0.00256922
-1.33342e-05
0.00260401
-3.47908e-05
0.00265533
-5.13173e-05
0.00271274
-5.74161e-05
0.00276237
-4.96212e-05
0.00279143
-2.90688e-05
0.00279296
-1.5234e-06
0.00276742
2.55399e-05
0.00272106
4.63577e-05
0.00266272
5.8342e-05
0.00260135
6.13635e-05
0.00254505
5.63018e-05
0.00250107
4.39822e-05
0.0024762
2.48737e-05
0.00247665
-4.52453e-07
0.00250687
-3.02197e-05
0.00256694
-6.00701e-05
0.00264971
-8.27748e-05
0.00274
-9.02902e-05
0.00281778
-7.77732e-05
0.00286481
-4.70356e-05
0.00287134
-6.5255e-06
0.00283867
3.26641e-05
0.00277677
6.19047e-05
0.00269895
7.78209e-05
0.00261756
8.13916e-05
0.00254229
7.52647e-05
0.00248077
6.1525e-05
0.0024399
4.08712e-05
0.00242675
1.31505e-05
0.00244787
-2.1121e-05
0.00250667
-5.87989e-05
0.0025998
-9.31343e-05
0.00271483
-0.000115034
0.00283126
-0.000116425
0.00292532
-9.40615e-05
0.00297717
-5.18482e-05
0.00297745
-2.8161e-07
0.00293032
4.71357e-05
0.00285116
7.91531e-05
0.00276026
9.09003e-05
0.00267602
8.4246e-05
0.00261138
6.4637e-05
0.00257431
3.7072e-05
0.00257021
4.09534e-06
0.00260323
-3.30212e-05
0.00267477
-7.15408e-05
0.00278054
-0.000105769
0.00290873
-0.000128187
0.0030412
-0.000132471
0.00315759
-0.000116392
0.00324059
-8.29969e-05
0.00328012
-3.95301e-05
0.00327477
5.35511e-06
0.00323008
4.46837e-05
0.00315524
7.48425e-05
0.00306068
9.45574e-05
0.00295806
0.00010262
0.00286067
9.73941e-05
0.00278192
7.87455e-05
0.00273209
4.98308e-05
0.00271557
1.65222e-05
0.00273037
-1.48041e-05
0.00276944
-3.90631e-05
0.00282244
-5.30018e-05
0.00287746
-5.50178e-05
0.00292261
-4.51573e-05
0.00294809
-2.548e-05
0.00294828
-1.85948e-07
0.00292308
2.51955e-05
0.00287761
4.54759e-05
0.00282011
5.74976e-05
0.00275932
6.07939e-05
0.00270229
5.70257e-05
0.00265349
4.87956e-05
0.00261491
3.85852e-05
0.00258671
2.8202e-05
0.002568
1.87098e-05
0.00255738
1.06151e-05
0.00255328
4.09876e-06
0.00255409
-8.10791e-07
0.00255824
-4.14633e-06
0.00256422
-5.97446e-06
0.00257062
-6.40835e-06
0.00257626
-5.63428e-06
0.00258019
-3.92683e-06
0.00258182
-1.63626e-06
0.00258097
8.5359e-07
0.00257778
3.18328e-06
0.00257271
5.07181e-06
0.00256636
6.34872e-06
0.0025594
6.95901e-06
0.00255246
6.94587e-06
0.00254604
6.42133e-06
0.0025405
5.53448e-06
0.00253606
4.44334e-06
0.00253277
3.29365e-06
0.00253056
2.20501e-06
0.0025293
1.26399e-06
0.00252877
5.23057e-07
0.00252877
3.83795e-09
0.00252907
-2.97159e-07
0.00252947
-4.01878e-07
0.00252981
-3.4433e-07
0.00252998
-1.65047e-07
0.00252989
9.34987e-08
0.00252949
3.90586e-07
0.0025288
6.90191e-07
0.00252784
9.63129e-07
0.00252665
1.18835e-06
0.0025253
1.35337e-06
0.00252385
1.45385e-06
0.00252235
1.49249e-06
0.00252088
1.47743e-06
0.00251946
1.4204e-06
0.00251812
1.33481e-06
0.00251689
1.23409e-06
0.00251576
1.13045e-06
0.00251472
1.03369e-06
0.00251377
9.51211e-07
0.00251288
8.87003e-07
0.00251204
8.43415e-07
0.00251122
8.18829e-07
0.00251041
8.12829e-07
0.00250959
8.19132e-07
0.00250875
8.38237e-07
0.00250789
8.59655e-07
0.002507
8.87676e-07
0.00250609
9.10688e-07
0.00250516
9.2911e-07
9.5663e-07
0.00250271
-5.42848e-06
0.00251085
-1.63232e-05
0.0025246
-2.75416e-05
0.00254412
-3.90601e-05
0.0025695
-5.06811e-05
0.00260049
-6.17805e-05
0.00263638
-7.13539e-05
0.00267554
-7.76821e-05
0.00271543
-7.89617e-05
0.00275262
-7.35796e-05
0.00278338
-6.09824e-05
0.00280548
-4.40099e-05
0.00281823
-2.57429e-05
0.00282268
-9.51184e-06
0.00282172
1.11177e-06
0.00281922
4.31159e-06
0.00281852
1.12034e-06
0.00282101
-4.68328e-06
0.00282528
-7.65614e-06
0.00282703
-2.38926e-06
0.00282069
1.35675e-05
0.00280196
3.77259e-05
0.00276982
6.37976e-05
0.00272683
8.4925e-05
0.00267806
9.61269e-05
0.00262983
9.48884e-05
0.00258875
8.06335e-05
0.00256105
5.40845e-05
0.00255206
1.71255e-05
0.00256539
-2.66599e-05
0.00260136
-7.0759e-05
0.00265509
-0.000105051
0.00271566
-0.000117988
0.00276821
-0.000102172
0.00279904
-5.98994e-05
0.00280076
-3.24382e-06
0.00277411
5.21963e-05
0.00272591
9.45598e-05
0.00266551
0.000118741
0.00260213
0.000124742
0.00254389
0.000114536
0.00249805
8.98276e-05
0.0024715
5.14225e-05
0.00247087
1.7387e-07
0.00250129
-6.06372e-05
0.00256343
-0.000122207
0.00265008
-0.000169427
0.00274508
-0.000185287
0.00282687
-0.000159569
0.00287601
-9.61705e-05
0.00288233
-1.28492e-05
0.00284767
6.73298e-05
0.00278293
0.000126643
0.00270229
0.000158462
0.00261846
0.000165214
0.00254111
0.000152614
0.00247763
0.000125012
0.00243472
8.37803e-05
0.00241941
2.84547e-05
0.00243849
-4.0201e-05
0.00249592
-0.000116225
0.0025891
-0.000186318
0.00270617
-0.0002321
0.00282654
-0.000236795
0.00292556
-0.000193084
0.00298185
-0.000108135
0.00298455
-2.98145e-06
0.00293719
9.44967e-05
0.0028557
0.000160643
0.00276156
0.000185042
0.00267422
0.000171581
0.00260704
0.000131814
0.0025679
7.6217e-05
0.0025623
9.69635e-06
0.00259508
-6.58013e-05
0.00266856
-0.000145028
0.00277874
-0.000215946
0.0029129
-0.000262341
0.00305111
-0.00027069
0.00317119
-0.000236471
0.00325467
-0.000166476
0.00329147
-7.63299e-05
0.00328124
1.55893e-05
0.00323115
9.47734e-05
0.00315189
0.000154102
0.00305471
0.000191731
0.00295118
0.000206152
0.00285392
0.000194658
0.00277568
0.000156989
0.00272641
9.90946e-05
0.00271059
3.23397e-05
0.00272648
-3.06926e-05
0.00276717
-7.97529e-05
0.0028223
-0.000108134
0.00287971
-0.000112419
0.00292707
-9.25256e-05
0.00295411
-5.25191e-05
0.00295486
-9.27782e-07
0.00292914
5.09106e-05
0.00288233
9.22887e-05
0.00282315
0.000116679
0.00276078
0.000123162
0.00270257
0.000115235
0.00265306
9.83062e-05
0.00261416
7.74784e-05
0.00258595
5.64195e-05
0.00256741
3.725e-05
0.00255707
2.09525e-05
0.00255331
7.86001e-06
0.00255449
-1.9899e-06
0.00255901
-8.67004e-06
0.00256535
-1.2313e-05
0.00257208
-1.31419e-05
0.00257798
-1.1529e-05
0.00258208
-8.02823e-06
0.00258379
-3.35095e-06
0.00258293
1.72149e-06
0.00257965
6.45734e-06
0.00257444
1.0286e-05
0.00256792
1.28638e-05
0.0025608
1.40832e-05
0.00255371
1.40364e-05
0.00254717
1.29546e-05
0.00254157
1.11429e-05
0.00253709
8.92294e-06
0.00253379
6.59051e-06
0.00253161
4.38732e-06
0.00253038
2.48755e-06
0.00252991
9.96021e-07
0.00252996
-4.50564e-08
0.00253031
-6.44091e-07
0.00253075
-8.46533e-07
0.00253113
-7.21908e-07
0.00253132
-3.52604e-07
0.00253123
1.75307e-07
0.00253085
7.79469e-07
0.00253015
1.38714e-06
0.00252917
1.93948e-06
0.00252797
2.39419e-06
0.00252659
2.7263e-06
0.00252512
2.92734e-06
0.00252361
3.00312e-06
0.00252212
2.97037e-06
0.00252068
2.85302e-06
0.00251934
2.67838e-06
0.0025181
2.4737e-06
0.00251697
2.26367e-06
0.00251593
2.06807e-06
0.00251498
1.90179e-06
0.0025141
1.77279e-06
0.00251325
1.68566e-06
0.00251244
1.63708e-06
0.00251162
1.62601e-06
0.0025108
1.63982e-06
0.00250996
1.67928e-06
0.0025091
1.72339e-06
0.0025082
1.78054e-06
0.00250729
1.82761e-06
0.00250635
1.86493e-06
1.92023e-06
0.00250267
-8.10293e-06
0.00251073
-2.43765e-05
0.00252437
-4.11885e-05
0.00254386
-5.85424e-05
0.00256936
-7.61807e-05
0.00260077
-9.3193e-05
0.00263749
-0.000108074
0.00267793
-0.000118127
0.00271947
-0.000120499
0.00275832
-0.000112427
0.00279022
-9.28828e-05
0.00281271
-6.64974e-05
0.00282502
-3.80513e-05
0.00282824
-1.27334e-05
0.00282567
3.67766e-06
0.0028218
8.18406e-06
0.00282058
2.33873e-06
0.00282377
-7.87231e-06
0.00282985
-1.37308e-05
0.00283386
-6.40226e-06
0.0028292
1.82212e-05
0.0028108
5.61275e-05
0.00277747
9.71282e-05
0.00273211
0.000130287
0.00268034
0.000147898
0.00262896
0.000146263
0.00258494
0.000124654
0.00255486
8.41688e-05
0.00254452
2.74641e-05
0.0025582
-4.0341e-05
0.0025969
-0.000109458
0.00265581
-0.000163957
0.00272291
-0.000185091
0.00278129
-0.000160553
0.00281527
-9.38821e-05
0.00281672
-4.69346e-06
0.00278707
8.18452e-05
0.00273455
0.000147084
0.00266966
0.000183629
0.00260217
0.000192231
0.00254026
0.000176452
0.00249108
0.000139001
0.00246176
8.07489e-05
0.00245965
2.27897e-06
0.0024911
-9.20818e-05
0.00255779
-0.000188897
0.00265246
-0.000264104
0.00275719
-0.000290017
0.00284727
-0.000249642
0.00290031
-0.000149211
0.00290527
-1.78104e-05
0.00286532
0.000107275
0.0027938
0.000198165
0.00270686
0.000245406
0.00261802
0.000254048
0.00253678
0.00023386
0.00246986
0.000191925
0.00242327
0.000130373
0.00240361
4.81189e-05
0.00241819
-5.47838e-05
0.00247269
-0.000170729
0.0025663
-0.000279927
0.00268749
-0.000353286
0.00281458
-0.000363882
0.00292141
-0.000299918
0.00298497
-0.000171691
0.00299238
-1.03946e-05
0.00294562
0.000141258
0.00286078
0.000245479
0.00276115
0.000284672
0.00266824
0.000264492
0.00259646
0.000203592
0.00255398
0.000118699
0.00254707
1.6608e-05
0.00258228
-0.000101008
0.00266325
-0.000226002
0.00278518
-0.000337881
0.00293241
-0.000409567
0.00308146
-0.000419743
0.00320747
-0.00036248
0.00329067
-0.000249671
0.00332107
-0.000106732
0.0032999
3.6754e-05
0.00323719
0.000157488
0.00314677
0.000244519
0.00304207
0.000296437
0.00293503
0.000313192
0.00283729
0.000292392
0.00276027
0.000234009
0.00271299
0.000146376
0.00269954
4.57971e-05
0.00271806
-4.92199e-05
0.00276167
-0.000123356
0.00282009
-0.000166558
0.00288124
-0.000173573
0.00293253
-0.000143811
0.00296281
-8.27967e-05
0.00296512
-3.24192e-06
0.00293883
7.72028e-05
0.00288964
0.000141482
0.00282722
0.000179095
0.00276178
0.0001886
0.00270133
0.000175685
0.0026506
0.000149034
0.00261138
0.000116702
0.00258345
8.4348e-05
0.00256556
5.51362e-05
0.00255606
3.04546e-05
0.00255321
1.07165e-05
0.00255529
-4.07826e-06
0.00256069
-1.40636e-05
0.00256782
-1.94407e-05
0.00257521
-2.0539e-05
0.0025816
-1.79165e-05
0.00258599
-1.24189e-05
0.00258778
-5.14186e-06
0.0025868
2.70655e-06
0.00258326
9.99668e-06
0.00257769
1.58534e-05
0.0025708
1.97582e-05
0.00256332
2.15602e-05
0.00255594
2.14159e-05
0.0025492
1.96927e-05
0.00254348
1.68667e-05
0.00253896
1.34354e-05
0.0025357
9.85222e-06
0.00253361
6.48518e-06
0.0025325
3.59696e-06
0.00253215
1.34304e-06
0.00253232
-2.16897e-07
0.00253278
-1.10001e-06
0.00253331
-1.37907e-06
0.00253375
-1.16254e-06
0.00253397
-5.77522e-07
0.00253391
2.44023e-07
0.00253351
1.17637e-06
0.00253279
2.10885e-06
0.00253177
2.95234e-06
0.00253053
3.64313e-06
0.00252911
4.14413e-06
0.00252759
4.44351e-06
0.00252604
4.55113e-06
0.00252452
4.49348e-06
0.00252307
4.30778e-06
0.00252171
4.03623e-06
0.00252046
3.72063e-06
0.00251933
3.3987e-06
0.00251829
3.10048e-06
0.00251735
2.84835e-06
0.00251647
2.6541e-06
0.00251563
2.52434e-06
0.00251481
2.45361e-06
0.002514
2.44008e-06
0.00251317
2.46404e-06
0.00251232
2.52707e-06
0.00251145
2.59583e-06
0.00251055
2.68579e-06
0.00250962
2.75644e-06
0.00250867
2.81779e-06
2.89623e-06
0.00250262
-1.07248e-05
0.00251053
-3.22836e-05
0.002524
-5.46596e-05
0.00254339
-7.79289e-05
0.00256903
-0.000101826
0.00260103
-0.000125193
0.00263899
-0.000146035
0.0026814
-0.000160537
0.00272552
-0.00016462
0.00276698
-0.000153886
0.00280067
-0.00012657
0.00282379
-8.96162e-05
0.00283542
-4.96824e-05
0.00283671
-1.40302e-05
0.00283158
8.81522e-06
0.00282548
1.42862e-05
0.00282335
4.46253e-06
0.00282758
-1.21028e-05
0.00283653
-2.26771e-05
0.00284417
-1.4042e-05
0.00284224
2.01455e-05
0.00282439
7.3978e-05
0.00278918
0.000132343
0.0027401
0.000179363
0.00268368
0.000204325
0.00262746
0.000202482
0.00257894
0.00017317
0.00254519
0.000117919
0.00253271
3.99433e-05
0.00254684
-5.44728e-05
0.00258971
-0.000152321
0.0026567
-0.00023095
0.00273414
-0.00026253
0.00280177
-0.00022818
0.00284065
-0.000132767
0.00284145
-5.4921e-06
0.00280681
0.000116487
0.0027473
0.000206593
0.00267536
0.00025557
0.00260159
0.000265996
0.0025342
0.00024385
0.00248014
0.000193054
0.00244672
0.000114167
0.00244204
6.96695e-06
0.00247338
-0.000123427
0.00254361
-0.000259128
0.00264683
-0.000367317
0.00276508
-0.000408276
0.00287002
-0.000354581
0.002933
-0.000212188
0.00293889
-2.37044e-05
0.00289193
0.000154237
0.00280982
0.000280278
0.0027128
0.000342425
0.00261622
0.000350623
0.0025293
0.000320788
0.00245735
0.000263875
0.0024048
0.000182924
0.00237799
7.49221e-05
0.00238667
-6.34563e-05
0.00244035
-0.000224414
0.00253973
-0.000379304
0.00267053
-0.000484089
0.00280669
-0.000500041
0.00291979
-0.000413014
0.00298738
-0.000239285
0.00299739
-2.04083e-05
0.00295091
0.000187744
0.00286294
0.00033345
0.00275738
0.000390232
0.0026576
0.000364266
0.00257966
0.000281534
0.00253308
0.000165279
0.00252632
2.3371e-05
0.00256837
-0.000143057
0.00266302
-0.000320657
0.0028021
-0.000476959
0.00296502
-0.000572493
0.00312476
-0.000579475
0.00325513
-0.000492851
0.0033364
-0.000330948
0.00335889
-0.000129214
0.00332455
7.10885e-05
0.00324565
0.000236391
0.0031396
0.000350564
0.00302317
0.000412872
0.0029098
0.00042656
0.00281058
0.000391616
0.00273527
0.000309319
0.00269122
0.000190418
0.00268118
5.58415e-05
0.00270233
-7.03696e-05
0.00274755
-0.000168575
0.00280745
-0.000226458
0.0028714
-0.000237523
0.00292756
-0.000199976
0.0029639
-0.000119138
0.00297131
-1.06471e-05
0.00294725
0.000101259
0.00289702
0.000191711
0.00283135
0.000244765
0.0027621
0.000257858
0.00269858
0.000239198
0.00264614
0.000201475
0.00260652
0.000156328
0.00257915
0.000111717
0.00256239
7.1893e-05
0.00255429
3.85575e-05
0.00255291
1.20918e-05
0.00255646
-7.62429e-06
0.00256322
-2.0826e-05
0.00257157
-2.77911e-05
0.00257998
-2.89486e-05
0.00258711
-2.5042e-05
0.00259191
-1.72256e-05
0.00259379
-7.01568e-06
0.00259259
3.90786e-06
0.00258861
1.39775e-05
0.00258247
2.1991e-05
0.00257497
2.72534e-05
0.00256695
2.95863e-05
0.00255913
2.92362e-05
0.00255209
2.67341e-05
0.0025462
2.27514e-05
0.00254166
1.79795e-05
0.00253847
1.30414e-05
0.00253652
8.43708e-06
0.00253559
4.51833e-06
0.00253545
1.48806e-06
0.00253581
-5.82075e-07
0.00253644
-1.72428e-06
0.0025371
-2.04475e-06
0.00253764
-1.69621e-06
0.00253791
-8.54873e-07
0.00253786
2.98002e-07
0.00253745
1.59077e-06
0.00253668
2.87317e-06
0.00253561
4.02491e-06
0.00253429
4.96083e-06
0.0025328
5.63239e-06
0.00253122
6.02561e-06
0.00252962
6.15606e-06
0.00252805
6.06176e-06
0.00252656
5.79495e-06
0.00252518
5.41421e-06
0.00252393
4.97707e-06
0.00252279
4.53501e-06
0.00252176
4.12865e-06
0.00252082
3.7879e-06
0.00251995
3.52808e-06
0.00251912
3.3574e-06
0.0025183
3.2676e-06
0.00251749
3.25579e-06
0.00251666
3.29404e-06
0.0025158
3.38561e-06
0.00251491
3.48193e-06
0.00251399
3.61025e-06
0.00251304
3.70351e-06
0.00251206
3.79698e-06
3.89065e-06
0.00250254
-1.32679e-05
0.00251023
-3.99697e-05
0.00252342
-6.78508e-05
0.00254261
-9.71232e-05
0.00256838
-0.000127587
0.00260109
-0.000157907
0.00264068
-0.000185627
0.00268578
-0.000205635
0.00273354
-0.000212385
0.00277872
-0.000199063
0.00281493
-0.000162776
0.00283892
-0.000113611
0.00284955
-6.0312e-05
0.00284803
-1.25035e-05
0.00283912
1.77194e-05
0.00282976
2.36512e-05
0.00282632
7.89848e-06
0.00283208
-1.78638e-05
0.00284527
-3.587e-05
0.00285829
-2.70616e-05
0.0028604
1.80411e-05
0.00284334
9.10371e-05
0.00280539
0.000170296
0.00275103
0.000233722
0.0026881
0.00026725
0.0026252
0.00026538
0.00257049
0.000227885
0.00253158
0.000156823
0.00251589
5.56339e-05
0.00253033
-6.89081e-05
0.00257888
-0.000200873
0.00265747
-0.000309538
0.00274986
-0.000354925
0.00283072
-0.00030904
0.00287638
-0.000178427
0.0028759
-5.00921e-06
0.00283385
0.00015854
0.00276433
0.000276108
0.00268258
0.000337319
0.00260033
0.000348252
0.00252566
0.000318516
0.00246519
0.000253525
0.00242596
0.000153398
0.00241555
1.73726e-05
0.00244093
-0.000148805
0.00250697
-0.000325168
0.00261279
-0.000473138
0.00274464
-0.000540124
0.00287215
-0.000482091
0.00295731
-0.000297349
0.00297451
-4.09002e-05
0.00292476
0.000203986
0.00283085
0.000374186
0.00272042
0.000452855
0.0026132
0.000457843
0.00251863
0.00041536
0.00243975
0.000342757
0.00237899
0.000243678
0.0023442
0.000109712
0.00235041
-6.96612e-05
0.00241128
-0.000285288
0.00252543
-0.000493452
0.00267176
-0.000630419
0.00281795
-0.000646231
0.00293334
-0.000528402
0.00299761
-0.000303556
0.00300271
-2.55071e-05
0.00295183
0.000238625
0.00285929
0.000425987
0.00274789
0.000501634
0.0026412
0.000470958
0.00255667
0.000366062
0.00250644
0.000215512
0.00250247
2.73418e-05
0.0025556
-0.000196188
0.00266702
-0.000432078
0.0028227
-0.000632643
0.00299711
-0.000746903
0.00316165
-0.000744012
0.00329134
-0.000622543
0.00336824
-0.000407847
0.00338329
-0.000144266
0.00333809
0.000116285
0.00324523
0.00032925
0.00312438
0.000471422
0.00299562
0.000541631
0.00287492
0.000547256
0.00277383
0.000492712
0.00270076
0.000382386
0.00266072
0.000230455
0.00265382
6.27472e-05
0.00267538
-9.19326e-05
0.0027184
-0.000211593
0.0027757
-0.000283758
0.00283965
-0.000301474
0.00290038
-0.000260708
0.00294544
-0.000164197
0.00296287
-2.80807e-05
0.00294657
0.00011756
0.0028997
0.00023858
0.00283325
0.000311215
0.00276097
0.000330144
0.00269427
0.000305893
0.00263981
0.000255944
0.00259967
0.000196467
0.00257304
0.000138339
0.00255784
8.70986e-05
0.00255168
4.47168e-05
0.00255236
1.14098e-05
0.00255792
-1.31811e-05
0.00256655
-2.94592e-05
0.00257656
-3.7798e-05
0.00258633
-3.87206e-05
0.00259444
-3.31527e-05
0.00259979
-2.25781e-05
0.00260176
-8.98152e-06
0.00260024
5.42384e-06
0.00259564
1.85776e-05
0.00258872
2.89189e-05
0.00258039
3.55746e-05
0.00257162
3.83613e-05
0.0025632
3.76515e-05
0.00255576
3.41781e-05
0.00254967
2.88416e-05
0.0025451
2.25523e-05
0.00254202
1.61187e-05
0.00254028
1.01802e-05
0.00253962
5.17741e-06
0.00253975
1.35574e-06
0.00254038
-1.20929e-06
0.00254123
-2.57388e-06
0.00254207
-2.88615e-06
0.00254272
-2.35036e-06
0.00254306
-1.1976e-06
0.00254303
3.37147e-07
0.00254258
2.03312e-06
0.00254176
3.69836e-06
0.0025406
5.18042e-06
0.00253919
6.37271e-06
0.00253761
7.21619e-06
0.00253594
7.6965e-06
0.00253426
7.83714e-06
0.00253263
7.69005e-06
0.0025311
7.32483e-06
0.00252969
6.81846e-06
0.00252842
6.24567e-06
0.00252729
5.67268e-06
0.00252626
5.15111e-06
0.00252533
4.71835e-06
0.00252447
4.3928e-06
0.00252364
4.18371e-06
0.00252283
4.07911e-06
0.00252201
4.07461e-06
0.00252117
4.1327e-06
0.0025203
4.25926e-06
0.00251939
4.38691e-06
0.00251844
4.56091e-06
0.00251747
4.67505e-06
0.00251646
4.8121e-06
4.90886e-06
0.00250243
-1.56987e-05
0.0025098
-4.7338e-05
0.00252257
-8.06184e-05
0.00254142
-0.000115971
0.00256719
-0.000153363
0.00260068
-0.000191394
0.00264226
-0.000227211
0.00269083
-0.000254198
0.00274349
-0.000265052
0.00279374
-0.000249308
0.00283335
-0.000202392
0.00285858
-0.000138839
0.00286794
-6.96663e-05
0.00286256
-7.12806e-06
0.00284837
3.19075e-05
0.00283429
3.77353e-05
0.00282876
1.34302e-05
0.00283644
-2.55444e-05
0.0028555
-5.49358e-05
0.00287614
-4.76963e-05
0.00288402
1.01557e-05
0.00286821
0.00010685
0.00282661
0.000211895
0.0027652
0.000295135
0.0026937
0.000338752
0.00262208
0.000337001
0.00255926
0.000290705
0.00251342
0.000202654
0.00249305
7.60095e-05
0.00250742
-8.32789e-05
0.0025638
-0.000257253
0.00265915
-0.000404887
0.00277291
-0.000468686
0.00287167
-0.000407803
0.00292535
-0.000232107
0.00292177
-1.43087e-06
0.00286884
0.000211475
0.00278564
0.000359304
0.00269107
0.000431893
0.00259811
0.000441211
0.00251457
0.000402054
0.0024462
0.000321895
0.00239831
0.000201284
0.00237597
3.97181e-05
0.00238646
-0.000159301
0.00244093
-0.00037963
0.00254605
-0.000578262
0.00269086
-0.000684935
0.00284289
-0.000634124
0.00295755
-0.000412008
0.00299787
-8.12196e-05
0.00295556
0.000246296
0.0028541
0.000475644
0.00272951
0.000577447
0.00260922
0.000578132
0.00250476
0.000519824
0.00241699
0.00043053
0.00234722
0.000313441
0.00230728
0.000149651
0.0023182
-8.05781e-05
0.00239402
-0.000361103
0.00252664
-0.000626075
0.00268759
-0.000791373
0.00284108
-0.000799719
0.00295608
-0.000643401
0.0030136
-0.000361078
0.00300877
-2.06768e-05
0.00294851
0.000298883
0.00284863
0.000525875
0.00273091
0.000619352
0.00261778
0.000584082
0.00252745
0.000456394
0.00247529
0.000267671
0.00247693
2.57081e-05
0.00254301
-0.00026227
0.00266939
-0.000558459
0.0028356
-0.000798856
0.00301313
-0.000924434
0.00317452
-0.000905399
0.00329786
-0.000745878
0.00336788
-0.00047787
0.00337651
-0.000152899
0.00332454
0.000168258
0.00322333
0.000430458
0.00309277
0.000601983
0.00295508
0.000679318
0.00282888
0.000673458
0.00272704
0.000594551
0.0026571
0.000452334
0.0026211
0.000266453
0.00261569
6.81552e-05
0.00263462
-0.000110863
0.00267231
-0.000249286
0.00272475
-0.000336193
0.00278714
-0.000363867
0.00285129
-0.000324856
0.00290501
-0.000217923
0.00293469
-5.7754e-05
0.00293062
0.000121623
0.00289239
0.00027681
0.00282952
0.000374084
0.00275682
0.000402852
0.00268799
0.000374721
0.00263168
0.000312251
0.002591
0.000237147
0.00256523
0.000164106
0.0025519
0.000100429
0.00254817
4.84499e-05
0.00255146
8.12354e-06
0.00255956
-2.12839e-05
0.00257054
-4.04446e-05
0.00258262
-4.98703e-05
0.00259408
-5.01806e-05
0.0026034
-4.24801e-05
0.00260943
-2.86028e-05
0.0026115
-1.10564e-05
0.00260959
7.33799e-06
0.00260421
2.3958e-05
0.00259629
3.68421e-05
0.00258693
4.49344e-05
0.00257721
4.80746e-05
0.00256806
4.68069e-05
0.00256012
4.21161e-05
0.00255379
3.5175e-05
0.00254919
2.71454e-05
0.00254627
1.90415e-05
0.0025448
1.16506e-05
0.00254447
5.50189e-06
0.00254495
8.75431e-07
0.00254591
-2.16039e-06
0.00254703
-3.69778e-06
0.00254808
-3.93779e-06
0.00254888
-3.14524e-06
0.00254929
-1.61304e-06
0.00254926
3.65023e-07
0.00254878
2.51558e-06
0.00254788
4.60276e-06
0.00254662
6.44093e-06
0.00254509
7.90225e-06
0.00254338
8.91845e-06
0.0025416
9.47689e-06
0.00253983
9.61176e-06
0.00253813
9.39188e-06
0.00253655
8.90707e-06
0.00253511
8.25507e-06
0.00253382
7.52968e-06
0.00253268
6.81295e-06
0.00253167
6.16796e-06
0.00253075
5.63942e-06
0.00252989
5.24826e-06
0.00252907
5.00397e-06
0.00252826
4.88983e-06
0.00252744
4.89937e-06
0.00252658
4.98384e-06
0.00252569
5.15299e-06
0.00252476
5.3162e-06
0.00252378
5.54466e-06
0.00252278
5.67674e-06
0.00252172
5.87283e-06
5.95484e-06
0.00250228
-1.79752e-05
0.0025092
-5.42647e-05
0.00252135
-9.27689e-05
0.00253963
-0.000134243
0.00256521
-0.000178952
0.00259943
-0.000225611
0.00264331
-0.000271086
0.00269617
-0.000307067
0.00275527
-0.00032415
0.00281225
-0.000306281
0.0028563
-0.000246445
0.00288309
-0.000165631
0.00289067
-7.72493e-05
0.00288005
3.49159e-06
0.00285866
5.32978e-05
0.00283814
5.82559e-05
0.00282975
2.18258e-05
0.00284005
-3.58474e-05
0.00286726
-8.21422e-05
0.00289851
-7.89513e-05
0.00291439
-5.72586e-06
0.0029002
0.000121041
0.00285359
0.000258507
0.00278284
0.000365886
0.00270034
0.000421255
0.00261776
0.000419572
0.00254478
0.000363695
0.00248993
0.0002575
0.00246296
0.000102977
0.00247661
-9.69272e-05
0.00254256
-0.000323207
0.00265944
-0.000521762
0.00280217
-0.000611419
0.0029263
-0.000531926
0.00299092
-0.000296735
0.0029818
7.69019e-06
0.00291289
0.000280387
0.00281112
0.000461076
0.00270026
0.000542756
0.00259451
0.000546959
0.00250085
0.000495712
0.00242284
0.000399905
0.00236188
0.000262248
0.00232106
8.05348e-05
0.0023143
-0.000152541
0.00236386
-0.000429189
0.00247874
-0.000693142
0.00264014
-0.00084634
0.00280978
-0.000803763
0.00294406
-0.000546283
0.00300491
-0.000142074
0.0029757
0.000275507
0.00287359
0.00057776
0.00273793
0.000713107
0.0026041
0.00071196
0.00248788
0.000636041
0.00238986
0.000528548
0.00231242
0.000390885
0.00227246
0.000189606
0.00229408
-0.000102192
0.00238651
-0.000453539
0.00253336
-0.000772916
0.00270181
-0.000959826
0.00285692
-0.000954832
0.00296978
-0.000756263
0.00302189
-0.000413182
0.00300845
-7.23684e-06
0.00293838
0.000368955
0.00283
0.000634255
0.0027056
0.000743747
0.00258671
0.000702973
0.00249212
0.000550988
0.00244036
0.000319423
0.00244944
1.66296e-05
0.00252726
-0.000340086
0.00266297
-0.000694171
0.0028311
-0.000966986
0.00300296
-0.00109629
0.00315431
-0.00105676
0.00326703
-0.000858597
0.00332845
-0.00053929
0.00333147
-0.000155919
0.00327621
0.000223517
0.00317236
0.000534309
0.00303859
0.000735751
0.00289767
0.00082024
0.00277011
0.000801015
0.00267024
0.000694429
0.00260465
0.000517918
0.0025722
0.000298904
0.00256669
7.36689e-05
0.00258213
-0.000126309
0.00261569
-0.000282837
0.00266562
-0.000386126
0.00272776
-0.000426008
0.00279399
-0.000391086
0.00285293
-0.00027686
0.0028917
-9.65328e-05
0.00289943
0.000113901
0.00287238
0.000303857
0.00281707
0.000429392
0.00274751
0.000472411
0.00267879
0.000443447
0.00262163
0.00036941
0.0025807
0.000278078
0.00255589
0.000188909
0.00254465
0.000111677
0.0025437
4.94002e-05
0.00255002
1.7956e-06
0.0025611
-3.23643e-05
0.00257481
-5.41537e-05
0.00258925
-6.43078e-05
0.00260264
-6.35677e-05
0.00261337
-5.32129e-05
0.0026202
-3.54353e-05
0.00262246
-1.33109e-05
0.00262014
9.65488e-06
0.0026139
3.01955e-05
0.00260486
4.58904e-05
0.0025943
5.54859e-05
0.00258351
5.88717e-05
0.0025735
5.68168e-05
0.00256499
5.06183e-05
0.00255839
4.17757e-05
0.0025538
3.17429e-05
0.00255107
2.17654e-05
0.00254993
1.27891e-05
0.00255001
5.42961e-06
0.00255089
-8.57908e-09
0.00255221
-3.47921e-06
0.00255364
-5.12598e-06
0.00255492
-5.21644e-06
0.00255586
-4.08647e-06
0.00255634
-2.09825e-06
0.00255632
3.90752e-07
0.00255578
3.05143e-06
0.00255478
5.6022e-06
0.0025534
7.82353e-06
0.00255173
9.56663e-06
0.0025499
1.07554e-05
0.00254799
1.13813e-05
0.00254611
1.14922e-05
0.00254433
1.11772e-05
0.00254269
1.05492e-05
0.00254121
9.72962e-06
0.00253991
8.83321e-06
0.00253876
7.95903e-06
0.00253775
7.18201e-06
0.00253683
6.55399e-06
0.00253598
6.09768e-06
0.00253517
5.82191e-06
0.00253435
5.70398e-06
0.00253352
5.73471e-06
0.00253265
5.85242e-06
0.00253173
6.07203e-06
0.00253077
6.27482e-06
0.00252975
6.56735e-06
0.00252871
6.71259e-06
0.0025276
6.9876e-06
7.02984e-06
0.00250207
-2.00449e-05
0.0025084
-6.05946e-05
0.00251968
-0.000104049
0.00253705
-0.000151614
0.00256212
-0.000204019
0.00259687
-0.000260368
0.00264324
-0.000317447
0.00270132
-0.00036515
0.00276877
-0.000391597
0.0028346
-0.000372119
0.00288443
-0.000296269
0.00291343
-0.000194636
0.00291899
-8.28063e-05
0.00290145
2.10291e-05
0.0028702
8.4548e-05
0.00284056
8.78991e-05
0.00282767
3.4714e-05
0.00284101
-4.91876e-05
0.00287914
-0.000120269
0.00292504
-0.000124852
0.00295212
-3.28049e-05
0.00294034
0.000132814
0.00288722
0.000311627
0.00280445
0.000448659
0.00270812
0.000517585
0.00261209
0.000515604
0.00252659
0.000449198
0.00246032
0.000323771
0.00242457
0.000138718
0.00243461
-0.000106958
0.00250326
-0.000391858
0.00263264
-0.000651143
0.0028041
-0.000782885
0.0029677
-0.000695521
0.00306091
-0.000389949
0.00305427
1.43327e-05
0.00296713
0.000367529
0.00284104
0.000587166
0.00270954
0.000674253
0.00258899
0.000667513
0.00248426
0.000600436
0.00239431
0.000489857
0.00231596
0.000340604
0.00225613
0.000140357
0.00224272
-0.000139123
0.00230552
-0.000491997
0.00244359
-0.000831204
0.00262301
-0.00102577
0.00280019
-0.000980938
0.00293726
-0.000683355
0.00300402
-0.000208832
0.00298306
0.00029646
0.00288374
0.000677088
0.00274186
0.000854986
0.00259655
0.000857263
0.00246824
0.000764355
0.00235997
0.000636817
0.00227762
0.000473231
0.00224223
0.000224996
0.00227644
-0.000136398
0.00238181
-0.000558904
0.00253535
-0.000926456
0.00270355
-0.00112803
0.00285473
-0.00110602
0.00296334
-0.00086487
0.00301164
-0.000461485
0.00299341
1.1e-05
0.00291688
0.000445481
0.00280174
0.000749391
0.00267155
0.000873943
0.002548
0.000826519
0.00245104
0.000647949
0.00240182
0.000368646
0.00241859
-1.37705e-07
0.00250442
-0.000425924
0.00264215
-0.000831893
0.00280378
-0.00112862
0.0029629
-0.00125541
0.00309956
-0.00119341
0.0031992
-0.000958244
0.0032512
-0.000591289
0.00324918
-0.0001539
0.00319293
0.000279771
0.00309075
0.000636489
0.00295962
0.000866884
0.0028216
0.000958252
0.00269798
0.000924637
0.0026037
0.00078871
0.00254395
0.000577665
0.00251492
0.00032794
0.00250974
7.88454e-05
0.00252464
-0.000141203
0.00255883
-0.000317028
0.00261035
-0.000437647
0.00267357
-0.000489225
0.00273992
-0.000457435
0.00279946
-0.0003364
0.00284173
-0.000138803
0.00285706
9.85674e-05
0.00284021
0.000320704
0.00279443
0.000475179
0.00273125
0.000535591
0.00266548
0.000509216
0.00260922
0.000425665
0.00256882
0.000318485
0.00254524
0.000212489
0.0025362
0.000120717
0.00253818
4.74136e-05
0.00254772
-7.7438e-06
0.00256189
-4.65346e-05
0.00257835
-7.061e-05
0.00259513
-8.10865e-05
0.00261045
-7.88924e-05
0.0026227
-6.54588e-05
0.00263055
-4.32861e-05
0.00263325
-1.60087e-05
0.00263077
1.21274e-05
0.00262386
3.71136e-05
0.00261377
5.59764e-05
0.00260204
6.72162e-05
0.00259013
7.07821e-05
0.00257923
6.77204e-05
0.00257013
5.97102e-05
0.00256326
4.86445e-05
0.00255869
3.63223e-05
0.0025562
2.42533e-05
0.00255543
1.35554e-05
0.00255593
4.92776e-06
0.00255724
-1.31535e-06
0.00255893
-5.16936e-06
0.00256065
-6.84912e-06
0.00256214
-6.7046e-06
0.00256321
-5.1537e-06
0.00256374
-2.63427e-06
0.00256371
4.29311e-07
0.00256311
3.65089e-06
0.00256201
6.70263e-06
0.0025605
9.331e-06
0.0025587
1.13668e-05
0.00255673
1.27272e-05
0.0025547
1.34099e-05
0.00255271
1.34792e-05
0.00255084
1.30472e-05
0.00254914
1.22537e-05
0.00254762
1.12457e-05
0.00254629
1.0161e-05
0.00254513
9.11685e-06
0.00254412
8.2002e-06