/*--------------------------------*- C++ -*----------------------------------*\
  =========                 |
  \\      /  F ield         | OpenFOAM: The Open Source CFD Toolbox
   \\    /   O peration     | Website:  https://openfoam.org
    \\  /    A nd           | Version:  11
     \\/     M anipulation  |
\*---------------------------------------------------------------------------*/
FoamFile
{
    format      ascii;
    class       volVectorField;
    location    "10.776654";
    object      U;
}
// * * * * * * * * * * * * * * * * * * * * * * * * * * * * * * * * * * * * * //

dimensions      [0 1 -1 0 0 0 0];

internalField   nonuniform List<vector> 
7132
(
(1.00013 -0.000272559 2.19065e-18)
(1.00211 -0.000819231 7.97974e-18)
(1.00657 -0.00138107 8.06397e-18)
(1.01321 -0.00195518 9.73951e-18)
(1.02219 -0.00253064 1.25669e-17)
(1.03347 -0.00307536 1.35554e-17)
(1.04683 -0.00353899 1.35937e-17)
(1.06184 -0.00383889 1.34317e-17)
(1.07764 -0.00388911 1.32568e-17)
(1.0931 -0.00361804 1.29443e-17)
(1.10673 -0.00300375 1.23552e-17)
(1.11728 -0.00217774 1.184e-17)
(1.12421 -0.00128895 1.09982e-17)
(1.12758 -0.000498002 1.05693e-17)
(1.12813 2.72533e-05 4.98433e-18)
(1.12726 0.00020114 -1.16052e-18)
(1.12646 7.10632e-05 -6.58859e-18)
(1.12673 -0.00018696 -6.63876e-18)
(1.12811 -0.000314773 -1.01627e-17)
(1.12951 -5.86323e-05 -1.33748e-17)
(1.12889 0.000699165 -1.30299e-17)
(1.12418 0.00184981 -1.27218e-17)
(1.11424 0.00310309 -1.2499e-17)
(1.09934 0.00413203 -1.15414e-17)
(1.08102 0.00468954 -1.04344e-17)
(1.06156 0.00464362 -1.06471e-17)
(1.04356 0.00395888 -1.05091e-17)
(1.02956 0.0026692 -9.49205e-18)
(1.02189 0.000871784 -1.05465e-17)
(1.02235 -0.00125046 -5.43441e-17)
(1.03182 -0.00337905 -5.57294e-16)
(1.04953 -0.00503514 -2.16367e-15)
(1.07249 -0.00567913 -3.83214e-15)
(1.09554 -0.00496034 -3.29677e-15)
(1.11278 -0.00297057 -1.12356e-15)
(1.11979 -0.000260772 2.12312e-16)
(1.11512 0.0024339 3.3778e-16)
(1.1003 0.00453219 2.41798e-16)
(1.07863 0.00576194 1.7205e-16)
(1.05386 0.00609806 -9.18452e-16)
(1.02945 0.00562261 -2.56376e-15)
(1.00845 0.0044183 6.12647e-15)
(0.993645 0.00253621 3.98392e-14)
(0.987702 3.84224e-05 3.8017e-14)
(0.992975 -0.00289835 -2.93772e-13)
(1.01076 -0.00585275 -1.44852e-12)
(1.04003 -0.00812632 -3.45125e-12)
(1.07637 -0.00893187 -5.22813e-12)
(1.11231 -0.00777588 -5.46112e-12)
(1.13942 -0.00480328 -4.10257e-12)
(1.15139 -0.000819127 -2.26015e-12)
(1.14628 0.00308565 -8.69385e-13)
(1.12663 0.00604034 -1.42173e-13)
(1.0976 0.00768406 1.03945e-13)
(1.06469 0.00809227 1.30959e-13)
(1.03238 0.00751903 1.7482e-14)
(1.00406 0.00617388 -3.5138e-13)
(0.982496 0.00413404 -6.33664e-13)
(0.970452 0.00139198 1.1539e-12)
(0.970822 -0.00199939 9.14222e-12)
(0.986006 -0.00573639 2.82615e-11)
(1.01649 -0.0091607 6.00012e-11)
(1.05938 -0.0113746 9.7625e-11)
(1.10796 -0.0115738 1.2698e-10)
(1.15281 -0.00942696 1.35053e-10)
(1.18443 -0.00530102 1.18879e-10)
(1.1962 -0.000211599 8.60972e-11)
(1.18673 0.00451485 4.92094e-11)
(1.16015 0.00775459 1.96729e-11)
(1.12428 0.00899993 2.62019e-12)
(1.08749 0.00840763 -4.07664e-12)
(1.05634 0.00650049 -5.27317e-12)
(1.03488 0.00377611 -1.93271e-12)
(1.02557 0.000503187 1.18818e-11)
(1.03034 -0.00317658 4.58815e-11)
(1.05062 -0.00699049 1.06997e-10)
(1.08622 -0.0103882 1.94075e-10)
(1.1341 -0.0126445 2.97603e-10)
(1.18813 -0.0131429 4.04219e-10)
(1.24014 -0.0116504 5.02128e-10)
(1.28206 -0.00843606 5.83587e-10)
(1.30795 -0.00418109 6.44197e-10)
(1.31536 0.000274382 6.80824e-10)
(1.30528 0.00422929 6.85797e-10)
(1.28095 0.00730437 6.43695e-10)
(1.24638 0.00935303 5.41518e-10)
(1.2059 0.0102408 3.86401e-10)
(1.16443 0.00979316 2.14338e-10)
(1.12758 0.00798564 7.3226e-11)
(1.10054 0.00512596 -8.11349e-12)
(1.08651 0.00180234 -3.37433e-11)
(1.08606 -0.00133991 -2.74559e-11)
(1.09726 -0.00378686 -1.21168e-11)
(1.11654 -0.005213 1.87566e-13)
(1.13933 -0.00545889 6.67538e-12)
(1.16069 -0.00452553 8.77685e-12)
(1.17603 -0.00260849 8.48285e-12)
(1.18198 -0.000115007 7.01339e-12)
(1.17721 0.00241036 5.02349e-12)
(1.16275 0.00445005 3.05809e-12)
(1.14146 0.00568182 1.49198e-12)
(1.11702 0.00604772 4.80406e-13)
(1.09278 0.00570334 -1.99881e-14)
(1.07113 0.00490307 -1.68693e-13)
(1.05336 0.00389425 -1.43536e-13)
(1.03985 0.0028599 -7.35435e-14)
(1.03041 0.00190946 -2.07179e-14)
(1.02454 0.00109605 2.61526e-15)
(1.02164 0.000439334 6.50197e-15)
(1.02105 -5.71079e-05 3.78651e-15)
(1.02213 -0.00039631 2.26697e-15)
(1.02427 -0.000584903 4.44619e-15)
(1.02687 -0.0006341 9.79194e-15)
(1.02941 -0.000562231 1.66971e-14)
(1.03143 -0.000396306 2.34659e-14)
(1.03262 -0.000170881 2.86558e-14)
(1.03283 7.5983e-05 3.12586e-14)
(1.03203 0.000308419 3.09204e-14)
(1.03036 0.000498149 2.79675e-14)
(1.02803 0.000627751 2.32195e-14)
(1.02531 0.000691258 1.77087e-14)
(1.02247 0.000692542 1.24105e-14)
(1.01975 0.000642451 8.06612e-15)
(1.01731 0.000555656 5.1116e-15)
(1.01528 0.000447843 3.70692e-15)
(1.01371 0.000333571 3.81101e-15)
(1.0126 0.000224859 5.26146e-15)
(1.01191 0.000130469 7.83762e-15)
(1.01156 5.57786e-05 1.12875e-14)
(1.01147 3.07609e-06 1.53412e-14)
(1.01154 -2.78746e-05 1.97163e-14)
(1.0117 -3.91778e-05 2.41257e-14)
(1.01186 -3.41684e-05 2.82925e-14)
(1.01198 -1.68553e-05 3.19676e-14)
(1.012 8.53882e-06 3.49596e-14)
(1.01191 3.79498e-05 3.71621e-14)
(1.0117 6.77691e-05 3.85652e-14)
(1.01137 9.50603e-05 3.92539e-14)
(1.01094 0.000117692 3.93839e-14)
(1.01043 0.000134384 3.91553e-14)
(1.00986 0.000144669 3.87793e-14)
(1.00927 0.000148785 3.8448e-14)
(1.00867 0.00014752 3.83176e-14)
(1.00809 0.000142023 3.84942e-14)
(1.00753 0.000133624 3.90335e-14)
(1.00701 0.000123659 3.99433e-14)
(1.00654 0.000113349 4.11911e-14)
(1.00611 0.000103679 4.27185e-14)
(1.00571 9.53998e-05 4.44508e-14)
(1.00534 8.89185e-05 4.63098e-14)
(1.005 8.44837e-05 4.82211e-14)
(1.00466 8.19407e-05 5.01194e-14)
(1.00434 8.1262e-05 5.19577e-14)
(1.00401 8.18162e-05 5.3707e-14)
(1.0037 8.36743e-05 5.53598e-14)
(1.00333 8.57596e-05 5.6933e-14)
(1.00303 8.8554e-05 5.84353e-14)
(1.00258 9.08056e-05 5.99957e-14)
(1.00238 9.27044e-05 6.12863e-14)
(1.00172 9.5435e-05 6.39843e-14)
(1.00013 -0.000815933 3.65745e-20)
(1.0021 -0.0024538 3.75487e-19)
(1.00653 -0.00413883 7.41752e-19)
(1.01317 -0.00586483 1.15479e-18)
(1.02215 -0.00759994 1.6792e-18)
(1.03347 -0.00924866 2.24748e-18)
(1.04696 -0.0106597 2.74787e-18)
(1.06219 -0.0115803 3.24548e-18)
(1.07829 -0.0117467 5.81242e-18)
(1.09409 -0.0109322 6.11361e-18)
(1.10802 -0.00906364 5.2467e-18)
(1.11871 -0.00654979 8.85968e-18)
(1.12564 -0.00384517 7.05461e-18)
(1.12883 -0.00144197 6.3946e-18)
(1.12907 0.000137606 7.78184e-18)
(1.12786 0.000630591 1.06089e-17)
(1.12683 0.00018328 1.3545e-17)
(1.12709 -0.000654978 1.52713e-17)
(1.12872 -0.00109326 1.42925e-17)
(1.13055 -0.000344638 1.09942e-17)
(1.13039 0.00196233 7.28955e-18)
(1.12596 0.00548707 3.75628e-18)
(1.11598 0.00932933 6.22575e-19)
(1.10077 0.0124833 -1.3899e-18)
(1.08193 0.0141996 -5.08753e-18)
(1.06186 0.0140855 -1.53605e-17)
(1.04321 0.0120399 1.9946e-17)
(1.02863 0.00816308 1.14609e-16)
(1.02049 0.00273676 -7.40975e-16)
(1.02072 -0.00370456 -3.23443e-15)
(1.03036 -0.0102084 7.88333e-15)
(1.04879 -0.0153117 6.18661e-14)
(1.07293 -0.0173416 1.28657e-13)
(1.09731 -0.0151963 1.32982e-13)
(1.1156 -0.00914502 7.97744e-14)
(1.12303 -0.000882402 2.90547e-14)
(1.11815 0.00733156 4.92711e-15)
(1.10268 0.0137172 -1.03733e-15)
(1.0802 0.017455 -1.15358e-15)
(1.0546 0.018487 -5.36751e-15)
(1.0294 0.0170776 -8.81375e-15)
(1.00764 0.0134813 4.07144e-14)
(0.992103 0.00783923 1.84861e-13)
(0.98554 0.000307243 2.86592e-14)
(0.990536 -0.00861673 -2.03709e-12)
(1.0087 -0.0176661 -8.2437e-12)
(1.03917 -0.0246892 -1.81688e-11)
(1.07736 -0.0272361 -2.67086e-11)
(1.11521 -0.0237647 -2.76879e-11)
(1.14367 -0.0147173 -2.04405e-11)
(1.15606 -0.00257243 -1.07679e-11)
(1.15046 0.00932362 -3.9493e-12)
(1.12975 0.0183046 -5.76989e-13)
(1.09952 0.0232804 5.11214e-13)
(1.06554 0.024508 5.65103e-13)
(1.03234 0.0227865 -3.34452e-14)
(1.00323 0.0187645 -1.5679e-12)
(0.980885 0.0126703 -1.94031e-12)
(0.967997 0.00445525 8.96821e-12)
(0.967486 -0.00575766 5.18915e-11)
(0.981901 -0.0170778 1.4893e-10)
(1.01201 -0.0275273 3.0054e-10)
(1.05524 -0.0343858 4.69436e-10)
(1.10502 -0.0351763 5.92214e-10)
(1.15176 -0.0288167 6.13802e-10)
(1.18544 -0.0163619 5.23325e-10)
(1.19875 -0.000889705 3.63576e-10)
(1.18978 0.0135431 1.9919e-10)
(1.16263 0.0234711 7.68265e-11)
(1.12553 0.0273126 1.03526e-11)
(1.0874 0.0255466 -1.35302e-11)
(1.0551 0.019799 -1.53908e-11)
(1.03273 0.0116101 -3.51217e-12)
(1.02266 0.00177714 3.26495e-11)
(1.02696 -0.00932989 1.12091e-10)
(1.04746 -0.0209333 2.42836e-10)
(1.08431 -0.0313576 4.10292e-10)
(1.1344 -0.0383335 5.84368e-10)
(1.19097 -0.0399024 7.3739e-10)
(1.24508 -0.0353179 8.56123e-10)
(1.28796 -0.0254376 9.40765e-10)
(1.31341 -0.012422 9.95297e-10)
(1.31919 0.00110531 1.01767e-09)
(1.30689 0.0130024 9.95823e-10)
(1.28043 0.0221462 9.10331e-10)
(1.24438 0.0281596 7.48078e-10)
(1.2032 0.0307176 5.23699e-10)
(1.16163 0.0293415 2.86385e-10)
(1.12496 0.0239465 9.59405e-11)
(1.09814 0.0154092 -1.38205e-11)
(1.08435 0.00544661 -4.90871e-11)
(1.08421 -0.00402786 -3.93542e-11)
(1.09594 -0.011457 -1.32037e-11)
(1.11598 -0.0158264 1.26488e-11)
(1.1397 -0.016622 3.125e-11)
(1.16203 -0.0138264 4.04424e-11)
(1.17818 -0.00802665 4.05516e-11)
(1.18459 -0.000459176 3.37634e-11)
(1.17985 0.00722055 2.35285e-11)
(1.16499 0.0134304 1.34974e-11)
(1.14306 0.0171797 5.97672e-12)
(1.11792 0.0182894 1.5537e-12)
(1.0931 0.0172376 -3.65926e-13)
(1.07106 0.0148043 -7.86865e-13)
(1.05309 0.0117449 -5.78625e-13)
(1.03952 0.00861468 -2.65241e-13)
(1.03012 0.00574322 -5.53373e-14)
(1.02435 0.00328844 3.10874e-14)
(1.02157 0.00130744 4.37212e-14)
(1.02112 -0.00019041 3.29128e-14)
(1.02236 -0.00121457 2.68853e-14)
(1.02465 -0.00178452 3.38587e-14)
(1.02739 -0.00193331 5.1083e-14)
(1.03004 -0.00171561 7.22092e-14)
(1.03216 -0.00121267 9.11129e-14)
(1.03341 -0.000528953 1.03313e-13)
(1.03362 0.000220141 1.06464e-13)
(1.03281 0.000925679 1.00713e-13)
(1.03109 0.00150167 8.82339e-14)
(1.02869 0.00189516 7.21449e-14)
(1.02591 0.00208805 5.55377e-14)
(1.023 0.00209217 4.08351e-14)
(1.02022 0.00194051 2.95436e-14)
(1.01775 0.00167766 2.2306e-14)
(1.01569 0.0013512 1.91283e-14)
(1.01412 0.00100528 1.96385e-14)
(1.01301 0.000676307 2.32812e-14)
(1.01233 0.000390806 2.94338e-14)
(1.012 0.000165011 3.74394e-14)
(1.01193 5.80551e-06 4.6612e-14)
(1.01203 -8.75693e-05 5.62573e-14)
(1.0122 -0.000121512 6.56963e-14)
(1.01238 -0.000106132 7.4301e-14)
(1.01251 -5.35654e-05 8.15369e-14)
(1.01254 2.34139e-05 8.70242e-14)
(1.01245 0.000112514 9.06004e-14)
(1.01224 0.000202822 9.23342e-14)
(1.01191 0.000285456 9.24971e-14)
(1.01147 0.000353968 9.1498e-14)
(1.01095 0.000404484 8.98108e-14)
(1.01038 0.000435596 8.79064e-14)
(1.00977 0.000448029 8.61912e-14)
(1.00917 0.000444171 8.49773e-14)
(1.00858 0.000427506 8.44611e-14)
(1.00802 0.000402067 8.4726e-14)
(1.0075 0.000371899 8.5759e-14)
(1.00702 0.000340699 8.74684e-14)
(1.00659 0.000311451 8.97157e-14)
(1.00619 0.000286421 9.2336e-14)
(1.00583 0.000266847 9.5161e-14)
(1.00548 0.000253467 9.80394e-14)
(1.00515 0.000245826 1.00846e-13)
(1.00483 0.00024381 1.03496e-13)
(1.0045 0.000245555 1.05946e-13)
(1.00418 0.000251189 1.08192e-13)
(1.00381 0.000257602 1.1028e-13)
(1.00351 0.000265999 1.12245e-13)
(1.00306 0.000273012 1.14309e-13)
(1.00285 0.000278522 1.16008e-13)
(1.00219 0.000287004 1.19821e-13)
(1.00013 -0.00135462 4.54389e-22)
(1.00208 -0.00407591 5.84917e-21)
(1.00646 -0.00688249 4.00848e-21)
(1.01306 -0.00976992 5.55218e-21)
(1.02205 -0.0126897 -9.13651e-20)
(1.03347 -0.015486 4.35638e-20)
(1.04719 -0.0179063 -4.51485e-19)
(1.06284 -0.0195135 -8.65109e-19)
(1.07955 -0.0198485 1.90608e-18)
(1.09606 -0.0184897 9.13866e-19)
(1.1106 -0.0152901 -9.79082e-18)
(1.12162 -0.010977 -1.721e-17)
(1.12854 -0.00632732 -6.18613e-18)
(1.13137 -0.00218447 2.3388e-17)
(1.13099 0.000529182 5.81188e-17)
(1.12911 0.00133187 8.47934e-17)
(1.12764 0.000462929 9.31893e-17)
(1.12789 -0.00113113 8.37835e-17)
(1.13004 -0.00205658 6.08491e-17)
(1.13279 -0.000906152 3.72766e-17)
(1.13354 0.00299889 2.3723e-17)
(1.12959 0.00906717 1.15046e-17)
(1.11945 0.0157084 -4.14382e-18)
(1.10349 0.0211619 -1.64076e-17)
(1.08353 0.0241417 -5.3507e-17)
(1.06219 0.0239963 -1.34826e-16)
(1.0423 0.0205705 3.16272e-16)
(1.0266 0.0140325 9.89785e-16)
(1.01763 0.00482885 -8.72408e-15)
(1.01756 -0.00618339 -2.41957e-14)
(1.02772 -0.0174142 1.37851e-13)
(1.04772 -0.0263291 7.52135e-13)
(1.07435 -0.0299569 1.49692e-12)
(1.10145 -0.0263022 1.56985e-12)
(1.12175 -0.0158171 9.38679e-13)
(1.12982 -0.00150977 3.16316e-13)
(1.12421 0.0126281 3.78341e-14)
(1.10716 0.0235122 -2.46274e-14)
(1.08282 0.0298013 -2.11913e-14)
(1.05546 0.0314906 -2.44025e-14)
(1.02871 0.0290966 7.83138e-15)
(1.00554 0.0230643 1.88074e-13)
(0.988736 0.0135871 1.81179e-13)
(0.981193 0.000831479 -1.39809e-12)
(0.985918 -0.0144631 -4.79872e-12)
(1.00506 -0.0301619 -3.534e-12)
(1.03805 -0.0424656 9.12611e-12)
(1.08002 -0.0469791 2.30709e-11)
(1.12186 -0.0409487 2.16909e-11)
(1.15308 -0.0252021 8.59721e-12)
(1.16604 -0.00416714 -1.7204e-12)
(1.15897 0.0162728 -4.77106e-12)
(1.13562 0.0315135 -2.78433e-12)
(1.10262 0.0397827 -1.04288e-13)
(1.06632 0.041673 9.93996e-13)
(1.03137 0.0386626 -7.05858e-13)
(1.00086 0.0318967 -5.22562e-12)
(0.977169 0.021751 -1.61513e-12)
(0.962698 0.00810131 4.63919e-11)
(0.960301 -0.00892984 1.94273e-10)
(0.972985 -0.0279765 4.71467e-10)
(1.0024 -0.0458288 8.35738e-10)
(1.04654 -0.0579022 1.19023e-09)
(1.09859 -0.0598678 1.43719e-09)
(1.14835 -0.04965 1.50078e-09)
(1.18521 -0.0287719 1.33995e-09)
(1.20118 -0.00233963 9.92931e-10)
(1.19345 0.0226011 5.84725e-10)
(1.16572 0.039874 2.48108e-10)
(1.12667 0.0465967 4.78921e-11)
(1.08615 0.043604 -3.16879e-11)
(1.05176 0.0338264 -3.98641e-11)
(1.02776 0.0199992 -4.62484e-12)
(1.01659 0.00339792 8.35651e-11)
(1.02085 -0.0155601 2.42831e-10)
(1.04318 -0.0356538 4.60773e-10)
(1.08402 -0.0538626 6.90933e-10)
(1.13942 -0.0659983 8.85338e-10)
(1.20115 -0.068508 1.02303e-09)
(1.2589 -0.0601405 1.11152e-09)
(1.30309 -0.0425593 1.17285e-09)
(1.32724 -0.0197374 1.22701e-09)
(1.32943 0.00358777 1.27343e-09)
(1.31212 0.0236392 1.28412e-09)
(1.28057 0.0385625 1.21349e-09)
(1.24056 0.0479592 1.02613e-09)
(1.19713 0.0515995 7.35053e-10)
(1.15484 0.0488935 4.10799e-10)
(1.11842 0.039721 1.41984e-10)
(1.09229 0.0254346 -1.86151e-11)
(1.07937 0.0087734 -7.26406e-11)
(1.08024 -0.00713175 -5.33988e-11)
(1.09307 -0.019669 4.15724e-12)
(1.11432 -0.0270945 7.37722e-11)
(1.13943 -0.0284901 1.33895e-10)
(1.16334 -0.0237692 1.66765e-10)
(1.18105 -0.0138845 1.64724e-10)
(1.18855 -0.000934484 1.34343e-10)
(1.18406 0.0122276 9.12141e-11)
(1.16857 0.0228515 5.05838e-11)
(1.14543 0.0292134 2.13042e-11)
(1.11893 0.0310192 4.86699e-12)
(1.09299 0.029126 -1.81432e-12)
(1.07025 0.024905 -3.01001e-12)
(1.05197 0.0196632 -2.08435e-12)
(1.03841 0.014345 -9.08795e-13)
(1.02921 0.00949677 -1.58714e-13)
(1.02375 0.00537084 1.41919e-13)
(1.02133 0.00205178 1.85024e-13)
(1.02125 -0.000451653 1.48974e-13)
(1.02285 -0.00215816 1.30633e-13)
(1.02547 -0.00310035 1.56954e-13)
(1.02851 -0.00333246 2.16661e-13)
(1.0314 -0.00294552 2.85956e-13)
(1.03368 -0.0020767 3.42728e-13)
(1.03501 -0.000903767 3.72395e-13)
(1.03522 0.00037631 3.69548e-13)
(1.03432 0.00157767 3.38018e-13)
(1.03247 0.00255423 2.87781e-13)
(1.02993 0.00321699 2.30373e-13)
(1.02699 0.00353681 1.75618e-13)
(1.02395 0.00353558 1.30071e-13)
(1.02107 0.00327081 9.69284e-14)
(1.01853 0.00281919 7.67901e-14)
(1.01644 0.002262 6.86735e-14)
(1.01487 0.00167421 7.08645e-14)
(1.01379 0.00111732 8.14381e-14)
(1.01315 0.000635808 9.84654e-14)
(1.01287 0.000256631 1.20024e-13)
(1.01285 -9.14363e-06 1.44163e-13)
(1.01299 -0.000163317 1.68946e-13)
(1.01321 -0.000217123 1.92536e-13)
(1.01342 -0.000187944 2.13281e-13)
(1.01357 -9.64663e-05 2.29856e-13)
(1.01361 3.56356e-05 2.41413e-13)
(1.01352 0.000187573 2.47715e-13)
(1.0133 0.000340932 2.49151e-13)
(1.01296 0.000480772 2.46606e-13)
(1.0125 0.00059629 2.41271e-13)
(1.01197 0.000681054 2.34437e-13)
(1.01137 0.000732804 2.27318e-13)
(1.01076 0.000752891 2.20921e-13)
(1.01014 0.000745463 2.15967e-13)
(1.00954 0.000716499 2.12874e-13)
(1.00897 0.000672879 2.11775e-13)
(1.00845 0.000621474 2.12569e-13)
(1.00797 0.000568543 2.14982e-13)
(1.00753 0.000519115 2.18635e-13)
(1.00714 0.000476982 2.23102e-13)
(1.00677 0.000444199 2.2797e-13)
(1.00643 0.00042196 2.32874e-13)
(1.0061 0.00040946 2.37534e-13)
(1.00578 0.000406459 2.41768e-13)
(1.00545 0.000409782 2.45501e-13)
(1.00513 0.000419642 2.48755e-13)
(1.00476 0.000430717 2.51654e-13)
(1.00445 0.000445189 2.54323e-13)
(1.00399 0.000457054 2.57213e-13)
(1.00378 0.00046669 2.59574e-13)
(1.00311 0.000480559 2.65656e-13)
(1.00013 -0.00188516 -3.24457e-20)
(1.00203 -0.00567525 -4.80449e-19)
(1.00635 -0.0095998 -8.76846e-19)
(1.01288 -0.0136632 -1.6033e-18)
(1.02186 -0.0178087 -2.08588e-18)
(1.0334 -0.0218255 -2.55665e-18)
(1.04747 -0.0253613 -7.56048e-18)
(1.06376 -0.0277707 5.51085e-18)
(1.0814 -0.0283697 3.41468e-18)
(1.09905 -0.0264692 -5.68044e-17)
(1.11454 -0.0218079 -6.67791e-17)
(1.12606 -0.0155114 8.97572e-17)
(1.13299 -0.00871365 3.13756e-16)
(1.13528 -0.0026524 4.466e-16)
(1.13391 0.00126447 4.01118e-16)
(1.13094 0.00228758 1.60921e-16)
(1.12873 0.000761825 -2.37543e-16)
(1.12894 -0.00189336 -6.45164e-16)
(1.13191 -0.00357599 -8.15932e-16)
(1.13611 -0.002115 -6.20703e-16)
(1.13833 0.00356135 -2.81471e-16)
(1.13517 0.0125474 -6.05348e-17)
(1.12478 0.0223957 -1.71889e-17)
(1.10764 0.0304519 -8.73229e-17)
(1.08594 0.0348499 -3.50555e-16)
(1.06264 0.0347031 -3.18808e-16)
(1.04082 0.0298377 1.51082e-15)
(1.02342 0.0204977 -4.29559e-15)
(1.01318 0.00726297 -2.31582e-14)
(1.01259 -0.00873986 8.98091e-14)
(1.02351 -0.0252889 3.86927e-13)
(1.04595 -0.038638 1.22667e-13)
(1.07649 -0.0442274 -5.13366e-13)
(1.10792 -0.0389063 -2.27634e-13)
(1.13139 -0.023314 3.29154e-13)
(1.14041 -0.00208271 3.14081e-13)
(1.13353 0.0186871 1.06134e-13)
(1.11387 0.0344168 -3.0465e-14)
(1.08658 0.0432962 -7.31196e-14)
(1.05651 0.0455347 -3.82682e-14)
(1.02741 0.0420334 2.39798e-13)
(1.00218 0.0334674 1.69583e-13)
(0.983515 0.0200184 -2.90672e-12)
(0.974513 0.0017285 -6.15599e-12)
(0.978551 -0.0205306 2.2866e-11)
(0.998165 -0.0437207 1.4829e-10)
(1.03332 -0.0621789 3.8074e-10)
(1.0797 -0.0691727 5.96154e-10)
(1.12777 -0.0603165 6.2803e-10)
(1.16472 -0.0367891 4.57088e-10)
(1.18024 -0.00547625 2.2587e-10)
(1.17177 0.0245686 6.49191e-11)
(1.14447 0.046487 -1.22397e-12)
(1.107 0.0579236 -1.07836e-11)
(1.06703 0.0601203 -4.83794e-12)
(1.02946 0.0555056 -5.04091e-12)
(0.99697 0.0458613 -1.09687e-11)
(0.971235 0.0317543 1.48178e-11)
(0.95409 0.0129021 1.53847e-10)
(0.948679 -0.010878 4.76464e-10)
(0.959561 -0.0381085 9.45755e-10)
(0.989933 -0.0643077 1.41941e-09)
(1.03756 -0.0825087 1.77897e-09)
(1.09377 -0.0861139 2.0087e-09)
(1.1467 -0.0721306 2.12048e-09)
(1.18547 -0.0427373 2.0503e-09)
(1.20275 -0.00495228 1.70983e-09)
(1.19579 0.0313041 1.1497e-09)
(1.16761 0.0568563 5.71673e-10)
(1.12664 0.0670745 1.596e-10)
(1.08338 0.0629806 -3.80745e-11)
(1.04625 0.0489862 -7.39795e-11)
(1.02002 0.0291949 -1.87526e-12)
(1.00771 0.00524318 1.63537e-10)
(1.01305 -0.0226062 4.06532e-10)
(1.03952 -0.0525041 6.71866e-10)
(1.08695 -0.0794813 8.90936e-10)
(1.14942 -0.0969265 1.031e-09)
(1.21675 -0.0996778 1.10411e-09)
(1.27765 -0.0863034 1.14077e-09)
(1.32241 -0.0595917 1.16982e-09)
(1.3447 -0.0255516 1.2164e-09)
(1.34265 0.00870784 1.29306e-09)
(1.31923 0.0374511 1.37423e-09)
(1.28091 0.0579214 1.38629e-09)
(1.23508 0.0698652 1.24823e-09)
(1.18788 0.0735595 9.44256e-10)
(1.14407 0.0686804 5.55014e-10)
(1.1078 0.0552155 2.05618e-10)
(1.08278 0.0349326 -1.5999e-11)
(1.07132 0.0114783 -9.10499e-11)
(1.07348 -0.010869 -4.50563e-11)
(1.08715 -0.0284955 8.28323e-11)
(1.10888 -0.0390125 2.46775e-10)
(1.13466 -0.0411458 3.94025e-10)
(1.16005 -0.0346439 4.7608e-10)
(1.18009 -0.020629 4.68586e-10)
(1.19009 -0.00195651 3.84215e-10)
(1.18726 0.0172187 2.63036e-10)
(1.17205 0.0327506 1.47053e-10)
(1.14793 0.041995 6.23707e-11)
(1.11987 0.0444978 1.44116e-11)
(1.09244 0.0415757 -5.2017e-12)
(1.06869 0.0353127 -8.77241e-12)
(1.04999 0.027661 -6.11512e-12)
(1.03649 0.0199936 -2.69344e-12)
(1.02765 0.0130739 -4.81676e-13)
(1.02272 0.00723108 4.34968e-13)
(1.02088 0.00255833 5.99661e-13)
(1.0214 -0.000949258 5.25536e-13)
(1.02357 -0.00332571 4.96789e-13)
(1.02672 -0.00461783 5.94785e-13)
(1.03022 -0.00490008 7.84812e-13)
(1.03348 -0.0042998 9.91482e-13)
(1.03599 -0.00301291 1.14514e-12)
(1.03742 -0.00129635 1.20355e-12)
(1.03761 0.000564002 1.15749e-12)
(1.03657 0.0022988 1.02765e-12)
(1.03451 0.00369805 8.51105e-13)
(1.03173 0.00463628 6.65294e-13)
(1.02855 0.00507575 4.98408e-13)
(1.02531 0.00505235 3.66411e-13)
(1.02227 0.00465256 2.74677e-13)
(1.01964 0.0039891 2.21573e-13)
(1.01752 0.00317999 2.0199e-13)
(1.01595 0.002333 2.09798e-13)
(1.01491 0.00153573 2.39045e-13)
(1.01434 0.000850849 2.84223e-13)
(1.01414 0.000315534 3.4006e-13)
(1.01421 -5.57935e-05 4.01321e-13)
(1.01442 -0.000266979 4.6291e-13)
(1.0147 -0.000335083 5.20061e-13)
(1.01496 -0.000285638 5.68626e-13)
(1.01513 -0.000148618 6.05451e-13)
(1.01519 4.48271e-05 6.28742e-13)
(1.01511 0.000264975 6.38337e-13)
(1.01487 0.000485618 6.35656e-13)
(1.01451 0.000685597 6.23299e-13)
(1.01403 0.000849733 6.04501e-13)
(1.01346 0.000969134 5.82611e-13)
(1.01284 0.00104088 5.60645e-13)
(1.0122 0.00106722 5.40995e-13)
(1.01156 0.00105434 5.25293e-13)
(1.01094 0.001011 5.14393e-13)
(1.01036 0.000947178 5.08466e-13)
(1.00983 0.000872767 5.07132e-13)
(1.00935 0.000796713 5.09629e-13)
(1.00892 0.000726155 5.14978e-13)
(1.00853 0.00066642 5.2213e-13)
(1.00816 0.000620335 5.30092e-13)
(1.00783 0.000589489 5.38022e-13)
(1.0075 0.000572614 5.45291e-13)
(1.00718 0.000569306 5.51521e-13)
(1.00684 0.000574883 5.5659e-13)
(1.00652 0.000589803 5.60596e-13)
(1.00614 0.000606009 5.63868e-13)
(1.00583 0.000627526 5.6674e-13)
(1.00537 0.000644039 5.70147e-13)
(1.00515 0.000659225 5.729e-13)
(1.00446 0.000677152 5.82245e-13)
(1.00013 -0.00240276 -2.15752e-18)
(1.00197 -0.00723871 -7.64957e-18)
(1.00617 -0.0122731 -6.36122e-18)
(1.01259 -0.0175299 -9.26625e-18)
(1.02153 -0.0229567 -3.85901e-18)
(1.03321 -0.0282981 -2.24112e-17)
(1.04772 -0.033105 8.11281e-18)
(1.06487 -0.0364912 4.24623e-17)
(1.0838 -0.0375064 -2.12254e-16)
(1.10306 -0.0350722 -1.37537e-16)
(1.11992 -0.0287488 7.99481e-16)
(1.13213 -0.0201871 1.78742e-15)
(1.13906 -0.0109099 1.6275e-15)
(1.14056 -0.00258674 -6.18707e-17)
(1.13773 0.00274603 -2.95282e-15)
(1.13318 0.00395848 -6.55558e-15)
(1.12989 0.00148321 -1.00388e-14)
(1.13006 -0.00271628 -1.25426e-14)
(1.13423 -0.00564697 -1.20907e-14)
(1.14058 -0.0041252 -7.8372e-15)
(1.14498 0.00347428 -3.03895e-15)
(1.14296 0.0158591 -1.57652e-16)
(1.1322 0.0294844 8.87064e-16)
(1.11336 0.0405869 4.85495e-16)
(1.08919 0.0466405 -2.87394e-16)
(1.06317 0.0465499 3.5938e-15)
(1.03871 0.040175 -8.37995e-15)
(1.01896 0.0278531 -7.17375e-14)
(1.00689 0.0102482 2.79777e-13)
(1.00547 -0.0113401 1.37999e-12)
(1.01731 -0.0340872 -3.92004e-12)
(1.04317 -0.0528299 -2.86497e-11)
(1.07939 -0.0609659 -6.10923e-11)
(1.11707 -0.0537654 -6.62764e-11)
(1.14504 -0.0320448 -4.07506e-11)
(1.15528 -0.00254283 -1.4246e-11)
(1.14644 0.0259263 -1.89141e-12)
(1.12297 0.0469931 8.70359e-13)
(1.0915 0.0584759 5.09532e-13)
(1.05771 0.0610656 3.71212e-13)
(1.02548 0.056258 9.1452e-13)
(0.997525 0.0450131 -2.85947e-12)
(0.976425 0.0274231 -1.53376e-11)
(0.965188 0.00332798 5.42861e-12)
(0.966871 -0.0262645 1.99878e-10)
(0.984014 -0.0575245 7.13958e-10)
(1.01809 -0.0832401 1.4714e-09)
(1.06723 -0.0942466 2.12913e-09)
(1.12294 -0.0835026 2.30325e-09)
(1.17008 -0.0514415 1.86756e-09)
(1.19342 -0.00766494 1.09975e-09)
(1.1868 0.0341847 4.31383e-10)
(1.15599 0.0639004 6.91143e-11)
(1.11283 0.078491 -3.83748e-11)
(1.06777 0.0804303 -3.51083e-11)
(1.02663 0.0736834 -2.25876e-11)
(0.991509 0.0610061 -1.36374e-11)
(0.962881 0.0431931 7.24578e-11)
(0.942119 0.0193897 3.52911e-10)
(0.933875 -0.0116463 8.38807e-10)
(0.945365 -0.0485875 1.35818e-09)
(0.980571 -0.0848337 1.70707e-09)
(1.03503 -0.109854 1.84807e-09)
(1.09693 -0.114472 1.90785e-09)
(1.15245 -0.0955049 2.0179e-09)
(1.19071 -0.056762 2.14532e-09)
(1.20595 -0.0074397 2.07259e-09)
(1.19705 0.0402164 1.63892e-09)
(1.16722 0.0744483 9.71736e-10)
(1.12426 0.0886831 3.61246e-10)
(1.07838 0.0837735 -7.64172e-13)
(1.03837 0.0654986 -9.7575e-11)
(1.00971 0.0392723 1.00834e-11)
(0.996756 0.00689863 2.56114e-10)
(1.00471 -0.0314465 5.57655e-10)
(1.03716 -0.072595 8.17617e-10)
(1.0919 -0.108823 9.78447e-10)
(1.16042 -0.130938 1.05042e-09)
(1.2311 -0.132673 1.07911e-09)
(1.29271 -0.113005 1.09949e-09)
(1.33638 -0.0760832 1.12303e-09)
(1.35638 -0.0298354 1.15969e-09)
(1.35081 0.016344 1.23415e-09)
(1.32238 0.0545107 1.34914e-09)
(1.27802 0.0806198 1.4354e-09)
(1.22636 0.0944504 1.37439e-09)
(1.17497 0.097082 1.10163e-09)
(1.12926 0.0889148 6.82819e-10)
(1.09319 0.0703551 2.69899e-10)
(1.06965 0.0436797 -5.04785e-12)
(1.05989 0.0134335 -8.47478e-11)
(1.06293 -0.0150399 2.33833e-11)
(1.07617 -0.0373638 2.66061e-10)
(1.09664 -0.0508547 5.58457e-10)
(1.12155 -0.0540888 8.09969e-10)
(1.14765 -0.0464964 9.50035e-10)
(1.17043 -0.0289083 9.42629e-10)
(1.18453 -0.00451488 7.96995e-10)
(1.18564 0.0212551 5.68894e-10)
(1.17284 0.0425164 3.33868e-10)
(1.14919 0.0552929 1.50505e-10)
(1.12019 0.0587536 3.99317e-11)
(1.09134 0.0547089 -8.76331e-12)
(1.06644 0.0461248 -1.97454e-11)
(1.04721 0.0357624 -1.47751e-11)
(1.03378 0.0255148 -6.96112e-12)
(1.02543 0.0163832 -1.51872e-12)
(1.02122 0.00875659 9.57681e-13)
(1.02021 0.00271029 1.59019e-12)
(1.02155 -0.00179492 1.58048e-12)
(1.02451 -0.00481917 1.64164e-12)
(1.02838 -0.006426 1.99523e-12)
(1.0325 -0.00670871 2.55455e-12)
(1.03624 -0.00583044 3.11329e-12)
(1.03907 -0.00404949 3.47979e-12)
(1.04064 -0.00171024 3.54804e-12)
(1.04077 0.000801769 3.31463e-12)
(1.03955 0.00312411 2.8613e-12)
(1.0372 0.00497723 2.30688e-12)
(1.03407 0.00619866 1.75945e-12)
(1.03057 0.00674572 1.29166e-12)
(1.02705 0.00667445 9.37453e-13)
(1.02381 0.00610686 7.01274e-13)
(1.02105 0.00519752 5.7073e-13)
(1.01888 0.0041056 5.27088e-13)
(1.01733 0.00297453 5.5151e-13)
(1.01637 0.00191939 6.27402e-13)
(1.01589 0.00102111 7.40278e-13)
(1.0158 0.000326362 8.76709e-13)
(1.01598 -0.000148423 1.02361e-12)
(1.01629 -0.000410647 1.16841e-12)
(1.01665 -0.000484658 1.29952e-12)
(1.01697 -0.000405415 1.40712e-12)
(1.01719 -0.000213213 1.4842e-12)
(1.01726 5.0513e-05 1.5273e-12)
(1.01717 0.000346514 1.53703e-12)
(1.01692 0.00064039 1.51773e-12)
(1.01652 0.000904563 1.47632e-12)
(1.01601 0.00111947 1.42098e-12)
(1.0154 0.0012739 1.35982e-12)
(1.01474 0.00136459 1.29987e-12)
(1.01407 0.00139504 1.24652e-12)
(1.0134 0.00137393 1.20324e-12)
(1.01276 0.00131319 1.17166e-12)
(1.01217 0.00122626 1.15185e-12)
(1.01163 0.00112632 1.14266e-12)
(1.01115 0.00102519 1.14215e-12)
(1.01072 0.000932197 1.14797e-12)
(1.01033 0.000854204 1.15768e-12)
(1.00997 0.000794737 1.16902e-12)
(1.00964 0.000755686 1.18015e-12)
(1.00931 0.000735165 1.18973e-12)
(1.00899 0.00073253 1.19701e-12)
(1.00865 0.000741341 1.20181e-12)
(1.00832 0.000762476 1.20445e-12)
(1.00794 0.000784512 1.20569e-12)
(1.00762 0.00081436 1.20637e-12)
(1.00714 0.000835311 1.20833e-12)
(1.00692 0.000857937 1.20985e-12)
(1.00621 0.000878023 1.22259e-12)
(1.00012 -0.00290161 2.28438e-18)
(1.00189 -0.00874949 7.92887e-18)
(1.00592 -0.0148783 6.55821e-18)
(1.01216 -0.0213463 9.52933e-18)
(1.02101 -0.0281225 1.84291e-17)
(1.03279 -0.0349244 -5.30133e-17)
(1.04782 -0.0412143 2.94966e-16)
(1.06604 -0.0458263 -6.03378e-16)
(1.08668 -0.0474897 -4.25296e-16)
(1.10813 -0.0445448 3.54235e-15)
(1.12684 -0.0362833 4.64946e-15)
(1.14 -0.0250889 -3.1629e-15)
(1.14697 -0.0129287 -1.70935e-14)
(1.14741 -0.00198561 -3.04904e-14)
(1.14259 0.00491591 -4.16146e-14)
(1.13578 0.00615455 -4.79626e-14)
(1.13089 0.00225784 -4.60973e-14)
(1.13088 -0.00412539 -3.65944e-14)
(1.13666 -0.00889268 -2.05658e-14)
(1.14603 -0.00752481 -3.17062e-15)
(1.15354 0.00237125 6.17286e-15)
(1.15319 0.0189671 8.19358e-15)
(1.14195 0.0372271 8.90525e-15)
(1.12082 0.0519722 7.07678e-15)
(1.09337 0.0599488 1.17454e-14)
(1.06379 0.0599404 2.39617e-14)
(1.0359 0.0519414 -1.21493e-13)
(1.01306 0.0364108 -1.01299e-13)
(0.998477 0.0140191 2.29443e-12)
(0.995695 -0.0139334 2.0241e-12)
(1.00862 -0.0441298 -3.08925e-11)
(1.03935 -0.0696887 -1.17291e-10)
(1.08386 -0.0812043 -2.18244e-10)
(1.13033 -0.071741 -2.54826e-10)
(1.16409 -0.0423865 -1.88638e-10)
(1.17538 -0.00273115 -8.60614e-11)
(1.16338 0.0348753 -2.0904e-11)
(1.13455 0.0618877 2.31192e-12)
(1.0975 0.0759171 4.41504e-12)
(1.05894 0.0785345 3.11343e-12)
(1.02283 0.0721217 9.37598e-13)
(0.991599 0.057997 -1.61284e-11)
(0.967441 0.0361925 -3.08899e-11)
(0.952397 0.00652505 1.15486e-10)
(0.948446 -0.0299132 6.95562e-10)
(0.959334 -0.0693061 1.75952e-09)
(0.990168 -0.103796 2.95693e-09)
(1.04157 -0.121632 3.8662e-09)
(1.10489 -0.111767 4.22126e-09)
(1.16358 -0.0720145 3.81083e-09)
(1.19886 -0.0137982 2.67316e-09)
(1.19924 0.0433033 1.33537e-09)
(1.16811 0.0834588 3.79726e-10)
(1.11975 0.10201 -3.24593e-11)
(1.06867 0.103203 -1.01077e-10)
(1.02298 0.0936281 -6.85387e-11)
(0.984397 0.077736 -7.47417e-12)
(0.952114 0.0564499 1.85503e-10)
(0.927783 0.0274123 6.10079e-10)
(0.918774 -0.0124827 1.15521e-09)
(0.93443 -0.0614385 1.55407e-09)
(0.977154 -0.109144 1.66716e-09)
(1.03886 -0.140722 1.58867e-09)
(1.10539 -0.144873 1.5084e-09)
(1.16238 -0.119052 1.57769e-09)
(1.19913 -0.069475 1.81652e-09)
(1.21068 -0.00807938 2.01961e-09)
(1.19757 0.0507039 1.87386e-09)
(1.16436 0.0932521 1.31119e-09)
(1.11881 0.111469 6.05686e-10)
(1.07045 0.105898 8.91293e-11)
(1.02779 0.0833092 -8.97036e-11)
(0.99708 0.0500052 3.76167e-11)
(0.984437 0.00776557 3.43573e-10)
(0.996276 -0.0427828 6.67834e-10)
(1.035 -0.0960909 8.91167e-10)
(1.09546 -0.141134 9.92668e-10)
(1.16689 -0.166577 1.02758e-09)
(1.2374 -0.165886 1.05811e-09)
(1.29683 -0.138986 1.10707e-09)
(1.33766 -0.0914316 1.15887e-09)
(1.355 -0.0327503 1.19781e-09)
(1.34697 0.0257239 1.24675e-09)