/*--------------------------------*- C++ -*----------------------------------*\
  =========                 |
  \\      /  F ield         | OpenFOAM: The Open Source CFD Toolbox
   \\    /   O peration     | Website:  https://openfoam.org
    \\  /    A nd           | Version:  11
     \\/     M anipulation  |
\*---------------------------------------------------------------------------*/
FoamFile
{
    format      ascii;
    class       volScalarField;
    location    "5.633583";
    object      p;
}
// * * * * * * * * * * * * * * * * * * * * * * * * * * * * * * * * * * * * * //

dimensions      [0 2 -2 0 0 0 0];

internalField   nonuniform List<scalar> 
7132
(
0.0509187
0.049466
0.0445647
0.0373839
0.0273128
0.0140131
-0.00265704
-0.0227845
-0.0459715
-0.0714189
-0.0979054
-0.123753
-0.148066
-0.170034
-0.189115
-0.205064
-0.217737
-0.227078
-0.233057
-0.235649
-0.234847
-0.230698
-0.223349
-0.213087
-0.20035
-0.185707
-0.169805
-0.153307
-0.136828
-0.120886
-0.105874
-0.0920588
-0.0795904
-0.0685202
-0.0588255
-0.0504319
-0.0432328
-0.0371047
-0.0319191
-0.0275507
-0.0238816
-0.0208052
-0.0182267
-0.0160633
-0.014244
-0.0127085
-0.011406
-0.0102944
-0.00933883
-0.00851102
-0.00778795
-0.0071512
-0.00658606
-0.00608088
-0.0056264
-0.00521528
-0.00484163
-0.00450069
-0.00418854
-0.00390189
-0.00363794
-0.00339427
-0.00316875
-0.00295952
-0.00276491
-0.00258347
-0.0024139
-0.00225507
-0.00210601
-0.00196586
-0.0018339
-0.00170948
-0.00159208
-0.00148122
-0.0013765
-0.00127756
-0.00118408
-0.00109579
-0.00101244
-0.00093379
-0.000859631
-0.000789771
-0.000724036
-0.000662266
-0.000604316
-0.000550055
-0.000499363
-0.000452131
-0.000408255
-0.000367632
-0.000330145
-0.000295646
-0.000263937
-0.000234743
-0.000207716
-0.000182453
-0.000158565
-0.000135776
-0.00011403
-9.35526e-05
-7.48105e-05
-5.83518e-05
-4.45898e-05
-3.363e-05
-2.52346e-05
-1.89382e-05
-1.42334e-05
-1.07144e-05
-8.11193e-06
-6.2424e-06
-4.93873e-06
-4.02359e-06
-3.33045e-06
-2.73959e-06
-2.19519e-06
-1.6932e-06
-1.25308e-06
-8.92858e-07
-6.17264e-07
-4.18018e-07
-2.79942e-07
-1.86766e-07
-1.24618e-07
-8.29472e-08
-5.44291e-08
-3.42118e-08
-1.93666e-08
-8.1576e-09
3.248e-10
6.66403e-09
1.12092e-08
1.4326e-08
1.62888e-08
1.74196e-08
1.79254e-08
1.80351e-08
1.78487e-08
1.74962e-08
1.69961e-08
1.64232e-08
1.57608e-08
1.50656e-08
1.43105e-08
1.35472e-08
1.27433e-08
1.19471e-08
1.11212e-08
1.03118e-08
9.47668e-09
8.66358e-09
7.82394e-09
7.01381e-09
6.16847e-09
5.37269e-09
4.50861e-09
3.74908e-09
2.84584e-09
2.13937e-09
1.21888e-09
4.83988e-10
0.051498
0.0500577
0.0452001
0.0380663
0.0280355
0.0147424
-0.00197876
-0.0222521
-0.0456777
-0.0714503
-0.0982732
-0.12435
-0.148823
-0.17088
-0.189994
-0.205946
-0.218609
-0.227938
-0.233909
-0.236495
-0.23568
-0.2315
-0.224094
-0.213745
-0.200891
-0.186109
-0.17006
-0.153421
-0.136817
-0.120772
-0.105684
-0.0918192
-0.0793237
-0.0682448
-0.0585553
-0.0501765
-0.042998
-0.0368937
-0.0317329
-0.0273887
-0.0237425
-0.020687
-0.0181271
-0.0159801
-0.014175
-0.0126516
-0.0113593
-0.0102561
-0.00930756
-0.00848541
-0.0077669
-0.00713379
-0.00657154
-0.00606864
-0.00561598
-0.0052063
-0.00483381
-0.00449382
-0.00418245
-0.00389647
-0.0036331
-0.00338994
-0.00316488
-0.00295605
-0.0027618
-0.00258067
-0.00241137
-0.00225279
-0.00210393
-0.00196397
-0.00183216
-0.00170787
-0.00159058
-0.00147982
-0.00137518
-0.00127631
-0.0011829
-0.00109467
-0.00101137
-0.000932768
-0.000858651
-0.00078883
-0.000723128
-0.000661387
-0.000603462
-0.000549223
-0.00049855
-0.000451335
-0.000407476
-0.000366871
-0.000329407
-0.00029494
-0.000263272
-0.00023413
-0.000207164
-0.000181964
-0.000158135
-0.000135393
-0.000113676
-9.32116e-05
-7.44714e-05
-5.80138e-05
-4.42627e-05
-3.33291e-05
-2.49739e-05
-1.87241e-05
-1.40627e-05
-1.05766e-05
-7.99452e-06
-6.13582e-06
-4.83892e-06
-3.93146e-06
-3.24952e-06
-2.67347e-06
-2.14598e-06
-1.66085e-06
-1.23559e-06
-8.86836e-07
-6.18742e-07
-4.23203e-07
-2.85839e-07
-1.91506e-07
-1.27446e-07
-8.39442e-08
-5.41303e-08
-3.32566e-08
-1.82801e-08
-7.25562e-09
9.21243e-10
6.97352e-09
1.13141e-08
1.4322e-08
1.62477e-08
1.73846e-08
1.791e-08
1.80389e-08
1.78618e-08
1.75116e-08
1.70075e-08
1.64305e-08
1.57632e-08
1.50662e-08
1.43093e-08
1.35466e-08
1.27421e-08
1.1947e-08
1.11204e-08
1.03118e-08
9.47576e-09
8.66343e-09
7.82283e-09
7.01364e-09
6.16711e-09
5.37296e-09
4.50626e-09
3.75119e-09
2.83817e-09
2.15045e-09
1.18336e-09
5.48599e-10
0.0526512
0.0512372
0.0464687
0.0394335
0.0294887
0.0162154
-0.000602634
-0.0211679
-0.0450774
-0.0715184
-0.0990313
-0.125568
-0.150358
-0.172588
-0.191762
-0.207716
-0.220354
-0.22966
-0.235617
-0.238194
-0.237359
-0.233123
-0.225606
-0.215079
-0.201988
-0.186925
-0.170578
-0.153651
-0.136792
-0.12054
-0.1053
-0.091335
-0.0787856
-0.0676901
-0.0580119
-0.0496635
-0.0425272
-0.0364709
-0.0313601
-0.0270647
-0.0234644
-0.0204508
-0.0179284
-0.0158142
-0.0140374
-0.0125381
-0.0112661
-0.0101799
-0.00924517
-0.0084343
-0.00772488
-0.00709903
-0.00654255
-0.00604421
-0.00559516
-0.00518836
-0.00481819
-0.0044801
-0.00417032
-0.00388568
-0.00362347
-0.00338133
-0.00315716
-0.00294913
-0.00275559
-0.00257509
-0.00240634
-0.00224824
-0.0020998
-0.0019602
-0.00182869
-0.00170467
-0.00158761
-0.00147704
-0.00137257
-0.00127385
-0.00118057
-0.00109246
-0.00100926
-0.000930754
-0.000856723
-0.000786979
-0.000721347
-0.000659667
-0.000601797
-0.000547604
-0.000496973
-0.000449795
-0.000405973
-0.00036541
-0.000328
-0.000293606
-0.000262038
-0.000233026
-0.000206212
-0.000181177
-0.000157502
-0.000134881
-0.000113236
-9.27858e-05
-7.40129e-05
-5.74994e-05
-4.36981e-05
-3.27441e-05
-2.44087e-05
-1.82144e-05
-1.36298e-05
-1.02258e-05
-7.71886e-06
-5.92296e-06
-4.67609e-06
-3.8075e-06
-3.15506e-06
-2.60078e-06
-2.08914e-06
-1.61605e-06
-1.20073e-06
-8.60793e-07
-6.00501e-07
-4.11375e-07
-2.78711e-07
-1.87369e-07
-1.24923e-07
-8.21294e-08
-5.25586e-08
-3.17691e-08
-1.68859e-08
-6.02185e-09
1.93396e-09
7.74194e-09
1.18534e-08
1.46751e-08
1.6467e-08
1.75193e-08
1.79964e-08
1.81007e-08
1.79101e-08
1.75516e-08
1.70397e-08
1.64556e-08
1.57814e-08
1.50791e-08
1.43179e-08
1.35527e-08
1.27462e-08
1.19503e-08
1.11227e-08
1.03138e-08
9.47709e-09
8.66473e-09
7.82344e-09
7.01461e-09
6.16689e-09
5.37437e-09
4.50374e-09
3.75571e-09
2.82544e-09
2.17143e-09
1.11972e-09
6.64204e-10
0.0543681
0.0529957
0.0483678
0.0414909
0.0316889
0.0184608
0.00151054
-0.0194935
-0.0441461
-0.0716388
-0.100231
-0.127457
-0.152719
-0.175198
-0.194447
-0.210393
-0.222989
-0.232254
-0.238188
-0.240752
-0.239887
-0.23557
-0.227886
-0.217094
-0.203643
-0.188153
-0.171352
-0.153987
-0.136741
-0.120178
-0.104708
-0.0905948
-0.077967
-0.0668493
-0.0571905
-0.0488897
-0.0418181
-0.0358353
-0.0308002
-0.0265786
-0.0230476
-0.0200971
-0.0176309
-0.0155661
-0.0138319
-0.0123688
-0.0111272
-0.0100663
-0.00915233
-0.00835832
-0.00766246
-0.00704741
-0.00649948
-0.0060079
-0.00556419
-0.00516163
-0.00479488
-0.00445958
-0.00415213
-0.00386948
-0.003609
-0.00336838
-0.00314557
-0.00293874
-0.00274627
-0.00256671
-0.0023988
-0.00224142
-0.00209361
-0.00195454
-0.0018235
-0.00169987
-0.00158314
-0.00147286
-0.00136864
-0.00127014
-0.00117706
-0.00108912
-0.00100608
-0.000927713
-0.00085381
-0.000784182
-0.000718652
-0.000657063
-0.000599271
-0.000545147
-0.000494573
-0.000447447
-0.000403675
-0.000363168
-0.000325828
-0.000291532
-0.000260096
-0.000231256
-0.000204647
-0.000179831
-0.000156364
-0.000133906
-0.000112356
-9.19259e-05
-7.3112e-05
-5.65301e-05
-4.26742e-05
-3.17126e-05
-2.34306e-05
-1.73435e-05
-1.2898e-05
-9.64073e-06
-7.26936e-06
-5.58847e-06
-4.43351e-06
-3.63478e-06
-3.03251e-06
-2.51194e-06
-2.02179e-06
-1.56267e-06
-1.15771e-06
-8.26804e-07
-5.74785e-07
-3.92774e-07
-2.65572e-07
-1.7796e-07
-1.17857e-07
-7.65253e-08
-4.79711e-08
-2.80143e-08
-1.38881e-08
-3.7169e-09
3.63143e-09
8.94303e-09
1.26764e-08
1.52315e-08
1.68454e-08
1.7785e-08
1.81897e-08
1.82464e-08
1.80207e-08
1.76356e-08
1.71015e-08
1.65007e-08
1.58129e-08
1.51016e-08
1.43331e-08
1.35639e-08
1.27538e-08
1.19562e-08
1.11265e-08
1.0317e-08
9.47879e-09
8.66638e-09
7.8238e-09
7.01561e-09
6.16595e-09
5.37584e-09
4.49954e-09
3.76139e-09
2.80765e-09
2.1992e-09
1.03658e-09
8.14078e-10
0.0566322
0.0553192
0.0508911
0.0442449
0.0346599
0.0215231
0.004423
-0.0171653
-0.0428413
-0.0718344
-0.101953
-0.130095
-0.155974
-0.178759
-0.19808
-0.213992
-0.226515
-0.235724
-0.241637
-0.244201
-0.243315
-0.238902
-0.231003
-0.219851
-0.205905
-0.189826
-0.172399
-0.154431
-0.136657
-0.11967
-0.103893
-0.0895827
-0.0768537
-0.0657107
-0.056082
-0.0478487
-0.0408669
-0.0349845
-0.0300522
-0.0259304
-0.0224925
-0.0196267
-0.0172359
-0.0152369
-0.0135594
-0.0121445
-0.0109434
-0.009916
-0.00902958
-0.00825788
-0.00757992
-0.00697913
-0.00644248
-0.00595979
-0.00552311
-0.00512614
-0.00476389
-0.00443228
-0.00412792
-0.00384791
-0.00358973
-0.00335114
-0.00313013
-0.00292491
-0.00273386
-0.00255557
-0.00238877
-0.00223235
-0.00208538
-0.00194702
-0.00181659
-0.00169349
-0.0015772
-0.00146731
-0.00136342
-0.00126521
-0.00117238
-0.00108467
-0.00100184
-0.000923665
-0.000849935
-0.000780461
-0.000715069
-0.000653601
-0.000595913
-0.000541878
-0.000491381
-0.000444321
-0.000400611
-0.000360171
-0.000322916
-0.000288735
-0.000257459
-0.000228826
-0.000202468
-0.000177926
-0.000154722
-0.000132478
-0.000111062
-9.06737e-05
-7.18262e-05
-5.51755e-05
-4.12659e-05
-3.03073e-05
-2.21039e-05
-1.61632e-05
-1.1907e-05
-8.85231e-06
-6.67216e-06
-5.15697e-06
-4.13554e-06
-3.43649e-06
-2.90163e-06
-2.42098e-06
-1.95106e-06
-1.50136e-06
-1.10236e-06
-7.78177e-07
-5.34553e-07
-3.61547e-07
-2.42523e-07
-1.61413e-07
-1.06027e-07
-6.79522e-08
-4.16259e-08
-2.32238e-08
-1.02276e-08
-9.15189e-10
5.75484e-09
1.05241e-08
1.38277e-08
1.60535e-08
1.74239e-08
1.81913e-08
1.84769e-08
1.84531e-08
1.81715e-08
1.77475e-08
1.71842e-08
1.6562e-08
1.58574e-08
1.5134e-08
1.43561e-08
1.35807e-08
1.27656e-08
1.19651e-08
1.11327e-08
1.03219e-08
9.48199e-09
8.66917e-09
7.82518e-09
7.01743e-09
6.16561e-09
5.37811e-09
4.49525e-09
3.7685e-09
2.78785e-09
2.2313e-09
9.46342e-10
9.77075e-10
0.0594201
0.0581875
0.054029
0.0477025
0.0384327
0.0254627
0.00822175
-0.0140922
-0.0411011
-0.072145
-0.104322
-0.133595
-0.160223
-0.183352
-0.20272
-0.218556
-0.230962
-0.240085
-0.245966
-0.248534
-0.247635
-0.243118
-0.234958
-0.223356
-0.208779
-0.191942
-0.173707
-0.154964
-0.136515
-0.118991
-0.102828
-0.0882761
-0.0754276
-0.0642607
-0.0546773
-0.0465346
-0.0396698
-0.0339165
-0.0291154
-0.02512
-0.0217996
-0.0190403
-0.016744
-0.0148276
-0.0132211
-0.0118666
-0.010716
-0.00973047
-0.00887829
-0.00813427
-0.00747846
-0.00689522
-0.0063724
-0.00590057
-0.00547242
-0.00508224
-0.00472545
-0.00439832
-0.00409772
-0.00382095
-0.00356561
-0.00332954
-0.00311078
-0.00290758
-0.00271835
-0.00254165
-0.00237625
-0.00222105
-0.00207512
-0.00193766
-0.00180799
-0.00168553
-0.00156979
-0.00146037
-0.00135688
-0.00125903
-0.00116652
-0.0010791
-0.000996526
-0.000918586
-0.000845071
-0.00077579
-0.000710569
-0.00064925
-0.00059169
-0.000537762
-0.000487354
-0.000440368
-0.000396725
-0.000356352
-0.00031918
-0.000285112
-0.000253993
-0.000225569
-0.000199469
-0.000175212
-0.00015229
-0.000130287
-0.000109036
-8.87278e-05
-6.98893e-05
-5.32178e-05
-3.93089e-05
-2.84147e-05
-2.03567e-05
-1.46324e-05
-1.06353e-05
-7.84972e-06
-5.92236e-06
-4.62677e-06
-3.7824e-06
-3.21399e-06
-2.76444e-06
-2.33039e-06
-1.88019e-06
-1.43641e-06
-1.04018e-06
-7.21252e-07
-4.8622e-07
-3.23303e-07
-2.13716e-07
-1.40204e-07
-9.04322e-08
-5.6378e-08
-3.29555e-08
-1.66991e-08
-5.32328e-09
2.74915e-09
8.46315e-09
1.24998e-08
1.52501e-08
1.70694e-08
1.81474e-08
1.87095e-08
1.88508e-08
1.8726e-08
1.83714e-08
1.78947e-08
1.72917e-08
1.66405e-08
1.59138e-08
1.51749e-08
1.43851e-08
1.36019e-08
1.27805e-08
1.19762e-08
1.11403e-08
1.03278e-08
9.48574e-09
8.6723e-09
7.82661e-09
7.01929e-09
6.165e-09
5.38038e-09
4.49037e-09
3.77592e-09
2.76717e-09
2.2643e-09
8.58424e-10
1.13515e-09
0.0627001
0.0615728
0.0577664
0.0518701
0.0430448
0.0303583
0.0130248
-0.010144
-0.0388322
-0.0726292
-0.107517
-0.138109
-0.165592
-0.189059
-0.208401
-0.224089
-0.236324
-0.245343
-0.251211
-0.253827
-0.252956
-0.248346
-0.239882
-0.227725
-0.212356
-0.194559
-0.175304
-0.155588
-0.136297
-0.118112
-0.101484
-0.0866461
-0.0736637
-0.0624796
-0.0529614
-0.0449371
-0.0382206
-0.0326282
-0.0279886
-0.0241477
-0.0209703
-0.0183399
-0.0161577
-0.0143405
-0.0128193
-0.0115368
-0.0104466
-0.0095109
-0.00869938
-0.00798816
-0.00735852
-0.00679597
-0.0062894
-0.00583031
-0.00541217
-0.00502993
-0.00467954
-0.00435769
-0.00406155
-0.00378863
-0.00353668
-0.00330364
-0.00308761
-0.00288685
-0.00269979
-0.00252501
-0.00236129
-0.00220756
-0.00206288
-0.00192648
-0.00179771
-0.00167601
-0.00156093
-0.00145205
-0.00134905
-0.00125162
-0.00115948
-0.0010724
-0.000990146
-0.000912491
-0.000839234
-0.000770187
-0.000705172
-0.000644031
-0.000586623
-0.000532819
-0.000482511
-0.000435605
-0.000392027
-0.000351717
-0.000314616
-0.000280646
-0.000249666
-0.000221434
-0.000195576
-0.000171598
-0.000148966
-0.000127229
-0.000106189
-8.60197e-05
-6.72625e-05
-5.06497e-05
-3.68231e-05
-2.60722e-05
-1.82335e-05
-1.27937e-05
-9.11965e-06
-6.66328e-06
-5.047e-06
-4.02464e-06
-3.40148e-06
-2.99389e-06
-2.64397e-06
-2.25714e-06
-1.81915e-06
-1.37158e-06
-9.70632e-07
-6.53413e-07
-4.26765e-07
-2.7557e-07
-1.77579e-07
-1.13651e-07
-7.10964e-08
-4.22832e-08
-2.26472e-08
-9.12895e-09
2.653e-10
6.89529e-09
1.1541e-08
1.4774e-08
1.69153e-08
1.82775e-08
1.90172e-08
1.93341e-08
1.92993e-08
1.90501e-08
1.86064e-08
1.80664e-08
1.74169e-08
1.67323e-08
1.59803e-08
1.52235e-08
1.442e-08
1.36273e-08
1.27986e-08
1.19897e-08
1.11497e-08
1.0335e-08
9.49054e-09
8.67622e-09
7.82873e-09
7.02169e-09
6.16485e-09
5.38309e-09
4.48589e-09
3.78369e-09
2.74777e-09
2.29619e-09
7.80394e-10
1.27569e-09
0.0664307
0.0654379
0.0620803
0.0567495
0.0485371
0.0363054
0.0189835
-0.00514398
-0.0359048
-0.0733848
-0.111801
-0.143835
-0.172249
-0.196017
-0.215232
-0.230669
-0.242637
-0.251495
-0.257334
-0.260024
-0.259227
-0.254554
-0.24577
-0.232967
-0.216644
-0.197677
-0.177173
-0.15627
-0.135963
-0.116992
-0.0998185
-0.0846585
-0.0715357
-0.0603486
-0.0509222
-0.0430489
-0.0365152
-0.0311177
-0.0266715
-0.0230141
-0.0200053
-0.0175265
-0.015478
-0.0137771
-0.0123554
-0.0111572
-0.0101373
-0.00925949
-0.00849509
-0.00782169
-0.00722206
-0.00668308
-0.0061949
-0.00575012
-0.00534317
-0.00496978
-0.00462652
-0.00431056
-0.00401944
-0.0037509
-0.00350285
-0.00327333
-0.00306048
-0.00286261
-0.00267812
-0.00250563
-0.00234391
-0.00219189
-0.00204868
-0.00191352
-0.00178579
-0.00166497
-0.00155062
-0.00144238
-0.00133992
-0.00124297
-0.00115127
-0.00106458
-0.000982682
-0.000905359
-0.000832406
-0.000763632
-0.000698859
-0.000637927
-0.000580691
-0.000527027
-0.000476827
-0.000430001
-0.000386481
-0.000346216
-0.000309161
-0.000275253
-0.000244366
-0.000216272
-0.000190604
-0.000166863
-0.000144498
-0.000123037
-0.000102255
-8.23135e-05
-6.37561e-05
-4.73366e-05
-3.37269e-05
-2.32403e-05
-1.57212e-05
-1.0647e-05
-7.36427e-06
-5.29921e-06
-4.05481e-06
-3.36288e-06
-3.00865e-06
-2.79366e-06
-2.55644e-06
-2.2139e-06
-1.77653e-06
-1.31234e-06
-8.97707e-07
-5.78381e-07
-3.6003e-07
-2.22019e-07
-1.37125e-07
-8.38209e-08
-4.91579e-08
-2.61064e-08
-1.07265e-08
-3.61145e-10
6.71494e-09
1.16487e-08
1.50425e-08
1.7343e-08
1.87871e-08
1.96333e-08
1.99956e-08
2.00404e-08
1.98098e-08
1.94207e-08
1.88758e-08
1.8263e-08
1.75599e-08
1.68366e-08
1.60557e-08
1.52783e-08
1.44593e-08
1.3656e-08
1.28191e-08
1.20047e-08
1.11603e-08
1.03429e-08
9.49583e-09
8.68042e-09
7.83099e-09
7.02414e-09
6.16471e-09
5.38571e-09
4.48159e-09
3.79105e-09
2.7303e-09
2.32498e-09
7.15671e-10
1.39207e-09
0.0705588
0.0697344
0.0669372
0.0623364
0.0549526
0.0434209
0.0262945
0.0011574
-0.0321253
-0.0745529
-0.11755
-0.151043
-0.180384
-0.204305
-0.223203
-0.238253
-0.249877
-0.258569
-0.264436
-0.2673
-0.266673
-0.261985
-0.252846
-0.239272
-0.221784
-0.201381
-0.179347
-0.157004
-0.135479
-0.115581
-0.0977834
-0.0822677
-0.0690057
-0.0578383
-0.0485386
-0.0408563
-0.034546
-0.0293816
-0.0251638
-0.0217209
-0.018908
-0.0166042
-0.0147093
-0.0131414
-0.0118332
-0.0107308
-0.00979051
-0.00897811
-0.00826671
-0.00763571
-0.00706957
-0.0065568
-0.00608897
-0.00565999
-0.00526536
-0.0049017
-0.00456631
-0.00425691
-0.0039714
-0.0037078
-0.0034642
-0.00323872
-0.00302955
-0.002835
-0.00265349
-0.00248363
-0.00232419
-0.00217414
-0.00203259
-0.00189882
-0.00177226
-0.00165242
-0.00153889
-0.00143135
-0.0013295
-0.00123309
-0.00114187
-0.00105563
-0.000974151
-0.000897212
-0.000824611
-0.000756155
-0.000691662
-0.000630969
-0.00057393
-0.000520419
-0.000470331
-0.00042358
-0.000380104
-0.000339861
-0.000302816
-0.000268918
-0.000238061
-0.000210031
-0.000184477
-0.000160911
-0.00013878
-0.000117607
-9.71536e-05
-7.75608e-05
-5.93628e-05
-4.33128e-05
-3.0086e-05
-2.00015e-05
-1.29034e-05
-8.26418e-06
-5.42362e-06
-3.79945e-06
-2.98122e-06
-2.67656e-06
-2.64059e-06
-2.64942e-06
-2.533e-06
-2.22337e-06
-1.76557e-06
-1.26421e-06
-8.22336e-07
-4.95361e-07
-2.85176e-07
-1.623e-07
-9.24222e-08
-5.10053e-08
-2.50246e-08
-8.32689e-09
2.30696e-09
9.13627e-09
1.36392e-08
1.67282e-08
1.87864e-08
2.01011e-08
2.08084e-08
2.11059e-08
2.1063e-08
2.08125e-08
2.03677e-08
1.98246e-08
1.91685e-08
1.84759e-08
1.77146e-08
1.69494e-08
1.61375e-08
1.53379e-08
1.45023e-08
1.36874e-08
1.28415e-08
1.20212e-08
1.1172e-08
1.03516e-08
9.5018e-09
8.6851e-09
7.83371e-09
7.02689e-09
6.16497e-09
5.38849e-09
4.47802e-09
3.79804e-09
2.71567e-09
2.35005e-09
6.65349e-10
1.48311e-09
0.0750178
0.0744
0.0722893
0.0686128
0.0623278
0.0518335
0.0351959
0.00909195
-0.0272315
-0.0763834
-0.125295
-0.160038
-0.190273
-0.214195
-0.232537
-0.246966
-0.258043
-0.266454
-0.272335
-0.275447
-0.275125
-0.270544
-0.261089
-0.24666
-0.227802
-0.205678
-0.181807
-0.157743
-0.134784
-0.113818
-0.0953214
-0.0794288
-0.0660415
-0.0549282
-0.0457989
-0.0383536
-0.0323107
-0.02742
-0.0234663
-0.0202692
-0.0176793
-0.0155738
-0.0138527
-0.0124349
-0.0112548
-0.01026
-0.00940921
-0.00867
-0.0080176
-0.00743347
-0.00690407
-0.00641975
-0.00597379
-0.0055616
-0.00517994
-0.0048265
-0.00449939
-0.00419691
-0.00391742
-0.00365922
-0.00342055
-0.00319961
-0.00299462
-0.00280388
-0.0026258
-0.00245896
-0.00230215
-0.00215433
-0.00201466
-0.00188246
-0.00175719
-0.00163842
-0.00152578
-0.001419
-0.00131781
-0.00122198
-0.0011313
-0.00104556
-0.000964539
-0.000888034
-0.000815836
-0.000747745
-0.000683574
-0.000623155
-0.000566337
-0.000512995
-0.000463023
-0.000416341
-0.00037289
-0.000332634
-0.00029555
-0.000261597
-0.000230684
-0.000202621
-0.000177082
-0.000153606
-0.000131662
-0.000110791
-9.07555e-05
-7.16757e-05
-5.4055e-05
-3.86064e-05
-2.59726e-05
-1.64465e-05
-9.86513e-06
-5.71226e-06
-3.34241e-06
-2.19438e-06
-1.85147e-06
-1.993e-06
-2.3288e-06
-2.5938e-06
-2.60229e-06
-2.30625e-06
-1.79825e-06
-1.23279e-06
-7.47148e-07
-4.06631e-07
-2.05095e-07
-9.96276e-08
-4.63288e-08
-1.72841e-08
2.84365e-11
1.0384e-08
1.61372e-08
1.92322e-08
2.09903e-08
2.21128e-08
2.27502e-08
2.30163e-08
2.29404e-08
2.26569e-08
2.21874e-08
2.16272e-08
2.09578e-08
2.02526e-08
1.9479e-08
1.87018e-08
1.78787e-08
1.70688e-08
1.6224e-08
1.54008e-08
1.45476e-08
1.37204e-08
1.28652e-08
1.20385e-08
1.11843e-08
1.03607e-08
9.50803e-09
8.68989e-09
7.83653e-09
7.02963e-09
6.16533e-09
5.3911e-09
4.47498e-09
3.80428e-09
2.7038e-09
2.37091e-09
6.2818e-10
1.55086e-09
0.0797262
0.0793569
0.0780703
0.0755441
0.0706902
0.0616937
0.0459955
0.0191463
-0.020816
-0.0792128
-0.13587
-0.171306
-0.202085
-0.22556
-0.243019
-0.256673
-0.267138
-0.275305
-0.281311
-0.284858
-0.28501
-0.280636
-0.27085
-0.255413
-0.2349
-0.210681
-0.184584
-0.158461
-0.133815
-0.111624
-0.0923542
-0.0760727
-0.0625875
-0.0515769
-0.0426747
-0.0355232
-0.0298006
-0.0252301
-0.021581
-0.0186641
-0.016326
-0.014443
-0.0129158
-0.0116645
-0.0106259
-0.00974973
-0.00899695
-0.00833759
-0.00774928
-0.00721579
-0.00672583
-0.00627185
-0.00584908
-0.00545459
-0.00508659
-0.0047439
-0.00442555
-0.00413049
-0.00385753
-0.00360525
-0.00337206
-0.00315621
-0.00295593
-0.0027695
-0.00259528
-0.00243184
-0.00227796
-0.00213262
-0.00199501
-0.00186451
-0.00174063
-0.00162299
-0.00151131
-0.00140533
-0.00130485
-0.00120966
-0.00111957
-0.00103438
-0.000953881
-0.000877869
-0.000806131
-0.000738459
-0.000674657
-0.00061455
-0.000557982
-0.000504823
-0.00045497
-0.000408345
-0.000364896
-0.00032459
-0.000287411
-0.000253328
-0.000222267
-0.000194064
-0.000168433
-0.000144965
-0.00012318
-0.000102647
-8.31567e-05
-6.48024e-05
-4.80126e-05
-3.3426e-05
-2.15988e-05
-1.2773e-05
-6.77615e-06
-3.11597e-06
-1.20892e-06
-5.44257e-07
-7.12666e-07
-1.35672e-06
-2.1185e-06
-2.66975e-06
-2.79944e-06
-2.48596e-06
-1.88613e-06
-1.22125e-06
-6.71616e-07
-3.11379e-07
-1.20026e-07
-3.50898e-08
-1.11092e-10
1.63198e-08
2.52715e-08
2.94889e-08
3.03072e-08
2.95342e-08
2.84531e-08
2.75709e-08
2.67759e-08
2.59855e-08
2.5117e-08
2.42432e-08
2.33396e-08
2.24631e-08
2.15635e-08
2.06918e-08
1.97973e-08
1.8933e-08
1.80464e-08
1.71909e-08
1.63125e-08
1.54653e-08
1.45942e-08
1.37543e-08
1.28896e-08
1.20563e-08
1.1197e-08
1.03701e-08
9.51453e-09
8.69486e-09
7.83957e-09
7.03247e-09
6.16599e-09
5.39369e-09
4.47269e-09
3.80987e-09
2.69473e-09
2.38792e-09
6.02217e-10
1.5993e-09
0.0845855
0.0845079
0.0841898
0.0830624
0.0800363
0.0731324
0.0590325
0.0319423
-0.0123831
-0.0837195
-0.150206
-0.185241
-0.216505
-0.239151
-0.255132
-0.267471
-0.276923
-0.284671
-0.290838
-0.295041
-0.296018
-0.292154
-0.28217
-0.265635
-0.24317
-0.216435
-0.18766
-0.159089
-0.13248
-0.108906
-0.0888054
-0.0721447
-0.0586097
-0.0477666
-0.039159
-0.0323643
-0.0270174
-0.0228143
-0.0195094
-0.0169059
-0.0148477
-0.013211
-0.0118979
-0.0108306
-0.00994813
-0.00920262
-0.00855753
-0.00798547
-0.00746666
-0.00698754
-0.00653938
-0.00611708
-0.00571809
-0.00534146
-0.00498704
-0.004655
-0.00434536
-0.00405779
-0.00379159
-0.0035456
-0.00331837
-0.00310817
-0.00291319
-0.00273163
-0.00256181
-0.00240224
-0.00225166
-0.00210909
-0.00197375
-0.00184509
-0.00172269
-0.00160625
-0.00149556
-0.00139042
-0.00129068
-0.00119616
-0.00110669
-0.0010221
-0.00094218
-0.00086672
-0.000795502
-0.000728308
-0.000664931
-0.000605182
-0.000548898
-0.000495944
-0.000446217
-0.000399642
-0.000356171
-0.000315777
-0.000278447
-0.000244159
-0.000212856
-0.000184412
-0.000158595
-0.00013507
-0.000113438
-9.33282e-05
-7.45364e-05
-5.71498e-05
-4.14976e-05
-2.80497e-05
-1.7241e-05
-9.22373e-06
-3.80865e-06
-5.88723e-07
9.06098e-07
1.10843e-06
4.04577e-07
-7.96852e-07
-2.03994e-06
-2.90538e-06
-3.14567e-06
-2.77454e-06
-2.03241e-06
-1.22809e-06
-5.93734e-07
-2.09517e-07
-3.19591e-08
2.83733e-08
4.35065e-08
4.78552e-08
4.95134e-08
4.82873e-08
4.4401e-08
3.97873e-08
3.58714e-08
3.3006e-08
3.07982e-08
2.89566e-08
2.7293e-08
2.58266e-08
2.44889e-08
2.32975e-08
2.21689e-08
2.11311e-08
2.01159e-08
1.91644e-08
1.82144e-08
1.73131e-08
1.64011e-08
1.55296e-08
1.46407e-08
1.37881e-08
1.29139e-08
1.20741e-08
1.12096e-08
1.03794e-08
9.52099e-09
8.69974e-09
7.8426e-09
7.0352e-09
6.16676e-09
5.39609e-09
4.47096e-09
3.81466e-09
2.68798e-09
2.40143e-09
5.84974e-10
1.63277e-09
0.0894803
0.0897372
0.090529
0.0910701
0.0903278
0.0863062
0.0747589
0.0485036
-0.00102342
-0.0908607
-0.1707
-0.202429
-0.232744
-0.253936
-0.268389
-0.279491
-0.287969
-0.295394
-0.301872
-0.30696
-0.308945
-0.305765
-0.295612
-0.277782
-0.252937
-0.223115
-0.19108
-0.159574
-0.130668
-0.105533
-0.0845459
-0.0675329
-0.0540191
-0.0434317
-0.0352075
-0.0288501
-0.0239477
-0.0201693
-0.0172552
-0.0150032
-0.0132557
-0.0118903
-0.0108115
-0.0099443
-0.00923061
-0.0086256
-0.00809572
-0.0076165
-0.00717113
-0.00674901
-0.00634427
-0.00595456
-0.0055798
-0.00522124
-0.00488051
-0.00455925
-0.00425853
-0.00397879
-0.00371978
-0.00348062
-0.00325994
-0.00305601
-0.00286694
-0.00269081
-0.00252585
-0.00237053
-0.00222355
-0.00208396
-0.00195104
-0.00182431
-0.00170345
-0.00158825
-0.00147858
-0.00137431
-0.00127534
-0.00118153
-0.00109275
-0.00100881
-0.000929532
-0.000854691
-0.000784063
-0.000717413
-0.00065452
-0.000595178
-0.000539214
-0.000486488
-0.000436896
-0.000390366
-0.000346856
-0.000306343
-0.000268816
-0.000234264
-0.000202653
-0.000173899
-0.000147846
-0.000124254
-0.000102825
-8.32735e-05
-6.54183e-05
-4.92513e-05
-3.49748e-05
-2.2893e-05
-1.32261e-05
-6.02211e-06
-1.12786e-06
1.74961e-06
2.9306e-06
2.72e-06
1.47142e-06
-3.34375e-07
-2.10775e-06
-3.30751e-06
-3.63914e-06
-3.16313e-06
-2.22389e-06
-1.2404e-06
-5.04208e-07
-9.62287e-08
6.04887e-08
9.04086e-08
8.37379e-08
7.66619e-08
7.23099e-08
6.63892e-08
5.80618e-08
4.96761e-08
4.29931e-08
3.82329e-08
3.46862e-08
3.18382e-08
2.94043e-08
2.7362e-08
2.56038e-08
2.41076e-08
2.27571e-08
2.15578e-08
2.04253e-08
1.9389e-08
1.83774e-08
1.74316e-08
1.6487e-08
1.55921e-08
1.46859e-08
1.3821e-08
1.29376e-08
1.20914e-08
1.1222e-08
1.03885e-08
9.52734e-09
8.7045e-09
7.84563e-09
7.03786e-09
6.16768e-09
5.39835e-09
4.46981e-09
3.8188e-09
2.68325e-09
2.41209e-09
5.74254e-10
1.65549e-09
0.0942774
0.0949042
0.0969337
0.0993943
0.101445
0.101207
0.0935558
0.0698566
0.0139106
-0.101304
-0.197721
-0.224865
-0.254478
-0.272565
-0.283814
-0.292513
-0.299293
-0.306185
-0.313159
-0.319571
-0.32321
-0.321248
-0.311172
-0.291943
-0.26429
-0.230751
-0.194791
-0.159806
-0.128252
-0.101392
-0.0794969
-0.0621948
-0.0488023
-0.0385772
-0.030833
-0.0249944
-0.0206029
-0.017302
-0.0148213
-0.012955
-0.0115468
-0.0104769
-0.00965322
-0.00900413
-0.0084745
-0.00802243
-0.00761735
-0.00723789
-0.00687051
-0.00650797
-0.00614775
-0.00579063
-0.00543944
-0.00509797
-0.00476993
-0.00445861
-0.00416624
-0.00389405
-0.00364226
-0.00341021
-0.00319656
-0.00299949
-0.00281695
-0.00264688
-0.00248737
-0.00233677
-0.00219378
-0.00205744
-0.00192711
-0.00180242
-0.00168315
-0.00156922
-0.00146057
-0.00135718
-0.00125898
-0.00116591
-0.00107783
-0.000994592
-0.000916002
-0.000841838
-0.000771861
-0.000705819
-0.000643469
-0.000584588
-0.000528988
-0.000476523
-0.000427087
-0.000380613
-0.000337065
-0.000296425
-0.000258687
-0.000223854
-0.000191919
-0.000162855
-0.00013659
-0.000112997
-9.18913e-05
-7.30626e-05
-5.63344e-05
-4.16182e-05
-2.89185e-05
-1.82902e-05
-9.76883e-06
-3.3108e-06
1.2022e-06
3.8988e-06
4.88788e-06
4.32133e-06
2.52293e-06
7.18281e-08
-2.27287e-06
-3.82082e-06
-4.22331e-06
-3.59961e-06
-2.41951e-06
-1.23044e-06
-3.87285e-07
3.57474e-08
1.59844e-07
1.51531e-07
1.20484e-07
1.02507e-07
9.34017e-08
8.35204e-08
7.10402e-08
5.90093e-08
4.96872e-08
4.31622e-08
3.83744e-08
3.45774e-08
3.14071e-08
2.88142e-08
2.66567e-08
2.48727e-08
2.33131e-08
2.19613e-08
2.07178e-08
1.96014e-08
1.85316e-08
1.75436e-08
1.65683e-08
1.56511e-08
1.47286e-08
1.3852e-08
1.296e-08
1.21076e-08
1.12337e-08
1.0397e-08
9.5333e-09
8.70894e-09
7.84848e-09
7.0403e-09
6.16858e-09
5.40021e-09
4.46902e-09
3.82225e-09
2.68003e-09
2.42042e-09
5.68031e-10
1.67095e-09
0.098829
0.0998532
0.10321
0.107831
0.113176
0.117934
0.116021
0.0988573
0.034535
-0.124279
-0.238659
-0.24789
-0.275792
-0.292361
-0.301224
-0.307345
-0.311862
-0.317662
-0.324704
-0.332309
-0.337568
-0.337223
-0.327615
-0.307181
-0.276602
-0.238959
-0.198562
-0.159626
-0.125101
-0.0963651
-0.0735551
-0.0560472
-0.0428989
-0.0331666
-0.0260219
-0.020803
-0.0170029
-0.0142425
-0.0122438
-0.010801
-0.00976132
-0.00900941
-0.00845771
-0.00803895
-0.00770185
-0.00740844
-0.0071319
-0.00685446
-0.00656628
-0.00626378
-0.00594804
-0.00562323
-0.00529524
-0.00497056
-0.00465502
-0.00435362
-0.00406972
-0.00380533
-0.00356112
-0.00333661
-0.00313043
-0.00294064
-0.00276501
-0.0026013
-0.00244745
-0.00230173
-0.00216283
-0.00202981
-0.00190213
-0.00177952
-0.00166188
-0.00154924
-0.00144166
-0.00133918
-0.00124181
-0.00114951
-0.00106218
-0.000979684
-0.000901828
-0.000828387
-0.000759105
-0.000693712
-0.000631944
-0.000573559
-0.000518354
-0.000466177
-0.000416923
-0.000370531
-0.000326972
-0.000286234
-0.000248324
-0.000213259
-0.00018107
-0.000151792
-0.000125444
-0.000102008
-8.13986e-05
-6.34665e-05
-4.80113e-05
-3.48162e-05
-2.3683e-05
-1.44348e-05
-6.91254e-06
-1.0019e-06
3.3257e-06
5.99667e-06
6.89154e-06
6.0065e-06
3.64993e-06
5.25048e-07
-2.41442e-06
-4.31485e-06
-4.77263e-06
-3.9776e-06
-2.54266e-06
-1.15007e-06
-2.1587e-07
2.01015e-07
2.74516e-07
2.17147e-07
1.57278e-07
1.27454e-07
1.13659e-07
9.99359e-08
8.33221e-08
6.76957e-08
5.58554e-08
4.77028e-08
4.17823e-08
3.71075e-08
3.32502e-08
3.01454e-08
2.76202e-08
2.55728e-08
2.38216e-08
2.23303e-08
2.09853e-08
1.97955e-08
1.86724e-08
1.76459e-08
1.66425e-08
1.5705e-08
1.47677e-08
1.38804e-08
1.29805e-08
1.21225e-08
1.12443e-08
1.04047e-08
9.53878e-09
8.71301e-09
7.85112e-09
7.04253e-09
6.16952e-09
5.40197e-09
4.46859e-09
3.82515e-09
2.67795e-09
2.42699e-09
5.64751e-10
1.68198e-09
0.102976
0.1044
0.109126
0.116013
0.125157
0.135774
0.142342
0.134754
0.0627733
-0.134121
-0.305842
-0.293606
-0.307727
-0.312644
-0.31457
-0.316049
-0.317632
-0.322485
-0.329849
-0.339321
-0.347194
-0.349057
-0.340697
-0.319982
-0.287302
-0.246107
-0.201527
-0.158713
-0.121238
-0.0906716
-0.0670323
-0.0494308
-0.0366408
-0.0274997
-0.0210295
-0.0164845
-0.0133137
-0.0111202
-0.00962197
-0.00861596
-0.00795456
-0.00752847
-0.0072554
-0.00707272
-0.0069329
-0.00680156
-0.00665555
-0.00648093
-0.00627189
-0.00602883
-0.00575659
-0.00546285
-0.00515669
-0.00484743
-0.00454316
-0.00425064
-0.00397437
-0.00371712
-0.00348
-0.00326266
-0.00306369
-0.00288101
-0.00271217
-0.00255476
-0.00240655
-0.00226574
-0.00213095
-0.00200131
-0.00187634
-0.00175588
-0.00163995
-0.00152867
-0.00142222
-0.0013207
-0.00122418
-0.00113266
-0.00104609
-0.000964325
-0.000887192
-0.00081446
-0.000745862
-0.00068111
-0.000619922
-0.000562038
-0.000507244
-0.000455383
-0.000406353
-0.000360097
-0.000316595
-0.000275847
-0.000237871
-0.00020271
-0.000170436
-0.000141142
-0.000114929
-9.18603e-05
-7.192e-05
-5.49772e-05
-4.07819e-05
-2.89887e-05
-1.92049e-05
-1.10529e-05
-4.24114e-06
1.3597e-06
5.66425e-06
8.39168e-06
9.20859e-06
7.98385e-06
5.03866e-06