/*--------------------------------*- C++ -*----------------------------------*\
  =========                 |
  \\      /  F ield         | OpenFOAM: The Open Source CFD Toolbox
   \\    /   O peration     | Website:  https://openfoam.org
    \\  /    A nd           | Version:  11
     \\/     M anipulation  |
\*---------------------------------------------------------------------------*/
FoamFile
{
    format      ascii;
    class       volScalarField;
    location    "15.488253";
    object      p;
}
// * * * * * * * * * * * * * * * * * * * * * * * * * * * * * * * * * * * * * //

dimensions      [0 2 -2 0 0 0 0];

internalField   nonuniform List<scalar> 
7132
(
0.0936891
0.0923539
0.0878535
0.0814031
0.0725902
0.0614015
0.0480796
0.0331262
0.01749
0.0027389
-0.00958955
-0.0174531
-0.0206467
-0.0192587
-0.0144974
-0.00792605
-0.000768132
0.00623252
0.0130935
0.0201067
0.0273572
0.0346204
0.0415437
0.0478521
0.053449
0.0583587
0.0625951
0.0660165
0.068227
0.0687918
0.0677194
0.0657934
0.0641718
0.0635999
0.0640545
0.0650384
0.0660602
0.0668774
0.0675257
0.0681825
0.0689915
0.0697896
0.0699536
0.0687378
0.0660416
0.0628374
0.0605393
0.0599148
0.0606723
0.0619458
0.0629989
0.0635343
0.0636546
0.0636644
0.0638338
0.0640698
0.0637722
0.0622018
0.0592789
0.056011
0.0538646
0.0536251
0.0549272
0.0567237
0.0581147
0.058751
0.0587683
0.0585312
0.0583419
0.0581275
0.0573791
0.0555409
0.0526736
0.0497276
0.0479776
0.0480925
0.0497161
0.0518261
0.05348
0.0542725
0.0543227
0.0540067
0.0536253
0.0531197
0.0520862
0.0501659
0.0475552
0.0451136
0.0438515
0.0442445
0.0459529
0.0480989
0.0498291
0.0507158
0.050816
0.0504707
0.0499789
0.0493201
0.0481776
0.0463023
0.0439367
0.0418577
0.0409158
0.0414833
0.043251
0.0454585
0.0473351
0.0484293
0.048701
0.0484048
0.0478245
0.0469992
0.0456916
0.0436811
0.0411633
0.0388477
0.0375905
0.0378658
0.0395037
0.041827
0.0440414
0.0455686
0.046183
0.0459709
0.0451691
0.0439255
0.042142
0.0395613
0.0361018
0.0321533
0.0285276
0.0260583
0.0251541
0.0256322
0.0268731
0.0281561
0.0289378
0.0289582
0.0282079
0.0268366
0.025071
0.0231774
0.0214676
0.0202943
0.0200163
0.020862
0.02286
0.0257328
0.0290941
0.0323591
0.0352306
0.0371017
0.0380745
0.0372541
0.0352941
0.0307895
0.025152
0.01791
0.00772432
0.0061663
0.0942204
0.092889
0.0884037
0.0819573
0.0731228
0.0618591
0.0483836
0.0331723
0.0171835
0.00203722
-0.0106409
-0.0186107
-0.0217337
-0.0200814
-0.0149798
-0.00811916
-0.000791566
0.00623159
0.0130364
0.0199988
0.0272447
0.0345442
0.0415246
0.0478955
0.0535536
0.0585207
0.0628067
0.0662654
0.0684794
0.0689836
0.0677777
0.0656876
0.0639434
0.0633272
0.063803
0.0648356
0.0659091
0.0667726
0.0674619
0.0681541
0.0689951
0.0698198
0.0699843
0.0687102
0.065892
0.0625481
0.0601634
0.05954
0.0603654
0.0617266
0.062856
0.0634471
0.0636039
0.0636345
0.0638136
0.0640467
0.0637188
0.0620725
0.0590314
0.0556427
0.0534305
0.0532076
0.0545958
0.0565033
0.0579921
0.0586969
0.0587526
0.0585302
0.0583391
0.0581021
0.0572977
0.0553634
0.0523785
0.0493344
0.0475448
0.0476896
0.0493993
0.0516192
0.0533757
0.0542436
0.0543357
0.0540333
0.0536443
0.0531058
0.0520044
0.0499827
0.0472623
0.044743
0.0434635
0.0438986
0.04569
0.0479324
0.0497514
0.0507057
0.0508459
0.0505134
0.0500104
0.0493117
0.0480953
0.0461188
0.0436518
0.0415074
0.0405595
0.0411776
0.0430314
0.045332
0.0472899
0.0484451
0.0487551
0.0484734
0.0478816
0.0470123
0.0456242
0.0435061
0.0408802
0.0384903
0.0372176
0.0375385
0.0392666
0.0416959
0.0440072
0.0456087
0.0462727
0.0460869
0.0452863
0.0440115
0.042155
0.0394618
0.0358713
0.0318089
0.0281209
0.025659
0.0248281
0.0254231
0.0267945
0.0281918
0.0290516
0.0291058
0.028347
0.0269308
0.025092
0.0231067
0.0213018
0.0200507
0.0197328
0.0205894
0.0226488
0.0256209
0.0290983
0.0324755
0.0354372
0.0373665
0.0383576
0.0375149
0.0354904
0.0308845
0.0251344
0.0177642
0.00755736
0.00596726
0.095281
0.093959
0.0895063
0.0830732
0.0742013
0.0627935
0.0490144
0.0332832
0.016576
0.000612935
-0.0127913
-0.0209725
-0.0239438
-0.0217314
-0.0159137
-0.00845135
-0.000781774
0.00626645
0.012931
0.0197717
0.0270007
0.0343731
0.0414693
0.0479662
0.0537468
0.0588297
0.0632183
0.0667567
0.0689826
0.0693647
0.0678825
0.0654502
0.0634521
0.0627486
0.0632737
0.0644095
0.0655886
0.0665439
0.0673124
0.0680736
0.0689787
0.0698595
0.0700263
0.0686326
0.0655603
0.0619247
0.0593596
0.0587445
0.0597172
0.0612638
0.0625502
0.0632521
0.0634786
0.063548
0.0637467
0.0639758
0.0635866
0.0617811
0.0584919
0.0548515
0.0525044
0.0523216
0.0538934
0.0560336
0.0577247
0.058567
0.0586957
0.0584989
0.058304
0.0580253
0.0571116
0.0549851
0.0517626
0.0485201
0.0466509
0.0468579
0.0487435
0.0511861
0.0531486
0.0541651
0.0543376
0.0540598
0.0536567
0.0530553
0.0518198
0.0495951
0.046655
0.0439806
0.0426679
0.0431915
0.045153
0.0475902
0.0495855
0.0506717
0.0508888
0.0505813
0.0500571
0.0492794
0.0479123
0.0457282
0.0430528
0.0407747
0.0398164
0.040542
0.042575
0.0450677
0.0471906
0.0484678
0.0488539
0.0486022
0.0479895
0.0470311
0.0454749
0.0431297
0.0402751
0.0377282
0.0364232
0.0368417
0.03876
0.0414111
0.0439232
0.0456779
0.0464439
0.046313
0.0455181
0.0441813
0.0421738
0.0392435
0.0353753
0.0310713
0.0272514
0.0248063
0.0241316
0.0249749
0.0266195
0.0282542
0.0292756
0.0294008
0.0286267
0.0271219
0.0251355
0.0229626
0.0209607
0.019546
0.0191421
0.0200187
0.0222045
0.0253822
0.0290998
0.0327083
0.0358555
0.0379036
0.0389318
0.0380425
0.0358862
0.031072
0.0250909
0.0174556
0.00721325
0.0055148
0.0968675
0.095562
0.0911663
0.0847647
0.0758514
0.0642423
0.0500166
0.0334951
0.0156752
-0.00158262
-0.0161466
-0.024649
-0.0273829
-0.0242817
-0.0173342
-0.00893116
-0.000735742
0.00632673
0.0127478
0.019387
0.0265912
0.0340819
0.0413592
0.0480476
0.0540119
0.0592688
0.0638141
0.0674788
0.0697274
0.0699163
0.0679887
0.065004
0.0626059
0.0617831
0.0624101
0.0637234
0.0650712
0.0661652
0.0670488
0.067909
0.0689066
0.0698682
0.07003
0.0684353
0.0649445
0.0608348
0.0580075
0.0574165
0.0586525
0.0605118
0.0620506
0.0629206
0.0632451
0.0633627
0.0635806
0.0637964
0.0633092
0.0612546
0.0575754
0.0535375
0.0509781
0.0508658
0.0527424
0.0552626
0.0572763
0.0583287
0.0585605
0.0583934
0.0581885
0.057847
0.0567666
0.0543433
0.0507532
0.0472062
0.0452211
0.0455354
0.0477033
0.0504938
0.0527707
0.0540088
0.0542981
0.054056
0.0536336
0.0529371
0.0514906
0.0489428
0.0456539
0.042738
0.041384
0.0420633
0.0443037
0.0470487
0.0493133
0.0505955
0.0509262
0.0506586
0.0501054
0.0492029
0.0475906
0.0450671
0.0420545
0.0395652
0.0385995
0.0395093
0.0418375
0.0446388
0.0470203
0.0484842
0.0489864
0.0487837
0.0481417
0.0470404
0.0452077
0.0424872
0.0392576
0.036458
0.0351071
0.0356917
0.0379231
0.0409329
0.043765
0.0457602
0.0466849
0.046641
0.0458582
0.0444238
0.0421715
0.038855
0.034537
0.0298468
0.0258228
0.0234148
0.0229997
0.024246
0.026328
0.0283385
0.0296133
0.0298495
0.029053
0.0274117
0.0251944
0.022724
0.0204063
0.0187276
0.0181848
0.0190948
0.0214857
0.0249946
0.0290952
0.0330673
0.0365019
0.0387304
0.0398105
0.0388439
0.0364788
0.0313381
0.0249935
0.0169404
0.00665561
0.00472914
0.0989734
0.0976945
0.0933897
0.0870522
0.0781124
0.0662649
0.0514634
0.0338718
0.0145037
-0.00461759
-0.0208635
-0.0297863
-0.032153
-0.0277165
-0.0191038
-0.00935766
-0.00046633
0.00650802
0.0124756
0.01877
0.025931
0.0336007
0.0411411
0.0480968
0.0543098
0.0598015
0.0645614
0.0684073
0.0706952
0.0706056
0.0680197
0.0642194
0.0612508
0.0602924
0.0611116
0.0627088
0.0643045
0.0655871
0.0666173
0.0675988
0.0687091
0.0697688
0.0699067
0.0680003
0.0638793
0.0590627
0.055843
0.0553582
0.0570334
0.0593842
0.0612983
0.0623988
0.0628374
0.0629896
0.0632039
0.0633884
0.0627712
0.0603907
0.0561913
0.0516086
0.0487462
0.0487242
0.0510372
0.0541073
0.0565831
0.0579236
0.0582815
0.0581402
0.0579211
0.0575004
0.0561897
0.053341
0.0492227
0.0452503
0.0431258
0.0436239
0.046208
0.0494894
0.0521967
0.0537293
0.0541703
0.0539782
0.0535374
0.0527111
0.0509577
0.0479349
0.0441375
0.0408791
0.0394846
0.040414
0.0430735
0.0462634
0.0489022
0.0504481
0.0509321
0.0507252
0.0501382
0.0490557
0.0470782
0.0440514
0.0405459
0.0377559
0.0367912
0.0379815
0.0407464
0.0439971
0.0467473
0.0484717
0.0491364
0.0490076
0.0483287
0.0470189
0.0447755
0.0415007
0.0377247
0.0345637
0.0331545
0.0339856
0.0366721
0.040199
0.0434892
0.0458258
0.0469756
0.0470578
0.0462961
0.0447215
0.0421121
0.0382357
0.0332754
0.0280457
0.0237483
0.0214091
0.0213723
0.0231927
0.0258922
0.0284303
0.0300601
0.0304538
0.0296304
0.0278023
0.0252602
0.022364
0.0195899
0.0175294
0.0167882
0.0177505
0.0204392
0.0244209
0.0290604
0.0335358
0.0373604
0.0398265
0.0409682
0.0398881
0.0372314
0.0316384
0.0247912
0.0161564
0.00584972
0.00350843
0.101588
0.10035
0.0961827
0.0899613
0.0810361
0.0689427
0.0534574
0.034505
0.0130943
-0.00860243
-0.0271962
-0.036649
-0.0385307
-0.0322552
-0.0213537
-0.00977623
3.6971e-05
0.00680724
0.0120684
0.0178449
0.0249455
0.0328705
0.0407672
0.0480678
0.0545903
0.0603719
0.0654025
0.0694913
0.0718419
0.0713671
0.0678448
0.0628831
0.0591363
0.0580586
0.0592296
0.0612705
0.0632179
0.064742
0.065939
0.0670395
0.0682402
0.0693786
0.069472
0.0671703
0.0622142
0.0564132
0.0526295
0.0523097
0.0546655
0.0577587
0.0602126
0.0616104
0.0621555
0.0622946
0.0624634
0.0625997
0.0618229
0.0590231
0.0541467
0.048869
0.0456417
0.0457699
0.048673
0.0524794
0.0555678
0.0572749
0.0577765
0.0576588
0.0574314
0.056917
0.0552885
0.0518383
0.0469842
0.0424445
0.0401754
0.0409812
0.0441639
0.0481095
0.0513728
0.053273
0.0539031
0.053784
0.053331
0.0523286
0.0501421
0.0464565
0.0419648
0.0382541
0.0368287
0.0381277
0.0413791
0.0451783
0.0483109
0.0501939
0.0508761
0.0507578
0.0501315
0.0487973
0.0463063
0.0425847
0.0384156
0.0352338
0.0342855
0.0358673
0.0392299
0.0430899
0.0463327
0.0483999
0.0492789
0.0492527
0.0485246
0.0469242
0.0441124
0.0400849
0.0355835
0.031956
0.0304836
0.0316501
0.0349426
0.0391555
0.0430515
0.0458387
0.0472859
0.0475365
0.0468029
0.0450334
0.0419362
0.0373124
0.0315184
0.0256116
0.0209936
0.0187729
0.0192425
0.021811
0.0253086
0.028526
0.0306134
0.0312125
0.030357
0.028284
0.0253055
0.021831
0.0184382
0.0158681
0.0148742
0.0159234
0.0190199
0.0236269
0.0289628
0.0340739
0.0383776
0.0411253
0.042329
0.0410947
0.0380617
0.031894
0.0244118
0.0150445
0.0047672
0.00180365
0.104696
0.103517
0.09955
0.0935221
0.0846881
0.0723842
0.056143
0.0355353
0.0115157
-0.0136708
-0.0354641
-0.0455021
-0.0466482
-0.0377285
-0.0236574
-0.00968728
0.00117019
0.0073503
0.0113991
0.0163719
0.0234157
0.031736
0.0401296
0.0478722
0.0547649
0.0608841
0.0662363
0.0706375
0.0730714
0.0720596
0.0672137
0.0606217
0.0558596
0.0547545
0.0565473
0.0592723
0.0617106
0.0635319
0.0648917
0.0660431
0.0672138
0.068347
0.0683879
0.0657163
0.059861
0.0528394
0.0482386
0.0480394
0.0513214
0.0554696
0.0586762
0.0604443
0.0610626
0.0611199
0.0612144
0.0613079
0.0603299
0.0569493
0.0511564
0.0450039
0.0413985
0.041823
0.045529
0.0502827
0.0541388
0.0562888
0.056953
0.0568691
0.0566525
0.0560219
0.0539571
0.0496952
0.0438788
0.038626
0.0362148
0.0374733
0.0414712
0.046281
0.050236
0.0525778
0.0534391
0.0534259
0.0529685
0.0517287
0.0489603
0.0444106
0.0390411
0.0347771
0.0333347
0.0351266
0.0391526
0.0437373
0.0474911
0.0497893
0.0507196
0.0507228
0.0500466
0.0483745
0.0452067
0.0405958
0.0356025
0.0319514
0.0310404
0.0331227
0.0372417
0.0418712
0.0457333
0.048229
0.0493778
0.0494835
0.048686
0.0467003
0.0431547
0.0381828
0.0327964
0.0286175
0.0270861
0.0286725
0.03271
0.037766
0.0424089
0.0457541
0.0475726
0.0480354
0.0473321
0.0453024
0.0415799
0.0360313
0.0292431
0.0225628
0.0176116
0.0155737
0.0166722
0.0201425
0.024595
0.0286251
0.031263
0.0321121
0.0312165
0.0288313
0.025287
0.0210631
0.0168821
0.0136843
0.0124039
0.0135936
0.0172148
0.0225883
0.0287524
0.0345992
0.0394403
0.0424903
0.0437451
0.0423168
0.0388349
0.0319975
0.0237876
0.0135891
0.00342954
-0.000328699
0.108273
0.107178
0.103492
0.0977652
0.089144
0.0767235
0.059707
0.0371545
0.00986457
-0.0200394
-0.0461873
-0.0568991
-0.0571888
-0.0447827
-0.0264522
-0.00924633
0.00298654
0.00823902
0.0104467
0.0142381
0.0212106
0.0300885
0.0391355
0.0474128
0.0547153
0.0611917
0.0669012
0.0716778
0.074189
0.0723896
0.0656605
0.0567809
0.0507305
0.0498618
0.0527486
0.0565335
0.0596565
0.0618305
0.0632965
0.0643226
0.065239
0.0662549
0.066256
0.0632588
0.0564605
0.0480674
0.0424844
0.0423943
0.0468178
0.0523461
0.0565465
0.0587622
0.059408
0.0593239
0.0593499
0.0594168
0.0581581
0.0539783
0.0469962
0.0397823
0.0358025
0.0367098
0.0414871
0.0474269
0.0522057
0.0548692
0.055722
0.0556987
0.0555164
0.0547318
0.0520956
0.0468205
0.0398485
0.0337661
0.0312154
0.0330545
0.0380749
0.0439467
0.048726
0.0515809
0.0527187
0.0528494
0.0523906
0.0508418
0.0473429
0.0417508
0.0353575
0.0304688
0.0290274
0.0314166
0.0363762
0.0419051
0.046398
0.0491856
0.0504138
0.0505701
0.0498253
0.0477232
0.0437255
0.0380618
0.0321236
0.0279551
0.0271078
0.0297814
0.034787
0.0403196
0.04491
0.0479111
0.0493805
0.049644
0.0487462
0.0462783
0.0418514
0.0357839
0.0294025
0.0246257
0.0230505
0.0251257
0.0300134
0.0360315
0.0415317
0.0455234
0.0477775
0.0484899
0.0478109
0.0454512
0.040979
0.0343701
0.0264909
0.0190057
0.0137527
0.0119734
0.0138009
0.0182843
0.0238004
0.0287363
0.0319916
0.0331222
0.0321705
0.029391
0.0251387
0.0199952
0.0148808
0.0109793
0.00941924
0.010819
0.0150677
0.0213082
0.0283757
0.0349986
0.0403862
0.0437282
0.04501
0.0433556
0.0393822
0.0318388
0.0228857
0.011847
0.00192247
-0.00273378
0.112287
0.111306
0.108003
0.102721
0.0944911
0.0821302
0.0644032
0.0396533
0.00833241
-0.0279487
-0.0599587
-0.0712004
-0.0700807
-0.0526276
-0.0285595
-0.00736901
0.00618188
0.00945786
0.00869563
0.0107795
0.0178229
0.0276187
0.0375897
0.046525
0.0542569
0.0610647
0.0671114
0.0722252
0.0747487
0.0718703
0.0625649
0.0505521
0.0428297
0.0426385
0.0473873
0.0528147
0.056899
0.0594744
0.0609126
0.0615469
0.0619942
0.0628634
0.0628728
0.0594439
0.0514334
0.041487
0.0349506
0.0351762
0.041015
0.0482424
0.053673
0.0564123
0.0570511
0.0567994
0.0567887
0.0568362
0.0551935
0.0500153
0.041641
0.0332338
0.0288727
0.0304034
0.0364968
0.0438496
0.0496906
0.0529283
0.0540011
0.0540744
0.0539457
0.0529632
0.0496406
0.0432115
0.0349713
0.028
0.0253142
0.0278166
0.0340051
0.0410885
0.0467956
0.0502207
0.0516752
0.0519841
0.0515202
0.0495969
0.045254
0.0385046
0.0310111
0.0254723
0.0240534
0.0271072
0.0331023
0.0396819
0.044997
0.048329
0.0498946
0.0502269
0.0493897
0.0467792
0.0418415
0.0350275
0.0280903
0.0233973
0.0226423
0.0259637
0.031931
0.0384457
0.043832
0.0473892
0.0492152
0.0496489
0.0486186
0.0455893
0.0401832
0.0329421
0.0255293
0.0201567
0.0185607
0.0211671
0.0269554
0.0339917
0.040405
0.0450935
0.0478243
0.0488103
0.048142
0.0453922
0.0400871
0.0323566
0.0233792
0.0151341
0.00965298
0.00820689
0.0108264
0.0163714
0.0229907
0.0288657
0.0327646
0.0341849
0.0331482
0.0298813
0.0247866
0.0185937
0.0124714
0.00786611
0.00608161
0.00776307
0.012694
0.0198241
0.0277793
0.0351347
0.0410139
0.0446031
0.0458747
0.0439808
0.0395255
0.0313278
0.0217168
0.00993328
0.000373075
-0.00521313
0.116692
0.115863
0.113064
0.10841
0.100817
0.0887964
0.0705402
0.0434161
0.00716169
-0.0378389
-0.0778423
-0.0896509
-0.0872179
-0.06318
-0.0311601
-0.00434882
0.0110199
0.0113157
0.00618451
0.00579567
0.013003
0.0241291
0.0353271
0.045024
0.0531471
0.0601704
0.0662798
0.071315
0.0737381
0.0700608
0.0582848
0.0423792
0.0318892
0.0323062
0.0398658
0.0478018
0.0532559
0.0562747
0.0574823
0.0574497
0.0573338
0.0581169
0.0581456
0.0540627
0.0445135
0.032835
0.0254227
0.0262399
0.0338334
0.0430664
0.0499298
0.0532589
0.0538805
0.0534696
0.0534604
0.0534865
0.0513813
0.0451017
0.0352691
0.0256364
0.020885
0.0230952
0.0306405
0.0395545
0.0465495
0.0503989
0.0517169
0.0519182
0.0518545
0.0506435
0.0465793
0.0389577
0.0294453
0.0215996
0.0187878
0.0219835
0.0293905
0.0377458
0.0444238
0.0484424
0.0502352
0.0507433
0.0502671
0.0479318
0.0427004
0.0347748
0.0261957
0.0200363
0.0186644
0.0224019
0.0294546
0.0371107
0.0432694
0.0471627
0.0490819
0.0495976
0.0486482
0.0454875
0.0395737
0.0316058
0.0236985
0.0185204
0.0178857
0.021866
0.0287968
0.0362941
0.0424787
0.0465985
0.0487889
0.0493901
0.048201
0.0445728
0.0381681
0.0297729
0.0213795
0.015466
0.0138828
0.0170237
0.0236946
0.0317237
0.0390304
0.044408
0.0476188
0.0488809
0.0482053
0.0450337
0.0388812
0.0300672
0.0200868
0.0112041
0.00560338
0.00455175
0.00797939
0.014561
0.0222387
0.0290112
0.0335254
0.03521
0.0340386
0.030197
0.0241692
0.0168876
0.00979642
0.00458138
0.00266647
0.00467778
0.0102705
0.0182071
0.0269222
0.0348685
0.041114
0.0448656
0.0460857
0.0439693
0.0391074
0.0304044
0.0203171
0.00797941
-0.00109342
-0.0075663
0.121428
0.120794
0.118641
0.114843
0.108213
0.0969604
0.0785399
0.0490448
0.00685388
-0.0501746
-0.100929
-0.11238
-0.107419
-0.073736
-0.0317392
0.00170391
0.0184462
0.0134272
0.00141493
-0.0023363
0.00566943
0.0190547
0.0320312
0.0426434
0.0510792
0.0579915
0.0633058
0.0673095
0.0692682
0.0654547
0.0526673
0.0332696
0.0188737
0.0188942
0.0297469
0.0411366
0.0485038
0.0520325
0.0527975
0.0519021
0.0512359
0.0520154
0.0520319
0.0471406
0.0359455
0.0225084
0.01425
0.015778
0.0253601
0.0368217
0.0452518
0.0492118
0.0498231
0.0492776
0.0493008
0.0493121
0.0467412
0.0394019
0.028205
0.0174302
0.0122998
0.015161
0.0241457
0.0346339
0.042788
0.0472415
0.0488064
0.0491485
0.0491562
0.0477227
0.0429532
0.0342273
0.0235605
0.0149351
0.0120305
0.0158814
0.0244464
0.0340174
0.0416206
0.0462006
0.0483189
0.0490269
0.0485372
0.0458028
0.0397339
0.0307288
0.0211784
0.0144856
0.0131876
0.0175742
0.0256148
0.0342729
0.0412141
0.0456283
0.0478815
0.0485708
0.0475051
0.0438115
0.0369835
0.0279673
0.0192072
0.0136296
0.013139
0.0177383
0.0255502
0.0339366
0.0408396
0.0454673
0.0479916
0.0487417
0.0473873
0.0431861
0.035863
0.0264419
0.0172067
0.0108569
0.00932466
0.0129637
0.0204246
0.0293299
0.037421
0.0434077
0.0470517
0.0485662
0.0478695
0.0442925
0.0373688
0.0276205
0.0168325
0.00750173
0.00191396
0.00130075
0.00549535
0.0130058
0.0216053
0.0291503
0.0341896
0.0360752
0.0347041
0.0302319
0.0232685
0.0149906
0.00710079
0.0014548
-0.000482041
0.00186053
0.00800357
0.0165475
0.0257773
0.0340745
0.0404936
0.0442901
0.0454196
0.0431353
0.0380069
0.0290311
0.0187245
0.00610398
-0.00236983
-0.0095946
0.12642
0.126026
0.124677
0.121998
0.116744
0.106847
0.0888658
0.0572923
0.00791645
-0.0658793
-0.131478
-0.142669
-0.135868
-0.088673
-0.032267
0.0108653
0.0294877
0.0164041
-0.00567171
-0.0142221
-0.00476542
0.0120196
0.0274327
0.0391119
0.0476947
0.0537903
0.0569078
0.0588613
0.0601456
0.0568642
0.0439095
0.0217753
0.00363098
0.00288228
0.0170627
0.0326141
0.0424375
0.0465754
0.0467425
0.0448965
0.0437498
0.0446123
0.0446234
0.0389609
0.0262994
0.0112905
0.00221529
0.00438782
0.0159356
0.0296553
0.0396673
0.0442498
0.044851
0.0441876
0.0442633
0.0442981
0.0413651
0.0331665
0.0208564
0.00913685
0.00368068
0.00709506
0.0173558
0.0292703
0.0384711
0.0434514
0.0452212
0.0456898
0.0457773
0.044183
0.0388533
0.0292442
0.0176596
0.00842482
0.00547191
0.00989217
0.0194472
0.0300525
0.0384291
0.0434645
0.0458475
0.0467322
0.0462451
0.0431922
0.0364457
0.0265769
0.0162669
0.00918119
0.00798473
0.0129341
0.0218007
0.0312797
0.0388467
0.0436704
0.0461928
0.0470306
0.0458721
0.041739
0.0341671
0.0243183
0.0149063
0.00905571
0.00872709
0.013854
0.02238
0.0314633
0.0389128
0.0439223
0.0467046
0.0475724
0.046079
0.0414098
0.0333552
0.0231413
0.0132833
0.00664412
0.00520252
0.00926557
0.0173524
0.0269256
0.0355987
0.0420341
0.0460075
0.0477238
0.0470062
0.0431034
0.0355842
0.0251582
0.0138457
0.00430913
-0.00111974
-0.00127206
0.00358782
0.0118353
0.0211269
0.0292352
0.0346474
0.0366358
0.0350023
0.0299065
0.0221252
0.0130853
0.00467971
-0.00116546
-0.00302488
-0.000404443
0.0060898
0.0149357
0.0243313
0.0326571
0.0390056
0.0427082
0.0437165
0.0413518
0.0361449
0.0271874
0.0169696
0.00440661
-0.00336293
-0.0111073
0.13157
0.131467
0.131086
0.129829
0.126452
0.118747
0.102181
0.0694667
0.0116627
-0.086332
-0.171554
-0.178724
-0.168962
-0.104496
-0.0292201
0.0252266
0.0445533
0.0185517
-0.0191058
-0.0336619
-0.0205325
0.00206564
0.021112
0.034156
0.0425872
0.0467458
0.0464147
0.0461591
0.0472965
0.0448871
0.0313545
0.00680309
-0.0142454
-0.0153126
0.00218689
0.0222751
0.0349498
0.0398008
0.0393022
0.0364995
0.0349593
0.0360107
0.0361375
0.0299732
0.0162733
7.27998e-05
-0.00972501
-0.00709655
0.00612179
0.0218718
0.0333161
0.0384324
0.0389858
0.0381934
0.0383358
0.0384829
0.0354073
0.0266987
0.0136632
0.00129515
-0.00439613
-0.000566106
0.0106812
0.0237178
0.0337213
0.0390618
0.0409365
0.0414865
0.0416732
0.0400454
0.0344102
0.0242625
0.012101
0.00249231
-0.000450245
0.00441065
0.014694
0.0260335
0.0349216
0.040222
0.0427539
0.0437701
0.0433281
0.0401126
0.0329562
0.0225488
0.0117752
0.00448197
0.00341446
0.00879427
0.0182416
0.0282585
0.0361976
0.041243
0.0439222
0.0448723
0.0436818
0.0392844
0.031244
0.0208768
0.0110846
0.00512051
0.0049644
0.0104816
0.0194773
0.028972
0.0367051
0.0418972
0.0448166
0.0457647
0.0442003
0.03925
0.0307509
0.0200688
0.00987252
0.00312424
0.00181255
0.00619147
0.0146766
0.0246264
0.0335899
0.0402348
0.0443772
0.0462221
0.0455079
0.041427
0.0335831
0.0228282
0.0113424
0.00187828
-0.00324282
-0.00294108
0.00242525
0.0111386
0.0208056
0.0291924
0.0347727
0.0367453
0.0348152
0.0291891
0.0208321
0.0113789
0.00280953
-0.00298633
-0.00468537
-0.00189122
0.00468218
0.013443
0.022581
0.0305602
0.0365655
0.0400276
0.0408931
0.038556
0.0334848
0.0248692
0.0150809
0.00296886
-0.00399276
-0.0119462
0.136763
0.136996
0.137744
0.138208
0.137296
0.132767
0.119063
0.0868452
0.0186732
-0.112251
-0.226898
-0.230756
-0.217821
-0.125808
-0.0240049
0.0471324
0.0657801
0.0186796
-0.0415486
-0.0632078
-0.0433139
-0.0115724
0.0127279
0.027515
0.0353105
0.0363001
0.0319736
0.0299848
0.0318712
0.0305387
0.0163899
-0.00996782
-0.0331534
-0.0344615
-0.0139799
0.0105219
0.0261374
0.0317393
0.0305681
0.0268375
0.0249895
0.0263782
0.0268895
0.0207015
0.00657625
-0.0102892
-0.0206268
-0.0177844
-0.00339559
0.0139062
0.0264472
0.0319009
0.0323044
0.0313338
0.0315586
0.0319658
0.0290731
0.0203234
0.00705609
-0.00559049
-0.0113929
-0.00730953
0.00455002
0.018273
0.0287092
0.0341475
0.0359625
0.0365202
0.0368428
0.0353736
0.0297836
0.0195405
0.00722353
-0.0024753
-0.00533775
-0.000196339
0.0104812
0.0221563
0.0311942
0.0364875
0.0389984
0.0400845
0.0397604
0.0366096
0.0294029
0.0188695
0.00799228
0.000709297
-0.000203337
0.00543823
0.0151542
0.0253405
0.0333118
0.0383202
0.0410001
0.0420218
0.0409002
0.0364889
0.0283434
0.0178493
0.00800121
0.00210574
0.0021252
0.00785787
0.0170163
0.026559
0.0342344
0.039345
0.0422426
0.043234
0.0417092
0.0367382
0.0281629
0.0174065
0.00720381
0.000549194
-0.000595739
0.00396375
0.0125697
0.0225371
0.0314258
0.0379733
0.0420764
0.0439609
0.0433023
0.0392548
0.0314346
0.0207676
0.00950472
0.000410655
-0.00426002
-0.00354198
0.00211816
0.0109555
0.0206089
0.0289317
0.0344424
0.0362806
0.0340707
0.0280976
0.0195033
0.0100496
0.00169061
-0.00381381
-0.00529231
-0.00246516
0.0038681
0.0121093
0.0205331
0.0277758
0.0331622
0.0362383
0.036942
0.0347468
0.0300336
0.0220952
0.0130894
0.00184966
-0.00420343
-0.0120154
0.141865
0.142474
0.144482
0.146982
0.149144
0.149206
0.140443
0.113008
0.0323976
-0.154211
-0.296679
-0.287859
-0.276883
-0.152431
-0.0141525
0.0769394
0.0900117
0.0149595
-0.0781189
-0.109839
-0.0776914
-0.030521
0.00196199
0.0190954
0.0256523
0.0224746
0.0141509
0.0111045
0.0147515
0.0149659
0.000963768
-0.026095
-0.0506982
-0.0525515
-0.0300275
-0.00187178
0.0163583
0.0226029
0.0207429
0.0161003
0.014024
0.0159576
0.0172645
0.0116839
-0.00214151
-0.0190566
-0.0296758
-0.0268576
-0.0119134
0.00626833
0.0193961
0.0248716
0.0249448
0.0237082
0.02404
0.0249102
0.0226061
0.0143616
0.00141789
-0.0110921
-0.0168598
-0.0126875
-0.000642559
0.0132407
0.0236382
0.0288251
0.030357
0.0308267
0.0313412
0.0302763
0.0251507
0.0153197
0.00331642
-0.00616065
-0.00886702
-0.00362361
0.00706817
0.0186121
0.0273619
0.0323087
0.0345855
0.0356706
0.035565
0.0327617
0.0259294
0.0157388
0.0051567
-0.00188021
-0.00261476
0.00309572
0.0127233
0.0226503
0.0302497
0.0349075
0.0374002
0.0384534
0.0375363
0.0334192
0.0255927
0.0154124
0.00586311
0.000229728
0.000420553
0.00616823
0.0151401
0.0243132
0.0315335
0.0362517
0.0389433
0.0399465
0.0386077
0.03393
0.0257008
0.0153063
0.00545585
-0.000891619
-0.0018371
0.00274853
0.0111643
0.0207455
0.0291435
0.0352398
0.0390624
0.04089
0.0403654
0.0366102
0.0292136
0.0190904
0.00846726
4.30292e-05
-0.00404958
-0.00298441
0.00270979
0.0112739
0.0204765
0.0283627
0.0335575
0.0351639
0.0327503
0.0266844
0.0182406
0.00920991
0.00142195
-0.00357021
-0.00478945
-0.00209329
0.0036606
0.0109421
0.0182088
0.024347
0.0288539
0.0314002
0.0319194
0.029977
0.0258419
0.0189106
0.0110309
0.00107823
-0.0039761
-0.0113001
0.146726
0.147727
0.151088
0.155805
0.161706
0.167415
0.166788
0.147411
0.0539983
-0.186014
-0.417593
-0.378858
-0.365077
-0.18483
-0.0017476
0.108265
0.137907
0.0284291
-0.0969067
-0.156071
-0.120401
-0.0554186
-0.0116271
0.00878373
0.0136127
0.00563734
-0.0064606
-0.00966955
-0.00314691
-0.000469094
-0.0130914
-0.0395088
-0.0647234
-0.0674929
-0.0443147
-0.0138602
0.00621778
0.0127903
0.0101432
0.00455858
0.00233118
0.00508179
0.00770165
0.00343448
-0.0093368
-0.0256644
-0.0362603
-0.0336651
-0.0188081
-0.000525822
0.012549
0.0176226
0.0171106
0.0154898
0.0159658
0.0175428
0.0162752
0.00910939
-0.00294205
-0.0148899
-0.020459
-0.0163593
-0.00457041
0.00890422
0.018729
0.0232531
0.0242361
0.0245098
0.0252885
0.0249059
0.0206959
0.0118063
0.000597555
-0.00834137
-0.010815
-0.00565281
0.00465758
0.0155723
0.0235541
0.0277744
0.0295783
0.030589
0.0308219
0.0286798
0.0226756
0.0133163
0.00343782
-0.0031156
-0.0036528
0.00192379
0.0110876
0.0202988
0.0270891
0.0310531
0.0331551
0.0342042
0.0336498
0.0301649
0.0231078
0.0136984
0.0048093
-0.000369795
-1.83182e-05
0.005532
0.01395
0.0223129
0.0286555
0.0326494
0.0349417
0.0359323
0.0349473
0.0309029
0.0234634
0.0138795
0.00474402
-0.00108474
-0.00180397
0.00264391
0.0105454
0.0193186
0.0267898
0.0320619
0.0353505
0.0370246
0.0367289
0.0335486
0.026995
0.0178794
0.00830718
0.000836723
-0.00257359
-0.00126022
0.00417337
0.0120365
0.0203364
0.0274146
0.0320626
0.033373
0.0308809
0.0250136
0.0171088
0.00889458
0.0019994
-0.00229291
-0.00323618
-0.000844046
0.00400368
0.00992596
0.0156501
0.0203643
0.0237527
0.0256253
0.0259307
0.0243452
0.0210005
0.0153858
0.0089446
0.00065065
-0.00333621
-0.00986976
0.151182
0.152581
0.157285
0.164378
0.1744
0.187635
0.19915
0.204523
0.101278
-0.172848
-0.488205
-0.451357
-0.485593
-0.243948
-0.0195327
0.08512
0.0947164
0.0194603
-0.0949791
-0.180486
-0.157827
-0.0817027
-0.0268513
-0.00302157
-0.000414921
-0.0135578
-0.0292235
-0.0315051
-0.0207867
-0.0144192
-0.0243537
-0.048838
-0.0737761
-0.0777195
-0.0553568
-0.0243143
-0.00351223
0.00285282
-0.000806074
-0.00741931
-0.00971432
-0.00582072
-0.00132321
-0.00358322
-0.0146019
-0.0297507
-0.0400089
-0.0377786
-0.0236048
-0.00601679
0.0063018
0.0104764
0.00907169
0.00693216
0.00760215
0.0101472
0.0103621
0.00482082
-0.00580718
-0.0167944
-0.0220059
-0.01812
-0.0070038
0.00550135
0.0142044
0.0176293
0.01778
0.0177481
0.0188723
0.0194547
0.0166022
0.00916006
-0.000800425
-0.00890435
-0.0110739
-0.00616732
0.00338086
0.0131778
0.0199106
0.023018
0.0241068
0.0249737
0.0256711
0.0245042
0.0197705
0.011712
0.00292479
-0.00292278
-0.00324839
0.00199631
0.0103311
0.0183787
0.023927
0.0268557
0.028366
0.0293812
0.0293524
0.0268358
0.0209869
0.0127874
0.00490128
0.000354747
0.00085078
0.00599475
0.0135013
0.020625
0.0256781
0.0286241
0.0303309
0.0312913
0.0308307
0.0277545
0.0215341
0.0131903
0.00511319
-6.55523e-07
-0.000474179
0.00367353
0.0107454
0.0183026
0.0244257
0.0285126
0.0310223
0.0324526
0.0324825
0.0301556
0.02485
0.0171806
0.00903836
0.00277126
0.000116255
0.00155406
0.00641733
0.0131555
0.0201243
0.0260535
0.0299533
0.0309358
0.0285171
0.0231415
0.0161287
0.00906731
0.00332848
-0.000119563
-0.000793504
0.00113001
0.00479384
0.00904025
0.0129237
0.0159535
0.0180075
0.0190619
0.0191192
0.0179867
0.0156325
0.0116107
0.00687154
0.000532949
-0.00235164
-0.00786727
0.155076
0.156827
0.162788
0.172045
0.186481
0.206764
0.237048
0.235271
0.197078
-0.202884
-0.662757
-0.533172
-0.591023
-0.330107
-0.123355
-0.0309999
-0.0186924
-0.0263774
-0.100517
-0.18797
-0.184099
-0.105362
-0.0421045
-0.0155921
-0.0157123
-0.0342374
-0.0531964
-0.0532739
-0.0369163
-0.0256575
-0.0318547
-0.0533974
-0.0772242
-0.0823976
-0.0621058
-0.0322283
-0.0120135
-0.00656684
-0.0115849
-0.0193564
-0.0216203
-0.016231
-0.00931696
-0.00897678
-0.0176793
-0.031166
-0.0408001
-0.0390156
-0.0260185
-0.00984921
0.00102256
0.00378068
0.0011582
-0.00163224
-0.000709749
0.00305341
0.00514786
0.00169631
-0.0070629
-0.0167525
-0.0214652
-0.0179068
-0.00782319
0.00320778
0.0102764
0.012184
0.0112315
0.0107942
0.0123435
0.0141488
0.0130434
0.00748679
-0.000835457
-0.00785009
-0.0096553
-0.00515725
0.00329209
0.0115328
0.0165784
0.0182171
0.0183691
0.019031
0.0203095
0.0203994
0.0173277
0.010981
0.00362264
-0.00132801
-0.00143371
0.00330082
0.01048
0.0169632
0.0208802
0.0224658
0.0232043
0.0241608
0.0248057
0.023558
0.0193064
0.0127039
0.0061201
0.00235817
0.00297888
0.00752674
0.0138022
0.0193062
0.0227055
0.0243181
0.0252756
0.0261923
0.0264092
0.0245991
0.0199781
0.0132538
0.00653556
0.00230472
0.00208799
0.00578602
0.0117453
0.0177244
0.0221284
0.024713
0.0262271
0.0273328
0.0277727
0.0265445
0.0228432
0.0170015
0.0106101
0.00574372
0.00388
0.00530371
0.00930004
0.014533
0.0198014
0.0242907
0.0272729
0.0279143
0.0257232
0.0211067
0.0152828
0.00963776
0.00524719
0.00273771
0.00230713
0.00362768
0.00591191
0.00827525
0.010118
0.0112637
0.0117925
0.0118899
0.011662
0.0110675
0.0098849
0.0076879
0.00485422
0.000670141
-0.00112131
-0.00548654
0.158257
0.1603
0.167247
0.178396
0.196323
0.224411
0.268982
0.303
0.349684
-0.172852
-0.523707
-0.593672
-0.399494
-0.261667
-0.198461
-0.137298
-0.0807764
-0.101606
-0.171289