/*--------------------------------*- C++ -*----------------------------------*\
  =========                 |
  \\      /  F ield         | OpenFOAM: The Open Source CFD Toolbox
   \\    /   O peration     | Website:  https://openfoam.org
    \\  /    A nd           | Version:  11
     \\/     M anipulation  |
\*---------------------------------------------------------------------------*/
FoamFile
{
    format      ascii;
    class       volVectorField;
    location    "15.488253";
    object      U;
}
// * * * * * * * * * * * * * * * * * * * * * * * * * * * * * * * * * * * * * //

dimensions      [0 1 -1 0 0 0 0];

internalField   nonuniform List<vector> 
7132
(
(1.00014 -0.000261896 3.61556e-18)
(1.00202 -0.00076415 1.38744e-17)
(1.00614 -0.00125336 1.58324e-17)
(1.0121 -0.00173123 2.07915e-17)
(1.01997 -0.00219515 2.69971e-17)
(1.02967 -0.0026241 2.78832e-17)
(1.041 -0.00298046 2.72685e-17)
(1.05357 -0.00319906 2.58017e-17)
(1.06667 -0.00321159 2.37088e-17)
(1.07939 -0.00297649 2.12294e-17)
(1.09058 -0.00249067 1.86417e-17)
(1.09944 -0.00192104 1.62918e-17)
(1.10595 -0.00139097 1.43733e-17)
(1.11055 -0.00101437 1.22792e-17)
(1.11402 -0.000786122 9.02996e-18)
(1.11685 -0.000572601 6.70748e-18)
(1.11873 -0.000174997 6.40811e-18)
(1.11848 0.000570398 6.41465e-18)
(1.11446 0.00164721 6.54305e-18)
(1.10557 0.00284695 8.69634e-18)
(1.09185 0.0038845 1.01033e-17)
(1.07453 0.00451811 1.05702e-17)
(1.05563 0.00460079 9.78649e-18)
(1.03755 0.00407586 1.35978e-17)
(1.02279 0.00295832 1.36524e-17)
(1.01364 0.00133394 -4.84291e-17)
(1.01193 -0.000618486 -1.41677e-16)
(1.01853 -0.00258435 8.30768e-16)
(1.03275 -0.0041015 4.24351e-15)
(1.05171 -0.00467682 7.44057e-15)
(1.07067 -0.0040307 6.61232e-15)
(1.08448 -0.00230223 3.32195e-15)
(1.08949 -9.69936e-06 9.04666e-16)
(1.08474 0.0022144 -1.18509e-16)
(1.07172 0.00389409 -4.26889e-16)
(1.05336 0.00480471 7.99762e-16)
(1.03296 0.00490693 3.21512e-15)
(1.01372 0.00423957 -7.52732e-15)
(0.99862 0.00285665 -4.99356e-14)
(0.990443 0.000840875 -3.23756e-14)
(0.991554 -0.00161498 4.18095e-13)
(1.00323 -0.00409955 1.80029e-12)
(1.02452 -0.00597438 3.92415e-12)
(1.05151 -0.00657906 5.48192e-12)
(1.07782 -0.00558094 5.32326e-12)
(1.09682 -0.00321451 3.73965e-12)
(1.10402 -0.00019534 1.87432e-12)
(1.09857 0.00263422 5.62395e-13)
(1.08284 0.00466477 -3.39342e-14)
(1.06094 0.00565833 -1.67291e-13)
(1.03716 0.00565297 -3.6421e-14)
(1.01526 0.00478522 2.74934e-13)
(0.998412 0.00317039 5.57814e-14)
(0.989443 0.00090828 -2.8342e-12)
(0.990779 -0.00179955 -1.10519e-11)
(1.00369 -0.00451336 -2.57864e-11)
(1.02706 -0.00655708 -4.44979e-11)
(1.05665 -0.00724119 -6.07168e-11)
(1.0857 -0.00620998 -6.76584e-11)
(1.10705 -0.00367861 -6.20749e-11)
(1.11568 -0.000376307 -4.53028e-11)
(1.11031 0.00277615 -2.4199e-11)
(1.09338 0.00504876 -7.69548e-12)
(1.06956 0.00611664 1.4632e-12)
(1.04396 0.00602013 5.14802e-12)
(1.0209 0.00497296 1.90461e-12)
(1.00368 0.00318475 -1.966e-11)
(0.994932 0.000821517 -7.88598e-11)
(0.996677 -0.00188577 -1.91473e-10)
(1.00974 -0.00450864 -3.55711e-10)
(1.03271 -0.00643316 -5.43653e-10)
(1.06146 -0.00706446 -7.06309e-10)
(1.08974 -0.00610863 -7.93149e-10)
(1.11097 -0.00374632 -7.75131e-10)
(1.12032 -0.000589717 -6.56741e-10)
(1.11613 0.0025438 -4.72508e-10)
(1.10015 0.00492401 -2.73848e-10)
(1.07664 0.00612921 -1.10335e-10)
(1.0508 0.00609888 -1.07899e-11)
(1.0274 0.00502205 2.28761e-11)
(1.01012 0.00316424 5.64011e-12)
(1.0016 0.000778316 -4.54674e-11)
(1.0035 -0.00184053 -1.18313e-10)
(1.01611 -0.00426189 -2.03455e-10)
(1.03762 -0.00594798 -2.89742e-10)
(1.06396 -0.00643228 -3.63339e-10)
(1.0895 -0.00553137 -4.10437e-10)
(1.10866 -0.00344263 -4.20993e-10)
(1.11744 -0.000675719 -3.91373e-10)
(1.11435 0.00212203 -3.25434e-10)
(1.1006 0.00435816 -2.34922e-10)
(1.07946 0.00563504 -1.38439e-10)
(1.05535 0.00580334 -5.44625e-11)
(1.03276 0.00492838 8.02663e-12)
(1.01557 0.00320387 5.28165e-11)
(1.00678 0.000892615 9.0577e-11)
(1.00819 -0.00165593 1.30074e-10)
(1.01999 -0.00397611 1.73947e-10)
(1.04021 -0.00555062 2.2013e-10)
(1.0648 -0.00597842 2.6509e-10)
(1.08851 -0.00514349 3.0574e-10)
(1.10633 -0.00326809 3.39284e-10)
(1.11487 -0.000821695 3.61592e-10)
(1.11294 0.00164746 3.65491e-10)
(1.10157 0.00366944 3.41795e-10)
(1.08338 0.00493359 2.85808e-10)
(1.06186 0.0052902 2.06175e-10)
(1.0408 0.00471622 1.26592e-10)
(1.02389 0.00328688 7.48263e-11)
(1.01432 0.00118237 6.69306e-11)
(1.01437 -0.00127519 1.00415e-10)
(1.02468 -0.00361612 1.60146e-10)
(1.0437 -0.00531099 2.28875e-10)
(1.06773 -0.00593799 2.93966e-10)
(1.09177 -0.00534295 3.48704e-10)
(1.11089 -0.00369807 3.90735e-10)
(1.12154 -0.00143055 4.19749e-10)
(1.12228 0.000933339 4.34802e-10)
(1.11381 0.00293457 4.31727e-10)
(1.0984 0.00428443 4.03403e-10)
(1.07909 0.00486617 3.45184e-10)
(1.05906 0.00466793 2.63003e-10)
(1.04142 0.0037157 1.75966e-10)
(1.02912 0.00206852 1.08175e-10)
(1.02482 -0.00011732 7.55733e-11)
(1.03023 -0.00252165 7.91158e-11)
(1.0454 -0.00468132 1.08341e-10)
(1.06829 -0.00611625 1.49656e-10)
(1.09501 -0.00649932 1.92357e-10)
(1.12087 -0.00577401 2.30325e-10)
(1.14156 -0.00416403 2.61091e-10)
(1.15425 -0.00208543 2.84306e-10)
(1.15806 -1.1256e-05 3.00419e-10)
(1.15396 0.00165955 3.09466e-10)
(1.14428 0.00269149 3.10051e-10)
(1.13189 0.00303226 2.99273e-10)
(1.11953 0.00277166 2.74323e-10)
(1.10933 0.00207066 2.35277e-10)
(1.10272 0.00110397 1.86962e-10)
(1.10044 4.19277e-05 1.38031e-10)
(1.10254 -0.000941373 9.76468e-11)
(1.10833 -0.00167089 7.20992e-11)
(1.11643 -0.00200376 6.33179e-11)
(1.12495 -0.00188059 6.9495e-11)
(1.132 -0.00135985 8.67325e-11)
(1.13619 -0.000610235 1.10584e-10)
(1.13701 0.000137808 1.36994e-10)
(1.13496 0.000657875 1.62687e-10)
(1.13142 0.000785052 1.8528e-10)
(1.1282 0.000441799 2.03307e-10)
(1.12737 -0.000358979 2.16183e-10)
(1.13051 -0.00153421 2.24046e-10)
(1.13917 -0.00294012 2.27495e-10)
(1.15354 -0.00439908 2.27301e-10)
(1.17411 -0.00569497 2.24206e-10)
(1.1988 -0.00661345 2.18752e-10)
(1.22703 -0.00697895 2.11553e-10)
(1.25473 -0.00657084 2.02105e-10)
(1.27932 -0.00584826 1.93832e-10)
(1.30284 -0.00304033 1.73478e-10)
(1.00014 -0.00078457 4.54607e-20)
(1.00201 -0.00229017 7.24905e-19)
(1.00611 -0.00375797 1.51656e-18)
(1.01207 -0.00519531 2.37545e-18)
(1.01996 -0.006595 3.4316e-18)
(1.02971 -0.00789447 4.5312e-18)
(1.04115 -0.00898026 5.21721e-18)
(1.05392 -0.00965184 6.78588e-18)
(1.06727 -0.00969803 5.70283e-18)
(1.08027 -0.0089838 3.9549e-18)
(1.09165 -0.00749432 4.02113e-18)
(1.10055 -0.00575275 6.34611e-18)
(1.10697 -0.00414048 6.01047e-18)
(1.11141 -0.00301814 2.16791e-18)
(1.11479 -0.00237415 -5.05678e-18)
(1.11768 -0.00179464 -1.03668e-17)
(1.11981 -0.000658308 -9.51703e-18)
(1.11989 0.00155784 -4.70178e-18)
(1.1161 0.00481264 4.40863e-19)
(1.1072 0.00846517 4.27898e-18)
(1.09322 0.0116389 6.90579e-18)
(1.07545 0.013595 6.84903e-18)
(1.05598 0.0138868 4.43866e-18)
(1.03731 0.0123411 2.76978e-17)
(1.02198 0.00899701 4.58133e-17)
(1.01238 0.00410168 -4.11687e-16)
(1.01045 -0.00181995 -8.9754e-16)
(1.01723 -0.00782389 8.35582e-15)
(1.03211 -0.0124948 3.97178e-14)
(1.05214 -0.0143012 7.17127e-14)
(1.07226 -0.0123627 6.62482e-14)
(1.08691 -0.00709812 3.31073e-14)
(1.09223 -0.000102324 8.19845e-15)
(1.08724 0.00668143 -1.34023e-15)
(1.07363 0.011799 -2.56634e-15)
(1.05452 0.0145769 8.47509e-15)
(1.03335 0.0149106 2.23519e-14)
(1.01334 0.0129262 -7.59972e-14)
(0.997527 0.00878013 -4.35478e-13)
(0.988748 0.0026982 -2.52864e-13)
(0.989571 -0.00476773 4.428e-12)
(1.00152 -0.0123805 1.99267e-11)
(1.02379 -0.0181732 4.48815e-11)
(1.05224 -0.0200892 6.33472e-11)
(1.08005 -0.0170828 6.00577e-11)
(1.10005 -0.00987103 3.93269e-11)
(1.10751 -0.000657167 1.76933e-11)
(1.10162 0.00797249 4.59762e-12)
(1.08504 0.0141549 -6.32843e-13)
(1.06216 0.0171777 -1.46109e-12)
(1.03746 0.0171777 -1.60953e-14)
(1.01473 0.0145834 2.76943e-12)
(0.997126 0.00973864 9.21028e-13)
(0.987512 0.00291572 -2.62477e-11)
(0.988479 -0.00531234 -1.14673e-10)
(1.00153 -0.0136229 -2.91869e-10)
(1.0257 -0.0199328 -5.27309e-10)
(1.05667 -0.0220963 -7.16466e-10)
(1.08732 -0.0189983 -7.53373e-10)
(1.10995 -0.011295 -6.23736e-10)
(1.11914 -0.00122496 -4.06125e-10)
(1.11352 0.00839387 -1.98371e-10)
(1.09575 0.015326 -5.96134e-11)
(1.07086 0.0185827 5.9998e-12)
(1.04421 0.0183048 2.43148e-11)
(1.02023 0.0151634 1.27643e-11)
(1.00221 0.00979856 -4.55935e-11)
(0.992739 0.00268859 -1.996e-10)
(0.993967 -0.0055058 -4.96795e-10)
(1.00693 -0.013506 -9.351e-10)
(1.03038 -0.0194375 -1.43252e-09)
(1.0601 -0.021461 -1.84601e-09)
(1.08959 -0.0186503 -2.03437e-09)
(1.11193 -0.0115357 -1.92892e-09)
(1.12201 -0.00197137 -1.56929e-09)
(1.11803 0.00755888 -1.07772e-09)
(1.10176 0.0148273 -5.9506e-10)
(1.07762 0.0185405 -2.27634e-10)
(1.05097 0.0185093 -1.72632e-11)
(1.02673 0.0153081 5.1602e-11)
(1.00866 0.00973721 1.93256e-11)
(0.999496 0.00254301 -7.84452e-11)
(1.0011 -0.00540382 -2.18284e-10)
(1.01392 -0.0127994 -3.794e-10)
(1.03617 -0.017986 -5.35558e-10)
(1.06351 -0.0195171 -6.57849e-10)
(1.09001 -0.0168246 -7.22574e-10)
(1.10978 -0.0105171 -7.16997e-10)
(1.11876 -0.00215143 -6.42221e-10)
(1.11553 0.00631266 -5.13328e-10)
(1.10142 0.013089 -3.56169e-10)
(1.07981 0.0169817 -2.02016e-10)
(1.05517 0.0175405 -7.65769e-11)
(1.03202 0.0149541 1.0772e-11)
(1.01431 0.00978732 6.84528e-11)
(1.00519 0.0028077 1.13322e-10)
(1.00667 -0.00494258 1.58936e-10)
(1.01908 -0.0120364 2.1013e-10)
(1.04035 -0.0168646 2.64617e-10)
(1.06611 -0.0181776 3.17053e-10)
(1.09072 -0.0156221 3.62252e-10)
(1.10892 -0.00990028 3.96311e-10)
(1.11726 -0.00246528 4.15324e-10)
(1.11473 0.00501169 4.13097e-10)
(1.10258 0.0111145 3.81496e-10)
(1.08362 0.0149193 3.16584e-10)
(1.06146 0.0159901 2.27857e-10)
(1.03993 0.0142624 1.40571e-10)
(1.02273 0.0099513 8.47529e-11)
(1.01318 0.00357782 7.85393e-11)
(1.01367 -0.00389936 1.20171e-10)
(1.02491 -0.0110444 1.93189e-10)
(1.04523 -0.0162158 2.77282e-10)
(1.07061 -0.0181043 3.56105e-10)
(1.09568 -0.0162423 4.1976e-10)
(1.11525 -0.0111797 4.64052e-10)
(1.12569 -0.00424579 4.88569e-10)
(1.12568 0.0029478 4.93905e-10)
(1.11613 0.00900967 4.7836e-10)
(1.09958 0.0130727 4.3725e-10)
(1.07925 0.0147975 3.67704e-10)
(1.05845 0.0141622 2.76706e-10)
(1.04033 0.0112503 1.83959e-10)
(1.02794 0.00623305 1.13823e-10)
(1.024 -0.000429391 8.20512e-11)
(1.03031 -0.00776691 8.88614e-11)
(1.04683 -0.0143507 1.22607e-10)
(1.07126 -0.0186945 1.68422e-10)
(1.09934 -0.0197954 2.14627e-10)
(1.12608 -0.0174993 2.54582e-10)
(1.147 -0.0125192 2.85697e-10)
(1.15928 -0.0061476 3.07757e-10)
(1.16218 0.000170773 3.21527e-10)
(1.1569 0.00523457 3.27493e-10)
(1.14597 0.0083402 3.24745e-10)
(1.13245 0.00933762 3.10763e-10)
(1.1192 0.0085043 2.82991e-10)
(1.10843 0.0063291 2.41703e-10)
(1.10164 0.00333903 1.91936e-10)
(1.09963 4.94256e-05 1.42493e-10)
(1.10246 -0.00300481 1.02499e-10)
(1.10936 -0.00527441 7.79539e-11)
(1.11875 -0.00630459 7.03352e-11)
(1.12848 -0.00590334 7.74091e-11)
(1.13639 -0.00425332 9.50446e-11)
(1.14093 -0.00188552 1.18798e-10)
(1.14157 0.000479043 1.44776e-10)
(1.13889 0.00213898 1.69908e-10)
(1.13441 0.00258803 1.91957e-10)
(1.13011 0.00159188 2.09524e-10)
(1.12818 -0.000806458 2.22028e-10)
(1.13032 -0.00435073 2.29568e-10)
(1.13815 -0.00860551 2.32679e-10)
(1.15189 -0.0130339 2.32053e-10)
(1.17209 -0.0169858 2.28371e-10)
(1.19667 -0.0198096 2.22186e-10)
(1.22506 -0.0209726 2.14221e-10)
(1.25311 -0.0197918 2.04207e-10)
(1.27813 -0.0176672 1.956e-10)
(1.30212 -0.00921011 1.75952e-10)
(1.00014 -0.00130424 -1.79647e-22)
(1.002 -0.00380773 1.13496e-20)
(1.00607 -0.00625364 1.16943e-20)
(1.012 -0.00865968 2.4215e-20)
(1.0199 -0.0110181 -5.15477e-20)
(1.02975 -0.0132272 -2.03843e-19)
(1.04142 -0.0150963 3.96096e-20)
(1.05458 -0.0162744 -4.42249e-19)
(1.06846 -0.0163884 -3.04928e-18)
(1.08205 -0.0151745 -1.69725e-18)
(1.09384 -0.0125866 6.85038e-18)
(1.10283 -0.00957045 8.90128e-18)
(1.10908 -0.00679456 -1.21708e-17)
(1.1132 -0.00491568 -5.24135e-17)
(1.11638 -0.00392391 -8.50066e-17)
(1.1194 -0.00308714 -8.07348e-17)
(1.12203 -0.0012894 -4.08585e-17)
(1.12276 0.00242595 -1.23086e-18)
(1.11939 0.00799988 1.83324e-17)
(1.11041 0.0142947 2.23371e-17)
(1.09582 0.019766 1.81255e-17)
(1.07706 0.023139 3.89595e-18)
(1.05643 0.0236668 3.36591e-17)
(1.03657 0.0210718 3.29854e-17)
(1.02017 0.0154199 -7.16229e-16)
(1.00977 0.00710207 1.58342e-15)
(1.00754 -0.00303611 1.45391e-14)
(1.01482 -0.0134114 -5.29634e-14)
(1.03117 -0.0215626 -3.73178e-13)
(1.05345 -0.024765 -6.7703e-13)
(1.07592 -0.0214256 -5.52899e-13)
(1.0922 -0.0122766 -2.26539e-13)
(1.09791 -0.000152472 -3.87983e-14)
(1.09217 0.011525 3.36813e-15)
(1.07713 0.0202541 5.14659e-15)
(1.05637 0.0249442 5.07041e-14)
(1.03359 0.0254908 6.18446e-14)
(1.01211 0.0221459 -4.49083e-13)
(0.994977 0.0151546 -1.61774e-12)
(0.985192 0.00482458 5.20193e-13)
(0.985686 -0.00799253 1.87857e-11)
(0.998474 -0.0212035 6.56349e-11)
(1.02295 -0.0313424 1.31119e-10)
(1.05456 -0.0347285 1.8095e-10)
(1.08543 -0.0294918 1.8027e-10)
(1.1073 -0.0169263 1.28149e-10)
(1.11492 -0.000953512 6.38738e-11)
(1.10772 0.0138871 2.00378e-11)
(1.08905 0.0243959 -6.57164e-13)
(1.06399 0.0294395 -5.30763e-12)
(1.03738 0.0293595 7.46607e-13)
(1.01306 0.0249495 1.26151e-11)
(0.994088 0.0167811 -1.5011e-12)
(0.983326 0.00523906 -1.42145e-10)
(0.983539 -0.00879563 -5.72134e-10)
(0.996616 -0.0231176 -1.3882e-09)
(1.022 -0.0341372 -2.42607e-09)
(1.0554 -0.0380672 -3.24441e-09)
(1.08915 -0.0328565 -3.40719e-09)
(1.11454 -0.019574 -2.83375e-09)
(1.12515 -0.00213702 -1.85486e-09)
(1.11925 0.0144859 -9.17709e-10)
(1.09986 0.0263803 -2.87287e-10)
(1.07276 0.031878 1.20724e-11)
(1.044 0.0313245 9.18672e-11)
(1.01824 0.0259706 5.03054e-11)
(0.99873 0.0169327 -1.16288e-10)
(0.988043 0.00495 -4.97303e-10)
(0.988562 -0.00896992 -1.16522e-09)
(1.00175 -0.0227087 -2.06663e-09)
(1.02655 -0.0330264 -3.01103e-09)
(1.05843 -0.0366842 -3.75761e-09)
(1.0902 -0.0320265 -4.1014e-09)
(1.11429 -0.0199425 -3.92471e-09)
(1.12525 -0.00361718 -3.25354e-09)
(1.12122 0.0126818 -2.28102e-09)
(1.10412 0.0251296 -1.28742e-09)
(1.07863 0.0315152 -5.10684e-10)
(1.05044 0.0315311 -5.5756e-11)
(1.02467 0.0261728 1.01516e-10)
(1.00528 0.0167828 4.53249e-11)
(0.99527 0.00456722 -1.42728e-10)
(0.996865 -0.00904402 -3.99788e-10)
(1.01079 -0.0217961 -6.69231e-10)
(1.03506 -0.0307538 -8.98816e-10)
(1.06471 -0.0333619 -1.05403e-09)
(1.09301 -0.0286664 -1.12207e-09)
(1.11359 -0.0178062 -1.1e-09)
(1.12232 -0.00352949 -9.87391e-10)
(1.11811 0.0108077 -7.95152e-10)
(1.1027 0.0222199 -5.55701e-10)
(1.07978 0.0287522 -3.17047e-10)
(1.05395 0.0296919 -1.22046e-10)
(1.02977 0.0253507 1.16416e-11)
(1.01132 0.0166186 9.49154e-11)
(1.00202 0.00471858 1.53337e-10)
(1.00424 -0.00859638 2.09592e-10)
(1.0184 -0.0208162 2.74232e-10)
(1.04208 -0.0290739 3.45443e-10)
(1.07022 -0.0311704 4.13603e-10)
(1.09646 -0.0265471 4.67803e-10)
(1.11509 -0.0165259 5.01135e-10)
(1.12265 -0.00370927 5.11037e-10)
(1.11848 0.00900164 4.94949e-10)
(1.10436 0.0192284 4.47715e-10)
(1.08356 0.0254873 3.66845e-10)
(1.05995 0.0271268 2.62984e-10)
(1.03747 0.0240738 1.63768e-10)
(1.0199 0.0166618 1.02655e-10)
(1.01071 0.00571874 1.0029e-10)
(1.0125 -0.00713669 1.54568e-10)
(1.02593 -0.0193942 2.45755e-10)
(1.04894 -0.028163 3.49102e-10)
(1.07685 -0.0311707 4.44517e-10)
(1.10369 -0.0276666 5.19654e-10)
(1.12385 -0.0186939 5.68766e-10)
(1.13363 -0.00662633 5.90497e-10)
(1.13194 0.00572568 5.85535e-10)
(1.12013 0.0159867 5.5392e-10)
(1.1012 0.0227237 4.93883e-10)
(1.07879 0.0254284 4.0575e-10)
(1.05645 0.0241223 2.99405e-10)
(1.0375 0.0189657 1.96728e-10)
(1.02513 0.0102331 1.22944e-10)
(1.02221 -0.00129878 9.29404e-11)
(1.03055 -0.0139333 1.04695e-10)
(1.04981 -0.0251544 1.44035e-10)
(1.07708 -0.0323762 1.94323e-10)
(1.10748 -0.0339149 2.43226e-10)
(1.13552 -0.0296003 2.84303e-10)
(1.15656 -0.0207558 3.15452e-10)
(1.16786 -0.00966275 3.36767e-10)
(1.16894 0.00118806 3.48983e-10)
(1.16139 0.00976561 3.52477e-10)
(1.14811 0.0149116 3.46396e-10)
(1.13248 0.0164148 3.28445e-10)
(1.11762 0.0147786 2.96489e-10)
(1.10591 0.0108432 2.51472e-10)
(1.09899 0.00550022 1.99251e-10)
(1.09775 -0.000366442 1.49238e-10)
(1.10223 -0.00580579 1.10559e-10)
(1.11144 -0.00981489 8.85253e-11)
(1.12335 -0.0115593 8.35654e-11)
(1.13525 -0.010697 9.25349e-11)
(1.14456 -0.00758081 1.10868e-10)
(1.14946 -0.00319265 1.34204e-10)
(1.14946 0.00116227 1.59057e-10)
(1.14533 0.00424114 1.82816e-10)
(1.1389 0.00516927 2.03578e-10)
(1.13246 0.00356266 2.20081e-10)
(1.12844 -0.000480142 2.31708e-10)
(1.12872 -0.00650099 2.38419e-10)
(1.13503 -0.0137524 2.40539e-10)
(1.1477 -0.0213286 2.38556e-10)
(1.16736 -0.0281347 2.33073e-10)
(1.19198 -0.033064 2.24836e-10)
(1.22094 -0.0351869 2.15012e-10)
(1.24984 -0.03332 2.03972e-10)
(1.27585 -0.0298201 1.95088e-10)
(1.30063 -0.0155161 1.77796e-10)
(1.00014 -0.00181851 -5.72698e-20)
(1.00197 -0.00530917 -8.29747e-19)
(1.00598 -0.00873156 -1.67489e-18)
(1.01188 -0.0121205 -2.60115e-18)
(1.01979 -0.0154757 -4.48607e-18)
(1.02977 -0.0186606 -4.94691e-18)
(1.04177 -0.0214067 -6.3052e-18)
(1.05553 -0.0231869 -1.19641e-17)
(1.07023 -0.0234335 -1.55415e-17)
(1.08475 -0.0216869 1.23534e-17)
(1.0972 -0.0178352 3.77777e-17)
(1.10634 -0.0133683 -4.90903e-17)
(1.11228 -0.00929716 -2.15283e-16)
(1.11587 -0.00667092 -1.91461e-16)
(1.11871 -0.0054948 2.04466e-16)
(1.12192 -0.00464317 7.36366e-16)
(1.12535 -0.00236912 9.66054e-16)
(1.12714 0.00286492 8.28453e-16)
(1.12445 0.0109942 5.27533e-16)
(1.11533 0.0202622 2.55186e-16)
(1.09976 0.0283208 4.79951e-17)
(1.07945 0.0332935 -7.46784e-18)
(1.05701 0.0341311 5.55206e-16)
(1.03533 0.0304681 -1.93534e-15)
(1.0173 0.0223963 -8.85512e-15)
(1.00567 0.0104203 5.4145e-14)
(1.00296 -0.00433583 1.45527e-13)
(1.01098 -0.0196373 -1.08868e-12)
(1.02964 -0.0318212 -5.28919e-12)
(1.05548 -0.0366936 -9.55581e-12)
(1.0817 -0.0317443 -8.91691e-12)
(1.10052 -0.0180786 -4.54788e-12)
(1.10678 -6.75105e-05 -1.15769e-12)
(1.09975 0.0170836 3.3405e-14)
(1.08237 0.0297027 2.02725e-13)
(1.05899 0.0363463 1.98248e-13)
(1.03373 0.0370369 -2.25827e-13)
(1.01002 0.0322303 -1.2131e-12)
(0.99093 0.0222408 1.1594e-12)
(0.97963 0.00735167 9.82227e-12)
(0.979539 -0.0113951 -8.25254e-12)
(0.993317 -0.0310061 -1.47048e-10)
(1.02077 -0.0462269 -4.24945e-10)
(1.05704 -0.0513489 -6.35551e-10)
(1.0929 -0.0434579 -5.71699e-10)
(1.11814 -0.0245955 -3.18576e-10)
(1.12632 -0.000839903 -9.52922e-11)
(1.1171 0.0209244 6.02219e-12)
(1.09504 0.0360215 1.69941e-11)
(1.06647 0.0430074 4.78395e-12)
(1.0369 0.0426377 1.27043e-11)
(1.01021 0.0362254 3.50614e-11)
(0.989188 0.0246056 -4.68204e-11)
(0.976463 0.00820081 -5.29664e-10)
(0.975016 -0.0119416 -1.77129e-09)
(0.987504 -0.0328419 -3.82581e-09)
(1.01418 -0.0493335 -6.19113e-09)
(1.05085 -0.0556952 -8.00671e-09)
(1.08898 -0.0485788 -8.49548e-09)
(1.11851 -0.0292818 -7.3869e-09)
(1.13175 -0.00355598 -5.16102e-09)
(1.12621 0.0210567 -2.7734e-09)
(1.10509 0.0385678 -9.96414e-10)
(1.07512 0.0465039 -6.1035e-11)
(1.04332 0.0455593 2.28698e-10)
(1.01492 0.0377921 1.37104e-10)
(0.993192 0.0248974 -2.5202e-10)
(0.980823 0.00778185 -1.00504e-09)
(0.980724 -0.0123467 -2.12323e-09)
(0.995001 -0.0324961 -3.40471e-09)
(1.02259 -0.0477899 -4.5549e-09)
(1.05805 -0.0533014 -5.37872e-09)
(1.09295 -0.0465837 -5.79418e-09)
(1.11887 -0.0290473 -5.70642e-09)
(1.13022 -0.00541126 -5.00765e-09)
(1.1254 0.018143 -3.76082e-09)
(1.10673 0.0361236 -2.28915e-09)
(1.07925 0.0453726 -1.00599e-09)
(1.04892 0.045478 -1.82282e-10)
(1.02113 0.0378799 1.40152e-10)
(1.00009 0.0244396 7.34371e-11)
(0.989281 0.00675944 -2.2608e-10)
(0.991522 -0.0131534 -6.11445e-10)
(1.00773 -0.031894 -9.59697e-10)
(1.03541 -0.0449574 -1.19476e-09)
(1.06851 -0.0485055 -1.30674e-09)
(1.09922 -0.0412657 -1.33161e-09)
(1.12055 -0.0251581 -1.3001e-09)
(1.12839 -0.00439163 -1.20501e-09)
(1.12219 0.0161381 -1.02186e-09)
(1.10438 0.0322568 -7.55883e-10)
(1.07921 0.0413507 -4.56732e-10)
(1.0515 0.0425369 -1.90464e-10)
(1.02591 0.0362591 1.96421e-12)
(1.00668 0.0236598 1.2268e-10)
(0.997598 0.00635469 2.0322e-10)
(1.0014 -0.0131215 2.78332e-10)
(1.01843 -0.0309542 3.66966e-10)
(1.04561 -0.0427846 4.67027e-10)
(1.07689 -0.0453754 5.61536e-10)
(1.10508 -0.0380576 6.30364e-10)
(1.12404 -0.0229867 6.61045e-10)
(1.13033 -0.00414689 6.52591e-10)
(1.1237 0.0141691 6.09659e-10)
(1.10662 0.0285806 5.3446e-10)
(1.08302 0.0371178 4.28632e-10)
(1.05722 0.0390259 3.04491e-10)
(1.03336 0.0342848 1.91549e-10)
(1.01539 0.0233314 1.25794e-10)
(1.00701 0.00728217 1.28785e-10)
(1.01094 -0.0115056 1.95962e-10)
(1.0276 -0.0292638 3.02894e-10)
(1.05419 -0.0416828 4.20745e-10)
(1.08521 -0.0454875 5.2769e-10)
(1.11398 -0.039741 6.11463e-10)
(1.1346 -0.0261434 6.66399e-10)
(1.14337 -0.00827896 6.89942e-10)
(1.13945 0.00970947 6.80729e-10)
(1.12465 0.0243833 6.37715e-10)
(1.10254 0.0337413 5.60262e-10)
(1.0773 0.0371682 4.52047e-10)
(1.05288 0.0348002 3.27552e-10)
(1.03286 0.0269074 2.12753e-10)
(1.02068 0.0138781 1.34549e-10)
(1.01939 -0.00313587 1.06358e-10)
(1.03064 -0.0215609 1.2277e-10)
(1.0535 -0.0376176 1.66432e-10)
(1.0842 -0.0475387 2.19054e-10)
(1.11707 -0.0490231 2.68204e-10)
(1.14621 -0.0420395 3.08249e-10)
(1.16695 -0.0286807 3.38128e-10)
(1.17675 -0.0123297 3.58662e-10)
(1.1755 0.0034126 3.70642e-10)
(1.16514 0.0156557 3.73864e-10)
(1.14898 0.0227903 3.66672e-10)
(1.13081 0.0245778 3.46275e-10)
(1.11403 0.0217877 3.10738e-10)
(1.10132 0.0156401 2.62027e-10)
(1.09454 0.00741615 2.0746e-10)
(1.09472 -0.0015743 1.57534e-10)
(1.10181 -0.00985336 1.21399e-10)
(1.11434 -0.0158311 1.03305e-10)
(1.12957 -0.0182078 1.02158e-10)
(1.14405 -0.0165055 1.13575e-10)
(1.15467 -0.0113528 1.32473e-10)
(1.15946 -0.00432849 1.54699e-10)
(1.15805 0.00255023 1.77424e-10)
(1.15157 0.00742106 1.98759e-10)
(1.14226 0.00901798 2.1732e-10)
(1.13278 0.00682891 2.32042e-10)
(1.12585 0.0010497 2.42201e-10)
(1.12356 -0.00762481 2.47414e-10)
(1.12782 -0.0181186 2.47555e-10)
(1.13913 -0.0291551 2.42792e-10)
(1.1583 -0.0391716 2.33882e-10)
(1.18331 -0.0465598 2.22339e-10)
(1.21339 -0.0498988 2.10351e-10)
(1.24365 -0.0474569 1.99137e-10)
(1.27111 -0.0425563 1.91446e-10)
(1.29682 -0.0220469 1.79203e-10)
(1.00013 -0.00232366 -4.26887e-18)
(1.00192 -0.00678397 -1.24265e-17)
(1.00585 -0.0111777 -1.16419e-17)
(1.01166 -0.0155672 -1.59007e-17)
(1.01956 -0.0199711 -1.71363e-17)
(1.02969 -0.0242272 -1.49371e-17)
(1.04213 -0.0279892 -3.23583e-17)
(1.05669 -0.0305184 -2.55276e-17)
(1.07254 -0.0310054 3.62739e-17)
(1.08842 -0.0286797 1.08524e-16)
(1.10182 -0.023306 -4.14793e-18)
(1.11113 -0.01711 -3.04173e-16)
(1.11659 -0.0115139 -9.4794e-17)
(1.11933 -0.00810451 1.90427e-15)
(1.12159 -0.00693781 6.0918e-15)
(1.12504 -0.00640104 1.01075e-14)
(1.12967 -0.00391336 1.03867e-14)
(1.13307 0.00287346 7.4219e-15)
(1.13144 0.013915 3.99334e-15)
(1.12216 0.0266511 1.39623e-15)
(1.10522 0.0377118 -2.64146e-16)
(1.08273 0.0445159 3.41843e-16)
(1.05778 0.0457224 1.30372e-15)
(1.03359 0.0409233 -1.89133e-14)
(1.01329 0.0302507 7.44365e-15)
(0.999888 0.0142758 2.25861e-13)
(0.996391 -0.00568379 -3.17263e-13)
(1.00535 -0.026748 -2.01657e-12)
(1.02724 -0.043823 -4.53437e-13)
(1.05822 -0.0508116 7.63273e-13)
(1.08983 -0.0439505 -4.45637e-12)
(1.11228 -0.0248008 -7.20408e-12)
(1.11923 0.000256527 -4.16146e-12)
(1.11025 0.023746 -8.32727e-13)
(1.08946 0.0406404 6.2681e-13)
(1.06239 0.0492604 1.74551e-13)
(1.03375 0.0499655 -2.03754e-12)
(1.00705 0.0435423 2.92417e-12)
(0.985316 0.0303534 3.13157e-11)
(0.971797 0.0105293 8.35064e-12)
(0.970189 -0.0148184 -4.16638e-10)
(0.983726 -0.0418069 -1.73219e-09)
(1.01323 -0.0632122 -3.7828e-09)
(1.05458 -0.0708148 -5.36667e-09)
(1.09764 -0.0600549 -5.26755e-09)
(1.12932 -0.0336224 -3.61851e-09)
(1.14027 -0.000404843 -1.67938e-09)
(1.12948 0.0295441 -4.24704e-10)
(1.10312 0.0497082 4.76758e-11)
(1.0697 0.0585008 1.04617e-10)
(1.03604 0.0574829 8.59977e-11)
(1.00614 0.0488027 6.56107e-11)
(0.982212 0.0336566 -2.4566e-10)
(0.966504 0.0123357 -1.41491e-09)
(0.962613 -0.0143004 -3.81475e-09)
(0.974681 -0.0426937 -7.07583e-09)
(1.00386 -0.0658224 -1.02631e-08)
(1.04521 -0.0754839 -1.25609e-08)
(1.08849 -0.0666919 -1.34435e-08)
(1.12229 -0.0409426 -1.24704e-08)
(1.13816 -0.00595826 -9.63439e-09)
(1.13316 0.0278344 -5.85717e-09)
(1.11044 0.051926 -2.50929e-09)
(1.07739 0.0627519 -4.33873e-10)
(1.04204 0.061415 3.63364e-10)
(1.01027 0.0510302 2.67174e-10)
(0.985716 0.03398 -4.47335e-10)
(0.971527 0.0111926 -1.65759e-09)
(0.971527 -0.0160483 -3.13846e-09)
(0.98837 -0.0436386 -4.49645e-09)
(1.02036 -0.0645628 -5.42941e-09)
(1.06053 -0.071879 -5.94104e-09)
(1.09893 -0.0624419 -6.21999e-09)
(1.12634 -0.0385632 -6.31211e-09)
(1.13715 -0.00685626 -5.97089e-09)
(1.13043 0.0244437 -4.93635e-09)
(1.1092 0.0482088 -3.33524e-09)
(1.07902 0.0604099 -1.66595e-09)
(1.04611 0.0605795 -4.39042e-10)
(1.01599 0.0505848 1.17904e-10)
(0.993253 0.0327061 8.07862e-11)
(0.98206 0.00885671 -3.10461e-10)
(0.985849 -0.0182619 -7.87866e-10)
(1.00546 -0.0437399 -1.14776e-09)
(1.03741 -0.0611525 -1.30794e-09)
(1.07438 -0.065278 -1.30743e-09)
(1.10753 -0.0546872 -1.24627e-09)
(1.12941 -0.0323805 -1.20157e-09)
(1.13592 -0.00433198 -1.16928e-09)
(1.12703 0.022826 -1.0795e-09)
(1.10599 0.0437123 -8.76741e-10)
(1.07779 0.055184 -5.80607e-10)
(1.04764 0.0563294 -2.71031e-10)
(1.02039 0.0477542 -2.25641e-11)
(1.0005 0.0307748 1.44078e-10)
(0.992198 0.00736369 2.58909e-10)
(0.998432 -0.0190059 3.66126e-10)
(1.01913 -0.0429179 4.90103e-10)
(1.05023 -0.0583103 6.25893e-10)
(1.08466 -0.0609163 7.50248e-10)
(1.11457 -0.050126 8.36774e-10)
(1.13358 -0.0291408 8.67198e-10)
(1.13831 -0.00352639 8.38113e-10)
(1.1289 0.0208656 7.59068e-10)
(1.10839 0.0395717 6.42635e-10)
(1.08147 0.0501804 4.99836e-10)
(1.05302 0.051947 3.48203e-10)
(1.02754 0.0449815 2.19581e-10)
(1.00927 0.0298349 1.50521e-10)
(1.00217 0.0079474 1.6041e-10)
(1.00894 -0.0174237 2.39635e-10)
(1.02941 -0.0410177 3.58291e-10)
(1.05983 -0.0569733 4.84544e-10)
(1.09376 -0.0610716 5.96762e-10)
(1.12406 -0.052366 6.84594e-10)
(1.14473 -0.0333846 7.43913e-10)
(1.15221 -0.00904051 7.71695e-10)
(1.1459 0.0150962 7.63828e-10)
(1.12796 0.0344408 7.15865e-10)
(1.10247 0.0463904 6.25767e-10)
(1.07415 0.0502536 4.99515e-10)
(1.04744 0.0463374 3.56996e-10)
(1.02633 0.0350599 2.29803e-10)
(1.01462 0.0169702 1.47281e-10)
(1.01547 -0.00627088 1.21078e-10)
(1.03018 -0.0309849 1.41846e-10)
(1.05692 -0.0519379 1.88903e-10)
(1.09086 -0.0641699 2.42532e-10)
(1.12562 -0.0649277 2.90446e-10)
(1.15509 -0.0545389 3.27915e-10)
(1.17482 -0.0360237 3.55005e-10)
(1.18266 -0.0139341 3.73562e-10)
(1.17884 0.00700191 3.84931e-10)
(1.16561 0.0230246 3.88561e-10)
(1.14664 0.0320707 3.81664e-10)
(1.12602 0.0338844 3.60305e-10)
(1.10751 0.0295177 3.22309e-10)
(1.09414 0.0205848 2.70745e-10)
(1.08809 0.00879633 2.14795e-10)
(1.09054 -0.00400054 1.6629e-10)
(1.10114 -0.0156156 1.34251e-10)
(1.11769 -0.0236948 1.21474e-10)
(1.13644 -0.0264121 1.25011e-10)
(1.15314 -0.0232434 1.39141e-10)
(1.16428 -0.015278 1.58326e-10)
(1.16795 -0.00487605 1.7875e-10)
(1.16413 0.00510852 1.98391e-10)
(1.15439 0.0121391 2.16258e-10)
(1.14143 0.0145608 2.3164e-10)
(1.12828 0.011773 2.43736e-10)
(1.11793 0.00411495 2.51612e-10)
(1.11269 -0.00746213 2.5427e-10)
(1.1147 -0.0215608 2.50906e-10)
(1.12479 -0.0365304 2.4158e-10)
(1.14388 -0.050272 2.28013e-10)
(1.16978 -0.0605629 2.13409e-10)
(1.20134 -0.0653619 2.0127e-10)
(1.23302 -0.0623737 1.92999e-10)
(1.26179 -0.0559424 1.89692e-10)
(1.28798 -0.028768 1.8512e-10)
(1.00013 -0.00281485 4.63746e-18)
(1.00186 -0.0082179 1.28529e-17)
(1.00565 -0.0135716 1.53163e-17)
(1.01132 -0.0189804 6.32228e-18)
(1.01917 -0.0244979 4.80527e-17)
(1.02944 -0.0299516 -1.68822e-17)
(1.04239 -0.0349223 1.87024e-17)
(1.05797 -0.0384146 -6.34929e-17)
(1.07537 -0.039315 4.73045e-16)
(1.09315 -0.036355 9.01111e-16)
(1.10784 -0.029088 -8.95043e-16)
(1.11736 -0.0207741 -2.01118e-15)
(1.1221 -0.0133565 2.39631e-16)
(1.12355 -0.00919185 2.5541e-15)
(1.12492 -0.00840892 5.63367e-16)
(1.12863 -0.00873503 -4.4276e-15)
(1.13494 -0.00644692 -6.86953e-15)
(1.14068 0.00196009 -5.82067e-15)
(1.14061 0.0164689 -3.03934e-15)
(1.13116 0.0334023 -2.09039e-15)
(1.11235 0.0480527 -2.09846e-15)
(1.08694 0.0570169 3.20278e-15)
(1.05869 0.0586986 -2.40115e-14)
(1.03123 0.0527145 -6.81756e-15)
(1.00794 0.0392522 3.9453e-13)
(0.992117 0.0188738 -1.42055e-12)
(0.987383 -0.00705389 -5.83627e-12)
(0.997462 -0.0350532 3.50409e-11)
(1.02389 -0.0582657 1.84803e-10)
(1.06222 -0.0680121 3.39265e-10)
(1.10131 -0.058782 3.15038e-10)
(1.12846 -0.0327527 1.56201e-10)
(1.13596 0.000983659 3.53655e-11)
(1.12402 0.0319896 -3.84991e-12)
(1.09851 0.0536348 -5.02178e-12)
(1.06654 0.064199 -4.11689e-12)
(1.03357 0.064699 -4.63666e-12)
(1.00315 0.0564436 3.5499e-11)
(0.978058 0.0398719 1.10291e-10)
(0.96115 0.0149285 -2.06178e-10)
(0.95586 -0.0173345 -1.9865e-09)
(0.966387 -0.0525048 -6.01998e-09)
(0.995929 -0.0816585 -1.13431e-08)
(1.04208 -0.0935822 -1.54067e-08)
(1.09395 -0.0808525 -1.58141e-08)
(1.1354 -0.0459039 -1.21933e-08)
(1.15294 -0.00089184 -6.77675e-09)
(1.14306 0.0395156 -2.40444e-09)
(1.11284 0.0659039 -2.11696e-10)
(1.07373 0.0765341 3.64346e-10)
(1.03486 0.074411 3.26638e-10)
(1.00077 0.0631375 9.86163e-11)
(0.972998 0.0444253 -7.25711e-10)
(0.953621 0.0180104 -2.83628e-09)
(0.947679 -0.0160162 -6.20332e-09)
(0.961168 -0.0534615 -9.76432e-09)
(0.995202 -0.0846126 -1.24435e-08)
(1.04275 -0.0980373 -1.40967e-08)
(1.09131 -0.0871307 -1.50523e-08)
(1.12827 -0.0540923 -1.50138e-08)
(1.14523 -0.00895202 -1.3088e-08)
(1.13967 0.034941 -9.19461e-09)
(1.11496 0.0664494 -4.71842e-09)
(1.07878 0.0806927 -1.30908e-09)
(1.03972 0.079105 3.20728e-10)
(1.00426 0.0659453 3.7077e-10)
(0.976641 0.0442714 -6.74296e-10)
(0.961023 0.0148858 -2.31918e-09)
(0.962264 -0.0207566 -3.9954e-09)
(0.982991 -0.0569117 -5.17492e-09)
(1.02013 -0.0838855 -5.66638e-09)
(1.065 -0.0926072 -5.69633e-09)
(1.10651 -0.0794946 -5.67816e-09)
(1.13496 -0.0481478 -5.83906e-09)
(1.14475 -0.00743767 -5.9418e-09)
(1.13545 0.0321348 -5.45074e-09)
(1.11094 0.0618286 -4.12406e-09)
(1.0775 0.0769098 -2.34256e-09)
(1.04168 0.0769808 -8.03722e-10)
(1.00918 0.0642981 4.8145e-12)
(0.985012 0.0414035 4.47141e-11)
(0.97409 0.0104705 -3.81886e-10)
(0.980271 -0.0248421 -8.82892e-10)