/*--------------------------------*- C++ -*----------------------------------*\
  =========                 |
  \\      /  F ield         | OpenFOAM: The Open Source CFD Toolbox
   \\    /   O peration     | Website:  https://openfoam.org
    \\  /    A nd           | Version:  11
     \\/     M anipulation  |
\*---------------------------------------------------------------------------*/
FoamFile
{
    format      ascii;
    class       volVectorField;
    location    "15.488253";
    object      vorticity;
}
// * * * * * * * * * * * * * * * * * * * * * * * * * * * * * * * * * * * * * //

dimensions      [0 0 -1 0 0 0 0];

internalField   nonuniform List<vector> 
7132
(
(-7.18254e-17 -1.90962e-15 -0.0102582)
(-2.64685e-16 -1.85689e-15 -0.0097668)
(-2.86317e-16 -6.91705e-17 -0.00925351)
(-3.71709e-16 -1.84637e-15 -0.00884077)
(-4.74699e-16 -1.80564e-15 -0.00860682)
(-4.6704e-16 -2.71333e-18 -0.00859594)
(-4.41025e-16 2.08153e-17 -0.00881698)
(-3.80316e-16 3.55967e-17 -0.00923856)
(-3.60119e-16 4.57224e-17 -0.00979206)
(-3.45491e-16 5.06706e-17 -0.010383)
(-2.92412e-16 4.93768e-17 -0.0108977)
(-1.98913e-16 4.2684e-17 -0.0112546)
(-1.67257e-16 4.0126e-17 -0.011385)
(-2.02225e-16 5.34337e-17 -0.0112764)
(-2.83429e-16 -1.67901e-15 -0.0109667)
(-3.42332e-16 -3.44323e-15 -0.0105453)
(-3.18715e-16 -1.7318e-15 -0.0101457)
(-2.22329e-16 -1.3494e-18 -0.0099145)
(-1.18656e-16 -1.75754e-15 -0.00993896)
(-8.15709e-17 -1.77033e-15 -0.0102103)
(-6.39496e-17 -1.87383e-17 -0.0106377)
(-7.44229e-17 3.16783e-18 -0.011087)
(-1.06957e-16 -3.02763e-17 -0.0114146)
(2.82001e-16 -3.86591e-17 -0.0114889)
(6.36442e-16 2.35499e-15 -0.0112096)
(-7.26516e-15 1.5533e-15 -0.0105512)
(-1.51172e-14 -8.79197e-15 -0.00965252)
(1.50501e-13 -4.38519e-14 -0.00878836)
(7.09487e-13 -6.6098e-14 -0.00816525)
(1.28546e-12 -2.19534e-14 -0.00785424)
(1.19272e-12 4.29209e-14 -0.00790275)
(5.95711e-13 5.88112e-14 -0.0084393)
(1.45876e-13 3.44046e-14 -0.00952654)
(-2.44378e-14 1.6785e-14 -0.0109256)
(-4.27958e-14 -7.44799e-15 -0.0122384)
(1.535e-13 -3.46854e-14 -0.0131408)
(3.82729e-13 8.50055e-14 -0.013445)
(-1.3694e-12 5.31507e-13 -0.0130869)
(-7.71085e-12 2.50218e-13 -0.0121273)
(-4.40976e-12 -4.67857e-12 -0.0108202)
(8.01982e-11 -1.8325e-11 -0.0097352)
(3.62528e-10 -3.50589e-11 -0.00949671)
(8.19148e-10 -3.68163e-11 -0.0101087)
(1.1573e-09 -1.39893e-11 -0.0108075)
(1.09469e-09 1.74244e-11 -0.0109441)
(7.11745e-10 3.44929e-11 -0.0108368)
(3.1638e-10 3.17743e-11 -0.0112767)
(8.07045e-11 1.90825e-11 -0.0124102)
(-1.19782e-11 7.29859e-12 -0.0137274)
(-2.58761e-11 2.6603e-14 -0.0146556)
(4.06514e-13 -4.42224e-12 -0.01486)
(4.989e-11 -9.23759e-13 -0.0142945)
(1.73049e-11 3.10913e-11 -0.0130424)
(-4.6827e-10 1.11077e-10 -0.0110726)
(-2.07243e-09 2.29522e-10 -0.00821313)
(-5.32165e-09 3.3446e-10 -0.00434979)
(-9.65623e-09 3.49303e-10 -5.56061e-05)
(-1.3115e-08 2.31605e-10 0.00304651)
(-1.37143e-08 1.35805e-11 0.00331863)
(-1.12332e-08 -2.23556e-10 0.00043137)
(-7.21644e-09 -3.78759e-10 -0.00459745)
(-3.48345e-09 -3.76075e-10 -0.0100189)
(-1.03836e-09 -2.56622e-10 -0.0141463)
(9.07321e-11 -1.28437e-10 -0.0162517)
(3.83336e-10 -4.41581e-12 -0.0164673)
(2.17194e-10 2.4808e-10 -0.0151035)
(-5.18671e-10 8.07643e-10 -0.0120644)
(-2.41481e-09 1.71813e-09 -0.00684104)
(-6.10644e-09 2.76851e-09 0.000895055)
(-1.15878e-08 3.5218e-09 0.0106868)
(-1.77773e-08 3.50598e-09 0.0212115)
(-2.27941e-08 2.49495e-09 0.0304895)
(-2.48245e-08 6.88217e-10 0.0361601)
(-2.30758e-08 -1.36408e-09 0.0360394)
(-1.82509e-08 -3.02623e-09 0.0292557)
(-1.21042e-08 -3.82892e-09 0.0172854)
(-6.42422e-09 -3.62173e-09 0.00360193)
(-2.34599e-09 -2.63059e-09 -0.0079121)
(-1.29466e-10 -1.33211e-09 -0.0146407)
(5.74518e-10 -1.64302e-10 -0.0160089)
(2.7371e-10 6.83434e-10 -0.0131482)
(-6.59557e-10 1.23953e-09 -0.00798472)
(-1.99943e-09 1.57987e-09 -0.00237355)
(-3.5189e-09 1.71429e-09 0.00266122)
(-4.91632e-09 1.59884e-09 0.00744028)
(-5.8902e-09 1.20695e-09 0.0130405)
(-6.24274e-09 5.76542e-10 0.0197973)
(-5.92008e-09 -1.90642e-10 0.0261772)
(-5.01697e-09 -9.55591e-10 0.0292699)
(-3.75787e-09 -1.56451e-09 0.0267852)
(-2.42495e-09 -1.86995e-09 0.0187261)
(-1.27155e-09 -1.80459e-09 0.00745878)
(-4.4229e-10 -1.46466e-09 -0.00345299)
(5.49071e-11 -1.07279e-09 -0.0111857)
(3.12725e-10 -8.25506e-10 -0.0151314)
(4.54891e-10 -7.72573e-10 -0.0168158)
(5.77253e-10 -8.33706e-10 -0.0184033)
(7.23661e-10 -9.00559e-10 -0.020811)
(8.89743e-10 -9.11422e-10 -0.0228203)
(1.03926e-09 -8.561e-10 -0.0221102)
(1.13025e-09 -7.41942e-10 -0.0171678)
(1.14055e-09 -5.58532e-10 -0.00855262)
(1.07464e-09 -2.62076e-10 0.00122247)
(9.52114e-10 1.97976e-10 0.00904919)
(7.9402e-10 7.96827e-10 0.0126937)
(6.15501e-10 1.3562e-09 0.0113419)
(4.33624e-10 1.59216e-09 0.00570113)
(2.79581e-10 1.31349e-09 -0.00263646)
(1.98533e-10 5.96613e-10 -0.0122967)
(2.32174e-10 -2.5589e-10 -0.0227461)
(3.9512e-10 -9.32157e-10 -0.0338919)
(6.60859e-10 -1.2846e-09 -0.0449637)
(9.68143e-10 -1.33819e-09 -0.0538396)
(1.24279e-09 -1.19829e-09 -0.0579538)
(1.42112e-09 -9.67699e-10 -0.0558655)
(1.46633e-09 -7.10454e-10 -0.0480761)
(1.3764e-09 -4.40665e-10 -0.0366928)
(1.18207e-09 -1.19778e-10 -0.0243282)
(9.3266e-10 3.1399e-10 -0.0130312)
(6.76953e-10 8.65429e-10 -0.00431335)
(4.50389e-10 1.404e-09 0.000619665)
(2.74063e-10 1.69218e-09 0.000842844)
(1.59863e-10 1.54827e-09 -0.00421815)
(1.12947e-10 1.00392e-09 -0.0146184)
(1.29558e-10 2.90593e-10 -0.0296125)
(1.94911e-10 -3.27674e-10 -0.0473443)
(2.85321e-10 -7.05397e-10 -0.0646158)
(3.75338e-10 -8.40163e-10 -0.0775644)
(4.45397e-10 -8.06697e-10 -0.0832476)
(4.85138e-10 -6.87345e-10 -0.0808802)
(4.9211e-10 -5.3981e-10 -0.0718873)
(4.69013e-10 -3.93279e-10 -0.0589942)
(4.22146e-10 -2.51603e-10 -0.0450186)
(3.60532e-10 -9.63152e-11 -0.0318202)
(2.93875e-10 1.01935e-10 -0.0201928)
(2.29809e-10 3.57276e-10 -0.0104472)
(1.73358e-10 6.39955e-10 -0.00298051)
(1.28524e-10 8.73609e-10 0.00134695)
(9.94813e-11 9.72463e-10 0.00127597)
(8.92477e-11 8.93155e-10 -0.00429995)
(9.7039e-11 6.59318e-10 -0.0155716)
(1.17095e-10 3.43289e-10 -0.0312337)
(1.40347e-10 2.60418e-11 -0.0485375)
(1.58283e-10 -2.34146e-10 -0.0641133)
(1.66242e-10 -4.10895e-10 -0.0750902)
(1.64266e-10 -5.02618e-10 -0.0799252)
(1.55642e-10 -5.21028e-10 -0.0785927)
(1.44411e-10 -4.82856e-10 -0.072115)
(1.33532e-10 -4.06202e-10 -0.0619518)
(1.2434e-10 -3.09036e-10 -0.0495492)
(1.16891e-10 -2.0739e-10 -0.0360363)
(1.10441e-10 -1.13118e-10 -0.022134)
(1.03674e-10 -3.25492e-11 -0.00820654)
(9.50284e-11 3.28969e-11 0.00544817)
(8.33053e-11 8.54945e-11 0.0184004)
(6.86939e-11 1.26522e-10 0.0297947)
(5.33528e-11 1.66469e-10 0.0398008)
(4.20361e-11 1.77214e-10 0.0437531)
(3.53604e-11 2.86267e-10 0.0590737)
(4.94839e-11 2.03535e-10 0.0425107)
(-7.23147e-17 -7.70366e-18 -0.0307347)
(-2.77262e-16 -1.4711e-17 -0.0292505)
(-3.16414e-16 -1.65055e-17 -0.0276781)
(-4.15346e-16 -1.91503e-17 -0.0263803)
(-5.40973e-16 -2.15574e-17 -0.0255979)
(-5.61741e-16 -1.78561e-17 -0.0254803)
(-5.44577e-16 -2.25468e-17 -0.0260809)
(-5.24878e-16 -4.85628e-18 -0.027337)
(-5.21609e-16 1.76303e-15 -0.0290757)
(-4.58534e-16 1.6817e-17 -0.0310399)
(-2.35827e-16 -2.3912e-17 -0.0328977)
(-1.34257e-16 1.71483e-15 -0.0343986)
(-5.30882e-16 4.1782e-17 -0.035297)
(-1.29385e-15 1.10673e-16 -0.0354872)
(-1.88073e-15 1.25347e-16 -0.0349703)
(-1.74885e-15 4.46025e-17 -0.033865)
(-9.45332e-16 -5.66498e-17 -0.032386)
(-1.5291e-16 -9.9579e-17 -0.0308185)
(2.35788e-16 -8.98076e-17 -0.0294409)
(2.72816e-16 -6.46493e-17 -0.0284604)
(1.60445e-16 -2.57005e-17 -0.0279842)
(-1.33484e-16 2.46713e-17 -0.0280155)
(4.77451e-16 -2.08488e-16 -0.0284613)
(3.87752e-16 -4.13746e-16 -0.0291613)
(-1.45976e-14 4.39385e-15 -0.0299438)
(3.26371e-14 9.43353e-15 -0.0307114)
(2.93615e-13 -8.76751e-14 -0.0315245)
(-1.07588e-12 -4.06154e-13 -0.0324636)
(-7.54842e-12 -6.33569e-13 -0.0333089)
(-1.36894e-11 -2.65303e-13 -0.0335862)
(-1.11902e-11 3.87789e-13 -0.0329999)
(-4.59722e-12 5.78762e-13 -0.0317999)
(-7.9406e-13 3.41006e-13 -0.0305643)
(6.97328e-14 1.07648e-13 -0.029682)
(1.11483e-13 -9.98879e-14 -0.0292465)
(9.98059e-13 -2.47448e-13 -0.0291444)
(1.17259e-12 8.44723e-13 -0.0291757)
(-8.83109e-12 4.57656e-12 -0.0292181)
(-3.13562e-11 1.76867e-12 -0.029435)
(1.10514e-11 -4.86366e-11 -0.0304653)
(3.67352e-10 -2.01794e-10 -0.033421)
(1.27669e-09 -4.04535e-10 -0.0389426)
(2.54389e-09 -4.34206e-10 -0.0456497)
(3.50935e-09 -1.51762e-10 -0.0502474)
(3.49893e-09 2.40201e-10 -0.0499975)
(2.4882e-09 4.23645e-10 -0.0453473)
(1.23999e-09 3.47293e-10 -0.0394454)
(3.89509e-10 1.8326e-10 -0.0348478)
(-1.24646e-11 6.05872e-11 -0.032145)
(-1.02807e-10 -6.17095e-12 -0.0308722)
(1.56606e-11 -4.2307e-11 -0.0303759)
(2.46804e-10 -9.37123e-12 -0.0303114)
(-3.11375e-11 2.9017e-10 -0.0301971)
(-2.78621e-09 1.15594e-09 -0.0281622)
(-1.12216e-08 2.65621e-09 -0.0205768)
(-2.72482e-08 4.12636e-09 -0.0047195)
(-4.76315e-08 4.24597e-09 0.0166177)
(-6.36739e-08 2.26063e-09 0.0343606)
(-6.67907e-08 -9.27295e-10 0.0390105)
(-5.54335e-08 -3.47249e-09 0.02805)
(-3.61912e-08 -4.25365e-09 0.00752254)
(-1.78702e-08 -3.46511e-09 -0.0132583)
(-5.59184e-09 -2.04371e-09 -0.0276974)
(2.12184e-10 -8.39282e-10 -0.0342257)
(1.73438e-09 -6.76486e-11 -0.0348516)
(9.68017e-10 6.99085e-10 -0.0318737)
(-1.93257e-09 2.12365e-09 -0.0257227)
(-8.36887e-09 4.51201e-09 -0.0152667)
(-1.94749e-08 7.35499e-09 0.000344711)
(-3.42184e-08 9.35725e-09 0.0204476)
(-4.93475e-08 9.10915e-09 0.0437333)
(-6.10261e-08 6.01852e-09 0.0684193)
(-6.6165e-08 8.29086e-10 0.0899681)
(-6.29916e-08 -4.65087e-09 0.100308)
(-5.19361e-08 -8.51208e-09 0.0923578)
(-3.61702e-08 -9.74226e-09 0.0662583)
(-2.02715e-08 -8.50081e-09 0.0304497)
(-8.00699e-09 -5.77797e-09 -0.0030865)
(-8.99323e-10 -2.79236e-09 -0.0251689)
(1.57281e-09 -3.65892e-10 -0.0331825)
(7.93695e-10 1.30047e-09 -0.030813)
(-1.94522e-09 2.3761e-09 -0.0248289)
(-5.6295e-09 3.00954e-09 -0.0207979)
(-9.31552e-09 3.17274e-09 -0.0194459)
(-1.21815e-08 2.78449e-09 -0.0158496)
(-1.38138e-08 1.87016e-09 -0.00345692)
(-1.42326e-08 5.91484e-10 0.0197772)
(-1.35802e-08 -8.03524e-10 0.0482009)
(-1.19204e-08 -2.0367e-09 0.0707293)
(-9.39435e-09 -2.86053e-09 0.0772665)
(-6.41558e-09 -3.11311e-09 0.064702)
(-3.57215e-09 -2.79592e-09 0.0381882)
(-1.35166e-09 -2.12788e-09 0.00782467)
(7.22985e-11 -1.4503e-09 -0.017756)
(8.41977e-10 -1.0255e-09 -0.0364604)
(1.2552e-09 -9.04835e-10 -0.0522622)
(1.59036e-09 -9.6809e-10 -0.0695762)
(2.0057e-09 -1.0568e-09 -0.0873996)
(2.50626e-09 -1.06922e-09 -0.0987369)
(2.97027e-09 -9.76354e-10 -0.095905)
(3.24127e-09 -7.92583e-10 -0.076198)
(3.23702e-09 -5.3072e-10 -0.0435478)
(2.98889e-09 -1.6786e-10 -0.00658595)
(2.58916e-09 3.38286e-10 0.0248838)
(2.1184e-09 9.65135e-10 0.0433012)
(1.62074e-09 1.53639e-09 0.0451481)
(1.13618e-09 1.76013e-09 0.0314945)
(7.43521e-10 1.43104e-09 0.00622574)
(5.56578e-10 6.20318e-10 -0.027043)
(6.67196e-10 -3.54183e-10 -0.0662262)
(1.08306e-09 -1.1465e-09 -0.108674)
(1.71218e-09 -1.57111e-09 -0.148168)
(2.40454e-09 -1.62916e-09 -0.175405)
(3.01102e-09 -1.42478e-09 -0.182855)
(3.419e-09 -1.07946e-09 -0.169145)
(3.56061e-09 -6.88096e-10 -0.139094)
(3.41496e-09 -2.98536e-10 -0.100474)
(3.01467e-09 1.02092e-10 -0.0606939)
(2.44385e-09 5.6655e-10 -0.025205)
(1.80962e-09 1.10657e-09 0.00186953)
(1.21131e-09 1.60544e-09 0.016949)
(7.28037e-10 1.83745e-09 0.0168309)
(4.15253e-10 1.62883e-09 -0.000917089)
(2.95382e-10 1.01908e-09 -0.0368719)
(3.47341e-10 2.49613e-10 -0.087921)
(5.11581e-10 -4.05554e-10 -0.145717)
(7.13892e-10 -7.95609e-10 -0.197439)
(8.93345e-10 -9.20201e-10 -0.230335)
(1.01738e-09 -8.61595e-10 -0.237501)
(1.07955e-09 -7.107e-10 -0.220358)
(1.08721e-09 -5.31746e-10 -0.186478)
(1.04921e-09 -3.58295e-10 -0.14518)
(9.71267e-10 -1.97362e-10 -0.10396)
(8.60218e-10 -3.21782e-11 -0.0669438)
(7.26896e-10 1.67299e-10 -0.0355658)
(5.83453e-10 4.17536e-10 -0.0101948)
(4.43314e-10 6.906e-10 0.00815994)
(3.23888e-10 9.10547e-10 0.0168176)
(2.45768e-10 9.92103e-10 0.0118902)
(2.24148e-10 8.94378e-10 -0.00961763)
(2.58246e-10 6.45396e-10 -0.0471688)
(3.28523e-10 3.21639e-10 -0.0952824)
(4.04951e-10 5.44762e-12 -0.144685)
(4.60797e-10 -2.47092e-10 -0.185577)
(4.82709e-10 -4.13885e-10 -0.21095)
(4.72396e-10 -4.97316e-10 -0.21821)
(4.41255e-10 -5.11099e-10 -0.208751)
(4.02574e-10 -4.71801e-10 -0.186248)
(3.65953e-10 -3.96164e-10 -0.15505)
(3.35465e-10 -3.00714e-10 -0.119038)
(3.10498e-10 -2.00439e-10 -0.0809403)
(2.87454e-10 -1.06508e-10 -0.0423336)
(2.60883e-10 -2.4843e-11 -0.00405462)
(2.25102e-10 4.30849e-11 0.0330065)
(1.77354e-10 9.86635e-11 0.0673516)
(1.21679e-10 1.415e-10 0.0966823)
(6.91763e-11 1.79799e-10 0.122036)
(3.73433e-11 1.8621e-10 0.130868)
(2.51131e-11 2.82545e-10 0.175054)
(8.63579e-11 1.96476e-10 0.128774)
(-2.05461e-18 -1.117e-19 -0.0510888)
(-3.10931e-17 -1.18739e-19 -0.0485811)
(-6.38292e-17 -1.28653e-19 -0.0459024)
(-9.95322e-17 6.3242e-19 -0.04366)
(-1.58353e-16 2.28058e-18 -0.0422659)
(-1.89562e-16 -9.11573e-19 -0.0419877)
(-2.30448e-16 2.38406e-18 -0.0429394)
(-3.75e-16 3.08889e-17 -0.045042)
(-4.24887e-16 1.255e-17 -0.0480326)
(1.67971e-16 -9.89966e-17 -0.051498)
(6.75131e-16 -1.05985e-16 -0.0548848)
(-1.10873e-15 1.90212e-16 -0.0577822)
(-4.42587e-15 6.13147e-16 -0.0597393)
(-3.87257e-15 7.28358e-16 -0.060522)
(4.19045e-15 2.83213e-16 -0.0600202)
(1.49347e-14 -4.41481e-16 -0.0582884)
(1.95114e-14 -7.95039e-16 -0.0555294)
(1.66631e-14 -5.9191e-16 -0.0520785)
(1.05418e-14 -2.3568e-16 -0.0483916)
(5.01815e-15 2.06933e-18 -0.044995)
(8.21785e-16 1.84412e-16 -0.0424074)
(-2.86337e-16 -1.55335e-16 -0.0410561)
(1.10154e-14 -2.90894e-16 -0.0412002)
(-3.92607e-14 7.49888e-15 -0.0428907)
(-1.78019e-13 -1.55044e-14 -0.0459952)
(1.09113e-12 -1.52553e-13 -0.0502565)
(2.92849e-12 5.45468e-13 -0.0552702)
(-2.19407e-11 3.87717e-12 -0.0603031)
(-1.06578e-10 6.24067e-12 -0.0641702)
(-1.92551e-10 1.79721e-12 -0.0656106)
(-1.79663e-10 -4.50492e-12 -0.0639273)
(-9.16197e-11 -5.141e-12 -0.0593708)
(-2.33177e-11 -2.29907e-12 -0.0530022)
(6.94904e-13 -4.39449e-13 -0.0462703)
(4.10582e-12 -4.7336e-13 -0.0405767)
(3.79546e-12 -5.6698e-13 -0.0368819)
(-4.96358e-12 4.99787e-12 -0.0356213)
(-2.27421e-11 1.67959e-11 -0.0369648)
(3.18976e-11 -9.69276e-12 -0.0412856)
(2.01503e-10 -2.04034e-10 -0.0491003)
(-2.53611e-10 -6.51147e-10 -0.0596451)
(-3.33949e-09 -1.12333e-09 -0.0693554)
(-9.39652e-09 -1.15315e-09 -0.0749065)
(-1.3978e-08 -4.9151e-10 -0.0775231)
(-1.26351e-08 5.28e-10 -0.0788768)
(-7.15805e-09 1.16396e-09 -0.0763629)
(-2.25971e-09 1.08112e-09 -0.0679865)
(2.84914e-11 6.4531e-10 -0.0560467)
(3.52539e-10 2.53455e-10 -0.0445164)
(1.24901e-10 -1.40377e-11 -0.0365939)
(2.54408e-10 -1.79228e-10 -0.0336518)
(6.4584e-10 2.24788e-11 -0.0353169)
(-9.54829e-10 1.5476e-09 -0.0383432)
(-1.00683e-08 5.70633e-09 -0.0347986)
(-3.31323e-08 1.24605e-08 -0.0143112)
(-7.06789e-08 1.85394e-08 0.0270758)
(-1.13276e-07 1.85622e-08 0.080863)
(-1.45805e-07 9.8112e-09 0.129199)
(-1.54842e-07 -4.10664e-09 0.151753)
(-1.35263e-07 -1.55233e-08 0.135965)
(-9.5098e-08 -1.91604e-08 0.088255)
(-5.15005e-08 -1.56757e-08 0.0313275)
(-1.8736e-08 -9.29781e-09 -0.0128886)
(-1.3407e-09 -3.79154e-09 -0.035698)
(4.08767e-09 -3.82331e-10 -0.0412356)
(2.48679e-09 2.08156e-09 -0.0375464)
(-4.12853e-09 5.47609e-09 -0.0298836)
(-1.61087e-08 1.04893e-08 -0.0207048)
(-3.25288e-08 1.56933e-08 -0.0117399)
(-4.93923e-08 1.84581e-08 -0.00200912)
(-6.24476e-08 1.69098e-08 0.0159784)
(-7.06541e-08 1.09037e-08 0.0509459)
(-7.51962e-08 1.67099e-09 0.100221)
(-7.555e-08 -8.47854e-09 0.145112)
(-6.87673e-08 -1.64369e-08 0.161954)
(-5.36621e-08 -1.96612e-08 0.139915)
(-3.38818e-08 -1.77033e-08 0.0889364)
(-1.55672e-08 -1.23167e-08 0.0314236)
(-3.30038e-09 -6.12201e-09 -0.0124312)
(1.77099e-09 -1.01081e-09 -0.0353823)
(1.08223e-09 2.44245e-09 -0.0445721)
(-2.95269e-09 4.45113e-09 -0.0539723)
(-7.86322e-09 5.26503e-09 -0.0721659)
(-1.16059e-08 4.99028e-09 -0.0934017)
(-1.31841e-08 3.84797e-09 -0.100549)
(-1.29777e-08 2.23253e-09 -0.0790648)
(-1.21808e-08 4.59743e-10 -0.0286987)
(-1.16621e-08 -1.34678e-09 0.0360777)
(-1.12557e-08 -3.0485e-09 0.0935204)
(-1.01706e-08 -4.31691e-09 0.124327)
(-7.99429e-09 -4.78105e-09 0.120208)
(-5.09432e-09 -4.33655e-09 0.086864)
(-2.27774e-09 -3.28688e-09 0.0393834)
(-1.76156e-10 -2.16961e-09 -0.00860955)
(1.08454e-09 -1.41695e-09 -0.0536621)
(1.79796e-09 -1.14676e-09 -0.100379)
(2.38791e-09 -1.20895e-09 -0.149975)
(3.13671e-09 -1.35851e-09 -0.191811)
(4.04821e-09 -1.39371e-09 -0.208629)
(4.88966e-09 -1.2236e-09 -0.190227)
(5.36223e-09 -8.7532e-10 -0.140687)
(5.29469e-09 -4.32339e-10 -0.0740032)
(4.74534e-09 6.18564e-11 -0.00601805)
(3.93123e-09 6.33217e-10 0.049941)
(3.05928e-09 1.28104e-09 0.08409)
(2.24097e-09 1.84731e-09 0.0910569)
(1.53269e-09 2.03077e-09 0.0707653)
(1.01956e-09 1.60329e-09 0.0268057)
(8.20816e-10 6.34775e-10 -0.0366568)
(1.00491e-09 -5.19127e-10 -0.114639)
(1.51581e-09 -1.45465e-09 -0.196609)
(2.19409e-09 -1.94534e-09 -0.263984)
(2.86926e-09 -1.98762e-09 -0.297059)
(3.4317e-09 -1.70552e-09 -0.28703)
(3.83406e-09 -1.24249e-09 -0.241139)
(4.04695e-09 -7.08437e-10 -0.176472)
(4.02745e-09 -1.67693e-10 -0.109347)
(3.73648e-09 3.6578e-10 -0.0493076)
(3.1871e-09 9.16515e-10 -0.000266087)
(2.46024e-09 1.4817e-09 0.0352201)
(1.68688e-09 1.94479e-09 0.0529671)
(1.01693e-09 2.09021e-09 0.0467763)
(5.75874e-10 1.7646e-09 0.0105341)
(4.14529e-10 1.03788e-09 -0.057509)
(4.86133e-10 1.82496e-10 -0.149413)
(6.78176e-10 -5.10949e-10 -0.245107)
(8.76501e-10 -8.96279e-10 -0.317786)
(1.01262e-09 -9.91906e-10 -0.346523)
(1.07154e-09 -8.998e-10 -0.326841)
(1.07333e-09 -7.22262e-10 -0.27107)
(1.04862e-09 -5.24638e-10 -0.199537)
(1.01809e-09 -3.35306e-10 -0.130073)
(9.82298e-10 -1.57107e-10 -0.0721926)
(9.27415e-10 2.58702e-11 -0.0275141)
(8.38545e-10 2.4032e-10 0.00629499)
(7.10242e-10 4.99067e-10 0.0315984)
(5.5494e-10 7.69737e-10 0.0476382)
(4.06471e-10 9.72382e-10 0.0494558)
(3.10475e-10 1.02233e-09 0.0300088)
(3.00823e-10 8.86917e-10 -0.0148552)
(3.77998e-10 6.07131e-10 -0.0814366)
(5.07026e-10 2.69937e-10 -0.157163)
(6.36449e-10 -4.00956e-11 -0.225215)
(7.2331e-10 -2.73026e-10 -0.271729)
(7.48558e-10 -4.16693e-10 -0.29053)
(7.1803e-10 -4.81891e-10 -0.283094)
(6.52943e-10 -4.86117e-10 -0.25522)
(5.77029e-10 -4.45205e-10 -0.21353)
(5.07267e-10 -3.72647e-10 -0.163721)
(4.50345e-10 -2.81307e-10 -0.109827)
(4.03453e-10 -1.83385e-10 -0.054068)
(3.56905e-10 -8.8311e-11 0.00245782)
(2.97515e-10 -1.37329e-12 0.0583706)
(2.14779e-10 7.46614e-11 0.111345)
(1.1023e-10 1.37207e-10 0.158276)
(3.04402e-12 1.80611e-10 0.196701)
(-7.74049e-11 2.08637e-10 0.230973)
(-1.01383e-10 1.99246e-10 0.242722)
(-8.3077e-11 2.61759e-10 0.318384)
(6.50159e-11 1.72916e-10 0.249015)
(-8.53738e-17 8.87017e-18 -0.0712185)
(-2.48756e-16 1.61762e-17 -0.0676457)
(-2.33072e-16 1.77141e-17 -0.0638138)
(-3.18497e-16 2.81117e-17 -0.0605886)
(-3.41695e-16 2.34575e-17 -0.058562)
(-2.94666e-16 1.81913e-17 -0.0581217)
(-6.47958e-16 7.0172e-17 -0.0594363)
(-5.01707e-16 9.23631e-17 -0.0623954)
(8.40675e-16 1.49155e-15 -0.0666297)
(2.20443e-15 -5.33192e-16 -0.0715494)
(-2.47071e-16 -1.12029e-15 -0.0763529)
(-6.23439e-15 4.26533e-15 -0.0804979)
(-1.65246e-15 1.4237e-15 -0.0833257)
(3.91336e-14 -4.19749e-15 -0.0845158)
(1.23536e-13 -9.27827e-15 -0.0839017)
(2.03764e-13 -7.61588e-15 -0.0815401)
(2.08552e-13 -9.20866e-16 -0.0776441)
(1.48463e-13 4.38521e-15 -0.0726153)
(7.95001e-14 5.73267e-15 -0.0670981)
(2.74779e-14 4.79538e-15 -0.0618697)
(-5.64542e-15 2.62654e-15 -0.0577222)
(6.75895e-15 -5.07211e-15 -0.055379)
(2.54013e-14 1.92787e-14 -0.0553694)
(-3.78925e-13 9.41032e-14 -0.0579046)
(1.63198e-13 -5.60803e-13 -0.0628347)
(4.48556e-12 -1.54382e-12 -0.0696793)
(-6.63603e-12 1.14282e-11 -0.0776076)
(-3.92722e-11 5.43472e-11 -0.0854955)
(-1.60519e-12 8.46713e-11 -0.0918735)
(2.88061e-11 3.62771e-11 -0.0945948)
(-7.80694e-11 -5.00776e-11 -0.0920474)
(-1.39551e-10 -7.75939e-11 -0.0848706)
(-8.24531e-11 -4.58146e-11 -0.0748529)
(-1.67219e-11 -1.36041e-11 -0.0638587)
(1.24333e-11 -1.65016e-12 -0.0539467)
(2.47688e-12 4.28725e-12 -0.0469906)
(-4.19877e-11 1.41135e-11 -0.0442851)
(6.7465e-11 -1.3854e-11 -0.0468136)
(6.58669e-10 -1.10354e-10 -0.0555627)
(1.56609e-10 9.41177e-11 -0.0684534)
(-8.70847e-09 1.5687e-09 -0.0736378)
(-3.59565e-08 4.16692e-09 -0.0533697)
(-7.82784e-08 4.88503e-09 -0.00888615)
(-1.10952e-07 1.46755e-09 0.0273602)
(-1.08956e-07 -3.16975e-09 0.023438)
(-7.49332e-08 -4.76407e-09 -0.0143363)
(-3.4865e-08 -3.24598e-09 -0.0518585)
(-8.89484e-09 -1.12287e-09 -0.0665181)
(9.66659e-10 1.23824e-11 -0.0605074)
(2.19848e-09 4.28964e-11 -0.0480867)
(1.70502e-09 -3.02777e-10 -0.0410791)
(1.05991e-09 5.95247e-10 -0.0419749)
(-4.88317e-09 5.64725e-09 -0.0427161)
(-2.54553e-08 1.72447e-08 -0.0290407)
(-6.48524e-08 3.29615e-08 0.0080868)
(-1.13753e-07 4.41984e-08 0.064785)
(-1.5674e-07 4.1809e-08 0.134173)
(-1.8633e-07 2.30435e-08 0.211414)
(-2.00725e-07 -6.19803e-09 0.277312)
(-1.92734e-07 -3.33446e-08 0.295158)
(-1.55591e-07 -4.61351e-08 0.243167)
(-9.87893e-08 -4.16461e-08 0.143056)
(-4.44401e-08 -2.71236e-08 0.04279)
(-8.9189e-09 -1.22511e-08 -0.0226171)
(5.42993e-09 -1.98139e-09 -0.0479082)
(4.33738e-09 4.80719e-09 -0.0473509)
(-6.62092e-09 1.14214e-08 -0.0398249)
(-2.32056e-08 1.87121e-08 -0.0421028)
(-3.94648e-08 2.39968e-08 -0.0620719)
(-4.85963e-08 2.43167e-08 -0.0868545)
(-4.83676e-08 1.97401e-08 -0.0843014)
(-4.36685e-08 1.23928e-08 -0.0299337)
(-4.23719e-08 3.27706e-09 0.067897)
(-4.7748e-08 -7.86533e-09 0.170862)
(-5.4347e-08 -1.9456e-08 0.233885)
(-5.31067e-08 -2.7185e-08 0.231154)
(-4.09564e-08 -2.75483e-08 0.17065)
(-2.31054e-08 -2.10687e-08 0.0857813)
(-7.66572e-09 -1.14614e-08 0.0117263)
(3.27742e-10 -2.5572e-09 -0.0366835)
(7.09227e-10 3.66231e-09 -0.0706052)
(-3.35465e-09 6.84882e-09 -0.111734)
(-7.76156e-09 7.33617e-09 -0.166204)
(-9.57053e-09 5.83319e-09 -0.211449)
(-8.18244e-09 3.47039e-09 -0.213196)
(-5.06794e-09 1.36848e-09 -0.1564)
(-2.48404e-09 -6.63388e-11 -0.0569549)
(-2.0314e-09 -1.26605e-09 0.0524603)
(-3.6378e-09 -2.78246e-09 0.140999)
(-5.68697e-09 -4.49124e-09 0.188091)
(-6.42082e-09 -5.65124e-09 0.186204)
(-5.2712e-09 -5.65419e-09 0.14267)
(-2.97971e-09 -4.58696e-09 0.0751163)
(-6.84114e-10 -3.13144e-09 -0.00113173)
(9.83247e-10 -2.01255e-09 -0.0826322)
(2.11143e-09 -1.55652e-09 -0.171301)
(3.13069e-09 -1.63747e-09 -0.256878)
(4.3174e-09 -1.88695e-09 -0.31129)
(5.609e-09 -1.94569e-09 -0.307194)
(6.7329e-09 -1.63336e-09 -0.241537)
(7.37943e-09 -9.95097e-10 -0.138376)
(7.32127e-09 -2.22279e-10 -0.0306972)
(6.54154e-09 5.13867e-10 0.0582667)
(5.28237e-09 1.18132e-09 0.119021)
(3.89841e-09 1.81027e-09 0.148769)
(2.65982e-09 2.29969e-09 0.146146)
(1.70437e-09 2.37083e-09 0.110399)
(1.11626e-09 1.78698e-09 0.0417738)
(9.57319e-10 6.27643e-10 -0.057463)
(1.20239e-09 -7.01679e-10 -0.177621)
(1.70134e-09 -1.74109e-09 -0.29427)
(2.25071e-09 -2.24783e-09 -0.371298)
(2.70884e-09 -2.24796e-09 -0.380004)
(3.04491e-09 -1.90718e-09 -0.31872)
(3.2988e-09 -1.38709e-09 -0.21399)
(3.50295e-09 -7.84792e-10 -0.103062)
(3.62395e-09 -1.43303e-10 -0.0131762)
(3.56586e-09 5.2227e-10 0.0474421)
(3.2389e-09 1.20467e-09 0.0837432)
(2.63768e-09 1.85668e-09 0.102409)
(1.8753e-09 2.3271e-09 0.103253)
(1.15184e-09 2.39295e-09 0.0776301)
(6.61495e-10 1.93003e-09 0.0141907)
(4.86722e-10 1.06395e-09 -0.0901887)
(5.62757e-10 1.17789e-10 -0.219535)
(7.43031e-10 -6.00738e-10 -0.33744)
(8.9736e-10 -9.62832e-10 -0.402074)
(9.64192e-10 -1.01772e-09 -0.389712)
(9.44402e-10 -8.91949e-10 -0.307712)
(8.72252e-10 -6.99236e-10 -0.187897)
(7.91049e-10 -5.04127e-10 -0.0680911)
(7.35907e-10 -3.25137e-10 0.0248106)
(7.18966e-10 -1.52022e-10 0.082027)
(7.21665e-10 3.96985e-11 0.109351)
(7.05369e-10 2.75886e-10 0.118587)
(6.37183e-10 5.59338e-10 0.119211)
(5.16395e-10 8.42484e-10 0.112643)
(3.85474e-10 1.03278e-09 0.0916012)
(3.10892e-10 1.04493e-09 0.0457608)
(3.41032e-10 8.60616e-10 -0.0284861)
(4.7384e-10 5.42295e-10 -0.120713)
(6.58972e-10 1.92412e-10 -0.208469)
(8.28906e-10 -1.02694e-10 -0.268649)
(9.32115e-10 -3.03147e-10 -0.289236)
(9.49151e-10 -4.11245e-10 -0.272729)
(8.90923e-10 -4.49509e-10 -0.230778)
(7.8668e-10 -4.40599e-10 -0.175928)
(6.68836e-10 -3.98963e-10 -0.116595)
(5.61245e-10 -3.32822e-10 -0.0565262)
(4.73118e-10 -2.48807e-10 0.00388676)
(3.98065e-10 -1.53719e-10 0.0656532)
(3.17013e-10 -5.35395e-11 0.129088)
(2.07328e-10 4.622e-11 0.191322)
(6.04744e-11 1.36728e-10 0.247738)
(-1.01202e-10 2.04531e-10 0.295442)
(-2.28537e-10 2.35317e-10 0.336564)
(-2.74844e-10 2.32013e-10 0.383084)
(-2.19454e-10 1.89046e-10 0.40976)
(-1.07918e-10 1.99347e-10 0.535338)
(1.46483e-10 1.2243e-10 0.458176)
(1.00671e-16 1.90168e-15 -0.0909756)
(2.87205e-16 1.80845e-15 -0.0862779)
(3.39825e-16 3.47418e-17 -0.0812151)
(2.05574e-16 1.78967e-15 -0.0769264)
(1.07788e-15 1.72509e-15 -0.0741982)
(-1.84495e-16 1.88694e-15 -0.0735504)
(5.00151e-16 1.05905e-16 -0.0752108)
(-1.03058e-15 -6.86322e-16 -0.079034)
(9.77173e-15 -1.34052e-15 -0.0845391)
(1.7721e-14 -1.3305e-15 -0.0909424)
(-1.86564e-14 4.12698e-15 -0.0971596)
(-3.92417e-14 9.06461e-16 -0.102562)
(9.09829e-15 -2.20844e-14 -0.106251)
(5.49111e-14 -6.18659e-14 -0.107848)
(7.17803e-15 -8.20319e-14 -0.107116)
(-1.03266e-13 -4.12147e-14 -0.104106)
(-1.56705e-13 2.85903e-14 -0.0990973)
(-1.32983e-13 6.3934e-14 -0.0925796)
(-7.13645e-14 6.19914e-14 -0.0853761)
(-4.69658e-14 4.60443e-14 -0.0785004)
(-4.29291e-14 1.05439e-14 -0.0729798)
(6.4205e-14 -1.56787e-14 -0.0697691)
(-4.91334e-13 1.92551e-13 -0.06961)
(-9.76444e-14 -6.13992e-14 -0.0728462)
(8.0677e-12 -2.44775e-12 -0.0793388)
(-2.9494e-11 3.24533e-12 -0.0883575)
(-1.19636e-10 2.24243e-11 -0.0987767)
(7.22591e-10 1.36175e-12 -0.111035)
(3.80185e-09 -2.77984e-11 -0.125678)
(6.97642e-09 4.00293e-11 -0.135889)
(6.47909e-09 7.96717e-11 -0.132254)
(3.21497e-09 -2.95089e-12 -0.116701)
(7.30463e-10 -6.37135e-11 -0.0982623)
(-7.76663e-11 -4.78844e-11 -0.081532)
(-1.0449e-10 -1.00745e-11 -0.0676638)
(-8.63026e-11 2.66418e-11 -0.0578584)
(-8.82166e-11 -2.74979e-11 -0.0539549)
(7.34241e-10 -3.33532e-10 -0.0586693)
(2.18263e-09 -5.42665e-11 -0.0726837)
(-4.32001e-09 4.47953e-09 -0.0821326)
(-3.9565e-08 1.74054e-08 -0.0497807)
(-1.17459e-07 3.36616e-08 0.0546649)
(-2.18363e-07 3.63448e-08 0.206799)
(-2.95424e-07 1.48475e-08 0.330956)
(-3.04849e-07 -1.74816e-08 0.350974)
(-2.37494e-07 -3.58817e-08 0.251273)
(-1.33629e-07 -3.19381e-08 0.0991859)
(-4.82092e-08 -1.72705e-08 -0.0180199)
(-4.5738e-09 -5.29321e-09 -0.0664731)
(7.19125e-09 -3.83221e-10 -0.0673547)
(6.27868e-09 3.90058e-10 -0.0562328)
(1.2711e-09 3.31658e-09 -0.0494918)
(-1.35778e-08 1.48052e-08 -0.0408797)
(-4.61324e-08 3.56909e-08 -0.0227272)
(-8.86406e-08 5.66092e-08 -0.00355265)
(-1.1877e-07 6.44833e-08 0.0114995)
(-1.25048e-07 5.48507e-08 0.0517539)
(-1.21799e-07 3.18038e-08 0.153293)
(-1.31136e-07 -9.04546e-10 0.298863)
(-1.52537e-07 -3.80908e-08 0.412264)
(-1.58541e-07 -6.61327e-08 0.418353)
(-1.28424e-07 -7.12509e-08 0.309789)
(-7.44401e-08 -5.4233e-08 0.151853)
(-2.49609e-08 -2.87266e-08 0.0215978)
(1.84059e-09 -7.01047e-09 -0.0451841)
(4.67333e-09 8.10699e-09 -0.0612561)
(-8.44552e-09 1.92476e-08 -0.0673453)
(-2.62829e-08 2.69113e-08 -0.104286)
(-3.74434e-08 2.83886e-08 -0.179106)
(-3.54041e-08 2.29095e-08 -0.244941)
(-2.22296e-08 1.44459e-08 -0.233249)
(-6.35218e-09 7.90587e-09 -0.117783)
(2.32052e-09 3.71072e-09 0.061834)
(-2.65279e-09 -2.49101e-09 0.234215)
(-1.86831e-08 -1.37576e-08 0.339468)
(-3.37984e-08 -2.63565e-08 0.349765)
(-3.66983e-08 -3.2704e-08 0.275439)
(-2.67314e-08 -2.8962e-08 0.158577)
(-1.24288e-08 -1.78386e-08 0.0465926)
(-2.70674e-09 -5.19828e-09 -0.0397167)
(-5.74459e-10 4.28364e-09 -0.115793)
(-3.11613e-09 8.68652e-09 -0.205858)
(-5.42893e-09 8.37297e-09 -0.300943)
(-4.57875e-09 5.20072e-09 -0.350952)
(-7.91364e-10 1.59668e-09 -0.307743)
(3.94344e-09 -6.16665e-10 -0.171974)
(7.47525e-09 -1.05852e-09 0.0062587)
(8.19913e-09 -7.699e-10 0.165863)
(5.67896e-09 -1.22072e-09 0.268942)
(1.27315e-09 -2.92539e-09 0.305349)
(-2.51995e-09 -4.98893e-09 0.280923)
(-3.9503e-09 -6.05711e-09 0.21062)
(-3.09183e-09 -5.58042e-09 0.112765)
(-1.18691e-09 -4.15109e-09 -0.000815801)
(6.99131e-10 -2.81473e-09 -0.12886)
(2.3046e-09 -2.22048e-09 -0.265575)
(3.80839e-09 -2.31194e-09 -0.379784)
(5.27038e-09 -2.59767e-09 -0.421455)
(6.5608e-09 -2.60145e-09 -0.359347)
(7.56682e-09 -2.10881e-09 -0.210002)
(8.21338e-09 -1.1695e-09 -0.0286069)
(8.33272e-09 -1.33932e-11 0.126561)
(7.71731e-09 1.0813e-09 0.224208)
(6.38235e-09 1.95478e-09 0.263926)
(4.66745e-09 2.59232e-09 0.259403)
(3.01919e-09 2.94433e-09 0.221798)
(1.7698e-09 2.80256e-09 0.152867)
(1.08305e-09 1.97682e-09 0.0479167)
(9.66646e-10 5.91709e-10 -0.0942701)
(1.27062e-09 -8.91139e-10 -0.25662)
(1.74071e-09 -1.97881e-09 -0.395321)
(2.14962e-09 -2.44909e-09 -0.455137)
(2.40306e-09 -2.38472e-09 -0.404635)
(2.53552e-09 -2.0005e-09 -0.259451)
(2.6345e-09 -1.47151e-09 -0.0733072)
(2.76682e-09 -8.71006e-10 0.0928338)
(2.92789e-09 -1.99151e-10 0.20016)
(3.02144e-09 5.58301e-10 0.243245)
(2.90068e-09 1.38061e-09 0.240376)
(2.4764e-09 2.1635e-09 0.214044)
(1.81315e-09 2.68771e-09 0.17354)
(1.12608e-09 2.69712e-09 0.110018)
(6.5473e-10 2.09716e-09 0.00700411)
(5.05072e-10 1.08725e-09 -0.138664)
(6.02317e-10 5.43414e-11 -0.298964)
(7.829e-10 -6.78249e-10 -0.417951)
(9.13791e-10 -1.00686e-09 -0.441683)
(9.43127e-10 -1.01543e-09 -0.352679)
(8.82034e-10 -8.53831e-10 -0.179604)
(7.67665e-10 -6.45585e-10 0.0212494)
(6.41166e-10 -4.56464e-10 0.194297)
(5.40721e-10 -2.99264e-10 0.305385)
(4.92209e-10 -1.49986e-10 0.348306)
(4.90661e-10 3.26684e-11 0.338396)
(4.96303e-10 2.82561e-10 0.300039)
(4.61169e-10 5.93555e-10 0.252961)
(3.72227e-10 8.95591e-10 0.202694)
(2.74715e-10 1.07513e-09 0.140526)
(2.4608e-10 1.04455e-09 0.0546349)
(3.37148e-10 8.05443e-10 -0.0536835)
(5.33776e-10 4.48162e-10 -0.161922)
(7.68538e-10 9.2404e-11 -0.236247)
(9.64426e-10 -1.76667e-10 -0.252699)
(1.07098e-09 -3.33148e-10 -0.211056)
(1.07498e-09 -3.96097e-10 -0.131517)
(9.93021e-10 -4.00654e-10 -0.0403409)
(8.58103e-10 -3.75074e-10 0.0433977)
(7.06371e-10 -3.32487e-10 0.112337)
(5.65578e-10 -2.74788e-10 0.16869)