/*--------------------------------*- C++ -*----------------------------------*\
  =========                 |
  \\      /  F ield         | OpenFOAM: The Open Source CFD Toolbox
   \\    /   O peration     | Website:  https://openfoam.org
    \\  /    A nd           | Version:  11
     \\/     M anipulation  |
\*---------------------------------------------------------------------------*/
FoamFile
{
    format      ascii;
    class       volScalarField;
    location    "3.431545";
    object      p;
}
// * * * * * * * * * * * * * * * * * * * * * * * * * * * * * * * * * * * * * //

dimensions      [0 2 -2 0 0 0 0];

internalField   nonuniform List<scalar> 
7132
(
0.0506973
0.0492432
0.0443375
0.0371507
0.0270731
0.0137682
-0.00290035
-0.0230097
-0.0461416
-0.0714621
-0.0976849
-0.12303
-0.146437
-0.166861
-0.183447
-0.195586
-0.202787
-0.204771
-0.20154
-0.193451
-0.181234
-0.165926
-0.148721
-0.130792
-0.11314
-0.0965141
-0.0813934
-0.0680209
-0.0564554
-0.0466285
-0.038395
-0.0315714
-0.0259629
-0.021381
-0.017653
-0.014627
-0.0121725
-0.0101803
-0.00856002
-0.00723796
-0.00615451
-0.00526186
-0.00452183
-0.00390414
-0.00338476
-0.00294476
-0.00256916
-0.00224618
-0.00196652
-0.00172285
-0.00150938
-0.00132153
-0.00115567
-0.00100889
-0.000878794
-0.000763317
-0.000660577
-0.000568773
-0.00048621
-0.000411448
-0.000343548
-0.000282246
-0.000227879
-0.000181009
-0.000141897
-0.000110189
-8.49643e-05
-6.50916e-05
-4.95578e-05
-3.75817e-05
-2.85336e-05
-2.18192e-05
-1.68543e-05
-1.31209e-05
-1.02287e-05
-7.92927e-06
-6.08437e-06
-4.61613e-06
-3.46916e-06
-2.59183e-06
-1.93285e-06
-1.44433e-06
-1.08502e-06
-8.21611e-07
-6.28423e-07
-4.86259e-07
-3.81092e-07
-3.02851e-07
-2.44338e-07
-2.00409e-07
-1.67317e-07
-1.42306e-07
-1.23297e-07
-1.08734e-07
-9.74402e-08
-8.85556e-08
-8.14414e-08
-7.56422e-08
-7.08215e-08
-6.67389e-08
-6.32147e-08
-6.01176e-08
-5.73504e-08
-5.48392e-08
-5.25331e-08
-5.03885e-08
-4.83812e-08
-4.64827e-08
-4.46842e-08
-4.2964e-08
-4.13228e-08
-3.97416e-08
-3.82272e-08
-3.67609e-08
-3.5354e-08
-3.39868e-08
-3.26746e-08
-3.13956e-08
-3.01683e-08
-2.89691e-08
-2.78193e-08
-2.66929e-08
-2.56143e-08
-2.45548e-08
-2.35416e-08
-2.25438e-08
-2.15909e-08
-2.06498e-08
-1.97525e-08
-1.88635e-08
-1.80173e-08
-1.71762e-08
-1.63768e-08
-1.55795e-08
-1.48229e-08
-1.40656e-08
-1.3348e-08
-1.26268e-08
-1.19445e-08
-1.12561e-08
-1.06056e-08
-9.94646e-09
-9.32443e-09
-8.69137e-09
-8.09462e-09
-7.4844e-09
-6.90999e-09
-6.31933e-09
-5.76488e-09
-5.18985e-09
-4.65423e-09
-4.08859e-09
-3.57454e-09
-3.00491e-09
-2.52729e-09
-1.91976e-09
-1.52637e-09
-7.94748e-10
-6.01747e-10
4.577e-10
0.0512772
0.0498354
0.0449733
0.0378332
0.0277952
0.0144958
-0.00222617
-0.0224859
-0.0458644
-0.0715238
-0.0981058
-0.123716
-0.147335
-0.167915
-0.184614
-0.196834
-0.204077
-0.206052
-0.202746
-0.194509
-0.18208
-0.166522
-0.14906
-0.130898
-0.113057
-0.0962944
-0.0810886
-0.0676748
-0.0561012
-0.0462893
-0.0380846
-0.0312968
-0.0257261
-0.0211808
-0.0174863
-0.0144898
-0.0120606
-0.0100897
-0.00848705
-0.00717936
-0.00610753
-0.0052242
-0.00449162
-0.00387984
-0.00336516
-0.00292885
-0.00255617
-0.0022355
-0.00195765
-0.00171541
-0.00150307
-0.00131612
-0.00115097
-0.00100477
-0.000875163
-0.000760111
-0.000657751
-0.000566287
-0.000484021
-0.000409502
-0.000341783
-0.000280608
-0.000226335
-0.000179551
-0.000140545
-0.00010897
-8.38988e-05
-6.4182e-05
-4.87906e-05
-3.69367e-05
-2.79929e-05
-2.13713e-05
-1.64918e-05
-1.28365e-05
-1.00129e-05
-7.77045e-06
-5.97044e-06
-4.53607e-06
-3.41376e-06
-2.55372e-06
-1.90638e-06
-1.4254e-06
-1.0709e-06
-8.10651e-07
-6.19708e-07
-4.79316e-07
-3.75648e-07
-2.98695e-07
-2.41257e-07
-1.98182e-07
-1.65732e-07
-1.4118e-07
-1.22487e-07
-1.08141e-07
-9.70006e-08
-8.82273e-08
-8.11965e-08
-7.54607e-08
-7.06877e-08
-6.66406e-08
-6.31422e-08
-6.00638e-08
-5.73101e-08
-5.48086e-08
-5.25098e-08
-5.03705e-08
-4.83673e-08
-4.64716e-08
-4.46753e-08
-4.29566e-08
-4.13169e-08
-3.97363e-08
-3.82229e-08
-3.67568e-08
-3.53507e-08
-3.39835e-08
-3.26719e-08
-3.13927e-08
-3.0166e-08
-2.89665e-08
-2.78173e-08
-2.66906e-08
-2.56125e-08
-2.45527e-08
-2.35401e-08
-2.25418e-08
-2.15896e-08
-2.0648e-08
-1.97514e-08
-1.88618e-08
-1.80163e-08
-1.71746e-08
-1.6376e-08
-1.55781e-08
-1.48223e-08
-1.40642e-08
-1.33474e-08
-1.26256e-08
-1.19441e-08
-1.12549e-08
-1.06054e-08
-9.94543e-09
-9.32433e-09
-8.69044e-09
-8.09464e-09
-7.48357e-09
-6.91014e-09
-6.3186e-09
-5.76515e-09
-5.18923e-09
-4.65466e-09
-4.08805e-09
-3.57519e-09
-3.00431e-09
-2.52856e-09
-1.91848e-09
-1.53064e-09
-7.89034e-10
-6.22781e-10
4.9585e-10
0.0524314
0.0510159
0.0462427
0.0392008
0.0292477
0.0159656
-0.000857689
-0.021418
-0.0452957
-0.0716509
-0.0989679
-0.125109
-0.149149
-0.170042
-0.186964
-0.199346
-0.206679
-0.208641
-0.205189
-0.196657
-0.183801
-0.167733
-0.149747
-0.13111
-0.112885
-0.0958473
-0.0804709
-0.0669753
-0.0553873
-0.0456068
-0.0374613
-0.0307462
-0.0252519
-0.0207802
-0.0171531
-0.0142158
-0.0118374
-0.00990908
-0.00834157
-0.00706257
-0.00601393
-0.00514921
-0.00443148
-0.00383149
-0.00332614
-0.00289722
-0.00253037
-0.00221428
-0.00194005
-0.00170066
-0.00149057
-0.00130539
-0.00114168
-0.00099664
-0.000868016
-0.000753836
-0.000652272
-0.000561541
-0.000479922
-0.00040593
-0.000338591
-0.000277645
-0.000223489
-0.00017678
-0.000137876
-0.000106473
-8.16519e-05
-6.22355e-05
-4.71597e-05
-3.56069e-05
-2.69341e-05
-2.0547e-05
-1.58639e-05
-1.23657e-05
-9.66131e-06
-7.50537e-06
-5.76726e-06
-4.37855e-06
-3.29177e-06
-2.46042e-06
-1.83623e-06
-1.37344e-06
-1.03273e-06
-7.82631e-07
-5.99029e-07
-4.6393e-07
-3.64124e-07
-2.90048e-07
-2.34793e-07
-1.93388e-07
-1.62209e-07
-1.38609e-07
-1.20618e-07
-1.06781e-07
-9.60073e-08
-8.74987e-08
-8.06604e-08
-7.50659e-08
-7.03972e-08
-6.6427e-08
-6.29852e-08
-5.99482e-08
-5.72248e-08
-5.47454e-08
-5.24629e-08
-5.03354e-08
-4.83409e-08
-4.64515e-08
-4.46601e-08
-4.29447e-08
-4.13076e-08
-3.97289e-08
-3.8217e-08
-3.67517e-08
-3.53466e-08
-3.39799e-08
-3.26688e-08
-3.13898e-08
-3.01636e-08
-2.89641e-08
-2.78153e-08
-2.66886e-08
-2.56108e-08
-2.45509e-08
-2.35386e-08
-2.25402e-08
-2.15882e-08
-2.06465e-08
-1.97501e-08
-1.88605e-08
-1.80152e-08
-1.71734e-08
-1.6375e-08
-1.55769e-08
-1.48214e-08
-1.40632e-08
-1.33467e-08
-1.26246e-08
-1.19435e-08
-1.12541e-08
-1.06048e-08
-9.94463e-09
-9.32383e-09
-8.68972e-09
-8.09422e-09
-7.48293e-09
-6.9098e-09
-6.31804e-09
-5.76491e-09
-5.18873e-09
-4.65455e-09
-4.08758e-09
-3.57539e-09
-3.00362e-09
-2.5299e-09
-1.91644e-09
-1.53742e-09
-7.78713e-10
-6.58729e-10
5.60412e-10
0.0541499
0.0527759
0.0481431
0.0412588
0.031447
0.018207
0.00124523
-0.0197659
-0.0444089
-0.0718553
-0.100318
-0.127256
-0.151924
-0.173279
-0.190532
-0.203162
-0.210634
-0.212581
-0.208906
-0.199919
-0.186404
-0.169552
-0.150763
-0.131402
-0.112597
-0.0951457
-0.0795176
-0.0659049
-0.0543012
-0.0445732
-0.0365207
-0.0299179
-0.0245403
-0.0201805
-0.0166551
-0.013807
-0.0115048
-0.00964016
-0.00812518
-0.00688896
-0.00587485
-0.0050378
-0.00434213
-0.00375965
-0.00326817
-0.00285019
-0.00249197
-0.00218269
-0.00191382
-0.00167865
-0.00147189
-0.00128935
-0.00112774
-0.000984421
-0.000857242
-0.000744333
-0.000643925
-0.00055425
-0.000473564
-0.000400333
-0.000333543
-0.000272938
-0.000218972
-0.000172398
-0.000133676
-0.000102565
-7.81503e-05
-5.92161e-05
-4.46437e-05
-3.35708e-05
-2.53295e-05
-1.93142e-05
-1.49385e-05
-1.16821e-05
-9.15688e-06
-7.12758e-06
-5.47777e-06
-4.15283e-06
-3.11517e-06
-2.3234e-06
-1.73127e-06
-1.29393e-06
-9.72924e-07
-7.37812e-07
-5.65502e-07
-4.3889e-07
-3.45468e-07
-2.762e-07
-2.24563e-07
-1.85868e-07
-1.56701e-07
-1.34584e-07
-1.17676e-07
-1.04629e-07
-9.44291e-08
-8.63405e-08
-7.98104e-08
-7.44425e-08
-6.99404e-08
-6.60925e-08
-6.27404e-08
-5.97689e-08
-5.70935e-08
-5.46491e-08
-5.23922e-08
-5.02834e-08
-4.83028e-08
-4.64234e-08
-4.46395e-08
-4.29294e-08
-4.12965e-08
-3.97204e-08
-3.82109e-08
-3.6747e-08
-3.53432e-08
-3.39771e-08
-3.2667e-08
-3.13881e-08
-3.01626e-08
-2.8963e-08
-2.78148e-08
-2.66878e-08
-2.56105e-08
-2.45503e-08
-2.35385e-08
-2.25397e-08
-2.15882e-08
-2.06461e-08
-1.97502e-08
-1.88601e-08
-1.80154e-08
-1.71731e-08
-1.63753e-08
-1.55766e-08
-1.48217e-08
-1.40629e-08
-1.3347e-08
-1.26244e-08
-1.19438e-08
-1.12539e-08
-1.06052e-08
-9.94448e-09
-9.32428e-09
-8.68959e-09
-8.09472e-09
-7.48283e-09
-6.91034e-09
-6.31797e-09
-5.76551e-09
-5.18869e-09
-4.65529e-09
-4.08752e-09
-3.57649e-09
-3.00322e-09
-2.53247e-09
-1.91413e-09
-1.54678e-09
-7.65649e-10
-7.02792e-10
6.38277e-10
0.0564163
0.0551016
0.0506683
0.044014
0.0344176
0.0212653
0.00414625
-0.0174638
-0.0431576
-0.0721543
-0.102229
-0.130224
-0.155722
-0.177679
-0.195364
-0.20833
-0.216008
-0.21796
-0.214003
-0.204404
-0.189982
-0.17204
-0.152135
-0.131773
-0.112172
-0.0941629
-0.0782013
-0.0644403
-0.052825
-0.0431763
-0.0352553
-0.0288079
-0.0235899
-0.0193818
-0.0159934
-0.0132648
-0.0110643
-0.00928454
-0.00783931
-0.0066598
-0.00569138
-0.00489091
-0.00422436
-0.00366498
-0.00319177
-0.00278822
-0.00244137
-0.00214104
-0.00187923
-0.00164962
-0.00144723
-0.00126815
-0.0011093
-0.000968222
-0.000842926
-0.000731665
-0.00063275
-0.00054444
-0.000464962
-0.000392726
-0.000326668
-0.000266531
-0.000212841
-0.000166476
-0.000128022
-9.73195e-05
-7.34604e-05
-5.51814e-05
-4.12954e-05
-3.0881e-05
-2.32342e-05
-1.77298e-05
-1.37708e-05
-1.08333e-05
-8.53553e-06
-6.65949e-06
-5.11222e-06
-3.86061e-06
-2.88117e-06
-2.13872e-06
-1.58844e-06
-1.18546e-06
-8.91637e-07
-6.77394e-07
-5.20785e-07
-4.05839e-07
-3.21035e-07
-2.58136e-07
-2.11219e-07
-1.76031e-07
-1.4947e-07
-1.29282e-07
-1.13795e-07
-1.01789e-07
-9.23509e-08
-8.48185e-08
-7.8695e-08
-7.36247e-08
-6.9341e-08
-6.56532e-08
-6.24186e-08
-5.95331e-08
-5.69208e-08
-5.45223e-08
-5.22993e-08
-5.0215e-08
-4.82526e-08
-4.63863e-08
-4.46123e-08
-4.29092e-08
-4.12816e-08
-3.97092e-08
-3.82027e-08
-3.67407e-08
-3.53387e-08
-3.39734e-08
-3.26644e-08
-3.13859e-08
-3.01611e-08
-2.89616e-08
-2.78138e-08
-2.66868e-08
-2.561e-08
-2.45495e-08
-2.35381e-08
-2.25391e-08
-2.1588e-08
-2.06456e-08
-1.97501e-08
-1.88597e-08
-1.80154e-08
-1.71727e-08
-1.63753e-08
-1.55763e-08
-1.48218e-08
-1.40626e-08
-1.33471e-08
-1.26241e-08
-1.1944e-08
-1.12536e-08
-1.06054e-08
-9.94428e-09
-9.32453e-09
-8.68943e-09
-8.095e-09
-7.48269e-09
-6.91067e-09
-6.31785e-09
-5.7659e-09
-5.18858e-09
-4.65581e-09
-4.08736e-09
-3.57743e-09
-3.00264e-09
-2.53509e-09
-1.91139e-09
-1.55673e-09
-7.51352e-10
-7.46836e-10
7.15787e-10
0.059207
0.0579727
0.0538089
0.0474738
0.038191
0.0252018
0.00793413
-0.0144176
-0.0414749
-0.0725806
-0.104816
-0.134117
-0.160632
-0.183317
-0.201531
-0.214928
-0.222883
-0.224856
-0.220545
-0.210153
-0.194546
-0.17518
-0.153822
-0.132168
-0.111552
-0.0928442
-0.0764764
-0.0625468
-0.050935
-0.0414012
-0.0336575
-0.0274136
-0.0224014
-0.0183867
-0.0151717
-0.0125934
-0.01052
-0.00884586
-0.00748717
-0.0063778
-0.00546578
-0.00471035
-0.00407962
-0.00354863
-0.00309784
-0.00271198
-0.00237908
-0.00208973
-0.00183655
-0.00161374
-0.00141671
-0.00124186
-0.00108637
-0.000948019
-0.000824991
-0.000715694
-0.000618544
-0.000531836
-0.000453778
-0.000382726
-0.000317566
-0.000258046
-0.000204772
-0.00015876
-0.000120738
-9.06267e-05
-6.75233e-05
-5.01047e-05
-3.71042e-05
-2.75345e-05
-2.06494e-05
-1.57981e-05
-1.23675e-05
-9.82779e-06
-7.80599e-06
-6.10951e-06
-4.67873e-06
-3.50994e-06
-2.59773e-06
-1.91374e-06
-1.4138e-06
-1.05238e-06
-7.91524e-07
-6.027e-07
-4.65343e-07
-3.64813e-07
-2.90728e-07
-2.35775e-07
-1.94745e-07
-1.63917e-07
-1.40578e-07
-1.22764e-07
-1.0902e-07
-9.82924e-08
-8.97899e-08
-8.29422e-08
-7.73203e-08
-7.26177e-08
-6.86036e-08
-6.51134e-08
-6.20236e-08
-5.9244e-08
-5.67094e-08
-5.43676e-08
-5.21862e-08
-5.01323e-08
-4.81923e-08
-4.63422e-08
-4.45803e-08
-4.28857e-08
-4.12648e-08
-3.96969e-08
-3.8194e-08
-3.67343e-08
-3.53343e-08
-3.39702e-08
-3.26624e-08
-3.13844e-08
-3.01604e-08
-2.8961e-08
-2.78138e-08
-2.66867e-08
-2.56103e-08
-2.45497e-08
-2.35387e-08
-2.25394e-08
-2.15887e-08
-2.0646e-08
-1.97509e-08
-1.88601e-08
-1.80162e-08
-1.71731e-08
-1.63761e-08
-1.55767e-08
-1.48226e-08
-1.4063e-08
-1.3348e-08
-1.26245e-08
-1.19448e-08
-1.1254e-08
-1.06062e-08
-9.94462e-09
-9.32537e-09
-8.68976e-09
-8.09584e-09
-7.48301e-09
-6.91151e-09
-6.31816e-09
-5.76676e-09
-5.18887e-09
-4.65679e-09
-4.08756e-09
-3.57884e-09
-3.00237e-09
-2.53818e-09
-1.90882e-09
-1.56686e-09
-7.3755e-10
-7.8635e-10
7.84218e-10
0.0624906
0.0613615
0.0575498
0.0516445
0.0428051
0.0300963
0.0127289
-0.0104935
-0.0392618
-0.0731836
-0.108245
-0.13907
-0.166769
-0.190276
-0.209093
-0.223031
-0.23138
-0.233455
-0.228761
-0.217399
-0.200284
-0.179088
-0.155868
-0.132575
-0.110695
-0.0911367
-0.0742928
-0.0601833
-0.048601
-0.0392282
-0.0317157
-0.0257296
-0.0209735
-0.0171963
-0.0141922
-0.0117955
-0.00987481
-0.00832693
-0.00707129
-0.00604518
-0.00519992
-0.00449772
-0.00390924
-0.00341168
-0.00298729
-0.00262224
-0.00230571
-0.00202924
-0.0017862
-0.00157136
-0.00138061
-0.00121071
-0.00105914
-0.000923945
-0.000803526
-0.000696466
-0.000601301
-0.000516387
-0.000439924
-0.000370225
-0.000306132
-0.000247399
-0.000194718
-0.000149247
-0.000111854
-8.25423e-05
-6.04041e-05
-4.40518e-05
-3.2133e-05
-2.35937e-05
-1.76396e-05
-1.35857e-05
-1.07937e-05
-8.72265e-06
-7.01211e-06
-5.50642e-06
-4.19293e-06
-3.10752e-06
-2.26689e-06
-1.64887e-06
-1.2077e-06
-8.95514e-07
-6.73852e-07
-5.15257e-07
-4.00746e-07
-3.17238e-07
-2.55721e-07
-2.10012e-07
-1.75786e-07
-1.49975e-07
-1.30337e-07
-1.15252e-07
-1.03516e-07
-9.42619e-08
-8.6839e-08
-8.07816e-08
-7.57381e-08
-7.14591e-08
-6.77553e-08
-6.44923e-08
-6.15691e-08
-5.89114e-08
-5.64661e-08
-5.41896e-08
-5.20562e-08
-5.00372e-08
-4.8123e-08
-4.62915e-08
-4.45435e-08
-4.28589e-08
-4.12454e-08
-3.96828e-08
-3.8184e-08
-3.67271e-08
-3.53294e-08
-3.39667e-08
-3.26602e-08
-3.13828e-08
-3.01596e-08
-2.89605e-08
-2.78139e-08
-2.66867e-08
-2.56108e-08
-2.455e-08
-2.35394e-08
-2.25399e-08
-2.15896e-08
-2.06465e-08
-1.97518e-08
-1.88607e-08
-1.80171e-08
-1.71737e-08
-1.6377e-08
-1.55773e-08
-1.48235e-08
-1.40635e-08
-1.33489e-08
-1.2625e-08
-1.19457e-08
-1.12545e-08
-1.06071e-08
-9.94509e-09
-9.32622e-09
-8.69019e-09
-8.09668e-09
-7.48342e-09
-6.91234e-09
-6.31854e-09
-5.7676e-09
-5.18921e-09
-4.65773e-09
-4.08779e-09
-3.58018e-09
-3.00208e-09
-2.5411e-09
-1.9063e-09
-1.57604e-09
-7.24974e-10
-8.1882e-10
8.39917e-10
0.0662253
0.0652308
0.0618681
0.0565285
0.0483015
0.0360454
0.0186838
-0.005511
-0.0363818
-0.0740502
-0.112764
-0.145261
-0.174273
-0.198675
-0.218163
-0.232751
-0.241606
-0.24384
-0.23871
-0.226171
-0.207198
-0.18373
-0.158204
-0.132906
-0.109507
-0.0889541
-0.0715801
-0.0572984
-0.0457893
-0.036638
-0.0294215
-0.0237548
-0.0193094
-0.0158166
-0.0130621
-0.0108782
-0.00913536
-0.00773364
-0.00659669
-0.00566612
-0.00489722
-0.00425574
-0.00371537
-0.00325583
-0.00286142
-0.00251997
-0.00222202
-0.00196017
-0.00172861
-0.0015228
-0.00133915
-0.00117483
-0.00102769
-0.000896022
-0.000778491
-0.00067387
-0.00058084
-0.000497837
-0.000423083
-0.000354867
-0.000292004
-0.000234264
-0.000182418
-0.000137753
-0.000101264
-7.30172e-05
-5.20902e-05
-3.7028e-05
-2.63953e-05
-1.90785e-05
-1.42328e-05
-1.11288e-05
-9.09e-06
-7.55681e-06
-6.18536e-06
-4.87205e-06
-3.66847e-06
-2.66212e-06
-1.89545e-06
-1.35022e-06
-9.75589e-07
-7.19234e-07
-5.41805e-07
-4.17184e-07
-3.28324e-07
-2.63936e-07
-2.16534e-07
-1.81203e-07
-1.54609e-07
-1.34417e-07
-1.1892e-07
-1.06881e-07
-9.73833e-08
-8.97705e-08
-8.35502e-08
-7.83736e-08
-7.39751e-08
-7.01684e-08
-6.68107e-08
-6.38012e-08
-6.10637e-08
-5.85418e-08
-5.61961e-08
-5.39924e-08
-5.19124e-08
-4.99323e-08
-4.80468e-08
-4.62362e-08
-4.45036e-08
-4.28301e-08
-4.1225e-08
-3.96682e-08
-3.8174e-08
-3.67201e-08
-3.5325e-08
-3.39637e-08
-3.26587e-08
-3.1382e-08
-3.01597e-08
-2.89608e-08
-2.78148e-08
-2.66876e-08
-2.56121e-08
-2.45512e-08
-2.35409e-08
-2.25412e-08
-2.15912e-08
-2.06478e-08
-1.97534e-08
-1.8862e-08
-1.80187e-08
-1.71749e-08
-1.63786e-08
-1.55785e-08
-1.4825e-08
-1.40647e-08
-1.33503e-08
-1.26261e-08
-1.19471e-08
-1.12555e-08
-1.06085e-08
-9.94604e-09
-9.32753e-09
-8.69108e-09
-8.09793e-09
-7.48424e-09
-6.91354e-09
-6.31929e-09
-5.76878e-09
-5.1899e-09
-4.65897e-09
-4.08832e-09
-3.58178e-09
-3.00209e-09
-2.54409e-09
-1.90421e-09
-1.58426e-09
-7.14313e-10
-8.4428e-10
8.82743e-10
0.0703581
0.0695323
0.0667306
0.0621215
0.0547235
0.0431669
0.0259976
0.000783275
-0.0326339
-0.075309
-0.118726
-0.152933
-0.18331
-0.208583
-0.228769
-0.244178
-0.253784
-0.256396
-0.250866
-0.236927
-0.215628
-0.189293
-0.160883
-0.133123
-0.107906
-0.0862061
-0.0682589
-0.0538312
-0.0424582
-0.0336051
-0.0267615
-0.0214839
-0.0174092
-0.0142502
-0.0117854
-0.0098463
-0.00830623
-0.00707019
-0.00606712
-0.00524384
-0.0045604
-0.00398671
-0.00349993
-0.00308265
-0.00272153
-0.00240627
-0.00212891
-0.00188323
-0.00166438
-0.00146854
-0.00129272
-0.00113456
-0.000992265
-0.000864453
-0.000750033
-0.000647995
-0.000557185
-0.000476153
-0.000403174
-0.000336545
-0.000275085
-0.00021858
-0.000167866
-0.000124334
-8.90679e-05
-6.21751e-05
-4.27052e-05
-2.91422e-05
-1.99858e-05
-1.40756e-05
-1.05163e-05
-8.51846e-06
-7.34633e-06
-6.40925e-06
-5.38513e-06
-4.24397e-06
-3.12495e-06
-2.18242e-06
-1.48739e-06
-1.0206e-06
-7.20168e-07
-5.26182e-07
-3.97772e-07
-3.10565e-07
-2.49857e-07
-2.06381e-07
-1.74342e-07
-1.50244e-07
-1.31875e-07
-1.17726e-07
-1.06674e-07
-9.79031e-08
-9.0806e-08
-8.49543e-08
-8.00246e-08
-7.5793e-08
-7.20863e-08
-6.87861e-08
-6.57991e-08
-6.30611e-08
-6.05225e-08
-5.81462e-08
-5.59072e-08
-5.37815e-08
-5.17587e-08
-4.98204e-08
-4.79655e-08
-4.61772e-08
-4.44611e-08
-4.27995e-08
-4.12033e-08
-3.96529e-08
-3.81635e-08
-3.67129e-08
-3.53204e-08
-3.39609e-08
-3.26573e-08
-3.13814e-08
-3.016e-08
-2.89614e-08
-2.7816e-08
-2.66888e-08
-2.56137e-08
-2.45527e-08
-2.35427e-08
-2.25428e-08
-2.15931e-08
-2.06495e-08
-1.97553e-08
-1.88636e-08
-1.80206e-08
-1.71765e-08
-1.63804e-08
-1.558e-08
-1.48268e-08
-1.40661e-08
-1.3352e-08
-1.26274e-08
-1.19487e-08
-1.12568e-08
-1.061e-08
-9.94722e-09
-9.32898e-09
-8.69217e-09
-8.0993e-09
-7.48525e-09
-6.91484e-09
-6.32021e-09
-5.77003e-09
-5.19071e-09
-4.66025e-09
-4.08896e-09
-3.58334e-09
-3.00219e-09
-2.54681e-09
-1.90242e-09
-1.59114e-09
-7.0551e-10
-8.63455e-10
9.14591e-10
0.0748224
0.0742035
0.072089
0.0684056
0.062108
0.0515901
0.03491
0.00872476
-0.0277488
-0.0771958
-0.12664
-0.16235
-0.194095
-0.22021
-0.24109
-0.257427
-0.267948
-0.271089
-0.265186
-0.249644
-0.225559
-0.195729
-0.163808
-0.133093
-0.105752
-0.0827684
-0.064233
-0.0497157
-0.0385681
-0.0301105
-0.0237308
-0.0189213
-0.0152822
-0.0125089
-0.0103741
-0.00871091
-0.00739745
-0.00634516
-0.00548967
-0.0047841
-0.00419407
-0.00369423
-0.0032657
-0.0028943
-0.00256927
-0.00228239
-0.00202731
-0.00179914
-0.00159404
-0.00140899
-0.00124162
-0.0010901
-0.000953016
-0.000829309
-0.000718159
-0.000618781
-0.000530211
-0.000451143
-0.000379953
-0.000314996
-0.000255123
-0.00020015
-0.00015095
-0.000108961
-7.53083e-05
-5.00919e-05
-3.23276e-05
-2.04552e-05
-1.29519e-05
-8.63061e-06
-6.54659e-06
-5.8265e-06
-5.64283e-06
-5.35478e-06
-4.6688e-06
-3.65807e-06
-2.58103e-06
-1.67787e-06
-1.04939e-06
-6.66558e-07
-4.47828e-07
-3.21755e-07
-2.45793e-07
-1.98222e-07
-1.67272e-07
-1.45892e-07
-1.30052e-07
-1.17771e-07
-1.08043e-07
-1.00238e-07
-9.38494e-08
-8.85059e-08
-8.39237e-08
-7.99158e-08
-7.63367e-08
-7.30939e-08
-7.0111e-08
-6.73408e-08
-6.47418e-08
-6.2288e-08
-5.99574e-08
-5.77334e-08
-5.56059e-08
-5.35618e-08
-5.15988e-08
-4.97042e-08
-4.78814e-08
-4.61165e-08
-4.44176e-08
-4.27685e-08
-4.11816e-08
-3.96378e-08
-3.81534e-08
-3.67063e-08
-3.53165e-08
-3.39587e-08
-3.26566e-08
-3.13817e-08
-3.01611e-08
-2.89628e-08
-2.78179e-08
-2.66909e-08
-2.56161e-08
-2.4555e-08
-2.35453e-08
-2.25452e-08
-2.15956e-08
-2.06518e-08
-1.97578e-08
-1.88659e-08
-1.8023e-08
-1.71787e-08
-1.63828e-08
-1.55821e-08
-1.48291e-08
-1.40681e-08
-1.33542e-08
-1.26293e-08
-1.19508e-08
-1.12585e-08
-1.06119e-08
-9.9488e-09
-9.33078e-09
-8.69364e-09
-8.10099e-09
-7.48659e-09
-6.91642e-09
-6.32142e-09
-5.77152e-09
-5.19179e-09
-4.66174e-09
-4.08985e-09
-3.58504e-09
-3.00256e-09
-2.54942e-09
-1.90109e-09
-1.59692e-09
-6.98592e-10
-8.77689e-10
9.37716e-10
0.0795365
0.0791666
0.0778774
0.0753462
0.0704823
0.0614661
0.0457297
0.0188027
-0.0213129
-0.0800335
-0.137311
-0.17396
-0.206761
-0.233418
-0.254994
-0.272627
-0.284608
-0.288775
-0.282635
-0.265157
-0.237549
-0.203302
-0.167012
-0.132718
-0.102898
-0.0784973
-0.0593867
-0.0448705
-0.0340681
-0.0261264
-0.0203175
-0.0160648
-0.0129317
-0.0105985
-0.00883524
-0.00747908
-0.00641552
-0.00556436
-0.00486941
-0.00429122
-0.00380185
-0.00338134
-0.00301523
-0.00269289
-0.0024064
-0.00214977
-0.00191845
-0.0017089
-0.00151841
-0.00134481
-0.00118642
-0.00104192
-0.000910325
-0.000790909
-0.000683125
-0.000586424
-0.000500049
-0.000422884
-0.000353463
-0.000290256
-0.000232192
-0.000179114
-0.000131884
-9.19211e-05
-6.02971e-05
-3.70665e-05
-2.12093e-05
-1.11602e-05
-5.43892e-06
-2.86653e-06
-2.44743e-06
-3.18569e-06
-4.11289e-06
-4.5093e-06
-4.11999e-06
-3.16249e-06
-2.05804e-06
-1.15619e-06
-5.85629e-07
-2.92821e-07
-1.63788e-07
-1.10615e-07
-8.949e-08
-8.28574e-08
-8.26322e-08
-8.40654e-08
-8.48872e-08
-8.46982e-08
-8.37863e-08
-8.24469e-08
-8.08096e-08
-7.89547e-08
-7.69307e-08
-7.47975e-08
-7.25913e-08
-7.03534e-08
-6.8106e-08
-6.5874e-08
-6.36691e-08
-6.15037e-08
-5.93843e-08
-5.73149e-08
-5.53006e-08
-5.33394e-08
-5.14371e-08
-4.95868e-08
-4.77966e-08
-4.60554e-08
-4.4374e-08
-4.27376e-08
-4.116e-08
-3.96229e-08
-3.81436e-08
-3.67e-08
-3.5313e-08
-3.3957e-08
-3.26564e-08
-3.13823e-08
-3.01626e-08
-2.89647e-08
-2.78203e-08
-2.66933e-08
-2.56189e-08
-2.45577e-08
-2.35482e-08
-2.2548e-08
-2.15986e-08
-2.06546e-08
-1.97607e-08
-1.88686e-08
-1.80258e-08
-1.71813e-08
-1.63855e-08
-1.55845e-08
-1.48316e-08
-1.40704e-08
-1.33566e-08
-1.26314e-08
-1.19531e-08
-1.12605e-08
-1.0614e-08
-9.95066e-09
-9.33278e-09
-8.69535e-09
-8.10285e-09
-7.48815e-09
-6.91814e-09
-6.32283e-09
-5.77313e-09
-5.19304e-09
-4.66329e-09
-4.09087e-09
-3.58672e-09
-3.00307e-09
-2.55177e-09
-1.90012e-09
-1.6016e-09
-6.93226e-10
-8.88079e-10
9.54356e-10
0.084402
0.084324
0.084005
0.082875
0.0798429
0.0729254
0.0587961
0.0316407
-0.0128247
-0.0844848
-0.151633
-0.18807
-0.221831
-0.248742
-0.27072
-0.28965
-0.303365
-0.308994
-0.302939
-0.283416
-0.251641
-0.212
-0.170377
-0.131807
-0.0991406
-0.0732207
-0.0535964
-0.0392193
-0.0289203
-0.0216418
-0.0165277
-0.0129297
-0.0103773
-0.00853932
-0.00718772
-0.00616752
-0.00537458
-0.00473936
-0.00421559
-0.00377246
-0.00338936
-0.00305233
-0.00275175
-0.00248085
-0.00223474
-0.0020098
-0.00180334
-0.00161329
-0.00143807
-0.00127645
-0.00112744
-0.000990265
-0.000864374
-0.000749378
-0.000645
-0.000550934
-0.00046666
-0.000391295
-0.000323603
-0.000262249
-0.000206262
-0.000155534
-0.00011086
-7.34834e-05
-4.43469e-05
-2.33855e-05
-9.55429e-06
-1.38865e-06
2.47435e-06
3.15091e-06
1.6971e-06
-7.08435e-07
-2.88378e-06
-3.98933e-06
-3.82322e-06
-2.80444e-06
-1.57591e-06
-6.25623e-07
-1.03356e-07
9.14949e-08
1.2263e-07
9.96906e-08
6.58933e-08
3.20493e-08
1.72732e-09
-2.25213e-08
-3.99767e-08
-5.18126e-08
-5.9661e-08
-6.47555e-08
-6.78499e-08
-6.94671e-08
-6.99869e-08
-6.97165e-08
-6.88739e-08
-6.76339e-08
-6.61167e-08
-6.44191e-08
-6.26053e-08
-6.07262e-08
-5.88165e-08
-5.69006e-08
-5.49986e-08
-5.31196e-08
-5.12775e-08
-4.94713e-08
-4.77133e-08
-4.59957e-08
-4.43316e-08
-4.27078e-08
-4.11395e-08
-3.96091e-08
-3.81348e-08
-3.66947e-08
-3.53103e-08
-3.39562e-08
-3.2657e-08
-3.13838e-08
-3.01649e-08
-2.89674e-08
-2.78234e-08
-2.66965e-08
-2.56223e-08
-2.45611e-08
-2.35518e-08
-2.25514e-08
-2.16021e-08
-2.0658e-08
-1.97642e-08
-1.88718e-08
-1.80292e-08
-1.71844e-08
-1.63886e-08
-1.55874e-08
-1.48346e-08
-1.40731e-08
-1.33594e-08
-1.2634e-08
-1.19557e-08
-1.12629e-08
-1.06165e-08
-9.95285e-09
-9.33506e-09
-8.69736e-09
-8.10496e-09
-7.48998e-09
-6.92007e-09
-6.32447e-09
-5.77491e-09
-5.19449e-09
-4.66498e-09
-4.09208e-09
-3.58847e-09
-3.0038e-09
-2.55398e-09
-1.89956e-09
-1.60543e-09
-6.89236e-10
-8.9568e-10
9.66212e-10
0.0893029
0.0895601
0.0903526
0.0908942
0.0901506
0.0861234
0.0745597
0.0482608
-0.00137536
-0.0914954
-0.17198
-0.205251
-0.238525
-0.265243
-0.288098
-0.309349
-0.325951
-0.333945
-0.328141
-0.305976
-0.268774
-0.222201
-0.17389
-0.130151
-0.0942199
-0.0667096
-0.0466942
-0.0326543
-0.0230634
-0.0166273
-0.0123515
-0.00951713
-0.00762522
-0.00633998
-0.00544069
-0.00478497
-0.00428258
-0.00387721
-0.00353431
-0.00323306
-0.00296104
-0.00271094
-0.00247842
-0.00226084
-0.00205652
-0.00186434
-0.00168354
-0.0015136
-0.00135412
-0.00120482
-0.00106544
-0.000935787
-0.00081573
-0.000705211
-0.000604219
-0.000512695
-0.00043038
-0.00035669
-0.0002907
-0.000231349
-0.000177838
-0.000130022
-8.85391e-05
-5.43799e-05
-2.81373e-05
-9.59477e-06
2.21875e-06
8.57385e-06
1.05944e-05
9.26664e-06
5.72949e-06
1.43271e-06
-2.12752e-06
-3.93807e-06
-3.87227e-06
-2.62747e-06
-1.1458e-06
-8.65622e-08
3.94768e-07
4.7923e-07
4.02951e-07
3.02248e-07
2.15616e-07
1.43384e-07
8.35844e-08
3.70687e-08
3.43965e-09
-2.00145e-08
-3.63211e-08
-4.76435e-08
-5.53235e-08
-6.03025e-08
-6.32821e-08
-6.48117e-08
-6.52862e-08
-6.501e-08
-6.41978e-08
-6.30159e-08
-6.15797e-08
-5.99769e-08
-5.82695e-08
-5.65015e-08
-5.4708e-08
-5.29083e-08
-5.11243e-08
-4.93606e-08
-4.76338e-08
-4.59389e-08
-4.42915e-08
-4.26798e-08
-4.11205e-08
-3.95965e-08
-3.8127e-08
-3.66903e-08
-3.53085e-08
-3.39561e-08
-3.26583e-08
-3.13859e-08
-3.01677e-08
-2.89706e-08
-2.7827e-08
-2.67002e-08
-2.56262e-08
-2.4565e-08
-2.35558e-08
-2.25553e-08
-2.16061e-08
-2.06618e-08
-1.9768e-08
-1.88755e-08
-1.80328e-08
-1.71878e-08
-1.63921e-08
-1.55907e-08
-1.48379e-08
-1.40762e-08
-1.33625e-08
-1.26369e-08
-1.19586e-08
-1.12655e-08
-1.06192e-08
-9.95532e-09
-9.33757e-09
-8.69963e-09
-8.10727e-09
-7.49204e-09
-6.92219e-09
-6.32633e-09
-5.77684e-09
-5.19613e-09
-4.66676e-09
-4.09344e-09
-3.59023e-09
-3.00467e-09
-2.556e-09
-1.89931e-09
-1.60852e-09
-6.8631e-10
-9.01204e-10
9.74652e-10
0.0941061
0.0947337
0.0967658
0.0992302
0.101285
0.101051
0.0933997
0.0696878
0.013687
-0.101715
-0.19861
-0.227253
-0.260089
-0.284983
-0.307487
-0.330936
-0.35114
-0.362552
-0.35788
-0.333141
-0.289401
-0.234124
-0.177457
-0.127467
-0.0878179
-0.0587019
-0.0385026
-0.0250754
-0.0164555
-0.0110786
-0.00780602
-0.00585431
-0.00470573
-0.00402934
-0.00361968
-0.00335292
-0.00315695
-0.00299165
-0.00283621
-0.00268106
-0.00252292
-0.00236165
-0.00219855
-0.00203529
-0.00187354
-0.00171473
-0.00156008
-0.00141061
-0.00126716
-0.00113039
-0.00100082
-0.000878816
-0.000764672
-0.000658646
-0.000560986
-0.000471886
-0.000391392
-0.000319284
-0.000255043
-0.000197959
-0.000147421
-0.000103233
-6.56862e-05
-3.52799e-05
-1.22251e-05
3.86907e-06
1.38498e-05
1.86105e-05
1.88801e-05
1.54532e-05
9.59615e-06
3.15053e-06
-1.94424e-06
-4.43999e-06
-4.31763e-06
-2.64545e-06
-7.63624e-07
4.64109e-07
9.03023e-07
8.58503e-07
6.65055e-07
4.88112e-07
3.54057e-07
2.47675e-07
1.60541e-07
9.30215e-08
4.41933e-08
9.88921e-09
-1.43334e-08
-3.15209e-08
-4.35308e-08
-5.16808e-08
-5.69766e-08
-6.01999e-08
-6.19137e-08
-6.25439e-08
-6.23946e-08
-6.16978e-08
-6.06165e-08
-5.92736e-08
-5.77563e-08
-5.61276e-08
-5.4436e-08
-5.27108e-08
-5.09814e-08
-4.92576e-08
-4.75601e-08
-4.58866e-08
-4.42549e-08
-4.26546e-08
-4.11037e-08
-3.95858e-08
-3.81207e-08
-3.66872e-08
-3.53078e-08
-3.3957e-08
-3.26604e-08
-3.13888e-08
-3.01713e-08
-2.89745e-08
-2.78312e-08
-2.67046e-08
-2.56308e-08
-2.45695e-08
-2.35603e-08
-2.25598e-08
-2.16105e-08
-2.06661e-08
-1.97723e-08
-1.88796e-08
-1.80369e-08
-1.71918e-08
-1.6396e-08
-1.55944e-08
-1.48416e-08
-1.40797e-08
-1.33659e-08
-1.26401e-08
-1.19618e-08
-1.12685e-08
-1.06222e-08
-9.95807e-09
-9.3403e-09
-8.70213e-09
-8.10976e-09
-7.49431e-09
-6.92445e-09
-6.32836e-09
-5.77888e-09
-5.19791e-09
-4.66863e-09
-4.09494e-09
-3.59201e-09
-3.00571e-09
-2.55791e-09
-1.89937e-09
-1.61107e-09
-6.84279e-10
-9.05262e-10
9.80609e-10
0.0986633
0.0996891
0.10305
0.107679
0.113033
0.117805
0.115908
0.098766
0.0344511
-0.124398
-0.239098
-0.249663
-0.280969
-0.305807
-0.32957
-0.356418
-0.381073
-0.396345
-0.392713
-0.364976
-0.313438
-0.247594
-0.180775
-0.123368
-0.0795485
-0.0488851
-0.028806
-0.0163521
-0.00902723
-0.00496502
-0.00288261
-0.00194414
-0.00162718
-0.00161797
-0.0017358
-0.00188214
-0.00200773
-0.0020918
-0.00212937
-0.00212359
-0.00208117
-0.00200978
-0.00191668
-0.0018081
-0.00168912
-0.00156379
-0.00143533
-0.00130633
-0.00117887
-0.00105461
-0.000934827
-0.000820455
-0.000712198
-0.000610613
-0.000516196
-0.000429414
-0.00035066
-0.000280157
-0.000217859
-0.000163452
-0.000116489
-7.65945e-05
-4.3576e-05
-1.73009e-05
2.53562e-06
1.64601e-05
2.50202e-05
2.85478e-05
2.72374e-05
2.16512e-05
1.32526e-05
4.41669e-06
-2.33418e-06
-5.46228e-06
-5.10187e-06
-2.78965e-06
-3.729e-07
1.05851e-06
1.43151e-06
1.22732e-06
9.03741e-07
6.52962e-07
4.78374e-07
3.42612e-07
2.30737e-07
1.43881e-07
8.12103e-08
3.7122e-08
5.73329e-09
-1.6811e-08
-3.27862e-08
-4.38329e-08
-5.12394e-08
-5.60048e-08
-5.88467e-08
-6.03018e-08
-6.07556e-08
-6.05001e-08
-5.97417e-08
-5.86351e-08
-5.72908e-08
-5.57886e-08
-5.41897e-08
-5.25324e-08
-5.08527e-08
-4.91652e-08
-4.74943e-08
-4.58402e-08
-4.42227e-08
-4.26328e-08
-4.10895e-08
-3.95771e-08
-3.81161e-08
-3.66855e-08
-3.53082e-08
-3.39588e-08
-3.26631e-08
-3.13925e-08
-3.01756e-08
-2.89791e-08
-2.78361e-08
-2.67096e-08
-2.56358e-08
-2.45745e-08
-2.35654e-08
-2.25647e-08
-2.16154e-08
-2.06708e-08
-1.9777e-08
-1.88841e-08
-1.80414e-08
-1.71961e-08
-1.64003e-08
-1.55984e-08
-1.48456e-08
-1.40835e-08
-1.33697e-08
-1.26436e-08
-1.19653e-08
-1.12718e-08
-1.06254e-08
-9.9611e-09
-9.34328e-09
-8.70491e-09
-8.11249e-09
-7.49684e-09
-6.92694e-09
-6.33062e-09
-5.78111e-09
-5.19988e-09
-4.67063e-09
-4.09659e-09
-3.59384e-09
-3.00689e-09
-2.5597e-09
-1.89968e-09
-1.61317e-09
-6.82918e-10
-9.08234e-10
9.848e-10
0.102815
0.104242
0.108974
0.115871
0.12503
0.13567
0.142271
0.134743
0.0628754
-0.13376
-0.305103