/*--------------------------------*- C++ -*----------------------------------*\
  =========                 |
  \\      /  F ield         | OpenFOAM: The Open Source CFD Toolbox
   \\    /   O peration     | Website:  https://openfoam.org
    \\  /    A nd           | Version:  11
     \\/     M anipulation  |
\*---------------------------------------------------------------------------*/
FoamFile
{
    format      ascii;
    class       volVectorField;
    location    "3.431545";
    object      U_0;
}
// * * * * * * * * * * * * * * * * * * * * * * * * * * * * * * * * * * * * * //

dimensions      [0 1 -1 0 0 0 0];

internalField   nonuniform List<vector> 
7132
(
(1.00014 -0.000289216 2.15884e-18)
(1.00224 -0.000872453 7.53982e-18)
(1.00699 -0.00149113 7.80459e-18)
(1.01421 -0.00215692 9.05972e-18)
(1.02421 -0.00287279 1.11111e-17)
(1.03718 -0.00361822 1.15982e-17)
(1.05317 -0.00435298 1.09025e-17)
(1.07203 -0.00499787 1.00727e-17)
(1.09323 -0.00546699 9.52038e-18)
(1.11588 -0.00566752 9.27378e-18)
(1.1387 -0.00554302 9.01575e-18)
(1.16039 -0.00514902 8.9201e-18)
(1.18001 -0.00453327 7.80943e-18)
(1.19676 -0.00374235 8.32426e-18)
(1.21004 -0.00281809 -2.50523e-18)
(1.21937 -0.00179092 -1.04455e-17)
(1.22441 -0.000693383 -2.22183e-17)
(1.22495 0.000431449 -1.9313e-17)
(1.22096 0.00152578 -2.85442e-17)
(1.21271 0.00252121 -3.97528e-17)
(1.20072 0.00335056 -3.91597e-17)
(1.18578 0.0039626 -3.84889e-17)
(1.16886 0.00433334 -3.79548e-17)
(1.15095 0.00446908 -3.90058e-17)
(1.13295 0.00440096 -3.35905e-17)
(1.11561 0.00417501 -3.46466e-17)
(1.09945 0.0038418 -3.71924e-17)
(1.0848 0.00344842 -3.95819e-17)
(1.07181 0.0030337 -4.15331e-17)
(1.0605 0.00262647 -3.98164e-17)
(1.05079 0.00224588 -3.72448e-17)
(1.04254 0.00190291 -3.56433e-17)
(1.03557 0.00160226 -3.56672e-17)
(1.02973 0.0013443 -3.28708e-17)
(1.02483 0.00112661 -3.00475e-17)
(1.02073 0.000945274 -2.62532e-17)
(1.01728 0.000795687 -2.2418e-17)
(1.01437 0.000673177 -1.8869e-17)
(1.0119 0.000573334 -1.33512e-17)
(1.00979 0.000492203 -7.58708e-18)
(1.00796 0.000426358 -1.23154e-18)
(1.00638 0.000372903 4.91201e-18)
(1.00498 0.000329432 1.09275e-17)
(1.00374 0.00029396 1.77063e-17)
(1.00263 0.000264847 2.33101e-17)
(1.00162 0.000240724 2.78421e-17)
(1.0007 0.000220433 3.00882e-17)
(0.999856 0.000202991 3.0629e-17)
(0.999075 0.000187582 3.03843e-17)
(0.998352 0.000173589 2.76176e-17)
(0.997682 0.000160621 2.26643e-17)
(0.997062 0.000148456 1.84095e-17)
(0.996489 0.000136829 1.65843e-17)
(0.995962 0.000125011 1.71583e-17)
(0.995483 0.000111321 2.07398e-17)
(0.995064 9.28706e-05 2.46195e-17)
(0.994731 6.59156e-05 2.57047e-17)
(0.994525 2.70492e-05 2.06813e-17)
(0.9945 -2.49701e-05 7.81512e-18)
(0.994706 -8.74341e-05 -7.42866e-18)
(0.995177 -0.000152909 -1.67215e-17)
(0.995905 -0.000210225 -1.10244e-17)
(0.996834 -0.000247306 1.08921e-17)
(0.997862 -0.000254984 4.04512e-17)
(0.998856 -0.000230356 6.73868e-17)
(0.999692 -0.000178211 8.16286e-17)
(1.00027 -0.00010986 8.50709e-17)
(1.00057 -3.97414e-05 8.97582e-17)
(1.00059 1.8825e-05 1.07267e-16)
(1.00042 5.71442e-05 1.41124e-16)
(1.00013 7.27315e-05 1.74542e-16)
(0.99983 6.87275e-05 1.80808e-16)
(0.999578 5.17647e-05 1.3653e-16)
(0.999412 2.93525e-05 3.58179e-17)
(0.99934 7.75952e-06 -9.82272e-17)
(0.999348 -9.08715e-06 -2.26805e-16)
(0.999411 -1.96871e-05 -3.08016e-16)
(0.999505 -2.43837e-05 -3.16958e-16)
(0.999607 -2.45478e-05 -2.57353e-16)
(0.999703 -2.1857e-05 -1.54029e-16)
(0.999783 -1.78218e-05 -4.58994e-17)
(0.999846 -1.35626e-05 3.5273e-17)
(0.999892 -9.76789e-06 7.44941e-17)
(0.999924 -6.75545e-06 7.37538e-17)
(0.999946 -4.57336e-06 5.02347e-17)
(0.999961 -3.10752e-06 2.04035e-17)
(0.999971 -2.1746e-06 -2.596e-18)
(0.999978 -1.59035e-06 -1.33772e-17)
(0.999983 -1.20896e-06 -1.46061e-17)
(0.999988 -9.35814e-07 -9.13084e-18)
(0.999991 -7.21325e-07 -3.10113e-18)
(0.999993 -5.4571e-07 7.05978e-19)
(0.999995 -4.03537e-07 2.83379e-18)
(0.999997 -2.92977e-07 2.04807e-18)
(0.999998 -2.10871e-07 9.76509e-19)
(0.999998 -1.52046e-07 1.86187e-19)
(0.999999 -1.10573e-07 -3.66916e-19)
(0.999999 -8.11611e-08 3.02863e-19)
(0.999999 -5.98697e-08 -2.18661e-20)
(1 -4.41216e-08 1.55194e-20)
(1 -3.23387e-08 1.25997e-19)
(1 -2.35293e-08 -2.00953e-20)
(1 -1.69983e-08 6.63096e-19)
(1 -1.22028e-08 1.82887e-19)
(1 -8.70336e-09 7.02434e-20)
(1 -6.15362e-09 1.07108e-19)
(1 -4.29225e-09 -4.23264e-20)
(1 -2.93057e-09 6.72344e-19)
(1 -1.93344e-09 2.27286e-19)
(1 -1.20495e-09 1.37879e-19)
(1 -6.74324e-10 1.82966e-19)
(1 -2.90217e-10 2.92645e-20)
(1 -1.33048e-11 7.30741e-19)
(1 1.84326e-10 2.66782e-19)
(1 3.24604e-10 1.56003e-19)
(1 4.22172e-10 1.80157e-19)
(1 4.89278e-10 1.07986e-20)
(1 5.33271e-10 6.95624e-19)
(1 5.61278e-10 2.53217e-19)
(1 5.76711e-10 2.07047e-20)
(1 5.84008e-10 6.16027e-19)
(1 5.84411e-10 7.0595e-19)
(1 5.80941e-10 8.14006e-19)
(1 5.73613e-10 2.33214e-19)
(1 5.64732e-10 -3.59679e-20)
(1 5.53606e-10 5.46505e-19)
(1 5.42196e-10 6.30449e-19)
(1 5.29383e-10 7.36417e-19)
(1 5.16987e-10 1.57033e-19)
(1 5.03615e-10 -1.07798e-19)
(1 4.91053e-10 4.80823e-19)
(1 4.77721e-10 5.71292e-19)
(1 4.65425e-10 6.82924e-19)
(1 4.52444e-10 1.07634e-19)
(1 4.40628e-10 -1.54756e-19)
(1 4.28148e-10 4.35056e-19)
(1 4.16912e-10 5.2608e-19)
(1 4.04999e-10 6.38189e-19)
(1 3.94378e-10 6.36477e-20)
(1 3.83048e-10 -1.97605e-19)
(1 3.73041e-10 3.93696e-19)
(1 3.62288e-10 4.86497e-19)
(1 3.52876e-10 6.0063e-19)
(1 3.42676e-10 2.83015e-20)
(1 3.33831e-10 -2.30746e-19)
(1 3.24155e-10 3.62242e-19)
(1 3.15842e-10 4.55308e-19)
(1 3.06652e-10 5.67113e-19)
(1 2.98838e-10 -1.11895e-20)
(1 2.90099e-10 -2.80243e-19)
(1 2.82788e-10 2.99506e-19)
(1 2.74437e-10 3.78265e-19)
(1 2.67727e-10 4.77913e-19)
(1 2.59491e-10 -1.07138e-19)
(1 2.53937e-10 -3.74642e-19)
(1 2.44479e-10 2.1329e-19)
(1 2.43457e-10 3.15614e-19)
(1 2.25946e-10 4.02463e-19)
(1 2.46746e-10 -9.89163e-21)
(1 1.96415e-10 -9.75634e-19)
(1.00014 -0.000864793 3.53908e-20)
(1.00222 -0.0026101 3.66306e-19)
(1.00693 -0.00446297 7.09129e-19)
(1.01411 -0.00646098 1.06861e-18)
(1.02408 -0.0086141 1.4639e-18)
(1.03704 -0.0108619 1.83368e-18)
(1.05309 -0.0130844 2.19185e-18)
(1.07209 -0.0150401 2.04442e-18)
(1.09352 -0.0164678 5.36543e-18)
(1.11649 -0.0170784 6.89746e-18)
(1.13961 -0.0166978 4.23377e-18)
(1.16156 -0.0155047 5.10661e-18)
(1.18139 -0.0136459 1.41144e-18)
(1.19831 -0.0112631 1.18414e-17)
(1.2117 -0.00848207 3.7574e-17)
(1.22113 -0.00539211 6.45486e-17)
(1.22622 -0.00208847 7.40011e-17)
(1.22676 0.00130149 6.33281e-17)
(1.22271 0.00460424 4.10525e-17)
(1.21432 0.00761174 1.26759e-17)
(1.20213 0.010118 -1.69143e-17)
(1.18696 0.0119653 -4.43947e-17)
(1.16979 0.0130797 -6.77849e-17)
(1.15165 0.0134809 -8.65507e-17)
(1.13347 0.0132648 -1.00304e-16)
(1.11598 0.0125727 -1.09844e-16)
(1.09973 0.0115589 -1.15682e-16)
(1.08503 0.0103663 -1.17964e-16)
(1.07203 0.00911224 -1.16718e-16)
(1.06073 0.00788344 -1.11579e-16)
(1.05104 0.00673699 -1.00187e-16)
(1.04282 0.00570531 -9.04944e-17)
(1.03589 0.00480202 -7.70218e-17)
(1.03008 0.00402774 -5.94606e-17)
(1.02521 0.0033749 -4.10679e-17)
(1.02114 0.00283143 -1.86548e-17)
(1.01771 0.00238338 2.11056e-18)
(1.01482 0.0020166 2.30352e-17)
(1.01236 0.0017178 4.48105e-17)
(1.01026 0.00147508 6.64022e-17)
(1.00845 0.00127813 8.85232e-17)
(1.00687 0.00111828 1.06573e-16)
(1.00547 0.00098831 1.21833e-16)
(1.00423 0.000882279 1.33145e-16)
(1.00312 0.000795277 1.391e-16)
(1.00211 0.000723216 1.3946e-16)
(1.00119 0.000662633 1.30899e-16)
(1.00034 0.000610586 1.16319e-16)
(0.99955 0.000564634 9.67987e-17)
(0.998819 0.00052292 7.28463e-17)
(0.998142 0.00048426 4.94165e-17)
(0.997513 0.000447989 2.9293e-17)
(0.99693 0.000413334 1.70083e-17)
(0.996392 0.000378178 1.55758e-17)
(0.995901 0.000337606 2.12538e-17)
(0.995469 0.000283097 2.62207e-17)
(0.995119 0.000203527 1.48672e-17)
(0.994893 8.86428e-05 -2.28037e-17)
(0.994841 -6.55019e-05 -8.25992e-17)
(0.995015 -0.000251182 -1.451e-16)
(0.995448 -0.000446565 -1.80952e-16)
(0.996134 -0.000618516 -1.75387e-16)
(0.997021 -0.000730923 -1.38035e-16)
(0.998007 -0.000756087 -1.05071e-16)
(0.998967 -0.000684819 -1.13357e-16)
(0.999773 -0.0005309 -1.72459e-16)
(1.00033 -0.000327747 -2.50302e-16)
(1.00061 -0.00011841 -2.76245e-16)
(1.00062 5.71206e-05 -1.9613e-16)
(1.00044 0.000172476 -1.11893e-17)
(1.00014 0.000219811 2.0388e-16)
(0.999836 0.000208201 3.26826e-16)
(0.999578 0.000157351 2.58466e-16)
(0.999408 8.97769e-05 -2.94261e-17)
(0.999334 2.44109e-05 -4.61291e-16)
(0.999341 -2.67793e-05 -8.8866e-16)
(0.999407 -5.91248e-05 -1.15981e-15)
(0.999503 -7.35574e-05 -1.17804e-15)
(0.999607 -7.41735e-05 -9.50668e-16)
(0.999704 -6.60535e-05 -5.70529e-16)
(0.999786 -5.38054e-05 -1.7126e-16)
(0.999849 -4.08634e-05 1.28247e-16)
(0.999895 -2.93445e-05 2.75029e-16)
(0.999927 -2.02236e-05 2.77393e-16)
(0.999948 -1.36436e-05 1.91086e-16)
(0.999962 -9.24759e-06 8.17809e-17)
(0.999971 -6.46783e-06 -5.76233e-18)
(0.999978 -4.73731e-06 -4.84314e-17)
(0.999984 -3.61059e-06 -5.27244e-17)
(0.999988 -2.80146e-06 -3.46495e-17)
(0.999991 -2.1623e-06 -1.15559e-17)
(0.999993 -1.63623e-06 2.95303e-18)
(0.999995 -1.20916e-06 9.13135e-18)
(0.999997 -8.76941e-07 8.1883e-18)
(0.999998 -6.30555e-07 4.48599e-18)
(0.999998 -4.54419e-07 1.32509e-18)
(0.999999 -3.30504e-07 -1.06028e-18)
(0.999999 -2.4273e-07 -8.35864e-19)
(0.999999 -1.79185e-07 -2.98957e-19)
(1 -1.32138e-07 1.81307e-19)
(1 -9.68957e-08 5.87327e-19)
(1 -7.05279e-08 -5.76696e-20)
(1 -5.09762e-08 3.6763e-19)
(1 -3.6624e-08 3.88549e-19)
(1 -2.61548e-08 3.12364e-19)
(1 -1.85287e-08 4.18988e-19)
(1 -1.29615e-08 -2.70561e-19)
(1 -8.88756e-09 2.40514e-19)
(1 -5.90345e-09 3.63686e-19)
(1 -3.72207e-09 3.51788e-19)
(1 -2.13279e-09 4.79677e-19)
(1 -9.81324e-10 -2.15643e-19)
(1 -1.5105e-10 2.7871e-19)
(1 4.42692e-10 3.83115e-19)
(1 8.64294e-10 3.53729e-19)
(1 1.15884e-09 4.66212e-19)
(1 1.36156e-09 -2.39842e-19)
(1 1.49593e-09 2.42091e-19)
(1 1.58166e-09 3.67758e-19)
(1 1.63063e-09 2.24692e-19)
(1 1.65434e-09 8.92132e-19)
(1 1.65835e-09 4.11541e-19)
(1 1.64976e-09 3.12849e-19)
(1 1.63063e-09 3.09267e-19)
(1 1.60575e-09 1.41215e-19)
(1 1.57523e-09 8.06446e-19)
(1 1.54266e-09 3.28646e-19)
(1 1.50705e-09 2.34756e-19)
(1 1.47139e-09 2.3775e-19)
(1 1.43406e-09 7.76874e-20)
(1 1.39778e-09 7.51398e-19)
(1 1.3605e-09 2.81404e-19)
(1 1.32488e-09 1.93683e-19)
(1 1.28858e-09 2.00759e-19)
(1 1.25426e-09 4.28349e-20)
(1 1.2194e-09 7.17299e-19)
(1 1.18668e-09 2.4738e-19)
(1 1.15345e-09 1.59659e-19)
(1 1.12244e-09 1.67008e-19)
(1 1.09089e-09 9.74045e-21)
(1 1.06159e-09 6.85196e-19)
(1 1.0317e-09 2.16535e-19)
(1 1.00407e-09 1.30309e-19)
(1 9.75774e-10 1.39375e-19)
(1 9.49733e-10 -1.60855e-20)
(1 9.22937e-10 6.6084e-19)
(1 8.98392e-10 1.92491e-19)
(1 8.73e-10 1.04295e-19)
(1 8.49867e-10 1.08017e-19)
(1 8.25767e-10 -5.66773e-20)
(1 8.04045e-10 6.07703e-19)
(1 7.81032e-10 1.25409e-19)
(1 7.61007e-10 2.48641e-20)
(1 7.38306e-10 2.10123e-20)
(1 7.21662e-10 -1.43606e-19)
(1 6.95574e-10 5.27445e-19)
(1 6.91848e-10 6.57533e-20)
(1 6.43533e-10 -4.42341e-20)
(1 6.99469e-10 1.03167e-19)
(1 5.62526e-10 -6.81022e-19)
(1.00014 -0.00143243 6.33976e-22)
(1.00218 -0.0043253 4.85317e-21)
(1.00681 -0.00740318 2.52009e-21)
(1.01389 -0.0107346 7.78208e-21)
(1.02379 -0.0143411 -1.58051e-19)
(1.03674 -0.0181262 2.30172e-19)
(1.0529 -0.0218919 -8.32128e-19)
(1.07219 -0.0252241 -1.49499e-18)
(1.09409 -0.0276741 6.2962e-18)
(1.11769 -0.0287229 -1.29207e-18)
(1.14144 -0.0280635 -3.67621e-17)
(1.16391 -0.0260362 -2.79218e-17)
(1.18415 -0.0228982 9.78906e-17)
(1.20139 -0.018892 2.93854e-16)
(1.21503 -0.0142272 4.15284e-16)
(1.22464 -0.00904593 3.49718e-16)
(1.22984 -0.00350119 1.20036e-16)
(1.23037 0.00219663 -1.51412e-16)
(1.22619 0.00775441 -3.86345e-16)
(1.21751 0.012817 -5.57129e-16)
(1.20492 0.0170313 -6.60503e-16)
(1.18926 0.0201271 -7.05068e-16)
(1.17159 0.0219795 -7.03887e-16)
(1.15298 0.0226249 -6.70288e-16)
(1.13441 0.0222303 -6.15767e-16)
(1.11663 0.0210385 -5.48802e-16)
(1.10019 0.0193128 -4.74444e-16)
(1.08539 0.0172952 -3.94608e-16)
(1.07236 0.0151829 -3.09249e-16)
(1.06108 0.0131199 -2.18039e-16)
(1.05145 0.0112006 -1.211e-16)
(1.04329 0.00947756 -2.10326e-17)
(1.03644 0.00797196 7.90955e-17)
(1.0307 0.0066836 1.76312e-16)
(1.0259 0.00559889 2.68026e-16)
(1.02188 0.004697 3.5338e-16)
(1.01851 0.00395421 4.31978e-16)
(1.01566 0.00334666 5.03782e-16)
(1.01323 0.00285204 5.68217e-16)
(1.01116 0.00245044 6.23315e-16)
(1.00936 0.0021247 6.66037e-16)
(1.00779 0.0018604 6.92107e-16)
(1.00641 0.00164556 6.9735e-16)
(1.00517 0.00147035 6.78245e-16)
(1.00406 0.00132664 6.32576e-16)
(1.00304 0.00120768 5.60307e-16)
(1.00212 0.00110775 4.63644e-16)
(1.00126 0.00102197 3.47779e-16)
(1.00046 0.000946292 2.20653e-16)
(0.999718 0.000877635 9.23835e-17)
(0.999026 0.000814004 -2.33066e-17)
(0.998381 0.000754285 -1.13034e-16)
(0.99778 0.000697217 -1.66139e-16)
(0.997223 0.000639397 -1.81484e-16)
(0.99671 0.000572875 -1.81038e-16)
(0.996254 0.000483784 -2.08002e-16)
(0.995876 0.000353882 -3.14207e-16)
(0.995615 0.000166183 -5.25771e-16)
(0.995519 -8.61448e-05 -8.12289e-16)
(0.995639 -0.000390872 -1.09623e-15)
(0.996007 -0.000712508 -1.29721e-15)
(0.996619 -0.000996725 -1.39927e-15)
(0.997426 -0.00118392 -1.48264e-15)
(0.998333 -0.001228 -1.68859e-15)
(0.999217 -0.00111318 -2.11477e-15)
(0.999956 -0.000861606 -2.70064e-15)
(1.00046 -0.000528051 -3.20792e-15)
(1.00069 -0.000183536 -3.31804e-15)
(1.00067 0.000105647 -2.82781e-15)
(1.00046 0.000295512 -1.82067e-15)
(1.00015 0.000372669 -6.77573e-16)
(0.999829 0.000351857 6.8078e-17)
(0.999563 0.000265634 -1.08213e-17)
(0.99939 0.000151451 -1.00587e-15)
(0.999317 4.0983e-05 -2.59366e-15)
(0.999328 -4.5597e-05 -4.15978e-15)
(0.999398 -0.000100301 -5.08263e-15)
(0.9995 -0.000124594 -5.00087e-15)
(0.99961 -0.000125367 -3.954e-15)
(0.999711 -0.000111265 -2.33162e-15)
(0.999794 -9.01872e-05 -6.7131e-16)
(0.999857 -6.80458e-05 5.67517e-16)
(0.999902 -4.84753e-05 1.1666e-15)
(0.999932 -3.31195e-05 1.1727e-15)
(0.999952 -2.21707e-05 8.09408e-16)
(0.999964 -1.49597e-05 3.4674e-16)
(0.999973 -1.047e-05 -1.74459e-17)
(0.999979 -7.70975e-06 -1.99758e-16)
(0.999984 -5.91677e-06 -2.18889e-16)
(0.999988 -4.61513e-06 -1.46916e-16)
(0.999991 -3.5702e-06 -5.57552e-17)
(0.999994 -2.70007e-06 8.79687e-18)
(0.999995 -1.99059e-06 3.467e-17)
(0.999997 -1.43946e-06 3.18201e-17)
(0.999998 -1.03269e-06 1.70562e-17)
(0.999998 -7.4362e-07 3.36367e-18)
(0.999999 -5.41218e-07 -3.92012e-18)
(0.999999 -3.98113e-07 -5.13934e-18)
(0.999999 -2.94374e-07 -3.24176e-18)
(1 -2.17338e-07 -9.33886e-19)
(1 -1.59475e-07 4.97219e-19)
(1 -1.16125e-07 8.27769e-19)
(1 -8.3986e-08 6.17518e-19)
(1 -6.0417e-08 3.07866e-19)
(1 -4.32428e-08 1.11276e-19)
(1 -3.07389e-08 9.37752e-20)
(1 -2.16098e-08 8.33096e-20)
(1 -1.4925e-08 1.27994e-19)
(1 -1.00248e-08 1.77315e-19)
(1 -6.43989e-09 2.013e-19)
(1 -3.82655e-09 2.4136e-19)
(1 -1.93124e-09 1.96582e-19)
(1 -5.63364e-10 1.86249e-19)
(1 4.17048e-10 1.95021e-19)
(1 1.1147e-09 1.97747e-19)
(1 1.60459e-09 2.28171e-19)
(1 1.94338e-09 1.78843e-19)
(1 2.17067e-09 1.63945e-19)
(1 2.31755e-09 1.76127e-19)
(1 2.4048e-09 1.62987e-19)
(1 2.44987e-09 2.2632e-19)
(1 2.46334e-09 2.49494e-19)
(1 2.45528e-09 2.47551e-19)
(1 2.43069e-09 2.44554e-19)
(1 2.39572e-09 2.09075e-19)
(1 2.35229e-09 2.51502e-19)
(1 2.30447e-09 2.58366e-19)
(1 2.25252e-09 2.45611e-19)
(1 2.19939e-09 2.36947e-19)
(1 2.1444e-09 1.99733e-19)
(1 2.08996e-09 2.42683e-19)
(1 2.03484e-09 2.50666e-19)
(1 1.98118e-09 2.38398e-19)
(1 1.92743e-09 2.29021e-19)
(1 1.87562e-09 1.89969e-19)
(1 1.82399e-09 2.30451e-19)
(1 1.77452e-09 2.35947e-19)
(1 1.72531e-09 2.21649e-19)
(1 1.67836e-09 2.10919e-19)
(1 1.63168e-09 1.71174e-19)
(1 1.58728e-09 2.11479e-19)
(1 1.54308e-09 2.17181e-19)
(1 1.50115e-09 2.03423e-19)
(1 1.45935e-09 1.93581e-19)
(1 1.41978e-09 1.55013e-19)
(1 1.38025e-09 1.96469e-19)
(1 1.3429e-09 2.02589e-19)
(1 1.30549e-09 1.87454e-19)
(1 1.27025e-09 1.73311e-19)
(1 1.23478e-09 1.26818e-19)
(1 1.20165e-09 1.56987e-19)
(1 1.16777e-09 1.49982e-19)
(1 1.1372e-09 1.22525e-19)
(1 1.10377e-09 9.9892e-20)
(1 1.07832e-09 5.14453e-20)
(1 1.03993e-09 8.65199e-20)
(1 1.03339e-09 9.33653e-20)
(1 9.63421e-10 7.4791e-20)
(1 1.03988e-09 9.27933e-20)
(1 8.4686e-10 -7.42822e-21)
(1.00014 -0.00198661 -2.65683e-20)
(1.00211 -0.00600137 -4.7948e-19)
(1.00662 -0.0102883 -8.37339e-19)
(1.01355 -0.0149537 -1.6444e-18)
(1.02331 -0.0200395 -1.8034e-18)
(1.03623 -0.0254202 -1.75171e-18)
(1.05255 -0.0308239 -1.1248e-17)
(1.07226 -0.0356456 1.79048e-17)
(1.09489 -0.0392303 3.48402e-18)
(1.11946 -0.0407647 -1.38559e-16)
(1.14419 -0.0397834 -2.36116e-17)
(1.16743 -0.0368595 6.4477e-16)
(1.18829 -0.0323801 1.23119e-15)
(1.20601 -0.0266981 7.25741e-16)
(1.22002 -0.0201074 -1.17975e-15)
(1.22991 -0.0127908 -3.73183e-15)
(1.23527 -0.00494698 -5.58324e-15)
(1.2358 0.00313759 -6.20012e-15)
(1.23141 0.0110452 -6.0591e-15)
(1.22231 0.0182575 -5.45091e-15)
(1.2091 0.0242534 -4.60278e-15)
(1.1927 0.0286342 -3.6789e-15)
(1.17425 0.0312196 -2.78077e-15)
(1.15493 0.0320696 -1.9596e-15)
(1.13576 0.0314355 -1.23276e-15)
(1.11755 0.0296759 -5.9794e-16)
(1.10083 0.027174 -4.13888e-17)
(1.08589 0.0242774 4.54844e-16)
(1.07282 0.0212658 9.07419e-16)
(1.06157 0.0183407 1.32736e-15)
(1.05201 0.0156316 1.71962e-15)
(1.04396 0.0132086 2.0713e-15)
(1.03722 0.0110982 2.37951e-15)
(1.03159 0.00929726 2.63692e-15)
(1.02689 0.00778448 2.838e-15)
(1.02296 0.00652913 2.98892e-15)
(1.01966 0.00549692 3.09156e-15)
(1.01687 0.00465379 3.15307e-15)
(1.0145 0.00396813 3.17392e-15)
(1.01246 0.00341192 3.14594e-15)
(1.01069 0.00296111 3.05893e-15)
(1.00914 0.00259554 2.8967e-15)
(1.00777 0.00229855 2.65176e-15)
(1.00654 0.0020565 2.3192e-15)
(1.00543 0.00185813 1.90138e-15)
(1.00441 0.00169408 1.40999e-15)
(1.00347 0.00155643 8.62714e-16)
(1.0026 0.00143843 2.91213e-16)
(1.00179 0.00133446 -2.69214e-16)
(1.00103 0.0012402 -7.80397e-16)
(1.00032 0.00115285 -1.19997e-15)
(0.999653 0.00107082 -1.49624e-15)
(0.999027 0.000992384 -1.6609e-15)
(0.998442 0.000912969 -1.73579e-15)
(0.997899 0.000821853 -1.83461e-15)
(0.997408 0.000700215 -2.12361e-15)
(0.99699 0.000523128 -2.76116e-15)
(0.99668 0.000267138 -3.79089e-15)
(0.996523 -7.75692e-05 -5.07646e-15)
(0.996567 -0.000494831 -6.3697e-15)
(0.996842 -0.000936488 -7.49931e-15)
(0.997348 -0.00132817 -8.56e-15)
(0.998039 -0.00158777 -9.92727e-15)
(0.998826 -0.0016513 -1.20216e-14)
(0.999594 -0.00149632 -1.49012e-14)
(1.00023 -0.00115268 -1.79722e-14)
(1.00064 -0.000695526 -2.00846e-14)
(1.0008 -0.000222861 -2.00475e-14)
(1.00072 0.000173501 -1.73582e-14)
(1.00047 0.000432364 -1.2683e-14)
(1.00014 0.000534846 -7.73626e-15)
(0.999801 0.000501171 -4.6046e-15)
(0.999527 0.00037653 -4.78069e-15)
(0.999353 0.000213187 -8.39193e-15)
(0.999283 5.55966e-05 -1.40157e-14)
(0.999303 -6.77272e-05 -1.92651e-14)
(0.999384 -0.000145358 -2.18617e-14)
(0.999496 -0.000179298 -2.05992e-14)
(0.999615 -0.000179399 -1.57939e-14)
(0.999721 -0.000158163 -9.02129e-15)
(0.999807 -0.000127104 -2.35187e-15)
(0.999871 -9.48573e-05 2.50968e-15)
(0.999913 -6.67006e-05 4.79849e-15)
(0.999941 -4.49389e-05 4.75086e-15)
(0.999957 -2.97165e-05 3.2692e-15)
(0.999968 -1.99217e-05 1.4063e-15)
(0.999975 -1.39762e-05 -6.04621e-17)
(0.999981 -1.0393e-05 -8.0101e-16)
(0.999985 -8.06849e-06 -8.88651e-16)
(0.999989 -6.3449e-06 -6.02389e-16)
(0.999992 -4.92268e-06 -2.33756e-16)
(0.999994 -3.71701e-06 3.04194e-17)
(0.999996 -2.72855e-06 1.4047e-16)
(0.999997 -1.96343e-06 1.32273e-16)
(0.999998 -1.40356e-06 7.3152e-17)
(0.999998 -1.00961e-06 1.65039e-17)
(0.999999 -7.3583e-07 -1.52447e-17)
(0.999999 -5.42706e-07 -2.09613e-17)
(0.999999 -4.02304e-07 -1.37467e-17)
(1 -2.9749e-07 -4.39727e-18)
(1 -2.18418e-07 1.63188e-18)
(1 -1.59072e-07 2.63036e-18)
(1 -1.151e-07 2.30748e-18)
(1 -8.29122e-08 1.03203e-18)
(1 -5.94999e-08 1.16264e-19)
(1 -4.24683e-08 -1.23456e-20)
(1 -3.00302e-08 -6.01972e-19)
(1 -2.09132e-08 4.32783e-20)
(1 -1.42227e-08 2.47758e-19)
(1 -9.32332e-09 2.74503e-19)
(1 -5.74918e-09 4.17063e-19)
(1 -3.15477e-09 -2.85082e-19)
(1 -1.28001e-09 1.65062e-19)
(1 6.66157e-11 2.42932e-19)
(1 1.02786e-09 2.29516e-19)
(1 1.70619e-09 3.79251e-19)
(1 2.17851e-09 -3.04835e-19)
(1 2.49903e-09 1.50967e-19)
(1 2.70978e-09 2.52325e-19)
(1 2.83938e-09 1.30144e-19)
(1 2.91127e-09 8.13445e-19)
(1 2.94017e-09 3.14644e-19)
(1 2.93948e-09 1.80369e-19)
(1 2.91632e-09 1.57759e-19)
(1 2.87869e-09 2.03773e-20)
(1 2.82959e-09 7.11966e-19)
(1 2.77414e-09 2.25889e-19)
(1 2.71308e-09 1.05162e-19)
(1 2.65004e-09 9.62406e-20)
(1 2.58448e-09 -2.79492e-20)
(1 2.51925e-09 6.75399e-19)
(1 2.45312e-09 1.98736e-19)
(1 2.38855e-09 8.45538e-20)
(1 2.32387e-09 7.93532e-20)
(1 2.26139e-09 -4.33698e-20)
(1 2.19917e-09 6.60037e-19)
(1 2.13946e-09 1.82866e-19)
(1 2.08014e-09 6.82195e-20)
(1 2.02344e-09 6.28861e-20)
(1 1.96716e-09 -5.96147e-20)
(1 1.91353e-09 6.44257e-19)
(1 1.86026e-09 1.67696e-19)
(1 1.80961e-09 5.38158e-20)
(1 1.75923e-09 4.94973e-20)
(1 1.71144e-09 -7.16733e-20)
(1 1.66379e-09 6.33677e-19)
(1 1.61869e-09 1.58194e-19)
(1 1.57361e-09 4.40379e-20)
(1 1.53106e-09 3.69634e-20)
(1 1.48832e-09 -9.0289e-20)
(1 1.44833e-09 6.0561e-19)
(1 1.40751e-09 1.18425e-19)
(1 1.37064e-09 -7.43175e-21)
(1 1.33032e-09 -2.34725e-20)
(1 1.29965e-09 -1.54085e-19)
(1 1.25353e-09 5.43618e-19)
(1 1.24457e-09 7.11944e-20)
(1 1.16328e-09 -6.8087e-20)
(1 1.24408e-09 5.78628e-20)
(1 1.02864e-09 -6.73666e-19)
(1.00013 -0.00252054 -2.1683e-18)
(1.00202 -0.00761901 -7.2607e-18)
(1.00634 -0.0130895 -6.05378e-18)
(1.01305 -0.0190871 -9.38402e-18)
(1.02262 -0.0256861 3.7624e-19)
(1.03546 -0.0327444 -2.99384e-17)
(1.05195 -0.0399233 2.16241e-17)
(1.07222 -0.046403 8.17708e-17)
(1.09584 -0.0512948 -4.40418e-16)
(1.1218 -0.0533848 4.82566e-17)
(1.14786 -0.0520092 2.40575e-15)
(1.17214 -0.0480934 2.4156e-15)
(1.19383 -0.0421821 -4.82486e-15)
(1.21218 -0.0347509 -1.83099e-14)
(1.22668 -0.0261752 -3.13625e-14)
(1.23694 -0.0166617 -3.70939e-14)
(1.24253 -0.00644041 -3.30081e-14)
(1.24308 0.00413093 -2.31026e-14)
(1.23843 0.0145028 -1.25817e-14)
(1.22876 0.0239759 -3.51039e-15)
(1.21469 0.0318384 3.40594e-15)
(1.19725 0.0375454 8.21371e-15)
(1.17773 0.040855 1.13039e-14)
(1.15743 0.041859 1.31637e-14)
(1.13746 0.0409091 1.4234e-14)
(1.11867 0.0384969 1.484e-14)
(1.10158 0.0351395 1.52115e-14)
(1.08646 0.0312987 1.54644e-14)
(1.07335 0.0273394 1.56492e-14)
(1.06216 0.0235203 1.57721e-14)
(1.05272 0.0200032 1.58114e-14)
(1.04482 0.0168729 1.57382e-14)
(1.03823 0.0141577 1.55225e-14)
(1.03275 0.0118486 1.5143e-14)
(1.02819 0.00991482 1.46065e-14)
(1.02437 0.0083141 1.39362e-14)
(1.02117 0.00700067 1.31599e-14)
(1.01846 0.00592967 1.22911e-14)
(1.01615 0.00505991 1.13188e-14)
(1.01416 0.00435513 1.02154e-14)
(1.01243 0.00378438 8.94462e-15)
(1.0109 0.00332187 7.4779e-15)
(1.00955 0.0029464 5.8038e-15)
(1.00833 0.00264061 3.93414e-15)
(1.00722 0.00239027 1.90965e-15)
(1.0062 0.00218352 -2.03242e-16)
(1.00525 0.00201032 -2.31201e-15)
(1.00437 0.0018621 -4.30752e-15)
(1.00354 0.00173171 -6.07487e-15)
(1.00276 0.00161363 -7.50653e-15)
(1.00202 0.00150424 -8.52607e-15)
(1.00132 0.00140145 -9.12636e-15)
(1.00066 0.00130308 -9.41802e-15)
(1.00004 0.00120351 -9.6882e-15)
(0.999458 0.00108959 -1.04136e-14)
(0.998922 0.000938046 -1.21447e-14)
(0.998453 0.000717877 -1.52789e-14)
(0.99808 0.000399589 -1.97949e-14)
(0.997845 -2.96395e-05 -2.51875e-14)
(0.997791 -0.00055038 -3.08119e-14)
(0.997947 -0.00110308 -3.65153e-14)
(0.998313 -0.00159492 -4.30174e-14)
(0.99885 -0.00192276 -5.15869e-14)
(0.999477 -0.00200564 -6.29775e-14)
(1.00009 -0.0018145 -7.61984e-14)
(1.00058 -0.0013862 -8.80801e-14)
(1.00087 -0.000814992 -9.42733e-14)
(1.00093 -0.000224414 -9.13482e-14)
(1.00078 0.000269398 -7.89624e-14)
(1.00048 0.000588774 -6.0802e-14)
(1.0001 0.000709564 -4.35296e-14)
(0.999746 0.00065734 -3.41713e-14)
(0.999464 0.00048966 -3.69214e-14)
(0.999291 0.000273438 -5.08995e-14)
(0.99923 6.5929e-05 -7.01178e-14)
(0.999264 -9.58618e-05 -8.59298e-14)
(0.999361 -0.000196947 -9.08367e-14)
(0.999489 -0.00023992 -8.15679e-14)
(0.999621 -0.00023788 -6.02028e-14)
(0.999736 -0.000207638 -3.29482e-14)
(0.999826 -0.000164794 -7.32798e-15)
(0.999889 -0.000121071 1.07736e-14)
(0.999929 -8.35483e-05 1.89499e-14)
(0.999952 -5.51591e-05 1.83814e-14)
(0.999965 -3.58363e-05 1.25451e-14)
(0.999973 -2.38215e-05 5.37796e-15)
(0.999978 -1.68032e-05 -2.32111e-16)
(0.999982 -1.26978e-05 -3.07843e-15)
(0.999986 -1.00298e-05 -3.43376e-15)
(0.99999 -7.9759e-06 -2.35282e-15)
(0.999993 -6.20808e-06 -9.40925e-16)
(0.999995 -4.67264e-06 9.17783e-17)
(0.999996 -3.40666e-06 5.32854e-16)
(0.999997 -2.43334e-06 5.14257e-16)
(0.999998 -1.73064e-06 2.90974e-16)
(0.999999 -1.24345e-06 6.93282e-17)
(0.999999 -9.08461e-07 -5.60436e-17)
(0.999999 -6.72739e-07 -8.34454e-17)
(0.999999 -5.00448e-07 -5.70325e-17)
(1 -3.70751e-07 -1.96308e-17)
(1 -2.72287e-07 4.48453e-18)
(1 -1.98226e-07 1.12252e-17)
(1 -1.43426e-07 8.44599e-18)
(1 -1.03436e-07 3.06887e-18)
(1 -7.44268e-08 -9.2831e-21)
(1 -5.33481e-08 -9.67008e-19)
(1 -3.79464e-08 -1.24894e-18)
(1 -2.66406e-08 -5.9946e-19)
(1 -1.83316e-08 -2.0737e-19)
(1 -1.22406e-08 5.02985e-19)
(1 -7.79439e-09 6.87297e-19)
(1 -4.56475e-09 -8.64843e-21)
(1 -2.22845e-09 -1.26675e-19)
(1 -5.46786e-10 -2.33383e-19)
(1 6.57278e-10 3.29674e-19)
(1 1.51113e-09 5.61763e-19)
(1 2.1096e-09 -4.85485e-20)
(1 2.52018e-09 -1.18431e-19)
(1 2.79447e-09 -2.10683e-19)
(1 2.96838e-09 3.26706e-19)
(1 3.07047e-09 5.79004e-19)
(1 3.11945e-09 3.28873e-20)
(1 3.1314e-09 -2.78324e-20)
(1 3.11564e-09 -1.36487e-19)
(1 3.08152e-09 3.78512e-19)
(1 3.03329e-09 6.10499e-19)
(1 2.97672e-09 4.91201e-20)
(1 2.91328e-09 -2.11939e-20)
(1 2.84685e-09 -1.34519e-19)
(1 2.77738e-09 3.79194e-19)
(1 2.70777e-09 6.11493e-19)
(1 2.63711e-09 5.04738e-20)
(1 2.5678e-09 -2.04033e-20)
(1 2.49844e-09 -1.35499e-19)
(1 2.4312e-09 3.75525e-19)
(1 2.36437e-09 6.04802e-19)
(1 2.30002e-09 4.10321e-20)
(1 2.23626e-09 -3.19317e-20)
(1 2.17514e-09 -1.48336e-19)
(1 2.11465e-09 3.6204e-19)
(1 2.05682e-09 5.91118e-19)
(1 1.99957e-09 2.74358e-20)
(1 1.94496e-09 -4.51856e-20)
(1 1.89084e-09 -1.60895e-19)
(1 1.8393e-09 3.50633e-19)
(1 1.78814e-09 5.81246e-19)
(1 1.73951e-09 1.90462e-20)
(1 1.69111e-09 -5.29924e-20)
(1 1.64525e-09 -1.70105e-19)
(1 1.59937e-09 3.37106e-19)
(1 1.55628e-09 5.6021e-19)
(1 1.51246e-09 -1.19269e-20)
(1 1.47277e-09 -9.44805e-20)
(1 1.42949e-09 -2.20292e-19)
(1 1.39641e-09 2.82814e-19)
(1 1.34721e-09 5.05869e-19)
(1 1.33596e-09 -5.33662e-20)
(1 1.25282e-09 -1.5329e-19)
(1 1.32492e-09 -1.3693e-19)
(1 1.11567e-09 -2.21637e-19)
(1.00012 -0.00302658 2.14943e-18)
(1.00189 -0.00915576 8.11555e-18)
(1.00596 -0.0157727 5.66905e-18)
(1.01236 -0.023095 9.94952e-18)
(1.02164 -0.0312467 2.28485e-17)
(1.03432 -0.040088 -9.74394e-17)
(1.051 -0.0492266 4.66487e-16)
(1.07194 -0.0575989 -9.90781e-16)
(1.09685 -0.0640481 -4.41077e-16)
(1.12466 -0.0667884 6.89926e-15)
(1.15247 -0.064902 2.17487e-15)
(1.17807 -0.0598556 -3.06945e-14)
(1.20077 -0.0523884 -7.20385e-14)
(1.21988 -0.0431162 -8.21453e-14)
(1.23499 -0.032491 -3.95934e-14)
(1.24572 -0.0207119 4.26019e-14)
(1.25161 -0.00801014 1.2462e-13)
(1.25221 0.00520204 1.78747e-13)
(1.24724 0.0182295 2.07713e-13)
(1.23683 0.0301529 2.15868e-13)
(1.22165 0.040024 2.09175e-13)
(1.20289 0.0471194 1.93584e-13)
(1.18199 0.0511308 1.73985e-13)
(1.16043 0.0522001 1.53815e-13)
(1.13945 0.0508088 1.35163e-13)
(1.11994 0.0476102 1.18993e-13)
(1.1024 0.0432758 1.05497e-13)
(1.08707 0.0383925 9.43516e-14)
(1.07393 0.0334141 8.50022e-14)
(1.06283 0.028654 7.6881e-14)
(1.05355 0.0243024 6.95208e-14)
(1.04584 0.0204532 6.26012e-14)
(1.03945 0.0171317 5.59346e-14)
(1.03416 0.0143198 4.94451e-14)
(1.02977 0.0119736 4.31216e-14)
(1.02611 0.0100376 3.69798e-14)
(1.02303 0.00845335 3.10095e-14)
(1.02042 0.00716433 2.51474e-14)
(1.01819 0.00611937 1.92837e-14)
(1.01626 0.00527378 1.32947e-14)
(1.01457 0.00458976 7.09426e-15)
(1.01307 0.00403597 6.60927e-16)
(1.01174 0.00358679 -5.95017e-15)
(1.01053 0.00322136 -1.26119e-14)
(1.00942 0.00292258 -1.91336e-14)
(1.0084 0.00267624 -2.52625e-14)
(1.00744 0.0024703 -3.0704e-14)
(1.00654 0.00229446 -3.51536e-14)
(1.00569 0.00214009 -3.8354e-14)
(1.00488 0.00200051 -4.01683e-14)
(1.00411 0.00187125 -4.06646e-14)
(1.00338 0.00174972 -4.0232e-14)
(1.00268 0.00163328 -3.97113e-14)
(1.00201 0.00151542 -4.045e-14)
(1.00138 0.0013809 -4.41303e-14)
(1.00079 0.00120267 -5.2278e-14)
(1.00026 0.000944377 -6.55659e-14)
(0.999806 0.0005711 -8.33574e-14)
(0.999476 6.71006e-05 -1.04043e-13)
(0.999303 -0.000545633 -1.26348e-13)
(0.999313 -0.00119767 -1.50975e-13)
(0.999508 -0.00177978 -1.80831e-13)
(0.999854 -0.00216975 -2.1894e-13)
(1.00028 -0.002271 -2.64751e-13)
(1.0007 -0.00204819 -3.11364e-13)
(1.00101 -0.0015444 -3.46363e-13)
(1.00114 -0.00087141 -3.56817e-13)
(1.00108 -0.000176416 -3.3612e-13)
(1.00083 0.000401794 -2.88927e-13)
(1.00046 0.000770166 -2.31319e-13)
(1.00004 0.000899686 -1.85734e-13)
(0.999661 0.000821157 -1.72053e-13)
(0.999371 0.000604202 -1.98304e-13)
(0.999202 0.000330172 -2.55489e-13)
(0.999155 6.91504e-05 -3.19829e-13)
(0.999209 -0.00013318 -3.62292e-13)
(0.99933 -0.000258134 -3.60938e-13)
(0.99948 -0.000309009 -3.09574e-13)
(0.999629 -0.000302579 -2.19568e-13)
(0.999755 -0.000260606 -1.14461e-13)
(0.999849 -0.000203437 -2.02779e-14)
(0.999912 -0.00014636 4.39424e-14)
(0.999948 -9.84525e-05 7.15125e-14)
(0.999966 -6.3197e-05 6.78573e-14)
(0.999974 -4.00657e-05 4.5851e-14)
(0.999978 -2.636e-05 1.95296e-14)
(0.999981 -1.87989e-05 -9.26849e-16)
(0.999984 -1.45702e-05 -1.13182e-14)
(0.999988 -1.17935e-05 -1.26589e-14)
(0.999991 -9.51245e-06 -8.73851e-15)
(0.999994 -7.42502e-06 -3.56178e-15)
(0.999996 -5.55685e-06 2.7241e-16)
(0.999997 -4.00995e-06 1.94828e-15)
(0.999998 -2.83428e-06 1.91805e-15)
(0.999998 -2.00213e-06 1.10531e-15)
(0.999999 -1.43722e-06 2.79063e-16)
(0.999999 -1.05435e-06 -1.96537e-16)
(0.999999 -7.85399e-07 -3.08287e-16)
(0.999999 -5.86964e-07 -2.15178e-16)
(1 -4.35701e-07 -7.80836e-17)
(1 -3.19878e-07 1.31472e-17)
(1 -2.32566e-07 4.23552e-17)
(1 -1.68138e-07 3.3721e-17)
(1 -1.21344e-07 1.34218e-17)
(1 -8.75318e-08 -6.82019e-19)
(1 -6.29985e-08 -5.40231e-18)
(1 -4.50554e-08 -4.48123e-18)
(1 -3.18561e-08 -1.16771e-18)