/*--------------------------------*- C++ -*----------------------------------*\
  =========                 |
  \\      /  F ield         | OpenFOAM: The Open Source CFD Toolbox
   \\    /   O peration     | Website:  https://openfoam.org
    \\  /    A nd           | Version:  11
     \\/     M anipulation  |
\*---------------------------------------------------------------------------*/
FoamFile
{
    format      ascii;
    class       surfaceScalarField;
    location    "10.830782";
    object      phi_0;
}
// * * * * * * * * * * * * * * * * * * * * * * * * * * * * * * * * * * * * * //

dimensions      [0 3 -1 0 0 0 0];

internalField   nonuniform List<scalar> 
14638
(
0.00250269
-2.68906e-06
0.00251083
-8.14554e-06
0.00252466
-1.38286e-05
0.00254436
-1.97e-05
0.00256999
-2.56259e-05
0.00260124
-3.12501e-05
0.00263727
-3.60344e-05
0.00267637
-3.90958e-05
0.0027159
-3.95307e-05
0.00275243
-3.65261e-05
0.00278224
-2.98151e-05
0.00280289
-2.06514e-05
0.00281346
-1.05664e-05
0.00281469
-1.23417e-06
0.00280933
5.36003e-06
0.00280151
7.82595e-06
0.00279549
6.02155e-06
0.00279418
1.30874e-06
0.00279795
-3.76941e-06
0.00280407
-6.12688e-06
0.00280727
-3.19308e-06
0.0028016
5.66693e-06
0.00278307
1.85264e-05
0.0027512
3.18689e-05
0.00270894
4.22598e-05
0.00266156
4.73834e-05
0.0026154
4.61608e-05
0.00257698
3.8419e-05
0.0025524
2.45807e-05
0.00254675
5.65177e-06
0.0025632
-1.64497e-05
0.00260147
-3.82705e-05
0.00265608
-5.46111e-05
0.00271589
-5.98095e-05
0.00276646
-5.05691e-05
0.00279496
-2.84998e-05
0.00279481
1.49645e-07
0.00276713
2.76747e-05
0.00271876
4.83761e-05
0.00265887
5.98864e-05
0.00259658
6.22884e-05
0.00254
5.65843e-05
0.00249637
4.3626e-05
0.00247251
2.38626e-05
0.00247464
-2.12916e-06
0.00250709
-3.24551e-05
0.00256961
-6.25147e-05
0.00265445
-8.48413e-05
0.00274581
-9.13621e-05
0.00282332
-7.75066e-05
0.00286885
-4.55352e-05
0.00287312
-4.26692e-06
0.00283806
3.5057e-05
0.00277414
6.39216e-05
0.00269497
7.91719e-05
0.00261297
8.19971e-05
0.00253781
7.51676e-05
0.00247701
6.07934e-05
0.00243747
3.95463e-05
0.0024262
1.12676e-05
0.00244962
-2.34198e-05
0.00251076
-6.11396e-05
0.00260569
-9.49274e-05
0.00272139
-0.000115706
0.00283713
-0.000115738
0.00292941
-9.22752e-05
0.00297899
-4.95814e-05
0.00297717
1.81374e-06
0.00292855
4.86186e-05
0.00284873
7.98293e-05
0.00275801
9.07124e-05
0.00267482
8.31936e-05
0.00261206
6.27627e-05
0.00257761
3.44496e-05
0.00257675
8.57764e-07
0.0026133
-3.65541e-05
0.00268806
-7.47569e-05
0.00279591
-0.000107847
0.0029243
-0.000128391
0.00305478
-0.000130478
0.00316721
-0.000112437
0.00324501
-7.77974e-05
0.00327907
-3.40639e-05
0.003269
1.0076e-05
0.00322118
4.78137e-05
0.00314528
7.59028e-05
0.00305168
9.36048e-05
0.00295141
0.000100271
0.00285685
9.456e-05
0.00278065
7.61918e-05
0.00273277
4.78849e-05
0.00271765
1.51247e-05
0.00273348
-1.58372e-05
0.00277331
-3.98253e-05
0.00282676
-5.34501e-05
0.00288181
-5.50521e-05
0.00292653
-4.47242e-05
0.00295116
-2.46296e-05
0.00295023
9.35984e-07
0.00292383
2.63948e-05
0.00287727
4.65656e-05
0.00281893
5.8339e-05
0.00275761
6.13167e-05
0.00270038
5.72272e-05
0.00265166
4.87238e-05
0.00261334
3.83155e-05
0.00258553
2.78147e-05
0.00256725
1.82755e-05
0.00255707
1.01889e-05
0.00255335
3.72021e-06
0.00255446
-1.11523e-06
0.00255882
-4.3605e-06
0.00256491
-6.09102e-06
0.00257134
-6.42846e-06
0.00257691
-5.56769e-06
0.0025807
-3.79132e-06
0.00258216
-1.45559e-06
0.0025811
1.05306e-06
0.00257773
3.37658e-06
0.00257249
5.23882e-06
0.00256601
6.47619e-06
0.00255897
7.04095e-06
0.00255199
6.98272e-06
0.00254557
6.41841e-06
0.00254007
5.50016e-06
0.00253568
4.38741e-06
0.00253246
3.22595e-06
0.00253032
2.13439e-06
0.00252912
1.19763e-06
0.00252866
4.66145e-07
0.0025287
-4.05165e-08
0.00252903
-3.27732e-07
0.00252944
-4.1902e-07
0.00252979
-3.49586e-07
0.00252995
-1.60743e-07
0.00252985
1.04632e-07
0.00252944
4.0575e-07
0.00252874
7.06797e-07
0.00252776
9.78996e-07
0.00252656
1.20183e-06
0.00252519
1.36338e-06
0.00252373
1.45989e-06
0.00252224
1.49455e-06
0.00252076
1.47589e-06
0.00251935
1.41593e-06
0.00251802
1.3282e-06
0.00251679
1.22626e-06
0.00251567
1.12209e-06
0.00251464
1.02571e-06
0.0025137
9.43769e-07
0.00251282
8.81109e-07
0.00251198
8.38145e-07
0.00251117
8.16054e-07
0.00251036
8.09478e-07
0.00250954
8.19533e-07
0.0025087
8.3556e-07
0.00250784
8.61865e-07
0.00250695
8.85905e-07
0.00250605
9.07378e-07
9.42439e-07
0.00250267
-5.36169e-06
0.00251078
-1.62491e-05
0.00252456
-2.76093e-05
0.00254424
-3.93862e-05
0.00256994
-5.13245e-05
0.00260141
-6.27218e-05
0.00263788
-7.2502e-05
0.00267764
-7.88512e-05
0.00271801
-7.99051e-05
0.00275539
-7.39071e-05
0.00278582
-6.02469e-05
0.00280673
-4.15563e-05
0.00281712
-2.0954e-05
0.00281772
-1.83765e-06
0.00281141
1.16665e-05
0.0028026
1.6634e-05
0.0027959
1.27232e-05
0.0027945
2.71685e-06
0.00279887
-8.14145e-06
0.00280616
-1.34213e-05
0.00281067
-7.70105e-06
0.00280594
1.03983e-05
0.00278761
3.68521e-05
0.00275517
6.43116e-05
0.00271175
8.56761e-05
0.00266289
9.62513e-05
0.00261512
9.39214e-05
0.00257516
7.83888e-05
0.00254925
5.04858e-05
0.00254277
1.21296e-05
0.00255928
-3.2961e-05
0.00259886
-7.78502e-05
0.00265605
-0.000111799
0.00271914
-0.000122894
0.00277266
-0.000104089
0.00280284
-5.86827e-05
0.00280275
2.34541e-07
0.00277383
5.65938e-05
0.00272352
9.86853e-05
0.00266153
0.000121876
0.00259721
0.000126612
0.00253868
0.000115112
0.00249318
8.91252e-05
0.00246765
4.93932e-05
0.00246876
-3.23726e-06
0.00250155
-6.52401e-05
0.00256631
-0.00012728
0.0026552
-0.000173728
0.00275135
-0.000187512
0.00283284
-0.000158997
0.00288034
-9.3035e-05
0.00288423
-8.15831e-06
0.00284702
7.22631e-05
0.00278018
0.00013077
0.00269814
0.000161203
0.00261371
0.000166428
0.00253647
0.000152408
0.00247371
0.000123551
0.00243208
8.11765e-05
0.00241856
2.479e-05
0.00243982
-4.46805e-05
0.00249952
-0.000120842
0.00259451
-0.00018991
0.00271224
-0.000233438
0.00283181
-0.000235309
0.00292885
-0.000189318
0.00298273
-0.000103464
0.00298337
1.17829e-06
0.00293471
9.72739e-05
0.00285279
0.000161754
0.00275902
0.000184479
0.00267283
0.000169387
0.00260754
0.000128048
0.00257105
7.09395e-05
0.00256885
3.06158e-06
0.00260551
-7.32163e-05
0.00268269
-0.000151937
0.00279539
-0.000220541
0.00292999
-0.000262998
0.00306624
-0.00026672
0.00318222
-0.000228419
0.0032603
-0.000155884
0.00329146
-6.52241e-05
0.00327634
2.51966e-05
0.00322292
0.00010124
0.00314234
0.000156484
0.00304585
0.000190096
0.00294446
0.000201657
0.00284994
0.000189077
0.00277428
0.000151856
0.00272704
9.51189e-05
0.0027127
2.94638e-05
0.00272966
-3.27932e-05
0.00277109
-8.12512e-05
0.0028266
-0.000108959
0.00288395
-0.000112403
0.00293082
-9.15946e-05
0.00295698
-5.07907e-05
0.00295661
1.30816e-06
0.00292972
5.32802e-05
0.00288185
9.44329e-05
0.00282186
0.000118331
0.00275899
0.000124185
0.0027006
0.000115621
0.00265117
9.81488e-05
0.00261256
7.69261e-05
0.00258475
5.56319e-05
0.00256665
3.63689e-05
0.00255675
2.00889e-05
0.00255338
7.09347e-06
0.00255487
-2.60588e-06
0.00255961
-9.10282e-06
0.00256607
-1.25477e-05
0.00257282
-1.31809e-05
0.00257865
-1.1392e-05
0.00258261
-7.75157e-06
0.00258413
-2.98297e-06
0.00258306
2.12706e-06
0.00257959
6.84965e-06
0.0025742
1.06242e-05
0.00256756
1.31212e-05
0.00256035
1.42478e-05
0.00255322
1.41095e-05
0.00254669
1.29471e-05
0.00254112
1.1072e-05
0.0025367
8.80861e-06
0.00253347
6.45271e-06
0.00253136
4.24397e-06
0.00253021
2.35319e-06
0.00252979
8.81056e-07
0.00252989
-1.34389e-07
0.00253027
-7.05393e-07
0.00253073
-8.80596e-07
0.00253111
-7.31919e-07
0.00253129
-3.43325e-07
0.0025312
1.98315e-07
0.00253079
8.10526e-07
0.00253008
1.421e-06
0.00252909
1.97174e-06
0.00252787
2.42152e-06
0.00252648
2.74654e-06
0.002525
2.9395e-06
0.00252349
3.00719e-06
0.002522
2.96715e-06
0.00252057
2.84388e-06
0.00251924
2.66494e-06
0.002518
2.45782e-06
0.00251688
2.24676e-06
0.00251585
2.05195e-06
0.00251491
1.8868e-06
0.00251403
1.76093e-06
0.00251319
1.67512e-06
0.00251238
1.63154e-06
0.00251157
1.6194e-06
0.00251075
1.64069e-06
0.00250991
1.67406e-06
0.00250904
1.7279e-06
0.00250815
1.77717e-06
0.00250724
1.82076e-06
1.8914e-06
0.00250264
-8.00071e-06
0.00251065
-2.42611e-05
0.00252433
-4.12855e-05
0.00254397
-5.9029e-05
0.00256979
-7.71484e-05
0.00260169
-9.46168e-05
0.00263901
-0.000109824
0.00268009
-0.000119931
0.00272218
-0.000121999
0.00276132
-0.000113042
0.00279302
-9.1948e-05
0.00281446
-6.29946e-05
0.0028245
-3.09993e-05
0.00282385
-1.18181e-06
0.00281565
1.98663e-05
0.00280489
2.73885e-05
0.00279689
2.07306e-05
0.00279537
4.2312e-06
0.00280106
-1.38253e-05
0.00281077
-2.31368e-05
0.00281792
-1.48479e-05
0.00281494
1.33811e-05
0.00279676
5.50256e-05
0.00276287
9.82057e-05
0.00271688
0.000131669
0.00266489
0.000148239
0.00261392
0.000144886
0.002571
0.000121316
0.00254271
7.87678e-05
0.00253494
1.99015e-05
0.00255197
-4.99889e-05
0.00259456
-0.000120439
0.00265724
-0.000174485
0.00272709
-0.000192744
0.00278647
-0.000163462
0.00281961
-9.18228e-05
0.00281895
8.94743e-07
0.00278675
8.87881e-05
0.00273194
0.000153501
0.00266538
0.000188437
0.00259692
0.000195067
0.00253471
0.000177323
0.00248589
0.000137944
0.00245763
7.76574e-05
0.00245736
-2.96823e-06
0.00249128
-9.91609e-05
0.00256063
-0.000196628
0.00265751
-0.00027061
0.00276341
-0.000293415
0.00285327
-0.000248854
0.00290472
-0.000144485
0.00290718
-1.06176e-05
0.00286453
0.000114913
0.00279075
0.000204547
0.00270235
0.000249602
0.00261292
0.000255857
0.00253182
0.000233508
0.00246562
0.000189753
0.00242018
0.000126619
0.00240215
4.28221e-05
0.002419
-6.15326e-05
0.00247629
-0.000178131
0.00257244
-0.000286058
0.00269478
-0.000355779
0.00282093
-0.00036146
0.00292504
-0.000293433
0.00298526
-0.00016368
0.00298997
-3.53399e-06
0.00294181
0.00014544
0.00285681
0.000246747
0.00275793
0.000283361
0.00266642
0.000260904
0.00259665
0.00019781
0.002557
0.000110591
0.00255394
6.12427e-06
0.00259378
-0.000113058
0.00267923
-0.000237388
0.00280414
-0.00034545
0.0029518
-0.000410657
0.0030985
-0.000413422
0.00321992
-0.000349841
0.00329733
-0.000233291
0.00332188
-8.97771e-05
0.00329576
5.13163e-05
0.00322965
0.00016735
0.00313776
0.000248382
0.00303347
0.000294386
0.0029283
0.000306821
0.00283316
0.000284217
0.00275872
0.000226297
0.00271357
0.000140266
0.00270169
4.13433e-05
0.00272129
-5.2389e-05
0.0027655
-0.000125463
0.00282409
-0.000167546
0.00288498
-0.00017329
0.00293562
-0.000142236
0.00296498
-8.01506e-05
0.00296624
4.98008e-08
0.00293889
8.06243e-05
0.00288878
0.000144547
0.00282567
0.000181442
0.00275981
0.000190037
0.00269924
0.000176199
0.00264863
0.000148752
0.00260972
0.000115836
0.00258222
8.31326e-05
0.00256481
5.37832e-05
0.00255576
2.91317e-05
0.00255331
9.54482e-06
0.00255572
-5.01739e-06
0.00256134
-1.47207e-05
0.00256859
-1.97933e-05
0.002576
-2.0591e-05
0.0025823
-1.76986e-05
0.00258654
-1.19873e-05
0.00258813
-4.57166e-06
0.00258692
3.33212e-06
0.00258317
1.05991e-05
0.00257743
1.63702e-05
0.0025704
2.01489e-05
0.00256284
2.18073e-05
0.00255543
2.15222e-05
0.0025487
1.96759e-05
0.00254302
1.67536e-05
0.00253857
1.32569e-05
0.00253538
9.63909e-06
0.00253336
6.26483e-06
0.00253232
3.39148e-06
0.00253204
1.16815e-06
0.00253225
-3.5193e-07
0.00253274
-1.1918e-06
0.00253329
-1.42908e-06
0.00253373
-1.17585e-06
0.00253395
-5.61572e-07
0.00253387
2.8063e-07
0.00253345
1.2249e-06
0.00253271
2.16129e-06
0.00253168
3.00198e-06
0.00253042
3.68493e-06
0.00252899
4.17489e-06
0.00252747
4.46176e-06
0.00252592
4.55697e-06
0.0025244
4.48816e-06
0.00252295
4.29348e-06
0.0025216
4.01544e-06
0.00252036
3.69622e-06
0.00251923
3.37285e-06
0.00251821
3.07594e-06
0.00251727
2.82564e-06
0.0025164
2.63624e-06
0.00251556
2.50853e-06
0.00251475
2.44551e-06
0.00251394
2.4302e-06
0.00251311
2.46598e-06
0.00251227
2.51885e-06
0.00251139
2.60427e-06
0.00251049
2.67871e-06
0.00250956
2.74993e-06
2.85208e-06
0.00250258
-1.05848e-05
0.00251044
-3.21219e-05
0.00252394
-5.47806e-05
0.00254348
-7.85732e-05
0.00256946
-0.00010312
0.00260195
-0.000127112
0.00264054
-0.000148416
0.00268364
-0.000163031
0.00272842
-0.000166772
0.00277031
-0.000154935
0.00280401
-0.000125644
0.00282631
-8.52947e-05
0.00283586
-4.05576e-05
0.00283326
1.42144e-06
0.00282207
3.1052e-05
0.0028082
4.12581e-05
0.00279806
3.08778e-05
0.00279628
6.00443e-06
0.002804
-2.15367e-05
0.00281756
-3.67003e-05
0.00282894
-2.62238e-05
0.00282876
1.35579e-05
0.00281083
7.29554e-05
0.00277463
0.000134403
0.00272459
0.000181708
0.00266776
0.000205068
0.00261188
0.000200767
0.00256444
0.000168756
0.00253251
0.000110701
0.00252268
2.9727e-05
0.00254041
-6.77132e-05
0.00258761
-0.000167642
0.00265893
-0.000245802
0.0027395
-0.000273313
0.00280813
-0.000232099
0.00284584
-0.000129527
0.00284402
2.71291e-06
0.00280637
0.000126434
0.00274428
0.000215591
0.00267055
0.000262172
0.0025958
0.000269816
0.00252813
0.000244996
0.00247447
0.000191599
0.00244216
0.000109971
0.00243919
1.61164e-09
0.00247251
-0.000132478
0.00254455
-0.00026867
0.00264919
-0.000375246
0.00276836
-0.000412586
0.00287349
-0.00035399
0.0029357
-0.000206697
0.00293984
-1.47572e-05
0.00289056
0.000164192
0.00280627
0.000288839
0.00270777
0.000348101
0.00261061
0.000353017
0.00252386
0.000320266
0.00245253
0.000261073
0.00240099
0.000178168
0.00237599
6.78148e-05
0.0023879
-7.34383e-05
0.00244599
-0.00023622
0.00254941
-0.000389479
0.00268205
-0.000488416
0.00281692
-0.000496338
0.00292611
-0.000402621
0.00298872
-0.000226291
0.00299451
-9.31957e-06
0.00294573
0.000194216
0.00285748
0.000334993
0.00275301
0.000387838
0.00265502
0.000358893
0.00257941
0.000273418
0.00253611
0.000153889
0.00253399
8.24466e-06
0.00258163
-0.000160695
0.00268137
-0.000337134
0.00282338
-0.000487452
0.00298614
-0.000573419
0.00314274
-0.000570022
0.00326787
-0.000474971
0.00334297
-0.000308394
0.0033595
-0.000106306
0.00332034
9.0477e-05
0.00323827
0.000249418
0.00313089
0.000355762
0.00301483
0.000410447
0.00290317
0.000418489
0.00280637
0.000381009
0.0027336
0.000299067
0.00269175
0.000182122
0.00268331
4.97823e-05
0.00270543
-7.45102e-05
0.00275103
-0.000171067
0.00281081
-0.000227324
0.00287421
-0.000236693
0.00292952
-0.000197542
0.00296485
-0.000115477
0.00297125
-6.35222e-06
0.00294632
0.000105549
0.00289542
0.000195448
0.0028293
0.000247567
0.00275981
0.000259525
0.00269629
0.000239717
0.00264405
0.000200994
0.00260479
0.000155099
0.00257789
0.000110035
0.00256164
7.00333e-05
0.00255402
3.67447e-05
0.00255308
1.04905e-05
0.00255696
-8.90313e-06
0.00256396
-2.17149e-05
0.00257242
-2.82597e-05
0.00258083
-2.90031e-05
0.00258786
-2.47255e-05
0.00259249
-1.66168e-05
0.00259414
-6.21972e-06
0.0025927
4.77492e-06
0.00258849
1.48069e-05
0.00258216
2.2697e-05
0.00257453
2.77815e-05
0.00256642
2.99146e-05
0.00255857
2.93703e-05
0.00255155
2.66999e-05
0.00254572
2.25869e-05
0.00254125
1.77277e-05
0.00253814
1.27448e-05
0.00253627
8.13326e-06
0.00253543
4.23722e-06
0.00253534
1.2507e-06
0.00253576
-7.63566e-07
0.00253641
-1.84583e-06
0.00253709
-2.1089e-06
0.00253762
-1.71034e-06
0.00253789
-8.29475e-07
0.00253782
3.50955e-07
0.00253739
1.65924e-06
0.0025366
2.94619e-06
0.00253551
4.09338e-06
0.00253418
5.01799e-06
0.00253268
5.67399e-06
0.00253109
6.04983e-06
0.00252948
6.16318e-06
0.00252792
6.05365e-06
0.00252644
5.77469e-06
0.00252507
5.38527e-06
0.00252382
4.94342e-06
0.00252269
4.49963e-06
0.00252167
4.09528e-06
0.00252074
3.75722e-06
0.00251987
3.50418e-06
0.00251905
3.33634e-06
0.00251824
3.25728e-06
0.00251742
3.24265e-06
0.00251659
3.29798e-06
0.00251574
3.37367e-06
0.00251484
3.49682e-06
0.00251393
3.59611e-06
0.00251297
3.70374e-06
3.83024e-06
0.0025025
-1.30871e-05
0.00251014
-3.97555e-05
0.00252334
-6.79889e-05
0.00254269
-9.79208e-05
0.00256878
-0.000129211
0.00260201
-0.000160335
0.00264226
-0.000188674
0.00268812
-0.000208888
0.00273666
-0.000215314
0.00278247
-0.000200742
0.00281897
-0.000162147
0.00284248
-0.000108801
0.00285133
-4.94095e-05
0.00284594
6.81028e-06
0.00283045
4.65437e-05
0.00281208
5.96252e-05
0.00279885
4.41159e-05
0.00279671
8.13662e-06
0.00280739
-3.22106e-05
0.0028266
-5.59097e-05
0.00284419
-4.38132e-05
0.00284809
9.65016e-06
0.00283046
9.05871e-05
0.0027909
0.000173965
0.00273511
0.000237501
0.00267153
0.000268642
0.00260889
0.000263415
0.00255523
0.000222414
0.00251815
0.000147782
0.0025052
4.26727e-05
0.00252359
-8.61049e-05
0.00257728
-0.000221327
0.00266121
-0.00032973
0.0027574
-0.000369503
0.00283918
-0.000313879
0.00288295
-0.000173302
0.00287897
6.6938e-06
0.00283321
0.000172196
0.00276071
0.000288089
0.00267702
0.000345859
0.00259378
0.000353054
0.00251892
0.000319865
0.00245891
0.0002516
0.00242062
0.000148269
0.00241116
9.45561e-06
0.00243729
-0.000158601
0.00250418
-0.000335566
0.0026111
-0.000482167
0.00274376
-0.000545246
0.0028714
-0.000481625
0.00295617
-0.000291471
0.00297261
-3.11996e-05
0.00292168
0.000215131
0.00282633
0.000384188
0.00271471
0.000459717
0.00260698
0.00046075
0.00251253
0.000414717
0.00243414
0.000339465
0.00237449
0.000237813
0.00234248
9.98242e-05
0.00235381
-8.47699e-05
0.00242096
-0.000303371
0.00253999
-0.000508509
0.00268787
-0.000636289
0.00283191
-0.000640385
0.00294236
-0.000513069
0.00300045
-0.000284381
0.00299997
-8.83524e-06
0.00294564
0.000248539
0.00285229
0.000428347
0.00274205
0.00049808
0.00263753
0.000463412
0.00255587
0.000355081
0.00250969
0.00020006
0.00251138
6.56311e-06
0.00257088
-0.000220195
0.00268744
-0.000453694
0.00284536
-0.000645372
0.00301861
-0.000746677
0.00317918
-0.00073059
0.00330315
-0.000598938
0.00337371
-0.000378959
0.00338288
-0.000115472
0.0033331
0.000140252
0.00323746
0.000345066
0.00311563
0.000477592
0.00298743
0.000538639
0.00286843
0.000537492
0.00276967
0.00047977
0.00269907
0.000369669
0.00266117
0.000220019
0.0026558
5.51581e-05
0.00267823
-9.6945e-05
0.00272157
-0.000214402
0.0027787
-0.000284461
0.002842
-0.000299994
0.00290164
-0.000257181
0.00294538
-0.000159214
0.00296159
-2.25594e-05
0.0029444
0.000122735
0.00289705
0.000242803
0.00283043
0.000314182
0.0027582
0.000331762
0.0026917
0.000306211
0.00263756
0.000255134
0.00259786
0.0001948
0.00257175
0.000136141
0.00255709
8.46925e-05
0.00255146
4.23787e-05
0.0025526
9.34915e-06
0.00255852
-1.48201e-05
0.00256739
-3.05885e-05
0.00257751
-3.83787e-05
0.00258727
-3.87617e-05
0.00259526
-3.27124e-05
0.0026004
-2.17614e-05
0.00260211
-7.92798e-06
0.00260032
6.56082e-06
0.00259548
1.96556e-05
0.00258835
2.98271e-05
0.00257988
3.62446e-05
0.00257103
3.87678e-05
0.00256259
3.7805e-05
0.00255518
3.41148e-05
0.00254915
2.86126e-05
0.00254467
2.22146e-05
0.00254168
1.57277e-05
0.00254003
9.78429e-06
0.00253946
4.81486e-06
0.00253965
1.05287e-06
0.00254033
-1.4378e-06
0.00254121
-2.72379e-06
0.00254206
-2.96163e-06
0.00254271
-2.36168e-06
0.00254304
-1.15884e-06
0.00254298
4.1021e-07
0.00254251
2.12482e-06
0.00254167
3.79457e-06
0.00254049
5.26953e-06
0.00253906
6.44624e-06
0.00253747
7.26894e-06
0.00253579
7.72639e-06
0.00253411
7.8448e-06
0.00253248
7.67813e-06
0.00253096
7.29749e-06
0.00252957
6.78028e-06
0.00252831
6.20182e-06
0.00252718
5.62703e-06
0.00252617
5.10842e-06
0.00252524
4.67945e-06
0.00252439
4.36287e-06
0.00252356
4.15749e-06
0.00252276
4.06702e-06
0.00252194
4.05829e-06
0.0025211
4.13984e-06
0.00252023
4.24266e-06
0.00251931
4.4117e-06
0.00251837
4.53497e-06
0.00251739
4.69139e-06
4.83105e-06
0.00250239
-1.54738e-05
0.0025097
-4.70639e-05
0.00252247
-8.07652e-05
0.00254147
-0.000116916
0.00256757
-0.000155317
0.00260158
-0.000194346
0.00264387
-0.000230962
0.00269327
-0.000258289
0.00274686
-0.000268906
0.00279798
-0.000251862
0.00283828
-0.000202443
0.00286349
-0.000134016
0.00287155
-5.74635e-05
0.00286244
1.59145e-05
0.00284103
6.79591e-05
0.00281634
8.43121e-05
0.00279861
6.18424e-05
0.00279571
1.10405e-05
0.00281032
-4.68159e-05
0.00283737
-8.29648e-05
0.00286372
-7.01636e-05
0.00287342
-5.04305e-08
0.00285627
0.000107735
0.00281216
0.000218077
0.00274868
0.000300985
0.00267623
0.000341087
0.00260479
0.000334859
0.00254302
0.000284187
0.00249898
0.000191815
0.00248145
6.02123e-05
0.00250036
-0.000105015
0.00256312
-0.000284088
0.00266528
-0.000431899
0.00278382
-0.000488035
0.00288342
-0.000413481
0.00293414
-0.000224019
0.00292565
1.51844e-05
0.00286789
0.000229946
0.00278114
0.000374841
0.00268447
0.000442526
0.0025906
0.000446924
0.00250702
0.000403448
0.0024391
0.000319523
0.00239149
0.000195882
0.002369
3.19406e-05
0.00238018
-0.000169784
0.00243746
-0.000392841
0.0025463
-0.000591002
0.00269279
-0.000691742
0.00284329
-0.00063212
0.00295488
-0.000403066
0.00299289
-6.92089e-05
0.00294957
0.000258451
0.00284767
0.000486089
0.00272272
0.000584664
0.00260226
0.000581214
0.00249787
0.000519102
0.00241054
0.000426796
0.00234251
0.000305844
0.00230701
0.000135329
0.00232493
-0.000102696
0.0024078
-0.000386243
0.00254464
-0.000645346
0.00270579
-0.00079744
0.00285598
-0.000790576
0.00296542
-0.000622506
0.00301646
-0.000335421
0.00300565
1.97176e-06
0.00294136
0.000312832
0.00284016
0.000529545
0.0027235
0.000614747
0.00261284
0.000574067
0.00252604
0.000441881
0.00247895
0.000247153
0.00248723
-1.71347e-06
0.00256003
-0.000292999
0.002691
-0.000584664
0.00285836
-0.000812735
0.00303371
-0.000922027
0.00319052
-0.000887393
0.00330796
-0.000716381
0.00337178
-0.000442781
0.00337479
-0.000118484
0.00331856
0.000196484
0.00321494
0.000448691
0.00308379
0.00060874
0.00294696
0.000675467
0.00282257
0.000661881
0.00272304
0.000579296
0.00265546
0.000437254
0.00262147
0.000254006
0.00261755
5.90853e-05
0.00263752
-0.000116923
0.00267594
-0.00025282
0.00272864
-0.000337163
0.00279056
-0.000361912
0.00285338
-0.000320004
0.00290522
-0.000211046
0.00293299
-5.03369e-05
0.00292755
0.000128174
0.00288868
0.000281678
0.00282578
0.000377084
0.00275339
0.000404148
0.00268503
0.000374571
0.00262924
0.00031092
0.00258912
0.000234927
0.00256393
0.000161327
0.00255119
9.7434e-05
0.00254802
4.55515e-05
0.00255179
5.57482e-06
0.00256027
-2.33022e-05
0.0025715
-4.18201e-05
0.00258368
-5.05542e-05
0.0025951
-5.0186e-05
0.00260427
-4.18836e-05
0.00261005
-2.75405e-05
0.00261183
-9.70776e-06
0.00260962
8.77732e-06
0.00260396
2.53083e-05
0.00259583
3.79657e-05
0.00258632
4.57492e-05
0.00257654
4.85533e-05
0.00256737
4.69676e-05
0.00255948
4.20079e-05
0.00255323
3.48647e-05
0.00254874
2.67058e-05
0.00254592
1.85425e-05
0.00254455
1.11524e-05
0.00254432
5.05134e-06
0.00254487
5.04074e-07
0.00254586
-2.43582e-06
0.00254701
-3.87356e-06
0.00254807
-4.02052e-06
0.00254886
-3.14886e-06
0.00254926
-1.55587e-06
0.0025492
4.62882e-07
0.00254869
2.63446e-06
0.00254776
4.72516e-06
0.00254648
6.55267e-06
0.00254493
7.99313e-06
0.00254322
8.98244e-06
0.00254144
9.51185e-06
0.00253966
9.61886e-06
0.00253796
9.37477e-06
0.00253639
8.87117e-06
0.00253496
8.20628e-06
0.00253369
7.47449e-06
0.00253256
6.75617e-06
0.00253156
6.1154e-06
0.00253064
5.59204e-06
0.00252979
5.21235e-06
0.00252898
4.97277e-06
0.00252817
4.87656e-06
0.00252735
4.87996e-06
0.00252649
4.99561e-06
0.0025256
5.13053e-06
0.00252466
5.35526e-06
0.00252369
5.50059e-06
0.00252266
5.72236e-06
5.85837e-06
0.00250223
-1.77021e-05
0.00250909
-5.39223e-05
0.00252124
-9.29144e-05
0.00253965
-0.000135327
0.00256556
-0.000181233
0.00260031
-0.000229096
0.00264493
-0.000275574
0.00269871
-0.000312074
0.0027589
-0.00032909
0.00281703
-0.000309997
0.00286225
-0.000247658
0.00288965
-0.000161423
0.00289665
-6.44592e-05
0.00288263
2.99363e-05
0.00285332
9.72655e-05
0.00282016
0.000117476
0.00279636
8.56399e-05
0.00279237
1.50253e-05
0.00281229
-6.67362e-05
0.00285012
-0.000120795
0.00288857
-0.000108604
0.00290616
-1.76457e-05
0.0028895
0.000124391
0.00283913
0.000268448
0.00276549
0.000374624
0.00268172
0.000424865
0.00259928
0.000417299
0.00252732
0.000356139
0.00247422
0.000244923
0.00245025
8.41819e-05
0.00246885
-0.000123621
0.00254106
-0.000356295
0.00266397
-0.000554813
0.00281148
-0.000635545
0.00293775
-0.000539747
0.0030005
-0.000286769
0.00298623
2.94529e-05
0.00291154
0.000304634
0.00280548
0.000480901
0.00269233
0.000555679
0.00258585
0.000553403
0.00249237
0.000496932
0.00241449
0.000397399
0.0023529
0.000257468
0.00231219
7.26558e-05
0.00230947
-0.000167065
0.00236716
-0.000450529
0.00248961
-0.000713454
0.00265318
-0.000855316
0.00281862
-0.000797558
0.00294528
-0.000529727
0.00299949
-0.000123418
0.00296705
0.000290894
0.00286449
0.000588643
0.00272941
0.000719745
0.0025961
0.000714529
0.00248014
0.000635063
0.00238281
0.000524119
0.00230818
0.000380473
0.00227435
0.000169163
0.00230397
-0.000132312
0.00240295
-0.00048523
0.00255255
-0.000794945
0.00271977
-0.000964661
0.00287068
-0.000941484
0.00297762
-0.000729445
0.00302327
-0.000381071
0.003004
2.12385e-05
0.0029299
0.000386933
0.00282006
0.000639391
0.00269663
0.000738172
0.00258046
0.00069024
0.00249012
0.000532221
0.00244447
0.000292797
0.00246095
-1.81877e-05
0.00254535
-0.0003774
0.00268469
-0.000724001
0.00285279
-0.000980837
0.00302163
-0.00109087
0.0031681
-0.00103386
0.00327505
-0.000823333
0.00333063
-0.000498362
0.00332846
-0.000116309
0.00326933
0.000255608
0.00316342
0.000554607
0.00302939
0.000742763
0.00288961
0.000815252
0.00276403
0.000787461
0.00266647
0.000676852
0.00260313
0.000500594
0.0025726
0.000284535
0.00256877
6.2913e-05
0.00258587
-0.00013402
0.00262091
-0.000287858
0.00267166
-0.000387916
0.00273346
-0.000423714
0.00279809
-0.000384627
0.00285452
-0.000267476
0.00289059
-8.6409e-05
0.00289615
0.00012261
0.00286795
0.000309886
0.00281245
0.000432575
0.00274335
0.000473248
0.00267535
0.000442574
0.00261895
0.000367324
0.00257873
0.000275147
0.0025546
0.000185459
0.00254399
0.000108043
0.00254363
4.59128e-05
0.00255046
-1.2583e-06
0.00256193
-3.47671e-05
0.00257587
-5.57672e-05
0.00259039
-6.50736e-05
0.00260371
-6.35063e-05
0.00261425
-5.24234e-05
0.0026208
-3.40894e-05
0.00262273
-1.16321e-05
0.00262008
1.14251e-05
0.00261355
3.18373e-05
0.00260428
4.7238e-05
0.00259358
5.64436e-05
0.00258272
5.94121e-05
0.00257272
5.69679e-05
0.00256429
5.04453e-05
0.00255779
4.13635e-05
0.00255331
3.11826e-05
0.00255071
2.11429e-05
0.00254968
1.21775e-05
0.00254985
4.88467e-06
0.00255081
-4.50448e-07
0.00255217
-3.79997e-06
0.00255362
-5.32346e-06
0.0025549
-5.30074e-06
0.00255583
-4.07615e-06
0.00255629
-2.01665e-06
0.00255623
5.18661e-07
0.00255566
3.20166e-06
0.00255464
5.75371e-06
0.00255323
7.95956e-06
0.00255155
9.67539e-06
0.0025497
1.08302e-05
0.00254779
1.14202e-05
0.00254591
1.14972e-05
0.00254413
1.1153e-05
0.0025425
1.0503e-05
0.00254104
9.66861e-06
0.00253975
8.76537e-06
0.00253862
7.89019e-06
0.00253761
7.11906e-06
0.00253671
6.49793e-06
0.00253586
6.05591e-06
0.00253505
5.78596e-06
0.00253424
5.69013e-06
0.0025334
5.7123e-06
0.00253253
5.87032e-06
0.00253162
6.04216e-06
0.00253064
6.33329e-06
0.00252964
6.49696e-06
0.00252856
6.80516e-06
6.91342e-06
0.00250202
-1.97198e-05
0.00250827
-6.01751e-05
0.00251954
-0.000104182
0.00253704
-0.000152826
0.00256242
-0.000206621
0.00259772
-0.000264391
0.00264484
-0.0003227
0.00270392
-0.000371146
0.00277262
-0.000397789
0.00283994
-0.00037732
0.00289152
-0.000299241
0.00292199
-0.000191896
0.00292803
-7.0492e-05
0.00290774
5.02198e-05
0.00286786
0.000137151
0.00282308
0.00016225
0.0027907
0.000118024
0.00278468
2.10439e-05
0.00281136
-9.34145e-05
0.00286373
-0.000173168
0.00291877
-0.00016364
0.00294721
-4.60866e-05
0.00293125
0.000140351
0.0028726
0.000327094
0.0027859
0.000461329
0.00268798
0.000522784
0.00259211
0.000513163
0.00250767
0.00044058
0.00244321
0.000309382
0.00241049
0.000116904
0.00242354
-0.000136666
0.00249287
-0.000425629
0.00262178
-0.000683724
0.00279546
-0.000809224
0.00296449
-0.000708776
0.00306225
-0.00038453
0.00305554
3.61675e-05
0.00296453
0.000395642
0.00283416
0.000611275
0.00270015
0.000689689
0.00257902
0.000674524
0.00247458
0.000601378
0.00238423
0.000487745
0.00230518
0.000336517
0.00224833
0.000129515
0.00224441
-0.000163152
0.0023194
-0.000525517
0.00246539
-0.000859445
0.00264523
-0.00103516
0.00281617
-0.000968494
0.00294319
-0.000656743
0.00300006
-0.000180293
0.00297299
0.000317966
0.00287207
0.00068956
0.00273117
0.000860641
0.00258716
0.000858548
0.0024596
0.000762622
0.00235268
0.00063104
0.00227439
0.000458757
0.00224629
0.000197266
0.0022885
-0.000174528
0.00239928
-0.000596008
0.00255422
-0.000949886
0.00272027
-0.00113071
0.00286681
-0.00108802
0.00296933
-0.000831966
0.00301117
-0.000422912
0.00298723
4.51821e-05
0.00290682
0.000467341
0.00279027
0.000755939
0.00266107
0.000867375
0.00254051
0.000810804
0.00244852
0.000624208
0.00240631
0.000335009
0.00243085
-4.27319e-05
0.00252272
-0.000469266
0.00266292
-0.000864202
0.00282347
-0.00114139
0.00297903
-0.00124643
0.00311079
-0.00116562
0.00320501
-0.000917553
0.00325167
-0.000545019
0.00324498
-0.000109617
0.00318532
0.000315265
0.00308144
0.000658482
0.00295035
0.000873857
0.00281371
0.000951892
0.0026922
0.000908966
0.00260023
0.000768821
0.00254264
0.000558189
0.00251563
0.000311545
0.00251266
6.58833e-05
0.00252994
-0.000151303
0.00256614
-0.000324054
0.00261857
-0.000440348
0.00268125
-0.000486394
0.00274571
-0.000449083
0.0028024
-0.00032417
0.0028415
-0.000125506
0.00285407
0.000110034
0.0028355
0.000328461
0.00278919
0.000478882
0.00272642
0.000536016
0.00266154
0.000507459
0.00260626
0.0004226
0.00256675
0.000314655
0.00254396
0.00020825
0.00253562
0.000116388
0.00253821
4.33222e-05
0.00254824
-1.12894e-05
0.00256276
-4.92883e-05
0.00257941
-7.24165e-05
0.00259622
-8.18881e-05
0.00261144
-7.87251e-05
0.00262347
-6.44476e-05
0.00263101
-4.16368e-05
0.00263337
-1.39863e-05
0.00263056
1.42374e-05
0.00262334
3.90507e-05
0.00261303
5.75452e-05
0.00260117
6.83065e-05
0.00258922
7.13674e-05
0.00257834
6.78404e-05
0.00256934
5.94484e-05
0.0025626
4.81071e-05
0.00255816
3.56208e-05
0.00255581
2.34914e-05
0.00255517
1.28202e-05
0.00255577
4.28385e-06
0.00255715
-1.82732e-06
0.00255888
-5.53127e-06
0.00256062
-7.06177e-06
0.0025621
-6.783e-06
0.00256314
-5.12214e-06
0.00256365
-2.5219e-06
0.00256358
5.92241e-07
0.00256294
3.8359e-06
0.00256181
6.88519e-06
0.00256028
9.49192e-06
0.00255846
1.14929e-05
0.00255648
1.28114e-05
0.00255445
1.34507e-05
0.00255247
1.34797e-05
0.0025506
1.30138e-05
0.00254891
1.2195e-05
0.00254741
1.11707e-05
0.0025461