/*--------------------------------*- C++ -*----------------------------------*\
  =========                 |
  \\      /  F ield         | OpenFOAM: The Open Source CFD Toolbox
   \\    /   O peration     | Website:  https://openfoam.org
    \\  /    A nd           | Version:  11
     \\/     M anipulation  |
\*---------------------------------------------------------------------------*/
FoamFile
{
    format      ascii;
    class       volVectorField;
    location    "10.830782";
    object      U_0;
}
// * * * * * * * * * * * * * * * * * * * * * * * * * * * * * * * * * * * * * //

dimensions      [0 1 -1 0 0 0 0];

internalField   nonuniform List<vector> 
7132
(
(1.00013 -0.000269381 2.27348e-18)
(1.00209 -0.000815631 7.91896e-18)
(1.00653 -0.00138411 8.23498e-18)
(1.01322 -0.00197041 9.79573e-18)
(1.02228 -0.00256085 1.24502e-17)
(1.03371 -0.0031196 1.30918e-17)
(1.04728 -0.00359284 1.29452e-17)
(1.06251 -0.00389339 1.27362e-17)
(1.07853 -0.00393229 1.26547e-17)
(1.09412 -0.00363128 1.25594e-17)
(1.10774 -0.00296565 1.2228e-17)
(1.11801 -0.00205797 1.19354e-17)
(1.12428 -0.00105934 1.1314e-17)
(1.12648 -0.000135066 1.09155e-17)
(1.12531 0.000520351 5.69738e-18)
(1.12222 0.000770721 -3.24312e-19)
(1.11906 0.000602283 -6.07164e-18)
(1.1174 0.000148532 -5.93537e-18)
(1.11799 -0.000342096 -8.86241e-18)
(1.12039 -0.000565701 -1.15187e-17)
(1.12286 -0.000271025 -1.17305e-17)
(1.12292 0.000602476 -1.17773e-17)
(1.11833 0.00186694 -1.17912e-17)
(1.10811 0.00317904 -1.11326e-17)
(1.09285 0.00420113 -1.03298e-17)
(1.07431 0.00470291 -1.07985e-17)
(1.05494 0.00457509 -1.10498e-17)
(1.03738 0.00379905 -4.52597e-18)
(1.0242 0.00241758 -3.00584e-18)
(1.01772 0.000534272 -1.07287e-16)
(1.01969 -0.00165522 -2.8844e-16)
(1.03089 -0.00380546 1.93496e-17)
(1.05031 -0.00540446 1.37932e-15)
(1.07456 -0.00590061 3.04025e-15)
(1.09812 -0.00497635 3.96721e-15)
(1.11499 -0.00279269 3.66876e-15)
(1.12093 3.71915e-05 2.19421e-15)
(1.11491 0.00275687 7.57858e-16)
(1.09882 0.00480499 2.27814e-16)
(1.07621 0.00594475 -7.45874e-17)
(1.0509 0.00617957 -1.91813e-15)
(1.02637 0.00560505 -2.47792e-15)
(1.00563 0.00430516 1.54564e-14)
(0.991462 0.00232851 6.0042e-14)
(0.986541 -0.000258961 8.14903e-15)
(0.993186 -0.00326005 -5.81662e-13)
(1.01253 -0.00621681 -2.31012e-12)
(1.04321 -0.00839867 -5.0212e-12)
(1.08037 -0.00902111 -7.20047e-12)
(1.11623 -0.00764079 -7.25875e-12)
(1.14233 -0.00447944 -5.32177e-12)
(1.15268 -0.000402051 -2.88704e-12)
(1.14581 0.00348514 -1.0999e-12)
(1.12468 0.00634362 -1.68886e-13)
(1.09468 0.00785889 1.51702e-13)
(1.06133 0.00814152 1.72152e-13)
(1.02906 0.00745924 -3.58656e-14)
(1.00118 0.00601823 -5.3312e-13)
(0.980416 0.00388682 -5.75799e-13)
(0.969538 0.00105605 2.69468e-12)
(0.971419 -0.00240349 1.43868e-11)
(0.98831 -0.00614868 3.97054e-11)
(1.02036 -0.00948323 7.89231e-11)
(1.06424 -0.0115061 1.22942e-10)
(1.11286 -0.0114599 1.55489e-10)
(1.15675 -0.00909207 1.62735e-10)
(1.18666 -0.00484055 1.42227e-10)
(1.19647 0.000248723 1.03e-10)
(1.18529 0.00486598 5.93058e-11)
(1.15763 0.00793432 2.40996e-11)
(1.12142 0.00899525 3.37225e-12)
(1.08502 0.00823932 -4.989e-12)
(1.05484 0.00620172 -6.15604e-12)
(1.0348 0.00337468 -1.14529e-12)
(1.02728 2.20746e-05 1.60049e-11)
(1.03414 -0.00369651 5.44408e-11)
(1.05656 -0.0074702 1.19691e-10)
(1.09395 -0.0107181 2.09014e-10)
(1.1428 -0.0127229 3.12106e-10)
(1.19659 -0.0129194 4.15991e-10)
(1.24711 -0.0111493 5.10001e-10)
(1.28651 -0.00774984 5.87665e-10)
(1.30938 -0.00344177 6.4579e-10)
(1.31384 0.000930209 6.82148e-10)
(1.3014 0.00469424 6.88847e-10)
(1.27563 0.00752286 6.49763e-10)
(1.24068 0.00932702 5.50508e-10)
(1.20073 0.0100223 3.96607e-10)
(1.16043 0.00946279 2.23175e-10)
(1.12505 0.00762206 7.86407e-11)
(1.09946 0.00478283 -6.52928e-12)
(1.08674 0.00150545 -3.47916e-11)
(1.08738 -0.00157901 -2.93286e-11)
(1.09942 -0.00395653 -1.34037e-11)
(1.11923 -0.00529723 9.08537e-14)
(1.14216 -0.0054438 7.6892e-12)
(1.16325 -0.00441036 1.04547e-11)
(1.17793 -0.00241313 1.02992e-11)
(1.18297 0.000121671 8.55511e-12)
(1.17721 0.00264159 6.09877e-12)
(1.16187 0.00463605 3.66832e-12)
(1.13997 0.00580011 1.75168e-12)
(1.1152 0.00609515 5.34848e-13)
(1.0909 0.00569109 -5.14186e-14)
(1.06941 0.004849 -2.14424e-13)
(1.05192 0.00381647 -1.7465e-13)
(1.03875 0.00277317 -8.68137e-14)
(1.02967 0.00182427 -2.26571e-14)
(1.02413 0.0010192 5.15485e-15)
(1.02152 0.000375016 9.59165e-15)
(1.02116 -0.000106443 6.21081e-15)
(1.02241 -0.000429396 4.2596e-15)
(1.02465 -0.00060149 6.60731e-15)
(1.02728 -0.000635034 1.25247e-14)
(1.02979 -0.000549582 2.00697e-14)
(1.03174 -0.000373327 2.72718e-14)
(1.03282 -0.000141676 3.25458e-14)
(1.0329 0.000107033 3.48799e-14)
(1.03198 0.000337334 3.4017e-14)
(1.0302 0.00052189 3.0424e-14)
(1.02779 0.000644509 2.50493e-14)
(1.02502 0.000700451 1.90164e-14)
(1.02216 0.000694616 1.33521e-14)
(1.01943 0.000638573 8.80707e-15)
(1.01702 0.000547397 5.80278e-15)
(1.01503 0.000436895 4.47059e-15)
(1.01351 0.000321531 4.7358e-15)
(1.01245 0.00021308 6.40843e-15)
(1.0118 0.000119977 9.24023e-15)
(1.01149 4.72451e-05 1.29567e-14)
(1.01143 -3.16215e-06 1.7266e-14)
(1.01153 -3.17683e-05 2.18649e-14)
(1.01169 -4.09027e-05 2.6453e-14)
(1.01186 -3.40585e-05 3.07412e-14)
(1.01197 -1.53394e-05 3.4477e-14)
(1.01199 1.09934e-05 3.7471e-14)
(1.01189 4.0886e-05 3.96239e-14)
(1.01167 7.07783e-05 4.0942e-14)
(1.01132 9.78107e-05 4.15251e-14)
(1.01088 0.000119944 4.15466e-14)
(1.01036 0.000135994 4.12198e-14)
(1.00979 0.000145584 4.07632e-14)
(1.00919 0.000149034 4.03762e-14)
(1.0086 0.000147188 4.02151e-14)
(1.00801 0.000141238 4.03855e-14)
(1.00746 0.000132528 4.09384e-14)
(1.00695 0.000122403 4.18741e-14)
(1.00648 0.000112053 4.31558e-14)
(1.00605 0.000102474 4.47187e-14)
(1.00566 9.43261e-05 4.64847e-14)
(1.0053 8.80923e-05 4.83718e-14)
(1.00496 8.38112e-05 5.03018e-14)
(1.00463 8.16071e-05 5.22106e-14)
(1.0043 8.0937e-05 5.40509e-14)
(1.00399 8.19317e-05 5.57963e-14)
(1.00363 8.34993e-05 5.74466e-14)
(1.00334 8.6124e-05 5.89969e-14)
(1.0029 8.84668e-05 6.05626e-14)
(1.00271 9.06501e-05 6.18326e-14)
(1.00206 9.4089e-05 6.43909e-14)
(1.00013 -0.000806308 3.74341e-20)
(1.00208 -0.00244276 3.87993e-19)
(1.0065 -0.00414763 7.51606e-19)
(1.01316 -0.00591023 1.13242e-18)
(1.02224 -0.0076905 1.61544e-18)
(1.03371 -0.00938177 2.14542e-18)
(1.04741 -0.0108225 2.61074e-18)
(1.06287 -0.0117462 3.10834e-18)
(1.07919 -0.0118804 5.57085e-18)
(1.09515 -0.0109779 6.00429e-18)
(1.10908 -0.00895751 5.39898e-18)
(1.11953 -0.00619971 8.81071e-18)
(1.12582 -0.00316497 7.52556e-18)
(1.12786 -0.000358119 6.96043e-18)
(1.12635 0.0016213 7.83691e-18)
(1.12284 0.00235461 1.01797e-17)
(1.11931 0.00179966 1.30649e-17)
(1.11748 0.000368337 1.5468e-17)
(1.11817 -0.00117092 1.64883e-17)
(1.12095 -0.00188748 1.46601e-17)
(1.12397 -0.00100539 1.05374e-17)
(1.12453 0.00166754 6.51638e-18)
(1.12019 0.00554748 2.85317e-18)
(1.10989 0.00957148 -1.87749e-19)
(1.09425 0.0127044 -2.28057e-18)
(1.07516 0.014251 -1.26357e-17)
(1.05515 0.0138891 -2.11619e-17)
(1.03695 0.0115682 1.15683e-16)
(1.02318 0.00741421 1.30427e-16)
(1.01623 0.00172589 -2.55895e-15)
(1.01801 -0.0049253 -5.20713e-15)
(1.02945 -0.0115032 3.5003e-14)
(1.04967 -0.0164394 1.67782e-13)
(1.07518 -0.0180205 3.01708e-13)
(1.10009 -0.0152462 2.87608e-13)
(1.11796 -0.00860095 1.60998e-13)
(1.12426 2.81383e-05 5.33682e-14)
(1.11794 0.00831644 6.44518e-15)
(1.10115 0.014547 -3.79171e-15)
(1.07769 0.0180104 -3.86655e-15)
(1.05155 0.0187361 -8.68964e-15)
(1.02622 0.017029 -3.53759e-15)
(1.00472 0.0131458 7.5132e-14)
(0.989819 0.00721742 2.06673e-13)
(0.984298 -0.000591567 -2.30185e-13)
(0.990727 -0.00972069 -3.03228e-12)
(1.01056 -0.0187871 -9.91438e-12)
(1.04255 -0.0255343 -1.95665e-11)
(1.08163 -0.0275179 -2.70498e-11)
(1.1194 -0.0233535 -2.72249e-11)
(1.14678 -0.0137253 -1.98724e-11)
(1.15742 -0.00129912 -1.05343e-11)
(1.14996 0.0105427 -3.97493e-12)
(1.12771 0.0192273 -6.14479e-13)
(1.09648 0.0238106 5.56964e-13)
(1.06206 0.0246576 6.01038e-13)
(1.02892 0.0226083 -2.60685e-13)
(1.00025 0.0183001 -2.03862e-12)
(0.9787 0.0119334 -1.07148e-12)
(0.966948 0.00345357 1.57121e-11)
(0.967901 -0.00696152 7.12877e-11)
(0.983993 -0.0183042 1.85642e-10)
(1.01569 -0.028484 3.52381e-10)
(1.05997 -0.0347712 5.28113e-10)
(1.10981 -0.0348284 6.48809e-10)
(1.15554 -0.0278103 6.62765e-10)
(1.18742 -0.0149852 5.62309e-10)
(1.1987 0.000481457 3.91739e-10)
(1.18802 0.0145837 2.16441e-10)
(1.15983 0.0239974 8.47005e-11)
(1.12247 0.0272886 1.18146e-11)
(1.08478 0.025037 -1.51308e-11)
(1.05349 0.0189032 -1.68331e-11)
(1.03254 0.0104063 -1.49733e-12)
(1.0243 0.000323266 4.09997e-11)
(1.0308 -0.0109218 1.27326e-10)
(1.05366 -0.0224271 2.61603e-10)
(1.09256 -0.0324112 4.2654e-10)
(1.14378 -0.0386198 5.92693e-10)
(1.20016 -0.0392548 7.35444e-10)
(1.25269 -0.0338084 8.44523e-10)
(1.29292 -0.0233547 9.21639e-10)
(1.31521 -0.0101742 9.71291e-10)
(1.31793 0.00310422 9.92114e-10)
(1.30319 0.0144306 9.72989e-10)
(1.27524 0.0228354 8.94354e-10)
(1.23873 0.0281114 7.41128e-10)
(1.19802 0.0300828 5.24703e-10)
(1.15759 0.0283587 2.91544e-10)
(1.12237 0.0228532 1.00936e-10)
(1.09704 0.014371 -1.15289e-11)
(1.08459 0.00454544 -4.94626e-11)
(1.08558 -0.00475404 -4.06364e-11)
(1.09816 -0.0119711 -1.33682e-11)
(1.11871 -0.0160798 1.47528e-11)
(1.14255 -0.0165734 3.55132e-11)
(1.16457 -0.0134753 4.58238e-11)
(1.18004 -0.00743456 4.5761e-11)
(1.18551 0.000256226 3.78577e-11)
(1.17977 0.00791858 2.61889e-11)
(1.16403 0.0139911 1.48893e-11)
(1.14148 0.0175353 6.49561e-12)
(1.11603 0.0184309 1.60678e-12)
(1.09117 0.017199 -4.81388e-13)
(1.06931 0.0146399 -9.10118e-13)
(1.05163 0.0115093 -6.53978e-13)
(1.03842 0.00835238 -2.93819e-13)
(1.02938 0.00548572 -5.66195e-14)
(1.02394 0.00305619 3.9705e-14)
(1.02146 0.00111296 5.29458e-14)
(1.02125 -0.000339712 4.01638e-14)
(1.02265 -0.00131483 3.29725e-14)
(1.02504 -0.0018349 4.03153e-14)
(1.02782 -0.00193629 5.88223e-14)
(1.03044 -0.00167741 8.12259e-14)
(1.03247 -0.0011431 1.00719e-13)
(1.03361 -0.00044045 1.12543e-13)
(1.0337 0.000314288 1.14475e-13)
(1.03275 0.00101337 1.07052e-13)
(1.03092 0.00157368 9.28506e-14)
(1.02844 0.00194598 7.52824e-14)
(1.0256 0.00211592 5.75905e-14)
(1.02268 0.00209845 4.22339e-14)
(1.0199 0.00192876 3.06727e-14)
(1.01745 0.00165263 2.34695e-14)
(1.01544 0.00131803 2.0548e-14)
(1.01392 0.000968814 2.14597e-14)
(1.01286 0.000640646 2.5592e-14)
(1.01223 0.000359052 3.22695e-14)
(1.01194 0.000139197 4.07882e-14)
(1.0119 -1.30538e-05 5.04222e-14)
(1.01201 -9.93274e-05 6.0441e-14)
(1.0122 -0.000126704 7.0144e-14)
(1.01238 -0.00010577 7.88865e-14)
(1.01251 -4.89497e-05 8.61322e-14)
(1.01253 3.08683e-05 9.15161e-14)
(1.01243 0.000121423 9.48999e-14)
(1.0122 0.000211949 9.63895e-14)
(1.01186 0.000293795 9.62899e-14)
(1.01141 0.000360793 9.50399e-14)
(1.01088 0.000409364 9.3138e-14)
(1.0103 0.000438372 9.10656e-14)
(1.0097 0.000448785 8.92379e-14)
(1.00909 0.000443167 8.79628e-14)
(1.00851 0.000425132 8.74287e-14)
(1.00795 0.00039875 8.77095e-14)
(1.00744 0.000368099 8.8777e-14)
(1.00697 0.000336781 9.05313e-14)
(1.00654 0.000307807 9.28219e-14)
(1.00614 0.00028318 9.54761e-14)
(1.00578 0.00026435 9.8322e-14)
(1.00544 0.000251447 1.01203e-13)
(1.00512 0.000244814 1.03998e-13)
(1.00478 0.000242856 1.06623e-13)
(1.00447 0.000245881 1.09037e-13)
(1.00412 0.00025073 1.11253e-13)
(1.00383 0.000258617 1.13281e-13)
(1.00338 0.000265908 1.15321e-13)
(1.00318 0.000272277 1.16947e-13)
(1.00253 0.000282907 1.20435e-13)
(1.00013 -0.00133832 4.917e-22)
(1.00205 -0.00405692 5.9119e-21)
(1.00643 -0.00689653 5.15387e-21)
(1.01305 -0.00984521 3.87723e-21)
(1.02213 -0.012841 -8.86352e-20)
(1.0337 -0.0157093 5.5003e-20)
(1.04764 -0.0181812 -4.90522e-19)
(1.06354 -0.0197966 -8.04099e-19)
(1.08049 -0.0200822 1.94076e-18)
(1.09719 -0.0185819 8.46448e-19)
(1.11177 -0.0151346 -8.87637e-18)
(1.1226 -0.0104152 -1.53638e-17)
(1.12894 -0.00520819 -7.29504e-18)
(1.13065 -0.000367126 1.40227e-17)
(1.12847 0.0030539 4.13736e-17)
(1.12412 0.00430505 6.46121e-17)
(1.11987 0.00329294 7.14253e-17)
(1.11771 0.000720556 5.65187e-17)
(1.11864 -0.00208367 3.1718e-17)
(1.12223 -0.00347713 7.31651e-18)
(1.12638 -0.00206813 -3.44332e-18)
(1.12792 0.00250084 2.00243e-18)
(1.12399 0.0092016 4.63101e-18)
(1.1134 0.0161582 -1.58561e-18)
(1.0969 0.0215677 -1.56503e-17)
(1.07661 0.0242489 -9.82887e-17)
(1.0553 0.0236776 -9.19216e-17)
(1.03584 0.0197851 9.17273e-16)
(1.02096 0.0127778 -1.86992e-16)
(1.01321 0.00312389 -1.81522e-14)
(1.01476 -0.00826078 -8.94742e-15)
(1.02685 -0.0196376 3.03801e-13)
(1.04883 -0.0282781 1.13881e-12)
(1.07698 -0.0311303 1.98197e-12)
(1.10466 -0.0263774 1.96096e-12)
(1.12444 -0.0148576 1.13795e-12)
(1.13119 7.78951e-05 3.74848e-13)
(1.12396 0.0143284 3.75809e-14)
(1.10547 0.02493 -3.77085e-14)
(1.08011 0.0307408 -3.40232e-14)
(1.05221 0.0319086 -2.67855e-14)
(1.02533 0.029016 5.08008e-14)
(1.00243 0.0225046 2.129e-13)
(0.986273 0.0125406 -2.12531e-13)
(0.979822 -0.000701983 -2.25339e-12)
(0.98608 -0.0163731 -2.62316e-12)
(1.00699 -0.0321206 1.08354e-11)
(1.04157 -0.0439488 4.32176e-11)
(1.08446 -0.0474726 7.17377e-11)
(1.12622 -0.0402246 6.88755e-11)
(1.15629 -0.0234656 4.09547e-11)
(1.16741 -0.00195187 1.36409e-11)
(1.15833 0.0183743 -4.33446e-13)
(1.13334 0.0330857 -2.83142e-12)
(1.09931 0.0406719 -8.08417e-13)
(1.0626 0.0419135 4.91509e-13)
(1.02774 0.0383555 -1.58719e-12)
(0.997705 0.0311217 -5.8938e-12)
(0.974774 0.02054 3.45174e-12)
(0.961351 0.00646705 6.85349e-11)
(0.960367 -0.0109039 2.43025e-10)
(0.974871 -0.0300238 5.42168e-10)
(1.00623 -0.047469 9.09017e-10)
(1.05177 -0.0585905 1.24713e-09)
(1.10403 -0.0592815 1.47213e-09)
(1.15261 -0.0479056 1.52057e-09)
(1.1873 -0.0263932 1.35468e-09)
(1.20084 -7.42004e-06 1.008e-09)
(1.19116 0.0243246 5.98653e-10)
(1.16237 0.0407003 2.57258e-10)
(1.12316 0.0464989 5.0723e-11)
(1.08322 0.042715 -3.32938e-11)
(1.04992 0.0323154 -4.11164e-11)
(1.0274 0.0179713 5.19778e-13)
(1.0182 0.000904644 9.8695e-11)
(1.02498 -0.0183596 2.64853e-10)
(1.05011 -0.0383382 4.80359e-10)
(1.09334 -0.0557871 6.98789e-10)
(1.14999 -0.066551 8.77861e-10)
(1.21139 -0.0673964 1.00234e-09)
(1.26727 -0.0575195 1.08193e-09)
(1.3085 -0.0389635 1.13771e-09)
(1.32924 -0.0158897 1.18744e-09)
(1.32823 0.0069879 1.22979e-09)
(1.30844 0.0260689 1.23953e-09)
(1.27539 0.039756 1.17403e-09)
(1.23491 0.047923 9.98191e-10)
(1.19193 0.0505759 7.21334e-10)
(1.15075 0.0472689 4.08516e-10)
(1.11579 0.0378881 1.44996e-10)
(1.09118 0.0236775 -1.56302e-11)
(1.07967 0.00724312 -7.13488e-11)
(1.08169 -0.00835872 -5.19503e-11)
(1.09535 -0.0205237 8.744e-12)
(1.11705 -0.0274974 8.29504e-11)
(1.1422 -0.0283808 1.46594e-10)
(1.16574 -0.0231551 1.80324e-10)
(1.18271 -0.0128745 1.76551e-10)
(1.18924 0.000272817 1.43006e-10)
(1.18374 0.0133969 9.65268e-11)
(1.16739 0.0237828 5.31858e-11)
(1.14366 0.029796 2.21476e-11)
(1.1169 0.0312411 4.82506e-12)
(1.09097 0.0290474 -2.13943e-12)
(1.06843 0.0246181 -3.30723e-12)
(1.05048 0.0192601 -2.25606e-12)
(1.0373 0.0138996 -9.69367e-13)
(1.02848 0.00906128 -1.56173e-13)
(1.02337 0.00497899 1.6708e-13)
(1.02124 0.00172421 2.11535e-13)
(1.02141 -0.000702712 1.71126e-13)
(1.02317 -0.00232624 1.5055e-13)
(1.0259 -0.003184 1.78236e-13)
(1.02897 -0.00333581 2.4111e-13)
(1.03183 -0.00287907 3.12894e-13)
(1.03401 -0.00195717 3.69777e-13)
(1.03522 -0.000752401 3.96747e-13)
(1.03529 0.000536803 3.89128e-13)
(1.03425 0.00172666 3.5214e-13)
(1.03229 0.00267607 2.96931e-13)
(1.02966 0.00330246 2.35725e-13)
(1.02666 0.00358312 1.78545e-13)
(1.02361 0.00354521 1.3182e-13)
(1.02073 0.00324995 9.84684e-14)
(1.01823 0.00277601 7.87966e-14)
(1.01619 0.00220528 7.15761e-14)
(1.01467 0.00161216 7.49101e-14)
(1.01364 0.00105686 8.67385e-14)
(1.01305 0.000582166 1.05021e-13)
(1.01281 0.000213195 1.27734e-13)
(1.01282 -4.07088e-05 1.52836e-13)
(1.01298 -0.000182818 1.78327e-13)
(1.01321 -0.00022551 2.02322e-13)
(1.01342 -0.000186965 2.23152e-13)
(1.01356 -8.83451e-05 2.39511e-13)
(1.0136 4.84921e-05 2.50602e-13)
(1.0135 0.000202818 2.56271e-13)
(1.01327 0.000356475 2.56997e-13)
(1.01291 0.000494919 2.5375e-13)
(1.01244 0.000607824 2.47786e-13)
(1.0119 0.000689256 2.40441e-13)
(1.0113 0.000737424 2.32947e-13)
(1.01068 0.000754085 2.2631e-13)
(1.01006 0.000743682 2.21235e-13)
(1.00946 0.000712411 2.18113e-13)
(1.0089 0.000667215 2.17048e-13)
(1.00838 0.000615017 2.1791e-13)
(1.00791 0.000561912 2.20397e-13)
(1.00748 0.000512966 2.24109e-13)
(1.00709 0.000471536 2.28607e-13)
(1.00673 0.00044002 2.33468e-13)
(1.00639 0.000418601 2.38328e-13)
(1.00606 0.000407805 2.4291e-13)
(1.00573 0.000404904 2.47042e-13)
(1.00542 0.000410403 2.50657e-13)
(1.00506 0.00041889 2.53805e-13)
(1.00477 0.000432559 2.56559e-13)
(1.00432 0.000444941 2.59319e-13)
(1.00412 0.000456065 2.61447e-13)
(1.00346 0.000473601 2.66678e-13)
(1.00013 -0.00186178 -2.51464e-20)
(1.00201 -0.00564752 -4.87245e-19)
(1.00631 -0.00961822 -8.8253e-19)
(1.01287 -0.0137678 -1.60449e-18)
(1.02194 -0.018021 -1.97287e-18)
(1.03363 -0.0221412 -2.61264e-18)
(1.04793 -0.025753 -7.40199e-18)
(1.06448 -0.0281798 5.69551e-18)
(1.08239 -0.0287189 2.89786e-18)
(1.10026 -0.0266311 -5.22113e-17)
(1.11587 -0.0216355 -6.33654e-17)
(1.12729 -0.0147744 6.4767e-17)
(1.13372 -0.00718644 2.48155e-16)
(1.13495 -0.000109358 3.57068e-16)
(1.13171 0.00488165 3.47202e-16)
(1.12603 0.00663138 1.60652e-16)
(1.12063 0.00497623 -2.20222e-16)
(1.11791 0.000949502 -7.43583e-16)
(1.11918 -0.00346283 -1.27388e-15)
(1.12404 -0.00578399 -1.44694e-15)
(1.12999 -0.00386615 -1.03439e-15)
(1.1331 0.00286405 -4.43242e-16)
(1.12985 0.0128221 -7.56347e-17)
(1.11879 0.0231338 3.538e-17)
(1.10092 0.0311048 -8.64574e-17)
(1.07877 0.0350481 -3.73268e-16)
(1.05545 0.0342762 6.01366e-16)
(1.03406 0.0287398 1.26151e-16)
(1.0175 0.0187276 -1.67825e-14)
(1.00852 0.00483518 2.52068e-14)
(1.00965 -0.0117361 3.03692e-13)
(1.02271 -0.0285382 -2.37707e-13)
(1.04742 -0.0415123 -3.72516e-12)
(1.07974 -0.0459565 -7.61255e-12)
(1.11181 -0.0389883 -6.93277e-12)
(1.13461 -0.0218483 -3.30426e-12)
(1.142 0.000299631 -7.837e-13)
(1.13321 0.0211985 2.35583e-14)
(1.11192 0.0364751 5.41917e-14)
(1.08354 0.0446354 -3.93884e-14)
(1.05292 0.0461188 2.6355e-14)
(1.02372 0.0419142 3.55223e-13)
(0.998772 0.0326745 -4.45676e-13)
(0.980797 0.0185248 -5.04451e-12)
(0.972926 -0.000481267 -3.48216e-12)
(0.978444 -0.0232849 5.39689e-11)
(0.999613 -0.0465212 2.39202e-10)
(1.03609 -0.0642817 5.38362e-10)
(1.08328 -0.0698748 7.88624e-10)
(1.13135 -0.059293 8.05912e-10)
(1.16733 -0.0343018 5.83537e-10)
(1.18114 -0.00227419 2.93003e-10)
(1.17073 0.0276071 8.85413e-11)
(1.14179 0.0487406 1.08824e-12)
(1.10329 0.059171 -1.40643e-11)
(1.06296 0.06043 -7.85694e-12)
(1.02554 0.0550488 -7.5979e-12)
(0.993534 0.0447823 -1.00736e-11)
(0.968476 0.0301136 3.15393e-11)
(0.952293 0.0106714 2.01515e-10)
(0.948501 -0.013698 5.51968e-10)
(0.961859 -0.0412171 1.01829e-09)
(0.995006 -0.066941 1.45387e-09)
(1.04458 -0.0837026 1.76416e-09)
(1.10104 -0.0852777 1.95839e-09)
(1.15239 -0.0694405 2.05715e-09)
(1.18836 -0.0390578 1.99352e-09)
(1.20254 -0.00139726 1.6719e-09)
(1.19309 0.0338479 1.13309e-09)
(1.16359 0.0579897 5.69003e-10)
(1.12249 0.0668373 1.60622e-10)
(1.07996 0.0616417 -3.84241e-11)
(1.04406 0.0468082 -7.24969e-11)
(1.01946 0.0262683 8.46842e-12)
(1.00943 0.00154995 1.84306e-10)
(1.01779 -0.0268559 4.28857e-10)
(1.04757 -0.0566015 6.82943e-10)
(1.0976 -0.0823644 8.84631e-10)
(1.16113 -0.097671 1.01034e-09)
(1.22772 -0.0979262 1.07576e-09)
(1.28632 -0.0823746 1.10966e-09)
(1.32779 -0.0543218 1.13769e-09)
(1.34646 -0.0200033 1.18213e-09)
(1.34112 0.0135445 1.25371e-09)
(1.31523 0.0408693 1.32829e-09)
(1.27551 0.0595915 1.33757e-09)
(1.22931 0.0698255 1.20567e-09)
(1.18262 0.0721476 9.16177e-10)
(1.13994 0.0664144 5.43077e-10)
(1.10516 0.0526293 2.04583e-10)
(1.08171 0.0324311 -1.27953e-11)
(1.07168 0.00929982 -8.62189e-11)
(1.07497 -0.0125886 -3.6603e-11)
(1.08938 -0.0296525 9.74884e-11)
(1.11145 -0.0395128 2.67063e-10)
(1.13719 -0.040929 4.16261e-10)
(1.16215 -0.0337351 4.96039e-10)
(1.18142 -0.0191836 4.83726e-10)
(1.19042 -0.000252183 3.94144e-10)
(1.18657 0.0188524 2.68543e-10)
(1.17051 0.034034 1.49395e-10)
(1.14586 0.0427777 6.28108e-11)
(1.11761 0.0447704 1.39616e-11)
(1.09026 0.0414293 -5.86774e-12)
(1.06678 0.0348807 -9.30574e-12)
(1.04846 0.027073 -6.41394e-12)
(1.03537 0.0193524 -2.79539e-12)
(1.02694 0.0124513 -4.69022e-13)
(1.02237 0.00667319 4.92521e-13)
(1.02085 0.00209344 6.64138e-13)
(1.02161 -0.00130434 5.86142e-13)
(1.02396 -0.00356196 5.57022e-13)
(1.02721 -0.00473314 6.60466e-13)
(1.03073 -0.00490027 8.57425e-13)
(1.03394 -0.00419997 1.06695e-12)
(1.03635 -0.00283729 1.21612e-12)
(1.03764 -0.00107584 1.26284e-12)
(1.03767 0.000796392 1.20089e-12)
(1.03649 0.00251323 1.05519e-12)
(1.0343 0.00387212 8.65724e-13)
(1.03143 0.00475708 6.71189e-13)
(1.0282 0.00513971 4.99646e-13)
(1.02494 0.00506354 3.66209e-13)
(1.02192 0.00462023 2.75224e-13)
(1.01932 0.00392526 2.24185e-13)
(1.01725 0.00309733 2.07365e-13)
(1.01574 0.00224334 2.18233e-13)
(1.01477 0.00144897 2.50572e-13)
(1.01425 0.000774353 2.98655e-13)
(1.01409 0.000254025 3.57002e-13)
(1.01418 -0.000100076 4.20202e-13)
(1.01442 -0.000293892 4.83032e-13)
(1.01471 -0.000346097 5.40656e-13)
(1.01496 -0.00028334 5.88927e-13)
(1.01513 -0.000136244 6.24778e-13)
(1.01518 6.37998e-05 6.46586e-13)
(1.01508 0.000287179 6.54409e-13)
(1.01483 0.00050807 6.49896e-13)
(1.01445 0.000705895 6.35834e-13)
(1.01396 0.000866165 6.15595e-13)
(1.01338 0.000980708 5.92599e-13)
(1.01276 0.00104728 5.69874e-13)
(1.01211 0.0010687 5.49787e-13)
(1.01147 0.00105158 5.33908e-13)
(1.01086 0.00100497 5.2302e-13)
(1.01029 0.000938948 5.17216e-13)
(1.00977 0.000863461 5.16047e-13)
(1.00929 0.000787217 5.18697e-13)
(1.00886 0.000717401 5.24142e-13)
(1.00848 0.000658713 5.31311e-13)
(1.00812 0.000614472 5.39199e-13)
(1.00778 0.000584809 5.4697e-13)
(1.00746 0.000570401 5.5401e-13)
(1.00713 0.000567177 5.59969e-13)
(1.00681 0.000575996 5.6474e-13)
(1.00645 0.00058865 5.68487e-13)
(1.00615 0.000609161 5.71439e-13)
(1.0057 0.000626531 5.74424e-13)
(1.00549 0.000643937 5.76536e-13)
(1.00481 0.000667176 5.83782e-13)
(1.00012 -0.0023718 -2.15229e-18)
(1.00194 -0.00720114 -7.52607e-18)
(1.00613 -0.0122947 -6.51682e-18)
(1.01257 -0.0176632 -9.25288e-18)
(1.0216 -0.0232305 -3.56236e-18)
(1.03343 -0.0287087 -2.33251e-17)
(1.04818 -0.0336197 1.13234e-17)
(1.0656 -0.0370384 3.66241e-17)
(1.08484 -0.0379922 -2.07017e-16)
(1.10438 -0.035336 -1.1202e-16)
(1.12145 -0.0286059 7.13774e-16)
(1.13369 -0.0193255 1.52181e-15)
(1.14026 -0.00901467 1.46216e-15)
(1.14078 0.000697422 4.16335e-16)
(1.13602 0.00756347 -1.57654e-15)
(1.12843 0.00988883 -4.44448e-15)
(1.12135 0.00738322 -7.6928e-15)
(1.11783 0.00145638 -1.06816e-14)
(1.11961 -0.00514966 -1.3419e-14)
(1.12633 -0.00888933 -1.32863e-14)
(1.13492 -0.00660816 -8.24546e-15)
(1.14035 0.00258041 -2.66257e-15)
(1.13805 0.0163798 2.57175e-16)
(1.12629 0.0306396 1.09663e-15)
(1.10644 0.0415825 2.82483e-16)
(1.08166 0.0469781 1.5696e-15)
(1.05557 0.0460279 6.2807e-15)
(1.03154 0.0387596 -4.37373e-14)
(1.01264 0.02555 -6.19846e-14)
(1.00188 0.00705391 8.93034e-13)
(1.0023 -0.01535 1.40902e-12)
(1.01662 -0.0385175 -1.27273e-11)
(1.04526 -0.0568014 -5.58055e-11)
(1.08373 -0.0633506 -1.02369e-10)
(1.12214 -0.0538204 -1.04623e-10)
(1.1491 -0.0299259 -6.33671e-11)
(1.15719 0.000815201 -2.24601e-11)
(1.14598 0.0293917 -3.03303e-12)
(1.12063 0.0497673 1.54079e-12)
(1.08798 0.0602345 1.0663e-12)
(1.05366 0.0618079 8.03148e-13)
(1.02137 0.0560853 6.96199e-13)
(0.993751 0.0439676 -6.19854e-12)
(0.97337 0.0254683 -1.79185e-11)
(0.963118 0.000491164 3.40895e-11)
(0.965831 -0.0296907 3.1429e-10)
(0.984052 -0.0609257 9.36727e-10)
(1.01936 -0.0857932 1.75723e-09)
(1.06955 -0.0951388 2.41085e-09)
(1.1254 -0.082289 2.5431e-09)
(1.17158 -0.0483674 2.0511e-09)
(1.19325 -0.00361964 1.21828e-09)
(1.18484 0.0380794 4.87273e-10)
(1.15258 0.0667996 8.23582e-11)
(1.10856 0.0800705 -4.30592e-11)
(1.06325 0.0807768 -4.28545e-11)
(1.02234 0.0730592 -2.78407e-11)
(0.987671 0.0596518 -7.16684e-12)
(0.95962 0.0411624 1.08295e-10)
(0.939952 0.016466 4.23323e-10)
(0.934032 -0.0156676 9.127e-10)
(0.949064 -0.0532622 1.38709e-09)
(0.987789 -0.0888369 1.67081e-09)
(1.04426 -0.111639 1.76407e-09)
(1.106 -0.113222 1.80416e-09)
(1.15941 -0.0915704 1.91232e-09)
(1.19434 -0.0514279 2.04587e-09)
(1.20594 -0.00231479 1.98784e-09)
(1.19405 0.0438374 1.58047e-09)
(1.16256 0.0759957 9.42376e-10)
(1.11937 0.0882851 3.51633e-10)
(1.07432 0.0819083 -1.33471e-12)
(1.03571 0.0625581 -9.1013e-11)
(1.00897 0.0352909 2.67568e-11)
(0.998785 0.00175317 2.78798e-10)
(1.01036 -0.037412 5.73321e-10)
(1.04642 -0.0782298 8.16308e-10)
(1.1036 -0.11258 9.61796e-10)
(1.17269 -0.131652 1.02701e-09)
(1.24211 -0.130042 1.05567e-09)
(1.30106 -0.107588 1.07757e-09)
(1.34126 -0.0690301 1.10109e-09)
(1.35758 -0.0225317 1.1358e-09)
(1.34871 0.0226228 1.20554e-09)
(1.31787 0.0588721 1.31176e-09)
(1.27223 0.0826917 1.38886e-09)
(1.22038 0.0943388 1.32613e-09)
(1.16964 0.0952398 1.06331e-09)
(1.12514 0.0859853 6.6135e-10)
(1.0906 0.0669976 2.63566e-10)
(1.06865 0.0404228 -1.41887e-12)
(1.06028 0.0106227 -7.33253e-11)
(1.06436 -0.0172024 4.29529e-11)
(1.07823 -0.038761 2.91589e-10)
(1.09902 -0.0514068 5.84048e-10)
(1.12393 -0.0537432 8.29688e-10)
(1.14964 -0.0452819 9.61241e-10)
(1.17162 -0.0270125 9.46236e-10)
(1.18463 -0.00229708 7.95846e-10)
(1.18462 0.0233576 5.65835e-10)
(1.17092 0.0441355 3.30735e-10)
(1.14676 0.0562404 1.48043e-10)
(1.11762 0.059033 3.82003e-11)
(1.08895 0.0544528 -9.91397e-12)
(1.06442 0.0455136 -2.04496e-11)
(1.04563 0.0349646 -1.51335e-11)
(1.03265 0.0246604 -7.07173e-12)
(1.02475 0.0155613 -1.47952e-12)
(1.02093 0.00802423 1.06852e-12)
(1.02024 0.00210257 1.72818e-12)
(1.02184 -0.00225687 1.73204e-12)
(1.02497 -0.00512375 1.80981e-12)
(1.02894 -0.00657035 2.18298e-12)
(1.03307 -0.0067004 2.7549e-12)
(1.03675 -0.00568959 3.30912e-12)
(1.03946 -0.00380876 3.65051e-12)
(1.04086 -0.00141144 3.67771e-12)
(1.04083 0.00111405 3.39767e-12)
(1.03943 0.00340982 2.90308e-12)
(1.03695 0.00520676 2.31889e-12)
(1.03373 0.00635546 1.75432e-12)
(1.03018 0.00682595 1.27995e-12)
(1.02665 0.00668437 9.26438e-13)
(1.02343 0.00605947 6.95184e-13)
(1.02072 0.00510924 5.7159e-13)
(1.01861 0.00399353 5.35591e-13)
(1.01713 0.0028544 5.67627e-13)
(1.01622 0.0018042 6.50669e-13)
(1.0158 0.000920453 7.69863e-13)
(1.01576 0.000246221 9.11404e-13)
(1.01596 -0.000205347 1.06188e-12)
(1.0163 -0.00044441 1.20853e-12)
(1.01667 -0.000497412 1.33966e-12)
(1.01698 -0.000400737 1.44559e-12)
(1.01719 -0.000195485 1.51958e-12)
(1.01724 7.66392e-05 1.55865e-12)
(1.01714 0.000376568 1.56397e-12)
(1.01687 0.000670444 1.54038e-12)
(1.01646 0.000931482 1.49522e-12)
(1.01593 0.00114104 1.43689e-12)
(1.01532 0.00128889 1.37358e-12)
(1.01466 0.00137264 1.31232e-12)
(1.01398 0.00139656 1.25836e-12)
(1.01331 0.00136987 1.215e-12)
(1.01268 0.00130489 1.18369e-12)
(1.01209 0.00121514 1.16431e-12)
(1.01156 0.00111389 1.15558e-12)
(1.01108 0.00101262 1.15544e-12)
(1.01066 0.000920703 1.16145e-12)
(1.01027 0.00084417 1.17116e-12)
(1.00992 0.000787196 1.18229e-12)
(1.00959 0.000749727 1.19303e-12)
(1.00927 0.000732513 1.20209e-12)
(1.00894 0.000729886 1.20877e-12)
(1.00862 0.000743205 1.21295e-12)
(1.00825 0.000760814 1.21504e-12)
(1.00794 0.00078959 1.21568e-12)
(1.00748 0.000811886 1.2165e-12)
(1.00727 0.000837614 1.21643e-12)
(1.00657 0.000864826 1.22436e-12)
(1.00012 -0.00286245 2.46647e-18)
(1.00185 -0.00870074 8.27885e-18)
(1.00587 -0.0149015 6.14338e-18)
(1.01213 -0.0215072 1.09713e-17)
(1.02106 -0.028458 1.484e-17)
(1.03301 -0.0354324 -4.63382e-17)
(1.04828 -0.0418591 2.90426e-16)
(1.06679 -0.0465257 -6.30585e-16)
(1.08778 -0.0481381 -2.84128e-16)
(1.10958 -0.0449528 3.42019e-15)
(1.12863 -0.0362343 3.89996e-15)
(1.14198 -0.0241809 -2.93888e-15)
(1.14878 -0.0107444 -1.34333e-14)
(1.14842 0.00201398 -2.22101e-14)
(1.1416 0.0110251 -3.04026e-14)
(1.13134 0.0139198 -3.62231e-14)
(1.12187 0.010218 -3.57942e-14)
(1.11714 0.00176181 -2.55332e-14)
(1.11951 -0.00776294 -7.28028e-15)
(1.12877 -0.0134841 1.42078e-14)
(1.14108 -0.0109041 2.64254e-14)
(1.14979 0.00130708 2.25801e-14)
(1.14886 0.0198829 1.33487e-14)
(1.13614 0.0389648 7.83065e-15)
(1.11361 0.0534258 5.58953e-15)
(1.08536 0.0604805 2.24619e-14)
(1.05565 0.0593371 -2.85965e-15)
(1.02819 0.0502049 -2.40725e-13)
(1.00622 0.0335621 4.46496e-13)
(0.992969 0.0100158 3.51517e-12)
(0.992209 -0.0190904 -4.54603e-12)
(1.00813 -0.0500092 -5.19818e-11)
(1.04243 -0.0750773 -1.31235e-10)
(1.08982 -0.0844202 -2.07094e-10)
(1.13717 -0.0716813 -2.38925e-10)
(1.16943 -0.0393351 -1.86608e-10)
(1.17778 0.00191013 -9.25882e-11)
(1.16273 0.039511 -2.51978e-11)
(1.13164 0.0654755 2.04199e-12)
(1.09332 0.0781097 5.74533e-12)
(1.05428 0.0794139 4.3058e-12)
(1.01821 0.0718628 -1.29222e-12)
(0.987402 0.0566768 -2.37485e-11)
(0.963869 0.0338484 -1.92479e-11)
(0.949317 0.00330932 2.13108e-10)
(0.945903 -0.0337231 9.19585e-10)
(0.958303 -0.0732709 2.03405e-09)
(0.991745 -0.107041 3.15182e-09)
(1.04533 -0.122926 3.93736e-09)
(1.10884 -0.110329 4.22777e-09)
(1.16563 -0.0682002 3.82668e-09)
(1.19814 -0.00885702 2.71844e-09)
(1.19616 0.047965 1.38251e-09)
(1.16359 0.086867 4.03748e-10)
(1.11464 0.103811 -3.16566e-11)
(1.06358 0.103522 -1.11012e-10)
(1.01823 0.0928298 -7.50091e-11)
(0.980056 0.0761409 8.97947e-12)
(0.948358 0.0539735 2.40573e-10)
(0.925627 0.023474 6.85667e-10)
(0.919977 -0.018234 1.19834e-09)
(0.940022 -0.0680789 1.52926e-09)
(0.986313 -0.114549 1.58935e-09)
(1.04946 -0.142848 1.49502e-09)
(1.11513 -0.142899 1.42179e-09)
(1.16951 -0.113632 1.49912e-09)
(1.20267 -0.0623112 1.73594e-09)
(1.21042 -0.00121696 1.93253e-09)
(1.19413 0.0555707 1.79251e-09)
(1.15906 0.0953274 1.25364e-09)
(1.11318 0.110931 5.77435e-10)
(1.06568 0.103447 8.38209e-11)
(1.0246 0.0794732 -7.82852e-11)
(0.996216 0.0447368 5.99734e-11)
(0.986946 0.000878831 3.64597e-10)
(1.00289 -0.0506509 6.73808e-10)
(1.04523 -0.103219 8.79484e-10)
(1.10765 -0.145528 9.72408e-10)
(1.17904 -0.166978 1.00888e-09)
(1.24782 -0.162169 1.04435e-09)
(1.30439 -0.131987 1.09513e-09)
(1.34175 -0.0825813 1.14399e-09)
(1.35552 -0.0237078 1.17791e-09)