/*--------------------------------*- C++ -*----------------------------------*\
  =========                 |
  \\      /  F ield         | OpenFOAM: The Open Source CFD Toolbox
   \\    /   O peration     | Website:  https://openfoam.org
    \\  /    A nd           | Version:  11
     \\/     M anipulation  |
\*---------------------------------------------------------------------------*/
FoamFile
{
    format      ascii;
    class       volVectorField;
    location    "10.830782";
    object      vorticity;
}
// * * * * * * * * * * * * * * * * * * * * * * * * * * * * * * * * * * * * * //

dimensions      [0 0 -1 0 0 0 0];

internalField   nonuniform List<vector> 
7132
(
(-4.52822e-17 -1.83707e-15 -0.0108313)
(-1.53017e-16 -1.79431e-15 -0.0108995)
(-1.4972e-16 -1.88779e-17 -0.0108769)
(-1.77581e-16 -1.77685e-15 -0.0107672)
(-2.20137e-16 -1.76707e-15 -0.0106154)
(-2.18717e-16 -4.64938e-18 -0.010479)
(-2.06237e-16 3.75666e-18 -0.0104106)
(-1.92095e-16 2.95167e-18 -0.0104423)
(-1.41004e-16 1.67721e-18 -0.0105829)
(-1.30716e-16 4.05863e-18 -0.0108161)
(-1.36312e-16 5.99143e-18 -0.0110994)
(-6.26308e-17 8.88851e-18 -0.0113942)
(-7.56189e-17 9.9719e-18 -0.0116423)
(-7.9048e-17 5.58381e-17 -0.011791)
(4.27134e-17 -1.6229e-15 -0.0118045)
(2.09462e-16 -1.61723e-15 -0.0116668)
(3.81146e-16 -1.67809e-15 -0.0113919)
(4.26284e-16 2.85553e-17 -0.0110354)
(5.0662e-16 -3.41415e-15 -0.0106937)
(5.23772e-16 -3.44164e-15 -0.0104725)
(4.46821e-16 2.74228e-18 -0.0104772)
(3.67143e-16 1.02655e-18 -0.0107817)
(2.94601e-16 -6.25177e-18 -0.0113577)
(2.19911e-16 -1.42952e-17 -0.0120738)
(1.56546e-16 1.73188e-15 -0.0127486)
(-2.84485e-17 8.17895e-18 -0.0132049)
(-2.27452e-16 -6.25599e-17 -0.0133033)
(2.29382e-15 -9.70383e-17 -0.0129552)
(3.21259e-15 1.02494e-15 -0.0121375)
(-4.65516e-14 4.71747e-15 -0.0109466)
(-1.0586e-13 1.24439e-16 -0.00968017)
(6.5285e-13 -1.77761e-14 -0.00868763)
(3.2976e-12 -3.56308e-14 -0.00815295)
(6.11091e-12 -2.77337e-14 -0.00807233)
(5.95808e-12 -3.36388e-15 -0.00842499)
(3.38576e-12 2.32574e-14 -0.0093347)
(1.13049e-12 3.4582e-14 -0.010904)
(1.39515e-13 2.21483e-14 -0.012854)
(-8.25092e-14 1.07094e-14 -0.014665)
(-7.8717e-14 2.245e-14 -0.0159069)
(-1.33601e-13 2.78406e-14 -0.0163427)
(-3.78073e-14 -1.5937e-13 -0.015908)
(1.11703e-12 -6.17075e-13 -0.0146763)
(2.90298e-12 -2.12725e-14 -0.0128828)
(-4.01718e-12 6.03019e-12 -0.0110994)
(-4.59262e-11 2.25344e-11 -0.0104024)
(-1.45636e-10 4.41804e-11 -0.0117409)
(-2.82273e-10 5.00115e-11 -0.0147685)
(-3.90023e-10 2.45067e-11 -0.0175342)
(-3.98222e-10 -1.72159e-11 -0.0180699)
(-2.95295e-10 -4.37424e-11 -0.0165818)
(-1.57844e-10 -4.33189e-11 -0.0152474)
(-6.08511e-11 -2.83664e-11 -0.015434)
(-1.05281e-11 -1.33152e-11 -0.0166929)
(7.68171e-12 -3.79499e-12 -0.0180439)
(8.82351e-12 1.67567e-12 -0.0186962)
(-3.59936e-12 6.92781e-12 -0.0183903)
(-2.91949e-11 5.93213e-12 -0.0173257)
(-1.36078e-11 -2.97256e-11 -0.0154369)
(2.40342e-10 -1.43848e-10 -0.0113457)
(1.086e-09 -3.61804e-10 -0.00218823)
(2.82866e-09 -6.38927e-10 0.0146998)
(5.35845e-09 -8.35022e-10 0.0387426)
(8.01095e-09 -7.82054e-10 0.0647774)
(9.83624e-09 -4.24385e-10 0.0847556)
(1.00589e-08 1.0713e-10 0.0908603)
(8.53443e-09 5.83417e-10 0.0794899)
(5.93157e-09 8.3105e-10 0.0542297)
(3.27464e-09 8.03751e-10 0.0240749)
(1.29447e-09 5.78913e-10 -0.00161221)
(2.04972e-10 3.06755e-10 -0.017372)
(-1.95226e-10 1.04335e-10 -0.0230741)
(-2.19118e-10 -3.22187e-11 -0.0217958)
(-2.26658e-11 -2.11423e-10 -0.0169179)
(4.67235e-10 -5.38077e-10 -0.0112788)
(1.402e-09 -1.01382e-09 -0.00831148)
(2.7648e-09 -1.52402e-09 -0.0120392)
(4.27502e-09 -1.91026e-09 -0.0241237)
(5.54969e-09 -2.06652e-09 -0.0411152)
(6.34671e-09 -1.98514e-09 -0.0556367)
(6.66407e-09 -1.72947e-09 -0.0605897)
(6.66128e-09 -1.37495e-09 -0.0523064)
(6.49599e-09 -9.66647e-10 -0.0314052)
(6.19293e-09 -4.62923e-10 -0.00246984)
(5.68994e-09 2.73767e-10 0.0281878)
(4.91828e-09 1.3189e-09 0.0529668)
(3.85846e-09 2.47395e-09 0.0637388)
(2.61868e-09 3.25256e-09 0.0562895)
(1.42085e-09 3.20924e-09 0.0342906)
(4.84712e-10 2.35948e-09 0.00803378)
(-7.99746e-11 1.19608e-09 -0.0118606)
(-2.89906e-10 2.66206e-10 -0.0203361)
(-2.33816e-10 -2.01088e-10 -0.0189205)
(-1.24324e-11 -2.96556e-10 -0.0123511)
(2.801e-10 -2.17963e-10 -0.00485664)
(5.48282e-10 -1.09709e-10 0.00098914)
(7.07022e-10 -2.97623e-11 0.00391225)
(7.16286e-10 1.72947e-11 0.00348967)
(5.97429e-10 4.16205e-11 -5.1766e-05)
(4.1354e-10 4.93693e-11 -0.005581)
(2.33618e-10 4.44336e-11 -0.0112412)
(1.00538e-10 3.236e-11 -0.0155096)
(2.40646e-11 1.88546e-11 -0.0177018)
(-7.88305e-12 8.00251e-12 -0.0179385)
(-1.40634e-11 1.45633e-12 -0.0168221)
(-9.93861e-12 -1.23308e-12 -0.0150734)
(-4.40472e-12 -1.55699e-12 -0.0132771)
(-8.02822e-13 -9.65045e-13 -0.0117822)
(6.63893e-13 -3.50403e-13 -0.0107204)
(8.79404e-13 -2.1473e-14 -0.0100814)
(6.94527e-13 5.47279e-14 -0.00979096)
(5.79248e-13 -1.30538e-15 -0.00975885)
(6.68941e-13 -7.93091e-14 -0.00989728)
(9.16005e-13 -1.33489e-13 -0.0101314)
(1.21409e-12 -1.50054e-13 -0.0104047)
(1.46468e-12 -1.26977e-13 -0.010678)
(1.60217e-12 -8.07148e-14 -0.0109237)
(1.60035e-12 -1.75785e-14 -0.0111205)
(1.4735e-12 4.23434e-14 -0.0112504)
(1.26319e-12 8.67419e-14 -0.0113024)
(1.01891e-12 1.13966e-13 -0.0112754)
(7.83725e-13 1.17788e-13 -0.0111787)
(5.87034e-13 1.03529e-13 -0.0110295)
(4.43674e-13 7.72144e-14 -0.01085)
(3.56886e-13 4.33568e-14 -0.0106631)
(3.2272e-13 1.22184e-14 -0.0104887)
(3.33763e-13 -1.81028e-14 -0.0103414)
(3.81548e-13 -4.40756e-14 -0.0102295)
(4.57503e-13 -6.48255e-14 -0.0101551)
(5.53017e-13 -8.16402e-14 -0.0101154)
(6.59395e-13 -8.90228e-14 -0.0101041)
(7.68055e-13 -9.20856e-14 -0.0101133)
(8.70951e-13 -8.92254e-14 -0.0101347)
(9.60904e-13 -8.0905e-14 -0.0101608)
(1.03215e-12 -6.98329e-14 -0.0101854)
(1.08106e-12 -5.23158e-14 -0.0102042)
(1.10671e-12 -3.55077e-14 -0.0102141)
(1.111e-12 -1.96791e-14 -0.0102137)
(1.09795e-12 -6.52425e-15 -0.0102028)
(1.07285e-12 1.05773e-15 -0.010182)
(1.04141e-12 7.78663e-15 -0.010153)
(1.00892e-12 8.57333e-15 -0.0101176)
(9.79778e-13 5.75776e-15 -0.0100781)
(9.5707e-13 2.69035e-16 -0.0100366)
(9.42516e-13 -8.57364e-15 -0.00999484)
(9.36628e-13 -1.4506e-14 -0.00995435)
(9.38874e-13 -2.18427e-14 -0.00991603)
(9.48017e-13 -2.81849e-14 -0.00988032)
(9.6236e-13 -3.31089e-14 -0.00984715)
(9.80002e-13 -3.81684e-14 -0.00981614)
(9.99136e-13 -3.81466e-14 -0.0097866)
(1.01818e-12 -3.84218e-14 -0.00975777)
(1.03596e-12 -3.75657e-14 -0.00972874)
(1.05175e-12 -3.59524e-14 -0.00969892)
(1.06522e-12 -3.57884e-14 -0.00966735)
(1.07659e-12 -3.2086e-14 -0.00963405)
(1.08619e-12 -3.12063e-14 -0.00959795)
(1.09565e-12 -2.83697e-14 -0.00955985)
(1.10274e-12 -3.82188e-14 -0.00951698)
(1.12116e-12 -2.72535e-14 -0.00945215)
(-4.55947e-17 -4.25627e-18 -0.032428)
(-1.58971e-16 -7.15079e-18 -0.0326382)
(-1.64664e-16 -7.44334e-18 -0.0325738)
(-1.96769e-16 -8.60959e-18 -0.0322369)
(-2.50787e-16 -1.0082e-17 -0.0317547)
(-2.60423e-16 -9.90569e-18 -0.0312953)
(-2.68162e-16 -9.55456e-18 -0.0310186)
(-2.70057e-16 -2.96646e-17 -0.0310305)
(-2.00055e-16 1.70571e-15 -0.0313743)
(-2.33799e-16 1.7125e-18 -0.0320226)
(-4.20933e-16 -2.8051e-17 -0.0328689)
(-5.30684e-16 1.71327e-15 -0.0338254)
(-3.72984e-16 1.81805e-17 -0.034748)
(5.38241e-17 -2.9046e-18 -0.035507)
(6.97759e-16 -3.15827e-17 -0.0360238)
(1.27864e-15 -5.17246e-17 -0.0362588)
(1.52984e-15 -5.26244e-17 -0.0362182)
(1.22273e-15 -3.48171e-17 -0.0359559)
(7.72053e-16 6.12842e-18 -0.0355668)
(3.2594e-16 5.79154e-17 -0.0351338)
(1.11856e-16 8.14804e-17 -0.0347235)
(2.38352e-16 7.71366e-17 -0.034403)
(3.22058e-16 6.73641e-17 -0.0342101)
(2.02306e-16 5.13442e-17 -0.0341378)
(-7.5793e-17 1.21335e-16 -0.0341401)
(-1.67284e-15 2.03566e-16 -0.0341468)
(-1.82669e-15 -1.22369e-15 -0.0340769)
(1.75795e-14 -1.81706e-15 -0.03387)
(6.42517e-16 2.54472e-14 -0.0335462)
(-3.42484e-13 5.75209e-14 -0.0332936)
(-2.34768e-13 -3.49572e-13 -0.0334797)
(5.66065e-12 -1.72298e-12 -0.0343037)
(2.20069e-11 -2.76639e-12 -0.0354783)
(3.92865e-11 -1.3597e-12 -0.0364005)
(3.98637e-11 1.35574e-12 -0.0366519)
(2.37496e-11 2.43705e-12 -0.0363517)
(8.04597e-12 1.65597e-12 -0.0359871)
(9.17142e-13 6.26905e-13 -0.03587)
(-7.55723e-13 1.18087e-13 -0.0359888)
(-6.99724e-13 4.45262e-14 -0.036108)
(-5.18447e-13 7.38569e-15 -0.0359243)
(9.6717e-13 -7.86411e-13 -0.0352459)
(3.88262e-12 -2.0892e-12 -0.0342179)
(-4.77936e-12 2.5441e-12 -0.033597)
(-4.34806e-11 3.04413e-11 -0.0348883)
(-4.18947e-11 9.33438e-11 -0.0395546)
(2.5559e-10 1.62352e-10 -0.0468519)
(9.67711e-10 1.72203e-10 -0.0540781)
(1.62162e-09 8.24793e-11 -0.0594269)
(1.60251e-09 -6.45837e-11 -0.0615641)
(1.00181e-09 -1.63933e-10 -0.0587295)
(3.75752e-10 -1.60537e-10 -0.05212)
(2.85425e-11 -1.02028e-10 -0.0454104)
(-5.34061e-11 -4.75816e-11 -0.0407259)
(-2.239e-11 -1.34725e-11 -0.0384245)
(5.56928e-12 7.31448e-12 -0.0375494)
(-2.81459e-11 2.59388e-11 -0.0372679)
(-1.05574e-10 1.09346e-11 -0.0373461)
(5.92704e-11 -1.64494e-10 -0.035802)
(1.23116e-09 -6.93656e-10 -0.0259041)
(4.38773e-09 -1.65596e-09 0.00183986)
(9.7794e-09 -2.77515e-09 0.0510068)
(1.63113e-08 -3.42617e-09 0.114804)
(2.22418e-08 -3.02095e-09 0.182583)
(2.61971e-08 -1.44837e-09 0.243523)
(2.71881e-08 7.58037e-10 0.280491)
(2.44802e-08 2.64709e-09 0.272272)
(1.84685e-08 3.46094e-09 0.212917)
(1.11612e-08 3.1223e-09 0.123137)
(4.93334e-09 2.11375e-09 0.0364694)
(1.08349e-09 1.0516e-09 -0.0221372)
(-5.28421e-10 3.16382e-10 -0.0473257)
(-7.15792e-10 -1.185e-10 -0.0482361)
(-2.12559e-11 -5.54598e-10 -0.0383648)
(1.55502e-09 -1.25041e-09 -0.0317123)
(4.06904e-09 -2.1626e-09 -0.0433389)
(7.0643e-09 -2.96053e-09 -0.0837528)
(9.675e-09 -3.30271e-09 -0.147227)
(1.1242e-08 -3.10236e-09 -0.210516)
(1.16945e-08 -2.54234e-09 -0.247811)
(1.14245e-08 -1.88675e-09 -0.246199)
(1.09802e-08 -1.29091e-09 -0.206959)
(1.07915e-08 -7.32475e-10 -0.13756)
(1.08988e-08 -5.98943e-11 -0.0475688)
(1.09722e-08 9.11088e-10 0.0506689)
(1.04898e-08 2.23464e-09 0.13714)
(9.02247e-09 3.62376e-09 0.18597)
(6.61356e-09 4.47136e-09 0.179893)
(3.83693e-09 4.27623e-09 0.124985)
(1.42997e-09 3.10989e-09 0.0493666)
(-1.25743e-10 1.58339e-09 -0.0147169)
(-7.2196e-10 3.43129e-10 -0.0487738)
(-4.80897e-10 -3.39824e-10 -0.051913)
(3.91052e-10 -5.53513e-10 -0.0331292)
(1.60141e-09 -4.98319e-10 -0.00385113)
(2.74075e-09 -3.23168e-10 0.0243671)
(3.39405e-09 -1.13761e-10 0.0415624)
(3.35557e-09 7.2091e-11 0.0426992)
(2.73898e-09 1.92997e-10 0.0293963)
(1.86002e-09 2.31279e-10 0.00817907)
(1.03046e-09 2.00938e-10 -0.013065)
(4.32409e-10 1.3714e-10 -0.0287745)
(9.70444e-11 7.30653e-11 -0.0371119)
(-3.87546e-11 2.70683e-11 -0.0391835)
(-6.2529e-11 2.48584e-12 -0.0374193)
(-4.31389e-11 -6.06069e-12 -0.0342115)
(-1.87806e-11 -6.12315e-12 -0.0312135)
(-3.20098e-12 -3.49936e-12 -0.0292193)
(3.11649e-12 -1.18978e-12 -0.028373)
(4.08524e-12 -3.50553e-14 -0.028465)
(3.35952e-12 2.0654e-13 -0.0291694)
(2.94329e-12 1.32227e-14 -0.0301735)
(3.40698e-12 -2.47687e-13 -0.0312226)
(4.52711e-12 -4.0433e-13 -0.0321355)
(5.81814e-12 -4.22657e-13 -0.0328047)
(6.83505e-12 -3.19282e-13 -0.0331891)
(7.29894e-12 -1.46816e-13 -0.0332981)
(7.12699e-12 4.67577e-14 -0.0331719)
(6.42189e-12 2.12662e-13 -0.0328632)
(5.39542e-12 3.1577e-13 -0.0324289)
(4.27484e-12 3.55431e-13 -0.0319256)
(3.24164e-12 3.35462e-13 -0.0314067)
(2.40738e-12 2.73555e-13 -0.0309194)
(1.81811e-12 1.94024e-13 -0.0305019)
(1.47309e-12 1.05568e-13 -0.0301806)
(1.34574e-12 2.5514e-14 -0.0299679)
(1.39969e-12 -4.57817e-14 -0.0298629)
(1.59735e-12 -1.05945e-13 -0.0298521)
(1.90273e-12 -1.48825e-13 -0.0299136)
(2.28073e-12 -1.80851e-13 -0.0300211)
(2.69631e-12 -1.94807e-13 -0.0301477)
(3.11536e-12 -1.96129e-13 -0.0302696)
(3.50603e-12 -1.8565e-13 -0.0303681)
(3.84044e-12 -1.59769e-13 -0.0304305)
(4.09711e-12 -1.28174e-13 -0.0304507)
(4.26344e-12 -8.78634e-14 -0.0304283)
(4.3378e-12 -4.87465e-14 -0.0303669)
(4.32925e-12 -1.52989e-14 -0.0302732)
(4.25491e-12 1.42874e-14 -0.0301555)
(4.13635e-12 3.10663e-14 -0.0300227)
(3.99609e-12 4.14846e-14 -0.0298832)
(3.85462e-12 4.11216e-14 -0.0297445)
(3.72828e-12 3.16843e-14 -0.0296123)
(3.6283e-12 2.06349e-14 -0.0294906)
(3.56066e-12 3.38219e-15 -0.0293812)
(3.52661e-12 -1.09503e-14 -0.0292845)
(3.52366e-12 -2.58027e-14 -0.0291989)
(3.54663e-12 -3.99281e-14 -0.029122)
(3.58882e-12 -4.73663e-14 -0.0290507)
(3.64302e-12 -5.48214e-14 -0.0289813)
(3.70236e-12 -5.55022e-14 -0.0289107)
(3.76106e-12 -5.5101e-14 -0.028836)
(3.81478e-12 -5.43485e-14 -0.0287547)
(3.86094e-12 -4.88443e-14 -0.0286658)
(3.89865e-12 -4.64747e-14 -0.0285674)
(3.92883e-12 -4.084e-14 -0.0284609)
(3.95302e-12 -3.90014e-14 -0.0283444)
(3.97683e-12 -3.66443e-14 -0.0282213)
(3.99385e-12 -4.92404e-14 -0.0280845)
(4.04663e-12 -3.4728e-14 -0.027879)
(-1.24985e-18 -6.41414e-20 -0.0538379)
(-1.75076e-17 -4.7078e-20 -0.0541944)
(-3.27059e-17 2.07694e-20 -0.0540858)
(-5.47699e-17 9.37691e-19 -0.0535084)
(-7.16131e-17 -5.1727e-19 -0.0526683)
(-9.51436e-17 4.03784e-18 -0.0518434)
(-1.99897e-16 8.57335e-18 -0.0513043)
(5.22245e-17 -2.43255e-17 -0.0512363)
(-5.61512e-17 -1.64517e-17 -0.051727)
(-1.16067e-15 1.07721e-16 -0.0527471)
(-1.36821e-15 1.6121e-16 -0.0541332)
(1.10077e-15 -1.50862e-17 -0.0557778)
(4.74813e-15 -2.89059e-16 -0.0574635)
(6.91347e-15 -4.79533e-16 -0.0590153)
(6.73992e-15 -5.00583e-16 -0.0603319)
(3.04111e-15 -2.9855e-16 -0.0613471)
(-4.56835e-15 8.45865e-17 -0.0620234)
(-1.51006e-14 4.0745e-16 -0.0623403)
(-2.60373e-14 5.03693e-16 -0.0622716)
(-3.01029e-14 3.57903e-16 -0.0617308)
(-2.20312e-14 4.65365e-17 -0.0606136)
(-9.71972e-15 -1.04074e-16 -0.0589146)
(-1.82549e-15 1.17712e-17 -0.0567875)
(7.5471e-16 1.8463e-16 -0.0545236)
(-1.44085e-15 9.34726e-16 -0.0524936)
(-7.07034e-15 8.83626e-16 -0.0510692)
(1.16944e-14 -9.68871e-15 -0.0505424)
(3.02003e-15 -1.33164e-15 -0.0511006)
(-3.32447e-13 1.81057e-13 -0.0528732)
(4.9216e-13 1.20691e-13 -0.055958)
(6.15672e-12 -3.00319e-12 -0.0602693)
(-4.80627e-12 -1.11404e-11 -0.065236)
(-7.89365e-11 -1.68485e-11 -0.069721)
(-1.66639e-10 -8.95784e-12 -0.0722577)
(-1.57527e-10 7.76334e-12 -0.0718363)
(-7.8606e-11 1.59304e-11 -0.0685692)
(-2.0198e-11 1.14491e-11 -0.0632992)
(-1.19375e-13 4.423e-12 -0.0571885)
(1.39383e-12 8.17428e-13 -0.05152)
(-5.74453e-13 -9.79363e-14 -0.0472262)
(5.58609e-13 -8.07368e-13 -0.0447066)
(7.03374e-12 -2.36161e-12 -0.044024)
(-8.66607e-12 2.25619e-12 -0.045673)
(-1.01311e-10 2.36586e-11 -0.0512428)
(-7.80454e-11 2.45862e-11 -0.0612071)
(1.06005e-09 -1.27003e-10 -0.0683561)
(4.81123e-09 -4.60624e-10 -0.057381)
(1.09948e-08 -6.33003e-10 -0.0247313)
(1.63467e-08 -2.92895e-10 0.00535291)
(1.69773e-08 2.92686e-10 0.00412329)
(1.25184e-08 5.69637e-10 -0.0252163)
(6.43254e-09 4.43323e-10 -0.0542255)
(2.03581e-09 1.86213e-10 -0.0647091)
(8.53945e-11 1.21511e-11 -0.0590606)
(-2.97391e-10 -3.32826e-11 -0.0484677)
(-1.79102e-10 4.55357e-12 -0.0412846)
(-1.45991e-10 6.25029e-11 -0.0403237)
(-1.67448e-10 -3.7776e-11 -0.0436079)
(5.83195e-10 -6.98093e-10 -0.0423432)
(3.52377e-09 -2.30808e-09 -0.0226974)
(9.30651e-09 -4.63592e-09 0.0206763)
(1.63344e-08 -6.60071e-09 0.0741016)
(2.17931e-08 -7.0662e-09 0.124503)
(2.45474e-08 -5.72493e-09 0.184416)
(2.59985e-08 -2.89756e-09 0.275284)
(2.76806e-08 9.65583e-10 0.385393)
(2.85553e-08 4.94322e-09 0.457939)
(2.58098e-08 7.49054e-09 0.43447)
(1.87444e-08 7.57134e-09 0.313875)
(1.01023e-08 5.61776e-09 0.155035)
(3.24821e-09 3.03764e-09 0.0252523)
(-3.60966e-10 1.00398e-09 -0.043401)
(-1.13076e-09 -2.85801e-10 -0.0590368)
(9.99113e-11 -1.34682e-09 -0.052813)
(2.71573e-09 -2.58323e-09 -0.0645817)
(5.87844e-09 -3.76846e-09 -0.128328)
(8.32985e-09 -4.327e-09 -0.246891)
(9.14386e-09 -3.99913e-09 -0.37817)
(8.39297e-09 -3.07626e-09 -0.461554)
(6.86604e-09 -2.07638e-09 -0.46297)
(5.35323e-09 -1.37233e-09 -0.392977)
(4.34147e-09 -1.05844e-09 -0.286891)
(4.18552e-09 -9.25909e-10 -0.17172)
(5.13862e-09 -5.53256e-10 -0.0511622)
(6.97681e-09 4.78259e-10 0.0791899)
(8.76307e-09 2.29375e-09 0.20611)
(9.27918e-09 4.41207e-09 0.29282)
(7.91849e-09 5.84533e-09 0.302505)
(5.1744e-09 5.80104e-09 0.231079)
(2.20719e-09 4.34082e-09 0.114659)
(5.38302e-11 2.27205e-09 0.00494022)
(-7.30447e-10 4.43785e-10 -0.0601714)
(1.16348e-11 -7.57594e-10 -0.0665468)
(2.09556e-09 -1.33771e-09 -0.0190382)
(4.91344e-09 -1.39281e-09 0.0627299)
(7.52047e-09 -1.00603e-09 0.147686)
(8.98521e-09 -3.37169e-10 0.202887)
(8.82148e-09 3.4483e-10 0.208623)
(7.24057e-09 7.894e-10 0.168306)
(4.97244e-09 9.03631e-10 0.103138)
(2.7921e-09 7.58237e-10 0.037754)
(1.1908e-09 4.99072e-10 -0.0109286)
(2.77774e-10 2.54436e-10 -0.0380268)
(-9.89036e-11 8.77892e-11 -0.0476978)
(-1.69233e-10 3.65022e-12 -0.0474685)
(-1.19074e-10 -2.31073e-11 -0.043944)
(-5.3074e-11 -2.15242e-11 -0.0410901)
(-9.75404e-12 -1.19136e-11 -0.0403891)
(8.6495e-12 -3.99351e-12 -0.0417585)
(1.22956e-11 -1.4125e-13 -0.0444614)
(1.10524e-11 6.25704e-13 -0.0476871)
(1.05048e-11 -2.33013e-14 -0.0507956)
(1.23132e-11 -8.71218e-13 -0.0533648)
(1.58361e-11 -1.33907e-12 -0.0551641)
(1.96076e-11 -1.30229e-12 -0.0561158)
(2.22803e-11 -8.67373e-13 -0.0562618)
(2.30735e-11 -2.24952e-13 -0.0557327)
(2.1876e-11 4.20946e-13 -0.0547132)
(1.91556e-11 9.08131e-13 -0.0534051)
(1.56585e-11 1.162e-12 -0.0519992)
(1.20988e-11 1.19085e-12 -0.0506587)
(8.98534e-12 1.05152e-12 -0.0495083)
(6.58246e-12 8.15292e-13 -0.0486286)
(4.95525e-12 5.44359e-13 -0.0480565)
(4.04587e-12 2.81278e-13 -0.04779)
(3.74215e-12 4.89209e-14 -0.047795)
(3.92191e-12 -1.43905e-13 -0.0480148)
(4.47219e-12 -2.95595e-13 -0.0483803)
(5.29132e-12 -4.06517e-13 -0.0488195)
(6.28349e-12 -4.76696e-13 -0.0492663)
(7.35471e-12 -5.06337e-13 -0.0496659)
(8.41478e-12 -4.96945e-13 -0.0499783)
(9.38044e-12 -4.51764e-13 -0.0501797)
(1.01808e-11 -3.76447e-13 -0.0502616)
(1.07642e-11 -2.79598e-13 -0.0502287)
(1.11042e-11 -1.7266e-13 -0.0500958)
(1.12034e-11 -6.84134e-14 -0.0498842)
(1.10915e-11 2.17665e-14 -0.0496181)
(1.08177e-11 8.99252e-14 -0.0493219)
(1.04405e-11 1.32199e-13 -0.0490178)
(1.00185e-11 1.48651e-13 -0.0487243)
(9.60328e-12 1.42482e-13 -0.0484553)
(9.23449e-12 1.18916e-13 -0.0482193)
(8.93803e-12 8.40761e-14 -0.0480198)
(8.72641e-12 4.4008e-14 -0.0478557)
(8.6005e-12 3.99563e-15 -0.0477222)
(8.55218e-12 -3.18522e-14 -0.0476123)
(8.56732e-12 -6.0768e-14 -0.0475173)
(8.62855e-12 -8.13055e-14 -0.0474284)
(8.71782e-12 -9.32019e-14 -0.0473373)
(8.81839e-12 -9.71669e-14 -0.0472371)
(8.91644e-12 -9.4631e-14 -0.0471228)
(9.00199e-12 -8.75071e-14 -0.0469906)
(9.06942e-12 -7.78868e-14 -0.0468398)
(9.11728e-12 -6.79983e-14 -0.046669)
(9.1484e-12 -5.92701e-14 -0.0464816)
(9.16707e-12 -5.52056e-14 -0.0462762)
(9.18575e-12 -4.87868e-14 -0.0460598)
(9.19504e-12 -7.31163e-14 -0.0458216)
(9.26849e-12 -5.1907e-14 -0.045474)
(-4.33949e-17 5.12244e-18 -0.0749183)
(-1.5051e-16 8.57722e-18 -0.0754247)
(-1.3044e-16 1.11878e-17 -0.0752649)
(-1.85979e-16 1.0844e-17 -0.0744306)
(-6.88799e-17 1.01048e-17 -0.0732115)
(-4.66988e-16 5.42362e-17 -0.0720017)
(2.3956e-16 -8.32386e-17 -0.0711866)
(7.41855e-16 -1.01537e-16 -0.0710308)
(-4.11799e-15 2.31216e-15 -0.0716663)
(-2.21941e-15 6.57744e-16 -0.0730511)
(1.43529e-14 -2.89349e-15 -0.0749435)
(3.0483e-14 -1.34491e-15 -0.0772312)
(2.91594e-14 -2.88817e-15 -0.0795975)
(8.34272e-15 -9.98802e-16 -0.081779)
(-3.11626e-14 1.9046e-15 -0.0836636)
(-8.80683e-14 5.60241e-15 -0.0851645)
(-1.52673e-13 9.01825e-15 -0.0862179)
(-2.11792e-13 1.06997e-14 -0.0867662)
(-2.67483e-13 7.50724e-15 -0.0867673)
(-2.69811e-13 -1.94513e-15 -0.0860943)
(-1.71854e-13 -1.01101e-14 -0.0845317)
(-5.70606e-14 -1.00257e-14 -0.0820036)
(3.76754e-15 -5.16985e-15 -0.0787243)
(2.21389e-14 -1.40973e-16 -0.0751281)
(6.81293e-15 4.03386e-15 -0.0717831)
(3.10916e-14 -6.36407e-15 -0.0693445)
(1.33295e-13 -6.26888e-15 -0.0684071)
(-8.39758e-13 1.70253e-13 -0.0693819)
(-1.4115e-12 -2.19123e-13 -0.0724783)
(1.72551e-11 -3.18706e-12 -0.0776141)
(3.08878e-11 2.29964e-12 -0.0843346)
(-2.42942e-10 4.08236e-11 -0.0926599)
(-1.1145e-09 7.81502e-11 -0.102559)
(-2.09979e-09 3.79354e-11 -0.109941)
(-2.20028e-09 -4.2661e-11 -0.109137)
(-1.36753e-09 -6.62274e-11 -0.100928)
(-4.99141e-10 -3.75873e-11 -0.0901099)
(-7.41814e-11 -1.0169e-11 -0.0792049)
(3.14072e-11 3.45626e-13 -0.0692146)
(2.36521e-11 4.62135e-13 -0.0612466)
(1.67774e-11 -3.79671e-12 -0.0563004)
(1.44182e-11 3.82593e-12 -0.0551615)
(-1.19e-10 5.20831e-11 -0.0599115)
(-3.54616e-10 3.72338e-11 -0.072794)
(6.25213e-10 -5.50238e-10 -0.0838953)
(6.00421e-09 -2.35129e-09 -0.0575845)
(1.79563e-08 -4.80505e-09 0.0437656)
(3.37147e-08 -5.59555e-09 0.205173)
(4.65395e-08 -2.90877e-09 0.34683)
(4.98251e-08 1.8496e-09 0.37791)
(4.10754e-08 5.10847e-09 0.275259)
(2.50625e-08 5.08074e-09 0.112281)
(1.04189e-08 3.07155e-09 -0.014441)
(1.9827e-09 1.11902e-09 -0.0677486)
(-8.03408e-10 1.18776e-10 -0.0686802)
(-8.93728e-10 -6.83853e-11 -0.0548113)
(-5.446e-10 2.01115e-11 -0.0484738)
(-6.7322e-11 -3.53659e-10 -0.0486559)
(1.94871e-09 -2.0101e-09 -0.0387853)
(6.8192e-09 -5.05531e-09 -0.0115465)
(1.3116e-08 -8.06128e-09 0.00712406)
(1.67923e-08 -9.01842e-09 -0.0159729)
(1.5323e-08 -7.53265e-09 -0.0573376)
(1.04661e-08 -5.12366e-09 -0.039331)
(6.59837e-09 -3.01496e-09 0.0916665)
(7.50691e-09 -5.20379e-10 0.312473)
(1.33427e-08 3.58249e-09 0.529559)
(1.93045e-08 8.3664e-09 0.625917)
(1.97318e-08 1.09761e-08 0.544163)
(1.40605e-08 9.86185e-09 0.338079)
(6.37582e-09 6.28322e-09 0.122205)
(8.31266e-10 2.50587e-09 -0.0174472)
(-9.9283e-10 -3.48941e-10 -0.068625)
(4.00595e-10 -2.47784e-09 -0.0832014)
(3.44204e-09 -4.13968e-09 -0.138873)
(6.06992e-09 -4.96966e-09 -0.281329)
(6.72567e-09 -4.59324e-09 -0.47342)
(5.34531e-09 -3.33427e-09 -0.612474)
(3.08585e-09 -1.96345e-09 -0.613164)
(1.14604e-09 -1.02247e-09 -0.470105)
(-3.4411e-11 -6.24465e-10 -0.249868)
(-6.92348e-10 -7.07055e-10 -0.0395686)
(-1.01521e-09 -1.13104e-09 0.106805)
(-5.30825e-10 -1.45554e-09 0.195271)
(1.31854e-09 -9.01138e-10 0.267125)
(4.13943e-09 1.08346e-09 0.3473)
(6.46126e-09 4.04605e-09 0.412872)
(6.85713e-09 6.52375e-09 0.413238)
(5.1662e-09 7.13188e-09 0.323278)
(2.50011e-09 5.67018e-09 0.172184)
(3.58352e-10 3.05221e-09 0.0239457)
(-6.76846e-11 3.64226e-10 -0.0602975)
(1.76134e-09 -1.75283e-09 -0.0459107)
(5.45277e-09 -3.00441e-09 0.0659482)
(9.81583e-09 -3.21077e-09 0.239225)
(1.35118e-08 -2.35905e-09 0.416189)
(1.55635e-08 -7.6427e-10 0.536725)
(1.54519e-08 9.44412e-10 0.559162)
(1.32113e-08 2.11752e-09 0.479592)
(9.58435e-09 2.45551e-09 0.334185)
(5.73263e-09 2.09176e-09 0.176658)
(2.645e-09 1.3943e-09 0.0509134)
(7.34492e-10 7.17915e-10 -0.0252462)
(-1.32538e-10 2.50572e-10 -0.0577429)
(-3.42841e-10 1.25712e-11 -0.0634709)
(-2.64782e-10 -6.41401e-11 -0.0586691)
(-1.28586e-10 -6.07833e-11 -0.0535396)
(-3.00875e-11 -3.43611e-11 -0.0521393)
(1.67833e-11 -1.22146e-11 -0.0545977)
(3.02416e-11 -1.23652e-12 -0.0594272)
(3.13525e-11 1.10194e-12 -0.0649872)
(3.31221e-11 -6.17161e-13 -0.070077)
(3.97993e-11 -2.91334e-12 -0.0740231)
(4.99063e-11 -4.05155e-12 -0.0765658)
(5.96712e-11 -3.64478e-12 -0.0777171)
(6.56026e-11 -2.05221e-12 -0.0776527)
(6.58756e-11 5.53408e-14 -0.0766384)
(6.06356e-11 2.00567e-12 -0.0749761)
(5.1584e-11 3.32142e-12 -0.0729582)
(4.09996e-11 3.84421e-12 -0.0708499)
(3.08542e-11 3.69202e-12 -0.0688797)
(2.23976e-11 3.09361e-12 -0.0672272)
(1.61453e-11 2.2886e-12 -0.0660104)
(1.20842e-11 1.46232e-12 -0.0652799)
(9.92305e-12 7.12119e-13 -0.0650227)
(9.28481e-12 8.7497e-14 -0.0651737)
(9.81316e-12 -4.10801e-13 -0.0656327)
(1.12056e-11 -7.90654e-13 -0.0662832)
(1.32039e-11 -1.05448e-12 -0.0670098)
(1.55715e-11 -1.21255e-12 -0.0677112)
(1.80803e-11 -1.26045e-12 -0.0683087)
(2.05142e-11 -1.20899e-12 -0.0687492)
(2.26757e-11 -1.06866e-12 -0.0690059)
(2.4402e-11 -8.5167e-13 -0.0690756)
(2.55822e-11 -5.89883e-13 -0.0689741)
(2.61693e-11 -3.07431e-13 -0.0687305)
(2.61864e-11 -4.23931e-14 -0.0683811)
(2.57186e-11 1.77536e-13 -0.0679642)
(2.4892e-11 3.39811e-13 -0.067516)
(2.38497e-11 4.30669e-13 -0.0670682)
(2.27295e-11 4.60078e-13 -0.0666459)
(2.16485e-11 4.33128e-13 -0.0662668)
(2.06932e-11 3.64309e-13 -0.0659405)
(1.99172e-11 2.74671e-13 -0.0656694)
(1.9343e-11 1.72151e-13 -0.0654496)
(1.89672e-11 7.61662e-14 -0.0652723)
(1.87674e-11 -9.21375e-15 -0.0651257)
(1.87088e-11 -7.81134e-14 -0.0649965)
(1.87509e-11 -1.22616e-13 -0.0648718)
(1.88529e-11 -1.49741e-13 -0.06474)
(1.89779e-11 -1.54814e-13 -0.0645919)
(1.90961e-11 -1.46898e-13 -0.0644213)
(1.91869e-11 -1.30837e-13 -0.0642241)
(1.92395e-11 -1.06492e-13 -0.0640003)
(1.92522e-11 -8.59659e-14 -0.0637489)
(1.92322e-11 -6.57344e-14 -0.0634757)
(1.91901e-11 -5.76734e-14 -0.0631793)
(1.91506e-11 -5.06275e-14 -0.0628701)
(1.91055e-11 -9.0612e-14 -0.0625314)
(1.91556e-11 -7.14545e-14 -0.0620642)
(5.30559e-17 1.83161e-15 -0.09548)
(1.89334e-16 1.7782e-15 -0.0961425)
(1.40219e-16 1.7755e-17 -0.0959228)
(2.80323e-16 1.70488e-15 -0.0948048)
(3.86864e-16 1.87471e-15 -0.0931647)
(-8.12548e-16 1.58454e-15 -0.0915177)
(5.95071e-15 -5.95848e-16 -0.0903707)
(-1.27676e-14 2.18155e-15 -0.0900708)
(-5.60071e-15 1.46418e-15 -0.0908028)
(6.94333e-14 -1.09031e-14 -0.0925034)
(7.85756e-14 -1.619e-14 -0.0948295)
(-6.03559e-14 -7.40479e-15 -0.0977058)
(-2.70873e-13 1.07811e-14 -0.100675)
(-4.44841e-13 2.96815e-14 -0.103435)
(-6.05276e-13 4.77049e-14 -0.105852)
(-7.17081e-13 6.3926e-14 -0.107799)
(-7.02978e-13 6.36809e-14 -0.109191)
(-4.88184e-13 5.78124e-14 -0.109978)
(-1.0677e-13 3.12484e-14 -0.110094)
(3.40876e-13 -4.39872e-14 -0.109326)
(5.87386e-13 -1.06329e-13 -0.107345)
(4.93955e-13 -8.79147e-14 -0.104034)
(2.8375e-13 -3.9588e-14 -0.0997389)
(1.59186e-13 -1.33807e-15 -0.0950313)
(1.09591e-13 -3.54162e-15 -0.0906142)
(4.42253e-13 -6.4092e-14 -0.087335)
(9.85483e-15 4.25736e-13 -0.0860049)
(-4.70727e-12 7.71068e-13 -0.0872359)
(7.95704e-12 -8.86635e-12 -0.0912995)
(6.82571e-11 -1.6029e-11 -0.0976994)
(-8.18744e-11 1.27094e-10 -0.106421)
(-9.83083e-10 5.61551e-10 -0.122028)
(-2.4533e-09 9.11576e-10 -0.147764)
(-3.8606e-09 5.33933e-10 -0.171813)
(-4.57535e-09 -3.5837e-10 -0.174078)
(-3.72278e-09 -8.34642e-10 -0.152085)
(-1.92332e-09 -6.35226e-10 -0.123897)
(-5.57811e-10 -2.60851e-10 -0.101924)
(2.5456e-11 -4.8101e-11 -0.0864981)
(1.17617e-10 7.21518e-12 -0.0756449)
(8.86863e-11 3.80782e-12 -0.068774)
(-2.2731e-11 6.55253e-11 -0.0678359)
(-4.46567e-10 1.86773e-10 -0.0779947)
(-3.4022e-10 -3.48449e-10 -0.0955889)
(4.00236e-09 -3.15483e-09 -0.0813835)
(1.66264e-08 -8.79254e-09 0.0297216)
(3.5075e-08 -1.43159e-08 0.253948)
(5.15434e-08 -1.49246e-08 0.532143)
(6.23602e-08 -8.34807e-09 0.784317)
(6.80943e-08 3.02473e-09 0.917374)
(6.52189e-08 1.29509e-08 0.833392)
(4.95805e-08 1.57716e-08 0.544596)
(2.70456e-08 1.17261e-08 0.2122)
(8.77872e-09 5.62332e-09 -0.0081553)
(-1.12613e-10 1.40493e-09 -0.0857972)
(-2.0688e-09 -1.2485e-10 -0.0836004)
(-1.41151e-09 -3.50698e-10 -0.0658833)
(2.6628e-10 -1.28443e-09 -0.0501437)
(3.95768e-09 -4.14135e-09 -0.0302378)
(9.43024e-09 -7.89174e-09 -0.0337609)
(1.2853e-08 -9.62247e-09 -0.121875)
(1.04132e-08 -7.7042e-09 -0.289409)
(3.04684e-09 -3.9031e-09 -0.410313)
(-5.07671e-09 -1.36261e-09 -0.351126)
(-1.05837e-08 -1.41798e-09 -0.0977628)
(-1.13008e-08 -2.40658e-09 0.257142)
(-5.63603e-09 -9.55573e-10 0.59174)
(4.61431e-09 4.29599e-09 0.789509)
(1.28741e-08 1.01934e-08 0.768519)
(1.3796e-08 1.22958e-08 0.549068)
(8.64738e-09 9.65224e-09 0.259407)
(2.68518e-09 4.6883e-09 0.0368273)
(-7.45363e-11 -7.04655e-11 -0.0735828)
(9.2001e-10 -3.56426e-09 -0.139654)
(3.48309e-09 -5.41789e-09 -0.269511)
(4.87224e-09 -5.41027e-09 -0.491176)
(4.0037e-09 -3.96469e-09 -0.698286)
(1.85852e-09 -2.17922e-09 -0.738469)
(3.94807e-11 -9.76625e-10 -0.545787)
(-6.1102e-10 -5.16245e-10 -0.179371)
(-2.99654e-10 -4.53139e-10 0.231809)
(1.33749e-10 -5.68037e-10 0.560367)
(-4.27898e-11 -1.00667e-09 0.731588)
(-6.07964e-10 -1.72013e-09 0.751988)
(-4.39599e-10 -1.85687e-09 0.694289)
(1.18272e-09 -2.77616e-10 0.636736)
(3.46119e-09 3.05322e-09 0.598009)
(4.70818e-09 6.49286e-09 0.534233)
(4.02864e-09 7.97955e-09 0.401304)
(2.118e-09 6.74475e-09 0.212077)
(7.07689e-10 3.55594e-09 0.036161)
(1.43347e-09 -2.57706e-10 -0.0435309)
(4.6837e-09 -3.51782e-09 0.020193)
(9.20776e-09 -5.36496e-09 0.212481)
(1.32295e-08 -5.42231e-09 0.472266)
(1.58799e-08 -3.87986e-09 0.728974)
(1.73036e-08 -1.30724e-09 0.919751)
(1.76254e-08 1.52093e-09 0.989652)
(1.63721e-08 3.72319e-09 0.907388)
(1.32262e-08 4.64296e-09 0.694931)
(8.89229e-09 4.22791e-09 0.426055)
(4.68881e-09 2.99814e-09 0.184279)
(1.64511e-09 1.6432e-09 0.0200077)
(2.36584e-11 6.26455e-10 -0.0618034)
(-5.11729e-10 6.97721e-11 -0.0854619)
(-4.75461e-10 -1.30233e-10 -0.0813398)
(-2.65355e-10 -1.38871e-10 -0.0714519)
(-8.25157e-11 -8.45983e-11 -0.0662001)
(2.04845e-11 -3.4158e-11 -0.0674977)
(6.26556e-11 -7.42584e-12 -0.0732423)
(7.89077e-11 -8.12829e-13 -0.0805329)
(9.40518e-11 -4.2467e-12 -0.087168)
(1.16907e-10 -9.26332e-12 -0.0920055)
(1.44137e-10 -1.1275e-11 -0.0947656)
(1.67079e-10 -9.15041e-12 -0.0956868)
(1.77921e-10 -3.96612e-12 -0.0952246)
(1.73307e-10 2.25854e-12 -0.0938505)
(1.54961e-10 7.56676e-12 -0.0919524)
(1.28192e-10 1.07261e-11 -0.0898012)
(9.91613e-11 1.15269e-11 -0.0876005)
(7.27263e-11 1.04936e-11 -0.0855378)
(5.16026e-11 8.40601e-12 -0.0837902)
(3.65758e-11 5.97201e-12 -0.0825009)
(2.71868e-11 3.65546e-12 -0.0817501)
(2.24278e-11 1.68097e-12 -0.0815408)
(2.12186e-11 1.05597e-13 -0.0818036)
(2.26303e-11 -1.1043e-12 -0.0824165)
(2.59226e-11 -1.99095e-12 -0.0832319)
(3.04892e-11 -2.58945e-12 -0.0841032)
(3.57867e-11 -2.91493e-12 -0.0849055)
(4.12995e-11 -2.97596e-12 -0.0855464)
(4.65416e-11 -2.79461e-12 -0.0859701)
(5.10757e-11 -2.39569e-12 -0.0861565)
(5.45538e-11 -1.82971e-12 -0.0861157)
(5.6756e-11 -1.16323e-12 -0.0858797)
(5.76144e-11 -4.73011e-13 -0.0854936)
(5.7217e-11 1.56934e-13 -0.0850066)
(5.57821e-11 6.68934e-13 -0.0844649)
(5.36081e-11 1.02439e-12 -0.0839088)
(5.10187e-11 1.21348e-12 -0.0833705)
(4.83156e-11 1.25099e-12 -0.0828736)
(4.57466e-11 1.16062e-12 -0.0824326)
(4.34878e-11 9.84523e-13 -0.0820536)
(4.16415e-11 7.59165e-13 -0.0817352)
(4.02436e-11 5.19004e-13 -0.0814698)
(3.92762e-11 2.93546e-13 -0.0812452)
(3.86838e-11 9.73629e-14 -0.0810467)
(3.83876e-11 -5.25375e-14 -0.0808591)