/*--------------------------------*- C++ -*----------------------------------*\
  =========                 |
  \\      /  F ield         | OpenFOAM: The Open Source CFD Toolbox
   \\    /   O peration     | Website:  https://openfoam.org
    \\  /    A nd           | Version:  11
     \\/     M anipulation  |
\*---------------------------------------------------------------------------*/
FoamFile
{
    format      ascii;
    class       surfaceScalarField;
    location    "5.746464";
    object      phi;
}
// * * * * * * * * * * * * * * * * * * * * * * * * * * * * * * * * * * * * * //

dimensions      [0 3 -1 0 0 0 0];

internalField   nonuniform List<scalar> 
14638
(
0.00250288
-2.88228e-06
0.00251158
-8.69869e-06
0.00252646
-1.4876e-05
0.002548
-2.15384e-05
0.00257672
-2.87222e-05
0.00261295
-3.62311e-05
0.00265662
-4.36755e-05
0.0027069
-5.02745e-05
0.00276209
-5.51913e-05
0.00281962
-5.75251e-05
0.00287639
-5.67742e-05
0.00293003
-5.36364e-05
0.00297877
-4.87444e-05
0.0030215
-4.27314e-05
0.00305766
-3.61535e-05
0.00308701
-2.93512e-05
0.00310951
-2.25041e-05
0.00312517
-1.5659e-05
0.00313396
-8.78763e-06
0.00313581
-1.85386e-06
0.00313069
5.12304e-06
0.00311866
1.20241e-05
0.00310004
1.86219e-05
0.00307543
2.46151e-05
0.00304574
2.9691e-05
0.00301214
3.35974e-05
0.00297594
3.61978e-05
0.00293845
3.74922e-05
0.00290085
3.76033e-05
0.00286411
3.67366e-05
0.00282898
3.51329e-05
0.00279595
3.30267e-05
0.00276533
3.0619e-05
0.00273726
2.80653e-05
0.00271179
2.5476e-05
0.00268886
2.29246e-05
0.00266841
2.04586e-05
0.0026503
1.81085e-05
0.0026344
1.58965e-05
0.00262056
1.384e-05
0.00260861
1.19543e-05
0.00259835
1.02526e-05
0.00258961
8.74448e-06
0.00258217
7.43535e-06
0.00257585
6.32477e-06
0.00257044
5.40604e-06
0.00256578
4.66623e-06
0.00256169
4.08703e-06
0.00255804
3.64603e-06
0.00255473
3.31854e-06
0.00255165
3.07936e-06
0.00254874
2.90454e-06
0.00254597
2.77278e-06
0.0025433
2.66644e-06
0.00254073
2.57202e-06
0.00253825
2.48027e-06
0.00253586
2.38583e-06
0.00253358
2.28665e-06
0.00253139
2.1832e-06
0.00252932
2.07767e-06
0.00252734
1.97318e-06
0.00252547
1.87311e-06
0.00252369
1.78052e-06
0.00252199
1.69782e-06
0.00252037
1.62652e-06
0.0025188
1.56711e-06
0.00251728
1.51918e-06
0.0025158
1.48152e-06
0.00251435
1.45236e-06
0.00251292
1.42964e-06
0.0025115
1.41122e-06
0.00251011
1.39517e-06
0.00250873
1.37984e-06
0.00250737
1.36406e-06
0.00250602
1.34706e-06
0.00250469
1.32847e-06
0.00250338
1.30823e-06
0.00250209
1.28649e-06
0.00250083
1.2635e-06
0.00249959
1.23954e-06
0.00249838
1.21485e-06
0.00249719
1.18957e-06
0.00249602
1.1637e-06
0.00249489
1.13702e-06
0.00249378
1.1091e-06
0.0024927
1.07929e-06
0.00249165
1.0468e-06
0.00249064
1.01085e-06
0.00248967
9.70764e-07
0.00248874
9.25994e-07
0.00248787
8.75638e-07
0.00248705
8.17551e-07
0.0024863
7.47018e-07
0.00248565
6.5547e-07
0.00248512
5.30018e-07
0.00248476
3.54727e-07
0.00248465
1.14227e-07
0.00248485
-2.00503e-07
0.00248544
-5.85437e-07
0.00248645
-1.01813e-06
0.00248791
-1.45626e-06
0.00248975
-1.84198e-06
0.00249186
-2.11238e-06
0.00249408
-2.21399e-06
0.0024962
-2.11752e-06
0.00249802
-1.8281e-06
0.00249941
-1.38724e-06
0.00250028
-8.65187e-07
0.00250062
-3.45463e-07
0.00250053
9.4005e-08
0.00250013
3.97667e-07
0.00249959
5.42384e-07
0.00249905
5.38463e-07
0.00249863
4.22376e-07
0.00249838
2.44277e-07
0.00249833
5.4488e-08
0.00249844
-1.07304e-07
0.00249865
-2.17894e-07
0.00249892
-2.71088e-07
0.0024992
-2.74112e-07
0.00249944
-2.41927e-07
0.00249963
-1.91496e-07
0.00249977
-1.37447e-07
0.00249986
-8.97581e-08
0.00249991
-5.33577e-08
0.00249994
-2.90335e-08
0.00249996
-1.49428e-08
0.00249996
-8.11606e-09
0.00249997
-5.58915e-09
0.00249997
-5.04471e-09
0.00249998
-5.01673e-09
0.00249998
-4.80061e-09
0.00249999
-4.22297e-09
0.00249999
-3.39228e-09
0.00249999
-2.50252e-09
0.0025
-1.71542e-09
0.0025
-1.11497e-09
0.0025
-7.11224e-10
0.0025
-4.67477e-10
0.0025
-3.30575e-10
0.0025
-2.5265e-10
0.0025
-2.01174e-10
0.0025
-1.59453e-10
0.0025
-1.22058e-10
0.0025
-8.91437e-11
0.0025
-6.22009e-11
0.0025
-4.18912e-11
0.0025
-2.76379e-11
0.0025
-1.80742e-11
0.0025
-1.17061e-11
0.0025
-7.32007e-12
0.0025
-4.14419e-12
0.0025
-1.74331e-12
0.0025
6.44193e-14
0.0025
1.43434e-12
0.0025
2.3595e-12
0.0025
3.12043e-12
0.0025
3.37558e-12
0.0025
4.08381e-12
3.62779e-12
0.00250286
-5.73806e-06
0.00251148
-1.73238e-05
0.00252625
-2.96466e-05
0.00254769
-4.29756e-05
0.00257636
-5.73954e-05
0.00261266
-7.25262e-05
0.00265658
-8.75944e-05
0.0027073
-0.000101001
0.00276314
-0.000111031
0.00282139
-0.000115771
0.00287878
-0.000114167
0.00293289
-0.000107741
0.00298194
-9.78004e-05
0.00302485
-8.56422e-05
0.00306109
-7.23958e-05
0.00309048
-5.87398e-05
0.003113
-4.50258e-05
0.00312868
-3.13335e-05
0.00313748
-1.75912e-05
0.00313934
-3.7118e-06
0.00313419
1.02758e-05
0.00312208
2.41353e-05
0.00310329
3.74046e-05
0.00307844
4.94666e-05
0.00304845
5.96798e-05
0.00301452
6.75274e-05
0.00297799
7.27306e-05
0.00294019
7.52924e-05
0.00290233
7.54667e-05
0.00286539
7.36754e-05
0.00283011
7.04102e-05
0.00279699
6.61471e-05
0.00276632
6.12913e-05
0.00273823
5.61542e-05
0.00271275
5.09555e-05
0.00268983
4.58398e-05
0.00266939
4.08994e-05
0.00265131
3.61937e-05
0.00263544
3.17654e-05
0.00262163
2.7649e-05
0.00260971
2.38748e-05
0.00259949
2.04689e-05
0.00259079
1.74512e-05
0.00258339
1.48326e-05
0.0025771
1.26123e-05
0.00257173
1.07771e-05
0.0025671
9.30102e-06
0.00256304
8.14714e-06
0.00255941
7.27037e-06
0.00255611
6.6209e-06
0.00255304
6.14796e-06
0.00255014
5.8033e-06
0.00254737
5.54405e-06
0.0025447
5.33476e-06
0.00254213
5.14839e-06
0.00253964
4.96645e-06
0.00253725
4.77834e-06
0.00253495
4.58009e-06
0.00253276
4.37283e-06
0.00253068
4.16113e-06
0.0025287
3.9514e-06
0.00252683
3.75051e-06
0.00252504
3.56473e-06
0.00252334
3.39893e-06
0.00252171
3.25615e-06
0.00252014
3.13741e-06
0.00251862
3.04185e-06
0.00251713
2.96701e-06
0.00251568
2.90931e-06
0.00251424
2.86452e-06
0.00251282
2.82836e-06
0.00251142
2.79688e-06
0.00251003
2.7668e-06
0.00250866
2.73573e-06
0.00250731
2.70215e-06
0.00250597
2.66535e-06
0.00250465
2.62522e-06
0.00250336
2.58209e-06
0.00250209
2.53649e-06
0.00250084
2.48899e-06
0.00249961
2.44008e-06
0.00249841
2.39007e-06
0.00249724
2.33897e-06
0.00249609
2.28637e-06
0.00249496
2.23143e-06
0.00249387
2.17286e-06
0.00249281
2.10906e-06
0.00249178
2.03845e-06
0.00249079
1.95967e-06
0.00248985
1.87154e-06
0.00248895
1.77227e-06
0.00248811
1.65767e-06
0.00248734
1.51859e-06
0.00248665
1.3383e-06
0.00248609
1.0916e-06
0.0024857
7.4711e-07
0.00248554
2.74369e-07
0.00248568
-3.44864e-07
0.0024862
-1.10333e-06
0.00248714
-1.95749e-06
0.00248851
-2.82441e-06
0.00249026
-3.59004e-06
0.00249228
-4.12974e-06
0.0024944
-4.33701e-06
0.00249643
-4.15278e-06
0.00249819
-3.586e-06
0.00249952
-2.71791e-06
0.00250034
-1.68723e-06
0.00250066
-6.59551e-07
0.00250054
2.10032e-07
0.00250013
8.10488e-07
0.00249958
1.09506e-06
0.00249903
1.08363e-06
0.00249861
8.48481e-07
0.00249836
4.89522e-07
0.00249831
1.0736e-07
0.00249842
-2.18405e-07
0.00249864
-4.4104e-07
0.00249892
-5.47923e-07
0.0024992
-5.53488e-07
0.00249944
-4.87871e-07
0.00249964
-3.85369e-07
0.00249978
-2.75641e-07
0.00249987
-1.78973e-07
0.00249992
-1.05393e-07
0.00249994
-5.64832e-08
0.00249996
-2.84425e-08
0.00249997
-1.5156e-08
0.00249997
-1.05258e-08
0.00249997
-9.79587e-09
0.00249998
-9.97713e-09
0.00249998
-9.65863e-09
0.00249999
-8.52558e-09
0.00249999
-6.83752e-09
0.00249999
-5.01848e-09
0.0025
-3.41369e-09
0.0025
-2.1986e-09
0.0025
-1.39107e-09
0.0025
-9.11446e-10
0.0025
-6.47326e-10
0.0025
-4.99207e-10
0.0025
-4.00779e-10
0.0025
-3.19119e-10
0.0025
-2.44495e-10
0.0025
-1.78265e-10
0.0025
-1.24038e-10
0.0025
-8.33479e-11
0.0025
-5.49935e-11
0.0025
-3.61096e-11
0.0025
-2.3596e-11
0.0025
-1.49765e-11
0.0025
-8.70488e-12
0.0025
-3.93569e-12
0.0025
-3.27254e-13
0.0025
2.40953e-12
0.0025
4.26437e-12
0.0025
5.77221e-12
0.0025
6.31017e-12
0.0025
7.65568e-12
6.87772e-12
0.0025028
-8.54031e-06
0.00251127
-2.57942e-05
0.00252583
-4.41992e-05
0.00254705
-6.41973e-05
0.00257561
-8.59551e-05
0.00261202
-0.000108935
0.00265641
-0.000131992
0.00270805
-0.000152635
0.00276521
-0.000168193
0.00282493
-0.000175491
0.00288358
-0.000172814
0.00293862
-0.000162785
0.00298829
-0.000147474
0.00303155
-0.000128902
0.00306796
-0.000108805
0.00309742
-8.81945e-05
0.00311997
-6.75778e-05
0.00313567
-4.70386e-05
0.00314451
-2.64296e-05
0.00314638
-5.58213e-06
0.00314117
1.54856e-05
0.00312889
3.64233e-05
0.00310977
5.65172e-05
0.00308444
7.48044e-05
0.00305383
9.0281e-05
0.00301922
0.000102139
0.002982
0.000109949
0.00294357
0.000113722
0.00290518
0.000113861
0.00286783
0.000111028
0.00283225
0.000105985
0.00279894
9.94638e-05
0.00276815
9.20799e-05
0.00274
8.43009e-05
0.0027145
7.64522e-05
0.0026916
6.87448e-05
0.00267119
6.13109e-05
0.00265315
5.42353e-05
0.00263733
4.7579e-05
0.00262359
4.13924e-05
0.00261174
3.57208e-05
0.00260161
3.06038e-05
0.00259299
2.60721e-05
0.00258568
2.21427e-05
0.00257947
1.8815e-05
0.00257418
1.60689e-05
0.00256962
1.3865e-05
0.00256562
1.21473e-05
0.00256204
1.08469e-05
0.00255877
9.88805e-06
0.00255573
9.19338e-06
0.00255284
8.68964e-06
0.00255008
8.31187e-06
0.0025474
8.0065e-06
0.00254482
7.73289e-06
0.00254232
7.46349e-06
0.00253992
7.18273e-06
0.00253761
6.88515e-06
0.00253541
6.57296e-06
0.00253332
6.25351e-06
0.00253133
5.93684e-06
0.00252945
5.63363e-06
0.00252766
5.35356e-06
0.00252596
5.10407e-06
0.00252432
4.88978e-06
0.00252275
4.71222e-06
0.00252122
4.56998e-06
0.00251973
4.45924e-06
0.00251826
4.37445e-06
0.00251682
4.30913e-06
0.00251539
4.25669e-06
0.00251398
4.2111e-06
0.00251258
4.16741e-06
0.00251119
4.12201e-06
0.00250982
4.07264e-06
0.00250847
4.0183e-06
0.00250713
3.95891e-06
0.00250582
3.89501e-06
0.00250453
3.82748e-06
0.00250326
3.75721e-06
0.00250202
3.685e-06
0.00250079
3.61132e-06
0.0024996
3.53622e-06
0.00249842
3.45916e-06
0.00249728
3.37891e-06
0.00249616
3.29355e-06
0.00249506
3.20068e-06
0.002494
3.09786e-06
0.00249298
2.98295e-06
0.002492
2.85407e-06
0.00249106
2.7085e-06
0.00249018
2.54012e-06
0.00248936
2.3357e-06
0.00248863
2.07107e-06
0.00248801
1.70959e-06
0.00248755
1.20548e-06
0.00248731
5.13855e-07
0.00248736
-3.92661e-07
0.00248776
-1.50444e-06
0.00248856
-2.75872e-06
0.00248978
-4.03454e-06
0.00249135
-5.16462e-06
0.00249319
-5.96514e-06
0.00249513
-6.27815e-06
0.00249699
-6.01507e-06
0.00249859
-5.18763e-06
0.00249979
-3.91466e-06
0.0025005
-2.40056e-06
0.00250073
-8.90378e-07
0.00250056
3.85816e-07
0.0025001
1.26283e-06
0.00249953
1.67077e-06
0.00249897
1.63894e-06
0.00249855
1.27493e-06
0.00249831
7.27974e-07
0.00249827
1.48635e-07
0.00249839
-3.43693e-07
0.00249863
-6.78832e-07
0.00249892
-8.37938e-07
0.00249921
-8.43084e-07
0.00249946
-7.40239e-07
0.00249966
-5.81789e-07
0.00249979
-4.13102e-07
0.00249988
-2.65216e-07
0.00249993
-1.53399e-07
0.00249995
-7.98878e-08
0.00249996
-3.85902e-08
0.00249997
-1.98586e-08
0.00249997
-1.41276e-08
0.00249997
-1.39906e-08
0.00249998
-1.48583e-08
0.00249998
-1.46423e-08
0.00249999
-1.29731e-08
0.00249999
-1.03578e-08
0.0025
-7.52544e-09
0.0025
-5.04558e-09
0.0025
-3.19571e-09
0.0025
-1.99315e-09
0.0025
-1.30029e-09
0.0025
-9.32614e-10
0.0025
-7.31778e-10
0.0025
-5.96034e-10
0.0025
-4.77964e-10
0.0025
-3.66328e-10
0.0025
-2.6601e-10
0.0025
-1.83999e-10
0.0025
-1.23048e-10
0.0025
-8.11445e-11
0.0025
-5.36143e-11
0.0025
-3.5519e-11
0.0025
-2.30373e-11
0.0025
-1.38661e-11
0.0025
-6.81696e-12
0.0025
-1.44161e-12
0.0025
2.63729e-12
0.0025
5.41307e-12
0.0025
7.62838e-12
0.0025
8.48611e-12
0.0025
1.0341e-11
9.43506e-12
0.00250272
-1.12582e-05
0.00251094
-3.40204e-05
0.00252515
-5.84029e-05
0.00254602
-8.50647e-05
0.00257437
-0.000114306
0.00261091
-0.000145477
0.00265601
-0.00017709
0.00270902
-0.00020565
0.00276824
-0.000227409
0.00283025
-0.000237501
0.00289081
-0.000233378
0.00294727
-0.000219243
0.00299785
-0.000198059
0.00304161
-0.00017266
0.00307824
-0.000145438
0.00310778
-0.000117727
0.00313036
-9.01602e-05
0.0031461
-6.2782e-05
0.00315499
-3.53201e-05
0.00315689
-7.47706e-06
0.0031516
2.07718e-05
0.00313906
4.89676e-05
0.00311945
7.61206e-05
0.00309338
0.000100875
0.00306185
0.00012181
0.00302621
0.000137788
0.00298795
0.000148209
0.00294856
0.000153104
0.00290937
0.000153057
0.00287139
0.000149002
0.00283537
0.000142005
0.00280177
0.000133072
0.0027708
0.000123041
0.00274257
0.000112534
0.00271705
0.000101976
0.00269415
9.16373e-05
0.00267378
8.1682e-05
0.0026558
7.2215e-05
0.00264007
6.33122e-05
0.00262642
5.50388e-05
0.00261469
4.74551e-05
0.00260468
4.06154e-05
0.00259619
3.45621e-05
0.00258901
2.93194e-05
0.00258294
2.48873e-05
0.00257777
2.12387e-05
0.00257331
1.83204e-05
0.00256941
1.60556e-05
0.0025659
1.43505e-05
0.00256269
1.31017e-05
0.00255968
1.22039e-05
0.00255681
1.15576e-05
0.00255405
1.10749e-05
0.00255137
1.06837e-05
0.00254877
1.03298e-05
0.00254626
9.97677e-06
0.00254384
9.6046e-06
0.00254152
9.20696e-06
0.0025393
8.78782e-06
0.0025372
8.35795e-06
0.0025352
7.93162e-06
0.00253331
7.52374e-06
0.00253152
7.14767e-06
0.00252981
6.81364e-06
0.00252817
6.5279e-06
0.00252659
6.29238e-06
0.00252505
6.10503e-06
0.00252355
5.96044e-06
0.00252208
5.8509e-06
0.00252062
5.76744e-06
0.00251917
5.70099e-06
0.00251774
5.64333e-06
0.00251632
5.58775e-06
0.00251491
5.52941e-06
0.00251352
5.4654e-06
0.00251215
5.39449e-06
0.00251079
5.31671e-06
0.00250945
5.23295e-06
0.00250813
5.14446e-06
0.00250684
5.05255e-06
0.00250556
4.95833e-06
0.00250431
4.86253e-06
0.00250308
4.76527e-06
0.00250188
4.6659e-06
0.00250069
4.56284e-06
0.00249953
4.45358e-06
0.0024984
4.33491e-06
0.00249729
4.20347e-06
0.00249622
4.05621e-06
0.00249518
3.89042e-06
0.00249419
3.70236e-06
0.00249325
3.48414e-06
0.00249236
3.21887e-06
0.00249156
2.87584e-06
0.00249086
2.40827e-06
0.00249031
1.7574e-06
0.00248996
8.6513e-07
0.00248987
-3.04665e-07
0.0024901
-1.74083e-06
0.00249071
-3.36368e-06
0.00249169
-5.0178e-06
0.00249302
-6.48684e-06
0.00249458
-7.53184e-06
0.00249625
-7.94632e-06
0.00249785
-7.61338e-06
0.00249921
-6.54667e-06
0.00250019
-4.90003e-06
0.00250073
-2.9399e-06
0.00250083
-9.86659e-07
0.00250056
6.58227e-07
0.00250004
1.77802e-06
0.00249943
2.28113e-06
0.00249886
2.20664e-06
0.00249844
1.6972e-06
0.00249822
9.50719e-07
0.0024982
1.67206e-07
0.00249835
-4.94626e-07
0.00249861
-9.41613e-07
0.00249892
-1.14932e-06
0.00249923
-1.14837e-06
0.00249949
-1.00171e-06
0.00249969
-7.80985e-07
0.00249983
-5.4826e-07
0.00249991
-3.45901e-07
0.00249995
-1.94519e-07
0.00249996
-9.66834e-08
0.00249997
-4.34418e-08
0.00249997
-2.09874e-08
0.00249997
-1.57748e-08
0.00249997
-1.74405e-08
0.00249998
-1.9703e-08
0.00249998
-1.98662e-08
0.00249999
-1.7656e-08
0.00249999
-1.39838e-08
0.0025
-9.99959e-09
0.0025
-6.55701e-09
0.0025
-4.04689e-09
0.0025
-2.46907e-09
0.0025
-1.60261e-09
0.0025
-1.17025e-09
0.0025
-9.44178e-10
0.0025
-7.85487e-10
0.0025
-6.35683e-10
0.0025
-4.86785e-10
0.0025
-3.50917e-10
0.0025
-2.40346e-10
0.0025
-1.59433e-10
0.0025
-1.04971e-10
0.0025
-6.99299e-11
0.0025
-4.7171e-11
0.0025
-3.14113e-11
0.0025
-1.96417e-11
0.0025
-1.04444e-11
0.0025
-3.35706e-12
0.0025
2.02126e-12
0.0025
5.69201e-12
0.0025
8.55342e-12
0.0025
9.76131e-12
0.0025
1.19713e-11
1.11521e-11
0.0025026
-1.38561e-05
0.00251048
-4.18982e-05
0.00252417
-7.21004e-05
0.00254451
-0.0001054
0.00257251
-0.000142302
0.00260915
-0.000182124
0.00265514
-0.000223078
0.00271002
-0.000260532
0.00277211
-0.0002895
0.00283734
-0.000302722
0.00290053
-0.000296568
0.00295887
-0.00027759
0.00301064
-0.000249823
0.00305501
-0.00021703
0.00309189
-0.00018232
0.00312149
-0.000147324
0.00314409
-0.000112764
0.00315989
-7.85793e-05
0.00316887
-4.43024e-05
0.00317083
-9.43773e-06
0.00316547
2.61287e-05
0.0031526
6.18366e-05
0.00313234
9.63815e-05
0.00310527
0.000127945
0.00307247
0.000154614
0.0030354
0.00017486
0.00299571
0.000187892
0.00295504
0.000193781
0.00291476
0.00019333
0.00287596
0.000187801
0.00283936
0.000178605
0.00280538
0.000167055
0.00277421
0.000154216
0.00274587
0.000140868
0.00272032
0.000127526
0.00269745
0.000114506
0.00267714
0.000101995
0.00265925
9.01096e-05
0.00264362
7.89368e-05
0.0026301
6.85548e-05
0.00261852
5.90395e-05
0.00260867
5.04612e-05
0.00260036
4.2876e-05
0.00259336
3.63164e-05
0.00258747
3.07838e-05
0.00258246
2.62444e-05
0.00257815
2.26295e-05
0.00257437
1.98405e-05
0.00257096
1.77565e-05
0.00256782
1.62441e-05
0.00256485
1.51684e-05
0.00256201
1.44019e-05
0.00255925
1.38326e-05
0.00255657
1.33694e-05
0.00255395
1.29443e-05
0.00255142
1.25125e-05
0.00254897
1.20503e-05
0.00254663
1.15513e-05
0.00254439
1.10222e-05
0.00254227
1.04781e-05
0.00254027
9.93816e-06
0.00253837
9.42225e-06
0.00253657
8.94779e-06
0.00253485
8.52803e-06
0.00253321
8.17086e-06
0.00253162
7.87858e-06
0.00253008
7.64826e-06
0.00252857
7.47266e-06
0.00252708
7.34155e-06
0.0025256
7.2432e-06
0.00252414
7.16582e-06
0.00252268
7.09879e-06
0.00252123
7.03358e-06
0.0025198
6.96414e-06
0.00251838
6.88695e-06
0.00251697
6.80067e-06
0.00251558
6.70562e-06
0.00251421
6.60309e-06
0.00251286
6.49487e-06
0.00251153
6.38275e-06
0.00251022
6.26823e-06
0.00250893
6.15231e-06
0.00250766
6.03525e-06
0.00250641
5.91635e-06
0.00250518
5.79376e-06
0.00250397
5.66437e-06
0.00250278
5.52419e-06
0.00250162
5.36883e-06
0.00250048
5.19423e-06
0.00249937
4.99663e-06
0.0024983
4.7712e-06
0.00249728
4.50831e-06
0.00249631
4.18801e-06
0.00249541
3.77407e-06
0.00249461
3.21119e-06
0.00249394
2.42949e-06
0.00249344
1.35937e-06
0.00249318
-4.32655e-08
0.00249321
-1.76646e-06
0.00249356
-3.7162e-06
0.00249425
-5.70704e-06
0.00249524
-7.47906e-06
0.00249645
-8.74374e-06
0.00249776
-9.25046e-06
0.002499
-8.85623e-06
0.00250003
-7.57622e-06
0.00250073
-5.59629e-06
0.00250103
-3.24007e-06
0.00250094
-8.97743e-07
0.00250053
1.06303e-06
0.00249993
2.37797e-06
0.00249928
2.93617e-06
0.0024987
2.78739e-06
0.00249828
2.10912e-06
0.00249809
1.14728e-06
0.0024981
1.50473e-07
0.00249829
-6.84018e-07
0.00249859
-1.24086e-06
0.00249893
-1.4911e-06
0.00249926
-1.47532e-06
0.00249954
-1.27511e-06
0.00249974
-9.83059e-07
0.00249987
-6.79252e-07
0.00249994
-4.18107e-07
0.00249997
-2.25613e-07
0.00249998
-1.04137e-07
0.00249998
-4.10084e-08
0.00249997
-1.73603e-08
0.00249997
-1.49582e-08
0.00249997
-2.008e-08
0.00249998
-2.46575e-08
0.00249999
-2.55136e-08
0.00249999
-2.26982e-08
0.00249999
-1.77536e-08
0.0025
-1.24109e-08
0.0025
-7.88394e-09
0.0025
-4.68521e-09
0.0025
-2.76738e-09
0.0025
-1.78764e-09
0.0025
-1.34664e-09
0.0025
-1.13309e-09
0.0025
-9.69817e-10
0.0025
-7.93092e-10
0.0025
-6.05396e-10
0.0025
-4.31369e-10
0.0025
-2.9103e-10
0.0025
-1.90663e-10
0.0025
-1.25145e-10
0.0025
-8.4251e-11
0.0025
-5.8119e-11
0.0025
-3.98678e-11
0.0025
-2.58829e-11
0.0025
-1.46939e-11
0.0025
-5.95973e-12
0.0025
6.60455e-13
0.0025
5.17946e-12
0.0025
8.60485e-12
0.0025
1.01716e-11
0.0025
1.25838e-11
1.20347e-11
0.00250244
-1.62918e-05
0.00250984
-4.9304e-05
0.00252284
-8.50994e-05
0.00254241
-0.000124972
0.00256984
-0.00016973
0.00260649
-0.000218774
0.00265351
-0.000270101
0.00271077
-0.000317793
0.0027767
-0.000355426
0.00284621
-0.000372234
0.0029128
-0.000363153
0.00297351
-0.000338303
0.00302669
-0.000303001
0.00307174
-0.000262079
0.00310884
-0.000219426
0.00313845
-0.00017693
0.00316103
-0.000135345
0.00317687
-9.44229e-05
0.00318598
-5.34069e-05
0.00318805
-1.15116e-05
0.00318265
3.1531e-05
0.00316941
7.5073e-05
0.00314835
0.000117446
0.00312002
0.000156274
0.00308559
0.000189044
0.00304669
0.000213755
0.00300519
0.000229399
0.00296286
0.000236105
0.00292123
0.00023496
0.00288141
0.000227624
0.0028441
0.000215913
0.00280968
0.00020148
0.00277826
0.000185636
0.00274982
0.00016931
0.00272425
0.000153094
0.00270142
0.000137335
0.00268119
0.000122229
0.0026634
0.000107894
0.00264792
9.4423e-05
0.00263457
8.19052e-05
0.00262317
7.04335e-05
0.00261354
6.00962e-05
0.00260545
5.09656e-05
0.00259868
4.30845e-05
0.00259301
3.64567e-05
0.00258821
3.10412e-05
0.00258409
2.67532e-05
0.00258046
2.34696e-05
0.00257717
2.10398e-05
0.00257412
1.9298e-05
0.00257121
1.80766e-05
0.00256839
1.72183e-05
0.00256564
1.65856e-05
0.00256294
1.60676e-05
0.0025603
1.55825e-05
0.00255774
1.50777e-05
0.00255526
1.45266e-05
0.00255289
1.39241e-05
0.00255063
1.32807e-05
0.00254849
1.26172e-05
0.00254647
1.19585e-05
0.00254456
1.13301e-05
0.00254276
1.07541e-05
0.00254104
1.02471e-05
0.00253939
9.81852e-06
0.0025378
9.47104e-06
0.00253625
9.20054e-06
0.00253472
8.99755e-06
0.00253321
8.84895e-06
0.00253172
8.73985e-06
0.00253023
8.6554e-06
0.00252874
8.58239e-06
0.00252727
8.51034e-06
0.0025258
8.43201e-06
0.00252434
8.34337e-06
0.0025229
8.24316e-06
0.00252147
8.13209e-06
0.00252007
8.01209e-06
0.00251868
7.88558e-06
0.0025173
7.75494e-06
0.00251595
7.62214e-06
0.00251461
7.48852e-06
0.00251329
7.35454e-06
0.00251199
7.21953e-06
0.0025107
7.08138e-06
0.00250943
6.9365e-06
0.00250817
6.78006e-06
0.00250694
6.6066e-06
0.00250572
6.41086e-06
0.00250453
6.18787e-06
0.00250337
5.93149e-06
0.00250225
5.63052e-06
0.00250117
5.26242e-06
0.00250016
4.78662e-06
0.00249923
4.14116e-06
0.00249841
3.24735e-06
0.00249774
2.02623e-06
0.00249727
4.27033e-07
0.00249705
-1.53792e-06
0.00249709
-3.76306e-06
0.00249742
-6.03797e-06
0.00249801
-8.066e-06
0.00249878
-9.51626e-06
0.00249963
-1.01001e-05
0.00250043
-9.65208e-06
0.00250104
-8.18893e-06
0.00250137
-5.92526e-06
0.00250137
-3.23592e-06
0.00250104
-5.73641e-07
0.00250047
1.63473e-06
0.00249977
3.08288e-06
0.00249906
3.64397e-06
0.00249847
3.37981e-06
0.00249807
2.50259e-06
0.00249791
1.30533e-06
0.00249798
8.41824e-08
0.00249822
-9.26071e-07
0.00249857
-1.58909e-06
0.00249895
-1.87291e-06
0.00249931
-1.83006e-06
0.00249959
-1.56305e-06
0.0024998
-1.18765e-06
0.00249992
-8.03648e-07
0.00249998
-4.78382e-07
0.0025
-2.43154e-07
0.0025
-9.93216e-08
0.00249999
-2.92842e-08
0.00249998
-7.90495e-09
0.00249997
-1.1338e-08
0.00249997
-2.20134e-08
0.00249998
-2.99998e-08
0.00249999
-3.18468e-08
0.00249999
-2.82557e-08
0.0025
-2.17056e-08
0.0025
-1.47148e-08
0.0025
-8.9466e-09
0.0025
-5.03346e-09
0.0025
-2.83331e-09
0.0025
-1.82644e-09
0.0025
-1.4523e-09
0.0025
-1.29923e-09
0.0025
-1.15247e-09
0.0025
-9.52323e-10
0.0025
-7.21952e-10
0.0025
-5.05491e-10
0.0025
-3.33636e-10
0.0025
-2.14626e-10
0.0025
-1.40201e-10
0.0025
-9.57114e-11
0.0025
-6.78868e-11
0.0025
-4.81106e-11
0.0025
-3.23419e-11
0.0025
-1.93149e-11
0.0025
-8.99539e-12
0.0025
-1.20135e-12
0.0025
4.09503e-12
0.0025
7.98218e-12
0.0025
9.88362e-12
0.0025
1.23657e-11
1.22035e-11
0.00250222
-1.85159e-05
0.00250901
-5.60911e-05
0.00252108
-9.71633e-05
0.00253958
-0.000143481
0.00256613
-0.000196278
0.00260258
-0.000255224
0.00265071
-0.00031823
0.00271088
-0.000377964
0.0027818
-0.000426346
0.0028569
-0.000447334
0.00292772
-0.000433976
0.00299126
-0.000401839
0.00304602
-0.00035776
0.00309174
-0.000307796
0.00312898
-0.000256669
0.0031585
-0.000206452
0.00318101
-0.000157856
0.00319692
-0.000110331
0.00320622
-6.27122e-05
0.00320851
-1.37994e-05
0.00320313
3.69156e-05
0.00318949
8.87113e-05
0.00316745
0.000139484
0.00313756
0.00018617
0.00310109
0.000225512
0.00305991
0.000254934
0.00301614
0.000273171
0.00297179
0.000280452
0.00292852
0.000278231
0.00288749
0.000268659
0.00284937
0.000254033
0.00281445
0.000236391
0.00278279
0.000217304
0.00275425
0.000197842
0.00272869
0.000178654
0.00270593
0.000160096
0.00268581
0.000142354
0.00266817
0.000125536
0.00265286
0.000109735
0.00263971
9.50504e-05
0.00262855
8.15927e-05
0.00261918
6.94718e-05
0.00261136
5.87793e-05
0.00260487
4.95713e-05
0.00259948
4.18549e-05
0.00259494
3.5582e-05
0.00259104
3.06497e-05
0.0025876
2.69083e-05
0.00258447
2.41739e-05
0.00258152
2.22447e-05
0.00257868
2.09174e-05
0.00257589
2.00022e-05
0.00257315
1.93343e-05
0.00257043
1.87822e-05
0.00256776
1.82504e-05
0.00256516
1.7679e-05
0.00256265
1.704e-05
0.00256024
1.63309e-05
0.00255796
1.55677e-05
0.00255579
1.4778e-05
0.00255376
1.39939e-05
0.00255184
1.32475e-05
0.00255003
1.2566e-05
0.00254831
1.19697e-05
0.00254666
1.14698e-05
0.00254506
1.10691e-05
0.0025435
1.07619e-05
0.00254196
1.05361e-05
0.00254043
1.0375e-05
0.00253891
1.02603e-05
0.00253739
1.01735e-05
0.00253588
1.00986e-05
0.00253436
1.0023e-05
0.00253286
9.93841e-06
0.00253136
9.84033e-06
0.00252988
9.72776e-06
0.00252841
9.60208e-06
0.00252695
9.46605e-06
0.00252552
9.32288e-06
0.00252409
9.17565e-06
0.00252269
9.02691e-06
0.0025213
8.8784e-06
0.00251992
8.73087e-06
0.00251856
8.58372e-06
0.00251721
8.43471e-06
0.00251586
8.27978e-06
0.00251453
8.11326e-06
0.00251321
7.92858e-06
0.0025119
7.7191e-06
0.00251061
7.47841e-06
0.00250934
7.19894e-06
0.0025081
6.8679e-06
0.00250691
6.46071e-06
0.00250576
5.93369e-06
0.00250468
5.22021e-06
0.00250369
4.23539e-06
0.00250282
2.8936e-06
0.00250211
1.13926e-06
0.00250159
-1.015e-06
0.00250128
-3.45468e-06
0.00250119
-5.95004e-06
0.0025013
-8.17569e-06
0.00250155
-9.76736e-06
0.00250186
-1.04065e-05
0.00250212
-9.91022e-06
0.00250223
-8.29793e-06
0.00250211
-5.80936e-06
0.00250174
-2.86334e-06
0.00250113
3.3995e-08
0.00250036
2.40562e-06
0.00249953
3.91036e-06
0.00249877
4.40994e-06
0.00249817
3.97997e-06
0.0024978
2.86719e-06
0.0024977
1.41062e-06
0.00249783
-4.74527e-08
0.00249814
-1.23608e-06
0.00249855
-1.99942e-06
0.00249898
-2.30449e-06
0.00249937
-2.21836e-06
0.00249967
-1.86745e-06
0.00249988
-1.3935e-06
0.00249999
-9.18135e-07
0.00250004
-5.22563e-07
0.00250004
-2.43169e-07
0.00250002
-7.91327e-08
0.00249999
-6.31341e-09
0.00249998
8.26149e-09
0.00249997
-4.81239e-09
0.00249997
-2.35595e-08
0.00249998
-3.6159e-08
0.00249999
-3.92082e-08
0.00249999
-3.45064e-08
0.0025
-2.58658e-08
0.0025
-1.68427e-08
0.0025
-9.64388e-09
0.0025
-5.00271e-09
0.0025
-2.60983e-09
0.0025
-1.69386e-09
0.0025
-1.48355e-09
0.0025
-1.44841e-09
0.0025
-1.34005e-09
0.0025
-1.11681e-09
0.0025
-8.36338e-10
0.0025
-5.71011e-10
0.0025
-3.6535e-10
0.0025
-2.28997e-10
0.0025
-1.48639e-10
0.0025
-1.03508e-10
0.0025
-7.60688e-11
0.0025
-5.58749e-11
0.0025
-3.87551e-11
0.0025
-2.40076e-11
0.0025
-1.21446e-11
0.0025
-3.25117e-12
0.0025
2.72462e-12
0.0025
6.95034e-12
0.0025
9.12452e-12
0.0025
1.15706e-11
1.18357e-11
0.00250195
-2.04703e-05
0.00250795
-6.20864e-05
0.00251879
-0.000108004
0.00253585
-0.000160542
0.00256108
-0.00022151
0.00259698
-0.000291124
0.00264617
-0.000367411
0.0027098
-0.000441597
0.00278716
-0.000503706
0.00286946
-0.000529634
0.00294544
-0.000509959
0.00301223
-0.00046863
0.00306867
-0.000414202
0.00311497
-0.000354089
0.00315217
-0.00029387
0.00318142
-0.0002357
0.00320372
-0.000180161
0.00321965
-0.000126258
0.00322921
-7.22709e-05
0.00323183
-1.64223e-05
0.00322659
4.21594e-05
0.00321259
0.000102711
0.00318947
0.000162603
0.00315773
0.000217911
0.0031188
0.000264437
0.00307485
0.000298882
0.00302834
0.000319683
0.00298157
0.000327221
0.00293637
0.000323432
0.00289395
0.000311083
0.00285493
0.000293049
0.00281951
0.000271809
0.00278761
0.000249205
0.00275902
0.000226431
0.00273351
0.000204168
0.00271085
0.000182752
0.00269087
0.000162335
0.00267341
0.000143001
0.00265831
0.000124835
0.00264541
0.000107947
0.00263453
9.24679e-05
0.00262547
7.85335e-05
0.00261799
6.62593e-05
0.00261185
5.57176e-05
0.00260678
4.6921e-05
0.00260255
3.98137e-05
0.00259893
3.4273e-05
0.00259572
3.01188e-05
0.00259276
2.71301e-05
0.00258994
2.50647e-05
0.00258718
2.36796e-05
0.00258443
2.27492e-05
0.00258168
2.20796e-05
0.00257895
2.15176e-05
0.00257625
2.09542e-05
0.0025736
2.03232e-05
0.00257104
1.95967e-05
0.0025686
1.87765e-05
0.00256628
1.78861e-05
0.0025641
1.69617e-05
0.00256205
1.6044e-05
0.00256012
1.51727e-05
0.00255831
1.43811e-05
0.00255658
1.36933e-05
0.00255493
1.31225e-05
0.00255333
1.26711e-05
0.00255176
1.23316e-05
0.00255021
1.20885e-05
0.00254866
1.19213e-05
0.00254711
1.18071e-05
0.00254556
1.17237e-05
0.00254401
1.16518e-05
0.00254246
1.15767e-05
0.00254091
1.14888e-05
0.00253936
1.13835e-05
0.00253783
1.12604e-05
0.00253631
1.11217e-05
0.0025348
1.09712e-05
0.00253331
1.08131e-05
0.00253184
1.06515e-05
0.00253038
1.04894e-05
0.00252893
1.03292e-05
0.00252748
1.01719e-05
0.00252605
1.00172e-05
0.00252462
9.86265e-06
0.0025232
9.70385e-06
0.00252178
9.53432e-06
0.00252036
9.34628e-06
0.00251895
9.13157e-06
0.00251754
8.88214e-06
0.00251615
8.58879e-06
0.00251478
8.23718e-06
0.00251344
7.80113e-06
0.00251214
7.23506e-06
0.00251089
6.46976e-06
0.00250971
5.41701e-06
0.00250862
3.98769e-06
0.00250763
2.12382e-06
0.00250678
-1.61033e-07
0.00250607
-2.74589e-06
0.00250551
-5.38759e-06
0.00250507
-7.74108e-06
0.00250473
-9.41957e-06
0.0025044
-1.00847e-05
0.00250404
-9.54343e-06
0.00250356
-7.81961e-06
0.00250292
-5.17438e-06
0.00250212
-2.062e-06
0.00250119
9.69293e-07
0.00250019
3.4035e-06
0.00249923
4.87358e-06
0.0024984
5.23537e-06
0.0024978
4.58047e-06
0.00249748
3.18986e-06
0.00249744
1.44705e-06
0.00249765
-2.61206e-07
0.00249805
-1.62951e-06
0.00249853
-2.48445e-06
0.00249902
-2.79451e-06
0.00249945
-2.64456e-06
0.00249977
-2.18863e-06
0.00249997
-1.59789e-06
0.00250008
-1.01822e-06
0.0025001
-5.45707e-07
0.00250008
-2.2132e-07
0.00250004
-4.0461e-08
0.0025
2.96321e-08
0.00249998
3.16919e-08
0.00249997
4.3987e-09
0.00249997
-2.52822e-08
0.00249998
-4.37087e-08
0.00249999
-4.79944e-08
0.00249999
-4.16226e-08
0.0025
-3.02271e-08
0.0025
-1.86903e-08
0.0025
-9.85067e-09
0.0025
-4.49462e-09
0.0025
-2.04176e-09
0.0025
-1.37204e-09
0.0025
-1.44467e-09
0.0025
-1.59222e-09
0.0025
-1.54217e-09
0.0025
-1.29079e-09
0.0025
-9.48119e-10
0.0025
-6.25073e-10
0.0025
-3.82965e-10
0.0025
-2.31366e-10
0.0025
-1.49088e-10
0.0025
-1.07036e-10
0.0025
-8.24325e-11
0.0025
-6.30046e-11
0.0025
-4.49083e-11
0.0025
-2.84851e-11
0.0025
-1.5087e-11
0.0025
-5.17403e-12
0.0025
1.35301e-12
0.0025
5.77119e-12
0.0025
8.1192e-12
0.0025
1.04465e-11
1.1113e-11
0.00250162
-2.20883e-05
0.00250662
-6.70886e-05
0.00251589
-0.000117276
0.00253102
-0.000175667
0.00255434
-0.000244832
0.00258914
-0.000325928
0.00263913
-0.000417402
0.00270679
-0.000509251
0.00279245
-0.000589362
0.00288399
-0.000621176
0.00296615
-0.000592122
0.00303655
-0.000539033
0.00309462
-0.000472271
0.00314124
-0.000400705
0.00317809
-0.000330727
0.00320681
-0.000264416
0.00322876
-0.000202112
0.00324471
-0.000142204
0.00325466
-8.22256e-05
0.00325784