/*--------------------------------*- C++ -*----------------------------------*\
  =========                 |
  \\      /  F ield         | OpenFOAM: The Open Source CFD Toolbox
   \\    /   O peration     | Website:  https://openfoam.org
    \\  /    A nd           | Version:  11
     \\/     M anipulation  |
\*---------------------------------------------------------------------------*/
FoamFile
{
    format      ascii;
    class       volVectorField;
    location    "15.434017";
    object      U;
}
// * * * * * * * * * * * * * * * * * * * * * * * * * * * * * * * * * * * * * //

dimensions      [0 1 -1 0 0 0 0];

internalField   nonuniform List<vector> 
7132
(
(1.00013 -0.000248338 3.98504e-18)
(1.00191 -0.000722346 1.61518e-17)
(1.0058 -0.00118789 1.66817e-17)
(1.01147 -0.00165291 2.05303e-17)
(1.01901 -0.00212097 2.75486e-17)
(1.02843 -0.00257583 2.90049e-17)
(1.03964 -0.00298374 2.75621e-17)
(1.05235 -0.00327845 2.53966e-17)
(1.06595 -0.00338966 2.2845e-17)
(1.07959 -0.0032619 2.00272e-17)
(1.09215 -0.00287941 1.73016e-17)
(1.10275 -0.00237445 1.50305e-17)
(1.11117 -0.00184369 1.33207e-17)
(1.11753 -0.00135791 1.14462e-17)
(1.12206 -0.000886328 8.79585e-18)
(1.1247 -0.00030836 7.02878e-18)
(1.1247 0.000513014 6.99172e-18)
(1.12084 0.00160212 7.19055e-18)
(1.11215 0.00280329 7.30283e-18)
(1.09861 0.00386071 9.38748e-18)
(1.08134 0.00453656 1.0757e-17)
(1.06228 0.00467539 1.08266e-17)
(1.04381 0.00421157 1.04009e-17)
(1.02839 0.00315518 1.38551e-17)
(1.01834 0.00158905 -4.31985e-18)
(1.0155 -0.000314234 -5.71914e-17)
(1.0208 -0.00225619 1.53135e-16)
(1.03368 -0.00379686 1.16185e-15)
(1.05152 -0.00445377 2.23846e-15)
(1.06981 -0.00393021 2.0685e-15)
(1.08349 -0.00232568 1.07543e-15)
(1.08882 -0.000121009 3.16699e-16)
(1.08465 0.00206738 -6.53796e-18)
(1.07225 0.00375731 -2.29169e-16)
(1.05438 0.00470771 5.0404e-17)
(1.03427 0.00486396 1.72901e-15)
(1.01509 0.00425593 -8.98089e-16)
(0.999808 0.00293392 -2.17228e-14)
(0.991201 0.000977031 -2.90931e-14)
(0.99165 -0.00143269 1.50625e-13)
(1.00251 -0.00390391 7.75319e-13)
(1.02303 -0.00581633 1.79092e-12)
(1.0495 -0.00650831 2.57709e-12)
(1.07575 -0.00562027 2.56023e-12)
(1.09513 -0.00334772 1.84779e-12)
(1.10303 -0.000377632 9.50476e-13)
(1.09836 0.00245424 2.89578e-13)
(1.0833 0.00452584 -9.0958e-15)
(1.06185 0.00558037 -8.38809e-14)
(1.03825 0.00564078 -4.88784e-14)
(1.01628 0.00483584 1.07556e-13)
(0.999105 0.00327813 9.80593e-14)
(0.989596 0.00106323 -1.22222e-12)
(0.990227 -0.00161908 -5.2689e-12)
(1.00239 -0.00434609 -1.26677e-11)
(1.02516 -0.00645082 -2.23356e-11)
(1.0545 -0.00723218 -3.13363e-11)
(1.08373 -0.00630355 -3.63343e-11)
(1.10565 -0.00384587 -3.49485e-11)
(1.11505 -0.000568697 -2.64306e-11)
(1.11045 0.00260635 -1.41027e-11)
(1.09411 0.00493388 -4.24304e-12)
(1.07063 0.00607031 1.22574e-12)
(1.04507 0.00604175 3.82927e-12)
(1.02179 0.00505462 1.98038e-12)
(1.00414 0.00331565 -1.49647e-11)
(0.994781 0.000986083 -6.55027e-11)
(0.995817 -0.00171464 -1.65868e-10)
(1.00821 -0.00437132 -3.16522e-10)
(1.03075 -0.00637216 -4.92752e-10)
(1.05944 -0.00710435 -6.48148e-10)
(1.08809 -0.00624134 -7.33257e-10)
(1.11002 -0.00393331 -7.18941e-10)
(1.12018 -0.000779321 -6.08989e-10)
(1.11671 0.0023959 -4.3673e-10)
(1.1012 0.00484224 -2.51573e-10)
(1.07786 0.00611787 -1.00217e-10)
(1.05193 0.00614997 -8.83256e-12)
(1.02821 0.00512396 2.18051e-11)
(1.01044 0.0033052 5.91355e-12)
(1.00128 0.000942275 -4.14287e-11)
(1.00249 -0.00168132 -1.10162e-10)
(1.01449 -0.00414652 -1.92308e-10)
(1.03566 -0.00591406 -2.77302e-10)
(1.06205 -0.0064974 -3.51104e-10)
(1.08805 -0.00568204 -3.99252e-10)
(1.10797 -0.00363829 -4.1107e-10)
(1.11758 -0.000864879 -3.82655e-10)
(1.1152 0.00198315 -3.18028e-10)
(1.10187 0.00429308 -2.29201e-10)
(1.08085 0.00564554 -1.34846e-10)
(1.05655 0.00587699 -5.32288e-11)
(1.03355 0.00504887 7.10354e-12)
(1.0158 0.00335604 5.04276e-11)
(1.00633 0.00105865 8.77253e-11)
(1.00706 -0.00150359 1.27747e-10)
(1.0183 -0.00387377 1.72831e-10)
(1.03824 -0.00553094 2.20514e-10)
(1.06294 -0.0060542 2.66961e-10)
(1.08715 -0.00529937 3.08917e-10)
(1.10573 -0.00346528 3.43504e-10)
(1.1151 -0.0010121 3.66538e-10)
(1.11388 0.00150552 3.70784e-10)
(1.10296 0.00360057 3.46928e-10)
(1.08489 0.00494315 2.90082e-10)
(1.06318 0.00536912 2.08822e-10)
(1.04169 0.00484864 1.2719e-10)
(1.02415 0.00345475 7.36767e-11)
(1.01385 0.00136384 6.49951e-11)
(1.01316 -0.00110986 9.88171e-11)
(1.02286 -0.0035027 1.59681e-10)
(1.04156 -0.0052806 2.29849e-10)
(1.06565 -0.00600344 2.96321e-10)
(1.09016 -0.00549133 3.52206e-10)
(1.11003 -0.00389422 3.95116e-10)
(1.12152 -0.00162902 4.24795e-10)
(1.12302 0.000774426 4.4041e-10)
(1.11507 0.00284298 4.3786e-10)
(1.09988 0.00427073 4.09854e-10)
(1.08047 0.00492714 3.51325e-10)
(1.06006 0.00479262 2.67858e-10)
(1.0418 0.00388948 1.78779e-10)
(1.02872 0.00227235 1.09022e-10)
(1.02355 8.9431e-05 7.54042e-11)
(1.02815 -0.00234717 7.91812e-11)
(1.04272 -0.00457458 1.0955e-10)
(1.06535 -0.0061004 1.52325e-10)
(1.09221 -0.00657524 1.96332e-10)
(1.11855 -0.005919 2.3523e-10)
(1.13994 -0.00433958 2.66523e-10)
(1.15336 -0.00224945 2.89936e-10)
(1.15776 -0.000129776 3.06031e-10)
(1.15402 0.00160493 3.14946e-10)
(1.14442 0.00270211 3.153e-10)
(1.13186 0.0030961 3.0409e-10)
(1.11915 0.00286882 2.78343e-10)
(1.10852 0.00217789 2.38077e-10)
(1.10148 0.00119672 1.8833e-10)
(1.09887 9.59313e-05 1.38175e-10)
(1.10085 -0.000946687 9.71781e-11)
(1.10681 -0.00174676 7.17853e-11)
(1.11536 -0.00214691 6.37889e-11)
(1.12458 -0.00207167 7.10735e-11)
(1.13248 -0.00156759 8.94274e-11)
(1.1375 -0.000799233 1.14191e-10)
(1.13901 -2.04123e-06 1.41219e-10)
(1.13741 0.000586612 1.6725e-10)
(1.13399 0.000787473 1.89963e-10)
(1.13065 0.000512213 2.07971e-10)
(1.12933 -0.000236361 2.20746e-10)
(1.13201 -0.0013755 2.28462e-10)
(1.13978 -0.00276835 2.31719e-10)
(1.15378 -0.00422616 2.31276e-10)
(1.17314 -0.00554425 2.27843e-10)
(1.19813 -0.00648412 2.22001e-10)
(1.2246 -0.00686245 2.14133e-10)
(1.25366 -0.00653004 2.04726e-10)
(1.27612 -0.00541611 1.9309e-10)
(1.29862 -0.00401192 1.82984e-10)
(1.30632 -0.000697726 1.58855e-10)
(1.00013 -0.000743733 6.24869e-20)
(1.00191 -0.00216409 7.86954e-19)
(1.00577 -0.00356022 1.55881e-18)
(1.01143 -0.00495807 2.40152e-18)
(1.01897 -0.00636919 3.49894e-18)
(1.02844 -0.00774546 4.57589e-18)
(1.03974 -0.00898539 5.17101e-18)
(1.05263 -0.00988557 6.77523e-18)
(1.06647 -0.0102298 4.70298e-18)
(1.08038 -0.00984138 2.80035e-18)
(1.09315 -0.00866878 3.74878e-18)
(1.10384 -0.0071295 6.25104e-18)
(1.11225 -0.00552511 4.83311e-18)
(1.11856 -0.00408211 -5.04e-19)
(1.12313 -0.00270752 -6.1626e-18)
(1.12592 -0.0010249 -7.19486e-18)
(1.12616 0.00140574 -4.0734e-18)
(1.12249 0.00467705 1.76122e-19)
(1.11378 0.00831768 3.55949e-18)
(1.1 0.0115435 6.03738e-18)
(1.0823 0.0136263 7.48831e-18)
(1.06269 0.0140903 5.38142e-18)
(1.04362 0.0127321 1.15258e-17)
(1.02764 0.00957538 4.87112e-17)
(1.01714 0.00485904 -1.55297e-16)
(1.01407 -0.000909122 -9.17272e-16)
(1.01951 -0.00683424 3.66771e-15)
(1.033 -0.0115711 2.57081e-14)
(1.05185 -0.0136235 5.11043e-14)
(1.07127 -0.0120588 4.80617e-14)
(1.08581 -0.0071724 2.37871e-14)
(1.09149 -0.000443996 5.84075e-15)
(1.08713 0.00623187 -6.8036e-16)
(1.07417 0.0113814 -2.1562e-15)
(1.05558 0.0142803 3.63504e-15)
(1.03471 0.0147775 1.80048e-14)
(1.01477 0.0129717 -2.86844e-14)
(0.998775 0.00900971 -2.85419e-13)
(0.98956 0.00310796 -3.43905e-13)
(0.989695 -0.00421349 2.53341e-12)
(1.00078 -0.0117808 1.35208e-11)
(1.02221 -0.0176859 3.26188e-11)
(1.05011 -0.0198695 4.76798e-11)
(1.07784 -0.0172019 4.58974e-11)
(1.09827 -0.0102781 3.0131e-11)
(1.10647 -0.00121396 1.34314e-11)
(1.10142 0.00742349 3.39381e-12)
(1.08554 0.0137316 -4.97748e-13)
(1.06313 0.0169398 -1.10008e-12)
(1.03862 0.0171388 -1.29693e-13)
(1.01581 0.0147339 2.05583e-12)
(0.997873 0.0100617 1.75338e-12)
(0.987714 0.00338267 -1.65248e-11)
(0.987969 -0.00476616 -8.24003e-11)
(1.00026 -0.0131156 -2.2234e-10)
(1.02384 -0.0196107 -4.16516e-10)
(1.05456 -0.0220694 -5.78589e-10)
(1.08541 -0.0192816 -6.15324e-10)
(1.10862 -0.0117999 -5.11123e-10)
(1.11859 -0.00180473 -3.31748e-10)
(1.11374 0.00788252 -1.60143e-10)
(1.09656 0.0149799 -4.67977e-11)
(1.07199 0.0184425 5.58883e-12)
(1.04538 0.0183682 2.01811e-11)
(1.02118 0.0154065 1.20177e-11)
(1.00272 0.0101898 -3.58911e-11)
(0.992641 0.003183 -1.72177e-10)
(0.993138 -0.00498832 -4.47595e-10)
(1.00539 -0.0130881 -8.67428e-10)
(1.02836 -0.0192502 -1.35645e-09)
(1.05801 -0.0215812 -1.7724e-09)
(1.08789 -0.0190539 -1.9692e-09)
(1.11098 -0.012104 -1.87305e-09)
(1.12193 -0.002546 -1.52223e-09)
(1.1187 0.00711313 -1.04074e-09)
(1.10292 0.0145836 -5.70294e-10)
(1.07894 0.0185099 -2.15296e-10)
(1.05218 0.0186655 -1.42389e-11)
(1.0276 0.0156157 5.08532e-11)
(1.00901 0.0101629 2.03382e-11)
(0.999184 0.00304174 -7.24581e-11)
(1.00004 -0.00491419 -2.07463e-10)
(1.0122 -0.0124391 -3.66638e-10)
(1.03405 -0.0178735 -5.24587e-10)
(1.06144 -0.0197097 -6.51156e-10)
(1.08842 -0.0172824 -7.20389e-10)
(1.109 -0.0111156 -7.17667e-10)
(1.11887 -0.00273192 -6.43472e-10)
(1.11639 0.00588495 -5.13635e-10)
(1.10274 0.0128867 -3.55315e-10)
(1.08126 0.0170103 -2.00802e-10)
(1.05643 0.0177621 -7.61128e-11)
(1.03286 0.0153193 9.81342e-12)
(1.01456 0.010251 6.62073e-11)
(1.00472 0.00331729 1.10568e-10)
(1.00546 -0.00447106 1.56597e-10)
(1.01725 -0.011716 2.08855e-10)
(1.03822 -0.0167981 2.64722e-10)
(1.06409 -0.0184056 3.18693e-10)
(1.08923 -0.0160972 3.6553e-10)
(1.10825 -0.0105024 4.01233e-10)
(1.11747 -0.00304733 4.21681e-10)
(1.11568 0.00457649 4.20376e-10)
(1.104 0.0109007 3.88863e-10)
(1.08517 0.0149433 3.22934e-10)
(1.06283 0.0162251 2.32077e-10)
(1.04085 0.0146615 1.42057e-10)
(1.023 0.0104611 8.38557e-11)
(1.01267 0.00413293 7.64791e-11)
(1.01237 -0.00339031 1.18454e-10)
(1.02296 -0.0106933 1.92992e-10)
(1.04294 -0.0161204 2.79174e-10)
(1.0684 -0.0183046 3.60103e-10)
(1.09398 -0.0166971 4.2552e-10)
(1.11435 -0.0117795 4.71065e-10)
(1.12568 -0.00485085 4.96325e-10)
(1.12646 0.00246431 5.02026e-10)
(1.11746 0.00873107 4.86625e-10)
(1.10112 0.01303 4.45377e-10)
(1.08068 0.0149803 3.75065e-10)
(1.05947 0.0145376 2.82365e-10)
(1.04072 0.0117753 1.8722e-10)
(1.02752 0.00685125 1.14865e-10)
(1.02269 0.000200554 8.1981e-11)
(1.02815 -0.00723362 8.9107e-11)
(1.04404 -0.0140247 1.24226e-10)
(1.06821 -0.0186481 1.71802e-10)
(1.09646 -0.0200306 2.19598e-10)
(1.12372 -0.0179452 2.60692e-10)
(1.14539 -0.0130564 2.92433e-10)
(1.15844 -0.00664717 3.14674e-10)
(1.16196 -0.000188493 3.28303e-10)
(1.15704 0.00507043 3.33941e-10)
(1.14618 0.00837443 3.30738e-10)
(1.13247 0.00953306 3.16115e-10)
(1.11884 0.0088004 2.87371e-10)
(1.10761 0.00665543 2.44733e-10)
(1.10037 0.00362149 1.93445e-10)
(1.09803 0.000214361 1.42732e-10)
(1.10073 -0.00302045 1.02118e-10)
(1.10781 -0.00550551 7.77566e-11)
(1.11768 -0.00674126 7.09769e-11)
(1.12815 -0.00648604 7.92254e-11)
(1.13695 -0.00488575 9.80438e-11)
(1.14236 -0.00245933 1.22761e-10)
(1.14371 5.60204e-05 1.49388e-10)
(1.14147 0.00192471 1.74858e-10)
(1.1371 0.00259715 1.97002e-10)
(1.13266 0.00180622 2.14503e-10)
(1.13023 -0.000434691 2.26847e-10)
(1.13189 -0.00387085 2.34179e-10)
(1.13881 -0.00808597 2.37047e-10)
(1.15216 -0.0125121 2.36138e-10)
(1.17113 -0.0165306 2.32107e-10)
(1.19602 -0.0194229 2.25543e-10)
(1.22266 -0.0206247 2.16939e-10)
(1.25211 -0.0196841 2.06981e-10)
(1.27505 -0.0163645 1.95202e-10)
(1.29803 -0.0121763 1.85317e-10)
(1.30606 -0.00218044 1.6246e-10)
(1.00013 -0.00123558 2.03214e-22)
(1.00189 -0.00359536 1.1934e-20)
(1.00572 -0.0059197 1.20956e-20)
(1.01133 -0.00825742 2.27008e-20)
(1.01887 -0.0106323 -7.15392e-20)
(1.02841 -0.0129671 -1.77277e-19)
(1.03992 -0.015092 2.04474e-19)
(1.05316 -0.0166524 -1.07097e-18)
(1.0675 -0.0172689 -3.52228e-18)
(1.082 -0.0166092 1.84991e-18)
(1.09521 -0.0145698 1.18573e-17)
(1.10608 -0.0119154 5.03776e-18)
(1.11448 -0.009182 -3.32047e-17)
(1.12069 -0.00678711 -8.57899e-17)
(1.12529 -0.0045661 -1.09109e-16)
(1.12838 -0.00183352 -8.05404e-17)
(1.1291 0.00222453 -3.42416e-17)
(1.12578 0.00779866 -1.75241e-18)
(1.11701 0.0140558 1.24905e-17)
(1.10267 0.0196099 1.65185e-17)
(1.08402 0.0231966 1.08623e-17)
(1.06326 0.0240137 -2.21295e-18)
(1.04301 0.0217315 5.99579e-17)
(1.02596 0.0163919 1.14876e-18)
(1.01464 0.00837748 -8.76921e-16)
(1.01123 -0.00149212 1.26964e-15)
(1.01709 -0.0117208 9.06538e-15)
(1.03195 -0.019977 -7.13388e-15)
(1.05295 -0.0236037 -2.15465e-14)
(1.07468 -0.020916 1.26709e-14)
(1.09088 -0.012425 3.1713e-14)
(1.09705 -0.000759787 1.67213e-14)
(1.09204 0.0107404 -8.81433e-16)
(1.07773 0.0195337 -7.38132e-15)
(1.05753 0.0244364 2.87022e-14)
(1.03507 0.0252622 8.01998e-14)
(1.01366 0.022219 -2.49758e-13)
(0.996346 0.0155399 -1.4354e-12)
(0.986103 0.00552265 -6.89647e-13)
(0.985848 -0.00703442 1.45046e-11)
(0.997673 -0.0201547 6.13531e-11)
(1.02121 -0.030485 1.34536e-10)
(1.05219 -0.034344 1.93269e-10)
(1.08299 -0.0297071 1.93056e-10)
(1.10535 -0.0176459 1.34602e-10)
(1.11382 -0.00192693 6.44158e-11)
(1.10755 0.0129366 1.86646e-11)
(1.08966 0.0236704 -1.25699e-12)
(1.06509 0.029036 -5.25476e-12)
(1.03867 0.0292953 -2.6795e-13)
(1.01425 0.0252042 1.06587e-11)
(0.994944 0.0173244 5.00029e-12)
(0.983637 0.00602244 -1.00874e-10)
(0.983144 -0.00788169 -4.57856e-10)
(0.995464 -0.0222726 -1.17648e-09)
(1.02023 -0.0336067 -2.13071e-09)
(1.05339 -0.0380337 -2.91146e-09)
(1.08737 -0.0333411 -3.08954e-09)
(1.11339 -0.0204236 -2.57324e-09)
(1.12482 -0.0031043 -1.67423e-09)
(1.11969 0.013639 -8.17386e-10)
(1.10085 0.0258119 -2.49052e-10)
(1.07404 0.0316519 1.45111e-11)
(1.04528 0.0314346 8.25796e-11)
(1.0193 0.0263771 4.828e-11)
(0.999347 0.0175876 -9.56106e-11)
(0.988017 0.00578652 -4.44587e-10)
(0.987724 -0.00808 -1.0851e-09)
(1.00008 -0.0219763 -1.98021e-09)
(1.02428 -0.0326885 -2.94408e-09)
(1.05604 -0.0368867 -3.72393e-09)
(1.08826 -0.0327319 -4.09618e-09)
(1.11323 -0.0209379 -3.93103e-09)
(1.12521 -0.00461639 -3.25522e-09)
(1.12204 0.0119187 -2.27254e-09)
(1.10547 0.0247256 -1.27357e-09)
(1.08013 0.0314792 -4.9925e-10)
(1.05179 0.0318087 -5.04362e-11)
(1.02564 0.0267013 1.03237e-10)
(1.00568 0.0175129 4.89304e-11)
(0.99493 0.00543225 -1.33965e-10)
(0.995672 -0.00818104 -3.87821e-10)
(1.00881 -0.0211495 -6.59907e-10)
(1.03261 -0.0305405 -8.97587e-10)
(1.0623 -0.0336886 -1.0627e-09)
(1.09116 -0.0294632 -1.13864e-09)
(1.11266 -0.0188518 -1.12032e-09)
(1.12239 -0.00454406 -1.00682e-09)
(1.11903 0.0100599 -8.10111e-10)
(1.10413 0.0218642 -5.64766e-10)
(1.08135 0.0287968 -3.21167e-10)
(1.05532 0.0300701 -1.2357e-10)
(1.03069 0.0259788 1.04682e-11)
(1.01158 0.0174232 9.29531e-11)
(1.00148 0.00561108 1.50527e-10)
(1.00284 -0.00776457 2.06338e-10)
(1.01629 -0.0202492 2.71019e-10)
(1.03964 -0.0289558 3.42902e-10)
(1.06794 -0.0315707 4.12565e-10)
(1.0948 -0.0273768 4.69061e-10)
(1.11434 -0.0175708 5.05162e-10)
(1.12287 -0.00471328 5.17825e-10)
(1.11951 0.00825404 5.03929e-10)
(1.10587 0.0188608 4.57694e-10)
(1.0852 0.0255247 3.76091e-10)
(1.0614 0.0275235 2.69672e-10)
(1.03843 0.0247538 1.66795e-10)
(1.02016 0.0175388 1.02301e-10)
(1.01012 0.00668194 9.81477e-11)
(1.01102 -0.00624976 1.5275e-10)
(1.02374 -0.0187849 2.45994e-10)
(1.0464 -0.0280049 3.52272e-10)
(1.07445 -0.0315304 4.50668e-10)
(1.10187 -0.0284658 5.28289e-10)
(1.12293 -0.0197362 5.7913e-10)
(1.13369 -0.00766747 6.01805e-10)
(1.13285 0.00490217 5.97124e-10)
(1.12159 0.0155187 5.65312e-10)
(1.10287 0.0226584 5.04621e-10)
(1.08031 0.0257439 4.15109e-10)
(1.05754 0.0247625 3.0642e-10)
(1.03791 0.019861 2.00762e-10)
(1.02467 0.0112915 1.2435e-10)
(1.02078 -0.000217234 9.30812e-11)
(1.02821 -0.0130197 1.05245e-10)
(1.04681 -0.0246041 1.4619e-10)
(1.07385 -0.032314 1.98488e-10)
(1.10448 -0.0343397 2.49181e-10)
(1.13314 -0.0303835 2.91534e-10)
(1.155 -0.0216873 3.23398e-10)
(1.16713 -0.0105197 3.44941e-10)
(1.16887 0.000580026 3.57005e-10)
(1.16168 0.00949678 3.60077e-10)
(1.14844 0.0149834 3.53373e-10)
(1.13258 0.0167606 3.34572e-10)
(1.11729 0.0152934 3.01427e-10)
(1.10506 0.0114068 2.54869e-10)
(1.09765 0.00598629 2.00989e-10)
(1.09604 -8.43434e-05 1.49639e-10)
(1.10041 -0.00583687 1.10347e-10)
(1.10982 -0.0102192 8.85558e-11)
(1.12227 -0.0123178 8.45177e-11)
(1.13501 -0.0117037 9.47417e-11)
(1.14527 -0.00866667 1.1432e-10)
(1.15111 -0.00417014 1.3866e-10)
(1.15183 0.000449724 1.64175e-10)
(1.14815 0.0038889 1.88263e-10)
(1.14181 0.0051981 2.09085e-10)
(1.13519 0.0039377 2.25466e-10)
(1.13064 0.000157977 2.36868e-10)
(1.13039 -0.00568465 2.43304e-10)
(1.13577 -0.0128727 2.45132e-10)
(1.14803 -0.0204489 2.42844e-10)
(1.16644 -0.0273727 2.37013e-10)
(1.19137 -0.0324248 2.28408e-10)
(1.21861 -0.0346298 2.17981e-10)
(1.24903 -0.0331805 2.06964e-10)
(1.27301 -0.0276694 1.95322e-10)
(1.29696 -0.0206127 1.86419e-10)
(1.30537 -0.00373228 1.66959e-10)
(1.00013 -0.00172111 -6.68512e-20)
(1.00185 -0.00500728 -8.80794e-19)
(1.00562 -0.00825512 -1.71395e-18)
(1.01117 -0.0115433 -2.66279e-18)
(1.0187 -0.0149161 -4.76959e-18)
(1.02833 -0.0182724 -4.48054e-18)
(1.04013 -0.0213742 -6.62168e-18)
(1.05392 -0.0236917 -1.86931e-17)
(1.06904 -0.0246534 -3.99983e-18)
(1.08446 -0.0237055 4.99688e-17)
(1.09837 -0.0206636 4.15857e-18)
(1.10951 -0.0167537 -2.08072e-16)
(1.11783 -0.0128034 -3.59355e-16)
(1.12386 -0.00949288 -1.99612e-16)
(1.12851 -0.0065731 1.75965e-16)
(1.13208 -0.00295694 4.48758e-16)
(1.13358 0.00268826 4.79024e-16)
(1.13083 0.0107228 3.47946e-16)
(1.12195 0.0198784 1.92629e-16)
(1.10672 0.0280408 7.97476e-17)
(1.08658 0.0333286 -2.56277e-17)
(1.06404 0.0345921 1.4251e-16)
(1.04197 0.0313821 7.57203e-17)
(1.02328 0.0237588 -4.86825e-15)
(1.01072 0.0122241 1.0303e-14)
(1.00677 -0.00212626 9.90241e-14)
(1.01325 -0.0171883 -3.35345e-13)
(1.03023 -0.0295072 -2.58362e-12)
(1.05463 -0.0350047 -5.22126e-12)
(1.08003 -0.0310313 -4.92136e-12)
(1.09884 -0.0183466 -2.39266e-12)
(1.10572 -0.00100557 -5.42412e-13)
(1.09959 0.0159056 2.95852e-14)
(1.08306 0.0286408 8.21196e-14)
(1.0603 0.0356081 1.48711e-13)
(1.03539 0.0367061 3.47194e-15)
(1.01177 0.0323309 -1.13452e-12)
(0.99248 0.0227904 -1.22511e-12)
(0.980691 0.00836425 6.70817e-12)
(0.979804 -0.00998549 1.56012e-11)
(0.992593 -0.0294516 -3.0069e-11)
(1.01911 -0.0449548 -1.64488e-10)
(1.05477 -0.0507817 -2.7476e-10)
(1.09052 -0.0437857 -2.31495e-10)
(1.11622 -0.025674 -9.53526e-11)
(1.12526 -0.00228913 2.40019e-12)
(1.11704 0.0195224 2.79383e-11)
(1.09582 0.034965 1.24951e-11)
(1.06778 0.0424305 -2.40837e-12)
(1.03839 0.0425531 6.21456e-12)
(1.01159 0.0365907 3.28713e-11)
(0.990229 0.0253686 -1.73179e-11)
(0.976979 0.00929258 -4.12891e-10)
(0.97481 -0.0106638 -1.52224e-09)
(0.986425 -0.0316483 -3.46546e-09)
(1.01231 -0.0485789 -5.79959e-09)
(1.04863 -0.0556599 -7.65322e-09)
(1.08705 -0.0492975 -8.19579e-09)
(1.11741 -0.0305153 -7.129e-09)
(1.13167 -0.00492905 -4.94746e-09)
(1.127 0.0198843 -2.62452e-09)
(1.10642 0.0378037 -9.215e-10)
(1.07666 0.0462186 -4.45691e-11)
(1.04481 0.0457324 2.18967e-10)
(1.01613 0.0383699 1.36779e-10)
(0.99394 0.0258304 -2.1595e-10)
(0.980839 0.00900342 -9.28203e-10)
(0.979741 -0.0110055 -2.03253e-09)
(0.992941 -0.0313585 -3.34468e-09)
(1.01975 -0.0472423 -4.55768e-09)
(1.05506 -0.0535896 -5.4469e-09)
(1.09053 -0.0476551 -5.90625e-09)
(1.11755 -0.0305662 -5.82996e-09)
(1.13014 -0.00692727 -5.11107e-09)
(1.12637 0.0170027 -3.82505e-09)
(1.10832 0.0355402 -2.31482e-09)
(1.08101 0.0453427 -1.00808e-09)
(1.05049 0.0459024 -1.76368e-10)
(1.02224 0.0386615 1.47256e-10)
(1.00054 0.0255187 8.22269e-11)
(0.98885 0.00805499 -2.15602e-10)
(0.990063 -0.0118432 -6.04477e-10)
(1.00534 -0.0309046 -9.63571e-10)
(1.0325 -0.0446285 -1.21278e-09)
(1.06569 -0.0489975 -1.33633e-09)
(1.09709 -0.0424631 -1.36754e-09)
(1.1195 -0.0267202 -1.33772e-09)
(1.12849 -0.00590011 -1.24055e-09)
(1.12323 0.0150292 -1.05154e-09)
(1.10599 0.0317282 -7.76786e-10)
(1.08096 0.0414108 -4.68515e-10)
(1.05303 0.0430876 -1.95546e-10)
(1.02693 0.0371827 -1.14423e-14)
(1.00694 0.0248556 1.20801e-10)
(0.996913 0.0076924 1.99705e-10)
(0.999728 -0.0118732 2.72681e-10)
(1.01597 -0.0301126 3.59908e-10)
(1.04281 -0.0426266 4.60334e-10)
(1.07433 -0.0459933 5.57247e-10)
(1.10327 -0.0393027 6.29875e-10)
(1.12329 -0.0245313 6.64741e-10)
(1.13065 -0.0056129 6.60112e-10)
(1.12489 0.0130897 6.20245e-10)
(1.10831 0.0280569 5.46812e-10)
(1.08482 0.0371771 4.40683e-10)
(1.05878 0.0396015 3.13787e-10)
(1.03439 0.035274 1.96364e-10)
(1.01563 0.0246179 1.26207e-10)
(1.00629 0.00870404 1.26726e-10)
(1.00923 -0.0101976 1.94161e-10)
(1.02511 -0.0283784 3.03601e-10)
(1.05136 -0.0414774 4.25058e-10)
(1.08258 -0.0460495 5.35641e-10)
(1.11206 -0.0409409 6.22434e-10)
(1.1337 -0.0276826 6.79514e-10)
(1.14355 -0.00979675 7.04295e-10)
(1.14054 0.00852563 6.95503e-10)
(1.12632 0.0237256 6.52221e-10)
(1.1044 0.0336673 5.7381e-10)
(1.07898 0.0376381 4.63696e-10)
(1.05406 0.0357324 3.36189e-10)
(1.03329 0.0282073 2.17744e-10)
(1.02015 0.0154174 1.36439e-10)
(1.01779 -0.00156339 1.06787e-10)
(1.02806 -0.0202434 1.23621e-10)
(1.05025 -0.036846 1.68962e-10)
(1.08077 -0.04749 2.2363e-10)
(1.11397 -0.0496833 2.74559e-10)
(1.14383 -0.0432093 3.15865e-10)
(1.16549 -0.0300487 3.46486e-10)
(1.1762 -0.013572 3.67333e-10)
(1.17564 0.00254566 3.79285e-10)
(1.16564 0.0152898 3.82192e-10)
(1.14949 0.0229216 3.74418e-10)
(1.13102 0.025104 3.53117e-10)
(1.11374 0.022554 3.1626e-10)
(1.10044 0.0164716 2.65841e-10)
(1.09309 0.00812939 2.09476e-10)
(1.09287 -0.00116526 1.58153e-10)
(1.09983 -0.00990953 1.21431e-10)
(1.11262 -0.0164385 1.03663e-10)
(1.12848 -0.0193321 1.03526e-10)
(1.1439 -0.0179831 1.16257e-10)
(1.15557 -0.0129311 1.36418e-10)
(1.16135 -0.00573399 1.59631e-10)
(1.1607 0.00154057 1.8298e-10)
(1.15467 0.00693793 2.046e-10)
(1.14542 0.00908337 2.23174e-10)
(1.13572 0.00738546 2.37729e-10)
(1.12822 0.0019741 2.47623e-10)
(1.12538 -0.00645451 2.52543e-10)
(1.12867 -0.0168654 2.52402e-10)
(1.13955 -0.0279071 2.47364e-10)
(1.15747 -0.0381047 2.38126e-10)
(1.18282 -0.0456795 2.26199e-10)
(1.21122 -0.0491798 2.13593e-10)
(1.24321 -0.0473406 2.02296e-10)
(1.26869 -0.0396207 1.92427e-10)
(1.29394 -0.0294712 1.86273e-10)
(1.30275 -0.00538269 1.72545e-10)
(1.00013 -0.00219632 -4.63728e-18)
(1.0018 -0.00638819 -1.431e-17)
(1.00547 -0.0105501 -1.2399e-17)
(1.01091 -0.0148014 -1.66792e-17)
(1.01839 -0.0192187 -1.82157e-17)
(1.02812 -0.0236865 -1.34488e-17)
(1.04029 -0.0279011 -4.93407e-17)
(1.05482 -0.0311236 -3.5209e-18)
(1.07104 -0.0325486 1.24609e-16)
(1.08779 -0.0312882 -1.78165e-17)
(1.10269 -0.0270291 -5.57362e-16)
(1.11416 -0.0216401 -7.96357e-16)
(1.12231 -0.0163172 8.59034e-16)
(1.12798 -0.0121114 5.22166e-15)
(1.13262 -0.008674 9.80967e-15)
(1.13688 -0.00437553 1.04807e-14)
(1.13957 0.00284842 7.54251e-15)
(1.13773 0.0136268 3.97835e-15)
(1.12878 0.0261293 1.39219e-15)
(1.11232 0.0373059 -6.99791e-17)
(1.09011 0.0445358 -5.25438e-16)
(1.06511 0.0463134 1.61354e-15)
(1.04053 0.0421093 -6.23714e-15)
(1.01955 0.0320213 -2.71227e-14)
(1.00519 0.0166361 1.46096e-13)
(1.00038 -0.00275127 3.04077e-13)
(1.00762 -0.0234462 -2.2598e-12)
(1.02754 -0.0406726 -9.41942e-12)
(1.05681 -0.0485215 -1.77321e-11)
(1.08752 -0.0430321 -1.99931e-11)
(1.11008 -0.0252552 -1.29943e-11)
(1.1179 -0.00111044 -4.48189e-12)
(1.11007 0.0220865 -3.52281e-13)
(1.09031 0.0391807 6.59913e-13)
(1.06395 0.0482661 3.99353e-13)
(1.03568 0.0495255 -1.4206e-12)
(1.00906 0.0436736 -5.56851e-13)
(0.987107 0.0310792 1.94873e-11)
(0.973105 0.0118691 2.68493e-11)
(0.970808 -0.0129684 -2.27362e-10)
(0.983576 -0.0397945 -1.18393e-09)
(1.01234 -0.0615767 -2.82521e-09)
(1.05317 -0.07007 -4.17386e-09)
(1.09607 -0.0604473 -4.13572e-09)
(1.12806 -0.0350036 -2.79816e-09)
(1.13968 -0.00230799 -1.2453e-09)
(1.12974 0.0276791 -2.80157e-10)
(1.10417 0.0483015 5.29529e-11)
(1.07127 0.0577436 7.47449e-11)
(1.03778 0.0573822 6.10217e-11)
(1.00777 0.049279 6.82731e-11)
(0.983531 0.034629 -1.62141e-10)
(0.967284 0.0137425 -1.18848e-09)
(0.962477 -0.0125881 -3.46467e-09)
(0.973267 -0.0410156 -6.7363e-09)
(1.00124 -0.0647185 -1.00765e-08)
(1.04206 -0.0754217 -1.25583e-08)
(1.08579 -0.0677409 -1.35402e-08)
(1.1208 -0.042717 -1.25467e-08)
(1.13811 -0.00786753 -9.62398e-09)
(1.13427 0.026283 -5.78134e-09)
(1.1122 0.0509804 -2.43168e-09)
(1.07932 0.0624487 -3.96346e-10)
(1.04381 0.0616858 3.67996e-10)
(1.01171 0.0518043 2.78751e-10)
(0.986592 0.0352356 -3.95427e-10)
(0.971489 0.0128942 -1.57303e-09)
(0.970201 -0.0141201 -3.07036e-09)
(0.985695 -0.0419763 -4.49609e-09)
(1.01679 -0.0637595 -5.5131e-09)
(1.05688 -0.0722929 -6.09125e-09)
(1.09605 -0.0639785 -6.40903e-09)
(1.12478 -0.0407272 -6.51489e-09)
(1.13706 -0.00900212 -6.16039e-09)
(1.13156 0.0228448 -5.08267e-09)
(1.11107 0.0474086 -3.42164e-09)
(1.08108 0.0603884 -1.6993e-09)
(1.04793 0.06118 -4.40173e-10)
(1.01728 0.0516691 1.30452e-10)
(0.993738 0.0342079 9.61125e-11)
(0.981466 0.0106766 -3.00873e-10)
(0.984024 -0.0164175 -7.93151e-10)
(1.00258 -0.0423643 -1.17284e-09)
(1.03402 -0.0607248 -1.34902e-09)
(1.0712 -0.0659995 -1.35507e-09)
(1.10523 -0.0563694 -1.29244e-09)
(1.12835 -0.034538 -1.24368e-09)
(1.13614 -0.00639295 -1.20828e-09)
(1.12828 0.0213222 -1.115e-09)
(1.10784 0.0429996 -9.05627e-10)
(1.07977 0.055267 -5.9987e-10)
(1.04937 0.0570778 -2.80849e-10)
(1.02151 0.0490194 -2.6435e-11)
(1.00074 0.0324294 1.41411e-10)
(0.991328 0.00922263 2.53731e-10)
(0.996429 -0.0172839 3.57318e-10)
(1.01628 -0.0417871 4.79471e-10)
(1.04708 -0.0581444 6.16844e-10)
(1.08187 -0.0618154 7.45792e-10)
(1.11268 -0.0518606 8.38273e-10)
(1.13289 -0.0312506 8.74284e-10)
(1.13881 -0.0054987 8.49448e-10)
(1.13032 0.0194361 7.73225e-10)
(1.11033 0.0388961 6.58175e-10)
(1.08349 0.0502811 5.14764e-10)
(1.05473 0.0527319 3.59925e-10)
(1.02863 0.0463227 2.26051e-10)
(1.00947 0.0315868 1.51712e-10)
(1.00128 0.00988736 1.58564e-10)
(1.00694 -0.0156526 2.37993e-10)
(1.0266 -0.039849 3.59465e-10)
(1.05672 -0.0567497 4.89732e-10)
(1.09096 -0.061889 6.05946e-10)
(1.12208 -0.0540279 6.97109e-10)
(1.14389 -0.0354777 7.58891e-10)
(1.15255 -0.0110786 7.8825e-10)
(1.14721 0.0135282 7.81115e-10)
(1.12988 0.0335917 7.33064e-10)
(1.10456 0.0463244 6.41952e-10)
(1.07601 0.050907 5.13441e-10)
(1.04873 0.0475998 3.673e-10)
(1.02678 0.0368115 2.35799e-10)
(1.01399 0.0190429 1.49689e-10)
(1.01367 -0.00416369 1.21797e-10)
(1.02733 -0.0292455 1.42914e-10)
(1.05342 -0.050961 1.91593e-10)
(1.08726 -0.0641779 2.47168e-10)
(1.12246 -0.0658783 2.96744e-10)
(1.15276 -0.0561479 3.35392e-10)
(1.17351 -0.0378698 3.6321e-10)
(1.18232 -0.0155884 3.82148e-10)
(1.17921 0.00586682 3.93631e-10)
(1.16635 0.0225708 3.97137e-10)
(1.14734 0.0322867 3.89833e-10)
(1.12636 0.034628 3.6766e-10)
(1.10727 0.0305782 3.28321e-10)
(1.0932 0.0217264 2.74946e-10)
(1.0865 0.00976929 2.17096e-10)
(1.08848 -0.00345194 1.67168e-10)
(1.09897 -0.0157112 1.3461e-10)
(1.11584 -0.0245446 1.22269e-10)
(1.13533 -0.0279549 1.26907e-10)
(1.15307 -0.0252439 1.42383e-10)
(1.16536 -0.0173886 1.62801e-10)
(1.17007 -0.00673243 1.84136e-10)
(1.16703 0.00379527 2.04308e-10)
(1.15774 0.0115314 2.22367e-10)
(1.14482 0.0146766 2.37691e-10)
(1.13143 0.0125268 2.49577e-10)
(1.12049 0.00533978 2.57185e-10)
(1.11467 -0.00592484 2.59601e-10)
(1.1157 -0.0199224 2.56043e-10)
(1.12533 -0.0349054 2.46507e-10)
(1.14318 -0.048909 2.32584e-10)
(1.16949 -0.0594698 2.17477e-10)
(1.19947 -0.0645561 2.04606e-10)
(1.23315 -0.0623668 1.96148e-10)
(1.26002 -0.0523282 1.91238e-10)
(1.28636 -0.0387787 1.90263e-10)
(1.29536 -0.00710339 1.83253e-10)
(1.00013 -0.00265611 4.11907e-18)
(1.00173 -0.00772288 1.36637e-17)
(1.00525 -0.0127824 1.60543e-17)
(1.01052 -0.018009 5.78364e-18)
(1.0179 -0.0235283 5.90037e-17)
(1.02771 -0.0292272 -4.25252e-17)
(1.04031 -0.0347418 -3.70307e-17)
(1.05577 -0.0390832 4.14427e-16)
(1.07346 -0.0411553 1.32558e-16)
(1.09204 -0.0395535 -1.50456e-15)
(1.10829 -0.0337608 -1.15964e-15)
(1.12015 -0.0265725 4.00412e-15)
(1.12796 -0.0196733 1.1437e-14)
(1.13301 -0.0146663 1.87508e-14)
(1.13755 -0.0110698 2.48391e-14)
(1.14277 -0.00648857 2.44647e-14)
(1.1472 0.00222232 1.66791e-14)
(1.14675 0.0161203 8.4028e-15)
(1.13775 0.0326069 2.02573e-15)
(1.11962 0.0473872 -2.59506e-15)
(1.09464 0.0569348 -7.2324e-16)
(1.06637 0.0593789 -1.08459e-15)
(1.03853 0.0541589 -4.71083e-14)
(1.01454 0.0414306 1.24911e-13)
(0.997754 0.0218092 1.44956e-13)
(0.991638 -0.00333199 -3.0918e-12)
(0.999716 -0.0307601 6.29225e-12)
(1.02366 -0.0541055 7.18945e-11)
(1.05978 -0.065011 1.51774e-10)
(1.09785 -0.0576793 1.38801e-10)
(1.12539 -0.0335185 5.94908e-11)
(1.13423 -0.000965014 7.59831e-12)
(1.12383 0.0297259 -3.89863e-12)
(1.09958 0.0517047 -1.192e-12)
(1.06843 0.0629184 -1.22621e-12)
(1.03584 0.0641462 -5.39379e-12)
(1.00547 0.0566142 1.85767e-11)
(0.980161 0.0407681 9.57637e-11)
(0.96292 0.0165251 -6.32613e-11)
(0.957255 -0.0151964 -1.402e-09)
(0.967186 -0.0501977 -4.85983e-09)
(0.995817 -0.0797518 -9.80461e-09)
(1.04119 -0.0926746 -1.37901e-08)
(1.09296 -0.0812606 -1.43028e-08)
(1.13495 -0.0474737 -1.0932e-08)
(1.15324 -0.00310631 -5.92409e-09)
(1.14405 0.0372967 -2e-09)
(1.1144 0.0642002 -1.22708e-10)
(1.07565 0.0756133 3.19115e-10)
(1.0369 0.0742939 2.71016e-10)
(1.00272 0.0637126 1.13153e-10)
(0.974652 0.0456124 -5.66291e-10)
(0.954574 0.0198295 -2.52378e-09)
(0.947241 -0.013641 -5.87976e-09)
(0.958845 -0.0510255 -9.64094e-09)
(0.991295 -0.0829907 -1.26207e-08)
(1.03832 -0.0979597 -1.4518e-08)
(1.0876 -0.0886757 -1.55842e-08)
(1.12619 -0.0566519 -1.55097e-08)
(1.14504 -0.0116311 -1.34275e-08)
(1.14104 0.0328623 -9.33759e-09)
(1.11718 0.0652817 -4.7256e-09)
(1.08118 0.0804017 -1.2749e-09)
(1.04188 0.0795236 3.49384e-10)
(1.00596 0.0669722 4.07665e-10)
(0.977611 0.0459404 -6.08111e-10)
(0.960805 0.0172077 -2.24626e-09)
(0.960448 -0.0180966 -3.97106e-09)
(0.979642 -0.054649 -5.23435e-09)
(1.01591 -0.0828493 -5.7992e-09)
(1.06089 -0.09324 -5.86892e-09)
(1.1034 -0.081613 -5.86642e-09)
(1.13338 -0.0510646 -6.03817e-09)
(1.14481 -0.0102994 -6.14835e-09)
(1.13684 0.0300182 -5.64158e-09)
(1.11313 0.0607831 -4.26536e-09)
(1.07989 0.0768999 -2.41741e-09)
(1.04379 0.0777902 -8.22155e-10)
(1.01065 0.0657494 1.83306e-11)
(0.985503 0.0434234 6.47382e-11)
(0.973279 0.0129207 -3.76599e-10)
(0.978043 -0.0223889 -9.04933e-10)
(1.00049 -0.055902 -1.23664e-09)
(1.03625 -0.0789537 -1.2951e-09)