/*--------------------------------*- C++ -*----------------------------------*\
  =========                 |
  \\      /  F ield         | OpenFOAM: The Open Source CFD Toolbox
   \\    /   O peration     | Website:  https://openfoam.org
    \\  /    A nd           | Version:  11
     \\/     M anipulation  |
\*---------------------------------------------------------------------------*/
FoamFile
{
    format      ascii;
    class       volVectorField;
    location    "15.434017";
    object      U_0;
}
// * * * * * * * * * * * * * * * * * * * * * * * * * * * * * * * * * * * * * //

dimensions      [0 1 -1 0 0 0 0];

internalField   nonuniform List<vector> 
7132
(
(1.00013 -0.000247613 4.19846e-18)
(1.00191 -0.000720217 1.61521e-17)
(1.00578 -0.00118472 1.66799e-17)
(1.01143 -0.00164935 2.05059e-17)
(1.01896 -0.00211795 2.76378e-17)
(1.02838 -0.00257446 2.90458e-17)
(1.03958 -0.00298524 2.75493e-17)
(1.05231 -0.0032839 2.53631e-17)
(1.06593 -0.00339993 2.27926e-17)
(1.07963 -0.00327704 1.99602e-17)
(1.09225 -0.00289872 1.72323e-17)
(1.10294 -0.00239542 1.49701e-17)
(1.11145 -0.00186256 1.32742e-17)
(1.11787 -0.00136892 1.14131e-17)
(1.12243 -0.000883335 8.77595e-18)
(1.12502 -0.000286569 7.04821e-18)
(1.1249 0.000554088 7.02553e-18)
(1.12084 0.00165564 7.22951e-18)
(1.11191 0.00285711 7.32791e-18)
(1.09817 0.00390245 9.41962e-18)
(1.08077 0.00455719 1.07886e-17)
(1.06168 0.00467011 1.08332e-17)
(1.04328 0.00417929 1.04232e-17)
(1.02804 0.00309811 1.37008e-17)
(1.01827 0.00151321 -5.15156e-18)
(1.01576 -0.000397815 -5.44636e-17)
(1.0214 -0.00232997 1.63824e-16)
(1.03455 -0.00383862 1.12918e-15)
(1.05247 -0.00444499 2.09288e-15)
(1.07061 -0.00386745 1.87809e-15)
(1.08393 -0.00222538 9.52404e-16)
(1.08881 -1.15281e-05 2.73269e-16)
(1.0842 0.00215961 -1.40149e-17)
(1.07149 0.00381677 -2.27768e-16)
(1.05345 0.00472957 7.6848e-17)
(1.03333 0.00484922 1.7332e-15)
(1.01428 0.00420713 -1.20073e-15)
(0.999258 0.00285406 -2.20053e-14)
(0.99103 0.000871825 -2.62888e-14)
(0.991948 -0.00155006 1.59308e-13)
(1.00329 -0.00400888 7.785e-13)
(1.02418 -0.00587682 1.7544e-12)
(1.05078 -0.00649867 2.47706e-12)
(1.07683 -0.00553726 2.42323e-12)
(1.09574 -0.00321529 1.72544e-12)
(1.10304 -0.000235204 8.72019e-13)
(1.09781 0.00257061 2.56085e-13)
(1.08237 0.00459651 -1.52605e-14)
(1.06073 0.0056022 -8.09965e-14)
(1.03714 0.00561934 -4.44762e-14)
(1.01533 0.00477755 1.09072e-13)
(0.998459 0.00318737 7.63375e-14)
(0.989377 0.000945495 -1.28394e-12)
(0.990531 -0.00175014 -5.30944e-12)
(1.00323 -0.00446403 -1.25357e-11)
(1.02643 -0.00652112 -2.18403e-11)
(1.05592 -0.00722691 -3.03865e-11)
(1.08496 -0.00621749 -3.50254e-11)
(1.10638 -0.00370226 -3.34774e-11)
(1.11512 -0.000409523 -2.50153e-11)
(1.10989 0.00273909 -1.30765e-11)
(1.0931 0.00501435 -3.73088e-12)
(1.06941 0.0060929 1.39404e-12)
(1.04388 0.00601429 3.82729e-12)
(1.02079 0.00498811 1.63043e-12)
(1.00348 0.00321835 -1.62979e-11)
(0.994564 0.000865517 -6.85947e-11)
(0.996123 -0.00184452 -1.71039e-10)
(1.00904 -0.00448572 -3.23096e-10)
(1.03198 -0.00644026 -4.98912e-10)
(1.06083 -0.00710193 -6.51511e-10)
(1.08931 -0.00616344 -7.31999e-10)
(1.11079 -0.00379851 -7.12719e-10)
(1.12033 -0.000623361 -5.99099e-10)
(1.11622 0.00253345 -4.25574e-10)
(1.10023 0.00493185 -2.41793e-10)
(1.07665 0.00614767 -9.36411e-11)
(1.05071 0.00612417 -5.85976e-12)
(1.0272 0.00505472 2.19161e-11)
(1.00977 0.00320493 4.20515e-12)
(1.00107 0.000822581 -4.42155e-11)
(1.00278 -0.00180464 -1.13608e-10)
(1.01527 -0.00425044 -1.9603e-10)
(1.0368 -0.00597294 -2.80751e-10)
(1.06331 -0.00649334 -3.53605e-10)
(1.08917 -0.00561351 -4.00193e-10)
(1.10869 -0.00352151 -4.10088e-10)
(1.11776 -0.000728004 -3.79761e-10)
(1.11481 0.00210907 -3.1364e-10)
(1.10103 0.00438272 -2.24147e-10)
(1.07974 0.0056846 -1.30154e-10)
(1.05539 0.00586319 -4.96313e-11)
(1.03255 0.0049888 9.54538e-12)
(1.01512 0.00326065 5.22192e-11)
(1.0061 0.000941736 8.9471e-11)
(1.00732 -0.0016234 1.29772e-10)
(1.01903 -0.00397277 1.75131e-10)
(1.03931 -0.00558567 2.22919e-10)
(1.06412 -0.00605036 2.69287e-10)
(1.08818 -0.00523809 3.11011e-10)
(1.10641 -0.00336262 3.45192e-10)
(1.1153 -0.000892649 3.67521e-10)
(1.1136 0.00161675 3.70597e-10)
(1.10227 0.00368423 3.45118e-10)
(1.08393 0.0049875 2.86659e-10)
(1.06213 0.00536934 2.04624e-10)
(1.04073 0.0048053 1.23656e-10)
(1.02345 0.00337312 7.20564e-11)
(1.01355 0.00125496 6.56708e-11)
(1.01334 -0.00122762 1.01294e-10)
(1.02351 -0.00360497 1.63081e-10)
(1.04256 -0.00534312 2.33392e-10)
(1.06681 -0.00601058 2.9952e-10)
(1.09122 -0.00544208 3.54842e-10)
(1.11078 -0.00380237 3.97133e-10)
(1.12184 -0.00151758 4.2618e-10)
(1.12287 0.000881245 4.41047e-10)
(1.11453 0.0029268 4.37436e-10)
(1.09906 0.00432171 4.07984e-10)
(1.07951 0.00494219 3.47938e-10)
(1.05912 0.0047717 2.63567e-10)
(1.04101 0.00383355 1.74771e-10)
(1.02823 0.00218494 1.06443e-10)
(1.02348 -1.94485e-05 7.47474e-11)
(1.02854 -0.00245911 8.01902e-11)
(1.04355 -0.00466604 1.11569e-10)
(1.06648 -0.00615026 1.54706e-10)
(1.09344 -0.00657249 1.98635e-10)
(1.11965 -0.00586641 2.37232e-10)
(1.14073 -0.004252 2.68151e-10)
(1.15375 -0.0021484 2.91192e-10)
(1.15774 -3.68953e-05 3.06933e-10)
(1.15366 0.00167356 3.15461e-10)
(1.14384 0.00273893 3.15306e-10)
(1.13121 0.00310163 3.03406e-10)
(1.11854 0.00284878 2.76853e-10)
(1.10803 0.00213975 2.35887e-10)
(1.10117 0.00114782 1.8581e-10)
(1.09879 4.36564e-05 1.35839e-10)
(1.10098 -0.000994178 9.5478e-11)
(1.10711 -0.00178111 7.0962e-11)
(1.11577 -0.00216177 6.38475e-11)
(1.12501 -0.00206531 7.18525e-11)
(1.13283 -0.0015441 9.06927e-11)
(1.13773 -0.000767458 1.15707e-10)
(1.13909 2.7142e-05 1.42785e-10)
(1.13739 0.000603422 1.68713e-10)
(1.13393 0.000785467 1.91221e-10)
(1.13064 0.000489125 2.08971e-10)
(1.12946 -0.000278901 2.21479e-10)
(1.13234 -0.00143267 2.28947e-10)
(1.14037 -0.00283293 2.31991e-10)
(1.15464 -0.00428894 2.31369e-10)
(1.17423 -0.00559496 2.27786e-10)
(1.1994 -0.00651204 2.21814e-10)
(1.22591 -0.00685925 2.13827e-10)
(1.25493 -0.0064898 2.0431e-10)
(1.27706 -0.00534123 1.92562e-10)
(1.29939 -0.00390553 1.82359e-10)
(1.30625 -0.000575652 1.58031e-10)
(1.00013 -0.000741546 6.32234e-20)
(1.0019 -0.00215766 7.87744e-19)
(1.00576 -0.00355063 1.55954e-18)
(1.01139 -0.00494727 2.40384e-18)
(1.01892 -0.00635995 3.50157e-18)
(1.02838 -0.00774114 4.57467e-18)
(1.03968 -0.00898968 5.16567e-18)
(1.05258 -0.00990176 6.75498e-18)
(1.06645 -0.0102605 4.66401e-18)
(1.08042 -0.00988699 2.76385e-18)
(1.09326 -0.00872727 3.75223e-18)
(1.10403 -0.00719342 6.2332e-18)
(1.11254 -0.00558316 4.75056e-18)
(1.11892 -0.0041168 -5.96099e-19)
(1.12351 -0.00270004 -6.09369e-18)
(1.12626 -0.000960387 -6.94366e-18)
(1.12637 0.00152931 -3.79351e-18)
(1.12249 0.004839 3.82693e-19)
(1.11355 0.00848096 3.67779e-18)
(1.09955 0.0116705 6.10604e-18)
(1.08171 0.0136897 7.49119e-18)
(1.06205 0.0140755 5.3365e-18)
(1.04306 0.0126357 1.21799e-17)
(1.02727 0.00940348 4.82664e-17)
(1.01705 0.00462922 -1.72841e-16)
(1.01433 -0.00116406 -9.02201e-16)
(1.02013 -0.00706104 4.06689e-15)
(1.0339 -0.0117013 2.62541e-14)
(1.05285 -0.0135991 5.02588e-14)
(1.07212 -0.0118684 4.57767e-14)
(1.08628 -0.00686656 2.1946e-14)
(1.09147 -0.000109977 5.15666e-15)
(1.08666 0.00651295 -8.04613e-16)
(1.07338 0.0115624 -2.07461e-15)
(1.05462 0.0143474 4.06664e-15)
(1.03373 0.0147341 1.79866e-14)
(1.01393 0.0128258 -3.36854e-14)
(0.998194 0.00876953 -2.95563e-13)
(0.989368 0.00278941 -3.09984e-13)
(0.98999 -0.00457168 2.76376e-12)
(1.00159 -0.0121038 1.403e-11)
(1.02342 -0.0178741 3.30081e-11)
(1.05145 -0.0198428 4.7269e-11)
(1.07898 -0.0169497 4.4647e-11)
(1.0989 -0.00987407 2.87659e-11)
(1.10647 -0.000779337 1.25529e-11)
(1.10084 0.0077781 3.02239e-12)
(1.08456 0.0139465 -5.74981e-13)
(1.06197 0.0170064 -1.06593e-12)
(1.03747 0.0170749 -4.98285e-14)
(1.01482 0.0145594 2.13173e-12)
(0.997194 0.00978878 1.49532e-12)
(0.987469 0.00302629 -1.79618e-11)
(0.988266 -0.00516617 -8.60198e-11)
(1.00113 -0.0134785 -2.27922e-10)
(1.02516 -0.0198293 -4.20961e-10)
(1.05606 -0.0220565 -5.77283e-10)
(1.08671 -0.0190204 -6.06503e-10)
(1.1094 -0.0113618 -4.97819e-10)
(1.11866 -0.00131876 -3.18861e-10)
(1.11315 0.00828776 -1.51125e-10)
(1.0955 0.0152253 -4.23114e-11)
(1.07072 0.0185115 6.96123e-12)
(1.04414 0.0182858 2.01003e-11)
(1.02015 0.0152069 1.08389e-11)
(1.00203 0.00989763 -3.96368e-11)
(0.992393 0.00281932 -1.80963e-10)
(0.993428 -0.0053829 -4.62957e-10)
(1.00623 -0.0134387 -8.87787e-10)
(1.02963 -0.0194621 -1.37642e-09)
(1.05946 -0.0215791 -1.78465e-09)
(1.08918 -0.0188213 -1.96808e-09)
(1.1118 -0.0116966 -1.85782e-09)
(1.1221 -0.00207227 -1.49756e-09)
(1.11821 0.00753263 -1.01394e-09)
(1.10193 0.0148584 -5.47936e-10)
(1.07769 0.0186034 -2.00944e-10)
(1.05092 0.0185903 -7.92822e-12)
(1.02654 0.0154088 5.12132e-11)
(1.00831 0.00986164 1.70179e-11)
(0.998945 0.00268007 -7.80318e-11)
(1.00033 -0.00528922 -2.14468e-10)
(1.013 -0.0127571 -3.74154e-10)
(1.03523 -0.0180554 -5.3134e-10)
(1.06275 -0.0196999 -6.558e-10)
(1.08956 -0.0170764 -7.2189e-10)
(1.10973 -0.0107631 -7.15588e-10)
(1.11904 -0.00231842 -6.38146e-10)
(1.116 0.00626583 -5.0612e-10)
(1.10189 0.0131587 -3.47169e-10)
(1.08013 0.0171305 -1.93628e-10)
(1.05525 0.0177233 -7.08793e-11)
(1.03183 0.0151407 1.31517e-11)
(1.01385 0.00996455 6.84509e-11)
(1.00447 0.00296342 1.12615e-10)
(1.00573 -0.00483609 1.58947e-10)
(1.01802 -0.012019 2.11545e-10)
(1.03933 -0.0169659 2.67527e-10)
(1.06531 -0.0183937 3.21333e-10)
(1.09029 -0.0159099 3.67783e-10)
(1.10893 -0.0101899 4.02915e-10)
(1.11765 -0.00268525 4.22526e-10)
(1.11536 0.00491242 4.19956e-10)
(1.10327 0.0111526 3.86744e-10)
(1.08418 0.0150765 3.19141e-10)
(1.06175 0.0162257 2.27492e-10)
(1.03987 0.0145312 1.38223e-10)
(1.02229 0.0102148 8.21551e-11)
(1.01238 0.00380279 7.73947e-11)
(1.01258 -0.00374898 1.21498e-10)
(1.02367 -0.0110055 1.97184e-10)
(1.04401 -0.0163107 2.83557e-10)
(1.06962 -0.0183245 3.64003e-10)
(1.09508 -0.0165445 4.28576e-10)
(1.11511 -0.0114977 4.73156e-10)
(1.12598 -0.00451091 4.97462e-10)
(1.12626 0.00278859 5.02194e-10)
(1.11685 0.00898415 4.85637e-10)
(1.10024 0.0131826 4.42956e-10)
(1.07968 0.0150239 3.71211e-10)
(1.0585 0.0144726 2.77731e-10)
(1.03993 0.0116046 1.83021e-10)
(1.02704 0.00658502 1.12257e-10)
(1.02264 -0.000131491 8.14431e-11)
(1.02859 -0.00757517 9.03413e-11)
(1.04494 -0.014303 1.26516e-10)
(1.06941 -0.0187978 1.7444e-10)
(1.09774 -0.0200185 2.22103e-10)
(1.12486 -0.0177809 2.6282e-10)
(1.14618 -0.0127866 2.94106e-10)
(1.1588 -0.00633836 3.159e-10)
(1.16188 9.37672e-05 3.29115e-10)
(1.15662 0.00527789 3.34329e-10)
(1.14555 0.00848462 3.30605e-10)
(1.13176 0.0095479 3.15295e-10)
(1.11819 0.00873737 2.85763e-10)
(1.1071 0.00653713 2.42456e-10)
(1.10007 0.00347003 1.90881e-10)
(1.09796 5.22268e-05 1.40399e-10)
(1.1009 -0.00316792 1.00462e-10)
(1.10817 -0.00561186 7.69998e-11)
(1.11815 -0.00678629 7.11015e-11)
(1.12863 -0.00646427 8.00528e-11)
(1.13734 -0.0048102 9.93339e-11)
(1.1426 -0.00235797 1.24282e-10)
(1.14378 0.000149186 1.50948e-10)
(1.14142 0.00197944 1.76312e-10)
(1.137 0.00259378 1.98252e-10)
(1.1326 0.00173802 2.15497e-10)
(1.13031 -0.000562546 2.27573e-10)
(1.13217 -0.00404361 2.34656e-10)
(1.13936 -0.00828177 2.37305e-10)
(1.15299 -0.0127033 2.3621e-10)
(1.17221 -0.0166861 2.32022e-10)
(1.19729 -0.0195102 2.25323e-10)
(1.22399 -0.0206184 2.16606e-10)
(1.25341 -0.0195659 2.06555e-10)
(1.27602 -0.0161412 1.94691e-10)
(1.29883 -0.0118575 1.84737e-10)
(1.30601 -0.00181378 1.61702e-10)
(1.00013 -0.0012319 2.11139e-22)
(1.00188 -0.00358453 1.18786e-20)
(1.0057 -0.00590349 1.20688e-20)
(1.0113 -0.00823907 2.2439e-20)
(1.01883 -0.0106164 -7.23381e-20)
(1.02835 -0.0129593 -1.74772e-19)
(1.03985 -0.0150986 2.08907e-19)
(1.05311 -0.0166789 -1.09968e-18)
(1.06748 -0.0173201 -3.52281e-18)
(1.08203 -0.0166858 2.01676e-18)
(1.09532 -0.014669 1.20488e-17)
(1.10628 -0.0120247 4.76397e-18)
(1.11477 -0.00928283 -3.43356e-17)
(1.12107 -0.00684934 -8.71968e-17)
(1.12571 -0.00455671 -1.09349e-16)
(1.12876 -0.00172538 -7.94858e-17)
(1.12934 0.00243632 -3.33239e-17)
(1.12579 0.0080783 -1.39911e-18)
(1.11675 0.0143381 1.24706e-17)
(1.10218 0.0198292 1.63947e-17)
(1.08338 0.0233065 1.04708e-17)
(1.06258 0.0239901 -2.41226e-18)
(1.0424 0.0215688 6.28729e-17)
(1.02554 0.0161003 -1.2269e-18)
(1.01453 0.00798501 -9.31763e-16)
(1.0115 -0.00193137 1.19789e-15)
(1.01776 -0.0121158 1.01537e-14)
(1.03294 -0.020207 8.49388e-16)
(1.05405 -0.0235647 -2.82966e-15)
(1.07561 -0.0205866 2.98443e-14)
(1.09139 -0.0118947 3.79711e-14)
(1.09702 -0.000183227 1.70119e-14)
(1.09152 0.0112217 -1.72368e-15)
(1.07686 0.0198406 -7.2452e-15)
(1.05649 0.0245486 3.1092e-14)
(1.03402 0.0251886 7.87538e-14)
(1.01275 0.0219732 -2.79559e-13)
(0.99571 0.0151338 -1.48443e-12)
(0.985877 0.00497924 -4.82519e-13)
(0.986151 -0.00765228 1.5748e-11)
(0.998551 -0.0207174 6.4192e-11)
(1.02254 -0.0308158 1.37987e-10)
(1.05369 -0.0342992 1.94885e-10)
(1.08425 -0.0292678 1.91289e-10)
(1.10603 -0.0169439 1.30849e-10)
(1.11379 -0.00117647 6.13123e-11)
(1.10689 0.0135429 1.70224e-11)
(1.08858 0.0240325 -1.76791e-12)
(1.06383 0.0291442 -5.17606e-12)
(1.03743 0.0291846 1.39648e-13)
(1.0132 0.0249094 1.10476e-11)
(0.994207 0.0168639 3.416e-12)
(0.983349 0.00541667 -1.09409e-10)
(0.983427 -0.0085688 -4.79401e-10)
(0.996367 -0.0229037 -1.21052e-09)
(1.02165 -0.0339941 -2.16317e-09)
(1.05504 -0.0380204 -2.9204e-09)
(1.08884 -0.0328926 -3.06286e-09)
(1.11429 -0.0196636 -2.52051e-09)
(1.12493 -0.00226082 -1.61837e-09)
(1.11905 0.0143388 -7.76258e-10)
(1.0997 0.0262306 -2.27505e-10)
(1.07267 0.0317652 2.15597e-11)
(1.04395 0.0312912 8.24076e-11)
(1.01818 0.0260392 4.41401e-11)
(0.998585 0.0170961 -1.0617e-10)
(0.98772 0.00517223 -4.66672e-10)
(0.987994 -0.00875298 -1.12074e-09)
(1.00094 -0.0225813 -2.02434e-09)
(1.02562 -0.0330607 -2.98603e-09)
(1.05759 -0.0368929 -3.75189e-09)
(1.08965 -0.0323412 -4.10069e-09)
(1.11412 -0.020245 -3.90837e-09)
(1.12541 -0.00380689 -3.21088e-09)
(1.12154 0.0126375 -2.2199e-09)
(1.10443 0.0251981 -1.22721e-09)
(1.07882 0.0316423 -4.68273e-10)
(1.05046 0.0316849 -3.6114e-11)
(1.02452 0.0263542 1.04773e-10)
(1.00492 0.0170042 4.24654e-11)
(0.994662 0.00481677 -1.44951e-10)
(0.995977 -0.00882446 -4.00824e-10)
(1.00967 -0.0216978 -6.72521e-10)
(1.03388 -0.0308534 -9.07703e-10)
(1.0637 -0.0336695 -1.0691e-09)
(1.09237 -0.0291073 -1.14081e-09)
(1.1134 -0.0182489 -1.11788e-09)
(1.12254 -0.00384252 -9.99721e-10)
(1.11858 0.0107021 -7.99333e-10)
(1.10322 0.0223212 -5.52529e-10)
(1.08017 0.0289987 -3.10097e-10)
(1.05409 0.0300061 -1.15415e-10)
(1.02961 0.0256794 1.55664e-11)
(1.01085 0.0169384 9.60932e-11)
(1.00123 0.00500646 1.53074e-10)
(1.00317 -0.0083923 2.09172e-10)
(1.01715 -0.0207698 2.74345e-10)
(1.04087 -0.0292393 3.46414e-10)
(1.06925 -0.0315405 4.15739e-10)
(1.09591 -0.027044 4.71458e-10)
(1.11502 -0.0170279 5.06577e-10)
(1.12299 -0.00409379 5.18148e-10)
(1.1191 0.00882054 5.02896e-10)
(1.10505 0.0192789 4.54943e-10)
(1.08413 0.0257406 3.71651e-10)
(1.06027 0.0275172 2.64477e-10)
(1.03743 0.0245282 1.62534e-10)
(1.01945 0.0171168 1.00548e-10)
(1.00986 0.0061154 9.94828e-11)
(1.01131 -0.00686578 1.56618e-10)
(1.02456 -0.0193184 2.51219e-10)
(1.04759 -0.0283235 3.57684e-10)
(1.07576 -0.0315514 4.55431e-10)
(1.10303 -0.028189 5.31931e-10)
(1.12369 -0.0192409 5.81454e-10)
(1.13393 -0.00707941 6.0278e-10)
(1.13256 0.00545545 5.96767e-10)
(1.12088 0.0159434 5.63553e-10)
(1.10188 0.0229075 5.01339e-10)
(1.07923 0.0258063 4.10458e-10)
(1.05651 0.0246413 3.01184e-10)
(1.03709 0.0195611 1.96245e-10)
(1.02421 0.0108292 1.21719e-10)
(1.0208 -0.000790916 9.27472e-11)
(1.02877 -0.0136057 1.06788e-10)
(1.04785 -0.0250745 1.48781e-10)
(1.07518 -0.0325567 2.01356e-10)
(1.10586 -0.0343009 2.51835e-10)
(1.13431 -0.0300846 2.93749e-10)
(1.15578 -0.0212128 3.25118e-10)
(1.16743 -0.00998541 3.46176e-10)
(1.1687 0.001062 3.57776e-10)
(1.16115 0.00984562 3.6037e-10)
(1.1477 0.0151629 3.53094e-10)
(1.13178 0.0167759 3.33572e-10)
(1.11657 0.0151752 2.99634e-10)
(1.10452 0.0111935 2.52442e-10)
(1.09736 0.00571536 1.98354e-10)
(1.09604 -0.000373674 1.47337e-10)
(1.10068 -0.00609861 1.08807e-10)
(1.11031 -0.0104047 8.79529e-11)
(1.12287 -0.0123903 8.47811e-11)
(1.13558 -0.0116544 9.56571e-11)
(1.14571 -0.00852073 1.15639e-10)
(1.15135 -0.00397945 1.40163e-10)
(1.15186 0.000623785 1.65695e-10)
(1.14802 0.00399314 1.89672e-10)
(1.14161 0.00519901 2.10297e-10)
(1.13502 0.00382484 2.2643e-10)
(1.13061 -5.85215e-05 2.37566e-10)
(1.1306 -0.0059789 2.43747e-10)
(1.13625 -0.0132075 2.45342e-10)
(1.14882 -0.0207777 2.42846e-10)
(1.16751 -0.0276433 2.36838e-10)
(1.19267 -0.0325818 2.28098e-10)
(1.21998 -0.0346286 2.17586e-10)
(1.25039 -0.0329887 2.06528e-10)
(1.27405 -0.027298 1.94865e-10)
(1.29781 -0.0200768 1.85954e-10)
(1.30536 -0.00311714 1.66347e-10)
(1.00013 -0.00171588 -6.61661e-20)
(1.00185 -0.00499185 -8.80552e-19)
(1.0056 -0.00823195 -1.71485e-18)
(1.01113 -0.0115169 -2.66627e-18)
(1.01864 -0.0148929 -4.78175e-18)
(1.02826 -0.0182604 -4.45083e-18)
(1.04005 -0.0213823 -6.67221e-18)
(1.05385 -0.0237279 -1.8987e-17)
(1.069 -0.0247248 -3.06462e-18)
(1.08447 -0.0238138 5.15494e-17)
(1.09846 -0.0208058 8.87677e-19)
(1.1097 -0.0169127 -2.16325e-16)
(1.11814 -0.0129532 -3.65138e-16)
(1.12427 -0.0095894 -2.02668e-16)
(1.12897 -0.00656688 1.66176e-16)
(1.13252 -0.00280545 4.29601e-16)
(1.13387 0.00299534 4.57649e-16)
(1.13086 0.0111325 3.31091e-16)
(1.12168 0.0202923 1.83115e-16)
(1.10617 0.0283618 7.53832e-17)
(1.08587 0.0334898 -2.67904e-17)
(1.06328 0.0345604 1.49288e-16)
(1.04129 0.03115 2.63836e-17)
(1.0228 0.0233394 -4.90267e-15)
(1.01056 0.0116545 1.17746e-14)
(1.00704 -0.00277157 9.7361e-14)
(1.01399 -0.0177772 -3.70448e-13)
(1.03135 -0.0298568 -2.61458e-12)
(1.0559 -0.0349526 -5.08749e-12)
(1.08111 -0.0305421 -4.63632e-12)
(1.09942 -0.0175579 -2.1735e-12)
(1.10566 -0.000154421 -4.65392e-13)
(1.09898 0.0166062 3.69438e-14)
(1.08207 0.0290794 7.81747e-14)
(1.05915 0.0357634 1.50162e-13)
(1.03424 0.0365976 -1.61188e-14)
(1.01076 0.0319797 -1.19601e-12)
(0.991764 0.0222089 -1.17123e-12)
(0.980413 0.00757634 7.16861e-12)
(0.980117 -0.0108959 1.60967e-11)
(0.993574 -0.0302927 -3.0108e-11)
(1.02065 -0.0454542 -1.60829e-10)
(1.05652 -0.0507148 -2.60859e-10)
(1.092 -0.0431241 -2.10909e-10)
(1.117 -0.0246244 -7.94051e-11)
(1.12519 -0.00118063 9.2743e-12)
(1.11623 0.0204024 2.85083e-11)
(1.09456 0.0354765 1.12237e-11)
(1.06636 0.0425719 -2.93704e-12)
(1.03703 0.0423855 7.10408e-12)
(1.01043 0.0361683 3.35043e-11)
(0.989402 0.0247142 -2.44817e-11)
(0.976607 0.00842678 -4.42907e-10)
(0.975036 -0.0116594 -1.58828e-09)
(0.98734 -0.0325816 -3.56059e-09)
(1.01385 -0.0491738 -5.89116e-09)
(1.05048 -0.055672 -7.69792e-09)
(1.08875 -0.048658 -8.16344e-09)
(1.1185 -0.0293973 -7.02503e-09)
(1.13188 -0.00367551 -4.81504e-09)
(1.12634 0.0209234 -2.51283e-09)
(1.10516 0.038418 -8.54945e-10)
(1.07514 0.0463768 -1.87231e-11)
(1.04334 0.0455184 2.20915e-10)
(1.01491 0.0378842 1.25899e-10)
(0.993083 0.0251314 -2.40255e-10)
(0.980475 0.00812437 -9.70752e-10)
(0.980003 -0.0119821 -2.09097e-09)
(0.993881 -0.0322482 -3.40703e-09)
(1.02123 -0.0477958 -4.6111e-09)
(1.05676 -0.0536066 -5.48413e-09)
(1.09202 -0.0470924 -5.92181e-09)
(1.11849 -0.0295659 -5.81579e-09)
(1.13033 -0.0057589 -5.06329e-09)
(1.12582 0.0180412 -3.75412e-09)
(1.10721 0.0362247 -2.24249e-09)
(1.07959 0.0455825 -9.53976e-10)
(1.04906 0.0457304 -1.48378e-10)
(1.02102 0.0381687 1.52287e-10)
(0.999709 0.0247891 7.20348e-11)
(0.988563 0.00716166 -2.33451e-10)
(0.990422 -0.0127855 -6.23653e-10)
(1.00633 -0.0317079 -9.79222e-10)
(1.03393 -0.0450788 -1.22268e-09)
(1.06723 -0.0489535 -1.3412e-09)
(1.09837 -0.0419276 -1.3692e-09)
(1.12023 -0.0258368 -1.33657e-09)
(1.12856 -0.00489013 -1.23521e-09)
(1.12267 0.0159406 -1.04105e-09)
(1.10496 0.0323687 -7.62604e-10)
(1.07968 0.0416895 -4.54066e-10)
(1.05172 0.0429924 -1.84003e-10)
(1.0258 0.0367535 7.52144e-12)
(1.00618 0.024156 1.25322e-10)
(0.996697 0.00681183 2.03068e-10)
(1.00015 -0.0127909 2.76347e-10)
(1.01697 -0.0308683 3.64356e-10)
(1.04419 -0.0430243 4.65105e-10)
(1.07577 -0.0459234 5.61395e-10)
(1.10444 -0.0387912 6.32548e-10)
(1.12394 -0.0237238 6.65602e-10)
(1.13068 -0.00471111 6.593e-10)
(1.12435 0.0138969 6.17908e-10)
(1.10734 0.0286377 5.42873e-10)
(1.08363 0.0374637 4.35257e-10)
(1.05757 0.0395728 3.07833e-10)
(1.03333 0.0349354 1.91677e-10)
(1.01492 0.0239981 1.24482e-10)
(1.00609 0.0078752 1.28546e-10)
(1.00964 -0.0110948 1.98803e-10)
(1.02608 -0.0291455 3.09661e-10)
(1.05272 -0.0419193 4.31216e-10)
(1.08403 -0.0460502 5.41023e-10)
(1.11328 -0.0405085 6.26582e-10)
(1.13445 -0.0269405 6.82197e-10)
(1.14371 -0.00893242 7.05383e-10)
(1.14013 0.00932528 6.94908e-10)
(1.12546 0.0243261 6.49861e-10)
(1.10327 0.0340055 5.69671e-10)
(1.07777 0.0377039 4.58136e-10)
(1.05295 0.0355343 3.30224e-10)
(1.03244 0.0277531 2.12842e-10)
(1.01973 0.0147304 1.33783e-10)
(1.01792 -0.00240625 1.06661e-10)
(1.02877 -0.021092 1.25428e-10)
(1.05146 -0.0375102 1.71746e-10)
(1.08224 -0.0478101 2.26578e-10)
(1.11543 -0.0495903 2.77203e-10)
(1.14502 -0.0427445 3.18034e-10)
(1.16622 -0.0293407 3.48175e-10)
(1.17641 -0.0127902 3.68577e-10)
(1.17535 0.00324039 3.80088e-10)
(1.16497 0.0157833 3.82497e-10)
(1.14862 0.0231646 3.74088e-10)
(1.13011 0.0251067 3.51991e-10)
(1.11295 0.0223619 3.14294e-10)
(1.09987 0.0161398 2.63266e-10)
(1.09283 0.00771203 2.06792e-10)
(1.09296 -0.00160821 1.55936e-10)
(1.10025 -0.0103049 1.20083e-10)
(1.11328 -0.0167091 1.03287e-10)
(1.12924 -0.0194221 1.03976e-10)
(1.14458 -0.0178831 1.17272e-10)
(1.15605 -0.0126852 1.37741e-10)
(1.16156 -0.00542484 1.61068e-10)
(1.16065 0.00181885 1.844e-10)
(1.15442 0.00710647 2.05908e-10)
(1.14507 0.00909466 2.24302e-10)
(1.13541 0.00722696 2.38626e-10)
(1.12807 0.00166283 2.48263e-10)
(1.12547 -0.00688023 2.52915e-10)
(1.12907 -0.0173526 2.52507e-10)
(1.1403 -0.0283904 2.47221e-10)
(1.15854 -0.0385092 2.3779e-10)
(1.18416 -0.0459235 2.25758e-10)
(1.21267 -0.0491962 2.13147e-10)
(1.24467 -0.0470798 2.01915e-10)
(1.26982 -0.0390995 1.92114e-10)
(1.29487 -0.0287078 1.86015e-10)
(1.30279 -0.00451204 1.7215e-10)
(1.00013 -0.00218947 -4.61316e-18)
(1.0018 -0.00636791 -1.42547e-17)
(1.00545 -0.0105195 -1.24038e-17)
(1.01087 -0.0147662 -1.68516e-17)
(1.01833 -0.0191872 -1.82777e-17)
(1.02805 -0.0236691 -1.34455e-17)
(1.04021 -0.0279093 -5.00963e-17)
(1.05474 -0.0311684 -2.40165e-18)
(1.07099 -0.03264 1.28859e-16)
(1.08779 -0.0314293 -2.55917e-17)
(1.10277 -0.0272176 -5.8977e-16)
(1.11435 -0.0218549 -8.16461e-16)
(1.12263 -0.0165251 9.32402e-16)
(1.12843 -0.0122529 5.38442e-15)
(1.13315 -0.00867915 9.88526e-15)
(1.1374 -0.00418027 1.03465e-14)
(1.13992 0.00326426 7.33332e-15)
(1.13779 0.0141895 3.80218e-15)
(1.12848 0.0266984 1.29082e-15)
(1.1117 0.0377452 -1.13898e-16)
(1.08929 0.0447563 -5.07315e-16)
(1.06423 0.0462743 1.64656e-15)
(1.03974 0.0418027 -6.86939e-15)
(1.01898 0.0314628 -2.64481e-14)
(1.00498 0.0158693 1.57174e-13)
(1.00066 -0.00363444 2.89574e-13)
(1.00845 -0.0242682 -2.46169e-12)
(1.02886 -0.0411727 -9.9606e-12)
(1.05833 -0.0484597 -1.83787e-11)
(1.0888 -0.0423515 -2.0072e-11)
(1.11075 -0.0241558 -1.25432e-11)
(1.1178 6.30936e-05 -4.12915e-12)
(1.10931 0.0230337 -2.33019e-13)
(1.08915 0.0397578 6.63094e-13)
(1.06262 0.04846 3.56661e-13)
(1.03438 0.0493748 -1.50033e-12)
(1.00792 0.0432093 -2.8782e-13)
(0.986279 0.0303097 2.04594e-11)
(0.972746 0.0108111 2.4363e-11)
(0.971099 -0.0142154 -2.46836e-10)
(0.984635 -0.0409721 -1.22835e-09)
(1.01411 -0.0622966 -2.86465e-09)
(1.05529 -0.0699939 -4.15221e-09)
(1.09796 -0.059518 -4.03787e-09)
(1.12911 -0.0335232 -2.67684e-09)
(1.13964 -0.000764511 -1.16009e-09)
(1.12878 0.0288736 -2.44368e-10)
(1.10268 0.0489662 5.84679e-11)
(1.06964 0.0579024 7.19613e-11)
(1.03626 0.0571409 6.04667e-11)
(1.00648 0.0487204 6.62274e-11)
(0.982572 0.0337793 -1.8519e-10)
(0.966776 0.0126106 -1.25969e-09)
(0.96261 -0.0139186 -3.59256e-09)
(0.974199 -0.0422995 -6.89262e-09)
(1.00292 -0.0655726 -1.02167e-08)
(1.04412 -0.0754922 -1.26462e-08)
(1.08771 -0.0669135 -1.35436e-08)
(1.12207 -0.0412116 -1.24441e-08)
(1.13842 -0.00614914 -9.43967e-09)
(1.13361 0.0277204 -5.58685e-09)
(1.11083 0.0518293 -2.29168e-09)
(1.07764 0.0626631 -3.29164e-10)
(1.04217 0.0613948 3.80562e-10)
(1.01033 0.0511598 2.5841e-10)
(0.985614 0.0343137 -4.40309e-10)
(0.971061 0.0117211 -1.63856e-09)
(0.9705 -0.015445 -3.14347e-09)
(0.98678 -0.0431931 -4.55828e-09)
(1.01848 -0.0645116 -5.5556e-09)
(1.05877 -0.0723055 -6.11952e-09)
(1.09766 -0.0632082 -6.43e-09)
(1.12573 -0.0393827 -6.52139e-09)
(1.1372 -0.00744842 -6.13411e-09)
(1.13091 0.0242186 -5.01738e-09)
(1.10983 0.0483133 -3.33599e-09)
(1.07955 0.0607081 -1.62346e-09)
(1.04639 0.0609582 -3.94876e-10)
(1.01596 0.0510212 1.42113e-10)
(0.992846 0.0332347 8.33451e-11)
(0.981188 0.00946791 -3.24835e-10)
(0.984487 -0.0177004 -8.16364e-10)
(1.00375 -0.0434495 -1.18791e-09)
(1.03565 -0.0613121 -1.35472e-09)
(1.0729 -0.0659037 -1.35506e-09)
(1.10658 -0.055612 -1.29162e-09)
(1.12907 -0.0333315 -1.24415e-09)
(1.13612 -0.0050451 -1.20767e-09)
(1.12758 0.0225135 -1.10929e-09)
(1.10667 0.0438194 -8.93538e-10)
(1.07836 0.0556109 -5.8438e-10)
(1.04796 0.0569376 -2.66607e-10)
(1.02032 0.0484426 -1.62513e-11)
(0.999977 0.0314883 1.47823e-10)
(0.991178 0.0080316 2.5851e-10)
(0.996986 -0.0185225 3.62447e-10)
(1.01746 -0.0427912 4.85579e-10)
(1.04863 -0.0586461 6.23268e-10)
(1.08343 -0.0616767 7.51265e-10)
(1.1139 -0.0511311 8.41587e-10)
(1.13351 -0.030139 8.74797e-10)
(1.13874 -0.00428419 8.47308e-10)
(1.12963 0.0204987 7.69009e-10)
(1.1092 0.0396371 6.52364e-10)
(1.08216 0.0506233 5.07838e-10)
(1.05341 0.0526587 3.52986e-10)
(1.02753 0.0458441 2.20948e-10)
(1.00878 0.0307372 1.50123e-10)
(1.00117 0.00876247 1.6091e-10)
(1.00751 -0.0168563 2.43284e-10)
(1.02776 -0.0408566 3.66078e-10)
(1.05824 -0.0573007 4.9628e-10)
(1.09251 -0.0618404 6.11622e-10)
(1.12334 -0.0534048 7.01557e-10)
(1.14461 -0.0344542 7.61916e-10)
(1.15262 -0.00990892 7.89634e-10)
(1.14667 0.0145937 7.80587e-10)
(1.12886 0.0343744 7.30392e-10)
(1.10327 0.0467446 6.37125e-10)
(1.07467 0.0509581 5.07015e-10)
(1.04754 0.0472983 3.60594e-10)
(1.02591 0.0361698 2.30508e-10)
(1.01362 0.0180944 1.4702e-10)
(1.01393 -0.00530727 1.21875e-10)
(1.02823 -0.0303717 1.44943e-10)
(1.05481 -0.0518119 1.94492e-10)
(1.08886 -0.0645498 2.50099e-10)
(1.12398 -0.0656971 2.99273e-10)
(1.15394 -0.0554842 3.37409e-10)
(1.17418 -0.0369016 3.64768e-10)
(1.18242 -0.0145403 3.83329e-10)
(1.17879 0.00678503 3.94451e-10)
(1.16554 0.023211 3.97493e-10)
(1.14634 0.0325866 3.89521e-10)
(1.12535 0.0346031 3.6647e-10)
(1.10641 0.0302893 3.26229e-10)
(1.09263 0.0212458 2.72265e-10)
(1.08631 0.00917091 2.14421e-10)
(1.08871 -0.00408007 1.65115e-10)
(1.09957 -0.0162588 1.33536e-10)
(1.11669 -0.0248986 1.22184e-10)
(1.13624 -0.0280408 1.27577e-10)
(1.15384 -0.0250586 1.43497e-10)
(1.16583 -0.0170046 1.641e-10)
(1.17021 -0.00627142 1.85459e-10)
(1.16684 0.00420187 2.05568e-10)
(1.15732 0.0117777 2.23514e-10)
(1.1443 0.014702 2.38681e-10)
(1.13096 0.012319 2.50362e-10)
(1.12019 0.00492446 2.57719e-10)
(1.11464 -0.0064967 2.59839e-10)
(1.11602 -0.0205827 2.55961e-10)
(1.12605 -0.0355687 2.4614e-10)
(1.14428 -0.0494736 2.32054e-10)
(1.1709 -0.0598216 2.16956e-10)
(1.20102 -0.0646015 2.04238e-10)
(1.2347 -0.0620384 1.9598e-10)
(1.26124 -0.0516528 1.91207e-10)
(1.28737 -0.037776 1.90296e-10)
(1.29547 -0.00597077 1.83083e-10)
(1.00013 -0.00264754 4.33397e-18)
(1.00172 -0.00769745 1.36621e-17)
(1.00522 -0.0127438 1.60844e-17)
(1.01048 -0.0179641 5.7253e-18)
(1.01784 -0.0234874 5.93796e-17)
(1.02763 -0.0292029 -4.41278e-17)
(1.04022 -0.0347486 -3.75219e-17)
(1.05568 -0.0391351 4.38549e-16)
(1.07339 -0.0412658 9.4436e-17)
(1.09203 -0.0397282 -1.62898e-15)
(1.10836 -0.0339997 -1.11272e-15)
(1.12034 -0.0268505 4.38844e-15)
(1.12831 -0.0199513 1.21535e-14)
(1.13351 -0.0148665 1.99271e-14)
(1.13817 -0.0110975 2.63499e-14)
(1.14341 -0.00625053 2.55868e-14)
(1.14765 0.0027624 1.72116e-14)
(1.14684 0.016863 8.4966e-15)
(1.1374 0.0333574 1.89748e-15)
(1.11889 0.0479629 -2.7278e-15)
(1.09368 0.057223 -5.92975e-16)
(1.06535 0.0593332 -1.59959e-15)
(1.0376 0.0537723 -4.79022e-14)
(1.01386 0.0407198 1.33006e-13)
(0.997465 0.0208194 1.21269e-13)
(0.991907 -0.0044962 -3.10041e-12)
(1.00067 -0.0318707 7.05942e-12)
(1.02524 -0.0548011 7.20227e-11)
(1.06163 -0.0649447 1.46035e-10)
(1.09941 -0.0567627 1.28287e-10)
(1.12617 -0.0320348 5.20342e-11)
(1.13405 0.000597713 5.34222e-12)
(1.12288 0.0309563 -3.84389e-12)
(1.09819 0.0524268 -9.08375e-13)
(1.06689 0.0631422 -1.31528e-12)
(1.03436 0.0639425 -5.3384e-12)
(1.00418 0.0560277 2.0731e-11)
(0.979186 0.0397998 9.75607e-11)
(0.962419 0.0151789 -8.56145e-11)
(0.957416 -0.0168154 -1.49309e-09)
(0.968203 -0.0517789 -5.02838e-09)
(0.99774 -0.0807875 -9.97169e-09)
(1.04371 -0.0926656 -1.38276e-08)
(1.09539 -0.080056 -1.41366e-08)
(1.13648 -0.0454589 -1.06285e-08)
(1.15342 -0.000992798 -5.64288e-09)
(1.14301 0.0388969 -1.83887e-09)
(1.11266 0.0650425 -7.14757e-11)
(1.07375 0.0757716 3.19496e-10)
(1.03517 0.0739549 2.63386e-10)
(1.00126 0.0630096 9.86088e-11)
(0.973515 0.0445701 -6.2044e-10)
(0.953901 0.0184181 -2.64653e-09)
(0.947308 -0.0153564 -6.05291e-09)
(0.959877 -0.0527299 -9.80853e-09)
(0.993195 -0.0841518 -1.2748e-08)
(1.04063 -0.0980942 -1.46109e-08)
(1.0897 -0.087638 -1.56408e-08)
(1.12755 -0.0547288 -1.54839e-08)
(1.14538 -0.00941138 -1.32792e-08)
(1.14034 0.0347418 -9.10919e-09)
(1.1157 0.0664036 -4.51439e-09)
(1.07935 0.0806918 -1.14787e-09)
(1.04007 0.0791568 3.86733e-10)
(1.00442 0.0661577 3.80335e-10)
(0.976506 0.0447682 -6.75792e-10)
(0.960345 0.0156908 -2.33168e-09)
(0.960846 -0.0198298 -4.04767e-09)
(0.980932 -0.0562343 -5.28219e-09)
(1.01783 -0.083804 -5.81803e-09)
(1.06296 -0.0932175 -5.87592e-09)
(1.10511 -0.0805856 -5.88036e-09)
(1.13434 -0.0493265 -6.0596e-09)
(1.14486 -0.00832671 -6.15271e-09)
(1.13606 0.0317408 -5.60234e-09)
(1.11175 0.0619081 -4.18542e-09)
(1.07822 0.0772946 -2.32934e-09)
(1.04213 0.0775114 -7.60722e-10)
(1.00923 0.0649306 3.87252e-11)
(0.984568 0.0421742 5.18922e-11)
(0.973048 0.0113503 -4.03804e-10)
(0.97865 -0.0240543 -9.28811e-10)