/*--------------------------------*- C++ -*----------------------------------*\
  =========                 |
  \\      /  F ield         | OpenFOAM: The Open Source CFD Toolbox
   \\    /   O peration     | Website:  https://openfoam.org
    \\  /    A nd           | Version:  11
     \\/     M anipulation  |
\*---------------------------------------------------------------------------*/
FoamFile
{
    format      ascii;
    class       surfaceScalarField;
    location    "17.189925";
    object      phi_0;
}
// * * * * * * * * * * * * * * * * * * * * * * * * * * * * * * * * * * * * * //

dimensions      [0 3 -1 0 0 0 0];

internalField   nonuniform List<scalar> 
14638
(
0.00250273
-2.72906e-06
0.00251081
-8.0774e-06
0.00252415
-1.33408e-05
0.00254259
-1.84449e-05
0.00256585
-2.32601e-05
0.00259334
-2.74864e-05
0.00262399
-3.06534e-05
0.00265605
-3.20581e-05
0.00268701
-3.09581e-05
0.00271401
-2.70055e-05
0.00273426
-2.02444e-05
0.00274698
-1.27202e-05
0.00275309
-6.10856e-06
0.00275522
-2.13342e-06
0.00275682
-1.60434e-06
0.00276036
-3.53411e-06
0.00276608
-5.71721e-06
0.00277135
-5.27222e-06
0.00277136
-6.802e-09
0.00276125
1.01047e-05
0.00273848
2.27669e-05
0.00270381
3.46691e-05
0.00266086
4.29562e-05
0.002615
4.58547e-05
0.00257241
4.25969e-05
0.00253927
3.31386e-05
0.00252121
1.80543e-05
0.00252248
-1.26135e-06
0.00254459
-2.21128e-05
0.00258467
-4.00775e-05
0.00263441
-4.97413e-05
0.00268147
-4.70584e-05
0.00271345
-3.19802e-05
0.00272242
-8.97466e-06
0.00270714
1.52846e-05
0.00267208
3.50546e-05
0.00262485
4.7233e-05
0.00257381
5.10406e-05
0.00252697
4.68371e-05
0.00249178
3.51888e-05
0.00247506
1.67172e-05
0.0024823
-7.23313e-06
0.00251568
-3.33788e-05
0.00257149
-5.58118e-05
0.00263884
-6.73526e-05
0.00270179
-6.29508e-05
0.00274469
-4.29032e-05
0.0027579
-1.32069e-05
0.00274047
1.74263e-05
0.00269891
4.15658e-05
0.00264344
5.54724e-05
0.00258461
5.88281e-05
0.00253164
5.29716e-05
0.00249236
3.92733e-05
0.00247369
1.8672e-05
0.00248114
-7.44776e-06
0.00251683
-3.56884e-05
0.00257676
-5.99287e-05
0.00264956
-7.2802e-05
0.00271859
-6.90313e-05
0.00276712
-4.85271e-05
0.0027841
-1.6981e-05
0.00276751
1.65852e-05
0.00272384
4.36733e-05
0.00266451
5.93268e-05
0.00260178
6.27292e-05
0.0025461
5.56827e-05
0.00250559
4.05067e-05
0.00248665
1.89487e-05
0.00249386
-7.2122e-06
0.00252848
-3.46232e-05
0.00258619
-5.7711e-05
0.00265625
-7.00627e-05
0.00272347
-6.72121e-05
0.00277247
-4.90008e-05
0.00279246
-1.99923e-05
0.00278025
1.22106e-05
0.00274053
3.97201e-05
0.00268359
5.69389e-05
0.00262179
6.18001e-05
0.0025665
5.52919e-05
0.00252664
3.98556e-05
0.00250861
1.80362e-05
0.00251611
-7.50488e-06
0.00254912
-3.30072e-05
0.00260244
-5.33228e-05
0.00266569
-6.32482e-05
0.00272543
-5.97385e-05
0.00276884
-4.34112e-05
0.00278722
-1.83801e-05
0.00277795
9.27148e-06
0.00274453
3.34165e-05
0.00269508
4.94497e-05
0.00264003
5.50536e-05
0.00258988
5.01455e-05
0.00255365
3.62357e-05
0.00253788
1.57677e-05
0.00254588
-7.99583e-06
0.00257665
-3.07705e-05
0.00262431
-4.76595e-05
0.00267884
-5.45308e-05
0.00272849
-4.96518e-05
0.00276294
-3.44563e-05
0.00277589
-1.29481e-05
0.0027661
9.79195e-06
0.00273696
2.91367e-05
0.00269511
4.18578e-05
0.00264879
4.63195e-05
0.00260654
4.22434e-05
0.00257611
3.04345e-05
0.00256338
1.27296e-05
0.00257123
-7.8547e-06
0.00259843
-2.72016e-05
0.00263932
-4.08839e-05
0.00268487
-4.55503e-05
0.00272506
-4.01918e-05
0.00275157
-2.65117e-05
0.00275977
-8.19585e-06
0.00274933
1.04421e-05
0.00272358
2.57433e-05
0.0026882
3.53811e-05
0.00264988
3.83262e-05
0.00261541
3.44664e-05
0.00259105
2.43643e-05
0.00258165
9.39549e-06
0.00258959
-7.93832e-06
0.00261366
-2.40724e-05
0.00264884
-3.51808e-05
0.0026873
-3.84612e-05
0.00272051
-3.32069e-05
0.00274156
-2.10518e-05
0.00274685
-5.28766e-06
0.00273652
1.03279e-05
0.00271382
2.26963e-05
0.00268386
2.99668e-05
0.00265239
3.14697e-05
0.00262509
2.72933e-05
0.00260711
1.79821e-05
0.00260246
4.65079e-06
0.00261312
-1.06614e-05
0.00263807
-2.49469e-05
0.00267293
-3.48629e-05
0.00271078
-3.78451e-05
0.00274388
-3.31001e-05
0.0027658
-2.19238e-05
0.00277302
-7.2146e-06
0.00276549
7.523e-06
0.00274627
1.92277e-05
0.00272028
2.59816e-05
0.00269315
2.71331e-05
0.00267019
2.29646e-05
0.00265596
1.42233e-05
0.00265407
1.88911e-06
0.00266667
-1.25951e-05
0.00269404
-2.73706e-05
0.0027336
-3.95592e-05
0.00278145
-4.78504e-05
0.00282966
-4.8211e-05
0.00287707
-4.74084e-05
-2.82355e-05
0.00250272
-5.44918e-06
0.00251078
-1.61337e-05
0.0025241
-2.66666e-05
0.00254257
-3.69176e-05
0.00256595
-4.66378e-05
0.0025937
-5.52332e-05
0.0026248
-6.1756e-05
0.00265749
-6.47458e-05
0.00268918
-6.2647e-05
0.00271682
-5.46446e-05
0.00273732
-4.0748e-05
0.00274987
-2.52684e-05
0.00275541
-1.16536e-05
0.00275682
-3.53544e-06
0.00275788
-2.66333e-06
0.00276135
-7.0072e-06
0.00276762
-1.19879e-05
0.0027739
-1.15519e-05
0.00277493
-1.04085e-06
0.00276541
1.96322e-05
0.00274252
4.56503e-05
0.00270709
7.0105e-05
0.00266291
8.71282e-05
0.00261561
9.31577e-05
0.00257151
8.66966e-05
0.00253698
6.76672e-05
0.00251788
3.71573e-05
0.00251877
-2.15504e-06
0.00254158
-4.49175e-05
0.00258356
-8.20618e-05
0.00263607
-0.000102253
0.00268592
-9.69074e-05
0.0027198
-6.58537e-05
0.00272928
-1.84573e-05
0.00271322
3.13391e-05
0.0026766
7.16839e-05
0.00262746
9.63703e-05
0.00257446
0.000104039
0.00252571
9.55826e-05
0.00248876
7.21472e-05
0.00247067
3.48015e-05
0.00247746
-1.40192e-05
0.00251188
-6.77985e-05
0.00257037
-0.000114299
0.00264141
-0.000138396
0.00270787
-0.000129409
0.00275295
-8.79862e-05
0.0027665
-2.67551e-05
0.00274781
3.61135e-05
0.00270407
8.53108e-05
0.00264617
0.000113364
0.00258507
0.000119937
0.00253003
0.000108007
0.00248889
8.04095e-05
0.00246869
3.88714e-05
0.00247535
-1.41053e-05
0.00251151
-7.18506e-05
0.00257348
-0.000121899
0.00264964
-0.000148953
0.00272242
-0.000141815
0.0027739
-0.000100011
0.00279216
-3.52328e-05
0.00277497
3.37657e-05
0.00272933
8.93137e-05
0.00266745
0.000121212
0.00260219
0.000127991
0.00254424
0.000113635
0.0025017
8.30403e-05
0.00248102
3.9635e-05
0.00248711
-1.33084e-05
0.00252173
-6.92402e-05
0.0025808
-0.000116781
0.00265333
-0.00014259
0.00272341
-0.000137296
0.0027749
-0.000100491
0.00279643
-4.15178e-05
0.00278456
2.40726e-05
0.00274411
8.01756e-05
0.00268567
0.000115381
0.00262196
0.000125504
0.00256466
0.000112591
0.00252295
8.15691e-05
0.00250354
3.74453e-05
0.0025106
-1.4569e-05
0.00254443
-6.68324e-05
0.00259971
-0.000108606
0.00266544
-0.000128976
0.00272736
-0.000121654
0.00277205
-8.81076e-05
0.00279068
-3.70117e-05
0.00278084
1.91137e-05
0.00274636
6.78932e-05
0.00269564
0.000100176
0.00263925
0.000111447
0.0025878
0.000101592
0.00255048
7.355e-05
0.0025342
3.20496e-05
0.00254264
-1.6433e-05
0.00257496
-6.30918e-05
0.00262497
-9.76665e-05
0.00268193
-0.000111492
0.00273332
-0.000101043
0.00276836
-6.94938e-05
0.00278073
-2.53155e-05
0.00276954
2.09745e-05
0.00273868
5.99996e-05
0.00269515
8.53842e-05
0.00264745
9.4027e-05
0.00260421
8.54851e-05
0.00257329
6.13539e-05
0.00256079
2.52263e-05
0.00256978
-1.68474e-05
0.00259898
-5.64013e-05
0.00264232
-8.42176e-05
0.0026901
-9.33385e-05
0.00273169
-8.17754e-05
0.00275841
-5.32322e-05
0.00276568
-1.54718e-05
0.00275354
2.2584e-05
0.00272578
5.35036e-05
0.00268848
7.26805e-05
0.00264862
7.81833e-05
0.0026132
6.98897e-05
0.00258861
4.89517e-05
0.00257988
1.81258e-05
0.00258943
-1.74863e-05
0.00261587
-5.05072e-05
0.00265367
-7.29867e-05
0.00269437
-7.91585e-05
0.00272886
-6.7697e-05
0.00274997
-4.21643e-05
0.00275418
-9.49303e-06
0.00274196
2.25448e-05
0.00271701
4.76449e-05
0.00268485
6.21301e-05
0.00265157
6.47529e-05
0.00262309
5.57691e-05
0.00260477
3.63023e-05
0.0026008
8.62099e-06
0.0026132
-2.30624e-05
0.00264072
-5.24712e-05
0.00267849
-7.26302e-05
0.0027189
-7.82575e-05
0.00275365
-6.78418e-05
0.00277597
-4.42433e-05
0.00278234
-1.35921e-05
0.00277303
1.68403e-05
0.00275146
4.07985e-05
0.002723
5.44368e-05
0.00269361
5.65228e-05
0.00266887
4.77034e-05
0.00265358
2.95146e-05
0.00265154
3.9338e-06
0.00266504
-2.60959e-05
0.00269432
-5.66575e-05
0.00273654
-8.17743e-05
0.00278719
-9.85033e-05
0.00283786
-9.88837e-05
0.00288691
-9.64552e-05
-5.66118e-05
0.0025027
-8.15028e-06
0.00251071
-2.41386e-05
0.00252399
-3.99501e-05
0.0025425
-5.54256e-05
0.00256609
-7.02263e-05
0.00259433
-8.34788e-05
0.00262632
-9.37476e-05
0.00266029
-9.87077e-05
0.00269348
-9.58468e-05
0.00272246
-8.36161e-05
0.00274353
-6.18224e-05
0.00275577
-3.75063e-05
0.0027602
-1.60813e-05
0.00276014
-3.47434e-06
0.00276012
-2.64766e-06
0.00276351
-1.04021e-05
0.00277096
-1.94287e-05
0.00277929
-1.98899e-05
0.00278235
-4.09342e-06
0.00277381
2.81635e-05
0.00275045
6.90174e-05
0.00271321
0.000107341
0.00266641
0.000133935
0.00261612
0.000143445
0.00256906
0.000133754
0.00253193
0.000104795
0.00251103
5.80639e-05
0.00251155
-2.6811e-06
0.00253614
-6.95035e-05
0.00258231
-0.000128236
0.00264064
-0.000160578
0.00269612
-0.000152386
0.0027335
-0.00010324
0.00274343
-2.83875e-05
0.00272514
4.96283e-05
0.00268476
0.000112073
0.00263143
0.000149698
0.00257441
0.000161059
0.00252199
0.000147995
0.00248186
0.000112282
0.00246157
5.50946e-05
0.00246807
-2.05209e-05
0.00250517
-0.000104896
0.00256952
-0.000178654
0.00264834
-0.000217214
0.00272194
-0.000203014
0.00277108
-0.000137117
0.00278453
-4.0214e-05
0.00276233
5.83152e-05
0.00271334
0.000134301
0.00265007
0.000176641
0.00258426
0.000185745
0.0025253
0.000166968
0.0024808
0.000124909
0.0024578
6.18712e-05
0.00246275
-1.90578e-05
0.00249929
-0.000108388
0.00256455
-0.00018716
0.00264676
-0.000231162
0.00272686
-0.00022192
0.00278458
-0.000157726
0.00280591
-5.65631e-05
0.00278795
5.1726e-05
0.00273852
0.000138736
0.00267151
0.000188224
0.0026012
0.000198303
0.00253888
0.000175951
0.0024927
0.000129226
0.00246921
6.31238e-05
0.00247405
-1.8153e-05
0.00250986
-0.000105045
0.00257272
-0.000179648
0.00265065
-0.000220512
0.00272604
-0.00021269
0.00278132
-0.000155766
0.00280443
-6.46318e-05
0.00279199
3.65105e-05
0.00274927
0.000122899
0.00268753
0.000177118
0.00262014
0.000192896
0.00255927
0.000173461
0.00251461
0.000126231
0.0024936
5.84564e-05
0.00250125
-2.22241e-05
0.00253825
-0.000103828
0.00259863
-0.000168989
0.0026698
-0.00020014
0.00273572
-0.000187582
0.00278194
-0.000134322
0.00279959
-5.46598e-05
0.00278704
3.16606e-05
0.00274914
0.000105792
0.00269504
0.000154279
0.00263569
0.000170793
0.0025819
0.000155382
0.00254317
0.000112281
0.00252699
4.82325e-05
0.0025376
-2.70523e-05
0.00257417
-9.96528e-05
0.00262954
-0.000153038
0.00269144
-0.000173394
0.00274588
-0.00015548
0.00278129
-0.000104909
0.00279152
-3.55454e-05
0.00277654
3.59504e-05
0.00274134
9.52016e-05
0.00269386
0.000132871
0.00264311
0.000144777
0.00259801
0.000130585
0.00256666
9.2701e-05
0.00255548
3.64013e-05
0.00256771
-2.90692e-05
0.00260166
-9.0355e-05
0.00265024
-0.000132794
0.00270239
-0.000145492
0.00274631
-0.000125697
0.00277283
-7.97484e-05
0.00277759
-2.02335e-05
0.00276141
3.87618e-05
0.0027291
8.58168e-05
0.00268762
0.000114154
0.0026446
0.000121207
0.00260743
0.000107064
0.00258282
7.35543e-05
0.00257605
2.4904e-05
0.00258944
-3.08859e-05
0.00262103
-8.20881e-05
0.00266415
-0.000116114
0.00270906
-0.000124068
0.00274566
-0.000104296
0.00276639
-6.289e-05
0.00276796
-1.10687e-05
0.0027516
3.89106e-05
0.0027219
7.73438e-05
0.00268524
9.87869e-05
0.00264839
0.000101601
0.00261779
8.63718e-05
0.0025992
5.48945e-05
0.00259709
1.07332e-05
0.0026134
-3.93748e-05
0.00264626
-8.53365e-05
0.00268969
-0.000116052
0.00273479
-0.000123365
0.00277226
-0.000105306
0.00279485
-6.68384e-05
0.00279918
-1.79155e-05
0.00278605
2.9966e-05
0.00275973
6.71205e-05
0.0027264
8.7765e-05
0.0026927
9.02242e-05
0.00266474
7.56642e-05
0.00264776
4.64917e-05
0.00264594
5.75479e-06
0.00266176
-4.19168e-05
0.00269518
-9.00773e-05
0.00274264
-0.000129229
0.00279838
-0.000154252
0.00285316
-0.000153664
0.00290443
-0.000147726
-8.46048e-05
0.00250267
-1.0818e-05
0.00251058
-3.20518e-05
0.00252378
-5.31453e-05
0.0025423
-7.39536e-05
0.00256617
-9.40948e-05
0.00259514
-0.000112446
0.00262847
-0.000127077
0.0026644
-0.000134636
0.00269999
-0.000131435
0.00273109
-0.000114721
0.00275308
-8.38147e-05
0.00276484
-4.92654e-05
0.00276749
-1.87294e-05
0.00276507
-1.05031e-06
0.00276328
-8.61307e-07
0.00276649
-1.36112e-05
0.00277577
-2.87078e-05
0.00278741
-3.15284e-05
0.00279371
-1.03915e-05
0.00278676
3.51053e-05
0.0027626
9.31813e-05
0.00272249
0.000147453
0.00267154
0.000184883
0.00261663
0.000198352
0.00256505
0.000185339
0.00252395
0.00014589
0.00250026
8.17562e-05
0.00250017
-2.58823e-06
0.00252748
-9.68154e-05
0.00258023
-0.000180986
0.00264777
-0.000228121
0.00271218
-0.000216795
0.00275504
-0.000146106
0.00276547
-3.88117e-05
0.00274338
7.17144e-05
0.00269688
0.00015858
0.00263693
0.000209647
0.00257373
0.000224257
0.00251581
0.000205913
0.00247095
0.000157146
0.00244723
7.88124e-05
0.00245274
-2.60324e-05
0.00249267
-0.000144824
0.00256452
-0.000250509
0.00265465
-0.000307343
0.00274007
-0.000288433
0.00279704
-0.000194082
0.0028116
-5.47732e-05
0.00278436
8.55527e-05
0.00272709
0.000191566
0.00265527
0.000248469
0.0025822
0.000258813
0.00251733
0.000231834
0.00246762
0.000174623
0.00243977
8.97159e-05
0.00244113
-2.04149e-05
0.00247726
-0.000144515
0.00254677
-0.000256676
0.00263743
-0.000321816
0.00272781
-0.000312302
0.0027946
-0.00022452
0.00282124
-8.31992e-05
0.00280354
6.94246e-05
0.00274991
0.000192366
0.0026762
0.000261937
0.00259876
0.000275737
0.00253005
0.00024466
0.00247858
0.000180703
0.00245151
9.01875e-05
0.00245584
-2.2481e-05
0.00249531
-0.000144512
0.00256549
-0.000249826
0.00265203
-0.000307054
0.00273453
-0.00029519
0.0027936
-0.000214839
0.00281696
-8.79903e-05
0.002802
5.14747e-05
0.00275504
0.00016986
0.00268827
0.000243887
0.00261572
0.000265439
0.00255014
0.000239049
0.00250195
0.000174414
0.0024798
8.06095e-05
0.00248985
-3.2277e-05
0.00253291
-0.000146882
0.00260152
-0.000237603
0.00268057
-0.000279186
0.00275167
-0.00025868
0.00279909
-0.000181748
0.00281416
-6.97302e-05
0.00279651
4.93153e-05
0.0027526
0.000149702
0.00269287
0.000214007
0.00262896
0.000234707
0.00257197
0.000212369
0.00253187
0.000152377
0.00251691
6.31985e-05
0.00253184
-4.19827e-05
0.00257531
-0.000143126
0.00263854
-0.000216264
0.00270708
-0.000241932
0.00276516
-0.000213569
0.00280046
-0.000140203
0.00280709
-4.21813e-05
0.00278621
5.68312e-05
0.00274434
0.000137076
0.00269078
0.000186427
0.00263546
0.000200101
0.00258778
0.000178259
0.00255628
0.000124207
0.00254774
4.49439e-05
0.00256533
-4.66682e-05
0.00260651
-0.000131527
0.00266246
-0.000188745
0.0027203
-0.000203332
0.00276688
-0.000172281
0.00279258
-0.000105442
0.00279344
-2.10941e-05
0.00277133
6.08667e-05
0.00273241
0.000124739
0.0026849
0.000161663
0.00263736
0.000168749
0.00259785
0.000146573
0.0025736
9.7807e-05
0.00257011
2.83939e-05
0.00258942
-5.01948e-05
0.00262841
-0.00012108
0.00267875
-0.000166454
0.00272898
-0.000174302
0.00276789
-0.000143208
0.0027876
-8.25973e-05
0.00278525
-8.72185e-06
0.00276301
6.11492e-05
0.00272669
0.00011367
0.00268381
0.00014167
0.00264209
0.00014332
0.00260874
0.00011972
0.00259014
7.34943e-05
0.00259107
9.80073e-06
0.00261317
-6.14776e-05
0.00265347
-0.000125632
0.0027043
-0.000166887
0.00275516
-0.000174224
0.0027956
-0.000145739
0.00281799
-8.92325e-05
0.00281921
-1.91382e-05
0.00280083
4.83455e-05
0.00276811
9.98437e-05
0.00272827
0.000127605
0.00268886
0.000129636
0.00265675
0.000107772
0.00263786
6.53783e-05
0.00263689
6.73186e-06
0.00265642
-6.14529e-05
0.00269576
-0.000129417
0.00275009
-0.000183557
0.00281186
-0.000216017
0.00287085
-0.000212661
0.00292345
-0.000200328
-0.000111017
0.00250261
-1.3432e-05
0.00251038
-3.98154e-05
0.00252341
-6.61766e-05
0.0025419
-9.24452e-05
0.00256607
-0.000118266
0.00259595
-0.000142321
0.00263106
-0.000162194
0.00266972
-0.00017329
0.00270873
-0.000170446
0.00274293
-0.000148924
0.00276624
-0.000107122
0.00277727
-6.02992e-05
0.00277726
-1.87138e-05
0.00277129
4.91571e-06
0.00276684
3.58344e-06
0.00276974
-1.65051e-05
0.00278173
-4.06955e-05
0.00279828
-4.80795e-05
0.00280941
-2.15207e-05
0.00280481
3.96981e-05
0.00277949
0.000118501
0.00273528
0.000191671
0.00267852
0.000241636
0.00261723
0.000259646
0.00255941
0.000243163
0.00251277
0.000192525
0.00248502
0.000109503
0.00248379
-1.35413e-06
0.00251479
-0.000127812
0.002577
-0.0002432
0.00265795
-0.000309067
0.00273518
-0.00029403
0.00278565
-0.000196574
0.0027964
-4.95619e-05
0.00276857
9.9548e-05
0.00271322
0.000213924
0.002644
0.00027887
0.00257238
0.000295873
0.00250709
0.000271206
0.00245574
0.000208498
0.00242646
0.000108089
0.00242795
-2.75218e-05
0.00246718
-0.000184052
0.00254439
-0.000327722
0.00264727
-0.000410224
0.00274999
-0.000391153
0.00282207
-0.000266159
0.0028432
-7.59028e-05
0.00281251
0.000116242
0.0027453
0.000258775
0.00266198
0.000331784
0.00257894
0.000341853
0.00250594
0.000304842
0.0024488
0.000231759
0.00241399
0.000124524
0.00241089
-1.73145e-05
0.00244817
-0.000181789
0.0025254
-0.000333905
0.00262782
-0.00042424
0.00273003
-0.00041451
0.00280575
-0.000300243
0.00283706
-0.000114511
0.00281932
8.71723e-05
0.00276126
0.000250418
0.0026802
0.000343
0.00259441
0.000361529
0.00251778
0.000321286
0.00245988
0.000238603
0.00242943
0.000120639
0.00243533
-2.83783e-05
0.00248193
-0.000191114
0.00256288
-0.000330776
0.00266028
-0.000404455
0.00275048
-0.00038539
0.00281242
-0.000276782
0.00283397
-0.000109543
0.00281395
7.14949e-05
0.00276043
0.000223384
0.00268688
0.000317437
0.00260802
0.000344298
0.0025371
0.000309973
0.00248553
0.000225984
0.00246344
0.000102699
0.00247808
-4.69156e-05
0.00252962
-0.000198428
0.00260826
-0.000316241
0.00269596
-0.000366882
0.00277215
-0.000334875
0.00282016
-0.000229751
0.00283152
-8.1097e-05
0.00280716
7.36791e-05
0.00275538
0.00020148
0.0026883
0.00028109
0.00261857
0.000304439
0.00255789
0.000273048
0.00251689
0.000193372
0.00250459
7.55015e-05
0.00252588
-6.32686e-05
0.00257817
-0.000195418
0.00265037
-0.000288472
0.00272575
-0.000317304
0.00278704
-0.000274866
0.00282146
-0.000174621
0.00282356
-4.42786e-05
0.00279562
8.47751e-05
0.00274574
0.000186949
0.00268482
0.000247345
0.00262396
0.000260964
0.00257339
0.000228829
0.00254228
0.000155322
0.00253777
4.94524e-05
0.00256259
-7.14896e-05
0.00261261
-0.000181545
0.00267683
-0.000252963
0.0027404
-0.000266909
0.00278911
-0.000220989
0.00281316
-0.000129489
0.00280917
-1.71024e-05
0.00278009
8.99414e-05
0.00273347
0.00017136
0.00267892
0.000216215
0.00262616
0.00022151
0.00258418
0.000188549
0.0025609
0.000121087
0.00256203
2.72693e-05
0.00258888
-7.70535e-05
0.00263666
-0.000168858
0.00269489
-0.000224686
0.00275037
-0.000229778
0.00279098
-0.000183816
0.00280881
-0.000100424
0.0028016
-1.51399e-06
0.00277253
9.0217e-05
0.00272864
0.000157564
0.00267868
0.000191621
0.00263153
0.000190477
0.00259536
0.000155889
0.00257734
9.15106e-05
0.00258253
4.61769e-06
0.00261188
-9.08275e-05
0.00266077
-0.000174526
0.00271949
-0.000225612
0.00277584
-0.000230572
0.00281849
-0.00018839
0.00283976
-0.000110501
0.00283699
-1.63709e-05
0.00281256
7.27767e-05
0.00277271
0.000139693
0.00272571
0.000174609
0.00268009
0.00017526
0.00264366
0.000144203
0.00262322
8.58181e-05
0.00262405
5.89964e-06
0.00264863
-8.60399e-05
0.00269503
-0.000175816
0.00275659
-0.000245114
0.00282361
-0.000283035
0.00288521
-0.000274263
0.00293676
-0.000251883
-0.00013402
0.00250253
-1.59641e-05
0.00251007
-4.73485e-05
0.00252282
-7.89276e-05
0.00254116
-0.000110787
0.00256559
-0.000142693
0.0025965
-0.000173233
0.00263384
-0.000199537
0.00267607
-0.000215516
0.00271977
-0.00021415
0.00275831
-0.00018746
0.00278346
-0.000132277
0.00279354
-7.03805e-05
0.00278983
-1.49959e-05
0.00277881
1.59317e-05
0.0027704
1.19951e-05
0.00277262
-1.87285e-05
0.00278828
-5.63523e-05
0.00281176
-7.1561e-05
0.00282979
-3.95518e-05
0.00282859
4.0895e-05
0.00280174
0.000145352
0.00275196
0.000241449
0.00268747
0.00030613
0.0026178
0.000329319
0.00255184
0.000309118
0.00249787
0.000246502
0.00246446
0.000142909
0.00246131
1.79321e-06
0.00249728
-0.00016378
0.00257303
-0.000318948
0.00267312
-0.000409159
0.00276803
-0.000388938
0.00282806
-0.000256603
0.00283807
-5.95707e-05
0.00280155
0.00013606
0.00273397
0.000281514
0.0026525
0.000360333
0.0025702
0.000378176
0.00249571
0.000345697
0.00243569
0.00026851
0.00239711
0.000146671
0.00238899
-1.93989e-05
0.0024221
-0.000217158
0.00250199
-0.000407613
0.00261834
-0.000526575
0.00274209
-0.000514902
0.00283573
-0.000359804
0.0028709
-0.000111071
0.00284206
0.000145079
0.00276634
0.000334499
0.00267007
0.000428057
0.00257459
0.00043733
0.00249099
0.000388437
0.00242436
0.000298393
0.0023819
0.000166987
0.00237648
-1.18993e-05
0.00241968
-0.000224989
0.00250962
-0.000423842
0.00262656
-0.000541182
0.00274032
-0.000528268
0.00282236
-0.000382283
0.00285492
-0.000147072
0.00283446
0.00010763
0.0027707
0.000314186
0.00268181
0.000431884
0.00258721
0.000456133
0.00250206
0.000406434
0.00243767
0.000302997
0.00240516
0.000153146
0.00241527
-3.84855e-05
0.00247159
-0.000247442
0.00256449
-0.00042367
0.00267237
-0.000512337
0.00276921
-0.000482233
0.00283299
-0.000340565
0.00285171
-0.000128254
0.00282534
9.78629e-05
0.00276382
0.0002849
0.00268229
0.000398968
0.00259641
0.000430181
0.00252009
0.000386287
0.00246593
0.000280152
0.00244551
0.000123116
0.00246655
-6.79537e-05
0.00252761
-0.000259495
0.00261597
-0.000404595
0.00271102
-0.00046193
0.0027909
-0.000414756
0.00283863
-0.00027748
0.00284603
-8.84981e-05
0.00281484
0.000104861
0.00275488
0.000261449
0.0026799
0.000356068
0.00260391
0.000380431
0.00253959
0.00033736
0.00249852
0.000234442
0.00249033
8.36926e-05
0.00251939
-9.23267e-05
0.00258109
-0.000257117
0.00266171
-0.000369095
0.00274256
-0.000398151
0.00280563
-0.00033794
0.00283824
-0.000207231
0.00283548
-4.15152e-05
0.00280049
0.000119762
0.00274265
0.000244792
0.00267428
0.000315715
0.00260782
0.000327423
0.00255464
0.000282007
0.00252478
0.000185181
0.00252561
4.86286e-05
0.00255882
-0.000104703
0.00261809
-0.000240813
0.00268998
-0.000324857
0.00275804
-0.000334968
0.00280755
-0.000270495
0.00282901
-0.000150954
0.00281974
-7.83621e-06
0.00278363
0.000126051
0.00272937
0.000225622
0.00266785
0.000277742
0.00261003
0.000279325
0.00256607
0.000232515
0.00254469
0.000142466
0.00255163
2.03234e-05
0.00258702
-0.00011244
0.00264381
-0.000225646
0.00270925
-0.000290128
0.00276869
-0.000289221
0.00280966
-0.00022478
0.00282461
-0.000115376
0.00281203
1.10661e-05
0.002776
0.000126242
0.00272461
0.000208954
0.00266776
0.000248476
0.00261546
0.00024278
0.00257705
0.000194294
0.00256058
0.00010798
0.00257117
-5.96952e-06
0.00260862
-0.000128275
0.00266616
-0.000232068
0.00273189
-0.000291344
0.00279223
-0.000290908
0.00283551
-0.000231676
0.00285445
-0.000129435
0.00284704
-8.96436e-06
0.00281641
0.000103404
0.00276961
0.000186492
0.00271577
0.000228453
0.00266436
0.000226672
0.00262424
0.000184325
0.00260323
0.000106827
0.00260713
1.9974e-06
0.00263783
-0.00011674
0.00269145
-0.000229438
0.00275904
-0.000312704
0.00282885
-0.000352848
0.00289
-0.00033541
0.0029372
-0.00029908
-0.000151576
0.00250241
-1.83769e-05
0.00250961
-5.45408e-05
0.00252191
-9.123e-05
0.00253991
-0.000128789
0.00256445
-0.000167235
0.00259644
-0.000205221
0.00263642
-0.000239514
0.00268317
-0.000262269
0.00273317
-0.000264146
0.00277762
-0.000231912
0.00280524
-0.000159895
0.00281394
-7.90853e-05
0.00280501
-6.06036e-06
0.00278687
3.40632e-05
0.00277293
2.59409e-05
0.00277415
-1.99522e-05
0.00279491
-7.71078e-05
0.00282813
-0.000104779
0.00285582
-6.72472e-05
0.00285927
3.74505e-05
0.00283023
0.000174384
0.00277301
0.000298671
0.00269851
0.000380633
0.00261827
0.000409553
0.00254213
0.000385258
0.00247873
0.000309903
0.00243764
0.000184004
0.0024313
8.13136e-06
0.00247256
-0.000205041
0.00256454
-0.000410931
0.0026896
-0.000534217
0.00280955
-0.000508891
0.00288382
-0.000330868
0.00289271
-6.84594e-05
0.00284367
0.000185102
0.00275932
0.000365861
0.00266212
0.000457528
0.00256689
0.000473405
0.00248142
0.000431168
0.0024099
0.000340035
0.00235734
0.000199231
0.00233554
2.4015e-06
0.00236297
-0.000244591
0.00245012
-0.000494759
0.00258358
-0.000660041
0.00272788
-0.000659201
0.002841
-0.00047292
0.0028908
-0.000160867
0.00286736
0.000168514
0.00278642
0.000415441
0.00267806
0.000536414
0.00256891
0.000546482
0.00247275
0.000484596
0.00239554
0.000375605
0.00234695
0.000215577
0.00234355
-8.50425e-06
0.00239732
-0.000278759
0.00250199
-0.000528505
0.00263244
-0.000671634
0.00275538
-0.000651213
0.00284132
-0.000468219
0.00287278
-0.000178531
0.00284748
0.00013293
0.00277666
0.000385007
0.00267955
0.000528988
0.00257624
0.000559449
0.00248294
0.000499728
0.00241311
0.00037283
0.0023805
0.000185753
0.00239675
-5.47322e-05
0.00246319
-0.000313886
0.00256632
-0.000526795
0.00268179
-0.000627809
0.00278278
-0.000583216
0.00284734
-0.000405133
0.00286352
-0.00014443
0.00283157
0.000129811
0.00276255
0.000353919
0.00267316
0.000488356
0.00258038
0.00052297
0.00249922
0.000467441
0.00244366
0.000335717
0.00242642
0.000140357
0.00245472
-9.62612e-05
0.00252471
-0.00032948
0.0026207
-0.000500589
0.00272039
-0.000561615
0.00280169
-0.000496057
0.0028481
-0.000323891
0.00285183
-9.22237e-05
0.00281493
0.000141759
0.00274795
0.000328427
0.00266593
0.00043809
0.00258427
0.000462085
0.00251705
0.000404581
0.00247699
0.000274504
0.00247405
8.66301e-05
0.00251133
-0.000129607
0.00258161
-0.000327395
0.00266866
-0.000456145
0.00275257
-0.000482056
0.00281544
-0.000400812
0.00284528
-0.00023707
0.00283781
-3.40433e-05
0.00279671
0.000160862
0.00273208
0.000309417
0.00265732
0.000390474
0.00258617
0.000398577
0.00253133
0.000336841
0.00250385
0.000212668
0.002511
4.14803e-05
0.00255285
-0.000146556
0.00262045
-0.000308411
0.00269812
-0.000402531
0.00276847
-0.000405313
0.00281701
-0.000319039
0.00283503
-0.000168971
0.00282057
6.62463e-06
0.00277818
0.000168436
0.00271733
0.000286473
0.00264989
0.000345184
0.00258803
0.000341178
0.00254317
0.000277382
0.00252486
0.000160775
0.00253854
6.63771e-06
0.00258257
-0.000156465
0.00264735
-0.00029043
0.0027181
-0.000360875
0.00277937
-0.000350485
0.00281897
-0.000264382
0.00283015
-0.000126556
0.00281216
2.90534e-05
0.00276979
0.000168612
0.00271185
0.000266893
0.00264913
0.000311194
0.00259277
0.000299144
0.00255332
0.000233747
0.00253963
0.000121664
0.00255654
-2.28775e-05
0.00260212
-0.000173854
0.00266716
-0.000297105
0.0027378
-0.000361991
0.00279975
-0.00035286
0.0028417
-0.000273622
0.00285713
-0.00014487
0.00284482
3.34877e-06
0.00280847
0.000139757
0.00275564
0.000239319
0.00269607
0.000288023
0.00264007
0.000282672
0.00259759
0.000226803
0.0025775
0.000126919
0.00258579
-6.29266e-06
0.00262303
-0.000153979
0.00268274
-0.000289151
0.0027536
-0.000383562
0.00282245
-0.000421695
0.00287933
-0.000392289
0.00291882
-0.000338568
-0.000161988
0.00250224
-2.06215e-05
0.00250895
-6.12485e-05
0.00252058
-0.000102853
0.00253795
-0.000146164
0.00256234
-0.000191619
0.00259531
-0.000238196
0.00263826
-0.000282467
0.00269063
-0.000314634
0.002749
-0.000322515
0.00280151
-0.000284424
0.00283253
-0.000190918
0.00283961
-8.61626e-05
0.00282367
9.87917e-06
0.00279563
6.20988e-05
0.00277359
4.79821e-05
0.0027728
-1.91611e-05
0.00280015
-0.000104456
0.00284674
-0.00015137
0.00288793
-0.000108434
0.00289793
2.74432e-05
0.00286609
0.000206225
0.00279911
0.000365652
0.00271183
0.000467918
0.00261849
0.000502888
0.00252986
0.000473885
0.00245473
0.000385037
0.00240358
0.000235154
0.0023906
2.11124e-05
0.00243019
-0.000244636
0.00252957
-0.00051031
0.00267759
-0.000682231
0.00283329
-0.000664597
0.00293834
-0.000435919
0.00295644
-8.6555e-05
0.00289541
0.000246125
0.00278988
0.000471393
0.0026727
0.000574713
0.00256209
0.000584012
0.00246374
0.000529514
0.00237772
0.000426061
0.00230866
0.000268293
0.00227599
3.50708e-05
0.00230707
-0.000275673
0.00241111
-0.000598796
0.00256495
-0.000813886
0.00272545
-0.000819703
0.00284941
-0.00059688
0.00290639
-0.000217844
0.00288595
0.000188949
0.00280149
0.000499904
0.00268326
0.000654648
0.002561
0.00066874
0.00245177
0.00059382
0.00236455
0.000462825
0.00231282
0.000267309
0.00231526
-1.09394e-05
0.00238088
-0.00034438
0.00249761
-0.000645239
0.00263675
-0.000810766
0.00276478
-0.000779243
0.00285292
-0.000556359
0.00288355
-0.000209164
0.0028542
0.000162276
0.00277693
0.000462276
0.00267218
0.000633746
0.00256092
0.000670704
0.00246067
0.000599976
0.00238717
0.000446331
0.0023563
0.000216622
0.00237928
-7.77103e-05
0.00245422
-0.000388822
0.00256412
-0.000636695
0.00268321
-0.000746903
0.00278523
-0.000685239
0.00284929
-0.000469188
0.00286362
-0.000158758
0.00282804
0.000165382
0.00275363
0.000428329
0.002658
0.000583993
0.00255948
0.000621484
0.00247469
0.000552236
0.00241911
0.000391294
0.00240608
0.000153385
0.00244144
-0.00013162
0.00251846
-0.000406497
0.00261905
-0.000601176
0.00272016
-0.000662732
0.00280045
-0.000576341
0.00284445
-0.000367898
0.00284493
-9.27e-05
0.00280392
0.000182772
0.002732
0.000400343
0.00264484
0.000525257
0.00255906
0.000547858
0.00249029
0.000473355
0.00245245
0.000312338
0.00245541
8.36702e-05
0.00250033
-0.000174523
0.00257719
-0.00040425
0.0026678
-0.000546757
0.00275194
-0.000566198
0.0028126
-0.000461469
0.00283886
-0.000263338
0.00282714
-2.2319e-05
0.00278135
0.00020665
0.00271182
0.000378944
0.00263255
0.000469752
0.00255837
0.000472757
0.00250337
0.000391835
0.00247949
0.000236555
0.00249346
2.75064e-05
0.00254319
-0.000196285
0.00261705
-0.000382273
0.00269774
-0.00048322
0.00276778
-0.000475349
0.00281361
-0.000364877
0.00282759
-0.000182942
0.00280843
2.57755e-05
0.00276109
0.000215783
0.00269536
0.000352205
0.00262376
0.000416782
0.00255954
0.000405399
0.00251532
0.000321603
0.00250131
0.000174782
0.00252215
-1.42064e-05
0.00257394
-0.000208255
0.0026446
-0.000361083
0.00271791
-0.000434188
0.00277848
-0.000411058
0.00281506
-0.000300957
0.00282189
-0.00013339
0.00279894
5.20058e-05
0.0027514
0.000216146
0.00268848
0.000329816
0.00262158
0.000378096
0.00256283
0.000357893
0.00252395
0.000272632
0.00251434
0.000131267
0.00253799
-4.65278e-05
0.00259076
-0.00022662