/*--------------------------------*- C++ -*----------------------------------*\
  =========                 |
  \\      /  F ield         | OpenFOAM: The Open Source CFD Toolbox
   \\    /   O peration     | Website:  https://openfoam.org
    \\  /    A nd           | Version:  11
     \\/     M anipulation  |
\*---------------------------------------------------------------------------*/
FoamFile
{
    format      ascii;
    class       surfaceScalarField;
    location    "16.711331";
    object      phi;
}
// * * * * * * * * * * * * * * * * * * * * * * * * * * * * * * * * * * * * * //

dimensions      [0 3 -1 0 0 0 0];

internalField   nonuniform List<scalar> 
14638
(
0.00250211
-2.11023e-06
0.00250869
-6.57653e-06
0.00252029
-1.15993e-05
0.00253752
-1.72349e-05
0.00256089
-2.3371e-05
0.00259047
-2.9581e-05
0.00262567
-3.51987e-05
0.00266479
-3.9123e-05
0.00270503
-4.02386e-05
0.00274242
-3.73888e-05
0.00277245
-3.00321e-05
0.00279141
-1.89527e-05
0.00279681
-5.40114e-06
0.00278768
9.12334e-06
0.00276522
2.24693e-05
0.00273313
3.20809e-05
0.0026972
3.59314e-05
0.00266405
3.31497e-05
0.00263993
2.41229e-05
0.00262943
1.04967e-05
0.00263443
-4.99336e-06
0.00265308
-1.86504e-05
0.00267943
-2.63521e-05
0.00270444
-2.50093e-05
0.00271885
-1.44139e-05
0.00271657
2.28058e-06
0.0026964
2.01766e-05
0.00266149
3.49087e-05
0.00261765
4.38355e-05
0.00257176
4.58912e-05
0.00253083
4.09262e-05
0.00250162
2.92176e-05
0.00249014
1.14772e-05
0.00250078
-1.06457e-05
0.00253448
-3.36975e-05
0.00258657
-5.20884e-05
0.00264616
-5.95911e-05
0.00269867
-5.25032e-05
0.00273091
-3.22399e-05
0.00273586
-4.95307e-06
0.00271421
2.16453e-05
0.00267252
4.16961e-05
0.0026199
5.26159e-05
0.00256558
5.43214e-05
0.00251788
4.76975e-05
0.00248433
3.35526e-05
0.00247171
1.26175e-05
0.00248517
-1.34561e-05
0.00252585
-4.06831e-05
0.00258826
-6.24135e-05
0.0026596
-7.13363e-05
0.00272277
-6.31719e-05
0.00276227
-3.94965e-05
0.00276965
-7.38175e-06
0.00274566
2.399e-05
0.00269835
4.73104e-05
0.00263904
5.93065e-05
0.00257883
6.02184e-05
0.00252698
5.18479e-05
0.00249112
3.58622e-05
0.00247768
1.34403e-05
0.00249131
-1.3637e-05
0.00253275
-4.14336e-05
0.00259633
-6.35813e-05
0.00266951
-7.31857e-05
0.00273558
-6.60713e-05
0.00277884
-4.32606e-05
0.00278981
-1.09618e-05
0.00276785
2.19576e-05
0.00272037
4.7479e-05
0.00265928
6.1088e-05
0.00259702
6.22619e-05
0.00254401
5.30147e-05
0.00250813
3.58735e-05
0.00249523
1.29e-05
0.00250883
-1.3602e-05
0.00254855
-3.97192e-05
0.00260834
-5.9783e-05
0.00267646
-6.81211e-05
0.0027381
-6.16448e-05
0.00277959
-4.14917e-05
0.00279234
-1.27422e-05
0.00277492
1.74197e-05
0.00273285
4.20712e-05
0.00267633
5.65145e-05
0.00261722
5.91121e-05
0.00256639
5.08328e-05
0.00253239
3.39942e-05
0.00252108
1.13074e-05
0.00253509
-1.40014e-05
0.00257268
-3.75965e-05
0.00262703
-5.43447e-05
0.00268694
-5.99124e-05
0.00273959
-5.26476e-05
0.00277398
-3.43943e-05
0.00278374
-9.76091e-06
0.00276821
1.55312e-05
0.00273191
3.63052e-05
0.00268291
4.89954e-05
0.00263094
5.19711e-05
0.00258561
4.53337e-05
0.00255513
3.04795e-05
0.00254531
9.81934e-06
0.00255847
-1.31587e-05
0.0025924
-3.39369e-05
0.00264019
-4.77865e-05
0.00269147
-5.12861e-05
0.00273516
-4.3684e-05
0.00276236
-2.71994e-05
0.00276846
-6.0999e-06
0.00275363
1.48239e-05
0.00272203
3.16026e-05
0.00268031
4.17265e-05
0.00263623
4.40765e-05
0.00259766
3.8572e-05
0.00257168
2.59804e-05
0.0025636
8.08011e-06
0.00257565
-1.20525e-05
0.00260586
-3.02145e-05
0.00264794
-4.20739e-05
0.00269259
-4.46528e-05
0.00273007
-3.74783e-05
0.00275279
-2.2721e-05
0.00275708
-4.29109e-06
0.00274352
1.35645e-05
0.00271603
2.74831e-05
0.0026805
3.55295e-05
0.00264349
3.70081e-05
0.00261153
3.19671e-05
0.00259059
2.09426e-05
0.00258538
5.20402e-06
0.00259818
-1.27938e-05
0.0026276
-2.94215e-05
0.00266832
-4.07223e-05
0.00271209
-4.37755e-05
0.00274992
-3.7823e-05
0.00277446
-2.4545e-05
0.00278186
-7.39651e-06
0.00277227
9.59371e-06
0.00274924
2.30243e-05
0.00271838
3.08562e-05
0.00268592
3.24614e-05
0.00265777
2.81492e-05
0.00263915
1.86248e-05
0.00263431
4.8386e-06
0.002646
-1.16905e-05
0.00267455
-2.85474e-05
0.00271718
-4.26313e-05
0.00276818
-5.10031e-05
0.00282009
-5.19038e-05
0.00286549
-4.54002e-05
0.00289878
-3.32888e-05
0.00291724
-1.84683e-05
0.00292127
-4.02785e-06
0.00291366
7.60725e-06
0.00289885
1.48133e-05
0.00288092
1.79316e-05
0.00286479
1.61271e-05
0.00285044
1.43509e-05
4.66267e-06
0.00250209
-4.19976e-06
0.00250861
-1.30988e-05
0.00252014
-2.31314e-05
0.00253734
-3.44305e-05
0.00256075
-4.6786e-05
0.00259053
-5.93573e-05
0.00262615
-7.08168e-05
0.00266595
-7.89192e-05
0.00270709
-8.13854e-05
0.00274547
-7.57705e-05
0.00277636
-6.09194e-05
0.0027959
-3.84898e-05
0.00280151
-1.10102e-05
0.00279209
1.85429e-05
0.00276876
4.57999e-05
0.00273535
6.54836e-05
0.00269788
7.34029e-05
0.00266327
6.77652e-05
0.00263805
4.93419e-05
0.0026271
2.14464e-05
0.00263251
-1.04018e-05
0.0026525
-3.86471e-05
0.00268087
-5.47167e-05
0.00270795
-5.20881e-05
0.0027238
-3.02695e-05
0.00272194
4.13865e-06
0.00270121
4.0911e-05
0.00266507
7.10479e-05
0.00261966
8.9246e-05
0.00257207
9.34808e-05
0.00252946
8.35412e-05
0.00249871
5.99657e-05
0.00248614
2.40459e-05
0.00249658
-2.10861e-05
0.00253139
-6.85115e-05
0.00258597
-0.000106667
0.00264884
-0.000122454
0.00270433
-0.000107995
0.0027383
-6.62158e-05
0.00274337
-1.00206e-05
0.00272051
4.45083e-05
0.00267687
8.53318e-05
0.00262212
0.00010737
0.00256571
0.000110726
0.00251605
9.73616e-05
0.00248073
6.88691e-05
0.00246687
2.64815e-05
0.00248016
-2.6749e-05
0.00252229
-8.28089e-05
0.00258776
-0.000127887
0.00266302
-0.000146595
0.00272971
-0.000129859
0.00277118
-8.09723e-05
0.00277858
-1.47777e-05
0.00275298
4.95923e-05
0.0027032
9.70898e-05
0.00264129
0.000121212
0.00257872
0.000122789
0.0025248
0.00010577
0.00248706
7.35962e-05
0.00247205
2.84485e-05
0.00248483
-2.64079e-05
0.00252662
-8.32232e-05
0.00259205
-0.000129013
0.0026683
-0.000149438
0.00273782
-0.000135594
0.00278388
-8.93178e-05
0.0027962
-2.32844e-05
0.00277396
4.42034e-05
0.00272489
9.65457e-05
0.00266154
0.000124434
0.0025969
0.000126907
0.00254165
0.000108264
0.00250379
7.37288e-05
0.00248937
2.73266e-05
0.00250231
-2.65426e-05
0.00254261
-8.00226e-05
0.0026042
-0.000121376
0.00267483
-0.000138747
0.00273891
-0.000125721
0.00278214
-8.47278e-05
0.00279568
-2.62768e-05
0.00277813
3.4968e-05
0.0027352
8.49997e-05
0.00267734
0.000114377
0.0026166
0.000119847
0.00256408
0.000103357
0.0025286
6.94706e-05
0.00251644
2.34722e-05
0.00253065
-2.82121e-05
0.00256969
-7.66332e-05
0.00262635
-0.000111011
0.0026887
-0.000122264
0.00274312
-0.00010706
0.00277817
-6.94477e-05
0.00278753
-1.91215e-05
0.00277089
3.21673e-05
0.00273319
7.40081e-05
0.00268279
9.9392e-05
0.00262955
0.000105215
0.00258315
9.17332e-05
0.00255199
6.1643e-05
0.00254218
1.96294e-05
0.00255633
-2.73096e-05
0.00259223
-6.98381e-05
0.0026425
-9.80564e-05
0.00269605
-0.000104834
0.00274109
-8.87272e-05
0.00276842
-5.4534e-05
0.00277355
-1.12258e-05
0.00275705
3.1324e-05
0.00272355
6.51018e-05
0.00268009
8.51887e-05
0.00263466
8.95056e-05
0.00259525
7.79812e-05
0.0025691
5.21295e-05
0.00256172
1.5465e-05
0.00257543
-2.57676e-05
0.00260809
-6.28728e-05
0.00265285
-8.68385e-05
0.00269974
-9.15349e-05
0.00273839
-7.61345e-05
0.00276099
-4.53227e-05
0.00276401
-7.30321e-06
0.0027484
2.91682e-05
0.00271861
5.72794e-05
0.00268092
7.32171e-05
0.00264222
7.57115e-05
0.00260924
6.49467e-05
0.00258816
4.20165e-05
0.00258388
9.48462e-06
0.00259868
-2.75963e-05
0.00263094
-6.16734e-05
0.00267473
-8.4518e-05
0.0027211
-9.01445e-05
0.00276043
-7.71558e-05
0.00278512
-4.92312e-05
0.00279137
-1.36455e-05
0.00277968
2.12779e-05
0.00275409
4.86192e-05
0.00272063
6.43145e-05
0.00268589
6.72003e-05
0.00265605
5.79873e-05
0.00263656
3.8123e-05
0.00263188
9.51785e-06
0.0026449
-2.47126e-05
0.00267587
-5.95143e-05
0.00272161
-8.83708e-05
0.00277576
-0.000105161
0.00283019
-0.000106332
0.002877
-9.22073e-05
0.0029104
-6.66898e-05
0.00292782
-3.58877e-05
0.00292997
-6.17985e-06
0.00292008
1.74969e-05
0.00290293
3.19602e-05
0.00288294
3.79258e-05
0.00286517
3.38985e-05
0.00284959
2.99303e-05
9.54425e-06
0.00250205
-6.24733e-06
0.00250846
-1.95077e-05
0.00251985
-3.45258e-05
0.00253696
-5.15413e-05
0.00256046
-7.02815e-05
0.00259062
-8.95173e-05
0.00262707
-0.00010727
0.00266822
-0.000120066
0.0027112
-0.000124365
0.00275158
-0.000116151
0.00278416
-9.35041e-05
0.00280483
-5.91569e-05
0.0028108
-1.69847e-05
0.00280074
2.86088e-05
0.00277563
7.09047e-05
0.00273956
0.000101561
0.00269902
0.000113943
0.00266154
0.000105243
0.00263426
7.6619e-05
0.0026226
3.31102e-05
0.00262906
-1.6865e-05
0.00265197
-6.15566e-05
0.00268452
-8.72639e-05
0.00271575
-8.33156e-05
0.00273428
-4.88035e-05
0.00273287
5.5478e-06
0.00271055
6.32332e-05
0.00267154
0.000110059
0.00262272
0.00013806
0.00257168
0.000144526
0.00252582
0.0001294
0.00249231
9.34762e-05
0.00247798
3.83755e-05
0.00248851
-3.16184e-05
0.00252611
-0.000106105
0.00258618
-0.000166737
0.00265589
-0.000192169
0.0027173
-0.000169408
0.00275428
-0.000103193
0.00275881
-1.4547e-05
0.00273267
7.06449e-05
0.00268448
0.00013352
0.00262508
0.000166774
0.00256446
0.000171343
0.00251111
0.000150716
0.0024727
0.000107275
0.00245679
4.23954e-05
0.00246991
-3.98739e-05
0.00251464
-0.000127539
0.00258577
-0.000199017
0.00266873
-0.000229551
0.00274279
-0.00020392
0.00278867
-0.000126856
0.00279617
-2.22712e-05
0.00276694
7.88139e-05
0.00271165
0.000152384
0.00264412
0.000188738
0.00257675
0.00019016
0.00251889
0.000163637
0.00247775
0.000114729
0.00245992
4.62801e-05
0.00247116
-3.76465e-05
0.00251376
-0.000125827
0.00258287
-0.000198121
0.002665
-0.000231564
0.00274095
-0.000211545
0.00279211
-0.00014048
0.00280685
-3.80168e-05
0.00278392
6.71319e-05
0.00273171
0.000148753
0.00266397
0.000192178
0.00259477
0.000196107
0.00253541
0.000167619
0.00249422
0.000114923
0.00247774
4.38039e-05
0.00249075
-3.9549e-05
0.00253375
-0.00012303
0.00260017
-0.000187797
0.00267622
-0.000214792
0.00274458
-0.000194078
0.00278992
-0.00013007
0.00280332
-3.96752e-05
0.00278395
5.43364e-05
0.00273823
0.000130717
0.00267719
0.00017542
0.00261326
0.000183775
0.00255785
0.000158764
0.00252032
0.000107003
0.00250771
3.60773e-05
0.00252381
-4.43089e-05
0.00256705
-0.000119874
0.00262919
-0.000173147
0.00269656
-0.000189633
0.00275398
-0.000164482
0.00278933
-0.000104796
0.00279658
-2.63726e-05
0.0027764
5.23439e-05
0.0027348
0.000115605
0.00268092
0.000153281
0.00262492
0.000161207
0.00257669
0.000139964
0.00254492
9.3414e-05
0.00253622
2.83277e-05
0.00255352
-4.46065e-05
0.00259425
-0.000110563
0.00264988
-0.000153686
0.00270781
-0.00016277
0.00275504
-0.00013596
0.00278189
-8.13838e-05
0.00278422
-1.35537e-05
0.00276354
5.20031e-05
0.00272556
0.000103081
0.00267818
0.00013257
0.00262991
0.000137776
0.00258905
0.000118846
0.00256312
7.80537e-05
0.00255792
2.06688e-05
0.00257574
-4.35866e-05
0.00261378
-0.000100913
0.00266399
-0.000137048
0.00271501
-0.000142557
0.00275549
-0.000116617
0.00277728
-6.71068e-05
0.00277719
-7.21953e-06
0.00275706
4.92984e-05
0.00272232
9.2023e-05
0.00268015
0.000115384
0.00263809
0.000117778
0.00260333
9.9707e-05
0.00258244
6.29006e-05
0.00258057
1.13539e-05
0.00259987
-4.68932e-05
0.00263796
-9.97611e-05
0.00268768
-0.000134243
0.00273872
-0.000141186
0.00278047
-0.000118901
0.00280492
-7.3679e-05
0.00280851
-1.72384e-05
0.00279245
3.73425e-05
0.00276165
7.94105e-05
0.00272306
0.000102905
0.00268396
0.000106302
0.00265107
9.08828e-05
0.00263027
5.89148e-05
0.00262646
1.3336e-05
0.00264263
-4.08875e-05
0.00267866
-9.55444e-05
0.0027304
-0.000140114
0.00279021
-0.000164968
0.00284876
-0.000164877
0.00289744
-0.000140894
0.00293036
-9.96105e-05
0.00294531
-5.08368e-05
0.00294365
-4.51261e-06
0.00292936
3.17839e-05
0.00290786
5.34592e-05
0.00288418
6.16088e-05
0.00286356
5.45129e-05
0.00284614
4.7356e-05
1.44686e-05
0.00250198
-8.22813e-06
0.00250821
-2.57346e-05
0.00251937
-4.56918e-05
0.00253633
-6.84937e-05
0.0025599
-9.38589e-05
0.0025906
-0.000120216
0.00262829
-0.000144959
0.00267149
-0.000163263
0.00271731
-0.000170182
0.0027608
-0.000159644
0.00279602
-0.000128728
0.00281847
-8.16075e-05
0.00282508
-2.35871e-05
0.00281406
3.96282e-05
0.0027862
9.87601e-05
0.00274594
0.000141823
0.00270061
0.000159277
0.00265867
0.000147182
0.00262817
0.000107116
0.00261535
4.59283e-05
0.00262342
-2.49335e-05
0.0026509
-8.90361e-05
0.00269008
-0.000126443
0.00272789
-0.000121126
0.00275061
-7.15246e-05
0.00274978
6.37857e-06
0.0027248
8.82126e-05
0.00268118
0.000153681
0.00262704
0.000192202
0.00257069
0.000200868
0.00251992
0.000180174
0.00248222
0.00013118
0.00246518
5.54117e-05
0.00247591
-4.23482e-05
0.00251808
-0.000148281
0.00258717
-0.000235823
0.00266795
-0.000272951
0.0027386
-0.000240057
0.00277986
-0.000144456
0.00278297
-1.76533e-05
0.0027512
0.000102412
0.00269559
0.000189133
0.00262887
0.000233496
0.00256185
0.000238359
0.00250303
0.000209536
0.00245992
0.000150388
0.0024402
6.21196e-05
0.00245122
-5.08999e-05
0.00249712
-0.000173434
0.00257416
-0.000276055
0.00266756
-0.000322955
0.00275373
-0.000290095
0.00280889
-0.000182014
0.00281937
-3.27525e-05
0.00278658
0.000111609
0.00272369
0.000215275
0.00264772
0.000264704
0.00257299
0.000264888
0.00250908
0.00022755
0.00246269
0.000161121
0.00244052
6.84495e-05
0.00244978
-4.69043e-05
0.00249448
-0.000170534
0.00256999
-0.000273622
0.00266091
-0.000322491
0.00274532
-0.000295955
0.00280248
-0.000197638
0.00281971
-5.52474e-05
0.00279564
9.12019e-05
0.00273932
0.000205077
0.00266575
0.00026574
0.00259034
0.000271518
0.0025253
0.000232656
0.00247973
0.0001605
0.00246131
6.22216e-05
0.00247611
-5.43504e-05
0.00252494
-0.00017186
0.00259971
-0.000262563
0.00268389
-0.000298979
0.00275767
-0.000267855
0.00280453
-0.000176929
0.0028159
-5.10478e-05
0.00279225
7.7988e-05
0.00274136
0.000181603
0.0026752
0.000241582
0.00260668
0.000252303
0.00254756
0.000217875
0.00250796
0.00014661
0.00249601
4.8029e-05
0.00251624
-6.45385e-05
0.00256658
-0.000170223
0.00263693
-0.000243487
0.00271117
-0.000263875
0.00277221
-0.000225526
0.00280718
-0.000139764
0.00281056
-2.97555e-05
0.00278444
7.84706e-05
0.00273644
0.000163601
0.00267694
0.00021278
0.00261677
0.000221382
0.00256611
0.000190615
0.00253415
0.000125383
0.00252803
3.44396e-05
0.0025508
-6.73697e-05
0.00259894
-0.000158705
0.00266211
-0.000216854
0.00272572
-0.000226382
0.00277538
-0.000185619
0.00280099
-0.000106992
0.00279894
-1.15112e-05
0.002772
7.89488e-05
0.00272734
0.000147745
0.00267412
0.000185789
0.0026217
0.000190193
0.00257893
0.00016162
0.00255379
0.000103193
0.00255232
2.21311e-05
0.00257649
-6.77562e-05
0.00262227
-0.000146686
0.00267977
-0.000194553
0.00273592
-0.000198705
0.00277828
-0.000158976
0.00279846
-8.72922e-05
0.00279385
-2.60516e-06
0.00276734
7.58098e-05
0.00272567
0.000133691
0.00267725
0.000163806
0.00263055
0.000164479
0.00259351
0.000136746
0.00257328
8.31328e-05
0.00257523
9.39449e-06
0.00260109
-7.27511e-05
0.00264718
-0.000145846
0.00270453
-0.000191594
0.00276115
-0.000197809
0.00280539
-0.000163145
0.00282899
-9.72787e-05
0.00282878
-1.70286e-05
0.00280681
5.93141e-05
0.00276911
0.000117117
0.0027237
0.000148313
0.00267883
0.000151169
0.00264202
0.000127695
0.00261986
8.10731e-05
0.00261775
1.54475e-05
0.00263871
-6.18505e-05
0.00268177
-0.000138606
0.0027412
-0.00019954
0.00280755
-0.000231323
0.00287019
-0.000227511
0.00291998
-0.00019068
0.00295121
-0.000130841
0.00296234
-6.19695e-05
0.00295555
2.27145e-06
0.00293574
5.15954e-05
0.00290898
8.02216e-05
0.00288105
8.9543e-05
0.0028573
7.82627e-05
0.00283829
6.63586e-05
1.87401e-05
0.00250188
-1.01126e-05
0.00250785
-3.16963e-05
0.00251867
-5.65123e-05
0.00253535
-8.5174e-05
0.00255896
-0.000117468
0.0025903
-0.000151559
0.0026296
-0.000184256
0.00267557
-0.000209234
0.00272533
-0.000219946
0.00277318
-0.000207497
0.00281207
-0.000167613
0.00283698
-0.000106524
0.0028445
-3.11041e-05
0.00283224
5.18876e-05
0.00280063
0.000130374
0.00275457
0.00018788
0.00270255
0.000211295
0.00265435
0.000195387
0.00261926
0.0001422
0.0026047
6.04885e-05
0.00261493
-3.5157e-05
0.00264887
-0.000122979
0.00269759
-0.000175167
0.00274492
-0.000168449
0.00277361
-0.000100219
0.00277345
6.53769e-06
0.00274451
0.000117154
0.00269428
0.000203911
0.0026327
0.000253778
0.0025691
0.000264472
0.0025116
0.000237674
0.00246803
0.000174744
0.00244705
7.63986e-05
0.00245781
-5.31162e-05
0.00250622
-0.000196689
0.00258804
-0.000317641
0.00268491
-0.000369819
0.00276918
-0.000324326
0.00281656
-0.000191835
0.00281714
-1.82412e-05
0.00277679
0.000142762
0.00271037
0.000255556
0.00263343
0.000310435
0.00255782
0.000313972
0.00249169
0.000275661
0.00244168
0.000200406
0.00241498
8.8814e-05
0.00242022
-5.614e-05
0.00246468
-0.000217894
0.00254741
-0.000358779
0.00265334
-0.000428885
0.00275538
-0.000392134
0.00282458
-0.00025122
0.00284253
-5.07032e-05
0.00280868
0.000145459
0.00273815
0.000285805
0.00265196
0.000350895
0.00256753
0.000349317
0.00249532
0.000299762
0.00244183
0.000214606
0.00241468
9.5601e-05
0.00242349
-5.57093e-05
0.00247393
-0.000220977
0.00256001
-0.000359696
0.00266256
-0.00042505
0.00275597
-0.000389359
0.00281769
-0.000259355
0.00283516
-7.27185e-05
0.00280794
0.000118417
0.0027461
0.000266917
0.00266567
0.000346171
0.00258303
0.000354155
0.0025114
0.000304295
0.00246117
0.000210726
0.00244189
8.14982e-05
0.002461
-7.3459e-05
0.00251873
-0.000229586
0.00260431
-0.000348141
0.00269789
-0.000392558
0.00277714
-0.000347108
0.00282457
-0.000224356
0.00283213
-5.86146e-05
0.00280193
0.00010819
0.00274365
0.000239886
0.0026706
0.000314628
0.00259636
0.000326546
0.00253319
0.000281047
0.00249209
0.000187705
0.0024824
5.77205e-05
0.002509
-9.11396e-05
0.00256852
-0.000229742
0.00264828
-0.000323248
0.00272966
-0.000345257
0.00279396
-0.000289825
0.00282781
-0.000173617
0.00282625
-2.81892e-05
0.00279273
0.00011199
0.0027367
0.000219631
0.00267008
0.000279393
0.0026047
0.000286763
0.00255139
0.000243925
0.00251996
0.000156818
0.00251804
3.63552e-05
0.00254825
-9.75811e-05
0.00260544
-0.000215889
0.00267693
-0.000288342
0.00274615
-0.00029561
0.00279766
-0.000237128
0.00282123
-0.000130559
0.00281388
-4.15903e-06
0.00277957
0.000113259
0.00272702
0.000200294
0.00266685
0.000245959
0.00260954
0.000247502
0.00256478
0.000206381
0.00254118
0.000126786
0.00254494
1.8375e-05
0.00257716
-9.9979e-05
0.00263196
-0.000201484
0.00269726
-0.00025985
0.00275827
-0.000259715
0.00280179
-0.000202498
0.00281952
-0.00010502
0.00280949
7.42363e-06
0.00277569
0.000109611
0.00272617
0.00018321
0.00267065
0.000219328
0.00261876
0.000216369
0.00257943
0.000176074
0.00256055
0.000102015
0.00256763
2.30651e-06
0.00260151
-0.000106625
0.00265662
-0.000200959
0.00272185
-0.000256825
0.00278358
-0.000259538
0.00282945
-0.000209018
0.00285129
-0.000119116
0.00284649
-1.22253e-05
0.00281794
8.78654e-05
0.00277269
0.000162361
0.00271988
0.000201126
0.00266879
0.000202256
0.00262795
0.000168542
0.00260487
0.000104152
0.00260553
1.47862e-05
0.00263266
-8.89855e-05
0.00268384
-0.000189786
0.00275115
-0.000266847
0.00282316
-0.000303336
0.00288818
-0.000292526
0.00293707
-0.000239572
0.00296483
-0.000158601
0.00297088
-6.8022e-05
0.0029583
1.48495e-05
0.00293282
7.70789e-05
0.00290103
0.000112012
0.00286945
0.000121123
0.00284332
0.000104396
0.0028241
8.55736e-05
2.10449e-05
0.00250175
-1.18651e-05
0.00250735
-3.72908e-05
0.00251767
-6.68346e-05
0.00253391
-0.000101414
0.00255743
-0.000140988
0.00258945
-0.000183577
0.00263068
-0.000225491
0.00268018
-0.000258736
0.00273517
-0.000274937
0.00278886
-0.000261181
0.00283261
-0.000211365
0.0028609
-0.00013481
0.00286984
-4.00417e-05
0.00285609
6.56369e-05
0.00281947
0.000166987
0.00276561
0.000241746
0.00270461
0.000272293
0.002648
0.000251997
0.00260668
0.000183515
0.00258957
7.75987e-05
0.00260246
-4.80417e-05
0.00264507
-0.000165595
0.00270693
-0.000237019
0.00276743
-0.000228954
0.0028043
-0.000137087
0.00280485
5.98761e-06
0.00277029
0.000151717
0.00271108
0.000263122
0.00263971
0.00032514
0.00256675
0.000337437
0.00250058
0.000303842
0.0024493
0.00022603
0.00242259
0.000103107
0.0024315
-6.20248e-05
0.00248415
-0.000249342
0.00257841
-0.000411899
0.00269533
-0.000486739
0.00280081
-0.000429805
0.00286099
-0.000252025
0.00286116
-1.84095e-05
0.00281008
0.000193842
0.00272909
0.000336553
0.00263864
0.000400876
0.00255215
0.000400463
0.00247672
0.000351092
0.00241701
0.000260122
0.00237988
0.000125941
0.00237735
-5.3614e-05
0.00242189
-0.000262428
0.00251415
-0.000451046
0.00263552
-0.00055025
0.00275378
-0.000510397
0.00283641
-0.000333846
0.00286242
-7.67099e-05
0.00282927
0.000178604
0.00275238
0.000362694
0.00265575
0.000447525
0.00256017
0.000444903
0.00247782
0.000382108
0.00241623
0.0002762
0.00238519
0.000126638
0.00239701
-6.75265e-05
0.00245743
-0.000281397
0.00255696
-0.000459233
0.00267188
-0.000539971
0.00277333
-0.0004908
0.00283757
-0.000323603
0.00285267
-8.78168e-05
0.00281981
0.000151274
0.00275071
0.00033602
0.00266247
0.000434416
0.00257213
0.000444495
0.0024938
0.000382621
0.00243964
0.000264889
0.00242129
9.98473e-05
0.00244695
-9.91188e-05
0.00251504
-0.000297674
0.00261141
-0.000444512
0.00271329
-0.000494445
0.00279684
-0.000430651
0.00284409
-0.000271607
0.00284734
-6.18672e-05
0.00280989
0.000145642
0.00274325
0.00030653
0.00266237
0.000395499
0.00258187
0.000407054
0.00251479
0.000348121
0.00247324
0.000229252
0.00246748
6.34826e-05
0.00250197
-0.000125629
0.00257117
-0.000298942
0.00265962
-0.000411692
0.00274669
-0.000432328
0.0028129
-0.000356043
0.00284493
-0.000205647
0.00283828
-2.1531e-05
0.00279737
0.000152901
0.00273312
0.000283874
0.00265904
0.000353471
0.00258823
0.000357577
0.00253254
0.000299614
0.00250262
0.000186742
0.00250631
3.26595e-05
0.00254513
-0.000136396
0.00261159
-0.000282347
0.00269058
-0.000367333
0.00276402
-0.000369056
0.00281608
-0.000289183
0.00283683
-0.000151316
0.00282396
8.71624e-06
0.00278236
0.000154863
0.00272199
0.000260656
0.00265487
0.000313087
0.00259275
0.000309618
0.00254646
0.000252674
0.00252537
0.000147876
0.00253555
8.19692e-06
0.00257667
-0.000141109
0.00264048
-0.00026529
0.00271262
-0.000331995
0.00277706
-0.000324146
0.0028204
-0.00024584
0.00283481
-0.000119435
0.00281907
2.31651e-05
0.00277805
0.000150628
0.00272089
0.000240374
0.00265849
0.000281729
0.00260172
0.000273136
0.0025607
0.000217094
0.00254413
0.000118583
0.00255744
-1.0994e-05
0.00259998
-0.000149172
0.00266388
-0.000264855
0.00273581
-0.000328753
0.00280095
-0.000324685
0.00284686
-0.000254919
0.00286585
-0.000138114
0.00285604
-2.41063e-06
0.00282102
0.000122883
0.00276864
0.000214746
0.00270889
0.00026087
0.0026521
0.000259054
0.00260789
0.000212743
0.0025849
0.000127145
0.00258957
1.01198e-05
0.00262381
-0.000123231
0.00268306
-0.000249033
0.00275684
-0.000340626
0.00283198
-0.000378477
0.0028964
-0.000356942
0.00294169
-0.000284868
0.00296406
-0.000180969
0.00296408
-6.80359e-05
0.00294566
3.32697e-05
0.00291519
0.00010755
0.00287954
0.000147655
0.00284589
0.000154779
0.00281904
0.000131246
0.002802
0.000102605
1.9537e-05
0.00250158
-1.34427e-05
0.00250668
-4.23927e-05
0.00251631
-7.64613e-05
0.00253187
-0.000116976
0.00255508
-0.000164195
0.00258769
-0.000216193
0.00263111
-0.000268911
0.00268493
-0.000312552
0.00274664
-0.000336651
0.00280788
-0.000322422
0.0028578
-0.000261287
0.00289032
-0.000167327
0.0029012
-5.09178e-05
0.00288585
8.09882e-05
0.00284308
0.000209748
0.0027793
0.000305526
0.00270676
0.000344836
0.00263922
0.000319534
0.00258962
0.000233121
0.0025688
9.84167e-05
0.00258475
-6.39891e-05
0.00263862
-0.000219468
0.00271809
-0.000316486
0.00279648
-0.000307342
0.00284428
-0.000184893
0.00284542
4.85299e-06
0.00280297
0.000194164
0.00273182
0.000334274
0.00264797
0.000408985
0.00256341
0.000421999
0.00248662
0.000380633
0.0024256
0.000287055
0.00238984
0.000138862
0.00239015
-6.23352e-05
0.00243718
-0.000296375
0.0025358
-0.000510512
0.00267263
-0.000623573
0.00280917
-0.000566343
0.00289699
-0.000339844
0.00290798
-2.94028e-05
0.00284964
0.000252185
0.00275201
0.000434185
0.00264466
0.000508221
0.00254465
0.000500475
0.00245761
0.00043813
0.00238566
0.000332077
0.00233706
0.00017454
0.00233005
-4.66048e-05
0.00238171
-0.000314093
0.00248992
-0.000559254
0.00262871
-0.000689042
0.00276039
-0.000642073
0.00285104
-0.000424496
0.00288045
-0.000106116
0.00284622
0.000212825
0.00276345
0.000445465
0.00265713
0.000553849
0.00255022
0.000551814
0.00245711
0.000475221
0.00238781
0.000345496
0.00235531
0.000159136
0.00237349
-8.57076e-05
0.00244573
-0.000353637
0.00255784
-0.000571344
0.00268256
-0.000664689
0.00278971
-0.000597952
0.00285532
-0.000389206
0.00286752
-0.000100017
0.00282845
0.000190341
0.00275147
0.000413001
0.00265506
0.000530824
0.0025571
0.000542453
0.00247276
0.000466963
0.00241608
0.000321566
0.00240047
0.00011546
0.00243376
-0.000132411
0.00251156
-0.00037547
0.00261641
-0.000549362
0.00272372
-0.000601753
0.0028094
-0.000516333
0.00285581
-0.000318012
0.00285537
-6.14273e-05
0.00281174
0.000189265
0.00273755
0.000380726
0.00264925
0.000483798
0.00256281
0.000493495
0.00249255
0.000418376
0.0024518
0.000270008
0.00245123
6.40479e-05
0.00249399
-0.000168392
0.0025718
-0.000376751
0.00266667
-0.000506557
0.00275686
-0.000522526
0.00282309
-0.00042227
0.00285261
-0.000235165
0.00284136
-1.02783e-05
0.00279421
0.000200045
0.00272295
0.000355142
0.0026423
0.000434117
0.00256677
0.000433106
0.00250956
0.000356821
0.00248226
0.000214048
0.00249251
2.24095e-05
0.00254
-0.000183889
0.00261456
-0.000356908
0.00269895
-0.00045172
0.00277434
-0.000444448
0.00282527
-0.000340117
0.00284258
-0.000168621
0.00282454
2.67534e-05
0.00277664
0.000202764
0.00270963
0.000327665
0.0026366
0.000386123
0.00257062
0.000375596
0.0025238
0.000299488
0.00250629
0.000165386
0.00252364
-9.15072e-06
0.00257351
-0.000190982
0.00264501
-0.000336783
0.00272188
-0.000408864
0.00278753
-0.000389794
0.00282906
-0.000287378
0.00283948
-0.00012985
0.00281826
4.43889e-05
0.00277089
0.000197993
0.00270722
0.000304049
0.00263908
0.000349868
0.00257855
0.000333667
0.00253699
0.000258645
0.00252388
0.000131697
0.00254409
-3.12079e-05
0.00259502
-0.000200096
0.0026662
-0.000336032
0.00274249
-0.000405045
0.00280861
-0.000390807
0.00285266
-0.000298967
0.00286786
-0.000153317
0.00285304
1.24139e-05
0.0028123
0.000163619
0.00275394
0.000273109
0.00268855
0.000326255
0.00262734
0.000320264
0.00258115
0.000258931
0.00255969
0.000148605
0.00256954
2.70233e-07
0.0026111
-0.000164786
0.00267704
-0.000314978
0.00275442
-0.000418002
0.00282902
-0.000453082
0.00288932
-0.000417235
0.00292833
-0.00032388
0.00294376
-0.000196401
0.00293733
-6.16053e-05
0.00291363
5.69668e-05
0.00287947
0.000141707
0.00284178
0.00018535
0.00280825
0.00018831
0.00278302
0.000156471
0.00277133
0.000114295
1.21126e-05
0.00250135
-1.47946e-05
0.00250581
-4.68507e-05
0.00251449
-8.51426e-05
0.00252905
-0.00013153
0.00255159
-0.00018674
0.00258458
-0.000249181
0.00263031
-0.000314643
0.00268925
-0.000371494
0.00275952
-0.000406919
0.00283047
-0.000393375
0.0028882
-0.000319016
0.00292632
-0.000205441
0.00294016
-6.47607e-05
0.00292307
9.80818e-05
0.00287234
0.000260473
0.00279566
0.000382209
0.0027083
0.000432196
0.00262685
0.000400987
0.00256651
0.000293459
0.00254042
0.000124501
0.00255972
-8.32843e-05
0.00262822
-0.00028797
0.00273137
-0.000419641
0.00283373
-0.000409697
0.00289571
-0.000246876
0.00289692
3.64975e-06
0.00284351
0.000247574
0.00275671
0.000421069
0.00265728
0.00050842
0.00255883
0.000520445
0.00246966
0.000469801
0.00239638
0.000360336
0.00234533
0.000189912
0.00232609
-4.30996e-05
0.00235685
-0.000327129
0.00245441
-0.000608077
0.00261029
-0.000779452
0.00278136
-0.000737413
0.00290721
-0.000465693
0.00294356
-6.57546e-05
0.00288865
0.000307103
0.00277754
0.00054529
0.00265165
0.000634111
0.00253538
0.000616745
0.00243435
0.000539161
0.00234926
0.000417167
0.00229215
0.000231651
0.00228762
-4.20735e-05
0.00235286
-0.00037934
0.00247856
-0.000684955
0.00263186
-0.000842335
0.00277254
-0.00078275
0.0028669
-0.000518864
0.00289586
-0.000135077
0.00285816
0.000250532
0.00276922
0.000534401
0.00265416
0.000668908
0.00253685
0.000669128
0.00243382
0.000578244
0.00235857
0.000420753
0.00232718
0.000190519
0.00235325
-0.000111777
0.00243599
-0.000436376
0.00255678
-0.000692131
0.00268671
-0.00079462
0.00279633
-0.000707568
0.00286243
-0.000455313
0.00287289
-0.000110477
0.00282943
0.000233808
0.00274601
0.000496421
0.0026424
0.000634433
0.00253773
0.000647123
0.00244866
0.000556031
0.00239114
0.000379082
0.00237953
0.000127068
0.00242019
-0.000173062
0.00250546
-0.000460748
0.00261532
-0.000659217
0.00272454
-0.000710971
0.00280987
-0.000601672
0.00285463
-0.000362766
0.00285141
-5.82124e-05
0.00280361
0.000237071
0.00272398
0.000460355
0.00262993
0.000577847
0.00253886
0.00058457
0.00246669
0.000490546
0.00242797
0.000308727
0.00243321
5.88025e-05
0.00248348
-0.000218664
0.00256765
-0.000460912
0.00266587
-0.00060478
0.00275629
-0.00061295
0.00282057
-0.000486543
0.00284696
-0.000261562
0.00283186
4.82143e-06
0.0027802
0.000251704
0.00270394
0.000431403
0.00261857
0.000519489
0.00253987
0.000511804
0.00248252
0.000414176
0.00245893
0.000237637
0.00247604
5.29645e-06
0.0025312
-0.000239045
0.00261158
-0.000437288
0.0026985
-0.000538647
0.00277329
-0.000519235
0.00282149
-0.000388313
0.00283493
-0.000182068
0.00281247
4.92164e-05
0.00275981
0.000255425
0.00268801
0.000399465
0.00261086
0.000463268
0.00254264
0.000443817
0.00249675
0.000345385
0.00248386
0.000178272
0.00250851
-3.37992e-05
0.00256592
-0.000248396
0.00264273
-0.00041359
0.0027215
-0.000487635
0.00278592
-0.000454218
0.00282416
-0.000325615
0.00283021
-0.000135901
0.00280417
7.04296e-05
0.00275185
0.000250315
0.0026834
0.000372501
0.0026113
0.000421965
0.0025487
0.000396262
0.00250818
0.000299174
0.00249963
0.000140244
0.00252687
-5.84476e-05
0.00258486
-0.000258093
0.0026608
-0.000411965
0.00273846
-0.000482709
0.00280294
-0.000455288
0.00284344
-0.000339466
0.00285426
-0.000164131
0.00283484
3.18283e-05
0.00278957
0.000208887
0.00272686
0.000335818
0.00265763
0.000395487
0.00259384