/*--------------------------------*- C++ -*----------------------------------*\
  =========                 |
  \\      /  F ield         | OpenFOAM: The Open Source CFD Toolbox
   \\    /   O peration     | Website:  https://openfoam.org
    \\  /    A nd           | Version:  11
     \\/     M anipulation  |
\*---------------------------------------------------------------------------*/
FoamFile
{
    format      ascii;
    class       volVectorField;
    location    "16.711331";
    object      vorticity;
}
// * * * * * * * * * * * * * * * * * * * * * * * * * * * * * * * * * * * * * //

dimensions      [0 0 -1 0 0 0 0];

internalField   nonuniform List<vector> 
7132
(
(-1.00423e-16 -1.93569e-15 -0.0086886)
(-2.87106e-16 -1.82912e-15 -0.00918728)
(-2.64001e-16 -3.07593e-17 -0.00978509)
(-3.23372e-16 -1.82088e-15 -0.0103565)
(-4.13527e-16 -1.77835e-15 -0.0107991)
(-3.82345e-16 2.87404e-17 -0.0110436)
(-3.32391e-16 4.10394e-17 -0.0110678)
(-2.69931e-16 3.38142e-17 -0.0108954)
(-2.78937e-16 2.32239e-17 -0.0105909)
(-2.58087e-16 1.23141e-17 -0.0102367)
(-2.28632e-16 3.42952e-18 -0.00991734)
(-2.01074e-16 -2.68828e-18 -0.00971608)
(-2.0054e-16 -3.48018e-18 -0.0096895)
(-1.8751e-16 1.7947e-17 -0.00983824)
(-1.2714e-16 -1.69703e-15 -0.0101212)
(-6.53489e-17 -1.70993e-15 -0.0104589)
(-3.95582e-17 -1.7229e-15 -0.0107453)
(-5.21855e-17 2.29219e-17 -0.0108724)
(-8.58575e-17 -1.71519e-15 -0.010756)
(-1.71141e-16 -1.72643e-15 -0.0103693)
(-1.01357e-16 -7.0206e-18 -0.00980136)
(1.08824e-16 -5.05595e-17 -0.00921652)
(1.75054e-16 -6.79526e-17 -0.00876064)
(4.47196e-16 9.64104e-18 -0.00856158)
(7.52239e-16 3.55237e-15 -0.00874735)
(5.52431e-16 6.88958e-17 -0.00937145)
(3.99009e-16 -1.30946e-16 -0.0102916)
(1.55858e-15 -2.34743e-16 -0.011252)
(2.03204e-16 2.06471e-15 -0.0120169)
(-1.53634e-14 5.71769e-15 -0.0124143)
(-1.36275e-14 -2.14269e-14 -0.0123346)
(1.63056e-13 -8.55605e-14 -0.0117399)
(4.66938e-13 1.19358e-13 -0.0107114)
(-1.2105e-12 1.46257e-12 -0.00953135)
(-1.06612e-11 4.0081e-12 -0.00857345)
(-2.98233e-11 5.07324e-12 -0.00801518)
(-4.74474e-11 2.07777e-12 -0.00781087)
(-4.71528e-11 -2.62989e-12 -0.00791906)
(-2.92611e-11 -4.67277e-12 -0.00848093)
(-1.08888e-11 -3.55458e-12 -0.00965453)
(-1.65816e-12 -1.69539e-12 -0.0112471)
(1.21507e-12 -5.49721e-13 -0.01279)
(1.0226e-12 3.49316e-13 -0.0138573)
(-6.49022e-13 2.1221e-12 -0.0142012)
(-1.02613e-12 3.22413e-12 -0.0137748)
(3.92764e-12 -6.31249e-12 -0.0127283)
(5.63131e-12 -4.8455e-11 -0.0114127)
(-3.25492e-11 -1.39805e-10 -0.0104078)
(-1.89436e-10 -2.44766e-10 -0.0102182)
(-4.93943e-10 -2.6464e-10 -0.0107805)
(-7.73073e-10 -1.32641e-10 -0.0115651)
(-8.17783e-10 8.20586e-11 -0.0120436)
(-6.45092e-10 2.29902e-10 -0.0121942)
(-3.82549e-10 2.42444e-10 -0.0125856)
(-1.35923e-10 1.73567e-10 -0.013518)
(-1.10462e-11 9.03977e-11 -0.014573)
(2.42479e-11 1.72023e-11 -0.0152904)
(6.52684e-11 -2.31467e-11 -0.0154062)
(1.07461e-10 4.02382e-11 -0.0147672)
(-1.85746e-10 3.33197e-10 -0.0130778)
(-1.67749e-09 9.45088e-10 -0.00971309)
(-5.57383e-09 1.78652e-09 -0.00397429)
(-1.25488e-08 2.5139e-09 0.00423437)
(-2.14878e-08 2.64089e-09 0.0137043)
(-2.92322e-08 1.86749e-09 0.021812)
(-3.22563e-08 3.6949e-10 0.0255789)
(-2.91549e-08 -1.27556e-09 0.0232726)
(-2.16094e-08 -2.445e-09 0.0153876)
(-1.29206e-08 -2.77707e-09 0.00448964)
(-5.79738e-09 -2.32467e-09 -0.00598342)
(-1.39018e-09 -1.45308e-09 -0.0133551)
(5.32189e-10 -4.81198e-10 -0.016606)
(6.90036e-10 5.82705e-10 -0.0160952)
(-5.69789e-10 1.9471e-09 -0.0126954)
(-3.51448e-09 3.68662e-09 -0.00720423)
(-8.54625e-09 5.49503e-09 -0.000351504)
(-1.54206e-08 6.75044e-09 0.00710181)
(-2.28889e-08 6.8152e-09 0.0146866)
(-2.90942e-08 5.36724e-09 0.0222273)
(-3.2307e-08 2.5771e-09 0.0290889)
(-3.15499e-08 -9.45166e-10 0.0334674)
(-2.70123e-08 -4.36758e-09 0.0329641)
(-2.00472e-08 -6.86804e-09 0.0264061)
(-1.254e-08 -7.79034e-09 0.0151204)
(-6.16432e-09 -6.86844e-09 0.00244075)
(-1.87717e-09 -4.44145e-09 -0.00788758)
(1.25144e-10 -1.32048e-09 -0.0134943)
(1.07268e-10 1.64221e-09 -0.014322)
(-1.50304e-09 3.9061e-09 -0.0122023)
(-4.19973e-09 5.28312e-09 -0.00950157)
(-7.34726e-09 5.78148e-09 -0.00760905)
(-1.02397e-08 5.47544e-09 -0.00606129)
(-1.2307e-08 4.46636e-09 -0.003203)
(-1.32553e-08 2.87581e-09 0.00213484)
(-1.30314e-08 8.33793e-10 0.00929162)
(-1.17405e-08 -1.51276e-09 0.0158126)
(-9.62951e-09 -3.92005e-09 0.018918)
(-7.07396e-09 -5.90673e-09 0.0171655)
(-4.5116e-09 -6.8106e-09 0.0110183)
(-2.34048e-09 -6.19341e-09 0.00256355)
(-8.27946e-10 -4.24985e-09 -0.00564572)
(-6.70809e-11 -1.76921e-09 -0.0120064)
(1.65179e-11 3.63319e-10 -0.0164854)
(-3.77771e-10 1.65537e-09 -0.0200243)
(-9.89787e-10 2.1036e-09 -0.0231957)
(-1.57837e-09 1.97254e-09 -0.0252714)
(-1.98894e-09 1.54636e-09 -0.0247374)
(-2.16998e-09 1.01036e-09 -0.0206125)
(-2.14007e-09 4.42769e-10 -0.0133796)
(-1.94611e-09 -1.48874e-10 -0.00491122)
(-1.64116e-09 -7.73872e-10 0.0024896)
(-1.27725e-09 -1.39074e-09 0.00705602)
(-9.0207e-10 -1.87692e-09 0.00786661)
(-5.5484e-10 -2.08789e-09 0.00495919)
(-2.58779e-10 -1.9671e-09 -0.000913309)
(-1.36783e-11 -1.60373e-09 -0.00880035)
(2.02682e-10 -1.17513e-09 -0.0179109)
(4.19024e-10 -8.30308e-10 -0.0275256)
(6.47381e-10 -6.21108e-10 -0.0365165)
(8.69437e-10 -5.17921e-10 -0.0431025)
(1.04297e-09 -4.64787e-10 -0.0455072)
(1.12474e-09 -4.18991e-10 -0.0429429)
(1.09456e-09 -3.56751e-10 -0.0360776)
(9.65615e-10 -2.57371e-10 -0.0266946)
(7.76083e-10 -9.10251e-11 -0.0168138)
(5.70326e-10 1.65746e-10 -0.00806281)
(3.84201e-10 4.88166e-10 -0.00172021)
(2.38923e-10 7.7705e-10 0.0012182)
(1.43854e-10 8.96919e-10 4.03841e-05)
(1.02416e-10 7.66647e-10 -0.0055728)
(1.14903e-10 4.22294e-10 -0.0153259)
(1.76828e-10 -8.2429e-12 -0.0280911)
(2.75743e-10 -3.89019e-10 -0.0417629)
(3.90899e-10 -6.41734e-10 -0.0535074)
(4.97765e-10 -7.55378e-10 -0.0607058)
(5.74665e-10 -7.58734e-10 -0.0619913)
(6.08084e-10 -6.88584e-10 -0.057677)
(5.95156e-10 -5.68138e-10 -0.0493851)
(5.4286e-10 -3.96808e-10 -0.0391279)
(4.6382e-10 -1.56137e-10 -0.0284905)
(3.71665e-10 1.63379e-10 -0.0186226)
(2.78131e-10 5.26962e-10 -0.0105015)
(1.93071e-10 8.44834e-10 -0.00518478)
(1.25511e-10 1.01076e-09 -0.00384427)
(8.29023e-11 9.67315e-10 -0.00745567)
(6.85344e-11 7.41979e-10 -0.0162833)
(7.97433e-11 4.24524e-10 -0.0293615)
(1.08097e-10 1.11669e-10 -0.0443087)
(1.42175e-10 -1.3486e-10 -0.0579283)
(1.71338e-10 -2.96466e-10 -0.067341)
(1.88602e-10 -3.83003e-10 -0.070961)
(1.91722e-10 -4.14494e-10 -0.068792)
(1.82571e-10 -4.09265e-10 -0.0620846)
(1.65489e-10 -3.79063e-10 -0.0526403)
(1.45319e-10 -3.27377e-10 -0.0421299)
(1.25784e-10 -2.53746e-10 -0.0316377)
(1.08628e-10 -1.42738e-10 -0.0218463)
(9.40257e-11 -3.76542e-11 -0.0127875)
(8.14802e-11 2.36956e-10 -0.00728853)
(6.60127e-11 2.37598e-10 -0.000680598)
(-1.01763e-16 -8.26539e-18 -0.0259827)
(-2.99929e-16 -1.23912e-17 -0.027489)
(-2.90193e-16 -1.17793e-17 -0.0293116)
(-3.61702e-16 -1.30868e-17 -0.0310798)
(-4.64444e-16 -1.41399e-17 -0.0324825)
(-4.47763e-16 -1.01337e-17 -0.0332965)
(-4.18145e-16 -1.51676e-17 -0.0334302)
(-3.85548e-16 7.0872e-18 -0.0329241)
(-2.81028e-16 1.75203e-15 -0.0319445)
(-3.006e-16 -1.28381e-17 -0.0307174)
(-4.11131e-16 -2.50771e-17 -0.0294806)
(-4.91943e-16 1.71799e-15 -0.0284845)
(-4.80726e-16 -1.02623e-17 -0.0279063)
(-3.90842e-16 -1.70592e-17 -0.0278177)
(-2.27572e-16 -1.99967e-17 -0.0282217)
(-6.93779e-17 -1.73034e-17 -0.029039)
(-3.01877e-17 1.85107e-18 -0.0301155)
(-2.11039e-16 4.43774e-17 -0.0312552)
(-5.67948e-16 7.98533e-17 -0.0322512)
(-4.10247e-16 1.43457e-17 -0.0329336)
(3.60908e-16 -1.4785e-16 -0.0332527)
(-1.14597e-14 -1.88765e-16 -0.0332179)
(-4.05612e-14 -2.37139e-16 -0.0327691)
(-4.45183e-14 -2.78104e-16 -0.0318638)
(-1.95212e-14 3.03017e-17 -0.0306642)
(-2.68013e-15 2.44664e-16 -0.029506)
(3.54763e-15 -6.34019e-16 -0.0286531)
(5.3809e-15 -1.36841e-16 -0.0282188)
(-2.1602e-14 1.05223e-14 -0.0281831)
(-1.46814e-14 1.08949e-14 -0.0284306)
(2.9751e-13 -1.10635e-13 -0.0288213)
(-1.9842e-13 -3.2931e-13 -0.0293067)
(-5.33226e-12 8.04402e-13 -0.0300293)
(-1.16067e-12 7.02491e-12 -0.0313276)
(9.13138e-11 1.83111e-11 -0.0334515)
(3.29829e-10 2.34663e-11 -0.0359637)
(5.39547e-10 1.07407e-11 -0.0375742)
(4.93778e-10 -1.17248e-11 -0.0372277)
(2.70151e-10 -2.28065e-11 -0.0353012)
(8.45088e-11 -1.73595e-11 -0.0330511)
(5.64227e-12 -7.74732e-12 -0.0313343)
(-8.42621e-12 -1.89184e-12 -0.0303489)
(-7.33948e-12 1.27963e-12 -0.0298762)
(-5.53582e-12 3.14473e-12 -0.029593)
(3.2863e-11 9.32329e-13 -0.0294226)
(1.19133e-10 -9.6412e-12 -0.0297235)
(-1.03832e-10 -3.02184e-11 -0.0308658)
(-1.84089e-09 -4.22737e-11 -0.0322585)
(-6.79735e-09 -1.40706e-11 -0.0320058)
(-1.47327e-08 2.71756e-11 -0.0291617)
(-2.15178e-08 2.92769e-11 -0.0262021)
(-2.23373e-08 1.80697e-11 -0.0264476)
(-1.69402e-08 1.22821e-11 -0.0297427)
(-9.37845e-09 -1.21404e-11 -0.0332815)
(-3.4707e-09 -1.21868e-11 -0.035015)
(-4.71871e-10 1.03104e-11 -0.0346042)
(4.34023e-10 -2.09533e-11 -0.0331046)
(5.75001e-10 -6.47549e-11 -0.0316851)
(4.81473e-10 1.65745e-10 -0.0305438)
(-1.03045e-09 1.22567e-09 -0.0282844)
(-7.13891e-09 3.63913e-09 -0.0218823)
(-2.16275e-08 7.22216e-09 -0.00794032)
(-4.54665e-08 1.04709e-08 0.0145709)
(-7.39536e-08 1.09826e-08 0.0424421)
(-9.78156e-08 7.25176e-09 0.0688502)
(-1.07694e-07 3.30838e-10 0.0852633)
(-9.91842e-08 -6.59901e-09 0.084528)
(-7.58032e-08 -1.05622e-08 0.0653724)
(-4.70051e-08 -1.06831e-08 0.0344038)
(-2.20786e-08 -8.08985e-09 0.00243655)
(-5.91155e-09 -4.61786e-09 -0.0213279)
(1.47556e-09 -1.52131e-09 -0.033084)
(2.30844e-09 1.13369e-09 -0.0340708)
(-1.87253e-09 4.04936e-09 -0.0279153)
(-1.10097e-08 7.67485e-09 -0.0184554)
(-2.50131e-08 1.14481e-08 -0.008656)
(-4.19559e-08 1.39218e-08 0.000484797)
(-5.83139e-08 1.3652e-08 0.0112359)
(-7.08205e-08 1.00763e-08 0.0275536)
(-7.74383e-08 3.80493e-09 0.0501677)
(-7.68601e-08 -3.59252e-09 0.0730718)
(-6.84543e-08 -1.01189e-08 0.0858165)
(-5.3419e-08 -1.41042e-08 0.0805098)
(-3.52605e-08 -1.47318e-08 0.0575779)
(-1.84031e-08 -1.21998e-08 0.0254486)
(-6.25266e-09 -7.58618e-09 -0.0044559)
(-2.24864e-10 -2.3127e-09 -0.0241846)
(-1.37127e-11 2.4563e-09 -0.0331086)
(-4.28199e-09 6.0596e-09 -0.0366544)
(-1.11055e-08 8.20523e-09 -0.0409923)
(-1.83068e-08 8.80146e-09 -0.0475293)
(-2.40762e-08 7.95533e-09 -0.0513913)
(-2.75881e-08 5.97416e-09 -0.0455085)
(-2.89654e-08 3.23798e-09 -0.026542)
(-2.8608e-08 7.63878e-11 0.00209412)
(-2.66175e-08 -3.21369e-09 0.0315078)
(-2.29092e-08 -6.2533e-09 0.0516734)
(-1.77446e-08 -8.46568e-09 0.0562817)
(-1.19138e-08 -9.17734e-09 0.0450313)
(-6.51267e-09 -8.03523e-09 0.0231361)
(-2.51103e-09 -5.38654e-09 -0.00221535)
(-3.91923e-10 -2.19144e-09 -0.026275)
(-3.44759e-11 5.18664e-10 -0.0483526)
(-8.50583e-10 2.15852e-09 -0.0693232)
(-2.08816e-09 2.7039e-09 -0.087678)
(-3.15932e-09 2.47212e-09 -0.0984477)
(-3.81535e-09 1.84217e-09 -0.0963935)
(-4.08966e-09 1.08592e-09 -0.0799297)
(-4.1059e-09 3.30838e-10 -0.0523853)
(-3.92717e-09 -3.98329e-10 -0.0205336)
(-3.5462e-09 -1.1083e-09 0.00809093)
(-2.96378e-09 -1.76028e-09 0.0274932)
(-2.22999e-09 -2.23813e-09 0.0342029)
(-1.44105e-09 -2.40953e-09 0.0276482)
(-6.92572e-10 -2.23767e-09 0.00946294)
(-2.45668e-11 -1.83446e-09 -0.0178529)
(5.93434e-10 -1.39148e-09 -0.0514925)
(1.21928e-09 -1.05266e-09 -0.0874876)
(1.87029e-09 -8.46313e-10 -0.119687)
(2.4889e-09 -7.15714e-10 -0.140757)
(2.96532e-09 -5.92438e-10 -0.145412)
(3.19308e-09 -4.44782e-10 -0.133007)
(3.12048e-09 -2.77187e-10 -0.10744)
(2.77456e-09 -9.81317e-11 -0.0750056)
(2.24768e-09 1.06622e-10 -0.0419517)
(1.65781e-09 3.61688e-10 -0.0132587)
(1.10964e-09 6.53871e-10 0.00715378)
(6.73682e-10 8.97223e-10 0.0161039)
(3.87959e-10 9.65174e-10 0.0111192)
(2.67872e-10 7.81125e-10 -0.00901019)
(3.09758e-10 3.8509e-10 -0.0430413)
(4.87613e-10 -8.86612e-11 -0.086074)
(7.52663e-10 -4.96054e-10 -0.129534)
(1.04293e-09 -7.52743e-10 -0.163468)
(1.29962e-09 -8.47259e-10 -0.180458)
(1.48008e-09 -8.13892e-10 -0.178396)
(1.56183e-09 -6.98828e-10 -0.160337)
(1.54029e-09 -5.35525e-10 -0.132143)
(1.42545e-09 -3.31138e-10 -0.0997529)
(1.23847e-09 -7.05378e-11 -0.0675925)
(1.00571e-09 2.56225e-10 -0.0387809)
(7.55037e-10 6.16261e-10 -0.016046)
(5.16856e-10 9.21144e-10 -0.00259479)
(3.24033e-10 1.06584e-09 -0.00213943)
(2.04499e-10 9.95805e-10 -0.0175931)
(1.69717e-10 7.43562e-10 -0.0488844)
(2.08986e-10 4.04744e-10 -0.0912327)
(2.93896e-10 8.04535e-11 -0.135533)
(3.89942e-10 -1.66479e-10 -0.171469)
(4.67987e-10 -3.19678e-10 -0.191568)
(5.10982e-10 -3.93193e-10 -0.193562)
(5.15276e-10 -4.11475e-10 -0.179946)
(4.87788e-10 -3.96148e-10 -0.155819)
(4.40917e-10 -3.60433e-10 -0.126522)
(3.87287e-10 -3.07521e-10 -0.0962233)
(3.36067e-10 -2.35399e-10 -0.0674231)
(2.90743e-10 -1.26857e-10 -0.0415653)
(2.50709e-10 -2.40802e-11 -0.0183672)
(2.14129e-10 2.50964e-10 -0.00594328)
(1.66595e-10 2.45334e-10 0.00781679)
(-2.95326e-18 -1.249e-19 -0.0430447)
(-3.01673e-17 -1.77149e-19 -0.0455837)
(-5.37862e-17 1.27433e-19 -0.0486695)
(-8.8975e-17 9.6946e-19 -0.0516851)
(-1.13926e-16 -5.9603e-19 -0.0541053)
(-1.59363e-16 5.59109e-18 -0.0555415)
(-2.57322e-16 9.93191e-18 -0.0558167)
(-5.42684e-17 -2.11916e-17 -0.0549699)
(3.87793e-18 -1.92498e-17 -0.0532545)
(-7.69968e-16 6.38129e-17 -0.0510248)
(-1.25248e-15 1.02489e-16 -0.0486625)
(-5.14231e-16 3.21093e-17 -0.0465919)
(3.60845e-16 -5.74188e-17 -0.0451364)
(9.38399e-16 -1.0863e-16 -0.0444834)
(1.27033e-15 -1.23036e-16 -0.0447517)
(1.16677e-15 -7.38988e-17 -0.0459609)
(2.23172e-16 8.26515e-17 -0.0480156)
(-1.81447e-15 2.91802e-16 -0.0507123)
(-2.93519e-15 1.19133e-16 -0.053739)
(1.86331e-15 -4.56138e-16 -0.0567151)
(-1.37016e-14 5.51771e-15 -0.0592299)
(-9.04099e-14 2.04105e-14 -0.0607976)
(-1.48515e-13 1.64614e-14 -0.0608518)
(-1.76943e-13 -1.05104e-14 -0.0589607)
(-1.34258e-13 -2.08362e-14 -0.0552154)
(-5.33646e-14 -1.14655e-14 -0.0503256)
(6.07349e-15 -4.16146e-15 -0.0452668)
(-3.3993e-14 1.234e-14 -0.0409928)
(-1.91963e-13 1.20959e-14 -0.0382494)
(7.43152e-13 -1.55587e-13 -0.0374732)
(2.66464e-12 6.87147e-14 -0.0388178)
(-1.18634e-11 2.7276e-12 -0.042275)
(-5.52707e-11 6.00475e-13 -0.0477743)
(8.82887e-11 -4.68622e-11 -0.0553918)
(1.07566e-09 -1.61488e-10 -0.0654098)
(3.1644e-09 -2.19045e-10 -0.0765041)
(5.04984e-09 -7.98985e-11 -0.0839202)
(4.98248e-09 1.32068e-10 -0.082844)
(3.12416e-09 1.9996e-10 -0.0738296)
(1.19954e-09 1.28698e-10 -0.0617223)
(1.93469e-10 4.47704e-11 -0.0504906)
(-9.45443e-11 5.93944e-12 -0.0417982)
(-1.02348e-10 -1.09588e-12 -0.0361633)
(-2.41592e-11 -1.79809e-11 -0.0337692)
(2.67303e-10 -5.9112e-11 -0.0350222)
(5.74185e-10 6.20334e-11 -0.0400996)
(-1.50484e-09 9.31553e-10 -0.0462133)
(-1.20898e-08 3.20696e-09 -0.0447232)
(-3.73533e-08 6.20115e-09 -0.0256822)
(-7.37802e-08 7.09558e-09 0.0090869)
(-1.04318e-07 3.66965e-09 0.0408239)
(-1.10079e-07 -2.20673e-09 0.0480468)
(-8.76345e-08 -6.24952e-09 0.0267226)
(-5.20112e-08 -6.49231e-09 -0.006679)
(-2.15706e-08 -4.27972e-09 -0.0324091)
(-4.32175e-09 -1.86196e-09 -0.0426041)
(1.83242e-09 -5.0623e-10 -0.0414001)
(2.61779e-09 -4.68718e-11 -0.0370948)
(1.39431e-09 8.42964e-10 -0.0344442)
(-3.60764e-09 4.14339e-09 -0.031815)
(-1.80702e-08 1.12436e-08 -0.0234683)
(-4.617e-08 2.09503e-08 -0.0047703)
(-8.4561e-08 2.86769e-08 0.0241659)
(-1.23313e-07 2.88155e-08 0.0612581)
(-1.52942e-07 1.87377e-08 0.104579)
(-1.67319e-07 1.0538e-09 0.146108)
(-1.61481e-07 -1.7221e-08 0.168282)
(-1.33703e-07 -2.85346e-08 0.155431)
(-9.11393e-08 -2.96394e-08 0.109402)
(-4.78524e-08 -2.28714e-08 0.049727)
(-1.58172e-08 -1.32302e-08 -0.000982502)
(7.7404e-10 -4.59119e-09 -0.0303016)
(3.80926e-09 2.25675e-09 -0.0389855)
(-3.48633e-09 8.60615e-09 -0.0363988)
(-1.84416e-08 1.52569e-08 -0.0342735)
(-3.7383e-08 2.09681e-08 -0.0402914)
(-5.49059e-08 2.34008e-08 -0.0517694)
(-6.67211e-08 2.12475e-08 -0.0546584)
(-7.2725e-08 1.49295e-08 -0.0336963)
(-7.58937e-08 5.59689e-09 0.0137605)
(-7.7812e-08 -5.43716e-09 0.0733075)
(-7.59913e-08 -1.60881e-08 0.121053)
(-6.65702e-08 -2.3465e-08 0.137107)
(-4.94174e-08 -2.52983e-08 0.116882)
(-2.91103e-08 -2.13723e-08 0.072143)
(-1.19093e-08 -1.35306e-08 0.0225123)
(-2.21654e-09 -4.43995e-09 -0.0172849)
(-1.023e-09 3.67077e-09 -0.045661)
(-6.26916e-09 9.45201e-09 -0.0713301)
(-1.41425e-08 1.22955e-08 -0.101364)
(-2.08501e-08 1.22668e-08 -0.130761)
(-2.43342e-08 1.01161e-08 -0.144273)
(-2.48853e-08 6.91095e-09 -0.129063)
(-2.42577e-08 3.38577e-09 -0.0848246)
(-2.39959e-08 -3.4018e-10 -0.0233213)
(-2.41589e-08 -4.36214e-09 0.038222)
(-2.34346e-08 -8.35647e-09 0.0835053)
(-2.05505e-08 -1.14044e-08 0.102008)
(-1.5445e-08 -1.24266e-08 0.0918688)
(-9.41045e-09 -1.08948e-08 0.0596408)
(-4.24348e-09 -7.31022e-09 0.0152747)
(-1.16074e-09 -3.00749e-09 -0.0343168)
(-2.41493e-10 5.92649e-10 -0.0865622)
(-6.46308e-10 2.68221e-09 -0.137853)
(-1.325e-09 3.25797e-09 -0.178388)
(-1.65695e-09 2.83614e-09 -0.195197)
(-1.62076e-09 2.01153e-09 -0.181132)
(-1.54281e-09 1.15564e-09 -0.139939)
(-1.7186e-09 3.61527e-10 -0.0831913)
(-2.16106e-09 -4.28722e-10 -0.0240548)
(-2.61522e-09 -1.25557e-09 0.0265542)
(-2.78003e-09 -2.04884e-09 0.0607229)
(-2.50157e-09 -2.63828e-09 0.0734647)
(-1.83845e-09 -2.8566e-09 0.0629384)
(-9.69563e-10 -2.67534e-09 0.030044)
(-4.29173e-11 -2.24673e-09 -0.0222677)
(8.97543e-10 -1.79705e-09 -0.0881579)
(1.8614e-09 -1.46874e-09 -0.156705)
(2.81934e-09 -1.25592e-09 -0.21214)
(3.6756e-09 -1.06543e-09 -0.239674)
(4.31007e-09 -8.16873e-10 -0.233261)
(4.62451e-09 -4.96572e-10 -0.1981)
(4.56477e-09 -1.47494e-10 -0.14614)
(4.13808e-09 1.79032e-10 -0.0894768)
(3.42594e-09 4.67353e-10 -0.0367147)
(2.57001e-09 7.34766e-10 0.00655474)
(1.7277e-09 9.80229e-10 0.0357413)
(1.03099e-09 1.13789e-09 0.0459321)
(5.67762e-10 1.09982e-09 0.0322144)
(3.76619e-10 8.05749e-10 -0.00807086)
(4.42951e-10 3.12424e-10 -0.0717162)
(7.01229e-10 -2.29695e-10 -0.146988)
(1.05445e-09 -6.66679e-10 -0.215336)
(1.40674e-09 -9.15213e-10 -0.258728)
(1.69114e-09 -9.73951e-10 -0.268133)
(1.87775e-09 -8.8984e-10 -0.246581)
(1.96308e-09 -7.18687e-10 -0.205084)
(1.95208e-09 -4.99944e-10 -0.155648)
(1.84773e-09 -2.459e-10 -0.106568)
(1.65374e-09 5.37327e-11 -0.0620073)
(1.3805e-09 4.05098e-10 -0.0241828)
(1.05315e-09 7.7139e-10 0.0040065)
(7.18073e-10 1.06034e-09 0.0173518)
(4.37295e-10 1.16694e-09 0.00908742)
(2.65749e-10 1.04447e-09 -0.0254549)
(2.25132e-10 7.39736e-10 -0.0838412)
(2.95124e-10 3.62434e-10 -0.153881)
(4.26813e-10 2.11911e-11 -0.216812)
(5.6598e-10 -2.21906e-10 -0.255551)
(6.71153e-10 -3.56984e-10 -0.262351)
(7.21261e-10 -4.06647e-10 -0.240643)
(7.15088e-10 -4.02897e-10 -0.200869)
(6.65861e-10 -3.72086e-10 -0.154411)
(5.93385e-10 -3.28812e-10 -0.109284)
(5.16124e-10 -2.74948e-10 -0.0692307)
(4.4591e-10 -2.05474e-10 -0.0350593)
(3.85106e-10 -1.0006e-10 -0.0065288)
(3.3035e-10 6.52899e-13 0.0184191)
(2.7681e-10 2.79014e-10 0.0264285)
(2.065e-10 2.61367e-10 0.0343405)
(-8.04927e-17 8.29489e-18 -0.0597052)
(-2.53675e-16 1.30252e-17 -0.06331)
(-2.15508e-16 1.76246e-17 -0.0676899)
(-2.9849e-16 1.69832e-17 -0.0719698)
(-2.41206e-16 2.10544e-17 -0.0754053)
(-6.47521e-16 6.15643e-17 -0.0774442)
(5.90447e-17 -6.77151e-17 -0.0778326)
(1.03723e-15 -1.23513e-16 -0.0766199)
(-3.4802e-15 2.10988e-15 -0.0741666)
(-4.93585e-15 6.1534e-16 -0.070967)
(2.74351e-15 -1.88767e-15 -0.0675503)
(1.13663e-14 9.11327e-16 -0.0645556)
(1.3423e-14 -7.36578e-16 -0.0624053)
(1.07157e-14 -4.71803e-16 -0.0613464)
(6.19897e-15 -1.34182e-16 -0.061599)
(-3.76317e-17 5.06276e-16 -0.0632461)
(-9.33804e-15 1.49247e-15 -0.0661926)
(-1.93476e-14 1.62356e-15 -0.0701817)
(-7.6292e-15 -1.75903e-15 -0.0747616)
(-2.58134e-14 5.39757e-15 -0.0793092)
(-2.28846e-13 4.59888e-14 -0.083167)
(1.25978e-12 6.72177e-14 -0.0856716)
(5.68661e-12 4.30295e-14 -0.0860099)
(6.81135e-12 -7.40627e-15 -0.0834377)
(3.16234e-12 -6.1759e-14 -0.0779432)
(4.35336e-13 -6.99212e-14 -0.0704698)
(-1.92272e-13 -1.03198e-14 -0.0624022)
(-5.58873e-13 9.88816e-14 -0.0552214)
(-2.87056e-13 -3.7805e-13 -0.0502834)
(5.52128e-12 -1.41741e-12 -0.0486004)
(1.88225e-12 6.19263e-12 -0.050656)
(-6.94615e-11 2.86384e-11 -0.0564099)
(-9.57953e-11 -4.92716e-11 -0.0657271)
(5.9755e-10 -5.58442e-10 -0.0791328)
(2.50859e-09 -1.51974e-09 -0.0967994)
(4.79651e-09 -1.96362e-09 -0.115309)
(6.79862e-09 -8.98303e-10 -0.12831)
(7.94001e-09 9.5112e-10 -0.12936)
(6.72161e-09 1.86867e-09 -0.116111)
(3.71674e-09 1.44798e-09 -0.0944858)
(1.17695e-09 6.39293e-10 -0.0729136)
(-7.79494e-11 1.46017e-10 -0.055763)
(-3.58443e-10 -3.39146e-11 -0.044607)
(-2.5147e-11 -1.81681e-10 -0.0402202)
(9.91022e-10 -2.9824e-10 -0.0434573)
(9.13687e-10 8.76432e-10 -0.0520746)
(-8.40464e-09 6.30179e-09 -0.0540171)
(-4.07626e-08 1.7882e-08 -0.0276783)
(-1.02144e-07 3.08311e-08 0.0397262)
(-1.77653e-07 3.35095e-08 0.134079)
(-2.38095e-07 1.81788e-08 0.219786)
(-2.5613e-07 -8.32365e-09 0.256479)
(-2.20365e-07 -2.90217e-08 0.22099)
(-1.47045e-07 -3.30441e-08 0.130805)
(-7.15988e-08 -2.38569e-08 0.0348672)
(-2.04606e-08 -1.16912e-08 -0.027563)
(2.30696e-09 -3.49073e-09 -0.0500417)
(7.07197e-09 1.54299e-10 -0.0492836)
(3.24388e-09 3.27846e-09 -0.0421633)
(-8.90322e-09 1.09579e-08 -0.034105)
(-3.394e-08 2.49203e-08 -0.0247194)
(-6.99292e-08 4.04675e-08 -0.0165602)
(-1.04412e-07 4.90424e-08 -0.00977434)
(-1.2596e-07 4.51731e-08 0.010782)
(-1.36278e-07 2.92547e-08 0.0656854)
(-1.44986e-07 4.60048e-09 0.151792)
(-1.53201e-07 -2.34072e-08 0.23245)
(-1.48416e-07 -4.57331e-08 0.261877)
(-1.20127e-07 -5.36082e-08 0.22161)
(-7.53074e-08 -4.57509e-08 0.134809)
(-3.19852e-08 -2.89311e-08 0.0445584)
(-4.41379e-09 -1.13345e-08 -0.0169646)
(3.3235e-09 3.26388e-09 -0.0441419)
(-5.41979e-09 1.51748e-08 -0.0546141)
(-2.3392e-08 2.46232e-08 -0.0739325)
(-4.11546e-08 2.96803e-08 -0.114299)
(-5.04567e-08 2.85909e-08 -0.159046)
(-4.90213e-08 2.25615e-08 -0.171463)
(-4.17416e-08 1.46625e-08 -0.126256)
(-3.68485e-08 6.34844e-09 -0.0312624)
(-3.97904e-08 -3.54373e-09 0.0798431)
(-4.84046e-08 -1.57398e-08 0.168546)
(-5.40188e-08 -2.73911e-08 0.207601)
(-4.93276e-08 -3.34617e-08 0.190279)
(-3.48051e-08 -3.09539e-08 0.131677)
(-1.76893e-08 -2.10331e-08 0.0586394)
(-5.94938e-09 -7.75586e-09 -0.00837956)
(-3.12901e-09 4.48261e-09 -0.0676063)
(-7.19074e-09 1.26193e-08 -0.129381)
(-1.29685e-08 1.54957e-08 -0.195083)
(-1.5995e-08 1.38973e-08 -0.244429)
(-1.49582e-08 9.97291e-09 -0.24871)
(-1.14729e-08 5.93589e-09 -0.196658)
(-8.34251e-09 2.79329e-09 -0.104128)
(-7.82967e-09 2.69958e-11 -0.000905809)
(-1.03489e-08 -3.49434e-09 0.0870425)
(-1.40519e-08 -8.05747e-09 0.144218)
(-1.6065e-08 -1.24605e-08 0.16371)
(-1.46672e-08 -1.47474e-08 0.146046)
(-1.04788e-08 -1.3636e-08 0.0984055)
(-5.68586e-09 -9.5114e-09 0.0302798)
(-2.21821e-09 -4.19244e-09 -0.0516143)
(-5.46989e-10 2.61448e-10 -0.141297)
(9.4236e-11 2.70027e-09 -0.224831)
(6.55274e-10 3.20922e-09 -0.278073)
(1.51125e-09 2.62e-09 -0.279765)
(2.44594e-09 1.78509e-09 -0.228042)
(2.99894e-09 1.13484e-09 -0.142331)
(2.79208e-09 6.39964e-10 -0.0497161)
(1.76989e-09 4.99801e-11 0.0296899)
(2.91246e-10 -7.98817e-10 0.0868344)
(-1.04437e-09 -1.81711e-09 0.118819)
(-1.7501e-09 -2.70891e-09 0.123984)
(-1.69164e-09 -3.17554e-09 0.100283)
(-1.04162e-09 -3.13544e-09 0.0462598)
(-5.67956e-11 -2.76801e-09 -0.0361338)
(1.07778e-09 -2.34364e-09 -0.136693)
(2.23597e-09 -2.01356e-09 -0.233444)
(3.28982e-09 -1.75341e-09 -0.297634)
(4.12726e-09 -1.46108e-09 -0.308513)
(4.69931e-09 -1.06689e-09 -0.266063)
(5.00344e-09 -5.72137e-10 -0.189783)
(5.02286e-09 -3.39748e-11 -0.105359)
(4.71295e-09 4.71287e-10 -0.0312346)
(4.06368e-09 8.90658e-10 0.0255774)
(3.1611e-09 1.21081e-09 0.0646774)
(2.17524e-09 1.42338e-09 0.0855984)
(1.30213e-09 1.47719e-09 0.0838033)
(7.01473e-10 1.29236e-09 0.0517954)
(4.51084e-10 8.43531e-10 -0.014862)
(5.27181e-10 2.22784e-10 -0.109471)
(8.22228e-10 -3.94408e-10 -0.210152)
(1.19637e-09 -8.48811e-10 -0.286107)
(1.53368e-09 -1.07109e-09 -0.313231)
(1.77268e-09 -1.08276e-09 -0.287389)
(1.90449e-09 -9.49861e-10 -0.22471)
(1.9509e-09 -7.35991e-10 -0.149903)
(1.93598e-09 -4.77852e-10 -0.0826328)
(1.86454e-09 -1.8197e-10 -0.0309609)
(1.71984e-09 1.63075e-10 0.00621203)
(1.4817e-09 5.56523e-10 0.0326987)
(1.15511e-09 9.47477e-10 0.0487021)
(7.90414e-10 1.22907e-09 0.0479448)
(4.73777e-10 1.29201e-09 0.0203724)
(2.85428e-10 1.10189e-09 -0.0397613)
(2.56533e-10 7.28873e-10 -0.124811)
(3.58559e-10 3.03904e-10 -0.211397)
(5.2631e-10 -5.49745e-11 -0.269786)
(6.91733e-10 -2.8865e-10 -0.279739)
(8.067e-10 -3.97319e-10 -0.240682)
(8.50124e-10 -4.15161e-10 -0.169439)
(8.24717e-10 -3.83777e-10 -0.0893345)
(7.49387e-10 -3.35296e-10 -0.0192149)
(6.50163e-10 -2.85566e-10 0.0320948)
(5.50702e-10 -2.33783e-10 0.0648428)
(4.64963e-10 -1.6989e-10 0.0839652)
(3.93572e-10 -6.90772e-11 0.0948279)
(3.30145e-10 3.00678e-11 0.103505)
(2.65386e-10 3.12889e-10 0.0909015)
(1.87e-10 2.80489e-10 0.0775787)
(8.67701e-17 1.90168e-15 -0.0757534)
(3.20212e-16 1.80205e-15 -0.0804719)
(2.2085e-16 2.25345e-17 -0.0862009)
(5.50043e-16 1.74854e-15 -0.0917953)
(3.33127e-16 1.90864e-15 -0.0962819)
(-4.66263e-16 1.59019e-15 -0.0989386)
(5.61036e-15 -8.32445e-16 -0.0994321)
(-4.84675e-15 1.77554e-15 -0.097821)
(-2.37862e-14 2.96729e-15 -0.0945833)
(1.66655e-14 -4.83698e-15 -0.0903486)
(6.69808e-14 -8.03503e-15 -0.0857872)
(3.45582e-14 -5.28053e-15 -0.0817655)
(-1.711e-14 2.54338e-16 -0.0788703)
(-5.18349e-14 3.50339e-15 -0.0774154)
(-7.5943e-14 5.25362e-15 -0.0776828)
(-9.72724e-14 9.42933e-15 -0.0797846)
(-1.20817e-13 1.14724e-14 -0.0835953)
(-9.64281e-14 -5.62619e-16 -0.088785)
(-5.97166e-15 5.08676e-15 -0.0947853)
(-4.98545e-13 1.11887e-13 -0.100862)
(9.01141e-13 -6.3728e-13 -0.106159)
(1.14295e-11 -2.93732e-12 -0.109677)
(2.39619e-11 -2.75932e-12 -0.110272)
(3.03487e-11 1.25162e-12 -0.107012)
(2.12651e-11 3.16717e-12 -0.099877)
(6.5771e-12 1.66411e-12 -0.0900739)
(-7.30714e-13 4.92943e-13 -0.0793775)
(-2.80023e-12 5.97322e-14 -0.0696838)
(3.29462e-12 -3.02798e-12 -0.0628489)
(1.05777e-11 -1.24027e-12 -0.0603579)
(-5.19023e-11 3.75584e-11 -0.0629055)
(-6.27636e-11 5.15647e-11 -0.0708413)
(6.15129e-10 -3.32905e-10 -0.0850271)
(4.51815e-10 -1.34906e-09 -0.102589)
(-9.19719e-09 -2.26097e-09 -0.108685)
(-3.41382e-08 -2.36406e-09 -0.0911808)
(-5.75207e-08 -1.65165e-09 -0.0705458)
(-5.50962e-08 1.70574e-10 -0.0762148)
(-3.08518e-08 2.31159e-09 -0.098583)
(-8.55605e-09 2.90103e-09 -0.107589)
(8.11158e-10 1.94211e-09 -0.0953419)
(1.50474e-09 7.73633e-10 -0.0735622)
(2.42718e-10 -2.7497e-11 -0.0556142)
(4.41159e-10 -6.92715e-10 -0.0487556)
(2.09541e-09 -5.28531e-10 -0.0537797)
(-1.54014e-09 4.75987e-09 -0.0605164)
(-2.68359e-08 2.17697e-08 -0.0449811)
(-8.69039e-08 5.00765e-08 0.013468)
(-1.6933e-07 7.46463e-08 0.108497)
(-2.43985e-07 7.50712e-08 0.221667)
(-2.95553e-07 4.2908e-08 0.343865)
(-3.22861e-07 -1.10715e-08 0.446698)
(-3.12034e-07 -6.07917e-08 0.467677)
(-2.47391e-07 -8.08756e-08 0.370266)
(-1.48004e-07 -6.75721e-08 0.200051)
(-5.81513e-08 -3.88148e-08 0.0454802)
(-5.62225e-09 -1.42725e-08 -0.0408702)
(1.13408e-08 -5.15334e-10 -0.0641333)
(5.66854e-09 8.83056e-09 -0.0553044)
(-1.57055e-08 2.27353e-08 -0.0424696)
(-4.83474e-08 4.17566e-08 -0.0488915)
(-7.88965e-08 5.61861e-08 -0.0887447)
(-8.97851e-08 5.66926e-08 -0.140879)
(-7.71699e-08 4.47484e-08 -0.144784)
(-5.6573e-08 2.82504e-08 -0.0544136)
(-5.03718e-08 9.51555e-09 0.111051)
(-6.88726e-08 -1.55059e-08 0.279291)
(-9.77048e-08 -4.50717e-08 0.374148)
(-1.08355e-07 -6.61936e-08 0.358356)
(-8.75448e-08 -6.69422e-08 0.252842)
(-4.83713e-08 -4.8677e-08 0.118527)
(-1.4467e-08 -2.22456e-08 0.0123144)
(-9.02141e-10 2.75975e-09 -0.0484912)
(-7.82733e-09 2.19639e-08 -0.0901135)
(-2.42412e-08 3.31243e-08 -0.152159)
(-3.61607e-08 3.45005e-08 -0.24156)
(-3.54369e-08 2.73342e-08 -0.311984)
(-2.34912e-08 1.689e-08 -0.299996)
(-7.84613e-09 8.84309e-09 -0.184885)
(2.99052e-09 4.62128e-09 -0.00698478)
(2.5967e-09 3.40854e-10 0.166685)
(-9.88578e-09 -8.9739e-09 0.284574)
(-2.68484e-08 -2.30035e-08 0.325094)
(-3.65129e-08 -3.49051e-08 0.291508)
(-3.30875e-08 -3.71915e-08 0.206514)
(-2.11362e-08 -2.79584e-08 0.10156)
(-1.01178e-08 -1.17201e-08 -0.00210303)
(-5.91289e-09 4.29145e-09 -0.104994)
(-7.3361e-09 1.43718e-08 -0.214894)
(-9.30941e-09 1.66976e-08 -0.316941)
(-8.16083e-09 1.32617e-08 -0.367257)
(-3.84649e-09 7.85505e-09 -0.326738)
(1.50134e-09 3.60312e-09 -0.198724)
(5.55148e-09 1.56413e-09 -0.0296404)
(6.48361e-09 6.62993e-10 0.123757)
(3.43673e-09 -1.25101e-09 0.226211)
(-2.50658e-09 -5.49841e-09 0.270382)
(-8.24983e-09 -1.10968e-08 0.263787)
(-1.08065e-08 -1.52197e-08 0.217295)
(-9.55907e-09 -1.53855e-08 0.14023)
(-6.27103e-09 -1.14405e-08 0.0385005)
(-3.08613e-09 -5.57692e-09 -0.0839061)
(-8.44772e-10 -5.63576e-10 -0.215067)
(8.11534e-10 2.08108e-09 -0.324071)
(2.37545e-09 2.54946e-09 -0.368577)
(3.91373e-09 1.94081e-09 -0.323443)
(5.21825e-09 1.26769e-09 -0.202408)
(6.02482e-09 9.82569e-10 -0.050593)
(6.04444e-09 9.76053e-10 0.0837641)
(5.06558e-09 8.21692e-10 0.173397)
(3.23448e-09 1.5156e-10 0.215755)
(1.16064e-09 -1.02817e-09 0.22046)
(-4.20406e-10 -2.31465e-09 0.19579)
(-1.07975e-09 -3.21084e-09 0.142299)
(-8.34518e-10 -3.49276e-09 0.0556169)
(3.25096e-11 -3.30643e-09 -0.0639042)
(1.18882e-09 -2.94344e-09 -0.199365)
(2.33318e-09 -2.57476e-09 -0.313526)
(3.23628e-09 -2.20156e-09 -0.363504)
(3.81488e-09 -1.77018e-09 -0.327708)
(4.14313e-09 -1.25496e-09 -0.221039)
(4.34807e-09 -6.58347e-10 -0.085081)
(4.47057e-09 -2.2467e-12 0.0368382)
(4.41573e-09 6.5862e-10 0.120074)
(4.04603e-09 1.24328e-09 0.162551)
(3.32484e-09 1.67899e-09 0.174532)
(2.3789e-09 1.90971e-09 0.164945)
(1.4491e-09 1.87477e-09 0.132688)
(7.76514e-10 1.52535e-09 0.0685234)
(4.9358e-10 8.92895e-10 -0.0330171)
(5.77767e-10 1.26853e-10 -0.159083)
(8.89432e-10 -5.6429e-10 -0.274061)
(1.25916e-09 -1.02241e-09 -0.334414)
(1.56302e-09 -1.20337e-09 -0.315061)
(1.74816e-09 -1.15936e-09 -0.225134)
(1.81907e-09 -9.78949e-10 -0.101031)
(1.81143e-09 -7.34428e-10 0.0152743)
(1.7652e-09 -4.56763e-10 0.0962718)
(1.69721e-09 -1.3783e-10 0.136261)
(1.58599e-09 2.45152e-10 0.145508)
(1.38947e-09 6.87465e-10 0.138377)
(1.09e-09 1.11703e-09 0.121595)
(7.33441e-10 1.401e-09 0.0893236)
(4.2103e-10 1.41943e-09 0.0289018)
(2.50622e-10 1.1531e-09 -0.0643742)