/*--------------------------------*- C++ -*----------------------------------*\
  =========                 |
  \\      /  F ield         | OpenFOAM: The Open Source CFD Toolbox
   \\    /   O peration     | Website:  https://openfoam.org
    \\  /    A nd           | Version:  11
     \\/     M anipulation  |
\*---------------------------------------------------------------------------*/
FoamFile
{
    format      ascii;
    class       volScalarField;
    location    "9.843991";
    object      p;
}
// * * * * * * * * * * * * * * * * * * * * * * * * * * * * * * * * * * * * * //

dimensions      [0 2 -2 0 0 0 0];

internalField   nonuniform List<scalar> 
7132
(
0.05448
0.0531126
0.0484998
0.0418044
0.0325152
0.0204471
0.00564792
-0.0116822
-0.0308296
-0.0505723
-0.0693483
-0.0851322
-0.0969707
-0.104233
-0.106918
-0.10573
-0.101681
-0.0957925
-0.0887639
-0.0808122
-0.0717542
-0.0613849
-0.0498855
-0.037807
-0.0258202
-0.0144763
-0.00410562
0.00509687
0.0129388
0.0190775
0.0230076
0.0243496
0.0233458
0.0211742
0.0194927
0.0194288
0.0210523
0.0236924
0.0265914
0.0292893
0.0316889
0.0339757
0.0364213
0.0391771
0.0419513
0.0437565
0.0431348
0.0392344
0.033023
0.0272727
0.0246078
0.0256336
0.0289128
0.0325013
0.0351806
0.0366309
0.0371036
0.0370497
0.0368459
0.0364167
0.0348439
0.0303289
0.0210979
0.00708359
-0.00890089
-0.0218065
-0.0269876
-0.0230887
-0.0129565
-0.00157529
0.00727469
0.012506
0.0148594
0.0154459
0.0149914
0.013739
0.0116119
0.00847063
0.00439566
-0.000107913
-0.00417595
-0.00697253
-0.00813491
-0.00790005
-0.0068597
-0.00559483
-0.00446921
-0.00361946
-0.00303934
-0.00266626
-0.00243466
-0.00229759
-0.00222887
-0.0022175
-0.00226011
-0.0023536
-0.00248951
-0.00265156
-0.00281705
-0.00296145
-0.00306424
-0.00311321
-0.00310604
-0.00304861
-0.00295168
-0.00282751
-0.00268753
-0.00254115
-0.00239558
-0.00225599
-0.00212587
-0.00200732
-0.00190123
-0.00180747
-0.00172505
-0.00165239
-0.00158749
-0.00152824
-0.00147263
-0.00141889
-0.00136571
-0.00131221
-0.00125794
-0.00120285
-0.00114715
-0.00109124
-0.00103558
-0.000980667
-0.000926949
-0.000874795
-0.000824482
-0.000776191
-0.000730009
-0.000685945
-0.000643941
-0.000603895
-0.000565675
-0.000529136
-0.000494136
-0.000460546
-0.000428248
-0.000397158
-0.000367186
-0.000338317
-0.000310437
-0.000283665
-0.000257704
-0.000233066
-0.00020872
-0.000186577
-0.000162932
-0.000144714
-0.000118738
-0.000109653
-7.12183e-05
-8.93725e-05
-5.01076e-06
-0.00011089
0.000127742
-0.000263957
0.0550249
0.0536659
0.0490837
0.0424151
0.0331369
0.0210356
0.00613346
-0.0114045
-0.0308606
-0.0509933
-0.0701568
-0.0861784
-0.0981294
-0.10536
-0.107879
-0.106454
-0.10217
-0.0961182
-0.0890332
-0.0811171
-0.0721183
-0.061757
-0.05019
-0.0379879
-0.0258547
-0.0143679
-0.00387047
0.00543624
0.0133559
0.0195357
0.0234443
0.0246706
0.0234524
0.0210219
0.0191373
0.0189861
0.0206264
0.023333
0.026307
0.0290733
0.0315322
0.0338713
0.0363615
0.0391546
0.0419579
0.0437646
0.0430718
0.03899
0.0325097
0.026514
0.0237551
0.0248699
0.0283447
0.032133
0.0349709
0.0365378
0.0370934
0.037087
0.0368858
0.0363951
0.0346654
0.0298604
0.0201982
0.00567907
-0.0107493
-0.0239113
-0.0290986
-0.0249497
-0.0143532
-0.0024254
0.00689488
0.0124405
0.0149668
0.0156328
0.015199
0.0139267
0.0117435
0.00851249
0.00431894
-0.000316117
-0.00449806
-0.00735645
-0.00851418
-0.00822071
-0.0070988
-0.00575603
-0.00456891
-0.00367547
-0.00306598
-0.00267374
-0.0024302
-0.00228644
-0.00221492
-0.00220358
-0.00224831
-0.00234544
-0.00248603
-0.00265326
-0.00282373
-0.00297222
-0.00307766
-0.0031276
-0.00311984
-0.00306062
-0.00296117
-0.00283422
-0.00269153
-0.00254277
-0.00239528
-0.00225428
-0.00212327
-0.00200429
-0.00189815
-0.00180462
-0.00172262
-0.00165048
-0.00158612
-0.00152738
-0.00147221
-0.00141882
-0.00136588
-0.00131251
-0.00125828
-0.00120316
-0.00114737
-0.00109133
-0.00103555
-0.000980508
-0.00092668
-0.000874439
-0.000824065
-0.00077574
-0.000729547
-0.000685491
-0.000643511
-0.000603497
-0.000565314
-0.000528813
-0.000493848
-0.000460289
-0.000428016
-0.000396946
-0.000366989
-0.000338129
-0.000310256
-0.000283487
-0.000257531
-0.000232892
-0.000208555
-0.000186405
-0.000162785
-0.000144543
-0.000118623
-0.000109478
-7.11239e-05
-8.92218e-05
-4.74369e-06
-0.00011112
0.000129244
-0.000266889
0.0561109
0.0547704
0.0502512
0.0436414
0.0343909
0.0222297
0.00712679
-0.0108281
-0.0309105
-0.051845
-0.0718055
-0.0883069
-0.100483
-0.107641
-0.10981
-0.107888
-0.103116
-0.0967324
-0.0895472
-0.0817271
-0.072871
-0.0625371
-0.0508334
-0.0383768
-0.025944
-0.0141675
-0.00341457
0.00610335
0.0141833
0.0204514
0.0243216
0.0253136
0.0236523
0.0206831
0.0183773
0.0180516
0.019736
0.0225863
0.0257161
0.0286196
0.0311941
0.0336332
0.036209
0.0390741
0.0419331
0.0437366
0.0428925
0.0384337
0.0313926
0.0248852
0.0219385
0.0232543
0.0271506
0.0313597
0.0345228
0.0363226
0.0370398
0.0371254
0.0369287
0.0363212
0.0342885
0.0289074
0.0183728
0.00282643
-0.01451
-0.0281995
-0.0334056
-0.0287635
-0.0172317
-0.00419296
0.00608954
0.012279
0.0151588
0.0159876
0.015599
0.0142905
0.0119973
0.00858665
0.00415215
-0.000752736
-0.00517001
-0.00815599
-0.0093018
-0.00888382
-0.00759071
-0.00608611
-0.00477248
-0.00378997
-0.00312091
-0.00268988
-0.00242203
-0.00226454
-0.0021871
-0.00217558
-0.00222436
-0.00232869
-0.00247869
-0.0026564
-0.00283705
-0.00299394
-0.00310486
-0.00315686
-0.00314795
-0.00308513
-0.00298059
-0.00284799
-0.0026998
-0.00254619
-0.00239477
-0.0022509
-0.00211806
-0.00199819
-0.00189193
-0.00179885
-0.00171768
-0.00164657
-0.00158331
-0.00152562
-0.00147134
-0.00141866
-0.00136621
-0.00131312
-0.00125898
-0.0012038
-0.00114784
-0.00109157
-0.00103551
-0.000980219
-0.000926165
-0.000873744
-0.000823244
-0.000774845
-0.000728627
-0.000684587
-0.000642651
-0.000602702
-0.000564593
-0.000528169
-0.000493277
-0.000459782
-0.000427562
-0.000396534
-0.000366607
-0.000337768
-0.000309912
-0.00028315
-0.000257203
-0.000232563
-0.000208245
-0.000186083
-0.000162511
-0.000144229
-0.000118413
-0.000109167
-7.09504e-05
-8.89826e-05
-4.20017e-06
-0.000111693
0.000132359
-0.000272776
0.0577309
0.0564205
0.0520033
0.0454929
0.0362987
0.0240636
0.00867191
-0.00991172
-0.0309567
-0.0531516
-0.0743654
-0.0915979
-0.104118
-0.11116
-0.112776
-0.110072
-0.104529
-0.0976235
-0.0902873
-0.0826375
-0.0740296
-0.0637549
-0.0518443
-0.0389939
-0.0261003
-0.013883
-0.0027443
0.00709235
0.0154171
0.0218249
0.0256396
0.0262627
0.0238918
0.0200571
0.0170871
0.0165099
0.0182971
0.0213976
0.0247805
0.0278956
0.0306404
0.0332229
0.0359188
0.0388812
0.0418069
0.0435758
0.0424592
0.0373729
0.0294147
0.0220796
0.0188706
0.0205754
0.025204
0.0301108
0.0337882
0.0359409
0.0368951
0.0371072
0.0369013
0.0361089
0.0336172
0.0273616
0.0155097
-0.00157036
-0.0202383
-0.0346734
-0.0398842
-0.0345166
-0.0216193
-0.00693708
0.00479545
0.011968
0.0153915
0.0164743
0.0161622
0.0148051
0.0123476
0.00865956
0.00384713
-0.00148482
-0.00627411
-0.00945525
-0.0105678
-0.009937
-0.00836147
-0.0065962
-0.00508317
-0.00396285
-0.00320285
-0.00271301
-0.00240843
-0.00223025
-0.00214408
-0.0021326
-0.00218791
-0.00230362
-0.00246841
-0.00266256
-0.00285908
-0.00302894
-0.00314815
-0.00320297
-0.00319183
-0.00312301
-0.00301028
-0.00286873
-0.00271195
-0.00255083
-0.00239341
-0.00224521
-0.00210967
-0.00198855
-0.00188223
-0.00178996
-0.00171017
-0.00164072
-0.00157919
-0.00152311
-0.00147021
-0.0014186
-0.00136688
-0.00131418
-0.00126015
-0.00120484
-0.00114858
-0.00109192
-0.00103544
-0.000979745
-0.000925339
-0.000872644
-0.000821955
-0.000773452
-0.000727206
-0.000683198
-0.000641341
-0.000601498
-0.000563509
-0.000527206
-0.000492425
-0.000459027
-0.000426887
-0.00039592
-0.000366038
-0.000337228
-0.000309391
-0.000282636
-0.000256703
-0.000232057
-0.000207767
-0.000185584
-0.000162087
-0.000143736
-0.000118093
-0.000108665
-7.07201e-05
-8.85306e-05
-3.53234e-06
-0.000112258
0.000136567
-0.000280771
0.059873
0.058607
0.0543395
0.0479827
0.0388919
0.0265904
0.0108395
-0.00858615
-0.0309574
-0.0549473
-0.0779439
-0.0961663
-0.109145
-0.115992
-0.116784
-0.112935
-0.106287
-0.0986654
-0.0911814
-0.0838692
-0.0756982
-0.0655462
-0.0533425
-0.0399246
-0.0263794
-0.0135531
-0.00189047
0.00837759
0.0170392
0.0236492
0.0273959
0.027494
0.0240874
0.0189807
0.0150538
0.0141598
0.0161618
0.0196704
0.023434
0.0268449
0.0298123
0.032572
0.0354105
0.0384774
0.0414522
0.0431187
0.0415549
0.0355046
0.0261762
0.0176248
0.0140838
0.0164684
0.0222767
0.0282587
0.0326859
0.0353217
0.0365752
0.0369193
0.0366654
0.0356204
0.0325186
0.0250656
0.0113703
-0.00787831
-0.0283948
-0.0437455
-0.0487494
-0.0422146
-0.0274777
-0.0106644
0.00296531
0.0114487
0.0156086
0.017042
0.0168456
0.0154291
0.0127511
0.00867873
0.00333208
-0.00261211
-0.00793714
-0.0113892
-0.0124291
-0.0114642
-0.00945957
-0.00730852
-0.00550833
-0.00419466
-0.00330975
-0.00274018
-0.00238618
-0.00218049
-0.00208313
-0.00207245
-0.00213745
-0.00226955
-0.00245551
-0.00267312
-0.00289218
-0.00308028
-0.00321082
-0.00326903
-0.00325403
-0.0031761
-0.00305132
-0.00289685
-0.00272785
-0.00255621
-0.00239049
-0.0022364
-0.00209731
-0.00197468
-0.0018685
-0.00177756
-0.00169985
-0.00163284
-0.00157379
-0.00152
-0.00146903
-0.00141889
-0.00136813
-0.00131593
-0.00126198
-0.00120642
-0.0011497
-0.00109244
-0.00103535
-0.00097906
-0.000924157
-0.000871079
-0.000820136
-0.000771503
-0.000725235
-0.000681291
-0.000639558
-0.000599878
-0.000562065
-0.000525936
-0.000491315
-0.000458052
-0.000426021
-0.000395134
-0.000365309
-0.000336532
-0.000308717
-0.000281967
-0.000256045
-0.00023139
-0.000207134
-0.00018492
-0.000161528
-0.000143076
-0.000117687
-0.000107972
-7.04976e-05
-8.78163e-05
-2.9347e-06
-0.000112548
0.000141326
-0.000289906
0.0625198
0.0613159
0.0572577
0.051127
0.0422122
0.0298824
0.0137282
-0.0067522
-0.0308515
-0.0572889
-0.0827092
-0.102192
-0.115764
-0.122344
-0.122017
-0.116604
-0.108434
-0.0998267
-0.0921685
-0.0853952
-0.0779133
-0.0679869
-0.0554046
-0.0412257
-0.0268196
-0.0132085
-0.000885379
0.00992354
0.0190152
0.0258989
0.0295674
0.0289485
0.0240848
0.0171807
0.0119441
0.0107022
0.0131195
0.0172725
0.0215872
0.0253915
0.028629
0.0315864
0.0345664
0.0376834
0.0405986
0.0420473
0.0399454
0.032772
0.0216893
0.0113672
0.00716262
0.0104693
0.0180445
0.0256215
0.0311065
0.0343682
0.0359578
0.0364068
0.0360695
0.034737
0.0308671
0.0217993
0.00558181
-0.0165907
-0.0395262
-0.0559466
-0.0603974
-0.0520293
-0.0348021
-0.0153464
0.00057175
0.0106501
0.0157267
0.0176093
0.017569
0.0160839
0.0131295
0.00857249
0.00254072
-0.00421082
-0.010263
-0.0140908
-0.0150206
-0.0135707
-0.0109476
-0.00825117
-0.00605651
-0.00448554
-0.00343893
-0.00276802
-0.0023519
-0.00211223
-0.00200185
-0.00199349
-0.00207222
-0.00222681
-0.0024416
-0.00269107
-0.00294054
-0.00315287
-0.00329788
-0.00335947
-0.00333798
-0.0032466
-0.00310475
-0.00293246
-0.00274692
-0.00256129
-0.00238477
-0.00222322
-0.00207983
-0.00195565
-0.00185006
-0.00176124
-0.00168654
-0.00162295
-0.0015673
-0.00151659
-0.00146816
-0.0014199
-0.00137033
-0.00131866
-0.0012647
-0.0012087
-0.00115126
-0.00109315
-0.00103517
-0.000978083
-0.00092251
-0.000868937
-0.000817679
-0.000768901
-0.000722635
-0.000678807
-0.000637267
-0.000597823
-0.000560261
-0.000524372
-0.000489964
-0.000456878
-0.000424984
-0.000394194
-0.000364433
-0.000335689
-0.000307891
-0.000281138
-0.000255223
-0.000230547
-0.000206331
-0.000184071
-0.000160815
-0.00014222
-0.000117191
-0.000107041
-7.03366e-05
-8.6701e-05
-2.66748e-06
-0.000112076
0.000145777
-0.000298649
0.0656468
0.0645273
0.0607519
0.054943
0.0463109
0.0340342
0.017473
-0.00426597
-0.0305422
-0.0602504
-0.0888867
-0.10989
-0.124162
-0.130307
-0.128396
-0.120841
-0.110652
-0.100823
-0.0931121
-0.0872977
-0.080935
-0.0713854
-0.0582829
-0.0430654
-0.0275276
-0.0129288
0.000196432
0.0116516
0.0212683
0.0285086
0.0320921
0.0305124
0.023637
0.0142346
0.0072386
0.00567055
0.00885353
0.0140167
0.0191204
0.023434
0.0269827
0.0301375
0.0331869
0.0361523
0.0387528
0.0398062
0.0371542
0.0290423
0.0162736
0.00375479
-0.00175113
0.00232467
0.0121702
0.0219586
0.0288966
0.0329452
0.0348809
0.0353972
0.0349917
0.0333734
0.0285294
0.0173327
-0.00210232
-0.0278351
-0.053617
-0.07123
-0.0748446
-0.064005
-0.0435612
-0.0209296
-0.00239312
0.00949699
0.0156405
0.0180625
0.0182063
0.0166292
0.0133604
0.00829646
0.00155407
-0.00610119
-0.0130792
-0.017495
-0.0183871
-0.0163392
-0.0128911
-0.00945771
-0.00673858
-0.00483587
-0.00358728
-0.00279249
-0.00230137
-0.00202153
-0.00189699
-0.00189347
-0.00199112
-0.00217571
-0.0024287
-0.00272028
-0.00300968
-0.00325327
-0.00341603
-0.00348027
-0.00344829
-0.00333756
-0.00317213
-0.00297585
-0.00276855
-0.00256489
-0.00237476
-0.00220413
-0.00205584
-0.00193029
-0.00182606
-0.00174044
-0.00167
-0.00161107
-0.00155994
-0.00151323
-0.00146804
-0.0014221
-0.00137392
-0.00132278
-0.00126862
-0.00121189
-0.00115339
-0.00109407
-0.00103489
-0.000976726
-0.000920285
-0.000866088
-0.000814458
-0.000765539
-0.000719323
-0.000675689
-0.000634438
-0.000595329
-0.00055811
-0.000522541
-0.000488411
-0.000455548
-0.00042382
-0.000393142
-0.000363446
-0.000334728
-0.000306937
-0.000280165
-0.000254247
-0.000229536
-0.000205361
-0.000183039
-0.000159955
-0.000141168
-0.000116629
-0.000105853
-7.03304e-05
-8.50698e-05
-3.0828e-06
-0.000110298
0.000148752
-0.000304936
0.0692206
0.0682126
0.0648099
0.0594463
0.0512456
0.0391614
0.0222468
-0.000932836
-0.0298941
-0.0639536
-0.0968154
-0.119591
-0.134747
-0.140375
-0.136414
-0.126013
-0.113078
-0.101573
-0.0938379
-0.0894862
-0.0848352
-0.0759125
-0.0621473
-0.0455665
-0.028589
-0.0127925
0.0012604
0.0134436
0.0236615
0.0313507
0.0348127
0.0319187
0.022249
0.00936034
7.16704e-05
-0.00161346
0.00294019
0.00966743
0.0158856
0.020848
0.0247442
0.0280532
0.0309628
0.033393
0.0353588
0.0358638
0.0326546
0.0236544
0.0092666
-0.0054603
-0.0124876
-0.00788296
0.00449617
0.0170547
0.0258757
0.0308835
0.033164
0.0337345
0.0333321
0.0314248
0.0253527
0.0115481
-0.0115844
-0.0411925
-0.069981
-0.0888229
-0.0914475
-0.0777205
-0.0535112
-0.0272855
-0.00591257
0.0079104
0.0152157
0.0182286
0.0185378
0.0168284
0.0132527
0.00778532
0.000506854
-0.00792218
-0.015896
-0.0211805
-0.0223113
-0.0197185
-0.0153087
-0.0109504
-0.00756319
-0.00524549
-0.0037518
-0.00281021
-0.00223139
-0.00190572
-0.00176667
-0.00177153
-0.00189442
-0.00211794
-0.00242039
-0.00276646
-0.00310723
-0.00339027
-0.00357404
-0.00363906
-0.0035907
-0.00345257
-0.00325505
-0.00302705
-0.00279164
-0.00256526
-0.00235845
-0.00217714
-0.00202357
-0.00189721
-0.00179553
-0.00171463
-0.00165008
-0.00159734
-0.00155208
-0.00151046
-0.00146928
-0.0014261
-0.00137946
-0.00132874
-0.0012741
-0.00121623
-0.0011562
-0.00109521
-0.00103442
-0.000974854
-0.000917314
-0.000862361
-0.000810313
-0.000761279
-0.000715192
-0.000671865
-0.00063103
-0.000592384
-0.000555624
-0.000520473
-0.000486695
-0.000454106
-0.000422572
-0.000392013
-0.000362378
-0.000333672
-0.000305867
-0.000279054
-0.000253115
-0.000228348
-0.000204215
-0.000181809
-0.000158938
-0.000139899
-0.000116005
-0.000104366
-7.05624e-05
-8.27662e-05
-4.58684e-06
-0.000106517
0.000148703
-0.00030596
0.0731973
0.0723334
0.0694104
0.0646481
0.0570797
0.0454064
0.0282768
0.0035263
-0.0286943
-0.0685528
-0.106936
-0.131628
-0.147713
-0.152456
-0.145619
-0.13143
-0.114998
-0.101536
-0.0941477
-0.0922137
-0.0902081
-0.0822136
-0.0674847
-0.0490295
-0.0301896
-0.0129514
0.00213714
0.0150852
0.0259612
0.034171
0.0373815
0.0325441
0.0189014
0.00119118
-0.0110115
-0.0122398
-0.00526499
0.0039066
0.0117074
0.0174958
0.0217648
0.0250998
0.0275215
0.0290045
0.0302159
0.0302534
0.0264324
0.0160976
-0.000308773
-0.0171522
-0.0253862
-0.0200712
-0.00496965
0.0107752
0.0218607
0.0279903
0.0306236
0.0312764
0.0309645
0.0287344
0.0212002
0.00450401
-0.0224395
-0.0558497
-0.0875178
-0.107513
-0.109091
-0.0923332
-0.0641451
-0.034175
-0.00993564
0.00581373
0.0142862
0.01786
0.0182555
0.0163685
0.0125286
0.00681238
-0.000740843
-0.00966229
-0.0184823
-0.0247481
-0.0263998
-0.023484
-0.0181214
-0.0127143
-0.00852837
-0.00571151
-0.00392895
-0.00281794
-0.00213905
-0.0017624
-0.00160935
-0.00162739
-0.00178318
-0.00205619
-0.00242136
-0.00283662
-0.00324234
-0.00357428
-0.00378223
-0.00384478
-0.00377192
-0.00359577
-0.0033553
-0.00308595
-0.00281483
-0.00256027
-0.00233343
-0.00213991
-0.00198102
-0.00185489
-0.00175745
-0.00168328
-0.00162664
-0.00158197
-0.00154419
-0.00150889
-0.00147255
-0.00143259
-0.00138758
-0.00133707
-0.00128151
-0.00122196
-0.0011598
-0.00109656
-0.00103367
-0.000972313
-0.000913416
-0.00085757
-0.000805076
-0.000755984
-0.000710146
-0.000667278
-0.000627024
-0.000589
-0.00055284
-0.000518218
-0.000484873
-0.000452609
-0.000421294
-0.000390858
-0.00036127
-0.00033255
-0.000304703
-0.000277818
-0.000251835
-0.000226989
-0.000202894
-0.000180381
-0.000157765
-0.000138411
-0.000115342
-0.000102563
-7.11395e-05
-7.96572e-05
-7.66338e-06
-9.9982e-05
0.000143631
-0.000298112
0.0775202
0.0768378
0.0745188
0.0705477
0.0638732
0.0529278
0.0358375
0.00947927
-0.0266595
-0.0743301
-0.119918
-0.146608
-0.164001
-0.167885
-0.157377
-0.138064
-0.116712
-0.10042
-0.0935648
-0.0952583
-0.0972492
-0.090703
-0.074672
-0.0537033
-0.0324961
-0.0135728
0.00260164
0.0162769
0.0278148
0.0364263
0.0391673
0.0319153
0.01307
-0.0112189
-0.0275149
-0.0276426
-0.0166129
-0.00365236
0.00639656
0.0132376
0.0178727
0.0210013
0.0225247
0.0228682
0.0234686
0.0232086
0.0185882
0.00641963
-0.0123725
-0.0312978
-0.04042
-0.0340609
-0.0160583
0.00310856
0.0167071
0.0240755
0.027084
0.0278722
0.0277093
0.0251036
0.0159861
-0.00357902
-0.0340372
-0.0708023
-0.104957
-0.125896
-0.126422
-0.106756
-0.0747642
-0.0412584
-0.0143754
0.00313187
0.0126503
0.0166656
0.0170566
0.0149858
0.0109713
0.00517349
-0.00243089
-0.0115942
-0.0210152
-0.0281289
-0.0303695
-0.0273504
-0.0211628
-0.0146835
-0.00961284
-0.00622569
-0.00411443
-0.00281358
-0.00202387
-0.00159273
-0.00142787
-0.00146471
-0.00166133
-0.00199452
-0.00243624
-0.00293656
-0.00342243
-0.00381413
-0.00404981
-0.00410578
-0.00399839
-0.0037711
-0.00347434
-0.00315205
-0.00283622
-0.00254733
-0.0022969
-0.00208985
-0.00192606
-0.0018018
-0.00171089
-0.001646
-0.00159975
-0.00156535
-0.00153681
-0.00150918
-0.00147855
-0.00144223
-0.00139885
-0.00134824
-0.00129121
-0.00122926
-0.00116425
-0.00109809
-0.00103251
-0.000968937
-0.000908404
-0.000851534
-0.00079859
-0.000749531
-0.000704096
-0.000661878
-0.000622402
-0.000585186
-0.000549783
-0.000515817
-0.000482994
-0.000451108
-0.000420034
-0.000389717
-0.000360154
-0.000331386
-0.00030346
-0.000276465
-0.000250409
-0.000225454
-0.000201392
-0.000178748
-0.000156432
-0.000136696
-0.000114647
-0.000100419
-7.21475e-05
-7.56082e-05
-1.28081e-05
-8.98832e-05
0.000131121
-0.00027695
0.0821174
0.081659
0.0800832
0.0771303
0.0716807
0.0619149
0.0452887
0.0174731
-0.0233219
-0.0816293
-0.136667
-0.164909
-0.183341
-0.185618
-0.170117
-0.144271
-0.116878
-0.0974169
-0.0919032
-0.0993008
-0.10726
-0.102702
-0.0846322
-0.060107
-0.0358127
-0.0149288
0.00231189
0.0165992
0.0284793
0.0368252
0.0387973
0.0300398
0.00721756
-0.0242625
-0.0476046
-0.0484135
-0.0320796
-0.0135336
-0.000257172
0.00794717
0.0128918
0.0155076
0.0157904
0.0150411
0.0152725
0.0148379
0.00925049
-0.00488579
-0.0260132
-0.0469039
-0.056785
-0.0493007
-0.0283942
-0.00580935
0.010349
0.0189846
0.0223829
0.0233452
0.0233379
0.0203253
0.00969427
-0.0123684
-0.0456562
-0.0849896
-0.12099
-0.142539
-0.142044
-0.119825
-0.0845813
-0.0481357
-0.019115
-0.000206028
0.0101081
0.0144108
0.0147859
0.0126373
0.00861139
0.00290026
-0.0045942
-0.0137853
-0.0235137
-0.0312124
-0.0339906
-0.0310213
-0.0242059
-0.016741
-0.0107708
-0.00677171
-0.00430175
-0.00279423
-0.00188533
-0.00139885
-0.00122741
-0.00129021
-0.00153498
-0.00193626
-0.00246463
-0.00306304
-0.00364375
-0.00410779
-0.0043774
-0.00442462
-0.00427323
-0.00398081
-0.00361285
-0.00322445
-0.00285378
-0.00252378
-0.00224614
-0.00202458
-0.00185692
-0.00173682
-0.00165535
-0.00160271
-0.00156959
-0.00154779
-0.00153037
-0.00151173
-0.00148765
-0.00145534
-0.00141356
-0.00136246
-0.00130333
-0.00123823
-0.00116956
-0.00109973
-0.00103086
-0.000964617
-0.000902169
-0.000844158
-0.000790781
-0.000741876
-0.000697028
-0.000655674
-0.000617192
-0.00058098
-0.000546499
-0.000513313
-0.000481096
-0.000449635
-0.000418816
-0.000388608
-0.000359042
-0.00033019
-0.000302145
-0.000275001
-0.000248839
-0.000223749
-0.000199714
-0.000176916
-0.000154945
-0.000134763
-0.000113935
-9.7936e-05
-7.36648e-05
-7.0535e-05
-2.04995e-05
-7.54845e-05
0.000108452
-0.000237451
0.0869004
0.0867103
0.0860274
0.0843473
0.0805277
0.0725383
0.0570248
0.0281951
-0.0181416
-0.0911572
-0.158434
-0.187876
-0.208529
-0.209541
-0.187291
-0.152115
-0.115799
-0.091479
-0.0879892
-0.103939
-0.120973
-0.119297
-0.0982077
-0.0687182
-0.0404297
-0.0173292
0.000887525
0.0154374
0.0264175
0.032707
0.0329609
0.0233756
0.000329897
-0.0352137
-0.0670402
-0.0721982
-0.0514757
-0.0260777
-0.00846757
0.00150263
0.0066778
0.00846191
0.00731313
0.00562238
0.00572764
0.00523037
-0.00127404
-0.017083
-0.0401114
-0.062676
-0.0732832
-0.0648593
-0.0413687
-0.0156843
0.00282875
0.0126285
0.0163798
0.0174968
0.0176019
0.0142183
0.00237698
-0.0214769
-0.0565742
-0.0973984
-0.134378
-0.156085
-0.154633
-0.130428
-0.0928324
-0.0544047
-0.0240243
-0.00425027
0.00653466
0.0110163
0.0114876
0.00947494
0.00563469
0.000157356
-0.00707632
-0.01605
-0.0257525
-0.0337376
-0.0369677
-0.034184
-0.0269928
-0.0187314
-0.0119324
-0.00732467
-0.00448313
-0.0027582
-0.00172619
-0.00118888
-0.00102172
-0.00111845
-0.00141272
-0.00187845
-0.00248935
-0.00318675
-0.00387162
-0.00442368
-0.00474247
-0.00478819
-0.00459034
-0.00422251
-0.00376963
-0.00330181
-0.00286575
-0.00248767
-0.00217937
-0.00194282
-0.00177296
-0.00165987
-0.00159111
-0.00155387
-0.00153655
-0.00152945
-0.00152471
-0.00151619
-0.00149936
-0.0014714
-0.00143122
-0.00137935
-0.00131761
-0.00124868
-0.00117564
-0.00110147
-0.00102873
-0.000959407
-0.000894793
-0.000835543
-0.00078176
-0.000733124
-0.000689033
-0.000648734
-0.000611437
-0.000576399
-0.000542983
-0.000510686
-0.000479151
-0.000448157
-0.000417609
-0.000387503
-0.000357913
-0.000328946
-0.000300746
-0.00027342
-0.000247126
-0.000221875
-0.000197861
-0.000174891
-0.000153302
-0.000132615
-0.0001132
-9.51168e-05
-7.57119e-05
-6.43943e-05
-3.10784e-05
-5.62231e-05
7.29552e-05
-0.000174593
0.0917628
0.0918867
0.0922469
0.0921232
0.0904087
0.0850097
0.0715827
0.0427925
-0.0100415
-0.103964
-0.187465
-0.214895
-0.236449
-0.235462
-0.205213
-0.158877
-0.111765
-0.0820956
-0.082135
-0.110983
-0.141355
-0.143425
-0.11728
-0.0804484
-0.0468187
-0.0211759
-0.00208753
0.0117727
0.01954
0.0214135
0.0187462
0.00919665
-0.01134
-0.0478122
-0.0861949
-0.0967167
-0.0735315
-0.0410725
-0.0182932
-0.0061728
-0.000848797
-0.000175596
-0.00283343
-0.0053148
-0.00511992
-0.00548512
-0.0125496
-0.0293922
-0.0536261
-0.0774004
-0.088681
-0.0796564
-0.0542118
-0.0260825
-0.00569338
0.00500056
0.00896626
0.0101273
0.0102688
0.00665456
-0.00585415
-0.0305091
-0.0661367
-0.107145
-0.14405
-0.165366
-0.163061
-0.137627
-0.0988726
-0.0597152
-0.0289743
-0.00899569
0.00193321
0.00657205
0.00733236
0.00569566
0.00222606
-0.00288548
-0.00968396
-0.0181631
-0.0274996
-0.0354726
-0.0390427
-0.0365613
-0.0292763
-0.0204862
-0.0130124
-0.00785212
-0.00464872
-0.00270343
-0.00155032
-0.000974595
-0.000829219
-0.000968531
-0.0013042
-0.00181031
-0.00247237
-0.0032442
-0.00402823
-0.00468605
-0.00508446
-0.00515602
-0.0049266
-0.00448518
-0.00394034
-0.00338287
-0.00287205
-0.00243949
-0.00209759
-0.00184615
-0.00167621
-0.00157318
-0.00152015
-0.00150076
-0.00150101
-0.00150977
-0.00151851
-0.00152069
-0.00151157
-0.00148834
-0.00145003
-0.00139746
-0.00133298
-0.00125997
-0.0011822
-0.0011033
-0.00102635
-0.000953665
-0.000886709
-0.00082614
-0.000771955
-0.000723652
-0.000680415
-0.00064128
-0.000605271
-0.0005715
-0.000539222
-0.000507869
-0.000477054
-0.000446554
-0.000416289
-0.00038629
-0.000356672
-0.00032758
-0.000299215
-0.000271693
-0.000245257
-0.000219834
-0.00019584
-0.000172687
-0.000151511
-0.000130271
-0.000112431
-9.19882e-05
-7.82526e-05
-5.72303e-05
-4.4653e-05
-3.1908e-05
2.25894e-05
-8.44622e-05
0.0965796
0.0970563
0.0986004
0.100303
0.101235
0.0993632
0.0894195
0.0623852
0.00163261
-0.120701
-0.225715
-0.2513
-0.276778
-0.273601
-0.229959
-0.166914
-0.103229
-0.0653315
-0.0724863
-0.121898
-0.1717
-0.178288
-0.143962
-0.0962777
-0.0554576
-0.02679
-0.00706618
0.00449239
0.00644097
0.00334572
-0.00164299
-0.00939197
-0.0271978
-0.0630408
-0.105064
-0.120329
-0.0964744
-0.057758
-0.0295494
-0.0150659
-0.00968251
-0.0103333
-0.0145473
-0.0177161
-0.01721
-0.0170822
-0.0240652
-0.0410713
-0.065648
-0.0900276
-0.101851
-0.0926412
-0.0660977
-0.0364723
-0.0149474
-0.0038174
8.21099e-05
0.00107061
0.00116125
-0.0024204
-0.0148399
-0.0390964
-0.0738098
-0.113556
-0.14921
-0.169526
-0.166517
-0.140765
-0.102257
-0.0638139
-0.0338432
-0.0143644
-0.00358974
0.00123281
0.00247731
0.00142103
-0.00152191
-0.00612223
-0.012276
-0.0199765
-0.0286283
-0.0363032
-0.0400719
-0.0379678
-0.0308618
-0.0218529
-0.0139247
-0.00832002
-0.00479102
-0.00263451
-0.00137316
-0.00078531
-0.000688527
-0.000878727
-0.00123574
-0.00173762
-0.00239005
-0.00317775
-0.00402787
-0.00479679
-0.00531303
-0.0054609
-0.00523926
-0.00474621
-0.00411621
-0.00346685
-0.00287603
-0.00238459
-0.00200718
-0.00174139
-0.00157341
-0.00148274
-0.00144706
-0.00144619
-0.0014638
-0.00148763
-0.00150903
-0.00152148
-0.00152014
-0.00150207
-0.00146632
-0.00141386
-0.00134739
-0.00127084
-0.00118869
-0.00110525
-0.00102417
-0.000948133
-0.000878805
-0.000816873
-0.000762229
-0.000714189
-0.000671728
-0.000633676
-0.00059888
-0.00056631
-0.000535124
-0.000504691
-0.00047459
-0.000444593
-0.000414636
-0.000384773
-0.00035516
-0.000325974
-0.00029747
-0.000269773
-0.000243209
-0.000217625
-0.000193658
-0.000170317
-0.000149571
-0.000127744
-0.000111585
-8.8576e-05
-8.11456e-05
-4.91668e-05
-6.09407e-05
-2.88397e-06
-4.32044e-05
3.42156e-05
0.101209
0.102072
0.104905
0.108703
0.112825
0.115776
0.111254
0.0901279
0.0195043
-0.15071
-0.277101
-0.28686
-0.31614
-0.312939
-0.258925
-0.175122
-0.0911812
-0.0443445
-0.0578766
-0.134058
-0.212756
-0.227389
-0.181509
-0.117902
-0.0670244
-0.0344365
-0.0145903
-0.00746541
-0.0126138
-0.0192771
-0.0241621
-0.0286529
-0.0438986
-0.0779454
-0.121123
-0.140446
-0.117781
-0.0747202
-0.0416939
-0.0249894
-0.0197002
-0.0218474
-0.0277021
-0.0315032
-0.0304112
-0.0292332
-0.0352817
-0.0514588
-0.0754346
-0.0997218
-0.111875
-0.102905
-0.0762443
-0.0462796
-0.0245749
-0.013654
-0.0102613
-0.00976455
-0.00980524
-0.0129719
-0.0243813
-0.0469199
-0.0792178
-0.116222
-0.149422
-0.168118
-0.164599
-0.139542
-0.10279
-0.0665677
-0.0385154
-0.020225
-0.00989469
-0.00489281
-0.00303695
-0.00335553
-0.00561005
-0.00950396
-0.0147732
-0.0214249
-0.0291084
-0.0362221
-0.0400221
-0.0383282
-0.0316316
-0.0227175
-0.0145963
-0.00869887
-0.0049077
-0.00256592
-0.00122624
-0.00067016
-0.000659148
-0.000920647
-0.00129748
-0.00175944
-0.00232993
-0.00304044
-0.00387513
-0.0047157
-0.00536035
-0.00562974
-0.00547179
-0.00497119
-0.00428275
-0.00355336
-0.00288575
-0.00233545
-0.00192254
-0.00164319
-0.00147818
-0.00140019
-0.0013808
-0.00139576
-0.00142711
-0.00146247
-0.0014935
-0.00151421
-0.00151979
-0.00150718
-0.00147512
-0.00142427
-0.00135748
-0.00127905
-0.00119395
-0.00110708
-0.00102264
-0.000943743
-0.000872288
-0.000809034
-0.00075382
-0.000705829
-0.000663865
-0.000626588
-0.000592696
-0.000561047
-0.000530721
-0.000501036
-0.000471545
-0.000442007
-0.000412363
-0.000382678
-0.000353137
-0.000323935
-0.000295369
-0.000267568
-0.000240934
-0.000215231
-0.000191317
-0.000167806
-0.000147492
-0.000125069
-0.000110622
-8.49474e-05
-8.4178e-05
-4.04647e-05
-7.92018e-05
2.97665e-05
-0.000122619
0.00017835
0.105498
0.106754
0.110937
0.116965
0.124843
0.133548
0.137371
0.125248
0.0451331
-0.169062
-0.363904
-0.354549
-0.385187
-0.373139
-0.295571
-0.186
-0.0779386
-0.0137888
-0.0307857
-0.130936
-0.241161
-0.276094
-0.225302
-0.145045
-0.0818696
-0.0443263
-0.0251002
-0.024302
-0.0362098
-0.0449142
-0.0464625
-0.0466781
-0.0589792
-0.0902057
-0.132701
-0.155108
-0.135094
-0.0902543
-0.053878
-0.0355392
-0.0306288
-0.0344615
-0.0421068
-0.0465073
-0.0444648
-0.0415071
-0.0456581
-0.0600023
-0.0824453
-0.105913
-0.118119
-0.10977
-0.0839979
-0.0549467
-0.0341584
-0.0242503
-0.0219537
-0.0223513
-0.022587
-0.0248619
-0.0342437
-0.0537224
-0.0821642
-0.115046
-0.144665
-0.161174
-0.157383
-0.134058
-0.100541
-0.0679603
-0.0428842
-0.0264337
-0.0168783
-0.0118012
-0.00929755
-0.00874064
-0.0100854
-0.0130069
-0.0171325
-0.0224918
-0.0289645
-0.0352844
-0.0389458
-0.0376597
-0.0315485
-0.0230185
-0.0149802
-0.00897254
-0.00501139
-0.00253782
-0.00117732
-0.000720898
-0.000862637
-0.00125289
-0.00168221
-0.00209668
-0.00250941
-0.00300927
-0.00368475
-0.00448905
-0.00521242
-0.00561267
-0.00556511
-0.00511504
-0.00441621
-0.00363833
-0.00291111
-0.00231023
-0.00186557
-0.00157406
-0.00141141
-0.00134333
-0.00133554
-0.00136049
-0.00139878
-0.00143849
-0.00147304
-0.00149742
-0.00150732
-0.00149916
-0.00147113
-0.00142371
-0.00135906
-0.00128133
-0.00119577
-0.00110764
-0.00102156
-0.000941023
-0.000868181
-0.000803933
-0.000748133
-0.000699909
-0.000657982
-0.000620928
-0.000587376
-0.000556129
-0.000526224
-0.00049695
-0.000467838
-0.000438632
-0.000409264
-0.000379791
-0.000350403
-0.000321293
-0.000292785
-0.000264994
-0.000238386
-0.000212644
-0.00018883
-0.000165188
-0.000145298
-0.000122302
-0.000109505
-8.12055e-05
-8.70657e-05
-3.15196e-05
-9.81971e-05
6.4151e-05
-0.000210797
0.000339218
0.109284
0.110927
0.116421
0.124771
0.136692
0.152771
0.168598
0.180655
0.0879997
-0.157098
-0.407771
-0.3763
-0.435107
-0.435677
-0.345723
-0.216369
-0.0975444
-0.0302503
-0.0359177
-0.123463
-0.246057
-0.304962
-0.262112
-0.172414
-0.0985069
-0.0562386
-0.0387441
-0.0455435
-0.0632945
-0.0723372
-0.0678382