/*--------------------------------*- C++ -*----------------------------------*\
  =========                 |
  \\      /  F ield         | OpenFOAM: The Open Source CFD Toolbox
   \\    /   O peration     | Website:  https://openfoam.org
    \\  /    A nd           | Version:  11
     \\/     M anipulation  |
\*---------------------------------------------------------------------------*/
FoamFile
{
    format      ascii;
    class       surfaceScalarField;
    location    "19.582311";
    object      phi_0;
}
// * * * * * * * * * * * * * * * * * * * * * * * * * * * * * * * * * * * * * //

dimensions      [0 3 -1 0 0 0 0];

internalField   nonuniform List<scalar> 
14638
(
0.00250268
-2.68425e-06
0.00251056
-7.87513e-06
0.0025235
-1.29391e-05
0.00254135
-1.78524e-05
0.00256389
-2.25429e-05
0.00259066
-2.67617e-05
0.00262075
-3.00919e-05
0.00265261
-3.18607e-05
0.00268397
-3.13588e-05
0.00271218
-2.82131e-05
0.00273461
-2.24317e-05
0.00275054
-1.59324e-05
0.00276071
-1.01707e-05
0.00276732
-6.60919e-06
0.00277288
-5.55313e-06
0.00277858
-5.70741e-06
0.00278343
-4.84925e-06
0.00278398
-5.50206e-07
0.0027758
8.18074e-06
0.00275577
2.00325e-05
0.00272364
3.21258e-05
0.00268216
4.14887e-05
0.00263614
4.60132e-05
0.00259152
4.46188e-05
0.00255448
3.70409e-05
0.00253082
2.366e-05
0.00252522
5.60191e-06
0.00254012
-1.49022e-05
0.00257414
-3.40155e-05
0.0026207
-4.65588e-05
0.00266857
-4.78691e-05
0.00270509
-3.65215e-05
0.00272077
-1.56814e-05
0.00271234
8.43325e-06
0.00268269
2.96421e-05
0.00263863
4.40613e-05
0.00258832
5.03094e-05
0.00253985
4.84782e-05
0.00250076
3.90853e-05
0.00247807
2.26855e-05
0.00247777
3.00959e-07
0.00250327
-2.5498e-05
0.00255286
-4.95869e-05
0.00261779
-6.49281e-05
0.00268327
-6.54819e-05
0.00273304
-4.97729e-05
0.00275532
-2.2275e-05
0.00274658
8.73684e-06
0.00271141
3.51708e-05
0.00265923
5.21744e-05
0.00260066
5.85784e-05
0.00254526
5.53964e-05
0.00250121
4.40465e-05
0.0024757
2.55156e-05
0.00247482
8.77095e-07
0.00250205
-2.72312e-05
0.0025555
-5.34482e-05
0.00262596
-7.04596e-05
0.00269791
-7.1951e-05
0.00275398
-5.60744e-05
0.00278095
-2.6961e-05
0.002774
6.94827e-06
0.00273738
3.66154e-05
0.00268148
5.58988e-05
0.0026186
6.28877e-05
0.00255976
5.88384e-05
0.0025137
4.60553e-05
0.0024873
2.63988e-05
0.00248588
1.4187e-06
0.00251208
-2.61991e-05
0.00256358
-5.14994e-05
0.00263158
-6.79959e-05
0.00270179
-7.02147e-05
0.00275824
-5.64463e-05
0.00278814
-2.98962e-05
0.00278571
2.42791e-06
0.00275338
3.23294e-05
0.00270013
5.32531e-05
0.00263808
6.20441e-05
0.00257914
5.89442e-05
0.00253299
4.6151e-05
0.00250679
2.61939e-05
0.0025053
1.49493e-06
0.00253003
-2.4736e-05
0.00257777
-4.77403e-05
0.00263977
-6.20004e-05
0.00270315
-6.33712e-05
0.0027542
-5.10559e-05
0.00278229
-2.80848e-05
0.00278245
-1.61284e-07
0.00275618
2.62679e-05
0.00271035
4.58339e-05
0.00265498
5.53622e-05
0.0026009
5.40871e-05
0.00255779
4.31048e-05
0.00253323
2.45654e-05
0.0025319
1.32724e-06
0.00255469
-2.27867e-05
0.00259767
-4.29862e-05
0.00265221
-5.45394e-05
0.00270671
-5.44956e-05
0.00274967
-4.29656e-05
0.00277276
-2.30889e-05
0.00277256
2.05077e-07
0.00275072
2.18322e-05
0.0027129
3.78275e-05
0.00266703
4.5868e-05
0.00262185
4.51793e-05
0.00258563
3.62149e-05
0.00256518
2.0451e-05
0.00256474
4.47134e-07
0.00258481
-2.00746e-05
0.0026215
-3.66873e-05
0.00266694
-4.54442e-05
0.00271123
-4.42878e-05
0.00274507
-3.38433e-05
0.00276219
-1.71163e-05
0.00276051
1.67814e-06
0.00274202
1.84914e-05
0.00271161
3.04119e-05
0.00267568
3.59287e-05
0.002641
3.46756e-05
0.00261391
2.70987e-05
0.00259952
1.43876e-05
0.00260086
-1.34329e-06
0.00261788
-1.70176e-05
0.002647
-2.91204e-05
0.00268174
-3.47421e-05
0.00271437
-3.26321e-05
0.00273803
-2.36569e-05
0.00274844
-1.04129e-05
0.00274469
3.74826e-06
0.00272891
1.57827e-05
0.00270526
2.36537e-05
0.00267879
2.64711e-05
0.00265455
2.42407e-05
0.00263697
1.75746e-05
0.00262935
7.61779e-06
0.00263321
-3.85836e-06
0.00264773
-1.45153e-05
0.00266964
-2.19083e-05
0.00269388
-2.42449e-05
0.00271493
-2.10495e-05
0.00272828
-1.33487e-05
0.00273156
-3.27591e-06
0.00272488
6.67892e-06
0.00271046
1.44185e-05
0.00269178
1.86745e-05
0.00267274
1.90462e-05
0.00265695
1.5784e-05
0.00264737
9.58665e-06
0.00264584
1.52976e-06
0.00265274
-6.90393e-06
0.00266669
-1.39461e-05
0.00268471
-1.8026e-05
0.00270267
-1.79577e-05
0.00271706
-1.43852e-05
0.00272396
-6.9027e-06
0.00272512
-1.15713e-06
1.12983e-05
0.00250268
-5.35942e-06
0.00251053
-1.57275e-05
0.00252345
-2.58582e-05
0.00254132
-3.57226e-05
0.00256396
-4.5187e-05
0.00259096
-5.37598e-05
0.00262147
-6.06013e-05
0.00265392
-6.43135e-05
0.00268597
-6.34101e-05
0.00271479
-5.70291e-05
0.00273747
-4.51159e-05
0.00275327
-3.17318e-05
0.00276299
-1.98881e-05
0.00276908
-1.26957e-05
0.00277436
-1.08406e-05
0.00278029
-1.16314e-05
0.00278585
-1.04093e-05
0.00278731
-2.01385e-06
0.00277979
1.5698e-05
0.00275984
3.99881e-05
0.00272714
6.4826e-05
0.00268457
8.40581e-05
0.00263718
9.3403e-05
0.00259108
9.07205e-05
0.00255262
7.55032e-05
0.0025278
4.84774e-05
0.0025216
1.17993e-05
0.00253684
-3.01445e-05
0.00257238
-6.9555e-05
0.00262147
-9.56498e-05
0.00267218
-9.85735e-05
0.0027109
-7.52481e-05
0.00272752
-3.22931e-05
0.00271867
1.72753e-05
0.00268767
6.06422e-05
0.0026418
8.99366e-05
0.00258955
0.000102554
0.00253916
9.887e-05
0.00249826
7.99862e-05
0.00247405
4.68922e-05
0.00247297
1.3866e-06
0.00249901
-5.15356e-05
0.00255078
-0.000101361
0.00261917
-0.000133316
0.00268832
-0.000134629
0.00274074
-0.000102193
0.00276391
-4.54486e-05
0.00275435
1.82965e-05
0.00271723
7.22961e-05
0.00266268
0.000106722
0.00260178
0.000119477
0.00254427
0.000112909
0.0024983
9.00155e-05
0.00247113
5.268e-05
0.00246922
2.79288e-06
0.00249655
-5.45601e-05
0.00255163
-0.000108535
0.00262518
-0.000144012
0.00270092
-0.000147691
0.0027603
-0.000115445
0.00278902
-5.56888e-05
0.00278193
1.40397e-05
0.00274362
7.49305e-05
0.00268523
0.000114291
0.00261975
0.000128362
0.00255857
0.000120019
0.00251043
9.41989e-05
0.00248218
5.465e-05
0.00247938
4.21539e-06
0.00250516
-5.19787e-05
0.00255758
-0.000103925
0.00262778
-0.000138192
0.00270088
-0.000143317
0.00276009
-0.00011565
0.00279192
-6.17265e-05
0.00279024
4.10945e-06
0.00275747
6.50989e-05
0.00270287
0.000107852
0.00263896
0.000125949
0.00257798
0.000119929
0.00252986
9.42726e-05
0.00250204
5.40045e-05
0.00249971
3.83445e-06
0.00252478
-4.98141e-05
0.00257413
-9.70836e-05
0.00263853
-0.000126407
0.00270431
-0.000129151
0.00275706
-0.000103806
0.00278582
-5.68393e-05
0.00278572
-6.48273e-08
0.00275857
5.34203e-05
0.00271152
9.28802e-05
0.00265481
0.000112071
0.00259936
0.000109545
0.002555
8.74592e-05
0.0025296
4.99646e-05
0.00252827
2.66037e-06
0.00255217
-4.6687e-05
0.00259727
-8.80853e-05
0.00265433
-0.000111598
0.00271094
-0.000111109
0.002755
-8.70229e-05
0.00277796
-4.60563e-05
0.00277666
1.50843e-06
0.0027532
4.52886e-05
0.00271367
7.73669e-05
0.00266629
9.32477e-05
0.00261993
9.15304e-05
0.00258299
7.31564e-05
0.00256244
4.10067e-05
0.00256273
1.57592e-07
0.00258446
-4.18027e-05
0.00262345
-7.56848e-05
0.00267128
-9.32693e-05
0.00271734
-9.03479e-05
0.00275187
-6.8375e-05
0.00276849
-3.37377e-05
0.00276538
4.7868e-06
0.00274496
3.89145e-05
0.00271256
6.28105e-05
0.00267493
7.35576e-05
0.00263906
7.05472e-05
0.00261142
5.47374e-05
0.00259728
2.85243e-05
0.00259975
-3.80913e-06
0.00261867
-3.59353e-05
0.00265011
-6.05607e-05
0.00268703
-7.1665e-05
0.00272114
-6.67459e-05
0.00274524
-4.77481e-05
0.002755
-2.01809e-05
0.00274977
8.97946e-06
0.00273206
3.35007e-05
0.00270641
4.92953e-05
0.00267823
5.46527e-05
0.0026528
4.96722e-05
0.00263473
3.56412e-05
0.00262745
1.49063e-05
0.00263247
-8.88475e-06
0.00264883
-3.08711e-05
0.00267287
-4.59532e-05
0.00269905
-5.04204e-05
0.00272136
-4.3363e-05
0.00273504
-2.70295e-05
0.00273771
-5.94461e-06
0.00272969
1.46962e-05
0.00271353
3.05827e-05
0.00269304
3.91612e-05
0.00267241
3.9676e-05
0.00265551
3.26884e-05
0.00264545
1.96495e-05
0.0026442
2.77846e-06
0.00265214
-1.48426e-05
0.0026677
-2.95077e-05
0.00268757
-3.79e-05
0.0027072
-3.75864e-05
0.00272266
-2.98431e-05
0.00272993
-1.41746e-05
0.00273055
-1.78218e-06
2.36222e-05
0.00250266
-8.01518e-06
0.00251045
-2.35248e-05
0.00252332
-3.87248e-05
0.00254121
-5.36085e-05
0.00256403
-6.80101e-05
0.00259148
-8.12111e-05
0.00262282
-9.19408e-05
0.00265648
-9.79709e-05
0.00268997
-9.69013e-05
0.00272006
-8.71213e-05
0.0027433
-6.83604e-05
0.00275887
-4.72986e-05
0.00276769
-2.87044e-05
0.00277272
-1.77306e-05
0.00277748
-1.56018e-05
0.00278387
-1.80145e-05
0.00279088
-1.74247e-05
0.00279417
-5.29855e-06
0.00278788
2.19869e-05
0.00276788
5.99848e-05
0.00273379
9.89129e-05
0.00268886
0.000128996
0.0026386
0.000143663
0.00258953
0.000139784
0.00254836
0.000116676
0.00252148
7.53602e-05
0.00251443
1.88518e-05
0.00253073
-4.64464e-05
0.00256969
-0.000108521
0.00262416
-0.000150113
0.00268066
-0.000155074
0.00272362
-0.000118214
0.00274161
-5.02833e-05
0.00273129
2.75991e-05
0.00269693
9.49976e-05
0.00264698
0.000139889
0.00259068
0.000158853
0.00253654
0.000153014
0.00249231
0.00012422
0.00246553
7.36647e-05
0.00246348
3.44085e-06
0.00249125
-7.93021e-05
0.00254801
-0.000158124
0.00262381
-0.000209119
0.00270051
-0.000211332
0.002758
-0.00015968
0.00278225
-6.96989e-05
0.00277004
3.05035e-05
0.00272805
0.000114288
0.0026681
0.000166671
0.00260231
0.000185266
0.00254069
0.000174537
0.00249122
0.000139487
0.00246108
8.28165e-05
0.00245709
6.77817e-06
0.00248414
-8.16063e-05
0.00254169
-0.000166085
0.00262067
-0.00022299
0.00270367
-0.000230696
0.0027699
-0.000181669
0.00280274
-8.8532e-05
0.00279586
2.09207e-05
0.00275435
0.00011644
0.00269095
0.000177689
0.00262026
0.000199051
0.0025545
0.000185784
0.0025025
0.000146201
0.0024711
8.60413e-05
0.0024664
8.9205e-06
0.00249244
-7.80218e-05
0.00254783
-0.000159316
0.00262309
-0.00021345
0.0027018
-0.000222026
0.00276553
-0.000179381
0.00279983
-9.60206e-05
0.00279832
5.6126e-06
0.00276378
9.96437e-05
0.00270609
0.000165537
0.00263849
0.000193553
0.00257377
0.000184649
0.00252236
0.000145686
0.00249232
8.40385e-05
0.00248967
6.48105e-06
0.002517
-7.71412e-05
0.0025709
-0.000150986
0.00264086
-0.000196362
0.00271137
-0.00019966
0.00276665
-0.000159083
0.00279534
-8.55305e-05
0.00279313
2.13996e-06
0.00276279
8.3763e-05
0.00271233
0.000143339
0.00265248
0.000171919
0.00259438
0.000167649
0.00254812
0.000133719
0.00252207
7.60114e-05
0.00252201
2.72186e-06
0.00254938
-7.40581e-05
0.00259957
-0.00013827
0.00266194
-0.000173969
0.0027225
-0.000171673
0.00276805
-0.000132571
0.00278984
-6.7849e-05
0.00278532
6.02902e-06
0.00275767
7.29448e-05
0.00271397
0.000121062
0.00266317
0.000144053
0.00261446
0.000140234
0.00257647
0.00011115
0.00255646
6.10116e-05
0.00255918
-2.55694e-06
0.00258508
-6.77025e-05
0.00262921
-0.000119814
0.00268184
-0.000145902
0.0027311
-0.000139604
0.00276643
-0.000103704
0.00278139
-4.87047e-05
0.00277477
1.14072e-05
0.00274993
6.3759e-05
0.00271316
9.9581e-05
0.00267194
0.000114774
0.00263374
0.000108748
0.00260535
8.31278e-05
0.00259227
4.16014e-05
0.00259764
-9.18125e-06
0.00262093
-5.92184e-05
0.0026573
-9.69316e-05
0.00269853
-0.000112901
0.00273529
-0.000103499
0.00275978
-7.22364e-05
0.00276775
-2.8157e-05
0.0027591
1.76273e-05
0.00273717
5.54314e-05
0.00270736
7.91094e-05
0.00267573
8.62861e-05
0.00264806
7.73386e-05
0.00262933
5.43729e-05
0.00262315
2.10873e-05
0.00263099
-1.67268e-05
0.0026514
-5.12805e-05
0.00267987
-7.44232e-05
0.0027098
-8.03573e-05
0.00273435
-6.79059e-05
0.00274829
-4.09748e-05
0.00274934
-6.99411e-06
0.00273831
2.57277e-05
0.00271843
5.04612e-05
0.00269424
6.33585e-05
0.0026705
6.3416e-05
0.00265155
5.16372e-05
0.00264085
3.03489e-05
0.00264055
3.07626e-06
0.00265093
-2.52225e-05
0.00266998
-4.85601e-05
0.00269361
-6.15292e-05
0.00271645
-6.04276e-05
0.00273374
-4.71292e-05
0.00274142
-2.18553e-05
0.00274051
-8.77745e-07
3.81488e-05
0.00250262
-1.0637e-05
0.00251032
-3.1225e-05
0.00252309
-5.14883e-05
0.00254096
-7.14856e-05
0.00256402
-9.10663e-05
0.00259212
-0.000109316
0.00262471
-0.00012453
0.00266023
-0.000133489
0.002696
-0.000132671
0.00272813
-0.000119253
0.00275227
-9.24932e-05
0.00276745
-6.24846e-05
0.0027748
-3.60522e-05
0.0027781
-2.10346e-05
0.00278197
-1.94645e-05
0.00278905
-2.50935e-05
0.00279839
-2.67716e-05
0.00280462
-1.15255e-05
0.00280031
2.62948e-05
0.00278024
8.00598e-05
0.00274392
0.000135227
0.00269524
0.000177676
0.00264052
0.000198387
0.00258691
0.000193394
0.0025416
0.000161985
0.00251154
0.000105416
0.00250313
2.72637e-05
0.00252102
-6.43394e-05
0.00256533
-0.000152829
0.00262829
-0.000213067
0.00269399
-0.000220776
0.00274363
-0.000167854
0.00276363
-7.02845e-05
0.00275071
4.05197e-05
0.00271084
0.000134863
0.0026544
0.000196334
0.00259182
0.000221429
0.00253201
0.000212826
0.0024828
0.000173425
0.00245215
0.000104314
0.00244835
7.25024e-06
0.00247791
-0.000108865
0.00254109
-0.000221303
0.00262752
-0.000295553
0.0027163
-0.000300106
0.00278289
-0.000226275
0.00280993
-9.6743e-05
0.00279402
4.64191e-05
0.00274431
0.000163996
0.00267571
0.000235267
0.0026023
0.000258683
0.00253447
0.000242368
0.00247967
0.000194279
0.00244457
0.000117915
0.00243643
1.49214e-05
0.00246182
-0.000106993
0.00252207
-0.000226334
0.00260841
-0.00030933
0.00270161
-0.000323898
0.00277784
-0.000257897
0.00281752
-0.000128212
0.00281245
2.59903e-05
0.00276777
0.000161121
0.002698
0.000247452
0.00262004
0.000277017
0.00254756
0.000258259
0.00248987
0.00020389
0.00245418
0.000121733
0.0024477
1.54073e-05
0.00247588
-0.00010621
0.00253751
-0.000220944
0.00262129
-0.000297225
0.00270795
-0.000308684
0.0027768
-0.000248239
0.00281264
-0.000131858
0.00280958
8.67842e-06
0.00277134
0.000137881
0.0027088
0.000228076
0.00263596
0.000266393
0.00256622
0.000254393
0.00251066
0.00020124
0.00247842
0.000116278
0.00247678
8.11926e-06
0.00250893
-0.000109292
0.00257055
-0.000212597
0.00264881
-0.000274628
0.00272569
-0.000276538
0.00278369
-0.000217088
0.00281116
-0.000112993
0.00280469
8.60468e-06
0.00276861
0.000119842
0.00271237
0.000199579
0.00264756
0.000236732
0.00258568
0.00022953
0.0025372
0.000182199
0.00251118
0.000102026
0.00251413
-2.28161e-07
0.00254747
-0.000107395
0.00260532
-0.000196126
0.002675
-0.000243648
0.00274052
-0.000237187
0.00278747
-0.000179522
0.00280701
-8.73854e-05
0.00279742
1.56154e-05
0.00276332
0.000107044
0.00271328
0.000171105
0.00265729
0.000200036
0.0026052
0.000192329
0.00256602
0.000150325
0.00254747
7.95704e-05
0.00255444
-9.53131e-06
0.00258688
-0.000100144
0.00263842
-0.000171353
0.00269747
-0.000204956
0.00275059
-0.00019272
0.00278641
-0.000139529
0.00279861
-6.08955e-05
0.00278676
2.32496e-05
0.0027555
9.50176e-05
0.00271243
0.000142652
0.00266609
0.000161116
0.00262469
0.000150153
0.00259554
0.000112276
0.00258448
5.26634e-05
0.00259454
-1.92494e-05
0.00262441
-8.90828e-05
0.00266778
-0.000140301
0.00271475
-0.000159869
0.00275465
-0.000143405
0.00277915
-9.67291e-05
0.00278419
-3.32053e-05
0.0027705
3.13215e-05
0.00274253
8.34038e-05
0.00270681
0.000114821
0.00267039
0.000122714
0.00263976
0.000107963
0.00262044
7.36915e-05
0.00261631
2.5219e-05
0.00262863
-2.90454e-05
0.0026551
-7.77468e-05
0.00268984
-0.000109166
0.0027248
-0.000115314
0.00275201
-9.5119e-05
0.00276583
-5.48e-05
0.00276421
-5.36581e-06
0.00274867
4.12652e-05
0.00272343
7.57031e-05
0.00269398
9.2801e-05
0.00266596
9.1443e-05
0.00264435
7.32417e-05
0.00263312
4.15805e-05
0.00263463
1.56694e-06
0.00264891
-3.95037e-05
0.00267319
-7.28363e-05
0.00270215
-9.04894e-05
0.00272928
-8.75597e-05
0.00274873
-6.65798e-05
0.00275653
-2.96581e-05
0.00275304
2.62098e-06
5.59754e-05
0.00250257
-1.32043e-05
0.00251011
-3.87689e-05
0.00252269
-6.40691e-05
0.0025405
-8.92894e-05
0.00256379
-0.000114364
0.00259272
-0.000138241
0.00262698
-0.000158787
0.00266507
-0.000171588
0.00270411
-0.000171706
0.0027392
-0.000154345
0.00276459
-0.000117881
0.00277916
-7.70528e-05
0.00278425
-4.11405e-05
0.00278488
-2.16702e-05
0.00278732
-2.19023e-05
0.00279537
-3.31491e-05
0.00280819
-3.95896e-05
0.00281884
-2.2176e-05
0.00281753
2.76097e-05
0.0027974
0.000100189
0.00275793
0.000174692
0.002704
0.000231607
0.00264309
0.000259302
0.0025832
0.000253277
0.00253214
0.000213046
0.00249754
0.000140015
0.00248697
3.78346e-05
0.00250685
-8.42195e-05
0.00255869
-0.000204662
0.0026339
-0.000288283
0.00271289
-0.000299759
0.00277199
-0.000226962
0.0027946
-9.2893e-05
0.00277766
5.74596e-05
0.00272976
0.000182761
0.00266415
0.000261951
0.00259295
0.000292631
0.0025255
0.000280272
0.00246958
0.000229349
0.00243318
0.000140712
0.00242509
1.53347e-05
0.00245323
-0.000137001
0.00252027
-0.000288342
0.00261777
-0.00039305
0.0027232
-0.000405544
0.00280603
-0.000309102
0.00284191
-0.000132623
0.0028246
6.37265e-05
0.00276591
0.000222687
0.00268574
0.000315443
0.00260182
0.000342605
0.00252548
0.000318702
0.00246321
0.000256554
0.00242084
0.000160283
0.00240691
2.88496e-05
0.00243112
-0.000131202
0.00249688
-0.000292093
0.00259406
-0.000406517
0.00269967
-0.000429501
0.00278635
-0.000344579
0.00283257
-0.00017443
0.00282921
2.93467e-05
0.00278138
0.000208955
0.00270482
0.000324012
0.00261845
0.000363381
0.0025377
0.000339011
0.0024729
0.000268685
0.00243253
0.00016211
0.0024257
2.22307e-05
0.00245921
-0.000139713
0.00253074
-0.00029248
0.00262579
-0.000392275
0.00272154
-0.000404432
0.00279503
-0.000321734
0.00283064
-0.000167463
0.00282356
1.57574e-05
0.00277922
0.000182218
0.00270994
0.00029736
0.00263055
0.00034578
0.00255498
0.000329967
0.0024951
0.000261118
0.00246145
0.00014993
0.0024627
6.86376e-06
0.00250212
-0.000148709
0.00257351
-0.000283984
0.00266118
-0.0003623
0.00274459
-0.000359949
0.00280487
-0.000277368
0.00283018
-0.000138297
0.00281804
2.07424e-05
0.00277446
0.000163424
0.00271066
0.000263379
0.00263945
0.000307935
0.00257302
0.000295966
0.00252241
0.000232807
0.0024975
0.000126935
0.0025053
-8.03015e-06
0.00254658
-0.000148667
0.00261348
-0.000263029
0.00269091
-0.000321083
0.00276108
-0.000307351
0.00280876
-0.000227204
0.00282521
-0.000103831
0.00280955
3.12724e-05
0.00276781
0.000148783
0.00271015
0.000228764
0.00264791
0.000262275
0.00259185
0.000248386
0.00255171
0.000190473
0.00253568
9.55976e-05
0.00254863
-2.24791e-05
0.00258936
-0.000140875
0.00264946
-0.000231459
0.00271523
-0.000270728
0.00277179
-0.000249272
0.0028073
-0.000175039
0.00281576
-6.93564e-05
0.00279768
4.13297e-05
0.00275895
0.000133742
0.00270858
0.000193029
0.00265632
0.000213368
0.00261139
0.000195085
0.00258186
0.000141812
0.00257394
6.0581e-05
0.00259035
-3.56582e-05
0.00262843
-0.000127163
0.00267989
-0.000191759
0.00273288
-0.00021286
0.00277552
-0.000186046
0.00279916
-0.000120368
0.00280022
-3.42688e-05
0.00278037
5.11728e-05
0.00274528
0.000118489
0.00270275
0.000157358
0.00266089
0.00016457
0.00262716
0.000141693
0.00260776
9.30936e-05
0.00260685
2.61306e-05
0.00262524
-4.7434e-05
0.00265932
-0.000111825
0.00270139
-0.000151242
0.0027417
-0.000155626
0.00277124
-0.000124658
0.00278413
-6.76857e-05
0.00277875
1.3859e-08
0.00275755
6.24617e-05
0.00272585
0.000107403
0.00269026
0.000128398
0.00265736
0.000124335
0.00263302
9.75873e-05
0.00262178
5.28171e-05
0.00262621
-2.86502e-06
0.00264586
-5.91482e-05
0.00267676
-0.000103744
0.00271202
-0.000125745
0.00274377
-0.000119314
0.00276508
-8.78823e-05
0.00277228
-3.68654e-05
0.00276505
9.85111e-06
7.80039e-05
0.00250248
-1.5689e-05
0.00250979
-4.60744e-05
0.00252207
-7.63475e-05
0.00253968
-0.000106899
0.00256316
-0.000137845
0.00259301
-0.000168094
0.00262935
-0.000195123
0.00267083
-0.000213074
0.00271435
-0.000215225
0.00275358
-0.000193568
0.00278069
-0.000144993
0.00279437
-9.07359e-05
0.00279621
-4.29778e-05
0.00279293
-1.83856e-05
0.00279313
-2.21105e-05
0.00280238
-4.23988e-05
0.00282007
-5.72718e-05
0.00283706
-3.91697e-05
0.00284009
2.45738e-05
0.00282
0.000120283
0.00277627
0.000218424
0.0027153
0.000292581
0.00264621
0.000328383
0.00257815
0.000321346
0.00251953
0.000271664
0.00247873
0.000180817
0.00246488
5.16846e-05
0.00248721
-0.00010655
0.00254967
-0.000267122
0.00264243
-0.000381042
0.00273992
-0.00039725
0.00281139
-0.000298437
0.0028365
-0.000118004
0.00281321
8.07517e-05
0.00275403
0.000241936
0.00267617
0.000339821
0.00259388
0.000374916
0.00251689
0.000357261
0.00245234
0.000293902
0.00240715
0.000185899
0.00238968
3.28048e-05
0.00241025
-0.000157569
0.00247677
-0.000354866
0.00258459
-0.000500866
0.00270981
-0.000530763
0.00281548
-0.000414771
0.00286846
-0.000185605
0.00285619
7.59941e-05
0.00279082
0.00028806
0.00269791
0.000408348
0.002601
0.000439518
0.00251365
0.000406049
0.00244162
0.000328587
0.00239055
0.000211351
0.0023718
4.75989e-05
0.00239887
-0.000158273
0.00247545
-0.000368675
0.00258725
-0.000518308
0.00270595
-0.000548203
0.00280101
-0.000439643
0.00285039
-0.000223805
0.00284584
3.38977e-05
0.00279334
0.00026145
0.00270948
0.00040787
0.00261433
0.000458529
0.00252464
0.0004287
0.00245232
0.000341014
0.00240804
0.000206383
0.00240323
2.704e-05
0.00244492
-0.000181397
0.00252815
-0.000375715
0.00263458
-0.0004987
0.00273848
-0.000508335
0.00281552
-0.000398775
0.00284985
-0.000201788
0.0028375
2.81025e-05
0.00278562
0.000234099
0.00270829
0.00037469
0.00262149
0.000432577
0.00253981
0.000411652
0.00247609
0.000324839
0.00244237
0.000183645
0.00244835
8.84275e-07
0.0024964
-0.000196758
0.00257769
-0.000365267
0.00267369
-0.000458306
0.00276216
-0.000448414
0.00282365
-0.00033886
0.0028464
-0.000161049
0.00282852
3.86196e-05
0.00277724
0.000214703
0.00270542
0.0003352
0.00262733
0.000386029
0.00255618
0.000367111
0.00250398
0.000285014
0.00248141
0.000149501
0.00249553
-2.21496e-05
0.00254563
-0.000198766
0.00262136
-0.00033876
0.00270535
-0.000405076
0.00277864
-0.000380642
0.00282589
-0.000274447
0.00283872
-0.000116668
0.00281697
5.30214e-05
0.00276771
0.000198045
0.00270245
0.000294023
0.00263391
0.00033082
0.00257404
0.000308259
0.00253356
0.000230952
0.00252123
0.000107925
0.00254143
-4.26809e-05
0.00259118
-0.00019062
0.00265959
-0.000299875
0.00273096
-0.000342099
0.00278951
-0.000307817
0.0028235
-0.000209027
0.00282754
-7.33961e-05
0.002803
6.58685e-05
0.00275684
0.000179897
0.00269927
0.000250603
0.00264128
0.000271351
0.00259324
0.000243126
0.00256417
0.000170886
0.00256065
6.40972e-05
0.00258468
-5.96868e-05
0.0026317
-0.000174186
0.00269106
-0.000251119
0.00274909
-0.000270882
0.00279312
-0.000230077
0.00281467
-0.000141924
0.0028109
-3.04964e-05
0.00278444
7.76346e-05
0.00274208
0.000160849
0.00269275
0.000206688
0.0026457
0.000211616
0.00260944
0.00017796
0.00259096
0.000111566
0.00259464
2.24549e-05
0.00262044
-7.32319e-05
0.00266294
-0.000154323
0.00271232
-0.000200625
0.00275721
-0.000200516
0.0027879
-0.000155351
0.00279867
-7.84539e-05
0.00278859
1.00917e-05
0.00276109
8.99629e-05
0.00272256
0.000145933
0.00268069
0.000170269
0.00264311
0.000161918
0.00261659
0.000124105
0.00260637
6.30371e-05
0.00261507
-1.15598e-05
0.00264137
-8.54491e-05
0.00267971
-0.000142092
0.00272134
-0.000167372
0.00275711
-0.000155083
0.00277925
-0.000110024
0.00278477
-4.2388e-05
0.00277275
2.18719e-05
0.000104804
0.00250236
-1.80533e-05
0.00250932
-5.30307e-05
0.00252113
-8.81529e-05
0.00253835
-0.000124121
0.00256186
-0.000161357
0.00259266
-0.000198897
0.00263146
-0.000233917
0.00267724
-0.000258859
0.00272678
-0.000264767
0.00277164
-0.000238429
0.00280102
-0.00017437
0.00281334
-0.000103054
0.00281044
-4.00791e-05
0.00280147
-9.41719e-06
0.00279841
-1.90442e-05
0.00280925
-5.32385e-05
0.0028338
-8.18256e-05
0.00285981
-6.51763e-05
0.00286898
1.53973e-05
0.00284897
0.0001403
0.00279953
0.000267856
0.0027294
0.000362716
0.00264995
0.000407831
0.00257161
0.000399685
0.00250338
0.000339894
0.00245429
0.000229906
0.00243559
7.03868e-05
0.0024605
-0.00013146
0.00253644
-0.000343064
0.00265258
-0.000497178
0.00277575
-0.000520419
0.00286441
-0.000387098
0.00289214
-0.000145738
0.00285904
0.000113855
0.00278409
0.000316881
0.00269022
0.000433696
0.00259432
0.000470818
0.00250601
0.000445569
0.00243052
0.000369391
0.00237227
0.000244144
0.00234013
6.49536e-05
0.00235077
-0.000168214
0.00241932
-0.000423417
0.00254131
-0.000622859
0.00268721
-0.000676655
0.00281455
-0.000542111
0.00288558
-0.000256643
0.00288246
7.91185e-05
0.00281453
0.000355987
0.00271042
0.000512466
0.00259952
0.000550412
0.00249909
0.000506479
0.00241564
0.000412037
0.00235636
0.000270637
0.00233641
6.75413e-05
0.00237148
-0.000193335
0.00246222
-0.000459421
0.00258867
-0.000644752
0.0027184
-0.000677937
0.00281927
-0.00054051
0.00286919
-0.000273728
0.00286099
4.20985e-05
0.00280215
0.00032029
0.00271039
0.000499629
0.0026065
0.00056242
0.00250812
0.000527078
0.002429
0.00042014
0.00238253
0.00025285
0.00238189
2.768e-05
0.00243284
-0.000232344
0.00252673
-0.000469605
0.00264185
-0.000613822
0.00275111
-0.000617599
0.00283014
-0.000477798
0.00286313
-0.000234778
0.00284622
4.50103e-05
0.00278738
0.000292941
0.00270219
0.000459873
0.00260805
0.000526717
0.00252063
0.000499074
0.00245406
0.000391411
0.00242176
0.000215944
0.00243365
-1.10018e-05
0.00249025
-0.00025336
0.00257977
-0.000454789
0.00268148
-0.000560019
0.00277248
-0.000539409
0.00283369
-0.000400069
0.00285378
-0.000181142
0.0028311
6.13001e-05
0.00277338
0.000272426
0.00269453
0.000414045
0.0026102
0.000470358
0.00253498
0.000442334
0.00248211
0.000337884
0.00246304
0.000168568
0.00248422
-4.33343e-05
0.00254278
-0.000257326
0.0026257
-0.000421679
0.00271389
-0.00049326
0.00278807
-0.000454822
0.00283347
-0.000319853
0.00284244
-0.000125629
0.00281528
8.01735e-05
0.00275966
0.000253667
0.00268797
0.000365718
0.00261409
0.000404693
0.00255133
0.00037102
0.00251159
0.000270694
0.00250406
0.000115454
0.00253212
-7.07372e-05
0.00259042
-0.000248918
0.00266554
-0.000375002
0.0027403
-0.000416852
0.00279876
-0.000366283
0.0028299
-0.000240164
0.00282916
-7.2651e-05
0.00279862
9.64023e-05
0.00274598
0.000232539
0.0026823
0.000314284
0.00261967
0.000333981
0.00256966
0.000293131
0.00254233
0.000198214
0.00254445
6.19784e-05
0.00257676
-9.1996e-05
0.00263232
-0.000229743
0.00269808
-0.000316883
0.00275905
-0.000331853
0.00280251
-0.000273533
0.00282067
-0.000160083
0.00281158
-2.14029e-05
0.00277874
0.000110473
0.0027298
0.00020979
0.0026746
0.000261887
0.00262343
0.000262785
0.00258589
0.000215504
0.00256979
0.000127657
0.00257944
1.28091e-05
0.00261344
-0.000107232
0.00266412
-0.000205007
0.00271956
-0.00025606
0.00276721
-0.000248168
0.0027973
-0.000185437
0.00280469
-8.58448e-05
0.00278931
2.54635e-05
0.00275551
0.000123772
0.00271056
0.000190875
0.00266311
0.000217724
0.00262177
0.000203259
0.00259429
0.000151581
0.00258653
7.07999e-05
0.00260086
-2.58885e-05
0.00263463
-0.000119225
0.00268032
-0.000187776
0.00272731
-0.000214367
0.00276557
-0.000193341
0.00278702
-0.000131473
0.00278965
-4.50191e-05
0.00277212
3.94039e-05
0.000136472
0.0025022
-2.02487e-05
0.00250866
-5.94939e-05
0.00251976
-9.92538e-05
0.0025363
-0.000140664
0.00255957
-0.000184622
0.00259122
-0.000230547
0.00263278
-0.000275482
0.0026839
-0.000309982
0.00274148
-0.00032234
0.00279402
-0.00029097
0.00282646
-0.00020681
0.00283699
-0.000113587
0.00282753
-3.06201e-05
0.00281037
7.74733e-06
0.00280219
-1.08626e-05
0.00281467
-6.57214e-05
0.00284854
-0.000115695
0.00288718
-0.000103814
0.00290512
-2.54457e-06
0.00288546
0.000159958
0.00282856
0.000324753
0.00274661
0.000444669
0.00265417
0.000500272
0.00256321
0.000490643
0.00248306
0.000420048
0.00242332
0.000289644
0.0023973
9.64001e-05
0.00242082
-0.000154972
0.00250424
-0.000426491
0.0026413
-0.000634239
0.00279789
-0.000677006
0.00291798
-0.000507189
0.00295816
-0.000185914
0.00291597
0.000156044
0.00282074
0.00041211
0.00270618
0.000548255
0.00259385
0.000583152
0.00249247
0.000546947
0.00240339
0.000458465
0.00232851
0.000319024
0.00228148
0.000111985
0.00228924
-0.000175974
0.00237041
-0.000504581
0.00251276
-0.000765214
0.00267727
-0.00084116
0.00281818
-0.000683025
0.00289899
-0.000337449
0.00290163
7.64762e-05
0.00283266
0.000424954
0.00271997
0.000625156
0.00259608
0.000674301
0.00248198
0.000620589
0.00238696
0.000507056
0.00232171
0.000335883
0.00230468
8.45737e-05
0.00235039
-0.000239052
0.002454
-0.00056303
0.00259069
-0.000781433
0.00272683
-0.000814084
0.00283097
-0.000644651
0.00288115
-0.000323906
0.00286989
5.33587e-05
0.00280523
0.000384948
0.00270607
0.000598793
0.00259413
0.000674361
0.0024881
0.000633106
0.00240377
0.000504467
0.00235707
0.000299553
0.00236178
2.29699e-05
0.00242112
-0.000291683
0.00252266
-0.000571148
0.00264249
-0.000733645
0.00275358
-0.000728696
0.00283265
-0.000556864
0.00286441
-0.00026654
0.00284463
6.47923e-05
0.002781
0.000356573
0.00268974
0.000551131
0.00258952
0.000626939
0.0024975
0.000591092
0.00242942
0.000459486
0.00239979
0.000245578
0.00241787
-2.908e-05
0.00248169
-0.000317177
0.0025767
-0.000549805
0.00268088
-0.000664195
0.00277164
-0.000630172
0.00283098
-0.000459414
0.00284834
-0.000198495
0.00282212
8.75149e-05
0.00275995
0.000334595
0.00267609
0.000497903
0.00258718
0.000559268
0.00250926
0.000520257
0.00245699
0.000390155
0.00244232
0.000183238
0.00247048
-7.14945e-05
0.00253601
-0.000322853
0.00262352
-0.000509186
0.002713
-0.000582742
0.0027857
-0.000527529
0.00282798
-0.000362125
0.00283301
-0.000130666
0.00280151
0.000111677
0.00274125
0.000313921
0.00266502
0.000441954
0.00258757
0.000482147
0.00252348
0.00043511
0.00248584
0.000308332
0.00248396
0.000117329
0.00251965
-0.000106425
0.0025849
-0.000314173
0.00266414
-0.000454241
0.00273949
-0.000492203
0.0027957
-0.000422486
0.00282285
-0.000267316
0.00281733
-6.71282e-05
0.00278175
0.000131975
0.00272417
0.000290126
0.00265613
0.000382319
0.0025906
0.000399509
0.00254033
0.000343405
0.00251628
0.000222261
0.002525
5.32619e-05
0.0025654
-0.000132391
0.00262789
-0.000292241
0.00269749
-0.000386475
0.00275868
-0.000393049
0.00279947
-0.000314317
0.00281316
-0.00017378
0.00279875
-6.99237e-06
0.00276039
0.000148838
0.00270624
0.00026394
0.00264678
0.000321348
0.0025932
0.000316361
0.00255616
0.000252545
0.00254412
0.000139694
0.00256082
-3.88786e-06
0.00260293
-0.000149346
0.00266036
-0.000262429
0.00271947
-0.000315174
0.00276738
-0.000296077
0.00279493