/*--------------------------------*- C++ -*----------------------------------*\
  =========                 |
  \\      /  F ield         | OpenFOAM: The Open Source CFD Toolbox
   \\    /   O peration     | Website:  https://openfoam.org
    \\  /    A nd           | Version:  11
     \\/     M anipulation  |
\*---------------------------------------------------------------------------*/
FoamFile
{
    format      ascii;
    class       volVectorField;
    location    "11.589854";
    object      vorticity;
}
// * * * * * * * * * * * * * * * * * * * * * * * * * * * * * * * * * * * * * //

dimensions      [0 0 -1 0 0 0 0];

internalField   nonuniform List<vector> 
7132
(
(-4.14729e-17 -1.83474e-15 -0.0108857)
(-1.52644e-16 -1.7953e-15 -0.0108436)
(-1.47973e-16 -1.82716e-17 -0.0106752)
(-1.75125e-16 -1.78287e-15 -0.0104133)
(-2.28326e-16 -1.77682e-15 -0.010131)
(-2.32974e-16 -1.01307e-17 -0.009905)
(-2.22856e-16 9.72963e-19 -0.00979551)
(-2.08342e-16 1.62418e-18 -0.00983264)
(-1.58745e-16 2.32598e-18 -0.0100149)
(-1.52021e-16 6.75155e-18 -0.0103131)
(-1.56226e-16 1.00311e-17 -0.0106664)
(-7.01988e-17 1.28136e-17 -0.0110204)
(-7.18639e-17 1.17484e-17 -0.0113001)
(-7.27827e-17 6.10444e-17 -0.0114462)
(3.24337e-17 -3.35841e-15 -0.0114248)
(1.23792e-16 -1.63179e-15 -0.0112323)
(2.06068e-16 -1.68104e-15 -0.0109115)
(2.21111e-16 3.17534e-17 -0.0105509)
(2.93302e-16 -3.42413e-15 -0.0102625)
(3.43809e-16 -1.72411e-15 -0.0101708)
(3.22242e-16 -1.53291e-17 -0.0103694)
(2.76951e-16 -1.32297e-17 -0.0108479)
(2.35763e-16 -1.9016e-17 -0.0114911)
(1.72847e-16 -1.55963e-17 -0.0121276)
(-3.37221e-17 1.72996e-15 -0.0125835)
(1.90793e-16 -5.69998e-17 -0.0127151)
(2.89034e-15 2.53917e-17 -0.0124252)
(-2.25389e-15 7.47583e-16 -0.0116837)
(-5.55432e-14 1.54571e-15 -0.0105895)
(-2.12324e-14 4.06631e-15 -0.00943664)
(8.94683e-13 5.96875e-15 -0.00854369)
(3.06737e-12 2.66108e-15 -0.00806767)
(4.5665e-12 -1.2552e-14 -0.00801753)
(3.72551e-12 -1.61563e-14 -0.00842893)
(1.79917e-12 -1.36608e-15 -0.00944143)
(4.92849e-13 1.05297e-14 -0.0110413)
(1.68079e-14 9.07114e-15 -0.0128471)
(-6.91967e-14 2.23124e-14 -0.0143704)
(-1.66616e-13 4.65137e-14 -0.0152564)
(-1.90656e-13 -1.27616e-13 -0.0153326)
(1.03968e-12 -7.17307e-13 -0.0145845)
(4.19337e-12 -4.87446e-13 -0.0131532)
(2.75582e-13 5.57422e-12 -0.0114386)
(-4.51138e-11 2.43578e-11 -0.0102881)
(-1.77573e-10 5.16721e-11 -0.0106399)
(-3.87562e-10 6.2636e-11 -0.0125189)
(-5.74976e-10 3.49555e-11 -0.0145542)
(-6.1047e-10 -1.6359e-11 -0.0151538)
(-4.63512e-10 -5.20736e-11 -0.0143598)
(-2.51235e-10 -5.43921e-11 -0.0137668)
(-9.66792e-11 -3.67373e-11 -0.0143797)
(-1.64128e-11 -1.7478e-11 -0.0157783)
(1.16112e-11 -4.75505e-12 -0.0171117)
(1.22557e-11 1.93815e-12 -0.0177153)
(-3.14856e-12 5.85152e-12 -0.0173747)
(-2.64297e-11 2.04504e-12 -0.0162507)
(3.70739e-12 -3.04206e-11 -0.0143481)
(2.78109e-10 -1.19094e-10 -0.0108015)
(1.11221e-09 -2.70119e-10 -0.00377327)
(2.73266e-09 -4.32191e-10 0.00836376)
(4.92263e-09 -4.95593e-10 0.024445)
(6.91869e-09 -3.70037e-10 0.0393035)
(7.7921e-09 -8.07551e-11 0.0462804)
(7.08952e-09 2.38613e-10 0.0417583)
(5.1977e-09 4.5092e-10 0.0275937)
(3.01815e-09 4.89646e-10 0.00946793)
(1.2842e-09 3.79171e-10 -0.00656361)
(2.77486e-10 2.14387e-10 -0.0168579)
(-1.18162e-10 8.33275e-11 -0.0211198)
(-1.72649e-10 -1.0551e-11 -0.0210194)
(-5.75509e-11 -1.56881e-10 -0.0180355)
(2.70506e-10 -4.59246e-10 -0.0125209)
(9.9538e-10 -9.32295e-10 -0.00463033)
(2.2252e-09 -1.46565e-09 0.00416729)
(3.793e-09 -1.87861e-09 0.0111899)
(5.30425e-09 -2.01786e-09 0.0153881)
(6.42276e-09 -1.82394e-09 0.0195751)
(7.07007e-09 -1.32523e-09 0.0285334)
(7.32349e-09 -5.94239e-10 0.0443087)
(7.18086e-09 2.74824e-10 0.0630142)
(6.51569e-09 1.16334e-09 0.0761076)
(5.28556e-09 1.92439e-09 0.0758449)
(3.69812e-09 2.36171e-09 0.0605161)
(2.1152e-09 2.29679e-09 0.0352037)
(8.62843e-10 1.73245e-09 0.00907885)
(1.09664e-10 8.8867e-10 -0.00979516)
(-1.2438e-10 4.85599e-11 -0.0190626)
(1.00147e-10 -6.14227e-10 -0.0230288)
(6.75505e-10 -1.06516e-09 -0.0294895)
(1.43917e-09 -1.33203e-09 -0.0441204)
(2.19309e-09 -1.44431e-09 -0.066463)
(2.76853e-09 -1.42768e-09 -0.0905953)
(3.08176e-09 -1.31597e-09 -0.109329)
(3.13822e-09 -1.1515e-09 -0.118138)
(2.99557e-09 -9.79451e-10 -0.116379)
(2.71678e-09 -8.41217e-10 -0.10649)
(2.35509e-09 -7.49793e-10 -0.0917817)
(1.97939e-09 -6.6096e-10 -0.0736563)
(1.65098e-09 -4.46097e-10 -0.0524331)
(1.39442e-09 7.74541e-11 -0.0289437)
(1.18525e-09 9.79195e-10 -0.00600875)
(9.7099e-10 2.03626e-09 0.0116461)
(7.15153e-10 2.78883e-09 0.0197497)
(4.28724e-10 2.86105e-09 0.0175038)
(1.70471e-10 2.24841e-09 0.00860431)
(2.55844e-11 1.28862e-09 -0.000679195)
(7.27985e-11 3.86505e-10 -0.00472105)
(3.38721e-10 -2.1744e-10 -0.000775693)
(7.5884e-10 -4.8407e-10 0.0101923)
(1.18644e-09 -4.90287e-10 0.024063)
(1.45974e-09 -3.42074e-10 0.035401)
(1.48587e-09 -1.32996e-10 0.039766)
(1.28016e-09 6.41068e-11 0.0354601)
(9.36519e-10 1.98695e-10 0.024122)
(5.71737e-10 2.48166e-10 0.00965493)
(2.74811e-10 2.20891e-10 -0.00367625)
(8.31552e-11 1.49434e-10 -0.0129132)
(-1.08888e-11 7.29274e-11 -0.0171832)
(-3.82765e-11 1.81247e-11 -0.0174222)
(-3.23914e-11 -8.20963e-12 -0.015428)
(-1.72103e-11 -1.36515e-11 -0.0128861)
(-4.77114e-12 -9.58891e-12 -0.0108327)
(1.79833e-12 -4.14724e-12 -0.00961949)
(3.81109e-12 -6.86454e-13 -0.00916111)
(3.62865e-12 5.75902e-13 -0.00920818)
(3.00271e-12 5.65669e-13 -0.00951442)
(2.71477e-12 1.56187e-13 -0.00990668)
(2.84048e-12 -1.7199e-13 -0.0102902)
(3.14079e-12 -2.78092e-13 -0.0106247)
(3.34891e-12 -2.00668e-13 -0.0108964)
(3.3095e-12 -2.78496e-14 -0.0110981)
(3.00867e-12 1.49272e-13 -0.0112207)
(2.5288e-12 2.78884e-13 -0.011257)
(1.98363e-12 3.40692e-13 -0.0112076)
(1.47154e-12 3.36653e-13 -0.011083)
(1.05473e-12 2.88717e-13 -0.0109028)
(7.58639e-13 2.12168e-13 -0.0106923)
(5.8212e-13 1.26822e-13 -0.010478)
(5.09579e-13 4.54799e-14 -0.0102827)
(5.20392e-13 -2.63375e-14 -0.0101225)
(5.94222e-13 -8.03717e-14 -0.0100061)
(7.12742e-13 -1.21275e-13 -0.00993435)
(8.59518e-13 -1.47862e-13 -0.00990249)
(1.01943e-12 -1.61067e-13 -0.00990198)
(1.17869e-12 -1.63705e-13 -0.0099226)
(1.32501e-12 -1.51765e-13 -0.00995423)
(1.44798e-12 -1.32047e-13 -0.00998817)
(1.53994e-12 -1.05045e-13 -0.0100179)
(1.59657e-12 -7.37023e-14 -0.0100389)
(1.61747e-12 -4.32362e-14 -0.0100489)
(1.60624e-12 -1.18879e-14 -0.010047)
(1.5695e-12 1.22773e-14 -0.0100336)
(1.51557e-12 2.912e-14 -0.0100098)
(1.45316e-12 3.79355e-14 -0.00997766)
(1.39015e-12 3.73235e-14 -0.00993937)
(1.3329e-12 3.39222e-14 -0.00989703)
(1.28565e-12 2.35942e-14 -0.00985545)
(1.25127e-12 1.28902e-14 -0.00980054)
(1.22856e-12 -7.05978e-15 -0.009819)
(1.2208e-12 -1.31145e-14 -0.00967966)
(-4.16403e-17 -4.02119e-18 -0.0326046)
(-1.58277e-16 -7.11628e-18 -0.0324825)
(-1.62766e-16 -7.87839e-18 -0.0319739)
(-1.94976e-16 -9.66633e-18 -0.0311662)
(-2.60601e-16 -1.14749e-17 -0.03027)
(-2.79126e-16 -1.11713e-17 -0.0295143)
(-2.87366e-16 -1.13432e-17 -0.0290875)
(-2.86503e-16 -3.04316e-17 -0.0290977)
(-2.36904e-16 1.70889e-15 -0.0295654)
(-2.79922e-16 5.4924e-18 -0.0304346)
(-3.97307e-16 -3.08799e-17 -0.0315497)
(-4.12713e-16 1.70536e-15 -0.0327811)
(-2.53494e-16 1.30403e-17 -0.0339313)
(-2.70909e-17 9.31906e-18 -0.034839)
(2.52591e-16 1.31748e-17 -0.035403)
(4.92079e-16 1.57484e-17 -0.0355713)
(8.7462e-16 4.59544e-18 -0.0353636)
(1.47642e-15 -1.23404e-17 -0.0348644)
(2.08574e-15 -1.62438e-17 -0.0341823)
(2.20578e-15 -3.43797e-18 -0.0334435)
(1.8684e-15 1.83114e-17 -0.0327882)
(1.28703e-15 3.00099e-17 -0.0323225)
(7.57926e-16 3.30359e-17 -0.0320902)
(1.69908e-16 1.15758e-16 -0.0320707)
(-1.52724e-15 -1.37369e-17 -0.0321905)
(1.51811e-15 -1.51564e-15 -0.0323421)
(2.30232e-14 1.24773e-15 -0.0324258)
(-3.98282e-14 2.99644e-14 -0.032421)
(-4.48363e-13 1.10367e-14 -0.032476)
(3.30489e-13 -4.72778e-13 -0.0328928)
(8.63216e-12 -1.53833e-12 -0.0337674)
(2.64492e-11 -1.83845e-12 -0.0347534)
(3.92184e-11 -3.43356e-13 -0.0353022)
(3.28483e-11 1.36577e-12 -0.0351654)
(1.59283e-11 1.61149e-12 -0.0346405)
(4.16635e-12 9.01708e-13 -0.034215)
(-8.85302e-14 2.8836e-13 -0.0340974)
(-8.14101e-13 1.1229e-13 -0.0341944)
(-8.83965e-13 1.05505e-13 -0.0342463)
(3.65562e-13 -7.3597e-13 -0.0339924)
(4.87494e-12 -2.90932e-12 -0.0333791)
(1.54126e-12 -1.07127e-13 -0.0328165)
(-3.79226e-11 3.02261e-11 -0.0333912)
(-7.44374e-11 1.1328e-10 -0.0366368)
(1.47878e-10 2.22893e-10 -0.0430258)
(8.23704e-10 2.61338e-10 -0.0507933)
(1.50096e-09 1.46408e-10 -0.05706)
(1.48821e-09 -7.20926e-11 -0.0590917)
(8.70298e-10 -2.31693e-10 -0.0556391)
(2.5819e-10 -2.37812e-10 -0.0489379)
(-4.8591e-11 -1.54152e-10 -0.0427329)
(-8.33383e-11 -7.16215e-11 -0.0387005)
(-2.16319e-11 -1.9091e-11 -0.036794)
(1.25133e-11 9.31804e-12 -0.0360428)
(-2.77727e-11 2.51925e-11 -0.035731)
(-9.55366e-11 -1.38467e-12 -0.0356723)
(1.29831e-10 -1.82688e-10 -0.0343085)
(1.4192e-09 -6.73347e-10 -0.0261305)
(4.69824e-09 -1.4974e-09 -0.00277373)
(1.01396e-08 -2.3374e-09 0.0399278)
(1.65869e-08 -2.58861e-09 0.0956856)
(2.20806e-08 -1.80477e-09 0.149119)
(2.47295e-08 -1.66176e-10 0.181164)
(2.33366e-08 1.53582e-09 0.176514)
(1.81942e-08 2.48661e-09 0.134366)
(1.13511e-08 2.4464e-09 0.0720277)
(5.26842e-09 1.7495e-09 0.0131513)
(1.38029e-09 9.15568e-10 -0.0261336)
(-3.16616e-10 3.08397e-10 -0.0432781)
(-6.24386e-10 -4.08583e-11 -0.0447188)
(-1.94489e-10 -3.78457e-10 -0.0373926)
(9.36582e-10 -9.8571e-10 -0.0254463)
(3.04536e-09 -1.90964e-09 -0.0136481)
(6.02226e-09 -2.86446e-09 -0.010193)
(9.05479e-09 -3.41814e-09 -0.0211437)
(1.1174e-08 -3.33274e-09 -0.0397511)
(1.20541e-08 -2.70684e-09 -0.0466637)
(1.2177e-08 -1.7756e-09 -0.0239085)
(1.22873e-08 -6.49632e-10 0.0320334)
(1.26404e-08 6.78721e-10 0.106872)
(1.26705e-08 2.111e-09 0.173226)
(1.1519e-08 3.33317e-09 0.203129)
(8.97782e-09 3.94688e-09 0.184089)
(5.67363e-09 3.71443e-09 0.125751)
(2.60217e-09 2.73522e-09 0.0542246)
(5.49036e-10 1.38228e-09 -0.00466398)
(-1.63415e-10 5.33203e-11 -0.0421176)
(3.68433e-10 -1.01417e-09 -0.0702716)
(1.74476e-09 -1.73467e-09 -0.109768)
(3.40242e-09 -2.09082e-09 -0.170168)
(4.8239e-09 -2.10899e-09 -0.240676)
(5.72012e-09 -1.87201e-09 -0.299221)
(6.06094e-09 -1.50082e-09 -0.329176)
(5.97441e-09 -1.1084e-09 -0.328119)
(5.62675e-09 -7.68726e-10 -0.304366)
(5.13874e-09 -5.20975e-10 -0.268493)
(4.57497e-09 -3.81096e-10 -0.226966)
(4.01958e-09 -3.08904e-10 -0.180045)
(3.55468e-09 -1.53611e-10 -0.125236)
(3.20141e-09 3.1032e-10 -0.0625471)
(2.87818e-09 1.19091e-09 0.000847779)
(2.4455e-09 2.27131e-09 0.0508453)
(1.82443e-09 3.05997e-09 0.0736296)
(1.08471e-09 3.13339e-09 0.0653253)
(4.40724e-10 2.44998e-09 0.0361563)
(1.76573e-10 1.33746e-09 0.00575265)
(5.24742e-10 2.29938e-10 -0.00667221)
(1.51737e-09 -5.60461e-10 0.00886249)
(2.9038e-09 -9.07928e-10 0.0490049)
(4.22409e-09 -8.40733e-10 0.0990021)
(5.01099e-09 -4.91787e-10 0.13961)
(5.00861e-09 -4.32082e-11 0.155745)
(4.27919e-09 3.38783e-10 0.142505)
(3.12114e-09 5.52912e-10 0.105678)
(1.9051e-09 5.79023e-10 0.0580518)
(9.17158e-10 4.65184e-10 0.0134534)
(2.78806e-10 2.92286e-10 -0.0186191)
(-3.55273e-11 1.33643e-10 -0.0353497)
(-1.28171e-10 2.88777e-11 -0.0395754)
(-1.09506e-10 -1.8741e-11 -0.036761)
(-5.89819e-11 -2.74599e-11 -0.0319928)
(-1.68196e-11 -1.90915e-11 -0.0283593)
(6.12913e-12 -8.43836e-12 -0.0268633)
(1.38412e-11 -1.59988e-12 -0.0271852)
(1.40051e-11 9.81823e-13 -0.0285253)
(1.24619e-11 1.02435e-12 -0.0301378)
(1.1876e-11 2.39041e-13 -0.0315395)
(1.25188e-11 -3.84999e-13 -0.0325133)
(1.35624e-11 -5.30575e-13 -0.0330262)
(1.40859e-11 -2.83288e-13 -0.0331427)
(1.35859e-11 1.44008e-13 -0.0329581)
(1.20878e-11 5.41355e-13 -0.0325623)
(9.9626e-12 7.91402e-13 -0.0320314)
(7.67346e-12 8.71057e-13 -0.0314316)
(5.59784e-12 8.02838e-13 -0.0308223)
(3.95619e-12 6.46903e-13 -0.0302572)
(2.82122e-12 4.50207e-13 -0.029781)
(2.16554e-12 2.51351e-13 -0.0294251)
(1.91299e-12 7.80789e-14 -0.0292043)
(1.97539e-12 -6.69241e-14 -0.0291156)
(2.2709e-12 -1.74812e-13 -0.0291403)
(2.72861e-12 -2.52188e-13 -0.029249)
(3.28599e-12 -3.01208e-13 -0.0294071)
(3.88609e-12 -3.1892e-13 -0.0295807)
(4.47705e-12 -3.14756e-13 -0.0297406)
(5.01263e-12 -2.84674e-13 -0.0298651)
(5.45442e-12 -2.37777e-13 -0.0299411)
(5.77484e-12 -1.7934e-13 -0.0299636)
(5.9598e-12 -1.10735e-13 -0.0299347)
(6.01026e-12 -4.63375e-14 -0.0298611)
(5.94187e-12 1.38343e-14 -0.0297522)
(5.78108e-12 5.93479e-14 -0.0296187)
(5.5599e-12 8.72855e-14 -0.0294708)
(5.31099e-12 1.02382e-13 -0.0293187)
(5.06341e-12 9.919e-14 -0.0291697)
(4.84005e-12 8.79039e-14 -0.0290295)
(4.65584e-12 6.61427e-14 -0.0289089)
(4.5199e-12 4.1435e-14 -0.0287634)
(4.42899e-12 9.91045e-15 -0.0288438)
(4.38606e-12 -7.49881e-15 -0.028471)
(-1.20781e-18 -6.2535e-20 -0.0541737)
(-1.7004e-17 -1.49959e-20 -0.0539715)
(-3.31691e-17 7.80079e-20 -0.0531112)
(-5.50947e-17 7.68473e-19 -0.0517302)
(-7.63572e-17 -1.86879e-20 -0.0501741)
(-1.01948e-16 3.25212e-18 -0.0488267)
(-1.86005e-16 4.66184e-18 -0.048012)
(2.13899e-17 -1.68306e-17 -0.0479264)
(-1.27432e-16 -9.64758e-19 -0.0486273)
(-1.06451e-15 8.01767e-17 -0.0500459)
(-1.04241e-15 7.9815e-17 -0.0519411)
(1.02479e-15 -5.90929e-17 -0.0541421)
(3.27983e-15 -1.84451e-16 -0.0563397)
(3.91785e-15 -1.91998e-16 -0.0582945)
(2.96252e-15 -1.48546e-16 -0.0598365)
(1.15553e-15 -2.08079e-16 -0.0608278)
(4.2208e-17 -4.38493e-16 -0.0611886)
(1.08139e-15 -5.73806e-16 -0.0608825)
(4.01972e-15 -3.19362e-16 -0.0598778)
(6.60476e-15 1.1928e-16 -0.0581736)
(7.23795e-15 4.44046e-16 -0.0558918)
(5.62174e-15 5.42005e-16 -0.0533072)
(2.75164e-15 5.39545e-16 -0.0508058)
(-1.96253e-15 1.12699e-15 -0.0488061)
(-5.72965e-15 -6.78865e-16 -0.0476728)
(1.93275e-14 -1.23322e-14 -0.0476436)
(-7.29306e-15 2.06985e-14 -0.0488226)
(-3.31328e-13 2.36441e-13 -0.0512407)
(5.82373e-13 -1.83613e-13 -0.054871)
(5.12127e-12 -4.53792e-12 -0.0594708)
(-4.71324e-12 -1.30551e-11 -0.0642908)
(-5.03374e-11 -1.52922e-11 -0.0680807)
(-8.26501e-11 -3.2121e-12 -0.0695185)
(-5.84158e-11 1.16272e-11 -0.0679897)
(-2.01528e-11 1.43379e-11 -0.0638834)
(-1.9868e-12 8.01719e-12 -0.058205)
(8.98658e-13 2.49758e-12 -0.0522648)
(-9.47545e-13 4.2003e-13 -0.0472703)
(-5.40011e-13 -5.45052e-13 -0.0439714)
(7.7916e-12 -3.01055e-12 -0.0426357)
(-8.65244e-14 -1.3069e-12 -0.0435169)
(-1.03475e-10 2.09096e-11 -0.0475628)
(-1.62913e-10 4.35635e-11 -0.0556918)
(9.29124e-10 -6.8544e-11 -0.0648064)
(5.23069e-09 -3.97401e-10 -0.0652815)
(1.30451e-08 -6.13909e-10 -0.0516548)
(2.03899e-08 -2.97298e-10 -0.0360839)
(2.17969e-08 2.98974e-10 -0.0363711)
(1.6316e-08 5.62934e-10 -0.0512766)
(8.42882e-09 4.05051e-10 -0.0639923)
(2.65324e-09 1.34027e-10 -0.064752)
(9.00793e-11 -3.09541e-11 -0.0562917)
(-4.03764e-10 -5.26808e-11 -0.0462933)
(-2.41318e-10 5.00856e-12 -0.0401789)
(-1.69806e-10 5.98764e-11 -0.0396765)
(-1.32572e-10 -7.6757e-11 -0.0430446)
(7.98753e-10 -7.87783e-10 -0.0425831)
(4.08653e-09 -2.4033e-09 -0.0245303)
(1.03313e-08 -4.6303e-09 0.0211365)
(1.79771e-08 -6.37651e-09 0.0894243)
(2.45246e-08 -6.46613e-09 0.168382)
(2.89799e-08 -4.44135e-09 0.251762)
(3.17989e-08 -7.08734e-10 0.328148)
(3.24765e-08 3.50629e-09 0.36571)
(2.90896e-08 6.44368e-09 0.331411)
(2.12464e-08 6.95252e-09 0.229845)
(1.17393e-08 5.36457e-09 0.106132)
(4.11722e-09 3.00691e-09 0.00883497)
(1.68474e-12 1.08567e-09 -0.0414159)
(-1.12319e-09 -7.16129e-11 -0.0523844)
(-3.53586e-10 -9.37365e-10 -0.0425778)
(1.74682e-09 -2.07917e-09 -0.0311571)
(4.80105e-09 -3.47513e-09 -0.0396145)
(7.79896e-09 -4.47036e-09 -0.0864578)
(9.34799e-09 -4.4545e-09 -0.165896)
(8.84447e-09 -3.51749e-09 -0.237396)
(6.93668e-09 -2.32542e-09 -0.252779)
(4.92869e-09 -1.44186e-09 -0.192772)
(4.08622e-09 -8.25933e-10 -0.0729377)
(5.10766e-09 8.32489e-11 0.0739854)
(7.4903e-09 1.72403e-09 0.209706)
(9.50971e-09 3.77071e-09 0.294578)
(9.53225e-09 5.28441e-09 0.301768)
(7.32115e-09 5.48462e-09 0.235281)
(4.06897e-09 4.29475e-09 0.130692)
(1.37549e-09 2.27146e-09 0.0296243)
(2.53353e-10 1.38865e-10 -0.0521785)
(7.54077e-10 -1.56831e-09 -0.13202)
(2.17307e-09 -2.58215e-09 -0.232819)
(3.6075e-09 -2.8716e-09 -0.348409)
(4.48789e-09 -2.60316e-09 -0.441427)
(4.73543e-09 -2.0462e-09 -0.475039)
(4.56793e-09 -1.44311e-09 -0.442211)
(4.23328e-09 -9.34402e-10 -0.367336)
(3.87938e-09 -5.61617e-10 -0.286295)
(3.56738e-09 -3.15329e-10 -0.223586)
(3.32428e-09 -1.90211e-10 -0.181857)
(3.17854e-09 -1.5081e-10 -0.14795)
(3.16e-09 -3.70116e-11 -0.103717)
(3.23609e-09 4.15704e-10 -0.0389712)
(3.24588e-09 1.35715e-09 0.0390619)
(2.9605e-09 2.56314e-09 0.106633)
(2.27455e-09 3.46923e-09 0.137285)
(1.36156e-09 3.5529e-09 0.120696)
(6.56531e-10 2.70248e-09 0.0722935)
(6.67855e-10 1.24661e-09 0.0261444)
(1.69221e-09 -2.83894e-10 0.0162987)
(3.5944e-09 -1.40697e-09 0.0589473)
(5.85375e-09 -1.83743e-09 0.145579)
(7.81761e-09 -1.54388e-09 0.248098)
(8.93138e-09 -7.34332e-10 0.330696)
(8.87606e-09 2.32906e-10 0.364174)
(7.6782e-09 1.00784e-09 0.337974)
(5.72221e-09 1.38574e-09 0.262916)
(3.5862e-09 1.35016e-09 0.164642)
(1.78376e-09 1.03404e-09 0.0713483)
(5.7662e-10 6.25779e-10 0.00239782)
(-4.2113e-11 2.76416e-10 -0.0364206)
(-2.39856e-10 5.51141e-11 -0.050504)
(-2.1617e-10 -4.28024e-11 -0.0502934)
(-1.22117e-10 -5.99947e-11 -0.0454706)
(-3.8113e-11 -4.21444e-11 -0.04193)
(1.12348e-11 -1.94776e-11 -0.0416356)
(3.10933e-11 -4.62445e-12 -0.0440455)
(3.53097e-11 1.26731e-12 -0.0476999)
(3.512e-11 1.63022e-12 -0.0512554)
(3.58743e-11 1.27737e-13 -0.0538948)
(3.81525e-11 -1.0152e-12 -0.0553268)
(4.02581e-11 -1.06163e-12 -0.0556212)
(4.03546e-11 -2.10667e-13 -0.0550306)
(3.76143e-11 9.71199e-13 -0.0538577)
(3.24421e-11 1.96093e-12 -0.0523766)
(2.59837e-11 2.48603e-12 -0.0508095)
(1.94831e-11 2.52307e-12 -0.0493302)
(1.38632e-11 2.19703e-12 -0.048069)
(9.59166e-12 1.67703e-12 -0.0471135)
(6.74909e-12 1.10749e-12 -0.0465087)
(5.18028e-12 5.80936e-13 -0.0462567)
(4.63582e-12 1.40556e-13 -0.0463211)
(4.86331e-12 -2.03558e-13 -0.0466356)
(5.64546e-12 -4.56981e-13 -0.0471162)
(6.80246e-12 -6.28818e-13 -0.047674)
(8.17981e-12 -7.26602e-13 -0.0482278)
(9.63803e-12 -7.56594e-13 -0.0487116)
(1.10504e-11 -7.25242e-13 -0.0490797)
(1.23044e-11 -6.40454e-13 -0.0493075)
(1.33086e-11 -5.1315e-13 -0.0493899)
(1.40009e-11 -3.5773e-13 -0.0493379)
(1.43545e-11 -1.91414e-13 -0.0491734)
(1.43805e-11 -3.2541e-14 -0.0489246)
(1.41243e-11 1.02704e-13 -0.048621)
(1.36554e-11 2.03266e-13 -0.0482911)
(1.30543e-11 2.64161e-13 -0.047959)
(1.24002e-11 2.86178e-13 -0.047645)
(1.17614e-11 2.74531e-13 -0.0473619)
(1.11902e-11 2.37709e-13 -0.0471173)
(1.0719e-11 1.83667e-13 -0.0469248)
(1.0365e-11 1.26312e-13 -0.046706)
(1.01245e-11 5.9861e-14 -0.0468727)
(9.97256e-12 1.00853e-14 -0.0462996)
(-4.63461e-17 5.08471e-18 -0.075474)
(-1.46022e-16 8.86438e-18 -0.0751893)
(-1.30975e-16 1.1167e-17 -0.0739626)
(-1.73452e-16 1.19277e-17 -0.0719846)
(-9.14617e-17 1.19519e-17 -0.0697438)
(-4.00949e-16 4.36524e-17 -0.0677858)
(1.82683e-16 -7.30123e-17 -0.0665751)
(4.7479e-16 -5.97177e-17 -0.066394)
(-3.49148e-15 2.25184e-15 -0.0673332)
(-1.60176e-15 4.62982e-16 -0.0692965)
(1.17726e-14 -2.81025e-15 -0.0719272)
(2.41071e-14 -4.55764e-16 -0.0750284)
(2.17266e-14 -1.43349e-15 -0.0781431)
(3.97465e-15 1.67971e-16 -0.0809329)
(-2.50051e-14 1.39433e-15 -0.0831801)
(-5.98493e-14 1.47591e-15 -0.08468)
(-9.75282e-14 4.16679e-17 -0.085297)
(-1.41263e-13 -2.0011e-15 -0.0849737)
(-1.57716e-13 -2.77793e-15 -0.0836421)
(-1.11057e-13 -1.61255e-15 -0.0812239)
(-4.69388e-14 5.0982e-16 -0.0778289)
(-7.15955e-15 2.27317e-15 -0.073851)
(2.94928e-15 3.82517e-15 -0.069867)
(-1.047e-14 4.35641e-15 -0.0665331)
(4.06437e-14 -1.06587e-14 -0.0645117)
(4.94314e-14 -7.33936e-16 -0.0643246)
(-1.13223e-12 1.76575e-13 -0.066252)
(3.46843e-13 -2.64869e-13 -0.0703254)
(2.21391e-11 -2.71526e-12 -0.0762597)
(3.79912e-12 2.17503e-12 -0.0835131)
(-3.69672e-10 2.6191e-11 -0.0918151)
(-1.24309e-09 3.71317e-11 -0.0999893)
(-1.9176e-09 3.69587e-12 -0.103892)
(-1.65792e-09 -2.98829e-11 -0.100563)
(-8.41096e-10 -2.6603e-11 -0.0921411)
(-2.36689e-10 -9.62402e-12 -0.0819166)
(-6.00366e-12 -2.31269e-13 -0.0716369)
(2.6573e-11 8.31624e-13 -0.0626571)
(2.27395e-11 -4.26407e-12 -0.0563085)
(3.00631e-11 -9.62713e-13 -0.0536083)
(-1.02214e-10 5.2724e-11 -0.0559923)
(-4.79298e-10 8.13062e-11 -0.0655563)
(2.31545e-10 -4.86073e-10 -0.0782187)
(6.15442e-09 -2.58352e-09 -0.0711448)
(2.12179e-08 -5.83508e-09 -0.0116082)
(4.30318e-08 -7.31829e-09 0.0999209)
(6.24599e-08 -4.22949e-09 0.206356)
(6.90988e-08 1.96486e-09 0.234082)
(5.81339e-08 6.45233e-09 0.16323)
(3.59101e-08 6.59358e-09 0.0496598)
(1.50634e-08 4.01522e-09 -0.035766)
(2.90112e-09 1.45688e-09 -0.0680586)
(-1.16954e-09 1.46607e-10 -0.0642667)
(-1.31232e-09 -1.07661e-10 -0.0522409)
(-7.25041e-10 -2.91803e-11 -0.0479982)
(3.97571e-11 -4.85664e-10 -0.0494848)
(2.50418e-09 -2.29224e-09 -0.040769)
(7.94629e-09 -5.43964e-09 -0.00938273)
(1.46787e-08 -8.4427e-09 0.0335434)
(1.86712e-08 -9.43405e-09 0.0667135)
(1.80073e-08 -8.08999e-09 0.101674)
(1.53009e-08 -5.44189e-09 0.180812)
(1.51485e-08 -1.91446e-09 0.319166)
(1.94002e-08 2.89046e-09 0.464538)
(2.43732e-08 8.10162e-09 0.524906)
(2.41337e-08 1.11215e-08 0.447643)
(1.74228e-08 1.03141e-08 0.273198)
(8.35982e-09 6.78438e-09 0.0943204)
(1.58839e-09 2.9286e-09 -0.0203052)
(-1.12702e-09 1.36777e-10 -0.0594634)
(-4.00603e-10 -1.81346e-09 -0.0543004)
(2.38519e-09 -3.56303e-09 -0.0552274)
(5.51279e-09 -4.93572e-09 -0.113166)
(7.09469e-09 -5.13793e-09 -0.245573)
(6.17039e-09 -3.94089e-09 -0.401994)
(3.42585e-09 -2.12708e-09 -0.487507)
(3.05329e-10 -7.48958e-10 -0.439732)
(-2.18704e-09 -3.50367e-10 -0.274064)
(-3.53576e-09 -7.39114e-10 -0.0567944)
(-3.11647e-09 -1.02332e-09 0.150015)
(-4.82136e-10 -9.00325e-11 0.31293)
(3.4417e-09 2.3122e-09 0.410968)
(6.36473e-09 5.04116e-09 0.42257)
(6.63253e-09 6.44607e-09 0.345485)
(4.6464e-09 5.70805e-09 0.212254)
(2.23786e-09 3.29009e-09 0.0676399)
(9.96885e-10 3.64025e-10 -0.0720109)
(1.21558e-09 -1.97403e-09 -0.223224)
(2.11409e-09 -3.16139e-09 -0.390009)
(2.79912e-09 -3.24823e-09 -0.527365)
(2.93264e-09 -2.67295e-09 -0.568647)
(2.69326e-09 -1.91203e-09 -0.483756)
(2.39274e-09 -1.24975e-09 -0.303231)
(2.19182e-09 -7.64121e-10 -0.0963314)
(2.06061e-09 -4.35775e-10 0.0671386)
(1.92183e-09 -2.43422e-10 0.147866)
(1.79167e-09 -1.86676e-10 0.149384)
(1.76269e-09 -2.26768e-10 0.107679)
(1.94271e-09 -1.82386e-10 0.0710397)
(2.32159e-09 2.67381e-10 0.0738374)
(2.67125e-09 1.32871e-09 0.117614)
(2.64511e-09 2.75698e-09 0.171204)
(2.08785e-09 3.85944e-09 0.193285)
(1.29381e-09 3.9424e-09 0.16426)
(9.29561e-10 2.79683e-09 0.103271)
(1.60371e-09 8.19618e-10 0.0564934)
(3.38445e-09 -1.23333e-09 0.066722)
(5.73233e-09 -2.64123e-09 0.149073)
(7.95069e-09 -3.01953e-09 0.287722)
(9.62668e-09 -2.37955e-09 0.446266)
(1.06121e-08 -1.02101e-09 0.578907)
(1.07349e-08 5.83386e-10 0.642137)
(9.76959e-09 1.91571e-09 0.611396)
(7.7728e-09 2.59891e-09 0.494965)
(5.23041e-09 2.54825e-09 0.330909)
(2.8181e-09 1.96997e-09 0.167673)
(1.03801e-09 1.20522e-09 0.0418719)
(3.44605e-11 5.41882e-10 -0.0330291)
(-3.40323e-10 1.15906e-10 -0.0640723)
(-3.47274e-10 -7.76105e-11 -0.068303)
(-2.14376e-10 -1.16489e-10 -0.062388)
(-7.6994e-11 -8.57676e-11 -0.0569785)
(1.46723e-11 -4.30415e-11 -0.0560977)
(6.10652e-11 -1.36373e-11 -0.0593456)
(8.0663e-11 -1.03151e-12 -0.0645464)
(9.03499e-11 7.42023e-13 -0.0695832)
(9.84208e-11 -1.2772e-12 -0.0731813)
(1.05526e-10 -2.5769e-12 -0.074949)
(1.08724e-10 -1.63164e-12 -0.075087)
(1.05292e-10 1.03864e-12 -0.0740558)
(9.47575e-11 4.1003e-12 -0.0723348)
(7.90825e-11 6.35664e-12 -0.0702981)
(6.14269e-11 7.27088e-12 -0.0682145)
(4.47497e-11 6.93128e-12 -0.0662875)
(3.09976e-11 5.74855e-12 -0.0646792)
(2.09567e-11 4.20398e-12 -0.0635095)
(1.45318e-11 2.6559e-12 -0.0628432)
(1.11554e-11 1.30799e-12 -0.0626815)
(1.0127e-11 2.36564e-13 -0.0629634)
(1.08067e-11 -5.71741e-13 -0.0635802)
(1.26777e-11 -1.14439e-12 -0.0643971)
(1.53293e-11 -1.51936e-12 -0.0652774)
(1.84154e-11 -1.71899e-12 -0.0661012)
(2.16263e-11 -1.75421e-12 -0.0667782)
(2.46804e-11 -1.64794e-12 -0.0672521)
(2.73298e-11 -1.41377e-12 -0.0675008)
(2.93789e-11 -1.08602e-12 -0.067531)
(3.07037e-11 -7.02323e-13 -0.0673708)
(3.1264e-11 -3.00537e-13 -0.0670618)
(3.11039e-11 6.88106e-14 -0.0666504)
(3.03408e-11 3.76392e-13 -0.0661815)
(2.91392e-11 5.94338e-13 -0.065695)
(2.7681e-11 7.14889e-13 -0.0652226)
(2.61391e-11 7.50538e-13 -0.064789)
(2.46582e-11 7.04193e-13 -0.0644082)
(2.33442e-11 6.09112e-13 -0.0640864)
(2.22609e-11 4.78725e-13 -0.0638394)
(2.14343e-11 3.38708e-13 -0.0635516)
(2.08653e-11 2.06126e-13 -0.0638102)
(2.04326e-11 6.8454e-14 -0.0630091)
(5.40859e-17 1.83085e-15 -0.0963389)
(1.83916e-16 1.77702e-15 -0.0959696)
(1.6254e-16 1.37929e-17 -0.094354)
(2.43973e-16 1.71574e-15 -0.0917355)
(3.83236e-16 1.84845e-15 -0.0887512)
(-6.59105e-16 1.6009e-15 -0.0861173)
(5.60096e-15 -4.33207e-16 -0.0844481)
(-1.30239e-14 1.84736e-15 -0.0841172)
(-6.04528e-15 1.03731e-15 -0.0852557)
(6.99995e-14 -9.32722e-15 -0.0877325)
(8.47368e-14 -1.27679e-14 -0.0910429)
(-3.81107e-14 -5.02256e-15 -0.0950098)
(-2.07929e-13 9.87502e-15 -0.0989904)
(-3.45993e-13 2.31738e-14 -0.102583)
(-4.53542e-13 3.17634e-14 -0.10552)
(-5.32846e-13 3.77882e-14 -0.107516)
(-6.22458e-13 4.20029e-14 -0.108401)
(-8.5647e-13 2.95199e-14 -0.108086)
(-1.10935e-12 -1.36875e-14 -0.106456)
(-9.89986e-13 -5.35344e-14 -0.103361)
(-6.19692e-13 -5.15047e-14 -0.0989203)
(-3.07886e-13 -2.4402e-14 -0.0936953)
(-1.13326e-13 2.19476e-15 -0.08844)
(1.92729e-14 -1.77202e-14 -0.083987)
(4.40168e-13 -3.06295e-14 -0.081212)
(-8.20809e-13 5.72372e-13 -0.0808472)
(-5.34203e-12 -1.28007e-13 -0.0833344)
(1.8638e-11 -1.13992e-11 -0.0886675)
(8.10342e-11 -1.90975e-12 -0.096168)
(-2.03427e-10 1.91368e-10 -0.106221)
(-1.50334e-09 6.10389e-10 -0.122801)
(-3.57407e-09 7.5867e-10 -0.145499)
(-5.2387e-09 2.042e-10 -0.160384)
(-5.17691e-09 -5.26627e-10 -0.153752)
(-3.29511e-09 -6.96278e-10 -0.131361)
(-1.29707e-09 -4.09533e-10 -0.108474)
(-2.08007e-10 -1.29135e-10 -0.0908727)
(1.10651e-10 -1.39516e-11 -0.0779918)
(1.35227e-10 -2.29185e-12 -0.0691817)
(4.07845e-11 5.94643e-11 -0.0655957)
(-4.89233e-10 2.53372e-10 -0.0711455)
(-8.26148e-10 -1.45972e-10 -0.0866335)
(3.41227e-09 -3.27329e-09 -0.0891111)
(1.84512e-08 -1.05617e-08 -0.0244252)
(4.29554e-08 -1.88361e-08 0.142347)
(6.71219e-08 -2.12349e-08 0.37688)
(8.52705e-08 -1.33308e-08 0.59842)
(9.70829e-08 2.46196e-09 0.710639)
(9.59259e-08 1.71573e-08 0.635596)
(7.4469e-08 2.19403e-08 0.399293)
(4.12792e-08 1.66385e-08 0.138802)
(1.36529e-08 8.08554e-09 -0.0272581)
(-7.01276e-11 2.05404e-09 -0.0818359)
(-3.16603e-09 -2.17239e-10 -0.0774568)
(-2.06083e-09 -6.16162e-10 -0.0639011)
(4.44757e-10 -1.69137e-09 -0.0519954)
(4.96209e-09 -4.74105e-09 -0.0318395)
(1.08223e-08 -8.49055e-09 -0.0180683)
(1.37654e-08 -9.99274e-09 -0.0528507)
(1.02931e-08 -8.0408e-09 -0.132438)
(2.1433e-09 -4.78097e-09 -0.166703)
(-5.74058e-09 -3.01199e-09 -0.0632998)
(-8.87434e-09 -2.75842e-09 0.176851)
(-4.49612e-09 -1.10603e-09 0.460227)
(6.07434e-09 4.07692e-09 0.655317)
(1.57375e-08 1.04277e-08 0.661045)
(1.75249e-08 1.32515e-08 0.482278)
(1.17501e-08 1.09241e-08 0.230893)
(4.18932e-09 5.82909e-09 0.0330752)
(-1.73406e-10 9.22883e-10 -0.0573725)
(-1.11656e-10 -2.69347e-09 -0.0762056)
(2.59732e-09 -5.03586e-09 -0.113996)
(5.01069e-09 -5.82988e-09 -0.250017)
(5.04377e-09 -4.79916e-09 -0.473083)
(2.82813e-09 -2.62008e-09 -0.661965)
(2.40281e-11 -5.84964e-10 -0.678537)
(-2.01268e-09 4.81031e-10 -0.482381)
(-3.13773e-09 4.78685e-10 -0.15003)
(-3.90256e-09 -3.61221e-10 0.192144)
(-4.35131e-09 -1.44356e-09 0.447969)
(-3.50889e-09 -1.55505e-09 0.589286)
(-7.32865e-10 3.47279e-10 0.631314)
(2.68004e-09 3.68899e-09 0.587173)
(4.5453e-09 6.34379e-09 0.465635)
(4.12523e-09 6.49208e-09 0.291365)
(2.65334e-09 4.09622e-09 0.0956083)
(1.70521e-09 6.50005e-10 -0.114885)
(1.69476e-09 -2.12691e-09 -0.345111)
(2.01784e-09 -3.37392e-09 -0.554521)
(2.08031e-09 -3.28087e-09 -0.648331)
(1.83881e-09 -2.55023e-09 -0.551032)
(1.59535e-09 -1.77624e-09 -0.271977)
(1.59136e-09 -1.19239e-09 0.102449)
(1.8099e-09 -7.68337e-10 0.460414)
(2.03002e-09 -4.26625e-10 0.709598)
(2.02303e-09 -1.80859e-10 0.801826)
(1.74914e-09 -1.10637e-10 0.742835)
(1.40159e-09 -2.2633e-10 0.58745)
(1.27193e-09 -3.16464e-10 0.416885)
(1.48813e-09 5.14317e-11 0.299333)
(1.82974e-09 1.19539e-09 0.256028)
(1.86867e-09 2.85484e-09 0.255508)
(1.43971e-09 4.14488e-09 0.244375)
(9.8821e-10 4.13205e-09 0.194217)
(1.29689e-09 2.54753e-09 0.125396)
(2.72645e-09 1.91704e-11 0.0879793)
(4.7645e-09 -2.3482e-09 0.122037)
(6.47958e-09 -3.69009e-09 0.235394)
(7.38095e-09 -3.78461e-09 0.40863)
(7.73445e-09 -2.87456e-09 0.6077)
(8.10211e-09 -1.28846e-09 0.788409)
(8.62797e-09 6.5414e-10 0.89846)
(8.79131e-09 2.48891e-09 0.892654)
(7.96197e-09 3.65533e-09 0.761251)
(6.0782e-09 3.82751e-09 0.542554)
(3.71579e-09 3.13024e-09 0.303854)
(1.6239e-09 2.0176e-09 0.106303)
(2.53181e-10 9.65583e-10 -0.0200439)
(-3.67521e-10 2.45981e-10 -0.0784636)
(-4.69395e-10 -1.05776e-10 -0.0915644)
(-3.27976e-10 -1.95133e-10 -0.0845911)
(-1.36933e-10 -1.56668e-10 -0.0751527)
(1.54017e-11 -8.85072e-11 -0.070971)
(1.14005e-10 -3.76198e-11 -0.0725876)
(1.7528e-10 -1.33751e-11 -0.07731)
(2.17599e-10 -7.24696e-12 -0.0822286)
(2.49176e-10 -7.46041e-12 -0.0856148)
(2.68659e-10 -6.16684e-12 -0.0870564)
(2.7132e-10 -9.44332e-13 -0.0869702)
(2.54889e-10 6.77263e-12 -0.0860217)
(2.22049e-10 1.40775e-11 -0.0847408)
(1.79576e-10 1.86262e-11 -0.0833816)
(1.35402e-10 1.96524e-11 -0.0820238)
(9.59191e-11 1.77377e-11 -0.0807223)
(6.47393e-11 1.40935e-11 -0.0795787)
(4.28106e-11 9.91162e-12 -0.0787302)
(2.92886e-11 6.00814e-12 -0.0782969)
(2.25189e-11 2.78338e-12 -0.0783332)
(2.07586e-11 3.14925e-13 -0.0788067)
(2.25335e-11 -1.47892e-12 -0.0796083)
(2.67099e-11 -2.71654e-12 -0.0805836)
(3.24125e-11 -3.49766e-12 -0.0815701)
(3.89129e-11 -3.87511e-12 -0.082429)
(4.5562e-11 -3.88911e-12 -0.0830624)
(5.17693e-11 -3.577e-12 -0.0834206)
(5.70219e-11 -2.98795e-12 -0.0834992)
(6.09298e-11 -2.20011e-12 -0.0833297)
(6.32671e-11 -1.30029e-12 -0.0829654)
(6.39912e-11 -3.91476e-13 -0.0824691)
(6.3236e-11 4.29076e-13 -0.0819016)
(6.12785e-11 1.08677e-12 -0.0813138)