/*--------------------------------*- C++ -*----------------------------------*\
  =========                 |
  \\      /  F ield         | OpenFOAM: The Open Source CFD Toolbox
   \\    /   O peration     | Website:  https://openfoam.org
    \\  /    A nd           | Version:  11
     \\/     M anipulation  |
\*---------------------------------------------------------------------------*/
FoamFile
{
    format      ascii;
    class       volVectorField;
    location    "11.373566";
    object      U_0;
}
// * * * * * * * * * * * * * * * * * * * * * * * * * * * * * * * * * * * * * //

dimensions      [0 1 -1 0 0 0 0];

internalField   nonuniform List<vector> 
7132
(
(1.00013 -0.000250825 2.3959e-18)
(1.00194 -0.000738555 9.01894e-18)
(1.00593 -0.00123223 9.81992e-18)
(1.01184 -0.00174195 1.24101e-17)
(1.01984 -0.00227126 1.6429e-17)
(1.03001 -0.0028014 1.74057e-17)
(1.04228 -0.00329375 1.68341e-17)
(1.0564 -0.00367443 1.57929e-17)
(1.07175 -0.00386373 1.45631e-17)
(1.08743 -0.00379221 1.31778e-17)
(1.10221 -0.00342977 1.17201e-17)
(1.11501 -0.00288985 1.06416e-17)
(1.12538 -0.00226166 9.65084e-18)
(1.13315 -0.00162232 9.09774e-18)
(1.1384 -0.000978476 4.00363e-18)
(1.14104 -0.000259391 -1.11816e-18)
(1.1406 0.000630937 -5.36253e-18)
(1.13617 0.00172238 -4.73924e-18)
(1.12699 0.00289328 -7.60337e-18)
(1.11314 0.00391231 -9.64575e-18)
(1.09571 0.00454597 -8.56041e-18)
(1.07669 0.00463478 -7.43039e-18)
(1.05848 0.00411373 -6.81529e-18)
(1.04358 0.00300397 -6.46708e-18)
(1.03425 0.0014079 -1.58924e-18)
(1.03218 -0.000483297 1.39095e-17)
(1.03811 -0.00236348 -9.32682e-17)
(1.05127 -0.00380278 -5.76907e-16)
(1.06891 -0.0043406 -1.12717e-15)
(1.08651 -0.00370069 -1.08433e-15)
(1.09905 -0.00199827 -5.77125e-16)
(1.1029 0.000272685 -1.69157e-16)
(1.09706 0.0024877 -1.63293e-17)
(1.08296 0.00416559 4.18949e-17)
(1.06351 0.00507328 1.01178e-16)
(1.04204 0.00516743 -3.0978e-16)
(1.02178 0.0044894 -1.10893e-15)
(1.0057 0.00309533 2.83401e-15)
(0.996581 0.00105403 1.65908e-14)
(0.996888 -0.00149044 7.26134e-15)
(1.00829 -0.00420744 -1.36274e-13)
(1.03063 -0.00650859 -5.02997e-13)
(1.06079 -0.00765903 -9.22938e-13)
(1.09259 -0.00710621 -1.0688e-12)
(1.11841 -0.00483686 -8.6599e-13)
(1.13195 -0.00146914 -5.09586e-13)
(1.13053 0.00204051 -1.98734e-13)
(1.11564 0.00485392 -3.23799e-14)
(1.09144 0.00655084 1.51785e-14)
(1.06282 0.00710954 2.0672e-14)
(1.03411 0.0067034 2.52649e-14)
(1.00873 0.00550569 -1.83785e-14)
(0.989579 0.00360299 -1.57954e-13)
(0.97941 0.00103191 -1.39145e-13)
(0.980888 -0.00209146 8.30129e-13)
(0.995911 -0.00540788 3.96286e-12)
(1.02427 -0.00824561 9.75921e-12)
(1.06238 -0.00976406 1.64491e-11)
(1.10319 -0.0093008 2.06612e-11)
(1.13771 -0.00674082 2.03154e-11)
(1.15793 -0.00267264 1.58381e-11)
(1.15961 0.00181092 9.14757e-12)
(1.14354 0.00558119 3.32988e-12)
(1.11466 0.00793508 2.31038e-13)
(1.07953 0.00875 -7.52805e-13)
(1.04408 0.00830235 -1.32918e-12)
(1.01258 0.00695418 -1.56041e-12)
(0.987935 0.00492384 2.80571e-12)
(0.972609 0.0022495 2.05034e-11)
(0.969266 -0.00105463 6.0978e-11)
(0.980372 -0.00475093 1.28568e-10)
(1.00676 -0.00824211 2.18037e-10)
(1.0461 -0.0106957 3.14575e-10)
(1.09246 -0.0113806 3.98351e-10)
(1.13755 -0.00999257 4.50491e-10)
(1.173 -0.00677901 4.58078e-10)
(1.19249 -0.002446 4.17765e-10)
(1.19326 0.00204718 3.36986e-10)
(1.17666 0.00572337 2.31984e-10)
(1.14775 0.00783721 1.2644e-10)
(1.11392 0.00808158 4.38477e-11)
(1.08279 0.00663531 -2.84635e-12)
(1.06037 0.00397237 -1.37999e-11)
(1.05051 0.000580247 4.37866e-12)
(1.05534 -0.00314463 4.56788e-11)
(1.07557 -0.00678853 1.05798e-10)
(1.11001 -0.00981185 1.79614e-10)
(1.15493 -0.0116134 2.60013e-10)
(1.20413 -0.0117352 3.39363e-10)
(1.25008 -0.0100546 4.11724e-10)
(1.28559 -0.00685905 4.73955e-10)
(1.30551 -0.00278225 5.25843e-10)
(1.30786 0.0013623 5.69762e-10)
(1.29414 0.0048159 6.07476e-10)
(1.2685 0.007118 6.35459e-10)
(1.23618 0.008213 6.40336e-10)
(1.20182 0.00834386 6.00659e-10)
(1.16867 0.00779375 5.01445e-10)
(1.139 0.0066811 3.52602e-10)
(1.115 0.00498 1.91014e-10)
(1.0991 0.00271343 5.97021e-11)
(1.09332 0.000110171 -1.72426e-11)
(1.0983 -0.00240667 -4.21867e-11)
(1.11271 -0.00435819 -3.32752e-11)
(1.13336 -0.00535378 -1.02497e-11)
(1.15579 -0.00518165 1.3019e-11)
(1.17513 -0.00385443 2.93491e-11)
(1.18698 -0.00162675 3.64227e-11)
(1.18849 0.0010348 3.49723e-11)
(1.17897 0.0035592 2.76792e-11)
(1.16012 0.00544275 1.80511e-11)
(1.13535 0.00640562 9.215e-12)
(1.10867 0.00644731 3.02616e-12)
(1.08352 0.00578268 -1.82131e-13)
(1.06217 0.00471405 -1.15958e-12)
(1.04563 0.00351599 -9.87766e-13)
(1.03394 0.00237703 -5.0686e-13)
(1.02657 0.00139679 -1.32153e-13)
(1.02276 0.000611788 4.63948e-14)
(1.0217 2.46439e-05 8.73104e-14)
(1.02261 -0.000375676 7.14721e-14)
(1.02476 -0.000604254 5.07728e-14)
(1.02751 -0.000678187 4.43494e-14)
(1.03026 -0.000618663 5.16606e-14)
(1.03252 -0.000453628 6.51278e-14)
(1.03394 -0.000218348 7.73198e-14)
(1.03431 4.73006e-05 8.36097e-14)
(1.03358 0.000304146 8.25124e-14)
(1.03187 0.000519658 7.49531e-14)
(1.02941 0.000672251 6.31705e-14)
(1.02647 0.000752786 4.97605e-14)
(1.02336 0.000763434 3.70047e-14)
(1.02033 0.000714826 2.65192e-14)
(1.01761 0.000622607 1.91697e-14)
(1.01533 0.000504207 1.51838e-14)
(1.01356 0.000376276 1.43484e-14)
(1.0123 0.000252903 1.62058e-14)
(1.01153 0.000144605 2.02023e-14)
(1.01115 5.80111e-05 2.57636e-14)
(1.01107 -3.89649e-06 3.23279e-14)
(1.01119 -4.11702e-05 3.93584e-14)
(1.01141 -5.61083e-05 4.6349e-14)
(1.01164 -5.24603e-05 5.2838e-14)
(1.01183 -3.47367e-05 5.84279e-14)
(1.01193 -7.65292e-06 6.28216e-14)
(1.0119 2.4278e-05 6.58549e-14)
(1.01174 5.70697e-05 6.75186e-14)
(1.01145 8.74514e-05 6.79548e-14)
(1.01104 0.000113046 6.74216e-14)
(1.01054 0.000132328 6.62492e-14)
(1.00998 0.000144746 6.47866e-14)
(1.00938 0.00015035 6.33541e-14)
(1.00877 0.000150083 6.22124e-14)
(1.00817 0.000144845 6.1541e-14)
(1.00762 0.000136514 6.14346e-14)
(1.00707 0.000125808 6.19134e-14)
(1.00662 0.000115206 6.29118e-14)
(1.00611 0.000104065 6.44177e-14)
(1.00585 9.6226e-05 6.59357e-14)
(1.00525 8.54103e-05 6.91027e-14)
(1.00013 -0.000750837 3.0235e-20)
(1.00192 -0.00221171 4.43088e-19)
(1.00589 -0.0036916 9.28474e-19)
(1.01179 -0.00522307 1.47123e-18)
(1.01978 -0.00681767 2.14273e-18)
(1.02998 -0.00841998 2.80655e-18)
(1.04234 -0.00991412 3.25809e-18)
(1.05664 -0.0110741 3.99333e-18)
(1.07224 -0.0116557 4.99937e-18)
(1.08822 -0.0114401 4.32556e-18)
(1.10324 -0.0103321 4.1855e-18)
(1.11618 -0.0086901 7.86872e-18)
(1.1266 -0.0067907 6.08115e-18)
(1.13437 -0.00487671 2.36244e-18)
(1.13964 -0.00297 -6.04083e-19)
(1.1424 -0.000848373 -5.83971e-19)
(1.14214 0.00179883 1.34554e-18)
(1.13786 0.00508002 3.6476e-18)
(1.12866 0.0086281 5.00834e-18)
(1.11455 0.0117331 5.21679e-18)
(1.09668 0.0136794 5.05819e-18)
(1.07708 0.0139807 5.06783e-18)
(1.05827 0.0124376 3.04522e-18)
(1.04281 0.00910854 -5.41455e-18)
(1.03305 0.00429295 1.55527e-17)
(1.03079 -0.0014433 1.07495e-16)
(1.0369 -0.00718103 -9.46848e-16)
(1.0507 -0.0116074 -5.65971e-15)
(1.06938 -0.0132952 -1.09809e-14)
(1.08811 -0.011375 -9.9215e-15)
(1.1015 -0.00618989 -4.31451e-15)
(1.10568 0.000741196 -6.69072e-16)
(1.09962 0.00749899 2.77537e-16)
(1.08493 0.0126128 6.12364e-16)
(1.06474 0.0153831 3.69468e-16)
(1.04249 0.0156931 -4.66838e-15)
(1.02146 0.0136778 -7.45396e-15)
(1.00464 0.00950387 5.2145e-14)
(0.994869 0.00335876 2.03041e-13)
(0.99476 -0.00435413 -1.6314e-13)
(1.00625 -0.0126545 -3.10471e-12)
(1.02937 -0.019744 -1.02564e-11)
(1.06099 -0.0233441 -1.83661e-11)
(1.09453 -0.0217256 -2.07353e-11)
(1.12177 -0.014831 -1.56025e-11)
(1.13595 -0.0045617 -7.9831e-12)
(1.13434 0.00614066 -2.64075e-12)
(1.11864 0.0147042 -2.43507e-13)
(1.09339 0.0198539 3.51173e-13)
(1.06377 0.0215471 3.05885e-13)
(1.03416 0.0203352 9.57901e-14)
(1.00798 0.0167546 -5.15545e-13)
(0.988068 0.0110576 -1.27964e-12)
(0.977192 0.00332248 1.65132e-12)
(0.978152 -0.00614203 1.88655e-11)
(0.993051 -0.0162672 6.48437e-11)
(1.02189 -0.0249949 1.41772e-10)
(1.06124 -0.0297225 2.23149e-10)
(1.10389 -0.0283869 2.64919e-10)
(1.14037 -0.0206221 2.4264e-10)
(1.16197 -0.00823787 1.72945e-10)
(1.16401 0.00542336 9.40593e-11)
(1.1473 0.0169103 3.51095e-11)
(1.11718 0.0240653 4.62435e-12)
(1.08074 0.0265239 -5.05594e-12)
(1.04419 0.0251612 -6.14329e-12)
(1.01181 0.021115 -4.29119e-12)
(0.986317 0.0150625 8.34927e-12)
(0.969998 0.00709376 5.23168e-11)
(0.965588 -0.00280727 1.49334e-10)
(0.975926 -0.0139761 3.04166e-10)
(1.00227 -0.0246163 4.94318e-10)
(1.04238 -0.0321706 6.80671e-10)
(1.08997 -0.0343759 8.27534e-10)
(1.13621 -0.0302905 9.1024e-10)
(1.1724 -0.0206708 9.10545e-10)
(1.19226 -0.00764977 8.19126e-10)
(1.19321 0.00589784 6.48513e-10)
(1.17664 0.0170402 4.36105e-10)
(1.14755 0.0235188 2.32324e-10)
(1.11329 0.0243767 7.94097e-11)
(1.08152 0.0201238 -4.60527e-12)
(1.05839 0.0121674 -2.39666e-11)
(1.04795 0.00194904 8.86974e-12)
(1.05273 -0.00936925 8.29375e-11)
(1.07384 -0.020539 1.87255e-10)
(1.11022 -0.029874 3.0663e-10)
(1.15784 -0.0354665 4.23555e-10)
(1.20987 -0.0358592 5.24239e-10)
(1.25808 -0.0306699 6.024e-10)
(1.2948 -0.0208184 6.58549e-10)
(1.31469 -0.00830229 6.96913e-10)
(1.3159 0.00436916 7.22876e-10)
(1.30019 0.0148909 7.41245e-10)
(1.27214 0.021862 7.51307e-10)
(1.23744 0.0251126 7.40314e-10)
(1.20111 0.0253963 6.84942e-10)
(1.16663 0.0236083 5.67724e-10)
(1.13628 0.0201495 3.98062e-10)
(1.11214 0.014967 2.15181e-10)
(1.09646 0.00812753 6.62137e-11)
(1.09111 0.000295296 -2.04011e-11)
(1.09659 -0.00728222 -4.37947e-11)
(1.11152 -0.0131724 -2.16395e-11)
(1.13268 -0.0161965 2.24244e-11)
(1.15564 -0.0157094 6.67911e-11)
(1.17553 -0.0117391 9.61596e-11)
(1.18792 -0.00504185 1.03935e-10)
(1.18982 0.00298953 9.21291e-11)
(1.18045 0.0106373 6.84368e-11)
(1.16143 0.016367 4.20868e-11)
(1.13628 0.0193129 2.01921e-11)
(1.10912 0.0194611 5.97461e-12)
(1.08354 0.0174595 -9.12171e-13)
(1.0619 0.0142277 -2.79036e-12)
(1.04522 0.0106021 -2.25093e-12)
(1.03352 0.00715674 -1.12531e-12)
(1.02623 0.004194 -2.7383e-13)
(1.02257 0.00182339 1.32328e-13)
(1.02167 5.13378e-05 2.28892e-13)
(1.02276 -0.00115662 1.96404e-13)
(1.02509 -0.00184629 1.52155e-13)
(1.02799 -0.00206899 1.40311e-13)
(1.03088 -0.00188815 1.5932e-13)
(1.03325 -0.00138774 1.90473e-13)
(1.03473 -0.000674153 2.15448e-13)
(1.03512 0.000131907 2.23451e-13)
(1.03438 0.000911568 2.12352e-13)
(1.03262 0.00156594 1.86372e-13)
(1.03009 0.00202936 1.52451e-13)
(1.02707 0.00227405 1.17424e-13)
(1.02389 0.00230667 8.6436e-14)
(1.0208 0.00215956 6.24768e-14)
(1.01803 0.00188026 4.66314e-14)
(1.01572 0.00152168 3.86565e-14)
(1.01394 0.00113433 3.75752e-14)
(1.01269 0.000760914 4.21136e-14)
(1.01193 0.000433275 5.0953e-14)
(1.01157 0.000171462 6.28127e-14)
(1.01152 -1.5553e-05 7.64644e-14)
(1.01166 -0.000127984 9.07485e-14)
(1.0119 -0.000172835 1.04591e-13)
(1.01216 -0.00016149 1.17034e-13)
(1.01236 -0.000107615 1.27292e-13)
(1.01246 -2.54804e-05 1.34817e-13)
(1.01244 7.12667e-05 1.39371e-13)
(1.01228 0.000170574 1.41053e-13)
(1.01198 0.000262555 1.4027e-13)
(1.01156 0.000340019 1.37637e-13)
(1.01106 0.000398366 1.33875e-13)
(1.01049 0.000435915 1.29702e-13)
(1.00988 0.000452843 1.25745e-13)
(1.00927 0.000451982 1.22489e-13)
(1.00866 0.000436109 1.20245e-13)
(1.0081 0.000410831 1.1915e-13)
(1.00755 0.000378471 1.19201e-13)
(1.0071 0.00034627 1.20249e-13)
(1.00659 0.00031275 1.22199e-13)
(1.00632 0.00028874 1.24298e-13)
(1.00572 0.000256371 1.28729e-13)
(1.00013 -0.0012463 -3.09505e-23)
(1.0019 -0.00367171 6.02933e-21)
(1.00582 -0.00613409 6.72382e-21)
(1.01166 -0.00869342 2.09301e-20)
(1.01965 -0.0113736 -8.21166e-20)
(1.0299 -0.0140858 -7.69469e-21)
(1.04245 -0.0166368 -1.17623e-20)
(1.05711 -0.0186351 -1.42557e-18)
(1.07322 -0.0196561 -4.39708e-19)
(1.08981 -0.0192967 3.80722e-18)
(1.10535 -0.0173798 9.63861e-19)
(1.11858 -0.0145631 -1.21165e-17)
(1.12909 -0.0113351 -2.69005e-17)
(1.13685 -0.00813335 -3.49353e-17)
(1.14217 -0.00499542 -3.12403e-17)
(1.14515 -0.00151125 -1.51816e-17)
(1.14524 0.00290086 1.78209e-18)
(1.14123 0.00846826 1.15332e-17)
(1.13196 0.0145552 1.37694e-17)
(1.11729 0.0199093 1.21558e-17)
(1.09847 0.0232805 1.00841e-17)
(1.07771 0.0238362 1.17106e-18)
(1.05769 0.021246 -1.10603e-17)
(1.04116 0.01561 5.97084e-17)
(1.03063 0.00741808 -2.3607e-16)
(1.0281 -0.00240533 -2.77202e-15)
(1.0347 -0.012319 1.60339e-15)
(1.0499 -0.0200481 4.36097e-14)
(1.07074 -0.0230573 9.98031e-14)
(1.09178 -0.0197692 9.89472e-14)
(1.10681 -0.010773 5.36844e-14)
(1.11144 0.00123608 1.69806e-14)
(1.10468 0.0128752 2.30634e-15)
(1.0886 0.0216073 1.36006e-15)
(1.06675 0.0262913 -1.98637e-15)
(1.04289 0.026801 -2.88865e-14)
(1.02036 0.0234093 -7.30152e-15)
(1.00219 0.016391 3.4006e-13)
(0.991293 0.00600177 7.30042e-13)
(0.990587 -0.00716691 -2.24161e-12)
(1.00252 -0.0215048 -1.54849e-11)
(1.02758 -0.0338879 -4.08799e-11)
(1.06245 -0.0402583 -6.78374e-11)
(1.09962 -0.0375094 -7.86085e-11)
(1.12957 -0.025535 -6.41071e-11)
(1.14468 -0.00772287 -3.61371e-11)
(1.14216 0.0107272 -1.37049e-11)
(1.12436 0.0253373 -2.09766e-12)
(1.09668 0.033981 1.55064e-12)
(1.06487 0.0367145 1.62545e-12)
(1.03349 0.0345869 2.91612e-13)
(1.00585 0.0285498 -2.89062e-12)
(0.984628 0.0189999 -4.36392e-12)
(0.972517 0.00599911 1.74896e-11)
(0.97232 -0.0100035 1.08942e-10)
(0.986375 -0.0272627 3.13011e-10)
(1.01523 -0.0423405 6.12273e-10)
(1.05605 -0.0507861 9.06972e-10)
(1.10179 -0.0488954 1.06295e-09)
(1.14229 -0.0357848 9.96446e-10)
(1.16741 -0.0144614 7.40374e-10)
(1.17107 0.00918756 4.24786e-10)
(1.15369 0.0290126 1.72258e-10)
(1.12133 0.0412085 3.13859e-11)
(1.08226 0.0452276 -1.84561e-11)
(1.04349 0.0427505 -2.34998e-11)
(1.00943 0.0358853 -1.19108e-11)
(0.982398 0.0258311 2.67839e-11)
(0.964427 0.0126218 1.305e-10)
(0.958601 -0.00400087 3.25682e-10)
(0.96869 -0.0230743 5.89209e-10)
(0.996642 -0.0414698 8.55012e-10)
(1.03984 -0.0545667 1.06509e-09)
(1.0907 -0.0583201 1.20566e-09)
(1.13907 -0.0512094 1.29116e-09)
(1.17564 -0.0347788 1.31976e-09)
(1.19454 -0.012811 1.25423e-09)
(1.19402 0.00989634 1.05941e-09)
(1.17609 0.0285667 7.57715e-10)
(1.14588 0.0394988 4.29053e-10)
(1.11058 0.0410727 1.61553e-10)
(1.07774 0.0340715 5.23124e-12)
(1.05359 0.0207563 -3.50476e-11)
(1.04265 0.00341911 2.11063e-11)
(1.04823 -0.0160719 1.45845e-10)
(1.07205 -0.0355241 3.05891e-10)
(1.11291 -0.0518196 4.66382e-10)
(1.16578 -0.0614572 6.0122e-10)
(1.22256 -0.0618734 6.99941e-10)
(1.27408 -0.0525178 7.65235e-10)
(1.31224 -0.0351325 8.06064e-10)
(1.33161 -0.0132822 8.31962e-10)
(1.33049 0.00865801 8.49821e-10)
(1.31102 0.0267179 8.64367e-10)
(1.27841 0.0384929 8.73967e-10)
(1.23912 0.0437123 8.62689e-10)
(1.19892 0.0437337 8.014e-10)
(1.16174 0.0402012 6.67303e-10)
(1.12999 0.0339208 4.69571e-10)
(1.1056 0.024886 2.53734e-10)
(1.09051 0.0132311 7.73324e-11)
(1.08619 5.02859e-05 -2.01328e-11)
(1.09276 -0.0126078 -2.98497e-11)
(1.10853 -0.0224012 3.0526e-11)
(1.13029 -0.0274195 1.26736e-10)
(1.1538 -0.0266125 2.1916e-10)
(1.17445 -0.0199954 2.75111e-10)
(1.18782 -0.00876576 2.79531e-10)
(1.19064 0.00478626 2.38467e-10)
(1.18179 0.0177636 1.71938e-10)
(1.16272 0.027526 1.0286e-10)
(1.13701 0.0325563 4.78832e-11)
(1.10907 0.032807 1.34033e-11)
(1.08279 0.0293851 -2.76352e-12)
(1.0607 0.0238727 -6.9348e-12)
(1.04388 0.0177081 -5.48908e-12)
(1.0323 0.011872 -2.73618e-12)
(1.02531 0.00687409 -6.57461e-13)
(1.02204 0.00289178 3.57695e-13)
(1.02158 -7.26533e-05 6.26711e-13)
(1.0231 -0.0020837 5.76546e-13)
(1.02582 -0.00322169 4.90833e-13)
(1.02906 -0.0035736 4.7939e-13)
(1.03222 -0.0032456 5.3817e-13)
(1.03478 -0.00237885 6.18106e-13)
(1.03636 -0.00115358 6.71193e-13)
(1.03675 0.000224709 6.71094e-13)
(1.03594 0.00155335 6.16704e-13)
(1.03405 0.00266411 5.24498e-13)
(1.03135 0.00344616 4.16808e-13)
(1.02817 0.00385387 3.13263e-13)
(1.02483 0.00390041 2.26804e-13)
(1.02162 0.00364242 1.63379e-13)
(1.01877 0.00316186 1.23652e-13)
(1.01643 0.00254923 1.05204e-13)
(1.01464 0.00189046 1.04351e-13)
(1.01342 0.00125779 1.17231e-13)
(1.0127 0.000704815 1.40239e-13)
(1.0124 0.00026488 1.7006e-13)
(1.0124 -4.74865e-05 2.03577e-13)
(1.0126 -0.000233284 2.37876e-13)
(1.01289 -0.000304896 2.70287e-13)
(1.01318 -0.000281953 2.98479e-13)
(1.01341 -0.000187794 3.20627e-13)
(1.01352 -4.66404e-05 3.35582e-13)
(1.0135 0.000118436 3.43003e-13)
(1.01333 0.00028712 3.43409e-13)
(1.01302 0.000442797 3.38021e-13)
(1.01259 0.000573429 3.28504e-13)
(1.01206 0.00067137 3.16683e-13)
(1.01147 0.000733914 3.04292e-13)
(1.01085 0.000761499 2.92776e-13)
(1.01022 0.000759019 2.83189e-13)
(1.0096 0.000731288 2.76156e-13)
(1.00903 0.000687823 2.71897e-13)
(1.00848 0.000632648 2.70309e-13)
(1.00803 0.00057791 2.71e-13)
(1.00752 0.000521319 2.7361e-13)
(1.00725 0.000480628 2.76805e-13)
(1.00666 0.00042665 2.83714e-13)
(1.00013 -0.00173381 -3.8206e-20)
(1.00186 -0.00510795 -5.44198e-19)
(1.0057 -0.00854585 -1.02726e-18)
(1.01146 -0.0121421 -1.68304e-18)
(1.01941 -0.0159413 -2.9088e-18)
(1.02973 -0.0198268 -2.05036e-18)
(1.04256 -0.0235295 -7.12062e-18)
(1.05774 -0.0264699 -6.94195e-18)
(1.07465 -0.028016 7.91708e-18)
(1.09222 -0.0275142 -2.38631e-18)
(1.10856 -0.0246751 -4.7025e-17)
(1.12222 -0.0205569 -4.81899e-17)
(1.13285 -0.015905 7.37522e-17)
(1.14056 -0.0114104 3.10528e-16)
(1.14592 -0.00713093 4.95422e-16)
(1.14925 -0.00240529 4.90616e-16)
(1.14994 0.00373558 3.51829e-16)
(1.1464 0.011722 1.72856e-16)
(1.13702 0.020608 2.50608e-17)
(1.12148 0.0284834 -5.80194e-17)
(1.10117 0.0334735 -9.7045e-17)
(1.07859 0.0343684 -2.15526e-16)
(1.05672 0.030709 -1.45217e-16)
(1.03854 0.02264 1.16015e-15)
(1.02681 0.0108264 -5.36909e-15)
(1.02384 -0.00347325 -3.39264e-14)
(1.03117 -0.0180838 1.0892e-13)
(1.04857 -0.0296396 8.39852e-13)
(1.07282 -0.0342485 1.75861e-12)
(1.09752 -0.0294164 1.76521e-12)
(1.11513 -0.0160084 9.46456e-13)
(1.12041 0.00182658 2.67452e-13)
(1.11247 0.018936 1.24044e-14)
(1.0941 0.031582 -2.34735e-14)
(1.06964 0.0382356 -3.93785e-14)
(1.04328 0.0388837 -7.05208e-14)
(1.01851 0.0340233 2.30831e-13)
(0.998314 0.02404 7.61557e-13)
(0.985723 0.00916858 -1.57342e-12)
(0.984103 -0.0099532 -8.59023e-12)
(0.996652 -0.0311367 5.06948e-13)
(1.02448 -0.049713 5.97784e-11)
(1.06423 -0.0593866 1.40322e-10)
(1.10719 -0.0553034 1.55509e-10)
(1.14173 -0.0373485 9.18183e-11)
(1.15845 -0.0108205 2.2012e-11)
(1.15439 0.0163339 -9.81094e-12)
(1.13305 0.0374541 -1.03134e-11)
(1.10138 0.0495934 -2.10433e-12)
(1.06612 0.0531331 2.25692e-12)
(1.03208 0.049839 -3.59045e-13)
(1.00235 0.0411832 -9.07633e-12)
(0.979223 0.0277258 -2.72227e-12)
(0.964939 0.00948901 8.71287e-11)
(0.962165 -0.013049 3.55203e-10)
(0.973948 -0.037702 8.25095e-10)
(1.00218 -0.0598345 1.38789e-09)
(1.04484 -0.0730316 1.87649e-09)
(1.09454 -0.0715375 2.15439e-09)
(1.14019 -0.0534352 2.11738e-09)
(1.17044 -0.0226003 1.72934e-09)
(1.1776 0.0123187 1.11888e-09)
(1.16083 0.0417905 5.29734e-10)
(1.12641 0.0597713 1.40249e-10)
(1.08401 0.0654265 -2.89238e-11)
(1.04208 0.0615627 -6.02483e-11)
(1.00546 0.0516573 -2.75727e-11)
(0.976171 0.0375625 6.57228e-11)
(0.956145 0.0190015 2.57541e-10)
(0.949398 -0.00491967 5.46363e-10)
(0.961051 -0.0329782 8.53648e-10)
(0.993263 -0.0601911 1.08274e-09)
(1.04198 -0.0792232 1.1996e-09)
(1.09757 -0.0840176 1.24409e-09)
(1.14841 -0.07277 1.28311e-09)
(1.18466 -0.048386 1.34911e-09)
(1.2009 -0.0167978 1.39379e-09)
(1.19664 0.0151611 1.31153e-09)
(1.17522 0.0411238 1.04644e-09)
(1.14239 0.0562594 6.60151e-10)
(1.10527 0.0584248 2.87484e-10)
(1.07101 0.048608 4.23486e-11)
(1.04582 0.0297107 -3.23072e-11)
(1.03491 0.00463926 4.36359e-11)
(1.0426 -0.0240525 2.1398e-10)
(1.07103 -0.0528709 4.11645e-10)
(1.11803 -0.0767463 5.84022e-10)
(1.17687 -0.0903152 7.08179e-10)
(1.23806 -0.0900398 7.8688e-10)
(1.29196 -0.0755227 8.33541e-10)
(1.33062 -0.0495703 8.60713e-10)
(1.34893 -0.0174019 8.77894e-10)
(1.34527 0.0146894 8.9369e-10)
(1.32183 0.0409437 9.15173e-10)
(1.28418 0.057806 9.40776e-10)
(1.23952 0.0648388 9.49736e-10)
(1.19451 0.0640713 9.02558e-10)
(1.1538 0.0580635 7.6569e-10)
(1.12014 0.0482128 5.45475e-10)
(1.09542 0.0347042 2.96548e-10)
(1.08117 0.017836 9.44417e-11)
(1.07817 -0.00082047 -2.1749e-12)
(1.08584 -0.0184494 2.55984e-11)
(1.10211 -0.0319407 1.53375e-10)
(1.12384 -0.0388409 3.26717e-10)
(1.14733 -0.0377995 4.83496e-10)
(1.16853 -0.0287494 5.73874e-10)
(1.18325 -0.0131338 5.73421e-10)
(1.18789 0.00601381 4.89548e-10)
(1.18065 0.0246063 3.55857e-10)
(1.16244 0.0387542 2.1532e-10)
(1.13672 0.046127 1.01752e-10)
(1.10819 0.0465609 2.94395e-11)
(1.08118 0.0416394 -5.12817e-12)
(1.05858 0.0336817 -1.4528e-11)
(1.04162 0.0248036 -1.18497e-11)
(1.03028 0.0164395 -6.11031e-12)
(1.02379 0.00932095 -1.58619e-12)
(1.02117 0.00368798 7.63464e-13)
(1.0214 -0.000474346 1.51665e-12)
(1.02358 -0.00327269 1.54746e-12)
(1.02691 -0.00482954 1.46539e-12)
(1.03068 -0.00527075 1.51653e-12)
(1.03425 -0.0047465 1.69279e-12)
(1.03709 -0.00345722 1.87999e-12)
(1.03881 -0.00166157 1.96747e-12)
(1.0392 0.000343454 1.90131e-12)
(1.03825 0.00226448 1.69335e-12)
(1.03615 0.00385912 1.39834e-12)
(1.03319 0.00496995 1.08077e-12)
(1.02974 0.00553532 7.92141e-13)
(1.02617 0.00557888 5.62238e-13)
(1.02279 0.00518639 4.00909e-13)
(1.01982 0.00447873 3.04624e-13)
(1.01742 0.00358767 2.63364e-13)
(1.01564 0.00263706 2.6551e-13)
(1.01447 0.00173019 3.0028e-13)
(1.01383 0.000942772 3.5833e-13)
(1.01362 0.000321083 4.31398e-13)
(1.01371 -0.000115732 5.1185e-13)
(1.01399 -0.000370665 5.92595e-13)
(1.01435 -0.000462704 6.67173e-13)
(1.0147 -0.00042082 7.3007e-13)
(1.01496 -0.000278899 7.77165e-13)
(1.01509 -7.17716e-05 8.06136e-13)
(1.01507 0.000167611 8.16713e-13)
(1.01489 0.000410378 8.10672e-13)
(1.01456 0.000633042 7.91376e-13)
(1.0141 0.000818706 7.63078e-13)
(1.01354 0.000956783 7.30228e-13)
(1.01292 0.00104374 6.96885e-13)
(1.01227 0.00108054 6.66306e-13)
(1.01162 0.00107447 6.40749e-13)
(1.01098 0.00103262 6.21449e-13)
(1.0104 0.000968816 6.08714e-13)
(1.00984 0.00088876 6.02128e-13)
(1.00938 0.000810072 6.00707e-13)
(1.00888 0.000729074 6.03401e-13)
(1.00861 0.000671307 6.07835e-13)
(1.00802 0.0005954 6.17968e-13)
(1.00013 -0.00220872 -2.61143e-18)
(1.0018 -0.00650705 -8.75437e-18)
(1.00552 -0.0109079 -7.43312e-18)
(1.01115 -0.0155511 -1.03282e-17)
(1.01902 -0.0205146 -7.32457e-18)
(1.02941 -0.025664 -1.41579e-17)
(1.04258 -0.0306578 -2.58872e-17)
(1.05848 -0.0346974 5.04937e-17)
(1.0765 -0.0369047 -5.25918e-17)
(1.09546 -0.0362634 -1.96517e-16)
(1.11293 -0.0323234 2.12526e-16)
(1.12716 -0.0267048 1.05573e-15)
(1.13789 -0.0204713 1.98563e-15)
(1.14544 -0.0146527 3.20253e-15)
(1.1508 -0.00933738 4.39062e-15)
(1.15461 -0.00352064 4.34037e-15)
(1.15621 0.00431874 3.07865e-15)
(1.15344 0.0149417 1.42109e-15)
(1.14397 0.0270318 3.29182e-17)
(1.12725 0.0378404 -7.46434e-16)
(1.10487 0.0447252 -1.13569e-15)
(1.07978 0.0460562 -1.64374e-15)
(1.05534 0.0412657 1.43168e-16)
(1.03486 0.0305632 9.31286e-16)
(1.02141 0.0147706 -3.50798e-14)
(1.01773 -0.0045773 2.96021e-15)
(1.02595 -0.0246787 6.01172e-13)
(1.04637 -0.0408856 1.53605e-12)
(1.07551 -0.0475538 2.27461e-12)
(1.1055 -0.0409313 2.66043e-12)
(1.12683 -0.0222008 1.92042e-12)
(1.13298 0.00259531 7.45914e-13)
(1.12324 0.0260515 9.48264e-14)
(1.10156 0.0430247 -1.10121e-13)
(1.07343 0.0516935 -1.8263e-13)
(1.04367 0.0523612 1.89119e-13)
(1.01586 0.0458916 1.16552e-12)
(0.992933 0.0327851 -3.05881e-12)
(0.978009 0.0131152 -1.75961e-11)
(0.974844 -0.0126137 1.45601e-11)
(0.987085 -0.0416756 2.70024e-10)
(1.01646 -0.067676 8.64721e-10)
(1.06066 -0.08164 1.5467e-09)
(1.11117 -0.0762887 1.80707e-09)
(1.15387 -0.0511586 1.43257e-09)
(1.17535 -0.0140167 7.59517e-10)
(1.17073 0.0234624 2.38164e-10)
(1.14492 0.0518501 7.01654e-12)
(1.10761 0.0674403 -3.38772e-11)
(1.06748 0.0713551 -1.63741e-11)
(1.02988 0.0664621 -9.39264e-12)
(0.99748 0.0549741 -1.70067e-11)
(0.971659 0.0377085 2.95234e-11)
(0.95389 0.0145404 2.63995e-10)
(0.947271 -0.0144876 7.66841e-10)
(0.95692 -0.0472567 1.41988e-09)
(0.986555 -0.0777955 1.98989e-09)
(1.03358 -0.0969948 2.36925e-09)
(1.08842 -0.0965927 2.6118e-09)
(1.13843 -0.0737226 2.72054e-09)
(1.17225 -0.0331188 2.52979e-09)
(1.18226 0.0140416 1.92571e-09)
(1.16667 0.0546197 1.10086e-09)
(1.13096 0.079603 3.99296e-10)
(1.08542 0.0873724 1.00868e-11)
(1.03988 0.0820113 -1.03356e-10)
(1 0.0688315 -5.01873e-11)
(0.967886 0.0504857 1.22837e-10)
(0.945979 0.0260152 4.0862e-10)
(0.939733 -0.00643611 7.44635e-10)
(0.9552 -0.0449891 1.01231e-09)
(0.993469 -0.0819329 1.13792e-09)
(1.04817 -0.106749 1.14365e-09)
(1.10791 -0.111576 1.10367e-09)
(1.16043 -0.0947739 1.09251e-09)
(1.19585 -0.0610111 1.15903e-09)
(1.20896 -0.0187704 1.28323e-09)
(1.19998 0.0227669 1.34504e-09)
(1.17361 0.0556986 1.20599e-09)
(1.13682 0.074461 8.53604e-10)
(1.097 0.0767482 4.27567e-10)
(1.06102 0.0637816 1.0703e-10)
(1.03504 0.0388049 -6.20568e-12)
(1.02507 0.00504036 7.80557e-11)
(1.03632 -0.0341155 2.74052e-10)
(1.07047 -0.0732312 4.83742e-10)
(1.1235 -0.104753 6.47455e-10)
(1.18673 -0.121507 7.54108e-10)
(1.24991 -0.119461 8.19867e-10)
(1.3038 -0.0988256 8.62685e-10)
(1.34132 -0.0636208 8.90592e-10)
(1.358 -0.0205898 9.05873e-10)
(1.35227 0.0222258 9.15785e-10)
(1.326 0.0572611 9.33826e-10)
(1.28459 0.0796258 9.66926e-10)
(1.23553 0.088518 9.95656e-10)
(1.18621 0.0865739 9.70024e-10)
(1.14212 0.0773716 8.40585e-10)
(1.10663 0.0631019 6.06358e-10)
(1.08173 0.0443742 3.32687e-10)
(1.06847 0.0218624 1.19817e-10)
(1.06677 -0.00228215 4.82732e-11)
(1.07519 -0.0245731 1.37277e-10)
(1.09137 -0.0414002 3.3988e-10)
(1.11249 -0.0500404 5.76706e-10)
(1.13544 -0.0489686 7.76387e-10)
(1.15678 -0.037957 8.91653e-10)
(1.17274 -0.0184393 8.96212e-10)
(1.17964 0.00609824 7.87245e-10)
(1.17502 0.0304974 5.95288e-10)
(1.15893 0.0494891 3.76881e-10)
(1.1343 0.0596726 1.88099e-10)
(1.1059 0.0605674 6.0397e-11)
(1.07852 0.0541833 -4.8138e-12)
(1.05555 0.0436471 -2.51183e-11)
(1.03853 0.0318589 -2.21837e-11)
(1.02751 0.020789 -1.2245e-11)
(1.02168 0.01143 -3.65064e-12)
(1.01991 0.00408847 1.27893e-12)
(1.02108 -0.00128049 3.27021e-12)
(1.02417 -0.00484189 3.81865e-12)
(1.02833 -0.00677245 4.04789e-12)
(1.0328 -0.00724301 4.4272e-12)
(1.03692 -0.00645023 4.93059e-12)
(1.04013 -0.00465684 5.32039e-12)
(1.04203 -0.00220625 5.37979e-12)
(1.04241 0.000503663 5.03028e-12)
(1.04128 0.00307904 4.34516e-12)
(1.03888 0.00519635 3.4865e-12)
(1.03557 0.00664946 2.62227e-12)
(1.03176 0.00736341 1.87412e-12)
(1.02788 0.00737833 1.3024e-12)
(1.02426 0.00681619 9.16829e-13)
(1.02114 0.00584349 6.96862e-13)
(1.01868 0.00463858 6.10223e-13)
(1.01691 0.00336695 6.24589e-13)
(1.01581 0.00216484 7.1239e-13)
(1.01528 0.00113062 8.51002e-13)
(1.01519 0.000322779 1.02102e-12)
(1.01541 -0.000236402 1.20475e-12)
(1.01581 -0.00055374 1.38583e-12)
(1.01626 -0.000656651 1.54945e-12)
(1.01667 -0.000585028 1.68325e-12)
(1.01698 -0.00038454 1.77845e-12)
(1.01713 -0.000101524 1.83075e-12)
(1.01711 0.000220577 1.84071e-12)
(1.01691 0.000543968 1.81348e-12)
(1.01654 0.000838116 1.75754e-12)
(1.01605 0.00108127 1.68305e-12)
(1.01545 0.00126007 1.60019e-12)
(1.01479 0.00137046 1.51797e-12)
(1.0141 0.00141428 1.44334e-12)
(1.01342 0.00140172 1.3809e-12)
(1.01276 0.00134248 1.33296e-12)
(1.01216 0.00125527 1.29979e-12)
(1.01159 0.00114744 1.28016e-12)
(1.01114 0.0010428 1.27175e-12)
(1.01063 0.000935635 1.27188e-12)
(1.01037 0.000860158 1.27651e-12)
(1.00979 0.000762059 1.28889e-12)
(1.00012 -0.00266537 2.66634e-18)
(1.00171 -0.00785222 8.84195e-18)
(1.00527 -0.0131952 9.51857e-18)
(1.0107 -0.0188943 3.36888e-18)
(1.01843 -0.0250773 4.57747e-17)
(1.02885 -0.0316095 -8.44122e-17)
(1.04241 -0.0380852 1.77199e-16)
(1.05922 -0.043448 -2.36939e-17)
(1.0787 -0.0465232 -5.05538e-16)
(1.09956 -0.0457502 1.37644e-15)
(1.11856 -0.0404443 2.85547e-15)
(1.13348 -0.0330407 -1.60885e-15)
(1.14424 -0.025013 -1.19097e-14)
(1.15146 -0.0178732 -2.06093e-14)
(1.15674 -0.0117535 -1.93662e-14)
(1.1612 -0.00515367 -9.69435e-15)
(1.16413 0.00428205 -7.58257e-16)
(1.16254 0.0178446 3.36059e-15)
(1.15307 0.0337249 3.10795e-15)
(1.13479 0.0480503 7.41354e-16)
(1.10965 0.057216 -2.33976e-15)
(1.08122 0.0591335 -1.28957e-15)
(1.0534 0.0531636 3.12371e-15)
(1.02989 0.0396052 -6.64663e-14)
(1.0141 0.0194003 7.5732e-14)
(1.00929 -0.00573444 1.51725e-12)
(1.01852 -0.0324032 -1.81174e-12)
(1.04294 -0.0544269 -2.68803e-11)
(1.07879 -0.0638348 -6.19009e-11)
(1.11611 -0.0550885 -6.47954e-11)
(1.1425 -0.0297257 -3.58689e-11)
(1.1497 0.00365808 -1.05262e-11)
(1.13735 0.0346737 -6.10267e-13)
(1.11109 0.0564908 7.0305e-13)
(1.07809 0.0671736 2.51501e-13)
(1.04395 0.0676621 1.93808e-12)
(1.01233 0.0593891 5.10249e-13)
(0.986001 0.0429684 -2.54378e-11)
(0.967994 0.0182236 -3.83059e-11)
(0.961671 -0.0144657 2.30148e-10)
(0.97027 -0.0519174 1.18628e-09)
(0.996892 -0.0864936 2.82194e-09)
(1.04249 -0.106771 4.48341e-09)
(1.10075 -0.101958 5.29434e-09)
(1.15578 -0.0694617 4.70755e-09)
(1.18837 -0.0192361 3.0384e-09)
(1.18804 0.0315748 1.31643e-09)
(1.15928 0.0690203 2.70613e-10)
(1.11545 0.0883012 -8.40685e-11)
(1.06903 0.0919799 -9.59762e-11)
(1.02689 0.0848298 -5.17871e-11)
(0.991125 0.0702949 -1.95006e-11)
(0.961673 0.0495244 1.27431e-10)
(0.939453 0.0216933 5.52321e-10)
(0.929498 -0.0145479 1.20395e-09)
(0.939994 -0.0573346 1.77982e-09)
(0.975089 -0.0981798 2.05189e-09)
(1.02931 -0.123998 2.10101e-09)
(1.08982 -0.123992 2.17728e-09)
(1.14255 -0.0953493 2.41143e-09)
(1.17678 -0.0444747 2.61202e-09)
(1.18652 0.0151641 2.39692e-09)
(1.17058 0.0674663 1.67137e-09)
(1.13364 0.100383 7.83993e-10)
(1.08551 0.110939 1.41206e-10)
(1.03654 0.104254 -1.18422e-10)
(0.993124 0.0876474 -6.85342e-11)
(0.958053 0.0645709 1.86852e-10)
(0.935023 0.0330866 5.49091e-10)
(0.930884 -0.00950808 8.84362e-10)
(0.951451 -0.0598256 1.07539e-09)
(0.995595 -0.10668 1.10854e-09)
(1.05467 -0.136482 1.05627e-09)
(1.11644 -0.140195 9.95358e-10)
(1.16902 -0.116767 9.71682e-10)
(1.20314 -0.0726443 1.01903e-09)
(1.21365 -0.0188376 1.14872e-09)
(1.2007 0.0328509 1.28196e-09)
(1.16961 0.0727006 1.2546e-09)
(1.1285 0.0945488 9.76081e-10)
(1.08554 0.0963085 5.47489e-10)
(1.04768 0.079573 1.83641e-10)
(1.02137 0.0476813 4.09119e-11)
(1.0134 0.00401687 1.24136e-10)
(1.02918 -0.0467327 3.26021e-10)
(1.06887 -0.0964559 5.29985e-10)
(1.126 -0.134896 6.79234e-10)