/*--------------------------------*- C++ -*----------------------------------*\
  =========                 |
  \\      /  F ield         | OpenFOAM: The Open Source CFD Toolbox
   \\    /   O peration     | Website:  https://openfoam.org
    \\  /    A nd           | Version:  11
     \\/     M anipulation  |
\*---------------------------------------------------------------------------*/
FoamFile
{
    format      ascii;
    class       surfaceScalarField;
    location    "12.396162";
    object      phi_0;
}
// * * * * * * * * * * * * * * * * * * * * * * * * * * * * * * * * * * * * * //

dimensions      [0 3 -1 0 0 0 0];

internalField   nonuniform List<scalar> 
14638
(
0.00250272
-2.7165e-06
0.00251089
-8.17801e-06
0.00252462
-1.37285e-05
0.00254389
-1.92655e-05
0.00256849
-2.46046e-05
0.00259787
-2.93739e-05
0.00263089
-3.3028e-05
0.00266565
-3.47578e-05
0.00269938
-3.37273e-05
0.00272878
-2.94039e-05
0.00275053
-2.17476e-05
0.00276311
-1.25742e-05
0.00276683
-3.72734e-06
0.00276397
2.86612e-06
0.00275849
5.47807e-06
0.00275464
3.85211e-06
0.00275526
-6.19718e-07
0.00276056
-5.30698e-06
0.00276759
-7.03044e-06
0.00277091
-3.31612e-06
0.00276481
6.10235e-06
0.00274586
1.89442e-05
0.00271422
3.16474e-05
0.0026732
4.10134e-05
0.00262819
4.50166e-05
0.00258541
4.27722e-05
0.00255121
3.4203e-05
0.00253138
1.98357e-05
0.00253044
9.31715e-07
0.00255052
-2.00719e-05
0.00258955
-3.90319e-05
0.00264006
-5.05107e-05
0.00268994
-4.98791e-05
0.00272609
-3.61569e-05
0.00273928
-1.31848e-05
0.00272702
1.2261e-05
0.00269323
3.37923e-05
0.00264557
4.7657e-05
0.0025928
5.27645e-05
0.00254332
4.94872e-05
0.00250479
3.85262e-05
0.00248427
2.05177e-05
0.00248775
-3.47982e-06
0.00251855
-3.07946e-05
0.0025746
-5.60485e-05
0.00264638
-7.17873e-05
0.00271791
-7.15313e-05
0.00277154
-5.36263e-05
0.00279443
-2.28909e-05
0.00278286
1.15694e-05
0.00274211
4.07496e-05
0.00268283
5.92859e-05
0.00261676
6.60623e-05
0.00255426
6.25004e-05
0.00250382
5.0443e-05
0.00247281
3.10128e-05
0.00246788
4.92711e-06
0.00249388
-2.60009e-05
0.0025511
-5.72182e-05
0.00263243
-8.13277e-05
0.00272279
-9.03574e-05
0.00280229
-7.95037e-05
0.00285237
-5.00856e-05
0.00286205
-9.67369e-06
0.00283114
3.09104e-05
0.00276911
6.20298e-05
0.00269043
7.86776e-05
0.00260946
8.09692e-05
0.00253745
7.20146e-05
0.0024824
5.50484e-05
0.00245064
3.17584e-05
0.00244786
2.77505e-06
0.00247807
-3.02049e-05
0.00254066
-6.25897e-05
0.00262789
-8.72294e-05
0.0027249
-9.70124e-05
0.00281294
-8.80393e-05
0.00287434
-6.13995e-05
0.00289717
-2.28333e-05
0.00287809
1.9086e-05
0.00282274
5.53503e-05
0.00274371
7.90284e-05
0.00265658
8.71305e-05
0.00257573
8.08514e-05
0.00251209
6.36334e-05
0.00247365
3.84443e-05
0.00246671
6.93808e-06
0.00249536
-2.8647e-05
0.00255867
-6.33152e-05
0.00264838
-8.97088e-05
0.00274947
-0.000101091
0.00284404
-9.4564e-05
0.00291637
-7.23371e-05
0.00295699
-4.06164e-05
0.00296408
-7.08556e-06
0.0029425
2.15796e-05
0.00290138
4.11211e-05
0.0028517
4.96742e-05
0.00280477
4.69345e-05
0.00277124
3.35316e-05
0.00276022
1.10165e-05
0.00277798
-1.77583e-05
0.00282636
-4.83863e-05
0.00290162
-7.52526e-05
0.00299423
-9.26137e-05
0.00309037
-9.61445e-05
0.00317464
-8.42671e-05
0.00323332
-5.86787e-05
0.00325727
-2.39452e-05
0.00324364
1.36266e-05
0.00319621
4.74297e-05
0.00312413
7.20747e-05
0.00303958
8.45572e-05
0.00295483
8.47452e-05
0.00287978
7.50474e-05
0.00282049
5.92894e-05
0.00277933
4.11611e-05
0.00275632
2.30178e-05
0.00275058
5.74027e-06
0.00276099
-1.04171e-05
0.0027858
-2.48088e-05
0.00282178
-3.59831e-05
0.00286379
-4.20041e-05
0.00290495
-4.11642e-05
0.00293762
-3.26632e-05
0.00295467
-1.70494e-05
0.00295104
3.624e-06
0.00292508
2.59598e-05
0.00287924
4.58388e-05
0.00281973
5.95093e-05
0.00275497
6.47678e-05
0.00269334
6.16298e-05
0.00264124
5.20962e-05
0.00260206
3.91754e-05
0.00257631
2.57516e-05
0.00256246
1.38578e-05
0.00255794
4.51746e-06
0.00255997
-2.02788e-06
0.00256595
-5.98166e-06
0.00257367
-7.72634e-06
0.00258135
-7.68009e-06
0.00258761
-6.25503e-06
0.00259147
-3.86613e-06
0.00259242
-9.43086e-07
0.00259033
2.08308e-06
0.00258551
4.81994e-06
0.00257855
6.9632e-06
0.00257022
8.33101e-06
0.00256135
8.87327e-06
0.00255269
8.65353e-06
0.00254488
7.81881e-06
0.00253832
6.55834e-06
0.00253324
5.07696e-06
0.00252968
3.5563e-06
0.00252753
2.15662e-06
0.00252655
9.73575e-07
0.00252647
8.74577e-08
0.00252697
-5.08392e-07
0.00252778
-8.08098e-07
-8.06509e-07
0.0025027
-5.42136e-06
0.00251086
-1.63284e-05
0.00252456
-2.74334e-05
0.00254385
-3.85512e-05
0.00256857
-4.93239e-05
0.00259821
-5.90149e-05
0.00263171
-6.6528e-05
0.00266714
-7.01923e-05
0.00270168
-6.8267e-05
0.00273184
-5.95592e-05
0.00275399
-4.39048e-05
0.00276653
-2.51109e-05
0.00276975
-6.94589e-06
0.00276601
6.6086e-06
0.00275958
1.19019e-05
0.00275508
8.35558e-06
0.00275564
-1.17722e-06
0.00276158
-1.12543e-05
0.00276978
-1.52305e-05
0.00277434
-7.87477e-06
0.00276904
1.14083e-05
0.00275014
3.78362e-05
0.00271782
6.39695e-05
0.00267562
8.32173e-05
0.00262914
9.14975e-05
0.00258482
8.70868e-05
0.00254917
6.98585e-05
0.00252818
4.08218e-05
0.00252672
2.39035e-06
0.00254728
-4.06324e-05
0.00258805
-7.97977e-05
0.0026413
-0.000103758
0.00269413
-0.000102709
0.00273247
-7.44989e-05
0.00274645
-2.71622e-05
0.00273358
2.51248e-05
0.00269825
6.91278e-05
0.00264863
9.72697e-05
0.00259384
0.00010756
0.00254237
0.000100953
0.00250198
7.89164e-05
0.00247992
4.25825e-05
0.00248264
-6.20514e-06
0.00251411
-6.22615e-05
0.0025726
-0.000114541
0.00264819
-0.000147378
0.00272372
-0.000147058
0.0027802
-0.000110106
0.00280401
-4.66993e-05
0.00279146
2.41163e-05
0.00274851
8.37032e-05
0.0026866
0.00012119
0.00261805
0.00013462
0.00255332
0.000127222
0.00250086
0.000102908
0.00246797
6.39006e-05
0.00246149
1.1409e-05
0.0024867
-5.12078e-05
0.00254443
-0.000114957
0.00262796
-0.000164852
0.002722
-0.000184394
0.00280575
-0.000163258
0.00285932
-0.000103655
0.00287061
-2.0969e-05
0.00283917
6.2357e-05
0.00277499
0.000126202
0.00269352
0.000160152
0.00260986
0.00016463
0.00253549
0.000146387
0.00247822
0.000112316
0.00244421
6.57654e-05
0.00243944
7.5474e-06
0.00246861
-5.93785e-05
0.00253176
-0.000125731
0.00262106
-0.000176535
0.00272091
-0.00019686
0.00281161
-0.000178743
0.00287497
-0.000124755
0.00289897
-4.68375e-05
0.00288036
3.77001e-05
0.00282482
0.000110885
0.00274498
0.000158874
0.00265647
0.000175634
0.00257385
0.000163479
0.00250831
0.000129173
0.00246837
7.83849e-05
0.00246119
1.4111e-05
0.00249165
-5.91028e-05
0.00255887
-0.000130534
0.00265361
-0.00018445
0.0027593
-0.000206778
0.0028566
-0.000191864
0.00292908
-0.000144826
0.00296741
-7.89457e-05
0.0029706
-1.02738e-05
0.00294462
4.75661e-05
0.00289955
8.61855e-05
0.00284698
0.000102244
0.00279835
9.55681e-05
0.00276424
6.7637e-05
0.0027538
2.14565e-05
0.00277354
-3.74968e-05
0.00282556
-0.000100405
0.00290594
-0.000155628
0.00300442
-0.000191098
0.00310608
-0.000197805
0.00319447
-0.00017266
0.00325524
-0.000119451
0.00327912
-4.78217e-05
0.00326353
2.92144e-05
0.00321275
9.82162e-05
0.00313653
0.000148289
0.00304766
0.00017343
0.0029589
0.000173507
0.00288042
0.000153529
0.0028184
0.000121308
0.00277526
8.43021e-05
0.00275103
4.72419e-05
0.00274486
1.19115e-05
0.00275555
-2.11012e-05
0.00278111
-5.03783e-05
0.00281805
-7.29206e-05
0.00286092
-8.48697e-05
0.00290269
-8.29366e-05
0.00293571
-6.56875e-05
0.00295299
-3.43275e-05
0.00294958
7.03903e-06
0.00292384
5.16967e-05
0.0028782
9.14819e-05
0.0028188
0.000118912
0.00275402
0.000129547
0.00269228
0.000123362
0.00264007
0.000104312
0.00260085
7.83967e-05
0.00257519
5.14051e-05
0.00256161
2.74469e-05
0.00255751
8.6174e-06
0.00256004
-4.56618e-06
0.00256656
-1.24987e-05
0.00257479
-1.59518e-05
0.00258288
-1.57779e-05
0.00258945
-1.28184e-05
0.0025935
-7.91838e-06
0.00259451
-1.95016e-06
0.00259238
4.21193e-06
0.00258743
9.77227e-06
0.00258027
1.4115e-05
0.00257173
1.68743e-05
0.00256265
1.79529e-05
0.00255382
1.74845e-05
0.00254587
1.57715e-05
0.00253923
1.32003e-05
0.00253411
1.01882e-05
0.00253057
7.10365e-06
0.00252845
4.27142e-06
0.00252754
1.88376e-06
0.00252753
1.0173e-07
0.00252811
-1.08967e-06
0.00252899
-1.68556e-06
-1.65813e-06
0.00250268
-8.10204e-06
0.00251077
-2.44153e-05
0.00252442
-4.10811e-05
0.00254372
-5.78595e-05
0.00256865
-7.42498e-05
0.0025988
-8.91673e-05
0.00263323
-0.000100959
0.00267003
-0.000106987
0.00270623
-0.000104469
0.00273794
-9.12698e-05
0.00276096
-6.69234e-05
0.00277345
-3.7601e-05
0.00277566
-9.15839e-06
0.00277017
1.21052e-05
0.00276186
2.02064e-05
0.0027561
1.41145e-05
0.00275662
-1.69415e-06
0.00276395
-1.85815e-05
0.00277456
-2.58439e-05
0.00278159
-1.49026e-05
0.00277772
1.52749e-05
0.00275866
5.68929e-05
0.00272469
9.79422e-05
0.00267987
0.000128043
0.00263034
0.000141027
0.00258296
0.000134461
0.00254457
0.000108253
0.00252157
6.3824e-05
0.00251942
4.53969e-06
0.00254135
-6.25667e-05
0.00258597
-0.000124417
0.00264499
-0.000162782
0.00270383
-0.000161547
0.00274633
-0.000117002
0.00276136
-4.21921e-05
0.00274659
3.98997e-05
0.00270751
0.000108207
0.00265355
0.000151233
0.00259453
0.000166572
0.00253923
0.000156261
0.00249545
0.000122689
0.00247081
6.72217e-05
0.00247264
-8.0285e-06
0.00250602
-9.56412e-05
0.00256985
-0.000178376
0.00265342
-0.000230949
0.0027372
-0.000230834
0.0027993
-0.000172202
0.00282432
-7.17253e-05
0.00280882
3.96191e-05
0.00276043
0.000132089
0.00269257
0.000189056
0.00261873
0.000208452
0.0025497
0.000196253
0.00249358
0.000159031
0.0024573
0.000100183
0.00244769
2.10182e-05
0.00247076
-7.42785e-05
0.00252862
-0.000172822
0.00261552
-0.000251747
0.00271599
-0.00028486
0.0028077
-0.000254968
0.00286837
-0.000164329
0.00288363
-3.62303e-05
0.00285197
9.40199e-05
0.00278412
0.000194046
0.00269736
0.000246915
0.00260849
0.000253503
0.00252964
0.000225233
0.00246843
0.00017353
0.00243091
0.000103286
0.00242392
1.45328e-05
0.00245367
-8.91273e-05
0.00252087
-0.000192932
0.00261662
-0.000272285
0.00272292
-0.000303154
0.00281791
-0.000273733
0.00288262
-0.000189468
0.0029057
-6.99219e-05
0.00288503
5.83762e-05
0.00282705
0.00016886
0.0027446
0.000241324
0.00265328
0.000266959
0.00256763
0.000249122
0.00249934
0.00019747
0.00245807
0.000119657
0.0024526
1.9576e-05
0.00248877
-9.52691e-05
0.00256492
-0.000206683
0.00266941
-0.000288947
0.00278291
-0.000320279
0.00288411
-0.000293057
0.00295579
-0.000216513
0.00298899
-0.000112143
0.00298402
-5.30382e-06
0.00294875
8.28395e-05
0.00289518
0.000139756
0.00283621
0.000161216
0.00278381
0.000147965
0.00274867
0.000102772
0.00274012
3.00053e-05
0.00276503
-6.23978e-05
0.00282541
-0.00016079
0.00291628
-0.000246493
0.00302542
-0.000300246
0.00313593
-0.00030831
0.00323004
-0.000266774
0.00329297
-0.000182379
0.0033156
-7.04517e-05
0.00329586
4.89531e-05
0.00323877
0.000155308
0.00315505
0.000232008
0.00305847
0.000270009
0.00296262
0.000269357
0.00287818
0.000237977
0.00281153
0.000187952
0.00276518
0.000130652
0.00273922
7.32091e-05
0.00273275
1.8376e-05
0.00274438
-3.27325e-05
0.00277167
-7.76647e-05
0.00281047
-0.000111718
0.00285478
-0.000129187
0.00289734
-0.000125496
0.00293058
-9.89261e-05
0.00294781
-5.15521e-05
0.00294436
1.04833e-05
0.00291875
7.73073e-05
0.00287335
0.000136879
0.00281421
0.000178058
0.00274963
0.000194128
0.00268805
0.000184937
0.00263604
0.000156319
0.0025972
0.000117241
0.00257218
7.64258e-05
0.00255949
4.01316e-05
0.00255651
1.1602e-05
0.00256026
-8.31749e-06
0.00256796
-2.01987e-05
0.00257723
-2.52201e-05
0.00258615
-2.47014e-05
0.00259328
-1.99468e-05
0.00259762
-1.22611e-05
0.00259866
-2.98668e-06
0.00259634
6.53369e-06
0.00259103
1.50804e-05
0.00258343
2.17142e-05
0.00257442
2.58852e-05
0.00256491
2.74596e-05
0.00255574
2.66583e-05
0.00254755
2.39583e-05
0.00254079
1.99618e-05
0.00253566
1.53131e-05
0.00253219
1.05783e-05
0.00253021
6.25289e-06
0.00252947
2.62693e-06
0.00252963
-6.0031e-08
0.00253037
-1.83398e-06
0.0025314
-2.71032e-06
-2.59721e-06
0.00250264
-1.07417e-05
0.00251062
-3.23925e-05
0.00252415
-5.46182e-05
0.00254346
-7.71677e-05
0.00256866
-9.9447e-05
0.00259955
-0.000120056
0.00263537
-0.000136785
0.00267426
-0.000145872
0.00271307
-0.000143283
0.00274726
-0.000125453
0.00277165
-9.132e-05
0.00278411
-5.00533e-05
0.00278476
-9.81639e-06
0.0027765
2.03735e-05
0.00276518
3.15248e-05
0.00275736
2.19343e-05
0.00275773
-2.0686e-06
0.00276721
-2.80611e-05
0.00278167
-4.03069e-05
0.00279266
-2.58912e-05
0.0027911
1.68407e-05
0.00277176
7.62298e-05
0.00273515
0.000134551
0.0026862
0.000176996
0.00263194
0.000195288
0.00257987
0.00018653
0.00253729
0.000150833
0.00251117
8.99387e-05
0.0025079
7.81273e-06
0.00253191
-8.65729e-05
0.00258255
-0.000175058
0.00265072
-0.000230954
0.00271909
-0.000229922
0.00276813
-0.000166037
0.00278463
-5.8698e-05
0.00276657
5.79606e-05
0.00272138
0.000153404
0.0026605
0.000212104
0.00259499
0.000232091
0.0025339
0.000217346
0.00248511
0.000171481
0.00245655
9.57779e-05
0.00245647
-7.94342e-06
0.00249124
-0.000130417
0.00256101
-0.00024814
0.00265521
-0.000325154
0.00275201
-0.000327631
0.00282477
-0.000244966
0.00285383
-0.000100783
0.00283491
5.85435e-05
0.00277827
0.000188729
0.00270095
0.000266374
0.00261888
0.000290521
0.00254337
0.000271765
0.00248175
0.000220652
0.00243994
0.000141988
0.00242482
3.6136e-05
0.00244421
-9.36611e-05
0.00250268
-0.000231297
0.0025953
-0.000344366
0.00270494
-0.000394496
0.0028066
-0.000356628
0.0028758
-0.000233532
0.00289642
-5.68524e-05
0.00286563
0.00012481
0.0027942
0.000265476
0.00270107
0.000340045
0.00260521
0.000349363
0.00251999
0.000310456
0.00245326
0.000240262
0.00241169
0.000144852
0.00240395
2.22741e-05
0.00243804
-0.000123211
0.00251432
-0.000269216
0.00262105
-0.000379011
0.00273654
-0.000418645
0.00283631
-0.00037351
0.0029007
-0.000253857
0.00291956
-8.87791e-05
0.00289295
8.49891e-05
0.00282917
0.000232633
0.0027418
0.0003287
0.00264624
0.000362517
0.0025568
0.000338563
0.00248569
0.000268585
0.00244425
0.000161095
0.00244317
2.06558e-05
0.00248859
-0.000140694
0.00257673
-0.000294823
0.00269249
-0.000404705
0.00281366
-0.000441444
0.00291759
-0.000396992
0.00298702
-0.000285941
0.00301352
-0.000138642
0.00299847
9.74746e-06
0.00295146
0.000129848
0.00288665
0.000204569
0.00281878
0.000229079
0.00276097
0.000205774
0.00272455
0.000139194
0.00271943
3.51306e-05
0.00275268
-9.56509e-05
0.00282527
-0.000233375
0.00292957
-0.000350799
0.00305038
-0.000421057
0.0031688
-0.000426725
0.00326667
-0.000364648
0.00332986
-0.000245563
0.00335002
-9.06172e-05
0.00332558
7.33887e-05
0.00326194
0.000218955
0.00317037
0.000323577
0.00306546
0.000374913
0.00296168
0.000373136
0.00287037
0.000329287
0.00279833
0.000259997
0.00274827
0.000180711
0.00272044
0.00010104
0.00271396
2.48584e-05
0.0027271
-4.58753e-05
0.00275675
-0.000107312
0.00279789
-0.000152858
0.0028438
-0.000175101
0.0028869
-0.000168597
0.00291984
-0.000131869
0.00293651
-6.82145e-05
0.0029328
1.41908e-05
0.00290748
0.000102623
0.00286285
0.000181516
0.00280466
0.000236248
0.002741
0.000257789
0.00268024
0.000245696
0.00262903
0.000207529
0.00259112
0.000155152
0.0025673
0.000100244
0.00255613
5.13016e-05
0.0025549
1.28258e-05
0.00256051
-1.3929e-05
0.00257
-2.96847e-05
0.00258083
-3.6048e-05
0.00259098
-3.48503e-05
0.00259894
-2.79054e-05
0.00260369
-1.70196e-05
0.00260475
-4.04512e-06
0.00260212
9.16868e-06
0.00259625
2.09458e-05
0.00258796
3.00047e-05
0.00257824
3.56109e-05
0.00256809
3.76105e-05
0.0025584
3.63395e-05
0.00254988
3.24806e-05
0.00254296
2.688e-05
0.00253784
2.04325e-05
0.0025345
1.39177e-05
0.00253275
8.01128e-06
0.00253227
3.1015e-06
0.00253271
-4.9751e-07
0.0025337
-2.8288e-06
0.00253495
-3.95605e-06
-3.66387e-06
0.00250258
-1.33178e-05
0.00251038
-4.01968e-05
0.00252372
-6.7961e-05
0.00254297
-9.6411e-05
0.00256845
-0.000124931
0.00260026
-0.000151866
0.00263794
-0.000174463
0.0026797
-0.000187632
0.00272222
-0.000185808
0.00275996
-0.000163195
0.00278633
-0.000117687
0.00279873
-6.24478e-05
0.00279713
-8.2211e-06
0.00278481
3.26893e-05
0.00276909
4.72518e-05
0.00275826
3.27659e-05
0.00275843
-2.23831e-06
0.00277107
-4.07062e-05
0.00279122
-6.04541e-05
0.00280805
-4.27189e-05
0.00280982
1.50638e-05
0.00279002
9.60309e-05
0.00274959
0.000174984
0.0026948
0.000231784
0.00263397
0.000256114
0.00257544
0.000245061
0.00252705
0.000199226
0.00249646
0.000120527
0.00249135
1.29293e-05
0.00251808
-0.000113303
0.00257737
-0.000234354
0.00265889
-0.000312473
0.00274102
-0.000312052
0.00279918
-0.000224193
0.00281738
-7.6899e-05
0.00279425
8.1092e-05
0.00274016
0.000207496
0.00266956
0.000282697
0.00259514
0.000306512
0.00252632
0.000286165
0.00247077
0.000227031
0.00243624
0.000130314
0.00243102
-2.72475e-06
0.00246266
-0.000162055
0.00253421
-0.000319687
0.00263814
-0.000429088
0.00275209
-0.000441577
0.00284354
-0.000336422
0.00288461
-0.000141855
0.00286649
7.66647e-05
0.0028014
0.000253818
0.00271194
0.000355837
0.00261865
0.000383813
0.00253426
0.00035615
0.00246497
0.000289941
0.0024154
0.000191564
0.00239354
5.79989e-05
0.0024109
-0.000111021
0.0024748
-0.000295202
0.00257876
-0.000448328
0.00270091
-0.000516647
0.00281215
-0.000467865
0.00288681
-0.000308189
0.00290953
-7.95724e-05
0.00287791
0.00015643
0.00280255
0.000340833
0.00270292
0.000439675
0.00259939
0.000452897
0.00250662
0.00040322
0.00243355
0.000313331
0.00238867
0.000189729
0.0023831
2.78479e-05
0.00242566
-0.000165769
0.00251436
-0.000357916
0.00263336
-0.000498011
0.00275772
-0.000543006
0.00286142
-0.000477213
0.0029245
-0.000316938
0.00293757
-0.000101842
0.0029026
0.00011995
0.00283034
0.000304894
0.00273588
0.000423162
0.00263484
0.000463562
0.00254124
0.000432158
0.00246793
0.000341895
0.00242806
0.000200967
0.00243375
1.49677e-05
0.00249022
-0.000197171
0.00259038
-0.000394982
0.00271548
-0.000529807
0.00284128
-0.000567238
0.002945
-0.00050071
0.00301022
-0.000351167
0.00302938
-0.000157802
0.00300449
3.46373e-05
0.00294612
0.000188225
0.00287001
0.00028067
0.00279281
0.000306287
0.00272926
0.000269319
0.00269214
0.000176316
0.00269237
3.49031e-05
0.00273658
-0.000139868
0.00282296
-0.000319749
0.00293975
-0.000467591
0.00306861
-0.000549921
0.00318995
-0.000548061
0.00328693
-0.000461633
0.00334734
-0.000305971
0.00336415
-0.000107425
0.00333606
0.000101482
0.00326813
0.000286884
0.00317136
0.000420342
0.0030605
0.000485774
0.00295056
0.00048308
0.00285354
0.000426307
0.00277681
0.000336725
0.00272357
0.000233954
0.00269441
0.000130195
0.00268857
3.07035e-05
0.00270396
-6.12624e-05
0.00273663
-0.000139982
0.00278052
-0.000196753
0.00282805
-0.000222635
0.0028713
-0.00021184
0.00290321
-0.000163779
0.00291846
-8.34712e-05
0.00291388
1.87769e-05
0.00288875
0.00012775
0.00284535
0.000224916
0.00278902
0.000292575
0.00272736
0.000319449
0.00266846
0.000304605
0.00261892
0.000257065
0.00258266
0.00019141
0.00256066
0.000122245
0.00255157
6.03891e-05
0.00255266
1.17406e-05
0.00256066
-2.19251e-05
0.00257241
-4.1437e-05
0.00258521
-4.8852e-05
0.00259693
-4.65638e-05
0.00260597
-3.69455e-05
0.00261129
-2.23475e-05
0.00261242
-5.1749e-06
0.00260942
1.21685e-05
0.00260287
2.75039e-05
0.00259369
3.91756e-05
0.00258305
4.62578e-05
0.00257206
4.85958e-05
0.00256173
4.66763e-05
0.00255278
4.14301e-05
0.00254567
3.39874e-05
0.00254058
2.55259e-05
0.00253743
1.70605e-05
0.00253598
9.46011e-06
0.00253587
3.2114e-06
0.00253668
-1.30248e-06
0.002538
-4.15264e-06
0.00253953
-5.48633e-06
-4.89044e-06
0.00250248
-1.58001e-05
0.00251003
-4.77417e-05
0.00252305
-8.09855e-05
0.00254211
-0.000115466
0.00256782
-0.000150644
0.00260067
-0.000184715
0.00264064
-0.00021443
0.00268614
-0.000233133
0.0027337
-0.000233372
0.00277636
-0.000205856
0.00280547
-0.000146796
0.0028179
-7.48734e-05
0.00281331
-3.63267e-06
0.00279541
5.05904e-05
0.00277346
6.91944e-05
0.00275823
4.79956e-05
0.00275786
-1.86348e-06
0.00277476
-5.76061e-05
0.00280286
-8.85496e-05
0.00282795
-6.7811e-05
0.00283448
8.53182e-06
0.00281409
0.000116419
0.00276847
0.000220604
0.00270589
0.00029437
0.00263643
0.000325573
0.00256947
0.000312018
0.00251341
0.000255286
0.00247664
0.000157294
0.00246865
2.09255e-05
0.00249892
-0.000143582
0.00257053
-0.000305964
0.00267119
-0.000413134
0.00277253
-0.000413386
0.00284249
-0.000294155
0.00286176
-9.61654e-05
0.00283069
0.000112161
0.00276411
0.000274075
0.00268057
0.000366236
0.00259478
0.000392299
0.00251638
0.00036457
0.00245212
0.000291291
0.00240816
0.000174268
0.00239202
1.34203e-05
0.00241405
-0.000184082
0.00248329
-0.000388927
0.00259622
-0.000542018
0.00272928
-0.00057464
0.00284447
-0.000451616
0.00290553
-0.000202915
0.00289597
8.6227e-05
0.00282647
0.000323319
0.0027248
0.000457508
0.00261814
0.000490474
0.00252239
0.000451898
0.00244318
0.000369149
0.00238468
0.000250068
0.00235785
8.48307e-05
0.00237855
-0.000131726
0.00245446
-0.000371114
0.00257423
-0.000568096
0.00270997
-0.000652387
0.00282897
-0.00058686
0.00290511
-0.000384334
0.00292499
-9.94546e-05
0.00288857
0.000192856
0.00280745
0.000421955
0.00270107
0.000546049
0.00258995
0.000564017
0.00248954
0.000503635
0.0024105
0.000392365
0.00236413
0.000236098
0.00236365
2.83349e-05
0.0024168
-0.000218924
0.00251758
-0.000458699
0.00264623
-0.000626653
0.00277618
-0.000672963
0.00288171
-0.000582736
0.0029433
-0.000378527
0.00295157
-0.000110113
0.00290903
0.000162489
0.00282811
0.000385814
0.00272581
0.000525458
0.00261868
0.000570691
0.00252103
0.000529816
0.00244654
0.00041638
0.00240992
0.000237584
0.00242372
1.16641e-06
0.00249098
-0.000264429
0.00260078
-0.000504782
0.00273137
-0.000660396
0.00285762
-0.000693483
0.00295764
-0.000600735
0.00301656
-0.000410086
0.00302795
-0.000169191
0.00299429
6.82961e-05
0.00292645
0.000256067
0.00284095
0.000366167
0.00275585
0.000391391
0.00268784
0.000337329
0.00265174
0.00021241
0.00265949
2.71601e-05
0.00271587
-0.00019625
0.00281439
-0.000418271
0.00293865
-0.000591851
0.00306853
-0.000679805
0.00318589
-0.00066542
0.00327684
-0.00055258
0.00333176
-0.00036089
0.00334497
-0.000120631
0.00331515
0.000131301
0.00324646
0.000355569
0.00314883
0.000517975
0.00303634
0.000598264
0.00292398
0.000595436
0.00282418
0.000526109
0.00274493
0.000415976
0.00269013
0.000288752
0.00266102
0.00015931
0.00265705
3.46664e-05
0.00267576
-7.99665e-05
0.00271215
-0.000176378
0.00275898
-0.000243585
0.00280785
-0.000271499
0.00285066
-0.000254649
0.00288082
-0.000193947
0.00289391
-9.65612e-05
0.00288777
2.49256e-05
0.00286247
0.000153048
0.00282049
0.000266893
0.00276678
0.000346288
0.00270824
0.000377986
0.0026524
0.000360451
0.00260562
0.000303838
0.00257189
0.000225141
0.00255238
0.000141757
0.00254588
6.68841e-05
0.00254966
7.96079e-06
0.00256033
-3.25897e-05
0.00257456
-5.56651e-05
0.00258951
-6.38085e-05
0.00260297
-6.00267e-05
0.00261331
-4.72775e-05
0.00261942
-2.84641e-05
0.00262081
-6.56521e-06
0.00261757
1.5413e-05
0.00261035
3.47231e-05
0.00260025
4.92759e-05
0.00258858
5.79276e-05
0.00257664
6.05336e-05
0.00256555
5.77715e-05
0.0025561
5.08727e-05
0.00254879
4.13038e-05
0.00254375
3.05688e-05
0.00254086
1.99485e-05
0.0025398
1.05222e-05
0.00254013
2.87504e-06
0.00254138
-2.54779e-06
0.00254309
-5.86346e-06
0.00254494
-7.3421e-06
-6.29388e-06
0.00250235
-1.81494e-05
0.00250952
-5.49124e-05
0.00252205
-9.35154e-05
0.00254072
-0.000134132
0.0025665
-0.000176431
0.00260041
-0.000218628
0.00264306
-0.000257077
0.00269325
-0.000283323
0.00274749
-0.000287608
0.00279677
-0.000255141
0.00282952
-0.00017954
0.00284198
-8.73326e-05
0.00283337
4.97632e-06
0.00280787
7.60892e-05
0.00277744
9.96291e-05
0.00275618
6.92526e-05
0.00275503
-7.18809e-07
0.00277778
-8.03519e-05
0.00281691
-0.000127678
0.00285346
-0.000104363
0.00286643
-4.44302e-06
0.00284505
0.000137806
0.00279234
0.000273309
0.00271955
0.000367165
0.00263914
0.000405977
0.00256165
0.000389509
0.00249584
0.000321098
0.00245082
0.000202319
0.00243842
3.3325e-05
0.00247193
-0.0001771
0.0025574
-0.000391427
0.00268192
-0.000537652
0.00281008
-0.000541548
0.0028982
-0.000382273
0.00291975
-0.000117717
0.00287745
0.000154457
0.00279364
0.000357888
0.00269322
0.000466654
0.00259355
0.000491972
0.00250385
0.000454267
0.00242844
0.000366699
0.00237056
0.000232149
0.00233876
4.52188e-05
0.00235098
-0.000196303
0.00242337
-0.000461314
0.00255088
-0.00066953
0.00270309
-0.000726853
0.00283758
-0.000586103
0.00291593
-0.000281263
0.00291729
8.48667e-05
0.00284794
0.000392664
0.00273681
0.000568639
0.00261667
0.000610611
0.00250782
0.000560747
0.00241715
0.00045982
0.00235047
0.000316753
0.00232279
0.000112506
0.00235226
-0.000161194
0.00244297
-0.000461824
0.00257718
-0.000702305
0.00272304
-0.000798241
0.00284701
-0.000710835
0.00292321
-0.000460535
0.00293892
-0.000115162
0.00289588
0.000235898
0.00280762
0.000510208
0.00269425
0.000659419
0.00257604
0.000682234
0.00246879
0.000610883
0.00238522
0.000475931
0.00233951
0.000281811
0.00234578
2.20671e-05
0.00240902
-0.00028217
0.00251882
-0.000568495
0.00265266
-0.000760496
0.00278404
-0.00080434
0.00288876
-0.000687452
0.00294852
-0.000438293
0.00295381
-0.000115405
0.00290643
0.000209871
0.00281907
0.000473178
0.00271009
0.000634439
0.0025974
0.000683373
0.00249635
0.000630869
0.00242187
0.000490859
0.00238974
0.000269719
0.00241177
-2.08706e-05
0.00248794
-0.000340597
0.00260372
-0.000620562
0.00273541
-0.00079208
0.00285807
-0.000816144
0.00295136
-0.000694031
0.0030022
-0.000460923
0.00300544
-0.00017243
0.00296405
0.000109682
0.00288889
0.000331233
0.0027966
0.000458457
0.00270615
0.000481843
0.00263619
0.000407285
0.00260373
0.000244864
0.0026208
1.0094e-05
0.00268838
-0.000263831
0.00279417
-0.000524055
0.00291821
-0.000715899
0.00304118
-0.000802771
0.00314842
-0.000772661
0.00322969
-0.000633847
0.0032777
-0.000408903
0.00328768
-0.00013061
0.00325807
0.000160917
0.00319194
0.00042169
0.0030978
0.000612117
0.00298849
0.000707574
0.00287833
0.000705594
0.00277972
0.000624728
0.00270113
0.000494558
0.00264735
0.000342535
0.00262044
0.000186218
0.00262015
3.49607e-05
0.00264331
-0.000103127
0.00268362
-0.000216692
0.00273269
-0.000292651
0.00278176
-0.000320572
0.00282319
-0.000296072
0.00285113
-0.000221895
0.00286195
-0.000107376
0.00285424
3.26352e-05
0.00282881
0.000178481
0.00278848
0.000307214
0.002738
0.000396774
0.00268357
0.000432411
0.00263197
0.000412054
0.0025891
0.000346704
0.00255885
0.000255398
0.00254249
0.000158108
0.00253897
7.04122e-05
0.00254552
1.40976e-06
0.00255867
-4.57468e-05
0.00257506
-7.20553e-05
0.00259189
-8.06341e-05
0.002607
-7.51403e-05
0.00261879
-5.90606e-05
0.00262608
-3.57532e-05
0.00262823
-8.71407e-06
0.00262522
1.84166e-05
0.00261772
4.22218e-05
0.00260693
6.00647e-05
0.00259436
7.05067e-05
0.00258149
7.33969e-05
0.00256963
6.96382e-05
0.00255967
6.08247e-05
0.00255215
4.88269e-05
0.00254718
3.55341e-05
0.0025446
2.25353e-05
0.00254398
1.11434e-05
0.00254481
2.04299e-06
0.00254653
-4.26737e-06
0.00254864
-7.97911e-06
0.00255082
-9.522e-06
-7.86487e-06
0.00250217
-2.03156e-05
0.00250882
-6.15613e-05
0.00252061
-0.000105313
0.00253859
-0.000152109
0.00256416
-0.000202001
0.00259902
-0.000253485
0.00264465
-0.00030271
0.00270059
-0.000339259
0.00276358
-0.000350605
0.00282175
-0.000313307
0.0028594
-0.000217194
0.00287221
-0.000100146
0.00285853
1.86587e-05
0.00282286
0.000111762
0.00278077
0.000141722
0.00275091
9.91138e-05
0.00274811
2.07612e-06
0.00277839
-0.000110633
0.00283252
-0.000181809
0.00288487
-0.000156715
0.00290673
-2.62975e-05
0.00288404
0.000160495
0.00282199
0.000335353
0.00273611
0.000453051
0.00264208
0.000500005
0.00255168
0.00047991
0.0024738
0.000398983
0.00241819
0.000257923
0.00239812
5.34004e-05
0.00242765
-0.000206636
0.00251592
-0.000479698
0.00265809
-0.000679819
0.00282086
-0.00070432
0.00294517
-0.000506577
0.00298365
-0.000156195
0.00293398
0.000204124
0.00282945
0.000462418
0.0027075
0.000588607
0.00259105
0.000608421
0.00248827
0.000557048
0.00239898
0.000455984
0.0023241
0.000307029
0.00227836
9.09578e-05
0.00229042
-0.000208361
0.00237811
-0.000549003
0.00252655
-0.000817968
0.00269533
-0.000895634
0.00283968
-0.000730453
0.00292445
-0.000366034
0.00293064
7.86773e-05
0.00286175
0.000461555
0.00274418
0.000686205
0.00261246
0.000742339
0.0024905
0.000682702
0.00238841
0.000561909
0.00231587
0.0003893
0.00229141
0.000136965
0.00233188
-0.000201668
0.00243515
-0.000565095
0.00257808
-0.000845234
0.00272797
-0.000948129
0.00285326
-0.000836133
0.00292934
-0.000536611
0.0029429
-0.000128725
0.00289528
0.000283516
0.00280107
0.000604426
0.00268152
0.000778971
0.00255723
0.000806521
0.00244463
0.000723485
0.0023585
0.000562053
0.00231525
0.000325067
0.00232846
8.85354e-06
0.00239953
-0.000353236
0.00251429
-0.000683256
0.00264896
-0.000895171
0.00277815
-0.000933524
0.00287971
-0.000789015
0.00293694
-0.000495528
0.00294048
-0.000118945
0.00289104
0.000259314
0.0028004
0.000563819
0.00268723
0.000747611
0.00257064
0.000799964
0.00246748
0.000734028
0.00239423
0.000564107
0.00236721
0.000296739
0.00239655
-5.0208e-05
0.00247876
-0.000422809
0.00259643
-0.000738228
0.00272506
-0.000920712
0.0028408
-0.000931882
0.00292513
-0.000778361
0.00296671
-0.000502503
0.00296162
-0.000167347
0.00291338
0.000157925
0.00283276
0.000411859
0.00273623
0.000554987
0.00264336
0.000574712
0.00257464
0.000476003
0.00254865
0.00027085
0.00257568
-1.69352e-05
0.00265107
-0.000339218
0.00275708
-0.000630071
0.0028729
-0.000831718
0.00298261
-0.000912479
0.00307611
-0.000866157
0.00314631
-0.000704049
0.00318732
-0.000449915
0.00319466
-0.000137953
0.00316651
0.000189066
0.00310518
0.000483027
0.00301785
0.000699449
0.00291588
0.00080954
0.00281237
0.000809101
0.00271914
0.000717965
0.00264491
0.00056878
0.00259535
0.000392098
0.00257336
0.000208206
0.00257862
2.97066e-05
0.00260676
-0.000131266
0.00265001
-0.000259947
0.00269939
-0.000342034
0.00274678
-0.000367953
0.0027857
-0.000334996
0.00281136
-0.000247553
0.00282061
-0.000116632
0.00281234
4.0906e-05
0.00278766
0.000203162
0.00274971
0.000345168
0.00270316
0.000443318
0.00265373
0.000481844
0.00260741
0.000458372
0.00256951
0.000384608
0.00254361
0.000281299
0.00253096
0.000170762
0.00253044
7.0927e-05
0.00253925
-7.40301e-06
0.00255392
-6.04178e-05
0.0025713
-8.94318e-05
0.002589
-9.83314e-05
0.00260527
-9.14109e-05
0.00261866
-7.24468e-05