/*--------------------------------*- C++ -*----------------------------------*\
  =========                 |
  \\      /  F ield         | OpenFOAM: The Open Source CFD Toolbox
   \\    /   O peration     | Website:  https://openfoam.org
    \\  /    A nd           | Version:  11
     \\/     M anipulation  |
\*---------------------------------------------------------------------------*/
FoamFile
{
    format      ascii;
    class       volVectorField;
    location    "12.396162";
    object      U;
}
// * * * * * * * * * * * * * * * * * * * * * * * * * * * * * * * * * * * * * //

dimensions      [0 1 -1 0 0 0 0];

internalField   nonuniform List<vector> 
7132
(
(1.00013 -0.000271851 2.44311e-18)
(1.00211 -0.000818432 7.92463e-18)
(1.00656 -0.00137401 8.16389e-18)
(1.01316 -0.00192766 1.00081e-17)
(1.02197 -0.00246043 1.34998e-17)
(1.03286 -0.00293469 1.45318e-17)
(1.04549 -0.00329572 1.46074e-17)
(1.0593 -0.00346356 1.46458e-17)
(1.07331 -0.00335601 1.47241e-17)
(1.0863 -0.00292236 1.46557e-17)
(1.09682 -0.00216059 1.42276e-17)
(1.10373 -0.00124792 1.36994e-17)
(1.10682 -0.00036638 1.28545e-17)
(1.1066 0.000294349 1.2107e-17)
(1.10437 0.00056375 6.85377e-18)
(1.10197 0.000413846 1.63583e-18)
(1.10102 -2.28234e-05 -2.97022e-18)
(1.10225 -0.000489828 -4.05762e-18)
(1.10518 -0.000674019 -6.5411e-18)
(1.10799 -0.000328077 -7.59126e-18)
(1.10817 0.000582728 -6.56579e-18)
(1.10362 0.00184297 -5.45033e-18)
(1.09358 0.00310472 -4.3951e-18)
(1.07877 0.00404825 -2.8406e-18)
(1.06105 0.00446611 -2.99397e-18)
(1.04281 0.00426459 2.3078e-19)
(1.02664 0.00343279 7.16647e-18)
(1.01504 0.00202225 -3.8063e-17)
(1.01019 0.000158486 -1.77619e-16)
(1.0136 -0.00191854 2.29187e-16)
(1.02555 -0.00380488 3.00633e-15)
(1.04429 -0.00496964 7.93687e-15)
(1.06578 -0.00495337 1.04378e-14)
(1.08449 -0.00364352 7.97344e-15)
(1.09544 -0.00139935 3.74412e-15)
(1.09601 0.00111988 1.09782e-15)
(1.08655 0.00327707 2.51422e-16)
(1.06963 0.00468708 -7.25299e-16)
(1.04875 0.00522879 -3.59876e-15)
(1.02742 0.00493197 4.8283e-16)
(1.00887 0.00386554 3.69933e-14)
(0.996049 0.00209632 8.45356e-14)
(0.991675 -0.000266603 -1.16956e-13)
(0.99789 -0.00296079 -1.21505e-12)
(1.01534 -0.00546626 -3.73794e-12)
(1.04194 -0.00705922 -6.90151e-12)
(1.07243 -0.00709763 -8.63406e-12)
(1.09948 -0.00539524 -7.70783e-12)
(1.11627 -0.0023979 -5.05117e-12)
(1.11909 0.00101062 -2.42299e-12)
(1.10828 0.00393435 -7.13822e-13)
(1.0874 0.00582311 6.77996e-14)
(1.0613 0.00654552 2.32073e-13)
(1.03457 0.00622991 -2.97123e-14)
(1.01098 0.00505722 -5.38899e-13)
(0.993619 0.00314459 -1.55343e-13)
(0.985327 0.000570477 4.28748e-12)
(0.988633 -0.00248409 1.74446e-11)
(1.00498 -0.00557734 4.24886e-11)
(1.03335 -0.00798976 7.61909e-11)
(1.06935 -0.0089372 1.07129e-10)
(1.10559 -0.00793359 1.21704e-10)
(1.13367 -0.00508414 1.13591e-10)
(1.14701 -0.00111221 8.69978e-11)
(1.14303 0.0029206 5.27814e-11)
(1.12372 0.00605162 2.29498e-11)
(1.09433 0.00776498 4.26847e-12)
(1.0611 0.00804958 -3.7178e-12)
(1.02938 0.00719857 -4.71853e-12)
(1.00297 0.00553035 6.84482e-13)
(0.98459 0.00322111 1.79614e-11)
(0.976615 0.000344755 5.53483e-11)
(0.981243 -0.00292689 1.17373e-10)
(0.999572 -0.00614664 2.00123e-10)
(1.03022 -0.00861727 2.91012e-10)
(1.06864 -0.00963633 3.72551e-10)
(1.10772 -0.00880453 4.27368e-10)
(1.13967 -0.00620802 4.42474e-10)
(1.15807 -0.0023989 4.12504e-10)
(1.15952 0.00177651 3.41403e-10)
(1.14436 0.00541725 2.41994e-10)
(1.11643 0.00782174 1.36207e-10)
(1.08176 0.00867672 4.96349e-11)
(1.04675 0.00808797 1.28467e-12)
(1.01663 0.00639643 -2.53066e-12)
(0.995061 0.00390881 3.38468e-11)
(0.984848 0.00080263 1.00753e-10)
(0.988306 -0.0027013 1.86552e-10)
(1.00649 -0.00612827 2.78929e-10)
(1.0378 -0.00877408 3.6665e-10)
(1.07748 -0.00997859 4.418e-10)
(1.11849 -0.00943538 5.00746e-10)
(1.15359 -0.00732789 5.43001e-10)
(1.17734 -0.00423886 5.68746e-10)
(1.18732 -0.000917265 5.76125e-10)
(1.18421 0.0019658 5.59066e-10)
(1.171 0.00396943 5.08102e-10)
(1.15188 0.00489053 4.18189e-10)
(1.13142 0.00468483 2.98364e-10)
(1.1141 0.00340694 1.7347e-10)
(1.10399 0.00120987 7.3179e-11)
(1.10438 -0.00161975 1.6669e-11)
(1.11712 -0.00464425 5.81566e-12)
(1.14201 -0.0073134 2.98359e-11)
(1.17643 -0.00906655 7.41911e-11)
(1.2156 -0.00947708 1.26725e-10)
(1.25338 -0.00837877 1.79519e-10)
(1.28361 -0.00591969 2.28301e-10)
(1.3014 -0.00252978 2.71347e-10)
(1.30412 0.00117808 3.08689e-10)
(1.29187 0.00454707 3.41302e-10)
(1.2673 0.00703349 3.70953e-10)
(1.2349 0.00832587 3.99834e-10)
(1.19987 0.00839632 4.27878e-10)
(1.1669 0.00747206 4.4864e-10)
(1.13933 0.00592846 4.48788e-10)
(1.11884 0.00413587 4.14981e-10)
(1.10575 0.00233622 3.44021e-10)
(1.0998 0.000622684 2.47522e-10)
(1.10057 -0.000980018 1.47015e-10)
(1.10758 -0.00241323 6.37528e-11)
(1.11994 -0.00353834 1.05362e-11)
(1.13602 -0.00416386 -1.05626e-11)
(1.1534 -0.0041148 -5.67145e-12)
(1.16908 -0.00330236 1.50549e-11)
(1.17996 -0.00177166 4.0924e-11)
(1.1834 0.000278841 6.28163e-11)
(1.1779 0.00251227 7.4295e-11)
(1.16349 0.00451634 7.24568e-11)
(1.14191 0.00591176 5.86631e-11)
(1.11627 0.00647073 3.82176e-11)
(1.09014 0.0061864 1.81254e-11)
(1.06671 0.00525302 3.76233e-12)
(1.04802 0.00396997 -3.24615e-12)
(1.03485 0.00262779 -4.57858e-12)
(1.02693 0.00143321 -3.14529e-12)
(1.02337 0.000491445 -1.26041e-12)
(1.02302 -0.000171617 -1.6755e-15)
(1.0248 -0.000575545 5.05878e-13)
(1.02771 -0.000758259 5.44503e-13)
(1.03095 -0.000761307 4.16441e-13)
(1.03388 -0.00062558 2.96444e-13)
(1.03603 -0.000392211 2.36942e-13)
(1.03708 -0.00010383 2.23932e-13)
(1.03689 0.000196667 2.2612e-13)
(1.03552 0.000470049 2.20754e-13)
(1.03313 0.00068566 1.99814e-13)
(1.03001 0.00082489 1.66271e-13)
(1.02649 0.000882202 1.27845e-13)
(1.02291 0.000863434 9.21281e-14)
(1.01955 0.000782865 6.41264e-14)
(1.01662 0.000659132 4.58553e-14)
(1.01425 0.000512563 3.70583e-14)
(1.0125 0.000361297 3.62268e-14)
(1.01135 0.000221409 4.1435e-14)
(1.01074 0.000102631 5.08212e-14)
(1.01051 1.3139e-05 6.27348e-14)
(1.01067 -4.75622e-05 7.603e-14)
(1.01085 -7.84891e-05 8.82333e-14)
(1.01141 -8.00942e-05 1.06098e-13)
(1.00013 -0.000814199 3.73076e-20)
(1.0021 -0.00245263 3.76516e-19)
(1.00654 -0.00411991 7.51331e-19)
(1.01313 -0.00578568 1.19496e-18)
(1.02196 -0.0073939 1.78578e-18)
(1.03292 -0.00883218 2.43826e-18)
(1.0457 -0.00993565 3.00771e-18)
(1.05974 -0.010459 3.72865e-18)
(1.07406 -0.0101488 5.85836e-18)
(1.0874 -0.00884096 6.12051e-18)
(1.09817 -0.00652177 5.46273e-18)
(1.10516 -0.00374081 9.46822e-18)
(1.10815 -0.00105447 9.35649e-18)
(1.10763 0.000952729 8.87686e-18)
(1.10499 0.00175095 7.28219e-18)
(1.10223 0.00125231 4.3045e-18)
(1.1011 -0.000130294 1.28832e-18)
(1.10244 -0.00160627 3.92909e-19)
(1.10575 -0.00221155 2.21527e-18)
(1.10911 -0.00117876 5.18272e-18)
(1.10976 0.00160286 6.79847e-18)
(1.10541 0.00546445 6.63528e-18)
(1.09524 0.00933021 5.61082e-18)
(1.08004 0.0122222 2.58964e-18)
(1.06176 0.0135162 1.87783e-18)
(1.04291 0.0129357 2.21286e-17)
(1.02612 0.0104497 2.31167e-18)
(1.01397 0.00620624 -2.15882e-16)
(1.00873 0.000567883 -1.09629e-16)
(1.01208 -0.00575688 1.61064e-15)
(1.02444 -0.0115443 2.83981e-15)
(1.04412 -0.0151567 4.13469e-15)
(1.06684 -0.0151591 1.24715e-14)
(1.08669 -0.0111878 1.85068e-14)
(1.09829 -0.00434401 1.31947e-14)
(1.09889 0.00334252 5.78656e-15)
(1.08897 0.00991827 1.66246e-15)
(1.07131 0.0142133 -3.87137e-15)
(1.04961 0.0158737 -1.42114e-14)
(1.02747 0.0150047 1.00854e-14)
(1.00814 0.0118188 1.59835e-13)
(0.994597 0.00650338 3.01172e-13)
(0.989687 -0.000644191 -7.46028e-13)
(0.995795 -0.00885913 -5.796e-12)
(1.01383 -0.01656 -1.67285e-11)
(1.04174 -0.0215047 -3.00276e-11)
(1.07393 -0.0216892 -3.73328e-11)
(1.10249 -0.016525 -3.30989e-11)
(1.12012 -0.00738476 -2.10203e-11)
(1.12291 0.00301372 -9.65677e-12)
(1.1114 0.0119235 -2.72646e-12)
(1.08949 0.0176671 3.17782e-13)
(1.06233 0.0198621 8.88584e-13)
(1.03465 0.0189231 -2.61568e-13)
(1.01022 0.0154136 -2.25417e-12)
(0.992078 0.00968143 3.63991e-13)
(0.983061 0.00193228 2.31251e-11)
(0.985828 -0.00732624 9.00163e-11)
(1.00204 -0.0167724 2.16612e-10)
(1.0309 -0.0242062 3.84136e-10)
(1.0681 -0.0272035 5.33236e-10)
(1.10603 -0.0242402 5.94807e-10)
(1.13581 -0.0156153 5.38453e-10)
(1.1503 -0.00353563 3.95012e-10)
(1.14656 0.00875653 2.29507e-10)
(1.12666 0.01831 9.64118e-11)
(1.09619 0.0235369 1.83421e-11)
(1.06181 0.0244111 -1.24676e-11)
(1.02908 0.0218542 -1.54153e-11)
(1.00179 0.0168611 -7.77169e-13)
(0.982514 0.00996294 3.86124e-11)
(0.973629 0.0013418 1.18737e-10)
(0.977552 -0.00853487 2.4673e-10)
(0.995719 -0.0183348 4.08616e-10)
(1.02692 -0.0259247 5.74071e-10)
(1.0664 -0.0291344 7.11563e-10)
(1.10667 -0.0267262 7.96928e-10)
(1.13958 -0.0189572 8.1194e-10)
(1.15861 -0.00749822 7.45892e-10)
(1.16039 0.00510352 6.05413e-10)
(1.1453 0.0161356 4.18979e-10)
(1.11718 0.0234721 2.30372e-10)
(1.08207 0.0261483 8.26402e-11)
(1.04642 0.0244664 1.90475e-12)
(1.01552 0.0194434 -7.12772e-12)
(0.993201 0.0119837 4.57498e-11)
(0.982525 0.00258755 1.4417e-10)
(0.986203 -0.00810127 2.67918e-10)
(1.00553 -0.0186129 3.94178e-10)
(1.03876 -0.0267311 5.03043e-10)
(1.08054 -0.0303825 5.83944e-10)
(1.12317 -0.02863 6.36994e-10)
(1.15892 -0.0220873 6.68482e-10)
(1.18224 -0.0126014 6.83992e-10)
(1.1909 -0.0024921 6.82974e-10)
(1.18603 0.00620916 6.57279e-10)
(1.17105 0.0121956 5.94905e-10)
(1.15051 0.0148905 4.89316e-10)
(1.12911 0.0141981 3.50306e-10)
(1.11132 0.0103017 2.05833e-10)
(1.10118 0.00364788 8.98762e-11)
(1.10202 -0.00493859 2.53376e-11)
(1.11583 -0.0141624 1.5711e-11)
(1.14249 -0.0223445 4.90978e-11)
(1.1792 -0.0277394 1.07687e-10)
(1.22076 -0.0290068 1.75284e-10)
(1.26059 -0.0256259 2.40535e-10)
(1.29214 -0.018069 2.97029e-10)
(1.31036 -0.00768795 3.42118e-10)
(1.31267 0.00362912 3.75801e-10)
(1.29932 0.013891 4.00139e-10)
(1.27321 0.0214546 4.18934e-10)
(1.23907 0.0253807 4.3672e-10)
(1.20233 0.0255922 4.5545e-10)
(1.16784 0.0227848 4.69763e-10)
(1.13902 0.0180986 4.66092e-10)
(1.11756 0.0126544 4.29815e-10)
(1.10383 0.00718328 3.56432e-10)
(1.09753 0.00196836 2.57348e-10)
(1.09827 -0.00291082 1.554e-10)
(1.10551 -0.00726902 7.40793e-11)
(1.11823 -0.0106807 2.79981e-11)
(1.1347 -0.0125691 1.92145e-11)
(1.15239 -0.0124177 3.91672e-11)
(1.16826 -0.00997428 7.34925e-11)
(1.17924 -0.00538491 1.07198e-10)
(1.18277 0.00075752 1.28678e-10)
(1.17735 0.0074553 1.31733e-10)
(1.16303 0.0134808 1.16102e-10)
(1.14152 0.0176956 8.69864e-11)
(1.1159 0.0194081 5.31286e-11)
(1.08975 0.0185864 2.34837e-11)
(1.06626 0.0158043 3.72808e-12)
(1.04753 0.0119564 -5.359e-12)
(1.03437 0.00791665 -6.74772e-12)
(1.02652 0.00431145 -4.52351e-12)
(1.02309 0.00146367 -1.77354e-12)
(1.02294 -0.000543662 8.03586e-14)
(1.02493 -0.00176661 8.71228e-13)
(1.02805 -0.00231873 9.79577e-13)
(1.03148 -0.002326 8.2463e-13)
(1.03456 -0.00191279 6.58747e-13)
(1.03681 -0.00120395 5.64461e-13)
(1.03791 -0.00032859 5.2689e-13)
(1.03773 0.000583474 5.03525e-13)
(1.03632 0.00141336 4.64034e-13)
(1.03386 0.00206803 4.00272e-13)
(1.03066 0.00249098 3.20376e-13)
(1.02706 0.00266538 2.38655e-13)
(1.0234 0.00260899 1.67743e-13)
(1.01997 0.00236516 1.1499e-13)
(1.01699 0.00199048 8.23357e-14)
(1.0146 0.00154662 6.79844e-14)
(1.01285 0.00108859 6.83585e-14)
(1.0117 0.000665186 7.95305e-14)
(1.01112 0.000305811 9.79389e-14)
(1.01092 3.52972e-05 1.20531e-13)
(1.01111 -0.000147974 1.45097e-13)
(1.01131 -0.000241365 1.67428e-13)
(1.01191 -0.000244939 1.98503e-13)
(1.00013 -0.00135304 3.35137e-22)
(1.00208 -0.00407809 6.11212e-21)
(1.00649 -0.00685832 1.61138e-21)
(1.01307 -0.0096488 -1.72927e-21)
(1.02193 -0.0123604 -6.10649e-20)
(1.03302 -0.0148083 -2.24964e-20)
(1.04608 -0.016716 -4.04431e-19)
(1.06059 -0.0176572 -3.47564e-19)
(1.07553 -0.0171865 1.04275e-18)
(1.08957 -0.0149869 -9.60735e-19)
(1.10088 -0.0110073 -5.95475e-18)
(1.10804 -0.00622077 -4.76209e-18)
(1.11082 -0.00157922 3.04524e-18)
(1.10971 0.00190251 8.00829e-18)
(1.10626 0.00327373 4.09898e-18)
(1.10279 0.00236222 -8.35894e-19)
(1.10134 -0.000128058 1.48231e-17)
(1.10293 -0.00282303 6.38005e-17)
(1.10706 -0.00401778 1.16547e-16)
(1.11152 -0.00233426 1.31266e-16)
(1.11307 0.00243797 1.1098e-16)
(1.10903 0.00911422 7.52703e-17)
(1.09848 0.0157961 3.62001e-17)
(1.08238 0.0207857 1.10788e-18)
(1.06293 0.0230292 4.30834e-17)
(1.04282 0.0220804 4.28182e-17)
(1.02483 0.0178985 -8.81494e-16)
(1.01167 0.0107182 4.02321e-16)
(1.00579 0.00111003 1.54143e-14)
(1.00916 -0.00976835 -1.07682e-14)
(1.02252 -0.0198258 -2.95669e-13)
(1.0442 -0.0261783 -8.28691e-13)
(1.06949 -0.0262511 -1.06092e-12)
(1.0916 -0.0193691 -7.29317e-13)
(1.10437 -0.00748532 -2.71169e-13)
(1.10478 0.00580262 -3.4561e-14)
(1.09361 0.0170785 1.97443e-14)
(1.07424 0.0243663 -3.58618e-15)
(1.05077 0.0271438 -1.88632e-14)
(1.02701 0.0256613 1.12109e-13)
(1.00621 0.0202982 2.98288e-13)
(0.991409 0.0113232 -4.31802e-13)
(0.985659 -0.000856271 -2.75387e-12)
(0.991805 -0.0150194 -1.16767e-12)
(1.01121 -0.0284389 1.69363e-11)
(1.0419 -0.0371278 4.79293e-11)
(1.07763 -0.03749 6.25976e-11)
(1.10929 -0.0284846 4.64184e-11)
(1.12845 -0.0125822 1.93121e-11)
(1.13087 0.00539806 1.15185e-12)
(1.11751 0.0206601 -4.01589e-12)
(1.09315 0.0303593 -1.89122e-12)
(1.06365 0.0339559 1.47848e-13)
(1.03405 0.0322757 -2.30974e-12)
(1.00806 0.0263392 -6.59444e-12)
(0.988537 0.0167237 9.05596e-12)
(0.978181 0.0037051 9.49281e-11)
(0.979765 -0.0119551 3.08917e-10)
(0.995387 -0.0281021 6.60447e-10)
(1.02483 -0.041028 1.07704e-09)
(1.06402 -0.0465257 1.4339e-09)
(1.105 -0.04181 1.60417e-09)
(1.13807 -0.0272081 1.50671e-09)
(1.15502 -0.00645566 1.16576e-09)
(1.15214 0.0147684 7.19181e-10)
(1.13137 0.0312436 3.26247e-10)
(1.09894 0.0401786 7.7604e-11)
(1.06233 0.0415913 -2.87496e-11)
(1.02764 0.0371994 -4.33689e-11)
(0.998702 0.0288095 -4.73851e-12)
(0.977904 0.0173036 8.62166e-11)
(0.967711 0.00283747 2.44215e-10)
(0.971109 -0.0139563 4.60499e-10)
(0.990151 -0.0308227 6.9145e-10)
(1.02361 -0.0439704 8.8865e-10)
(1.06595 -0.0495355 1.03105e-09)
(1.10857 -0.0454049 1.122e-09)
(1.14265 -0.0321607 1.15836e-09)
(1.16168 -0.012768 1.11175e-09)
(1.16277 0.00846276 9.52411e-10)
(1.14674 0.027035 6.9406e-10)
(1.1176 0.0394313 4.01413e-10)
(1.08142 0.0440401 1.55808e-10)
(1.0446 0.0413451 1.37747e-11)
(1.01248 0.0329976 -9.47214e-12)
(0.98916 0.0204106 6.88976e-11)
(0.978341 0.00431284 2.13782e-10)
(0.983403 -0.0141919 3.82008e-10)
(1.00578 -0.0324022 5.33074e-10)
(1.04302 -0.0462863 6.42128e-10)
(1.0886 -0.0521995 7.05315e-10)
(1.13378 -0.0486368 7.34195e-10)
(1.17026 -0.0368511 7.45834e-10)
(1.19239 -0.0202023 7.53327e-10)
(1.19828 -0.00278677 7.57453e-10)
(1.18974 0.0119052 7.43819e-10)
(1.17101 0.0217291 6.90273e-10)
(1.14735 0.0258542 5.81783e-10)
(1.12384 0.0242714 4.2646e-10)
(1.10504 0.0173669 2.58283e-10)
(1.09499 0.00586038 1.21048e-10)
(1.09714 -0.00894161 4.55797e-11)
(1.11365 -0.0248729 3.76915e-11)
(1.1442 -0.0389969 8.2393e-11)
(1.18535 -0.0482144 1.56326e-10)
(1.23103 -0.0501827 2.3837e-10)
(1.27391 -0.044067 3.14382e-10)
(1.30711 -0.0307889 3.77216e-10)
(1.32554 -0.0127633 4.24499e-10)
(1.32676 0.00673325 4.56252e-10)
(1.31128 0.0243021 4.74477e-10)
(1.28232 0.0371637 4.83654e-10)
(1.24505 0.0437561 4.90068e-10)
(1.20527 0.043997 4.98103e-10)
(1.16812 0.0391126 5.04204e-10)
(1.13715 0.0310591 4.9477e-10)
(1.1141 0.0217316 4.53576e-10)
(1.09934 0.0123529 3.74897e-10)
(1.09262 0.00340082 2.71251e-10)
(1.0935 -0.00496503 1.69022e-10)
(1.10131 -0.012392 9.56427e-11)
(1.11481 -0.0181376 6.7334e-11)
(1.13199 -0.021245 8.39933e-11)
(1.15015 -0.0208959 1.31732e-10)
(1.16621 -0.0167275 1.89449e-10)
(1.17719 -0.00902115 2.35919e-10)
(1.18067 0.00123192 2.55714e-10)
(1.17527 0.0123908 2.42742e-10)
(1.16103 0.0224337 2.00995e-10)
(1.13963 0.0294736 1.42493e-10)
(1.1141 0.0323509 8.25327e-11)
(1.08802 0.030998 3.40719e-11)
(1.06459 0.0263578 3.59826e-12)
(1.04597 0.0199164 -9.65513e-12)
(1.03299 0.0131358 -1.11716e-11)
(1.02545 0.00707341 -7.35431e-12)
(1.02243 0.00228191 -2.82315e-12)
(1.02275 -0.00108986 3.06614e-13)
(1.02524 -0.00313187 1.76433e-12)
(1.02882 -0.00403588 2.10293e-12)
(1.03263 -0.00401734 1.95751e-12)
(1.036 -0.00328931 1.72797e-12)
(1.03842 -0.00206493 1.55846e-12)
(1.03959 -0.000563871 1.43946e-12)
(1.03938 0.00099338 1.31577e-12)
(1.03785 0.00240513 1.15202e-12)
(1.03523 0.00351404 9.48377e-13)
(1.03184 0.00422546 7.29208e-13)
(1.02805 0.00451259 5.24946e-13)
(1.02423 0.00440744 3.5877e-13)
(1.02068 0.00398523 2.41488e-13)
(1.01763 0.00334306 1.7288e-13)
(1.01521 0.00258624 1.4596e-13)
(1.01347 0.00180827 1.51198e-13)
(1.01237 0.00109174 1.79266e-13)
(1.01185 0.000485989 2.22139e-13)
(1.01172 3.23486e-05 2.7314e-13)
(1.01198 -0.00027229 3.27239e-13)
(1.01224 -0.000426354 3.75923e-13)
(1.0129 -0.00042337 4.402e-13)
(1.00013 -0.00188566 -3.43762e-20)
(1.00205 -0.00568692 -4.70263e-19)
(1.0064 -0.00958125 -9.31693e-19)
(1.01295 -0.013516 -1.58516e-18)
(1.02185 -0.0173769 -2.19357e-18)
(1.03312 -0.0209112 -3.08981e-18)
(1.04659 -0.0237298 -5.60443e-18)
(1.0618 -0.025199 3.01831e-18)
(1.07771 -0.0246472 -4.97038e-18)
(1.09287 -0.0215312 -3.8662e-17)
(1.10504 -0.0157179 -2.96639e-17)
(1.11248 -0.00870249 4.81683e-17)
(1.11494 -0.00187711 1.04387e-16)
(1.11291 0.00324609 9.56116e-17)
(1.10817 0.00519593 4.23401e-17)
(1.10355 0.00368769 2.95194e-17)
(1.10155 -0.000231628 1.75505e-16)
(1.10351 -0.0045021 5.25601e-16)
(1.10895 -0.00653516 8.70247e-16)
(1.11517 -0.00419547 9.05323e-16)
(1.11816 0.00285449 7.10462e-16)
(1.11461 0.0127775 4.49106e-16)
(1.10345 0.0226677 1.50726e-16)
(1.08592 0.0300045 5.99254e-18)
(1.06463 0.0333019 3.89002e-16)
(1.04257 0.0319833 -1.1982e-15)
(1.02276 0.0260238 -6.02036e-15)
(1.00805 0.0157296 1.89692e-14)
(1.00117 0.00182837 7.82921e-14)
(1.00455 -0.0141126 -1.80086e-13)
(1.01943 -0.0290641 -1.28447e-12)
(1.04427 -0.0386561 -3.10447e-12)
(1.07364 -0.0388775 -4.56862e-12)
(1.09935 -0.0286279 -4.16016e-12)
(1.11392 -0.0109101 -2.23189e-12)
(1.1139 0.00874576 -6.42464e-13)
(1.10067 0.0251977 4.0343e-15)
(1.07853 0.0356325 7.43503e-14)
(1.0523 0.0394834 2.10538e-13)
(1.02606 0.0372798 4.68104e-13)
(1.00309 0.0296165 -1.7303e-12)
(0.986419 0.0167828 -7.79568e-12)
(0.979348 -0.000829986 7.11504e-12)
(0.985187 -0.0216197 1.23327e-10)
(1.00586 -0.0416051 4.16131e-10)
(1.03982 -0.0547326 7.98155e-10)
(1.08061 -0.0554057 1.01416e-09)
(1.11761 -0.0419362 8.95933e-10)
(1.14016 -0.0181464 5.54194e-10)
(1.14272 0.0085169 2.28438e-10)
(1.12675 0.0307963 4.41368e-11)
(1.09853 0.0445948 -1.45487e-11)
(1.06532 0.0494022 -1.69432e-11)
(1.03277 0.0467102 -1.46586e-11)
(1.00448 0.0381681 -1.11891e-11)
(0.982838 0.0246245 5.10408e-11)
(0.970194 0.00633102 2.68199e-10)
(0.969641 -0.0159108 6.87993e-10)
(0.984351 -0.0392947 1.23179e-09)
(1.01503 -0.0585312 1.7562e-09)
(1.0574 -0.0673142 2.17415e-09)
(1.10245 -0.0612835 2.44455e-09)
(1.13941 -0.0406132 2.47159e-09)
(1.15935 -0.0105384 2.14098e-09)
(1.15789 0.0206073 1.49987e-09)
(1.13658 0.0449127 7.88476e-10)
(1.10198 0.0580475 2.50524e-10)
(1.06251 0.0600469 -2.41102e-11)
(1.02509 0.0536586 -8.56439e-11)
(0.993752 0.0417273 -1.2371e-11)
(0.970901 0.0254628 1.57606e-10)
(0.959455 0.00475256 4.03025e-10)
(0.96336 -0.0197395 6.72972e-10)
(0.985184 -0.0445822 8.97271e-10)
(1.023 -0.0638355 1.03801e-09)
(1.06975 -0.0716352 1.11123e-09)
(1.11543 -0.0650912 1.16193e-09)
(1.15047 -0.0455008 1.21776e-09)
(1.16846 -0.0175252 1.24797e-09)
(1.1673 0.0126089 1.17255e-09)
(1.14877 0.0387312 9.41931e-10)
(1.11746 0.0561218 6.0085e-10)
(1.07948 0.0626348 2.65957e-10)
(1.04105 0.0589262 4.90116e-11)
(1.00748 0.0471568 -5.48932e-14)
(0.983306 0.0290543 9.98776e-11)
(0.97309 0.00547871 2.85249e-10)
(0.980884 -0.0218061 4.81201e-10)
(1.00779 -0.0484178 6.32926e-10)
(1.05005 -0.0681552 7.21397e-10)
(1.09969 -0.0757865 7.56345e-10)
(1.14709 -0.0694756 7.5899e-10)
(1.18373 -0.0513839 7.50696e-10)
(1.20407 -0.0265917 7.48671e-10)
(1.20654 -0.00114529 7.59192e-10)
(1.19345 0.0198573 7.68123e-10)
(1.1699 0.0333868 7.42669e-10)
(1.14202 0.0384636 6.52558e-10)
(1.11551 0.0353434 4.97397e-10)
(1.09523 0.0247268 3.15284e-10)
(1.08546 0.00759921 1.6212e-10)
(1.08989 -0.0142639 7.90653e-11)
(1.11063 -0.0376849 7.45544e-11)
(1.1466 -0.0581999 1.29546e-10)
(1.19309 -0.0711703 2.14804e-10)
(1.24287 -0.0733033 3.05227e-10)
(1.28813 -0.0636761 3.85388e-10)
(1.3221 -0.0438794 4.48647e-10)
(1.34008 -0.0174969 4.93959e-10)
(1.33988 0.0107826 5.22718e-10)
(1.32214 0.0361242 5.37194e-10)
(1.29026 0.0545646 5.41224e-10)
(1.24967 0.0638919 5.40972e-10)
(1.20655 0.0640413 5.41948e-10)
(1.16637 0.0568328 5.41916e-10)
(1.1329 0.0451044 5.27092e-10)
(1.10797 0.0315605 4.79822e-10)
(1.09205 0.017926 3.94383e-10)
(1.08493 0.00489194 2.86823e-10)
(1.08613 -0.00725288 1.89104e-10)
(1.09478 -0.0179243 1.32081e-10)
(1.10931 -0.0260266 1.30243e-10)
(1.12736 -0.030243 1.77734e-10)
(1.14597 -0.0295274 2.54523e-10)
(1.16204 -0.0234942 3.3511e-10)
(1.17279 -0.0126151 3.94792e-10)
(1.17606 0.00172484 4.14406e-10)
(1.17064 0.0172866 3.85602e-10)
(1.15662 0.0313011 3.14473e-10)
(1.13559 0.0411534 2.19764e-10)
(1.11046 0.0452067 1.25286e-10)
(1.08472 0.0433338 5.04747e-11)
(1.06161 0.0368267 4.17841e-12)
(1.04331 0.0277553 -1.56954e-11)
(1.03075 0.0181764 -1.78087e-11)
(1.02374 0.00959459 -1.179e-11)
(1.02138 0.00281105 -4.5183e-12)
(1.02245 -0.00194651 7.80775e-13)
(1.02568 -0.00479794 3.57263e-12)
(1.02995 -0.00601719 4.56785e-12)
(1.03433 -0.00591714 4.65613e-12)
(1.03812 -0.0048078 4.42832e-12)
(1.0408 -0.0029981 4.12472e-12)
(1.04206 -0.000805084 3.77053e-12)
(1.04179 0.00145367 3.32879e-12)
(1.04008 0.00348838 2.79376e-12)
(1.0372 0.00507443 2.20709e-12)
(1.03352 0.00607895 1.63505e-12)
(1.02945 0.00646792 1.13914e-12)
(1.02539 0.00629206 7.57371e-13)
(1.02167 0.00566342 5.00358e-13)
(1.01852 0.00472438 3.57742e-13)
(1.01607 0.00362764 3.08239e-13)
(1.01436 0.00250787 3.28112e-13)
(1.01333 0.00148306 3.95959e-13)
(1.01291 0.000622721 4.94073e-13)
(1.01289 -1.59934e-05 6.07976e-13)
(1.01327 -0.000438322 7.26382e-13)
(1.01361 -0.00064878 8.31999e-13)
(1.01437 -0.000623811 9.65012e-13)
(1.00012 -0.00240802 -2.24196e-18)
(1.002 -0.00726833 -7.38384e-18)
(1.00626 -0.0122753 -6.48602e-18)
(1.01274 -0.017379 -8.73737e-18)
(1.02166 -0.0224522 -5.31279e-18)
(1.03314 -0.0271826 -1.98392e-17)
(1.04714 -0.0310693 1.11357e-17)
(1.0633 -0.0332347 1.61373e-17)
(1.08056 -0.0327318 -1.79836e-16)
(1.09733 -0.0286675 -5.60214e-17)
(1.11073 -0.0207535 5.46959e-16)
(1.11857 -0.0111605 9.27725e-16)
(1.12059 -0.00175783 6.24854e-16)
(1.11721 0.00534781 -8.54438e-17)
(1.11059 0.00798608 -8.42253e-16)
(1.10428 0.00569502 -1.4105e-15)
(1.10149 -9.87779e-05 -2.13748e-15)
(1.10399 -0.00652198 -3.81959e-15)
(1.11134 -0.00985606 -5.0984e-15)
(1.12017 -0.0069498 -3.73119e-15)
(1.1253 0.0027255 -1.48698e-15)
(1.12243 0.0164881 -1.92059e-16)
(1.11035 0.0301472 -6.43617e-17)
(1.09077 0.0401948 5.72364e-16)
(1.0669 0.0446981 1.41759e-16)
(1.04217 0.0430075 -1.06851e-14)
(1.01984 0.035159 1.19563e-14)
(1.00296 0.0215123 7.39076e-14)
(0.994606 0.00286651 -3.37351e-13)
(0.997861 -0.018886 -1.5311e-13)
(1.01485 -0.0396863 7.3489e-12)
(1.04431 -0.0533015 2.22897e-11)
(1.07965 -0.0538087 2.74295e-11)
(1.11047 -0.0394995 1.5758e-11)
(1.12745 -0.0147343 2.86462e-12)
(1.12666 0.0124521 -1.61121e-12)
(1.11035 0.0347773 -1.2155e-12)
(1.08424 0.0485502 -4.74939e-14)
(1.05418 0.0533694 1.30721e-12)
(1.0246 0.0502613 -7.20618e-14)
(0.99874 0.0401185 -1.40176e-11)
(0.979523 0.0231971 -2.19071e-11)
(0.970183 -0.000225193 1.10913e-10)
(0.974124 -0.0282529 6.2621e-10)
(0.994038 -0.0557483 1.60012e-09)
(1.02991 -0.0745224 2.70917e-09)
(1.07623 -0.0764121 3.39197e-09)
(1.12119 -0.0582717 3.22776e-09)
(1.15083 -0.025124 2.29483e-09)
(1.15633 0.01213 1.16293e-09)
(1.13854 0.0427705 3.54772e-10)
(1.10566 0.0610715 -4.33325e-12)
(1.06743 0.066824 -7.82114e-11)
(1.03084 0.062684 -6.03141e-11)
(0.999417 0.0513023 -1.0241e-11)
(0.974757 0.0338716 1.56497e-10)
(0.958917 0.0103158 5.37815e-10)
(0.95609 -0.0190175 1.07397e-09)
(0.971252 -0.0507884 1.56162e-09)
(1.00558 -0.0775685 1.8784e-09)
(1.05325 -0.0902645 2.10074e-09)
(1.10306 -0.0828251 2.36652e-09)
(1.14304 -0.055635 2.64628e-09)
(1.16443 -0.0156538 2.67484e-09)
(1.16328 0.0261907 2.21701e-09)
(1.14108 0.0592055 1.39278e-09)
(1.10433 0.0771966 5.74745e-10)
(1.06189 0.0800193 5.36287e-11)
(1.02132 0.071567 -1.15559e-10)
(0.987081 0.0558978 -2.00629e-11)
(0.962003 0.0344552 2.34533e-10)
(0.949993 0.00662009 5.49083e-10)
(0.955983 -0.0268059 8.23767e-10)
(0.982305 -0.0606406 9.93563e-10)
(1.02548 -0.0862701 1.05928e-09)
(1.07675 -0.0957756 1.06703e-09)
(1.12515 -0.0857803 1.07235e-09)
(1.16079 -0.0586671 1.11711e-09)
(1.17732 -0.0211599 1.19508e-09)
(1.17313 0.0183321 1.22154e-09)
(1.151 0.0519657 1.086e-09)
(1.11646 0.0740701 7.70296e-10)
(1.07597 0.082228 3.89353e-10)
(1.03561 0.0773294 1.07755e-10)
(1.0006 0.0618627 2.68171e-11)
(0.976012 0.0376084 1.36328e-10)
(0.967302 0.00553838 3.44984e-10)
(0.978825 -0.0315246 5.49202e-10)
(1.01074 -0.0669813 6.88122e-10)
(1.05763 -0.0922547 7.54315e-10)
(1.11024 -0.10075 7.69898e-10)
(1.15855 -0.0906742 7.59822e-10)
(1.19426 -0.0653363 7.41955e-10)
(1.21229 -0.0315939 7.30927e-10)
(1.21131 0.00253494 7.38235e-10)
(1.19389 0.0302276 7.57937e-10)
(1.16562 0.0474397 7.56064e-10)
(1.13339 0.0530385 6.8963e-10)
(1.10365 0.0476535 5.45778e-10)
(1.08185 0.03239 3.62114e-10)
(1.07283 0.00853455 2.0433e-10)
(1.08057 -0.0215203 1.2266e-10)
(1.1066 -0.0532222 1.26803e-10)
(1.14827 -0.0802325 1.92985e-10)
(1.19915 -0.0963665 2.8706e-10)
(1.25116 -0.0977252 3.82005e-10)
(1.2967 -0.0837029 4.62677e-10)
(1.32979 -0.0567695 5.23056e-10)
(1.34648 -0.021643 5.62655e-10)
(1.3449 0.0157155 5.84172e-10)
(1.32563 0.0491156 5.91485e-10)
(1.29189 0.0733858 5.89212e-10)
(1.24905 0.0855873 5.83521e-10)
(1.20344 0.0856244 5.7993e-10)
(1.16081 0.0759242 5.75974e-10)
(1.12519 0.0602513 5.56492e-10)
(1.09863 0.0421529 5.025e-10)
(1.08174 0.0238764 4.10312e-10)
(1.07445 0.00636555 3.02126e-10)
(1.07626 -0.00988683 2.1561e-10)
(1.08605 -0.0239826 1.81148e-10)
(1.10185 -0.0344294 2.062e-10)
(1.12086 -0.039577 2.76912e-10)
(1.13985 -0.0382426 3.69992e-10)
(1.15572 -0.0301398 4.62e-10)
(1.16588 -0.0160232 5.30926e-10)
(1.1686 0.00231777 5.55751e-10)
(1.16299 0.0221188 5.22194e-10)
(1.14926 0.039959 4.32151e-10)
(1.12889 0.0525513 3.06593e-10)
(1.10457 0.0577789 1.77352e-10)
(1.07962 0.0554157 7.27189e-11)
(1.05721 0.0470608 6.70389e-12)
(1.03955 0.0353448 -2.24472e-11)
(1.02767 0.0229199 -2.62002e-11)
(1.02144 0.0117561 -1.77643e-11)
(1.01996 0.00292858 -6.81523e-12)
(1.02199 -0.00323626 1.86335e-12)
(1.02617 -0.00688025 7.17083e-12)
(1.0313 -0.0083633 9.78407e-12)
(1.03641 -0.00810535 1.07337e-11)
(1.04075 -0.00652383 1.07563e-11)
(1.04377 -0.00403285 1.02106e-11)
(1.04516 -0.00105588 9.23609e-12)
(1.04483 0.00198347 7.92631e-12)
(1.0429 0.00469952 6.41923e-12)
(1.03969 0.00679545 4.88859e-12)
(1.03564 0.00809971 3.49794e-12)
(1.03121 0.00857472 2.36129e-12)
(1.02684 0.00829635 1.528e-12)
(1.0229 0.00742088 9.91145e-13)
(1.01962 0.00614277 7.08237e-13)
(1.01714 0.00466775 6.23009e-13)
(1.01547 0.00317546 6.80701e-13)
(1.01455 0.00182156 8.35099e-13)
(1.01427 0.0006959 1.04906e-12)
(1.0144 -0.000129476 1.29249e-12)
(1.01492 -0.000663448 1.54113e-12)
(1.01538 -0.000923236 1.76106e-12)
(1.01627 -0.00085414 2.02574e-12)
(1.00012 -0.002915 2.49968e-18)
(1.00193 -0.00880771 7.80468e-18)
(1.00606 -0.0149203 7.3387e-18)
(1.01241 -0.0212203 8.48529e-18)
(1.02131 -0.0275837 1.57595e-17)
(1.033 -0.0336547 -3.0152e-17)
(1.04762 -0.038826 2.4156e-16)
(1.06498 -0.0419307 -5.91149e-16)
(1.08404 -0.0416827 -2.39943e-16)
(1.10303 -0.0366431 2.98452e-15)
(1.11814 -0.0262654 3.79483e-15)
(1.12655 -0.0136423 -7.86016e-16)
(1.12801 -0.00119751 -7.07589e-15)
(1.12281 0.00825513 -1.2388e-14)
(1.11357 0.0116195 -1.5395e-14)
(1.10485 0.00818605 -1.73259e-14)
(1.10084 -0.000145021 -2.549e-14)
(1.10401 -0.00948161 -5.27123e-14)
(1.11399 -0.0146691 -8.46146e-14)
(1.12651 -0.0111922 -8.01115e-14)
(1.13464 0.00174345 -5.01818e-14)
(1.13276 0.0202833 -2.52128e-14)
(1.11943 0.0385184 -8.12911e-15)
(1.09708 0.0517411 2.55717e-15)
(1.06978 0.0576055 -1.47946e-14)
(1.04157 0.0555113 -5.57772e-15)
(1.01595 0.0456319 2.22703e-13)
(0.996178 0.0283514 -4.17079e-13)
(0.985695 0.00438897 -3.01892e-12)
(0.988606 -0.0242216 6.0622e-12)
(1.0085 -0.0522861 5.44112e-11)
(1.04461 -0.0710709 1.35746e-10)
(1.08848 -0.0719787 1.88638e-10)
(1.12628 -0.0525191 1.57074e-10)
(1.14609 -0.0189651 7.48474e-11)
(1.14371 0.017332 1.5668e-11)
(1.12289 0.0464199 -4.42778e-12)
(1.09136 0.0637134 -3.27781e-12)
(1.05631 0.0692934 2.09764e-12)
(1.02256 0.0649946 -7.95045e-12)
(0.993147 0.0521574 -4.39388e-11)
(0.970498 0.0310681 8.45195e-12)
(0.957093 0.00188914 4.79644e-10)
(0.956374 -0.0335221 1.6219e-09)
(0.973119 -0.06949 3.16065e-09)
(1.00998 -0.0958469 4.55593e-09)
(1.0621 -0.101074 5.49736e-09)
(1.11622 -0.0792418 5.69487e-09)
(1.15559 -0.0356926 4.78925e-09)
(1.16762 0.0146894 3.01649e-09)
(1.15068 0.0561364 1.26782e-09)
(1.11389 0.0801351 2.0808e-10)
(1.06999 0.0867987 -1.58045e-10)
(1.02833 0.0807086 -1.60949e-10)
(0.992801 0.0662076 -7.68206e-12)
(0.964281 0.044877 3.16198e-10)
(0.945105 0.0156751 8.06866e-10)
(0.941446 -0.0220638 1.26839e-09)
(0.959812 -0.0640351 1.50123e-09)
(1.00031 -0.0995476 1.54206e-09)
(1.05442 -0.116082 1.58874e-09)
(1.10879 -0.106201 1.80961e-09)
(1.15064 -0.0712871 2.22927e-09)
(1.17155 -0.0206186 2.61794e-09)
(1.1687 0.0323193 2.56826e-09)
(1.14438 0.0743947 1.91992e-09)
(1.10516 0.0976261 9.8212e-10)
(1.05983 0.101531 2.24589e-10)
(1.01611 0.0910495 -9.95809e-11)
(0.978885 0.0713808 -1.73041e-11)
(0.951923 0.0440092 2.98853e-10)
(0.940408 0.00777743 6.54315e-10)
(0.949743 -0.0358779 9.11762e-10)
(0.981057 -0.0793274 1.0337e-09)
(1.02892 -0.111078 1.06041e-09)
(1.08332 -0.121503 1.04921e-09)
(1.13319 -0.107136 1.04033e-09)
(1.16894 -0.0715839 1.06357e-09)
(1.18429 -0.0236774 1.13362e-09)
(1.17758 0.0257849 1.20115e-09)
(1.152 0.0670696 1.144e-09)
(1.11398 0.0936259 8.83881e-10)
(1.07064 0.103044 4.98696e-10)
(1.02819 0.0965954 1.77742e-10)
(0.991942 0.0769445 6.89708e-11)
(0.967531 0.0457067 1.77208e-10)
(0.96108 0.0040905 3.92209e-10)
(0.97669 -0.0435047 5.91525e-10)