/*--------------------------------*- C++ -*----------------------------------*\
  =========                 |
  \\      /  F ield         | OpenFOAM: The Open Source CFD Toolbox
   \\    /   O peration     | Website:  https://openfoam.org
    \\  /    A nd           | Version:  11
     \\/     M anipulation  |
\*---------------------------------------------------------------------------*/
FoamFile
{
    format      ascii;
    class       volVectorField;
    location    "16.285707";
    object      U_0;
}
// * * * * * * * * * * * * * * * * * * * * * * * * * * * * * * * * * * * * * //

dimensions      [0 1 -1 0 0 0 0];

internalField   nonuniform List<vector> 
7132
(
(1.00014 -0.000258084 2.90638e-18)
(1.00199 -0.000751788 1.19048e-17)
(1.00604 -0.00123304 1.36578e-17)
(1.01191 -0.00170547 1.77668e-17)
(1.01967 -0.00216844 2.4111e-17)
(1.02926 -0.00260255 2.60861e-17)
(1.04052 -0.00297172 2.63127e-17)
(1.05309 -0.00321091 2.57821e-17)
(1.06629 -0.00325186 2.45081e-17)
(1.07923 -0.00304957 2.25409e-17)
(1.09078 -0.00259801 2.02264e-17)
(1.10013 -0.0020544 1.80976e-17)
(1.10722 -0.00153412 1.63077e-17)
(1.1124 -0.00113764 1.43926e-17)
(1.1163 -0.000847756 1.04156e-17)
(1.11922 -0.000530988 7.55685e-18)
(1.12069 -1.48079e-06 6.54601e-18)
(1.11947 0.000865198 7.15528e-18)
(1.11406 0.00200463 7.38665e-18)
(1.10368 0.00318425 9.39687e-18)
(1.08873 0.00412798 1.12403e-17)
(1.07067 0.00461995 1.20625e-17)
(1.05167 0.00453929 1.16502e-17)
(1.03418 0.00385001 1.58617e-17)
(1.02064 0.00258572 1.21562e-17)
(1.01326 0.000855339 -5.98469e-17)
(1.01364 -0.00112973 -6.21177e-17)
(1.02229 -0.00301357 1.11001e-15)
(1.03795 -0.00431117 3.9708e-15)
(1.05719 -0.00456532 5.68197e-15)
(1.075 -0.0035999 4.2776e-15)
(1.0865 -0.00167213 1.83945e-15)
(1.08873 0.000642833 3.9132e-16)
(1.08147 0.0027392 -1.99455e-16)
(1.06671 0.00421228 -3.00483e-16)
(1.04751 0.00489851 1.20953e-15)
(1.02717 0.00478778 2.53142e-15)
(1.00881 0.00392412 -1.26087e-14)
(0.995354 0.00236345 -5.09915e-14)
(0.989497 0.00020755 1.5402e-14)
(0.9934 -0.00230137 5.62531e-13)
(1.00785 -0.00468398 1.9343e-12)
(1.03113 -0.00626782 3.69726e-12)
(1.05854 -0.00644822 4.64696e-12)
(1.0834 -0.00503546 4.12036e-12)
(1.09945 -0.00241755 2.65478e-12)
(1.10315 0.000618328 1.18814e-12)
(1.09461 0.00326814 2.72573e-13)
(1.07683 0.00502489 -8.68767e-14)
(1.05406 0.00574219 -1.33299e-13)
(1.03047 0.00550021 2.00164e-14)
(1.00961 0.00443384 2.71654e-13)
(0.994532 0.00264507 -2.90637e-13)
(0.988004 0.000243621 -3.81151e-12)
(0.99226 -0.0025179 -1.23058e-11)
(1.00808 -0.00512894 -2.6029e-11)
(1.03356 -0.00687939 -4.19152e-11)
(1.06369 -0.00713314 -5.43189e-11)
(1.09136 -0.00567094 -5.81636e-11)
(1.10975 -0.00286097 -5.11972e-11)
(1.11472 0.000481259 -3.49342e-11)
(1.10605 0.00345463 -1.67609e-11)
(1.08691 0.00542932 -3.81784e-12)
(1.06222 0.00619084 3.29748e-12)
(1.0369 0.00584446 6.03668e-12)
(1.01496 0.0046114 -1.97108e-12)
(0.999509 0.00268045 -4.07652e-11)
(0.993037 0.000212888 -1.37703e-10)
(0.997399 -0.0025245 -3.10076e-10)
(1.01301 -0.00504819 -5.4675e-10)
(1.03783 -0.00672007 -8.00055e-10)
(1.0671 -0.00698943 -9.98616e-10)
(1.0943 -0.00566751 -1.07817e-09)
(1.11309 -0.00305401 -1.0114e-09)
(1.11932 0.000160739 -8.18191e-10)
(1.11219 0.00315331 -5.55077e-10)
(1.09419 0.00525703 -2.93858e-10)
(1.06996 0.0061453 -9.55292e-11)
(1.04466 0.00583627 7.96461e-12)
(1.02281 0.00455154 1.197e-11)
(1.00776 0.0025534 -7.58835e-11)
(1.00191 9.5195e-05 -2.45655e-10)
(1.00664 -0.00249829 -4.82502e-10)
(1.02175 -0.00475959 -7.59455e-10)
(1.04482 -0.00615125 -1.03614e-09)
(1.07128 -0.00626812 -1.26566e-09)
(1.09541 -0.00502926 -1.40506e-09)
(1.11196 -0.00272968 -1.4241e-09)
(1.11761 6.62427e-05 -1.31106e-09)
(1.11166 0.0027126 -1.07662e-09)
(1.09598 0.00466617 -7.60409e-10)
(1.07426 0.00560235 -4.31366e-10)
(1.05096 0.00544297 -1.66156e-10)
(1.03041 0.00430476 -1.5264e-11)
(1.01617 0.00241576 1.65106e-11)
(1.01076 7.37651e-05 -3.92069e-11)
(1.01538 -0.00233435 -1.39532e-10)
(1.02944 -0.00433428 -2.496e-10)
(1.05029 -0.00546137 -3.4797e-10)
(1.07353 -0.00542627 -4.23536e-10)
(1.09412 -0.00424033 -4.70921e-10)
(1.10777 -0.00221469 -4.87185e-10)
(1.112 0.000158945 -4.70132e-10)
(1.10651 0.00236954 -4.18365e-10)
(1.09294 0.00401459 -3.34468e-10)
(1.07421 0.00485192 -2.29141e-10)
(1.0539 0.00479233 -1.20323e-10)
(1.03563 0.00387033 -2.57702e-11)
(1.02271 0.00222541 4.54635e-11)
(1.01768 0.000111544 9.53326e-11)
(1.02181 -0.00208836 1.31966e-10)
(1.03457 -0.00390436 1.63129e-10)
(1.05342 -0.00490128 1.92872e-10)
(1.07424 -0.00483336 2.21792e-10)
(1.0925 -0.00374101 2.48759e-10)
(1.10443 -0.0019306 2.72072e-10)
(1.108 0.000145635 2.89199e-10)
(1.10313 0.00204225 2.9565e-10)
(1.09139 0.0034345 2.8507e-10)
(1.07532 0.00414813 2.52777e-10)
(1.05787 0.0041241 2.01577e-10)
(1.04204 0.00337326 1.44402e-10)
(1.03069 0.00197029 9.93674e-11)
(1.02621 9.42576e-05 8.02556e-11)
(1.03005 -0.00193299 9.02568e-11)
(1.04201 -0.0036795 1.23043e-10)
(1.05999 -0.00472077 1.68264e-10)
(1.08033 -0.00479049 2.16463e-10)
(1.09879 -0.00388163 2.61212e-10)
(1.11168 -0.00224522 2.98993e-10)
(1.11681 -0.000294873 3.27972e-10)
(1.11387 0.00153281 3.46223e-10)
(1.1042 0.00290255 3.50197e-10)
(1.0902 0.00363886 3.35059e-10)
(1.07462 0.00370516 2.97867e-10)
(1.06014 0.00313963 2.41972e-10)
(1.04919 0.00200632 1.78444e-10)
(1.04392 0.000404559 1.22023e-10)
(1.04597 -0.00147772 8.42719e-11)
(1.056 -0.00333686 6.92141e-11)
(1.07315 -0.00480339 7.38743e-11)
(1.09504 -0.00555671 9.18262e-11)
(1.11823 -0.00544097 1.16583e-10)
(1.13906 -0.00451801 1.43288e-10)
(1.15463 -0.00303794 1.68933e-10)
(1.16337 -0.00135101 1.91881e-10)
(1.16522 0.00019589 2.11235e-10)
(1.16143 0.00134483 2.26223e-10)
(1.15401 0.00197227 2.357e-10)
(1.14518 0.00208849 2.37973e-10)
(1.1369 0.00180084 2.3122e-10)
(1.13043 0.00126851 2.1446e-10)
(1.12659 0.000650009 1.88566e-10)
(1.12509 9.71983e-05 1.56598e-10)
(1.12603 -0.000304001 1.23166e-10)
(1.1275 -0.000439864 9.32227e-11)
(1.13032 -0.000406538 7.06155e-11)
(1.13036 -3.50527e-05 5.84671e-11)
(1.13226 0.000139177 5.38939e-11)
(1.1274 0.000841136 6.99973e-11)
(1.00014 -0.000773098 3.47616e-20)
(1.00198 -0.00225293 6.15272e-19)
(1.00601 -0.00369668 1.33022e-18)
(1.01188 -0.00511743 2.15586e-18)
(1.01965 -0.00651395 3.21081e-18)
(1.02929 -0.00782858 4.3418e-18)
(1.04066 -0.00895256 5.15935e-18)
(1.05342 -0.00968586 6.77123e-18)
(1.06686 -0.00981771 6.51706e-18)
(1.08008 -0.00920283 4.97806e-18)
(1.09183 -0.00781798 5.05444e-18)
(1.10123 -0.00615685 8.19644e-18)
(1.10825 -0.00457711 7.66603e-18)
(1.11331 -0.00339786 2.92853e-18)
(1.11715 -0.00256958 -4.56316e-18)
(1.12017 -0.00167828 -8.86767e-18)
(1.1219 -0.000140007 -7.11892e-18)
(1.12097 0.00244788 -2.28075e-18)
(1.11572 0.00589531 2.44623e-18)
(1.10526 0.00948806 5.89093e-18)
(1.08998 0.0123786 8.22735e-18)
(1.07144 0.0139077 7.42493e-18)
(1.05186 0.0137071 6.21245e-18)
(1.03377 0.0116644 3.73253e-17)
(1.01969 0.00787342 1.87925e-17)
(1.01192 0.00265005 -6.28105e-16)
(1.01217 -0.00338117 -3.18736e-16)
(1.02113 -0.00914551 1.36645e-14)
(1.03758 -0.0131512 4.8344e-14)
(1.05794 -0.0139739 7.16259e-14)
(1.07685 -0.0110537 5.4949e-14)
(1.08905 -0.00517629 2.26105e-14)
(1.09142 0.00188818 3.98248e-15)
(1.08382 0.00828029 -2.22689e-15)
(1.06841 0.0127678 -1.32343e-15)
(1.04846 0.0148659 1.23802e-14)
(1.02735 0.0145579 1.60366e-14)
(1.00824 0.0119819 -1.31484e-13)
(0.994083 0.00729536 -4.9328e-13)
(0.987686 0.000777969 2.3101e-13)
(0.99143 -0.00686553 6.77248e-12)
(1.00634 -0.0141812 2.44849e-11)
(1.03076 -0.0190897 4.82886e-11)
(1.05969 -0.019704 6.0839e-11)
(1.08595 -0.0154229 5.18082e-11)
(1.10282 -0.00743883 3.04472e-11)
(1.10657 0.00182553 1.20533e-11)
(1.09745 0.00990349 2.21056e-12)
(1.07877 0.0152494 -1.12282e-12)
(1.05503 0.0174339 -1.17181e-12)
(1.03055 0.0167212 6.81674e-13)
(1.00888 0.0135304 3.2666e-12)
(0.993064 0.0081579 -2.24477e-12)
(0.985944 0.000901503 -4.14941e-11)
(0.989945 -0.00750749 -1.52713e-10)
(1.00607 -0.0155196 -3.5429e-10)
(1.03254 -0.0209391 -5.93352e-10)
(1.06416 -0.021783 -7.51378e-10)
(1.09339 -0.0173602 -7.38224e-10)
(1.11289 -0.00880097 -5.7095e-10)
(1.1182 0.00139336 -3.43918e-10)
(1.1091 0.010465 -1.50301e-10)
(1.08902 0.016486 -3.34733e-11)
(1.06324 0.0188093 1.61792e-11)
(1.03691 0.0177763 2.65401e-11)
(1.0141 0.0140783 1.79771e-12)
(0.997856 0.00828422 -1.0081e-10)
(0.990693 0.000851584 -3.5723e-10)
(0.994615 -0.00744911 -8.24324e-10)
(1.01026 -0.0151641 -1.47341e-09)
(1.0357 -0.0203375 -2.16043e-09)
(1.06605 -0.0212608 -2.67133e-09)
(1.09448 -0.0173297 -2.82332e-09)
(1.11431 -0.00944037 -2.56076e-09)
(1.12114 0.000312335 -1.98293e-09)
(1.11408 0.00942363 -1.28128e-09)
(1.09569 0.0158567 -6.45658e-10)
(1.07076 0.0186086 -1.98877e-10)
(1.04464 0.0177314 2.31848e-11)
(1.02194 0.0138985 4.12462e-11)
(1.00612 0.00789701 -1.12712e-10)
(0.999716 0.000471641 -4.14886e-10)
(1.00428 -0.00741297 -8.3536e-10)
(1.01976 -0.014332 -1.31706e-09)
(1.04367 -0.0186246 -1.7778e-09)
(1.07116 -0.0190339 -2.13232e-09)
(1.09616 -0.0153094 -2.31309e-09)
(1.11321 -0.00835846 -2.28175e-09)
(1.11895 9.90114e-05 -2.03736e-09)
(1.11277 0.00810978 -1.62022e-09)
(1.09668 0.0140366 -1.10977e-09)
(1.07445 0.0169032 -6.12322e-10)
(1.0506 0.0164726 -2.285e-10)
(1.0295 0.0130866 -1.59461e-11)
(1.01478 0.00741271 2.67492e-11)
(1.00912 0.000327432 -5.49617e-11)
(1.01393 -0.00700552 -2.01202e-10)
(1.02866 -0.013126 -3.60085e-10)
(1.05051 -0.016588 -4.96769e-10)
(1.07477 -0.0164912 -5.9327e-10)
(1.09605 -0.0128774 -6.43601e-10)
(1.1099 -0.00671581 -6.47752e-10)
(1.11386 0.00048361 -6.07662e-10)
(1.10779 0.00717076 -5.26398e-10)
(1.09353 0.0121365 -4.11036e-10)
(1.07417 0.0146625 -2.76381e-10)
(1.05332 0.0144895 -1.43345e-10)
(1.03467 0.0117184 -3.07404e-11)
(1.02155 0.00675382 5.345e-11)
(1.01663 0.000343574 1.1365e-10)
(1.02129 -0.00635737 1.60377e-10)
(1.03498 -0.0119024 2.02257e-10)
(1.05496 -0.0149402 2.42164e-10)
(1.07681 -0.0147103 2.78249e-10)
(1.09568 -0.0113472 3.07224e-10)
(1.10767 -0.00580755 3.26835e-10)
(1.11077 0.000516362 3.35848e-10)
(1.1051 0.00626908 3.32072e-10)
(1.09242 0.0104713 3.11356e-10)
(1.07548 0.0126068 2.70465e-10)
(1.05734 0.012509 2.12892e-10)
(1.04107 0.0102147 1.51915e-10)
(1.0296 0.00594353 1.05984e-10)
(1.02542 0.00022677 8.91431e-11)
(1.03001 -0.00596098 1.04423e-10)
(1.04311 -0.0112903 1.44614e-10)
(1.0624 -0.0144481 1.97852e-10)
(1.08392 -0.0146164 2.52962e-10)
(1.10312 -0.0117881 3.02081e-10)
(1.11615 -0.00675244 3.40886e-10)
(1.12084 -0.000786288 3.67531e-10)
(1.11704 0.00477997 3.80795e-10)
(1.10629 0.00893263 3.78218e-10)
(1.09119 0.0111465 3.56084e-10)
(1.07464 0.0113199 3.12377e-10)
(1.05943 0.00957477 2.51168e-10)
(1.04808 0.00610456 1.84052e-10)
(1.04284 0.00120435 1.2602e-10)
(1.04542 -0.00455872 8.85091e-11)
(1.05646 -0.0102501 7.50494e-11)
(1.07497 -0.0147234 8.19467e-11)
(1.09827 -0.0169869 1.02057e-10)
(1.12259 -0.0165692 1.28372e-10)
(1.14407 -0.0136793 1.558e-10)
(1.15969 -0.00910558 1.81349e-10)
(1.16794 -0.0039328 2.03563e-10)
(1.16893 0.000781696 2.21796e-10)
(1.16409 0.00426318 2.35505e-10)
(1.15561 0.00614601 2.43699e-10)
(1.14584 0.0064688 2.44756e-10)
(1.13684 0.00556114 2.36866e-10)
(1.1299 0.00390597 2.19082e-10)
(1.1259 0.00198206 1.92378e-10)
(1.12454 0.000249727 1.5996e-10)
(1.12594 -0.00102405 1.26531e-10)
(1.12807 -0.00148474 9.69903e-11)
(1.13173 -0.00140711 7.49778e-11)
(1.13245 -0.000275588 6.33167e-11)
(1.13508 0.000274085 5.89996e-11)
(1.13036 0.00250298 7.47121e-11)
(1.00014 -0.00128499 1.29937e-22)
(1.00197 -0.00374511 1.08081e-20)
(1.00596 -0.00615034 9.64703e-21)
(1.0118 -0.00852798 1.99692e-20)
(1.01958 -0.0108803 -5.60882e-20)
(1.02931 -0.0131138 -1.87582e-19)
(1.0409 -0.0150461 1.43157e-19)
(1.05404 -0.0163271 -6.23609e-19)
(1.068 -0.0165851 -3.28708e-18)
(1.0818 -0.0155395 -5.35883e-19)
(1.09397 -0.0131316 8.84209e-18)
(1.10349 -0.0102567 8.53408e-18)
(1.11037 -0.00754474 -1.78277e-17)
(1.11518 -0.00557937 -6.33123e-17)
(1.1189 -0.00428056 -9.64735e-17)
(1.12211 -0.00291071 -8.64853e-17)
(1.12435 -0.000412822 -4.2453e-17)
(1.12401 0.00395639 -3.88772e-18)
(1.11903 0.00987038 1.48468e-17)
(1.10833 0.0160612 1.95302e-17)
(1.09233 0.0210416 1.57192e-17)
(1.07274 0.023681 1.95295e-18)
(1.05198 0.0233692 3.7792e-17)
(1.03273 0.0199291 1.2976e-17)
(1.01764 0.0135119 -6.7147e-16)
(1.00918 0.00461961 2.064e-15)
(1.00933 -0.00573116 1.05006e-14)
(1.01904 -0.0157178 -6.27768e-14)
(1.03721 -0.0227273 -2.9475e-13)
(1.05991 -0.0242139 -4.16417e-13)
(1.08103 -0.0191561 -2.62967e-13)
(1.09453 -0.0089445 -7.71257e-14)
(1.09696 0.00327959 -4.16806e-15)
(1.08838 0.0142571 -2.60843e-16)
(1.07145 0.0218914 6.09989e-15)
(1.04985 0.0254236 6.50759e-14)
(1.02718 0.0248924 1.8648e-14)
(1.00664 0.0205548 -7.05958e-13)
(0.991228 0.0126409 -1.79049e-12)
(0.983963 0.0015417 2.8079e-12)
(0.987649 -0.0116197 2.87813e-11)
(1.00377 -0.024347 8.64423e-11)
(1.03073 -0.0329548 1.57333e-10)
(1.0629 -0.0340618 1.98618e-10)
(1.09197 -0.0265971 1.78746e-10)
(1.11025 -0.0127015 1.13252e-10)
(1.11371 0.00332806 4.95907e-11)
(1.10301 0.0171804 1.1573e-11)
(1.08217 0.026231 -3.61791e-12)
(1.05632 0.0298442 -4.71304e-12)
(1.03002 0.0285721 3.98203e-12)
(1.00683 0.0231715 1.49602e-11)
(0.98971 0.0141125 -1.91474e-11)
(0.98152 0.00181262 -2.27162e-10)
(0.984937 -0.0125703 -7.87078e-10)
(1.00139 -0.0264222 -1.75254e-09)
(1.02942 -0.035933 -2.85611e-09)
(1.06375 -0.0375765 -3.5765e-09)
(1.09611 -0.0300413 -3.51397e-09)
(1.11809 -0.0152484 -2.72366e-09)
(1.12436 0.00240478 -1.64596e-09)
(1.11453 0.0180582 -7.2857e-10)
(1.0926 0.0283536 -1.7337e-10)
(1.06459 0.0322375 5.86729e-11)
(1.03623 0.0304082 9.92959e-11)
(1.01173 0.0241353 1.469e-11)
(0.994062 0.0143858 -2.6503e-10)
(0.985764 0.00184221 -8.89025e-10)
(0.989158 -0.012296 -1.93342e-09)
(1.0053 -0.0255862 -3.27059e-09)
(1.03235 -0.0346254 -4.59095e-09)
(1.06498 -0.0363946 -5.53949e-09)
(1.09564 -0.0297999 -5.83552e-09)
(1.11705 -0.0163682 -5.35852e-09)
(1.12453 0.000298162 -4.22803e-09)
(1.1172 0.0158919 -2.78595e-09)
(1.09779 0.0269166 -1.4365e-09)
(1.07142 0.0316623 -4.67749e-10)
(1.04373 0.0302381 2.6205e-11)
(1.01954 0.0238031 9.06581e-11)
(1.0025 0.0136648 -1.88373e-10)
(0.995443 0.00102367 -7.28201e-10)
(1.00029 -0.0125117 -1.42939e-09)
(1.01715 -0.0244549 -2.15972e-09)
(1.04322 -0.0318611 -2.78878e-09)
(1.07295 -0.0325218 -3.23098e-09)
(1.09951 -0.0260527 -3.44279e-09)
(1.11707 -0.014108 -3.39127e-09)
(1.12232 0.00030324 -3.0525e-09)
(1.11503 0.013857 -2.45204e-09)
(1.09759 0.0238298 -1.69493e-09)
(1.07405 0.0286357 -9.44522e-10)
(1.04904 0.0279104 -3.60116e-10)
(1.02698 0.0222121 -3.33454e-11)
(1.01164 0.0126026 3.61629e-11)
(1.006 0.000504243 -8.12834e-11)
(1.01173 -0.0120991 -2.89109e-10)
(1.02828 -0.022631 -5.02669e-10)
(1.05242 -0.0285206 -6.70501e-10)
(1.07871 -0.0281986 -7.76007e-10)
(1.10118 -0.0218023 -8.23584e-10)
(1.11508 -0.0111045 -8.20778e-10)
(1.11805 0.00122876 -7.69104e-10)
(1.11038 0.0125404 -6.6768e-10)
(1.09437 0.0208265 -5.22479e-10)
(1.07346 0.0249503 -3.51948e-10)
(1.05146 0.0245337 -1.83367e-10)
(1.03211 0.0197522 -4.05765e-11)
(1.01885 0.0112474 6.75443e-11)
(1.01454 0.000248458 1.48179e-10)
(1.02067 -0.011262 2.15209e-10)
(1.03652 -0.0207438 2.78143e-10)
(1.05885 -0.0258216 3.37412e-10)
(1.08264 -0.0251943 3.8693e-10)
(1.1025 -0.0191632 4.19792e-10)
(1.11433 -0.00946604 4.32647e-10)
(1.11625 0.00144132 4.2625e-10)
(1.10873 0.0112237 4.02421e-10)
(1.09399 0.0182437 3.61273e-10)
(1.07517 0.0216849 3.02771e-10)
(1.05561 0.0213212 2.32281e-10)
(1.03854 0.0172379 1.64079e-10)
(1.02702 0.00979739 1.1705e-10)
(1.02369 -0.000104189 1.04887e-10)
(1.03004 -0.0107742 1.29196e-10)
(1.04556 -0.0198799 1.80497e-10)
(1.06744 -0.0251321 2.44564e-10)
(1.09108 -0.0251481 3.08455e-10)
(1.11146 -0.0199893 3.63279e-10)
(1.12454 -0.0110995 4.04144e-10)
(1.12822 -0.000731448 4.28878e-10)
(1.1226 0.00881652 4.36339e-10)
(1.10963 0.0158316 4.24816e-10)
(1.09232 0.0194607 3.91861e-10)
(1.07389 0.0195766 3.37076e-10)
(1.05733 0.0164138 2.66301e-10)
(1.04536 0.010302 1.92679e-10)
(1.04039 0.00173874 1.31971e-10)
(1.04424 -0.00828441 9.5267e-11)
(1.05744 -0.0181088 8.48459e-11)
(1.07859 -0.0257098 9.54713e-11)
(1.10442 -0.0293738 1.18749e-10)
(1.13063 -0.0283419 1.46991e-10)
(1.15298 -0.0230607 1.74987e-10)
(1.16841 -0.0149648 2.00006e-10)
(1.17556 -0.00596301 2.21004e-10)
(1.17482 0.00212702 2.37689e-10)
(1.16797 0.00800549 2.49745e-10)
(1.15752 0.0110871 2.56265e-10)
(1.14605 0.0114751 2.55586e-10)
(1.13579 0.00975572 2.45853e-10)
(1.12814 0.00675724 2.26222e-10)
(1.12402 0.00329329 1.97988e-10)
(1.12315 0.000147696 1.64778e-10)
(1.12562 -0.00219467 1.3156e-10)
(1.12917 -0.00310879 1.03131e-10)
(1.13451 -0.00299536 8.26791e-11)
(1.13644 -0.0010151 7.2382e-11)
(1.14034 6.60497e-05 6.89427e-11)
(1.13553 0.00416649 8.42592e-11)
(1.00014 -0.00179127 -3.11414e-20)
(1.00194 -0.00522037 -6.8332e-19)
(1.00588 -0.00858459 -1.47288e-18)
(1.01166 -0.0119323 -2.3734e-18)
(1.01945 -0.0152772 -4.27978e-18)
(1.0293 -0.0184947 -4.35238e-18)
(1.04121 -0.0213281 -5.65007e-18)
(1.05493 -0.0232523 -1.38653e-17)
(1.0697 -0.023703 -1.29755e-17)
(1.08443 -0.0221975 2.52715e-17)
(1.09725 -0.018609 3.42442e-17)
(1.10694 -0.0143546 -9.43622e-17)
(1.11359 -0.0103927 -2.69867e-16)
(1.11796 -0.00766233 -1.96917e-16)
(1.12146 -0.00605634 2.24875e-16)
(1.12497 -0.00443257 6.81653e-16)
(1.12805 -0.00111875 8.17437e-16)
(1.12865 0.0050995 6.60458e-16)
(1.12413 0.0137393 3.96966e-16)
(1.11305 0.0228486 1.81143e-16)
(1.09588 0.0301802 1.30727e-17)
(1.07465 0.0340841 3.27997e-17)
(1.05206 0.0337116 5.19802e-16)
(1.03102 0.028833 -3.04102e-15)
(1.0144 0.0196487 -5.70493e-15)
(1.00488 0.00681108 7.62812e-14)
(1.00484 -0.00830559 6.2848e-14)
(1.0157 -0.023086 -1.61062e-12)
(1.03657 -0.0335994 -5.77818e-12)
(1.06299 -0.0359015 -8.61333e-12)
(1.08762 -0.0283651 -6.68493e-12)
(1.10314 -0.0131241 -2.77671e-12)
(1.10557 0.00498758 -4.99732e-13)
(1.09534 0.0210467 1.12947e-13)
(1.07595 0.0320294 1.69127e-13)
(1.05176 0.0369971 1.63033e-13)
(1.02669 0.0361634 -4.24865e-13)
(1.004 0.0299569 -1.3789e-12)
(0.986723 0.0186338 2.16501e-12)
(0.97814 0.00257737 1.11719e-11)
(0.981621 -0.0167557 -1.52416e-11)
(0.999283 -0.0357162 -1.6293e-10)
(1.02978 -0.0486664 -4.02881e-10)
(1.06689 -0.050346 -5.21259e-10)
(1.10066 -0.0390979 -3.99164e-10)
(1.12155 -0.0182834 -1.7886e-10)
(1.12475 0.00547335 -2.78156e-11)
(1.11152 0.0256866 1.93308e-11)
(1.08717 0.0385914 1.07655e-11)
(1.05795 0.0435013 1.48724e-12)
(1.02888 0.0414594 1.96068e-11)
(1.00344 0.0336827 3.66937e-11)
(0.984305 0.0208168 -1.19795e-10)
(0.974189 0.00330082 -8.19008e-10)
(0.976139 -0.0174249 -2.42817e-09)
(0.992438 -0.0377546 -4.87412e-09)
(1.02233 -0.0521309 -7.44961e-09)
(1.06035 -0.0551495 -9.13849e-09)
(1.0972 -0.0445384 -9.16318e-09)
(1.12306 -0.0229089 -7.46473e-09)
(1.1314 0.00319384 -4.82605e-09)
(1.12131 0.0263562 -2.33433e-09)
(1.09722 0.0414536 -6.73209e-10)
(1.06619 0.0469859 9.54503e-11)
(1.03487 0.0442006 2.59824e-10)
(1.00784 0.0351581 4.40461e-11)
(0.988069 0.0212704 -5.84777e-10)
(0.978273 0.00331425 -1.77071e-09)
(0.981407 -0.0172061 -3.46739e-09)
(0.999081 -0.0367595 -5.33049e-09)
(1.02922 -0.0501914 -6.94043e-09)
(1.06545 -0.0529208 -8.03593e-09)
(1.099 -0.0433648 -8.47182e-09)
(1.12192 -0.0238691 -8.07992e-09)
(1.12949 0.000264196 -6.76893e-09)
(1.12114 0.0228084 -4.77709e-09)
(1.10001 0.0387428 -2.66224e-09)
(1.07156 0.045632 -9.8875e-10)
(1.04172 0.0436653 -5.65114e-11)
(1.01556 0.0345063 1.23492e-10)
(0.997045 0.019946 -2.99692e-10)
(0.989526 0.00158633 -1.11366e-09)
(0.995457 -0.0182577 -2.07005e-09)
(1.01496 -0.0358 -2.92966e-09)
(1.04455 -0.0465345 -3.54885e-09)
(1.07751 -0.0471883 -3.91712e-09)
(1.10606 -0.037369 -4.09032e-09)
(1.1239 -0.0197475 -4.07896e-09)
(1.12791 0.00113599 -3.80843e-09)
(1.11846 0.0204847 -3.20766e-09)
(1.09861 0.0345274 -2.32872e-09)
(1.07288 0.0411718 -1.36624e-09)
(1.04611 0.0400023 -5.64337e-10)
(1.02277 0.031784 -9.07542e-11)
(1.00686 0.0179011 2.94305e-11)
(1.00173 0.000288463 -1.06715e-10)
(1.00931 -0.0181418 -3.52238e-10)
(1.02882 -0.0334715 -5.83751e-10)
(1.05626 -0.0418092 -7.41008e-10)
(1.08528 -0.040881 -8.23041e-10)
(1.10915 -0.0310561 -8.56491e-10)
(1.12284 -0.0151369 -8.6115e-10)
(1.12419 0.00284596 -8.332e-10)
(1.11401 0.0190187 -7.54644e-10)
(1.09527 0.0305944 -6.1578e-10)
(1.07196 0.0361108 -4.30521e-10)
(1.04821 0.0351607 -2.32813e-10)
(1.0279 0.0280188 -5.65987e-11)
(1.01467 0.0155382 8.33387e-11)
(1.01156 -0.0005582 1.93936e-10)
(1.02009 -0.0173423 2.905e-10)
(1.03913 -0.0309988 3.81737e-10)
(1.06466 -0.0380059 4.64957e-10)
(1.09085 -0.0365359 5.30562e-10)
(1.11179 -0.0271913 5.6887e-10)
(1.1232 -0.0126745 5.75004e-10)
(1.12337 0.0033302 5.50468e-10)
(1.11322 0.0174081 5.007e-10)
(1.09556 0.0272489 4.31222e-10)
(1.07407 0.0317909 3.47206e-10)
(1.0525 0.0308187 2.57779e-10)
(1.03436 0.0245047 1.79291e-10)
(1.02293 0.013369 1.30942e-10)
(1.021 -0.00127695 1.24829e-10)
(1.02998 -0.0168954 1.5942e-10)
(1.04887 -0.0299914 2.21751e-10)
(1.07407 -0.0372091 2.95102e-10)
(1.10024 -0.0366329 3.656e-10)
(1.12188 -0.0285189 4.24566e-10)
(1.13479 -0.015121 4.67506e-10)
(1.137 0.000196933 4.92036e-10)
(1.12896 0.014077 4.9622e-10)
(1.11308 0.0240705 4.77701e-10)
(1.09284 0.0290163 4.34305e-10)
(1.07189 0.0288099 3.6722e-10)
(1.05357 0.023836 2.84924e-10)
(1.04088 0.0145768 2.03235e-10)
(1.03649 0.00176561 1.39319e-10)
(1.04229 -0.0130815 1.03802e-10)
(1.0585 -0.0274222 9.71501e-11)
(1.08305 -0.0382192 1.12045e-10)
(1.11185 -0.0430124 1.38568e-10)
(1.13995 -0.0408506 1.68334e-10)
(1.16288 -0.0325689 1.96151e-10)
(1.17764 -0.0203877 2.19784e-10)
(1.18313 -0.00713104 2.38861e-10)
(1.18013 0.00458095 2.53651e-10)
(1.17077 0.0129177 2.64086e-10)
(1.15793 0.017098 2.69172e-10)
(1.14446 0.0173317 2.66965e-10)
(1.13281 0.0145027 2.55401e-10)
(1.1245 0.00981291 2.33761e-10)
(1.12056 0.00443767 2.03873e-10)
(1.12073 -0.000482293 1.70032e-10)
(1.12502 -0.00417058 1.37591e-10)
(1.13072 -0.00568594 1.1115e-10)
(1.13839 -0.00546852 9.32202e-11)
(1.14178 -0.00244308 8.50641e-11)
(1.14714 -0.000495004 8.30239e-11)
(1.14152 0.00596467 9.78413e-11)
(1.00013 -0.00228816 -2.94766e-18)
(1.00189 -0.00666791 -1.0493e-17)
(1.00574 -0.0109847 -1.00831e-17)
(1.01144 -0.0153186 -1.38967e-17)
(1.0192 -0.0197064 -1.56699e-17)
(1.02919 -0.0240016 -1.1512e-17)
(1.04151 -0.0278736 -3.54905e-17)
(1.05601 -0.0305876 -1.89268e-17)
(1.07192 -0.0313408 6.72254e-17)
(1.08799 -0.0293343 8.11497e-17)
(1.10177 -0.0243186 -1.59588e-16)
(1.11167 -0.0184221 -4.90188e-16)
(1.11791 -0.0130044 5.19506e-17)
(1.12157 -0.00949684 2.8294e-15)
(1.12468 -0.00778228 7.59832e-15)
(1.1286 -0.00620566 1.10005e-14)
(1.13292 -0.00226496 1.00023e-14)
(1.13498 0.00592208 6.55364e-15)
(1.13118 0.0176902 3.17259e-15)
(1.11957 0.0301977 8.55322e-16)
(1.10079 0.0402441 -4.65346e-16)
(1.07726 0.0455907 7.47718e-16)
(1.05215 0.0451758 4.2563e-17)
(1.02865 0.0387581 -2.36276e-14)
(1.00986 0.026587 3.26377e-14)
(0.998793 0.00940424 2.79342e-13)
(0.998369 -0.0111361 -5.68789e-13)
(1.01076 -0.0315801 -3.31334e-12)
(1.03543 -0.0463816 -5.40615e-12)
(1.06722 -0.0497575 -8.82467e-12)
(1.09691 -0.0392337 -1.18288e-11)
(1.1153 -0.0178978 -8.50122e-12)
(1.11761 0.00720859 -3.08031e-12)
(1.10492 0.0290792 -4.55463e-14)
(1.08199 0.0436767 7.42809e-13)
(1.0542 0.0500449 -2.32151e-13)
(1.02587 0.0487699 -2.20951e-12)
(1.00029 0.0405384 6.7035e-12)
(0.980474 0.0255725 3.62165e-11)
(0.969844 0.00410461 -3.32033e-11)
(0.972133 -0.022173 -6.11767e-10)
(0.990153 -0.0484175 -2.10705e-09)
(1.02359 -0.0667686 -4.0919e-09)
(1.06659 -0.069527 -5.23502e-09)
(1.10768 -0.0539384 -4.62683e-09)
(1.13414 -0.024728 -2.82986e-09)
(1.13876 0.00837468 -1.12533e-09)
(1.12291 0.0359861 -1.89754e-10)
(1.0939 0.0530118 8.56126e-11)
(1.05998 0.0589815 8.85691e-11)
(1.02711 0.0558173 8.45392e-11)
(0.998629 0.0454557 4.0667e-11)
(0.976575 0.0287435 -4.66341e-10)
(0.963499 0.00590889 -2.09395e-09)
(0.963359 -0.0216795 -5.12557e-09)
(0.979946 -0.0495143 -8.95058e-09)
(1.01303 -0.069903 -1.2453e-08)
(1.05603 -0.0750286 -1.4728e-08)
(1.09797 -0.0613974 -1.51473e-08)
(1.12779 -0.0323274 -1.33015e-08)
(1.1383 0.0033085 -9.5526e-09)
(1.12817 0.035165 -5.26419e-09)
(1.10198 0.0559086 -1.89559e-09)
(1.06764 0.0633967 -5.95254e-11)
(1.03276 0.0595717 4.6615e-10)
(1.00248 0.0475328 8.32342e-11)
(0.980051 0.0291742 -1.05411e-09)
(0.968805 0.00518306 -2.86778e-09)
(0.97261 -0.0226907 -5.00284e-09)
(0.993383 -0.0494948 -6.89139e-09)
(1.02814 -0.0678228 -8.18124e-09)
(1.06889 -0.0712994 -8.9353e-09)
(1.10552 -0.0580359 -9.35002e-09)
(1.12943 -0.0315942 -9.33093e-09)
(1.13612 0.000712337 -8.47212e-09)
(1.12567 0.0306457 -6.57738e-09)
(1.10191 0.0517047 -4.07075e-09)
(1.07075 0.0607977 -1.75896e-09)
(1.03834 0.0582308 -3.01589e-10)
(1.00996 0.0461361 7.93217e-11)
(0.990015 0.0266823 -4.46451e-10)
(0.98257 0.00182617 -1.4856e-09)
(0.99057 -0.0252238 -2.58907e-09)
(1.0138 -0.0490021 -3.42053e-09)
(1.04765 -0.0631439 -3.87132e-09)
(1.08415 -0.0632887 -4.04064e-09)
(1.11464 -0.049248 -4.1012e-09)
(1.13248 -0.0250199 -4.13507e-09)
(1.13473 0.00304219 -4.04405e-09)
(1.12236 0.0285178 -3.63509e-09)
(1.09928 0.046615 -2.8288e-09)
(1.07065 0.0548777 -1.78382e-09)
(1.04162 0.0529586 -8.16206e-10)
(1.01685 0.0418303 -1.9692e-10)
(1.0006 0.0231221 -3.89764e-12)
(0.996635 -0.000713405 -1.22924e-10)
(1.00695 -0.0256396 -3.59865e-10)
(1.0302 -0.0461111 -5.62162e-10)
(1.06137 -0.0567562 -6.72251e-10)
(1.09313 -0.0546495 -7.09006e-10)
(1.11821 -0.0405826 -7.20093e-10)
(1.13142 -0.0186137 -7.38585e-10)
(1.13078 0.0056585 -7.58696e-10)
(1.1176 0.0270079 -7.42533e-10)
(1.09557 0.0418466 -6.53215e-10)
(1.06931 0.0484746 -4.87561e-10)
(1.0434 0.0465604 -2.80063e-10)
(1.02202 0.0365185 -7.6027e-11)
(1.00907 0.019416 9.89415e-11)
(1.00779 -0.00245934 2.45964e-10)
(1.01949 -0.0250413 3.7671e-10)
(1.04231 -0.0430318 4.96231e-10)
(1.07128 -0.0516912 5.99743e-10)
(1.09977 -0.0487633 6.78103e-10)
(1.12149 -0.0353329 7.22367e-10)
(1.13214 -0.0152453 7.26209e-10)
(1.13023 0.00644277 6.88548e-10)
(1.11711 0.0251343 6.14835e-10)
(1.09614 0.0378116 5.14858e-10)
(1.07161 0.0432045 4.00554e-10)
(1.04773 0.0411729 2.87515e-10)
(1.02843 0.0320228 1.96129e-10)
(1.01732 0.0164768 1.46119e-10)
(1.01733 -0.00362639 1.46704e-10)
(1.02957 -0.0247067 1.91651e-10)
(1.0523 -0.0419262 2.63741e-10)
(1.08094 -0.0508217 3.43964e-10)
(1.10943 -0.0490578 4.18222e-10)
(1.13194 -0.0372627 4.78854e-10)
(1.14431 -0.0186527 5.2258e-10)
(1.14476 0.00219328 5.47431e-10)
(1.13407 0.0207838 5.50561e-10)
(1.11505 0.033892 5.27915e-10)
(1.09166 0.0400488 4.76284e-10)
(1.06799 0.0392022 3.97795e-10)
(1.04781 0.0319142 3.03923e-10)
(1.03452 0.0188447 2.14009e-10)
(1.0311 0.0010388 1.47177e-10)
(1.03942 -0.0192872 1.13544e-10)
(1.05914 -0.0384877 1.11387e-10)
(1.08723 -0.0523875 1.30968e-10)
(1.11867 -0.0578328 1.6071e-10)
(1.148 -0.0538632 1.91563e-10)
(1.1707 -0.0419016 2.18466e-10)
(1.18406 -0.0250852 2.39803e-10)
(1.18741 -0.00720534 2.56041e-10)
(1.18188 0.00830842 2.68216e-10)
(1.16996 0.0191053 2.76652e-10)
(1.15482 0.0242316 2.80239e-10)
(1.13955 0.0240343 2.76584e-10)
(1.1268 0.0197245 2.63256e-10)
(1.11827 0.0128999 2.39675e-10)
(1.11516 0.0051359 2.08366e-10)
(1.11714 -0.00200446 1.7445e-10)
(1.12407 -0.00733457 1.43655e-10)
(1.13256 -0.00953313 1.20214e-10)
(1.14289 -0.00898613 1.05742e-10)
(1.14751 -0.00455729 1.00406e-10)
(1.15405 -0.00118681 1.002e-10)
(1.14633 0.00817676 1.14426e-10)
(1.00013 -0.00277078 3.37377e-18)
(1.00182 -0.00807326 1.1632e-17)
(1.00554 -0.01333 1.44445e-17)
(1.01109 -0.0186668 3.66668e-18)
(1.01878 -0.0241602 4.89144e-17)
(1.02889 -0.0296571 -2.36384e-17)
(1.0417 -0.0347585 -9.65403e-18)
(1.0572 -0.0384756 7.50022e-17)
(1.07463 -0.0397061 4.65194e-16)
(1.09257 -0.0371491 2.04826e-16)
(1.10764 -0.030349 -1.27657e-15)
(1.11779 -0.0224405 -5.74991e-16)
(1.1234 -0.0152989 3.31417e-15)
(1.12596 -0.0110697 6.62048e-15)
(1.12842 -0.00962583 6.81942e-15)
(1.13286 -0.0086125 5.24361e-15)
(1.13897 -0.00436629 3.18361e-15)
(1.14315 0.00596556 1.44006e-15)
(1.14043 0.0214639 5.62724e-16)
(1.12815 0.0380658 -1.41124e-15)
(1.10717 0.0513472 -1.81158e-15)
(1.08058 0.0584058 2.80762e-15)
(1.05216 0.0580144 -3.16072e-14)
(1.02545 0.0499757 2.57517e-14)
(1.00381 0.0345809 3.7307e-13)
(0.990575 0.0125652 -2.0988e-12)
(0.989436 -0.0142746 -3.5126e-12)
(1.00379 -0.0416124 4.9956e-11)
(1.03385 -0.061842 1.91561e-10)
(1.07324 -0.0666611 2.88608e-10)
(1.10986 -0.0524036 2.20162e-10)
(1.13186 -0.0234466 8.58119e-11)
(1.13368 0.0102075 1.09432e-11)
(1.11741 0.038872 -5.26362e-12)
(1.08964 0.0573905 -2.73324e-12)
(1.0571 0.0650518 -4.27434e-12)
(1.02464 0.0631127 -1.34959e-12)
(0.995471 0.0526548 5.40448e-11)
(0.972345 0.0338612 1.01656e-10)
(0.958288 0.00676614 -4.46139e-10)
(0.956978 -0.026884 -2.75236e-09)
(0.972621 -0.0614275 -7.3089e-09)
(1.00734 -0.0868977 -1.26225e-08)
(1.05646 -0.0924233 -1.588e-08)
(1.10707 -0.0728882 -1.50106e-08)
(1.14284 -0.0338078 -1.05003e-08)
(1.15252 0.011113 -5.15534e-09)
(1.13592 0.0481234 -1.46038e-09)
(1.10217 0.0700479 9.2383e-11)
(1.06251 0.0768849 3.70903e-10)
(1.02476 0.0721286 2.83036e-10)
(0.992276 0.05895 -2.73982e-11)
(0.966379 0.0383858 -1.22415e-09)
(0.949828 0.00992112 -4.01998e-09)
(0.948356 -0.0256358 -8.1024e-09)
(0.967317 -0.0625882 -1.21279e-08)
(1.00582 -0.090195 -1.50448e-08)
(1.05499 -0.0976455 -1.68362e-08)
(1.10176 -0.0804201 -1.76799e-08)
(1.13425 -0.0430455 -1.69451e-08)
(1.14548 0.0030421 -1.3809e-08)
(1.13445 0.0445337 -8.835e-09)
(1.10594 0.0717139 -3.91943e-09)
(1.06824 0.0815836 -6.57992e-10)
(1.02957 0.0767686 5.5687e-10)
(0.995679 0.0615049 8.71721e-11)
(0.970477 0.0381093 -1.5955e-09)
(0.958371 0.00704602 -3.9437e-09)
(0.964102 -0.0294845 -6.20684e-09)
(0.989197 -0.0645259 -7.73301e-09)
(1.0291 -0.0879633 -8.39261e-09)
(1.07421 -0.0916292 -8.57196e-09)
(1.11347 -0.0736391 -8.76338e-09)
(1.13793 -0.0391555 -9.05469e-09)
(1.1432 0.0021675 -8.9115e-09)
(1.12997 0.0399242 -7.65908e-09)
(1.10292 0.0661975 -5.29333e-09)
(1.06856 0.0774026 -2.63687e-09)
(1.03334 0.0740496 -7.15016e-10)
(1.00273 0.0586639 -8.49237e-11)
(0.981717 0.0336423 -6.32792e-10)
(0.975078 0.00131917 -1.78891e-09)
(0.985961 -0.0338661 -2.9116e-09)