/*--------------------------------*- C++ -*----------------------------------*\
  =========                 |
  \\      /  F ield         | OpenFOAM: The Open Source CFD Toolbox
   \\    /   O peration     | Website:  https://openfoam.org
    \\  /    A nd           | Version:  11
     \\/     M anipulation  |
\*---------------------------------------------------------------------------*/
FoamFile
{
    format      ascii;
    class       volVectorField;
    location    "4.504506";
    object      U_0;
}
// * * * * * * * * * * * * * * * * * * * * * * * * * * * * * * * * * * * * * //

dimensions      [0 1 -1 0 0 0 0];

internalField   nonuniform List<vector> 
7132
(
(1.00014 -0.000289524 2.2747e-18)
(1.00224 -0.000873578 7.24544e-18)
(1.007 -0.00149351 7.55323e-18)
(1.01424 -0.00216123 9.21506e-18)
(1.02426 -0.00288013 1.14241e-17)
(1.03726 -0.0036303 1.18174e-17)
(1.05331 -0.00437251 1.11339e-17)
(1.07227 -0.00502917 1.02336e-17)
(1.09361 -0.00551682 9.51196e-18)
(1.11651 -0.00574644 9.04944e-18)
(1.13971 -0.0056669 8.66114e-18)
(1.162 -0.0053411 8.55462e-18)
(1.18255 -0.00482531 7.37243e-18)
(1.20069 -0.00417478 8.01988e-18)
(1.21601 -0.00343622 -3.35004e-18)
(1.22822 -0.00263637 -1.20842e-17)
(1.23713 -0.00179002 -2.19214e-17)
(1.24257 -0.000906394 -1.43111e-17)
(1.24441 2.3076e-06 -2.00846e-17)
(1.24257 0.000914298 -3.45706e-17)
(1.23709 0.00179496 -3.69743e-17)
(1.22817 0.00259994 -4.04172e-17)
(1.21622 0.00328252 -4.51323e-17)
(1.20181 0.00380354 -5.29046e-17)
(1.18566 0.00414006 -4.91904e-17)
(1.16855 0.00428957 -5.58164e-17)
(1.15122 0.00426873 -6.36343e-17)
(1.13429 0.00410785 -7.0521e-17)
(1.11826 0.00384395 -7.69606e-17)
(1.10347 0.00351435 -7.60657e-17)
(1.0901 0.00315216 -7.3589e-17)
(1.07822 0.00278381 -7.08355e-17)
(1.06781 0.00242848 -7.06341e-17)
(1.05879 0.00209858 -6.5486e-17)
(1.05103 0.00180095 -5.92241e-17)
(1.04439 0.00153827 -5.11493e-17)
(1.03873 0.00131033 -4.14461e-17)
(1.03392 0.00111511 -3.08294e-17)
(1.02982 0.000949643 -1.61062e-17)
(1.02633 0.000810548 2.8426e-19)
(1.02334 0.000694423 1.84705e-17)
(1.02078 0.000598045 3.72947e-17)
(1.01856 0.000518479 5.63281e-17)
(1.01663 0.000453103 7.70174e-17)
(1.01494 0.000399611 9.732e-17)
(1.01344 0.000355983 1.17348e-16)
(1.01209 0.000320465 1.36209e-16)
(1.01088 0.000291539 1.54057e-16)
(1.00976 0.000267913 1.71746e-16)
(1.00873 0.000248496 1.8668e-16)
(1.00777 0.000232388 1.98001e-16)
(1.00687 0.000218863 2.06894e-16)
(1.00602 0.000207345 2.13625e-16)
(1.00521 0.000197386 2.16572e-16)
(1.00444 0.000188642 2.16152e-16)
(1.0037 0.000180851 2.11827e-16)
(1.00299 0.000173815 2.04344e-16)
(1.00231 0.000167386 1.94187e-16)
(1.00165 0.000161449 1.79374e-16)
(1.00102 0.000155921 1.59542e-16)
(1.0004 0.000150733 1.33281e-16)
(0.999807 0.000145819 1.01134e-16)
(0.999232 0.000141107 6.33117e-17)
(0.998675 0.000136501 1.92773e-17)
(0.998137 0.000131879 -2.73224e-17)
(0.997617 0.000127102 -7.5405e-17)
(0.997117 0.000122037 -1.22055e-16)
(0.996637 0.000116595 -1.63665e-16)
(0.99618 0.000110739 -1.98662e-16)
(0.995747 0.00010444 -2.23878e-16)
(0.995339 9.75353e-05 -2.42614e-16)
(0.994961 8.94921e-05 -2.61019e-16)
(0.994618 7.91618e-05 -2.891e-16)
(0.994321 6.4669e-05 -3.40576e-16)
(0.994092 4.36225e-05 -4.24362e-16)
(0.993962 1.3759e-05 -5.47089e-16)
(0.993969 -2.60421e-05 -7.06463e-16)
(0.994154 -7.46618e-05 -8.95019e-16)
(0.994547 -0.000128021 -1.10732e-15)
(0.995157 -0.000179197 -1.33981e-15)
(0.995958 -0.000219605 -1.59638e-15)
(0.996892 -0.000241069 -1.87533e-15)
(0.997867 -0.0002382 -2.15852e-15)
(0.998782 -0.000210255 -2.40532e-15)
(0.999538 -0.000161756 -2.5536e-15)
(1.00007 -0.000101546 -2.54786e-15)
(1.00035 -4.05552e-05 -2.36572e-15)
(1.00039 1.10011e-05 -2.04554e-15)
(1.00026 4.60456e-05 -1.69188e-15)
(1.00002 6.19623e-05 -1.44256e-15)
(0.99976 6.05231e-05 -1.42082e-15)
(0.999534 4.66492e-05 -1.67332e-15)
(0.999383 2.65823e-05 -2.13736e-15)
(0.999319 6.12315e-06 -2.65588e-15)
(0.999333 -1.05723e-05 -3.02533e-15)
(0.999403 -2.14447e-05 -3.07738e-15)
(0.999505 -2.63245e-05 -2.74161e-15)
(0.999615 -2.63258e-05 -2.06995e-15)
(0.999716 -2.31404e-05 -1.21933e-15)
(0.999801 -1.84506e-05 -3.86469e-16)
(0.999865 -1.35713e-05 2.56084e-16)
(0.99991 -9.32047e-06 6.13572e-16)
(0.99994 -6.05632e-06 6.8752e-16)
(0.999958 -3.80188e-06 5.52343e-16)
(0.99997 -2.38824e-06 3.20772e-16)
(0.999977 -1.57574e-06 9.50694e-17)
(0.999982 -1.13551e-06 -6.05911e-17)
(0.999986 -8.91607e-07 -1.26563e-16)
(0.999989 -7.31936e-07 -1.21939e-16)
(0.999992 -5.99699e-07 -7.88096e-17)
(0.999994 -4.75927e-07 -2.95116e-17)
(0.999996 -3.61409e-07 5.62945e-18)
(0.999997 -2.62873e-07 2.17681e-17)
(0.999998 -1.85155e-07 2.09973e-17)
(0.999999 -1.2865e-07 1.2855e-17)
(0.999999 -9.01005e-08 4.15362e-18)
(0.999999 -6.46429e-08 -1.65788e-18)
(0.999999 -4.7651e-08 -2.90945e-18)
(1 -3.5713e-08 -2.78435e-18)
(1 -2.67848e-08 -1.54397e-18)
(1 -1.98446e-08 3.10277e-19)
(1 -1.44375e-08 1.02784e-18)
(1 -1.03176e-08 1.22007e-18)
(1 -7.27342e-09 4.58906e-19)
(1 -5.07787e-09 -1.51432e-20)
(1 -3.51316e-09 4.52191e-19)
(1 -2.39329e-09 5.17744e-19)
(1 -1.58351e-09 6.59566e-19)
(1 -9.90038e-10 1.26432e-19)
(1 -5.54597e-10 -1.05669e-19)
(1 -2.3528e-10 4.97757e-19)
(1 -4.91683e-12 5.90807e-19)
(1 1.60311e-10 6.99984e-19)
(1 2.7589e-10 1.21773e-19)
(1 3.56845e-10 -1.42369e-19)
(1 4.11096e-10 4.46821e-19)
(1 4.47654e-10 5.37872e-19)
(1 4.69692e-10 6.50275e-19)
(1 4.82849e-10 7.60486e-20)
(1 4.87844e-10 -1.851e-19)
(1 4.88663e-10 4.0581e-19)
(1 4.84757e-10 4.97445e-19)
(1 4.79251e-10 6.09491e-19)
(1 4.70883e-10 3.42739e-20)
(1 4.62313e-10 -2.27986e-19)
(1 4.51868e-10 3.62328e-19)
(1 4.41974e-10 4.54432e-19)
(1 4.30719e-10 5.6826e-19)
(1 4.20436e-10 -4.0134e-21)
(1 4.09035e-10 -2.62655e-19)
(1 3.98896e-10 3.31314e-19)
(1 3.87645e-10 4.26532e-19)
(1 3.78097e-10 5.42607e-19)
(1 3.66819e-10 -2.84498e-20)
(1 3.58865e-10 -2.86241e-19)
(1 3.45847e-10 3.06304e-19)
(1 3.44135e-10 4.0854e-19)
(1 3.20499e-10 4.91837e-19)
(1 3.46726e-10 7.46783e-20)
(1 2.81418e-10 -8.98336e-19)
(1.00014 -0.000865698 3.56455e-20)
(1.00222 -0.00261341 3.52557e-19)
(1.00694 -0.00446997 6.95756e-19)
(1.01413 -0.0064737 1.07071e-18)
(1.02412 -0.00863572 1.48908e-18)
(1.03711 -0.0108975 1.88968e-18)
(1.05322 -0.0131418 2.25867e-18)
(1.07232 -0.0151323 2.06307e-18)
(1.09389 -0.0166146 5.76135e-18)
(1.11708 -0.0173111 7.06807e-18)
(1.14057 -0.0170636 4.08519e-18)
(1.16309 -0.0160731 4.17354e-18)
(1.18381 -0.0145123 -3.58877e-20)
(1.20208 -0.0125498 1.30799e-17)
(1.21748 -0.0103274 4.80859e-17)
(1.22975 -0.00792429 9.10537e-17)
(1.23871 -0.00538303 1.17645e-16)
(1.24418 -0.00272871 1.09921e-16)
(1.24603 4.55493e-06 6.62674e-17)
(1.24418 0.00275229 6.17003e-18)
(1.23864 0.00540987 -5.85147e-17)
(1.22962 0.00784143 -1.19821e-16)
(1.21752 0.00990333 -1.72538e-16)
(1.20293 0.0114752 -2.1422e-16)
(1.1866 0.0124868 -2.43197e-16)
(1.1693 0.0129312 -2.60037e-16)
(1.1518 0.01286 -2.65547e-16)
(1.13474 0.0123662 -2.60705e-16)
(1.11862 0.0115631 -2.46563e-16)
(1.10377 0.0105638 -2.2426e-16)
(1.09038 0.00946855 -1.89232e-16)
(1.0785 0.00835695 -1.55949e-16)
(1.0681 0.00728635 -1.16784e-16)
(1.0591 0.00629369 -6.91085e-17)
(1.05137 0.00539916 -1.90426e-17)
(1.04476 0.0046104 3.95919e-17)
(1.03913 0.00392647 9.85878e-17)
(1.03434 0.00334111 1.58512e-16)
(1.03027 0.00284518 2.21008e-16)
(1.02679 0.00242846 2.82627e-16)
(1.02382 0.00208065 3.44868e-16)
(1.02127 0.00179204 4.0144e-16)
(1.01907 0.00155381 4.53151e-16)
(1.01715 0.00135809 5.00038e-16)
(1.01546 0.00119796 5.40677e-16)
(1.01397 0.00106738 5.76276e-16)
(1.01263 0.000961084 6.02774e-16)
(1.01141 0.000874535 6.21966e-16)
(1.0103 0.000803853 6.33349e-16)
(1.00927 0.000745774 6.33968e-16)
(1.00831 0.000697602 6.24936e-16)
(1.00741 0.000657158 6.04717e-16)
(1.00655 0.000622717 5.73432e-16)
(1.00574 0.000592938 5.32812e-16)
(1.00497 0.000566792 4.82596e-16)
(1.00422 0.000543497 4.25785e-16)
(1.00351 0.000522461 3.61223e-16)
(1.00283 0.000503238 2.88158e-16)
(1.00216 0.000485492 2.05913e-16)
(1.00152 0.000468971 1.12092e-16)
(1.0009 0.00045347 8.15762e-18)
(1.00031 0.000438802 -1.06538e-16)
(0.999726 0.000424748 -2.29395e-16)
(0.999163 0.000411029 -3.56803e-16)
(0.998619 0.000397281 -4.8158e-16)
(0.998093 0.000383089 -5.95777e-16)
(0.997585 0.000368054 -6.95948e-16)
(0.997098 0.000351896 -7.72681e-16)
(0.996633 0.000334498 -8.24675e-16)
(0.996191 0.000315773 -8.54509e-16)
(0.995774 0.000295253 -8.74786e-16)
(0.995385 0.000271394 -9.13267e-16)
(0.995031 0.000240833 -9.99312e-16)
(0.994722 0.000198044 -1.16892e-15)
(0.994478 0.000135929 -1.44772e-15)
(0.994329 4.76952e-05 -1.84685e-15)
(0.994314 -7.01355e-05 -2.3655e-15)
(0.99447 -0.000214445 -2.98829e-15)
(0.99483 -0.000373317 -3.70883e-15)
(0.995402 -0.000526296 -4.52579e-15)
(0.996163 -0.000647831 -5.4343e-15)
(0.997056 -0.000713414 -6.4024e-15)
(0.997994 -0.000706685 -7.33353e-15)
(0.998875 -0.000625061 -8.07518e-15)
(0.999605 -0.000481682 -8.448e-15)
(1.00011 -0.000302718 -8.32229e-15)
(1.00038 -0.000120749 -7.70182e-15)
(1.00041 3.35785e-05 -6.76016e-15)
(1.00027 0.000138858 -5.83231e-15)
(1.00003 0.00018697 -5.30574e-15)
(0.999759 0.000182963 -5.47179e-15)
(0.99953 0.000141423 -6.38556e-15)
(0.999376 8.10231e-05 -7.79244e-15)
(0.999311 1.92247e-05 -9.19544e-15)
(0.999325 -3.13746e-05 -1.00196e-14)
(0.999397 -6.44586e-05 -9.8303e-15)
(0.999501 -7.94179e-05 -8.49749e-15)
(0.999614 -7.95574e-05 -6.24036e-15)
(0.999717 -6.99724e-05 -3.55098e-15)
(0.999803 -5.57681e-05 -1.01308e-15)
(0.999868 -4.09571e-05 8.90523e-16)
(0.999913 -2.8048e-05 1.91425e-15)
(0.999942 -1.81469e-05 2.09037e-15)
(0.99996 -1.13296e-05 1.65968e-15)
(0.999971 -7.07913e-06 9.55751e-16)
(0.999978 -4.65855e-06 2.7925e-16)
(0.999983 -3.36406e-06 -1.84604e-16)
(0.999986 -2.65588e-06 -3.82146e-16)
(0.999989 -2.19234e-06 -3.66829e-16)
(0.999992 -1.80272e-06 -2.38036e-16)
(0.999994 -1.43255e-06 -9.05574e-17)
(0.999996 -1.08725e-06 1.51174e-17)
(0.999997 -7.89356e-07 6.29605e-17)
(0.999998 -5.54623e-07 6.31159e-17)
(0.999999 -3.84509e-07 3.94823e-17)
(0.999999 -2.68979e-07 1.33855e-17)
(0.999999 -1.93045e-07 -4.58066e-18)
(0.999999 -1.42514e-07 -1.02692e-17)
(1 -1.07004e-07 -8.66032e-18)
(1 -8.03662e-08 -4.43392e-18)
(1 -5.95875e-08 6.69709e-20)
(1 -4.33606e-08 1.54817e-18)
(1 -3.09895e-08 1.74854e-18)
(1 -2.18541e-08 1.20393e-18)
(1 -1.52754e-08 3.87593e-19)
(1 -1.05919e-08 6.60159e-19)
(1 -7.24307e-09 8.14453e-20)
(1 -4.81979e-09 5.75837e-20)
(1 -3.04345e-09 1.70801e-19)
(1 -1.73758e-09 8.80311e-20)
(1 -7.80351e-10 7.91528e-19)
(1 -8.81489e-11 3.20047e-19)
(1 4.07517e-10 2.2034e-19)
(1 7.55826e-10 2.17518e-19)
(1 9.98916e-10 5.52265e-20)
(1 1.16359e-09 7.29296e-19)
(1 1.27377e-09 2.60442e-19)
(1 1.34207e-09 1.73668e-19)
(1 1.38219e-09 1.81334e-19)
(1 1.39948e-09 2.37461e-20)
(1 1.40262e-09 6.98265e-19)
(1 1.39324e-09 2.27968e-19)
(1 1.37738e-09 1.39323e-19)
(1 1.35462e-09 1.45275e-19)
(1 1.32952e-09 -1.35919e-20)
(1 1.3005e-09 6.60397e-19)
(1 1.27138e-09 1.90655e-19)
(1 1.2399e-09 1.03801e-19)
(1 1.20955e-09 1.12604e-19)
(1 1.17757e-09 -4.28317e-20)
(1 1.14758e-09 6.34546e-19)
(1 1.11598e-09 1.67597e-19)
(1 1.08766e-09 8.26426e-20)
(1 1.05598e-09 9.23365e-20)
(1 1.03228e-09 -6.26179e-20)
(1 9.9572e-10 6.13326e-19)
(1 9.89851e-10 1.52018e-19)
(1 9.23565e-10 3.90108e-20)
(1 9.95548e-10 1.8205e-19)
(1 8.13851e-10 -6.08926e-19)
(1.00014 -0.00143389 6.72368e-22)
(1.00218 -0.00433063 3.84782e-21)
(1.00682 -0.00741444 1.09547e-21)
(1.01391 -0.0107551 9.13633e-21)
(1.02382 -0.0143758 -1.55386e-19)
(1.0368 -0.0181833 2.50879e-19)
(1.05302 -0.0219843 -8.48013e-19)
(1.07239 -0.0253721 -1.54297e-18)
(1.09442 -0.02791 6.54307e-18)
(1.11821 -0.0290975 -1.40616e-18)
(1.1423 -0.0286541 -3.92306e-17)
(1.16528 -0.0269576 -2.97028e-17)
(1.18634 -0.0243099 1.1313e-16)
(1.20485 -0.0210013 3.49516e-16)
(1.22041 -0.0172718 5.10909e-16)
(1.2328 -0.0132506 4.30241e-16)
(1.24185 -0.00900366 6.97202e-17)
(1.24739 -0.00456679 -4.57896e-16)
(1.24928 7.52063e-06 -9.33105e-16)
(1.24739 0.00461378 -1.2894e-15)
(1.24174 0.00907594 -1.50527e-15)
(1.23251 0.0131627 -1.58743e-15)
(1.22011 0.016628 -1.55803e-15)
(1.20515 0.0192652 -1.44475e-15)
(1.18842 0.0209539 -1.27385e-15)
(1.17073 0.0216831 -1.06637e-15)
(1.1529 0.0215424 -8.37373e-16)
(1.13558 0.020692 -5.96859e-16)
(1.11927 0.019325 -3.51163e-16)
(1.1043 0.017634 -1.04596e-16)
(1.09085 0.0157879 1.40906e-16)
(1.07897 0.0139201 3.8249e-16)
(1.0686 0.0121258 6.18522e-16)
(1.05964 0.0104659 8.4839e-16)
(1.05197 0.00897279 1.07068e-15)
(1.04542 0.00765834 1.28426e-15)
(1.03985 0.00652007 1.4863e-15)
(1.03511 0.00554687 1.67298e-15)
(1.03109 0.00472308 1.84013e-15)
(1.02766 0.00403132 1.98308e-15)
(1.02473 0.00345426 2.09796e-15)
(1.02221 0.00297565 2.18134e-15)
(1.02003 0.00258073 2.23151e-15)
(1.01813 0.00225642 2.24865e-15)
(1.01646 0.0019912 2.23425e-15)
(1.01497 0.00177501 2.1904e-15)
(1.01364 0.00159911 2.11798e-15)
(1.01243 0.00145595 2.01653e-15)
(1.01132 0.00133907 1.88447e-15)
(1.0103 0.00124305 1.7198e-15)
(1.00934 0.00116341 1.52316e-15)
(1.00843 0.00109654 1.29642e-15)
(1.00758 0.00103957 1.04361e-15)
(1.00676 0.000990304 7.72351e-16)
(1.00598 0.000947032 4.87339e-16)
(1.00524 0.000908473 1.92101e-16)
(1.00452 0.000873651 -1.14337e-16)
(1.00382 0.000841834 -4.35213e-16)
(1.00315 0.000812473 -7.71831e-16)
(1.00251 0.000785154 -1.12562e-15)
(1.00188 0.00075955 -1.49282e-15)
(1.00127 0.000735355 -1.86656e-15)
(1.00068 0.00071222 -2.23367e-15)
(1.00011 0.000689689 -2.57616e-15)
(0.999555 0.000667165 -2.87448e-15)
(0.999017 0.000643955 -3.10534e-15)
(0.998497 0.000619385 -3.25292e-15)
(0.997995 0.000592971 -3.30895e-15)
(0.997514 0.000564491 -3.28204e-15)
(0.997056 0.000533791 -3.20738e-15)
(0.996621 0.000500116 -3.14797e-15)
(0.996214 0.000460993 -3.20003e-15)
(0.995839 0.000410997 -3.47454e-15)
(0.995507 0.000341154 -4.07588e-15)
(0.995237 0.000239858 -5.07775e-15)
(0.995056 9.58937e-05 -6.50537e-15)
(0.995001 -9.66534e-05 -8.35086e-15)
(0.99511 -0.000332971 -1.05953e-14)
(0.995412 -0.000593807 -1.32329e-14)
(0.995917 -0.000845775 -1.62577e-14)
(0.996605 -0.00104689 -1.95947e-14)
(0.997421 -0.00115665 -2.3021e-14)
(0.998283 -0.00114774 -2.61121e-14)
(0.999094 -0.00101546 -2.83006e-14)
(0.99976 -0.000781055 -2.9058e-14)
(1.00022 -0.00048746 -2.81425e-14)
(1.00044 -0.000188398 -2.58156e-14)
(1.00044 6.53781e-05 -2.28851e-14)
(1.00028 0.00023824 -2.05348e-14)
(1.00002 0.000316486 -1.99459e-14)
(0.999743 0.000308277 -2.18205e-14)
(0.999509 0.000237698 -2.59961e-14)
(0.999355 0.000135765 -3.13356e-14)
(0.999293 3.16121e-05 -3.60109e-14)
(0.999311 -5.36453e-05 -3.81193e-14)
(0.999389 -0.00010935 -3.63918e-14)
(0.999499 -0.000134418 -3.06646e-14)
(0.999616 -0.000134392 -2.19454e-14)
(0.999723 -0.000117885 -1.20612e-14)
(0.999811 -9.35773e-05 -3.03674e-15)
(0.999876 -6.83169e-05 3.54373e-15)
(0.99992 -4.63932e-05 6.95493e-15)
(0.999947 -2.96875e-05 7.40604e-15)
(0.999964 -1.83022e-05 5.79652e-15)
(0.999973 -1.13143e-05 3.29641e-15)
(0.999979 -7.42642e-06 9.33915e-16)
(0.999983 -5.41028e-06 -6.66991e-16)
(0.999987 -4.3352e-06 -1.34358e-15)
(0.99999 -3.62393e-06 -1.28324e-15)
(0.999992 -2.99982e-06 -8.3231e-16)
(0.999994 -2.38623e-06 -3.18713e-16)
(0.999996 -1.80537e-06 5.2343e-17)
(0.999997 -1.30339e-06 2.18536e-16)
(0.999998 -9.1007e-07 2.20005e-16)
(0.999999 -6.27851e-07 1.38386e-16)
(0.999999 -4.3847e-07 4.68986e-17)
(0.999999 -3.15326e-07 -1.39689e-17)
(0.999999 -2.33786e-07 -3.61682e-17)
(1 -1.76283e-07 -3.13761e-17)
(1 -1.32753e-07 -1.62182e-17)
(1 -9.85093e-08 -2.65334e-18)
(1 -7.16506e-08 4.38003e-18)
(1 -5.11747e-08 5.52118e-18)
(1 -3.60964e-08 3.64035e-18)
(1 -2.528e-08 1.29145e-18)
(1 -1.76014e-08 -1.07848e-19)
(1 -1.2117e-08 -5.16773e-19)
(1 -8.14281e-09 -3.31113e-19)
(1 -5.22389e-09 1.45728e-20)
(1 -3.07239e-09 2.26987e-19)
(1 -1.49392e-09 3.60103e-19)
(1 -3.50616e-10 3.53876e-19)
(1 4.67764e-10 2.95047e-19)
(1 1.04464e-09 2.5002e-19)
(1 1.44737e-09 1.9694e-19)
(1 1.72259e-09 2.38045e-19)
(1 1.9072e-09 2.4881e-19)
(1 2.0243e-09 2.38414e-19)
(1 2.09389e-09 2.28704e-19)
(1 2.12718e-09 1.87876e-19)
(1 2.13592e-09 2.26072e-19)
(1 2.12534e-09 2.29179e-19)
(1 2.10277e-09 2.12416e-19)
(1 2.07009e-09 1.99146e-19)
(1 2.03222e-09 1.56943e-19)
(1 1.98916e-09 1.95135e-19)
(1 1.94453e-09 1.99263e-19)
(1 1.89728e-09 1.84479e-19)
(1 1.85045e-09 1.73992e-19)
(1 1.80225e-09 1.34966e-19)
(1 1.75583e-09 1.7617e-19)
(1 1.70809e-09 1.8264e-19)
(1 1.66417e-09 1.69268e-19)
(1 1.61625e-09 1.59236e-19)
(1 1.57941e-09 1.20131e-19)
(1 1.52418e-09 1.60329e-19)
(1 1.51397e-09 1.68162e-19)
(1 1.41521e-09 1.47345e-19)
(1 1.51745e-09 1.61687e-19)
(1 1.2519e-09 5.55336e-20)
(1.00014 -0.00198853 -2.54641e-20)
(1.00211 -0.00600844 -4.89394e-19)
(1.00662 -0.0103032 -8.55429e-19)
(1.01356 -0.0149809 -1.6786e-18)
(1.02334 -0.0200856 -1.79972e-18)
(1.03629 -0.025496 -1.72963e-18)
(1.05265 -0.0309461 -1.1446e-17)
(1.07242 -0.0358415 1.85165e-17)
(1.09515 -0.0395426 3.37828e-18)
(1.1199 -0.0412619 -1.44625e-16)
(1.14489 -0.0405705 -2.17052e-17)
(1.16857 -0.0380951 6.991e-16)
(1.19015 -0.0342884 1.34563e-15)
(1.209 -0.0295764 7.24995e-16)
(1.2248 -0.0243041 -1.77307e-15)
(1.23736 -0.018645 -5.57707e-15)
(1.24655 -0.0126787 -9.28046e-15)
(1.25219 -0.00644023 -1.14817e-14)
(1.25413 9.69764e-06 -1.13311e-14)
(1.25221 0.00652726 -9.98926e-15)
(1.24639 0.0128601 -8.01861e-15)
(1.23684 0.0186696 -5.80138e-15)
(1.22398 0.0235934 -3.60389e-15)
(1.20845 0.0273273 -1.58767e-15)
(1.19111 0.0296962 1.73693e-16)
(1.17284 0.0306873 1.66854e-15)
(1.1545 0.0304357 2.92198e-15)
(1.13678 0.0291782 3.97304e-15)
(1.12018 0.0271965 4.86028e-15)
(1.10505 0.0247683 5.61411e-15)
(1.09152 0.0221345 6.26232e-15)
(1.07962 0.0194832 6.80764e-15)
(1.0693 0.0169469 7.27047e-15)
(1.06042 0.0146087 7.66355e-15)
(1.05283 0.0125118 7.98504e-15)
(1.04637 0.0106704 8.23872e-15)
(1.04089 0.00907909 8.40801e-15)
(1.03623 0.00772084 8.48262e-15)
(1.03228 0.00657268 8.45231e-15)
(1.02892 0.00560958 8.30487e-15)
(1.02604 0.0048069 8.03865e-15)
(1.02357 0.00414167 7.64992e-15)
(1.02143 0.00359315 7.1485e-15)
(1.01956 0.00314301 6.5477e-15)
(1.01791 0.00277515 5.86199e-15)
(1.01645 0.00247552 5.1067e-15)
(1.01513 0.00223192 4.28698e-15)
(1.01393 0.00203381 3.40804e-15)
(1.01283 0.00187218 2.46951e-15)
(1.0118 0.00173944 1.47064e-15)
(1.01084 0.00162936 4.21416e-16)
(1.00994 0.00153692 -6.62895e-16)
(1.00908 0.00145814 -1.76091e-15)
(1.00826 0.00138998 -2.8509e-15)
(1.00747 0.00133009 -3.921e-15)
(1.00672 0.00127671 -4.96668e-15)
(1.00599 0.0012285 -5.99606e-15)
(1.00529 0.00118446 -7.01919e-15)
(1.00461 0.00114383 -8.04007e-15)
(1.00395 0.00110606 -9.05229e-15)
(1.00331 0.00107072 -1.00302e-14)
(1.00269 0.00103739 -1.09356e-14)
(1.00209 0.00100561 -1.17158e-14)
(1.0015 0.000974764 -1.23109e-14)
(1.00093 0.000944031 -1.26591e-14)
(1.00038 0.000912441 -1.27083e-14)
(0.999839 0.000879036 -1.24354e-14)
(0.999317 0.0008431 -1.18536e-14)
(0.998814 0.000804276 -1.10467e-14)
(0.998331 0.000762316 -1.01817e-14)
(0.997871 0.0007162 -9.51798e-15)
(0.997436 0.00066262 -9.3888e-15)
(0.997032 0.000594294 -1.01356e-14)
(0.996667 0.000499095 -1.2045e-14)
(0.996359 0.000361225 -1.52832e-14)
(0.996134 0.000165267 -1.98932e-14)
(0.996025 -9.71344e-05 -2.58571e-14)
(0.996066 -0.000419803 -3.31569e-14)
(0.996287 -0.000776805 -4.17963e-14)
(0.996696 -0.00112268 -5.16729e-14)
(0.997277 -0.00139989 -6.23378e-14)
(0.99798 -0.00155258 -7.27739e-14)
(0.998728 -0.00154275 -8.13902e-14)
(0.999429 -0.00136342 -8.6417e-14)
(0.999997 -0.00104343 -8.6607e-14)
(1.00037 -0.000641659 -8.19888e-14)
(1.00052 -0.000232202 -7.42864e-14)
(1.00048 0.000114734 -6.67045e-14)
(1.00028 0.000349699 -6.30832e-14)
(0.999996 0.000453554 -6.66288e-14)
(0.999707 0.000437517 -7.85556e-14)
(0.999469 0.000335047 -9.71261e-14)
(0.999317 0.000189391 -1.17629e-13)
(0.99926 4.1314e-05 -1.3359e-13)
(0.999288 -7.95315e-05 -1.38899e-13)
(0.999376 -0.000158128 -1.30058e-13)
(0.999496 -0.000192962 -1.07462e-13)
(0.999621 -0.000191949 -7.53029e-14)
(0.999734 -0.000167448 -4.01835e-14)
(0.999824 -0.000131956 -8.97004e-15)
(0.999889 -9.53677e-05 1.32462e-14)
(0.999931 -6.38722e-05 2.43817e-14)
(0.999956 -4.01437e-05 2.54589e-14)
(0.99997 -2.42447e-05 1.96934e-14)
(0.999977 -1.47368e-05 1.10825e-14)
(0.999981 -9.65089e-06 3.0605e-15)
(0.999984 -7.15245e-06 -2.32896e-15)
(0.999987 -5.87872e-06 -4.58306e-15)
(0.99999 -5.01216e-06 -4.35785e-15)
(0.999993 -4.18795e-06 -2.82449e-15)
(0.999995 -3.3325e-06 -1.08463e-15)
(0.999996 -2.50636e-06 1.72547e-16)
(0.999998 -1.79224e-06 7.38924e-16)
(0.999998 -1.23855e-06 7.47239e-16)
(0.999999 -8.47933e-07 4.72449e-16)
(0.999999 -5.90942e-07 1.62199e-16)
(0.999999 -4.26698e-07 -4.6168e-17)
(0.999999 -3.18692e-07 -1.22585e-16)
(1 -2.41931e-07 -1.07286e-16)
(1 -1.82879e-07 -5.6164e-17)
(1 -1.35786e-07 -9.38286e-18)
(1 -9.86231e-08 1.43147e-17)
(1 -7.03183e-08 1.83297e-17)
(1 -4.95841e-08 1.2001e-17)
(1 -3.48063e-08 3.9403e-18)
(1 -2.43647e-08 -3.7564e-19)
(1 -1.69154e-08 -2.36511e-18)
(1 -1.15052e-08 -1.86329e-18)
(1 -7.51664e-09 -6.88997e-19)
(1 -4.56676e-09 2.8916e-20)
(1 -2.39866e-09 1.03603e-18)
(1 -8.26945e-10 5.08215e-19)
(1 2.98383e-10 2.33303e-19)
(1 1.09294e-09 1.06085e-19)
(1 1.64927e-09 -6.33386e-20)
(1 2.032e-09 6.44167e-19)
(1 2.29105e-09 1.8687e-19)
(1 2.45833e-09 8.69338e-20)
(1 2.56049e-09 8.61753e-20)
(1 2.61329e-09 -3.85448e-20)
(1 2.63223e-09 6.60784e-19)
(1 2.62495e-09 1.79823e-19)
(1 2.60097e-09 6.21514e-20)
(1 2.56338e-09 5.42708e-20)
(1 2.51833e-09 -7.04943e-20)
(1 2.46634e-09 6.3146e-19)
(1 2.41183e-09 1.53484e-19)
(1 2.35388e-09 3.86948e-20)
(1 2.29612e-09 3.37717e-20)
(1 2.23661e-09 -8.79661e-20)
(1 2.1791e-09 6.1675e-19)
(1 2.11998e-09 1.40843e-19)
(1 2.0655e-09 2.71993e-20)
(1 2.00606e-09 2.24555e-20)
(1 1.96026e-09 -9.9434e-20)
(1 1.89201e-09 6.0342e-19)
(1 1.87786e-09 1.3249e-19)
(1 1.75897e-09 -8.25891e-21)
(1 1.87288e-09 1.14782e-19)
(1 1.56284e-09 -6.21705e-19)
(1.00013 -0.00252283 -2.20315e-18)
(1.00202 -0.00762746 -7.31586e-18)
(1.00634 -0.0131074 -6.13362e-18)
(1.01306 -0.0191197 -9.61239e-18)
(1.02264 -0.0257413 3.18225e-19)
(1.0355 -0.0328348 -3.07224e-17)
(1.05203 -0.0400689 2.26063e-17)
(1.07234 -0.046636 8.34447e-17)
(1.09604 -0.0516665 -4.53275e-16)
(1.12211 -0.0539782 5.39168e-17)
(1.14837 -0.0529535 2.52024e-15)
(1.17299 -0.0495882 2.51806e-15)
(1.19524 -0.0445161 -5.49594e-15)
(1.21454 -0.0383177 -2.11666e-14)
(1.23063 -0.0314499 -3.76221e-14)
(1.24341 -0.0241229 -4.64778e-14)
(1.25277 -0.0164187 -4.31347e-14)
(1.25857 -0.0083574 -2.86501e-14)
(1.2606 1.51039e-06 -8.81653e-15)
(1.25864 0.00848398 1.01468e-14)
(1.25261 0.0167586 2.57398e-14)
(1.24263 0.0243692 3.71598e-14)
(1.22913 0.0308204 4.45515e-14)
(1.21283 0.0356945 4.85832e-14)
(1.19465 0.0387528 5.01153e-14)
(1.17558 0.0399817 4.99547e-14)
(1.15655 0.0395705 4.87839e-14)
(1.13828 0.0378444 4.70697e-14)
(1.12132 0.035185 4.51132e-14)
(1.10596 0.0319634 4.30785e-14)
(1.09234 0.0284968 4.10324e-14)
(1.08044 0.0250293 3.89999e-14)
(1.07018 0.0217299 3.69835e-14)
(1.0614 0.0187018 3.49655e-14)
(1.05393 0.0159965 3.29221e-14)
(1.0476 0.0136284 3.08084e-14)
(1.04224 0.0115874 2.85645e-14)
(1.0377 0.00984901 2.61309e-14)
(1.03384 0.00838206 2.3459e-14)
(1.03056 0.00715326 2.05302e-14)
(1.02776 0.00613028 1.73513e-14)
(1.02535 0.0052833 1.39546e-14)
(1.02325 0.00458555 1.03899e-14)
(1.02143 0.00401347 6.71448e-15)
(1.01982 0.00354641 2.98598e-15)
(1.01838 0.00316639 -7.53535e-16)
(1.01708 0.00285777 -4.48125e-15)
(1.01589 0.00260704 -8.19175e-15)
(1.0148 0.00240263 -1.18841e-14)
(1.01378 0.00223486 -1.55423e-14)
(1.01282 0.00209574 -1.91286e-14)
(1.01191 0.00197886 -2.25899e-14)
(1.01105 0.00187921 -2.5868e-14)
(1.01022 0.00179292 -2.89196e-14)
(1.00943 0.00171707 -3.17391e-14)
(1.00866 0.00164943 -3.43494e-14)
(1.00793 0.00158833 -3.67942e-14)
(1.00721 0.00153253 -3.91057e-14)
(1.00652 0.0014811 -4.12761e-14)
(1.00585 0.00143334 -4.32489e-14)
(1.0052 0.00138873 -4.49101e-14)
(1.00456 0.0013468 -4.61089e-14)
(1.00394 0.00130698 -4.66693e-14)
(1.00333 0.00126851 -4.64147e-14)
(1.00274 0.00123035 -4.5196e-14)
(1.00217 0.00119127 -4.29179e-14)
(1.0016 0.00115 -3.95942e-14)
(1.00105 0.00110557 -3.53921e-14)
(1.00052 0.00105744 -3.06979e-14)
(1.00001 0.00100523 -2.61558e-14)
(0.999513 0.000947675 -2.26433e-14)
(0.999043 0.000880742 -2.11756e-14)
(0.9986 0.000795548 -2.26995e-14)
(0.998193 0.000677203 -2.78843e-14)
(0.997837 0.000506158 -3.70038e-14)
(0.997555 0.000263142 -5.00159e-14)
(0.997375 -6.25768e-05 -6.68329e-14)
(0.99733 -0.000463818 -8.74722e-14)
(0.997445 -0.000908781 -1.1189e-13)
(0.997731 -0.00134109 -1.39453e-13)
(0.998172 -0.00168889 -1.6818e-13)
(0.998725 -0.00188198 -1.94337e-13)
(0.99932 -0.00187225 -2.12945e-13)
(0.999874 -0.00165033 -2.19468e-13)
(1.00031 -0.001252 -2.1212e-13)
(1.00057 -0.000751118 -1.93734e-13)
(1.00063 -0.000240981 -1.72142e-13)
(1.00051 0.000189745 -1.58508e-13)
(1.00026 0.000478475 -1.6403e-13)
(0.999951 0.000600958 -1.96198e-13)
(0.999647 0.000571505 -2.55187e-13)
(0.999405 0.000432815 -3.31766e-13)
(0.999257 0.000240225 -4.08199e-13)
(0.999211 4.60544e-05 -4.62741e-13)
(0.999254 -0.000111524 -4.76628e-13)
(0.999357 -0.000213153 -4.40831e-13)
(0.999492 -0.000257 -3.59352e-13)
(0.999629 -0.000253597 -2.48065e-13)
(0.999749 -0.000219385 -1.29615e-13)
(0.999843 -0.000171052 -2.63985e-14)
(0.999907 -0.000121831 4.57353e-14)
(0.999947 -7.99703e-05 8.09851e-14)
(0.999968 -4.89426e-05 8.34656e-14)
(0.999977 -2.86552e-05 6.40536e-14)
(0.999981 -1.6981e-05 3.58056e-14)
(0.999983 -1.11117e-05 9.74314e-15)
(0.999985 -8.48675e-06 -7.66557e-15)
(0.999988 -7.25576e-06 -1.49083e-14)
(0.99999 -6.3594e-06 -1.41483e-14)
(0.999993 -5.37541e-06 -9.1745e-15)
(0.999995 -4.27283e-06 -3.53825e-15)
(0.999997 -3.18289e-06 5.42201e-16)
(0.999998 -2.24331e-06 2.38731e-15)
(0.999999 -1.52679e-06 2.42513e-15)
(0.999999 -1.03387e-06 1.54103e-15)
(0.999999 -7.19002e-07 5.3477e-16)
(0.999999 -5.2285e-07 -1.43197e-16)
(1 -3.94964e-07 -3.96985e-16)
(1 -3.02724e-07 -3.50526e-16)
(1 -2.29917e-07 -1.84415e-16)
(1 -1.70699e-07 -3.39262e-17)
(1 -1.23613e-07 4.50508e-17)
(1 -8.78436e-08 5.91482e-17)
(1 -6.18642e-08 3.87872e-17)
(1 -4.3529e-08 1.34721e-17)
(1 -3.06612e-08 -2.76331e-18)
(1 -2.14921e-08 -8.36849e-18)
(1 -1.4807e-08 -6.48999e-18)
(1 -9.85072e-09 -2.76843e-18)
(1 -6.16818e-09 4.97377e-19)
(1 -3.45614e-09 1.73162e-18)
(1 -1.48944e-09 1.01007e-18)
(1 -8.19936e-11 4.16257e-19)
(1 9.12944e-10 -9.71917e-20)
(1 1.61156e-09 2.61827e-19)
(1 2.0956e-09 5.05968e-19)
(1 2.42633e-09 9.11465e-21)
(1 2.64377e-09 -1.37052e-20)
(1 2.78004e-09 -1.12916e-19)
(1 2.85531e-09 3.93057e-19)
(1 2.88807e-09 6.11314e-19)
(1 2.88856e-09 3.88275e-20)
(1 2.86785e-09 -3.90035e-20)
(1 2.8305e-09 -1.57894e-19)
(1 2.7834e-09 3.50837e-19)
(1 2.72794e-09 5.78501e-19)
(1 2.66881e-09 1.36715e-20)
(1 2.60564e-09 -5.97229e-20)
(1 2.54213e-09 -1.7595e-19)
(1 2.47669e-09 3.35032e-19)
(1 2.41311e-09 5.6487e-19)
(1 2.34783e-09 1.82156e-21)
(1 2.28747e-09 -7.05276e-20)
(1 2.22172e-09 -1.86601e-19)
(1 2.17081e-09 3.24285e-19)
(1 2.09573e-09 5.52192e-19)
(1 2.07782e-09 -5.31747e-21)
(1 1.95145e-09 -1.06128e-19)
(1 2.05975e-09 -9.20296e-20)
(1 1.74315e-09 -1.80791e-19)
(1.00012 -0.00302911 1.98553e-18)
(1.00189 -0.00916519 7.98529e-18)
(1.00597 -0.0157927 5.62003e-18)
(1.01237 -0.0231313 1.01225e-17)
(1.02165 -0.0313081 2.26605e-17)
(1.03435 -0.0401883 -9.88028e-17)
(1.05104 -0.0493876 4.74879e-16)
(1.07201 -0.0578561 -1.01635e-15)
(1.09696 -0.0644583 -4.33838e-16)
(1.12484 -0.0674451 7.10343e-15)
(1.15276 -0.0659535 2.14898e-15)
(1.17856 -0.0615384 -3.25192e-14)
(1.20164 -0.0550541 -7.69838e-14)
(1.22147 -0.0472625 -8.72984e-14)
(1.23789 -0.0387409 -3.29328e-14)
(1.25091 -0.0297203 8.22236e-14)
(1.2605 -0.0202625 2.24356e-13)
(1.26649 -0.0103483 3.49809e-13)
(1.26863 -1.23046e-05 4.16988e-13)
(1.26665 0.0105392 4.45237e-13)
(1.26036 0.0208851 4.4428e-13)
(1.24985 0.0304263 4.22824e-13)
(1.23555 0.0385072 3.88984e-13)
(1.21825 0.0445755 3.49438e-13)
(1.19899 0.0483212 3.08973e-13)
(1.1789 0.0497366 2.70485e-13)
(1.15899 0.0490816 2.35439e-13)
(1.14004 0.0467885 2.04306e-13)
(1.12262 0.043355 1.76974e-13)
(1.10699 0.0392563 1.53028e-13)
(1.09326 0.0348913 1.31917e-13)
(1.08138 0.0305606 1.13096e-13)
(1.07121 0.0264677 9.60817e-14)
(1.06257 0.0227328 8.04721e-14)
(1.05526 0.0194123 6.5903e-14)
(1.04909 0.0165174 5.20373e-14)
(1.04388 0.0140306 3.85705e-14)
(1.03948 0.0119183 2.52625e-14)
(1.03575 0.0101397 1.19729e-14)
(1.03258 0.00865235 -1.33738e-15)
(1.02986 0.00741592 -1.46097e-14)
(1.02753 0.00639343 -2.77191e-14)
(1.0255 0.00555206 -4.05084e-14)
(1.02372 0.00486302 -5.28261e-14)
(1.02215 0.00430117 -6.45665e-14)
(1.02074 0.00384464 -7.56823e-14)
(1.01947 0.0034744 -8.61802e-14)
(1.0183 0.003174 -9.60851e-14)
(1.01722 0.00292938 -1.05397e-13)
(1.0162 0.00272872 -1.14065e-13)
(1.01524 0.00256234 -1.21979e-13)
(1.01433 0.00242251 -1.2901e-13)
(1.01346 0.00230319 -1.35074e-13)
(1.01263 0.00219978 -1.40177e-13)
(1.01183 0.0021088 -1.44425e-13)
(1.01105 0.00202763 -1.47982e-13)
(1.0103 0.00195431 -1.50995e-13)
(1.00957 0.00188736 -1.53507e-13)
(1.00887 0.0018257 -1.55403e-13)
(1.00818 0.00176853 -1.56397e-13)
(1.00751 0.00171527 -1.56066e-13)
(1.00685 0.00166539 -1.53914e-13)
(1.00621 0.00161827 -1.49442e-13)
(1.00558 0.00157302 -1.42217e-13)
(1.00497 0.00152842 -1.31939e-13)
(1.00436 0.00148296 -1.18531e-13)
(1.00377 0.00143505 -1.02249e-13)
(1.00319 0.00138342 -8.38295e-14)
(1.00262 0.0013273 -6.46252e-14)
(1.00207 0.00126614 -4.66506e-14)
(1.00154 0.00119843 -3.24566e-14)
(1.00102 0.00111953 -2.47393e-14)
(1.00053 0.00101926 -2.57522e-14)
(1.00007 0.000880423 -3.67426e-14)
(0.999658 0.000680274 -5.77615e-14)
(0.999306 0.000396168 -8.81257e-14)
(0.999042 1.51604e-05 -1.27326e-13)
(0.998893 -0.000454903 -1.75433e-13)
(0.998881 -0.000977294 -2.32012e-13)
(0.999016 -0.00148613 -2.94304e-13)
(0.999285 -0.00189686 -3.55341e-13)
(0.999651 -0.00212635 -4.03694e-13)
(1.00005 -0.00211722 -4.26353e-13)
(1.00042 -0.00185782 -4.14525e-13)
(1.00069 -0.00139016 -3.70049e-13)
(1.0008 -0.0008018 -3.09097e-13)
(1.00074 -0.000203756 -2.60641e-13)
(1.00054 0.000298235 -2.59157e-13)
(1.00023 0.000629462 -3.34015e-13)