/*--------------------------------*- C++ -*----------------------------------*\
  =========                 |
  \\      /  F ield         | OpenFOAM: The Open Source CFD Toolbox
   \\    /   O peration     | Website:  https://openfoam.org
    \\  /    A nd           | Version:  11
     \\/     M anipulation  |
\*---------------------------------------------------------------------------*/
FoamFile
{
    format      ascii;
    class       surfaceScalarField;
    location    "15.274335";
    object      phi_0;
}
// * * * * * * * * * * * * * * * * * * * * * * * * * * * * * * * * * * * * * //

dimensions      [0 3 -1 0 0 0 0];

internalField   nonuniform List<scalar> 
14638
(
0.0025021
-2.09577e-06
0.00250833
-6.23139e-06
0.00251896
-1.06282e-05
0.00253443
-1.54786e-05
0.00255531
-2.08808e-05
0.00258197
-2.66587e-05
0.00261437
-3.23936e-05
0.00265158
-3.72153e-05
0.00269173
-4.01509e-05
0.00273188
-4.015e-05
0.00276842
-3.65351e-05
0.00279832
-2.98992e-05
0.00281902
-2.07073e-05
0.00282844
-9.41916e-06
0.00282489
3.5495e-06
0.00280739
1.75023e-05
0.00277671
3.06799e-05
0.00273596
4.07479e-05
0.00269021
4.57527e-05
0.00264561
4.45982e-05
0.0026085
3.71101e-05
0.00258451
2.39971e-05
0.00257764
6.86873e-06
0.00258927
-1.16352e-05
0.00261694
-2.76646e-05
0.00265362
-3.6683e-05
0.00268885
-3.52272e-05
0.00271193
-2.30869e-05
0.00271583
-3.8913e-06
0.00269909
1.67345e-05
0.00266528
3.38106e-05
0.00262084
4.44417e-05
0.00257322
4.76184e-05
0.00252987
4.33521e-05
0.00249786
3.20053e-05
0.00248364
1.42216e-05
0.00249217
-8.52532e-06
0.0025251
-3.29331e-05
0.00257843
-5.33342e-05
0.00264148
-6.30426e-05
0.00269908
-5.7601e-05
0.00273682
-3.77456e-05
0.0027463
-9.47897e-06
0.0027273
1.90032e-05
0.00268624
4.10555e-05
0.00263272
5.35206e-05
0.00257654
5.61838e-05
0.00252642
5.01156e-05
0.00249007
3.63554e-05
0.00247437
1.56973e-05
0.00248474
-1.03729e-05
0.00252293
-3.8185e-05
0.00258425
-6.13249e-05
0.0026566
-7.23491e-05
0.00272296
-6.63556e-05
0.00276702
-4.40573e-05
0.00277897
-1.19517e-05
0.00275829
2.06802e-05
0.00271245
4.58335e-05
0.00265302
5.94372e-05
0.0025917
6.13185e-05
0.00253834
5.33601e-05
0.00250077
3.7571e-05
0.00248536
1.54032e-05
0.00249672
-1.13587e-05
0.00253576
-3.90382e-05
0.00259737
-6.16131e-05
0.00266974
-7.23666e-05
0.00273667
-6.69272e-05
0.00278241
-4.57416e-05
0.00279674
-1.43268e-05
0.00277789
1.88482e-05
0.00273228
4.56032e-05
0.00267148
6.08024e-05
0.00260821
6.32707e-05
0.00255347
5.47372e-05
0.0025156
3.78705e-05
0.00250057
1.50313e-05
0.00251191
-1.13343e-05
0.00254933
-3.74277e-05
0.00260715
-5.78175e-05
0.00267413
-6.69795e-05
0.00273587
-6.17407e-05
0.00277878
-4.29084e-05
0.00279387
-1.50913e-05
0.00277892
1.49503e-05
0.00273846
4.04598e-05
0.00268193
5.65305e-05
0.0026209
6.10324e-05
0.00256649
5.44088e-05
0.00252787
3.86149e-05
0.00251172
1.61505e-05
0.00252164
-9.91291e-06
0.00255692
-3.52854e-05
0.00261153
-5.46037e-05
0.0026745
-6.29748e-05
0.00273253
-5.80319e-05
0.00277357
-4.10332e-05
0.00278988
-1.63163e-05
0.00277951
1.03683e-05
0.00274589
3.36242e-05
0.00269634
4.9552e-05
0.00264028
5.60565e-05
0.00258767
5.26125e-05
0.00254781
3.98625e-05
0.00252838
1.94278e-05
0.00253421
-5.82823e-06
0.00256567
-3.14672e-05
0.00261764
-5.19615e-05
0.00267991
-6.22726e-05
0.00273967
-5.97574e-05
0.0027849
-4.52305e-05
0.00280748
-2.25809e-05
0.00280473
2.75099e-06
0.00277914
2.55872e-05
0.00273682
4.23206e-05
0.00268561
5.12122e-05
0.00263377
5.18332e-05
0.00258947
4.4306e-05
0.00256042
2.90477e-05
0.00255314
7.27791e-06
0.0025713
-1.81619e-05
0.00261395
-4.26434e-05
0.00267476
-6.08122e-05
0.00274319
-6.84322e-05
0.00280715
-6.39562e-05
0.00285614
-4.89946e-05
0.00288374
-2.76026e-05
0.00288861
-4.86589e-06
0.00287402
1.45912e-05
0.00284631
2.77088e-05
0.00281291
3.34002e-05
0.00278068
3.22304e-05
0.00275502
2.56614e-05
0.00273964
1.53752e-05
0.00273658
3.0645e-06
0.00274597
-9.38957e-06
0.00276579
-1.98257e-05
0.00279194
-2.61509e-05
0.00281898
-2.7039e-05
0.00284152
-2.2539e-05
0.0028557
-1.41797e-05
0.00286021
-4.50375e-06
0.00285649
3.71394e-06
0.00284828
8.21696e-06
0.00284056
7.71235e-06
0.0028386
1.96729e-06
0.00284694
-8.34366e-06
0.0028688
-2.18575e-05
0.00290554
-3.67414e-05
0.00295633
-5.07907e-05
0.003018
-6.1676e-05
0.00308505
-6.70412e-05
0.0031503
-6.525e-05
0.00320557
-5.52717e-05
0.00324368
-3.81097e-05
0.00325872
-1.50452e-05
0.00324889
9.83508e-06
0.00321577
3.31146e-05
5.81394e-05
0.00250208
-4.17221e-06
0.00250825
-1.24072e-05
0.0025188
-2.11793e-05
0.00253422
-3.08925e-05
0.00255509
-4.17581e-05
0.00258187
-5.34366e-05
0.00261458
-6.50966e-05
0.00265232
-7.49596e-05
0.00269321
-8.10382e-05
0.00273418
-8.11204e-05
0.00277144
-7.37993e-05
0.00280194
-6.04022e-05
0.00282314
-4.1901e-05
0.00283293
-1.92084e-05
0.00282954
6.93635e-06
0.00281181
3.52366e-05
0.00278039
6.2095e-05
0.00273847
8.26734e-05
0.00269127
9.29504e-05
0.00264517
9.07007e-05
0.0026067
7.55729e-05
0.00258173
4.89703e-05
0.00257453
1.40714e-05
0.00258674
-2.38516e-05
0.00261601
-5.6933e-05
0.00265504
-7.57125e-05
0.00269267
-7.28555e-05
0.00271743
-4.78496e-05
0.00272183
-8.29034e-06
0.00270449
3.40738e-05
0.00266933
6.89677e-05
0.00262319
9.05826e-05
0.00257377
9.70425e-05
0.00252863
8.84935e-05
0.00249497
6.56604e-05
0.00247951
2.96877e-05
0.00248766
-1.66791e-05
0.00252159
-6.68648e-05
0.00257742
-0.00010916
0.00264388
-0.000129507
0.00270473
-0.00011845
0.00274448
-7.74989e-05
0.00275426
-1.92522e-05
0.00273407
3.91874e-05
0.002691
8.41266e-05
0.00263523
0.000109292
0.00257688
0.000114538
0.00252474
0.000102247
0.00248658
7.45235e-05
0.00246952
3.27578e-05
0.00247948
-2.03374e-05
0.00251875
-7.74522e-05
0.00258279
-0.000125369
0.00265895
-0.000148502
0.00272903
-0.00013644
0.00277552
-9.0544e-05
0.00278795
-2.43813e-05
0.00276594
4.26833e-05
0.0027177
9.4075e-05
0.00265557
0.000121564
0.00259178
0.000125112
0.00253626
0.000108878
0.00249677
7.70662e-05
0.00247972
3.24514e-05
0.00249006
-2.16981e-05
0.00252921
-7.81871e-05
0.00259236
-0.000124761
0.00266746
-0.000147476
0.00273762
-0.000137083
0.00278615
-9.42681e-05
0.00280207
-3.02498e-05
0.00278333
3.75868e-05
0.00273655
9.23889e-05
0.00267377
0.000123579
0.00260824
0.000128795
0.0025513
0.000111685
0.00251144
7.77297e-05
0.00249488
3.15844e-05
0.00250558
-2.20266e-05
0.0025436
-7.54546e-05
0.00260322
-0.00011743
0.00267263
-0.000136397
0.00273668
-0.000125785
0.00278117
-8.73993e-05
0.00279692
-3.08417e-05
0.0027818
3.00703e-05
0.00274056
8.17043e-05
0.00268283
0.000114257
0.00262034
0.00012352
0.00256437
0.000110382
0.00252434
7.86437e-05
0.00250737
3.31229e-05
0.00251755
-2.00986e-05
0.00255443
-7.21658e-05
0.00261162
-0.000111793
0.00267735
-0.000128704
0.0027374
-0.000118079
0.00277916
-8.27968e-05
0.00279493
-3.20848e-05
0.00278315
2.21482e-05
0.00274778
6.89922e-05
0.00269656
0.000100776
0.00263909
0.000113528
0.00258538
0.000106323
0.00254486
8.03784e-05
0.00252553
3.87587e-05
0.00253257
-1.28682e-05
0.00256647
-6.53644e-05
0.00262168
-0.000107168
0.00268718
-0.000127779
0.00274926
-0.000121838
0.00279531
-9.12815e-05
0.00281712
-4.43854e-05
0.00281234
7.52592e-06
0.00278407
5.38575e-05
0.00273901
8.73787e-05
0.00268546
0.000104769
0.00263192
0.000105374
0.00258668
8.95449e-05
0.00255764
5.80815e-05
0.00255155
1.33698e-05
0.00257217
-3.87805e-05
0.00261827
-8.8739e-05
0.00268283
-0.000125376
0.00275444
-0.000140037
0.00282026
-0.000129784
0.00286949
-9.82232e-05
0.00289578
-5.38936e-05
0.0028982
-7.27898e-06
0.00288055
3.22375e-05
0.00284972
5.85431e-05
0.00281356
6.95587e-05
0.00277925
6.65379e-05
0.00275242
5.2495e-05
0.00273696
3.08354e-05
0.00273502
5.0003e-06
0.00274672
-2.10905e-05
0.00276973
-4.28373e-05
0.00279935
-5.57657e-05
0.0028294
-5.70872e-05
0.00285386
-4.70018e-05
0.00286854
-2.8864e-05
0.00287215
-8.11518e-06
0.00286645
9.42067e-06
0.00285556
1.9102e-05
0.00284493
1.83454e-05
0.00284013
6.7673e-06
0.00284596
-1.41783e-05
0.00286579
-4.16871e-05
0.00290111
-7.2056e-05
0.00295118
-0.00010086
0.0030129
-0.000123394
0.0030807
-0.000134846
0.00314725
-0.000131797
0.00320406
-0.00011208
0.00324359
-7.76464e-05
0.00325969
-3.11452e-05
0.00325041
1.91157e-05
0.00321728
6.62434e-05
0.000116582
0.00250204
-6.20891e-06
0.00250809
-1.84651e-05
0.00251848
-3.15689e-05
0.00253376
-4.61672e-05
0.00255462
-6.26196e-05
0.00258163
-8.04503e-05
0.00261496
-9.84269e-05
0.00265379
-0.000113786
0.00269619
-0.000123441
0.00273885
-0.000123772
0.00277758
-0.00011253
0.00280926
-9.20865e-05
0.00283137
-6.40108e-05
0.00284183
-2.96646e-05
0.00283869
1.00734e-05
0.00282041
5.3514e-05
0.00278744
9.50636e-05
0.00274309
0.000127026
0.00269297
0.000143074
0.00264388
0.000139785
0.00260282
0.000116636
0.00257608
7.57075e-05
0.00256847
2.16869e-05
0.00258214
-3.75203e-05
0.0026149
-8.96938e-05
0.00265883
-0.000119645
0.00270129
-0.000115319
0.00272918
-7.57396e-05
0.00273414
-1.32463e-05
0.00271503
5.31812e-05
0.00267669
0.00010731
0.00262684
0.000140433
0.00257372
0.000150163
0.00252513
0.000137082
0.00248849
0.000102301
0.00247099
4.71847e-05
0.00247898
-2.46657e-05
0.00251558
-0.000103468
0.00257707
-0.000170642
0.00265081
-0.000203254
0.00271813
-0.000185771
0.00276137
-0.000120731
0.00277084
-2.8729e-05
0.00274734
6.26925e-05
0.00269946
0.000132007
0.00263874
0.000170015
0.00257595
0.000177322
0.00252001
0.000158185
0.00247863
0.000115906
0.00245919
5.21949e-05
0.00246829
-2.94345e-05
0.00250911
-0.00011827
0.00257771
-0.000193975
0.00266096
-0.000231745
0.00273871
-0.000214196
0.00279076
-0.000142589
0.00280472
-3.83463e-05
0.00278018
6.72231e-05
0.00272687
0.000147392
0.00265905
0.000189382
0.0025902
0.000193966
0.00253052
0.000168554
0.00248752
0.000120063
0.00246762
5.23543e-05
0.00247641
-3.04918e-05
0.00251632
-0.000118095
0.00258296
-0.000191399
0.00266356
-0.000228074
0.00273962
-0.000213146
0.00279284
-0.000147486
0.00281113
-4.85382e-05
0.00279208
5.66338e-05
0.00274274
0.000141731
0.00267608
0.000190239
0.00260629
0.000198582
0.00254535
0.000172629
0.0025022
0.000120882
0.00248366
5.01148e-05
0.00249454
-3.28972e-05
0.00253538
-0.000116301
0.0025999
-0.000181947
0.00267473
-0.000211232
0.00274294
-0.000193997
0.00278931
-0.000133761
0.00280463
-4.61628e-05
0.00278746
4.72373e-05
0.00274336
0.000125801
0.00268256
0.00017506
0.00261707
0.00018901
0.0025584
0.000169054
0.00251645
0.000120596
0.00249914
5.04252e-05
0.00251139
-3.2344e-05
0.00255279
-0.000113571
0.00261594
-0.000174942
0.00268728
-0.000200041
0.00275087
-0.000181666
0.00279319
-0.000125121
0.00280671
-4.56039e-05
0.00279087
3.79888e-05
0.0027509
0.000108966
0.00269552
0.000156153
0.00263484
0.000174202
0.00257906
0.000162104
0.00253786
0.000121578
0.00251973
5.68869e-05
0.0025303
-2.34308e-05
0.00256983
-0.000104894
0.00263167
-0.000169016
0.0027032
-0.000199301
0.00276916
-0.000187805
0.0028161
-0.000138222
0.00283575
-6.40355e-05
0.00282646
1.68168e-05
0.00279245
8.78673e-05
0.00274164
0.000138191
0.00268325
0.00016316
0.00262635
0.000162276
0.00257956
0.00013633
0.00255115
8.64942e-05
0.00254815
1.63695e-05
0.0025742
-6.48348e-05
0.00262719
-0.000141727
0.00269861
-0.000196798
0.0027755
-0.000216926
0.002844
-0.000198279
0.00289295
-0.000147172
0.0029163
-7.72501e-05
0.00291384
-4.81929e-06
0.00289032
5.57577e-05
0.00285358
9.52895e-05
0.00281229
0.000110845
0.00277426
0.000104572
0.00274556
8.11897e-05
0.00273048
4.59173e-05
0.00273136
4.11947e-06
0.0027481
-3.78341e-05
0.00277758
-7.23087e-05
0.00281376
-9.19515e-05
0.00284908
-9.24061e-05
0.00287646
-7.43787e-05
0.00289128
-4.36835e-05
0.00289246
-9.29989e-06
0.00288242
1.94566e-05
0.00286615
3.53792e-05
0.00284985
3.46429e-05
0.00283972
1.68989e-05
0.00284096
-1.54218e-05
0.00285723
-5.79517e-05
0.00289025
-0.000105081
0.00293953
-0.000150135
0.00300203
-0.000185892
0.00307199
-0.000204808
0.00314156
-0.000201376
0.00320156
-0.000172075
0.0032438
-0.000119884
0.0032615
-4.88434e-05
0.00325282
2.77958e-05
0.00321867
0.000100389
0.000175996
0.00250197
-8.18202e-06
0.00250784
-2.43344e-05
0.00251797
-4.16957e-05
0.00253301
-6.12042e-05
0.00255381
-8.34221e-05
0.00258114
-0.000107785
0.0026154
-0.000132685
0.00265588
-0.000154261
0.00270063
-0.000168196
0.00274589
-0.000169032
0.00278686
-0.000153504
0.00282034
-0.000125562
0.00284386
-8.75321e-05
0.0028554
-4.12068e-05
0.00285273
1.27475e-05
0.00283363
7.26087e-05
0.00279821
0.000130487
0.00275003
0.000175207
0.00269534
0.00019776
0.00264166
0.00019347
0.00259661
0.000161688
0.00256715
0.000105166
0.00255886
2.99753e-05
0.00257475
-5.34139e-05
0.00261299
-0.000127931
0.00266469
-0.000171347
0.00271482
-0.000165449
0.00274759
-0.000108508
0.00275325
-1.89096e-05
0.00273115
7.52852e-05
0.00268765
0.000150806
0.00263197
0.000196116
0.00257317
0.000208958
0.00251938
0.000190879
0.00247823
0.000143445
0.00245766
6.77626e-05
0.00246544
-3.24471e-05
0.00250631
-0.000144346
0.00257686
-0.000241184
0.00266231
-0.000288713
0.00273997
-0.000263425
0.00278849
-0.00016925
0.002797
-3.72423e-05
0.00276771
9.19786e-05
0.00271189
0.00018783
0.00264331
0.0002386
0.00257377
0.00024686
0.00251219
0.000219767
0.00246587
0.000162221
0.00244207
7.60007e-05
0.00244805
-3.54213e-05
0.0024887
-0.000158921
0.0025618
-0.000267075
0.0026543
-0.000324237
0.00274373
-0.000303631
0.00280592
-0.000204773
0.00282485
-5.72862e-05
0.00279888
9.31932e-05
0.00273934
0.000206932
0.00266347
0.000265257
0.00258704
0.000270393
0.00252102
0.000234573
0.0024727
0.000168388
0.0024487
7.63548e-05
0.00245598
-3.77713e-05
0.00249847
-0.000160584
0.00257172
-0.000264657
0.00266091
-0.000317256
0.00274473
-0.000296974
0.00280299
-0.000205738
0.00282298
-6.85303e-05
0.00280253
7.70765e-05
0.00274937
0.000194897
0.00267742
0.000262186
0.00260189
0.000274116
0.00253556
0.000238958
0.00248823
0.000168212
0.00246794
7.04006e-05
0.00248077
-4.57242e-05
0.00252754
-0.000163075
0.00260046
-0.000254863
0.00268347
-0.000294239
0.00275709
-0.000267617
0.00280484
-0.000181517
0.00281787
-5.91889e-05
0.00279608
6.90244e-05
0.00274657
0.000175317
0.00268059
0.000241041
0.00261061
0.000258985
0.00254843
0.000231237
0.00250459
0.000164435
0.00248811
6.69058e-05
0.00250468
-4.89184e-05
0.00255349
-0.000162375
0.00262526
-0.000246719
0.00270403
-0.000278806
0.00277185
-0.000249489
0.00281429
-0.000167556
0.00282407
-5.53827e-05
0.0028019
6.01513e-05
0.00275477
0.000156104
0.0026929
0.000218019
0.00262731
0.000239793
0.00256862
0.000220795
0.00252695
0.00016325
0.00251136
7.2477e-05
0.00252768
-3.97493e-05
0.00257536
-0.000152583
0.00264595
-0.000239602
0.00272471
-0.000278063
0.00279488
-0.000257978
0.00284231
-0.000185646
0.00285881
-8.0542e-05
0.0028435
3.21324e-05
0.00280185
0.000129519
0.00274325
0.000196788
0.00267822
0.000228191
0.00261672
0.000223772
0.00256803
0.000185023
0.00254093
0.000113593
0.0025427
1.45991e-05
0.0025764
-9.85307e-05
0.00263829
-0.000203622
0.00271778
-0.000276283
0.00280015
-0.000299296
0.0028707
-0.000268833
0.00291831
-0.000194784
0.0029375
-9.64395e-05
0.00292886
3.81829e-06
0.00289812
8.64969e-05
0.00285416
0.000139257
0.00280663
0.000158375
0.00276418
0.000147023
0.00273363
0.000111734
0.00271987
5.96784e-05
0.00272547
-1.47438e-06
0.00274977
-6.21378e-05
0.00278819
-0.000110729
0.00283271
-0.000136473
0.00287391
-0.000133609
0.00290363
-0.000104097
0.00291709
-5.71394e-05
0.00291378
-5.99383e-06
0.00289711
3.61269e-05
0.00287314
5.93523e-05
0.00284903
5.87507e-05
0.00283167
3.42558e-05
0.00282678
-1.05256e-05
0.00283844
-6.96105e-05
0.00286886
-0.000135501
0.00291788
-0.000199155
0.00298244
-0.000250453
0.00305622
-0.000278591
0.00313046
-0.000275614
0.00319495
-0.000236562
0.00324079
-0.000165724
0.00326054
-6.85933e-05
0.0032526
3.57303e-05
0.00321693
0.000136056
0.000236731
0.00250188
-1.00629e-05
0.00250748
-2.99302e-05
0.00251721
-5.14333e-05
0.00253188
-7.58679e-05
0.00255253
-0.000104076
0.00258023
-0.000135482
0.00261569
-0.000168146
0.0026584
-0.000196969
0.00270643
-0.000216229
0.00275533
-0.000217929
0.00279934
-0.000197517
0.00283518
-0.000161396
0.00286054
-0.000112894
0.00287357
-5.42357e-05
0.00287166
1.46572e-05
0.00285162
9.26505e-05
0.00281295
0.000169157
0.00275955
0.000228598
0.00269859
0.00025873
0.00263852
0.000253538
0.00258786
0.000212345
0.00255446
0.000138564
0.00254501
3.94253e-05
0.00256383
-7.22308e-05
0.00260974
-0.000173843
0.00267258
-0.000234183
0.00273377
-0.000226645
0.00277351
-0.000148246
0.00278001
-2.5411e-05
0.00275342
0.000101875
0.00270251
0.000201714
0.00263868
0.000259954
0.00257211
0.00027552
0.00251123
0.000251762
0.00246388
0.000190799
0.00243879
9.28546e-05
0.00244538
-3.90451e-05
0.00249033
-0.000189288
0.00257135
-0.000322209
0.00267247
-0.000389834
0.00276606
-0.000357013
0.0028243
-0.000227488
0.00283293
-4.58708e-05
0.00279581
0.000129092
0.00272863
0.000255016
0.00264896
0.000318269
0.00257024
0.000325576
0.00250108
0.000288935
0.00244759
0.000215705
0.00241646
0.000107132
0.00241647
-3.54288e-05
0.00245581
-0.00019826
0.00253458
-0.000345851
0.00263873
-0.000428389
0.00274229
-0.000407191
0.00281708
-0.000279554
0.00284364
-8.38459e-05
0.00281832
0.00011851
0.00275312
0.00027213
0.00266817
0.000350204
0.00258226
0.000356304
0.00250781
0.00030903
0.0024525
0.000223698
0.00242408
0.000104772
0.0024317
-4.53915e-05
0.00248054
-0.000209426
0.00256456
-0.000348681
0.00266515
-0.000417839
0.00275738
-0.000389206
0.00281928
-0.000267636
0.00283845
-8.7702e-05
0.00281405
0.000101473
0.00275513
0.000253821
0.00267658
0.00034073
0.00259432
0.000356381
0.00252187
0.000311404
0.00247028
0.000219809
0.00244937
9.13031e-05
0.00246658
-6.29289e-05
0.00252218
-0.000218674
0.00260579
-0.000338476
0.00269814
-0.000386587
0.00277729
-0.000346765
0.0028257
-0.000229928
0.00283491
-6.83963e-05
0.00280639
9.75374e-05
0.00274923
0.000232479
0.0026762
0.00031407
0.00260052
0.000334667
0.00253442
0.000297339
0.00248926
0.00020959
0.00247517
8.09988e-05
0.0024982
-7.19498e-05
0.00255627
-0.000220443
0.00263762
-0.000328073
0.00272381
-0.00036499
0.00279534
-0.00032102
0.00283723
-0.000209451
0.00284253
-6.06792e-05
0.00281304
8.96432e-05
0.00275742
0.000211722
0.00268767
0.000287773
0.00261605
0.000311413
0.00255399
0.000282847
0.00251232
0.000204926
0.0025006
8.4193e-05
0.00252438
-6.35297e-05
0.00258153
-0.000209733
0.00266121
-0.000319275
0.00274663
-0.000363483
0.00281997
-0.000331326
0.00286695
-0.00023262
0.00287972
-9.33139e-05
0.00285802
5.38354e-05
0.00280833
0.000179206
0.00274138
0.000263736
0.00266906
0.000300511
0.00260252
0.000290315
0.002552
0.000235542
0.00252702
0.000138578
0.00253487
6.74804e-06
0.00257741
-0.00014107
0.00264861
-0.000274827
0.00273547
-0.00036314
0.00282178
-0.000385603
0.00289256
-0.000339618
0.00293728
-0.000239501
0.00295131
-0.000110471
0.00293607
1.90559e-05
0.00289808
0.000124489
0.00284704
0.000190293
0.00279353
0.000211886
0.00274714
0.00019341
0.00271569
0.000143185
0.00270486
7.05152e-05
0.00271731
-1.39258e-05
0.00275129
-9.61165e-05
0.00279995
-0.000159398
0.00285276
-0.000189277
0.00289844
-0.000179288
0.00292819
-0.00013385
0.00293767
-6.66214e-05
0.00292742
4.25921e-06
0.00290204
6.15014e-05
0.00286873
9.2665e-05
0.00283553
9.19525e-05
0.00280997
5.98202e-05
0.00279831
1.13166e-06
0.00280531
-7.66113e-05
0.00283382
-0.000164017
0.00288392
-0.000249246
0.00295198
-0.000318523
0.00303058
-0.000357184
0.00310976
-0.000354801
0.00317854
-0.000305342
0.00322774
-0.000214923
0.00324957
-9.04192e-05
0.00324276
4.25421e-05
0.00320603
0.000172783
0.00029828
0.00250175
-1.18167e-05
0.00250697
-3.51492e-05
0.00251616
-6.06217e-05
0.00253027
-8.99727e-05
0.00255062
-0.000124425
0.00257865
-0.000163515
0.00261555
-0.000205049
0.00266111
-0.000242532
0.00271351
-0.000268623
0.00276724
-0.000271664
0.00281517
-0.000245442
0.00285397
-0.0002002
0.00288172
-0.000140638
0.00289688
-6.93977e-05
0.00289626
1.52754e-05
0.00287511
0.000113801
0.00283208
0.000212183
0.00277168
0.000289004
0.00270236
0.000328042
0.00263391
0.000321993
0.00257587
0.000270387
0.00253712
0.000177312
0.00252581
5.07362e-05
0.0025482
-9.46188e-05
0.00260433
-0.000229976
0.00268242
-0.000312276
0.00275891
-0.000303135
0.00280817
-0.000197509
0.00281556
-3.27981e-05
0.00278256
0.00013488
0.00272152
0.000262753
0.00264692
0.000334554
0.00257038
0.000352062
0.00250049
0.000321649
0.00244507
0.000246221
0.00241304
0.000124878
0.00241439
-4.03951e-05
0.00245773
-0.000232625
0.00254481
-0.000409286
0.00266245
-0.000507476
0.00277938
-0.000473948
0.00285765
-0.000305752
0.0028738
-6.20245e-05
0.00283066
0.000172232
0.00274988
0.000335797
0.00265583
0.000412316
0.00256526
0.000416146
0.0024863
0.000367903
0.0024231
0.000278902
0.00238223
0.000147996
0.00237613
-2.9322e-05
0.0024176
-0.000239734
0.00250723
-0.000435483
0.00262649
-0.000547646
0.00274409
-0.000524788
0.00282899
-0.000364461
0.00286096
-0.000115814
0.00283578
0.00014369
0.0027654
0.000342508
0.0026715
0.000444103
0.00257528
0.000452523
0.00249104
0.000393273
0.00242803
0.000286708
0.00239637
0.000136432
0.00240754
-5.65635e-05
0.00246645
-0.00026833
0.00256358
-0.000445813
0.002676
-0.000530255
0.00277579
-0.000488997
0.00283978
-0.000331631
0.00285604
-0.000103959
0.00282538
0.000132133
0.00275878
0.000320424
0.00267243
0.000427071
0.00258286
0.00044595
0.00250428
0.000389984
0.00244922
0.000274877
0.00242946
0.000111065
0.00245315
-8.66232e-05
0.00251889
-0.000284419
0.00261309
-0.000432669
0.00271363
-0.000487125
0.00279708
-0.000430223
0.00284547
-0.000278316
0.00285056
-7.34843e-05
0.00281489
0.000133209
0.0027493
0.000298062
0.00266834
0.000395035
0.00258636
0.000416645
0.00251642
0.000367276
0.00247089
0.000255122
0.00246073
9.11644e-05
0.00249157
-0.000102794
0.00255922
-0.000288097
0.00264919
-0.000418042
0.00274108
-0.000456873
0.00281471
-0.000394652
0.00285522
-0.00024996
0.00285602
-6.14775e-05
0.00281958
0.000126078
0.00275577
0.000275531
0.00267811
0.000365431
0.00260034
0.000389187
0.00253509
0.0003481
0.00249413
0.000245888
0.00248739
9.0925e-05
0.00251948
-9.56197e-05
0.00258598
-0.000276228
0.00267346
-0.00040676
0.00276355
-0.00045357
0.00283812
-0.000405898
0.00288339
-0.000277882
0.00289212
-0.000102053
0.00286454
8.1417e-05
0.0028077
0.000236047
0.00273322
0.000338214
0.00265419
0.000379544
0.00258307
0.000361434
0.00253137
0.000287247
0.0025094
0.00016054
0.00252417
-8.01943e-06
0.00257565
-0.000192552
0.00265506
-0.000354237
0.0027471
-0.000455173
0.00283466
-0.000473165
0.00290322
-0.000408181
0.00294334
-0.000279617
0.00295146
-0.000118596
0.00292978
4.0737e-05
0.00288536
0.000168917
0.00282843
0.000247221
0.00277027
0.000270045
0.00272145
0.000242232
0.00269093
0.000173699
0.00268525
7.61974e-05
0.00270675
-3.54215e-05
0.00275168
-0.000141045
0.00281019
-0.000217907
0.00286907
-0.000248164
0.00291585
-0.000226069
0.00294201
-0.000160005
0.00294437
-6.89875e-05
0.00292489
2.37395e-05
0.00288943
9.69673e-05
0.0028461
0.000135994
0.0028036
0.000134454
0.00276998
9.3442e-05
0.00275217
1.89377e-05
0.00275576
-8.02053e-05
0.00278411
-0.000192364
0.00283679
-0.000301923
0.0029088
-0.000390539
0.00299123
-0.00043961
0.00307341
-0.000436976
0.0031444
-0.000376334
0.00319557
-0.000266091
0.00321922
-0.000114074
0.00321435
4.74145e-05
0.00317829
0.000208845
0.000359051
0.00250158
-1.34011e-05
0.0025063
-3.98655e-05
0.00251474
-6.90588e-05
0.00252803
-0.000103267
0.00254783
-0.000144222
0.00257608
-0.00019176
0.00261459
-0.000243563
0.00266366
-0.000291602
0.0027217
-0.000326665
0.00278169
-0.000331656
0.00283442
-0.000298166
0.00287665
-0.000242433
0.0029071
-0.000171091
0.00292496
-8.72576e-05
0.00292638
1.3857e-05
0.00290434
0.000135839
0.00285614
0.000260389
0.00278697
0.00035817
0.00270709
0.000407924
0.00262794
0.000401147
0.00256033
0.000337993
0.00251434
0.000223304
0.00249998
6.50981e-05
0.00252652
-0.000121165
0.00259632
-0.000299772
0.00269531
-0.000411263
0.00279239
-0.000400223
0.00285386
-0.000258976
0.00286162
-4.05565e-05
0.00281946
0.000177037
0.00274489
0.000337325
0.00265654
0.000422905
0.00256772
0.000440876
0.00248702
0.000402355
0.00242133
0.000311911
0.00237786
0.000168345
0.00236593
-2.84604e-05
0.00239858
-0.000265282
0.00248587
-0.000496571
0.00261926
-0.000640869
0.00276427
-0.000618956
0.00287268
-0.000414158
0.00290821
-9.75608e-05
0.00286693
0.000213512
0.00277438
0.000428346
0.00266405
0.000522654
0.00255889
0.000521301
0.00246761
0.000459189
0.00239271
0.000353796
0.00234236
0.000198353
0.00233436
-2.13281e-05
0.00238467
-0.000290038
0.00249028
-0.0005411
0.00262583
-0.000683198
0.00275515
-0.0006541
0.00284579
-0.000455106
0.0028785
-0.000148519
0.00285039
0.000171798
0.00277399
0.000418907
0.00267146
0.000546637
0.00256511
0.000558867
0.00247099
0.000487391
0.00240096
0.000356746
0.00236826
0.000169131
0.00238575
-7.40573e-05
0.00245598
-0.00033856
0.002565
-0.000554828
0.00268654
-0.000651804
0.00279155
-0.000594002
0.00285665
-0.000396736
0.00286994
-0.000117246
0.00283298
0.000169097
0.00275836
0.000395036
0.00266389
0.000521542
0.00256704
0.000542806
0.00248295
0.000474068
0.0024258
0.000332031
0.00240892
0.000127942
0.00244014
-0.000117843
0.0025154
-0.000359682
0.00261793
-0.000535195
0.0027238
-0.000592997
0.00280937
-0.000515789
0.00285698
-0.000325925
0.00285856
-7.50687e-05
0.00281694
0.000174829
0.00274394
0.000371062
0.00265558
0.000483397
0.00256767
0.000504556
0.00249455
0.000440394
0.00244976
0.000299913
0.00244465
9.62737e-05
0.00248358
-0.000141728
0.00255968
-0.000364192
0.00265592
-0.000514288
0.00275081
-0.000551754
0.00282441
-0.000468251
0.00286258
-0.000288139
0.00285925
-5.81436e-05
0.00281715
0.000168177
0.00274667
0.000346013
0.00266237
0.000449732
0.00257937
0.000472188
0.00251176
0.000415703
0.00247246
0.000285195
0.00247144
9.19397e-05
0.00251172
-0.000135896
0.00258615
-0.000350664
0.00267901
-0.000499615
0.00277102
-0.000545582
0.00284456
-0.000479436
0.00288685
-0.000320176
0.0028915
-0.000106696
0.00285903
0.000113887
0.00279666
0.000298416
0.0027164
0.000418473
0.00263218
0.000463758
0.00255776
0.000435854
0.00250603
0.000338985
0.00248804
0.000178528
0.00250999
-2.9973e-05
0.00256944
-0.000251997
0.00265473
-0.000439529
0.00274882
-0.000549261
0.00283453
-0.000558881
0.00289844
-0.000472089
0.0029325
-0.000313683
0.00293431
-0.000120405
0.00290671
6.83437e-05
0.00285708
0.000218546
0.00279594
0.000308359
0.00273507
0.000330911
0.00268601
0.00029129
0.00265895
0.000200763
0.00266097
7.41821e-05
0.0026932
-6.76537e-05
0.00274884
-0.000196686
0.00281461
-0.000283673
0.00287528
-0.00030884
0.00291842
-0.000269204
0.00293693
-0.000178513
0.00292943
-6.14907e-05
0.00289936
5.38093e-05
0.00285358
0.00014275
0.00280076
0.000188806
0.00274996
0.000185259
0.0027097
0.000133704
0.00268773
4.09038e-05
0.00269035
-8.28224e-05
0.00272056
-0.000222572
0.00277627
-0.000357632
0.00285055
-0.000464821
0.00293357
-0.000522633
0.00301513
-0.00051854
0.00308542
-0.000446623
0.00313688
-0.000317549
0.00316217
-0.00013936
0.0031603
4.92761e-05
0.00312738
0.000241774
0.000416757
0.00250136
-1.47655e-05
0.00250543
-4.39277e-05
0.00251286
-7.64934e-05
0.00252501
-0.000115418
0.00254389
-0.000163103
0.00257209
-0.00021996
0.00261228
-0.000283748
0.00266554
-0.000344869
0.00273084
-0.000391959
0.00279885
-0.000399666
0.00285736
-0.000356678
0.00290351
-0.000288586
0.0029372
-0.000204773
0.00295883
-0.000108894
0.00296349
9.19565e-06
0.00294066
0.000158676
0.00288573
0.000315317
0.00280523
0.000438672
0.002712
0.000501149
0.00261959
0.000493554
0.00254009
0.000417499
0.00248461
0.000278781
0.00246558
8.41319e-05
0.00249724
-0.000152833
0.00258614
-0.00038867
0.00271461
-0.000539734
0.0028395
-0.000525114
0.00291545
-0.000334922
0.00292122
-4.63296e-05
0.00286535
0.000232907
0.0027727
0.000429984
0.00266717
0.000528432
0.0025639
0.000544148
0.00247073
0.000495519
0.00239174
0.000390907
0.00233058
0.000229499
0.00229877
3.35346e-06
0.0023201
-0.00028662
0.00241288
-0.000589342
0.00256543
-0.000793421
0.00273589
-0.000789415
0.00287119
-0.00054946
0.00292884
-0.000155215
0.00289659
0.000245765
0.0027978
0.000527139
0.00267243
0.000648019
0.00255113
0.000642598
0.00244543
0.000564893
0.00235842
0.000440804
0.00230178
0.000254992
0.00229783
-1.73745e-05
0.00236127
-0.000353475
0.0024824
-0.000662229
0.00263028
-0.000831079
0.00276717
-0.000790996
0.00286087
-0.000548807
0.0028925
-0.000180141
0.00286005
0.000204246
0.00277712
0.00050183
0.00266645
0.000657308
0.00255089
0.000674434
0.00244802
0.000590255
0.00237277
0.000431995
0.0023413
0.000200603
0.00236623
-9.89849e-05
0.0024463
-0.000418634
0.00256343
-0.000671956
0.00268972
-0.000778091
0.00279671
-0.000700991
0.00286193
-0.000461958
0.00287336
-0.000128671
0.0028321
0.000210355
0.00275122
0.000475916
0.00264977
0.000622991
0.00254656
0.000646013
0.0024582
0.000562427
0.00240055
0.000389683
0.00238779
0.000140709
0.00242631
-0.000156371
0.002509
-0.000442371
0.00261652
-0.000642717
0.0027243
-0.000700777
0.00280949
-0.000600971
0.00285541
-0.000371852
0.00285429
-7.39502e-05
0.00280868
0.000220439
0.00273047
0.000449278
0.00263651
0.000577358
0.00254403
0.000597038
0.00246896
0.000515459
0.00242606
0.000342813
0.00242655
9.57874e-05
0.00247279
-0.000187974
0.00255511
-0.000446503
0.00265459
-0.00061377
0.00274954
-0.000646702
0.00282101
-0.000539721
0.002856
-0.000323138
0.00284904
-5.1178e-05
0.00280287
0.000214343
0.00272785
0.000421034
0.00263898
0.000538601
0.00255249
0.000558679
0.00248396
0.000484231
0.00244737
0.000321788
0.00245235
8.69622e-05
0.00249978
-0.000183324
0.00257979
-0.000430677
0.00267496
-0.000594788
0.00276603
-0.000636647
0.00283647
-0.000549875
0.00287482
-0.000358532
0.00287554
-0.000107409
0.00283936
0.00015006
0.00277337
0.000364412
0.00268951
0.000502331
0.0026022
0.000551069
0.00252631
0.000511748
0.00247602
0.000389269
0.00246284
0.000191705
0.0024916
-5.87312e-05
0.00255708
-0.000317474
0.00264514
-0.000527594
0.00273788
-0.000641996
0.00281886
-0.000639863
0.00287617
-0.000529395
0.00290324
-0.000340757
0.00289869
-0.000115858
0.00286589
0.000101147
0.00281241
0.000272033
0.00274886
0.000371904
0.00268747
0.000392306
0.00264074
0.000338012
0.00261994
0.000221561
0.00263194
6.21864e-05
0.00267532
-0.000111036
0.00273929
-0.000260657
0.00280752
-0.000351901
0.00286428
-0.000365596