/*--------------------------------*- C++ -*----------------------------------*\
  =========                 |
  \\      /  F ield         | OpenFOAM: The Open Source CFD Toolbox
   \\    /   O peration     | Website:  https://openfoam.org
    \\  /    A nd           | Version:  11
     \\/     M anipulation  |
\*---------------------------------------------------------------------------*/
FoamFile
{
    format      ascii;
    class       surfaceScalarField;
    location    "2.134087";
    object      phi;
}
// * * * * * * * * * * * * * * * * * * * * * * * * * * * * * * * * * * * * * //

dimensions      [0 3 -1 0 0 0 0];

internalField   nonuniform List<scalar> 
14638
(
0.00250283
-2.82996e-06
0.00251136
-8.52879e-06
0.00252591
-1.45551e-05
0.00254693
-2.10137e-05
0.00257484
-2.79138e-05
0.00260986
-3.50203e-05
0.00265175
-4.18899e-05
0.00269941
-4.76629e-05
0.00275081
-5.13976e-05
0.00280286
-5.20478e-05
0.0028518
-4.89436e-05
0.00289438
-4.25794e-05
0.00292783
-3.3447e-05
0.00294994
-2.21135e-05
0.00295932
-9.37729e-06
0.0029555
3.82539e-06
0.00293912
1.63785e-05
0.00291196
2.71605e-05
0.00287665
3.53036e-05
0.00283626
4.03965e-05
0.00279374
4.25155e-05
0.00275163
4.21077e-05
0.00271182
3.9812e-05
0.00267552
3.62982e-05
0.00264337
3.21575e-05
0.00261552
2.78495e-05
0.00259182
2.36926e-05
0.00257194
1.988e-05
0.00255544
1.65081e-05
0.00254183
1.36066e-05
0.00253067
1.11634e-05
0.00252153
9.13938e-06
0.00251406
7.47003e-06
0.00250799
6.06183e-06
0.0025032
4.79589e-06
0.00249965
3.55277e-06
0.00249739
2.25776e-06
0.00249646
9.26254e-07
0.00249678
-3.21994e-07
0.00249808
-1.30007e-06
0.00249992
-1.83354e-06
0.00250176
-1.84484e-06
0.00250316
-1.39743e-06
0.00250384
-6.76069e-07
0.00250375
8.48182e-08
0.00250306
6.86012e-07
0.00250204
1.02083e-06
0.00250096
1.08502e-06
0.00250001
9.46719e-07
0.00249931
7.00679e-07
0.00249888
4.30734e-07
0.00249869
1.9186e-07
0.00249868
9.83483e-09
0.00249879
-1.10331e-07
0.00249896
-1.75179e-07
0.00249916
-1.9646e-07
0.00249935
-1.87572e-07
0.00249951
-1.61416e-07
0.00249964
-1.28787e-07
0.00249974
-9.72798e-08
0.00249981
-7.10021e-08
0.00249986
-5.11315e-08
0.00249989
-3.69914e-08
0.00249992
-2.71543e-08
0.00249994
-2.02183e-08
0.00249996
-1.51565e-08
0.00249997
-1.13441e-08
0.00249998
-8.4351e-09
0.00249998
-6.22726e-09
0.00249999
-4.5753e-09
0.00249999
-3.35601e-09
0.00249999
-2.46288e-09
0.0025
-1.80925e-09
0.0025
-1.32944e-09
0.0025
-9.75996e-10
0.0025
-7.15214e-10
0.0025
-5.22871e-10
0.0025
-3.81213e-10
0.0025
-2.77033e-10
0.0025
-2.00487e-10
0.0025
-1.44267e-10
0.0025
-1.02991e-10
0.0025
-7.27007e-11
0.0025
-5.04942e-11
0.0025
-3.42328e-11
0.0025
-2.23482e-11
0.0025
-1.36788e-11
0.0025
-7.37649e-12
0.0025
-2.80994e-12
0.0025
4.77966e-13
0.0025
2.83054e-12
0.0025
4.49311e-12
0.0025
5.65325e-12
0.0025
6.44168e-12
0.0025
6.96175e-12
0.0025
7.28227e-12
0.0025
7.46095e-12
0.0025
7.53323e-12
0.0025
7.53205e-12
0.0025
7.47487e-12
0.0025
7.38113e-12
0.0025
7.25866e-12
0.0025
7.11947e-12
0.0025
6.96632e-12
0.0025
6.80706e-12
0.0025
6.64183e-12
0.0025
6.47612e-12
0.0025
6.30881e-12
0.0025
6.14393e-12
0.0025
5.97979e-12
0.0025
5.81951e-12
0.0025
5.66124e-12
0.0025
5.50744e-12
0.0025
5.35632e-12
0.0025
5.20981e-12
0.0025
5.06631e-12
0.0025
4.92731e-12
0.0025
4.79148e-12
0.0025
4.6599e-12
0.0025
4.53153e-12
0.0025
4.40706e-12
0.0025
4.28579e-12
0.0025
4.16806e-12
0.0025
4.05349e-12
0.0025
3.94207e-12
0.0025
3.83378e-12
0.0025
3.72826e-12
0.0025
3.6258e-12
0.0025
3.52576e-12
0.0025
3.42874e-12
0.0025
3.33378e-12
0.0025
3.2418e-12
0.0025
3.15155e-12
0.0025
3.06424e-12
0.0025
2.97836e-12
0.0025
2.89539e-12
0.0025
2.81358e-12
0.0025
2.73466e-12
0.0025
2.65661e-12
0.0025
2.58144e-12
0.0025
2.50693e-12
0.0025
2.43526e-12
0.0025
2.36403e-12
0.0025
2.29564e-12
0.0025
2.2275e-12
0.0025
2.16219e-12
0.0025
2.09698e-12
0.0025
2.03459e-12
0.0025
1.97221e-12
0.0025
1.91258e-12
0.0025
1.853e-12
0.0025
1.79564e-12
0.0025
1.73923e-12
0.0025
1.68267e-12
0.0025
1.63312e-12
0.0025
1.56975e-12
0.0025
1.54989e-12
0.0025
1.43329e-12
0.0025
1.56582e-12
1.20609e-12
0.00250281
-5.63505e-06
0.00251127
-1.69892e-05
0.00252573
-2.9015e-05
0.00254665
-4.19428e-05
0.00257455
-5.58049e-05
0.00260967
-7.01448e-05
0.00265186
-8.40825e-05
0.00270006
-9.5863e-05
0.00275223
-0.000103564
0.00280516
-0.000104978
0.00285493
-9.8711e-05
0.00289821
-8.58632e-05
0.00293221
-6.74417e-05
0.00295467
-4.45746e-05
0.00296415
-1.88615e-05
0.00296016
7.81725e-06
0.00294335
3.31903e-05
0.00291555
5.49606e-05
0.0028795
7.13498e-05
0.00283837
8.15273e-05
0.00279522
8.56693e-05
0.00275262
8.47084e-05
0.00271247
7.996e-05
0.00267597
7.27904e-05
0.00264374
6.43962e-05
0.00261589
5.57005e-05
0.00259224
4.73371e-05
0.00257243
3.96868e-05
0.00255601
3.29355e-05
0.00254248
2.71364e-05
0.00253138
2.22606e-05
0.00252229
1.82262e-05
0.00251486
1.49031e-05
0.00250882
1.21043e-05
0.00250402
9.59322e-06
0.00250044
7.13147e-06
0.00249813
4.56801e-06
0.00249713
1.92964e-06
0.00249735
-5.49241e-07
0.00249855
-2.49875e-06
0.00250029
-3.57082e-06
0.00250205
-3.60753e-06
0.00250339
-2.7307e-06
0.00250402
-1.3046e-06
0.00250389
2.0536e-07
0.00250318
1.40143e-06
0.00250213
2.06862e-06
0.00250102
2.19584e-06
0.00250005
1.91708e-06
0.00249933
1.42078e-06
0.00249889
8.74916e-07
0.00249869
3.90637e-07
0.00249868
2.09324e-08
0.00249879
-2.23136e-07
0.00249897
-3.54335e-07
0.00249917
-3.9654e-07
0.00249936
-3.77328e-07
0.00249952
-3.23323e-07
0.00249965
-2.56707e-07
0.00249974
-1.92933e-07
0.00249981
-1.40188e-07
0.00249986
-1.00639e-07
0.0024999
-7.27172e-08
0.00249992
-5.34059e-08
0.00249994
-3.982e-08
0.00249996
-2.98908e-08
0.00249997
-2.23877e-08
0.00249998
-1.66466e-08
0.00249998
-1.2284e-08
0.00249999
-9.0207e-09
0.00249999
-6.61482e-09
0.00249999
-4.85454e-09
0.0025
-3.56715e-09
0.0025
-2.62218e-09
0.0025
-1.9259e-09
0.0025
-1.41199e-09
0.0025
-1.03287e-09
0.0025
-7.5365e-10
0.0025
-5.48311e-10
0.0025
-3.97446e-10
0.0025
-2.86635e-10
0.0025
-2.05271e-10
0.0025
-1.45549e-10
0.0025
-1.01754e-10
0.0025
-6.96744e-11
0.0025
-4.6218e-11
0.0025
-2.90974e-11
0.0025
-1.66395e-11
0.0025
-7.60244e-12
0.0025
-1.08326e-12
0.0025
3.59211e-12
0.0025
6.90959e-12
0.0025
9.23591e-12
0.0025
1.08316e-11
0.0025
1.1897e-11
0.0025
1.2571e-11
0.0025
1.29637e-11
0.0025
1.31483e-11
0.0025
1.31862e-11
0.0025
1.31153e-11
0.0025
1.29701e-11
0.0025
1.27696e-11
0.0025
1.25338e-11
0.0025
1.22717e-11
0.0025
1.19952e-11
0.0025
1.17079e-11
0.0025
1.14174e-11
0.0025
1.11244e-11
0.0025
1.08341e-11
0.0025
1.05457e-11
0.0025
1.02629e-11
0.0025
9.98446e-12
0.0025
9.7129e-12
0.0025
9.44677e-12
0.0025
9.18807e-12
0.0025
8.93524e-12
0.0025
8.68985e-12
0.0025
8.45046e-12
0.0025
8.21824e-12
0.0025
7.99192e-12
0.0025
7.77238e-12
0.0025
7.55852e-12
0.0025
7.35097e-12
0.0025
7.14885e-12
0.0025
6.95257e-12
0.0025
6.76144e-12
0.0025
6.57566e-12
0.0025
6.39475e-12
0.0025
6.21873e-12
0.0025
6.04732e-12
0.0025
5.88035e-12
0.0025
5.71774e-12
0.0025
5.55917e-12
0.0025
5.40473e-12
0.0025
5.25396e-12
0.0025
5.10709e-12
0.0025
4.96355e-12
0.0025
4.82374e-12
0.0025
4.68693e-12
0.0025
4.55367e-12
0.0025
4.42314e-12
0.0025
4.29602e-12
0.0025
4.17136e-12
0.0025
4.04996e-12
0.0025
3.9308e-12
0.0025
3.81478e-12
0.0025
3.70084e-12
0.0025
3.58989e-12
0.0025
3.48095e-12
0.0025
3.37474e-12
0.0025
3.27081e-12
0.0025
3.16856e-12
0.0025
3.07068e-12
0.0025
2.96973e-12
0.0025
2.88476e-12
0.0025
2.77116e-12
0.0025
2.73789e-12
0.0025
2.53325e-12
0.0025
2.75268e-12
2.15999e-12
0.00250275
-8.38977e-06
0.00251107
-2.53052e-05
0.00252533
-4.32763e-05
0.00254608
-6.2689e-05
0.00257391
-8.36335e-05
0.00260922
-0.00010546
0.00265201
-0.000126869
0.00270129
-0.000145139
0.00275501
-0.000157288
0.00280973
-0.000159702
0.00286116
-0.00015014
0.00290586
-0.00013056
0.00294095
-0.000102532
0.0029641
-6.77271e-05
0.00297379
-2.85491e-05
0.00296944
1.21637e-05
0.00295173
5.09042e-05
0.0029226
8.40863e-05
0.00288502
0.000108932
0.00284238
0.000124173
0.00279791
0.000130135
0.0027543
0.000128317
0.00271347
0.00012079
0.00267659
0.000109672
0.0026442
9.67921e-05
0.00261635
8.35452e-05
0.00259281
7.08741e-05
0.00257317
5.93344e-05
0.00255691
4.91881e-05
0.00254355
4.04993e-05
0.0025326
3.32121e-05
0.00252363
2.71953e-05
0.00251628
2.22489e-05
0.0025103
1.80922e-05
0.00250552
1.43723e-05
0.00250192
1.07332e-05
0.00249954
6.94691e-06
0.00249842
3.04747e-06
0.00249849
-6.22898e-07
0.00249951
-3.51826e-06
0.00250106
-5.12108e-06
0.00250265
-5.19273e-06
0.00250383
-3.90877e-06
0.00250433
-1.80614e-06
0.00250411
4.25255e-07
0.00250332
2.19317e-06
0.00250221
3.1753e-06
0.00250105
3.35219e-06
0.00250005
2.9213e-06
0.00249931
2.163e-06
0.00249885
1.32914e-06
0.00249865
5.88289e-07
0.00249865
2.2484e-08
0.00249878
-3.49807e-07
0.00249897
-5.47392e-07
0.00249918
-6.07307e-07
0.00249938
-5.73027e-07
0.00249954
-4.86581e-07
0.00249967
-3.82653e-07
0.00249976
-2.84905e-07
0.00249982
-2.05362e-07
0.00249987
-1.46654e-07
0.0024999
-1.0579e-07
0.00249993
-7.78047e-08
0.00249995
-5.81725e-08
0.00249996
-4.37697e-08
0.00249997
-3.28164e-08
0.00249998
-2.43944e-08
0.00249998
-1.79836e-08
0.00249999
-1.31931e-08
0.00249999
-9.6692e-09
0.00249999
-7.09636e-09
0.0025
-5.21674e-09
0.0025
-3.83704e-09
0.0025
-2.81983e-09
0.0025
-2.06858e-09
0.0025
-1.51422e-09
0.0025
-1.10594e-09
0.0025
-8.05744e-10
0.0025
-5.85203e-10
0.0025
-4.23212e-10
0.0025
-3.04245e-10
0.0025
-2.16902e-10
0.0025
-1.52831e-10
0.0025
-1.0588e-10
0.0025
-7.15293e-11
0.0025
-4.64392e-11
0.0025
-2.81609e-11
0.0025
-1.48822e-11
0.0025
-5.28095e-12
0.0025
1.62529e-12
0.0025
6.54904e-12
0.0025
1.00236e-11
0.0025
1.24321e-11
0.0025
1.40646e-11
0.0025
1.51263e-11
0.0025
1.57757e-11
0.0025
1.61219e-11
0.0025
1.62521e-11
0.0025
1.62236e-11
0.0025
1.60848e-11
0.0025
1.58652e-11
0.0025
1.55923e-11
0.0025
1.52805e-11
0.0025
1.49457e-11
0.0025
1.45946e-11
0.0025
1.42368e-11
0.0025
1.38746e-11
0.0025
1.35143e-11
0.0025
1.31559e-11
0.0025
1.28036e-11
0.0025
1.24567e-11
0.0025
1.21179e-11
0.0025
1.17859e-11
0.0025
1.14629e-11
0.0025
1.11474e-11
0.0025
1.0841e-11
0.0025
1.05422e-11
0.0025
1.02522e-11
0.0025
9.96976e-12
0.0025
9.69567e-12
0.0025
9.42876e-12
0.0025
9.16971e-12
0.0025
8.91747e-12
0.0025
8.67253e-12
0.0025
8.43401e-12
0.0025
8.20222e-12
0.0025
7.97647e-12
0.0025
7.7569e-12
0.0025
7.54301e-12
0.0025
7.33477e-12
0.0025
7.13187e-12
0.0025
6.93413e-12
0.0025
6.74142e-12
0.0025
6.55342e-12
0.0025
6.37016e-12
0.0025
6.19121e-12
0.0025
6.01674e-12
0.0025
5.84621e-12
0.0025
5.67992e-12
0.0025
5.51725e-12
0.0025
5.35859e-12
0.0025
5.20325e-12
0.0025
5.05174e-12
0.0025
4.90328e-12
0.0025
4.75848e-12
0.0025
4.61654e-12
0.0025
4.47805e-12
0.0025
4.34238e-12
0.0025
4.20977e-12
0.0025
4.08045e-12
0.0025
3.95275e-12
0.0025
3.83127e-12
0.0025
3.705e-12
0.0025
3.60006e-12
0.0025
3.45793e-12
0.0025
3.4149e-12
0.0025
3.16763e-12
0.0025
3.40376e-12
2.72949e-12
0.00250267
-1.10647e-05
0.00251076
-3.33919e-05
0.0025247
-5.72172e-05
0.00254514
-8.31283e-05
0.00257284
-0.000111327
0.0026084
-0.000141023
0.00265205
-0.000170525
0.00270296
-0.000196042
0.00275909
-0.000213418
0.00281658
-0.000217195
0.00287055
-0.000204107
0.00291739
-0.000177406
0.00295415
-0.00013929
0.00297836
-9.19406e-05
0.00298837
-3.85559e-05
0.00298348
1.70534e-05
0.00296437
7.00147e-05
0.00293319
0.000115267
0.00289324
0.000148887
0.00284826
0.000169146
0.00280179
0.000176602
0.00275666
0.000173452
0.00271481
0.000162642
0.00267735
0.000147126
0.00264473
0.00012941
0.00261691
0.000111367
0.00259355
9.42385e-05
0.00257415
7.87349e-05
0.00255816
6.51726e-05
0.00254505
5.36079e-05
0.00253432
4.39429e-05
0.00252553
3.59862e-05
0.00251832
2.94624e-05
0.00251242
2.39956e-05
0.00250767
1.91184e-05
0.00250404
1.43602e-05
0.00250157
9.416e-06
0.0025003
4.32281e-06
0.00250015
-4.78211e-07
0.00250091
-4.27543e-06
0.00250218
-6.38946e-06
0.00250349
-6.50278e-06
0.00250442
-4.84019e-06
0.00250472
-2.10237e-06
0.00250434
8.05995e-07
0.00250342
3.10559e-06
0.00250223
4.36997e-06
0.00250101
4.57069e-06
0.00249997
3.96596e-06
0.0024992
2.92565e-06
0.00249875
1.78494e-06
0.00249856
7.71308e-07
0.00249859
-1.75052e-09
0.00249875
-5.06644e-07
0.00249897
-7.68302e-07
0.0024992
-8.38826e-07
0.00249941
-7.80467e-07
0.00249957
-6.53357e-07
0.0024997
-5.06338e-07
0.00249978
-3.71703e-07
0.00249984
-2.64776e-07
0.00249988
-1.87698e-07
0.00249991
-1.35169e-07
0.00249993
-9.9697e-08
0.00249995
-7.48789e-08
0.00249996
-5.65367e-08
0.00249997
-4.24416e-08
0.00249998
-3.15262e-08
0.00249999
-2.32015e-08
0.00249999
-1.69938e-08
0.00249999
-1.24446e-08
0.00249999
-9.13387e-09
0.0025
-6.71868e-09
0.0025
-4.94543e-09
0.0025
-3.63668e-09
0.0025
-2.66923e-09
0.0025
-1.95506e-09
0.0025
-1.42915e-09
0.0025
-1.04258e-09
0.0025
-7.5865e-10
0.0025
-5.50097e-10
0.0025
-3.96906e-10
0.0025
-2.84405e-10
0.0025
-2.01853e-10
0.0025
-1.41336e-10
0.0025
-9.70377e-11
0.0025
-6.46588e-11
0.0025
-4.10453e-11
0.0025
-2.38663e-11
0.0025
-1.14181e-11
0.0025
-2.43838e-12
0.0025
3.99163e-12
0.0025
8.55643e-12
0.0025
1.17505e-11
0.0025
1.39456e-11
0.0025
1.54069e-11
0.0025
1.63369e-11
0.0025
1.6877e-11
0.0025
1.7138e-11
0.0025
1.71945e-11
0.0025
1.71078e-11
0.0025
1.69165e-11
0.0025
1.66547e-11
0.0025
1.63421e-11
0.0025
1.5998e-11
0.0025
1.56317e-11
0.0025
1.52548e-11
0.0025
1.48709e-11
0.0025
1.44871e-11
0.0025
1.41046e-11
0.0025
1.37276e-11
0.0025
1.3356e-11
0.0025
1.29926e-11
0.0025
1.26365e-11
0.0025
1.22898e-11
0.0025
1.19512e-11
0.0025
1.16222e-11
0.0025
1.13015e-11
0.0025
1.09902e-11
0.0025
1.0687e-11
0.0025
1.03928e-11
0.0025
1.01064e-11
0.0025
9.82839e-12
0.0025
9.55777e-12
0.0025
9.29497e-12
0.0025
9.03912e-12
0.0025
8.7905e-12
0.0025
8.54838e-12
0.0025
8.31291e-12
0.0025
8.08355e-12
0.0025
7.86027e-12
0.0025
7.64271e-12
0.0025
7.43073e-12
0.0025
7.22411e-12
0.0025
7.02261e-12
0.0025
6.82614e-12
0.0025
6.63437e-12
0.0025
6.44734e-12
0.0025
6.26461e-12
0.0025
6.08635e-12
0.0025
5.91205e-12
0.0025
5.74199e-12
0.0025
5.57557e-12
0.0025
5.41318e-12
0.0025
5.25416e-12
0.0025
5.09897e-12
0.0025
4.94695e-12
0.0025
4.79853e-12
0.0025
4.65328e-12
0.0025
4.51114e-12
0.0025
4.3728e-12
0.0025
4.23589e-12
0.0025
4.10621e-12
0.0025
3.97068e-12
0.0025
3.85894e-12
0.0025
3.70694e-12
0.0025
3.65718e-12
0.0025
3.40493e-12
0.0025
3.60716e-12
2.96536e-12
0.00250256
-1.36255e-05
0.00251032
-4.1149e-05
0.00252379
-7.06882e-05
0.00254376
-0.000103096
0.00257119
-0.000138763
0.002607
-0.000176836
0.00265177
-0.00021529
0.00270486
-0.000249135
0.00276433
-0.000272884
0.00282568
-0.000278543
0.00288312
-0.000261547
0.00293288
-0.000227167
0.00297191
-0.000178318
0.00299758
-0.000117615
0.00300805
-4.90224e-05
0.00300243
2.26734e-05
0.00298139
9.10509e-05
0.00294736
0.000149299
0.00290411
0.000192134
0.00285593
0.000217329
0.00280673
0.000225801
0.00275954
0.000220639
0.00271634
0.000205841
0.00267816
0.000185311
0.00264529
0.000162285
0.00261753
0.000139122
0.00259443
0.000117343
0.00257538
9.77839e-05
0.00255976
8.07851e-05
0.002547
6.63687e-05
0.00253657
5.43749e-05
0.00252802
4.45381e-05
0.00252098
3.64996e-05
0.00251519
2.97864e-05
0.00251049
2.38196e-05
0.00250683
1.80179e-05
0.00250425
1.20009e-05
0.00250277
5.80344e-06
0.00250233
-4.53289e-08
0.00250274
-4.68203e-06
0.00250363
-7.27671e-06
0.00250456
-7.43696e-06
0.00250515
-5.43197e-06
0.00250517
-2.11487e-06
0.00250456
1.40836e-06
0.00250349
4.18205e-06
0.00250218
5.68096e-06
0.00250088
5.86743e-06
0.00249979
5.05706e-06
0.00249901
3.70601e-06
0.00249856
2.23207e-06
0.00249841
9.23724e-07
0.00249848
-7.08118e-08
0.00249868
-7.12591e-07
0.00249895
-1.03307e-06
0.00249921
-1.10241e-06
0.00249944
-1.00596e-06
0.00249961
-8.25806e-07
0.00249973
-6.27249e-07
0.00249981
-4.51611e-07
0.00249986
-3.16582e-07
0.0024999
-2.22335e-07
0.00249992
-1.59946e-07
0.00249994
-1.18589e-07
0.00249996
-8.96857e-08
0.00249997
-6.80421e-08
0.00249998
-5.11456e-08
0.00249998
-3.79345e-08
0.00249999
-2.78418e-08
0.00249999
-2.03446e-08
0.00249999
-1.48821e-08
0.00249999
-1.09248e-08
0.0025
-8.04298e-09
0.0025
-5.92563e-09
0.0025
-4.36021e-09
0.0025
-3.20145e-09
0.0025
-2.34572e-09
0.0025
-1.71577e-09
0.0025
-1.25298e-09
0.0025
-9.13184e-10
0.0025
-6.63606e-10
0.0025
-4.80244e-10
0.0025
-3.4555e-10
0.0025
-2.46685e-10
0.0025
-1.74189e-10
0.0025
-1.21101e-10
0.0025
-8.22769e-11
0.0025
-5.39388e-11
0.0025
-3.32987e-11
0.0025
-1.83167e-11
0.0025
-7.48379e-12
0.0025
3.00353e-13
0.0025
5.85331e-12
0.0025
9.76779e-12
0.0025
1.24871e-11
0.0025
1.43296e-11
0.0025
1.5536e-11
0.0025
1.62764e-11
0.0025
1.6682e-11
0.0025
1.6843e-11
0.0025
1.68313e-11
0.0025
1.6694e-11
0.0025
1.64709e-11
0.0025
1.6186e-11
0.0025
1.58617e-11
0.0025
1.55097e-11
0.0025
1.5143e-11
0.0025
1.47666e-11
0.0025
1.43884e-11
0.0025
1.401e-11
0.0025
1.36364e-11
0.0025
1.32673e-11
0.0025
1.29062e-11
0.0025
1.2552e-11
0.0025
1.22071e-11
0.0025
1.18701e-11
0.0025
1.15427e-11
0.0025
1.12236e-11
0.0025
1.09138e-11
0.0025
1.06122e-11
0.0025
1.03195e-11
0.0025
1.00347e-11
0.0025
9.7582e-12
0.0025
9.48912e-12
0.0025
9.22786e-12
0.0025
8.97354e-12
0.0025
8.72645e-12
0.0025
8.48584e-12
0.0025
8.25188e-12
0.0025
8.02399e-12
0.0025
7.80219e-12
0.0025
7.58607e-12
0.0025
7.37553e-12
0.0025
7.17032e-12
0.0025
6.97022e-12
0.0025
6.77513e-12
0.0025
6.58471e-12
0.0025
6.399e-12
0.0025
6.21758e-12
0.0025
6.04061e-12
0.0025
5.86758e-12
0.0025
5.69876e-12
0.0025
5.53359e-12
0.0025
5.3724e-12
0.0025
5.21459e-12
0.0025
5.06056e-12
0.0025
4.90972e-12
0.0025
4.76243e-12
0.0025
4.61836e-12
0.0025
4.47731e-12
0.0025
4.34021e-12
0.0025
4.20432e-12
0.0025
4.076e-12
0.0025
3.9414e-12
0.0025
3.83079e-12
0.0025
3.68094e-12
0.0025
3.62621e-12
0.0025
3.39078e-12
0.0025
3.53817e-12
2.98388e-12
0.00250241
-1.6031e-05
0.00250971
-4.84566e-05
0.00252253
-8.35034e-05
0.0025418
-0.000122372
0.00256878
-0.000165741
0.00260477
-0.000212825
0.00265083
-0.000261352
0.00270669
-0.000304995
0.00277056
-0.000336752
0.002837
-0.000344982
0.00289892
-0.000323463
0.0029524
-0.000280647
0.00299434
-0.000220258
0.00302192
-0.000145198
0.00303302
-6.01212e-05
0.00302647
2.9228e-05
0.0030029
0.000114616
0.00296511
0.000187087
0.00291755
0.000239694
0.00286521
0.000269675
0.00281251
0.000278495
0.00276275
0.000270404
0.0027179
0.000250686
0.00267887
0.000224347
0.00264574
0.000195413
0.00261813
0.000166732
0.0025954
0.000140074
0.00257682
0.000116358
0.0025617
9.59076e-05
0.00254939
7.86791e-05
0.00253934
6.44246e-05
0.00253109
5.27871e-05
0.00252428
4.33151e-05
0.00251863
3.54365e-05
0.00251398
2.84643e-05
0.00251029
2.17123e-05
0.00250756
1.47275e-05
0.00250583
7.53757e-06
0.00250503
7.46246e-07
0.002505
-4.64899e-06
0.00250541
-7.68277e-06
0.00250586
-7.89407e-06
0.00250602
-5.59142e-06
0.00250567
-1.76618e-06
0.00250479
2.29176e-06
0.00250351
5.46479e-06
0.00250205
7.1361e-06
0.00250066
7.25872e-06
0.00249952
6.20125e-06
0.00249872
4.50189e-06
0.00249829
2.66023e-06
0.00249819
1.02872e-06
0.00249832
-2.05068e-07
0.0024986
-9.87876e-07
0.00249892
-1.35843e-06
0.00249923
-1.40935e-06
0.00249948
-1.25507e-06
0.00249966
-1.00498e-06
0.00249978
-7.43742e-07
0.00249985
-5.22036e-07
0.00249989
-3.584e-07
0.00249991
-2.48908e-07
0.00249993
-1.79198e-07
0.00249995
-1.34062e-07
0.00249996
-1.02426e-07
0.00249997
-7.81961e-08
0.00249998
-5.88405e-08
0.00249999
-4.35216e-08
0.00249999
-3.18107e-08
0.00249999
-2.31683e-08
0.00249999
-1.69251e-08
0.0025
-1.24303e-08
0.0025
-9.16321e-09
0.0025
-6.75876e-09
0.0025
-4.97618e-09
0.0025
-3.65421e-09
0.0025
-2.67758e-09
0.0025
-1.95911e-09
0.0025
-1.43175e-09
0.0025
-1.04474e-09
0.0025
-7.6051e-10
0.0025
-5.51635e-10
0.0025
-3.98155e-10
0.0025
-2.85475e-10
0.0025
-2.02836e-10
0.0025
-1.42307e-10
0.0025
-9.80253e-11
0.0025
-6.56844e-11
0.0025
-4.21091e-11
0.0025
-2.49747e-11
0.0025
-1.25643e-11
0.0025
-3.62358e-12
0.0025
2.77711e-12
0.0025
7.31378e-12
0.0025
1.049e-11
0.0025
1.2669e-11
0.0025
1.41238e-11
0.0025
1.50486e-11
0.0025
1.55919e-11
0.0025
1.58567e-11
0.0025
1.59241e-11
0.0025
1.58482e-11
0.0025
1.56734e-11
0.0025
1.54277e-11
0.0025
1.51357e-11
0.0025
1.48112e-11
0.0025
1.44683e-11
0.0025
1.41133e-11
0.0025
1.37544e-11
0.0025
1.33941e-11
0.0025
1.30373e-11
0.0025
1.26844e-11
0.0025
1.23387e-11
0.0025
1.19994e-11
0.0025
1.16689e-11
0.0025
1.1346e-11
0.0025
1.10323e-11
0.0025
1.07265e-11
0.0025
1.04297e-11
0.0025
1.01408e-11
0.0025
9.86046e-12
0.0025
9.58769e-12
0.0025
9.32304e-12
0.0025
9.0655e-12
0.0025
8.81548e-12
0.0025
8.57216e-12
0.0025
8.33579e-12
0.0025
8.10566e-12
0.0025
7.88193e-12
0.0025
7.66402e-12
0.0025
7.45197e-12
0.0025
7.24537e-12
0.0025
7.04414e-12
0.0025
6.848e-12
0.0025
6.65678e-12
0.0025
6.47033e-12
0.0025
6.2884e-12
0.0025
6.11095e-12
0.0025
5.93765e-12
0.0025
5.76857e-12
0.0025
5.6033e-12
0.0025
5.44203e-12
0.0025
5.28429e-12
0.0025
5.13033e-12
0.0025
4.97964e-12
0.0025
4.83253e-12
0.0025
4.68853e-12
0.0025
4.54787e-12
0.0025
4.41039e-12
0.0025
4.27571e-12
0.0025
4.14497e-12
0.0025
4.01522e-12
0.0025
3.89296e-12
0.0025
3.76449e-12
0.0025
3.65871e-12
0.0025
3.51719e-12
0.0025
3.45866e-12
0.0025
3.24888e-12
0.0025
3.34205e-12
2.88561e-12
0.0025022
-1.82325e-05
0.00250892
-5.51703e-05
0.00252084
-9.54312e-05
0.00253914
-0.000140664
0.00256536
-0.000191966
0.00260134
-0.000248808
0.00264881
-0.000308815
0.00270802
-0.000364211
0.00277754
-0.000406274
0.00285053
-0.000417969
0.00291801
-0.000390948
0.00297605
-0.000338683
0.00302158
-0.000265787
0.00305157
-0.000175192
0.00306354
-7.20896e-05
0.00305587
3.68983e-05
0.00302911
0.000141376
0.00298652
0.000229682
0.00293345
0.000292763
0.00287584
0.00032728
0.00281882
0.000335519
0.00276594
0.00032328
0.00271918
0.000297444
0.00267923
0.000264301
0.00264591
0.000228733
0.00261857
0.000194069
0.00259637
0.000162276
0.00257843
0.000134302
0.00256393
0.000110402
0.00255219
9.04234e-05
0.00254261
7.40005e-05
0.00253473
6.06647e-05
0.00252819
4.98612e-05
0.00252271
4.09162e-05
0.00251813
3.30398e-05
0.0025144
2.54486e-05
0.0025115
1.76207e-05
0.00250947
9.57232e-06
0.00250825
1.96634e-06
0.00250769
-4.08724e-06
0.00250751
-7.50707e-06
0.00250739
-7.77247e-06
0.00250702
-5.22597e-06
0.00250624
-9.79896e-07
0.00250502
3.51395e-06
0.00250349
6.99439e-06
0.00250186
8.76227e-06
0.00250036
8.76083e-06
0.00249915
7.40566e-06
0.00249834
5.31143e-06
0.00249794
3.05862e-06
0.00249791
1.06807e-06
0.00249813
-4.26865e-07
0.00249849
-1.35454e-06
0.0024989
-1.76213e-06
0.00249926
-1.77078e-06
0.00249954
-1.53228e-06
0.00249972
-1.19032e-06
0.00249983
-8.52583e-07
0.00249989
-5.79164e-07
0.00249992
-3.87143e-07
0.00249993
-2.6549e-07
0.00249995
-1.92004e-07
0.00249996
-1.45809e-07
0.00249997
-1.13042e-07
0.00249998
-8.69779e-08
0.00249998
-6.54653e-08
0.00249999
-4.8193e-08
0.00249999
-3.501e-08
0.00249999
-2.53849e-08
0.0025
-1.85182e-08
0.0025
-1.36149e-08
0.0025
-1.00562e-08
0.0025
-7.42861e-09
0.0025
-5.47224e-09
0.0025
-4.01772e-09
0.0025
-2.94296e-09
0.0025
-2.15327e-09
0.0025
-1.57442e-09
0.0025
-1.14994e-09
0.0025
-8.38189e-10
0.0025
-6.09005e-10
0.0025
-4.40546e-10
0.0025
-3.16847e-10
0.0025
-2.26124e-10
0.0025
-1.5967e-10
0.0025
-1.11045e-10
0.0025
-7.55198e-11
0.0025
-4.96084e-11
0.0025
-3.07601e-11
0.0025
-1.70924e-11
0.0025
-7.22847e-12
0.0025
-1.49552e-13
0.0025
4.88689e-12
0.0025
8.43208e-12
0.0025
1.0885e-11
0.0025
1.25443e-11
0.0025
1.36233e-11
0.0025
1.42839e-11
0.0025
1.46396e-11
0.0025
1.47785e-11
0.0025
1.47602e-11
0.0025
1.46329e-11
0.0025
1.44273e-11
0.0025
1.41701e-11
0.0025
1.38767e-11
0.0025
1.35619e-11
0.0025
1.3233e-11
0.0025
1.28985e-11
0.0025
1.25614e-11
0.0025
1.22268e-11
0.0025
1.18955e-11
0.0025
1.15704e-11
0.0025
1.12514e-11
0.0025
1.09405e-11
0.0025
1.06368e-11
0.0025
1.03417e-11
0.0025
1.00541e-11
0.0025
9.77509e-12
0.0025
9.50351e-12
0.0025
9.24013e-12
0.0025
8.98389e-12
0.0025
8.73533e-12
0.0025
8.49351e-12
0.0025
8.25883e-12
0.0025
8.03046e-12
0.0025
7.80867e-12
0.0025
7.59278e-12
0.0025
7.38292e-12
0.0025
7.17856e-12
0.0025
6.97973e-12
0.0025
6.78603e-12
0.0025
6.59739e-12
0.0025
6.41354e-12
0.0025
6.23433e-12
0.0025
6.05958e-12
0.0025
5.88911e-12
0.0025
5.72284e-12
0.0025
5.56048e-12
0.0025
5.40206e-12
0.0025
5.24726e-12
0.0025
5.09618e-12
0.0025
4.94845e-12
0.0025
4.80423e-12
0.0025
4.66312e-12
0.0025
4.52536e-12
0.0025
4.39055e-12
0.0025
4.25883e-12
0.0025
4.13016e-12
0.0025
4.00408e-12
0.0025
3.88179e-12
0.0025
3.76034e-12
0.0025
3.64602e-12
0.0025
3.5259e-12
0.0025
3.42632e-12
0.0025
3.29571e-12
0.0025
3.2345e-12
0.0025
3.05163e-12
0.0025
3.10074e-12
2.7313e-12
0.00250194
-2.01725e-05
0.00250789
-6.11187e-05
0.00251864
-0.000106187
0.00253557
-0.000157593
0.00256062
-0.00021701
0.00259626
-0.00028445
0.00264509
-0.00035765
0.00270826
-0.000427376
0.00278496
-0.000482972
0.00286624
-0.000499253
0.00294047
-0.000465173
0.00300392
-0.000402134
0.00305377
-0.000315642
0.00308677
-0.00020819
0.0030999
-8.52181e-05
0.00309089
4.59036e-05
0.00306014
0.000172126
0.00301152
0.000278308
0.00295158
0.000352699
0.00288752
0.000391346
0.00282528
0.000397756
0.00276877
0.000379791
0.00271988
0.000346335
0.002679
0.000305179
0.00264561
0.000262126
0.00261872
0.000220952
0.00259724
0.000183756
0.00258011
0.000151435
0.0025664
0.000124112
0.00255535
0.000101474
0.00254635
8.30037e-05
0.00253891
6.80986e-05
0.00253269
5.6088e-05
0.00252741
4.61948e-05
0.00252292
3.75322e-05
0.00251913
2.92295e-05
0.00251605
2.07025e-05
0.00251367
1.19514e-05
0.00251196
3.68154e-06
0.00251078
-2.91021e-06
0.00250992
-6.65064e-06
0.00250912
-6.97166e-06
0.00250814
-4.24439e-06
0.00250684
3.1854e-07
0.00250523
5.13049e-06
0.00250341
8.80948e-06
0.00250159
1.05852e-05
0.00249996
1.03898e-05
0.00249869
8.67763e-06
0.00249787
6.13244e-06
0.00249751
3.41492e-06
0.00249756
1.02071e-06
0.00249789
-7.61989e-07
0.00249838
-1.83762e-06
0.00249888
-2.26351e-06
0.00249931
-2.19776e-06
0.00249961
-1.8406e-06
0.0024998
-1.37913e-06
0.0024999
-9.48466e-07
0.00249994
-6.17672e-07
0.00249995
-3.98909e-07
0.00249995
-2.69913e-07
0.00249996
-1.9753e-07
0.00249997
-1.53717e-07
0.00249998
-1.21646e-07
0.00249998
-9.44596e-08
0.00249999
-7.09905e-08
0.00249999
-5.18535e-08
0.00249999
-3.73337e-08
0.0025
-2.69111e-08
0.0025
-1.96077e-08
0.0025
-1.44476e-08
0.0025
-1.0704e-08
0.0025
-7.92275e-09
0.0025
-5.83844e-09
0.0025
-4.28375e-09
0.0025
-3.13532e-09
0.0025
-2.2933e-09
0.0025
-1.67737e-09
0.0025
-1.22611e-09
0.0025
-8.9464e-10
0.0025
-6.50817e-10
0.0025
-4.71517e-10
0.0025
-3.39843e-10
0.0025
-2.43283e-10
0.0025
-1.72562e-10
0.0025
-1.20815e-10
0.0025
-8.30016e-11
0.0025
-5.54123e-11
0.0025
-3.53328e-11
0.0025
-2.0762e-11
0.0025
-1.02345e-11
0.0025
-2.66741e-12
0.0025
2.72988e-12
0.0025
6.5427e-12
0.0025
9.19605e-12
0.0025
1.10064e-11
0.0025
1.22012e-11
0.0025
1.29517e-11
0.0025
1.33789e-11
0.0025
1.35757e-11
0.0025
1.36058e-11
0.0025
1.35198e-11
0.0025
1.33506e-11
0.0025
1.31261e-11
0.0025
1.28627e-11
0.0025
1.25759e-11
0.0025
1.22736e-11
0.0025
1.19645e-11
0.0025
1.1652e-11
0.0025
1.13411e-11
0.0025
1.10328e-11
0.0025
1.07302e-11
0.0025
1.04331e-11
0.0025
1.01436e-11
0.0025
9.86082e-12
0.0025
9.5861e-12
0.0025
9.31851e-12
0.0025
9.05893e-12
0.0025
8.8064e-12
0.0025
8.56154e-12
0.0025
8.32344e-12
0.0025
8.09252e-12
0.0025
7.86795e-12
0.0025
7.65006e-12
0.0025
7.43811e-12
0.0025
7.2323e-12
0.0025
7.03201e-12
0.0025
6.83736e-12
0.0025
6.64784e-12
0.0025
6.46349e-12
0.0025
6.28392e-12
0.0025
6.10907e-12
0.0025
5.93866e-12
0.0025
5.7726e-12
0.0025
5.61067e-12
0.0025
5.45273e-12
0.0025
5.29868e-12
0.0025
5.14828e-12
0.0025
5.00154e-12
0.0025
4.85817e-12
0.0025
4.71825e-12
0.0025
4.58145e-12
0.0025
4.44789e-12
0.0025
4.31725e-12
0.0025
4.18968e-12
0.0025
4.0649e-12
0.0025
3.94297e-12
0.0025
3.82391e-12
0.0025
3.7072e-12
0.0025
3.59411e-12
0.0025
3.48174e-12
0.0025
3.37596e-12
0.0025
3.26504e-12
0.0025
3.17211e-12
0.0025
3.05316e-12
0.0025
2.99065e-12
0.0025
2.83272e-12
0.0025
2.84976e-12
2.5508e-12
0.00250161
-2.17843e-05
0.00250659
-6.61009e-05
0.00251583
-0.000115425
0.00253091
-0.000172672
0.00255418
-0.00024028
0.00258894
-0.000319208
0.00263892
-0.000407625
0.00270661
-0.000495073
0.0027924
-0.000568758
0.00288414
-0.000590999
0.00296637
-0.000547402
0.00303608
-0.000471844
0.00309102
-0.000370576
0.00312772
-0.000244895
0.00314249
-9.99842e-05
0.00313203
5.63643e-05
0.00309638
0.000207775
0.0030402
0.000334491
0.0029717
0.000421197
0.00289972
0.000463321
0.00283129
0.000466185
0.00277064
0.000440442
0.00271949
0.000397492
0.00267779
0.000346877
0.00264455
0.000295368
0.00261838
0.000247119
0.00259788
0.000204259
0.00258178
0.000167534
0.00256904
0.000136853
0.00255882
0.000111687
0.0025505
9.13264e-05
0.00254359
7.50113e-05
0.00253773
6.19431e-05
0.00253269
5.124e-05
0.00252829
4.19261e-05
0.00252447
3.30558e-05
0.00252118
2.39916e-05
0.00251841
1.47151e-05
0.00251614
5.95543e-06
0.00251426
-1.03317e-06
0.00251263
-5.01525e-06
0.00251105
-5.39132e-06
0.00250936
-2.55596e-06
0.00250748
2.20229e-06
0.00250541
7.19485e-06
0.00250327
1.09467e-05
0.00250123
1.26294e-05
0.00249946
1.21613e-05
0.00249811
1.00242e-05
0.00249728
6.96144e-06
0.00249698
3.71369e-06
0.00249714
8.60744e-07
0.00249762
-1.24172e-06
0.00249825
-2.46675e-06
0.00249887
-2.88445e-06
0.00249938
-2.70145e-06
0.00249972
-2.18122e-06
0.00249991
-1.56604e-06
0.00249998
-1.02358e-06
0.00249999
-6.30509e-07
0.00249998
-3.88988e-07
0.00249997
-2.59905e-07
0.00249997
-1.95203e-07
0.00249998
-1.58004e-07
0.00249998
-1.28593e-07
0.00249999
-1.00838e-07
0.00249999
-7.54224e-08
0.0025
-5.4404e-08
0.0025
-3.86662e-08
0.0025
-2.76616e-08
0.0025
-2.01463e-08
0.0025
-1.49068e-08
0.0025
-1.10963e-08
0.0025
-8.23419e-09
0.0025
-6.06816e-09
0.0025
-4.44609e-09
0.0025
-3.24951e-09
0.0025
-2.37537e-09
0.0025
-1.73789e-09
0.0025
-1.27136e-09
0.0025
-9.28488e-10
0.0025
-6.76029e-10
0.0025
-4.90264e-10
0.0025
-3.5384e-10
0.0025
-2.53829e-10
0.0025
-1.80604e-10
0.0025
-1.27035e-10
0.0025
-8.78873e-11
0.0025
-5.93205e-11
0.0025
-3.85242e-11
0.0025
-2.3428e-11
0.0025
-1.25145e-11
0.0025
-4.66284e-12
0.0025
9.45894e-13
0.0025
4.91696e-12
0.0025
7.69058e-12
0.0025
9.59353e-12
0.0025
1.08614e-11
0.0025
1.16707e-11
0.0025
1.21469e-11
0.0025
1.23854e-11
0.0025
1.24522e-11
0.0025
1.23992e-11
0.0025
1.22606e-11
0.0025
1.20646e-11
0.0025
1.18286e-11
0.0025
1.15679e-11
0.0025
1.12912e-11
0.0025
1.10068e-11
0.0025
1.07186e-11
0.0025
1.04313e-11
0.0025
1.01464e-11
0.0025
9.86651e-12
0.0025