/*--------------------------------*- C++ -*----------------------------------*\
  =========                 |
  \\      /  F ield         | OpenFOAM: The Open Source CFD Toolbox
   \\    /   O peration     | Website:  https://openfoam.org
    \\  /    A nd           | Version:  11
     \\/     M anipulation  |
\*---------------------------------------------------------------------------*/
FoamFile
{
    format      ascii;
    class       surfaceScalarField;
    location    "13.783749";
    object      phi_0;
}
// * * * * * * * * * * * * * * * * * * * * * * * * * * * * * * * * * * * * * //

dimensions      [0 3 -1 0 0 0 0];

internalField   nonuniform List<scalar> 
14638
(
0.0025024
-2.40332e-06
0.00250941
-7.00338e-06
0.00252099
-1.15825e-05
0.00253725
-1.62571e-05
0.00255834
-2.10924e-05
0.00258428
-2.5942e-05
0.00261475
-3.04694e-05
0.00264872
-3.39737e-05
0.00268442
-3.56977e-05
0.00271938
-3.49589e-05
0.00275086
-3.14803e-05
0.00277728
-2.64217e-05
0.00279792
-2.06357e-05
0.00281259
-1.46749e-05
0.00282086
-8.26806e-06
0.00282127
-4.12583e-07
0.00281151
9.76612e-06
0.00278974
2.1769e-05
0.00275618
3.35587e-05
0.00271357
4.26136e-05
0.00266664
4.69253e-05
0.00262126
4.53809e-05
0.00258354
3.77227e-05
0.0025591
2.44416e-05
0.00255226
6.83514e-06
0.00256501
-1.27495e-05
0.00259557
-3.05624e-05
0.00263735
-4.17752e-05
0.00267957
-4.22185e-05
0.00271043
-3.08662e-05
0.0027214
-1.09642e-05
0.00270984
1.15547e-05
0.00267886
3.0979e-05
0.00263507
4.37905e-05
0.00258634
4.87277e-05
0.00254051
4.58337e-05
0.00250494
3.55688e-05
0.00248639
1.85487e-05
0.00249039
-3.99319e-06
0.00251956
-2.91774e-05
0.00257122
-5.1655e-05
0.00263572
-6.45053e-05
0.00269802
-6.22924e-05
0.00274247
-4.4457e-05
0.00275869
-1.62183e-05
0.00274468
1.40151e-05
0.00270603
3.86444e-05
0.00265249
5.35385e-05
0.00259448
5.80148e-05
0.00254128
5.3201e-05
0.00250086
4.04194e-05
0.00248025
2.06129e-05
0.0024852
-4.95467e-06
0.0025184
-3.31989e-05
0.00257667
-5.8271e-05
0.00264936
-7.26882e-05
0.00271994
-7.05857e-05
0.00277109
-5.11459e-05
0.00279075
-1.96561e-05
0.00277598
1.47666e-05
0.00273276
4.32165e-05
0.00267244
6.03263e-05
0.00260741
6.503e-05
0.00254838
5.9029e-05
0.00250378
4.45999e-05
0.00248042
2.33563e-05
0.00248371
-3.28844e-06
0.00251619
-3.24777e-05
0.002575
-5.88135e-05
0.0026503
-7.52933e-05
0.00272641
-7.61131e-05
0.00278602
-5.96119e-05
0.00281549
-2.94743e-05
0.002809
6.49771e-06
0.00276974
3.92576e-05
0.00270804
6.16969e-05
0.0026374
7.06409e-05
0.00257063
6.67728e-05
0.00251785
5.27833e-05
0.00248657
3.12728e-05
0.00248238
4.19619e-06
0.00250819
-2.58129e-05
0.0025622
-5.40101e-05
0.00263619
-7.39891e-05
0.00271626
-8.0073e-05
0.0027862
-6.99383e-05
0.00283189
-4.56898e-05
0.00284483
-1.2943e-05
0.00282367
2.11648e-05
0.00277372
4.99452e-05
0.00270515
6.85693e-05
0.00263038
7.47732e-05
0.00256158
6.87953e-05
0.00250916
5.24252e-05
0.0024813
2.7861e-05
0.00248368
-2.37895e-06
0.00251809
-3.44166e-05
0.0025806
-6.25034e-05
0.0026609
-8.02981e-05
0.00274423
-8.33298e-05
0.00281515
-7.09256e-05
0.00286159
-4.64437e-05
0.00287746
-1.58679e-05
0.00286315
1.43114e-05
0.00282426
3.88956e-05
0.00276946
5.47964e-05
0.00270867
6.07914e-05
0.00265186
5.68092e-05
0.00260845
4.34038e-05
0.00258663
2.18207e-05
0.00259199
-5.35692e-06
0.00262565
-3.36623e-05
0.00268293
-5.72814e-05
0.00275376
-7.0823e-05
0.00282513
-7.13728e-05
0.00288471
-5.9581e-05
0.00292399
-3.92794e-05
0.00294002
-1.60335e-05
0.00293542
4.60178e-06
0.00291693
1.8494e-05
0.00289326
2.36698e-05
0.002873
2.02599e-05
0.00286314
9.85382e-06
0.00286847
-5.32611e-06
0.00289141
-2.29428e-05
0.00293199
-4.05809e-05
0.00298756
-5.55647e-05
0.00305257
-6.5008e-05
0.0031189
-6.63305e-05
0.00317695
-5.80541e-05
0.00321741
-4.04547e-05
0.00323314
-1.57363e-05
0.00322077
1.23734e-05
0.00318133
3.94423e-05
0.00311995
6.13789e-05
0.00304461
7.53374e-05
0.00296445
8.01627e-05
0.00288816
7.62903e-05
0.00282287
6.52874e-05
0.00277353
4.9339e-05
0.00274269
3.08401e-05
0.00273061
1.20821e-05
0.0027356
-4.99219e-06
0.00275452
-1.89187e-05
0.00278324
-2.87233e-05
0.00281711
-3.38628e-05
0.00285129
-3.41794e-05
0.00288118
-2.9899e-05
0.00290281
-2.16297e-05
0.00291312
-1.03058e-05
0.00291019
2.93083e-06
0.00289335
1.68406e-05
0.00286322
3.01277e-05
0.00282181
4.1408e-05
0.00277255
4.9261e-05
0.00272018
5.23732e-05
0.00266986
5.03187e-05
0.00262711
4.2752e-05
0.00259331
3.37975e-05
1.46146e-05
0.00250239
-4.7934e-06
0.00250936
-1.39687e-05
0.00252089
-2.31154e-05
0.00253712
-3.24853e-05
0.00255825
-4.22213e-05
0.00258434
-5.20402e-05
0.00261514
-6.12691e-05
0.00264963
-6.8461e-05
0.00268598
-7.205e-05
0.00272158
-7.05603e-05
0.00275349
-6.33899e-05
0.00278012
-5.30513e-05
0.00280084
-4.13478e-05
0.00281564
-2.94763e-05
0.00282422
-1.68506e-05
0.00282509
-1.28147e-06
0.00281566
1.91964e-05
0.00279381
4.36204e-05
0.00275963
6.774e-05
0.00271593
8.63127e-05
0.00266763
9.52199e-05
0.00262079
9.22228e-05
0.0025817
7.6813e-05
0.00255619
4.99478e-05
0.00254887
1.4154e-05
0.00256205
-2.59218e-05
0.00259413
-6.26493e-05
0.00263833
-8.59762e-05
0.0026832
-8.7085e-05
0.00271607
-6.37347e-05
0.00272782
-2.27112e-05
0.0027158
2.35762e-05
0.00268348
6.32987e-05
0.00263792
8.93452e-05
0.00258731
9.93403e-05
0.00253961
9.35336e-05
0.00250229
7.28861e-05
0.00248234
3.85036e-05
0.00248571
-7.37109e-06
0.00251562
-5.90794e-05
0.00256958
-0.000105621
0.00263754
-0.000132463
0.00270334
-0.000128097
0.0027502
-9.13138e-05
0.00276707
-3.30835e-05
0.00275206
2.90244e-05
0.0027114
7.92995e-05
0.00265552
0.000109425
0.00259523
0.000118304
0.00253994
0.000108485
0.00249765
8.27145e-05
0.00247552
4.27361e-05
0.00247975
-9.18289e-06
0.00251355
-6.69955e-05
0.00257404
-0.000118764
0.00265028
-0.000148928
0.00272477
-0.00014508
0.00277892
-0.000105287
0.00279974
-4.04839e-05
0.00278419
3.0319e-05
0.0027388
8.86041e-05
0.00267577
0.000123363
0.00260813
0.00013267
0.0025468
0.000120356
0.00250012
9.12751e-05
0.00247486
4.86234e-05
0.00247665
-5.08438e-06
0.00250859
-6.4413e-05
0.00256826
-0.000118484
0.00264579
-0.000152828
0.00272497
-0.000155292
0.00278763
-0.000122272
0.00281935
-6.11965e-05
0.00281383
1.20261e-05
0.00277419
7.88927e-05
0.00271107
0.000124822
0.0026384
0.000143302
0.00256941
0.000135771
0.00251443
0.000107758
0.00248126
6.44417e-05
0.00247594
9.51687e-06
0.00250198
-5.1847e-05
0.00255777
-0.000109806
0.00263464
-0.000150852
0.00271766
-0.000163102
0.00278967
-0.000141941
0.00283609
-9.21169e-05
0.00284863
-2.54813e-05
0.00282641
4.33846e-05
0.00277521
0.000101152
0.00270538
0.000138398
0.00262934
0.000150813
0.00255922
0.000138913
0.00250557
0.000106078
0.00247705
5.63753e-05
0.00248001
-5.34129e-06
0.00251665
-7.10508e-05
0.00258272
-0.000128576
0.00266699
-0.000164571
0.00275353
-0.000169863
0.00282599
-0.000143393
0.00287202
-9.24731e-05
0.00288585
-2.96896e-05
0.00286856
3.1592e-05
0.00282656
8.08958e-05
0.00276913
0.000112226
0.00270647
0.000123452
0.00264862
0.00011466
0.00260508
8.69506e-05
0.00258426
4.26389e-05
0.00259207
-1.31656e-05
0.00262962
-7.12109e-05
0.00269161
-0.000119274
0.0027669
-0.000146116
0.00284143
-0.0001459
0.00290218
-0.000120333
0.00294054
-7.76427e-05
0.00295395
-2.94359e-05
0.00294562
1.29308e-05
0.00292295
4.11659e-05
0.00289519
5.14279e-05
0.00287131
4.41388e-05
0.00285855
2.26092e-05
0.00286191
-8.67835e-06
0.00288405
-4.50847e-05
0.00292525
-8.17778e-05
0.00298294
-0.000113257
0.00305137
-0.00013344
0.00312186
-0.000136821
0.00318404
-0.000120234
0.00322784
-8.42567e-05
0.00324564
-3.35389e-05
0.00323387
2.41489e-05
0.00319365
7.96607e-05
0.00313044
0.000124589
0.00305267
0.000153112
0.00296991
0.000162916
0.00289123
0.000154976
0.00282393
0.000132584
0.00277301
0.000100258
0.00274097
6.28782e-05
0.00272801
2.50427e-05
0.00273242
-9.39972e-06
0.00275106
-3.75562e-05
0.00277981
-5.74736e-05
0.00281396
-6.80173e-05
0.00284859
-6.88061e-05
0.00287894
-6.02489e-05
0.00290088
-4.35711e-05
0.00291128
-2.07028e-05
0.00290822
5.98586e-06
0.00289112
3.39399e-05
0.00286072
6.05279e-05
0.00281914
8.299e-05
0.00276987
9.85288e-05
0.00271766
0.00010459
0.00266764
0.000100335
0.00262523
8.51577e-05
0.00259187
6.71666e-05
2.88135e-05
0.00250236
-7.15566e-06
0.00250924
-2.08491e-05
0.00252067
-3.45383e-05
0.00253682
-4.86398e-05
0.00255801
-6.34067e-05
0.00258441
-7.84407e-05
0.00261587
-9.27345e-05
0.00265142
-0.000104005
0.00268914
-0.00010977
0.00272609
-0.000107512
0.0027589
-9.61986e-05
0.00278595
-8.01053e-05
0.00280679
-6.21905e-05
0.00282181
-4.44913e-05
0.00283098
-2.60219e-05
0.00283272
-3.02732e-06
0.0028239
2.8018e-05
0.00280178
6.5744e-05
0.00276621
0.000103306
0.00272021
0.000132313
0.0026691
0.00014633
0.00261935
0.000141977
0.00257763
0.000118528
0.00255021
7.73738e-05
0.00254221
2.21537e-05
0.00255656
-4.02687e-05
0.00259202
-9.81162e-05
0.00264134
-0.000135295
0.0026916
-0.00013734
0.00272829
-0.000100426
0.00274114
-3.55633e-05
0.00272758
3.71406e-05
0.002692
9.887e-05
0.00264253
0.000138814
0.00258801
0.000153865
0.00253667
0.00014487
0.00249616
0.000113402
0.00247385
6.08102e-05
0.00247659
-1.01127e-05
0.00250865
-9.11357e-05
0.00256797
-0.000164941
0.00264339
-0.000207881
0.00271633
-0.000201042
0.00276755
-0.000142526
0.00278482
-5.03542e-05
0.00276678
4.70638e-05
0.0027212
0.000124873
0.00266006
0.000170568
0.00259505
0.000183311
0.00253578
0.000167759
0.00249012
0.00012837
0.00246533
6.75312e-05
0.00246805
-1.19056e-05
0.00250237
-0.000101314
0.00256624
-0.00018263
0.00264872
-0.000231414
0.00273093
-0.00022729
0.00279171
-0.000166062
0.00281571
-6.44867e-05
0.00279908
4.69552e-05
0.00274938
0.000138298
0.00268074
0.000192008
0.00260776
0.000205649
0.00254194
0.000186171
0.00249145
0.000141768
0.00246289
7.71819e-05
0.00246248
-4.66809e-06
0.00249437
-9.63118e-05
0.00255686
-0.00018097
0.0026395
-0.000235468
0.0027245
-0.000240293
0.00279206
-0.00018983
0.00282673
-9.58702e-05
0.00282185
1.69098e-05
0.00278072
0.000120025
0.00271453
0.000191013
0.00263799
0.000219839
0.00256496
0.000208798
0.00250632
0.0001664
0.00247053
0.000100232
0.00246469
1.53536e-05
0.00249326
-8.04124e-05
0.00255453
-0.000171075
0.00263829
-0.000234619
0.00272739
-0.0002522
0.00280275
-0.000217295
0.00284914
-0.000138508
0.0028589
-3.5245e-05
0.00283255
6.97385e-05
0.00277715
0.000156551
0.00270376
0.000211786
0.00262485
0.00022972
0.00255243
0.000211339
0.00249727
0.000161236
0.0024689
8.47406e-05
0.00247466
-1.10976e-05
0.00251695
-0.000113344
0.00259049
-0.000202111
0.0026821
-0.000256181
0.00277394
-0.000261702
0.00284845
-0.000217906
0.00289294
-0.000136968
0.0029022
-3.89442e-05
0.00287854
5.52493e-05
0.00282986
0.000129577
0.00276673
0.00017536
0.00270006
0.000190113
0.00264019
0.000174532
0.00259685
0.000130298
0.00257888
6.06058e-05
0.00259246
-2.67487e-05
0.00263815
-0.000116901
0.00270905
-0.000190177
0.00279196
-0.000229017
0.00287111
-0.00022506
0.00293277
-0.000181991
0.00296848
-0.000113352
0.00297645
-3.74051e-05
0.00296097
2.84087e-05
0.00293053
7.16049e-05
0.00289533
8.66334e-05
0.002865
7.4466e-05
0.00284728
4.03332e-05
0.00284759
-8.99493e-06
0.00286915
-6.6639e-05
0.00291261
-0.000125243
0.00297537
-0.000176014
0.0030509
-0.000208967
0.00312918
-0.000215108
0.00319841
-0.000189462
0.00324738
-0.000133226
0.00326786
-5.40177e-05
0.00325616
3.58446e-05
0.00321373
0.000122093
0.00314663
0.000191686
0.0030641
0.000235645
0.00297652
0.000250501
0.00289354
0.000237952
0.00282282
0.000203301
0.00276941
0.000153674
0.00273568
9.661e-05
0.00272167
3.90485e-05
0.00272559
-1.33169e-05
0.00274426
-5.62296e-05
0.00277353
-8.67466e-05
0.00280857
-0.000103049
0.00284418
-0.000104419
0.00287532
-9.13918e-05
0.00289761
-6.58551e-05
0.00290778
-3.08762e-05
0.002904
9.76675e-06
0.00288589
5.20495e-05
0.00285449
9.19242e-05
0.0028122
0.000125281
0.0027627
0.000148032
0.00271074
0.000156553
0.00266146
0.000149609
0.00262002
0.000126602
0.00258798
9.9202e-05
4.18605e-05
0.00250232
-9.47171e-06
0.00250906
-2.75889e-05
0.00252029
-4.57741e-05
0.00253631
-6.46538e-05
0.00255754
-8.46429e-05
0.00258437
-0.000105267
0.00261683
-0.000125196
0.002654
-0.000141173
0.00269386
-0.000149636
0.00273294
-0.000146587
0.00276712
-0.000130381
0.00279477
-0.000107757
0.00281574
-8.31533e-05
0.00283103
-5.97876e-05
0.00284114
-3.61341e-05
0.00284434
-6.22133e-06
0.00283655
3.58089e-05
0.00281401
8.82782e-05
0.00277624
0.000141075
0.00272661
0.000181945
0.00267112
0.000201824
0.00261688
0.000196211
0.00257115
0.000164257
0.00254077
0.000107754
0.00253169
3.12419e-05
0.00254781
-5.63931e-05
0.00258855
-0.000138861
0.00264597
-0.000192707
0.00270477
-0.000196147
0.00274747
-0.000143121
0.0027619
-4.99967e-05
0.00274567
5.33721e-05
0.00270479
0.000139747
0.00264912
0.000194486
0.00258856
0.000214426
0.00253173
0.000201706
0.00248641
0.000158719
0.00246055
8.66695e-05
0.00246226
-1.18267e-05
0.00249742
-0.000126299
0.00256476
-0.000232271
0.00265177
-0.000294896
0.00273627
-0.000285539
0.00279472
-0.000200977
0.00281265
-6.82901e-05
0.00278952
7.01988e-05
0.00273582
0.000178569
0.00266624
0.000240147
0.00259396
0.000255596
0.00252875
0.000232972
0.00247799
0.000179124
0.00244852
9.70011e-05
0.00244741
-1.07935e-05
0.00248032
-0.000134221
0.0025471
-0.000249416
0.0026374
-0.000321714
0.00273063
-0.000320516
0.00280221
-0.000237643
0.00283313
-9.54033e-05
0.0028174
6.26848e-05
0.00276317
0.000192524
0.00268709
0.000268088
0.00260639
0.000286354
0.00253382
0.000258736
0.00247759
0.000197995
0.00244447
0.000110309
0.00244193
-2.12992e-06
0.00247587
-0.000130253
0.00254483
-0.000249927
0.00263634
-0.000326985
0.00272952
-0.000333467
0.00280227
-0.000262586
0.00283861
-0.000132208
0.00283247
2.30538e-05
0.00278801
0.000164486
0.00271718
0.000261843
0.00263536
0.000301658
0.00255702
0.000287133
0.00249381
0.00022961
0.00245547
0.00013857
0.00245075
2.00827e-05
0.00248495
-0.000114613
0.00255537
-0.000241503
0.00264918
-0.000328421
0.00274624
-0.000349263
0.00282542
-0.000296473
0.00287083
-0.000183918
0.0028756
-4.00222e-05
0.00284211
0.000103228
0.00277947
0.000219196
0.00270004
0.000291218
0.00261662
0.000313138
0.00254113
0.000286828
0.00248471
0.00021766
0.00245788
0.000111568
0.00246882
-2.20378e-05
0.00251947
-0.000163996
0.00260258
-0.000285222
0.00270255
-0.000356151
0.00279974
-0.00035889
0.00287579
-0.00029395
0.00291793
-0.000179112
0.00292144
-4.24537e-05
0.00288973
8.69601e-05
0.0028323
0.000187005
0.00276138
0.000246276
0.0026891
0.000262393
0.00262648
0.000237152
0.00258384
0.000172944
0.00257057
7.38707e-05
0.00259277
-4.89424e-05
0.00264952
-0.000173651
0.0027313
-0.000271961
0.00282226
-0.000319975
0.00290508
-0.000307883
0.0029658
-0.00024271
0.00299671
-0.000144263
0.00299715
-3.78369e-05
0.00297257
5.29865e-05
0.00293258
0.000111596
0.00288833
0.000130881
0.00285024
0.000112551
0.00282674
6.38376e-05
0.00282405
-6.30823e-06
0.00284622
-8.88104e-05
0.00289431
-0.000173329
0.00296505
-0.00024675
0.00305024
-0.00029416
0.00313786
-0.000302726
0.00321452
-0.000266126
0.00326826
-0.00018697
0.00329072
-7.64695e-05
0.00327836
4.81965e-05
0.003233
0.000167453
0.00316127
0.000263416
0.00307317
0.000323745
0.00297993
0.000343739
0.00289194
0.000325949
0.00281726
0.000277981
0.00276103
0.000209901
0.00272551
0.000132129
0.00271057
5.39871e-05
0.00271432
-1.70645e-05
0.00273355
-7.54555e-05
0.00276398
-0.000117183
0.00280052
-0.000139588
0.00283758
-0.000141481
0.0028697
-0.000123507
0.00289219
-8.83416e-05
0.00290171
-4.04039e-05
0.0028966
1.48831e-05
0.00287681
7.18366e-05
0.00284384
0.000124898
0.00280046
0.000168653
0.00275065
0.000197844
0.00269918
0.000208026
0.00265118
0.000197605
0.00261139
0.000166397
0.00258164
0.000128951
5.304e-05
0.00250225
-1.17177e-05
0.00250877
-3.41169e-05
0.00251972
-5.67187e-05
0.00253549
-8.04229e-05
0.00255672
-0.000105879
0.00258406
-0.000132606
0.00261784
-0.000158974
0.00265724
-0.000180578
0.00270016
-0.000192548
0.00274225
-0.000188679
0.00277829
-0.000166427
0.00280663
-0.000136089
0.00282754
-0.000104062
0.00284304
-7.52941e-05
0.00285444
-4.75349e-05
0.00285983
-1.16098e-05
0.00285373
4.19107e-05
0.00283081
0.000111194
0.00279007
0.000181819
0.00273543
0.000236587
0.00267388
0.000263377
0.00261344
0.00025665
0.00256209
0.0002156
0.00252746
0.000142386
0.0025166
4.20995e-05
0.00253496
-7.475e-05
0.00258303
-0.000186929
0.002652
-0.000261678
0.00272315
-0.000267299
0.00277447
-0.000194441
0.00279102
-6.65449e-05
0.00277075
7.36459e-05
0.00272218
0.000188313
0.00265778
0.000258882
0.00258894
0.000283273
0.00252465
0.000265991
0.00247279
0.000210583
0.00244175
0.000117707
0.00244074
-1.08156e-05
0.00247724
-0.000162793
0.00255179
-0.00030683
0.00265254
-0.000395644
0.00275412
-0.00038712
0.00282623
-0.000273086
0.00284862
-9.0678e-05
0.00282023
9.85919e-05
0.00275561
0.000243189
0.00267421
0.000321545
0.0025919
0.000337901
0.00251867
0.000306209
0.00246066
0.000237133
0.00242379
0.000133866
0.00241629
-3.29389e-06
0.00244704
-0.000164967
0.00251841
-0.00032079
0.00261925
-0.00042255
0.00272557
-0.000426839
0.00280925
-0.000321317
0.00284847
-0.000134627
0.00283527
7.58891e-05
0.00277746
0.000250332
0.00269359
0.000351954
0.00260371
0.000376232
0.00252249
0.000339964
0.00245889
0.000261592
0.00242083
0.000148369
0.00241801
6.92239e-07
0.00245786
-0.000170108
0.00253768
-0.000329744
0.00264127
-0.000430578
0.00274379
-0.000435982
0.00282084
-0.000339639
0.00285636
-0.000167723
0.00284581
3.35991e-05
0.00279525
0.000215051
0.00271786
0.000339227
0.00262959
0.000389933
0.00254525
0.000371469
0.00247738
0.000297478
0.00243747
0.000178483
0.00243602
2.15327e-05
0.00247847
-0.000157064
0.00255992
-0.000322947
0.00266426
-0.000432765
0.00276882
-0.000453825
0.00285117
-0.000378818
0.00289509
-0.000227839
0.0028942
-3.91336e-05
0.00285234
0.000145091
0.00278073
0.000290803
0.00269354
0.000378409
0.00260439
0.000402288
0.00252545
0.000365769
0.00246839
0.00027472
0.00244464
0.000135314
0.0024626
-3.99985e-05
0.00252278
-0.000224175
0.00261532
-0.000377764
0.00272231
-0.000463136
0.00282302
-0.000459601
0.00289911
-0.000370045
0.00293825
-0.000218248
0.00293607
-4.02702e-05
0.00289656
0.00012647
0.00283036
0.000253201
0.00275125
0.000325384
0.00267285
0.000340799
0.00260738
0.000302615
0.00256622
0.000214108
0.00255935
8.07421e-05
0.00259211
-8.17051e-05
0.00266106
-0.0002426
0.00275325
-0.00036415
0.00285018
-0.000416906
0.00293367
-0.000391378
0.00299044
-0.000299479
0.00301417
-0.000167993
0.00300556
-2.92307e-05
0.00297118
8.73714e-05
0.00292147
0.000161307
0.0028683
0.000184054
0.00282277
0.000158078
0.0027942
9.24108e-05
0.00278998
-2.09246e-06
0.00281512
-0.000113946
0.00287044
-0.000228649
0.00295087
-0.000327182
0.00304563
-0.000388924
0.0031407
-0.000397793
0.00322201
-0.000347434
0.00327796
-0.000242918
0.00330082
-9.93293e-05
0.00328747
6.15447e-05
0.00323983
0.000215086
0.00316467
0.000338582
0.0030723
0.000416111
0.00297455
0.000441496
0.00288242
0.000418077
0.00280445
0.000355947
0.00274595
0.000268402
0.00270913
0.000168948
0.0026938
6.93243e-05
0.00269802
-2.12893e-05
0.00271853
-9.59651e-05
0.0027508
-0.000149457
0.00278929
-0.00017807
0.00282789
-0.000180087
0.00286076
-0.000156375
0.00288302
-0.000110603
0.00289139
-4.8773e-05
0.00288444
2.18359e-05
0.00286256
9.37135e-05
0.00282775
0.000159705
0.00278326
0.000213144
0.00273335
0.000247753
0.00268283
0.000258553
0.00263679
0.000243643
0.00259941
0.000203774
0.00257291
0.000155453
6.17171e-05
0.00250215
-1.38627e-05
0.00250837
-4.0341e-05
0.00251888
-6.72316e-05
0.00253425
-9.57905e-05
0.00255537
-0.000127001
0.00258325
-0.000160483
0.00261864
-0.000194368
0.00266096
-0.000222893
0.002708
-0.000239593
0.0027542
-0.000234877
0.00279264
-0.000204871
0.00282167
-0.000165111
0.0028422
-0.000124598
0.00285778
-9.08677e-05
0.00287094
-6.06963e-05
0.00287956
-2.02297e-05
0.00287606
4.54075e-05
0.00285281
0.000134449
0.00280808
0.000226542
0.00274672
0.000297947
0.00267715
0.000332946
0.00260859
0.000325212
0.00254986
0.000274328
0.00250945
0.000182801
0.00249586
5.56863e-05
0.00251683
-9.5723e-05
0.00257478
-0.00024488
0.0026598
-0.00034669
0.002748
-0.0003555
0.00281091
-0.000257355
0.00282989
-8.55205e-05
0.00280366
9.98708e-05
0.00274448
0.000247492
0.00266849
0.00033488
0.00258897
0.000362792
0.00251528
0.000339672
0.00245502
0.000270844
0.00241615
0.000156579
0.00240766
-2.32507e-06
0.00243875
-0.000193881
0.00251462
-0.000382699
0.0026277
-0.00050873
0.00275141
-0.000510826
0.00284708
-0.000368756
0.00288379
-0.000127384
0.00285542
0.000126956
0.00277997
0.000318639
0.00268413
0.000417388
0.00258894
0.000433094
0.00250526
0.000389882
0.00243758
0.000304817
0.00239122
0.000180221
0.00237749
1.04367e-05
0.00240983
-0.000197306
0.00249149
-0.00040245
0.00260706
-0.000538122
0.00272698
-0.000546759
0.00282001
-0.000414339
0.002864
-0.000178618
0.00285126
8.86224e-05
0.00278958
0.000312013
0.00269816
0.000443375
0.00259877
0.000475622
0.00250792
0.00043082
0.00243632
0.000333188
0.00239433
0.000190355
0.00239419
8.38714e-07
0.00244345
-0.00021937
0.0025362
-0.000422501
0.00265196
-0.000546329
0.00276279
-0.00054682
0.00284297
-0.000419816
0.00287636
-0.000201107
0.00285965
5.03061e-05
0.00280101
0.000273686
0.0027155
0.000424739
0.00261989
0.000485539
0.0025294
0.000461966
0.00245752
0.000369355
0.00241757
0.00021843
0.0024213
1.78075e-05
0.00247308
-0.000208846
0.00256494
-0.000414803
0.00267773
-0.000545553
0.00278729
-0.000563392
0.00287113
-0.000462653
0.00291329
-0.000270006
0.00290755
-3.33887e-05
0.00285827
0.000194371
0.0027781
0.000370968
0.00268297
0.000473544
0.00258778
0.000497472
0.00250553
0.000448023
0.00244869
0.000331558
0.00242931
0.0001547
0.00245512
-6.58148e-05
0.00252438
-0.000293431
0.00262446
-0.000477842
0.00273571
-0.000574386
0.00283722
-0.000561114
0.00291144
-0.000444268
0.00294689
-0.000253697
0.0029396
-3.29754e-05
0.00289368
0.000172391
0.00282022
0.00032666
0.00273405
0.000411555
0.00265024
0.000424605
0.00258266
0.000370199
0.00254409
0.00025267
0.00254501
7.98282e-05
0.00258915
-0.000125843
0.00266951
-0.000322965
0.00276944
-0.000464077
0.00286843
-0.0005159
0.00294852
-0.000471465
0.002998
-0.000348963
0.00301243
-0.00018242
0.00299393
-1.07344e-05
0.00294997
0.00013134
0.00289148
0.00021979
0.00283072
0.000244817
0.00277937
0.000209431
0.00274783
0.00012395
0.00274484
8.90624e-07
0.00277581
-0.00014491
0.00283991
-0.000292749
0.00292895
-0.000416223
0.00302952
-0.00048949
0.00312684
-0.000495122
0.00320787
-0.000428462
0.00326261
-0.000297657
0.00328452
-0.000121233
0.00327079
7.52669e-05
0.00322303
0.000262849
0.00314744
0.000414177
0.00305402
0.000509524
0.00295471
0.000540812
0.0028609
0.000511882
0.00278155
0.000435294
0.00272222
0.000327733
0.00268525
0.000205921
0.00267053
8.4041e-05
0.00267619
-2.695e-05
0.00269876
-0.000118536
0.00273325
-0.000183943
0.00277352
-0.000218341
0.00281308
-0.00021965
0.00284595
-0.000189242
0.00286735
-0.000131997
0.00287418
-5.56065e-05
0.00286529
3.07214e-05
0.00284146
0.00011755
0.00280512
0.000196046
0.00275995
0.000258311
0.00271052
0.000297178
0.00266165
0.000307422
0.00261838
0.000286913
0.00258425
0.000237907
0.00256188
0.000177819
6.74338e-05
0.002502
-1.58672e-05
0.00250781
-4.61435e-05
0.0025177
-7.71264e-05
0.00253244
-0.000110531
0.00255324
-0.000147803
0.0025816
-0.000188839
0.00261887
-0.000231633
0.00266484
-0.000268868
0.00271737
-0.000292123
0.00276904
-0.000286543
0.00281044
-0.000246276
0.00283995
-0.000194617
0.0028594
-0.000144051
0.00287459
-0.000106056
0.00289001
-7.61165e-05
0.00290331
-3.35325e-05
0.00290385
4.48743e-05
0.00288058
0.000157711
0.00283089
0.000276238
0.00276096
0.000367879
0.0026812
0.000412698
0.00260236
0.000404057
0.00253416
0.000342523
0.00248597
0.000230992
0.00246818
7.34824e-05
0.0024922
-0.000119742
0.00256388
-0.000316563
0.00267158
-0.00045439
0.00278312
-0.000467037
0.00286057
-0.000334811
0.00288112
-0.000106064
0.00284568
0.000135309
0.00277198
0.000321194
0.00268102
0.00042584
0.00258837
0.00045544
0.00250349
0.000424555
0.00243265
0.00034168
0.00238152
0.000207707
0.00235833
2.08666e-05
0.00237719
-0.000212737
0.00245151
-0.000457028
0.00257732
-0.000634532
0.00272479
-0.000658296
0.00284828
-0.000492248
0.00290733
-0.000186439
0.0028874
0.000146892
0.00280559
0.000400444
0.00269536
0.000527618
0.00258514
0.000543315
0.00248849
0.000486536
0.00240912
0.000384185
0.00235343
0.000235906
0.00233741
2.64637e-05
0.00237772
-0.000237618
0.00247469
-0.000499419
0.00260636
-0.000669796
0.00273812
-0.000678519
0.00283689
-0.000513111
0.00288125
-0.000222971
0.00286526
0.000104606
0.00279793
0.00037935
0.00269884
0.000542461
0.00259028
0.000584176
0.00249002
0.000531087
0.00241115
0.000412061
0.00236722
0.000234282
0.00237228
-4.2268e-06
0.00243209
-0.000279173
0.00253637
-0.000526784
0.00266111
-0.000671066
0.00277723
-0.000662948
0.00285913
-0.000501708
0.00289065
-0.000232632
0.00286862
7.23331e-05
0.00280234
0.000339967
0.00270864
0.000518439
0.00260565
0.000588534
0.00250941
0.000558205
0.00243466
0.000444101
0.00239626
0.000256835
0.00240619
7.87086e-06
0.00246673
-0.000269382
0.00256659
-0.00051466
0.00268438
-0.000663345
0.00279566
-0.000674669
0.00287884
-0.000545837
0.00291887
-0.00031003
0.00290957
-2.40881e-05
0.00285508
0.00024886
0.00276843
0.000457615
0.00266673
0.000575245
0.00256633
0.000597867
0.00248154
0.000532818
0.0024259
0.000387196
0.00241166
0.00016894
0.00244512
-9.9272e-05
0.00252176
-0.000370073
0.00262652
-0.000582607
0.00273886
-0.000686718
0.00283844
-0.000660694
0.00290898
-0.000514816
0.00294012
-0.000284837
0.00292835
-2.11977e-05
0.00287767
0.000223069
0.00279908
0.000405245
0.00270787
0.000502765
0.00262032
0.000512154
0.00255207
0.000438457
0.0025175
0.000287232
0.00252713
7.0204e-05
0.00258213
-0.000180843
0.00267132
-0.000412152
0.00277469
-0.000567455
0.00287094
-0.000612148
0.00294346
-0.000543985
0.00298282
-0.00038832
0.00298656
-0.000186156
0.00295808
1.77414e-05
0.00290545
0.00018397
0.0028398
0.000285436
0.00277351
0.000311115
0.00271885
0.000264086
0.0026875
0.000155298
0.00268914
-7.4924e-07
0.00272802
-0.000183788
0.00279986
-0.00036459
0.00289295
-0.000509311
0.00299273
-0.00058927
0.0030859
-0.000588289
0.00316191
-0.000504477
0.0032129
-0.000348645
0.0032334
-0.000141733
0.00322068
8.79911e-05
0.0031756
0.000307924
0.00310334
0.000486438
0.00301303
0.000599837
0.00291615
0.000637685
0.00282416
0.000603872
0.00274625
0.000513204
0.00268828
0.000385711
0.00265288
0.000241323
0.0026402
9.67164e-05
0.00264836
-3.51054e-05
0.00267344
-0.000143616
0.00270978
-0.000220284
0.00275079
-0.00025935
0.00278997
-0.000258836
0.00282171
-0.000220977
0.00284165
-0.000151936
0.00284699
-6.09507e-05
0.00283673
4.09774e-05
0.00281181
0.000142478
0.00277492
0.000232935
0.00273007
0.000303156
0.0026821
0.000345151
0.00263584
0.000353685
0.00259622
0.000326526
0.00256616
0.000267968
0.0025486
0.000195378
7.00543e-05
0.00250181
-1.76817e-05
0.00250705
-5.13769e-05
0.00251608
-8.6162e-05
0.00252989
-0.000124334
0.00255005
-0.000167963
0.00257869
-0.000217486
0.002618
-0.000270944
0.00266847
-0.000319337
0.00272824
-0.000351884
0.00278715
-0.000345454
0.00283217
-0.000291301
0.00286182
-0.000224261
0.00287914
-0.000161377
0.00289322
-0.000120136
0.00291151
-9.44079e-05
0.00293151
-5.35293e-05
0.00293808
3.83016e-05
0.00291525
0.000180545
0.00285917
0.000332319
0.0027782
0.000448849
0.00268563
0.000505261
0.00259409
0.000495603
0.00251412
0.000422494
0.00245575
0.000289356
0.00243183
9.74068e-05
0.00245873
-0.000146641
0.00254671
-0.000404541
0.00268334
-0.00059102
0.00282714
-0.000610837
0.00292564
-0.00043331
0.00294792
-0.000128351
0.00289874
0.000184493
0.00280503
0.000414905
0.00269496
0.000535905
0.00258676
0.000563646
0.00248905
0.000522257
0.00240483
0.0004259
0.00233627
0.000276276
0.00229443
6.27027e-05
0.00230428
-0.000222583
0.00238624
-0.000538989
0.00253105
-0.000779341
0.00269975
-0.000827003
0.00284312
-0.000635616
0.00291966
-0.000262978
0.00291012
0.000156429
0.0028269
0.000483671
0.00270529
0.000649228
0.00257995
0.000668655
0.0024687
0.00059778
0.00237703
0.00047586
0.0023146
0.000298334
0.00230155
3.95102e-05
0.00235387
-0.000289939
0.00246571
-0.000611249
0.00260944
-0.000813532
0.00274874
-0.000817822
0.00285082
-0.000615186
0.00289446
-0.000266608
0.00287435
0.000124712
0.00280076
0.000452937
0.0026942
0.000649023
0.00257731
0.000701072
0.00246883
0.000639564
0.00238446
0.000496428
0.00234076
0.000277983
0.0023522
-1.56667e-05
0.00242126
-0.000348237
0.00253344
-0.000638958
0.00266262
-0.000800246
0.00278025
-0.000780577
0.00286204
-0.000583496
0.00289226
-0.000262858
0.00286711
9.74864e-05
0.00279561
0.000411465
0.00269549
0.000618562
0.00258627
0.000697754
0.00248541
0.000659057
0.00240921
0.000520308
0.00237359
0.000292456
0.00238979
-8.32886e-06
0.00245728
-0.000336875
0.00256188
-0.000619257
0.002681
-0.000782464
0.00279085
-0.000784525
0.00287139
-0.000626371
0.00290875
-0.000347396
0.002897
-1.23378e-05
0.00283968
0.000306187
0.00274933
0.000547958
0.00264347
0.000681113
0.00253963
0.000701706
0.00245365
0.000618794
0.00240025
0.000440599
0.00239143
0.00017776
0.00243145
-0.000139294
0.00251302
-0.000451639
0.00261929
-0.000688884
0.00272969
-0.000797115
0.00282504
-0.000756048
0.00289054
-0.000580314
0.00291695
-0.000311248
0.00290125
-5.49627e-06
0.00284731
0.000277008
0.00276573
0.000486823
0.00267178
0.000596714
0.00258263
0.000601309
0.00251559
0.000505494
0.00248647
0.000316353
0.00250504
5.16398e-05
0.00256901
-0.000244822
0.00266299
-0.000506123
0.00276471
-0.000669184
0.00285348
-0.000700918
0.00291503
-0.000605527
0.00294242
-0.000415715
0.00293503
-0.000178761
0.0028972
5.55646e-05
0.00283733
0.000243846
0.00276648
0.000356279
0.00269713
0.000380469
0.00264235
0.000318865
0.00261493
0.000182718
0.00262413
-9.94603e-06
0.00267082
-0.000230481
0.00274623
-0.000439995
0.00283653
-0.000599615
0.00292872
-0.000681457
0.00301285
-0.000672423
0.00308129
-0.000572917
0.00312771
-0.000395058
0.00314712
-0.00016115
0.00313665
9.84602e-05
0.00309649
0.000348085
0.00303073
0.0005522
0.00294735
0.000683222
0.00285695
0.000728077
0.00277056
0.000690267
0.00269731
0.000586451
0.00264331
0.000439716
0.00261158
0.00027305
0.00260251
0.000105784