/*--------------------------------*- C++ -*----------------------------------*\
  =========                 |
  \\      /  F ield         | OpenFOAM: The Open Source CFD Toolbox
   \\    /   O peration     | Website:  https://openfoam.org
    \\  /    A nd           | Version:  11
     \\/     M anipulation  |
\*---------------------------------------------------------------------------*/
FoamFile
{
    format      ascii;
    class       surfaceScalarField;
    location    "10.284693";
    object      phi;
}
// * * * * * * * * * * * * * * * * * * * * * * * * * * * * * * * * * * * * * //

dimensions      [0 3 -1 0 0 0 0];

internalField   nonuniform List<scalar> 
14638
(
0.00250245
-2.45365e-06
0.00250995
-7.49801e-06
0.00252293
-1.29749e-05
0.0025419
-1.89709e-05
0.00256735
-2.54517e-05
0.00259947
-3.21193e-05
0.00263793
-3.84597e-05
0.00268148
-4.35504e-05
0.00272788
-4.64021e-05
0.00277385
-4.59702e-05
0.00281546
-4.16114e-05
0.0028494
-3.39407e-05
0.00287296
-2.35572e-05
0.00288415
-1.11935e-05
0.00288194
2.21227e-06
0.00286657
1.53747e-05
0.00284018
2.63901e-05
0.00280704
3.31407e-05
0.00277293
3.41042e-05
0.00274406
2.88705e-05
0.00272579
1.82666e-05
0.00272146
4.33922e-06
0.00273132
-9.86861e-06
0.00275197
-2.0643e-05
0.0027763
-2.43381e-05
0.00279513
-1.88248e-05
0.00280011
-4.98308e-06
0.00278674
1.33702e-05
0.00275542
3.13274e-05
0.00271046
4.49538e-05
0.00265834
5.21173e-05
0.00260617
5.2171e-05
0.0025609
4.52724e-05
0.00252903
3.18679e-05
0.00251642
1.26092e-05
0.00252769
-1.12689e-05
0.00256482
-3.71281e-05
0.00262496
-6.01399e-05
0.00269868
-7.37193e-05
0.00277068
-7.20004e-05
0.00282403
-5.33534e-05
0.00284629
-2.22603e-05
0.0028337
1.25963e-05
0.00279105
4.26477e-05
0.00272817
6.2884e-05
0.00265589
7.22778e-05
0.00258382
7.2067e-05
0.00251997
6.38462e-05
0.00247148
4.84923e-05
0.0024454
2.60869e-05
0.00244873
-3.33609e-06
0.00248704
-3.83119e-05
0.00256126
-7.42124e-05
0.00266407
-0.000102811
0.00277851
-0.000114446
0.00288095
-0.000102434
0.00294834
-6.73884e-05
0.00296668
-1.83402e-05
0.00293581
3.08707e-05
0.00286794
6.78669e-05
0.00278124
8.66993e-05
0.00269306
8.81791e-05
0.00261644
7.66208e-05
0.00256022
5.62229e-05
0.00253102
2.91911e-05
0.00253498
-3.9586e-06
0.00257741
-4.24269e-05
0.00266031
-8.28981e-05
0.00277906
-0.000118752
0.0029207
-0.000141642
0.00306548
-0.000144779
0.00319135
-0.000125867
0.00327924
-8.78887e-05
0.00331674
-3.75057e-05
0.00329957
1.71699e-05
0.00323192
6.76496e-05
0.00312651
0.000105413
0.00300315
0.00012336
0.00288422
0.000118933
0.00278828
9.59374e-05
0.00272577
6.25067e-05
0.00269881
2.6963e-05
0.00270372
-4.91097e-06
0.00273363
-2.991e-05
0.00277978
-4.61441e-05
0.00283194
-5.21645e-05
0.00287914
-4.72013e-05
0.00291127
-3.21276e-05
0.0029214
-1.01264e-05
0.00290758
1.38165e-05
0.00287304
3.45349e-05
0.00282457
4.84728e-05
0.00277004
5.45361e-05
0.00271631
5.37301e-05
0.00266817
4.81379e-05
0.00262822
3.99424e-05
0.00259736
3.08665e-05
0.00257532
2.20361e-05
0.00256124
1.40864e-05
0.0025539
7.33511e-06
0.00255197
1.92619e-06
0.00255406
-2.08262e-06
0.00255874
-4.68311e-06
0.00256466
-5.91772e-06
0.00257056
-5.89992e-06
0.00257539
-4.83253e-06
0.0025784
-3.00582e-06
0.00257916
-7.68133e-07
0.00257764
1.52422e-06
0.00257408
3.56165e-06
0.00256896
5.12313e-06
0.00256286
6.09411e-06
0.0025564
6.46106e-06
0.00255011
6.28998e-06
0.00254441
5.69795e-06
0.00253959
4.82522e-06
0.00253577
3.81211e-06
0.00253299
2.78259e-06
0.00253116
1.83453e-06
0.00253012
1.03578e-06
0.0025297
4.24833e-07
0.00252968
1.45296e-08
0.00252989
-2.02792e-07
0.00253014
-2.49752e-07
0.00253029
-1.58747e-07
0.00253026
3.26298e-08
0.00252998
2.85551e-07
0.00252941
5.63331e-07
0.00252858
8.34157e-07
0.00252751
1.07301e-06
0.00252624
1.26274e-06
0.00252485
1.39424e-06
0.00252338
1.4658e-06
0.0025219
1.48191e-06
0.00252045
1.45153e-06
0.00251906
1.38638e-06
0.00251776
1.29916e-06
0.00251656
1.20211e-06
0.00251546
1.10589e-06
0.00251444
1.01887e-06
0.00251349
9.46801e-07
0.0025126
8.92828e-07
0.00251174
8.57747e-07
0.0025109
8.40426e-07
0.00251006
8.38361e-07
0.00250921
8.4813e-07
0.00250835
8.66029e-07
0.00250746
8.88243e-07
0.00250655
9.11613e-07
0.00250561
9.33072e-07
0.00250466
9.51141e-07
0.0025037
9.63619e-07
0.00250273
9.71408e-07
0.00250175
9.72219e-07
0.00250079
9.69823e-07
0.00249982
9.60621e-07
0.00249887
9.49912e-07
0.00249794
9.36166e-07
0.00249702
9.15594e-07
9.00932e-07
0.00250243
-4.88506e-06
0.00250987
-1.49349e-05
0.00252276
-2.5867e-05
0.00254166
-3.78748e-05
0.00256712
-5.09038e-05
0.00259937
-6.43714e-05
0.00263816
-7.72553e-05
0.00268229
-8.7673e-05
0.00272949
-9.36041e-05
0.00277636
-9.28442e-05
0.0028188
-8.40476e-05
0.00285342
-6.85633e-05
0.00287748
-4.76114e-05
0.00288893
-2.26443e-05
0.00288663
4.50453e-06
0.00287072
3.12856e-05
0.00284331
5.38026e-05
0.00280879
6.76633e-05
0.00277319
6.97017e-05
0.00274301
5.90493e-05
0.00272392
3.73622e-05
0.00271948
8.77687e-06
0.00273014
-2.0526e-05
0.00275241
-4.29132e-05
0.00277884
-5.07741e-05
0.0027996
-3.95806e-05
0.00280573
-1.1117e-05
0.00279246
2.66413e-05
0.00276031
6.34764e-05
0.00271395
9.13119e-05
0.00266017
0.000105902
0.00260626
0.000106076
0.00255929
9.22436e-05
0.00252586
6.53043e-05
0.00251202
2.64493e-05
0.00252278
-2.20356e-05
0.00256063
-7.49778e-05
0.00262302
-0.000122529
0.00270026
-0.000150956
0.0027761
-0.000147845
0.00283238
-0.000109632
0.00285578
-4.566e-05
0.00284249
2.58895e-05
0.00279793
8.72083e-05
0.00273269
0.000128119
0.00265813
0.000146843
0.00258397
0.000146227
0.00251813
0.000129683
0.00246766
9.89606e-05
0.00243974
5.40089e-05
0.00244183
-5.42182e-06
0.00248012
-7.66096e-05
0.00255613
-0.000150219
0.00266275
-0.000209429
0.0027825
-0.000234195
0.00289027
-0.00021021
0.00296117
-0.00013828
0.00298001
-3.71841e-05
0.00294684
6.40433e-05
0.0028751
0.000139601
0.0027844
0.000177402
0.00269294
0.000179644
0.00261385
0.000155708
0.0025556
0.000114467
0.0025244
6.03918e-05
0.00252628
-5.83617e-06
0.00256707
-8.32153e-05
0.00264969
-0.000165518
0.00277011
-0.00023917
0.00291488
-0.000286412
0.00306277
-0.000292672
0.00319026
-0.000253358
0.00327789
-0.000175521
0.00331416
-7.37676e-05
0.003296
3.53258e-05
0.00322817
0.00013548
0.00312302
0.000210567
0.00299967
0.000246706
0.0028802
0.000238398
0.00278345
0.000192694
0.00272034
0.000125616
0.0026934
5.38976e-05
0.00269918
-1.0692e-05
0.00273083
-6.15524e-05
0.0027794
-9.47147e-05
0.00283431
-0.000107076
0.00288404
-9.69311e-05
0.00291792
-6.60135e-05
0.00292869
-2.08885e-05
0.00291436
2.81417e-05
0.00287848
7.04199e-05
0.0028283
9.8652e-05
0.00277215
0.000110685
0.00271717
0.000108708
0.00266822
9.70845e-05
0.00262786
8.03077e-05
0.00259685
6.18713e-05
0.00257487
4.40203e-05
0.00256096
2.79993e-05
0.00255387
1.44191e-05
0.00255225
3.55106e-06
0.00255466
-4.49628e-06
0.00255968
-9.70611e-06
0.00256593
-1.21596e-05
0.00257211
-1.20813e-05
0.00257715
-9.87903e-06
0.00258029
-6.14133e-06
0.0025811
-1.57699e-06
0.00257953
3.08842e-06
0.00257587
7.22523e-06
0.00257061
1.03858e-05
0.00256436
1.23407e-05
0.00255776
1.30667e-05
0.00255134
1.27015e-05
0.00254556
1.1486e-05
0.00254068
9.70622e-06
0.00253684
7.64755e-06
0.00253406
5.56103e-06
0.00253225
3.64407e-06
0.00253126
2.03291e-06
0.00253088
8.04142e-07
0.00253091
-1.75253e-08
0.00253115
-4.48634e-07
0.00253144
-5.35714e-07
0.00253163
-3.44804e-07
0.00253161
4.77765e-08
0.00253133
5.63371e-07
0.00253077
1.12778e-06
0.00252993
1.67675e-06
0.00252884
2.15986e-06
0.00252756
2.54265e-06
0.00252615
2.80697e-06
0.00252466
2.94968e-06
0.00252316
2.98011e-06
0.0025217
2.91668e-06
0.0025203
2.78325e-06
0.002519
2.60564e-06
0.00251779
2.40867e-06
0.00251668
2.21389e-06
0.00251566
2.03816e-06
0.00251472
1.89305e-06
0.00251382
1.78477e-06
0.00251297
1.71485e-06
0.00251213
1.68089e-06
0.00251129
1.67774e-06
0.00251044
1.69842e-06
0.00250957
1.7354e-06
0.00250867
1.78095e-06
0.00250776
1.82869e-06
0.00250682
1.87245e-06
0.00250586
1.90924e-06
0.00250489
1.93469e-06
0.00250391
1.9506e-06
0.00250293
1.95246e-06
0.00250195
1.94785e-06
0.00250098
1.9296e-06
0.00250002
1.90841e-06
0.00249908
1.88111e-06
0.00249815
1.84028e-06
1.8108e-06
0.00250239
-7.2714e-06
0.00250969
-2.22435e-05
0.00252242
-3.85878e-05
0.00254118
-5.66349e-05
0.00256662
-7.63449e-05
0.00259912
-9.68782e-05
0.00263859
-0.000116718
0.00268386
-0.000132947
0.00273269
-0.000142431
0.00278139
-0.000141551
0.00282549
-0.00012814
0.00286146
-0.000104541
0.00288649
-7.26419e-05
0.00289844
-3.4589e-05
0.00289597
6.97632e-06
0.00287896
4.82881e-05
0.00284949
8.32746e-05
0.00281221
0.000104946
0.00277366
0.000108247
0.00274095
9.17609e-05
0.00272033
5.79834e-05
0.00271587
1.32404e-05
0.00272829
-3.29472e-05
0.00275398
-6.86074e-05
0.00278471
-8.15035e-05
0.00280928
-6.41459e-05
0.00281746
-1.93035e-05
0.00280399
4.01188e-05
0.00276975
9.77141e-05
0.00272022
0.000140843
0.00266289
0.000163229
0.0026055
0.000163463
0.00255531
0.000142443
0.00251906
0.000101549
0.0025032
4.23131e-05
0.00251344
-3.22823e-05
0.00255324
-0.000114769
0.00262062
-0.000189912
0.00270529
-0.00023563
0.00278896
-0.00023151
0.0028508
-0.000171477
0.00287577
-7.06319e-05
0.00286012
4.15377e-05
0.0028108
0.00013653
0.00274019
0.000198732
0.00266073
0.000226298
0.00258242
0.000224542
0.00251293
0.000199169
0.00245911
0.000152782
0.0024282
8.49229e-05
0.00242792
-5.14568e-06
0.00246487
-0.00011356
0.00254138
-0.000226729
0.00265185
-0.0003199
0.00277985
-0.000362195
0.00289888
-0.000329238
0.00297975
-0.00021915
0.00300283
-6.02639e-05
0.00296688
9.99919e-05
0.00288774
0.000218745
0.00278865
0.000276487
0.00269034
0.00027796
0.00260645
0.000239597
0.00254459
0.000176327
0.00250995
9.50291e-05
0.00250873
-4.61591e-06
0.00254862
-0.000123105
0.00263481
-0.000251707
0.00276359
-0.000367949
0.00291891
-0.000441733
0.00307539
-0.000449154
0.00320607
-0.000384032
0.00329052
-0.00025997
0.00331933
-0.00010258
0.00329323
6.14259e-05
0.00321983
0.000208873
0.00311201
0.000318389
0.00298769
0.000371027
0.00286768
0.000358406
0.00277048
0.000289899
0.00270743
0.000188665
0.00268162
7.9707e-05
0.00268989
-1.89675e-05
0.00272537
-9.70313e-05
0.00277882
-0.000148158
0.00283906
-0.000167322
0.0028937
-0.000151567
0.002931
-0.000103314
0.00294288
-3.27681e-05
0.00292725
4.37686e-05
0.00288828
0.000109387
0.00283433
0.00015261
0.00277472
0.000170294
0.00271719
0.000166233
0.00266675
0.00014753
0.00262577
0.000121285
0.00259478
9.28629e-05
0.00257319
6.56035e-05
0.0025599
4.12912e-05
0.00255356
2.07659e-05
0.00255272
4.38524e-06
0.00255594
-7.71018e-06
0.00256173
-1.54974e-05
0.00256866
-1.90914e-05
0.0025754
-1.88248e-05
0.00258084
-1.53171e-05
0.00258417
-9.47325e-06
0.00258498
-2.38888e-06
0.00258326
4.81416e-06
0.00257932
1.11662e-05
0.00257372
1.59846e-05
0.00256713
1.89283e-05
0.00256022
1.99754e-05
0.00255357
1.93506e-05
0.00254763
1.7433e-05
0.00254267
1.46674e-05
0.00253882
1.14932e-05
0.00253609
8.29418e-06
0.00253436
5.3698e-06
0.00253347
2.92452e-06
0.0025332
1.07116e-06
0.00253334
-1.56597e-07
0.00253368
-7.87375e-07
0.00253404
-8.94745e-07
0.00253428
-5.81217e-07
0.00253429
3.57208e-08
0.00253402
8.35561e-07
0.00253344
1.70502e-06
0.00253257
2.54635e-06
0.00253144
3.28319e-06
0.00253012
3.86377e-06
0.00252867
4.26134e-06
0.00252715
4.47211e-06
0.00252562
4.51128e-06
0.00252412
4.40775e-06
0.00252271
4.19856e-06
0.00252139
3.92349e-06
0.00252018
3.62058e-06
0.00251907
3.32266e-06
0.00251805
3.05529e-06
0.00251711
2.83576e-06
0.00251622
2.67325e-06
0.00251537
2.56968e-06
0.00251453
2.52109e-06
0.00251369
2.51935e-06
0.00251283
2.55362e-06
0.00251195
2.61231e-06
0.00251105
2.68357e-06
0.00251012
2.75768e-06
0.00250917
2.8253e-06
0.0025082
2.88195e-06
0.00250721
2.92107e-06
0.00250622
2.94563e-06
0.00250522
2.94859e-06
0.00250422
2.94228e-06
0.00250324
2.9144e-06
0.00250226
2.88437e-06
0.0025013
2.84158e-06
0.00250036
2.78481e-06
2.73604e-06
0.00250231
-9.58611e-06
0.00250942
-2.93472e-05
0.00252186
-5.10295e-05
0.00254037
-7.51476e-05
0.00256576
-0.00010173
0.00259861
-0.000129729
0.00263905
-0.000157161
0.00268607
-0.000179964
0.0027374
-0.000193765
0.00278895
-0.000193094
0.00283557
-0.000174767
0.00287362
-0.000142587
0.00290016
-9.91862e-05
0.00291293
-4.73519e-05
0.00291026
9.64362e-06
0.00289163
6.69218e-05
0.00285897
0.000115931
0.00281738
0.00014654
0.00277421
0.000151408
0.00273753
0.000128446
0.00271449
8.10228e-05
0.00270993
1.77987e-05
0.00272507
-4.80883e-05
0.00275615
-9.96853e-05
0.00279369
-0.00011904
0.00282429
-9.47483e-05
0.00283567
-3.06816e-05
0.00282175
5.4038e-05
0.0027841
0.00013536
0.00272953
0.000195412
0.00266671
0.000226056
0.00260401
0.000226158
0.00254895
0.000197501
0.00250847
0.000142029
0.00248948
6.13053e-05
0.00249886
-4.16592e-05
0.00254177
-0.000157681
0.0026174
-0.000265539
0.00271428
-0.000332507
0.00281038
-0.000327616
0.00288058
-0.000241674
0.00290734
-9.73968e-05
0.00288735
6.15311e-05
0.0028301
0.000193783
0.00275085
0.000277981
0.00266379
0.000313362
0.00257924
0.000309086
0.00250452
0.000273893
0.00244594
0.000211358
0.00241014
0.00012073
0.002404
9.92697e-07
0.00243419
-0.000143749
0.00250548
-0.00029802
0.0026162
-0.000430624
0.00275252
-0.000498518
0.00288722
-0.000463936
0.00298632
-0.000318246
0.00302267
-9.66153e-05
0.00298969
0.000132972
0.00290397
0.000304462
0.002794
0.00038646
0.00268557
0.000386393
0.00259427
0.000330887
0.00252683
0.000243769
0.00248734
0.000134523
0.00248342
-6.95824e-07
0.00252647
-0.000166158
0.00262384
-0.000349076
0.00276935
-0.000513458
0.0029413
-0.000613685
0.0031091
-0.000616954
0.00324282
-0.000517756
0.00332136
-0.000338501
0.00333712
-0.000118345
0.00329533
0.000103214
0.00320877
0.00029544
0.00309305
0.000434108
0.00296555
0.000498521
0.00284501
0.000478949
0.00274838
0.000386533
0.00268665
0.000250392
0.00266314
0.000103213
0.00267479
-3.06139e-05
0.0027145
-0.000136742
0.00277295
-0.000206607
0.00283915
-0.00023352
0.00290045
-0.000212875
0.00294386
-0.000146714
0.00295937
-4.82827e-05
0.00294373
5.94113e-05
0.00290143
0.00015168
0.0028424
0.000211649
0.00277773
0.000234959
0.00271636
0.000227599
0.00266368
0.000200217
0.00262187
0.000163094
0.00259104
0.000123692
0.00257022
8.64245e-05
0.00255801
5.35017e-05
0.00255289
2.58824e-05
0.00255334
3.93717e-06
0.00255782
-1.21954e-05
0.00256482
-2.24909e-05
0.00257282
-2.70894e-05
0.00258042
-2.64255e-05
0.00258644
-2.13392e-05
0.00259004
-1.30803e-05
0.00259083
-3.17299e-06
0.00258882
6.82214e-06
0.00258442
1.55643e-05
0.00257828
2.21239e-05
0.00257116
2.60544e-05
0.00256378
2.73545e-05
0.00255677
2.63603e-05
0.00255059
2.36132e-05
0.00254552
1.97366e-05
0.00254167
1.53378e-05
0.00253903
1.09417e-05
0.00253744
6.95298e-06
0.00253673
3.64342e-06
0.00253664
1.15857e-06
0.00253694
-4.63773e-07
0.00253743
-1.26958e-06
0.0025379
-1.36444e-06
0.00253821
-8.91737e-07
0.00253826
-1.38723e-08
0.00253799
1.10374e-06
0.00253739
2.30643e-06
0.00253647
3.46143e-06
0.00253529
4.46573e-06
0.0025339
5.25039e-06
0.00253238
5.78085e-06
0.0025308
6.054e-06
0.00252922
6.0925e-06
0.00252769
5.93746e-06
0.00252625
5.64064e-06
0.00252492
5.25712e-06
0.0025237
4.83906e-06
0.00252259
4.43119e-06
0.00252158
4.06792e-06
0.00252064
3.77223e-06
0.00251976
3.5559e-06
0.00251891
3.42082e-06
0.00251807
3.36092e-06
0.00251722
3.36458e-06
0.00251636
3.41666e-06
0.00251547
3.50107e-06
0.00251455
3.60163e-06
0.0025136
3.70506e-06
0.00251263
3.79877e-06
0.00251163
3.8769e-06
0.00251062
3.93061e-06
0.00250961
3.96447e-06
0.00250859
3.96846e-06
0.00250757
3.96114e-06
0.00250656
3.92263e-06
0.00250556
3.88618e-06
0.00250457
3.82475e-06
0.0025036
3.75881e-06
3.68348e-06
0.00250221
-1.17977e-05
0.00250902
-3.61547e-05
0.00252105
-6.30577e-05
0.00253917
-9.32695e-05
0.0025644
-0.000126964
0.00259764
-0.000162963
0.00263934
-0.000198868
0.00268871
-0.000229333
0.00274353
-0.000248582
0.00279902
-0.000248586
0.00284912
-0.000224861
0.00288996
-0.000183432
0.00291856
-0.000127788
0.00293248
-6.12732e-05
0.00292963
1.24941e-05
0.00290883
8.77214e-05
0.00287181
0.000152951
0.00282424
0.000194115
0.00277463
0.00020102
0.00273234
0.000170737
0.00270581
0.000107547
0.002701
2.26132e-05
0.00271988
-6.69738e-05
0.0027586
-0.0001384
0.00280593
-0.000166367
0.00284523
-0.000134052
0.00286113
-4.65811e-05
0.00284644
6.87287e-05
0.00280382
0.000177978
0.00274211
0.00025712
0.00267167
0.000296502
0.00260174
0.000296081
0.00254009
0.000259156
0.00249374
0.000188382
0.00247019
8.48491e-05
0.00247812
-4.95832e-05
0.00252541
-0.000204974
0.00261302
-0.000353149
0.00272788
-0.000447367
0.00284234
-0.000442077
0.00292436
-0.00032369
0.00295273
-0.000125775
0.00292543
8.88366e-05
0.0028562
0.000263008
0.0027646
0.000369585
0.00266711
0.000410846
0.00257439
0.000401807
0.00249302
0.000355266
0.00242803
0.000276351
0.002384
0.000164759
0.00236651
1.8481e-05
0.00238493
-0.00016217
0.00245023
-0.00036332
0.00256434
-0.000544735
0.00271147
-0.000645652
0.00286106
-0.000613526
0.00297739
-0.000434568
0.00302998
-0.000149205
0.00300599
0.000156957
0.00291842
0.00039203
0.00279867
0.000506215
0.00267857
0.000506493
0.00257749
0.000431965
0.00250238
0.000318883
0.00245754
0.000179363
0.00245387
2.96987e-06
0.00250654
-0.000218822
0.00262169
-0.000464234
0.00278671
-0.000678472
0.00297328
-0.000800252
0.00314797
-0.000791648
0.0032812
-0.000650984
0.00335267
-0.000409975
0.00335526
-0.000120933
0.00329619
0.000162279
0.00319285
0.000398784
0.00306535
0.00056161
0.00293245
0.000631424
0.00281127
0.000600122
0.00271651
0.0004813
0.00265769
0.000309205
0.00263727
0.000123631
0.00265123
-4.45682e-05
0.00269189
-0.000177406
0.00275092
-0.000265633
0.00281977
-0.000302371
0.00288775
-0.000280856
0.00294108
-0.000200044
0.00296625
-7.34479e-05
0.00295621
6.94469e-05
0.00291406
0.000193828
0.00285102
0.000274688
0.00278084
0.000305141
0.0027147
0.000293746
0.00265904
0.000255871
0.00261612
0.000206016
0.00258556
0.000154247
0.00256586
0.000106126
0.0025552
6.416e-05
0.00255182
2.92646e-05
0.00255405
1.70873e-06
0.00256028
-1.84263e-05
0.00256892
-3.1124e-05
0.00257836
-3.65354e-05
0.00258712
-3.51852e-05
0.00259393
-2.81439e-05
0.00259789
-1.70443e-05
0.00259861
-3.89703e-06
0.0025962
9.23866e-06
0.00259115
2.06077e-05
0.00258426
2.9017e-05
0.00257639
3.39244e-05
0.00256837
3.53769e-05
0.00256087
3.38569e-05
0.00255438
3.01019e-05
0.00254918
2.49409e-05
0.00254535
1.91685e-05
0.00254283
1.34615e-05
0.00254145
8.33334e-06
0.00254097
4.12157e-06
0.00254113
9.99018e-07
0.00254166
-9.99499e-07
0.00254234
-1.94469e-06
0.00254296
-1.98102e-06
0.00254336
-1.29873e-06
0.00254346
-1.10101e-07
0.00254319
1.37055e-06
0.00254256
2.94415e-06
0.00254158
4.44097e-06
0.00254031
5.73057e-06
0.00253883
6.72702e-06
0.00253723
7.38914e-06
0.00253556
7.71635e-06
0.00253392
7.741e-06
0.00253233
7.5187e-06
0.00253086
7.11809e-06
0.0025295
6.61125e-06
0.00252828
6.06578e-06
0.00252717
5.53898e-06
0.00252616
5.07437e-06
0.00252523
4.70044e-06
0.00252436
4.43109e-06
0.00252351
4.26756e-06
0.00252267
4.20094e-06
0.00252182
4.21542e-06
0.00252095
4.29091e-06
0.00252004
4.40639e-06
0.0025191
4.5409e-06
0.00251813
4.67747e-06
0.00251713
4.80012e-06
0.0025161
4.9017e-06
0.00251506
4.97106e-06
0.00251401
5.01494e-06
0.00251296
5.01975e-06
0.00251191
5.01217e-06
0.00251087
4.96163e-06
0.00250983
4.92197e-06
0.00250882
4.83748e-06
0.00250781
4.77197e-06
4.65912e-06
0.00250207
-1.38683e-05
0.00250847
-4.25553e-05
0.00251992
-7.4502e-05
0.00253745
-0.000110803
0.00256236
-0.000151879
0.00259595
-0.000196545
0.00263915
-0.000242071
0.0026915
-0.000281684
0.00275092
-0.000307999
0.00281163
-0.000309304
0.00286621
-0.000279437
0.00291065
-0.000227868
0.00294196
-0.000159102
0.00295757
-7.68871e-05
0.00295474
1.53295e-05
0.00293125
0.000111207
0.00288847
0.000195739
0.00283286
0.000249723
0.00277455
0.00025933
0.00272466
0.000220625
0.0026933
0.000138904
0.0026879
2.80119e-05
0.00271163
-9.07005e-05
0.00276066
-0.000187435
0.00282147
-0.000227173
0.0028728
-0.000185383
0.00289484
-6.86178e-05
0.0028789
8.46706e-05
0.00282936
0.000227514
0.00275805
0.000328427
0.00267766
0.000376894
0.0025985
0.000375242
0.00252842
0.000329233
0.00247438
0.000242424
0.00244465
0.000114585
0.00244988
-5.48133e-05
0.0025001
-0.000255194
0.00259801
-0.000451062
0.0027321
-0.000581464
0.00287202
-0.000581996
0.00297546
-0.000427128
0.0030109
-0.000161213
0.00297537
0.000124362
0.00288975
0.000348631
0.00278128
0.000478053
0.00267029
0.000521839
0.00256766
0.00050444
0.0024784
0.00044452
0.00240474
0.000350013
0.00234834
0.000221162
0.00231636
5.04604e-05
0.00232658
-0.000172393
0.00239722
-0.000433957
0.00252711
-0.000674624
0.00269042
-0.000808965
0.00285004
-0.000773148
0.00297191
-0.00055643
0.00303036
-0.000207659
0.00301219
0.000175132
0.00292527
0.000478948
0.00279889
0.000632598
0.00266802
0.000637356
0.00255602
0.000543969
0.00247193
0.000402968
0.00242276
0.000228538
0.00242362
2.1079e-06
0.00249064
-0.000285841
0.00262422
-0.000597812
0.00280354
-0.000857792
0.002996
-0.000992714
0.00316907
-0.000964722
0.00329645
-0.000778363
0.00336019
-0.000473712
0.00335303
-0.00011377
0.00328143
0.000233882
0.00316439
0.00051582
0.00302587
0.000700125
0.00288748
0.000769821
0.00276624
0.000721361
0.00267481
0.000572728
0.00262024
0.000363776
0.00260227
0.000141605
0.00261455
-5.68478e-05
0.00264938
-0.000212241
0.00270168
-0.000317934
0.00276782
-0.000368512
0.00284077
-0.000353805
0.00290691
-0.000266182
0.00294876
-0.000115296
0.0029532
6.49999e-05
0.00291893
0.000228105
0.00285668
0.000336938
0.00278286
0.000378959
0.00271204
0.000364568
0.00265295
0.000314961
0.00260858
0.00025038
0.00257832
0.000184507
0.00256005
0.000124399
0.00255141
7.27996e-05
0.00255028
3.03959e-05
0.0025548
-2.80819e-06
0.00256325
-2.68783e-05
0.00257395
-4.18278e-05
0.00258522
-4.78024e-05
0.00259543
-4.53982e-05
0.00260321
-3.59244e-05
0.00260761
-2.14434e-05
0.00260824
-4.52611e-06
0.00260529
1.21925e-05
0.00259941
2.64869e-05
0.00259154
3.6879e-05
0.00258272
4.27442e-05
0.00257389
4.42142e-05
0.00256578
4.19636e-05
0.00255891
3.69696e-05
0.00255355
3.03022e-05
0.00254975
2.29676e-05
0.00254741
1.58078e-05
0.00254629
9.44914e-06
0.00254612
4.29171e-06
0.00254659
5.28006e-07
0.00254741
-1.81979e-06
0.00254832
-2.85685e-06
0.00254912
-2.77532e-06
0.00254964
-1.81969e-06
0.00254979
-2.58172e-07
0.00254952
1.64132e-06
0.00254883
3.63184e-06
0.00254776
5.50452e-06
0.00254639
7.10057e-06
0.0025448
8.31748e-06
0.00254308
9.10896e-06
0.00254132
9.47927e-06
0.00253959
9.47326e-06
0.00253794
9.16395e-06
0.00253642
8.63947e-06
0.00253504
7.99106e-06
0.00253381
7.30324e-06
0.0025327
6.64673e-06
0.0025317
6.07441e-06
0.00253078
5.61998e-06
0.00252991
5.29887e-06
0.00252907
5.1108e-06
0.00252823
5.04315e-06
0.00252737
5.07505e-06
0.00252648
5.18071e-06
0.00252555
5.33358e-06
0.00252458
5.50752e-06
0.00252358
5.68164e-06
0.00252254
5.83647e-06
0.00252148
5.96366e-06
0.0025204
6.04979e-06
0.00251931
6.10434e-06
0.00251822
6.10959e-06
0.00251713
6.10254e-06
0.00251605
6.03811e-06
0.00251498
5.99926e-06
0.00251393
5.88572e-06
0.00251287
5.8338e-06
5.6676e-06
0.00250188
-1.57525e-05
0.00250774
-4.84146e-05
0.00251839
-8.51476e-05
0.00253507
-0.00012748
0.0025594
-0.000176208
0.00259318
-0.000230332
0.00263804
-0.000286927
0.00269402
-0.000337664
0.00275935
-0.000373329
0.00282679
-0.000376749
0.00288694
-0.00033958
0.00293574
-0.000276667
0.00297037
-0.000193738
0.00298822
-9.47357e-05
0.00298569
1.7859e-05
0.00295909
0.000137806
0.00290912
0.000245715
0.00284326
0.000315581
0.00277372
0.000328863
0.00271389
0.000280456
0.002676
0.000176797
0.00266944
3.45692e-05
0.00269915
-0.000120405
0.0027617
-0.000249985
0.00284061
-0.000306083
0.0029082
-0.000252979
0.00293835
-9.87611e-05
0.00292037
0.000102647
0.00286136
0.000286522
0.00277747
0.000412317
0.00268453
0.00046984
0.00259401
0.000465755
0.00251361
0.000409636
0.00245008
0.000305956
0.00241227
0.000152392
0.00241042
-5.29595e-05
0.00245252
-0.000297301
0.00254422
-0.000542753
0.00268558
-0.000722827
0.00285472
-0.000751133
0.00299921
-0.000571625
0.00306391
-0.000225914
0.00303208
0.000156196
0.00293071
0.000449998
0.00280121
0.000607551
0.00267305
0.000650006
0.0025587
0.000618783
0.00246029
0.000542938
0.00237542
0.000434883
0.00230433
0.000292243
0.0022615
9.32916e-05
0.00227561
-0.000186496
0.00236539
-0.000523745
0.00251826
-0.000827489
0.00269713
-0.000987839
0.00286117
-0.000937185
0.00297909
-0.000674346
0.00303169
-0.000260267
0.00301053
0.000196297
0.00292195
0.000567524
0.00279104
0.00076351
0.0026517
0.000776693
0.00252938
0.000666292
0.00243662
0.000495729
0.00238525
0.000279906
0.00239388
-6.52668e-06
0.00247562
-0.000367578
0.00262236
-0.000744546
0.00280659
-0.00104202
0.00299507
-0.0011812
0.00315888
-0.00112852
0.00327597
-0.000895458
0.00333116
-0.000528903
0.00331739
-9.9997e-05
0.00323939
0.000311875
0.00311524
0.000639975
0.0029705
0.000844863
0.00282943
0.000910888
0.00271012
0.000840676
0.00262375
0.000659101
0.0025738
0.000413725
0.00255566
0.000159738
0.00256096
-6.21409e-05
0.00258461
-0.000235891
0.00262701
-0.000360333
0.00268901
-0.000430519
0.00276562
-0.000430415
0.0028435
-0.000344055
0.00290345
-0.000175246
0.00292766
4.07919e-05
0.00290883
0.000246932
0.00285432
0.000391451
0.00278129
0.000451982
0.00270766
0.000438204
0.00264544
0.000377181
0.00259944
0.000296379
0.00256939
0.000214558
0.00255273
0.000141052
0.00254652
7.90161e-05
0.00254813
2.87805e-05
0.00255543
-1.01072e-05
0.00256655
-3.79962e-05
0.00257971
-5.4985e-05
0.00259311
-6.12092e-05
0.00260503
-5.73146e-05
0.00261396
-4.48516e-05
0.00261887
-2.6358e-05
0.00261939
-5.04696e-06
0.00261581
1.57807e-05
0.00260893
3.33592e-05
0.00259992
4.58957e-05
0.00258997
5.26956e-05
0.00258016
5.40186e-05
0.00257134
5.07877e-05
0.00256403
4.42742e-05
0.0025585
3.58328e-05
0.00255476
2.67114e-05
0.00255263
1.79331e-05
0.00255184
1.02414e-05
0.00255204
4.09383e-06
0.00255287
-3.08102e-07
0.00255402
-2.96754e-06
0.0025552
-4.03648e-06
0.00255619
-3.76541e-06
0.00255683
-2.46165e-06
0.00255703
-4.55872e-07
0.00255675
1.92553e-06
0.00255599
4.38431e-06
0.00255483
6.67033e-06
0.00255333
8.59567e-06
0.00255161
1.00418e-05
0.00254976
1.09591e-05
0.00254788
1.13593e-05
0.00254605
1.1303e-05
0.00254433
1.0884e-05
0.00254276
1.02127e-05
0.00254135
9.40219e-06
0.00254009
8.5554e-06
0.00253898
7.7574e-06
0.00253799
7.07059e-06
0.00253707
6.5335e-06
0.00253621
6.1623e-06
0.00253537
5.95421e-06
0.00253452
5.89188e-06
0.00253364
5.94842e-06
0.00253273
6.09153e-06
0.00253178
6.28849e-06
0.00253078
6.50759e-06
0.00252974
6.72376e-06
0.00252866
6.91397e-06
0.00252755
7.06885e-06
0.00252643
7.1727e-06
0.0025253
7.23843e-06
0.00252416
7.24353e-06
0.00252303
7.23775e-06
0.00252191
7.15719e-06
0.00252078
7.12396e-06
0.0025197
6.97367e-06
0.00251858
6.95278e-06
6.71099e-06
0.00250164
-1.73966e-05
0.0025068
-5.35718e-05
0.00251638
-9.4727e-05
0.00253185
-0.000142946
0.0025552
-0.000199559
0.0025889
-0.000264033
0.00263543
-0.000333462
0.00269571
-0.000397938
0.00276856
-0.000446177
0.00284455
-0.000452746
0.00291146
-0.000406485
0.00296546
-0.000330665
0.00300423
-0.000232507
0.00302526
-0.000115771
0.00302371
1.9409e-05
0.00299356
0.000167955
0.00293448
0.000304797
0.00285541
0.000394653
0.0027714
0.000412866
0.00269871
0.000353153
0.00265211
0.000223391
0.0026435
4.31862e-05
0.00268037
-0.000157274
0.00276041
-0.00033003
0.00286344
-0.000409112
0.00295282
-0.000342353
0.00299353
-0.000139471
0.00297235
0.000123826
0.0029005
0.000358367
0.00280035
0.000512465
0.00269192
0.000578278
0.00258786
0.000569815
0.00249538
0.000502117
0.00242093
0.000380402
0.0023717
0.00020162
0.00235161
-3.28723e-05
0.00236525
-0.000310939
0.00242978
-0.000607285
0.00256496
-0.000858005
0.00276026
-0.000946435
0.00295808
-0.000769443
0.00307877
-0.000346601
0.00307719
0.000157775
0.00297349
0.000553694
0.00282417
0.000756877
0.00267578
0.000798395
0.00254741
0.000747151
0.00243816
0.000652186
0.00234048
0.000532566
0.00225665
0.000376074
0.00221192
0.000138021
0.00224086
-0.000215441
0.00235323
-0.000636116
0.0025231
-0.00099736
0.00270868
-0.00117341
0.00287169
-0.0011002
0.00298397
-0.000786623
0.0030287
-0.000304995
0.00300071
0.000224291
0.00290795
0.000660276
0.00277328
0.000898188
0.00262779
0.000922175
0.00249706
0.00079703
0.00239744
0.000595344
0.00234627
0.000331079
0.00236358
-2.38401e-05
0.00245642
-0.00046042
0.00260824
-0.000896364
0.00278796
-0.00122174
0.00296469
-0.00135793
0.00311419
-0.00127803
0.00321844
-0.000999705
0.00326453
-0.000574987
0.0032459
-8.13724e-05
0.00316604
0.00039174
0.00304114
0.000764872
0.00289643
0.000989572
0.00275752
0.0010498
0.0026435
0.000954695
0.00256395
0.000738645
0.0025178
0.000459875
0.00249641
0.00018113
0.00249261
-5.83379e-05
0.00250714
-0.000250421
0.00254495
-0.000398147
0.00260704
-0.000492606
0.00268673
-0.000510107
0.00277091
-0.00042823
0.00284227
-0.000246614
0.00288292
1.47351e-07
0.00288142
0.000248431
0.00283984
0.000433033
0.00277295
0.000518868
0.00270002
0.000511136
0.00263618
0.000441014
0.00258886
0.0003437
0.00255897
0.000244452
0.00254399
0.000156035
0.00254045
8.25531e-05
0.00254519
2.40433e-05
0.00255564
-2.0558e-05
0.00256971
-5.20666e-05
0.00258551
-7.07881e-05
0.00260119
-7.68903e-05
0.00261494
-7.10562e-05
0.00262514
-5.50572e-05
0.0026307
-3.19203e-05
0.00263122
-5.56379e-06
0.00262705
1.99542e-05
0.00261917
4.12398e-05
0.00260893
5.61332e-05
0.00259775
6.38694e-05
0.0025869
6.48779e-05
0.00257729
6.03934e-05
0.00256952
5.20465e-05
0.00256382
4.15307e-05
0.00256016
3.03725e-05
0.00255829
1.97965e-05
0.00255787
1.06671e-05
0.00255847
3.4916e-06
0.0025597
-1.53383e-06
0.00256118
-4.45422e-06
0.00256263
-5.48373e-06
0.00256381
-4.94343e-06
0.00256456
-3.21227e-06
0.00256479
-6.8935e-07
0.00256448
2.23666e-06
0.00256365
5.21379e-06
0.00256237
7.94921e-06
0.00256074
1.02254e-05
0.00255888
1.19085e-05
0.00255689
1.29471e-05
0.00255489
1.33633e-05
0.00255295
1.32366e-05
0.00255115
1.26846e-05
0.00254952
1.18436e-05
0.00254807
1.08504e-05
0.0025468
9.82835e-06
0.00254568
8.87754e-06
0.00254468
8.06995e-06
0.00254376
7.44843e-06
0.0025429
7.02901e-06
0.00254205
6.80539e-06
0.00254118
6.75441e-06
0.00254029
6.84225e-06
0.00253935
7.02936e-06
0.00253836
7.27631e-06
0.00253733
7.54546e-06
0.00253624