/*--------------------------------*- C++ -*----------------------------------*\
  =========                 |
  \\      /  F ield         | OpenFOAM: The Open Source CFD Toolbox
   \\    /   O peration     | Website:  https://openfoam.org
    \\  /    A nd           | Version:  11
     \\/     M anipulation  |
\*---------------------------------------------------------------------------*/
FoamFile
{
    format      ascii;
    class       surfaceScalarField;
    location    "1.404531";
    object      phi_0;
}
// * * * * * * * * * * * * * * * * * * * * * * * * * * * * * * * * * * * * * //

dimensions      [0 3 -1 0 0 0 0];

internalField   nonuniform List<scalar> 
14638
(
0.00250272
-2.7197e-06
0.0025109
-8.17943e-06
0.00252481
-1.39148e-05
0.00254482
-2.0002e-05
0.00257123
-2.64147e-05
0.00260411
-3.28749e-05
0.00264299
-3.88866e-05
0.00268653
-4.35371e-05
0.00273236
-4.58289e-05
0.00277705
-4.4694e-05
0.00281654
-3.94847e-05
0.00284736
-3.08212e-05
0.00286685
-1.94879e-05
0.0028733
-6.4573e-06
0.00286648
6.81838e-06
0.00284764
1.88424e-05
0.00281929
2.83521e-05
0.00278463
3.46625e-05
0.00274689
3.77387e-05
0.00270886
3.80308e-05
0.00267264
3.62141e-05
0.00263968
3.29592e-05
0.00261089
2.87991e-05
0.00258676
2.41261e-05
0.00256748
1.92816e-05
0.00255283
1.46446e-05
0.00254221
1.06287e-05
0.00253463
7.57374e-06
0.00252902
5.60794e-06
0.00252443
4.58964e-06
0.00252025
4.17942e-06
0.00251626
3.99699e-06
0.00251249
3.76614e-06
0.00250912
3.37476e-06
0.00250627
2.84436e-06
0.00250402
2.25632e-06
0.00250233
1.68879e-06
0.00250114
1.18952e-06
0.00250036
7.78101e-07
0.0024999
4.58236e-07
0.00249967
2.2621e-07
0.0024996
7.3177e-08
0.00249962
-1.47362e-08
0.00249967
-5.49277e-08
0.00249974
-6.50659e-08
0.0024998
-5.98039e-08
0.00249985
-4.90485e-08
0.00249988
-3.81081e-08
0.00249991
-2.9004e-08
0.00249993
-2.19926e-08
0.00249995
-1.66878e-08
0.00249996
-1.2642e-08
0.00249997
-9.52813e-09
0.00249998
-7.13332e-09
0.00249999
-5.30841e-09
0.00249999
-3.93385e-09
0.00249999
-2.90801e-09
0.00249999
-2.14638e-09
0.0025
-1.58208e-09
0.0025
-1.16423e-09
0.0025
-8.55003e-10
0.0025
-6.26374e-10
0.0025
-4.5753e-10
0.0025
-3.32978e-10
0.0025
-2.41184e-10
0.0025
-1.73589e-10
0.0025
-1.23852e-10
0.0025
-8.7292e-11
0.0025
-6.04439e-11
0.0025
-4.07611e-11
0.0025
-2.63509e-11
0.0025
-1.58321e-11
0.0025
-8.1702e-12
0.0025
-2.61974e-12
0.0025
1.38646e-12
0.0025
4.24748e-12
0.0025
6.27675e-12
0.0025
7.68511e-12
0.0025
8.64811e-12
0.0025
9.27424e-12
0.0025
9.66445e-12
0.0025
9.87169e-12
0.0025
9.95653e-12
0.0025
9.94191e-12
0.0025
9.86648e-12
0.0025
9.73696e-12
0.0025
9.58002e-12
0.0025
9.39367e-12
0.0025
9.19788e-12
0.0025
8.98612e-12
0.0025
8.77454e-12
0.0025
8.5544e-12
0.0025
8.3395e-12
0.0025
8.12017e-12
0.0025
7.90868e-12
0.0025
7.69508e-12
0.0025
7.4905e-12
0.0025
7.28517e-12
0.0025
7.08925e-12
0.0025
6.89338e-12
0.0025
6.70688e-12
0.0025
6.52093e-12
0.0025
6.34402e-12
0.0025
6.16798e-12
0.0025
6.00051e-12
0.0025
5.8341e-12
0.0025
5.67569e-12
0.0025
5.5185e-12
0.0025
5.36867e-12
0.0025
5.22018e-12
0.0025
5.07841e-12
0.0025
4.93809e-12
0.0025
4.80386e-12
0.0025
4.67117e-12
0.0025
4.54394e-12
0.0025
4.41837e-12
0.0025
4.29763e-12
0.0025
4.17868e-12
0.0025
4.06396e-12
0.0025
3.95113e-12
0.0025
3.842e-12
0.0025
3.73489e-12
0.0025
3.63094e-12
0.0025
3.52914e-12
0.0025
3.42999e-12
0.0025
3.33313e-12
0.0025
3.23847e-12
0.0025
3.14622e-12
0.0025
3.05574e-12
0.0025
2.96781e-12
0.0025
2.88124e-12
0.0025
2.79736e-12
0.0025
2.71445e-12
0.0025
2.63437e-12
0.0025
2.55492e-12
0.0025
2.4784e-12
0.0025
2.40221e-12
0.0025
2.32907e-12
0.0025
2.25594e-12
0.0025
2.18597e-12
0.0025
2.11576e-12
0.0025
2.04878e-12
0.0025
1.98132e-12
0.0025
1.91719e-12
0.0025
1.85234e-12
0.0025
1.79091e-12
0.0025
1.72858e-12
0.0025
1.66973e-12
0.0025
1.60983e-12
0.0025
1.55343e-12
0.0025
1.49594e-12
0.0025
1.44162e-12
0.0025
1.38678e-12
0.0025
1.33366e-12
0.0025
1.2842e-12
0.0025
1.227e-12
0.0025
1.20026e-12
0.0025
1.10189e-12
0.0025
1.20183e-12
8.96635e-13
0.0025027
-5.41724e-06
0.00251082
-1.62989e-05
0.00252465
-2.77496e-05
0.00254459
-3.9943e-05
0.00257102
-5.28404e-05
0.00260404
-6.58994e-05
0.00264329
-7.81337e-05
0.00268743
-8.76796e-05
0.0027341
-9.24978e-05
0.00277974
-9.03318e-05
0.00282007
-7.98175e-05
0.00285155
-6.23003e-05
0.00287143
-3.93687e-05
0.00287794
-1.29662e-05
0.00287082
1.39416e-05
0.00285137
3.82882e-05
0.00282224
5.74803e-05
0.00278678
7.01287e-05
0.00274833
7.61911e-05
0.00270974
7.66192e-05
0.00267314
7.28138e-05
0.00263994
6.61532e-05
0.00261102
5.77233e-05
0.00258683
4.83126e-05
0.00256752
3.85946e-05
0.00255285
2.93114e-05
0.00254221
2.12759e-05
0.00253462
1.51591e-05
0.00252901
1.12164e-05
0.00252443
9.16888e-06
0.00252027
8.34234e-06
0.00251629
7.97833e-06
0.00251253
7.52316e-06
0.00250916
6.74923e-06
0.0025063
5.696e-06
0.00250404
4.52396e-06
0.00250234
3.38887e-06
0.00250114
2.38712e-06
0.00250036
1.55965e-06
0.0024999
9.15688e-07
0.00249968
4.49022e-07
0.00249961
1.42318e-07
0.00249963
-3.25879e-08
0.00249968
-1.11301e-07
0.00249975
-1.29938e-07
0.00249981
-1.1828e-07
0.00249985
-9.62599e-08
0.00249989
-7.43645e-08
0.00249992
-5.64161e-08
0.00249994
-4.27358e-08
0.00249995
-3.24397e-08
0.00249997
-2.45927e-08
0.00249997
-1.85436e-08
0.00249998
-1.38834e-08
0.00249999
-1.03297e-08
0.00249999
-7.65353e-09
0.00249999
-5.65765e-09
0.00249999
-4.17672e-09
0.0025
-3.07977e-09
0.0025
-2.26755e-09
0.0025
-1.66641e-09
0.0025
-1.22191e-09
0.0025
-8.93627e-10
0.0025
-6.51448e-10
0.0025
-4.72951e-10
0.0025
-3.41492e-10
0.0025
-2.44747e-10
0.0025
-1.73611e-10
0.0025
-1.2136e-10
0.0025
-8.30298e-11
0.0025
-5.49568e-11
0.0025
-3.44403e-11
0.0025
-1.94858e-11
0.0025
-8.62684e-12
0.0025
-7.78582e-13
0.0025
4.85312e-12
0.0025
8.8587e-12
0.0025
1.16677e-11
0.0025
1.3601e-11
0.0025
1.48903e-11
0.0025
1.57106e-11
0.0025
1.61861e-11
0.0025
1.64132e-11
0.0025
1.64575e-11
0.0025
1.63727e-11
0.0025
1.61931e-11
0.0025
1.59491e-11
0.0025
1.56579e-11
0.0025
1.53372e-11
0.0025
1.49949e-11
0.0025
1.4642e-11
0.0025
1.42813e-11
0.0025
1.39202e-11
0.0025
1.35587e-11
0.0025
1.32021e-11
0.0025
1.28491e-11
0.0025
1.25038e-11
0.0025
1.21641e-11
0.0025
1.18333e-11
0.0025
1.15091e-11
0.0025
1.11944e-11
0.0025
1.08864e-11
0.0025
1.05881e-11
0.0025
1.02965e-11
0.0025
1.00143e-11
0.0025
9.73866e-12
0.0025
9.47195e-12
0.0025
9.21146e-12
0.0025
8.95943e-12
0.0025
8.71325e-12
0.0025
8.47503e-12
0.0025
8.24226e-12
0.0025
8.01693e-12
0.0025
7.79666e-12
0.0025
7.58334e-12
0.0025
7.37469e-12
0.0025
7.17251e-12
0.0025
6.97465e-12
0.0025
6.78279e-12
0.0025
6.59492e-12
0.0025
6.41263e-12
0.0025
6.23406e-12
0.0025
6.06065e-12
0.0025
5.8907e-12
0.0025
5.72556e-12
0.0025
5.56363e-12
0.0025
5.40618e-12
0.0025
5.25172e-12
0.0025
5.10144e-12
0.0025
4.95398e-12
0.0025
4.81041e-12
0.0025
4.6695e-12
0.0025
4.53223e-12
0.0025
4.39747e-12
0.0025
4.26612e-12
0.0025
4.13715e-12
0.0025
4.01138e-12
0.0025
3.88786e-12
0.0025
3.76735e-12
0.0025
3.64899e-12
0.0025
3.53347e-12
0.0025
3.41998e-12
0.0025
3.30918e-12
0.0025
3.20032e-12
0.0025
3.094e-12
0.0025
2.98955e-12
0.0025
2.88752e-12
0.0025
2.78726e-12
0.0025
2.68938e-12
0.0025
2.59309e-12
0.0025
2.49935e-12
0.0025
2.40651e-12
0.0025
2.31761e-12
0.0025
2.2266e-12
0.0025
2.14737e-12
0.0025
2.04862e-12
0.0025
2.00699e-12
0.0025
1.84222e-12
0.0025
1.99498e-12
1.52697e-12
0.00250265
-8.06971e-06
0.00251064
-2.42906e-05
0.00252431
-4.14161e-05
0.00254412
-5.97477e-05
0.00257055
-7.92702e-05
0.00260385
-9.92048e-05
0.00264381
-0.000118089
0.00268916
-0.000133034
0.00273753
-0.000140869
0.00278509
-0.000137886
0.00282713
-0.000121861
0.00285993
-9.5098e-05
0.00288058
-6.0025e-05
0.00288717
-1.95476e-05
0.00287938
2.17246e-05
0.00285867
5.90002e-05
0.00282793
8.82161e-05
0.00279082
0.000107245
0.00275091
0.000116099
0.00271119
0.000116339
0.00267382
0.000110189
0.00264016
9.98101e-05
0.002611
8.68781e-05
0.00258673
7.25858e-05
0.0025674
5.79259e-05
0.00255273
4.39785e-05
0.00254208
3.19286e-05
0.00253448
2.27581e-05
0.00252886
1.68396e-05
0.00252427
1.37559e-05
0.00252011
1.25033e-05
0.00251614
1.19504e-05
0.00251239
1.1269e-05
0.00250903
1.0115e-05
0.00250618
8.54274e-06
0.00250391
6.78817e-06
0.00250222
5.08285e-06
0.00250103
3.57252e-06
0.00250027
2.32203e-06
0.00249984
1.3491e-06
0.00249964
6.46944e-07
0.00249959
1.89811e-07
0.00249963
-6.6174e-08
0.00249969
-1.76841e-07
0.00249976
-1.98427e-07
0.00249982
-1.76668e-07
0.00249986
-1.41522e-07
0.0024999
-1.08153e-07
0.00249992
-8.15711e-08
0.00249994
-6.1685e-08
0.00249996
-4.68494e-08
0.00249997
-3.55514e-08
0.00249998
-2.6817e-08
0.00249998
-2.00711e-08
0.00249999
-1.49237e-08
0.00249999
-1.10513e-08
0.00249999
-8.16753e-09
0.00249999
-6.03041e-09
0.0025
-4.44833e-09
0.0025
-3.277e-09
0.0025
-2.41e-09
0.0025
-1.76887e-09
0.0025
-1.29537e-09
0.0025
-9.46067e-10
0.0025
-6.88608e-10
0.0025
-4.98973e-10
0.0025
-3.59389e-10
0.0025
-2.56726e-10
0.0025
-1.81288e-10
0.0025
-1.25921e-10
0.0025
-8.53424e-11
0.0025
-5.56569e-11
0.0025
-3.39906e-11
0.0025
-1.82274e-11
0.0025
-6.80535e-12
0.0025
1.42322e-12
0.0025
7.3068e-12
0.0025
1.14669e-11
0.0025
1.43642e-11
0.0025
1.63346e-11
0.0025
1.76282e-11
0.0025
1.84261e-11
0.0025
1.88645e-11
0.0025
1.90405e-11
0.0025
1.90289e-11
0.0025
1.88809e-11
0.0025
1.86381e-11
0.0025
1.83271e-11
0.0025
1.79714e-11
0.0025
1.75841e-11
0.0025
1.71789e-11
0.0025
1.67618e-11
0.0025
1.63412e-11
0.0025
1.59191e-11
0.0025
1.55012e-11
0.0025
1.50873e-11
0.0025
1.46814e-11
0.0025
1.42823e-11
0.0025
1.38931e-11
0.0025
1.3512e-11
0.0025
1.31416e-11
0.0025
1.27796e-11
0.0025
1.24285e-11
0.0025
1.20858e-11
0.0025
1.17538e-11
0.0025
1.14299e-11
0.0025
1.11162e-11
0.0025
1.08102e-11
0.0025
1.05138e-11
0.0025
1.02247e-11
0.0025
9.94472e-12
0.0025
9.67141e-12
0.0025
9.40664e-12
0.0025
9.14805e-12
0.0025
8.89745e-12
0.0025
8.65254e-12
0.0025
8.41509e-12
0.0025
8.18286e-12
0.0025
7.95759e-12
0.0025
7.73712e-12
0.0025
7.52313e-12
0.0025
7.31356e-12
0.0025
7.11005e-12
0.0025
6.9106e-12
0.0025
6.71682e-12
0.0025
6.52679e-12
0.0025
6.34206e-12
0.0025
6.16081e-12
0.0025
5.98452e-12
0.0025
5.81147e-12
0.0025
5.6431e-12
0.0025
5.47772e-12
0.0025
5.31676e-12
0.0025
5.1586e-12
0.0025
5.00461e-12
0.0025
4.85323e-12
0.0025
4.7058e-12
0.0025
4.56083e-12
0.0025
4.41959e-12
0.0025
4.28067e-12
0.0025
4.1453e-12
0.0025
4.01211e-12
0.0025
3.88231e-12
0.0025
3.75455e-12
0.0025
3.63004e-12
0.0025
3.50746e-12
0.0025
3.38801e-12
0.0025
3.27037e-12
0.0025
3.15584e-12
0.0025
3.04287e-12
0.0025
2.93333e-12
0.0025
2.82444e-12
0.0025
2.72089e-12
0.0025
2.61399e-12
0.0025
2.52233e-12
0.0025
2.40619e-12
0.0025
2.3569e-12
0.0025
2.17051e-12
0.0025
2.31564e-12
1.82652e-12
0.00250258
-1.06502e-05
0.00251037
-3.20776e-05
0.00252376
-5.48067e-05
0.00254332
-7.93146e-05
0.00256972
-0.000105665
0.00260341
-0.000132892
0.0026444
-0.000159088
0.0026916
-0.000180225
0.0027426
-0.00019187
0.00279312
-0.000188412
0.0028378
-0.000166542
0.00287264
-0.00012993
0.0028945
-8.18932e-05
0.00290122
-2.62581e-05
0.00289242
3.05241e-05
0.00286973
8.16886e-05
0.00283648
0.000121467
0.00279679
0.000146936
0.00275462
0.000158264
0.00271317
0.000157793
0.00267462
0.000148739
0.00264027
0.000134152
0.00261079
0.000116357
0.00258642
9.69614e-05
0.00256709
7.7256e-05
0.00255245
5.86218e-05
0.0025418
4.25752e-05
0.00253418
3.03759e-05
0.00252853
2.24944e-05
0.00252391
1.83714e-05
0.00251974
1.66788e-05
0.00251576
1.5922e-05
0.00251203
1.50042e-05
0.00250868
1.34662e-05
0.00250585
1.13737e-05
0.0025036
9.03345e-06
0.00250193
6.7503e-06
0.00250079
4.72031e-06
0.00250007
3.03616e-06
0.00249969
1.72845e-06
0.00249955
7.92268e-07
0.00249954
1.92977e-07
0.00249961
-1.31857e-07
0.00249969
-2.61836e-07
0.00249977
-2.76048e-07
0.00249983
-2.37377e-07
0.00249988
-1.85593e-07
0.00249991
-1.39563e-07
0.00249993
-1.04396e-07
0.00249995
-7.87839e-08
0.00249996
-5.98991e-08
0.00249997
-4.5514e-08
0.00249998
-3.43394e-08
0.00249998
-2.5679e-08
0.00249999
-1.90688e-08
0.00249999
-1.4106e-08
0.00249999
-1.042e-08
0.0025
-7.69355e-09
0.0025
-5.67688e-09
0.0025
-4.18395e-09
0.0025
-3.07875e-09
0.0025
-2.26144e-09
0.0025
-1.65788e-09
0.0025
-1.21268e-09
0.0025
-8.84561e-10
0.0025
-6.42873e-10
0.0025
-4.64951e-10
0.0025
-3.34063e-10
0.0025
-2.37857e-10
0.0025
-1.67218e-10
0.0025
-1.15418e-10
0.0025
-7.74923e-11
0.0025
-4.97813e-11
0.0025
-2.9588e-11
0.0025
-1.49238e-11
0.0025
-4.32534e-12
0.0025
3.28669e-12
0.0025
8.70521e-12
0.0025
1.25156e-11
0.0025
1.51467e-11
0.0025
1.69161e-11
0.0025
1.80549e-11
0.0025
1.87357e-11
0.0025
1.90826e-11
0.0025
1.91895e-11
0.0025
1.91229e-11
0.0025
1.89339e-11
0.0025
1.86575e-11
0.0025
1.83221e-11
0.0025
1.79456e-11
0.0025
1.7544e-11
0.0025
1.7126e-11
0.0025
1.67009e-11
0.0025
1.62724e-11
0.0025
1.58464e-11
0.0025
1.54239e-11
0.0025
1.50087e-11
0.0025
1.46003e-11
0.0025
1.42016e-11
0.0025
1.38112e-11
0.0025
1.34316e-11
0.0025
1.30609e-11
0.0025
1.27011e-11
0.0025
1.23502e-11
0.0025
1.201e-11
0.0025
1.16784e-11
0.0025
1.13572e-11
0.0025
1.10441e-11
0.0025
1.07408e-11
0.0025
1.0445e-11
0.0025
1.01585e-11
0.0025
9.87902e-12
0.0025
9.6082e-12
0.0025
9.34382e-12
0.0025
9.08758e-12
0.0025
8.83724e-12
0.0025
8.5945e-12
0.0025
8.35716e-12
0.0025
8.12693e-12
0.0025
7.90164e-12
0.0025
7.68298e-12
0.0025
7.46886e-12
0.0025
7.26095e-12
0.0025
7.05718e-12
0.0025
6.85924e-12
0.0025
6.66511e-12
0.0025
6.47645e-12
0.0025
6.2913e-12
0.0025
6.11129e-12
0.0025
5.93451e-12
0.0025
5.7626e-12
0.0025
5.59368e-12
0.0025
5.42935e-12
0.0025
5.2678e-12
0.0025
5.11062e-12
0.0025
4.956e-12
0.0025
4.80554e-12
0.0025
4.65746e-12
0.0025
4.51335e-12
0.0025
4.37146e-12
0.0025
4.23336e-12
0.0025
4.09734e-12
0.0025
3.96496e-12
0.0025
3.83451e-12
0.0025
3.70756e-12
0.0025
3.58242e-12
0.0025
3.46068e-12
0.0025
3.34063e-12
0.0025
3.22398e-12
0.0025
3.10874e-12
0.0025
2.99733e-12
0.0025
2.88629e-12
0.0025
2.78129e-12
0.0025
2.67223e-12
0.0025
2.57976e-12
0.0025
2.46163e-12
0.0025
2.40942e-12
0.0025
2.22931e-12
0.0025
2.33734e-12
1.90411e-12
0.00250248
-1.31267e-05
0.00250997
-3.95672e-05
0.00252295
-6.77859e-05
0.00254213
-9.85007e-05
0.0025684
-0.000131932
0.00260252
-0.00016701
0.00264486
-0.000201431
0.00269453
-0.000229895
0.00274919
-0.000246529
0.00280387
-0.000243095
0.00285219
-0.000214865
0.00288983
-0.000167567
0.00291337
-0.000105436
0.00292025
-3.31291e-05
0.00291
4.07664e-05
0.00288454
0.000107148
0.0028478
0.000158207
0.00280458
0.000190155
0.00275937
0.000203482
0.00271559
0.000201565
0.0026755
0.00018883
0.00264029
0.000169369
0.00261042
0.000146228
0.00258594
0.000121437
0.00256664
9.65568e-05
0.00255204
7.32175e-05
0.00254141
5.32102e-05
0.00253376
3.80258e-05
0.00252805
2.82058e-05
0.00252338
2.30416e-05
0.00251917
2.08894e-05
0.00251519
1.99042e-05
0.00251146
1.87314e-05
0.00250812
1.67993e-05
0.00250532
1.41806e-05
0.0025031
1.12471e-05
0.00250148
8.37302e-06
0.0025004
5.8064e-06
0.00249976
3.67331e-06
0.00249946
2.02343e-06
0.0024994
8.56933e-07
0.00249946
1.29092e-07
0.00249958
-2.45583e-07
0.00249969
-3.75795e-07
0.00249978
-3.67413e-07
0.00249985
-3.02012e-07
0.00249989
-2.28661e-07
0.00249992
-1.68361e-07
0.00249994
-1.2468e-07
0.00249995
-9.39476e-08
0.00249997
-7.15846e-08
0.00249997
-5.44965e-08
0.00249998
-4.11156e-08
0.00249999
-3.06964e-08
0.00249999
-2.27468e-08
0.00249999
-1.67994e-08
0.00249999
-1.23998e-08
0.0025
-9.15435e-09
0.0025
-6.75631e-09
0.0025
-4.98103e-09
0.0025
-3.66653e-09
0.0025
-2.69442e-09
0.0025
-1.9767e-09
0.0025
-1.44745e-09
0.0025
-1.05745e-09
0.0025
-7.70191e-10
0.0025
-5.58712e-10
0.0025
-4.0312e-10
0.0025
-2.88736e-10
0.0025
-2.04729e-10
0.0025
-1.43102e-10
0.0025
-9.79575e-11
0.0025
-6.49459e-11
0.0025
-4.08631e-11
0.0025
-2.33465e-11
0.0025
-1.06576e-11
0.0025
-1.51444e-12
0.0025
5.02484e-12
0.0025
9.65553e-12
0.0025
1.28868e-11
0.0025
1.50955e-11
0.0025
1.65562e-11
0.0025
1.74733e-11
0.0025
1.79942e-11
0.0025
1.823e-11
0.0025
1.82593e-11
0.0025
1.81427e-11
0.0025
1.79216e-11
0.0025
1.76292e-11
0.0025
1.72867e-11
0.0025
1.6913e-11
0.0025
1.65182e-11
0.0025
1.61133e-11
0.0025
1.57027e-11
0.0025
1.52929e-11
0.0025
1.48853e-11
0.0025
1.44843e-11
0.0025
1.40893e-11
0.0025
1.37037e-11
0.0025
1.33259e-11
0.0025
1.29586e-11
0.0025
1.25998e-11
0.0025
1.22517e-11
0.0025
1.19123e-11
0.0025
1.15833e-11
0.0025
1.12627e-11
0.0025
1.09523e-11
0.0025
1.06496e-11
0.0025
1.03566e-11
0.0025
1.00709e-11
0.0025
9.79425e-12
0.0025
9.52435e-12
0.0025
9.26294e-12
0.0025
9.00773e-12
0.0025
8.76047e-12
0.0025
8.51888e-12
0.0025
8.28471e-12
0.0025
8.05573e-12
0.0025
7.83367e-12
0.0025
7.61637e-12
0.0025
7.40551e-12
0.0025
7.19901e-12
0.0025
6.99854e-12
0.0025
6.80207e-12
0.0025
6.61124e-12
0.0025
6.42408e-12
0.0025
6.24221e-12
0.0025
6.06372e-12
0.0025
5.89021e-12
0.0025
5.71982e-12
0.0025
5.55413e-12
0.0025
5.39132e-12
0.0025
5.23295e-12
0.0025
5.07727e-12
0.0025
4.92579e-12
0.0025
4.77681e-12
0.0025
4.63181e-12
0.0025
4.48916e-12
0.0025
4.35029e-12
0.0025
4.21361e-12
0.0025
4.08056e-12
0.0025
3.94957e-12
0.0025
3.82205e-12
0.0025
3.69646e-12
0.0025
3.57421e-12
0.0025
3.45377e-12
0.0025
3.33658e-12
0.0025
3.22109e-12
0.0025
3.1089e-12
0.0025
2.99811e-12
0.0025
2.8911e-12
0.0025
2.78442e-12
0.0025
2.68382e-12
0.0025
2.57909e-12
0.0025
2.49066e-12
0.0025
2.37809e-12
0.0025
2.32466e-12
0.0025
2.16234e-12
0.0025
2.22928e-12
1.87224e-12
0.00250233
-1.54603e-05
0.00250941
-4.66462e-05
0.00252181
-8.01806e-05
0.00254041
-0.000117107
0.00256639
-0.000157905
0.00260091
-0.000201531
0.00264485
-0.000245372
0.00269766
-0.000282709
0.00275716
-0.000306021
0.00281736
-0.000303302
0.00287045
-0.000267957
0.00291177
-0.000208883
0.00293757
-0.000131234
0.00294471
-4.02696e-05
0.00293257
5.29042e-05
0.0029034
0.000136322
0.00286198
0.000199622
0.00281408
0.000238054
0.00276489
0.000252678
0.00271817
0.000248282
0.00267618
0.000230816
0.00263994
0.000205608
0.00260967
0.000176502
0.00258515
0.000145956
0.00256595
0.000115754
0.00255147
8.77042e-05
0.00254088
6.37992e-05
0.0025332
4.57001e-05
0.00252743
3.39831e-05
0.00252269
2.77815e-05
0.00251843
2.51469e-05
0.00251443
2.39029e-05
0.00251071
2.24513e-05
0.0025074
2.01116e-05
0.00250462
1.69588e-05
0.00250245
1.34209e-05
0.00250088
9.93704e-06
0.00249988
6.8097e-06
0.00249935
4.20636e-06
0.00249917
2.2044e-06
0.00249921
8.13381e-07
0.00249936
-2.35573e-08
0.00249954
-4.2156e-07
0.00249969
-5.25998e-07
0.0024998
-4.74854e-07
0.00249986
-3.70245e-07
0.0024999
-2.69518e-07
0.00249993
-1.93443e-07
0.00249995
-1.41741e-07
0.00249996
-1.06854e-07
0.00249997
-8.17781e-08
0.00249998
-6.24368e-08
0.00249998
-4.70906e-08
0.00249999
-3.50651e-08
0.00249999
-2.59031e-08
0.00249999
-1.90873e-08
0.0025
-1.40747e-08
0.0025
-1.039e-08
0.0025
-7.67017e-09
0.0025
-5.65598e-09
0.0025
-4.16391e-09
0.0025
-3.06049e-09
0.0025
-2.24611e-09
0.0025
-1.64584e-09
0.0025
-1.20365e-09
0.0025
-8.77981e-10
0.0025
-6.38227e-10
0.0025
-4.61822e-10
0.0025
-3.3213e-10
0.0025
-2.36869e-10
0.0025
-1.66972e-10
0.0025
-1.15754e-10
0.0025
-7.82832e-11
0.0025
-5.09275e-11
0.0025
-3.10101e-11
0.0025
-1.65603e-11
0.0025
-6.12583e-12
0.0025
1.36092e-12
0.0025
6.68685e-12
0.0025
1.04294e-11
0.0025
1.30148e-11
0.0025
1.47544e-11
0.0025
1.58788e-11
0.0025
1.65554e-11
0.0025
1.69091e-11
0.0025
1.70293e-11
0.0025
1.69838e-11
0.0025
1.68197e-11
0.0025
1.65741e-11
0.0025
1.62712e-11
0.0025
1.59316e-11
0.0025
1.55674e-11
0.0025
1.51901e-11
0.0025
1.48052e-11
0.0025
1.44196e-11
0.0025
1.40352e-11
0.0025
1.36562e-11
0.0025
1.32829e-11
0.0025
1.2918e-11
0.0025
1.25606e-11
0.0025
1.2213e-11
0.0025
1.18737e-11
0.0025
1.15445e-11
0.0025
1.12236e-11
0.0025
1.09127e-11
0.0025
1.06098e-11
0.0025
1.03166e-11
0.0025
1.00308e-11
0.0025
9.75422e-12
0.0025
9.48462e-12
0.0025
9.2236e-12
0.0025
8.96904e-12
0.0025
8.7225e-12
0.0025
8.4819e-12
0.0025
8.24878e-12
0.0025
8.0211e-12
0.0025
7.8004e-12
0.0025
7.58465e-12
0.0025
7.37542e-12
0.0025
7.17071e-12
0.0025
6.97209e-12
0.0025
6.77759e-12
0.0025
6.58879e-12
0.0025
6.40376e-12
0.0025
6.22405e-12
0.0025
6.04781e-12
0.0025
5.87658e-12
0.0025
5.70852e-12
0.0025
5.54517e-12
0.0025
5.38474e-12
0.0025
5.22877e-12
0.0025
5.0755e-12
0.0025
4.92644e-12
0.0025
4.77988e-12
0.0025
4.63731e-12
0.0025
4.49707e-12
0.0025
4.36063e-12
0.0025
4.22635e-12
0.0025
4.0957e-12
0.0025
3.96707e-12
0.0025
3.84191e-12
0.0025
3.71865e-12
0.0025
3.59873e-12
0.0025
3.48058e-12
0.0025
3.36565e-12
0.0025
3.2524e-12
0.0025
3.14229e-12
0.0025
3.03374e-12
0.0025
2.92842e-12
0.0025
2.82438e-12
0.0025
2.72406e-12
0.0025
2.62396e-12
0.0025
2.52985e-12
0.0025
2.43173e-12
0.0025
2.3489e-12
0.0025
2.24461e-12
0.0025
2.19083e-12
0.0025
2.04869e-12
0.0025
2.08213e-12
1.79461e-12
0.00250214
-1.76043e-05
0.00250867
-5.31767e-05
0.00252026
-9.17707e-05
0.00253802
-0.00013486
0.00256343
-0.000183318
0.00259821
-0.000236316
0.00264392
-0.000291081
0.00270057
-0.000339352
0.00276627
-0.00037173
0.00283362
-0.000370651
0.00289274
-0.00032707
0.00293869
-0.000254832
0.00296735
-0.000159895
0.0029748
-4.77259e-05
0.00296019
6.75138e-05
0.00292623
0.000170286
0.00287886
0.000246989
0.0028251
0.000291821
0.002771
0.000306771
0.00272074
0.000298544
0.00267655
0.000275011
0.00263918
0.00024297
0.00260853
0.000207151
0.00258406
0.000170432
0.00256506
0.000134754
0.00255075
0.000102013
0.00254024
7.43091e-05
0.00253254
5.33979e-05
0.00252668
3.98443e-05
0.00252185
3.26132e-05
0.00251753
2.94673e-05
0.00251351
2.79249e-05
0.00250979
2.61636e-05
0.00250651
2.34001e-05
0.00250376
1.97039e-05
0.00250163
1.55478e-05
0.00250014
1.14296e-05
0.00249924
7.70941e-06
0.00249884
4.60724e-06
0.00249881
2.2401e-06
0.00249899
6.32669e-07
0.00249925
-2.87058e-07
0.0024995
-6.73179e-07
0.00249969
-7.18056e-07
0.00249982
-5.9878e-07
0.00249989
-4.4009e-07
0.00249992
-3.05825e-07
0.00249994
-2.131e-07
0.00249996
-1.54659e-07
0.00249997
-1.17132e-07
0.00249997
-9.03656e-08
0.00249998
-6.92858e-08
0.00249999
-5.22069e-08
0.00249999
-3.87154e-08
0.00249999
-2.84717e-08
0.00249999
-2.09178e-08
0.0025
-1.54079e-08
0.0025
-1.13754e-08
0.0025
-8.40078e-09
0.0025
-6.19574e-09
0.0025
-4.56094e-09
0.0025
-3.352e-09
0.0025
-2.4603e-09
0.0025
-1.80348e-09
0.0025
-1.31982e-09
0.0025
-9.63678e-10
0.0025
-7.01494e-10
0.0025
-5.08589e-10
0.0025
-3.66768e-10
0.0025
-2.62599e-10
0.0025
-1.86164e-10
0.0025
-1.30147e-10
0.0025
-8.91553e-11
0.0025
-5.92178e-11
0.0025
-3.74074e-11
0.0025
-2.157e-11
0.0025
-1.01182e-11
0.0025
-1.88497e-12
0.0025
3.98962e-12
0.0025
8.13628e-12
0.0025
1.10205e-11
0.0025
1.29824e-11
0.0025
1.42736e-11
0.0025
1.50768e-11
0.0025
1.55281e-11
0.0025
1.57249e-11
0.0025
1.57409e-11
0.0025
1.56276e-11
0.0025
1.54249e-11
0.0025
1.51595e-11
0.0025
1.48534e-11
0.0025
1.45198e-11
0.0025
1.4171e-11
0.0025
1.38132e-11
0.0025
1.34534e-11
0.0025
1.30939e-11
0.0025
1.27391e-11
0.0025
1.23893e-11
0.0025
1.20474e-11
0.0025
1.17125e-11
0.0025
1.13869e-11
0.0025
1.10691e-11
0.0025
1.07609e-11
0.0025
1.04606e-11
0.0025
1.01698e-11
0.0025
9.88658e-12
0.0025
9.61247e-12
0.0025
9.34551e-12
0.0025
9.08716e-12
0.0025
8.83543e-12
0.0025
8.59179e-12
0.0025
8.35425e-12
0.0025
8.12425e-12
0.0025
7.89983e-12
0.0025
7.68245e-12
0.0025
7.47016e-12
0.0025
7.26442e-12
0.0025
7.06333e-12
0.0025
6.86834e-12
0.0025
6.6776e-12
0.0025
6.49253e-12
0.0025
6.31134e-12
0.0025
6.13544e-12
0.0025
5.9631e-12
0.0025
5.79571e-12
0.0025
5.63158e-12
0.0025
5.4721e-12
0.0025
5.3156e-12
0.0025
5.16348e-12
0.0025
5.01411e-12
0.0025
4.86886e-12
0.0025
4.72616e-12
0.0025
4.58737e-12
0.0025
4.45093e-12
0.0025
4.31819e-12
0.0025
4.18765e-12
0.0025
4.06063e-12
0.0025
3.93565e-12
0.0025
3.81404e-12
0.0025
3.69434e-12
0.0025
3.57786e-12
0.0025
3.46319e-12
0.0025
3.35161e-12
0.0025
3.24172e-12
0.0025
3.13482e-12
0.0025
3.02954e-12
0.0025
2.92719e-12
0.0025
2.82634e-12
0.0025
2.72853e-12
0.0025
2.63196e-12
0.0025
2.53893e-12
0.0025
2.44613e-12
0.0025
2.35896e-12
0.0025
2.26822e-12
0.0025
2.19123e-12
0.0025
2.09607e-12
0.0025
2.04262e-12
0.0025
1.91957e-12
0.0025
1.92899e-12
1.6977e-12
0.0025019
-1.95025e-05
0.00250771
-5.8992e-05
0.00251822
-0.000102281
0.00253476
-0.000151396
0.00255921
-0.000207768
0.00259397
-0.000271074
0.00264148
-0.000338598
0.00270265
-0.000400521
0.00277626
-0.000445333
0.00285271
-0.000447108
0.00291927
-0.000393628
0.00297099
-0.000306546
0.00300338
-0.000192288
0.00301138
-5.57238e-05
0.00299364
8.52496e-05
0.00295346
0.000210467
0.00289841
0.00030204
0.00283722
0.000353008
0.00277713
0.000366869
0.00272269
0.000352978
0.00267604
0.000321658
0.00263757
0.000281448
0.00260668
0.000238038
0.00258243
0.000194682
0.0025638
0.000153385
0.0025498
0.000116015
0.00253944
8.46652e-05
0.00253175
6.10899e-05
0.0025258
4.57891e-05
0.00252087
3.75473e-05
0.00251648
3.386e-05
0.00251243
3.19734e-05
0.00250872
2.98678e-05
0.00250546
2.66638e-05
0.00250275
2.24156e-05
0.00250067
1.76254e-05
0.00249926
1.28407e-05
0.00249848
8.4846e-06
0.00249825
4.84515e-06
0.00249839
2.09539e-06
0.00249874
2.82733e-07
0.00249914
-6.84618e-07
0.00249948
-1.01274e-06
0.00249971
-9.55003e-07
0.00249985
-7.36613e-07
0.00249992
-5.07035e-07
0.00249995
-3.33575e-07
0.00249996
-2.24772e-07
0.00249997
-1.62211e-07
0.00249997
-1.24375e-07
0.00249998
-9.72653e-08
0.00249999
-7.50136e-08
0.00249999
-5.64016e-08
0.00249999
-4.15608e-08
0.00249999
-3.03713e-08
0.0025
-2.22306e-08
0.0025
-1.63601e-08
0.0025
-1.20856e-08
0.0025
-8.9315e-09
0.0025
-6.58817e-09
0.0025
-4.8484e-09
0.0025
-3.562e-09
0.0025
-2.61408e-09
0.0025
-1.91653e-09
0.0025
-1.40315e-09
0.0025
-1.02519e-09
0.0025
-7.46944e-10
0.0025
-5.4223e-10
0.0025
-3.91743e-10
0.0025
-2.81222e-10
0.0025
-2.00132e-10
0.0025
-1.40705e-10
0.0025
-9.7216e-11
0.0025
-6.54501e-11
0.0025
-4.23017e-11
0.0025
-2.54849e-11
0.0025
-1.33159e-11
0.0025
-4.55689e-12
0.0025
1.70408e-12
0.0025
6.13588e-12
0.0025
9.23168e-12
0.0025
1.13522e-11
0.0025
1.27634e-11
0.0025
1.36593e-11
0.0025
1.41832e-11
0.0025
1.44388e-11
0.0025
1.45034e-11
0.0025
1.44316e-11
0.0025
1.42653e-11
0.0025
1.40329e-11
0.0025
1.3757e-11
0.0025
1.34521e-11
0.0025
1.31304e-11
0.0025
1.27988e-11
0.0025
1.24644e-11
0.0025
1.21298e-11
0.0025
1.17992e-11
0.0025
1.14733e-11
0.0025
1.11547e-11
0.0025
1.08428e-11
0.0025
1.05395e-11
0.0025
1.02438e-11
0.0025
9.95709e-12
0.0025
9.67796e-12
0.0025
9.4077e-12
0.0025
9.14474e-12
0.0025
8.89025e-12
0.0025
8.64261e-12
0.0025
8.40297e-12
0.0025
8.16966e-12
0.0025
7.94382e-12
0.0025
7.72379e-12
0.0025
7.51073e-12
0.0025
7.30297e-12
0.0025
7.1017e-12
0.0025
6.90527e-12
0.0025
6.71486e-12
0.0025
6.52885e-12
0.0025
6.34845e-12
0.0025
6.17205e-12
0.0025
6.00088e-12
0.0025
5.83335e-12
0.0025
5.67069e-12
0.0025
5.51137e-12
0.0025
5.35661e-12
0.0025
5.2049e-12
0.0025
5.05747e-12
0.0025
4.91283e-12
0.0025
4.77221e-12
0.0025
4.63417e-12
0.0025
4.49993e-12
0.0025
4.36806e-12
0.0025
4.2398e-12
0.0025
4.11372e-12
0.0025
3.99107e-12
0.0025
3.87045e-12
0.0025
3.75309e-12
0.0025
3.63763e-12
0.0025
3.52529e-12
0.0025
3.41472e-12
0.0025
3.30715e-12
0.0025
3.20125e-12
0.0025
3.09823e-12
0.0025
2.99678e-12
0.0025
2.89813e-12
0.0025
2.80097e-12
0.0025
2.70659e-12
0.0025
2.6136e-12
0.0025
2.52348e-12
0.0025
2.43452e-12
0.0025
2.34894e-12
0.0025
2.2636e-12
0.0025
2.18348e-12
0.0025
2.1003e-12
0.0025
2.0292e-12
0.0025
1.94317e-12
0.0025
1.89098e-12
0.0025
1.78496e-12
0.0025
1.77859e-12
1.59139e-12
0.00250159
-2.10897e-05
0.00250649
-6.38954e-05
0.00251558
-0.000111375
0.00253043
-0.000166243
0.00255335
-0.000230686
0.00258757
-0.000305299
0.00263673
-0.000387755
0.00270312
-0.000466907
0.0027867
-0.000528919
0.00287469
-0.000535097
0.00295027
-0.0004692
0.00300893
-0.000365209
0.00304592
-0.00022928
0.00305458
-6.4387e-05
0.00303294
0.000106893
0.002985
0.000258409
0.00292045
0.000366584
0.00285025
0.000423215
0.00278303
0.000434087
0.00272382
0.00041219
0.00267452
0.000370956
0.00263499
0.000320981
0.00260405
0.000268973
0.00258025
0.000218485
0.00256218
0.000171453
0.00254862
0.000129574
0.00253849
9.47939e-05
0.00253083
6.87557e-05
0.00252479
5.18282e-05
0.00251973
4.26033e-05
0.00251525
3.83381e-05
0.00251117
3.60522e-05
0.00250748
3.3562e-05
0.00250424
2.99008e-05
0.00250156
2.50938e-05
0.00249954
1.96514e-05
0.00249822
1.41596e-05
0.00249759
9.11113e-06
0.00249755
4.88371e-06
0.00249792
1.72872e-06
0.00249848
-2.73678e-07
0.00249904
-1.24196e-06
0.00249947
-1.45225e-06
0.00249976
-1.23772e-06
0.0024999
-8.83077e-07
0.00249996
-5.64358e-07
0.00249997
-3.47472e-07
0.00249998
-2.25446e-07
0.00249998
-1.63227e-07
0.00249998
-1.284e-07
0.00249999
-1.02597e-07
0.00249999
-7.97071e-08
0.00249999
-5.96582e-08
0.0025
-4.35277e-08
0.0025
-3.15259e-08
0.0025
-2.2972e-08
0.0025
-1.69005e-08
0.0025
-1.25038e-08
0.0025
-9.25168e-09
0.0025
-6.82519e-09
0.0025
-5.01974e-09
0.0025
-3.68531e-09
0.0025
-2.7036e-09
0.0025
-1.9822e-09
0.0025
-1.45163e-09
0.0025
-1.06104e-09
0.0025
-7.73478e-10
0.0025
-5.61926e-10
0.0025
-4.06442e-10
0.0025
-2.92277e-10
0.0025
-2.08531e-10
0.0025
-1.47167e-10
0.0025
-1.02267e-10
0.0025
-6.94715e-11
0.0025
-4.55734e-11
0.0025
-2.82105e-11
0.0025
-1.56431e-11
0.0025
-6.59273e-12
0.0025
-1.17618e-13
0.0025
4.47273e-12
0.0025
7.68721e-12
0.0025
9.89799e-12
0.0025
1.13794e-11
0.0025
1.23312e-11
0.0025
1.29012e-11
0.0025
1.3196e-11
0.0025
1.32949e-11
0.0025
1.32544e-11
0.0025
1.3117e-11
0.0025
1.29121e-11
0.0025
1.26627e-11
0.0025
1.23835e-11
0.0025
1.20871e-11
0.0025
1.17804e-11
0.0025
1.14704e-11
0.0025
1.11601e-11
0.0025
1.08534e-11
0.0025
1.05511e-11
0.0025
1.02557e-11
0.0025
9.96674e-12
0.0025
9.68593e-12
0.0025
9.41235e-12
0.0025
9.14724e-12
0.0025
8.88938e-12
0.0025
8.63985e-12
0.0025
8.39726e-12
0.0025
8.16258e-12
0.0025
7.93439e-12
0.0025
7.71363e-12
0.0025
7.49886e-12
0.0025
7.29101e-12
0.0025
7.08862e-12
0.0025
6.89268e-12
0.0025
6.70171e-12
0.0025
6.51671e-12
0.0025
6.33624e-12
0.0025
6.16131e-12
0.0025
5.99049e-12
0.0025
5.82481e-12
0.0025
5.66287e-12
0.0025
5.5057e-12
0.0025
5.35194e-12
0.0025
5.20264e-12
0.0025
5.05644e-12
0.0025
4.9144e-12
0.0025
4.77521e-12
0.0025
4.63991e-12
0.0025
4.50722e-12
0.0025
4.3782e-12
0.0025
4.25158e-12
0.0025
4.12842e-12
0.0025
4.00747e-12
0.0025
3.88979e-12
0.0025
3.77417e-12
0.0025
3.66165e-12
0.0025
3.55105e-12
0.0025
3.44341e-12
0.0025
3.33754e-12
0.0025
3.23451e-12
0.0025
3.13316e-12
0.0025
3.03453e-12
0.0025
2.93747e-12
0.0025
2.84304e-12
0.0025
2.75011e-12
0.0025
2.65973e-12
0.0025
2.57079e-12
0.0025