/*--------------------------------*- C++ -*----------------------------------*\
  =========                 |
  \\      /  F ield         | OpenFOAM: The Open Source CFD Toolbox
   \\    /   O peration     | Website:  https://openfoam.org
    \\  /    A nd           | Version:  11
     \\/     M anipulation  |
\*---------------------------------------------------------------------------*/
FoamFile
{
    format      ascii;
    class       volVectorField;
    location    "1.404531";
    object      U;
}
// * * * * * * * * * * * * * * * * * * * * * * * * * * * * * * * * * * * * * //

dimensions      [0 1 -1 0 0 0 0];

internalField   nonuniform List<vector> 
7132
(
(1.00014 -0.000272569 2.2854e-18)
(1.00211 -0.000819583 7.67133e-18)
(1.00657 -0.00139382 8.1639e-18)
(1.01331 -0.00200232 9.53787e-18)
(1.02256 -0.00264213 1.23635e-17)
(1.03444 -0.00328518 1.29801e-17)
(1.04887 -0.00388168 1.24159e-17)
(1.06554 -0.00434128 1.16397e-17)
(1.0837 -0.00456533 1.10991e-17)
(1.10221 -0.00444972 1.07424e-17)
(1.11947 -0.00393153 1.03232e-17)
(1.13386 -0.00307035 1.02512e-17)
(1.14418 -0.00194359 9.97877e-18)
(1.14952 -0.000647911 1.06101e-17)
(1.14943 0.000673573 3.45234e-18)
(1.14414 0.00187303 -4.49733e-18)
(1.13442 0.00282491 -1.22327e-17)
(1.12149 0.00345983 -1.0902e-17)
(1.10669 0.00377263 -1.38333e-17)
(1.09128 0.0038068 -1.70736e-17)
(1.07623 0.00362905 -1.61594e-17)
(1.06226 0.00330621 -1.48051e-17)
(1.04982 0.00289173 -1.29639e-17)
(1.03916 0.00242495 -1.03535e-17)
(1.03045 0.00193993 -5.76522e-18)
(1.02366 0.00147436 -3.70379e-18)
(1.01866 0.00106969 -1.89223e-18)
(1.0151 0.00076047 -7.83779e-19)
(1.01257 0.000560436 -1.42141e-20)
(1.01062 0.00045629 7.37768e-19)
(1.00892 0.000414463 2.62488e-19)
(1.00731 0.000396682 -1.52535e-18)
(1.00575 0.000374702 -3.31975e-18)
(1.00431 0.000336684 -3.66302e-18)
(1.00305 0.000284422 -3.64576e-18)
(1.00202 0.000226007 -2.75022e-18)
(1.00123 0.000169379 -2.00996e-18)
(1.00066 0.000119454 -7.77372e-19)
(1.00027 7.82657e-05 1.13108e-18)
(1.00003 4.61982e-05 2.14645e-18)
(0.999896 2.28778e-05 2.75121e-18)
(0.999842 7.43209e-06 2.17657e-18)
(0.999835 -1.49784e-06 1.59591e-18)
(0.999853 -5.62307e-06 1.69013e-18)
(0.999879 -6.69575e-06 1.31023e-18)
(0.999905 -6.18358e-06 1.10155e-18)
(0.999928 -5.09095e-06 2.7321e-19)
(0.999946 -3.96492e-06 -1.65728e-19)
(0.999959 -3.02019e-06 3.83078e-19)
(0.999969 -2.28918e-06 7.74055e-20)
(0.999977 -1.7354e-06 -1.1797e-18)
(0.999983 -1.31353e-06 -1.53051e-18)
(0.999987 -9.89472e-07 -9.51116e-19)
(0.999991 -7.4061e-07 -8.17195e-19)
(0.999993 -5.51092e-07 -6.84235e-19)
(0.999995 -4.08351e-07 -1.21231e-18)
(0.999996 -3.01808e-07 -1.39221e-18)
(0.999997 -2.22704e-07 -7.6125e-19)
(0.999998 -1.641e-07 -6.04258e-19)
(0.999999 -1.20716e-07 -4.60469e-19)
(0.999999 -8.86166e-08 -1.01458e-18)
(0.999999 -6.48875e-08 -1.1267e-18)
(1 -4.73661e-08 -9.39028e-19)
(1 -3.44419e-08 -1.59563e-18)
(1 -2.49183e-08 -1.09181e-18)
(1 -1.79057e-08 -8.61556e-19)
(1 -1.27469e-08 -7.98268e-19)
(1 -8.95499e-09 -5.96506e-19)
(1 -6.17149e-09 -1.27909e-18)
(1 -4.13069e-09 -8.02498e-19)
(1 -2.63774e-09 -5.81521e-19)
(1 -1.54768e-09 -4.98352e-19)
(1 -7.54911e-10 -2.46932e-19)
(1 -1.80291e-10 -8.63092e-19)
(1 2.33169e-10 -3.2708e-19)
(1 5.28719e-10 -7.88313e-20)
(1 7.37039e-10 -1.58613e-20)
(1 8.81897e-10 1.69064e-19)
(1 9.7957e-10 -5.43758e-19)
(1 1.04325e-09 -1.11557e-19)
(1 1.08147e-09 4.63844e-20)
(1 1.10167e-09 4.5302e-20)
(1 1.10821e-09 1.96743e-19)
(1 1.10537e-09 -5.21006e-19)
(1 1.09529e-09 -7.17678e-20)
(1 1.08053e-09 1.14457e-19)
(1 1.06204e-09 1.39068e-19)
(1 1.04139e-09 3.00466e-19)
(1 1.01893e-09 -4.30039e-19)
(1 9.95673e-10 -1.60193e-20)
(1 9.71645e-10 1.45552e-19)
(1 9.47547e-10 3.29029e-20)
(1 9.23263e-10 7.62065e-19)
(1 8.99283e-10 3.22973e-19)
(1 8.75449e-10 2.34407e-19)
(1 8.52103e-10 2.77692e-19)
(1 8.29089e-10 1.22128e-19)
(1 8.06639e-10 8.23034e-19)
(1 7.84629e-10 3.5987e-19)
(1 7.63201e-10 2.50784e-19)
(1 7.42274e-10 2.77589e-19)
(1 7.21916e-10 1.0945e-19)
(1 7.02091e-10 8.0105e-19)
(1 6.828e-10 3.31157e-19)
(1 6.64059e-10 2.17392e-19)
(1 6.45802e-10 2.41143e-19)
(1 6.28103e-10 7.11416e-20)
(1 6.10835e-10 7.61721e-19)
(1 5.94122e-10 2.91732e-19)
(1 5.77786e-10 1.79472e-19)
(1 5.62003e-10 2.06819e-19)
(1 5.46541e-10 4.09006e-20)
(1 5.31627e-10 7.30602e-19)
(1 5.1698e-10 2.46132e-19)
(1 5.02875e-10 9.85826e-20)
(1 4.88986e-10 7.00672e-20)
(1 4.75635e-10 -1.58035e-19)
(1 4.6245e-10 4.76238e-19)
(1 4.49796e-10 2.462e-21)
(1 4.37262e-10 -2.39735e-19)
(1 4.25257e-10 3.6213e-19)
(1 4.13329e-10 4.66223e-19)
(1 4.01925e-10 5.89191e-19)
(1 3.90559e-10 2.0953e-20)
(1 3.79714e-10 -2.38182e-19)
(1 3.68872e-10 3.52726e-19)
(1 3.58548e-10 4.44259e-19)
(1 3.48192e-10 5.57246e-19)
(1 3.38354e-10 -1.57737e-20)
(1 3.28454e-10 -2.75144e-19)
(1 3.19071e-10 3.17864e-19)
(1 3.09598e-10 4.11875e-19)
(1 3.00641e-10 5.26768e-19)
(1 2.91569e-10 -4.50335e-20)
(1 2.83013e-10 -3.03626e-19)
(1 2.74318e-10 2.90072e-19)
(1 2.6614e-10 3.85164e-19)
(1 2.57801e-10 5.02086e-19)
(1 2.49977e-10 -6.66909e-20)
(1 2.41975e-10 -3.2281e-19)
(1 2.34488e-10 2.69043e-19)
(1 2.26805e-10 3.53092e-19)
(1 2.19635e-10 4.46912e-19)
(1 2.12255e-10 -1.54367e-19)
(1 2.05389e-10 -4.43205e-19)
(1 1.98297e-10 1.28177e-19)
(1 1.91718e-10 2.13519e-19)
(1 1.84899e-10 3.31588e-19)
(1 1.7859e-10 -2.30534e-19)
(1 1.72028e-10 -4.78374e-19)
(1 1.65987e-10 1.24279e-19)
(1 1.59661e-10 2.2587e-19)
(1 1.53925e-10 3.46853e-19)
(1 1.47749e-10 -2.20031e-19)
(1 1.42584e-10 -4.73873e-19)
(1 1.35964e-10 1.22923e-19)
(1 1.33228e-10 2.29964e-19)
(1 1.21911e-10 3.18475e-19)
(1 1.33755e-10 -9.44463e-20)
(1 9.84749e-11 -1.06132e-18)
(1.00014 -0.000815302 3.83663e-20)
(1.00209 -0.00245285 3.83255e-19)
(1.00652 -0.00417357 7.48744e-19)
(1.01323 -0.00600117 1.13671e-18)
(1.02247 -0.00792796 1.61227e-18)
(1.03437 -0.00987093 2.07429e-18)
(1.04889 -0.0116813 2.42557e-18)
(1.06575 -0.0130842 2.7508e-18)
(1.08421 -0.0137793 5.42527e-18)
(1.10309 -0.0134428 5.5062e-18)
(1.12073 -0.0118795 4.31829e-18)
(1.13543 -0.00927853 9.82197e-18)
(1.14597 -0.0058745 9.93927e-18)
(1.1514 -0.00195908 1.0054e-17)
(1.15126 0.00203049 9.07579e-18)
(1.14578 0.00564427 6.64694e-18)
(1.13577 0.00850252 3.95568e-18)
(1.12251 0.0103995 3.66599e-18)
(1.1074 0.0113249 5.88511e-18)
(1.09172 0.0114142 7.56312e-18)
(1.07649 0.0108709 5.28995e-18)
(1.0624 0.00989726 -1.13669e-18)
(1.04989 0.008654 -7.20763e-18)
(1.0392 0.00725816 -7.16217e-18)
(1.03047 0.00580977 5.89067e-19)
(1.02368 0.00441941 1.08748e-17)
(1.01866 0.0032095 1.58699e-17)
(1.0151 0.00228309 1.16615e-17)
(1.01257 0.0016822 1.23934e-18)
(1.01062 0.00136849 -7.41369e-18)
(1.00893 0.00124252 -1.0434e-17)
(1.00732 0.0011899 -9.52847e-18)
(1.00577 0.00112554 -5.22531e-18)
(1.00433 0.0010132 -2.8543e-18)
(1.00307 0.000857655 -2.7814e-18)
(1.00204 0.000682908 -3.08328e-18)
(1.00124 0.000512838 -4.54729e-18)
(1.00066 0.000362402 -3.7068e-18)
(1.00027 0.000237952 -1.77869e-18)
(1.00003 0.000140855 4.92117e-19)
(0.999897 7.01374e-05 2.44955e-18)
(0.999844 2.32556e-05 1.58675e-18)
(0.999838 -3.86572e-06 1.0486e-18)
(0.999857 -1.64085e-05 5.17881e-19)
(0.999884 -1.96979e-05 5.85557e-19)
(0.99991 -1.8197e-05 1.24839e-18)
(0.999932 -1.49549e-05 5.5454e-20)
(0.999948 -1.16237e-05 -2.90263e-19)
(0.999961 -8.84332e-06 -1.97451e-19)
(0.999971 -6.70229e-06 -8.44717e-19)
(0.999978 -5.08475e-06 -3.64097e-19)
(0.999984 -3.85264e-06 -2.74338e-19)
(0.999988 -2.90471e-06 -3.17079e-19)
(0.999991 -2.17538e-06 -2.1679e-19)
(0.999993 -1.61925e-06 -9.08317e-19)
(0.999995 -1.20013e-06 -4.31583e-19)
(0.999997 -8.8726e-07 -3.16156e-19)
(0.999997 -6.54956e-07 -3.22324e-19)
(0.999998 -4.82839e-07 -1.93578e-19)
(0.999999 -3.55393e-07 -8.76912e-19)
(0.999999 -2.61073e-07 -4.00958e-19)
(0.999999 -1.91332e-07 -3.31448e-19)
(1 -1.39824e-07 -1.87975e-19)
(1 -1.01826e-07 -8.22674e-19)
(1 -7.38201e-08 -6.46119e-19)
(1 -5.31955e-08 7.96466e-19)
(1 -3.80193e-08 -1.75883e-19)
(1 -2.68616e-08 -2.52866e-19)
(1 -1.8668e-08 -9.16503e-19)
(1 -1.26587e-08 -7.23118e-19)
(1 -8.25962e-09 7.55682e-19)
(1 -5.04575e-09 -1.61821e-19)
(1 -2.70543e-09 -1.67663e-19)
(1 -1.00717e-09 -7.55336e-19)
(1 2.17835e-10 -4.9959e-19)
(1 1.0958e-09 1.01052e-18)
(1 1.71775e-09 8.52111e-20)
(1 2.15254e-09 3.74423e-20)
(1 2.44917e-09 -6.11314e-19)
(1 2.64537e-09 -4.1822e-19)
(1 2.76726e-09 1.04108e-18)
(1 2.83567e-09 8.3183e-20)
(1 2.86441e-09 2.15747e-20)
(1 2.8651e-09 -6.25083e-19)
(1 2.84493e-09 -4.18852e-19)
(1 2.8105e-09 1.05776e-18)
(1 2.76542e-09 1.12212e-19)
(1 2.71354e-09 5.25787e-20)
(1 2.65656e-09 -6.14542e-19)
(1 2.59679e-09 -4.06244e-19)
(1 2.53493e-09 9.35898e-19)
(1 2.47242e-09 4.11864e-19)
(1 2.40949e-09 8.5416e-19)
(1 2.34704e-09 8.75276e-19)
(1 2.28508e-09 7.71492e-19)
(1 2.22417e-09 8.24082e-19)
(1 2.16423e-09 6.92679e-20)
(1 2.10562e-09 5.17635e-19)
(1 2.04825e-09 5.86842e-19)
(1 1.99231e-09 5.30611e-19)
(1 1.93773e-09 6.23135e-19)
(1 1.88459e-09 -9.92431e-20)
(1 1.83287e-09 3.75213e-19)
(1 1.78252e-09 4.65346e-19)
(1 1.7336e-09 4.25989e-19)
(1 1.68598e-09 5.32252e-19)
(1 1.63976e-09 -1.78932e-19)
(1 1.59473e-09 3.0457e-19)
(1 1.55108e-09 4.02253e-19)
(1 1.5085e-09 3.70231e-19)
(1 1.46725e-09 4.84975e-19)
(1 1.42697e-09 -2.16979e-19)
(1 1.38797e-09 2.72252e-19)
(1 1.34983e-09 3.64032e-19)
(1 1.31293e-09 3.06413e-19)
(1 1.27678e-09 3.73911e-19)
(1 1.24182e-09 -3.85673e-19)
(1 1.20752e-09 4.77444e-20)
(1 1.17437e-09 1.4149e-19)
(1 1.14177e-09 -1.29195e-20)
(1 1.1103e-09 6.5966e-19)
(1 1.0793e-09 1.92686e-19)
(1 1.04938e-09 1.09047e-19)
(1 1.01985e-09 1.18364e-19)
(1 9.91378e-10 -3.94406e-20)
(1 9.63223e-10 6.3411e-19)
(1 9.36097e-10 1.63412e-19)
(1 9.09222e-10 7.57241e-20)
(1 8.83354e-10 8.40614e-20)
(1 8.57676e-10 -7.15335e-20)
(1 8.32984e-10 6.0574e-19)
(1 8.08428e-10 1.38609e-19)
(1 7.84838e-10 5.35191e-20)
(1 7.61334e-10 6.34483e-20)
(1 7.38781e-10 -9.12505e-20)
(1 7.16269e-10 5.86615e-19)
(1 6.94692e-10 1.20257e-19)
(1 6.73115e-10 3.66719e-20)
(1 6.52458e-10 4.8947e-20)
(1 6.31763e-10 -1.03871e-19)
(1 6.11977e-10 5.72095e-19)
(1 5.92118e-10 9.56684e-20)
(1 5.73156e-10 -8.84021e-21)
(1 5.54093e-10 -2.61346e-20)
(1 5.35914e-10 -2.0906e-19)
(1 5.17606e-10 4.47471e-19)
(1 5.00174e-10 -2.89727e-20)
(1 4.82583e-10 -1.12712e-19)
(1 4.65863e-10 -9.54334e-20)
(1 4.48948e-10 -2.41648e-19)
(1 4.32938e-10 4.43221e-19)
(1 4.16627e-10 -1.82357e-20)
(1 4.01441e-10 -9.90251e-20)
(1 3.85468e-10 -8.58375e-20)
(1 3.71863e-10 -2.37435e-19)
(1 3.54576e-10 4.42226e-19)
(1 3.47459e-10 -1.48335e-20)
(1 3.18278e-10 -1.23269e-19)
(1 3.47097e-10 2.34456e-20)
(1 2.61908e-10 -7.62148e-19)
(1.00013 -0.00135137 5.16352e-22)
(1.00206 -0.00406767 5.19551e-21)
(1.00642 -0.00692902 1.96361e-21)
(1.01306 -0.00998108 1.16801e-21)
(1.02226 -0.0132163 -8.85173e-20)
(1.0342 -0.0165007 1.4878e-20)
(1.04891 -0.0195885 -3.73215e-19)
(1.06615 -0.0220086 -1.01099e-18)
(1.08519 -0.0232456 1.45792e-18)
(1.10484 -0.0227194 1.36337e-18)
(1.12324 -0.0200814 -6.23458e-18)
(1.13856 -0.0156822 -9.20169e-18)
(1.14953 -0.00991838 -1.19861e-18)
(1.15515 -0.00327408 8.29675e-18)
(1.1549 0.00350288 1.10174e-17)
(1.14901 0.00963679 5.34497e-18)
(1.13839 0.0144687 -2.81637e-18)
(1.12445 0.0176461 -1.41516e-18)
(1.1087 0.0191598 1.45319e-17)
(1.0925 0.0192535 3.12113e-17)
(1.07689 0.0182846 2.49958e-17)
(1.06255 0.016604 -1.03516e-17)
(1.04991 0.0144873 -4.71485e-17)
(1.03917 0.0121316 -4.28212e-17)
(1.03042 0.00970144 1.71701e-17)
(1.02363 0.00737647 9.55587e-17)
(1.01862 0.00535604 1.29101e-16)
(1.01505 0.00380872 8.44157e-17)
(1.01251 0.00280355 -1.06991e-17)
(1.01056 0.00227719 -9.15807e-17)
(1.00886 0.00206501 -1.11287e-16)
(1.00726 0.00197703 -7.30227e-17)
(1.00571 0.0018712 -1.63722e-17)
(1.00427 0.00168631 1.95258e-17)
(1.00302 0.0014293 2.21829e-17)
(1.00199 0.0011394 4.72392e-18)
(1.00119 0.000856122 -1.28291e-17)
(1.00062 0.000604598 -1.90134e-17)
(1.00023 0.000395932 -1.46445e-17)
(0.999997 0.000232987 -6.55373e-18)
(0.999877 0.000114549 -3.19559e-19)
(0.999834 3.64876e-05 2.18697e-18)
(0.999836 -8.14552e-06 2.16229e-18)
(0.99986 -2.8275e-05 1.28433e-18)
(0.999889 -3.30454e-05 5.32204e-19)
(0.999916 -3.00528e-05 2.04889e-19)
(0.999937 -2.44088e-05 1.46964e-21)
(0.999953 -1.88113e-05 -1.37502e-19)
(0.999964 -1.42414e-05 -1.49779e-19)
(0.999973 -1.07748e-05 -3.13179e-19)
(0.99998 -8.17612e-06 2.20971e-19)
(0.999985 -6.19947e-06 4.17929e-19)
(0.999989 -4.67591e-06 -1.83597e-19)
(0.999992 -3.50135e-06 -2.62228e-19)
(0.999994 -2.60509e-06 -4.2222e-19)
(0.999996 -1.93002e-06 1.35365e-19)
(0.999997 -1.42665e-06 3.72159e-19)
(0.999998 -1.05327e-06 -1.86506e-19)
(0.999998 -7.76786e-07 -2.4006e-19)
(0.999999 -5.7209e-07 -4.11102e-19)
(0.999999 -4.20595e-07 1.40354e-19)
(0.999999 -3.08572e-07 2.29367e-19)
(1 -2.25836e-07 2.12086e-19)
(1 -1.64799e-07 2.78756e-19)
(1 -1.19811e-07 -4.77473e-19)
(1 -8.66754e-08 9.69826e-20)
(1 -6.22879e-08 2.23795e-19)
(1 -4.43528e-08 2.13002e-19)
(1 -3.11764e-08 2.70875e-19)
(1 -2.15074e-08 -4.93708e-19)
(1 -1.44233e-08 8.3604e-20)
(1 -9.2427e-09 2.2896e-19)
(1 -5.46409e-09 2.48896e-19)
(1 -2.71681e-09 3.38984e-19)
(1 -7.2883e-10 -4.05152e-19)
(1 7.01488e-10 1.71763e-19)
(1 1.72137e-09 2.95769e-19)
(1 2.44036e-09 2.8199e-19)
(1 2.93809e-09 3.38219e-19)
(1 3.27415e-09 -4.30408e-19)
(1 3.49143e-09 1.34611e-19)
(1 3.6224e-09 2.56972e-19)
(1 3.6901e-09 2.47213e-19)
(1 3.71229e-09 3.09198e-19)
(1 3.70128e-09 -4.54775e-19)
(1 3.66684e-09 1.11495e-19)
(1 3.6155e-09 2.27497e-19)
(1 3.55265e-09 2.09433e-19)
(1 3.48171e-09 2.29274e-19)
(1 3.40567e-09 -4.36732e-19)
(1 3.32629e-09 -4.49513e-19)
(1 3.24525e-09 -3.82326e-19)
(1 3.16344e-09 -2.58709e-19)
(1 3.0818e-09 -1.32581e-19)
(1 3.00076e-09 -3.61819e-20)
(1 2.92083e-09 6.66865e-20)
(1 2.84223e-09 7.22346e-20)
(1 2.7652e-09 1.00208e-19)
(1 2.68987e-09 1.3749e-19)
(1 2.61631e-09 1.61601e-19)
(1 2.54462e-09 2.08841e-19)
(1 2.47474e-09 1.7258e-19)
(1 2.40678e-09 1.69306e-19)
(1 2.3406e-09 1.83242e-19)
(1 2.27633e-09 1.90015e-19)
(1 2.21374e-09 2.24529e-19)
(1 2.15301e-09 1.78915e-19)
(1 2.09386e-09 1.68564e-19)
(1 2.03649e-09 1.77182e-19)
(1 1.98058e-09 1.81005e-19)
(1 1.92637e-09 2.16381e-19)
(1 1.8735e-09 1.75946e-19)
(1 1.82224e-09 1.72063e-19)
(1 1.77219e-09 1.80804e-19)
(1 1.72368e-09 1.68939e-19)
(1 1.67626e-09 1.67519e-19)
(1 1.6303e-09 7.47734e-20)
(1 1.58532e-09 1.67039e-20)
(1 1.54173e-09 -2.3586e-21)
(1 1.499e-09 -2.91151e-20)
(1 1.4576e-09 3.63345e-20)
(1 1.41697e-09 7.07812e-20)
(1 1.3776e-09 8.25588e-20)
(1 1.33892e-09 9.18031e-20)
(1 1.30145e-09 6.60565e-20)
(1 1.26458e-09 1.16093e-19)
(1 1.22886e-09 1.28951e-19)
(1 1.19368e-09 1.20858e-19)
(1 1.1596e-09 1.15749e-19)
(1 1.126e-09 8.1232e-20)
(1 1.09346e-09 1.26232e-19)
(1 1.06133e-09 1.35824e-19)
(1 1.03024e-09 1.25055e-19)
(1 9.99496e-10 1.17456e-19)
(1 9.69755e-10 8.06347e-20)
(1 9.40321e-10 1.23648e-19)
(1 9.11855e-10 1.31838e-19)
(1 8.83654e-10 1.2062e-19)
(1 8.56392e-10 1.13569e-19)
(1 8.29353e-10 7.71577e-20)
(1 8.03232e-10 1.17576e-19)
(1 7.77297e-10 1.16326e-19)
(1 7.52256e-10 8.63939e-20)
(1 7.27369e-10 5.31075e-20)
(1 7.03354e-10 -1.01778e-20)
(1 6.79464e-10 1.23992e-20)
(1 6.56432e-10 1.00174e-20)
(1 6.3349e-10 -2.95786e-21)
(1 6.11403e-10 -7.04959e-21)
(1 5.89356e-10 -3.89098e-20)
(1 5.68219e-10 8.18193e-21)
(1 5.46958e-10 1.89616e-20)
(1 5.26956e-10 8.77305e-21)
(1 5.06079e-10 1.33961e-21)
(1 4.88294e-10 -3.52089e-20)
(1 4.65568e-10 7.9827e-21)
(1 4.56236e-10 1.93218e-20)
(1 4.19029e-10 2.2238e-21)
(1 4.51165e-10 1.9477e-20)
(1 3.50594e-10 -8.23743e-20)
(1.00013 -0.00187604 -2.8568e-20)
(1.002 -0.00564992 -4.81797e-19)
(1.00626 -0.00964133 -9.25385e-19)
(1.01278 -0.0139254 -1.56184e-18)
(1.02191 -0.0185037 -2.21762e-18)
(1.03389 -0.0231989 -2.10945e-18)
(1.04886 -0.0276719 -6.72809e-18)
(1.06667 -0.0312369 1.1724e-18)
(1.08662 -0.033141 4.64065e-18)
(1.10745 -0.0324793 -2.72579e-17)
(1.12704 -0.0287144 -3.30667e-17)
(1.1433 -0.0224193 3.69765e-17)
(1.15495 -0.0141627 9.3294e-17)
(1.16086 -0.00462072 9.30688e-17)
(1.16043 0.00511269 7.46004e-17)
(1.15392 0.0139003 5.93727e-17)
(1.14236 0.020775 3.7927e-17)
(1.12735 0.0252343 1.77172e-17)
(1.1106 0.0272872 2.08001e-17)
(1.09359 0.0273099 3.31378e-17)
(1.07739 0.0258359 -5.68637e-18)
(1.0627 0.0233807 -1.22154e-16)
(1.04986 0.0203427 -2.2502e-16)
(1.03905 0.0170003 -1.5415e-16)
(1.0303 0.0135792 1.41135e-16)
(1.02352 0.010322 4.83122e-16)
(1.01851 0.00749854 5.78256e-16)
(1.01495 0.0053375 2.85721e-16)
(1.01239 0.00393207 -2.29354e-16)
(1.01042 0.00319349 -6.23803e-16)
(1.00872 0.00289318 -6.62461e-16)
(1.00711 0.00276728 -3.83125e-16)
(1.00556 0.00261811 -1.73028e-17)
(1.00413 0.00235978 2.07053e-16)
(1.00288 0.00200093 2.1932e-16)
(1.00186 0.00159529 9.78456e-17)
(1.00107 0.00119753 -3.65547e-17)
(1.00051 0.000843048 -1.05698e-16)
(1.00014 0.000548268 -1.0545e-16)
(0.999927 0.000318239 -6.91262e-17)
(0.999828 0.000151939 -2.98125e-17)
(0.999805 4.36358e-05 -5.19161e-18)
(0.999823 -1.68814e-05 6.70495e-18)
(0.999857 -4.28131e-05 9.54415e-18)
(0.999892 -4.75603e-05 8.07806e-18)
(0.999921 -4.20656e-05 5.29893e-18)
(0.999942 -3.34997e-05 9.06107e-19)
(0.999957 -2.54728e-05 -1.27265e-18)
(0.999968 -1.91454e-05 -1.63435e-18)
(0.999976 -1.44547e-05 -1.894e-18)
(0.999982 -1.09764e-05 -7.10888e-19)
(0.999986 -8.33304e-06 -7.67446e-20)
(0.99999 -6.28823e-06 8.42818e-20)
(0.999993 -4.70678e-06 2.28222e-19)
(0.999995 -3.49906e-06 -5.13413e-19)
(0.999996 -2.59048e-06 1.32629e-21)
(0.999997 -1.91426e-06 2.204e-19)
(0.999998 -1.41342e-06 2.49693e-19)
(0.999998 -1.0428e-06 3.90578e-19)
(0.999999 -7.68435e-07 -3.63338e-19)
(0.999999 -5.6535e-07 1.05887e-19)
(0.999999 -4.15164e-07 2.00863e-19)
(1 -3.04242e-07 3.52158e-19)
(1 -2.22414e-07 -2.24667e-19)
(1 -1.62101e-07 -7.0208e-20)
(1 -1.17674e-07 1.38798e-18)
(1 -8.49699e-08 4.19329e-19)
(1 -6.09125e-08 3.15537e-19)
(1 -4.32318e-08 -3.22936e-19)
(1 -3.02511e-08 -1.80043e-19)
(1 -2.07342e-08 1.28587e-18)
(1 -1.3768e-08 3.36498e-19)
(1 -8.68032e-09 2.56385e-19)
(1 -4.97456e-09 -3.63819e-19)
(1 -2.2859e-09 -2.16725e-19)
(1 -3.44617e-10 1.23696e-18)
(1 1.04704e-09 2.64978e-19)
(1 2.03563e-09 1.63327e-19)
(1 2.72802e-09 -4.66767e-19)
(1 3.20379e-09 -3.1384e-19)
(1 3.52061e-09 1.15773e-18)
(1 3.72176e-09 2.07523e-19)
(1 3.83823e-09 1.23899e-19)
(1 3.8936e-09 -4.96025e-19)
(1 3.90448e-09 -3.41691e-19)
(1 3.88374e-09 1.12319e-18)
(1 3.84022e-09 1.57662e-19)
(1 3.78097e-09 5.62182e-20)
(1 3.71063e-09 -5.97463e-19)
(1 3.63309e-09 -4.15307e-19)
(1 3.55076e-09 8.977e-19)
(1 3.46576e-09 3.35744e-19)
(1 3.37935e-09 7.04676e-19)
(1 3.29268e-09 6.69729e-19)
(1 3.20639e-09 5.54791e-19)
(1 3.12108e-09 6.22749e-19)
(1 3.03709e-09 -1.25386e-19)
(1 2.95469e-09 2.86754e-19)
(1 2.87408e-09 3.297e-19)
(1 2.79532e-09 2.86257e-19)
(1 2.71857e-09 4.13322e-19)
(1 2.64374e-09 -2.87297e-19)
(1 2.57099e-09 1.62439e-19)
(1 2.50013e-09 2.34768e-19)
(1 2.43135e-09 2.14164e-19)
(1 2.36436e-09 3.58957e-19)
(1 2.29939e-09 -3.28095e-19)
(1 2.2361e-09 1.31592e-19)
(1 2.17475e-09 2.10999e-19)
(1 2.11495e-09 1.96357e-19)
(1 2.057e-09 3.48829e-19)
(1 2.00046e-09 -3.26534e-19)
(1 1.94567e-09 1.47729e-19)
(1 1.89217e-09 2.38163e-19)
(1 1.84034e-09 2.21113e-19)
(1 1.78965e-09 3.49835e-19)
(1 1.74055e-09 -3.68087e-19)
(1 1.69248e-09 5.08914e-20)
(1 1.64592e-09 1.2327e-19)
(1 1.60027e-09 -1.35002e-20)
(1 1.55606e-09 6.69404e-19)
(1 1.51265e-09 1.79342e-19)
(1 1.47062e-09 5.69173e-20)
(1 1.4293e-09 4.52796e-20)
(1 1.38929e-09 -8.33516e-20)
(1 1.3499e-09 6.14815e-19)
(1 1.31178e-09 1.33467e-19)
(1 1.2742e-09 1.58591e-20)
(1 1.23783e-09 8.7582e-21)
(1 1.20194e-09 -1.14428e-19)
(1 1.16722e-09 5.8948e-19)
(1 1.13291e-09 1.13182e-19)
(1 1.09973e-09 -5.88608e-22)
(1 1.0669e-09 -5.04023e-21)
(1 1.03517e-09 -1.26488e-19)
(1 1.00374e-09 5.78577e-19)
(1 9.73374e-10 1.03252e-19)
(1 9.43266e-10 -9.25585e-21)
(1 9.14184e-10 -1.19796e-20)
(1 8.85323e-10 -1.32148e-19)
(1 8.57461e-10 5.71219e-19)
(1 8.29779e-10 8.77483e-20)
(1 8.03075e-10 -4.15722e-20)
(1 7.76517e-10 -6.81773e-20)
(1 7.50915e-10 -2.12964e-19)
(1 7.25428e-10 4.7398e-19)
(1 7.00881e-10 -1.05839e-20)
(1 6.76414e-10 -1.2432e-19)
(1 6.52888e-10 -1.24002e-19)
(1 6.29383e-10 -2.3974e-19)
(1 6.06898e-10 4.69926e-19)
(1 5.84234e-10 -2.38128e-21)
(1 5.63017e-10 -1.13453e-19)
(1 5.40738e-10 -1.16196e-19)
(1 5.21985e-10 -2.36102e-19)
(1 4.9778e-10 4.69216e-19)
(1 4.87554e-10 1.26936e-21)
(1 4.49805e-10 -1.36352e-19)
(1 4.75873e-10 -1.09475e-20)
(1 3.81628e-10 -7.43976e-19)
(1.00013 -0.00238331 -2.04813e-18)
(1.00192 -0.00718271 -7.36632e-18)
(1.00602 -0.0122863 -6.5195e-18)
(1.01236 -0.0178099 -8.69032e-18)
(1.02137 -0.0237777 -4.50958e-18)
(1.03337 -0.0299812 -1.70909e-17)
(1.04867 -0.0359958 -3.12117e-18)
(1.06722 -0.0408955 4.63466e-17)
(1.08841 -0.0436589 -1.4724e-16)
(1.11092 -0.0429439 -1.05395e-16)
(1.13214 -0.0379694 4.8742e-16)
(1.14971 -0.0296351 7.17102e-16)
(1.16229 -0.0186879 7.98478e-17)
(1.16861 -0.005979 -5.68918e-16)
(1.16792 0.00700726 -7.13577e-16)
(1.16052 0.0187042 -4.63027e-16)
(1.14764 0.0277688 -1.6337e-16)
(1.13116 0.0335285 -1.43835e-16)
(1.11305 0.0360369 -4.16231e-16)
(1.09495 0.0358508 -7.51751e-16)
(1.07799 0.0337229 -9.35114e-16)
(1.06282 0.0303624 -8.88703e-16)
(1.04975 0.0263048 -5.66927e-16)
(1.03886 0.0219127 8.77301e-17)
(1.03011 0.0174679 9.1152e-16)
(1.02335 0.0132673 1.36633e-15)
(1.01837 0.00964091 8.89187e-16)
(1.0148 0.00686965 -5.03325e-16)
(1.01222 0.00506583 -2.03182e-15)
(1.01023 0.0041138 -2.70305e-15)
(1.0085 0.00372201 -2.0845e-15)
(1.00688 0.00355467 -6.01216e-16)
(1.00533 0.00335983 8.47016e-16)
(1.00391 0.0030272 1.55673e-15)
(1.00267 0.00256632 1.4089e-15)
(1.00165 0.00204433 7.57444e-16)
(1.00088 0.0015304 6.06168e-17)
(1.00034 0.00107043 -4.03366e-16)
(0.999997 0.00068713 -5.79827e-16)
(0.999817 0.000388801 -5.37556e-16)
(0.999753 0.000175222 -3.75398e-16)
(0.99976 3.89326e-05 -1.79873e-16)
(0.999802 -3.42508e-05 -1.87005e-17)
(0.999851 -6.26917e-05 7.00824e-17)
(0.999894 -6.47288e-05 8.68094e-17)
(0.999926 -5.49458e-05 5.85923e-17)
(0.999948 -4.25157e-05 2.08219e-17)
(0.999962 -3.17123e-05 -4.56384e-18)
(0.999971 -2.35999e-05 -1.2944e-17)
(0.999978 -1.77736e-05 -9.43112e-18)
(0.999984 -1.3513e-05 -1.76221e-18)
(0.999988 -1.02741e-05 2.26068e-18)
(0.999991 -7.75407e-06 2.4272e-18)
(0.999993 -5.79714e-06 1.77303e-18)
(0.999995 -4.3024e-06 1.37929e-19)
(0.999996 -3.18082e-06 7.14478e-19)
(0.999997 -2.3488e-06 9.05415e-19)
(0.999998 -1.73407e-06 3.39034e-19)
(0.999999 -1.27966e-06 4.07997e-19)
(0.999999 -9.43324e-07 -4.28497e-19)
(0.999999 -6.94335e-07 5.47611e-19)
(0.999999 -5.10199e-07 6.68926e-19)
(1 -3.74224e-07 5.99007e-19)
(1 -2.73934e-07 6.30635e-19)
(1 -2.00024e-07 -2.83842e-19)
(1 -1.45582e-07 8.6797e-19)
(1 -1.05502e-07 4.66824e-19)
(1 -7.60144e-08 3.29315e-19)
(1 -5.43373e-08 3.85314e-19)
(1 -3.84173e-08 -4.90119e-19)
(1 -2.67398e-08 7.0297e-19)
(1 -1.81862e-08 3.43412e-19)
(1 -1.1933e-08 2.43558e-19)
(1 -7.3722e-09 3.26138e-19)
(1 -4.05661e-09 -5.39768e-19)
(1 -1.65611e-09 6.45683e-19)
(1 7.17088e-11 2.6861e-19)
(1 1.30602e-09 1.52989e-19)
(1 2.17791e-09 2.31421e-19)
(1 2.78465e-09 -6.23887e-19)
(1 3.197e-09 5.82568e-19)
(1 3.46773e-09 2.28682e-19)
(1 3.6349e-09 1.31247e-19)
(1 3.72718e-09 2.19599e-19)
(1 3.765e-09 -6.34236e-19)
(1 3.76392e-09 5.66564e-19)
(1 3.73483e-09 1.97521e-19)
(1 3.6862e-09 8.93241e-20)
(1 3.6238e-09 1.10326e-19)
(1 3.55221e-09 -5.38777e-19)
(1 3.47447e-09 -4.63323e-19)
(1 3.39307e-09 -9.739e-19)
(1 3.30957e-09 -8.95578e-19)
(1 3.22531e-09 -8.55087e-19)
(1 3.1411e-09 -1.86088e-19)
(1 3.05762e-09 1.2868e-19)
(1 2.9753e-09 -4.12224e-19)
(1 2.89445e-09 -4.20861e-19)
(1 2.81532e-09 -4.68168e-19)
(1 2.73797e-09 1.26001e-19)
(1 2.66259e-09 3.80671e-19)
(1 2.5891e-09 -2.07566e-19)
(1 2.51765e-09 -2.53558e-19)
(1 2.44808e-09 -3.3066e-19)
(1 2.38055e-09 2.39539e-19)
(1 2.31481e-09 4.74803e-19)
(1 2.25105e-09 -1.29417e-19)
(1 2.18896e-09 -1.89054e-19)
(1 2.12878e-09 -2.78002e-19)
(1 2.07014e-09 2.82971e-19)
(1 2.01332e-09 5.1393e-19)
(1 1.95789e-09 -8.74692e-20)
(1 1.90419e-09 -1.38019e-19)
(1 1.85176e-09 -2.17792e-19)
(1 1.80097e-09 3.42231e-19)
(1 1.75132e-09 5.53061e-19)
(1 1.70322e-09 -8.80411e-20)
(1 1.65614e-09 -1.90086e-19)
(1 1.61053e-09 -3.078e-19)
(1 1.56584e-09 2.16092e-19)
(1 1.52254e-09 4.67121e-19)
(1 1.48005e-09 -7.19355e-20)
(1 1.43889e-09 -1.2239e-19)
(1 1.39845e-09 -2.21219e-19)
(1 1.35927e-09 3.01687e-19)
(1 1.32074e-09 5.39507e-19)
(1 1.28341e-09 -1.79093e-20)
(1 1.24664e-09 -8.59265e-20)
(1 1.21104e-09 -1.98254e-19)
(1 1.17593e-09 3.15668e-19)
(1 1.14194e-09 5.4782e-19)
(1 1.10838e-09 -1.34117e-20)
(1 1.0759e-09 -8.43528e-20)
(1 1.0438e-09 -1.99108e-19)
(1 1.01274e-09 3.12779e-19)
(1 9.82007e-10 5.43288e-19)
(1 9.52283e-10 -1.90685e-20)
(1 9.22846e-10 -9.03421e-20)
(1 8.94386e-10 -2.04603e-19)
(1 8.66171e-10 3.07611e-19)
(1 8.38907e-10 5.35701e-19)
(1 8.11854e-10 -3.53217e-20)
(1 7.85729e-10 -1.23764e-19)
(1 7.59782e-10 -2.6212e-19)
(1 7.34742e-10 2.25393e-19)
(1 7.0985e-10 4.37115e-19)
(1 6.85851e-10 -1.34811e-19)
(1 6.61968e-10 -2.07368e-19)
(1 6.38986e-10 -3.18451e-19)
(1 6.16053e-10 1.98433e-19)
(1 5.94119e-10 4.33104e-19)
(1 5.72018e-10 -1.26462e-19)
(1 5.51378e-10 -1.96351e-19)
(1 5.29647e-10 -3.10558e-19)
(1 5.11469e-10 2.02128e-19)
(1 4.87977e-10 4.3228e-19)
(1 4.77462e-10 -1.22459e-19)
(1 4.42813e-10 -2.20353e-19)
(1 4.60248e-10 -2.04071e-19)
(1 3.81338e-10 -2.89744e-19)
(1.00012 -0.00286621 2.3081e-18)
(1.00181 -0.00864582 8.11034e-18)
(1.00569 -0.0148338 7.40272e-18)
(1.01178 -0.0216016 7.27882e-18)
(1.02058 -0.0290139 2.78106e-17)
(1.03256 -0.0368516 -6.6106e-17)
(1.04821 -0.0446174 2.34864e-16)
(1.06767 -0.0511158 -2.60928e-16)
(1.09046 -0.0550181 -5.67106e-16)
(1.1152 -0.0543663 1.71157e-15)
(1.13861 -0.0480601 2.19237e-15)
(1.15786 -0.0374973 -2.68096e-15)
(1.17168 -0.0236105 -9.12228e-15)
(1.17856 -0.00740877 -1.10114e-14)
(1.17755 0.00916261 -9.04399e-15)
(1.16897 0.0240386 -5.61441e-15)
(1.15431 0.0354366 -2.4694e-15)
(1.13587 0.0425042 -1.35995e-15)
(1.11598 0.0453724 -2.78276e-15)
(1.09647 0.0448286 -5.09807e-15)
(1.07854 0.0418903 -5.67344e-15)
(1.06282 0.0374914 -3.12062e-15)
(1.04949 0.0323193 1.43129e-15)
(1.03854 0.0268233 4.96329e-15)
(1.02981 0.0213351 4.57967e-15)
(1.02311 0.0161944 -2.81352e-16)
(1.01816 0.0117793 -6.92033e-15)
(1.01459 0.00841225 -1.09805e-14)
(1.012 0.00621847 -9.68975e-15)
(1.00997 0.00505389 -3.84826e-15)
(1.00822 0.00456613 3.18964e-15)
(1.00658 0.00435095 8.19617e-15)
(1.00504 0.00410499 9.9314e-15)
(1.00362 0.00369453 9.1096e-15)
(1.00238 0.00312931 7.12411e-15)
(1.00138 0.00248845 4.86087e-15)
(1.00063 0.00185478 2.47258e-15)
(1.00011 0.00128499 -2.665e-17)
(0.999809 0.000809284 -2.22521e-15)
(0.999673 0.000440638 -3.44357e-15)
(0.999655 0.000180385 -3.31048e-15)
(0.999703 1.90772e-05 -2.12943e-15)
(0.999776 -6.24862e-05 -6.70856e-16)
(0.999845 -8.90865e-05 3.60919e-16)
(0.999898 -8.49347e-05 7.0856e-16)
(0.999933 -6.86296e-05 5.49883e-16)
(0.999955 -5.12326e-05 2.25014e-16)
(0.999967 -3.73149e-05 -1.53221e-17)
(0.999975 -2.74604e-05 -9.93755e-17)
(0.999981 -2.0654e-05 -7.9361e-17)
(0.999986 -1.57494e-05 -3.14831e-17)
(0.999989 -1.20039e-05 1.1811e-18)
(0.999992 -9.06025e-06 1.10627e-17)
(0.999994 -6.7609e-06 7.53699e-18)
(0.999996 -5.00519e-06 1.97917e-18)
(0.999997 -3.69326e-06 -1.46534e-18)
(0.999998 -2.72466e-06 -1.95766e-18)
(0.999998 -2.01127e-06 -7.2942e-19)
(0.999999 -1.48455e-06 -6.44458e-20)
(0.999999 -1.09466e-06 1.85454e-19)
(0.999999 -8.05925e-07 -3.89404e-19)
(0.999999 -5.92386e-07 -5.2728e-19)
(1 -4.34738e-07 -3.5713e-19)
(1 -3.18502e-07 -9.55854e-19)
(1 -2.3286e-07 -4.65281e-19)
(1 -1.69782e-07 -2.11511e-19)
(1 -1.23344e-07 -1.39051e-19)
(1 -8.91748e-08 4.0271e-20)
(1 -6.40536e-08 -6.13095e-19)
(1 -4.56009e-08 -1.84258e-19)
(1 -3.20619e-08 2.32413e-20)
(1 -2.21407e-08 6.91542e-20)
(1 -1.48833e-08 2.36021e-19)
(1 -9.58534e-09 -4.25978e-19)
(1 -5.729e-09 -1.21586e-20)
(1 -2.93187e-09 1.68406e-19)
(1 -9.13374e-10 1.77217e-19)
(1 5.34106e-10 3.04536e-19)
(1 1.56235e-09 -3.90384e-19)
(1 2.28385e-09 2.67906e-21)
(1 2.78058e-09 1.74562e-19)
(1 3.1135e-09 1.82631e-19)
(1 3.32673e-09 3.12365e-19)
(1 3.45331e-09 -3.80081e-19)
(1 3.51691e-09 1.39216e-20)
(1 3.53543e-09 1.83751e-19)
(1 3.52147e-09 1.83798e-19)
(1 3.48476e-09 3.00185e-19)
(1 3.43194e-09 -4.18033e-19)
(1 3.36827e-09 -2.95298e-20)
(1 3.29725e-09 1.04269e-19)
(1 3.2217e-09 -4.51312e-20)
(1 3.14344e-09 6.11213e-19)
(1 3.06396e-09 1.15718e-19)
(1 2.98421e-09 1.46411e-20)
(1 2.90493e-09 7.08372e-20)
(1 2.82664e-09 -8.14e-20)
(1 2.74965e-09 5.79486e-19)
(1 2.67426e-09 8.61298e-20)
(1 2.60056e-09 -1.40698e-20)
(1 2.52873e-09 4.34068e-20)
(1 2.4587e-09 -1.06729e-19)
(1 2.39065e-09 5.56695e-19)
(1 2.32438e-09 6.58264e-20)
(1 2.26009e-09 -3.21839e-20)
(1 2.19751e-09 2.71025e-20)
(1 2.13684e-09 -1.21772e-19)
(1 2.07777e-09 5.42108e-19)
(1 2.02053e-09 5.10298e-20)
(1 1.96477e-09 -4.65611e-20)
(1 1.91075e-09 1.62661e-20)
(1 1.85808e-09 -1.23788e-19)
(1 1.80705e-09 5.53287e-19)
(1 1.75724e-09 7.39238e-20)
(1 1.70899e-09 -2.26507e-20)
(1 1.66183e-09 2.26614e-20)
(1 1.61615e-09 -1.51645e-19)
(1 1.57145e-09 4.77456e-19)
(1 1.52815e-09 -1.25999e-20)
(1 1.48571e-09 -2.35881e-19)
(1 1.44461e-09 3.75203e-19)
(1 1.40428e-09 4.54327e-19)
(1 1.36521e-09 5.37025e-19)
(1 1.32683e-09 -5.29741e-20)
(1 1.28965e-09 -2.83224e-19)
(1 1.25308e-09 3.32185e-19)
(1 1.21766e-09 4.12863e-19)
(1 1.18278e-09 4.95621e-19)
(1 1.14899e-09 -9.33222e-20)
(1 1.11568e-09 -3.20887e-19)
(1 1.08343e-09 2.98094e-19)
(1 1.0516e-09 3.82277e-19)
(1 1.02078e-09 4.67977e-19)
(1 9.90332e-10 -1.18613e-19)
(1 9.60867e-10 -3.44264e-19)
(1 9.31719e-10 2.76352e-19)
(1 9.03528e-10 3.62129e-19)
(1 8.75607e-10 4.4974e-19)
(1 8.48617e-10 -1.34518e-19)
(1 8.2186e-10 -3.58381e-19)
(1 7.9601e-10 2.60873e-19)
(1 7.7036e-10 3.38564e-19)
(1 7.45595e-10 4.09104e-19)
(1 7.21e-10 -1.99483e-19)
(1 6.97271e-10 -4.48266e-19)
(1 6.73684e-10 1.54833e-19)
(1 6.50953e-10 2.32558e-19)
(1 6.28334e-10 3.20613e-19)
(1 6.06585e-10 -2.58723e-19)
(1 5.84882e-10 -4.76309e-19)
(1 5.64151e-10 1.51011e-19)
(1 5.43249e-10 2.41666e-19)
(1 5.23787e-10 3.32389e-19)
(1 5.03262e-10 -2.50372e-19)
(1 4.86123e-10 -4.72457e-19)
(1 4.64146e-10 1.50007e-19)
(1 4.53473e-10 2.46087e-19)