/*--------------------------------*- C++ -*----------------------------------*\
  =========                 |
  \\      /  F ield         | OpenFOAM: The Open Source CFD Toolbox
   \\    /   O peration     | Website:  https://openfoam.org
    \\  /    A nd           | Version:  11
     \\/     M anipulation  |
\*---------------------------------------------------------------------------*/
FoamFile
{
    format      ascii;
    class       volVectorField;
    location    "19.900041";
    object      vorticity;
}
// * * * * * * * * * * * * * * * * * * * * * * * * * * * * * * * * * * * * * //

dimensions      [0 0 -1 0 0 0 0];

internalField   nonuniform List<vector> 
7132
(
(-6.94706e-17 -1.88505e-15 -0.00921422)
(-2.21193e-16 -1.80575e-15 -0.00975773)
(-1.93393e-16 -1.60365e-17 -0.0103157)
(-2.3805e-16 -1.80039e-15 -0.0107502)
(-3.08464e-16 -1.76786e-15 -0.0109827)
(-2.79659e-16 2.34664e-17 -0.0109877)
(-2.41801e-16 2.72565e-17 -0.0107931)
(-2.0269e-16 1.74796e-17 -0.0104662)
(-1.91467e-16 8.21934e-18 -0.0100964)
(-1.79244e-16 1.65499e-18 -0.00977064)
(-1.65945e-16 -3.35061e-18 -0.0095569)
(-1.19075e-16 -5.93226e-18 -0.0095109)
(-1.2242e-16 -5.30176e-18 -0.00964964)
(-1.1622e-16 2.77632e-17 -0.00992921)
(-3.83256e-17 -1.67329e-15 -0.0102812)
(3.78123e-17 -3.41183e-15 -0.0106065)
(7.46625e-17 -1.69511e-15 -0.0107988)
(3.17415e-17 3.86414e-17 -0.0107703)
(-1.40189e-17 -1.7007e-15 -0.0104816)
(-2.33559e-17 -1.72987e-15 -0.00999022)
(3.38068e-16 -1.83789e-17 -0.0094407)
(1.10957e-15 -2.55374e-17 -0.00897578)
(1.51628e-15 -2.36635e-17 -0.00873031)
(1.20755e-15 2.90209e-18 -0.00883804)
(7.08259e-16 1.77585e-15 -0.00936242)
(2.79493e-16 -3.03474e-17 -0.0101853)
(9.16987e-16 -2.09815e-16 -0.0110765)
(1.79202e-15 7.14939e-16 -0.0118141)
(-9.29725e-15 2.9634e-15 -0.0122276)
(-2.71017e-14 -5.25404e-15 -0.0122)
(1.02617e-13 -4.97736e-14 -0.0116788)
(5.50587e-13 2.82899e-14 -0.0107216)
(-4.90445e-13 7.46882e-13 -0.00958068)
(-1.01219e-11 2.25888e-12 -0.0086154)
(-3.27876e-11 3.00807e-12 -0.00801649)
(-5.44316e-11 1.3283e-12 -0.00776826)
(-5.36913e-11 -1.46491e-12 -0.00784576)
(-3.25409e-11 -2.72069e-12 -0.00837786)
(-1.17306e-11 -2.08174e-12 -0.00951221)
(-1.60887e-12 -9.92445e-13 -0.0110695)
(1.27436e-12 -3.6715e-13 -0.0125966)
(1.20691e-12 1.58882e-13 -0.0136762)
(-3.85092e-13 1.65611e-12 -0.0140594)
(-2.99946e-12 3.22368e-12 -0.013685)
(-2.76864e-12 -3.85545e-12 -0.0126815)
(9.48042e-12 -4.05415e-11 -0.0113918)
(5.22156e-11 -1.25117e-10 -0.0104293)
(1.24514e-10 -2.27649e-10 -0.0103897)
(1.84642e-10 -2.53741e-10 -0.0112356)
(2.16729e-10 -1.33749e-10 -0.0122788)
(2.1485e-10 7.07435e-11 -0.012783)
(1.49817e-10 2.15981e-10 -0.0126981)
(6.9208e-11 2.31949e-10 -0.0127467)
(3.99056e-11 1.66259e-10 -0.013409)
(1.646e-11 8.56482e-11 -0.0143457)
(8.37912e-13 1.70629e-11 -0.0150676)
(3.66981e-11 -2.278e-11 -0.0152486)
(1.02074e-10 2.03049e-11 -0.0147114)
(-1.06874e-10 2.56093e-10 -0.0132021)
(-1.41206e-09 7.75998e-10 -0.0101647)
(-5.05109e-09 1.51933e-09 -0.00491478)
(-1.18476e-08 2.19058e-09 0.00272913)
(-2.08401e-08 2.34472e-09 0.0117004)
(-2.88248e-08 1.68742e-09 0.0194668)
(-3.20552e-08 3.60486e-10 0.0230783)
(-2.89822e-08 -1.11338e-09 0.0208462)
(-2.13512e-08 -2.16207e-09 0.0133091)
(-1.26084e-08 -2.44922e-09 0.00298285)
(-5.53444e-09 -2.03125e-09 -0.00683721)
(-1.23971e-09 -1.25967e-09 -0.0136576)
(5.90249e-10 -4.08844e-10 -0.0166005)
(7.08114e-10 5.89354e-10 -0.0160585)
(-6.38707e-10 2.02626e-09 -0.0128185)
(-3.97247e-09 4.01535e-09 -0.00751436)
(-1.00132e-08 6.19873e-09 -0.000710155)
(-1.86697e-08 7.80708e-09 0.00688829)
(-2.84427e-08 8.01261e-09 0.0147067)
(-3.68215e-08 6.36184e-09 0.0224043)
(-4.13128e-08 3.04166e-09 0.0292593)
(-4.0458e-08 -1.16942e-09 0.0335004)
(-3.45032e-08 -5.20568e-09 0.0328137)
(-2.53529e-08 -8.05995e-09 0.0260906)
(-1.55978e-08 -9.00466e-09 0.0147075)
(-7.44836e-09 -7.80002e-09 0.00202445)
(-2.09928e-09 -4.83625e-09 -0.00823252)
(2.2757e-10 -9.40697e-10 -0.0137335)
(-2.0622e-10 3.02391e-09 -0.0144448)
(-3.04272e-09 6.41972e-09 -0.0121947)
(-7.80648e-09 8.83405e-09 -0.00934431)
(-1.36571e-08 9.98934e-09 -0.00734272)
(-1.93943e-08 9.73113e-09 -0.00581954)
(-2.38401e-08 8.07311e-09 -0.00312432)
(-2.62011e-08 5.20033e-09 0.00202255)
(-2.61398e-08 1.4158e-09 0.00909855)
(-2.37259e-08 -2.89588e-09 0.0156933)
(-1.94482e-08 -7.19587e-09 0.01893)
(-1.41552e-08 -1.05884e-08 0.0172634)
(-8.85396e-09 -1.18817e-08 0.011131)
(-4.4604e-09 -1.02399e-08 0.0026393)
(-1.62181e-09 -5.93175e-09 -0.00560199)
(-6.52624e-10 -3.7995e-10 -0.0119259)
(-1.51979e-09 4.64424e-09 -0.0162799)
(-3.83312e-09 7.95751e-09 -0.0196617)
(-6.88736e-09 9.29142e-09 -0.0227865)
(-9.85489e-09 9.00324e-09 -0.0250471)
(-1.2071e-08 7.62642e-09 -0.0249013)
(-1.32039e-08 5.57792e-09 -0.021203)
(-1.32206e-08 3.0548e-09 -0.0142446)
(-1.22614e-08 6.22196e-11 -0.00580287)
(-1.0554e-08 -3.41035e-09 0.00176161)
(-8.37581e-09 -7.02811e-09 0.00660149)
(-6.03332e-09 -9.85784e-09 0.00777714)
(-3.84747e-09 -1.06814e-08 0.0053513)
(-2.13005e-09 -8.82325e-09 0.000161567)
(-1.13051e-09 -4.78926e-09 -0.00671455)
(-9.60438e-10 -4.39665e-11 -0.0144106)
(-1.53676e-09 3.89369e-09 -0.0223038)
(-2.59025e-09 6.21119e-09 -0.029606)
(-3.76207e-09 6.9099e-09 -0.0349865)
(-4.73904e-09 6.43972e-09 -0.0369646)
(-5.33882e-09 5.2897e-09 -0.0347532)
(-5.51178e-09 3.75802e-09 -0.0287894)
(-5.29761e-09 1.90117e-09 -0.020575)
(-4.78113e-09 -3.67941e-10 -0.0119641)
(-4.05983e-09 -3.02809e-09 -0.00449355)
(-3.22887e-09 -5.67947e-09 0.000718836)
(-2.38432e-09 -7.53906e-09 0.0029709)
(-1.63004e-09 -7.8351e-09 0.00196204)
(-1.06592e-09 -6.34537e-09 -0.00222949)
(-7.5615e-10 -3.59819e-09 -0.00913295)
(-7.01781e-10 -5.48438e-10 -0.01784)
(-8.40845e-10 1.96222e-09 -0.0269334)
(-1.0777e-09 3.53091e-09 -0.0345763)
(-1.32307e-09 4.17181e-09 -0.0390395)
(-1.51852e-09 4.10571e-09 -0.0393668)
(-1.63771e-09 3.556e-09 -0.0357141)
(-1.67584e-09 2.63903e-09 -0.0291635)
(-1.63816e-09 1.36395e-09 -0.0211548)
(-1.53208e-09 -2.64206e-10 -0.013024)
(-1.36615e-09 -2.09757e-09 -0.00592465)
(-1.15507e-09 -3.77753e-09 -0.000824213)
(-9.24796e-10 -4.84312e-09 0.00150744)
(-7.08823e-10 -4.97187e-09 0.00058596)
(-5.34731e-10 -4.16798e-09 -0.00362375)
(-4.12155e-10 -2.74736e-09 -0.010551)
(-3.32327e-10 -1.15004e-09 -0.0189491)
(-2.78138e-10 2.61746e-10 -0.0270754)
(-2.37294e-10 1.29728e-09 -0.033186)
(-2.08367e-10 1.91567e-09 -0.0360843)
(-1.97347e-10 2.15081e-09 -0.0354293)
(-2.09678e-10 2.0439e-09 -0.0316524)
(-2.43324e-10 1.61688e-09 -0.0256202)
(-2.87056e-10 8.93806e-10 -0.0183766)
(-3.24309e-10 -5.11259e-11 -0.0110439)
(-3.40359e-10 -1.062e-09 -0.00469823)
(-3.28478e-10 -1.92771e-09 -0.000428737)
(-2.91893e-10 -2.46427e-09 0.00124299)
(-2.35896e-10 -2.527e-09 -0.000888083)
(-1.81268e-10 -2.60227e-09 -0.00432739)
(-6.7299e-11 -1.39131e-09 -0.0188479)
(-7.03172e-17 -6.05017e-18 -0.0275677)
(-2.30157e-16 -8.84875e-18 -0.0292117)
(-2.12188e-16 -8.45517e-18 -0.0309176)
(-2.62549e-16 -9.82248e-18 -0.0322718)
(-3.45193e-16 -1.06425e-17 -0.0330282)
(-3.27496e-16 -8.17087e-18 -0.0330891)
(-3.09546e-16 -1.12277e-17 -0.0325129)
(-2.8685e-16 -7.6875e-18 -0.0314771)
(-2.02612e-16 1.73122e-15 -0.0302334)
(-2.46229e-16 -1.11061e-17 -0.0290368)
(-3.57448e-16 -3.34353e-17 -0.0280933)
(-4.20258e-16 1.70703e-15 -0.0275893)
(-3.87336e-16 -6.72936e-18 -0.0276098)
(-2.79484e-16 -1.25898e-17 -0.0281221)
(-7.97546e-17 -1.21931e-17 -0.0290455)
(6.17307e-17 2.81365e-18 -0.0302206)
(-1.52195e-18 3.92577e-17 -0.0314452)
(-3.27937e-16 8.1288e-17 -0.0325075)
(-5.4765e-16 6.14615e-17 -0.0332261)
(1.28638e-16 -1.72887e-16 -0.0335218)
(2.82085e-16 -5.84734e-16 -0.0334075)
(-3.49338e-15 -6.14645e-16 -0.0328636)
(-3.2833e-15 -7.26565e-17 -0.0318872)
(1.28134e-15 4.06491e-16 -0.0306403)
(2.51065e-15 5.0516e-16 -0.0294377)
(2.05676e-15 -1.34288e-16 -0.0285387)
(5.62677e-15 -9.66079e-16 -0.0280661)
(-2.42161e-15 5.82206e-15 -0.0280148)
(-4.6189e-14 1.74069e-14 -0.0282804)
(5.80689e-14 -6.46842e-14 -0.0287191)
(3.86672e-13 -3.38616e-13 -0.0292562)
(-1.11268e-12 3.21355e-13 -0.0299884)
(-4.52267e-12 6.08138e-12 -0.031189)
(1.70405e-11 1.84057e-11 -0.033036)
(9.80312e-11 2.51594e-11 -0.035129)
(1.73261e-10 1.17819e-11 -0.0364373)
(1.48313e-10 -1.2412e-11 -0.0361397)
(6.65803e-11 -2.37028e-11 -0.0345161)
(1.24541e-11 -1.75495e-11 -0.0325618)
(-3.31296e-12 -7.49841e-12 -0.0310127)
(-1.5572e-12 -1.77504e-12 -0.0300956)
(-7.79099e-13 9.86877e-13 -0.029658)
(-4.71459e-12 3.75756e-12 -0.0294103)
(1.23988e-11 4.41372e-12 -0.0292504)
(7.98925e-11 -1.00989e-11 -0.029514)
(3.80269e-12 -6.80336e-11 -0.0307283)
(-1.04315e-09 -1.82636e-10 -0.0327654)
(-4.44119e-09 -2.93864e-10 -0.0341889)
(-1.02748e-08 -2.9985e-10 -0.0337376)
(-1.54591e-08 -1.48856e-10 -0.032684)
(-1.61358e-08 1.04198e-10 -0.0332081)
(-1.20895e-08 2.88804e-10 -0.0350473)
(-6.51008e-09 2.86903e-10 -0.0363218)
(-2.26666e-09 1.92633e-10 -0.036087)
(-2.27819e-10 1.0518e-10 -0.0345274)
(3.15473e-10 6.9421e-12 -0.032627)
(4.18033e-10 -7.33962e-11 -0.0312336)
(4.62007e-10 9.20894e-11 -0.0303458)
(-7.05747e-10 1.01316e-09 -0.0286171)
(-6.29775e-09 3.2481e-09 -0.0231192)
(-2.05223e-08 6.7371e-09 -0.0102819)
(-4.50694e-08 1.00851e-08 0.011371)
(-7.54613e-08 1.08333e-08 0.0388428)
(-1.01556e-07 7.29497e-09 0.0650054)
(-1.12602e-07 4.39138e-10 0.0809514)
(-1.0351e-07 -6.46535e-09 0.0796351)
(-7.83739e-08 -1.03489e-08 0.0603197)
(-4.78266e-08 -1.03576e-08 0.03003)
(-2.18997e-08 -7.71562e-09 -0.000530223)
(-5.4872e-09 -4.32202e-09 -0.0227183)
(1.79185e-09 -1.38275e-09 -0.0333382)
(2.45225e-09 1.20383e-09 -0.0339023)
(-2.18033e-09 4.36655e-09 -0.027831)
(-1.27862e-08 8.70259e-09 -0.0184558)
(-3.00608e-08 1.35473e-08 -0.00832607)
(-5.2151e-08 1.70218e-08 0.00151289)
(-7.45349e-08 1.70885e-08 0.0128496)
(-9.23433e-08 1.27969e-08 0.0292351)
(-1.02058e-07 4.85992e-09 0.0513999)
(-1.01439e-07 -4.57421e-09 0.0736)
(-8.97581e-08 -1.27582e-08 0.0856331)
(-6.91493e-08 -1.75126e-08 0.0797393)
(-4.47738e-08 -1.79569e-08 0.0564487)
(-2.26648e-08 -1.45493e-08 0.0242764)
(-7.1867e-09 -8.67422e-09 -0.00535886)
(-6.75264e-11 -1.88723e-09 -0.0245663)
(-1.06394e-09 4.65906e-09 -0.0327821)
(-8.83163e-09 1.02199e-08 -0.0355544)
(-2.10927e-08 1.41413e-08 -0.0393189)
(-3.4673e-08 1.57833e-08 -0.0458547)
(-4.64035e-08 1.48226e-08 -0.0504348)
(-5.44125e-08 1.14765e-08 -0.0456635)
(-5.83856e-08 6.35016e-09 -0.0276403)
(-5.85732e-08 1.78194e-10 0.000609285)
(-5.48725e-08 -6.24163e-09 0.0302278)
(-4.71136e-08 -1.19812e-08 0.0509017)
(-3.60694e-08 -1.58856e-08 0.0560058)
(-2.37086e-08 -1.67291e-08 0.045104)
(-1.26072e-08 -1.38559e-08 0.0234369)
(-5.06289e-09 -7.83563e-09 -0.0016294)
(-2.38296e-09 -4.30957e-10 -0.0251575)
(-4.51729e-09 6.2345e-09 -0.0465079)
(-1.00826e-08 1.06413e-08 -0.0669545)
(-1.68781e-08 1.23023e-08 -0.0855253)
(-2.28304e-08 1.15951e-08 -0.0974274)
(-2.68001e-08 9.30093e-09 -0.0970154)
(-2.86752e-08 6.15275e-09 -0.0820416)
(-2.88204e-08 2.58358e-09 -0.0553631)
(-2.74857e-08 -1.27112e-09 -0.0236315)
(-2.46873e-08 -5.35317e-09 0.00544024)
(-2.05275e-08 -9.28843e-09 0.0256714)
(-1.54367e-08 -1.2122e-08 0.0335577)
(-1.02233e-08 -1.26331e-08 0.0286382)
(-5.90105e-09 -1.01817e-08 0.0128407)
(-3.33214e-09 -5.37407e-09 -0.0109709)
(-2.85991e-09 1.59162e-10 -0.0399422)
(-4.15317e-09 4.70859e-09 -0.0707682)
(-6.38735e-09 7.32384e-09 -0.0986197)
(-8.67379e-09 7.9843e-09 -0.117409)
(-1.04376e-08 7.22809e-09 -0.122224)
(-1.15052e-08 5.67607e-09 -0.11185)
(-1.19323e-08 3.73742e-09 -0.0892438)
(-1.17888e-08 1.53584e-09 -0.0600016)
(-1.10831e-08 -9.86829e-10 -0.0301557)
(-9.83034e-09 -3.80421e-09 -0.00463704)
(-8.11911e-09 -6.51722e-09 0.012958)
(-6.16547e-09 -8.33847e-09 0.0202954)
(-4.3047e-09 -8.4943e-09 0.0162151)
(-2.88498e-09 -6.78231e-09 0.000793236)
(-2.11351e-09 -3.78026e-09 -0.0242817)
(-1.9669e-09 -5.06089e-10 -0.0552123)
(-2.23493e-09 2.15018e-09 -0.0860937)
(-2.65931e-09 3.77202e-09 -0.110141)
(-3.06108e-09 4.39221e-09 -0.122013)
(-3.37696e-09 4.26303e-09 -0.11973)
(-3.61097e-09 3.63466e-09 -0.104957)
(-3.76579e-09 2.63926e-09 -0.0817938)
(-3.81261e-09 1.29207e-09 -0.055001)
(-3.70518e-09 -4.00209e-10 -0.0288446)
(-3.40855e-09 -2.28608e-09 -0.00688936)
(-2.93633e-09 -3.9982e-09 0.00791408)
(-2.36773e-09 -5.06624e-09 0.0132189)
(-1.82035e-09 -5.16691e-09 0.00763688)
(-1.39006e-09 -4.31631e-09 -0.00855366)
(-1.10432e-09 -2.84856e-09 -0.0327744)
(-9.24415e-10 -1.21704e-09 -0.0601885)
(-7.88827e-10 2.14231e-10 -0.084834)
(-6.60904e-10 1.26239e-09 -0.1015)
(-5.47066e-10 1.8957e-09 -0.10728)
(-4.80504e-10 2.15147e-09 -0.102044)
(-4.89446e-10 2.06689e-09 -0.0877998)
(-5.73107e-10 1.65557e-09 -0.0676015)
(-6.96436e-10 9.34299e-10 -0.044811)
(-8.04575e-10 -2.44722e-11 -0.0228215)
(-8.495e-10 -1.05991e-09 -0.0048495)
(-8.11968e-10 -1.95195e-09 0.00596335)
(-7.0663e-10 -2.51056e-09 0.00816332)
(-5.56346e-10 -2.58231e-09 -0.00124884)
(-4.1848e-10 -2.68657e-09 -0.0145048)
(-1.45356e-10 -1.4483e-09 -0.0586624)
(-2.29886e-18 -8.63372e-20 -0.0457159)
(-2.27314e-17 -8.62757e-20 -0.0484892)
(-4.05983e-17 1.59378e-19 -0.0513814)
(-6.80735e-17 8.38837e-19 -0.0536987)
(-8.17605e-17 -6.67351e-19 -0.0550186)
(-1.24002e-16 5.64271e-18 -0.0551587)
(-2.12394e-16 6.93358e-18 -0.0541926)
(3.3764e-17 -2.24348e-17 -0.0523941)
(-1.63981e-17 -1.20907e-17 -0.0501706)
(-8.48457e-16 6.55204e-17 -0.0479401)
(-1.15946e-15 8.7052e-17 -0.046046)
(-4.24017e-16 9.01148e-18 -0.0448281)
(4.05262e-16 -7.90769e-17 -0.0444823)
(1.10235e-15 -1.26027e-16 -0.0450379)
(1.34155e-15 -1.09173e-16 -0.0464831)
(6.94823e-16 1.84973e-17 -0.0486843)
(-1.05231e-15 2.34444e-16 -0.0514112)
(-2.97195e-15 3.11705e-16 -0.0543456)
(-1.09095e-15 -1.94269e-16 -0.0571163)
(1.81427e-15 -4.10017e-16 -0.0593393)
(-5.66403e-14 1.79263e-15 -0.0606028)
(-2.01566e-13 1.75716e-15 -0.0604377)
(-2.47901e-13 -2.41102e-15 -0.0584906)
(-1.36383e-13 -2.89407e-15 -0.0548424)
(-3.83404e-14 -3.46578e-16 -0.0501326)
(6.05561e-15 -1.58841e-15 -0.0452652)
(8.42517e-15 2.02937e-15 -0.0411404)
(-1.24098e-13 2.66228e-14 -0.038481)
(1.31211e-13 -2.72819e-14 -0.0377231)
(1.91431e-12 -2.25161e-13 -0.0390233)
(-3.55061e-12 5.33868e-13 -0.042368)
(-3.59839e-11 2.48123e-12 -0.0476443)
(1.51491e-11 -8.32971e-12 -0.0547349)
(6.35827e-10 -4.90198e-11 -0.0636505)
(2.14863e-09 -7.51037e-11 -0.0732806)
(3.59947e-09 -2.38143e-11 -0.0797008)
(3.55383e-09 5.18735e-11 -0.0787932)
(2.15759e-09 6.52087e-11 -0.0709766)
(7.73931e-10 3.28632e-11 -0.060264)
(9.90737e-11 6.01148e-12 -0.0499876)
(-6.70713e-11 -1.63582e-12 -0.0417521)
(-6.30361e-11 1.73587e-12 -0.0362488)
(-2.56893e-11 -4.93282e-12 -0.0337928)
(1.77908e-10 -3.90816e-11 -0.0348146)
(5.24579e-10 4.40844e-13 -0.039716)
(-7.46789e-10 5.20978e-10 -0.0465942)
(-8.91671e-09 2.09738e-09 -0.0480585)
(-3.02802e-08 4.38819e-09 -0.0342202)
(-6.28512e-08 5.25521e-09 -0.00508518)
(-9.11028e-08 2.79672e-09 0.0226956)
(-9.67241e-08 -1.61406e-09 0.0289118)
(-7.63185e-08 -4.59687e-09 0.0100232)
(-4.43001e-08 -4.67946e-09 -0.0182973)
(-1.7641e-08 -2.97487e-09 -0.0384151)
(-3.12615e-09 -1.20542e-09 -0.044403)
(1.69679e-09 -3.05864e-10 -0.04106)
(2.20686e-09 -9.60433e-11 -0.0362325)
(1.35545e-09 5.82195e-10 -0.034025)
(-2.91193e-09 3.63597e-09 -0.0324016)
(-1.69625e-08 1.06843e-08 -0.0250991)
(-4.63876e-08 2.09052e-08 -0.0065462)
(-8.89745e-08 2.96601e-08 0.0236976)
(-1.34034e-07 3.05882e-08 0.0626554)
(-1.6952e-07 2.02576e-08 0.106789)
(-1.86617e-07 1.33729e-09 0.14728)
(-1.79109e-07 -1.82272e-08 0.167017)
(-1.46204e-07 -3.00037e-08 0.151588)
(-9.764e-08 -3.06863e-08 0.104196)
(-4.98349e-08 -2.32009e-08 0.0449671)
(-1.55604e-08 -1.31054e-08 -0.00399381)
(1.5862e-09 -4.37857e-09 -0.0313908)
(4.28616e-09 2.57545e-09 -0.0387718)
(-4.29601e-09 9.64548e-09 -0.0353685)
(-2.23483e-08 1.79556e-08 -0.0322344)
(-4.66916e-08 2.58811e-08 -0.036833)
(-7.1006e-08 3.00441e-08 -0.0472288)
(-8.91833e-08 2.81087e-08 -0.050234)
(-9.9872e-08 2.01233e-08 -0.030445)
(-1.05809e-07 7.58974e-09 0.0156453)
(-1.08409e-07 -7.31927e-09 0.0741978)
(-1.0446e-07 -2.13507e-08 0.121274)
(-8.96542e-08 -3.05521e-08 0.136705)
(-6.48882e-08 -3.22469e-08 0.115875)
(-3.6958e-08 -2.65936e-08 0.070825)
(-1.42694e-08 -1.61349e-08 0.0214739)
(-2.50929e-09 -4.00208e-09 -0.0172745)
(-3.05461e-09 7.40597e-09 -0.0439103)
(-1.33437e-08 1.64341e-08 -0.067741)
(-2.80169e-08 2.17547e-08 -0.09695)
(-4.10661e-08 2.26447e-08 -0.127447)
(-4.87733e-08 1.96009e-08 -0.143617)
(-5.13134e-08 1.40642e-08 -0.131073)
(-5.1551e-08 7.28066e-09 -0.0881639)
(-5.20176e-08 -3.40793e-10 -0.0264997)
(-5.24947e-08 -8.62567e-09 0.0360358)
(-5.03003e-08 -1.65974e-08 0.0824248)
(-4.31645e-08 -2.22909e-08 0.101792)
(-3.15416e-08 -2.36128e-08 0.0922682)
(-1.86978e-08 -1.95627e-08 0.0606267)
(-8.87769e-09 -1.10439e-08 0.0171941)
(-4.97624e-09 -6.52752e-10 -0.0309009)
(-7.11041e-09 8.49406e-09 -0.0815492)
(-1.28047e-08 1.41379e-08 -0.132307)
(-1.86585e-08 1.56653e-08 -0.174343)
(-2.23779e-08 1.39643e-08 -0.194315)
(-2.37024e-08 1.05488e-08 -0.183504)
(-2.38212e-08 6.58806e-09 -0.144241)
(-2.40211e-08 2.46003e-09 -0.0878286)
(-2.45718e-08 -2.00432e-09 -0.028038)
(-2.45781e-08 -6.88944e-09 0.0235434)
(-2.28695e-08 -1.16534e-08 0.0588377)
(-1.89936e-08 -1.501e-08 0.0731443)
(-1.3711e-08 -1.54492e-08 0.0651871)
(-8.66593e-09 -1.22688e-08 0.0365722)
(-5.43483e-09 -6.30983e-09 -0.00929922)
(-4.61711e-09 3.66549e-10 -0.0671639)
(-5.61427e-09 5.65741e-09 -0.128136)
(-7.20965e-09 8.4715e-09 -0.179111)
(-8.42923e-09 8.935e-09 -0.206739)
(-9.00962e-09 7.85541e-09 -0.204138)
(-9.26813e-09 6.03708e-09 -0.174213)
(-9.63381e-09 3.89983e-09 -0.126908)
(-1.0217e-08 1.47657e-09 -0.0736869)
(-1.07043e-08 -1.34717e-09 -0.0237242)
(-1.0615e-08 -4.51009e-09 0.0166891)
(-9.63691e-09 -7.5119e-09 0.0430554)
(-7.87615e-09 -9.44627e-09 0.051865)
(-5.84624e-09 -9.47534e-09 0.0406353)
(-4.17354e-09 -7.44096e-09 0.00894081)
(-3.22628e-09 -4.05724e-09 -0.0397859)
(-2.95084e-09 -4.87733e-10 -0.0968584)
(-3.01352e-09 2.30843e-09 -0.149321)
(-3.08708e-09 3.94398e-09 -0.184299)
(-3.04716e-09 4.53063e-09 -0.194368)
(-2.97704e-09 4.38066e-09 -0.179945)
(-3.03317e-09 3.75041e-09 -0.147408)
(-3.28706e-09 2.73985e-09 -0.105196)
(-3.65427e-09 1.33364e-09 -0.0607896)
(-3.9403e-09 -4.66237e-10 -0.0199931)
(-3.9515e-09 -2.482e-09 0.0124635)
(-3.61646e-09 -4.29793e-09 0.032241)
(-3.03515e-09 -5.40111e-09 0.0354621)
(-2.41255e-09 -5.46071e-09 0.0199032)
(-1.9235e-09 -4.526e-09 -0.0131123)
(-1.61601e-09 -2.98018e-09 -0.0574577)
(-1.41876e-09 -1.30778e-09 -0.103087)
(-1.22583e-09 1.2999e-10 -0.139362)
(-9.82294e-10 1.1764e-09 -0.158944)
(-7.15783e-10 1.82547e-09 -0.159737)
(-5.08301e-10 2.12201e-09 -0.144131)
(-4.36684e-10 2.0902e-09 -0.11679)
(-5.20896e-10 1.72037e-09 -0.0827787)
(-7.07575e-10 1.00954e-09 -0.0469562)
(-8.96589e-10 2.54058e-11 -0.0141277)
(-9.95336e-10 -1.0583e-09 0.0108747)
(-9.64976e-10 -1.99915e-09 0.0231214)
(-8.30696e-10 -2.59208e-09 0.0206048)
(-6.38105e-10 -2.67108e-09 -0.000599363)
(-4.71374e-10 -2.80776e-09 -0.0266944)
(-1.60677e-10 -1.52787e-09 -0.0961413)
(-7.16425e-17 6.46495e-18 -0.0635063)
(-1.93819e-16 1.0301e-17 -0.0674458)
(-1.66019e-16 1.42159e-17 -0.071553)
(-2.32747e-16 1.07586e-17 -0.0748438)
(-1.40349e-16 1.73217e-17 -0.0767178)
(-5.85808e-16 5.71461e-17 -0.0769129)
(2.86978e-16 -9.01107e-17 -0.0755297)
(6.02195e-16 -1.05686e-16 -0.0729514)
(-3.49103e-15 2.17233e-15 -0.0697591)
(-2.76471e-15 5.60424e-16 -0.0665416)
(5.9021e-15 -3.7151e-15 -0.0637759)
(1.33981e-14 9.24668e-16 -0.0619822)
(1.34296e-14 -7.69911e-16 -0.0614042)
(1.00983e-14 -4.80734e-16 -0.0620897)
(3.8157e-15 1.91569e-16 -0.0640783)
(-5.84126e-15 1.19974e-15 -0.0672193)
(-1.72972e-14 1.87264e-15 -0.0712147)
(-1.91727e-14 1.00611e-16 -0.0756135)
(3.55143e-15 -2.33165e-15 -0.0798248)
(-7.33828e-14 2.76018e-14 -0.083229)
(-1.58542e-13 1.01105e-13 -0.0852599)
(4.6332e-13 9.50155e-14 -0.0852632)
(6.24455e-13 -3.2664e-14 -0.0826181)
(-8.9725e-15 -1.04374e-13 -0.0772925)
(-2.47762e-13 -7.07142e-14 -0.0701277)
(-9.93732e-14 -2.35171e-14 -0.0624149)
(-2.04268e-13 6.41107e-14 -0.0555472)
(-6.16012e-13 -5.55707e-14 -0.0508086)
(2.92993e-12 -1.0018e-12 -0.0491749)
(7.01081e-12 1.77623e-12 -0.0511394)
(-4.19713e-11 1.86105e-11 -0.0566607)
(-1.31637e-10 -9.02849e-12 -0.0654101)
(3.3586e-10 -3.29824e-10 -0.0776874)
(2.47296e-09 -1.04834e-09 -0.094509)
(6.18377e-09 -1.45666e-09 -0.113807)
(9.66988e-09 -6.90819e-10 -0.128125)
(1.05421e-08 7.08525e-10 -0.128891)
(7.79443e-09 1.36625e-09 -0.114458)
(3.68368e-09 1.01171e-09 -0.0925886)
(9.19546e-10 4.13003e-10 -0.0718161)
(-1.65571e-10 7.92799e-11 -0.0556133)
(-3.24316e-10 -1.97041e-11 -0.0449287)
(-6.52782e-11 -1.16715e-10 -0.0404082)
(8.04934e-10 -2.7072e-10 -0.0431802)
(1.22884e-09 4.5225e-10 -0.0521101)
(-5.75295e-09 4.65261e-09 -0.0569221)
(-3.40615e-08 1.45841e-08 -0.0361617)
(-9.25633e-08 2.66734e-08 0.026101)
(-1.68912e-07 3.01114e-08 0.118279)
(-2.32136e-07 1.67876e-08 0.202969)
(-2.51013e-07 -7.28794e-09 0.237247)
(-2.13563e-07 -2.59232e-08 0.199404)
(-1.39127e-07 -2.90518e-08 0.110664)
(-6.52543e-08 -2.03943e-08 0.0207455)
(-1.7255e-08 -9.56373e-09 -0.0342246)
(2.9052e-09 -2.65956e-09 -0.0512259)
(6.64272e-09 9.72705e-11 -0.0482295)
(3.23709e-09 2.65149e-09 -0.0414247)
(-8.07022e-09 1.01721e-08 -0.0345011)
(-3.38693e-08 2.49859e-08 -0.0247945)
(-7.42783e-08 4.27431e-08 -0.0134086)
(-1.1664e-07 5.39083e-08 -0.00188652)
(-1.46726e-07 5.11062e-08 0.0216162)
(-1.63475e-07 3.35866e-08 0.0761821)
(-1.75283e-07 5.2336e-09 0.159733)
(-1.82537e-07 -2.66722e-08 0.236908)
(-1.72287e-07 -5.10835e-08 0.262501)
(-1.35424e-07 -5.8542e-08 0.218838)
(-8.21811e-08 -4.87554e-08 0.130312)
(-3.32429e-08 -3.00326e-08 0.0405164)
(-3.33905e-09 -1.1306e-08 -0.0191309)
(4.1861e-09 4.14494e-09 -0.0439923)
(-6.99366e-09 1.76838e-08 -0.0518568)
(-2.97095e-08 2.99004e-08 -0.068208)
(-5.35771e-08 3.78762e-08 -0.106395)
(-6.80648e-08 3.82677e-08 -0.151685)
(-6.91799e-08 3.15215e-08 -0.167473)
(-6.23254e-08 2.11099e-08 -0.126009)
(-5.77561e-08 9.12852e-09 -0.0327145)
(-6.21943e-08 -5.24903e-09 0.0788982)
(-7.23953e-08 -2.21357e-08 0.168827)
(-7.70627e-08 -3.72984e-08 0.208439)
(-6.75461e-08 -4.43051e-08 0.1907)
(-4.57687e-08 -3.98587e-08 0.131349)
(-2.21302e-08 -2.58986e-08 0.0582466)
(-7.45136e-09 -7.4946e-09 -0.00733278)
(-6.39814e-09 1.00762e-08 -0.0636794)
(-1.57722e-08 2.2701e-08 -0.122727)
(-2.74496e-08 2.80025e-08 -0.188436)
(-3.39651e-08 2.61615e-08 -0.241787)
(-3.29343e-08 1.99462e-08 -0.252034)
(-2.72631e-08 1.28654e-08 -0.204009)
(-2.2215e-08 6.70226e-09 -0.11135)
(-2.19991e-08 6.50025e-10 -0.00491635)
(-2.71079e-08 -7.10031e-09 0.0866569)
(-3.36189e-08 -1.66463e-08 0.146077)
(-3.59215e-08 -2.52649e-08 0.166302)
(-3.11764e-08 -2.89624e-08 0.148635)
(-2.15571e-08 -2.51879e-08 0.101259)
(-1.23898e-08 -1.46964e-08 0.0344743)
(-8.02732e-09 -1.3146e-09 -0.0449927)
(-8.93013e-09 1.01487e-08 -0.132627)
(-1.20985e-08 1.64153e-08 -0.216866)
(-1.40089e-08 1.70889e-08 -0.274638)
(-1.31969e-08 1.4117e-08 -0.282724)
(-1.05952e-08 1.00225e-08 -0.235603)
(-8.29408e-09 6.31208e-09 -0.150431)
(-8.12019e-09 2.95887e-09 -0.0549933)
(-1.05638e-08 -9.92617e-10 0.0281047)
(-1.434e-08 -6.20431e-09 0.0878375)
(-1.70863e-08 -1.20807e-08 0.121074)
(-1.69832e-08 -1.67012e-08 0.127278)
(-1.40719e-08 -1.77969e-08 0.106141)
(-1.01236e-08 -1.43198e-08 0.0577356)
(-7.17192e-09 -7.39848e-09 -0.0157012)
(-6.02393e-09 2.48882e-10 -0.106004)
(-6.01448e-09 6.00486e-09 -0.195356)
(-5.96127e-09 8.73132e-09 -0.258803)
(-5.21172e-09 8.88428e-09 -0.276)
(-3.95157e-09 7.64754e-09 -0.243526)
(-2.88706e-09 5.98817e-09 -0.176186)
(-2.7433e-09 4.21183e-09 -0.0966995)
(-3.80377e-09 2.07109e-09 -0.0235558)
(-5.66051e-09 -7.8779e-10 0.034092)
(-7.38469e-09 -4.33792e-09 0.0736113)
(-8.09915e-09 -7.88667e-09 0.0939274)
(-7.54958e-09 -1.02338e-08 0.0924279)
(-6.21983e-09 -1.03456e-08 0.065333)
(-4.89404e-09 -8.09229e-09 0.0112605)
(-4.06172e-09 -4.39161e-09 -0.0638457)
(-3.68039e-09 -6.12471e-10 -0.144142)
(-3.40019e-09 2.21831e-09 -0.207704)
(-2.93118e-09 3.78884e-09 -0.236591)
(-2.2435e-09 4.33719e-09 -0.22588)
(-1.54899e-09 4.25604e-09 -0.184391)
(-1.15529e-09 3.78967e-09 -0.127519)
(-1.27186e-09 2.94981e-09 -0.0688483)
(-1.85645e-09 1.61869e-09 -0.016308)
(-2.61005e-09 -2.51591e-10 0.0263758)
(-3.15134e-09 -2.448e-09 0.0564954)
(-3.2525e-09 -4.45638e-09 0.0700754)
(-2.96344e-09 -5.6682e-09 0.0621908)
(-2.52826e-09 -5.72274e-09 0.0300259)
(-2.17657e-09 -4.71459e-09 -0.0230381)
(-1.97591e-09 -3.10093e-09 -0.0855664)
(-1.84002e-09 -1.41213e-09 -0.14116)
(-1.63877e-09 -4.00333e-12 -0.175629)
(-1.30372e-09 1.00737e-09 -0.183121)
(-8.7182e-10 1.6587e-09 -0.166842)
(-4.65183e-10 2.01192e-09 -0.134896)
(-2.22448e-10 2.07318e-09 -0.0952947)
(-2.14284e-10 1.79101e-09 -0.0536589)
(-3.97645e-10 1.12215e-09 -0.0139185)
(-6.40513e-10 1.19408e-10 0.0198814)
(-8.024e-10 -1.02572e-09 0.0426328)
(-8.13116e-10 -2.03427e-09 0.0481491)
(-6.9578e-10 -2.67399e-09 0.0345796)
(-5.13614e-10 -2.76198e-09 -0.00197501)
(-3.63175e-10 -2.92528e-09 -0.0407733)
(-1.20423e-10 -1.60365e-09 -0.122119)
(7.96225e-17 1.86737e-15 -0.0807435)
(2.53166e-16 1.78183e-15 -0.0859034)
(1.60937e-16 1.96234e-17 -0.0912786)
(4.66882e-16 1.72273e-15 -0.0955819)
(1.04882e-16 1.91059e-15 -0.0980271)
(-2.83421e-16 1.5267e-15 -0.0982684)
(6.11555e-15 -5.87068e-16 -0.0964345)
(-1.1285e-14 1.89368e-15 -0.0930206)
(-1.498e-14 1.67136e-15 -0.0887955)
(4.4764e-14 -6.40643e-15 -0.0845187)
(6.91886e-14 -7.98757e-15 -0.0807867)
(2.57111e-14 -3.74119e-15 -0.0783303)
(-1.63833e-14 1.56403e-15 -0.0775024)
(-5.43869e-14 4.68093e-15 -0.0783212)
(-8.96749e-14 7.86062e-15 -0.0808653)
(-1.22118e-13 1.40444e-14 -0.0849373)
(-1.32817e-13 8.63488e-15 -0.0901429)
(-4.80691e-14 -1.01126e-14 -0.0959022)
(-9.11773e-14 2.86455e-14 -0.101512)
(-5.50493e-13 8.23712e-14 -0.106197)
(5.45446e-12 -2.66559e-13 -0.109123)
(2.25021e-11 -3.89741e-13 -0.109351)
(2.95898e-11 2.33735e-13 -0.106021)
(1.61458e-11 4.33214e-13 -0.0990546)
(3.04438e-12 4.48538e-14 -0.0896096)
(-1.00755e-12 -2.507e-14 -0.0793816)
(-2.0707e-12 2.60349e-13 -0.0701333)
(2.45973e-13 -1.54047e-12 -0.0635945)
(1.24785e-11 -3.84069e-12 -0.0612016)
(-1.72889e-11 2.22254e-11 -0.0636588)
(-1.20215e-10 6.98562e-11 -0.0710259)
(2.04633e-10 -1.86436e-10 -0.0837897)
(1.02938e-09 -1.31063e-09 -0.101527)
(-2.36406e-09 -2.97298e-09 -0.115985)
(-1.54789e-08 -3.67356e-09 -0.11603)
(-2.89136e-08 -2.20298e-09 -0.110343)
(-2.66145e-08 9.89594e-10 -0.115606)
(-1.2136e-08 3.49442e-09 -0.123506)
(-9.97322e-10 3.4703e-09 -0.116667)
(1.99185e-09 1.93064e-09 -0.0960042)
(9.02178e-10 6.20294e-10 -0.0725065)
(-2.35068e-10 -4.84123e-11 -0.0552641)
(1.35451e-10 -5.69558e-10 -0.0487088)
(2.00175e-09 -6.86143e-10 -0.05377)
(7.34964e-11 3.27938e-09 -0.0624816)
(-2.15523e-08 1.81661e-08 -0.0513876)
(-7.98228e-08 4.55025e-08 0.00508505)
(-1.68007e-07 7.18135e-08 0.106089)
(-2.55431e-07 7.50415e-08 0.229474)
(-3.18967e-07 4.38471e-08 0.35655)
(-3.49508e-07 -1.09004e-08 0.454186)
(-3.31265e-07 -6.05398e-08 0.463038)
(-2.5433e-07 -7.88339e-08 0.354712)
(-1.46132e-07 -6.39108e-08 0.181754)
(-5.40656e-08 -3.52852e-08 0.032476)
(-3.29006e-09 -1.22547e-08 -0.0461123)
(1.18551e-08 -2.61984e-10 -0.0643478)
(5.95062e-09 7.93866e-09 -0.0542624)
(-1.54994e-08 2.21892e-08 -0.0408304)
(-5.101e-08 4.37883e-08 -0.0434143)
(-8.81585e-08 6.22906e-08 -0.0765477)
(-1.06376e-07 6.5884e-08 -0.124591)
(-9.82421e-08 5.40056e-08 -0.130821)
(-7.92341e-08 3.4536e-08 -0.0462942)
(-7.42321e-08 1.0868e-08 0.114939)
(-9.44596e-08 -1.97254e-08 0.281951)
(-1.23102e-07 -5.35602e-08 0.376328)
(-1.28937e-07 -7.57391e-08 0.358756)
(-9.98013e-08 -7.42913e-08 0.25075)
(-5.26699e-08 -5.25265e-08 0.115112)
(-1.41375e-08 -2.3093e-08 0.00978816)
(-8.56045e-11 4.40276e-09 -0.0478751)
(-1.02453e-08 2.65933e-08 -0.0845468)
(-3.21614e-08 4.12473e-08 -0.141716)
(-4.90267e-08 4.50588e-08 -0.230145)
(-4.99197e-08 3.78455e-08 -0.306024)
(-3.58578e-08 2.52391e-08 -0.303118)
(-1.6558e-08 1.44115e-08 -0.194519)
(-3.55712e-09 7.52421e-09 -0.0168305)
(-5.26411e-09 3.16133e-13 0.161472)
(-2.20354e-08 -1.39165e-08 0.284693)
(-4.3036e-08 -3.29767e-08 0.328223)
(-5.29047e-08 -4.78939e-08 0.294837)
(-4.52301e-08 -4.93015e-08 0.208556)
(-2.75501e-08 -3.52936e-08 0.102974)
(-1.33777e-08 -1.18681e-08 0.00108296)
(-1.05507e-08 1.15664e-08 -0.0979031)
(-1.63092e-08 2.69598e-08 -0.205082)
(-2.18671e-08 3.08512e-08 -0.31001)
(-2.0802e-08 2.53871e-08 -0.369605)
(-1.31507e-08 1.62499e-08 -0.339679)
(-3.19178e-09 8.70453e-09 -0.216612)
(4.26839e-09 4.64867e-09 -0.0438929)
(5.59763e-09 2.10565e-09 0.118692)
(-5.96146e-10 -2.81579e-09 0.230084)
(-1.17442e-08 -1.21906e-08 0.279083)
(-2.15728e-08 -2.35122e-08 0.273046)
(-2.46009e-08 -3.07951e-08 0.22501)
(-2.06551e-08 -2.8956e-08 0.146954)
(-1.44249e-08 -1.78087e-08 0.0464593)
(-1.06159e-08 -2.38261e-09 -0.0730238)
(-9.95419e-09 1.05296e-08 -0.202803)
(-9.81764e-09 1.66773e-08 -0.315826)
(-7.7459e-09 1.62146e-08 -0.370116)
(-3.56769e-09 1.22574e-08 -0.335772)
(1.2002e-09 8.0974e-09 -0.220219)
(4.72835e-09 5.35054e-09 -0.0656548)
(5.52693e-09 3.59488e-09 0.077404)
(2.84553e-09 1.1056e-09 0.176507)
(-2.58413e-09 -3.6282e-09 0.225)
(-8.3319e-09 -1.03318e-08 0.231676)
(-1.17347e-08 -1.65171e-08 0.207005)
(-1.18678e-08 -1.8879e-08 0.155144)
(-1.00006e-08 -1.57188e-08 0.0745431)
(-8.06983e-09 -8.35967e-09 -0.034603)
(-6.90489e-09 -2.12172e-10 -0.159659)
(-6.00205e-09 5.62607e-09 -0.269897)
(-4.59009e-09 8.07012e-09 -0.326394)
(-2.48855e-09 7.93015e-09 -0.305495)
(-1.13764e-10 6.69308e-09 -0.2155)
(1.86157e-09 5.43294e-09 -0.0912969)
(2.73576e-09 4.35818e-09 0.0270168)
(2.02028e-09 2.93517e-09 0.113709)
(-1.59177e-10 4.43288e-10 0.162865)
(-2.88597e-09 -3.29077e-09 0.180672)
(-4.96759e-09 -7.42945e-09 0.17446)
(-5.75e-09 -1.03859e-08 0.145438)
(-5.4803e-09 -1.08031e-08 0.0893244)
(-4.884e-09 -8.52001e-09 0.00419255)
(-4.45392e-09 -4.66406e-09 -0.0995988)
(-4.17084e-09 -8.18499e-10 -0.196033)
(-3.75398e-09 1.93383e-09 -0.253182)
(-3.00556e-09 3.36564e-09 -0.251616)
(-1.9477e-09 3.83953e-09 -0.196001)
(-7.98914e-10 3.83656e-09 -0.110482)
(9.52837e-11 3.61185e-09 -0.0232535)
(3.97868e-10 3.09043e-09 0.0469866)
(-9.3159e-13 2.00274e-09 0.0946402)
(-8.56776e-10 1.81209e-10 0.122138)
(-1.70887e-09 -2.16077e-09 0.132491)