/*--------------------------------*- C++ -*----------------------------------*\
  =========                 |
  \\      /  F ield         | OpenFOAM: The Open Source CFD Toolbox
   \\    /   O peration     | Website:  https://openfoam.org
    \\  /    A nd           | Version:  11
     \\/     M anipulation  |
\*---------------------------------------------------------------------------*/
FoamFile
{
    format      ascii;
    class       surfaceScalarField;
    location    "19.048818";
    object      phi;
}
// * * * * * * * * * * * * * * * * * * * * * * * * * * * * * * * * * * * * * //

dimensions      [0 3 -1 0 0 0 0];

internalField   nonuniform List<scalar> 
14638
(
0.00250234
-2.33932e-06
0.00250964
-7.30049e-06
0.00252238
-1.27443e-05
0.00254099
-1.86029e-05
0.00256563
-2.46422e-05
0.00259598
-3.03541e-05
0.00263101
-3.5024e-05
0.0026686
-3.75961e-05
0.00270563
-3.70302e-05
0.00273804
-3.24113e-05
0.00276152
-2.34781e-05
0.00277303
-1.15088e-05
0.00277135
1.68544e-06
0.00275717
1.41733e-05
0.00273382
2.33524e-05
0.00270677
2.70554e-05
0.00268236
2.44047e-05
0.00266637
1.59943e-05
0.0026625
3.8691e-06
0.0026713
-8.80058e-06
0.00268944
-1.81402e-05
0.00270997
-2.05365e-05
0.00272429
-1.43202e-05
0.00272529
-9.91471e-07
0.00270983
1.54522e-05
0.00267927
3.05649e-05
0.00263816
4.11081e-05
0.00259275
4.54139e-05
0.0025498
4.29453e-05
0.00251603
3.37754e-05
0.00249761
1.8417e-05
0.0024995
-1.88707e-06
0.00252397
-2.44745e-05
0.0025686
-4.46255e-05
0.00262487
-5.62689e-05
0.00267945
-5.45881e-05
0.00271849
-3.90406e-05
0.00273268
-1.41887e-05
0.00272004
1.26393e-05
0.00268518
3.48648e-05
0.00263633
4.88485e-05
0.00258258
5.37465e-05
0.00253244
5.01453e-05
0.0024936
3.88366e-05
0.00247313
2.04687e-05
0.00247693
-3.79675e-06
0.00250788
-3.09487e-05
0.0025631
-5.52233e-05
0.00263232
-6.92172e-05
0.00269951
-6.71953e-05
0.00274807
-4.85527e-05
0.00276676
-1.86956e-05
0.00275323
1.3529e-05
0.00271332
3.99186e-05
0.00265746
5.58594e-05
0.00259687
6.05873e-05
0.00254135
5.55206e-05
0.00249898
4.23669e-05
0.00247668
2.23026e-05
0.00248004
-3.36287e-06
0.00251166
-3.1614e-05
0.00256845
-5.67981e-05
0.00264021
-7.17536e-05
0.00271105
-7.08402e-05
0.00276409
-5.30405e-05
0.00278707
-2.29853e-05
0.0027762
1.08765e-05
0.00273642
3.97764e-05
0.00267857
5.78477e-05
0.00261521
6.33648e-05
0.00255746
5.77438e-05
0.002514
4.34676e-05
0.00249138
2.26177e-05
0.0024943
-2.92611e-06
0.00252437
-3.00652e-05
0.00257801
-5.36409e-05
0.00264552
-6.75051e-05
0.00271259
-6.70716e-05
0.00276422
-5.16302e-05
0.00278914
-2.49244e-05
0.00278293
6.21008e-06
0.00274869
3.42406e-05
0.00269538
5.33091e-05
0.00263476
6.06197e-05
0.00257836
5.63977e-05
0.00253568
4.26845e-05
0.00251366
2.20189e-05
0.00251651
-2.84858e-06
0.00254475
-2.82353e-05
0.00259394
-4.91949e-05
0.00265456
-6.06149e-05
0.00271381
-5.92594e-05
0.00275911
-4.5299e-05
0.00278142
-2.23082e-05
0.00277732
4.10345e-06
0.00274921
2.81083e-05
0.00270406
4.5146e-05
0.00265141
5.26549e-05
0.00260132
5.00845e-05
0.00256289
3.84391e-05
0.00254311
1.97742e-05
0.00254603
-2.92157e-06
0.00257162
-2.55826e-05
0.00261504
-4.3424e-05
0.00266723
-5.21892e-05
0.00271697
-4.97394e-05
0.00275392
-3.6949e-05
0.00277124
-1.73262e-05
0.00276691
4.33517e-06
0.00274343
2.34774e-05
0.00270662
3.68126e-05
0.00266402
4.2596e-05
0.00262363
4.03927e-05
0.00259285
3.07746e-05
0.0025776
1.52539e-05
0.00258116
-3.55859e-06
0.00260312
-2.19644e-05
0.00263895
-3.5826e-05
0.00268076
-4.18065e-05
0.00271935
-3.85926e-05
0.00274673
-2.73765e-05
0.00275805
-1.13286e-05
0.00275246
5.59257e-06
0.00273259
1.98697e-05
0.00270341
2.91801e-05
0.00267092
3.24878e-05
0.00264119
2.97321e-05
0.00261965
2.15382e-05
0.00261044
9.21424e-06
0.00261552
-5.08017e-06
0.00263393
-1.84095e-05
0.00266161
-2.76811e-05
0.00269225
-3.06353e-05
0.00271893
-2.66858e-05
0.00273606
-1.71253e-05
0.00274065
-4.59691e-06
0.0027328
7.85134e-06
0.00271513
1.76763e-05
0.00269179
2.334e-05
0.00266747
2.43125e-05
0.00264667
2.07983e-05
0.00263317
1.35066e-05
0.00262952
3.64362e-06
0.00263653
-7.0007e-06
0.00265271
-1.61889e-05
0.00267447
-2.17543e-05
0.00269679
-2.23224e-05
0.00271463
-1.78418e-05
0.00272425
-9.62088e-06
0.00272409
1.63103e-07
0.00271491
9.17572e-06
0.00269928
1.56314e-05
0.00268078
1.85059e-05
0.00266309
1.76874e-05
0.00264972
1.33703e-05
0.00264316
6.56222e-06
0.00264523
-2.07164e-06
0.00265563
-1.04027e-05
0.00267296
-1.73292e-05
-2.11452e-05
0.00250232
-4.66167e-06
0.00250958
-1.45593e-05
0.00252228
-2.54446e-05
0.00254088
-3.72021e-05
0.00256562
-4.9377e-05
0.00259622
-6.09634e-05
0.00263173
-7.05312e-05
0.00267006
-7.59198e-05
0.00270801
-7.4989e-05
0.00274138
-6.57721e-05
0.00276556
-4.76651e-05
0.00277739
-2.3332e-05
0.00277552
3.55036e-06
0.00276059
2.91007e-05
0.002736
4.79417e-05
0.00270749
5.55658e-05
0.00268175
5.01437e-05
0.00266488
3.28654e-05
0.00266087
7.88107e-06
0.00267042
-1.83467e-05
0.0026901
-3.78205e-05
0.00271253
-4.29731e-05
0.00272847
-3.02524e-05
0.00273026
-2.78328e-06
0.00271465
3.10645e-05
0.00268315
6.20609e-05
0.00264065
8.36104e-05
0.00259363
9.24313e-05
0.00254904
8.75402e-05
0.0025137
6.9107e-05
0.00249405
3.80742e-05
0.00249539
-3.22722e-06
0.00252046
-4.95475e-05
0.00256705
-9.12181e-05
0.00262632
-0.000115535
0.00268402
-0.000112292
0.00272526
-8.02771e-05
0.00274013
-2.90557e-05
0.00272672
2.60447e-05
0.00269017
7.14171e-05
0.00263927
9.97443e-05
0.00258345
0.000109565
0.00253132
0.000102278
0.00249064
7.9517e-05
0.0024687
4.2411e-05
0.00247189
-6.99237e-06
0.00250371
-6.27658e-05
0.0025615
-0.000113015
0.00263447
-0.000142186
0.00270543
-0.000138151
0.00275651
-9.96315e-05
0.00277583
-3.80188e-05
0.00276116
2.82008e-05
0.002719
8.20736e-05
0.00266058
0.000114283
0.00259758
0.000123585
0.00253993
0.000113177
0.00249563
8.66588e-05
0.00247165
4.62867e-05
0.00247389
-5.59929e-06
0.00250545
-6.31753e-05
0.00256367
-0.000115022
0.00263826
-0.000146339
0.00271264
-0.000145228
0.00276888
-0.000109272
0.00279374
-4.78472e-05
0.00278301
2.16074e-05
0.00274187
8.09086e-05
0.0026818
0.000117918
0.00261599
0.000129179
0.00255593
0.000117807
0.00251036
8.90296e-05
0.00248598
4.7007e-05
0.00248778
-4.7312e-06
0.00251783
-6.01199e-05
0.00257279
-0.000108598
0.00264264
-0.000137351
0.00271236
-0.000136799
0.00276622
-0.000105491
0.00279249
-5.11906e-05
0.00278661
1.20948e-05
0.00275179
6.9056e-05
0.00269725
0.00010785
0.002635
0.000122866
0.00257681
0.000114586
0.00253242
8.70806e-05
0.00250912
4.53175e-05
0.00251158
-5.31164e-06
0.00254067
-5.73201e-05
0.00259185
-0.000100377
0.00265498
-0.000123745
0.00271644
-0.000120723
0.002763
-9.1858e-05
0.00278545
-4.47591e-05
0.0027806
8.95164e-06
0.00275126
5.74548e-05
0.00270472
9.16818e-05
0.00265072
0.000106659
0.00259941
0.000101388
0.00256002
7.78364e-05
0.00253982
3.9973e-05
0.0025432
-6.29883e-06
0.00257028
-5.26691e-05
0.00261601
-8.91502e-05
0.00267065
-0.00010683
0.00272223
-0.000101321
0.0027599
-7.46184e-05
0.00277675
-3.41715e-05
0.00277103
1.00555e-05
0.00274573
4.87756e-05
0.0027071
7.54446e-05
0.00266297
8.67205e-05
0.0026215
8.18681e-05
0.00259021
6.20649e-05
0.00257516
3.02954e-05
0.00257981
-8.20168e-06
0.00260368
-4.58406e-05
0.00264189
-7.40295e-05
0.00268593
-8.58479e-05
0.002726
-7.86644e-05
0.00275373
-5.51114e-05
0.0027643
-2.18897e-05
0.0027571
1.27866e-05
0.00273523
4.17423e-05
0.00270407
6.03432e-05
0.00266994
6.66175e-05
0.00263912
6.05485e-05
0.00261721
4.34439e-05
0.00260847
1.79569e-05
0.00261489
-1.14965e-05
0.00263532
-3.88433e-05
0.0026653
-5.76565e-05
0.00269794
-6.3277e-05
0.00272585
-5.45929e-05
0.00274315
-3.44269e-05
0.00274691
-8.36338e-06
0.0027375
1.72705e-05
0.00271789
3.72804e-05
0.00269264
4.85956e-05
0.00266672
5.02261e-05
0.00264487
4.26544e-05
0.00263102
2.73536e-05
0.00262786
6.80077e-06
0.00263616
-1.52984e-05
0.00265424
-3.42736e-05
0.00267809
-4.55972e-05
0.0027022
-4.64334e-05
0.00272111
-3.67557e-05
0.00273088
-1.93897e-05
0.00272998
1.06523e-06
0.0027194
1.97513e-05
0.00270203
3.30039e-05
0.00268177
3.87714e-05
0.00266258
3.6873e-05
0.0026482
2.77494e-05
0.00264129
1.34725e-05
0.00264382
-4.60444e-06
0.00265534
-2.19227e-05
0.00267465
-3.66394e-05
-4.38657e-05
0.00250229
-6.94963e-06
0.00250946
-2.17293e-05
0.00252207
-3.8052e-05
0.00254065
-5.57844e-05
0.00256555
-7.4284e-05
0.00259666
-9.20679e-05
0.00263312
-0.000106993
0.0026729
-0.000115697
0.00271273
-0.00011482
0.00274801
-0.000101049
0.00277361
-7.32679e-05
0.00278604
-3.57653e-05
0.00278379
5.79864e-06
0.00276733
4.55642e-05
0.00274025
7.50219e-05
0.00270885
8.69692e-05
0.00268051
7.84839e-05
0.00266201
5.13645e-05
0.00265788
1.2006e-05
0.00266911
-2.95741e-05
0.00269203
-6.0745e-05
0.00271834
-6.92799e-05
0.0027374
-4.93099e-05
0.0027405
-5.8877e-06
0.00272416
4.74042e-05
0.0026904
9.58234e-05
0.00264482
0.000129195
0.00259446
0.000142782
0.00254663
0.000135378
0.00250841
0.000107328
0.00248662
5.98556e-05
0.00248731
-3.91465e-06
0.00251406
-7.6298e-05
0.00256506
-0.000142212
0.00263067
-0.000181145
0.00269469
-0.00017632
0.00274005
-0.000125628
0.00275565
-4.46573e-05
0.00273992
4.17703e-05
0.00269928
0.000112058
0.00264382
0.0001552
0.00258371
0.000169681
0.00252774
0.000158245
0.00248375
0.000123511
0.00245935
6.68041e-05
0.00246175
-9.39296e-06
0.00249541
-9.64206e-05
0.00255818
-0.000175782
0.00263857
-0.000222577
0.00271727
-0.000216851
0.00277369
-0.000156059
0.00279422
-5.85438e-05
0.00277675
4.56684e-05
0.00272941
0.000129411
0.00266529
0.000178402
0.00259726
0.000191623
0.00253545
0.00017498
0.00248763
0.000134479
0.00246059
7.33294e-05
0.0024607
-5.7051e-06
0.00249207
-9.45504e-05
0.00255293
-0.000175878
0.00263285
-0.000226259
0.00271394
-0.000226321
0.00277625
-0.000171582
0.00280476
-7.63553e-05
0.00279437
3.1997e-05
0.00275063
0.00012465
0.00268622
0.00018233
0.00261564
0.000199759
0.00255119
0.000182259
0.0025019
0.000138315
0.00247476
7.41448e-05
0.00247552
-5.48521e-06
0.00250702
-9.16209e-05
0.00256596
-0.00016754
0.00264121
-0.000212602
0.00271601
-0.0002116
0.0027732
-0.000162673
0.00280051
-7.85051e-05
0.00279366
1.89412e-05
0.0027565
0.000106218
0.00269887
0.000165482
0.00263328
0.000188456
0.00257186
0.000176003
0.00252479
0.000134156
0.00250006
7.00453e-05
0.00250318
-8.43297e-06
0.00253542
-8.95595e-05
0.00259168
-0.000156631
0.00266028
-0.000192353
0.00272589
-0.000186327
0.00277409
-0.000140065
0.00279557
-6.6231e-05
0.00278783
1.66834e-05
0.00275477
9.05223e-05
0.00270457
0.000141875
0.00264747
0.00016376
0.00259384
0.00015502
0.00255312
0.000118558
0.00253306
6.0031e-05
0.00253854
-1.17739e-05
0.00256969
-8.38254e-05
0.00262066
-0.000140115
0.00268028
-0.000166456
0.00273516
-0.000156199
0.00277358
-0.00011304
0.00278863
-4.92202e-05
0.00277928
1.94056e-05
0.00274958
7.84805e-05
0.00270674
0.000118277
0.00265929
0.000134177
0.00261571
0.000125444
0.00258381
9.3967e-05
0.00256991
4.41968e-05
0.00257756
-1.58526e-05
0.00260597
-7.42458e-05
0.00264928
-0.000117343
0.00269773
-0.0001343
0.00274038
-0.000121311
0.00276827
-8.30082e-05
0.0027767
-3.0317e-05
0.00276575
2.37385e-05
0.00273943
6.80654e-05
0.00270401
9.57555e-05
0.00266652
0.000104117
0.00263367
9.33977e-05
0.00261139
6.57239e-05
0.00260412
2.52219e-05
0.00261379
-2.11642e-05
0.00263872
-6.37729e-05
0.00267346
-9.23985e-05
0.00271
-9.98121e-05
0.00274
-8.45996e-05
0.00275721
-5.16311e-05
0.00275886
-1.00126e-05
0.00274591
3.02138e-05
0.00272218
6.10108e-05
0.00269297
7.78077e-05
0.00266389
7.93073e-05
0.00264011
6.64285e-05
0.00262593
4.15353e-05
0.00262419
8.54516e-06
0.00263551
-2.66179e-05
0.00265767
-5.64397e-05
0.00268576
-7.36831e-05
0.00271328
-7.3957e-05
0.00273401
-5.74866e-05
0.00274368
-2.90604e-05
0.00274093
3.81941e-06
0.00272726
3.34175e-05
0.00270624
5.4029e-05
0.00268242
6.2591e-05
0.00266034
5.89545e-05
0.00264417
4.39151e-05
0.00263689
2.07524e-05
0.00264073
-8.44097e-06
0.00265479
-3.59866e-05
0.00267828
-6.01309e-05
-6.96351e-05
0.00250223
-9.18184e-06
0.00250926
-2.87531e-05
0.0025217
-5.0497e-05
0.00254022
-7.43083e-05
0.00256535
-9.94095e-05
0.00259716
-0.00012388
0.00263504
-0.000144875
0.00267704
-0.000157688
0.00271978
-0.000157562
0.00275806
-0.000139334
0.00278589
-0.000101099
0.00279932
-4.91958e-05
0.00279654
8.5791e-06
0.00277772
6.43854e-05
0.00274675
0.000105993
0.00271081
0.000122913
0.00267837
0.000110919
0.00265728
7.24566e-05
0.00265292
1.63695e-05
0.00266675
-4.34045e-05
0.0026948
-8.87978e-05
0.00272727
-0.000101744
0.00275127
-7.33142e-05
0.00275638
-1.09939e-05
0.00273877
6.50128e-05
0.00270134
0.000133253
0.00265089
0.000179639
0.0025954
0.000198279
0.00254262
0.000188153
0.00250002
0.000149934
0.00247497
8.48999e-05
0.00247463
-3.57656e-06
0.00250408
-0.000105743
0.00256222
-0.000200352
0.00263808
-0.000257003
0.0027121
-0.000250347
0.00276368
-0.000177204
0.00278001
-6.09895e-05
0.00276021
6.15752e-05
0.00271284
0.000159426
0.00265013
0.000217909
0.0025834
0.000236413
0.0025217
0.00021994
0.00247279
0.00017243
0.0024444
9.51928e-05
0.00244438
-9.38068e-06
0.00247849
-0.000130526
0.00254606
-0.000243356
0.00263601
-0.00031252
0.00272687
-0.000307715
0.00279371
-0.000222893
0.00281882
-8.36583e-05
0.00279903
6.54622e-05
0.00274456
0.000183878
0.00267181
0.00025115
0.00259599
0.000267443
0.00252785
0.000243123
0.00247459
0.00018774
0.00244267
0.000105246
0.0024394
-2.43394e-06
0.00247079
-0.000125938
0.0025362
-0.000241294
0.0026243
-0.000314354
0.00271465
-0.00031667
0.00278469
-0.000241628
0.00281769
-0.000109351
0.0028078
4.18866e-05
0.00276087
0.000171575
0.00269085
0.000252353
0.00261381
0.000276801
0.0025432
0.000252867
0.00248876
0.000192756
0.00245833
0.000104574
0.00245899
-6.14123e-06
0.00249452
-0.000127152
0.00256095
-0.000233972
0.00264481
-0.000296462
0.00272655
-0.00029334
0.00278716
-0.00022329
0.00281414
-0.000105481
0.00280412
2.89653e-05
0.00276226
0.000148073
0.0026995
0.000228241
0.00262899
0.000258973
0.00256324
0.000241752
0.00251302
0.000184377
0.00248736
9.56964e-05
0.00249286
-1.39313e-05
0.00253094
-0.000127639
0.00259518
-0.000220866
0.00267157
-0.000268746
0.00274249
-0.000257252
0.00279224
-0.00018981
0.00281143
-8.54226e-05
0.00279866
2.94528e-05
0.00275939
0.000129797
0.00270325
0.000198015
0.00264132
0.000225688
0.00258438
0.000211955
0.00254227
0.000160674
0.00252332
7.89794e-05
0.00253284
-2.12982e-05
0.00257058
-0.000121565
0.00262919
-0.000198718
0.00269548
-0.000232752
0.00275433
-0.000215049
0.00279316
-0.000151864
0.00280517
-6.12336e-05
0.00279031
3.42698e-05
0.00275402
0.000114764
0.00270493
0.000167364
0.00265257
0.000186546
0.00260605
0.000171959
0.00257363
0.000126386
0.00256198
5.58475e-05
0.00257461
-2.848e-05
0.0026099
-0.000109543
0.00266046
-0.000167899
0.00271472
-0.000188555
0.00276037
-0.000166961
0.00278792
-0.000110559
0.00279294
-3.53431e-05
0.00277646
4.02187e-05
0.00274373
0.000100798
0.00270225
0.000137234
0.00266001
0.000146361
0.00262445
0.000128958
0.002602
8.81764e-05
0.00259734
2.9877e-05
0.00261214
-3.59601e-05
0.00264374
-9.53767e-05
0.00268517
-0.000133833
0.00272683
-0.000141468
0.00275927
-0.000117035
0.00277583
-6.81982e-05
0.00277414
-8.31682e-06
0.00275602
4.83365e-05
0.00272637
9.06534e-05
0.00269158
0.000112601
0.00265813
0.000112758
0.00263188
9.26793e-05
0.0026176
5.58107e-05
0.00261833
7.81314e-06
0.00263437
-4.2656e-05
0.00266255
-8.46193e-05
0.00269657
-0.000107703
0.00272858
-0.000105964
0.0027514
-8.03083e-05
0.00276047
-3.81336e-05
0.00275476
9.53611e-06
0.00273652
5.16586e-05
0.00271025
8.0299e-05
0.00268143
9.1409e-05
0.00265539
8.49957e-05
0.00263695
6.23541e-05
0.00262952
2.81764e-05
0.00263563
-1.45432e-05
0.00265368
-5.4042e-05
0.00268322
-8.96714e-05
-9.95518e-05
0.00250215
-1.13318e-05
0.00250895
-3.55576e-05
0.00252114
-6.26814e-05
0.00253952
-9.26906e-05
0.00256486
-0.000124748
0.00259754
-0.000156564
0.00263729
-0.000184624
0.0026823
-0.000202694
0.00272912
-0.000204385
0.00277166
-0.000181875
0.00280263
-0.000132067
0.00281748
-6.40452e-05
0.00281401
1.20508e-05
0.00279192
8.6476e-05
0.00275549
0.000142423
0.00271314
0.00016526
0.0026749
0.000149161
0.00265009
9.72693e-05
0.00264532
2.11352e-05
0.00266283
-6.09107e-05
0.00269826
-0.00012423
0.00273965
-0.000143131
0.00277079
-0.000104453
0.00277867
-1.8882e-05
0.0027591
8.45905e-05
0.00271635
0.000175999
0.00265906
0.000236929
0.00259646
0.00026088
0.00253692
0.000247688
0.00248824
0.000198621
0.0024585
0.000114638
0.00245653
-1.61182e-06
0.00248981
-0.000139019
0.00255847
-0.000269013
0.00264947
-0.000348007
0.00273803
-0.000338906
0.00279814
-0.000237317
0.00281476
-7.7601e-05
0.00278843
8.79032e-05
0.00273114
0.000216718
0.00265819
0.000290854
0.00258246
0.00031214
0.00251315
0.00028925
0.00245741
0.000228177
0.00242236
0.000130236
0.00241623
-3.24631e-06
0.00244705
-0.000161343
0.00251748
-0.00031379
0.0026179
-0.000412942
0.00272465
-0.00041446
0.00280751
-0.000305758
0.00284289
-0.000119035
0.00282429
8.40663e-05
0.00276314
0.000245027
0.00268
0.000334283
0.00259392
0.000353526
0.00251706
0.000319981
0.00245625
0.000248554
0.002418
0.000143491
0.00241162
3.95097e-06
0.00244567
-0.000159993
0.00251977
-0.000315391
0.00261962
-0.000414199
0.00272072
-0.000417775
0.0027978
-0.000318705
0.00283341
-0.000144964
0.00282221
5.30928e-05
0.00277083
0.000222953
0.00269424
0.000328941
0.00260972
0.000361317
0.00253184
0.000330747
0.00247148
0.000253116
0.00243814
0.00013792
0.00244067
-8.6756e-06
0.00248331
-0.000169788
0.00256018
-0.000310845
0.00265451
-0.000390791
0.00274373
-0.000382563
0.00280718
-0.000286741
0.00283228
-0.000130576
0.0028169
4.434e-05
0.00276807
0.000196909
0.00269825
0.000298054
0.00262147
0.000335757
0.00255071
0.000312515
0.00249747
0.000237617
0.00247203
0.000121136
0.00248191
-2.38157e-05
0.00252804
-0.000173769
0.00260186
-0.000294679
0.00268666
-0.00035355
0.00276275
-0.000333348
0.00281345
-0.000240509
0.00282947
-0.000101436
0.0028104
4.85197e-05
0.00276337
0.000176831
0.00269971
0.000261676
0.00263171
0.000293688
0.00257087
0.000272792
0.00252765
0.000203893
0.00251105
9.55794e-05
0.00252649
-3.67437e-05
0.00257265
-0.000167718
0.00264003
-0.000266096
0.00271322
-0.000305944
0.00277559
-0.000277418
0.00281404
-0.000190319
0.00282212
-6.93099e-05
0.00280072
5.56722e-05
0.00275671
0.000158771
0.00270022
0.00022385
0.00264204
0.00024473
0.00259222
0.000221783
0.0025597
0.000158906
0.00255154
6.40068e-05
0.00257089
-4.78358e-05
0.00261474
-0.000153389
0.00267354
-0.000226705
0.00273376
-0.000248771
0.0027819
-0.000215097
0.00280822
-0.000136883
0.00280882
-3.59428e-05
0.00278574
6.33024e-05
0.00274553
0.000141007
0.00269703
0.000185734
0.00264938
0.000194011
0.00261096
0.000167373
0.0025889
0.000110237
0.00258813
3.06473e-05
0.00260974
-5.75658e-05
0.00264958
-0.000135215
0.00269867
-0.000182925
0.00274563
-0.000188434
0.00278002
-0.000151425
0.00279507
-8.32431e-05
0.00278895
-2.19472e-06
0.00276451
7.27722e-05
0.00272788
0.000127284
0.00268661
0.000153871
0.00264823
0.000151136
0.00261947
0.00012144
0.00260573
6.95552e-05
0.00261018
3.36314e-06
0.0026325
-6.49787e-05
0.00266812
-0.000120245
0.00270898
-0.000148556
0.00274567
-0.000142656
0.00277016
-0.000104803
0.0027778
-4.57727e-05
0.00276807
1.92713e-05
0.00274413
7.55917e-05
0.00271157
0.000112862
0.0026769
0.000126077
0.0026464
0.000115499
0.00262569
8.30683e-05
0.00261872
3.51386e-05
0.00262822
-2.40405e-05
0.00265166
-7.74804e-05
0.00268856
-0.000126576
-0.00013408
0.00250203
-1.33665e-05
0.00250853
-4.20491e-05
0.00252031
-7.44689e-05
0.00253841
-0.000110791
0.00256389
-0.000150221
0.00259754
-0.000190214
0.00263956
-0.00022665
0.00268844
-0.000251571
0.00274071
-0.000256659
0.00278902
-0.000230185
0.00282425
-0.000167293
0.00284114
-8.09373e-05
0.00283695
1.62421e-05
0.00281057
0.000112852
0.00276677
0.000186224
0.00271572
0.000216308
0.00266956
0.00019533
0.00263955
0.00012727
0.00263401
2.66794e-05
0.00265634
-8.3245e-05
0.00270188
-0.000169767
0.00275566
-0.000196913
0.0027967
-0.000145485
0.00280831
-3.04935e-05
0.00278585
0.000107043
0.0027358
0.000226055
0.0026694
0.000303332
0.00259757
0.00033271
0.00252931
0.000315942
0.00247264
0.000255293
0.00243647
0.000150812
0.00243166
3.19535e-06
0.00246843
-0.00017579
0.00254887
-0.000349454
0.00265908
-0.000458217
0.00276855
-0.000448379
0.00284257
-0.000311332
0.00286084
-9.58746e-05
0.00282563
0.000123113
0.00275455
0.000287805
0.00266788
0.000377522
0.00258068
0.000399332
0.00250188
0.000368058
0.00243693
0.000293121
0.0023916
0.00017557
0.0023755
1.28544e-05
0.00240157
-0.000187417
0.00247672
-0.000388941
0.00259054
-0.000526761
0.0027148
-0.000538719
0.00281455
-0.000405511
0.00286214
-0.00016662
0.00284769
9.85113e-05
0.00278199
0.000310731
0.00268861
0.000427658
0.00259082
0.000451323
0.00250318
0.000407623
0.00243312
0.000318611
0.00238851
0.000188101
0.00238159
1.08731e-05
0.00242273
-0.000201138
0.00250951
-0.000402171
0.002623
-0.000527687
0.00273455
-0.000529326
0.00281678
-0.00040094
0.00285226
-0.000180443
0.00283697
6.83857e-05
0.00277915
0.000280775
0.00269493
0.000413156
0.00260239
0.00045386
0.00251692
0.00041622
0.00245087
0.000319168
0.00241593
0.000172859
0.0024226
-1.5345e-05
0.00247438
-0.000221568
0.00256238
-0.000398853
0.00266648
-0.000494886
0.00276196
-0.000478042
0.0028273
-0.000352084
0.00284992
-0.000153192
0.00282852
6.57342e-05
0.00277176
0.000253671
0.00269388
0.000375936
0.00261009
0.000419545
0.00253416
0.000388447
0.00247856
0.000293215
0.00245478
0.000144918
0.00247072
-3.97533e-05
0.00252587
-0.000228926
0.00260899
-0.000377794
0.00270092
-0.000445477
0.00278068
-0.000413109
0.00283133
-0.000291162
0.00284385
-0.000113953
0.00281851
7.38531e-05
0.00276367
0.000231671
0.00269222
0.000333133
0.00261783
0.000368072
0.00255312
0.000337506
0.00250947
0.000247543
0.00249649
0.000108553
0.00251921
-5.94588e-05
0.00257444
-0.00022295
0.00265017
-0.000341828
0.00272898
-0.000384755
0.00279338
-0.000341818
0.00283037
-0.000227304
0.00283402
-7.29595e-05
0.00280604
8.36518e-05
0.00275441
0.000210397
0.00269059
0.000287677
0.00262665
0.000308668
0.00257384
0.000274595
0.00254203
0.000190714
0.00253862
6.74181e-05
0.00256593
-7.51528e-05
0.00261891
-0.000206366
0.00268557
-0.000293363
0.00275058
-0.00031378
0.00279979
-0.000264313
0.00282374
-0.000160833
0.00281924
-3.14452e-05
0.0027893
9.32454e-05
0.0027416
0.000188712
0.00268617
0.000241162
0.00263335
0.000246832
0.00259263
0.000208094
0.00257196
0.000130901
0.00257642
2.61853e-05
0.00260609
-8.72319e-05
0.00265478
-0.000183904
0.00271125
-0.000239394
0.00276252
-0.00023971
0.0027976
-0.0001865
0.00280999
-9.5633e-05
0.00279865
9.14822e-06
0.00276744
0.000103976
0.00272362
0.000171105
0.00267587
0.000201622
0.00263281
0.000194194
0.00260217
0.000152087
0.00259002
8.16995e-05
0.00259955
-6.16286e-06
0.00262938
-9.48149e-05
0.00267309
-0.000163954
0.00272061
-0.000196076
0.00276117
-0.000183209
0.00278621
-0.000129849
0.00279133
-5.08927e-05
0.00277672
3.38833e-05
0.00274651
0.000105805
0.00270731
0.000152059
0.00266669
0.000166698
0.00263192
0.000150264
0.00260953
0.000105462
0.00260407
4.06018e-05
0.0026182
-3.81696e-05
0.00264817
-0.000107455
0.00269289
-0.000171298
-0.000172846
0.00250188
-1.52448e-05
0.00250794
-4.81081e-05
0.00251914
-8.56748e-05
0.00253675
-0.000128393
0.00256217
-0.000175646
0.00259677
-0.000224816
0.00264142
-0.000271297
0.00269507
-0.000305222
0.00275443
-0.000316013
0.00281032
-0.000286082
0.00285106
-0.000208031
0.00287063
-0.000100512
0.00286569
2.11822e-05
0.00283393
0.000144617
0.00278062
0.000239533
0.00271823
0.000278697
0.00266162
0.000251943
0.00262462
0.000164265
0.00261778
3.35228e-05
0.00264631
-0.000111774
0.00270537
-0.000228828
0.002776
-0.000267542
0.00283042
-0.000199907
0.0028468
-4.68724e-05
0.00282012
0.000133723
0.00276017
0.000286004
0.00268196
0.000381546
0.00259855
0.000416117
0.0025195
0.000394995
0.00245284
0.000321946
0.00240801
0.000195646
0.00239663
1.45736e-05
0.0024302
-0.00020936
0.0025149
-0.000434147
0.00264228
-0.000585599
0.00278036
-0.000586458
0.0028818
-0.000412773
0.00291226
-0.000126333
0.00287104
0.000164331
0.00278355
0.000375298
0.00267931
0.000481763
0.00257784
0.000500797
0.00248746
0.000458441
0.00241068
0.000369902
0.00235227
0.000233982
0.00232636
3.87604e-05
0.00235289
-0.000213943
0.00244016
-0.000476215
0.00257182
-0.000658424
0.00271258
-0.000679478
0.0028243
-0.000517234
0.00287923
-0.000221541
0.00286711
0.00011063
0.00279768
0.000380159
0.00269524
0.000530098
0.00258573
0.000560833
0.00248634
0.000507014
0.00240658
0.000398371
0.00235721
0.000237473
0.00235328
1.47947e-05
0.00240469
-0.00025254
0.00250472
-0.000502207
0.00262993
-0.000652893
0.00274936
-0.000648753
0.00283499
-0.000486577
0.00286936
-0.000214807
0.00284911
8.86351e-05
0.00278399
0.000345889
0.00269164
0.00050551
0.00259101
0.000554487
0.00249836
0.000508872
0.00242772
0.000389811
0.00239296
0.000207615
0.00240537
-2.77482e-05
0.00246646
-0.000282658
0.00256388
-0.000496272
0.00267489
-0.000605904
0.00277403
-0.000577184
0.00283999
-0.000418043
0.00286034
-0.000173538
0.00283392
9.21499e-05
0.00277016
0.000317432
0.00268471
0.000461391
0.00259419
0.000510062
0.0025136
0.000469038
0.00245669
0.000350126
0.00243592
0.000165692
0.00245875
-6.25924e-05
0.00252248
-0.000292648
0.00261303
-0.000468345
0.00270949
-0.000541944
0.00279061
-0.000494229
0.00283996
-0.000340508
0.00284901
-0.000123001
0.00281838
0.000104485
0.00275699
0.00029306
0.00267878
0.000411339
0.00259878
0.000448073
0.00253095
0.000405334
0.00248788
0.000290611
0.00247963
0.000116808
0.00251015
-8.99748e-05
0.00257383
-0.000286633
0.00265612
-0.000424119
0.00273821
-0.000466842
0.00280256
-0.000406174
0.00283688
-0.000261623
0.00283597
-7.20518e-05
0.00280213
0.000117491
0.00274401
0.000268522
0.00267397
0.000357716
0.0026053
0.000377341
0.00255053
0.000329363
0.00252061
0.000220635
0.00252305
6.49783e-05
0.00255879
-0.000110895
0.00262024
-0.000267812
0.00269302
-0.000366147
0.00276062
-0.000381376
0.00280898
-0.00031267
0.00282939
-0.000181249
0.00281955
-2.16045e-05
0.00278324
0.000129557
0.00272894
0.00024301
0.00266762
0.00030248
0.00261073
0.000303729
0.00256892
0.000249896
0.00255103
0.000148797
0.00256196
1.52572e-05
0.00260022
-0.0001255
0.0026572
-0.00024088
0.00271948
-0.000301675
0.00277306
-0.000293291
0.00280704
-0.000220479
0.00281566
-0.000104252
0.00279875
2.60593e-05
0.00276105
0.00014167
0.00271071
0.000221453
0.00265734
0.000254986
0.00261064
0.0002409
0.00257936
0.000183366
0.00257024
9.08165e-05
0.00258611
-2.20331e-05
0.00262405
-0.000132757
0.00267542
-0.000215322
0.00272828
-0.000248933
0.00277095
-0.000225882
0.00279496
-0.000153855
0.00279649
-5.24233e-05
0.00277654
5.3826e-05
0.00274012
0.000142232
0.00269471
0.000197467
0.0026488
0.000212604
0.00261069
0.00018838
0.00258779
0.000128359
0.0025852
4.31925e-05
0.0026051
-5.8068e-05
0.00264221
-0.000144571
0.00269406
-0.000223146
-0.000214555
0.00250167
-1.69166e-05
0.00250715
-5.35862e-05
0.00251753
-9.60568e-05
0.00253433
-0.000145188
0.00255939
-0.000200707
0.00259478
-0.000260206
0.00264228
-0.000318799
0.00270167
-0.000364616
0.00277013
-0.00038447
0.00283593
-0.000351885
0.00288384
-0.00025594
0.0029072
-0.000123868
0.00290177
2.66082e-05
0.00286322
0.000183167
0.00279749
0.000305266
0.00272027
0.000355917
0.00265
0.000322212
0.00260364
0.000210626
0.00259457
4.25872e-05
0.00263076
-0.000147956
0.00270762
-0.000305696
0.00280093
-0.000360849
0.00287338
-0.000272356
0.00289586
-6.93494e-05
0.0028631
0.000166476
0.00278995
0.000359156
0.00269672
0.000474782
0.00259917
0.000513667
0.00250727
0.00048689
0.00242871
0.000400504
0.00237162
0.00025274
0.00234496
4.12328e-05
0.00236146
-0.000225857
0.0024374
-0.000510091
0.00257595
-0.000724148
0.00274674
-0.000757248
0.0028902
-0.000556231
0.00295159
-0.000187721
0.00291727
0.000198644
0.0028168
0.000475768
0.00269281
0.000605754
0.00257402
0.000619585
0.00246957
0.000562897
0.00237895
0.000460522
0.00230792
0.00030501
0.00227769
6.89911e-05
0.00231303
-0.000249289
0.00241786
-0.000581041
0.00256714
-0.000807707
0.00272037
-0.000832706
0.00283862
-0.000635479
0.00289541
-0.00027834
0.00288189
0.000124156
0.00280789
0.000454155
0.00269744
0.000640549
0.0025773
0.000680973
0.00246671
0.000617601
0.00237836
0.00048672
0.00232673
0.000289105
0.00232838
1.31448e-05
0.00239024
-0.000314399
0.00250055
-0.00061251
0.00263279
-0.000785137
0.00275603
-0.000771995
0.00284325
-0.000573798
0.00287701
-0.000248564
0.0028534
0.00011224
0.00278245
0.00041684
0.00268294
0.000605022
0.00257506
0.00066237
0.00247634
0.000607588
0.00240272
0.000463433
0.00236977
0.000240559
0.00238841
-4.63854e-05
0.00245734
-0.000351588
0.00256102
-0.000599955
0.00267527
-0.000720154
0.00277504
-0.000676952
0.00284009
-0.000483093
0.00285847
-0.000191917
0.00282875
0.000121874
0.00276017
0.000386013
0.002669
0.00055256
0.00257313
0.000605927
0.00248911
0.000553061
0.00243218
0.000407058
0.0024154
0.000182471
0.00244503
-9.22241e-05
0.00251567
-0.000363287
0.00261084
-0.00056352
0.00270878
-0.000639884
0.00278882
-0.000574262
0.0028356
-0.000387295
0.00284133
-0.000128725
0.00280673
0.000139082
0.00274075
0.000359045
0.00265774
0.000494342
0.00257378
0.000532037
0.00250426
0.000474852
0.00246303
0.000331845
0.00246023
0.000119609
0.00249816
-0.000127912
0.00256854
-0.000357006
0.00265468
-0.000510263
0.00273723
-0.000549395
0.00279941
-0.000468351
0.00283003
-0.000292246
0.00282474
-6.67566e-05
0.0027862
0.000156033
0.0027233
0.000331423
0.00264889
0.000432121
0.00257721
0.000449019
0.00252209
0.000384488
0.00249543
0.000247292
0.00250446
5.59462e-05
0.00254817
-0.0001546
0.00261625
-0.000335891
0.00269245
-0.000442347
0.00275991
-0.000448841
0.00280542
-0.000358176
0.00282141
-0.000197236
0.00280643
-6.62709e-06
0.00276481
0.000171174
0.00270547
0.000302352
0.00263998
0.000367965
0.00258075
0.00036296
0.0025396
0.00029105
0.002526
0.000162394
0.00254423
-2.96986e-06
0.00259067
-0.000171943
0.00265415
-0.000304356
0.00271963
-0.00036716
0.00277295
-0.000346603
0.00280399
-0.000251522
0.00280804
-0.000108305
0.00278577
4.83297e-05
0.00274254
0.000184902
0.00268704
0.000276956
0.00262962
0.000312402
0.00258094
0.000289583
0.00255076
0.000213547
0.00254622
9.53569e-05
0.00256928