/*--------------------------------*- C++ -*----------------------------------*\
  =========                 |
  \\      /  F ield         | OpenFOAM: The Open Source CFD Toolbox
   \\    /   O peration     | Website:  https://openfoam.org
    \\  /    A nd           | Version:  11
     \\/     M anipulation  |
\*---------------------------------------------------------------------------*/
FoamFile
{
    format      ascii;
    class       surfaceScalarField;
    location    "19.048818";
    object      phi_0;
}
// * * * * * * * * * * * * * * * * * * * * * * * * * * * * * * * * * * * * * //

dimensions      [0 3 -1 0 0 0 0];

internalField   nonuniform List<scalar> 
14638
(
0.00250235
-2.34694e-06
0.00250967
-7.32211e-06
0.00252244
-1.27753e-05
0.00254108
-1.86357e-05
0.00256575
-2.46666e-05
0.00259611
-3.03594e-05
0.00263111
-3.49994e-05
0.00266864
-3.7534e-05
0.00270557
-3.69262e-05
0.00273784
-3.22695e-05
0.00276114
-2.33097e-05
0.00277249
-1.13412e-05
0.00277067
1.81371e-06
0.00275646
1.42141e-05
0.0027332
2.3254e-05
0.00270641
2.67902e-05
0.00268243
2.39828e-05
0.00266696
1.54724e-05
0.00266361
3.34846e-06
0.00267279
-9.18378e-06
0.00269104
-1.82413e-05
0.0027113
-2.02613e-05
0.00272499
-1.36955e-05
0.00272517
-1.72833e-07
0.00270891
1.62564e-05
0.00267772
3.11841e-05
0.00263628
4.1447e-05
0.00259084
4.54385e-05
0.00254818
4.2656e-05
0.00251499
3.31906e-05
0.00249741
1.75792e-05
0.0025003
-2.88747e-06
0.00252576
-2.54629e-05
0.0025711
-4.53397e-05
0.00262755
-5.64418e-05
0.00268164
-5.40954e-05
0.00271964
-3.80006e-05
0.00273255
-1.29133e-05
0.00271875
1.38048e-05
0.00268306
3.56873e-05
0.00263382
4.92449e-05
0.00258009
5.37318e-05
0.00253032
4.97626e-05
0.0024922
3.81192e-05
0.00247275
1.94515e-05
0.00247778
-5.0252e-06
0.00250996
-3.21824e-05
0.0025661
-5.61376e-05
0.00263558
-6.94814e-05
0.00270223
-6.66522e-05
0.00274956
-4.73333e-05
0.00276673
-1.71695e-05
0.0027518
1.49337e-05
0.0027109
4.08971e-05
0.0026546
5.63043e-05
0.00259406
6.05386e-05
0.00253899
5.50669e-05
0.00249742
4.15757e-05
0.0024762
2.12196e-05
0.00248085
-4.6507e-06
0.00251375
-3.29055e-05
0.00257153
-5.77774e-05
0.00264363
-7.20963e-05
0.002714
-7.03744e-05
0.00276586
-5.18565e-05
0.00278727
-2.14147e-05
0.00277487
1.24005e-05
0.00273398
4.08929e-05
0.0026756
5.83826e-05
0.00261227
6.33306e-05
0.00255502
5.72521e-05
0.00251238
4.26319e-05
0.00249086
2.1521e-05
0.00249504
-4.18174e-06
0.00252633
-3.12897e-05
0.00258089
-5.45576e-05
0.00264873
-6.78437e-05
0.00271543
-6.66957e-05
0.00276604
-5.0611e-05
0.00278956
-2.35206e-05
0.00278192
7.64563e-06
0.00274654
3.53788e-05
0.0026926
5.39397e-05
0.00263191
6.06863e-05
0.00257595
5.59647e-05
0.00253408
4.18673e-05
0.00251314
2.09388e-05
0.00251719
-4.0487e-06
0.00254654
-2.93542e-05
0.00259653
-4.99874e-05
0.0026574
-6.08726e-05
0.00271631
-5.89036e-05
0.00276073
-4.4419e-05
0.00278185
-2.11254e-05
0.00277654
5.31424e-06
0.00274744
2.90982e-05
0.00270169
4.57443e-05
0.00264891
5.27864e-05
0.00259915
4.97594e-05
0.00256142
3.77286e-05
0.00254263
1.87935e-05
0.00254664
-4.009e-06
0.0025732
-2.65653e-05
0.00261728
-4.40802e-05
0.00266964
-5.23589e-05
0.00271903
-4.93887e-05
0.00275521
-3.6183e-05
0.00277156
-1.63448e-05
0.00276625
5.30857e-06
0.00274199
2.42576e-05
0.00270471
3.72819e-05
0.00266201
4.27024e-05
0.00262187
4.01354e-05
0.00259167
3.01963e-05
0.00257723
1.44449e-05
0.00258168
-4.45169e-06
0.00260443
-2.27524e-05
0.00264076
-3.63237e-05
0.00268265
-4.18957e-05
0.00272092
-3.82663e-05
0.00274766
-2.67382e-05
0.00275821
-1.05491e-05
0.00275187
6.33475e-06
0.00273144
2.04369e-05
0.00270194
2.94945e-05
0.00266942
3.25231e-05
0.00263992
2.94977e-05
0.00261885
2.10725e-05
0.00261026
8.5918e-06
0.002616
-5.74185e-06
0.00263496
-1.89648e-05
0.00266296
-2.79966e-05
0.0026936
-3.06364e-05
0.00271998
-2.63851e-05
0.00273659
-1.66144e-05
0.00274061
-4.0111e-06
0.00273223
8.37935e-06
0.00271418
1.80504e-05
0.00269066
2.35119e-05
0.00266639
2.42736e-05
0.00264582
2.05662e-05
0.0026327
1.312e-05
0.00262954
3.16744e-06
0.00263701
-7.47377e-06
0.00265356
-1.65527e-05
0.00267548
-2.192e-05
0.00269773
-2.22509e-05
0.00271529
-1.7559e-05
0.0027245
-9.20737e-06
0.0027239
6.01582e-07
0.00271436
9.5421e-06
0.0026985
1.58609e-05
0.00267993
1.8571e-05
0.00266233
1.75917e-05
0.0026492
1.31339e-05
0.00264297
6.22899e-06
0.00264543
-2.45848e-06
0.00265616
-1.07354e-05
0.00267378
-1.76144e-05
-2.10884e-05
0.00250233
-4.67703e-06
0.00250961
-1.46029e-05
0.00252234
-2.55073e-05
0.00254098
-3.72687e-05
0.00256574
-4.94272e-05
0.00259635
-6.09754e-05
0.00263184
-7.04833e-05
0.0026701
-7.57965e-05
0.00270795
-7.47805e-05
0.00274117
-6.54859e-05
0.00276518
-4.73229e-05
0.00277683
-2.29882e-05
0.00277483
3.81774e-06
0.00275985
2.9193e-05
0.00273535
4.7751e-05
0.00270711
5.50328e-05
0.0026818
4.92869e-05
0.00266548
3.1798e-05
0.00266202
6.80829e-06
0.00267198
-1.91452e-05
0.00269178
-3.80422e-05
0.00271394
-4.24169e-05
0.00272921
-2.89712e-05
0.00273014
-1.10157e-06
0.00271368
3.27121e-05
0.00268154
6.33246e-05
0.00263869
8.43001e-05
0.00259165
9.24838e-05
0.00254734
8.69589e-05
0.00251261
6.79272e-05
0.00249381
3.63748e-05
0.00249619
-5.27213e-06
0.00252232
-5.15855e-05
0.00256968
-9.27045e-05
0.00262915
-0.000115906
0.00268633
-0.000111283
0.00272647
-7.81332e-05
0.00273999
-2.64317e-05
0.00272536
2.84304e-05
0.00268796
7.3088e-05
0.00263666
0.000100542
0.00258086
0.000109531
0.00252912
0.000101507
0.00248917
7.80717e-05
0.00246827
4.03491e-05
0.00247275
-9.50535e-06
0.00250588
-6.53121e-05
0.00256466
-0.000114917
0.00263792
-0.000142744
0.0027083
-0.000137031
0.00275808
-9.7111e-05
0.00277578
-3.48743e-05
0.00275964
3.10787e-05
0.00271647
8.40606e-05
0.0026576
0.000115172
0.00259467
0.000123473
0.00253748
0.000112258
0.00249399
8.5067e-05
0.0024711
4.41032e-05
0.00247467
-8.21471e-06
0.00250759
-6.58233e-05
0.00256686
-0.000117056
0.00264185
-0.000147081
0.00271578
-0.000144308
0.00277079
-0.000106862
0.002794
-4.46271e-05
0.00278166
2.47396e-05
0.00273935
8.32027e-05
0.00267872
0.000119015
0.00261294
0.000129112
0.00255338
0.000116814
0.00250866
8.73465e-05
0.00248539
4.47934e-05
0.00248849
-7.2823e-06
0.00251983
-6.26266e-05
0.00257576
-0.000110487
0.00264597
-0.00013806
0.00271532
-0.000136044
0.00276813
-0.000103423
0.00279295
-4.83408e-05
0.00278559
1.50088e-05
0.0027496
7.13681e-05
0.0026944
0.000109137
0.00263207
0.000123014
0.00257431
0.000113725
0.00253074
8.54376e-05
0.00250855
4.31289e-05
0.00251227
-7.76116e-06
0.00254253
-5.96144e-05
0.00259454
-0.000102002
0.00265793
-0.000124264
0.00271901
-0.00011998
0.00276464
-9.00484e-05
0.00278586
-4.2348e-05
0.00277977
1.1402e-05
0.00274942
5.94456e-05
0.00270229
9.28781e-05
0.00264816
0.000106918
0.00259719
0.000100731
0.00255852
7.63998e-05
0.00253933
3.79809e-05
0.00254384
-8.51866e-06
0.00257195
-5.46791e-05
0.00261836
-9.04857e-05
0.00267316
-0.000107158
0.00272435
-0.000100578
0.00276119
-7.30303e-05
0.00277701
-3.21594e-05
0.00277029
1.20321e-05
0.0027442
5.03435e-05
0.00270511
7.63738e-05
0.00266089
8.69147e-05
0.0026197
8.13303e-05
0.00258902
6.08791e-05
0.00257482
2.86409e-05
0.0025804
-1.00281e-05
0.00260509
-4.7448e-05
0.0026438
-7.50329e-05
0.00268791
-8.60044e-05
0.00272761
-7.79662e-05
0.00275465
-5.37807e-05
0.00276439
-2.02843e-05
0.00275642
1.42994e-05
0.00273398
4.28846e-05
0.00270251
6.09622e-05
0.00266837
6.66664e-05
0.00263781
6.00498e-05
0.00261641
4.2476e-05
0.00260833
1.66715e-05
0.00261545
-1.28575e-05
0.00263646
-3.99777e-05
0.00266675
-5.82873e-05
0.00269937
-6.32533e-05
0.00272693
-5.39469e-05
0.00274367
-3.33557e-05
0.00274681
-7.15001e-06
0.00273684
1.83524e-05
0.00271685
3.80364e-05
0.00269143
4.89314e-05
0.00266558
5.01278e-05
0.00264398
4.21604e-05
0.00263056
2.65438e-05
0.00262792
5.80888e-06
0.00263672
-1.62792e-05
0.00265519
-3.50212e-05
0.0026792
-4.59268e-05
0.00270321
-4.62661e-05
0.0027218
-3.61505e-05
0.00273112
-1.85189e-05
0.00272974
1.97952e-06
0.00271877
2.05082e-05
0.00270116
3.34715e-05
0.00268084
3.8896e-05
0.00266176
3.6664e-05
0.00264765
2.72496e-05
0.00264111
1.27714e-05
0.00264406
-5.41467e-06
0.00265595
-2.26212e-05
0.00267556
-3.72289e-05
-4.37462e-05
0.0025023
-6.97298e-06
0.00250949
-2.17956e-05
0.00252213
-3.81476e-05
0.00254075
-5.58865e-05
0.00256568
-7.43622e-05
0.0025968
-9.20892e-05
0.00263324
-0.000106924
0.00267295
-0.000115514
0.00271268
-0.000114506
0.00274781
-0.000100614
0.00277323
-7.27411e-05
0.00278547
-3.5229e-05
0.00278306
6.22607e-06
0.00276652
4.57288e-05
0.00273952
7.47498e-05
0.00270839
8.61622e-05
0.00268052
7.71647e-05
0.00266261
4.97033e-05
0.0026591
1.03177e-05
0.00267081
-3.08509e-05
0.00269389
-6.1123e-05
0.0027199
-6.84248e-05
0.00273822
-4.73004e-05
0.00274037
-3.24793e-06
0.00272311
4.9975e-05
0.00268865
9.77779e-05
0.0026427
0.000130252
0.00259233
0.00014286
0.00254479
0.000134492
0.00250719
0.000105526
0.00248633
5.72424e-05
0.00248815
-7.09402e-06
0.00251607
-7.95072e-05
0.00256795
-0.000144583
0.0026338
-0.000181757
0.00269725
-0.00017473
0.00274135
-0.000122236
0.00275545
-4.05271e-05
0.00273839
4.54859e-05
0.00269686
0.00011462
0.00264101
0.000156394
0.00258093
0.000169607
0.00252537
0.000157063
0.00248214
0.000121308
0.00245885
6.36401e-05
0.00246264
-1.32956e-05
0.00249775
-0.000100428
0.00256166
-0.00017882
0.00264242
-0.000223505
0.00272049
-0.000215099
0.00277543
-0.00015206
0.00279413
-5.35656e-05
0.00277502
5.01803e-05
0.00272661
0.000132471
0.00266207
0.000179721
0.00259413
0.000191404
0.00253284
0.000173556
0.00248584
0.000132063
0.00245993
7.0017e-05
0.00246143
-9.71408e-06
0.00249427
-9.86708e-05
0.00255632
-0.000179104
0.00263674
-0.000227505
0.00271741
-0.00022497
0.00277842
-0.000167875
0.00280514
-7.13453e-05
0.00279298
3.68946e-05
0.00274795
0.000128241
0.00268292
0.000184043
0.00261237
0.000199658
0.00254844
0.000180741
0.00250004
0.00013575
0.00247408
7.07578e-05
0.00247622
-9.42658e-06
0.00250912
-9.55282e-05
0.00256913
-0.000170496
0.00264478
-0.000213705
0.00271915
-0.000210416
0.00277519
-0.000159463
0.00280096
-7.41152e-05
0.00279257
2.3405e-05
0.00275419
0.000109748
0.00269588
0.000167446
0.0026302
0.000188691
0.00256922
0.000174703
0.00252301
0.000131651
0.00249947
6.66748e-05
0.00250394
-1.22394e-05
0.00253746
-9.31357e-05
0.00259461
-0.000159144
0.00266345
-0.00019311
0.00272857
-0.000185101
0.00277573
-0.000137203
0.00279587
-6.24866e-05
0.00278684
2.0432e-05
0.00275276
9.35247e-05
0.00270199
0.000143648
0.00264479
0.000164113
0.00259153
0.000153992
0.00255159
0.000116343
0.00253262
5.69506e-05
0.00253932
-1.5219e-05
0.00257158
-8.6939e-05
0.00262325
-0.000142153
0.00268298
-0.000166895
0.00273736
-0.000154959
0.00277484
-0.000110507
0.00278876
-4.60737e-05
0.00277834
2.24446e-05
0.00274784
8.08454e-05
0.00270458
0.000119637
0.00265709
0.000134408
0.00261385
0.000124562
0.00258263
9.20996e-05
0.00256966
4.16121e-05
0.00257833
-1.86935e-05
0.0026076
-7.67239e-05
0.00265142
-0.00011885
0.00269988
-0.000134462
0.00274205
-0.000120139
0.00276914
-8.0872e-05
0.00277665
-2.77926e-05
0.00276487
2.60758e-05
0.00273797
6.97925e-05
0.00270228
9.66519e-05
0.00266482
0.000104127
0.0026323
9.25642e-05
0.00261061
6.41711e-05
0.00260409
2.31867e-05
0.00261453
-2.32983e-05
0.00264008
-6.55243e-05
0.00267512
-9.33309e-05
0.00271157
-9.96991e-05
0.00274113
-8.35118e-05
0.00275767
-4.98978e-05
0.00275861
-8.08954e-06
0.00274507
3.18973e-05
0.00272095
6.21587e-05
0.00269159
7.82844e-05
0.00266262
7.91019e-05
0.00263917
6.5606e-05
0.00262549
4.0223e-05
0.00262435
6.95611e-06
0.00263624
-2.81727e-05
0.00265882
-5.76027e-05
0.00268706
-7.41618e-05
0.00271443
-7.3636e-05
0.00273475
-5.64742e-05
0.00274388
-2.76436e-05
0.00274057
5.28166e-06
0.00272647
3.46083e-05
0.0027052
5.47462e-05
0.00268134
6.27577e-05
0.00265941
5.85911e-05
0.00264357
4.30924e-05
0.00263673
1.96101e-05
0.00264106
-9.74721e-06
0.00265555
-3.71134e-05
0.00267938
-6.10514e-05
-6.94346e-05
0.00250224
-9.21356e-06
0.00250929
-2.88433e-05
0.00252177
-5.06274e-05
0.00254033
-7.44487e-05
0.00256549
-9.95192e-05
0.00259731
-0.000123915
0.00263518
-0.000144789
0.00267711
-0.000157448
0.00271975
-0.000157142
0.00275788
-0.000138743
0.00278551
-0.000100372
0.00279872
-4.84419e-05
0.00279575
9.19933e-06
0.00277682
6.46558e-05
0.00274591
0.000105657
0.00271025
0.000121823
0.00267832
0.000109095
0.0026579
7.01278e-05
0.00265425
1.39671e-05
0.00266866
-4.5261e-05
0.00269693
-8.93909e-05
0.00272906
-0.000100562
0.00275222
-7.046e-05
0.00275622
-7.24362e-06
0.00273756
6.8632e-05
0.00269937
0.000135967
0.00264854
0.000181083
0.00259303
0.000198375
0.00254058
0.00018694
0.00249863
0.000147471
0.00247458
8.12959e-05
0.00247552
-8.02974e-06
0.00250633
-0.000110319
0.00256553
-0.000203785
0.00264169
-0.000257913
0.00271502
-0.000248064
0.00276511
-0.000172329
0.00277969
-5.51051e-05
0.00275839
6.67872e-05
0.00271007
0.000162935
0.00264699
0.00021948
0.00258034
0.000236254
0.0025191
0.000218306
0.00247097
0.000169432
0.00244375
9.08673e-05
0.00244524
-1.4786e-05
0.002481
-0.000136186
0.00254995
-0.000247779
0.00264047
-0.000314025
0.00273073
-0.000305358
0.00279588
-0.000217206
0.00281881
-7.6495e-05
0.00279707
7.19217e-05
0.00274137
0.000188167
0.00266819
0.000252902
0.00259255
0.000267048
0.00252497
0.000241135
0.00247256
0.000184473
0.0024418
0.00010077
0.00244003
-7.94118e-06
0.00247308
-0.000131716
0.00253988
-0.000245906
0.00262859
-0.000316214
0.0027185
-0.00031488
0.00278714
-0.000236523
0.00281819
-0.000102393
0.00280636
4.87268e-05
0.00275799
0.00017661
0.00268727
0.000254762
0.00261025
0.000276681
0.00254019
0.000250795
0.00248669
0.00018925
0.00245755
9.99039e-05
0.00245976
-1.16421e-05
0.00249688
-0.000132641
0.00256448
-0.000238102
0.00264872
-0.000297941
0.0027299
-0.000291598
0.0027892
-0.000218766
0.00281449
-9.94032e-05
0.00280283
3.50684e-05
0.00275972
0.000152855
0.00269628
0.000230882
0.0026257
0.000259278
0.00256042
0.00023998
0.00251113
0.000180942
0.00248679
9.10194e-05
0.0024938
-1.92558e-05
0.0025333
-0.000132633
0.00259847
-0.000224313
0.00267504
-0.000269675
0.00274533
-0.000255394
0.00279384
-0.000185714
0.00281154
-8.01906e-05
0.00279739
3.45872e-05
0.00275709
0.000133824
0.00270041
0.000200327
0.00263845
0.000226071
0.00258196
0.00021048
0.00254072
0.000157583
0.00252299
7.4685e-05
0.00253387
-2.60997e-05
0.0025728
-0.00012587
0.00263211
-0.000201459
0.00269843
-0.000233213
0.00275663
-0.000213163
0.00279434
-0.00014822
0.00280508
-5.68129e-05
0.00278907
3.8453e-05
0.00275198
0.00011794
0.0027025
0.000169111
0.00265018
0.000186733
0.00260411
0.000170632
0.00257249
0.000123716
0.0025619
5.22027e-05
0.00257566
-3.24476e-05
0.00261188
-0.000112947
0.00266291
-0.000169883
0.00271707
-0.00018862
0.0027621
-0.000165166
0.00278869
-0.000107465
0.00279267
-3.17769e-05
0.0027753
4.34507e-05
0.00274197
0.000103121
0.00270026
0.000138367
0.00265813
0.000146251
0.00262301
0.000127682
0.00260127
8.59125e-05
0.00259749
2.69641e-05
0.00261316
-3.8967e-05
0.00264542
-9.77843e-05
0.00268712
-0.00013503
0.00272859
-0.000141163
0.00276044
-0.000115366
0.00277621
-6.56643e-05
0.00277369
-5.57559e-06
0.00275491
5.06825e-05
0.00272486
9.22025e-05
0.00268997
0.000113182
0.0026567
0.000112373
0.00263087
9.14276e-05
0.00261722
5.38774e-05
0.00261867
5.50971e-06
0.00263537
-4.48727e-05
0.00266399
-8.62293e-05
0.00269813
-0.000108295
0.00272989
-0.000105397
0.00275218
-7.87665e-05
0.00276058
-3.60495e-05
0.00275422
1.16419e-05
0.00273549
5.33382e-05
0.00270896
8.12763e-05
0.00268013
9.15884e-05
0.00265431
8.44142e-05
0.00263628
6.11183e-05
0.00262941
2.64847e-05
0.00263611
-1.64484e-05
0.00265468
-5.56794e-05
0.00268457
-9.09459e-05
-9.92338e-05
0.00250216
-1.13723e-05
0.00250899
-3.5673e-05
0.00252121
-6.2849e-05
0.00253963
-9.28728e-05
0.00256501
-0.000124894
0.00259771
-0.000156618
0.00263745
-0.000184527
0.0026824
-0.000202402
0.00272912
-0.000203859
0.0027715
-0.000181121
0.00280224
-0.000131119
0.00281684
-6.30396e-05
0.00281313
1.29102e-05
0.00279089
8.69015e-05
0.00275449
0.000142053
0.00271244
0.000163878
0.00267475
0.000146778
0.00265071
9.41697e-05
0.0026468
1.78766e-05
0.00266504
-6.34962e-05
0.00270077
-0.000125129
0.0027418
-0.000141583
0.00277192
-0.000100583
0.00277847
-1.37989e-05
0.00275767
8.94363e-05
0.00271407
0.000179565
0.00265637
0.000238783
0.00259377
0.000260981
0.00253459
0.000246119
0.00248661
0.00019545
0.00245796
0.000109943
0.00245747
-7.53749e-06
0.00249241
-0.000145256
0.00256241
-0.000273788
0.0026538
-0.000349302
0.00274147
-0.000335741
0.00279973
-0.000230586
0.00281422
-6.95968e-05
0.00278618
9.48356e-05
0.00272788
0.000221233
0.0026546
0.000292755
0.00257903
0.000311822
0.00251023
0.000287111
0.0024553
0.000224361
0.00242143
0.000124734
0.00241688
-1.02331e-05
0.00244957
-0.000168877
0.00252173
-0.000319943
0.00262307
-0.000415357
0.00272936
-0.000411655
0.00281041
-0.000298254
0.00284322
-0.000109301
0.00282221
9.29259e-05
0.00275953
0.000250848
0.00267589
0.000336549
0.00259004
0.000352898
0.00251381
0.000317357
0.00245389
0.000244394
0.00241689
0.00013777
0.0024122
-3.25147e-06
0.00244819
-0.000167704
0.00252389
-0.0003216
0.00262438
-0.000416713
0.00272494
-0.000415433
0.00280044
-0.000312023
0.00283393
-0.000135888
0.00282064
6.20193e-05
0.0027677
0.000229547
0.00269034
0.000332119
0.00260583
0.0003612
0.00252853
0.000328095
0.00246919
0.000248582
0.00243731
0.000131793
0.00244164
-1.59745e-05
0.00248606
-0.000177066
0.00256419
-0.000316229
0.00265882
-0.000392574
0.00274731
-0.000380082
0.00280922
-0.000280682
0.00283244
-0.000122621
0.00281532
5.21931e-05
0.0027652
0.00020297
0.00269474
0.000301347
0.00261793
0.000336085
0.0025477
0.000310206
0.00249551
0.000233139
0.00247154
0.000114982
0.00248314
-3.08477e-05
0.00253081
-0.000180308
0.00260557
-0.000299069
0.00269044
-0.000354546
0.00276572
-0.000330681
0.00281499
-0.000234982
0.00282935
-9.4545e-05
0.00280879
5.51462e-05
0.00276071
0.000181906
0.00269655
0.00026448
0.00262861
0.000294015
0.00256833
0.000270757
0.00252613
0.000199783
0.00251091
8.99059e-05
0.00252786
-4.30477e-05
0.00257527
-0.000173282
0.00264331
-0.000269503
0.0027164
-0.000306301
0.00277795
-0.000274714
0.00281512
-0.000185389
0.00282178
-6.34703e-05
0.00279914
6.10881e-05
0.00275431
0.000162776
0.00269748
0.000225937
0.00263944
0.000244778
0.00259019
0.000219876
0.00255864
0.000155274
0.0025517
5.91381e-05
0.00257231
-5.30528e-05
0.00261711
-0.000157755
0.00267633
-0.0002291
0.00273631
-0.0002486
0.00278365
-0.000212508
0.00280886
-0.000132667
0.00280829
-3.12087e-05
0.00278424
6.75004e-05
0.00274342
0.000143935
0.00269474
0.000187054
0.0026473
0.000193685
0.00260947
0.000165519
0.00258828
0.000107101
0.00258854
2.67008e-05
0.00261113
-6.15525e-05
0.00265164
-0.0001383
0.00270093
-0.000184314
0.00274756
-0.000187797
0.00278121
-0.000149012
0.0027953
-7.97569e-05
0.00278825
1.47819e-06
0.00276309
7.58413e-05
0.00272605
0.000129238
0.00268472
0.000154509
0.00264662
0.000150478
0.00261842
0.00011963
0.00260544
6.68515e-05
0.00261075
2.04493e-07
0.00263382
-6.79498e-05
0.00266991
-0.000122317
0.00271081
-0.000149195
0.00274713
-0.000141718
0.00277095
-0.000102586
0.00277779
-4.28853e-05
0.00276731
2.21221e-05
0.00274283
7.78147e-05
0.00271
0.000114104
0.00267536
0.000126227
0.00264516
0.000114616
0.00262498
8.1303e-05
0.0026187
3.27607e-05
0.00262892
-2.66671e-05
0.00265296
-7.97147e-05
0.00269022
-0.000128207
-0.000133584
0.00250204
-1.34164e-05
0.00250856
-4.21913e-05
0.00252039
-7.46766e-05
0.00253854
-0.000111019
0.00256405
-0.000150408
0.00259773
-0.000190294
0.00263975
-0.00022655
0.00268858
-0.000251232
0.00274075
-0.000256029
0.00278889
-0.000229259
0.00282387
-0.000166098
0.00284046
-7.96357e-05
0.00283597
1.74038e-05
0.00280937
0.000113502
0.00276556
0.000185862
0.00271481
0.000214625
0.00266927
0.000192317
0.00264018
0.000123266
0.00263568
2.23735e-05
0.00265896
-8.67711e-05
0.00270493
-0.000171106
0.0027583
-0.000194951
0.00279808
-0.000140358
0.00280804
-2.37663e-05
0.00278412
0.000113356
0.0027331
0.000230585
0.00266627
0.000305611
0.00259447
0.000332789
0.0025266
0.000313983
0.00247069
0.000251363
0.00243572
0.000144911
0.00243263
-4.44723e-06
0.00247145
-0.000184076
0.00255368
-0.000356018
0.00266455
-0.00046017
0.00277297
-0.000444164
0.00284456
-0.000302172
0.00286008
-8.51215e-05
0.00282278
0.000132142
0.00275061
0.000293402
0.0026637
0.00037966
0.00257679
0.000398735
0.00249855
0.000365354
0.00243439
0.000288514
0.00239019
0.000168935
0.00237578
4.1846e-06
0.00240406
-0.000197155
0.00248135
-0.00039724
0.00259637
-0.000530375
0.00272028
-0.000535568
0.00281815
-0.000396123
0.00286291
-0.000154058
0.00284566
0.000110177
0.00277805
0.000318456
0.00268398
0.000430619
0.00258641
0.000450465
0.00249946
0.000404304
0.00243038
0.000313476
0.00238719
0.000180957
0.00238228
1.66389e-06
0.00242567
-0.000211098
0.0025142
-0.000410129
0.00262829
-0.000530798
0.00273909
-0.000526232
0.0028195
-0.000392439
0.00285266
-0.000169047
0.00283516
7.95252e-05
0.00277571
0.000288995
0.00269069
0.000417137
0.00259814
0.000453753
0.00251328
0.000412951
0.00244839
0.000313479
0.00241513
0.000165045
0.00242386
-2.47039e-05
0.0024776
-0.000230805
0.00256688
-0.000405504
0.00267116
-0.000496858
0.00276572
-0.000474641
0.00282933
-0.00034429
0.00284988
-0.000143174
0.00282661
7.54651e-05
0.00276852
0.000261054
0.00269002
0.000379852
0.00260627
0.000419829
0.00253098
0.0003855
0.00247658
0.000287542
0.00245447
0.000137087
0.0024723
-4.86718e-05
0.00252907
-0.000237086
0.00261308
-0.000383078
0.00270494
-0.000446404
0.00278373
-0.000409468
0.00283279
-0.000284041
0.0028435
-0.000105259
0.00281657
8.20737e-05
0.00276065
0.00023783
0.00268874
0.000336393
0.0026145
0.000368251
0.00255048
0.000334775
0.00250802
0.000242241
0.00249661
0.000101316
0.00252096
-6.7397e-05
0.00257748
-0.000229796
0.00265379
-0.000345812
0.00273234
-0.000384854
0.00279576
-0.00033813
0.00283131
-0.000220941
0.00283342
-6.55836e-05
0.00280413
9.03749e-05
0.00275166
0.000215249
0.00268754
0.000290061
0.00262384
0.000308474
0.00257176
0.000271958
0.0025411
0.000185936
0.00253909
6.11497e-05
0.00256776
-8.17252e-05
0.00262169
-0.000211688
0.00268865
-0.000296061
0.00275326
-0.000313207
0.00280151
-0.000260761
0.0028242
-0.000155353
0.00281843
-2.54396e-05
0.00278746
9.84648e-05
0.00273915
0.000192246
0.00268359
0.000242616
0.00263109
0.000246181
0.00259111
0.000205506
0.0025715
0.000126712
0.00257715
2.10421e-05
0.00260789
-9.22868e-05
0.00265724
-0.000187647
0.00271378
-0.000240864
0.00276457
-0.000238581
0.00279873
-0.000183177
0.00281003
-9.10559e-05
0.00279766
1.38488e-05
0.00276569
0.000107814
0.00272147
0.000173458
0.00267372
0.000202258
0.00263104
0.000193157
0.0026011
0.000149571
0.0025899
7.80569e-05
0.00260042
-1.03221e-05
0.00263109
-9.86148e-05
0.00267524
-0.000166467
0.0027227
-0.000196659
0.00276274
-0.000181754
0.00278695
-0.000126803
0.00279114
-4.70739e-05
0.0027757
3.75677e-05
0.0027449
0.000108613
0.00270545
0.000153559
0.00266491
0.000166764
0.00263054
0.000148979
0.00260882
0.00010303
0.00260419
3.73836e-05
0.00261917
-4.16425e-05
0.00264981
-0.000110355
0.00269485
-0.00017325
-0.000172085
0.00250189
-1.53046e-05
0.00250798
-4.8279e-05
0.00251923
-8.59259e-05
0.00253688
-0.000128673
0.00256235
-0.000175882
0.00259699
-0.00022493
0.00264164
-0.000271204
0.00269526
-0.000304847
0.00275451
-0.000315283
0.00281023
-0.000284977
0.00285069
-0.000206559
0.00286992
-9.886e-05
0.00286459
2.27282e-05
0.0028325
0.000145588
0.00277913
0.00023924
0.00271704
0.00027671
0.00266114
0.000248217
0.00262522
0.000159187
0.00261968
2.79147e-05
0.00264945
-0.000116536
0.00270915
-0.000230807
0.0027793
-0.000265106
0.00283213
-0.000193189
0.00284644
-3.80708e-05
0.00281797
0.000141821
0.00275693
0.00029163
0.00267829
0.000384251
0.00259494
0.000416131
0.00251632
0.000392606
0.00245047
0.00031721
0.00240694
0.000188444
0.00239745
5.03943e-06
0.00243342
-0.000220044
0.00252054
-0.000443132
0.00264932
-0.000588951
0.00278663
-0.000581473
0.00288507
-0.000400613
0.00291173
-0.000111781
0.0028676
0.000176271
0.00277875
0.000382247
0.00267438
0.000484031
0.00257338
0.000499738
0.00248363
0.000455108
0.00240757
0.000364571
0.00235028
0.000226227
0.00232633
2.81339e-05
0.00235556
-0.000226384
0.00244536
-0.000487044
0.0025783
-0.000663311
0.00271858
-0.000675846
0.00282826
-0.000505809
0.00288022
-0.000206015
0.00286508
0.000125311
0.00279348
0.000390063
0.00269013
0.000533963
0.00258078
0.000559819
0.00248212
0.000502968
0.00240347
0.00039212
0.00235581
0.000228616
0.00235426
3.21389e-06
0.00240816
-0.000264998
0.00250998
-0.000511946
0.00263566
-0.000656479
0.00275415
-0.000644727
0.00283777
-0.000476057
0.00286962
-0.000200894
0.00284702
0.00010213
0.00278021
0.000355799
0.00268704
0.000510306
0.00258642
0.000554377
0.00249445
0.000504923
0.00242512
0.000382807
0.0023923
0.000197866
0.00240699
-3.93928e-05
0.00247012
-0.000293942
0.00256875
-0.000504128
0.00267982
-0.000607928
0.0027779
-0.000572725
0.002842
-0.000408385
0.00286015
-0.000161327
0.00283174
0.000103874
0.00276659
0.0003262
0.00268052
0.000465924
0.00259011
0.000510238
0.00251028
0.000465333
0.00245474
0.00034308
0.00243584
0.000155986
0.0024607
-7.3532e-05
0.00252605
-0.000302438
0.0026174
-0.00047442
0.00271365
-0.000542656
0.00279366
-0.000489482
0.00284131
-0.000331689
0.00284847
-0.000112416
0.00281617
0.000114373
0.00275366
0.000300339
0.00267502
0.000415037
0.00259524
0.000448022
0.00252826
0.000401764
0.00248657
0.000283928
0.00248005
0.000107832
0.00251229
-9.96356e-05
0.00257722
-0.000294724
0.00265996
-0.00042855
0.00274163
-0.000466524
0.00280486
-0.000401367
0.00283765
-0.000253726
0.00283514
-6.30696e-05
0.00279995
0.000125566
0.00274096
0.000274229
0.00267067
0.000360357
0.00260233
0.000376808
0.00254845
0.000325839
0.00251987
0.000214522
0.00252387
5.71502e-05
0.00256103
-0.000118884
0.00262337
-0.000274028
0.0026963
-0.000369
0.00276333
-0.000380234
0.00281058
-0.000308013
0.00282964
-0.000174404
0.00281846
-1.42646e-05
0.0027811
0.000135825
0.00272621
0.00024714
0.00266481
0.00030401
0.00260835
0.000302643
0.00256744
0.000246412
0.00255078
0.000143371
0.00256305
8.77382e-06
0.00260243
-0.000131665
0.00265999
-0.000245209
0.00272221
-0.000303076
0.00277513
-0.000291502
0.00280805
-0.000216104
0.00281548
-9.84811e-05
0.00279748
3.18495e-05
0.00275899
0.000146298
0.00270827
0.000224185
0.00265497
0.000255556
0.00260876
0.000239367
0.00257835
0.000179983
0.00257034
8.60644e-05
0.00258734
-2.73183e-05
0.00262614
-0.000137417
0.00267788
-0.000218205
0.00273054
-0.000249324
0.00277254
-0.000223756
0.00279559
-0.000149847
0.00279609
-4.75734e-05
0.00277525
5.84046e-05
0.00273822
0.000145645
0.00269257
0.000199203
0.00264682
0.000212521
0.00260921
0.00018658
0.00258714
0.00012511
0.00258554
3.89781e-05
0.00260639
-6.24931e-05
0.0026442
-0.000148166
0.00269629
-0.000225335
-0.000213419
0.00250168
-1.6987e-05
0.00250719
-5.37876e-05
0.00251762
-9.63547e-05
0.00253447
-0.000145523
0.00255959
-0.000201001
0.00259502
-0.000260366
0.00264255
-0.000318725
0.00270192
-0.000364218
0.00277028
-0.000383648
0.0028359
-0.000350597
0.0028835
-0.000254158
0.00290644
-0.000121799
0.00290052
2.86461e-05
0.00286152
0.00018459
0.00279563
0.00030513
0.00271871
0.000353627
0.00264925
0.000317677
0.00260417
0.000204269
0.00259674
3.535e-05
0.00263456
-0.000154359
0.00271236
-0.000308605
0.00280512
-0.000357873
0.00287553
-0.00026359
0.00289534
-5.78871e-05
0.00286039
0.000176771
0.002786
0.000366023
0.00269237
0.000477884
0.00259495
0.000513543
0.00250354
0.000484017
0.00242582
0.000394934
0.00236999
0.000244276
0.00234515
2.98774e-05
0.00236424
-0.000239135
0.00244333
-0.000522226
0.00258436
-0.000729975
0.00275525
-0.000752361
0.00289569
-0.000541059
0.00295225
-0.000168337
0.00291373
0.000214792
0.00281118
0.000484799
0.00268699
0.000608215
0.00256886
0.000617867
0.00246512
0.000558846
0.0023752
0.000454498
0.00230544
0.000295984
0.00227765
5.59213e-05
0.00231622
-0.000264956
0.00242378
-0.0005946
0.00257422
-0.000813747
0.00272672
-0.000828354
0.00284271
-0.000621797
0.00289641
-0.000259708
0.00287976
0.000141956
0.00280345
0.000466376
0.00269194
0.000645473
0.00257185
0.000679904
0.00246201
0.000612809
0.00237497
0.000479162
0.00232539
0.000278193
0.00232973
-1.12644e-06
0.0023942
-0.000329468
0.0025062
-0.000623942
0.00263877
-0.00078905
0.00276097
-0.00076693
0.00284609
-0.000561176
0.00287722
-0.000232022
0.00285113
0.000128223
0.00277839
0.000428535
0.00267803
0.000610668
0.00257016
0.000662242
0.00247221
0.000602875
0.00240008
0.000454935
0.0023693
0.00022865
0.00239037
-6.04644e-05
0.00246134
-0.000364913
0.00256611
-0.000608898
0.00268028
-0.000722097
0.00277891
-0.000671348
0.00284205
-0.000471525
0.00285818
-0.000177465
0.0028264
0.000135661
0.00275637
0.000396228
0.00266456
0.000557728
0.00256885
0.000605946
0.00248571
0.000548479
0.00243033
0.000398463
0.00241559
0.000170724
0.00244731
-0.000105253
0.00251952
-0.000374646
0.00261535
-0.000570248
0.00271294
-0.000640247
0.00279178
-0.000568322
0.00283682
-0.000376736
0.00284063
-0.000116223
0.00280434
0.000150666
0.00273721
0.000367468
0.00265378
0.000498468
0.00257011
0.000531686
0.00250157
0.000470306
0.00246189
0.00032361
0.00246097
0.000108756
0.00250065
-0.000139321
0.00257218
-0.000366247
0.00265861
-0.000514984
0.0027406
-0.000548518
0.00280157
-0.000462333
0.00283062
-0.000282773
0.0028237
-5.61504e-05
0.0027838
0.000165466
0.00272004
0.000337982
0.00264542
0.000434981
0.00257417
0.000448056
0.00252008
0.000379929
0.00249493
0.000239675
0.00250564
4.64428e-05
0.00255075
-0.000164003
0.00261961
-0.000342883
0.0026958
-0.000445187
0.00276254
-0.000446981
0.00280685
-0.000352318
0.00282142
-0.00018898
0.0028051
2.06379e-06
0.00276243
0.000178488
0.00270252
0.000307052
0.00263702
0.000369512
0.00257834
0.000361327
0.00253824
0.000286511
0.00252604
0.000155567
0.0025457
-1.08889e-05
0.00259323
-0.000179196
0.00265717
-0.000309144
0.00272242
-0.000368326
0.00277493
-0.00034401
0.00280482
-0.000245997
0.00280763
-0.000101288
0.00278425
5.52296e-05
0.00274023
0.000190316
0.00268438
0.000280033
0.0026271
0.000312832
0.00257904
0.000287434
0.00254988
0.000209139
0.0025466
8.93444e-05