/*--------------------------------*- C++ -*----------------------------------*\
  =========                 |
  \\      /  F ield         | OpenFOAM: The Open Source CFD Toolbox
   \\    /   O peration     | Website:  https://openfoam.org
    \\  /    A nd           | Version:  11
     \\/     M anipulation  |
\*---------------------------------------------------------------------------*/
FoamFile
{
    format      ascii;
    class       volVectorField;
    location    "8.563292";
    object      U_0;
}
// * * * * * * * * * * * * * * * * * * * * * * * * * * * * * * * * * * * * * //

dimensions      [0 1 -1 0 0 0 0];

internalField   nonuniform List<vector> 
7132
(
(1.00014 -0.000278949 2.09617e-18)
(1.00216 -0.00084379 7.49892e-18)
(1.00676 -0.0014442 7.89831e-18)
(1.01376 -0.00208961 9.62314e-18)
(1.02345 -0.00278053 1.20568e-17)
(1.03599 -0.00349397 1.24093e-17)
(1.05141 -0.00418741 1.17182e-17)
(1.06952 -0.00477982 1.08282e-17)
(1.08973 -0.00518396 1.00989e-17)
(1.11112 -0.00530756 9.61474e-18)
(1.13233 -0.00509586 9.21533e-18)
(1.15205 -0.00461021 9.15695e-18)
(1.16933 -0.00390562 8.4235e-18)
(1.1834 -0.00303852 9.01454e-18)
(1.19371 -0.00206334 5.44082e-19)
(1.19995 -0.00103076 -9.83613e-18)
(1.20197 -7.03251e-06 -2.09971e-17)
(1.19998 0.000912727 -1.80139e-17)
(1.1946 0.00160908 -2.27743e-17)
(1.18698 0.00196401 -3.09421e-17)
(1.17871 0.00190461 -2.86932e-17)
(1.17156 0.00143913 -2.81529e-17)
(1.16704 0.000675782 -3.12516e-17)
(1.16607 -0.000183085 -4.04904e-17)
(1.16854 -0.000871613 -4.97449e-17)
(1.1732 -0.00111488 -6.75511e-17)
(1.17772 -0.00071605 -8.37806e-17)
(1.17924 0.000342107 -9.47273e-17)
(1.17526 0.00185051 -1.0087e-16)
(1.16459 0.00344349 -1.00818e-16)
(1.14769 0.00474298 -9.85164e-17)
(1.12646 0.0054711 -9.63633e-17)
(1.10363 0.00548216 -9.60347e-17)
(1.08223 0.00473756 -9.58159e-17)
(1.06532 0.00326572 -7.36338e-17)
(1.0557 0.00114254 -1.20798e-17)
(1.05582 -0.00149717 -2.21007e-16)
(1.06743 -0.00440985 -1.13724e-15)
(1.09107 -0.00717031 3.89454e-16)
(1.12508 -0.00914049 1.15249e-14)
(1.1648 -0.00960007 2.83439e-14)
(1.20269 -0.0080983 3.48743e-14)
(1.2304 -0.0048369 2.7113e-14)
(1.24201 -0.000697858 1.50115e-14)
(1.23625 0.00320192 6.35823e-15)
(1.21627 0.00604771 2.11035e-15)
(1.18748 0.0075536 6.39535e-16)
(1.15537 0.00784067 3.52487e-16)
(1.12431 0.00720678 3.92051e-16)
(1.09735 0.00596053 4.6253e-16)
(1.07635 0.00435305 5.2458e-16)
(1.06232 0.00257843 5.99562e-16)
(1.05559 0.00080406 6.97701e-16)
(1.05584 -0.000797994 8.29662e-16)
(1.06203 -0.00204281 1.00275e-15)
(1.07234 -0.00276086 1.16251e-15)
(1.08435 -0.00285146 1.16723e-15)
(1.09542 -0.0023334 8.72286e-16)
(1.10327 -0.00135701 2.97222e-16)
(1.10646 -0.000161286 -3.14756e-16)
(1.10465 0.00100344 -6.94244e-16)
(1.09844 0.00194625 -7.61994e-16)
(1.08902 0.00256855 -5.8372e-16)
(1.07778 0.00285691 -2.85508e-16)
(1.06604 0.0028547 2.19719e-17)
(1.05483 0.00263165 2.65856e-16)
(1.04489 0.00226166 4.10859e-16)
(1.03666 0.00181074 4.46553e-16)
(1.03035 0.00133282 3.64456e-16)
(1.02596 0.000869789 1.57191e-16)
(1.02337 0.00045332 -1.84805e-16)
(1.02233 0.00010669 -6.60016e-16)
(1.02252 -0.000154226 -1.24727e-15)
(1.02358 -0.000321051 -1.91267e-15)
(1.02512 -0.000393566 -2.60456e-15)
(1.02677 -0.000380105 -3.26574e-15)
(1.0282 -0.00029688 -3.84158e-15)
(1.02918 -0.000165887 -4.29188e-15)
(1.02955 -1.16552e-05 -4.60363e-15)
(1.02928 0.000142385 -4.78566e-15)
(1.02842 0.000277064 -4.86858e-15)
(1.02706 0.000379411 -4.89069e-15)
(1.02537 0.000443181 -4.88862e-15)
(1.0235 0.000468167 -4.89659e-15)
(1.02161 0.000458785 -4.9374e-15)
(1.01982 0.000422372 -5.02799e-15)
(1.01822 0.000367587 -5.17524e-15)
(1.01687 0.000303108 -5.37516e-15)
(1.01578 0.000236714 -5.61738e-15)
(1.01497 0.000174737 -5.88137e-15)
(1.01439 0.000121804 -6.14612e-15)
(1.01399 8.07994e-05 -6.39011e-15)
(1.01374 5.29774e-05 -6.59346e-15)
(1.01357 3.81761e-05 -6.74576e-15)
(1.01344 3.50931e-05 -6.84047e-15)
(1.0133 4.15998e-05 -6.87865e-15)
(1.01311 5.50731e-05 -6.86722e-15)
(1.01286 7.27216e-05 -6.81371e-15)
(1.01253 9.18784e-05 -6.72929e-15)
(1.01213 0.000110239 -6.62019e-15)
(1.01165 0.000126022 -6.49124e-15)
(1.01112 0.000138055 -6.34531e-15)
(1.01054 0.000145772 -6.18091e-15)
(1.00995 0.000149156 -5.99804e-15)
(1.00935 0.000148628 -5.79223e-15)
(1.00876 0.000144916 -5.55943e-15)
(1.00819 0.000138919 -5.29575e-15)
(1.00764 0.00013158 -4.99515e-15)
(1.00713 0.00012378 -4.65476e-15)
(1.00665 0.00011627 -4.26881e-15)
(1.0062 0.000109621 -3.8343e-15)
(1.00577 0.000104206 -3.35104e-15)
(1.00537 0.000100209 -2.82013e-15)
(1.00497 9.76436e-05 -2.24911e-15)
(1.00459 9.63887e-05 -1.64479e-15)
(1.0042 9.62257e-05 -1.01672e-15)
(1.00382 9.68789e-05 -3.74313e-16)
(1.00343 9.8052e-05 2.77128e-16)
(1.00303 9.94596e-05 9.33098e-16)
(1.00263 0.000100851 1.59665e-15)
(1.00222 0.000102028 2.27381e-15)
(1.00181 0.00010285 2.97012e-15)
(1.0014 0.000103238 3.69228e-15)
(1.00098 0.000103167 4.44309e-15)
(1.00057 0.000102659 5.22323e-15)
(1.00016 0.000101763 6.02965e-15)
(0.999755 0.000100549 6.85541e-15)
(0.999355 9.90889e-05 7.69585e-15)
(0.998961 9.74462e-05 8.54786e-15)
(0.998574 9.56679e-05 9.4145e-15)
(0.998194 9.37786e-05 1.0304e-14)
(0.997821 9.17788e-05 1.12282e-14)
(0.997457 8.96464e-05 1.22065e-14)
(0.997102 8.73408e-05 1.32628e-14)
(0.996756 8.48085e-05 1.44282e-14)
(0.99642 8.19856e-05 1.57404e-14)
(0.996097 7.87943e-05 1.72424e-14)
(0.995787 7.51279e-05 1.89878e-14)
(0.995492 7.08204e-05 2.10374e-14)
(0.995216 6.56043e-05 2.34619e-14)
(0.994963 5.90656e-05 2.63385e-14)
(0.994739 5.0617e-05 2.9746e-14)
(0.994553 3.95145e-05 3.37652e-14)
(0.994416 2.49454e-05 3.84693e-14)
(0.994345 6.20065e-06 4.39217e-14)
(0.994357 -1.708e-05 5.01698e-14)
(0.994471 -4.46294e-05 5.72398e-14)
(0.994701 -7.53185e-05 6.51227e-14)
(0.995058 -0.00010704 7.37349e-14)
(0.995541 -0.000136825 8.28685e-14)
(0.996135 -0.000161145 9.21257e-14)
(0.996812 -0.000176569 1.00856e-13)
(0.997531 -0.00018027 1.08123e-13)
(0.998237 -0.000171048 1.127e-13)
(0.998888 -0.000149101 1.13148e-13)
(0.999414 -0.000117393 1.07882e-13)
(0.999828 -7.91087e-05 9.57749e-14)
(1.00002 -4.06727e-05 7.42436e-14)
(1.00018 -5.99745e-06 5.08531e-14)
(1.00001 2.71972e-05 -1.03331e-14)
(1.00014 -0.000834172 3.2855e-20)
(1.00214 -0.00252459 3.6769e-19)
(1.0067 -0.00432301 7.29687e-19)
(1.01366 -0.00626026 1.10666e-18)
(1.02332 -0.00833895 1.53772e-18)
(1.03587 -0.0104913 1.95953e-18)
(1.05136 -0.0125901 2.32147e-18)
(1.06963 -0.0143888 2.30507e-18)
(1.09008 -0.0156215 5.23503e-18)
(1.11179 -0.0160008 6.41466e-18)
(1.13332 -0.0153573 4.50969e-18)
(1.1533 -0.0138874 6.11363e-18)
(1.17078 -0.0117597 2.59468e-18)
(1.18499 -0.00914522 7.48611e-18)
(1.19539 -0.00620676 2.15119e-17)
(1.20165 -0.00309328 3.72842e-17)
(1.20362 -2.07386e-06 4.52799e-17)
(1.20146 0.00278467 4.66897e-17)
(1.19579 0.00490126 4.01383e-17)
(1.18779 0.00598502 2.30544e-17)
(1.17909 0.00580861 -7.65765e-18)
(1.17156 0.00439134 -5.59437e-17)
(1.16684 0.00205771 -1.23707e-16)
(1.16588 -0.00057958 -2.14329e-16)
(1.16865 -0.00271055 -3.22799e-16)
(1.17385 -0.00349047 -4.05221e-16)
(1.17903 -0.00230791 -4.08945e-16)
(1.18112 0.000898973 -3.55367e-16)
(1.17744 0.00549355 -2.97101e-16)
(1.1667 0.0103549 -2.49392e-16)
(1.14941 0.0143263 -2.10799e-16)
(1.12755 0.0165634 -1.8253e-16)
(1.10398 0.0166293 -1.59107e-16)
(1.08183 0.014413 -1.30032e-16)
(1.06418 0.0100015 1.07037e-16)
(1.05391 0.00361526 5.01122e-16)
(1.05356 -0.00435944 -2.51603e-15)
(1.06506 -0.0132093 -7.27759e-15)
(1.08914 -0.021657 4.22633e-14)
(1.12429 -0.027749 2.29109e-13)
(1.16576 -0.0292465 4.65748e-13)
(1.20554 -0.0247269 5.14645e-13)
(1.23463 -0.0147939 3.41103e-13)
(1.24664 -0.00216777 1.42054e-13)
(1.24035 0.00971209 3.71934e-14)
(1.21927 0.0183498 2.00569e-15)
(1.18927 0.0228906 -3.54278e-15)
(1.15612 0.0237293 -1.58623e-15)
(1.12429 0.0217898 3.65137e-16)
(1.0968 0.0180142 1.22973e-15)
(1.07548 0.0131588 1.52024e-15)
(1.06128 0.00780119 1.64401e-15)
(1.05456 0.00243697 1.68838e-15)
(1.055 -0.00242036 1.71549e-15)
(1.06158 -0.00620882 1.91943e-15)
(1.07244 -0.00840507 2.1116e-15)
(1.08507 -0.00869343 1.28897e-15)
(1.09669 -0.00712538 -1.30253e-15)
(1.10491 -0.00415856 -4.80591e-15)
(1.10824 -0.000523756 -7.33403e-15)
(1.10635 0.00301494 -7.85294e-15)
(1.0999 0.00587548 -6.83855e-15)
(1.09018 0.00775969 -5.17331e-15)
(1.07864 0.00862958 -3.52714e-15)
(1.06664 0.00861946 -2.23314e-15)
(1.05524 0.00794248 -1.3757e-15)
(1.04516 0.006823 -9.39428e-16)
(1.03685 0.00546056 -8.85533e-16)
(1.0305 0.00401749 -1.20351e-15)
(1.02611 0.00261964 -1.90446e-15)
(1.02356 0.00136208 -2.98821e-15)
(1.02258 0.000314795 -4.41782e-15)
(1.02285 -0.000474222 -6.0887e-15)
(1.024 -0.00097925 -7.85414e-15)
(1.02563 -0.00119911 -9.53114e-15)
(1.02736 -0.00115862 -1.09317e-14)
(1.02885 -0.000906616 -1.19238e-14)
(1.02987 -0.000509672 -1.24621e-14)
(1.03026 -4.2149e-05 -1.26086e-14)
(1.02999 0.000424875 -1.24896e-14)
(1.0291 0.000833207 -1.22335e-14)
(1.02772 0.0011435 -1.1948e-14)
(1.02599 0.00133682 -1.16982e-14)
(1.02408 0.0014126 -1.15235e-14)
(1.02215 0.00138428 -1.14421e-14)
(1.02033 0.00127413 -1.14548e-14)
(1.01871 0.00110839 -1.1554e-14)
(1.01735 0.00091335 -1.17097e-14)
(1.01627 0.000712546 -1.1882e-14)
(1.01545 0.000525123 -1.20212e-14)
(1.01488 0.000365067 -1.20768e-14)
(1.01449 0.000241093 -1.20125e-14)
(1.01425 0.000156995 -1.18027e-14)
(1.0141 0.000112285 -1.14463e-14)
(1.01398 0.000103026 -1.09617e-14)
(1.01384 0.000122783 -1.03805e-14)
(1.01366 0.000163623 -9.7429e-15)
(1.01341 0.000217098 -9.0835e-15)
(1.01308 0.000275138 -8.43097e-15)
(1.01268 0.000330763 -7.79982e-15)
(1.0122 0.000378584 -7.19048e-15)
(1.01166 0.000415044 -6.59401e-15)
(1.01108 0.000438433 -5.9909e-15)
(1.01048 0.000448698 -5.36186e-15)
(1.00987 0.000447119 -4.68642e-15)
(1.00928 0.000435904 -3.94609e-15)
(1.0087 0.000417773 -3.12755e-15)
(1.00816 0.000395582 -2.21823e-15)
(1.00764 0.000372003 -1.21317e-15)
(1.00716 0.000349306 -1.10205e-16)
(1.00671 0.000329217 1.08838e-15)
(1.00628 0.000312869 2.37336e-15)
(1.00588 0.000300813 3.73316e-15)
(1.00548 0.000293093 5.14792e-15)
(1.00509 0.000289339 6.59639e-15)
(1.00471 0.000288891 8.05797e-15)
(1.00432 0.000290912 9.51457e-15)
(1.00393 0.000294507 1.09587e-14)
(1.00353 0.000298811 1.23892e-14)
(1.00313 0.000303067 1.38156e-14)
(1.00272 0.000306673 1.52561e-14)
(1.00231 0.000309207 1.67282e-14)
(1.00189 0.000310429 1.82499e-14)
(1.00147 0.000310266 1.98305e-14)
(1.00106 0.000308781 2.14687e-14)
(1.00064 0.00030613 2.31546e-14)
(1.00023 0.000302523 2.48673e-14)
(0.99983 0.000298178 2.65862e-14)
(0.999433 0.000293291 2.82902e-14)
(0.999041 0.000288005 2.9964e-14)
(0.998657 0.000282395 3.16031e-14)
(0.998281 0.000276466 3.3212e-14)
(0.997912 0.000270152 3.48146e-14)
(0.997552 0.000263331 3.64519e-14)
(0.997201 0.000255842 3.81889e-14)
(0.99686 0.000247491 4.01214e-14)
(0.99653 0.000238045 4.23759e-14)
(0.996213 0.000227186 4.51182e-14)
(0.995912 0.000214423 4.85477e-14)
(0.995628 0.000198969 5.28941e-14)
(0.995367 0.000179607 5.84099e-14)
(0.995134 0.000154606 6.53539e-14)
(0.994937 0.000121771 7.39805e-14)
(0.994789 7.86891e-05 8.45139e-14)
(0.994703 2.32413e-05 9.71252e-14)
(0.994698 -4.56776e-05 1.1191e-13)
(0.994792 -0.000127329 1.28867e-13)
(0.994998 -0.000218426 1.47853e-13)
(0.995328 -0.000312773 1.68502e-13)
(0.995779 -0.000401593 1.90116e-13)
(0.99634 -0.000474414 2.11574e-13)
(0.996982 -0.000520991 2.31256e-13)
(0.997667 -0.000532855 2.47055e-13)
(0.998341 -0.000506301 2.56458e-13)
(0.998963 -0.000441826 2.5676e-13)
(0.999463 -0.000348085 2.45218e-13)
(0.999857 -0.000234578 2.20173e-13)
(1.00004 -0.00012025 1.77242e-13)
(1.00018 -1.71464e-05 1.31319e-13)
(1.00001 8.20385e-05 1.42905e-14)
(1.00014 -0.00138199 5.1006e-22)
(1.0021 -0.0041845 4.61962e-21)
(1.00659 -0.00717284 3.06681e-21)
(1.01346 -0.0104043 6.6091e-21)
(1.02306 -0.0138883 -1.39315e-19)
(1.03561 -0.0175158 1.91752e-19)
(1.05124 -0.021077 -7.16696e-19)
(1.06981 -0.0241483 -1.4133e-18)
(1.09076 -0.0262732 5.00334e-18)
(1.11312 -0.0269345 1.82036e-19)
(1.13529 -0.0258329 -2.7687e-17)
(1.15579 -0.0233381 -2.88346e-17)
(1.17367 -0.0197434 4.84519e-17)
(1.18817 -0.0153389 1.78557e-16)
(1.19875 -0.0103923 2.74686e-16)
(1.20508 -0.0051405 2.69204e-16)
(1.20695 9.56338e-05 1.64475e-16)
(1.20446 0.0048394 1.20945e-17)
(1.19822 0.00846002 -1.75429e-16)
(1.18944 0.0103211 -3.98244e-16)
(1.17991 0.010016 -6.59837e-16)
(1.17166 0.00756307 -9.50658e-16)
(1.16652 0.00350753 -1.21874e-15)
(1.16564 -0.00110392 -1.45341e-15)
(1.16904 -0.00487285 -1.59696e-15)
(1.17536 -0.00632083 -1.36487e-15)
(1.18188 -0.00435735 -6.23006e-16)
(1.1851 0.00114737 1.92455e-16)
(1.18195 0.009082 6.51214e-16)
(1.17096 0.0174786 7.74828e-16)
(1.15275 0.0243255 7.19315e-16)
(1.12955 0.0281845 6.27208e-16)
(1.10446 0.0283403 5.71634e-16)
(1.08079 0.0246337 8.06212e-16)
(1.06175 0.0172223 1.95249e-15)
(1.05031 0.00645745 1.14272e-16)
(1.04918 -0.00705971 -8.13459e-15)
(1.06059 -0.0221868 5.76429e-14)
(1.0857 -0.0367883 3.04149e-13)
(1.12328 -0.0474785 5.23052e-13)
(1.16838 -0.0502689 5.47939e-13)
(1.21202 -0.0425543 5.38199e-13)
(1.2438 -0.0253513 4.21716e-13)
(1.25637 -0.003492 1.94859e-13)
(1.24861 0.0169355 4.83826e-14)
(1.22495 0.0315954 -1.03258e-14)
(1.19225 0.0391177 -1.7545e-14)
(1.15687 0.0403142 -8.12289e-15)
(1.12348 0.0368527 7.065e-17)
(1.095 0.0303631 3.63408e-15)
(1.07313 0.0221105 4.54571e-15)
(1.05877 0.0130368 4.46874e-15)
(1.05223 0.00394609 3.42397e-15)
(1.05324 -0.00430888 1.18039e-15)
(1.06076 -0.0107664 -1.26725e-15)
(1.07286 -0.0145112 -4.87433e-15)
(1.08679 -0.01498 -1.49186e-14)
(1.09953 -0.0122529 -3.24353e-14)
(1.10843 -0.00712565 -4.82017e-14)
(1.11193 -0.00087281 -5.25779e-14)
(1.10973 0.00517961 -4.5821e-14)
(1.10268 0.0100349 -3.45624e-14)
(1.09225 0.0131975 -2.39677e-14)
(1.08005 0.014623 -1.61227e-14)
(1.0675 0.0145574 -1.11055e-14)
(1.0557 0.0133736 -8.27494e-15)
(1.04538 0.0114555 -7.02968e-15)
(1.03695 0.00913999 -7.04634e-15)
(1.03059 0.00669821 -8.23481e-15)
(1.02627 0.00433925 -1.05916e-14)
(1.02384 0.00222071 -1.4037e-14)
(1.02303 0.000458914 -1.83264e-14)
(1.02351 -0.000865777 -2.30326e-14)
(1.02486 -0.00170982 -2.75785e-14)
(1.02668 -0.00207093 -3.13159e-14)
(1.02858 -0.00199107 -3.36916e-14)
(1.03019 -0.00155348 -3.44601e-14)
(1.03128 -0.00087178 -3.38069e-14)
(1.03169 -7.28952e-05 -3.22947e-14)
(1.03139 0.000722099 -3.05764e-14)
(1.03044 0.0014145 -2.90714e-14)
(1.02897 0.00193809 -2.795e-14)
(1.02715 0.00226167 -2.7204e-14)
(1.02516 0.00238529 -2.67417e-14)
(1.02317 0.00233264 -2.64586e-14)
(1.02129 0.00214214 -2.62554e-14)
(1.01964 0.00185865 -2.60406e-14)
(1.01827 0.00152679 -2.57112e-14)
(1.01718 0.00118637 -2.51494e-14)
(1.01638 0.000869598 -2.42368e-14)
(1.01583 0.0005999 -2.28743e-14)
(1.01548 0.000391768 -2.10138e-14)
(1.01526 0.000251383 -1.86739e-14)
(1.01513 0.000177716 -1.59433e-14)
(1.01503 0.000163944 -1.29658e-14)
(1.01491 0.000199054 -9.91195e-15)
(1.01474 0.000269531 -6.9455e-15)
(1.0145 0.000361027 -4.19286e-15)
(1.01417 0.000459867 -1.72409e-15)
(1.01375 0.000554259 4.52545e-16)
(1.01326 0.000635131 2.38325e-15)
(1.01271 0.000696535 4.15229e-15)
(1.01212 0.000735663 5.86291e-15)
(1.01151 0.000752512 7.61884e-15)
(1.01089 0.000749321 9.51079e-15)
(1.01029 0.000729891 1.16085e-14)
(1.0097 0.00069887 1.39572e-14)
(1.00915 0.000661112 1.65791e-14)
(1.00864 0.000621147 1.94749e-14)
(1.00816 0.000582803 2.26267e-14)
(1.0077 0.000548983 2.60012e-14)
(1.00728 0.000521574 2.95522e-14)
(1.00687 0.000501482 3.32235e-14)
(1.00647 0.00048875 3.69541e-14)
(1.00609 0.00048273 4.06838e-14)
(1.0057 0.000482282 4.43619e-14)
(1.00531 0.00048598 4.79546e-14)
(1.00492 0.000492302 5.14526e-14)
(1.00451 0.000499783 5.4873e-14)
(1.00411 0.000507145 5.82573e-14)
(1.00369 0.000513375 6.16632e-14)
(1.00327 0.000517768 6.5152e-14)
(1.00285 0.000519932 6.8774e-14)
(1.00243 0.000519755 7.25563e-14)
(1.002 0.000517352 7.64947e-14)
(1.00158 0.000512998 8.05521e-14)
(1.00117 0.000507055 8.46638e-14)
(1.00076 0.0004999 8.8747e-14)
(1.00035 0.000491867 9.27136e-14)
(0.999956 0.000483202 9.64829e-14)
(0.999564 0.000474035 9.99946e-14)
(0.999179 0.000464375 1.03222e-13)
(0.998802 0.000454112 1.06185e-13)
(0.998433 0.000443041 1.08972e-13)
(0.998071 0.000430888 1.11753e-13)
(0.99772 0.000417324 1.14805e-13)
(0.997378 0.000401953 1.18521e-13)
(0.997049 0.000384245 1.23421e-13)
(0.996734 0.000363393 1.30141e-13)
(0.996436 0.000338118 1.39415e-13)
(0.99616 0.000306449 1.52035e-13)
(0.995909 0.000265584 1.68814e-13)
(0.995694 0.000211963 1.90523e-13)
(0.995524 0.000141664 2.17829e-13)
(0.995414 5.12184e-05 2.51215e-13)
(0.995379 -6.12126e-05 2.90889e-13)
(0.995437 -0.000194487 3.36717e-13)
(0.995601 -0.000343315 3.88084e-13)
(0.995881 -0.000497654 4.43688e-13)
(0.996277 -0.000643205 5.01302e-13)
(0.996776 -0.000762855 5.57602e-13)
(0.997352 -0.000839798 6.08121e-13)
(0.997969 -0.000860081 6.4742e-13)
(0.998576 -0.000817518 6.69477e-13)
(0.999136 -0.000712803 6.68303e-13)
(0.999581 -0.000560052 6.38324e-13)
(0.999927 -0.000374734 5.7685e-13)
(1.00007 -0.000188162 4.75077e-13)
(1.00019 -1.96566e-05 3.67788e-13)
(0.999989 0.000140994 1.01094e-13)
(1.00013 -0.00191721 -2.99822e-20)
(1.00204 -0.00580786 -4.89117e-19)
(1.00641 -0.00997196 -8.65675e-19)
(1.01314 -0.0145004 -1.6712e-18)
(1.02263 -0.0194177 -1.87296e-18)
(1.03517 -0.0245811 -1.85733e-18)
(1.05098 -0.0297016 -1.04213e-17)
(1.07001 -0.0341602 1.4302e-17)
(1.09173 -0.0372895 6.0102e-18)
(1.1151 -0.038278 -1.13234e-16)
(1.13827 -0.0366687 -5.4086e-17)
(1.15955 -0.0330775 4.32498e-16)
(1.17804 -0.0279421 9.32244e-16)
(1.19296 -0.0216803 7.94687e-16)
(1.20382 -0.0146594 -1.67194e-16)
(1.21025 -0.00718591 -1.52871e-15)
(1.21198 0.000311372 -2.61328e-15)
(1.20901 0.00715682 -3.48317e-15)
(1.2019 0.0124234 -4.1788e-15)
(1.19192 0.0151499 -4.69676e-15)
(1.18108 0.0147052 -4.95668e-15)
(1.17168 0.0110835 -4.7363e-15)
(1.16589 0.00505842 -3.58344e-15)
(1.16511 -0.0018516 -1.05344e-15)
(1.16948 -0.00758795 3.62016e-15)
(1.17757 -0.00992861 1.02513e-14)
(1.18622 -0.0071892 1.59687e-14)
(1.19125 0.000871013 1.82336e-14)
(1.18893 0.0125843 1.74821e-14)
(1.17754 0.0249752 1.49898e-14)
(1.15786 0.0350434 1.19905e-14)
(1.13255 0.04071 9.32943e-15)
(1.10511 0.041004 7.70201e-15)
(1.07913 0.0357638 9.0939e-15)
(1.05797 0.0252433 7.33483e-15)
(1.04474 0.00990812 -1.77461e-14)
(1.04238 -0.00948904 1.02093e-13)
(1.05359 -0.0314555 6.48286e-13)
(1.08018 -0.0530017 -3.99601e-13)
(1.12154 -0.0691204 -7.32678e-12)
(1.17242 -0.0736668 -1.74909e-11)
(1.22221 -0.0624614 -2.04394e-11)
(1.2582 -0.0369291 -1.3845e-11)
(1.27156 -0.00450254 -5.82201e-12)
(1.26135 0.0254743 -1.47411e-12)
(1.2335 0.0465395 -6.56306e-14)
(1.19649 0.0569163 1.26165e-13)
(1.15764 0.0581007 6.27663e-14)
(1.12185 0.0527182 1.88163e-14)
(1.0919 0.0431811 8.34631e-15)
(1.06928 0.0312687 8.47068e-15)
(1.05473 0.0182507 8.22033e-15)
(1.04852 0.00520404 2.04285e-15)
(1.05043 -0.00668545 -1.84662e-14)
(1.05944 -0.016019 -6.65972e-14)
(1.07347 -0.0214236 -1.53272e-13)
(1.08945 -0.0220324 -2.62339e-13)
(1.10393 -0.0179458 -3.41968e-13)
(1.11389 -0.0103532 -3.46129e-13)
(1.11761 -0.00116613 -2.81803e-13)
(1.11489 0.00764199 -1.9584e-13)
(1.10686 0.0146191 -1.23867e-13)
(1.09529 0.0190788 -7.65781e-14)
(1.08202 0.0210042 -4.99983e-14)
(1.06862 0.0207918 -3.64949e-14)
(1.05623 0.0190027 -3.01464e-14)
(1.04555 0.0161968 -2.78516e-14)
(1.03696 0.0128543 -2.85732e-14)
(1.0306 0.00935586 -3.22297e-14)
(1.02641 0.00599189 -3.87704e-14)
(1.0242 0.00298054 -4.76512e-14)
(1.02367 0.00048338 -5.77709e-14)
(1.02446 -0.00138684 -6.75991e-14)
(1.02613 -0.00256813 -7.52682e-14)
(1.02826 -0.00305706 -7.90046e-14)
(1.03041 -0.00291412 -7.77937e-14)
(1.03222 -0.00226003 -7.19621e-14)
(1.03341 -0.00125995 -6.32978e-14)
(1.03384 -9.81392e-05 -5.45263e-14)
(1.03349 0.0010503 -4.79542e-14)
(1.03243 0.0020437 -4.43246e-14)
(1.03083 0.0027884 -4.32074e-14)
(1.02887 0.00324186 -4.36149e-14)
(1.02675 0.0034067 -4.45351e-14)
(1.02464 0.00331916 -4.51949e-14)
(1.02269 0.00303599 -4.50934e-14)
(1.02099 0.00262246 -4.39191e-14)
(1.0196 0.00214284 -4.14278e-14)
(1.01852 0.00165395 -3.74021e-14)
(1.01775 0.00120147 -3.16653e-14)
(1.01723 0.000818287 -2.41489e-14)
(1.01692 0.000524518 -1.49713e-14)
(1.01676 0.000328401 -4.46245e-15)
(1.01667 0.000227946 6.84512e-15)
(1.0166 0.000212966 1.82987e-14)
(1.0165 0.000267374 2.92384e-14)
(1.01635 0.000371596 3.91116e-14)
(1.01611 0.000504969 4.75681e-14)
(1.01577 0.000647884 5.44952e-14)
(1.01535 0.00078352 6.0013e-14)
(1.01484 0.000899022 6.44227e-14)
(1.01427 0.000986065 6.81303e-14)
(1.01366 0.00104084 7.15752e-14)
(1.01302 0.00106356 7.5159e-14)
(1.01239 0.00105764 7.92069e-14)
(1.01177 0.00102865 8.39444e-14)
(1.01118 0.000983367 8.94922e-14)
(1.01063 0.000928789 9.58797e-14)
(1.01011 0.000871408 1.03054e-13)
(1.00962 0.000816674 1.10903e-13)
(1.00917 0.000768684 1.19274e-13)
(1.00874 0.000730067 1.27984e-13)
(1.00834 0.000702046 1.36848e-13)
(1.00794 0.00068461 1.45683e-13)
(1.00755 0.000676769 1.54333e-13)
(1.00717 0.000676848 1.6269e-13)
(1.00677 0.000682773 1.70699e-13)
(1.00637 0.000692348 1.78382e-13)
(1.00597 0.000703475 1.85825e-13)
(1.00555 0.000714334 1.93175e-13)
(1.00513 0.000723493 2.0061e-13)
(1.0047 0.00072997 2.08309e-13)
(1.00427 0.000733229 2.16414e-13)
(1.00384 0.000733137 2.24996e-13)
(1.0034 0.000729885 2.34036e-13)
(1.00298 0.000723891 2.43417e-13)
(1.00255 0.000715688 2.52935e-13)
(1.00213 0.000705829 2.62326e-13)
(1.00171 0.0006948 2.71293e-13)
(1.00131 0.000682956 2.79549e-13)
(1.0009 0.00067049 2.86853e-13)
(1.00051 0.000657413 2.93055e-13)
(1.00012 0.000643571 2.9815e-13)
(0.999734 0.00062867 3.02329e-13)
(0.999358 0.000612315 3.0604e-13)
(0.99899 0.000594033 3.10048e-13)
(0.998632 0.000573253 3.15464e-13)
(0.998285 0.000549229 3.23765e-13)
(0.99795 0.000520846 3.36755e-13)
(0.997632 0.000486366 3.56496e-13)
(0.997332 0.000443131 3.85197e-13)
(0.997058 0.000387375 4.25071e-13)
(0.996815 0.000314306 4.78186e-13)
(0.996615 0.000218641 5.46278e-13)
(0.99647 9.56807e-05 6.30535e-13)
(0.996393 -5.70939e-05 7.3134e-13)
(0.9964 -0.000238191 8.4804e-13)
(0.996504 -0.000440509 9.7863e-13)
(0.996714 -0.000650483 1.11924e-12)
(0.997028 -0.000848728 1.26365e-12)
(0.997437 -0.00101197 1.40297e-12)
(0.997916 -0.0011173 1.52581e-12)
(0.998433 -0.00114561 1.61893e-12)
(0.99894 -0.00108839 1.66843e-12)
(0.999404 -0.000946458 1.66136e-12)
(0.999763 -0.000739196 1.58655e-12)
(1.00003 -0.000487378 1.43997e-12)
(1.00012 -0.000234806 1.20379e-12)
(1.00019 -5.79618e-06 9.57847e-13)
(0.999956 0.000207537 3.57113e-13)
(1.00013 -0.00243339 -2.24737e-18)
(1.00195 -0.00737639 -7.48714e-18)
(1.00615 -0.0126934 -6.27708e-18)
(1.01268 -0.0185196 -9.35752e-18)
(1.02199 -0.0249075 -6.89167e-19)
(1.03449 -0.0316922 -2.79002e-17)
(1.05052 -0.0385126 1.54702e-17)
(1.07015 -0.0445294 7.92248e-17)
(1.09291 -0.0488359 -3.67411e-16)
(1.11771 -0.0502181 -6.22386e-17)
(1.14226 -0.0480196 1.84271e-15)
(1.16459 -0.0432239 2.37354e-15)
(1.18388 -0.0364407 -2.04996e-15)
(1.19937 -0.0282252 -1.08942e-14)
(1.21061 -0.0190328 -1.97886e-14)
(1.21719 -0.00921005 -2.4359e-14)
(1.21876 0.000726916 -2.31505e-14)
(1.21517 0.00989588 -1.96655e-14)
(1.20686 0.017021 -1.498e-14)
(1.19522 0.0207422 -9.038e-15)
(1.18252 0.0201389 -9.14077e-16)
(1.17149 0.0151488 1.0804e-14)
(1.16474 0.00678136 2.74453e-14)
(1.16405 -0.00291933 5.39174e-14)
(1.16978 -0.0111276 9.65838e-14)
(1.18037 -0.0147101 1.4194e-13)
(1.19208 -0.0112077 1.55588e-13)
(1.19973 -0.000197651 1.33896e-13)
(1.19862 0.0159671 1.07547e-13)
(1.18665 0.0330438 8.49657e-14)
(1.16488 0.0468364 6.60217e-14)
(1.13662 0.0545624 5.03489e-14)
(1.10593 0.0550443 4.17478e-14)
(1.0768 0.0481976 4.29677e-14)
(1.05275 0.0344174 -1.73236e-15)
(1.03703 0.0142594 -5.83145e-15)
(1.03285 -0.0114691 8.66104e-13)
(1.04353 -0.0410678 7.24514e-13)
(1.07205 -0.0707579 -1.14838e-11)
(1.11904 -0.093626 -4.38591e-11)
(1.17879 -0.100658 -8.23021e-11)
(1.23769 -0.0854696 -9.71915e-11)
(1.27936 -0.0499693 -7.45166e-11)
(1.2932 -0.00497356 -3.73634e-11)
(1.279 0.0360289 -1.22389e-11)
(1.24496 0.0640314 -1.54291e-12)
(1.20184 0.0770273 9.12863e-13)
(1.15823 0.0776159 6.83334e-13)
(1.11925 0.069709 2.28196e-13)
(1.08741 0.0566393 3.55379e-14)
(1.06383 0.0406977 -1.50262e-15)
(1.04904 0.0234199 -5.51107e-16)
(1.04328 0.0060953 -1.86576e-14)
(1.04643 -0.0097707 -1.55264e-13)
(1.05749 -0.0222866 -6.25539e-13)
(1.07422 -0.0295209 -1.48844e-12)
(1.09309 -0.0302139 -2.29451e-12)
(1.11001 -0.024471 -2.45408e-12)
(1.12144 -0.0139576 -1.92001e-12)
(1.12542 -0.00136486 -1.16358e-12)
(1.12193 0.0105583 -5.95227e-13)
(1.11247 0.0198406 -2.81979e-13)
(1.09928 0.0256173 -1.4672e-13)
(1.08454 0.0279529 -1.00988e-13)
(1.06998 0.0274532 -8.91824e-14)
(1.05678 0.0249114 -8.67243e-14)
(1.04563 0.0210865 -8.69414e-14)
(1.03685 0.0166101 -9.04708e-14)
(1.03052 0.0119722 -9.90992e-14)
(1.02651 0.00754117 -1.12743e-13)
(1.0246 0.0035924 -1.28677e-13)
(1.02446 0.000330907 -1.42555e-13)
(1.02568 -0.00209808 -1.49531e-13)
(1.0278 -0.00361321 -1.44785e-13)
(1.03035 -0.00420963 -1.25491e-13)
(1.03285 -0.0039683 -9.26487e-14)
(1.03491 -0.00305202 -5.17694e-14)
(1.03624 -0.00168402 -1.18221e-14)
(1.0367 -0.000112991 1.75362e-14)
(1.03627 0.00142599 3.06517e-14)
(1.03507 0.00274471 2.87483e-14)
(1.03327 0.00372126 1.70022e-14)
(1.03111 0.00430331 1.48945e-15)
(1.02881 0.00449899 -1.2813e-14)
(1.02656 0.00436056 -2.2735e-14)
(1.0245 0.00396638 -2.66845e-14)
(1.02274 0.00340473 -2.40618e-14)
(1.02133 0.00276137 -1.47042e-14)
(1.02026 0.00211126 1.37948e-15)
(1.01953 0.00151399 2.39915e-14)
(1.01907 0.00101199 5.25714e-14)
(1.01882 0.000630682 8.60046e-14)
(1.01871 0.000379872 1.22572e-13)
(1.01868 0.000255979 1.60079e-13)
(1.01866 0.000244755 1.9616e-13)
(1.0186 0.000324312 2.28656e-13)
(1.01846 0.000468331 2.55975e-13)
(1.01822 0.000649217 2.77321e-13)
(1.01788 0.000840955 2.92748e-13)
(1.01744 0.00102138 3.03054e-13)
(1.01691 0.00117373 3.0955e-13)
(1.01631 0.00128732 3.13792e-13)
(1.01567 0.00135752 3.17324e-13)
(1.01501 0.001385 3.21481e-13)
(1.01436 0.00137463 3.27271e-13)
(1.01372 0.0013341 3.35326e-13)
(1.01312 0.00127253 3.45919e-13)
(1.01255 0.0011993 3.5901e-13)
(1.01203 0.00112302 3.74316e-13)
(1.01155 0.00105083 3.91383e-13)
(1.01109 0.000988056 4.09657e-13)
(1.01067 0.000938049 4.28551e-13)
(1.01026 0.000902285 4.47505e-13)
(1.00987 0.000880619 4.66033e-13)
(1.00948 0.00087163 4.83773e-13)
(1.00909 0.000873014 5.00515e-13)
(1.00869 0.00088197 5.16227e-13)
(1.00828 0.00089556 5.31066e-13)
(1.00787 0.000911007 5.45354e-13)
(1.00744 0.000925919 5.59538e-13)
(1.00701 0.000938435 5.74124e-13)
(1.00657 0.000947298 5.89587e-13)
(1.00613 0.000951851 6.06293e-13)
(1.00568 0.000951967 6.24406e-13)
(1.00524 0.000947948 6.43848e-13)
(1.0048 0.000940384 6.64274e-13)
(1.00436 0.000930012 6.85099e-13)
(1.00393 0.000917584 7.05558e-13)
(1.0035 0.000903756 7.24781e-13)
(1.00307 0.000889006 7.41902e-13)
(1.00266 0.00087359 7.56172e-13)
(1.00225 0.000857528 7.6709e-13)
(1.00184 0.000840615 7.74545e-13)
(1.00144 0.000822463 7.78969e-13)
(1.00104 0.000802545 7.81503e-13)
(1.00066 0.000780227 7.84122e-13)
(1.00028 0.000754753 7.89734e-13)
(0.999904 0.000725148 8.02176e-13)
(0.999544 0.000690002 8.26106e-13)
(0.999198 0.000647154 8.66791e-13)
(0.998869 0.000593343 9.29784e-13)
(0.998563 0.000523973 1.02055e-12)
(0.998286 0.000433206 1.14405e-12)
(0.998047 0.000314594 1.30432e-12)
(0.997855 0.000162394 1.50388e-12)
(0.997725 -2.6494e-05 1.74319e-12)
(0.997668 -0.000250265 2.01993e-12)
(0.997696 -0.000500221 2.32837e-12)
(0.997815 -0.000759692 2.65827e-12)
(0.998025 -0.00100479 2.99395e-12)
(0.998316 -0.00120677 3.31393e-12)
(0.998668 -0.00133725 3.59157e-12)
(0.999051 -0.00137254 3.79712e-12)
(0.999426 -0.0013021 3.90065e-12)
(0.999762 -0.00112682 3.87579e-12)
(1.00001 -0.000871126 3.70127e-12)
(1.00018 -0.000560259 3.37206e-12)
(1.00018 -0.000250527 2.85281e-12)
(1.00019 3.1827e-05 2.31787e-12)
(0.999907 0.000285009 1.0255e-12)
(1.00012 -0.00292322 2.44115e-18)
(1.00183 -0.00886861 8.55209e-18)
(1.00579 -0.0153045 6.00256e-18)
(1.01203 -0.0224249 1.02846e-17)
(1.02109 -0.030327 2.295e-17)
(1.03346 -0.038843 -9.02536e-17)
(1.04973 -0.0475525 4.25713e-16)
(1.07009 -0.0553657 -8.35225e-16)
(1.09421 -0.0611005 -5.96744e-16)
(1.12093 -0.0629674 5.70895e-15)
(1.14728 -0.0600515 3.46685e-15)
(1.17095 -0.0538967 -2.0642e-14)
(1.19122 -0.0453232 -5.35945e-14)
(1.20742 -0.0350412 -6.85452e-14)
(1.21914 -0.0235773 -5.20011e-14)
(1.22597 -0.0112676 -1.24054e-14)
(1.22738 0.00132808 2.99072e-14)
(1.22301 0.0131212 6.84815e-14)
(1.21316 0.022415 1.03772e-13)
(1.19932 0.0273364 1.39636e-13)
(1.18412 0.0265773 1.81504e-13)
(1.17086 0.0199703 2.32188e-13)
(1.16276 0.00877146 2.87258e-13)
(1.16211 -0.00438427 3.66514e-13)
(1.1696 -0.0157702 4.81449e-13)
(1.18358 -0.0211058 5.55028e-13)
(1.19952 -0.0168841 4.69723e-13)
(1.21081 -0.00238588 2.79753e-13)
(1.21138 0.0191603 1.72662e-13)
(1.19859 0.0418749 1.4713e-13)
(1.174 0.0600714 1.43834e-13)
(1.1418 0.0701826 1.32957e-13)
(1.10689 0.0709044 1.27586e-13)
(1.0737 0.0623515 9.34714e-14)
(1.04593 0.04513 -4.55479e-14)
(1.02694 0.0198652 6.26739e-13)
(1.02015 -0.0127197 1.44888e-12)
(1.02982 -0.0510313 -1.10368e-11)
(1.06097 -0.0907457 -3.9722e-11)
(1.11589 -0.122519 -3.78812e-11)
(1.18818 -0.133048 3.4657e-12)
(1.26021 -0.112763 8.8328e-12)
(1.30974 -0.064597 -2.79121e-11)
(1.32332 -0.00419475 -4.43395e-11)
(1.30255 0.0496783 -3.15157e-11)
(1.25943 0.0851208 -1.16438e-11)
(1.20799 0.100253 -6.66253e-13)
(1.15825 0.0993768 1.76304e-12)
(1.11535 0.0881172 1.06444e-12)
(1.08127 0.0708841 2.86678e-13)
(1.05659 0.050453 -1.14858e-14)
(1.04152 0.0285256 -5.82286e-14)
(1.03632 0.00651042 -1.27483e-13)
(1.04102 -0.0137906 -8.44547e-13)
(1.05477 -0.0299156 -3.28749e-12)
(1.07511 -0.0392259 -7.28906e-12)
(1.09788 -0.039933 -1.02784e-11)
(1.11807 -0.0321207 -9.7631e-12)
(1.13139 -0.0180491 -6.32576e-12)
(1.1356 -0.00139763 -2.73959e-12)
(1.13096 0.0141234 -7.17255e-13)
(1.11954 0.0259432 -5.21063e-15)
(1.10419 0.0330444 6.24697e-14)
(1.08752 0.035654 -5.38287e-14)
(1.07147 0.0346704 -1.59155e-13)
(1.05727 0.0311762 -2.13318e-13)
(1.04555 0.0261588 -2.32932e-13)