/*--------------------------------*- C++ -*----------------------------------*\
  =========                 |
  \\      /  F ield         | OpenFOAM: The Open Source CFD Toolbox
   \\    /   O peration     | Website:  https://openfoam.org
    \\  /    A nd           | Version:  11
     \\/     M anipulation  |
\*---------------------------------------------------------------------------*/
FoamFile
{
    format      ascii;
    class       volScalarField;
    location    "12.930066";
    object      p;
}
// * * * * * * * * * * * * * * * * * * * * * * * * * * * * * * * * * * * * * //

dimensions      [0 2 -2 0 0 0 0];

internalField   nonuniform List<scalar> 
7132
(
0.0690804
0.0678861
0.0638867
0.0581006
0.0501117
0.0398145
0.0273366
0.0129599
-0.00254514
-0.0179723
-0.0318921
-0.0425666
-0.0495267
-0.0527097
-0.0526247
-0.0500163
-0.0453546
-0.038842
-0.0308024
-0.0218415
-0.0126738
-0.00389569
0.00413203
0.0112316
0.0172796
0.0220624
0.0252169
0.0264623
0.0260104
0.0247759
0.0238831
0.0239676
0.0249353
0.0263206
0.0277053
0.0289074
0.0299828
0.031073
0.0322306
0.0331622
0.0331775
0.0316422
0.0287233
0.0256147
0.0236906
0.0234968
0.0245504
0.0259625
0.0270825
0.0277111
0.0280138
0.0283092
0.0288208
0.0293347
0.0290962
0.027295
0.0239727
0.0204171
0.0183227
0.0184785
0.0203252
0.0226094
0.0243396
0.02518
0.0253299
0.0252372
0.0253062
0.0255321
0.0253055
0.023722
0.020438
0.0163378
0.0132106
0.0125171
0.0143953
0.0176653
0.0207805
0.0227553
0.0234397
0.0232622
0.0228521
0.0226618
0.0225877
0.0218938
0.0196972
0.0158351
0.011329
0.0079118
0.00692915
0.0085505
0.0117635
0.015067
0.0172712
0.0179287
0.0172869
0.0159538
0.0144175
0.0126139
0.00991086
0.00567782
7.45077e-05
-0.00570103
-0.0100027
-0.0117041
-0.0107664
-0.00811605
-0.00506425
-0.00272783
-0.00178184
-0.00249894
-0.00494426
-0.00917341
-0.0152916
-0.0233003
-0.0327465
-0.0424334
-0.0505151
-0.0550641
-0.054876
-0.0499973
-0.041735
-0.032065
-0.0228423
-0.0152476
-0.00967702
-0.00598157
-0.00380141
-0.00279601
-0.00272689
-0.00344941
-0.00485107
-0.00677981
-0.00897772
-0.0110584
-0.0125531
-0.0130299
-0.0122464
-0.0102675
-0.00749147
-0.00452651
-0.0019587
-0.000131162
0.000929914
0.00141612
0.00156849
0.00155873
0.00146748
0.00131165
0.00109947
0.00083192
0.000555899
0.000263572
7.26467e-05
-0.000159463
-9.41327e-05
-0.000382833
0.00021909
-0.000759052
0.00138091
-0.00246687
0.0695534
0.0683655
0.0643902
0.058622
0.0506328
0.04029
0.0276984
0.0131096
-0.00269466
-0.0184774
-0.032717
-0.0435233
-0.0504734
-0.0535289
-0.0532832
-0.0505624
-0.0458463
-0.0392824
-0.0311518
-0.022064
-0.0127575
-0.00384901
0.00429122
0.0114821
0.0175972
0.0224174
0.0255587
0.0267159
0.0261034
0.0246895
0.0236706
0.0237128
0.0247012
0.0261337
0.0275701
0.0288211
0.0299419
0.0310725
0.032267
0.0332249
0.0332294
0.0316153
0.0285543
0.0253001
0.0232992
0.0231193
0.0242471
0.0257454
0.0269377
0.027619
0.0279573
0.0282734
0.028795
0.0293041
0.0290285
0.0271369
0.0236757
0.0199805
0.0178127
0.0179914
0.0199377
0.0223436
0.0241774
0.0250888
0.0252787
0.0252015
0.0252688
0.0254726
0.0251877
0.0234942
0.0200602
0.0158145
0.0125992
0.0119016
0.0138553
0.0172504
0.0205009
0.0225896
0.0233501
0.0232109
0.0228129
0.0226187
0.0225143
0.0217415
0.0194093
0.0153836
0.0107416
0.00726679
0.00631854
0.00804344
0.0113932
0.0148353
0.0171621
0.0179131
0.0173278
0.0160136
0.0144595
0.0125859
0.00974531
0.00531877
-0.00048343
-0.00639609
-0.0107228
-0.0123254
-0.0111922
-0.00829837
-0.00501109
-0.00248607
-0.00141555
-0.00207621
-0.00453685
-0.00886399
-0.0151713
-0.0234532
-0.0332229
-0.0432253
-0.0515497
-0.0562187
-0.0560069
-0.0509713
-0.0424601
-0.0325079
-0.0230235
-0.0152225
-0.0095138
-0.00574549
-0.00354598
-0.00256018
-0.00253688
-0.00332427
-0.00480561
-0.00682425
-0.00911367
-0.0112754
-0.012829
-0.0133354
-0.0125521
-0.0105473
-0.00772624
-0.0047047
-0.00207767
-0.000197169
0.000904313
0.00141646
0.0015823
0.00157705
0.00148463
0.00132424
0.00110561
0.000830987
0.000548157
0.000250055
5.48626e-05
-0.000179404
-0.000114248
-0.000401038
0.000204929
-0.000770639
0.00138304
-0.00248113
0.0704964
0.0693228
0.0653978
0.0596703
0.051686
0.0412578
0.0284428
0.0134267
-0.00298673
-0.0195039
-0.0344048
-0.045473
-0.0523912
-0.0551669
-0.0545752
-0.0516186
-0.0467999
-0.0401468
-0.0318446
-0.0225091
-0.0129289
-0.00376225
0.00460126
0.0119752
0.0182276
0.0231276
0.0262463
0.0272247
0.0262793
0.0244913
0.0232117
0.0231715
0.0242085
0.0257406
0.0272822
0.0286295
0.0298388
0.0310494
0.032319
0.0333331
0.0333178
0.031541
0.0281833
0.0246244
0.0224647
0.0223198
0.0236083
0.025288
0.0266278
0.0274129
0.0278188
0.0281741
0.0287156
0.0292158
0.0288625
0.0267792
0.0230256
0.0190391
0.0167212
0.0169556
0.0191157
0.0217793
0.0238279
0.0248817
0.0251465
0.0250943
0.0251556
0.0253179
0.0249198
0.0230075
0.0192735
0.0147362
0.0113446
0.0106399
0.0127471
0.0163948
0.0199173
0.0222325
0.0231405
0.0230719
0.0226936
0.0224909
0.0223265
0.0213947
0.0187897
0.014437
0.00952545
0.00594012
0.00506833
0.00701181
0.0106428
0.0143643
0.016933
0.0178662
0.0173909
0.016116
0.0145281
0.0125094
0.00937696
0.00453889
-0.00168436
-0.00788413
-0.012259
-0.0136477
-0.0120983
-0.00869664
-0.0049246
-0.00201581
-0.000694984
-0.00124395
-0.00373745
-0.00826538
-0.0149623
-0.0238101
-0.0342522
-0.0449122
-0.0537448
-0.058664
-0.0583991
-0.0530315
-0.0439972
-0.033453
-0.0234224
-0.0151939
-0.00920211
-0.00528607
-0.00304751
-0.00210013
-0.00216689
-0.00308206
-0.00472116
-0.00691823
-0.00938927
-0.0117114
-0.0133807
-0.0139438
-0.0131582
-0.0111006
-0.00818941
-0.00505596
-0.00231268
-0.0003287
0.000851611
0.00141467
0.00160749
0.00161201
0.00151818
0.00134926
0.00111809
0.000829355
0.000532809
0.000222887
1.89831e-05
-0.000220038
-0.000155074
-0.000438812
0.000176334
-0.000796081
0.0013881
-0.00251035
0.0719039
0.070754
0.0669118
0.061256
0.0532931
0.0427514
0.029611
0.0139466
-0.00340957
-0.0210909
-0.0370432
-0.0485046
-0.0553579
-0.0576781
-0.0565433
-0.0532412
-0.0482974
-0.041529
-0.0329609
-0.0232313
-0.0132199
-0.00365378
0.00505047
0.0127025
0.019166
0.0241937
0.0272817
0.0279772
0.0264964
0.0241076
0.0224213
0.0222709
0.0234061
0.0251069
0.0268147
0.0283071
0.0296462
0.0309736
0.0323536
0.0334497
0.0333956
0.0313494
0.0275055
0.0234538
0.0210542
0.020994
0.0225663
0.0245484
0.0261217
0.0270625
0.0275627
0.0279672
0.028527
0.0290039
0.0285239
0.0261359
0.0219173
0.0174664
0.0149115
0.0152458
0.0177657
0.020855
0.0232493
0.0245208
0.0248885
0.0248603
0.0249042
0.0250024
0.0244317
0.0221833
0.0179877
0.0130053
0.00935266
0.0086531
0.011011
0.0150532
0.0189904
0.0216444
0.0227672
0.0227983
0.0224496
0.0222391
0.021982
0.0207917
0.0177424
0.0128629
0.00752614
0.00378037
0.00305536
0.00537327
0.00946478
0.0136264
0.0165613
0.017764
0.017455
0.0162484
0.0146134
0.0123557
0.00873502
0.00321594
-0.00369009
-0.0103407
-0.0147732
-0.0157991
-0.0135718
-0.00936182
-0.00483139
-0.00133341
0.000363141
-2.46963e-05
-0.00257835
-0.0074273
-0.0147433
-0.0244898
-0.0359975
-0.0476964
-0.0573276
-0.0626337
-0.062273
-0.0563659
-0.046489
-0.0349959
-0.024096
-0.0151945
-0.00876254
-0.00461964
-0.00232086
-0.00142961
-0.00162989
-0.00273569
-0.00461085
-0.00707451
-0.00981548
-0.0123741
-0.0142117
-0.0148545
-0.0140605
-0.0119195
-0.00887159
-0.00557198
-0.00265845
-0.000523916
0.000771276
0.00140947
0.00164321
0.0016633
0.0015678
0.00138575
0.00113497
0.000824218
0.00050643
0.000178372
-3.87582e-05
-0.000284703
-0.000219687
-0.000497979
0.000130945
-0.000834953
0.00139224
-0.00255105
0.0737662
0.0726522
0.0689339
0.0633944
0.055487
0.0448235
0.0312705
0.0147304
-0.00393603
-0.0232934
-0.0407616
-0.0527381
-0.0594496
-0.061051
-0.0590951
-0.0553125
-0.0502597
-0.0434033
-0.0345054
-0.0242447
-0.0136463
-0.00354037
0.00562017
0.013646
0.0203993
0.0256117
0.0286652
0.028955
0.0266878
0.0234149
0.0211519
0.0208821
0.0222027
0.0241703
0.0261185
0.0278064
0.0293121
0.0307879
0.0323091
0.0335085
0.0333809
0.0309195
0.0263402
0.0215546
0.0188312
0.0189538
0.020996
0.0234483
0.025363
0.0265123
0.0271193
0.0275558
0.0281046
0.0285307
0.0278825
0.0251026
0.0202712
0.0151802
0.0122712
0.0127217
0.0157574
0.0194711
0.0223678
0.023939
0.0244275
0.0244103
0.0244271
0.0244467
0.0236394
0.0209049
0.0160365
0.0104211
0.00642985
0.00579194
0.00854719
0.0131559
0.0176625
0.0207674
0.0221685
0.0223282
0.022028
0.0218192
0.0214284
0.0198484
0.0161402
0.0104985
0.00456181
0.000604884
0.000115388
0.00299925
0.00777364
0.0125685
0.0160092
0.0175748
0.0174964
0.0163992
0.0147029
0.0120865
0.00773568
0.00122424
-0.0066462
-0.013908
-0.0183906
-0.0188873
-0.0157012
-0.0103627
-0.00478417
-0.00048229
0.00171778
0.00153744
-0.00111355
-0.00642557
-0.0146233
-0.0256352
-0.0386239
-0.051748
-0.0624618
-0.0682846
-0.0677784
-0.0611156
-0.0500596
-0.037236
-0.0251172
-0.0152766
-0.00823644
-0.00378296
-0.00140049
-0.000580209
-0.000953631
-0.00230909
-0.00449502
-0.00730924
-0.0104028
-0.0132669
-0.0153177
-0.0160558
-0.0152411
-0.0129832
-0.00975247
-0.00623584
-0.00310303
-0.000775834
0.000666604
0.00140223
0.00169034
0.00173188
0.0016343
0.00143376
0.00115518
0.000813359
0.000465832
0.000112549
-0.000122846
-0.00037805
-0.000312551
-0.000582324
6.52705e-05
-0.000889076
0.00139126
-0.0026006
0.076069
0.0750065
0.0714649
0.0661039
0.0583111
0.047546
0.0335153
0.0158661
-0.00452682
-0.0262008
-0.0457684
-0.0583772
-0.064846
-0.0654096
-0.0623224
-0.0579497
-0.0528574
-0.0459684
-0.0366478
-0.0256644
-0.0142775
-0.00346725
0.00627358
0.0147706
0.0218956
0.0273609
0.0303808
0.0301107
0.0267293
0.0222072
0.0191724
0.0188123
0.020467
0.0228436
0.0251251
0.0270596
0.0287588
0.0303987
0.0320655
0.0333646
0.0331113
0.0300583
0.0244364
0.018609
0.0154565
0.0159195
0.018713
0.0218773
0.0242745
0.0256828
0.0263794
0.0267856
0.0272641
0.027609
0.026757
0.0234955
0.0178996
0.0120106
0.00865714
0.00926293
0.0129736
0.0175221
0.0210924
0.0230479
0.0236681
0.0236504
0.0236464
0.0235795
0.0224444
0.0190156
0.0132016
0.00672667
0.00232068
0.00184489
0.00521141
0.0106133
0.0158676
0.019537
0.0212775
0.021602
0.0213835
0.0211891
0.0206038
0.0184693
0.0138627
0.00721796
0.000512272
-0.00370406
-0.00387039
-0.000220199
0.00548286
0.011128
0.015228
0.0172572
0.0174833
0.0165453
0.0147632
0.011639
0.00628634
-0.0015352
-0.0106281
-0.0186234
-0.0231188
-0.0229117
-0.0184982
-0.0117288
-0.00482943
0.000478763
0.00330203
0.00336875
0.000566607
-0.00537764
-0.0147428
-0.0273824
-0.042223
-0.0570869
-0.0690983
-0.0755286
-0.0748316
-0.067228
-0.0546967
-0.0401943
-0.0265277
-0.015492
-0.00767929
-0.00283174
-0.00033874
0.000401831
-0.000177665
-0.00183599
-0.00440174
-0.00764314
-0.0111621
-0.0143891
-0.0166863
-0.0175245
-0.0166681
-0.0142559
-0.0107976
-0.00701972
-0.00362823
-0.00107549
0.000540178
0.00139259
0.00174794
0.00181701
0.00171659
0.00149111
0.00117515
0.000792104
0.000405598
1.9546e-05
-0.000239437
-0.000506033
-0.000439277
-0.000696081
-2.49554e-05
-0.000959605
0.00137896
-0.00265456
0.0787918
0.0778009
0.0745027
0.0694058
0.0618194
0.0510147
0.0364776
0.0174867
-0.00510922
-0.0299267
-0.0523412
-0.0656594
-0.0716736
-0.0706664
-0.0659685
-0.0608943
-0.055978
-0.0492541
-0.0394657
-0.0275595
-0.0151677
-0.00348576
0.00695156
0.0160084
0.023588
0.0293862
0.0323795
0.0313533
0.026422
0.0201616
0.016119
0.0157634
0.0180052
0.0210037
0.0237383
0.0259688
0.0278668
0.0296308
0.0313563
0.032688
0.032296
0.0286119
0.0217391
0.0144972
0.010655
0.0115584
0.0154633
0.019677
0.0227467
0.0244596
0.0251886
0.0254708
0.0258312
0.0260934
0.0249924
0.0210738
0.0144578
0.00759211
0.00381011
0.0047015
0.00929692
0.0149027
0.0193184
0.0217404
0.0225054
0.0224919
0.0224919
0.0223233
0.0207339
0.0163686
0.00932842
0.00177487
-0.0031229
-0.00333683
0.000876178
0.00733321
0.0135344
0.017884
0.0200245
0.0205579
0.0204638
0.0202906
0.0194324
0.016571
0.0108466
0.0029999
-0.00460496
-0.00911757
-0.00889276
-0.00430779
0.00254711
0.00925165
0.0141642
0.0167607
0.0173698
0.0166406
0.014734
0.0109372
0.00431914
-0.00508405
-0.0155865
-0.0243731
-0.0288138
-0.0277422
-0.0218828
-0.0134461
-0.00501232
0.00146427
0.00500919
0.00535073
0.00232521
-0.00443444
-0.0152305
-0.0297748
-0.0466981
-0.0634635
-0.0768689
-0.0839437
-0.0830341
-0.0743879
-0.0601968
-0.0437773
-0.0283186
-0.0158854
-0.00716351
-0.00184712
0.000786564
0.0014484
0.000641293
-0.00136212
-0.00436475
-0.00809467
-0.012093
-0.0157208
-0.0182813
-0.0192136
-0.018289
-0.0156843
-0.0119586
-0.00788556
-0.00420902
-0.00141007
0.000396169
0.00138039
0.00181461
0.0019171
0.00181257
0.00155481
0.0011911
0.000756418
0.000321705
-0.000104836
-0.000393267
-0.000673806
-0.000605341
-0.000843844
-0.000144666
-0.00104815
0.00134721
-0.0027071
0.081906
0.0810117
0.0780399
0.0733199
0.0660735
0.0553465
0.0403267
0.0197734
-0.00557951
-0.0346483
-0.0608996
-0.0749756
-0.0803033
-0.0770917
-0.0702089
-0.0643211
-0.0598632
-0.0535721
-0.0432343
-0.030117
-0.0164339
-0.00368556
0.00756092
0.0172496
0.0253524
0.031576
0.0345385
0.0324777
0.0253778
0.0167097
0.01142
0.0113057
0.0145524
0.0184872
0.0218316
0.0244035
0.0264573
0.0281787
0.0297236
0.0309437
0.0304301
0.0262541
0.0181684
0.00925677
0.00438036
0.00565622
0.0109955
0.0166545
0.0206355
0.0226964
0.0233746
0.0234484
0.0236899
0.0238868
0.0224428
0.0176046
0.00964541
0.00160095
-0.00259302
-0.00116241
0.00460754
0.0115192
0.0169452
0.0199083
0.0208413
0.0208581
0.0208925
0.0205898
0.0184047
0.0128835
0.0043987
-0.0043915
-0.0098425
-0.00972931
-0.00447904
0.00327178
0.0106093
0.0157466
0.0183436
0.0191326
0.0192049
0.0190483
0.0178355
0.0141025
0.00710456
-0.00206563
-0.0106382
-0.015462
-0.0148031
-0.00917435
-0.00100972
0.0069156
0.0127679
0.0160235
0.0170876
0.016605
0.0145235
0.00989944
0.00180686
-0.00935173
-0.0213413
-0.030895
-0.0351867
-0.0331224
-0.02568
-0.0154454
-0.00536413
0.0023688
0.00669019
0.00730777
0.0039677
-0.0037729
-0.0161713
-0.032725
-0.0517503
-0.0703881
-0.0851549
-0.0928665
-0.0917483
-0.0820554
-0.0661725
-0.0477638
-0.0304126
-0.0164803
-0.00676872
-0.000929893
0.00187601
0.00247222
0.0014303
-0.000944617
-0.00442066
-0.00867261
-0.0131716
-0.0172072
-0.0200257
-0.021037
-0.0200195
-0.0171926
-0.0131726
-0.00878644
-0.00481602
-0.001766
0.000237037
0.00136235
0.001885
0.00202627
0.00191588
0.00161866
0.00119825
0.000703948
0.000214088
-0.000259643
-0.00058405
-0.000882502
-0.000813538
-0.00102847
-0.00029806
-0.00115532
0.00128649
-0.00275002
0.0853732
0.0846061
0.0820613
0.0778639
0.0711432
0.0606895
0.0452921
0.0229973
-0.00575361
-0.0405859
-0.0720001
-0.0867323
-0.0908314
-0.0842766
-0.0743587
-0.0675625
-0.0645001
-0.0592229
-0.048262
-0.0335442
-0.0182124
-0.00419079
0.00794815
0.0182947
0.0269742
0.0337064
0.0365735
0.0330153
0.0228585
0.0108506
0.00409904
0.00475578
0.00972535
0.0150834
0.0192525
0.0221971
0.0242718
0.0256352
0.0266778
0.027676
0.0270986
0.0224685
0.0130938
0.00240736
-0.00357612
-0.00189574
0.00514349
0.0126284
0.0177739
0.0202287
0.0207799
0.020601
0.0207606
0.0208977
0.0189781
0.0129725
0.00342235
-0.00595535
-0.0105456
-0.00839042
-0.00115636
0.00730773
0.0138894
0.0174556
0.0185872
0.0186718
0.0187643
0.018286
0.0153913
0.00857818
-0.00145705
-0.0115468
-0.0175813
-0.0171157
-0.0107263
-0.00152941
0.00707757
0.0130792
0.0161732
0.0172543
0.017523
0.0173692
0.0157401
0.0110551
0.00272589
-0.00778772
-0.0173215
-0.0224425
-0.0213323
-0.0146257
-0.00508931
0.00413446
0.0109977
0.0149723
0.0165422
0.0163249
0.0140177
0.0084555
-0.00121861
-0.0141676
-0.0275908
-0.037803
-0.041835
-0.0387027
-0.0296487
-0.0176225
-0.00591356
0.00306142
0.00814886
0.00900285
0.00525248
-0.00356516
-0.0175753
-0.0360194
-0.0569442
-0.0772537
-0.0932422
-0.101532
-0.10023
-0.0895812
-0.0721298
-0.0518461
-0.0326784
-0.0172794
-0.00657807
-0.000196719
0.00280986
0.00336517
0.00209757
-0.000651649
-0.00460342
-0.00936657
-0.01434
-0.0187501
-0.0217966
-0.022865
-0.0217401
-0.01868
-0.0143619
-0.00966838
-0.00541733
-0.0021298
6.32758e-05
0.00133153
0.00194853
0.00213261
0.0020146
0.00167376
0.00119395
0.000639712
9.39928e-05
-0.000430869
-0.000799139
-0.00112335
-0.00105977
-0.00124855
-0.000487179
-0.00128033
0.00118656
-0.00277245
0.0891428
0.0885386
0.0865389
0.0830441
0.0770955
0.0672083
0.0516507
0.0275182
-0.0053824
-0.0480987
-0.0864671
-0.101704
-0.104181
-0.0929765
-0.0788126
-0.0710313
-0.0700864
-0.0666265
-0.0549884
-0.0381488
-0.0207001
-0.00517654
0.00789421
0.0188468
0.0280696
0.0352257
0.0378625
0.0323094
0.017994
0.00143249
-0.00713623
-0.00484356
0.00300477
0.0105306
0.0158233
0.0191424
0.0209927
0.0216209
0.0219638
0.0227873
0.0222061
0.0168889
0.00586419
-0.00670425
-0.0136178
-0.0112274
-0.00217668
0.00746949
0.0140044
0.0169004
0.0172831
0.016852
0.0169766
0.0170457
0.0145424
0.00723653
-0.00398853
-0.0147467
-0.0197459
-0.0167889
-0.00791464
0.00227335
0.0101071
0.0143127
0.0156679
0.0158521
0.0160132
0.015329
0.0116794
0.00356175
-0.00799052
-0.0193344
-0.0259347
-0.0251275
-0.0176007
-0.00693052
0.00298029
0.0098628
0.0134601
0.0148447
0.0153192
0.0151544
0.0130905
0.0074643
-0.00213637
-0.0139022
-0.0243121
-0.0296856
-0.0281315
-0.0203909
-0.00953098
0.000960528
0.00882334
0.0135226
0.0156124
0.0156573
0.0130902
0.00655783
-0.00466657
-0.0192804
-0.033948
-0.0446337
-0.0482927
-0.0440841
-0.0335134
-0.0198561
-0.00669182
0.00338847
0.00914817
0.0101521
0.00592045
-0.00395213
-0.0193881
-0.0393885
-0.0618282
-0.0834762
-0.100461
-0.10923
-0.107769
-0.0963182
-0.0775513
-0.0556822
-0.0349545
-0.0182683
-0.00667097
0.000229259
0.00345517
0.00400239
0.0025364
-0.000557181
-0.00493948
-0.0101471
-0.0155157
-0.0202257
-0.0234463
-0.0245448
-0.0233094
-0.0200298
-0.0154396
-0.0104741
-0.00598158
-0.00249069
-0.000128966
0.00127454
0.00198568
0.00221325
0.0020875
0.00170672
0.00117768
0.000577258
-1.40073e-05
-0.000588523
-0.00100966
-0.0013734
-0.00132918
-0.00149532
-0.000709613
-0.00141963
0.0010384
-0.00276066
0.0931505
0.09275
0.0914291
0.0888554
0.0839967
0.0751066
0.0597783
0.0338924
-0.00401093
-0.0576426
-0.105452
-0.120409
-0.11983
-0.101559
-0.0818741
-0.0738713
-0.0772367
-0.0769058
-0.0642596
-0.0443899
-0.0241563
-0.00688333
0.00707494
0.0184548
0.0278006
0.0347175
0.0370194
0.0300955
0.0119885
-0.0103053
-0.0224812
-0.0184819
-0.00631351
0.00449733
0.0113525
0.0150177
0.0163315
0.0159177
0.0155476
0.0163184
0.0157217
0.00946525
-0.00345215
-0.0179563
-0.0256601
-0.0222808
-0.01092
0.00114205
0.00922175
0.0125961
0.0128044
0.012147
0.0122746
0.0122774
0.00917372
0.000608318
-0.0121875
-0.0242434
-0.0296543
-0.0259325
-0.0154195
-0.00348177
0.00561027
0.010444
0.0120222
0.012315
0.0125449
0.0116593
0.00730798
-0.00198321
-0.0148747
-0.0273161
-0.0344063
-0.033295
-0.0247381
-0.0127075
-0.00158361
0.00611017
0.0101622
0.0118224
0.0124878
0.0123105
0.00985547
0.0034056
-0.00728271
-0.0200989
-0.0312238
-0.0367753
-0.0348076
-0.0261531
-0.0141313
-0.00252373
0.00622571
0.0115811
0.0141561
0.0144406
0.0116169
0.00418949
-0.00839568
-0.0243856
-0.0399845
-0.0508973
-0.0540813
-0.0488634
-0.0370002
-0.0220326
-0.00774405
0.00317594
0.00942582
0.0104609
0.00573651
-0.00502667
-0.0215222
-0.042579
-0.066016
-0.0885634
-0.106238
-0.115334
-0.113736
-0.101686
-0.081963
-0.0589483
-0.0370798
-0.0194256
-0.00712094
0.000224992
0.00367182
0.00424722
0.00263269
-0.000733864
-0.00544685
-0.0109761
-0.0166127
-0.0215132
-0.0248327
-0.0259274
-0.024587
-0.0211246
-0.0163193
-0.0111486
-0.00648071
-0.00284169
-0.000348256
0.00117094
0.0019668
0.00223322
0.00210275
0.00169733
0.00114577
0.000529713
-8.30391e-05
-0.000696951
-0.00117755
-0.00159843
-0.00159652
-0.00175166
-0.000957163
-0.00156633
0.00083643
-0.00269949
0.0973151
0.0971614
0.0966646
0.0952584
0.0918839
0.084567
0.0700848
0.0428197
-0.00111149
-0.0699654
-0.13056
-0.14485
-0.140925
-0.112576
-0.0842088
-0.0754028
-0.0855076
-0.090641
-0.0769501
-0.0528734
-0.0289379
-0.00963316
0.00510483
0.0164272
0.0245573
0.0297469
0.0311631
0.0240996
0.00496378
-0.0222455
-0.0398933
-0.0358111
-0.0186575
-0.00337702
0.00561989
0.00962237
0.010113
0.00849622
0.00749845
0.00834376
0.00772084
0.00049358
-0.0141983
-0.0304984
-0.0389514
-0.0345659
-0.0208129
-0.00625109
0.00341537
0.00727101
0.00731052
0.00645002
0.00660692
0.00658579
0.00299579
-0.00660087
-0.0206838
-0.0338269
-0.0396164
-0.0352547
-0.0232847
-0.00975282
0.000478042
0.00585524
0.00760796
0.00798521
0.00828083
0.00725272
0.00236584
-0.00782457
-0.0217403
-0.0350206
-0.0424869
-0.0411201
-0.0317216
-0.0185766
-0.00646423
0.00186832
0.00625517
0.00811416
0.00893263
0.00876433
0.00603483
-0.0010124
-0.0124875
-0.0260522
-0.0376638
-0.0432938
-0.0409635
-0.0315833
-0.0186671
-0.00621586
0.00319687
0.00905395
0.0120225
0.0125114
0.00948895
0.00136449
-0.0122332
-0.0291626
-0.0452759
-0.0561266
-0.0587562
-0.0526731
-0.0398678
-0.0240643
-0.00913218
0.00224191
0.0087245
0.00966902
0.00452131
-0.00683785
-0.0238961
-0.045401
-0.0692187
-0.0921263
-0.110094
-0.119314
-0.117598
-0.105202
-0.0849749
-0.061377
-0.0389187
-0.0207325
-0.00799367
-0.000324861
0.00332281
0.0039636
0.00227777
-0.00124607
-0.00613917
-0.0118213
-0.0175624
-0.0225164
-0.0258403
-0.0268882
-0.0254526
-0.0218618
-0.0169249
-0.0116443
-0.00689276
-0.00318059
-0.000607986
0.000993452
0.00185267
0.00214663
0.00201686
0.00161147
0.00107576
0.000486588
-0.000111129
-0.000741571
-0.00127806
-0.00176805
-0.00183323
-0.00199497
-0.00121604
-0.00171009
0.000581049
-0.00257559
0.101539
0.101677
0.102151
0.102192
0.100768
0.095831
0.0831495
0.0555064
0.00446362
-0.086403
-0.164352
-0.174275
-0.163302
-0.120375
-0.0823573
-0.0757447
-0.0979938
-0.111095
-0.0949478
-0.0644105
-0.0354235
-0.0137463
0.00156691
0.0117537
0.0164796
0.0184419
0.0186052
0.0126639
-0.00584641
-0.0363386
-0.0590267
-0.0557737
-0.033781
-0.0132327
-0.00154814
0.00282187
0.00229673
-0.00056146
-0.00206298
-0.0010003
-0.00154127
-0.0094749
-0.0254906
-0.0432216
-0.0523872
-0.0472118
-0.03132
-0.0144391
-0.00330418
0.000967657
0.000819026
-0.000245871
-3.70945e-05
2.40371e-05
-0.00379745
-0.0140248
-0.0289563
-0.0428641
-0.0489543
-0.0441336
-0.0310404
-0.0162505
-0.00514413
0.000596988
0.00241137
0.00281122
0.00317574
0.00212827
-0.00301663
-0.0137036
-0.0282133
-0.0419884
-0.0496684
-0.048107
-0.0381276
-0.0242276
-0.0114761
-0.00278352
0.00173902
0.00366812
0.00458445
0.00447628
0.0016623
-0.00565708
-0.0175184
-0.0314472
-0.0432628
-0.0488514
-0.0462277
-0.0363679
-0.022916
-0.0100032
-0.000257787
0.00585761
0.00907187
0.00972571
0.00662672
-0.00187531
-0.0159958
-0.0333076
-0.0494415
-0.0599167
-0.061942
-0.0552131
-0.0419316
-0.0259022
-0.0109322
0.000416325
0.00682913
0.00758792
0.00216544
-0.00940266
-0.0264542
-0.0477367
-0.0712419
-0.0938783
-0.111661
-0.120758
-0.11895
-0.10651
-0.0863099
-0.0627833
-0.0403801
-0.0221818
-0.00934662
-0.00152085
0.00228679
0.00303286
0.00137989
-0.00214668
-0.00703061
-0.0126649
-0.0183209
-0.023169
-0.0263851
-0.027334
-0.0258147
-0.0221629
-0.0171989
-0.011927
-0.00720349
-0.0035092
-0.000923999
0.000712
0.0016005
0.00190339
0.00177781
0.00139765
0.000916912
0.000400777
-0.000136033
-0.000744808
-0.00131585
-0.00187035
-0.00201765
-0.00220188
-0.0014685
-0.00183788
0.000280221
-0.00238236
0.105705
0.106173
0.107757
0.109509
0.110578
0.108945
0.0994652
0.0731349
0.0134615
-0.107305
-0.210398
-0.21684
-0.198959
-0.1326
-0.0759977
-0.0708208
-0.112318
-0.140025
-0.120763
-0.080432
-0.0442623
-0.0195998
-0.00406314
0.00327398
0.00277012
0.00153694
0.00140492
-0.00269488
-0.0208933
-0.0535767
-0.0798959
-0.0772474
-0.0509337
-0.0248927
-0.0101927
-0.00541312
-0.00703516
-0.0111119
-0.0129854
-0.0115122
-0.0116776
-0.0197831
-0.0364341
-0.055048
-0.0648219
-0.0592007
-0.0417229
-0.0229951
-0.0107016
-0.0061798
-0.00659512
-0.00790127
-0.00761037
-0.0072862
-0.0109579
-0.0212795
-0.0365047
-0.0507686
-0.0570391
-0.0519677
-0.0381936
-0.0226343
-0.011055
-0.00523327
-0.00354174
-0.00321591
-0.00276584
-0.00364559
-0.00867574
-0.0193572
-0.0339444
-0.0478098
-0.0555077
-0.0538185
-0.0435652
-0.029354
-0.0164147
-0.00773681
-0.00335332
-0.00153
-0.000581326
-0.000547424
-0.00319201
-0.0103803
-0.0221533
-0.0360034
-0.0477033
-0.0531177
-0.0502845
-0.0402338
-0.0266745
-0.0137704
-0.0041151
0.00193537
0.0051987
0.00598064
0.00298966
-0.00546644
-0.0195106
-0.0365627
-0.0521769
-0.0619568
-0.063354
-0.0562736
-0.0430804
-0.027539
-0.0132213
-0.00243268
0.00359859
0.00411556
-0.00137379
-0.0127164
-0.0291672
-0.0495308
-0.0719813
-0.0936493
-0.110711
-0.119411
-0.117551
-0.105415
-0.0858278
-0.0630806
-0.0414267
-0.0237813
-0.0112265
-0.00343968
0.000471236
0.00136659
-0.000129152
-0.00347645
-0.00813711
-0.0135025
-0.0188655
-0.0234315
-0.0264142
-0.0272058
-0.0256162
-0.0219804
-0.0171079
-0.0119781
-0.00740681
-0.00383134
-0.0013105
0.000300375
0.00117337
0.00146014
0.0013357
0.000999176
0.000607682
0.000210709
-0.000212822
-0.000747944
-0.00131249
-0.00190597
-0.00213554
-0.00234984
-0.00169376
-0.00193444
-5.03606e-05
-0.00212286
0.109682
0.110513
0.11331
0.117047
0.121148
0.124139
0.119817
0.0990005
0.0287736
-0.142818
-0.271074
-0.2608
-0.230162
-0.135332
-0.0633333
-0.0693012
-0.142664
-0.185531
-0.158344
-0.102305
-0.0557947
-0.0273377
-0.0122642
-0.00970284
-0.0160391
-0.0195745
-0.0182418
-0.0199919
-0.0376754
-0.0712723
-0.0999597
-0.0981316
-0.0686535
-0.0377127
-0.0200947
-0.0149447
-0.017687
-0.0229542
-0.0250643
-0.0229067
-0.0222138
-0.0297606
-0.0462172
-0.0650484
-0.0752372
-0.0695549
-0.0512381
-0.0313845
-0.0184346
-0.0139512
-0.014791
-0.0164115
-0.0159909
-0.0151526
-0.018199
-0.0279926
-0.0428892
-0.0570492
-0.0633471
-0.0582376
-0.044285
-0.0285503
-0.0170145
-0.0114912
-0.0101735
-0.0100453
-0.00947559
-0.00994751
-0.0144231
-0.0245357
-0.0386375
-0.0521563
-0.0596623
-0.0579104
-0.0477113
-0.0336811
-0.0210739
-0.0128576
-0.00894841
-0.00744255
-0.00653073
-0.00624589
-0.0084213
-0.0150262
-0.0261952
-0.0394936
-0.0507407
-0.0558451
-0.052895
-0.0429669
-0.0297706
-0.017404
-0.00832763
-0.00272546
0.00035495
0.00123445
-0.00141547
-0.00932976
-0.0226305
-0.0387377
-0.0532773
-0.062055
-0.0628346
-0.0557545
-0.0432836
-0.0290014
-0.0160594
-0.00637438
-0.00102007
-0.000767568
-0.00608336
-0.0167545
-0.0320186
-0.0507748
-0.0714228
-0.0914063
-0.107192
-0.115218
-0.113364
-0.101906
-0.083538
-0.0622864
-0.0420777
-0.0255524
-0.0136636
-0.00612575
-0.00217985
-0.00109062
-0.00229378
-0.00526385
-0.0094728
-0.0143367
-0.019189
-0.0232889
-0.025908
-0.0264833
-0.0248395
-0.0213021
-0.0166459
-0.0117961
-0.00750335
-0.00414941
-0.00177431
-0.000254946
0.000551419
0.000793231
0.000663612
0.000385093
0.000115659
-0.000116381
-0.000372979
-0.000776049
-0.00128004
-0.00187064
-0.00216851
-0.00241379
-0.00186763
-0.0019821
-0.000389161
-0.00180708
0.113324
0.114527
0.1186
0.124451
0.132161
0.140711
0.144549
0.132691
0.0523083
-0.167247
-0.375213
-0.342789
-0.293573
-0.13931
-0.0284354
-0.0395719
-0.162671
-0.243115
-0.211622
-0.133366
-0.0712382
-0.0373117
-0.0233813
-0.0270659
-0.0390291
-0.043713
-0.0389532
-0.0375094
-0.0535684
-0.0865086
-0.116399
-0.115921
-0.0850556
-0.0506427
-0.03073
-0.0254267
-0.029347
-0.0358115
-0.0380148
-0.0348041
-0.0326234
-0.0387828
-0.0541771
-0.0725194
-0.0828602
-0.0774688
-0.0591355
-0.0390363
-0.0260892
-0.0220526
-0.0235543
-0.0255905
-0.0249709
-0.0233149
-0.025211
-0.0338273
-0.0477614
-0.0613465
-0.0675004
-0.0625513
-0.0489348
-0.0336675
-0.0227633
-0.0179878
-0.0173439
-0.0175522
-0.0168121
-0.0166026
-0.0200533
-0.0290181
-0.0420673
-0.0548021
-0.0619027
-0.0601495
-0.0503326
-0.0369869
-0.0252594
-0.0179903
-0.0149262
-0.0139684
-0.0131604
-0.012498
-0.0138831
-0.0194378
-0.029482
-0.0417574
-0.0522189
-0.0568818
-0.0539116
-0.0444248
-0.032073
-0.0207941
-0.0128168
-0.00807793
-0.00543069
-0.00447904
-0.00652976
-0.0133754
-0.0252464
-0.0397242
-0.0526543
-0.0601542
-0.0603628
-0.0536735
-0.0425859
-0.0303331
-0.0194672
-0.0114014
-0.0069962
-0.00701388
-0.0119068
-0.02147
-0.0349909
-0.0514953
-0.069641
-0.0872659
-0.101253
-0.108351
-0.106574
-0.0961648
-0.0795982
-0.0605168
-0.0424001
-0.0275213
-0.016664
-0.00958698
-0.00568635
-0.00436496
-0.00513704
-0.00752354
-0.0110446
-0.0151704
-0.019296
-0.0227517
-0.0248837
-0.0251893
-0.0235104
-0.0201538
-0.0158347
-0.0113951
-0.00749779
-0.00446072
-0.00230989
-0.000948329
-0.00025898
-8.93751e-05
-0.000223945
-0.000423199
-0.000534478
-0.000559046
-0.000602516
-0.000820572
-0.00120951
-0.0017494
-0.00209371
-0.00236749
-0.00196374
-0.00196075
-0.000711992
-0.00144308
0.116479
0.118048
0.123356
0.131421
0.143024
0.158792
0.174516
0.186963
0.0955764
-0.154717
-0.435011
-0.404529
-0.350753
-0.163348
-0.0249485
-0.0312937
-0.15741
-0.272798
-0.259161
-0.167616
-0.0895375
-0.0493784
-0.0373178
-0.0481294
-0.0654012
-0.0696696
-0.0594908
-0.0534967
-0.0664493
-0.0971616
-0.127133
-0.128465
-0.0982557
-0.0624071
-0.0413154
-0.0363135
-0.0415802
-0.049292
-0.0514284
-0.0467176
-0.042349
-0.0463052
-0.0598351
-0.077024
-0.0872174
-0.0823942
-0.0648332
-0.045417
-0.0332234
-0.0301325
-0.0325947
-0.0351617
-0.034253
-0.0314517
-0.0316756
-0.0385007
-0.0508846
-0.0634539
-0.0692915
-0.0646723
-0.0518736
-0.037707
-0.0280412
-0.0244943
-0.0248461
-0.0255312
-0.0245578
-0.0233853
-0.0253521
-0.0326218
-0.0440911
-0.055637
-0.0621329
-0.0604318
-0.0513004
-0.0391153
-0.0288
-0.0229623
-0.0211179
-0.0209378
-0.0202938
-0.0191222
-0.0194023
-0.0234623
-0.031894
-0.042709
-0.0520787
-0.0561813
-0.0532857
-0.0445429
-0.0334951
-0.0238354
-0.0174674
-0.014005
-0.0120412
-0.0110422
-0.0122398
-0.0175058
-0.0272925
-0.0395033
-0.0503436
-0.0563404
-0.056059
-0.0501617
-0.0410918
-0.0315728
-0.0234102
-0.0174291
-0.0142295
-0.0145245
-0.0187534
-0.0267921
-0.0380572
-0.0517431
-0.0667898
-0.0814847
-0.0932307
-0.099194
-0.0975705
-0.0885485
-0.0742969
-0.0579675
-0.0424911
-0.0297051
-0.0202038
-0.0137981
-0.010039
-0.00845884
-0.00866219
-0.010254
-0.0128481
-0.0160044
-0.0192016
-0.0218552
-0.0233959
-0.0233895
-0.0216969
-0.0185966
-0.0147203
-0.0108012
-0.00739562
-0.00475514
-0.00289763
-0.00175353
-0.0012235
-0.00114253
-0.00126797
-0.00135314
-0.00126741
-0.00105126
-0.000851782
-0.000848762
-0.00108035