/*--------------------------------*- C++ -*----------------------------------*\
  =========                 |
  \\      /  F ield         | OpenFOAM: The Open Source CFD Toolbox
   \\    /   O peration     | Website:  https://openfoam.org
    \\  /    A nd           | Version:  11
     \\/     M anipulation  |
\*---------------------------------------------------------------------------*/
FoamFile
{
    format      ascii;
    class       surfaceScalarField;
    location    "14.210119";
    object      phi;
}
// * * * * * * * * * * * * * * * * * * * * * * * * * * * * * * * * * * * * * //

dimensions      [0 3 -1 0 0 0 0];

internalField   nonuniform List<scalar> 
14638
(
0.00250228
-2.27814e-06
0.00250939
-7.11391e-06
0.00252186
-1.24656e-05
0.00254016
-1.83008e-05
0.00256458
-2.44187e-05
0.00259491
-3.03307e-05
0.00263024
-3.53338e-05
0.00266859
-3.83505e-05
0.00270691
-3.83182e-05
0.00274114
-3.42328e-05
0.00276689
-2.57494e-05
0.00278086
-1.39676e-05
0.00278139
-5.31164e-07
0.00276865
1.27445e-05
0.00274528
2.33687e-05
0.00271632
2.89559e-05
0.0026881
2.82207e-05
0.00266684
2.12618e-05
0.00265722
9.62438e-06
0.00266115
-3.92985e-06
0.00267688
-1.57318e-05
0.00269872
-2.18423e-05
0.0027182
-1.94856e-05
0.00272694
-8.73903e-06
0.00271973
7.21493e-06
0.00269598
2.3745e-05
0.00265912
3.68655e-05
0.00261491
4.42038e-05
0.00257011
4.48057e-05
0.00253155
3.85539e-05
0.00250577
2.57826e-05
0.00249841
7.36289e-06
0.00251318
-1.47728e-05
0.00255001
-3.68267e-05
0.00260308
-5.30726e-05
0.00266075
-5.76702e-05
0.0027086
-4.78457e-05
0.00273463
-2.60322e-05
0.00273349
1.14297e-06
0.00270724
2.62455e-05
0.00266311
4.41329e-05
0.00261027
5.28406e-05
0.00255771
5.25533e-05
0.00251356
4.41513e-05
0.00248516
2.84003e-05
0.00247899
6.17683e-06
0.0024994
-2.04139e-05
0.00254614
-4.67407e-05
0.00261191
-6.57696e-05
0.00268248
-7.05733e-05
0.00274059
-5.81028e-05
0.00277203
-3.1448e-05
0.00277066
1.37579e-06
0.00273939
3.12665e-05
0.00268757
5.18194e-05
0.00262678
6.079e-05
0.00256776
5.90199e-05
0.00251936
4.8399e-05
0.00248891
3.04577e-05
0.0024825
6.40478e-06
0.00250405
-2.15521e-05
0.00255285
-4.87975e-05
0.00262136
-6.85078e-05
0.00269538
-7.4021e-05
0.00275756
-6.21785e-05
0.00279298
-3.54232e-05
0.00279411
-1.12981e-06
0.00276268
3.14351e-05
0.00270792
5.47588e-05
0.00264256
6.53598e-05
0.0025789
6.3659e-05
0.00252682
5.20797e-05
0.0024938
3.30215e-05
0.00248554
8.26001e-06
0.00250544
-1.99063e-05
0.00255261
-4.71692e-05
0.00261993
-6.73199e-05
0.00269431
-7.43746e-05
0.00275967
-6.53628e-05
0.00280157
-4.19029e-05
0.00281129
-9.71413e-06
0.00278789
2.33945e-05
0.00273787
5.00244e-05
0.00267259
6.52763e-05
0.00260494
6.76523e-05
0.00254649
5.84505e-05
0.00250635
4.01353e-05
0.00249122
1.51346e-05
0.00250502
-1.3799e-05
0.00254741
-4.23896e-05
0.00261216
-6.47495e-05
0.0026873
-7.51448e-05
0.00275778
-7.04823e-05
0.00280952
-5.17362e-05
0.002833
-2.3478e-05
0.00282506
7.94096e-06
0.00278869
3.63676e-05
0.00273151
5.71753e-05
0.00266382
6.7698e-05
0.00259672
6.70938e-05
0.00254083
5.58886e-05
0.00250538
3.54567e-05
0.0024974
7.97844e-06
0.00252033
-2.29295e-05
0.00257217
-5.18445e-05
0.00264469
-7.2521e-05
0.00272472
-8.0026e-05
0.00279742
-7.27047e-05
0.00285022
-5.27928e-05
0.00287569
-2.54747e-05
0.0028727
2.99073e-06
0.00284553
2.71699e-05
0.00280186
4.36668e-05
0.00275063
5.1234e-05
0.0027006
5.00266e-05
0.00265987
4.07336e-05
0.00263556
2.43154e-05
0.00263302
2.53406e-06
0.00265437
-2.13443e-05
0.00269702
-4.26586e-05
0.00275364
-5.66146e-05
0.0028137
-6.00617e-05
0.00286642
-5.27188e-05
0.00290362
-3.7201e-05
0.00292161
-1.79885e-05
0.00292157
4.28565e-08
0.00290864
1.29281e-05
0.00289024
1.83956e-05
0.00287423
1.60154e-05
0.00286738
6.84624e-06
0.00287454
-7.16008e-06
0.00289821
-2.36722e-05
0.00293843
-4.02157e-05
0.00299263
-5.41987e-05
0.00305562
-6.29936e-05
0.00311992
-6.43001e-05
0.00317667
-5.67458e-05
0.00321711
-4.04404e-05
0.00323431
-1.71979e-05
0.00322459
9.71727e-06
0.00318835
3.62411e-05
0.00312992
5.84262e-05
0.00305659
7.33306e-05
0.00297703
7.95571e-05
0.00289974
7.72907e-05
0.00283184
6.79026e-05
0.00277845
5.33906e-05
0.00274253
3.59156e-05
0.00272498
1.75498e-05
0.00272485
1.35533e-07
0.0027396
-1.4748e-05
0.00276551
-2.59136e-05
0.00279802
-3.25092e-05
0.0028323
-3.42851e-05
0.00286355
-3.12455e-05
0.00288783
-2.42791e-05
0.0029019
-1.4074e-05
0.00290412
-2.22186e-06
0.00289497
9.15251e-06
2.60768e-05
0.00250226
-4.53797e-06
0.00250933
-1.41818e-05
0.00252174
-2.48795e-05
0.00254003
-3.65862e-05
0.00256452
-4.89146e-05
0.00259509
-6.08982e-05
0.00263089
-7.11323e-05
0.00266995
-7.74145e-05
0.0027092
-7.7564e-05
0.0027444
-6.94368e-05
0.00277092
-5.2265e-05
0.0027853
-2.83459e-05
0.00278577
-1.00881e-06
0.00277241
2.61043e-05
0.0027479
4.78802e-05
0.0027175
5.93631e-05
0.00268783
5.78859e-05
0.00266547
4.36268e-05
0.00265538
1.97135e-05
0.0026597
-8.24878e-06
0.0026767
-3.27394e-05
0.00270042
-4.55595e-05
0.00272178
-4.0847e-05
0.00273176
-1.87195e-05
0.00272482
1.41583e-05
0.00270044
4.81241e-05
0.00266233
7.49769e-05
0.00261657
8.99654e-05
0.0025701
9.12764e-05
0.00252991
7.87417e-05
0.00250269
5.29964e-05
0.00249441
1.56474e-05
0.00250922
-2.9581e-05
0.00254741
-7.50234e-05
0.00260313
-0.000108792
0.00266404
-0.000118572
0.00271463
-9.84376e-05
0.00274205
-5.34585e-05
0.00274073
2.47148e-06
0.00271309
5.38796e-05
0.00266697
9.02524e-05
0.00261201
0.000107803
0.0025574
0.000107161
0.00251132
9.02322e-05
0.00248125
5.84738e-05
0.00247404
1.33829e-05
0.00249467
-4.10434e-05
0.00254332
-9.53865e-05
0.0026125
-0.000134949
0.00268703
-0.000145105
0.00274832
-0.000119395
0.00278121
-6.43403e-05
0.00277934
3.2504e-06
0.00274614
6.44691e-05
0.00269175
0.000106209
0.0026284
0.000124139
0.0025671
0.000120316
0.00251669
9.88058e-05
0.00248445
6.26974e-05
0.00247667
1.41915e-05
0.00249768
-4.25621e-05
0.00254726
-9.83779e-05
0.00261804
-0.000139294
0.00269543
-0.000151405
0.00276111
-0.000127857
0.00279909
-7.34044e-05
0.00280113
-3.16919e-06
0.0027689
6.36601e-05
0.00271217
0.000111494
0.00264435
0.00013318
0.00257825
0.00012976
0.00252391
0.000106414
0.00248886
6.80737e-05
0.00247901
1.81084e-05
0.00249825
-3.91439e-05
0.00254608
-9.50053e-05
0.00261535
-0.000136584
0.00269234
-0.000151368
0.0027602
-0.000133219
0.00280389
-8.55901e-05
0.00281445
-2.02801e-05
0.00279101
4.6834e-05
0.00274021
0.000100829
0.00267361
0.000131872
0.00260429
0.000136974
0.00254402
0.000118721
0.00250223
8.19248e-05
0.00248613
3.12338e-05
0.00250026
-2.79242e-05
0.00254454
-8.66735e-05
0.00261236
-0.000132571
0.00269078
-0.000153562
0.00276365
-0.000143358
0.00281625
-0.000104333
0.00283907
-4.62981e-05
0.00282947
1.75396e-05
0.00279111
7.47316e-05
0.00273209
0.000116194
0.00266288
0.000136905
0.00259458
0.0001354
0.00253777
0.000112697
0.00250194
7.12853e-05
0.00249463
1.52904e-05
0.00251965
-4.79531e-05
0.00257488
-0.000107079
0.00265134
-0.000148976
0.00273479
-0.000163471
0.00280949
-0.00014741
0.00286243
-0.000105732
0.00288631
-4.9354e-05
0.0028805
8.79627e-06
0.00285
5.76693e-05
0.00280317
9.05041e-05
0.0027494
0.000104997
0.00269775
0.000101681
0.00265644
8.20446e-05
0.00263278
4.79783e-05
0.00263232
2.99269e-06
0.00265714
-4.61675e-05
0.00270421
-8.97249e-05
0.00276525
-0.000117659
0.00282875
-0.000123562
0.00288318
-0.000107148
0.00292013
-7.41458e-05
0.00293613
-3.39946e-05
0.00293291
3.26029e-06
0.00291622
2.96172e-05
0.00289401
4.0615e-05
0.00287447
3.55462e-05
0.00286465
1.66712e-05
0.00286953
-1.20401e-05
0.0028918
-4.59406e-05
0.00293169
-8.0111e-05
0.00298681
-0.000109312
0.00305191
-0.000128097
0.0031192
-0.000131589
0.00317927
-0.000116814
0.00322275
-8.39218e-05
0.00324221
-3.66582e-05
0.0032337
1.82299e-05
0.00319755
7.23893e-05
0.00313825
0.000117722
0.00306338
0.000148201
0.00298196
0.000160978
0.00290279
0.000156463
0.0028332
0.000137491
0.00277842
0.000108169
0.00274143
7.29054e-05
0.00272309
3.58891e-05
0.00272242
8.06705e-07
0.00273687
-2.92011e-05
0.00276272
-5.17599e-05
0.00279536
-6.51512e-05
0.00282991
-6.88333e-05
0.00286146
-6.2794e-05
0.00288596
-4.87831e-05
0.00290011
-2.82236e-05
0.00290222
-4.32448e-06
0.00289278
1.85877e-05
5.248e-05
0.00250222
-6.76074e-06
0.00250919
-2.11526e-05
0.0025215
-3.71857e-05
0.00253975
-5.48327e-05
0.00256438
-7.35534e-05
0.00259541
-9.19264e-05
0.00263213
-0.00010785
0.00267262
-0.000117905
0.00271374
-0.00011868
0.0027509
-0.000106599
0.00277894
-8.03072e-05
0.00279412
-4.35199e-05
0.00279446
-1.35444e-06
0.00277983
4.07304e-05
0.00275301
7.47044e-05
0.0027197
9.26696e-05
0.0026872
9.0388e-05
0.00266274
6.80888e-05
0.00265188
3.05685e-05
0.00265718
-1.3541e-05
0.00267693
-5.24884e-05
0.00270452
-7.31541e-05
0.00272962
-6.5946e-05
0.00274187
-3.09712e-05
0.00273509
2.09352e-05
0.00270902
7.42019e-05
0.00266805
0.000115942
0.00261897
0.000139052
0.00256914
0.000141103
0.00252584
0.000122043
0.00249607
8.27669e-05
0.00248635
2.53616e-05
0.00250171
-4.49335e-05
0.00254313
-0.00011645
0.00260457
-0.000170233
0.00267217
-0.000186167
0.00272814
-0.000154412
0.00275787
-8.31823e-05
0.00275541
4.9246e-06
0.00272422
8.50743e-05
0.00267353
0.00014094
0.00261403
0.000167301
0.00255534
0.000165856
0.00250569
0.000139884
0.00247274
9.14236e-05
0.00246395
2.21715e-05
0.00248524
-6.23346e-05
0.00253758
-0.000147727
0.00261338
-0.000210749
0.00269591
-0.000227633
0.00276391
-0.000187398
0.00279985
-0.00010028
0.00279666
6.43545e-06
0.00275893
0.000102204
0.00269874
0.000166398
0.0026299
0.000192979
0.00256406
0.00018616
0.00250991
0.000152949
0.00247445
9.81634e-05
0.00246407
2.45678e-05
0.00248391
-6.2405e-05
0.00253478
-0.000149246
0.00260973
-0.000214241
0.00269338
-0.000235053
0.00276567
-0.000200155
0.00280863
-0.000116359
0.00281258
-7.12226e-06
0.00277897
9.7271e-05
0.00271846
0.000172002
0.00264588
0.000205765
0.00257511
0.000200533
0.00251665
0.000164872
0.00247824
0.000106487
0.00246638
2.99673e-05
0.00248592
-5.86863e-05
0.0025369
-0.000145985
0.00261143
-0.000211119
0.00269406
-0.000233991
0.0027661
-0.00020526
0.00281163
-0.000131118
0.00282183
-3.04846e-05
0.0027965
7.21647e-05
0.00274296
0.000154371
0.00267324
0.000201585
0.0026007
0.00020952
0.00253739
0.000182026
0.00249338
0.000125938
0.0024769
4.77174e-05
0.00249345
-4.44747e-05
0.00254304
-0.000136266
0.00261782
-0.000207352
0.00270278
-0.000238525
0.00277983
-0.000220409
0.00283318
-0.000157677
0.00285347
-6.65876e-05
0.00283919
3.18136e-05
0.00279552
0.000118406
0.00273177
0.000179945
0.00265895
0.000209719
0.00258819
0.000206167
0.00253009
0.000170798
0.00249457
0.000106798
0.0024899
1.99655e-05
0.00252015
-7.82082e-05
0.00258245
-0.00016938
0.00266617
-0.000232693
0.0027553
-0.000252598
0.00283285
-0.000224959
0.00288532
-0.000158199
0.00290567
-6.97037e-05
0.00289413
2.03328e-05
0.00285693
9.48647e-05
0.00280372
0.000143721
0.00274489
0.000163827
0.00269009
0.00015648
0.00264796
0.000124172
0.0026262
6.97386e-05
0.00263059
-1.39678e-06
0.0026628
-7.83786e-05
0.00271848
-0.000145402
0.00278745
-0.000186632
0.00285644
-0.000192548
0.00291291
-0.00016362
0.00294836
-0.000109601
0.00295997
-4.56045e-05
0.00295045
1.2784e-05
0.00292661
5.34529e-05
0.00289733
6.98982e-05
0.00287147
6.14034e-05
0.00285647
3.1672e-05
0.00285765
-1.32208e-05
0.00287808
-6.63668e-05
0.00291839
-0.000120417
0.00297632
-0.00016725
0.00304632
-0.000198093
0.00311968
-0.000204953
0.00318585
-0.000182976
0.00323436
-0.00013244
0.00325709
-5.93822e-05
0.00324978
2.55395e-05
0.00321286
0.000109307
0.00315121
0.000179368
0.003073
0.000226411
0.00298789
0.00024609
0.00290523
0.000239128
0.0028327
0.000210015
0.0027757
0.000165169
0.00273719
0.000111415
0.00271794
5.51427e-05
0.00271686
1.89148e-06
0.00273132
-4.36641e-05
0.00275753
-7.79708e-05
0.00279079
-9.84087e-05
0.00282604
-0.00010409
0.00285818
-9.49277e-05
0.00288297
-7.35735e-05
0.00289691
-4.2164e-05
0.00289843
-5.84842e-06
0.0028878
2.92198e-05
7.98019e-05
0.00250216
-8.92385e-06
0.00250898
-2.79649e-05
0.0025211
-4.93074e-05
0.00253925
-7.2988e-05
0.00256407
-9.8367e-05
0.00259575
-0.00012361
0.00263383
-0.000145933
0.00267649
-0.000160565
0.00272051
-0.000162699
0.00276074
-0.000146825
0.00279117
-0.000110743
0.00280763
-5.99773e-05
0.00280783
-1.55111e-06
0.00279128
5.72805e-05
0.00276085
0.00010513
0.002723
0.000130519
0.00268605
0.000127342
0.00265828
9.58592e-05
0.00264617
4.26748e-05
0.00265294
-2.03082e-05
0.00267699
-7.65433e-05
0.00271074
-0.000106905
0.00274178
-9.69819e-05
0.00275758
-4.67743e-05
0.00275096
2.75607e-05
0.00272208
0.000103082
0.00267656
0.000161456
0.0026223
0.00019332
0.00256733
0.000196065
0.00251931
0.000170069
0.00248564
0.000116437
0.0024737
3.72973e-05
0.00248993
-6.11586e-05
0.0025366
-0.000163122
0.00260734
-0.000240976
0.00268565
-0.000264479
0.00274997
-0.000218728
0.00278292
-0.000116132
0.00277823
9.61287e-06
0.00274106
0.000122249
0.002683
0.000198996
0.00261642
0.000233884
0.00255154
0.000230732
0.0024966
0.000194823
0.00245923
0.000128791
0.00244727
3.41345e-05
0.00246761
-8.26734e-05
0.00252271
-0.000202828
0.00260609
-0.000294126
0.00270013
-0.00032167
0.00277997
-0.000267239
0.00282341
-0.000143726
0.00282075
9.09747e-06
0.00277744
0.000145515
0.00270873
0.000235105
0.00263145
0.000270258
0.00255863
0.000258987
0.00249876
0.000212821
0.00245818
0.000138744
0.00244356
3.91801e-05
0.00246165
-8.04896e-05
0.00251495
-0.000202552
0.00259658
-0.00029587
0.00268919
-0.000327664
0.00277008
-0.00028104
0.00281917
-0.00016545
0.0028256
-1.35553e-05
0.00279053
0.000132347
0.0027254
0.000237129
0.00264657
0.000284594
0.00256936
0.000277748
0.00250513
0.000229099
0.00246239
0.000149226
0.00244895
4.34035e-05
0.00247107
-8.0805e-05
0.00252887
-0.000203786
0.00261254
-0.000294786
0.00270354
-0.00032499
0.00278063
-0.000282356
0.00282696
-0.000177439
0.00283442
-3.79502e-05
0.00280438
0.000102209
0.00274556
0.00021319
0.00267078
0.000276358
0.00259367
0.000286638
0.00252659
0.000249105
0.00248048
0.000172043
0.00246498
6.32163e-05
0.00248654
-6.60292e-05
0.00254455
-0.000194276
0.002629
-0.000291798
0.00272222
-0.000331745
0.00280406
-0.000302258
0.00285778
-0.00021139
0.00287419
-8.29958e-05
0.00285302
5.29815e-05
0.00280134
0.000170086
0.00273026
0.00025102
0.00265184
0.000288144
0.00257747
0.000280537
0.00251796
0.000230312
0.00248378
0.000140977
0.00248377
1.99672e-05
0.00252176
-0.000116192
0.00259326
-0.000240876
0.0026854
-0.000324834
0.00278033
-0.000347533
0.00286017
-0.000304797
0.0029113
-0.000209334
0.00292708
-8.54791e-05
0.00290849
3.89209e-05
0.00286297
0.000140391
0.00280159
0.000205096
0.00273612
0.000229299
0.00267722
0.000215377
0.00263435
0.000167046
0.00261584
8.82473e-05
0.00262757
-1.31305e-05
0.00267014
-0.000120945
0.00273687
-0.000212137
0.00281493
-0.000264686
0.00288907
-0.000266691
0.00294611
-0.000220657
0.00297799
-0.000141488
0.00298297
-5.05772e-05
0.00296497
3.07766e-05
0.00293201
8.64151e-05
0.00289392
0.000107991
0.00286028
9.50418e-05
0.00283906
5.28939e-05
0.00283614
-1.03038e-05
0.00285528
-8.55079e-05
0.00289765
-0.000162783
0.00296086
-0.000230466
0.00303833
-0.000275561
0.00311978
-0.000286403
0.00319314
-0.000256336
0.00324699
-0.00018629
0.00327276
-8.51452e-05
0.00326615
3.21466e-05
0.00322781
0.00014765
0.00316304
0.000244132
0.00308065
0.000308803
0.00299101
0.00033573
0.00290411
0.000326023
0.00282811
0.00028602
0.00276857
0.000224709
0.00272845
0.000151537
0.00270839
7.51989e-05
0.00270719
3.09475e-06
0.00272211
-5.85899e-05
0.00274924
-0.000105099
0.00278366
-0.000132832
0.00282006
-0.000140485
0.00285299
-0.000127858
0.00287802
-9.86071e-05
0.00289143
-5.55743e-05
0.0028919
-6.31608e-06
0.00287929
4.18285e-05
0.000108555
0.00250208
-1.09997e-05
0.00250865
-3.45421e-05
0.00252049
-6.11399e-05
0.00253846
-9.09588e-05
0.00256342
-0.000123335
0.00259591
-0.000156093
0.00263578
-0.000185805
0.00268139
-0.000206174
0.00272946
-0.000210775
0.00277401
-0.000191373
0.0028078
-0.000144529
0.00282606
-7.82348e-05
0.00282612
-1.61137e-06
0.00280692
7.64762e-05
0.00277147
0.000140581
0.00272725
0.000174744
0.00268401
0.000170578
0.00265152
0.000128344
0.00263757
5.66266e-05
0.00264637
-2.91012e-05
0.00267656
-0.000106738
0.00271921
-0.00014955
0.00275883
-0.000136609
0.00277969
-6.76351e-05
0.00277314
3.41144e-05
0.00274012
0.000136099
0.00268812
0.000213458
0.00262664
0.0002548
0.00256464
0.000258069
0.00251012
0.000224589
0.00247095
0.000155607
0.00245571
5.2537e-05
0.00247305
-7.84996e-05
0.00252733
-0.000217405
0.00261178
-0.000325428
0.00270584
-0.000358533
0.00278204
-0.000294936
0.00281901
-0.000153094
0.00281035
1.82691e-05
0.00276412
0.000168483
0.00269546
0.00026765
0.00261909
0.000310258
0.00254595
0.000303874
0.00248391
0.000256863
0.00243987
0.000172828
0.0024214
5.26106e-05
0.00243674
-9.80137e-05
0.00249151
-0.000257601
0.00258192
-0.000384538
0.00268991
-0.000429658
0.00278655
-0.00036388
0.00284358
-0.000200759
0.00284631
6.36486e-06
0.00279933
0.000192495
0.00272119
0.000313251
0.00263315
0.000358294
0.00255087
0.00034127
0.00248301
0.000280683
0.00243543
0.000186323
0.00241593
5.86733e-05
0.00243396
-9.85133e-05
0.00249357
-0.000262168
0.00258612
-0.000388413
0.00269022
-0.000431769
0.00277969
-0.00037051
0.00283311
-0.000218869
0.00283989
-2.03398e-05
0.00280186
0.000170386
0.00273119
0.00030779
0.00264528
0.000370503
0.0025606
0.000362437
0.00248965
0.000300046
0.0024425
0.00019637
0.00242904
5.68713e-05
0.00245676
-0.00010853
0.00252472
-0.000271745
0.00261992
-0.000389983
0.00272032
-0.000425394
0.00280233
-0.000364363
0.00284831
-0.000223418
0.002851
-4.06456e-05
0.0028137
0.000139515
0.00274718
0.000279712
0.00266552
0.000358017
0.00258277
0.000369389
0.00251169
0.000320181
0.00246427
0.000219458
0.00245154
7.5952e-05
0.00248029
-9.47772e-05
0.00254833
-0.00026232
0.00264284
-0.000386311
0.00274369
-0.000432592
0.00282941
-0.000387976
0.00288286
-0.00026484
0.00289505
-9.51897e-05
0.00286653
8.15046e-05
0.00280594
0.000230677
0.00272628
0.000330674
0.00264105
0.000373381
0.00256239
0.000359192
0.00250165
0.000291057
0.00246991
0.000172714
0.0024762
1.36763e-05
0.00252321
-0.000163203
0.00260414
-0.000321801
0.00270371
-0.000424411
0.00280273
-0.000446549
0.00288312
-0.000385194
0.00293178
-0.00025799
0.00294258
-9.62833e-05
0.00291705
6.44583e-05
0.00286337
0.000194069
0.00279382
0.000274651
0.00272152
0.000301597
0.00265852
0.000278379
0.00261552
0.000210039
0.00260177
0.000102003
0.00262288
-3.42473e-05
0.00267746
-0.00017552
0.00275557
-0.000290247
0.00284135
-0.000350464
0.00291804
-0.000343387
0.00297262
-0.000275238
0.00299824
-0.000167105
0.00299459
-4.69238e-05
0.0029669
5.84664e-05
0.00292418
0.00012913
0.00287704
0.000155138
0.00283562
0.000136458
0.00280851
8.00034e-05
0.00280245
-4.24885e-06
0.00282213
-0.000105183
0.00286897
-0.00020962
0.00293959
-0.000301091
0.00302545
-0.00036142
0.00311437
-0.000375327
0.00319327
-0.000335232
0.00325061
-0.000243634
0.00327813
-0.000112663
0.00327178
3.84945e-05
0.00323231
0.000187121
0.00316517
0.000311277
0.00307946
0.000394515
0.00298607
0.000429116
0.00289559
0.000416506
0.00281662
0.000364988
0.00275499
0.000286338
0.0027137
0.000192833
0.00269331
9.55811e-05
0.00269255
3.85982e-06
0.00270855
-7.45944e-05
0.00273717
-0.000133718
0.00277316
-0.000168818
0.00281082
-0.000178146
0.00284441
-0.00016145
0.00286938
-0.000123571
0.00288185
-6.80438e-05
0.00288086
-5.32575e-06
0.00286577
5.69109e-05
0.000138972
0.00250195
-1.29542e-05
0.0025082
-4.07875e-05
0.0025196
-7.25413e-05
0.00253724
-0.000108595
0.00256227
-0.000148364
0.00259562
-0.00018945
0.00263767
-0.000227849
0.00268705
-0.000255555
0.00274053
-0.000264254
0.0027909
-0.000241749
0.00282921
-0.000182831
0.00285001
-9.90341e-05
0.00285007
-1.6782e-06
0.00282748
9.90728e-05
0.00278528
0.000182781
0.00273241
0.000227606
0.00268065
0.000222338
0.0026417
0.000167297
0.00262505
7.32787e-05
0.00263637
-4.04184e-05
0.00267485
-0.000145226
0.00272979
-0.000204482
0.00278135
-0.000188171
0.00280914
-9.54222e-05
0.0028025
4.07473e-05
0.00276368
0.00017492
0.00270292
0.000274223
0.00263198
0.000325741
0.00256089
0.000329158
0.00249794
0.000287535
0.00245141
0.000202133
0.00243134
7.26109e-05
0.00244887
-9.60259e-05
0.00251083
-0.000279366
0.00261133
-0.000425925
0.00272666
-0.000473869
0.00282138
-0.00038965
0.00286611
-0.000197829
0.00285284
3.15442e-05
0.0027941
0.000227223
0.00271097
0.000350774
0.00262183
0.000399405
0.00253835
0.000387345
0.00246719
0.000328025
0.00241338
0.000226638
0.0023843
8.16911e-05
0.0023918
-0.000105517
0.00244677
-0.000312565
0.00254702
-0.000484791
0.00267114
-0.000553775
0.00278534
-0.000478085
0.00285719
-0.000272608
0.00286812
-4.56619e-06
0.00282039
0.000240227
0.002734
0.000399645
0.00263441
0.000457884
0.00254075
0.000434928
0.00246286
0.000358569
0.00240734
0.000241849
0.00238446
8.15532e-05
0.00240651
-0.00012056
0.00247723
-0.000332888
0.00258389
-0.000495079
0.00270025
-0.000548127
0.00279696
-0.000467225
0.00285192
-0.00027383
0.00285575
-2.41694e-05
0.00281207
0.000214071
0.00273437
0.000385486
0.00264074
0.000464135
0.00254825
0.000454926
0.00247062
0.000377682
0.00242005
0.00024694
0.00240867
6.82448e-05
0.00244434
-0.000144198
0.0025236
-0.000351003
0.00262977
-0.000496154
0.0027381
-0.000533727
0.00282379
-0.000450052
0.0028689
-0.00026853
0.00286655
-3.82945e-05
0.00282136
0.00018471
0.00274611
0.000354957
0.00265657
0.000447558
0.00256767
0.000458294
0.00249287
0.000394981
0.0024453
0.000267028
0.00243694
8.43105e-05
0.00247399
-0.00013183
0.0025518
-0.000340129
0.00265466
-0.000489167
0.0027607
-0.000538636
0.00284821
-0.000475484
0.00290046
-0.000317087
0.00290877
-0.000103502
0.00287395
0.000116323
0.00280545
0.00029918
0.00271769
0.000418428
0.0026257
0.000465376
0.00254284
0.000442052
0.0024814
0.000352493
0.00245311
0.000201006
0.00246658
2.07609e-07
0.00252257
-0.000219189
0.00261153
-0.000410765
0.00271613
-0.000529009
0.00281652
-0.000546944
0.00289525
-0.000463917
0.00294017
-0.000302909
0.00294589
-0.000102009
0.00291426
9.60918e-05
0.00285377
0.000254557
0.00277736
0.000351058
0.00269932
0.000379638
0.00263322
0.000344484
0.00259138
0.000251873
0.002584
0.000109381
0.00261586
-6.61026e-05
0.00268249
-0.000242146
0.00277006
-0.000377824
0.00286002
-0.000440419
0.00293509
-0.000418458
0.00298346
-0.000323609
0.00300014
-0.000183782
0.00298645
-3.32354e-05
0.00294877
9.61488e-05
0.00289679
0.000181101
0.00284154
0.000210392
0.00279357
0.000184425
0.00276222
0.000111363
0.00275531
2.65384e-06
0.00277824
-0.000128115
0.00283166
-0.000263032
0.00290988
-0.000379314
0.00300192
-0.000453457
0.00309444
-0.000467851
0.00317474
-0.000415528
0.00323243
-0.000301332
0.00326024
-0.000140472
0.00325444
4.42991e-05
0.00321551
0.000226053
0.00314845
0.000378333
0.00306212
0.000480849
0.0029675
0.000523735
0.00287555
0.000508457
0.0027953
0.000445232
0.0027329
0.000348745
0.00269147
0.000234257
0.00267167
0.000115383
0.00267216
3.36842e-06
0.0026899
-9.23339e-05
0.00272034
-0.000164159
0.00275778
-0.000206253
0.00279621
-0.000216576
0.00282979
-0.000195034
0.00285409
-0.000147869
0.00286525
-7.92087e-05
0.0028627
-2.77719e-06
0.00284522
7.43948e-05
0.000170812
0.00250179
-1.47456e-05
0.00250758
-4.65793e-05
0.00251836
-8.3322e-05
0.00253544
-0.000125673
0.00256034
-0.000173259
0.00259453
-0.000223644
0.00263906
-0.000272379
0.00269308
-0.000309574
0.00275355
-0.000324725
0.00281155
-0.00029975
0.00285566
-0.000226939
0.00287973
-0.000123108
0.00288001
-1.95558e-06
0.00285322
0.000125864
0.0028024
0.000233601
0.00273836
0.00029164
0.00267546
0.000285239
0.00262791
0.000214855
0.00260743
9.37578e-05
0.00262177
-5.47605e-05
0.00267116
-0.000194622
0.00274269
-0.000276005
0.00281047
-0.000255955
0.00284748
-0.000132433
0.00284038
4.78501e-05
0.0027935
0.000221795
0.00272117
0.000346559
0.00263821
0.000408703
0.00255584
0.000411527
0.00248244
0.000360927
0.00242652
0.000258062
0.00239866
0.000100465
0.00241065
-0.000108016
0.00247191
-0.000340621
0.00258248
-0.0005365
0.00272199
-0.000613383
0.00284728
-0.00051493
0.00291333
-0.000263885
0.00290258
4.2291e-05
0.0028311
0.000298704
0.00272987
0.000452007
0.00262453
0.000504742
0.00252843
0.000483451
0.00244582
0.000410628
0.00237923
0.000293231
0.00233798
0.000122944
0.00234079
-0.000108328
0.00240322
-0.000374997
0.00251979
-0.000601358
0.00266145
-0.000695437
0.00278935
-0.000605987
0.00287025
-0.000353501
0.00288582
-2.0142e-05
0.00283726
0.000288791
0.00274405
0.000492849
0.00263361
0.000568325
0.00252795
0.000540596
0.00243912
0.000447396
0.00237627
0.0003047
0.00235303
0.000104792
0.00238298
-0.000150516
0.00246682
-0.000416725
0.00258673
-0.000614985
0.00271295
-0.000674349
0.00281486
-0.000569136
0.0028701
-0.000329072
0.00286984
-2.39109e-05
0.00281926
0.000264656
0.0027336
0.000471145
0.00263194
0.000565797
0.00253191
0.000554949
0.00244849
0.000461103
0.00239616
0.00029927
0.00238873
7.56745e-05
0.00243306
-0.000188526
0.00252231
-0.000440249
0.00263652
-0.000610366
0.00274958
-0.000646785
0.00283686
-0.000537331
0.0028808
-0.000312476
0.00287451
-3.19998e-05
0.00282286
0.000236353
0.00273985
0.000437968
0.00264284
0.000544573
0.00254811
0.000553017
0.00247035
0.000472743
0.00242385
0.000313529
0.00242089
8.72673e-05
0.0024661
-0.000177037
0.0025519
-0.000425925
0.00266014
-0.000597413
0.00276823
-0.00064672
0.00285509
-0.000562346
0.00290505
-0.000367044
0.00290995
-0.000108408
0.00287054
0.000155733
0.00279628
0.000373442
0.00270227
0.000512437
0.00260478
0.000562864
0.00251864
0.000528195
0.00245742
0.000413717
0.00243336
0.000225064
0.00245408
-2.05137e-05
0.00251782
-0.000282932
0.00261236
-0.000505299
0.00271891
-0.000635564
0.00281782
-0.000645858
0.00289277
-0.00053886
0.00293287
-0.000343015
0.00293356
-0.000102695
0.00289689
0.000132762
0.00283134
0.000320104
0.00275006
0.000432339
0.00266815
0.000461546
0.00260071
0.000411922
0.00256184
0.000290747
0.00256239
0.000108832
0.00260535
-0.00010906
0.00268226
-0.000319055
0.00277539
-0.000470957
0.00286451
-0.000529542
0.00293321
-0.000487159
0.00297186
-0.000362257
0.00297765
-0.00018957
0.00295342
-9.01234e-06
0.00290638
0.000143198
0.00284651
0.000240963
0.00278495
0.00027196
0.0027326
0.00023677
0.00269973
0.000144229
0.00269519
7.20121e-06
0.00272395
-0.000156877
0.00278418
-0.000323265
0.00286706
-0.000462192
0.00295999
-0.000546389
0.00305034
-0.000558204
0.00312738
-0.000492563
0.00318263
-0.000356586
0.00320992
-0.000167755
0.00320565
4.85642e-05
0.00316971
0.000261994
0.00310614
0.000441902
0.00302296
0.000564028
0.00293077
0.000615926
0.00284056
0.000598664
0.00276167
0.00052413
0.00270053
0.000409878
0.00266059
0.000274202
0.00264264
0.000133328
0.00264532
6.89519e-07
0.0026652
-0.000112216
0.00269718
-0.000196137
0.00273515
-0.000244223
0.00277312
-0.000254547
0.00280559
-0.000227499
0.00282855
-0.000170835
0.00283834
-8.89959e-05
0.00283464
9.20913e-07
0.00281559
9.34511e-05
0.000203265
0.00250158
-1.63234e-05
0.00250677
-5.17678e-05
0.00251668
-9.32367e-05
0.00253288
-0.000141875
0.00255731
-0.00019769
0.00259216
-0.00025849
0.00263937
-0.000319588
0.00269894
-0.000369148
0.00276837
-0.000394147
0.00283626
-0.000367649
0.00288785
-0.000278525
0.00291644
-0.000151696
0.00291744
-2.95473e-06
0.0028855
0.000157798
0.00282347
0.000295637
0.00274485
0.000370254
0.00266749
0.000362605
0.00260863
0.000273708
0.00258275
0.00011964
0.00260047
-7.24838e-05
0.00266395
-0.000258098
0.00275764
-0.000369694
0.00284728
-0.000345598
0.00289649
-0.000181643
0.00288831
5.60346e-05
0.0028304
0.000279698
0.00274303
0.000433938
0.00264512
0.000506605
0.00254921
0.000507438
0.00246351
0.000446625
0.00239568
0.000325899
0.00235378
0.000142365
0.00234802
-0.000102258
0.00239438
-0.000386987
0.00250562
-0.000647739
0.00266836
-0.000776123
0.00283361
-0.000680181
0.00293865
-0.000368922
0.00294729
3.3655e-05
0.00287125
0.000374742
0.00275199
0.000571272
0.00262752
0.000629209
0.002516
0.000594971
0.00241958
0.000507045
0.00233917
0.000373644
0.00228901
0.000173104
0.00229505
-0.000114373
0.00237252
-0.000452464
0.0025078
-0.00073664
0.00266443
-0.000852064
0.00280097
-0.000742529
0.00288499
-0.000437519
0.00290009
-3.52407e-05
0.00284833
0.00034055
0.00274876
0.000592421
0.0026288
0.000688286
0.0025119
0.000657492
0.00241286
0.000546431
0.00234469
0.000372877
0.00232404
0.000125442
0.00236342
-0.000189897
0.00245862
-0.000511931
0.00258744
-0.000743804
0.00271894
-0.000805845
0.00282333
-0.000673527
0.0028787
-0.000384443
0.00287576
-2.09738e-05
0.00281975
0.000320667
0.00272708
0.000563823
0.00261809
0.000674784
0.00251148
0.00066156
0.00242376
0.000548815
0.00237146
0.000351571
0.00236902
7.81208e-05
0.00242116
-0.000240666
0.00251754
-0.000536633
0.00263593
-0.000728748
0.00275009
-0.000760946
0.00283659
-0.000623833
0.00287886
-0.00035475
0.00286997
-2.31033e-05
0.00281427
0.000292046
0.00272586
0.000526377
0.00262314
0.000647301
0.0025239
0.000652257
0.00244441
0.000552234
0.00240009
0.000357845
0.00240284
8.45179e-05
0.00245498
-0.000229182
0.00254608
-0.000517016
0.00265635
-0.000707686
0.00276338
-0.000753752
0.0028474
-0.000646369
0.0028941
-0.000413744
0.00289602
-0.000110322
0.00285371
0.000198039
0.00277616
0.000450991
0.00267843
0.000610172
0.00257754
0.000663755
0.00248971
0.000616022
0.00242989
0.00047354
0.00241059
0.000244355
0.00243791
-4.78313e-05
0.00250734
-0.000352362
0.00260443
-0.000602385
0.00270982
-0.000740959
0.00280473
-0.000740762
0.00287425
-0.000608384
0.00290883
-0.000377591
0.00290465
-9.85154e-05
0.00286396
0.000173447
0.00279507
0.000388996
0.00271102
0.000516397
0.00262744
0.000545124
0.00256086
0.000478499
0.00252696
0.00032465
0.00253653
9.92553e-05
0.00258964
-0.000162162
0.0026733
-0.000402719
0.00276671
-0.000564369
0.00284957
-0.0006124
0.00290766
-0.000545248
0.0029341
-0.000388696
0.00292819
-0.000183658
0.00289392
2.52527e-05
0.0028389
0.000198219
0.0027731
0.000306766
0.00270758
0.000337473
0.00265379
0.000290563
0.00262296
0.000175062
0.00262402
6.14362e-06
0.00265961
-0.000192473
0.00272402
-0.000387676
0.00280597
-0.000544135
0.0028935
-0.000633928
0.0029767
-0.000641397
0.00304749
-0.000563351
0.00309902
-0.00040812
0.00312573
-0.000194463
0.00312398
5.03103e-05
0.00309304
0.000292936
0.00303592