/*--------------------------------*- C++ -*----------------------------------*\
  =========                 |
  \\      /  F ield         | OpenFOAM: The Open Source CFD Toolbox
   \\    /   O peration     | Website:  https://openfoam.org
    \\  /    A nd           | Version:  11
     \\/     M anipulation  |
\*---------------------------------------------------------------------------*/
FoamFile
{
    format      ascii;
    class       volVectorField;
    location    "6.085056";
    object      vorticity;
}
// * * * * * * * * * * * * * * * * * * * * * * * * * * * * * * * * * * * * * //

dimensions      [0 0 -1 0 0 0 0];

internalField   nonuniform List<vector> 
7132
(
(-3.42986e-17 -1.81726e-15 -0.0115725)
(-1.26242e-16 -1.78906e-15 -0.011597)
(-1.29724e-16 -2.25045e-17 -0.011648)
(-1.58067e-16 -1.77479e-15 -0.011729)
(-1.96776e-16 -1.7637e-15 -0.0118431)
(-1.96129e-16 1.19055e-18 -0.0119917)
(-1.76078e-16 1.5502e-17 -0.0121752)
(-1.62187e-16 1.54139e-17 -0.0123887)
(-8.36318e-17 9.26139e-18 -0.0126258)
(-4.48952e-17 5.32535e-18 -0.0128744)
(-9.41242e-17 3.03238e-18 -0.0131172)
(-8.75391e-17 1.27194e-17 -0.0133553)
(-1.54058e-16 7.76466e-18 -0.0135752)
(8.37611e-17 1.00843e-16 -0.0137702)
(1.00297e-15 -1.53994e-15 -0.0139372)
(2.14383e-15 -1.53997e-15 -0.0140737)
(3.09352e-15 -1.7144e-15 -0.0141799)
(3.00075e-15 -4.11497e-17 -0.0142568)
(2.26444e-15 -1.57186e-15 -0.0143065)
(8.63755e-16 -1.58777e-15 -0.0143314)
(-1.13669e-15 7.72865e-17 -0.0143345)
(-3.10346e-15 1.34918e-16 -0.0143191)
(-4.75276e-15 2.29239e-16 -0.0142871)
(-5.88798e-15 1.47311e-16 -0.0142396)
(-6.8188e-15 3.59327e-15 -0.0141758)
(-7.01021e-15 2.6367e-16 -0.0140939)
(-6.70785e-15 2.73031e-16 -0.0139918)
(-6.03098e-15 2.48793e-16 -0.0138683)
(-5.02039e-15 1.24434e-16 -0.0137239)
(-3.94808e-15 1.70371e-15 -0.013562)
(-2.46597e-15 1.6225e-15 -0.0133884)
(-1.05702e-15 1.63111e-15 -0.013211)
(6.82753e-16 -1.50221e-16 -0.0130387)
(2.59395e-15 1.44796e-15 -0.0128797)
(4.5225e-15 1.35735e-15 -0.0127408)
(6.66457e-15 1.265e-15 -0.0126255)
(8.73705e-15 1.21671e-15 -0.0125345)
(1.07404e-14 -5.97561e-16 -0.0124648)
(1.2604e-14 1.03003e-15 -0.0124115)
(1.42546e-14 9.72825e-16 -0.012368)
(1.58252e-14 9.29582e-16 -0.0123276)
(1.71535e-14 9.10453e-16 -0.0122847)
(1.82767e-14 -8.567e-16 -0.012235)
(1.91825e-14 8.41308e-16 -0.0121763)
(1.98659e-14 8.28312e-16 -0.0121084)
(2.03704e-14 8.22226e-16 -0.0120326)
(2.05818e-14 8.3865e-16 -0.0119517)
(2.05307e-14 -8.831e-16 -0.0118688)
(2.01644e-14 8.79901e-16 -0.0117874)
(1.94524e-14 9.60552e-16 -0.0117103)
(1.84389e-14 -6.74654e-16 -0.0116397)
(1.70665e-14 -2.31355e-15 -0.0115769)
(1.52748e-14 -4.55518e-16 -0.0115221)
(1.31375e-14 -2.96195e-16 -0.0114748)
(1.0636e-14 -1.1681e-16 -0.0114338)
(7.86605e-15 7.61322e-17 -0.0113974)
(4.85296e-15 -1.4779e-15 -0.0113639)
(1.60175e-15 4.3775e-16 -0.0113315)
(-1.78671e-15 6.24839e-16 -0.0112989)
(-5.31335e-15 8.07453e-16 -0.0112649)
(-8.89484e-15 9.82954e-16 -0.0112289)
(-1.25482e-14 -5.90891e-16 -0.0111905)
(-1.62848e-14 1.31804e-15 -0.0111499)
(-2.00747e-14 -2.40886e-16 -0.0111074)
(-2.39478e-14 -6.74727e-17 -0.0110633)
(-2.78359e-14 1.86136e-15 -0.0110182)
(-3.17892e-14 3.16016e-16 -0.0109727)
(-3.572e-14 2.23343e-15 -0.010927)
(-3.95608e-14 6.50735e-16 -0.0108815)
(-4.32787e-14 7.61709e-16 -0.0108363)
(-4.67679e-14 2.58669e-15 -0.0107914)
(-5.00681e-14 9.06269e-16 -0.0107466)
(-5.31134e-14 2.67654e-15 -0.0107017)
(-5.58964e-14 9.5321e-16 -0.0106562)
(-5.84465e-14 9.45899e-16 -0.0106099)
(-6.07219e-14 2.67887e-15 -0.0105622)
(-6.27957e-14 9.27507e-16 -0.010513)
(-6.4599e-14 2.63557e-15 -0.0104618)
(-6.61085e-14 8.448e-16 -0.0104084)
(-6.73309e-14 7.60372e-16 -0.0103525)
(-6.82241e-14 2.41014e-15 -0.0102939)
(-6.88848e-14 5.81629e-16 -0.0102325)
(-6.92888e-14 2.23101e-15 -0.0101681)
(-6.94575e-14 4.01421e-16 -0.0101004)
(-6.93973e-14 2.82881e-16 -0.0100293)
(-6.9001e-14 1.8661e-15 -0.00995458)
(-6.82182e-14 -1.11229e-16 -0.00987587)
(-6.68081e-14 1.25655e-15 -0.00979291)
(-6.45497e-14 -1.02474e-15 -0.00970535)
(-6.12231e-14 -1.77254e-15 -0.00961275)
(-5.65771e-14 -9.62778e-16 -0.0095145)
(-5.05171e-14 -3.78539e-15 -0.00940974)
(-4.2958e-14 -3.19491e-15 -0.0092974)
(-3.39818e-14 -4.25521e-15 -0.00917637)
(-2.39055e-14 -6.78824e-15 -0.00904598)
(-1.32376e-14 -5.33901e-15 -0.00890656)
(-2.72343e-15 -6.62885e-15 -0.00876003)
(6.76508e-15 -3.52421e-15 -0.00860992)
(1.43015e-14 -1.15098e-15 -0.00846024)
(1.90031e-14 4.40843e-16 -0.00831294)
(2.01921e-14 6.34507e-15 -0.00816423)
(1.73517e-14 9.414e-15 -0.00800057)
(1.01477e-14 1.63428e-14 -0.00779628)
(-1.54783e-15 2.15491e-14 -0.00751444)
(-1.74021e-14 2.44548e-14 -0.00711251)
(-3.62164e-14 2.94932e-14 -0.00655243)
(-5.56949e-14 2.87477e-14 -0.00581311)
(-7.23949e-14 2.82627e-14 -0.00490195)
(-8.23523e-14 2.23761e-14 -0.00386096)
(-8.23673e-14 1.15396e-14 -0.00276447)
(-7.16438e-14 2.69286e-15 -0.00170752)
(-5.34407e-14 -8.19033e-15 -0.000787024)
(-3.57539e-14 -1.05635e-14 -8.07539e-05)
(-3.06733e-14 -6.40432e-15 0.000369923)
(-5.20778e-14 5.86626e-15 0.000568162)
(-1.11914e-13 3.03238e-14 0.000558247)
(-2.16086e-13 5.56671e-14 0.000411905)
(-3.61055e-13 8.18099e-14 0.000208928)
(-5.32191e-13 9.53623e-14 1.83133e-05)
(-7.04624e-13 8.93477e-14 -0.000114824)
(-8.47252e-13 6.58097e-14 -0.000173766)
(-9.29788e-13 2.18476e-14 -0.000166376)
(-9.30945e-13 -3.29539e-14 -0.000115756)
(-8.45197e-13 -8.70946e-14 -4.9311e-05)
(-6.85164e-13 -1.30435e-13 1.01921e-05)
(-4.78734e-13 -1.48931e-13 4.94966e-05)
(-2.62002e-13 -1.44517e-13 6.54167e-05)
(-7.00518e-14 -1.18435e-13 6.22624e-05)
(7.12894e-14 -7.86441e-14 4.79299e-05)
(1.50428e-13 -3.71695e-14 3.03121e-05)
(1.70645e-13 1.69157e-15 1.50329e-05)
(1.46596e-13 2.64204e-14 4.73318e-06)
(9.85001e-14 3.67711e-14 -4.55105e-07)
(4.59454e-14 3.47564e-14 -1.8617e-06)
(3.23811e-15 2.31802e-14 -1.22791e-06)
(-2.26077e-14 1.24708e-14 7.08326e-09)
(-3.14547e-14 1.65211e-15 9.97109e-07)
(-2.77531e-14 -5.19666e-15 1.45267e-06)
(-1.77329e-14 -7.68833e-15 1.44139e-06)
(-6.99643e-15 -8.59393e-15 1.1714e-06)
(9.45129e-16 -4.31598e-15 8.39732e-07)
(4.88014e-15 -1.56647e-15 5.65962e-07)
(5.3904e-15 4.28918e-16 3.89585e-07)
(3.89922e-15 1.35643e-15 2.98632e-07)
(1.8249e-15 -3.54956e-16 2.61527e-07)
(1.5362e-16 9.21256e-16 2.48875e-07)
(-7.43215e-16 3.6931e-16 2.421e-07)
(-9.19414e-16 -3.69218e-17 2.33455e-07)
(-6.60143e-16 -2.23336e-16 2.21881e-07)
(-2.93709e-16 -1.9773e-15 2.09116e-07)
(-6.9651e-18 -1.59771e-16 1.96967e-07)
(1.20213e-16 -5.52873e-17 1.86492e-07)
(1.31338e-16 1.90244e-17 1.77817e-07)
(9.42662e-17 4.8501e-17 1.70676e-07)
(3.74606e-17 -1.70218e-15 1.64578e-07)
(-5.70148e-19 1.23426e-17 1.59173e-07)
(-2.65692e-17 2.00105e-18 1.54217e-07)
(-2.79431e-17 -1.25436e-18 1.49318e-07)
(-7.7254e-18 6.96455e-18 1.45878e-07)
(5.59055e-18 -1.72852e-15 1.37876e-07)
(-3.43099e-17 -3.3229e-18 -0.0346101)
(-1.30701e-16 -6.41522e-18 -0.0346848)
(-1.42948e-16 -7.43917e-18 -0.034837)
(-1.75514e-16 -8.2347e-18 -0.0350766)
(-2.26154e-16 -8.24975e-18 -0.0354126)
(-2.28844e-16 -7.46403e-18 -0.0358495)
(-2.3757e-16 -1.46911e-18 -0.0363901)
(-2.33435e-16 -3.08095e-17 -0.037021)
(-3.35879e-17 1.68534e-15 -0.037726)
(-2.07215e-16 1.05716e-17 -0.0384702)
(-9.52505e-16 2.43543e-17 -0.039199)
(-7.6986e-16 1.77741e-15 -0.0399169)
(2.0331e-15 -7.78854e-17 -0.0405797)
(6.84816e-15 -4.81059e-16 -0.0411681)
(1.06689e-14 -8.38642e-16 -0.0416734)
(9.67073e-15 -8.48828e-16 -0.0420886)
(2.2977e-15 -4.04752e-16 -0.0424137)
(-1.07402e-14 3.74241e-16 -0.0426512)
(-2.568e-14 1.23093e-15 -0.0428041)
(-3.86053e-14 1.84837e-15 -0.0428755)
(-4.65928e-14 2.06132e-15 -0.0428674)
(-4.97534e-14 1.94295e-15 -0.042781)
(-4.84829e-14 1.6215e-15 -0.042616)
(-4.35126e-14 1.17694e-15 -0.0423728)
(-3.62239e-14 6.84938e-16 -0.0420535)
(-2.70814e-14 2.11582e-16 -0.041664)
(-1.7078e-14 -2.16582e-16 -0.0412147)
(-6.83604e-15 -5.94937e-16 -0.0407198)
(3.3604e-15 -9.20404e-16 -0.0401967)
(1.31962e-14 -1.31162e-15 -0.0396635)
(2.28317e-14 1.76964e-16 -0.0391377)
(3.23177e-14 -3.40931e-15 -0.0386338)
(4.17257e-14 -3.70873e-15 -0.0381631)
(5.0692e-14 -2.20833e-15 -0.0377328)
(5.91678e-14 -4.14741e-15 -0.0373458)
(6.68653e-14 8.92443e-16 -0.0370013)
(7.36503e-14 -2.55425e-15 -0.0366956)
(7.93659e-14 -4.26406e-15 -0.0364228)
(8.37702e-14 -2.46344e-15 -0.0361759)
(8.69461e-14 -4.10809e-15 -0.0359484)
(8.89216e-14 -5.19021e-16 -0.0357342)
(8.98061e-14 -2.04915e-15 -0.035529)
(8.96629e-14 -3.60597e-15 -0.03533)
(8.84418e-14 -1.68889e-15 -0.0351364)
(8.61999e-14 -3.23464e-15 -0.0349485)
(8.28425e-14 4.64297e-16 -0.0347676)
(7.83194e-14 -9.75799e-16 -0.0345955)
(7.25303e-14 -2.40872e-15 -0.0344339)
(6.53394e-14 -3.16103e-16 -0.0342839)
(5.67437e-14 -1.64573e-15 -0.0341457)
(4.67629e-14 -1.21557e-15 -0.0340189)
(3.542e-14 1.00326e-15 -0.033902)
(2.27738e-14 -2.26161e-16 -0.033793)
(9.06706e-15 2.0232e-15 -0.0336895)
(-5.47811e-15 7.84177e-16 -0.033589)
(-2.0585e-14 1.23312e-15 -0.0334893)
(-3.60112e-14 3.38897e-15 -0.0333886)
(-5.15876e-14 2.02265e-15 -0.0332857)
(-6.70838e-14 4.08239e-15 -0.0331798)
(-8.24037e-14 2.62679e-15 -0.0330709)
(-9.74766e-14 2.86586e-15 -0.0329591)
(-1.12333e-13 4.83879e-15 -0.0328451)
(-1.27022e-13 3.34655e-15 -0.0327295)
(-1.41535e-13 5.32555e-15 -0.0326131)
(-1.55942e-13 2.07823e-15 -0.0324964)
(-1.70119e-13 7.51672e-15 -0.0323798)
(-1.83941e-13 5.99276e-15 -0.0322634)
(-1.97224e-13 4.38451e-15 -0.032147)
(-2.09685e-13 6.16491e-15 -0.0320303)
(-2.21159e-13 2.6304e-15 -0.0319126)
(-2.31417e-13 7.71625e-15 -0.0317933)
(-2.40395e-13 5.81374e-15 -0.0316715)
(-2.48128e-13 3.85582e-15 -0.0315465)
(-2.5466e-13 5.35459e-15 -0.0314174)
(-2.60149e-13 1.62382e-15 -0.0312836)
(-2.64589e-13 6.58821e-15 -0.0311445)
(-2.68003e-13 4.6008e-15 -0.0309997)
(-2.70348e-13 2.55727e-15 -0.0308487)
(-2.7152e-13 3.9456e-15 -0.0306911)
(-2.71546e-13 8.33369e-17 -0.0305266)
(-2.70405e-13 4.92177e-15 -0.0303548)
(-2.68247e-13 2.84868e-15 -0.0301752)
(-2.65236e-13 7.82661e-16 -0.0299874)
(-2.61442e-13 2.19048e-15 -0.0297905)
(-2.5686e-13 -1.68019e-15 -0.029584)
(-2.5113e-13 3.01131e-15 -0.029367)
(-2.4373e-13 5.27027e-16 -0.0291385)
(-2.33907e-13 -2.31242e-15 -0.0288976)
(-2.2075e-13 -2.08249e-15 -0.0286432)
(-2.03427e-13 -7.4937e-15 -0.0283742)
(-1.81122e-13 -4.58098e-15 -0.0280888)
(-1.53324e-13 -8.86019e-15 -0.0277847)
(-1.19925e-13 -1.14626e-14 -0.027459)
(-8.12771e-14 -1.20466e-14 -0.0271085)
(-3.84692e-14 -1.54256e-14 -0.0267314)
(6.68765e-15 -1.41953e-14 -0.0263288)
(5.1684e-14 -1.48955e-14 -0.0259066)
(9.35149e-14 -1.20368e-14 -0.0254761)
(1.29183e-13 -7.26997e-15 -0.0250508)
(1.56028e-13 -7.69732e-16 -0.0246399)
(1.72125e-13 8.9055e-15 -0.024237)
(1.76234e-13 1.61709e-14 -0.0238075)
(1.67533e-13 2.57926e-14 -0.0232802)
(1.45846e-13 3.70586e-14 -0.0225478)
(1.12684e-13 4.35238e-14 -0.0214808)
(7.26554e-14 5.03743e-14 -0.0199565)
(3.43782e-14 4.85716e-14 -0.017896)
(1.01106e-14 4.15916e-14 -0.0153006)
(1.31345e-14 2.90968e-14 -0.0122739)
(5.23841e-14 7.92004e-15 -0.0090206)
(1.25946e-13 -1.00357e-14 -0.00581588)
(2.15414e-13 -2.44006e-14 -0.00295287)
(2.84067e-13 -2.19471e-14 -0.000679796)
(2.80892e-13 3.4923e-15 0.000854415)
(1.50517e-13 4.82215e-14 0.00162977)
(-1.51943e-13 1.14063e-13 0.00175151)
(-6.44699e-13 1.81972e-13 0.00141507)
(-1.30699e-12 2.39863e-13 0.0008517)
(-2.07309e-12 2.68882e-13 0.000272308)
(-2.83632e-12 2.48613e-13 -0.000174459)
(-3.4659e-12 1.80126e-13 -0.000420212)
(-3.83567e-12 6.54288e-14 -0.000470252)
(-3.85814e-12 -7.52493e-14 -0.000379455)
(-3.51201e-12 -2.08251e-13 -0.000221656)
(-2.85179e-12 -3.11932e-13 -6.3058e-05)
(-1.9956e-12 -3.58777e-13 5.37016e-05)
(-1.09517e-12 -3.47123e-13 0.00011335)
(-2.97426e-13 -2.85081e-13 0.000122393)
(2.89976e-13 -1.87149e-13 9.90159e-05)
(6.19103e-13 -8.51128e-14 6.31819e-05)
(7.03805e-13 5.34242e-15 2.99855e-05)
(6.05134e-13 6.42277e-14 7.1509e-06)
(4.06854e-13 8.70962e-14 -4.13328e-06)
(1.90001e-13 8.41221e-14 -6.66134e-06)
(1.37738e-14 5.91915e-14 -4.49891e-06)
(-9.29215e-14 3.15519e-14 -1.08562e-06)
(-1.29449e-13 5.95951e-15 1.56892e-06)
(-1.14259e-13 -1.20575e-14 2.82236e-06)
(-7.30568e-14 -1.63319e-14 2.90058e-06)
(-2.88511e-14 -1.61982e-14 2.35034e-06)
(3.83893e-15 -8.51954e-15 1.66315e-06)
(2.00934e-14 -2.05438e-15 1.12038e-06)
(2.22132e-14 9.19378e-16 8.01139e-07)
(1.60396e-14 4.8739e-15 6.63381e-07)
(7.49698e-15 3.25256e-15 6.26932e-07)
(6.00438e-16 3.94004e-15 6.25122e-07)
(-3.04465e-15 2.64055e-15 6.21651e-07)
(-3.75359e-15 -7.84581e-17 6.06002e-07)
(-2.72127e-15 1.19854e-15 5.81184e-07)
(-1.21658e-15 -5.6916e-16 5.53699e-07)
(-5.48006e-17 1.36799e-15 5.28156e-07)
(5.12088e-16 1.61028e-15 5.06336e-07)
(5.70842e-16 3.19976e-17 4.87944e-07)
(3.81122e-16 1.83016e-15 4.72025e-07)
(1.43157e-16 7.99586e-17 4.57611e-07)
(-3.10462e-17 1.77908e-15 4.44115e-07)
(-9.32407e-17 1.75041e-15 4.31356e-07)
(-8.45938e-17 -1.06763e-17 4.18416e-07)
(-3.87723e-17 1.72492e-15 4.09532e-07)
(1.83406e-17 -4.54904e-19 3.87793e-07)
(-1.04392e-18 -2.88425e-20 -0.0573365)
(-1.58543e-17 -2.05515e-20 -0.0574569)
(-2.97367e-17 -9.8138e-20 -0.0577034)
(-5.39112e-17 1.53632e-18 -0.0580926)
(-6.54627e-17 -2.30996e-18 -0.0586397)
(-7.19324e-17 6.89882e-18 -0.0593526)
(-2.71301e-16 1.77972e-17 -0.0602362)
(3.23538e-16 -7.30248e-17 -0.0612683)
(-3.26711e-17 -3.84855e-18 -0.0624235)
(-2.98746e-15 4.51231e-16 -0.0636415)
(-6.13464e-16 2.97908e-16 -0.0648275)
(1.3597e-14 -1.48008e-15 -0.0660013)
(2.71694e-14 -3.8148e-15 -0.0670829)
(1.61162e-14 -4.21708e-15 -0.068042)
(-3.38789e-14 -1.2165e-15 -0.0688656)
(-1.15759e-13 4.38038e-15 -0.0695428)
(-2.05783e-13 1.02258e-14 -0.070075)
(-2.7627e-13 1.39477e-14 -0.0704652)
(-3.06747e-13 1.40954e-14 -0.0707161)
(-2.88466e-13 1.06033e-14 -0.0708276)
(-2.28363e-13 5.65136e-15 -0.0707955)
(-1.49415e-13 1.07994e-15 -0.0706142)
(-6.44521e-14 -2.89115e-15 -0.0702778)
(1.74746e-14 -5.98218e-15 -0.0697846)
(9.02995e-14 -8.0918e-15 -0.0691414)
(1.5099e-13 -9.30924e-15 -0.0683671)
(1.99166e-13 -9.84965e-15 -0.0674924)
(2.36259e-13 -9.97043e-15 -0.0665571)
(2.6456e-13 -9.89168e-15 -0.0656036)
(2.86398e-13 -9.77344e-15 -0.0646709)
(3.03602e-13 -9.66622e-15 -0.0637885)
(3.17313e-13 -9.53705e-15 -0.0629736)
(3.27915e-13 -9.34411e-15 -0.0622312)
(3.35217e-13 -9.00784e-15 -0.0615559)
(3.38693e-13 -8.47081e-15 -0.0609362)
(3.37856e-13 -7.71773e-15 -0.0603583)
(3.32462e-13 -6.75816e-15 -0.0598097)
(3.22665e-13 -5.6575e-15 -0.0592818)
(3.08869e-13 -4.49482e-15 -0.058771)
(2.91673e-13 -3.34101e-15 -0.0582784)
(2.71649e-13 -2.23852e-15 -0.0578088)
(2.4923e-13 -1.18813e-15 -0.0573693)
(2.24635e-13 -1.74545e-16 -0.0569667)
(1.97807e-13 8.38074e-16 -0.0566071)
(1.68494e-13 1.89152e-15 -0.0562937)
(1.36339e-13 3.02435e-15 -0.0560271)
(1.00986e-13 4.26343e-15 -0.0558045)
(6.21931e-14 5.60692e-15 -0.0556205)
(1.99165e-14 7.03764e-15 -0.0554675)
(-2.56448e-14 8.5149e-15 -0.0553367)
(-7.40249e-14 9.98635e-15 -0.0552188)
(-1.2451e-13 1.31505e-14 -0.0551052)
(-1.76179e-13 1.2721e-14 -0.0549886)
(-2.28001e-13 1.38298e-14 -0.0548635)
(-2.78933e-13 1.47097e-14 -0.0547264)
(-3.28042e-13 1.53418e-14 -0.0545761)
(-3.74609e-13 1.74928e-14 -0.0544131)
(-4.18182e-13 1.59741e-14 -0.0542392)
(-4.586e-13 1.60333e-14 -0.0540575)
(-4.95953e-13 1.60047e-14 -0.0538711)
(-5.30521e-13 1.59469e-14 -0.0536834)
(-5.62688e-13 1.7651e-14 -0.053497)
(-5.9283e-13 1.59189e-14 -0.053314)
(-6.21213e-13 1.76888e-14 -0.0531355)
(-6.47877e-13 1.59589e-14 -0.0529617)
(-6.72594e-13 1.58602e-14 -0.0527919)
(-6.94879e-13 1.73387e-14 -0.0526249)
(-7.14072e-13 1.51052e-14 -0.0524587)
(-7.29519e-13 1.60881e-14 -0.0522914)
(-7.40718e-13 1.33619e-14 -0.0521207)
(-7.47479e-13 1.22039e-14 -0.0519446)
(-7.49953e-13 1.27324e-14 -0.0517612)
(-7.48576e-13 9.80917e-15 -0.0515693)
(-7.43924e-13 1.04329e-14 -0.0513676)
(-7.36516e-13 7.64425e-15 -0.0511556)
(-7.26664e-13 6.60546e-15 -0.050933)
(-7.14413e-13 7.27748e-15 -0.0506996)
(-6.99602e-13 4.39434e-15 -0.0504554)
(-6.82043e-13 4.91354e-15 -0.0502005)
(-6.61691e-13 1.93712e-15 -0.0499345)
(-6.38777e-13 7.59815e-16 -0.0496572)
(-6.1378e-13 1.46751e-15 -0.0493679)
(-5.87231e-13 -1.17131e-15 -0.0490658)
(-5.59442e-13 -3.17067e-16 -0.0487496)
(-5.30203e-13 -3.13877e-15 -0.0484181)
(-4.98623e-13 -4.69937e-15 -0.0480697)
(-4.63143e-13 -5.25253e-15 -0.0477029)
(-4.21724e-13 -1.02337e-14 -0.0473161)
(-3.7216e-13 -1.27955e-14 -0.0469074)
(-3.12396e-13 -1.98521e-14 -0.0464748)
(-2.40806e-13 -2.60146e-14 -0.0460159)
(-1.56395e-13 -3.2649e-14 -0.045527)
(-5.89726e-14 -3.92187e-14 -0.0450037)
(5.06542e-14 -4.49829e-14 -0.0444412)
(1.70482e-13 -4.90357e-14 -0.0438364)
(2.972e-13 -5.04156e-14 -0.043191)
(4.26328e-13 -4.83076e-14 -0.0425148)
(5.52766e-13 -4.22738e-14 -0.0418271)
(6.71711e-13 -3.24073e-14 -0.0411523)
(7.79636e-13 -1.92952e-14 -0.0405098)
(8.74837e-13 -3.75798e-15 -0.0398956)
(9.57106e-13 1.34448e-14 -0.0392613)
(1.02675e-12 3.15367e-14 -0.0384969)
(1.0844e-12 4.89734e-14 -0.0374293)
(1.1341e-12 6.2785e-14 -0.0358416)
(1.18668e-12 6.86462e-14 -0.0335184)
(1.26134e-12 6.17546e-14 -0.0303069)
(1.38324e-12 3.8885e-14 -0.0261803)
(1.57521e-12 1.23933e-15 -0.0212806)
(1.84346e-12 -4.31315e-14 -0.0159225)
(2.16157e-12 -7.88219e-14 -0.0105511)
(2.45911e-12 -8.55162e-14 -0.00565734)
(2.62142e-12 -4.33024e-14 -0.00167454)
(2.50425e-12 6.03706e-14 0.00111626)
(1.96253e-12 2.24018e-13 0.00264267)
(8.89285e-13 4.27931e-13 0.00304341)
(-7.4349e-13 6.34925e-13 0.00261767)
(-2.8558e-12 7.96003e-13 0.00173945)
(-5.24594e-12 8.60028e-13 0.000764634)
(-7.60191e-12 7.8749e-13 -4.21607e-05)
(-9.54796e-12 5.65484e-13 -0.000543342)
(-1.07246e-11 2.17967e-13 -0.000723748)
(-1.08837e-11 -1.94781e-13 -0.000655666)
(-9.967e-12 -5.9027e-13 -0.000450759)
(-8.13279e-12 -8.86905e-13 -0.00021618)
(-5.72175e-12 -1.02724e-12 -2.63908e-05)
(-3.17044e-12 -9.93606e-13 8.58744e-05)
(-9.01237e-13 -8.11009e-13 0.000123107)
(7.76135e-13 -5.36909e-13 0.000108355)
(1.72277e-12 -2.42349e-13 6.99227e-05)
(1.97592e-12 8.67595e-15 3.05243e-05)
(1.7072e-12 1.74896e-13 2.67379e-06)
(1.15322e-12 2.44338e-13 -1.06906e-05)
(5.43306e-13 2.31297e-13 -1.27249e-05)
(4.5577e-14 1.66376e-13 -8.741e-06)
(-2.57278e-13 8.40824e-14 -3.36511e-06)
(-3.62546e-13 1.23209e-14 7.13038e-07)
(-3.21553e-13 -3.3393e-14 2.6989e-06)
(-2.0653e-13 -5.03924e-14 2.99218e-06)
(-8.23164e-14 -4.53071e-14 2.40654e-06)
(9.96021e-15 -2.87882e-14 1.64078e-06)
(5.60983e-14 -1.07536e-14 1.07388e-06)
(6.24052e-14 2.45585e-15 7.94304e-07)
(4.51964e-14 8.71455e-15 7.27872e-07)
(2.12085e-14 9.09933e-15 7.59815e-07)
(1.81267e-15 6.19207e-15 8.04709e-07)
(-8.49023e-15 2.54633e-15 8.24355e-07)
(-1.05232e-14 -1.98609e-16 8.15531e-07)
(-7.67549e-15 -1.49184e-15 7.9005e-07)
(-3.46054e-15 -1.57581e-15 7.60249e-07)
(-1.57195e-16 -1.0241e-15 7.33042e-07)
(1.44813e-15 -3.68109e-16 7.10107e-07)
(1.62432e-15 8.45075e-17 6.90367e-07)
(1.06062e-15 2.62344e-16 6.72232e-07)
(3.79844e-16 2.38625e-16 6.54673e-07)
(-7.88935e-17 1.30542e-16 6.37283e-07)
(-2.4903e-16 2.87749e-17 6.20324e-07)
(-2.19535e-16 -2.84886e-17 6.02649e-07)
(-1.15336e-16 -4.45026e-17 5.91014e-07)
(-2.36417e-18 -2.23534e-17 5.60207e-07)
(-4.07461e-17 5.12623e-18 -0.0795305)
(-1.46731e-16 7.93116e-18 -0.0796892)
(-1.20847e-16 1.15893e-17 -0.0800175)
(-1.85695e-16 9.6283e-18 -0.0805391)
(1.11746e-17 7.60843e-19 -0.0812757)
(-6.11665e-16 9.5455e-17 -0.0822395)
(4.62963e-16 -1.99204e-16 -0.083438)
(1.69299e-15 -1.50124e-16 -0.0848393)
(-9.04188e-15 3.34084e-15 -0.0864111)
(8.75542e-16 3.00968e-16 -0.0880617)
(5.05998e-14 -1.00026e-14 -0.089649)
(5.28833e-14 -1.2114e-14 -0.0912316)
(-1.05368e-13 -1.3375e-15 -0.0926816)
(-4.22991e-13 3.00431e-14 -0.0939613)
(-7.70575e-13 6.50989e-14 -0.0950561)
(-9.81377e-13 8.51032e-14 -0.095951)
(-9.45311e-13 7.98508e-14 -0.09665)
(-6.45876e-13 5.08563e-14 -0.0971586)
(-1.45303e-13 7.32921e-15 -0.0974817)
(4.44215e-13 -3.73438e-14 -0.0976192)
(9.94149e-13 -6.74642e-14 -0.0975662)
(1.44869e-12 -8.00124e-14 -0.0973134)
(1.78113e-12 -8.18235e-14 -0.0968508)
(1.98674e-12 -7.61989e-14 -0.0961737)
(2.07794e-12 -6.60725e-14 -0.0952899)
(2.07772e-12 -5.42215e-14 -0.0942238)
(2.01382e-12 -4.28512e-14 -0.0930169)
(1.9116e-12 -3.32921e-14 -0.0917242)
(1.79088e-12 -2.599e-14 -0.0904062)
(1.66462e-12 -2.08327e-14 -0.0891187)
(1.53923e-12 -1.52807e-14 -0.0879044)
(1.41682e-12 -1.73006e-14 -0.0867876)
(1.29597e-12 -1.26605e-14 -0.0857738)
(1.17405e-12 -7.59703e-15 -0.0848528)
(1.04902e-12 -5.46708e-15 -0.0840048)
(9.19926e-13 2.27302e-15 -0.0832067)
(7.87808e-13 5.04154e-15 -0.0824386)
(6.54649e-13 7.53265e-15 -0.0816871)
(5.22664e-13 1.30322e-14 -0.0809478)
(3.93809e-13 1.45016e-14 -0.0802248)
(2.68723e-13 2.07027e-14 -0.0795286)
(1.47063e-13 2.14583e-14 -0.0788734)
(2.72413e-14 2.21056e-14 -0.0782735)
(-9.3017e-14 2.63815e-14 -0.077741)
(-2.16048e-13 2.74993e-14 -0.0772833)
(-3.43965e-13 3.42184e-14 -0.0769024)
(-4.78018e-13 3.60972e-14 -0.0765941)
(-6.18517e-13 3.81258e-14 -0.0763493)
(-7.64642e-13 4.36028e-14 -0.0761551)
(-9.14348e-13 4.5325e-14 -0.0759962)
(-1.06475e-12 4.82161e-14 -0.075857)
(-1.21237e-12 5.20804e-14 -0.0757227)
(-1.35344e-12 5.15205e-14 -0.0755814)
(-1.48436e-12 5.34e-14 -0.075424)
(-1.60221e-12 5.08046e-14 -0.0752453)
(-1.70492e-12 4.90705e-14 -0.0750437)
(-1.79162e-12 4.84586e-14 -0.0748206)
(-1.86255e-12 4.40186e-14 -0.0745798)
(-1.91886e-12 4.29681e-14 -0.0743267)
(-1.96237e-12 3.85873e-14 -0.0740671)
(-1.99515e-12 3.62326e-14 -0.0738067)
(-2.01926e-12 3.59935e-14 -0.0735499)
(-2.03638e-12 3.26089e-14 -0.0733004)
(-2.04743e-12 3.28489e-14 -0.0730596)
(-2.05251e-12 2.77695e-14 -0.072828)
(-2.05074e-12 3.10169e-14 -0.0726042)
(-2.04061e-12 2.67321e-14 -0.0723858)
(-2.02032e-12 2.17048e-14 -0.0721698)
(-1.98835e-12 1.9488e-14 -0.0719526)
(-1.94401e-12 1.1611e-14 -0.0717305)
(-1.88768e-12 1.23329e-14 -0.0715004)
(-1.82086e-12 6.36255e-15 -0.0712593)
(-1.74574e-12 8.41638e-16 -0.0710051)
(-1.66466e-12 -6.75424e-16 -0.0707364)
(-1.57949e-12 -7.00582e-15 -0.0704525)
(-1.49116e-12 -4.46443e-15 -0.070153)
(-1.3997e-12 -8.93043e-15 -0.0698382)
(-1.30442e-12 -1.36277e-14 -0.0695081)
(-1.20461e-12 -1.50099e-14 -0.0691631)
(-1.10004e-12 -2.15485e-14 -0.0688031)
(-9.91369e-13 -1.90343e-14 -0.0684276)
(-8.80002e-13 -2.29243e-14 -0.0680359)
(-7.67459e-13 -2.6386e-14 -0.0676269)
(-6.54631e-13 -2.63238e-14 -0.0671989)
(-5.41039e-13 -3.20892e-14 -0.0667501)
(-4.24489e-13 -3.05189e-14 -0.0662783)
(-3.0132e-13 -3.79224e-14 -0.0657814)
(-1.66993e-13 -4.7804e-14 -0.0652569)
(-1.70092e-14 -5.67467e-14 -0.0647025)
(1.52407e-13 -7.31702e-14 -0.0641154)
(3.43918e-13 -8.25815e-14 -0.0634921)
(5.59058e-13 -9.9777e-14 -0.0628281)
(7.9846e-13 -1.14987e-13 -0.0621173)
(1.06194e-12 -1.26774e-13 -0.0613532)
(1.34854e-12 -1.38698e-13 -0.0605315)
(1.65645e-12 -1.42118e-13 -0.059654)
(1.98321e-12 -1.42679e-13 -0.0587333)
(2.32654e-12 -1.34729e-13 -0.0577955)
(2.68559e-12 -1.1897e-13 -0.0568748)
(3.06247e-12 -1.02332e-13 -0.0560006)
(3.46267e-12 -7.98293e-14 -0.055172)
(3.89381e-12 -5.97857e-14 -0.0543288)
(4.36264e-12 -3.78556e-14 -0.0533263)
(4.87292e-12 -1.6615e-14 -0.0519294)
(5.43149e-12 -7.61734e-15 -0.0498376)
(6.05684e-12 -1.32455e-14 -0.0467439)
(6.77979e-12 -4.97081e-14 -0.0424207)
(7.63439e-12 -1.15346e-13 -0.0368091)
(8.63514e-12 -2.01013e-13 -0.030084)
(9.74388e-12 -2.85261e-13 -0.0226652)
(1.08371e-11 -3.17858e-13 -0.0151635)
(1.16891e-11 -2.54322e-13 -0.00826598)
(1.19837e-11 -4.45155e-14 -0.00259119)
(1.13575e-11 3.32936e-13 0.0014459)
(9.47212e-12 8.55702e-13 0.00371818)
(6.10439e-12 1.46707e-12 0.00439554)
(1.23747e-12 2.05451e-12 0.00387905)
(-4.87682e-12 2.49109e-12 0.00268412)
(-1.16855e-11 2.64194e-12 0.00131079)
(-1.83603e-11 2.39963e-12 0.000139381)
(-2.39126e-11 1.74144e-12 -0.0006231)
(-2.73953e-11 7.333e-13 -0.000940495)
(-2.81508e-11 -4.54027e-13 -0.000901816)
(-2.60159e-11 -1.58371e-12 -0.000655929)
(-2.13988e-11 -2.43456e-12 -0.000350528)
(-1.51931e-11 -2.83995e-12 -9.17834e-05)
(-8.55189e-12 -2.75738e-12 6.99765e-05)
(-2.59738e-12 -2.25837e-12 0.000132959)
(1.84059e-12 -1.49915e-12 0.000124809)
(4.38004e-12 -6.85006e-13 8.19977e-05)
(5.10326e-12 1.31265e-14 3.48065e-05)
(4.44894e-12 4.75578e-13 5.76306e-07)
(3.03121e-12 6.69045e-13 -1.59396e-05)
(1.45006e-12 6.37944e-13 -1.82194e-05)
(1.4897e-13 4.59483e-13 -1.28367e-05)
(-6.5035e-13 2.35613e-13 -5.67145e-06)
(-9.35532e-13 3.80969e-14 -1.87693e-07)
(-8.36974e-13 -9.00658e-14 2.57663e-06)
(-5.41729e-13 -1.3595e-13 3.12945e-06)
(-2.19198e-13 -1.24443e-13 2.51964e-06)
(2.21767e-14 -7.77269e-14 1.65053e-06)
(1.44058e-13 -2.82769e-14 1.01282e-06)
(1.6198e-13 6.37035e-15 7.225e-07)
(1.18035e-13 2.54723e-14 6.86796e-07)
(5.58501e-14 2.49444e-14 7.61969e-07)
(5.24383e-15 1.87894e-14 8.42783e-07)
(-2.18281e-14 8.8085e-15 8.844e-07)
(-2.73251e-14 -4.85826e-16 8.85779e-07)
(-2.0025e-14 -2.33281e-15 8.63797e-07)
(-9.07269e-15 -4.32831e-15 8.34929e-07)
(-4.5506e-16 -1.08634e-15 8.08145e-07)
(3.74067e-15 7.19527e-16 7.85596e-07)
(4.22063e-15 2.2575e-16 7.66009e-07)
(2.76166e-15 2.4524e-15 7.47579e-07)
(1.00045e-15 6.49716e-16 7.29247e-07)
(-1.93211e-16 2.09352e-15 7.1072e-07)
(-6.4912e-16 1.82073e-15 6.9246e-07)
(-5.73855e-16 -7.75234e-17 6.73103e-07)
(-3.02097e-16 1.61634e-15 6.61275e-07)
(-1.05335e-17 -5.69407e-17 6.26298e-07)
(4.83779e-17 1.82843e-15 -0.100926)
(1.85274e-16 1.77475e-15 -0.101113)
(1.2635e-16 1.93837e-17 -0.101506)
(2.54305e-16 1.67025e-15 -0.102136)
(5.4712e-16 1.9454e-15 -0.103031)
(-1.87055e-15 1.51573e-15 -0.104207)
(9.64617e-15 -1.13453e-15 -0.105677)
(-2.04224e-14 4.7065e-15 -0.107398)
(-9.05374e-15 4.04876e-16 -0.109332)
(1.43265e-13 -3.11585e-14 -0.111348)
(4.8317e-14 -2.56517e-14 -0.113246)
(-6.48056e-13 7.65311e-14 -0.115165)
(-1.56674e-12 2.34068e-13 -0.116905)
(-1.83354e-12 3.28386e-13 -0.118424)
(-7.92566e-13 2.77976e-13 -0.119713)
(1.59513e-12 9.34829e-14 -0.120756)
(4.8316e-12 -1.5579e-13 -0.121565)
(8.1883e-12 -3.86056e-13 -0.122149)
(1.09923e-11 -5.27481e-13 -0.122516)
(1.27452e-11 -5.57388e-13 -0.122664)
(1.32301e-11 -4.96587e-13 -0.122584)
(1.29139e-11 -3.92409e-13 -0.122265)
(1.2043e-11 -2.71916e-13 -0.121694)
(1.08288e-11 -1.54388e-13 -0.120864)
(9.46178e-12 -5.35785e-14 -0.119786)
(8.0899e-12 1.92817e-14 -0.118487)
(6.80718e-12 7.32054e-14 -0.117016)
(5.65653e-12 1.01498e-13 -0.115441)
(4.64303e-12 1.13599e-13 -0.113834)
(3.75036e-12 1.16025e-13 -0.112263)
(2.95272e-12 1.10791e-13 -0.110782)
(2.22469e-12 1.10398e-13 -0.10942)
(1.5453e-12 1.12018e-13 -0.108184)
(9.02253e-13 1.12735e-13 -0.107062)
(2.92119e-13 1.16841e-13 -0.106027)
(-2.81128e-13 1.21138e-13 -0.10505)
(-8.08762e-13 1.24166e-13 -0.104104)
(-1.2829e-12 1.26914e-13 -0.103173)
(-1.69973e-12 1.24198e-13 -0.10225)
(-2.0618e-12 1.21888e-13 -0.101341)
(-2.37776e-12 1.19386e-13 -0.100461)
(-2.66009e-12 1.17825e-13 -0.099628)
(-2.9232e-12 1.19866e-13 -0.098862)
(-3.18054e-12 1.20755e-13 -0.0981799)
(-3.44296e-12 1.25627e-13 -0.0975927)
(-3.71716e-12 1.32268e-13 -0.0971038)
(-4.00495e-12 1.39812e-13 -0.096709)
(-4.30354e-12 1.48919e-13 -0.0963969)
(-4.60595e-12 1.53219e-13 -0.096151)
(-4.90224e-12 1.56837e-13 -0.0959514)
(-5.18093e-12 1.58992e-13 -0.0957778)
(-5.43024e-12 1.59227e-13 -0.095611)
(-5.63963e-12 1.4872e-13 -0.095435)
(-5.80115e-12 1.39949e-13 -0.0952382)
(-5.91004e-12 1.24986e-13 -0.0950135)
(-5.96535e-12 1.10047e-13 -0.094759)
(-5.96959e-12 9.80461e-14 -0.0944764)
(-5.92802e-12 7.95944e-14 -0.0941709)
(-5.84779e-12 6.76763e-14 -0.0938495)
(-5.7366e-12 5.4148e-14 -0.0935201)
(-5.60192e-12 4.43928e-14 -0.0931902)
(-5.44985e-12 4.00006e-14 -0.0928659)
(-5.28457e-12 3.00047e-14 -0.0925519)
(-5.10789e-12 2.7491e-14 -0.0922505)
(-4.9189e-12 1.76104e-14 -0.0919619)
(-4.7146e-12 1.16447e-14 -0.0916845)
(-4.49049e-12 3.86357e-15 -0.0914153)
(-4.24225e-12 -1.10266e-14 -0.0911499)
(-3.96716e-12 -2.03315e-14 -0.0908836)
(-3.6652e-12 -3.69752e-14 -0.0906116)
(-3.33974e-12 -4.7635e-14 -0.0903295)
(-2.99678e-12 -5.64966e-14 -0.0900335)
(-2.64384e-12 -6.82892e-14 -0.0897207)
(-2.28805e-12 -7.09616e-14 -0.0893894)
(-1.93433e-12 -7.91099e-14 -0.0890385)
(-1.58455e-12 -8.1555e-14 -0.0886678)
(-1.23743e-12 -8.43539e-14 -0.0882776)
(-8.89909e-13 -9.31518e-14 -0.0878681)
(-5.3881e-13 -9.55418e-14 -0.0874398)
(-1.82563e-13 -1.04681e-13 -0.0869926)
(1.77742e-13 -1.07527e-13 -0.086526)
(5.38931e-13 -1.08753e-13 -0.0860392)
(8.96939e-13 -1.13857e-13 -0.0855306)
(1.24902e-12 -1.1179e-13 -0.0849983)
(1.59541e-12 -1.1821e-13 -0.0844401)
(1.93982e-12 -1.22826e-13 -0.083853)
(2.28884e-12 -1.32264e-13 -0.0832344)
(2.64994e-12 -1.52389e-13 -0.0825811)
(3.02972e-12 -1.70761e-13 -0.08189)
(3.43272e-12 -2.00316e-13 -0.0811577)
(3.86152e-12 -2.27606e-13 -0.08038)
(4.31836e-12 -2.5992e-13 -0.0795513)
(4.80709e-12 -2.90658e-13 -0.0786641)
(5.3353e-12 -3.20024e-13 -0.0777104)
(5.91545e-12 -3.46293e-13 -0.0766843)
(6.56488e-12 -3.66017e-13 -0.0755871)
(7.30533e-12 -3.83351e-13 -0.0744332)
(8.16241e-12 -3.93462e-13 -0.0732535)
(9.16554e-12 -4.00371e-13 -0.0720908)
(1.03479e-11 -4.07833e-13 -0.0709831)
(1.17447e-11 -4.17696e-13 -0.0699337)
(1.33896e-11 -4.36543e-13 -0.0688734)
(1.53068e-11 -4.58016e-13 -0.0676278)
(1.75042e-11 -4.85448e-13 -0.0659062)
(1.99796e-11 -5.29173e-13 -0.0633296)
(2.27423e-11 -6.03769e-13 -0.0595029)
(2.58096e-11 -7.27022e-13 -0.0541225)
(2.91788e-11 -8.88793e-13 -0.0470934)
(3.27738e-11 -1.05351e-12 -0.0386153)
(3.6377e-11 -1.1441e-12 -0.0292052)
(3.95727e-11 -1.0497e-12 -0.0196327)
(4.1734e-11 -6.58809e-13 -0.0107774)
(4.20731e-11 1.22505e-13 -0.00344251)
(3.97522e-11 1.31614e-12 0.00182119)
(3.40438e-11 2.85057e-12 0.00482876)
(2.45233e-11 4.54699e-12 0.00577796)
(1.12525e-11 6.12553e-12 0.00516892)
(-5.08844e-12 7.25747e-12 0.00365639)
(-2.31155e-11 7.60178e-12 0.0018833)
(-4.07873e-11 6.90103e-12 0.000345092)
(-5.56627e-11 5.08472e-12 -0.000681747)
(-6.53821e-11 2.33709e-12 -0.00113953)
(-6.82716e-11 -8.84512e-13 -0.00113332)
(-6.38621e-11 -3.96628e-12 -0.000848619)
(-5.3103e-11 -6.2983e-12 -0.000473516)
(-3.81721e-11 -7.44894e-12 -0.000146142)
(-2.19276e-11 -7.29146e-12 6.50476e-05)
(-7.18666e-12 -6.00725e-12 0.000153424)
(3.93434e-12 -4.02562e-12 0.000150879)
(1.04208e-11 -1.87369e-12 0.000102007)
(1.24152e-11 -2.4041e-14 4.48961e-05)
(1.09604e-11 1.21092e-12 2.10149e-06)