/*--------------------------------*- C++ -*----------------------------------*\
  =========                 |
  \\      /  F ield         | OpenFOAM: The Open Source CFD Toolbox
   \\    /   O peration     | Website:  https://openfoam.org
    \\  /    A nd           | Version:  11
     \\/     M anipulation  |
\*---------------------------------------------------------------------------*/
FoamFile
{
    format      ascii;
    class       surfaceScalarField;
    location    "12.610287";
    object      phi;
}
// * * * * * * * * * * * * * * * * * * * * * * * * * * * * * * * * * * * * * //

dimensions      [0 3 -1 0 0 0 0];

internalField   nonuniform List<scalar> 
14638
(
0.00250228
-2.27582e-06
0.00250936
-7.08497e-06
0.00252177
-1.24087e-05
0.00254001
-1.82446e-05
0.00256444
-2.44297e-05
0.00259495
-3.05095e-05
0.00263077
-3.58146e-05
0.00267004
-3.92766e-05
0.00270988
-3.98321e-05
0.0027463
-3.64241e-05
0.00277492
-2.86208e-05
0.0027923
-1.73742e-05
0.0027964
-4.10678e-06
0.00278688
9.52497e-06
0.00276564
2.12384e-05
0.00273707
2.85679e-05
0.00270721
2.98597e-05
0.00268244
2.47706e-05
0.00266807
1.43742e-05
0.00266703
1.04146e-06
0.00267887
-1.18462e-05
0.00269923
-2.03615e-05
0.00272036
-2.11246e-05
0.00273342
-1.30668e-05
0.00273182
1.60938e-06
0.00271333
1.84892e-05
0.0026802
3.31231e-05
0.00263769
4.25177e-05
0.00259239
4.52919e-05
0.00255125
4.11429e-05
0.00252092
3.03268e-05
0.00250737
1.35486e-05
0.00251505
-7.6781e-06
0.00254533
-3.02816e-05
0.00259447
-4.914e-05
0.00265261
-5.81371e-05
0.00270565
-5.30389e-05
0.00274001
-3.43634e-05
0.00274765
-7.63787e-06
0.00272821
1.94392e-05
0.00268764
4.05691e-05
0.00263496
5.26835e-05
0.00257954
5.54208e-05
0.00252992
4.96175e-05
0.00249378
3.61387e-05
0.00247811
1.56715e-05
0.00248858
-1.04732e-05
0.0025275
-3.89186e-05
0.0025909
-6.33927e-05
0.00266699
-7.60898e-05
0.00273826
-7.127e-05
0.00278711
-4.88579e-05
0.0028023
-1.51832e-05
0.00278233
1.99719e-05
0.00273446
4.78667e-05
0.00267052
6.39342e-05
0.00260267
6.78533e-05
0.00254113
6.15458e-05
0.0024941
4.70232e-05
0.00246868
2.5425e-05
0.00247103
-2.35155e-06
0.00250494
-3.39157e-05
0.00256893
-6.39837e-05
0.00265384
-8.49117e-05
0.00274328
-8.9437e-05
0.00281748
-7.42081e-05
0.00285944
-4.19516e-05
0.00286031
-8.69355e-07
0.00282184
3.84608e-05
0.0027547
6.71488e-05
0.00267376
8.09379e-05
0.0025933
8.04622e-05
0.00252422
6.90798e-05
0.00247421
5.00077e-05
0.00244938
2.48316e-05
0.00245497
-5.59461e-06
0.00249378
-3.881e-05
0.00256315
-6.93691e-05
0.00265312
-8.99699e-05
0.00274759
-9.44691e-05
0.00282827
-8.06819e-05
0.00287957
-5.12942e-05
0.00289234
-1.27695e-05
0.00286565
2.66809e-05
0.00280647
5.91888e-05
0.00272738
7.90816e-05
0.00264324
8.41444e-05
0.00256763
7.56098e-05
0.00251119
5.64359e-05
0.00248195
2.92391e-05
0.00248582
-3.8676e-06
0.00252524
-3.94189e-05
0.00259661
-7.13737e-05
0.00268911
-9.24909e-05
0.00278656
-9.74559e-05
0.00287192
-8.5357e-05
0.00293193
-6.00123e-05
0.00296023
-2.83019e-05
0.00295787
2.36785e-06
0.00293161
2.62534e-05
0.00289131
4.03019e-05
0.00284752
4.379e-05
0.00281025
3.72719e-05
0.00278842
2.18311e-05
0.00278929
-8.7193e-07
0.00281732
-2.80296e-05
0.00287268
-5.53571e-05
0.00295021
-7.75342e-05
0.00303965
-8.94361e-05
0.0031273
-8.76572e-05
0.00319891
-7.16099e-05
0.00324268
-4.37679e-05
0.00325172
-9.04198e-06
0.00322531
2.64125e-05
0.00316872
5.65896e-05
0.00309174
7.69793e-05
0.00300631
8.54351e-05
0.00292391
8.23922e-05
0.00285349
7.04213e-05
0.00280028
5.3208e-05
0.00276604
3.42472e-05
0.00275018
1.58578e-05
0.00275112
-9.40796e-07
0.00276688
-1.57556e-05
0.00279488
-2.8008e-05
0.00283147
-3.65832e-05
0.00287153
-4.00615e-05
0.00290879
-3.72631e-05
0.00293656
-2.77701e-05
0.00294882
-1.22594e-05
0.00294144
7.37783e-06
0.0029133
2.81435e-05
0.00286689
4.64131e-05
0.00280806
5.88272e-05
0.00274473
6.3334e-05
0.00268486
5.98661e-05
0.00263463
5.0234e-05
0.00259733
3.72916e-05
0.00257346
2.38724e-05
0.00256142
1.20406e-05
0.00255855
2.87103e-06
0.00256192
-3.37162e-06
0.00256883
-6.91119e-06
0.00257702
-8.18245e-06
0.00258468
-7.66784e-06
0.00259052
-5.83882e-06
0.00259368
-3.15415e-06
0.00259374
-6.6184e-08
0.00259075
2.9935e-06
0.0025851
5.65158e-06
0.00257746
7.6353e-06
0.00256866
8.79949e-06
0.00255953
9.12734e-06
0.00255083
8.7097e-06
0.00254311
7.71306e-06
0.00253678
6.33063e-06
0.00253198
4.7965e-06
0.00252877
3.21074e-06
0.00252678
1.98953e-06
2.90274e-07
0.00250226
-4.53222e-06
0.00250929
-1.41201e-05
0.00252164
-2.47584e-05
0.00253986
-3.64623e-05
0.00256435
-4.89204e-05
0.00259508
-6.12352e-05
0.00263133
-7.20706e-05
0.0026713
-7.92452e-05
0.00271205
-8.05801e-05
0.00274945
-7.38279e-05
0.00277888
-5.805e-05
0.00279675
-3.52446e-05
0.00280093
-8.29012e-06
0.00279095
1.95068e-05
0.00276871
4.34827e-05
0.00273875
5.85278e-05
0.0027074
6.12077e-05
0.00268138
5.07958e-05
0.00266629
2.94575e-05
0.00266533
2.00241e-06
0.00267817
-2.46809e-05
0.00270026
-4.2454e-05
0.00272335
-4.42179e-05
0.00273796
-2.76711e-05
0.00273698
2.58853e-06
0.00271814
3.73277e-05
0.00268393
6.73316e-05
0.00263991
8.6533e-05
0.00259296
9.22451e-05
0.00255015
8.39529e-05
0.0025183
6.2178e-05
0.00250362
2.82299e-05
0.00251096
-1.50194e-05
0.00254214
-6.14599e-05
0.00259355
-0.000100547
0.00265485
-0.000119446
0.00271097
-0.000109156
0.0027473
-7.06893e-05
0.00275529
-1.5635e-05
0.0027348
3.99288e-05
0.00269236
8.3012e-05
0.00263753
0.000107511
0.00257999
0.000112961
0.00252836
0.000101251
0.00249037
7.41303e-05
0.00247327
3.27662e-05
0.00248331
-2.05093e-05
0.00252339
-7.90021e-05
0.00258974
-0.000129736
0.00266994
-0.000156293
0.00274519
-0.000146519
0.00279658
-0.000100249
0.0028122
-3.08066e-05
0.00279079
4.13813e-05
0.0027404
9.82624e-05
0.00267369
0.000130645
0.00260331
0.000138234
0.00253956
0.000125291
0.00249052
9.60686e-05
0.00246315
5.27892e-05
0.00246384
-3.03979e-06
0.00249688
-6.69502e-05
0.00256135
-0.000128454
0.00264839
-0.00017196
0.00274131
-0.000182351
0.00281944
-0.000152343
0.00286462
-8.71309e-05
0.00286711
-3.35427e-06
0.00282837
7.71975e-05
0.00275947
0.000136052
0.00267607
0.000164335
0.00259309
0.000163443
0.00252165
0.000140517
0.00246938
0.000102285
0.00244244
5.1771e-05
0.0024466
-9.76322e-06
0.00248539
-7.76e-05
0.00255644
-0.000140417
0.00264926
-0.000182789
0.00274667
-0.000191878
0.00282945
-0.000163459
0.00288169
-0.000103538
0.00289453
-2.5608e-05
0.00286743
5.37766e-05
0.00280757
0.00011905
0.00272758
0.000159073
0.00264222
0.000169502
0.00256512
0.000152715
0.0025072
0.000114356
0.00247717
5.92732e-05
0.00248182
-8.51975e-06
0.00252414
-8.17388e-05
0.00260016
-0.000147394
0.00269779
-0.000190122
0.00279934
-0.000199011
0.00288661
-0.000172625
0.00294594
-0.000119343
0.00297132
-5.36839e-05
0.00296466
9.03076e-06
0.00293376
5.71573e-05
0.00288933
8.47315e-05
0.00284247
9.06432e-05
0.0028034
7.63485e-05
0.00278106
4.41741e-05
0.00278281
-2.63005e-06
0.00281333
-5.85472e-05
0.00287283
-0.000114854
0.00295575
-0.000160459
0.00305095
-0.000184636
0.00314367
-0.000180374
0.00321874
-0.000146681
0.00326391
-8.89403e-05
0.00327233
-1.74553e-05
0.00324361
5.51328e-05
0.00318356
0.000116632
0.00310259
0.000157948
0.00301318
0.000174847
0.00292721
0.000168369
0.00285378
0.000143851
0.00279818
0.0001088
0.00276218
7.02508e-05
0.00274521
3.28241e-05
0.00274572
-1.44722e-06
0.00276168
-3.17128e-05
0.00279036
-5.66915e-05
0.00282783
-7.40477e-05
0.00286869
-8.09303e-05
0.00290651
-7.50795e-05
0.00293456
-5.58167e-05
0.00294692
-2.46211e-05
0.0029396
1.4694e-05
0.00291156
5.61855e-05
0.00286529
9.26804e-05
0.00280661
0.000117509
0.00274338
0.00012657
0.00268355
0.000119695
0.00263332
0.000100458
0.00259608
7.45325e-05
0.00257237
4.75862e-05
0.00256063
2.37787e-05
0.0025582
5.30537e-06
0.00256209
-7.2657e-06
0.00256954
-1.43641e-05
0.00257822
-1.68627e-05
0.0025863
-1.57424e-05
0.00259242
-1.19654e-05
0.00259574
-6.46671e-06
0.00259584
-1.66035e-07
0.00259277
6.0609e-06
0.00258696
1.14576e-05
0.00257913
1.54731e-05
0.00257011
1.78168e-05
0.00256078
1.84594e-05
0.0025519
1.75899e-05
0.00254406
1.5549e-05
0.00253766
1.27331e-05
0.00253284
9.6125e-06
0.00252965
6.40331e-06
0.00252772
3.92318e-06
5.15948e-07
0.00250222
-6.74931e-06
0.00250915
-2.10503e-05
0.00252137
-3.69855e-05
0.00253953
-5.4618e-05
0.00256413
-7.35219e-05
0.00259528
-9.23812e-05
0.00263241
-0.000109201
0.00267376
-0.000120599
0.00271636
-0.000123176
0.00275574
-0.000113208
0.00278678
-8.9092e-05
0.00280562
-5.40843e-05
0.00280993
-1.25964e-05
0.002799
3.04348e-05
0.00277471
6.77675e-05
0.00274196
9.12776e-05
0.00270767
9.54964e-05
0.00267923
7.92412e-05
0.00266287
4.58158e-05
0.00266226
2.61198e-06
0.00267727
-3.96859e-05
0.00270298
-6.8166e-05
0.00273006
-7.12959e-05
0.0027476
-4.52148e-05
0.00274756
2.63056e-06
0.0027276
5.72884e-05
0.00269082
0.000104108
0.00264354
0.000133811
0.00259318
0.00014261
0.00254713
0.000130001
0.00251249
9.68195e-05
0.00249592
4.4796e-05
0.00250304
-2.21392e-05
0.00253649
-9.49109e-05
0.00259289
-0.000156941
0.00266085
-0.00018741
0.00272314
-0.000171451
0.00276304
-0.000110581
0.00277107
-2.36636e-05
0.00274767
6.33284e-05
0.00270079
0.00012989
0.00264127
0.000167034
0.0025794
0.000174823
0.00252395
0.000156707
0.00248269
0.000115389
0.00246327
5.21826e-05
0.00247276
-3.00012e-05
0.00251505
-0.000121293
0.00258685
-0.000201533
0.00267504
-0.000244478
0.00275853
-0.000230016
0.00281548
-0.000157191
0.00283208
-4.74062e-05
0.00280733
6.6129e-05
0.00275115
0.00015444
0.0026783
0.000203491
0.00260267
0.00021387
0.0025347
0.000193259
0.00248198
0.000148789
0.00245107
8.37e-05
0.00244862
-5.91672e-07
0.00248006
-9.83891e-05
0.00254574
-0.000194132
0.0026371
-0.000263323
0.00273643
-0.000281681
0.00282138
-0.000237288
0.00287204
-0.000137792
0.00287731
-8.63137e-06
0.00283812
0.000116393
0.00276605
0.000208117
0.00267811
0.000252281
0.00259044
0.000251115
0.00251472
0.000216237
0.00245866
0.00015834
0.00242893
8.15025e-05
0.00243253
-1.336e-05
0.00247413
-0.0001192
0.00255116
-0.000217449
0.00265125
-0.000282877
0.00275466
-0.000295291
0.00284035
-0.000249149
0.00289212
-0.000155313
0.00290218
-3.56615e-05
0.00287148
8.44785e-05
0.00280823
0.000182301
0.00272534
0.000241956
0.00263738
0.000257461
0.00255783
0.000232266
0.00249812
0.000174068
0.00246825
8.91484e-05
0.00247644
-1.67137e-05
0.00252601
-0.000131308
0.00261153
-0.000232917
0.00271834
-0.000296926
0.00282631
-0.000306984
0.00291582
-0.000262133
0.00297292
-0.000176446
0.00299224
-7.30082e-05
0.00297703
2.42425e-05
0.00293683
9.7361e-05
0.00288402
0.00013754
0.00283087
0.000143788
0.00278816
0.00011906
0.00276512
6.72143e-05
0.00276943
-6.94075e-06
0.00280596
-9.5072e-05
0.00287447
-0.000183361
0.00296798
-0.000253975
0.00307334
-0.000289995
0.00317399
-0.00028102
0.00325372
-0.000226416
0.00330005
-0.000135272
0.00330641
-2.38101e-05
0.00327301
8.85281e-05
0.00320653
0.000183121
0.00311832
0.00024615
0.00302182
0.000271352
0.00292956
0.000260631
0.00285098
0.000222428
0.00279145
0.000168332
0.0027527
0.000108996
0.00273422
5.13075e-05
0.00273445
-1.6805e-06
0.00275125
-4.85125e-05
0.00278152
-8.69599e-05
0.00282076
-0.000113282
0.00286304
-0.00012321
0.00290159
-0.000113634
0.00292972
-8.39426e-05
0.00294176
-3.66694e-05
0.00293407
2.23835e-05
0.00290584
8.44249e-05
0.00285962
0.000138897
0.00280118
0.000175946
0.00273829
0.000189459
0.00267886
0.00017913
0.00262909
0.00015023
0.00259242
0.000111201
0.00256946
7.05392e-05
0.0025587
3.45415e-05
0.00255741
6.5919e-06
0.00256253
-1.23817e-05
0.00257116
-2.29921e-05
0.00258086
-2.65619e-05
0.00258972
-2.4602e-05
0.00259635
-1.86017e-05
0.00259989
-1.00061e-05
0.00259996
-2.31887e-07
0.00259664
9.37549e-06
0.00259044
1.7658e-05
0.00258214
2.37784e-05
0.00257265
2.73043e-05
0.0025629
2.82065e-05
0.0025537
2.67915e-05
0.00254566
2.35906e-05
0.00253917
1.92275e-05
0.00253437
1.44087e-05
0.00253127
9.50648e-06
0.0025295
5.68659e-06
5.84798e-07
0.00250215
-8.90341e-06
0.00250891
-2.78106e-05
0.00252094
-4.90063e-05
0.00253897
-7.26484e-05
0.00256369
-9.825e-05
0.00259543
-0.000124121
0.00263386
-0.000147627
0.00267732
-0.000164056
0.00272278
-0.000168635
0.00276524
-0.000155672
0.0027988
-0.000122651
0.00281918
-7.44677e-05
0.00282375
-1.71602e-05
0.0028114
4.27818e-05
0.00278395
9.52204e-05
0.00274683
0.000128398
0.00270792
0.0001344
0.00267567
0.000111495
0.00265727
6.42127e-05
0.00265716
2.72821e-06
0.00267555
-5.80758e-05
0.00270699
-9.96099e-05
0.00274041
-0.000104711
0.00276259
-6.73982e-05
0.00276394
1.27834e-06
0.00274209
7.91433e-05
0.00270118
0.000145012
0.00264878
0.00018621
0.00259317
0.000198226
0.0025422
0.000180972
0.00250331
0.000135704
0.00248383
6.42757e-05
0.00249059
-2.8896e-05
0.00252769
-0.000132012
0.00259218
-0.000221427
0.00267086
-0.000266091
0.00274287
-0.000243463
0.00278808
-0.000155787
0.00279571
-3.1301e-05
0.00276732
9.17181e-05
0.00271322
0.000183998
0.00264628
0.000233969
0.00257781
0.00024329
0.00251669
0.000217831
0.00247057
0.000161503
0.00244721
7.55505e-05
0.00245422
-3.70113e-05
0.00249676
-0.00016384
0.00257328
-0.000278049
0.00267139
-0.000342585
0.00276794
-0.000326571
0.00283628
-0.000225532
0.00285795
-6.9075e-05
0.00283064
9.34423e-05
0.00276668
0.000218398
0.0026846
0.000285572
0.00260087
0.0002976
0.00252647
0.000267661
0.00246811
0.000207148
0.0024317
0.000120112
0.00242484
6.26814e-06
0.00245533
-0.00012888
0.00252514
-0.000263947
0.0026247
-0.000362884
0.00273329
-0.000390265
0.00282585
-0.000329853
0.00288139
-0.00019333
0.00288862
-1.58645e-05
0.00284836
0.000156659
0.00277244
0.00028403
0.00267886
0.000345858
0.00258505
0.000344933
0.00250353
0.000297756
0.0024427
0.000219164
0.00241059
0.000113614
0.0024161
-1.88693e-05
0.0024647
-0.000167794
0.00255219
-0.00030494
0.00266292
-0.000393605
0.00277399
-0.000406367
0.00286252
-0.000337675
0.00291211
-0.000204902
0.00291631
-3.98634e-05
0.00287833
0.000122452
0.00280837
0.000252262
0.0027202
0.000330128
0.00262822
0.000349445
0.00254565
0.000314832
0.00248458
0.000235141
0.00245662
0.000117106
0.00247134
-3.143e-05
0.00253142
-0.000191397
0.00262876
-0.000330252
0.0027454
-0.000413565
0.00285902
-0.000420603
0.00294928
-0.000352399
0.00300256
-0.000229718
0.0030142
-8.46576e-05
0.00298859
4.98541e-05
0.00293689
0.000149066
0.00287335
0.000201076
0.00281186
0.000205278
0.00276431
0.000166618
0.00274075
9.07712e-05
0.00274952
-1.57118e-05
0.00279537
-0.000140924
0.00287648
-0.000264467
0.00298303
-0.000360528
0.00309908
-0.000406048
0.00320655
-0.000388487
0.00328914
-0.00030901
0.00333505
-0.000181182
0.00333839
-2.71499e-05
0.00329987
0.000127054
0.00322662
0.000256364
0.00313074
0.000342034
0.00302648
0.000375614
0.00292715
0.00035996
0.00284266
0.000306913
0.00277858
0.000232415
0.00273673
0.000150842
0.00271671
7.1335e-05
0.002717
-1.97705e-06
0.00273527
-6.67786e-05
0.00276784
-0.000119535
0.00280942
-0.000154863
0.00285335
-0.000167132
0.00289245
-0.00015274
0.00292015
-0.000111643
0.0029313
-4.78162e-05
0.00292282
3.08594e-05
0.00289431
0.000112943
0.0028484
0.000184799
0.00279073
0.000233623
0.00272883
0.00025136
0.00267046
0.0002375
0.00262179
0.000198895
0.00258633
0.000146663
0.00256477
9.20966e-05
0.00255563
4.36805e-05
0.00255615
6.07425e-06
0.00256313
-1.93563e-05
0.00257351
-3.33737e-05
0.00258471
-3.7765e-05
0.00259472
-3.46126e-05
0.0026021
-2.598e-05
0.00260596
-1.38672e-05
0.00260596
-2.3064e-07
0.00260226
1.30765e-05
0.00259545
2.44649e-05
0.00258643
3.27968e-05
0.00257623
3.75028e-05
0.00256587
3.85733e-05
0.0025562
3.64631e-05
0.00254787
3.19212e-05
0.00254126
2.58351e-05
0.00253652
1.91479e-05
0.00253358
1.24503e-05
0.00253209
7.16721e-06
4.08172e-07
0.00250206
-1.09659e-05
0.00250857
-3.43208e-05
0.00252028
-6.07092e-05
0.00253808
-9.04488e-05
0.00256289
-0.000123068
0.00259535
-0.000156577
0.00263547
-0.000187745
0.00268178
-0.000210366
0.00273123
-0.000218089
0.00277803
-0.000202472
0.0028151
-0.000159719
0.00283763
-9.70003e-05
0.0028426
-2.21282e-05
0.00282834
5.70414e-05
0.0027965
0.00012706
0.00275327
0.000171627
0.00270788
0.00017979
0.00267023
0.000149148
0.00264888
8.55613e-05
0.00264938
2.23088e-06
0.00267255
-8.12452e-05
0.00271224
-0.000139299
0.00275483
-0.000147303
0.00278368
-9.62527e-05
0.00278692
-1.96114e-06
0.00276221
0.000103859
0.00271535
0.000191864
0.00265577
0.000245794
0.00259292
0.000261072
0.0025352
0.000238691
0.0024904
0.000180507
0.00246667
8.80017e-05
0.00247274
-3.49635e-05
0.0025151
-0.000174371
0.00259156
-0.000297882
0.00268608
-0.000360619
0.00277212
-0.000329501
0.00282442
-0.000208082
0.00283067
-3.75549e-05
0.0027945
0.000127891
0.00272984
0.000248659
0.00265253
0.00031128
0.00257515
0.000320665
0.00250653
0.000286452
0.00245359
0.000214442
0.00242325
0.000105889
0.0024234
-3.71611e-05
0.00246175
-0.000202192
0.00254051
-0.000356803
0.00264909
-0.000451164
0.00276232
-0.000439803
0.00284816
-0.000311374
0.00288156
-0.000102477
0.00285616
0.000118849
0.00278538
0.000289177
0.00269242
0.000378532
0.00259808
0.000391935
0.00251485
0.000350896
0.00244873
0.000273262
0.00240553
0.000163318
0.00239521
1.65868e-05
0.00242876
-0.000162432
0.00250845
-0.000343635
0.00262107
-0.000475503
0.00274098
-0.00051018
0.00284001
-0.000428884
0.00289693
-0.000250249
0.00290213
-2.10565e-05
0.00285792
0.000200868
0.00277675
0.000365198
0.0026769
0.00044571
0.0025763
0.000445526
0.0024883
0.000385758
0.0024227
0.000284763
0.0023898
0.000146518
0.00240035
-2.94189e-05
0.00245919
-0.000226631
0.00255889
-0.000404646
0.00268015
-0.000514863
0.00279784
-0.000524055
0.0028883
-0.000428138
0.00293515
-0.000251749
0.00293264
-3.73505e-05
0.00288574
0.000169348
0.00280695
0.000331055
0.0027116
0.000425476
0.00261444
0.000446606
0.00252867
0.000400597
0.00246718
0.000296633
0.0024431
0.000141186
0.00246653
-5.4856e-05
0.00253829
-0.000263155
0.00264672
-0.000438681
0.00277079
-0.000537636
0.0028869
-0.000536718
0.0029751
-0.000440599
0.00302279
-0.000277403
0.00302621
-8.80802e-05
0.00299043
8.56316e-05
0.00292761
0.000211888
0.00285346
0.000275231
0.0027835
0.000275234
0.00273126
0.000218862
0.0027083
0.000113724
0.00272379
-3.11984e-05
0.00278141
-0.000198546
0.00287606
-0.000359118
0.00299398
-0.000478441
0.00311676
-0.000528827
0.00322623
-0.000497961
0.00330762
-0.000390397
0.00335082
-0.000224385
0.00335091
-2.72435e-05
0.00330869
0.000169277
0.00323104
0.000334015
0.00312996
0.000443116
0.00302004
0.000485533
0.00291516
0.000464834
0.00282577
0.000396306
0.00275779
0.000300398
0.00271336
0.000195273
0.00269237
9.23272e-05
0.00269346
-3.07144e-06
0.00271402
-8.73391e-05
0.00274963
-0.000155144
0.00279397
-0.0001992
0.0028395
-0.000212668
0.00287871
-0.000191948
0.00290524
-0.000138176
0.00291468
-5.72523e-05
0.00290481
4.07269e-05
0.00287584
0.000141916
0.00283057
0.000230065
0.00277438
0.000289814
0.00271441
0.000311334
0.00265806
0.000293842
0.00261138
0.000245578
0.00257789
0.000180157
0.00255839
0.000111595
0.00255147
5.05981e-05
0.00255434
3.20448e-06
0.00256367
-2.86855e-05
0.00257624
-4.59443e-05
0.00258932
-5.08417e-05
0.00260078
-4.60751e-05
0.00260913
-3.43258e-05
0.00261345
-1.81892e-05
0.00261342
-2.05201e-07
0.00260928
1.72167e-05
0.00260174
3.20104e-05
0.00259182
4.27097e-05
0.00258072
4.86069e-05
0.00256956
4.97347e-05
0.00255929
4.67357e-05
0.00255059
4.06147e-05
0.00254386
3.25724e-05
0.00253921
2.37925e-05
0.00253649
1.5167e-05
0.00253541
8.25507e-06
-9.34479e-08
0.00250194
-1.29017e-05
0.0025081
-4.04809e-05
0.00251933
-7.19458e-05
0.00253674
-0.000107859
0.00256154
-0.000147866
0.00259476
-0.0001898
0.00263693
-0.000229907
0.00268687
-0.000260316
0.00274163
-0.000272845
0.00279425
-0.000255093
0.00283601
-0.000201481
0.00286153
-0.000122513
0.00286724
-2.78464e-05
0.00285058
7.37047e-05
0.00281288
0.000164765
0.00276138
0.000223124
0.0027072
0.000233973
0.00266218
0.000194161
0.00263668
0.000111063
0.00263778
1.13581e-06
0.0026673
-0.000110771
0.00271831
-0.00019031
0.00277365
-0.000202638
0.00281172
-0.000134324
0.00281742
-7.65862e-06
0.0027886
0.000132671
0.00273362
0.000246845
0.00266452
0.000314897
0.00259231
0.000333287
0.00252587
0.000305125
0.00247325
0.000233131
0.00244361
0.000117641
0.00244794
-3.92979e-05
0.00249548
-0.000221903
0.00258561
-0.00038802
0.0027007
-0.0004757
0.00280742
-0.000436224
0.00287167
-0.000272335
0.00287706
-4.29456e-05
0.00283014
0.000174818
0.00275087
0.000327922
0.00265979
0.00040236
0.00257119
0.000409267
0.00249324
0.000364401
0.0024309
0.000276789
0.00238951
0.000147271
0.0023788
-2.645e-05
0.00241208
-0.000235466
0.00249577
-0.000440499
0.00261786
-0.000573251
0.00274844
-0.000570383
0.00285142
-0.000414358
0.00289812
-0.00014917
0.00287815
0.000138817
0.00280348
0.000363842
0.0027003
0.000481719
0.00259408
0.000498155
0.00249995
0.000445019
0.00242448
0.000348736
0.00237489
0.000212911
0.00236458
2.68958e-05
0.0024065
-0.000204354
0.00250028
-0.000437416
0.00262736
-0.000602588
0.00275783
-0.000640649
0.00286158
-0.000532631
0.00291739
-0.00030606
0.0029173
-2.09651e-05
0.00286605
0.000252117
0.00277772
0.000453528
0.00267093
0.000552499
0.0025635
0.00055296
0.00246927
0.000479983
0.00239996
0.000354079
0.00236839
0.000178084
0.00238623
-4.72553e-05
0.002456
-0.000296402
0.00256629
-0.00051494
0.00269491
-0.000643483
0.0028161
-0.000645247
0.00290685
-0.000518887
0.00295121
-0.000296108
0.00294337
-2.95087e-05
0.00288876
0.000223955
0.00280143
0.000418382
0.00269852
0.000528391
0.0025958
0.000549323
0.0025071
0.000489297
0.00244634
0.000357395
0.00242771
0.000159816
0.0024607
-8.78421e-05
0.00254318
-0.00034564
0.00265984
-0.000555335
0.00278735
-0.000665153
0.00290196
-0.000651326
0.00298495
-0.000523593
0.00302529
-0.000317741
0.00302028
-8.30713e-05
0.00297545
0.00013046
0.00290333
0.000284009
0.00282041
0.000358158
0.00274359
0.000352047
0.00268835
0.0002741
0.00266821
0.000133873
0.00269264
-5.56347e-05
0.00276263
-0.000268536
0.00286822
-0.000464703
0.00299177
-0.000601997
0.00311419
-0.000651245
0.00321928
-0.000603055
0.00329512
-0.000466229
0.00333376
-0.000263028
0.00333115
-2.46304e-05
0.00328775
0.000212675
0.0032095
0.000412264
0.00310751
0.000545106
0.00299599
0.000597053
0.00288895
0.000571869
0.00279723
0.000488025
0.00272725
0.000370382
0.00268172
0.000240801
0.0026611
0.000112952
0.00266426
-6.23367e-06
0.00268817
-0.000111248
0.00272738
-0.000194354
0.00277442
-0.000246245
0.00282105
-0.000259291
0.00285963
-0.000230532
0.00288428
-0.00016283
0.00289139
-6.43587e-05
0.00287967
5.24465e-05
0.00285008
0.00017151
0.00280572
0.000274424
0.00275173
0.000343807
0.00269469
0.000368368
0.00264149
0.000347047
0.00259782
0.000289247
0.00256716
0.000210819
0.0025504
0.000128354
0.00254621
5.47872e-05
0.00255178
-2.36687e-06
0.00256368
-4.05854e-05
0.00257857
-6.08352e-05
0.00259363
-6.59058e-05
0.0026067
-5.9143e-05
0.00261623
-4.38506e-05
0.00262125
-2.32144e-05
0.00262142
-3.75928e-07
0.00261699
2.16462e-05
0.00260877
4.02379e-05
0.00259793
5.35455e-05
0.00258584
6.06999e-05
0.00257378
6.17916e-05
0.00256282
5.76953e-05
0.00255371
4.97207e-05
0.00254684
3.94454e-05
0.00254233
2.83044e-05
0.0025399
1.75947e-05
0.00253931
8.85098e-06
-9.80201e-07
0.00250177
-1.46683e-05
0.00250745
-4.61664e-05
0.00251803
-8.2521e-05
0.00253481
-0.000124644
0.00255938
-0.000172433
0.00259331
-0.00022373
0.00263779
-0.00027439
0.0026922
-0.000314725
0.0027538
-0.000334441
0.002814
-0.000315292
0.00286175
-0.00024923
0.00289103
-0.000151801
0.00289786
-3.46724e-05
0.00287837
9.31919e-05
0.00283329
0.000209844
0.00277117
0.000285249
0.00270555
0.000299592
0.00265082
0.000248891
0.00261962
0.000142261
0.00262116
-4.04569e-07
0.00265888
-0.000148494
0.00272506
-0.000256484
0.0027977
-0.000275284
0.00284821
-0.000184824
0.00285692
-1.63772e-05
0.00282226
0.000167332
0.00275638
0.000312729
0.00267502
0.000396253
0.0025911
0.000417209
0.00251386
0.00038236
0.00245141
0.000295581
0.00241355
0.000155511
0.00241193
-3.7681e-05
0.00245712
-0.00026709
0.00255315
-0.000484059
0.00268788
-0.000610426
0.00282485
-0.000573192
0.00291547
-0.000362956
0.00292983
-5.73107e-05
0.00287387
0.000230786
0.00277677
0.000425021
0.00266807
0.000511058
0.00256566
0.000511681
0.00247634
0.00045372
0.00240172
0.000351411
0.00234656
0.000202431
0.00232622
-6.11247e-06
0.00236145
-0.000270701
0.00245894
-0.000537983
0.0025992
-0.00071351
0.002745
-0.000716189
0.00285823
-0.000527582
0.00291154
-0.000202481
0.00289449
0.000155862
0.00281711
0.000441221
0.0027055
0.000593334
0.00258778
0.000615869
0.00248195
0.00055085
0.00239684
0.00043385
0.00234289
0.000266859
0.00233656
3.32273e-05
0.00238985
-0.000257644
0.00249725
-0.000544811
0.00263528
-0.000740625
0.00277235
-0.000777719
0.00287871
-0.000638992
0.00293336
-0.000360709
0.00292845
-1.60504e-05
0.00286998
0.000310586
0.00277397
0.000549541
0.00266007
0.00066639
0.0025462
0.000666833
0.00244676
0.000579424
0.00237542
0.000425415
0.00234705
0.000206454
0.00237282
-7.30277e-05
0.00245192
-0.000375495
0.00256925
-0.000632275
0.00270105
-0.00077528
0.00282221
-0.000766407
0.00291127
-0.000607944
0.00295322
-0.000338059
0.00294199
-1.82813e-05
0.0028824
0.000283543
0.0027888
0.00051198
0.00267961
0.000637585
0.00257203
0.000656902
0.00248119
0.000580141
0.00242229
0.000416291
0.00240998
0.000172126
0.00245203
-0.000129889
0.00254278
-0.000436391
0.00266371
-0.000676266
0.00279034
-0.000791779
0.00289968
-0.000760671
0.0029748
-0.000598712
0.00300639
-0.000349332
0.00299288
-6.95636e-05
0.00294021
0.000183133
0.00286093
0.000363291
0.00277178
0.000447312
0.00269075
0.000433068
0.00263537
0.000329483
0.00262086
0.000148382
0.00265564
-9.041e-05
0.00273596
-0.000348859
0.00284656
-0.000575298
0.00296772
-0.000723167
0.00308224
-0.000765762
0.00317759
-0.000698406
0.00324502
-0.000533653
0.00327837
-0.00029638
0.00327405
-2.03105e-05
0.00323198
0.000254747
0.00315688
0.00048736
0.00305852
0.000643467
0.00295011
0.000705466
0.00284521
0.000676761
0.00275474
0.000578496
0.00268561
0.000439519
0.00264133
0.000285083
0.00262311
0.000131169
0.00262998
-1.31063e-05
0.00265811
-0.000139376
0.00270075
-0.000236991
0.00274945
-0.000294954
0.00279584
-0.000305673
0.0028328
-0.000267493
0.00285518
-0.000185209
0.00286004
-6.92177e-05
0.00284675
6.57319e-05
0.00281689
0.00020137
0.00277392
0.000317394
0.00272285
0.000394878
0.00266973
0.000421492
0.00262075
0.000396019
0.00258115
0.000328846
0.00255421
0.000237768
0.00254081
0.000141754
0.00253965
5.59474e-05
0.00254788
-1.06047e-05
0.00256204
-5.4746e-05
0.00257883
-7.76173e-05
0.00259553
-8.26148e-05
0.00261012
-7.3729e-05
0.00262105
-5.47801e-05
0.00262725
-2.94175e-05
0.00262821
-1.32866e-06
0.00262404
2.58102e-05
0.00261556
4.87187e-05
0.00260407
6.50331e-05
0.00259112
7.36485e-05
0.00257821
7.47021e-05
0.00256657
6.93421e-05
0.00255704
5.92447e-05
0.00255005
4.64427e-05
0.0025457
3.26495e-05
0.00254361
1.96876e-05
0.00254357
8.88494e-06
-2.27585e-06
0.00250155
-1.62145e-05
0.00250661
-5.12252e-05
0.00251627
-9.21847e-05
0.0025321
-0.00014048
0.0025561
-0.000196425
0.00259052
-0.000258155
0.00263748
-0.00032135
0.00269721
-0.000374453
0.00276754
-0.000404768
0.00283752
-0.000385277
0.00289292
-0.000304627
0.00292731
-0.000186196
0.00293606
-4.34164e-05
0.00291321
0.000116043
0.00285854
0.000264513
0.00278253
0.00036126
0.00270207
0.000380044
0.00263471
0.000316257
0.00259582
0.000181153
0.00259738
-1.96715e-06
0.00264543
-0.000196543
0.00273167
-0.00034273
0.00282762
-0.000371234
0.00289476
-0.000251962
0.00290715
-2.87617e-05
0.00286427
0.000210206
0.00278396
0.000393036
0.00268714
0.000493078
0.00258899
0.00051536
0.00249895
0.0004724
0.0024247
0.000369831
0.00237439
0.000205817
0.00235665
-1.99375e-05
0.00238404
-0.000294479
0.00247213
-0.000572151
0.00262077
-0.000759063
0.00279402
-0.000746451
0.00292844
-0.000497367
0.00297195
-0.000100823
0.00291927
0.000283466
0.00280668
0.000537613
0.00267773
0.000639999
0.00255853
0.000630886
0.00245539
0.000556855
0.00236657
0.000440232
0.00229891
0.000270097
0.00227598
1.68124e-05
0.00232267
-0.000317385
0.00243935
-0.000654662
0.00259702
-0.000871184
0.00275359
-0.000872763
0.00287095
-0.00064494
0.00292423
-0.000255757
0.00290527
0.000174815
0.00282404
0.000522459
0.0027054
0.000711974
0.0025777
0.000743562
0.00246097
0.000667583
0.00236752
0.000527297
0.00231191
0.000322477
0.00231201
3.31225e-05
0.00237622
-0.000321851
0.00249323
-0.000661828
0.0026365
-0.000883892
0.00277511
-0.000916327
0.00288145
-0.000745335
0.00293541
-0.000414663
0.00292824
-8.88461e-06
0.00286531
0.000373518
0.00276344
0.000651407
0.00264357
0.000786263
0.00252434
0.000786064
0.00242119
0.00068257
0.00234966
0.000496948
0.00232564
0.000230474
0.00235862
-0.000106002
0.00244418
-0.000461061
0.00256458
-0.000752673
0.0026957
-0.000906402
0.00281386
-0.000884563
0.00289945
-0.000693536
0.00293871
-0.000377315
0.00292549
-5.06961e-06
0.00286363
0.000345404
0.00276676
0.000608853
0.00265368
0.000750666
0.00254289
0.00076769
0.0024512
0.000671831
0.00239521
0.000472281
0.00238935
0.000177984
0.00243886
-0.000179396
0.00253451
-0.000532037
0.00265548
-0.000797237
0.00277724
-0.000913541
0.00287831
-0.000861738
0.00294367
-0.000664077
0.00296568
-0.000371344
0.00294382
-4.77019e-05
0.00288442
0.000242536
0.00279995
0.000447759
0.00270717
0.000540095
0.00262503
0.000515202
0.00257293
0.00038159
0.00256669
0.000154619
0.00261144
-0.000135164
0.00269739
-0.000434808
0.00280527
-0.000683176
0.0029163
-0.000834195
0.00301741
-0.000866877
0.00310025
-0.000781242
0.00315847
-0.000591873
0.00318679
-0.000324704
0.00318168
-1.51916e-05
0.00314258
0.000293838
0.00307329
0.000556652
0.0029822
0.000734558
0.00288114
0.000806525
0.00278268
0.000775223
0.00269734
0.000663832
0.00263242
0.000504444
0.00259232
0.000325178
0.00257896
0.000144537
0.00259102
-2.51737e-05
0.0026234
-0.000171749
0.00266806
-0.000281657
0.00271634
-0.000343228
0.00276063
-0.000349967
0.00279503
-0.000301895
0.00281526
-0.000205436
0.00281877
-7.27269e-05
0.00280511
7.93874e-05
0.00277611
0.000230375
0.00273547
0.00035803
0.0026882
0.00044215
0.00263992
0.000469775
0.00259617
0.000439767
0.0025616
0.00036342
0.00253913
0.000260238
0.00252948
0.000151403
0.00253121
5.42197e-05
0.00254138
-2.07769e-05
0.00255662
-6.99842e-05
0.002574
-9.49961e-05
0.00259136