/*--------------------------------*- C++ -*----------------------------------*\
  =========                 |
  \\      /  F ield         | OpenFOAM: The Open Source CFD Toolbox
   \\    /   O peration     | Website:  https://openfoam.org
    \\  /    A nd           | Version:  11
     \\/     M anipulation  |
\*---------------------------------------------------------------------------*/
FoamFile
{
    format      ascii;
    class       surfaceScalarField;
    location    "12.610287";
    object      phi_0;
}
// * * * * * * * * * * * * * * * * * * * * * * * * * * * * * * * * * * * * * //

dimensions      [0 3 -1 0 0 0 0];

internalField   nonuniform List<scalar> 
14638
(
0.00250228
-2.28191e-06
0.00250939
-7.10413e-06
0.00252182
-1.24387e-05
0.0025401
-1.828e-05
0.00256457
-2.44621e-05
0.0025951
-3.05288e-05
0.00263091
-3.58096e-05
0.00267014
-3.92372e-05
0.00270989
-3.97506e-05
0.00274619
-3.6298e-05
0.00277465
-2.84555e-05
0.00279183
-1.71865e-05
0.00279576
-3.92879e-06
0.00278611
9.64985e-06
0.00276486
2.12537e-05
0.00273643
2.84246e-05
0.00270689
2.95399e-05
0.0026826
2.42966e-05
0.00266878
1.38161e-05
0.00266827
5.12016e-07
0.00268047
-1.22008e-05
0.00270087
-2.03966e-05
0.00272163
-2.07622e-05
0.00273399
-1.23644e-05
0.00273152
2.46984e-06
0.00271223
1.92903e-05
0.00267853
3.3701e-05
0.00263574
4.27894e-05
0.00259051
4.5235e-05
0.00254974
4.07667e-05
0.00252008
2.96583e-05
0.00250744
1.26413e-05
0.00251616
-8.71617e-06
0.00254741
-3.12526e-05
0.00259718
-4.97653e-05
0.00265533
-5.81597e-05
0.00270771
-5.23758e-05
0.0027409
-3.31877e-05
0.0027472
-6.29848e-06
0.0027266
2.05927e-05
0.00268528
4.13249e-05
0.00263229
5.29845e-05
0.002577
5.52989e-05
0.00252787
4.91224e-05
0.00249257
3.53058e-05
0.00247803
1.454e-05
0.00248983
-1.18009e-05
0.00253004
-4.02103e-05
0.00259433
-6.42943e-05
0.00267059
-7.62542e-05
0.00274114
-7.05506e-05
0.00278856
-4.74261e-05
0.00280203
-1.34634e-05
0.00278052
2.15059e-05
0.00273163
4.88943e-05
0.00266727
6.43616e-05
0.00259952
6.77471e-05
0.0025385
6.10173e-05
0.00249235
4.61478e-05
0.00246812
2.42379e-05
0.0024719
-3.78926e-06
0.00250733
-3.54271e-05
0.00257258
-6.5249e-05
0.00265813
-8.55502e-05
0.0027473
-8.91721e-05
0.00282032
-7.30181e-05
0.00286044
-4.0114e-05
0.0028593
1.13454e-06
0.00281917
4.01316e-05
0.00275101
6.81588e-05
0.0026698
8.1215e-05
0.00258966
8.01325e-05
0.00252134
6.83257e-05
0.00247239
4.89471e-05
0.00244888
2.35058e-05
0.00245601
-7.1268e-06
0.00249638
-4.03649e-05
0.00256701
-7.06301e-05
0.0026576
-9.05981e-05
0.00275186
-9.42545e-05
0.00283149
-7.9635e-05
0.00288113
-4.96369e-05
0.00289199
-1.08565e-05
0.00286353
2.84567e-05
0.00280304
6.04891e-05
0.00272334
7.97036e-05
0.00263927
8.40649e-05
0.00256433
7.49466e-05
0.00250899
5.53377e-05
0.00248117
2.78139e-05
0.00248668
-5.50396e-06
0.00252773
-4.10476e-05
0.0026004
-7.26698e-05
0.00269354
-9.31415e-05
0.00279084
-9.73051e-05
0.00287532
-8.44751e-05
0.00293398
-5.86591e-05
0.0029608
-2.6821e-05
0.00295713
3.66531e-06
0.00292997
2.71669e-05
0.00288921
4.07525e-05
0.00284544
4.37764e-05
0.00280861
3.68223e-05
0.00278762
2.09902e-05
0.00278964
-2.01845e-06
0.00281897
-2.93241e-05
0.00287554
-5.65698e-05
0.00295394
-7.84053e-05
0.00304369
-8.97477e-05
0.00313099
-8.73013e-05
0.00320161
-7.06226e-05
0.00324394
-4.23216e-05
0.00325134
-7.39991e-06
0.00322338
2.79565e-05
0.0031656
5.77793e-05
0.00308795
7.76505e-05
0.0030024
8.5544e-05
0.00292039
8.20124e-05
0.00285068
6.97101e-05
0.00279834
5.23469e-05
0.00276496
3.33789e-05
0.0027499
1.5055e-05
0.00275156
-1.6593e-06
0.00276794
-1.63804e-05
0.00279645
-2.85051e-05
0.00283334
-3.68895e-05
0.00287344
-4.01059e-05
0.00291044
-3.69951e-05
0.00293762
-2.71836e-05
0.00294903
-1.1407e-05
0.00294065
8.38078e-06
0.00291152
2.91298e-05
0.00286432
4.71985e-05
0.00280505
5.92641e-05
0.00274169
6.33622e-05
0.00268216
5.95308e-05
0.0026325
4.96602e-05
0.00259587
3.66297e-05
0.00257262
2.32488e-05
0.00256109
1.15322e-05
0.00255858
2.50677e-06
0.00256218
-3.59553e-06
0.00256919
-7.01481e-06
0.00257738
-8.19047e-06
0.00258499
-7.60429e-06
0.00259071
-5.72615e-06
0.00259373
-3.01388e-06
0.00259365
8.0882e-08
0.00259052
3.12842e-06
0.00258476
5.75924e-06
0.00257705
7.70616e-06
0.00256822
8.83017e-06
0.0025591
9.12019e-06
0.00255043
8.67124e-06
0.00254278
7.65237e-06
0.00253652
6.25764e-06
0.0025318
4.72031e-06
0.00252866
3.14008e-06
0.00252673
1.92695e-06
2.51365e-07
0.00250226
-4.54449e-06
0.00250932
-1.41588e-05
0.0025217
-2.48188e-05
0.00253995
-3.65339e-05
0.00256448
-4.89865e-05
0.00259522
-6.12753e-05
0.00263147
-7.20623e-05
0.00267141
-7.91679e-05
0.00271207
-8.04176e-05
0.00274935
-7.35747e-05
0.00277861
-5.77157e-05
0.00279629
-3.48622e-05
0.00280028
-7.92391e-06
0.00279016
1.9769e-05
0.00276789
4.35241e-05
0.00273807
5.82454e-05
0.00270705
6.05626e-05
0.00268151
4.98315e-05
0.00266701
2.83144e-05
0.00266662
9.09945e-07
0.00267984
-2.54227e-05
0.00270198
-4.25402e-05
0.0027247
-4.34813e-05
0.00273856
-2.62287e-05
0.00273668
4.35628e-06
0.002717
3.89687e-05
0.00268219
6.85107e-05
0.00263789
8.70863e-05
0.002591
9.21327e-05
0.00254857
8.31958e-05
0.0025174
6.08277e-05
0.00250365
2.63868e-05
0.00251208
-1.71452e-05
0.00254429
-6.34661e-05
0.00259638
-0.000101854
0.00265773
-0.000119508
0.00271315
-0.000107795
0.00274823
-6.82664e-05
0.00275481
-1.28812e-05
0.00273312
4.22873e-05
0.0026899
8.45451e-05
0.00263477
0.000108114
0.00257735
0.000112711
0.00252622
0.000100255
0.00248908
7.24522e-05
0.00247314
3.04707e-05
0.00248457
-2.32282e-05
0.00252603
-8.1672e-05
0.00259336
-0.000131616
0.00267375
-0.000156647
0.00274823
-0.000145037
0.0027981
-9.7291e-05
0.0028119
-2.72652e-05
0.00278889
4.45216e-05
0.00273743
0.000100345
0.0026703
0.000131494
0.00260005
0.000138003
0.00253684
0.000124221
0.00248868
9.43128e-05
0.00246251
5.04075e-05
0.00246466
-5.9416e-06
0.00249926
-7.00287e-05
0.00256508
-0.000131063
0.00265284
-0.000173317
0.00274554
-0.000181872
0.00282248
-0.00014996
0.00286577
-8.3397e-05
0.00286616
7.47034e-07
0.00282566
8.06309e-05
0.00275568
0.000138132
0.00267199
0.000164909
0.00258934
0.000162779
0.00251867
0.000139002
0.00246745
0.000100161
0.00244185
4.91046e-05
0.0024476
-1.28727e-05
0.00248801
-8.07806e-05
0.00256039
-0.000143004
0.00265386
-0.00018407
0.00275103
-0.000191426
0.00283271
-0.000161317
0.00288326
-0.000100183
0.00289416
-2.17618e-05
0.00286529
5.73342e-05
0.00280412
0.000121656
0.00272349
0.000160329
0.0026382
0.000169361
0.00256174
0.000151401
0.00250493
0.00011215
0.00247637
5.63742e-05
0.00248275
-1.18793e-05
0.00252679
-8.50895e-05
0.00260416
-0.000150039
0.00270242
-0.000191408
0.00280375
-0.000198629
0.00289002
-0.000170744
0.00294788
-0.000116519
0.00297169
-5.06363e-05
0.00296369
1.16642e-05
0.00293189
5.8975e-05
0.00288705
8.55874e-05
0.00284027
9.05534e-05
0.00280171
7.5384e-05
0.00278028
4.24265e-05
0.00278325
-4.99537e-06
0.00281514
-6.12157e-05
0.00287593
-0.000117351
0.00295976
-0.000162243
0.00305527
-0.000185251
0.00314757
-0.000179606
0.00322157
-0.000144617
0.00326519
-8.59488e-05
0.00327188
-1.4082e-05
0.00324154
5.8289e-05
0.00318027
0.000119052
0.00309862
0.000159304
0.0030091
0.000175057
0.00292353
0.000167589
0.00285083
0.000142403
0.00279613
0.00010705
0.00276103
6.8485e-05
0.00274489
3.11861e-05
0.00274615
-2.91802e-06
0.00276276
-3.29919e-05
0.00279196
-5.7704e-05
0.00282974
-7.46638e-05
0.00287064
-8.101e-05
0.00290818
-7.45293e-05
0.00293563
-5.46327e-05
0.00294713
-2.29127e-05
0.00293881
1.66976e-05
0.00290979
5.8154e-05
0.00286274
9.42492e-05
0.00280362
0.000118384
0.00274035
0.000126631
0.00268085
0.000119029
0.0026312
9.93112e-05
0.00259462
7.3206e-05
0.00257154
4.63329e-05
0.00256032
2.27548e-05
0.00255825
4.57135e-06
0.00256237
-7.71602e-06
0.00256993
-1.45705e-05
0.00257861
-1.68752e-05
0.00258662
-1.561e-05
0.00259263
-1.17339e-05
0.00259579
-6.18e-06
0.00259574
1.33658e-07
0.00259253
6.33518e-06
0.00258662
1.16759e-05
0.00257871
1.56162e-05
0.00256966
1.78781e-05
0.00256034
1.84439e-05
0.0025515
1.7511e-05
0.00254372
1.54252e-05
0.0025374
1.25846e-05
0.00253266
9.45795e-06
0.00252954
6.26024e-06
0.00252767
3.79683e-06
4.37758e-07
0.00250222
-6.76795e-06
0.00250917
-2.11091e-05
0.00252143
-3.70776e-05
0.00253963
-5.47276e-05
0.00256426
-7.3624e-05
0.00259543
-9.24449e-05
0.00263256
-0.000109192
0.00267388
-0.000120486
0.0027164
-0.000122934
0.00275565
-0.000112826
0.00278651
-8.85817e-05
0.00280515
-5.34939e-05
0.00280924
-1.20224e-05
0.00279816
3.08584e-05
0.00277382
6.78554e-05
0.00274121
9.08633e-05
0.00270725
9.4514e-05
0.00267933
7.77526e-05
0.00266361
4.40332e-05
0.00266364
8.88755e-07
0.00267909
-4.08778e-05
0.00270488
-6.83316e-05
0.00273156
-7.01543e-05
0.00274828
-4.29491e-05
0.00274723
5.40488e-06
0.00272635
5.9847e-05
0.00268893
0.000105929
0.00264136
0.000134657
0.00259106
0.000142436
0.00254541
0.000128846
0.00251148
9.47548e-05
0.00249591
4.19561e-05
0.00250422
-2.5453e-05
0.00253883
-9.80797e-05
0.00259601
-0.000159034
0.00266404
-0.000187535
0.00272555
-0.000169306
0.00276403
-0.000106752
0.00277049
-1.93356e-05
0.00274578
6.69929e-05
0.0026981
0.000132232
0.00263828
0.000167927
0.00257657
0.000174421
0.00252164
0.000155186
0.00248126
0.000112833
0.00246307
4.86592e-05
0.00247407
-3.42261e-05
0.0025179
-0.000125501
0.00259084
-0.000204551
0.00267929
-0.000245105
0.00276196
-0.000227704
0.00281718
-0.000152504
0.00283171
-4.18005e-05
0.00280518
7.10507e-05
0.00274789
0.000157641
0.00267464
0.000204736
0.00259919
0.00021346
0.0025318
0.000191606
0.00247998
0.000146139
0.00245027
8.01165e-05
0.00244932
-4.99903e-06
0.00248243
-0.000103137
0.0025496
-0.000198228
0.0026418
-0.000265525
0.00274099
-0.000281053
0.00282473
-0.000233703
0.00287341
-0.000132078
0.00287645
-2.29087e-06
0.00283534
0.000121742
0.00276209
0.000211376
0.00267381
0.000253193
0.00258648
0.00025011
0.00251154
0.00021394
0.00245658
0.000155125
0.00242825
7.74303e-05
0.00243355
-1.81733e-05
0.00247693
-0.00012416
0.00255539
-0.000221463
0.00265612
-0.000284802
0.00275918
-0.000294486
0.00284362
-0.000245752
0.00289357
-0.00015013
0.00290163
-2.98264e-05
0.00286915
8.9809e-05
0.00280463
0.000186178
0.00272114
0.000243822
0.00263325
0.000257253
0.00255435
0.000230296
0.0024958
0.000170706
0.00246752
8.46553e-05
0.0024776
-2.19677e-05
0.00252904
-0.000136527
0.00261596
-0.000236959
0.00272332
-0.00029877
0.0028309
-0.000306203
0.0029192
-0.000259046
0.00297464
-0.000171953
0.00299224
-6.82411e-05
0.00297561
2.82899e-05
0.00293451
0.000100075
0.00288138
0.000138721
0.00282843
0.0001435
0.00278638
0.000117441
0.00276439
6.44087e-05
0.00277009
-1.06896e-05
0.00280815
-9.92759e-05
0.00287806
-0.000187259
0.00297251
-0.0002567
0.00307811
-0.000290847
0.00317821
-0.000279704
0.0032567
-0.000223112
0.00330133
-0.000130574
0.00330581
-1.85658e-05
0.0032707
9.34027e-05
0.00320292
0.000186835
0.00311401
0.000248208
0.00301742
0.000271643
0.00292561
0.000259407
0.00284782
0.000220192
0.00278923
0.000165641
0.00275143
0.000106277
0.00273385
4.87744e-05
0.00273489
-3.9643e-06
0.0027524
-5.04955e-05
0.0027832
-8.85129e-05
0.00282274
-0.000114203
0.00286503
-0.000123297
0.00290327
-0.000112766
0.00293077
-8.21352e-05
0.00294195
-3.40971e-05
0.00293327
2.53794e-05
0.00290407
8.73599e-05
0.00285708
0.000141235
0.00279821
0.000177252
0.00273529
0.000189551
0.00267619
0.000178133
0.00262699
0.000148509
0.00259099
0.000109204
0.00256868
6.86469e-05
0.00255844
3.29928e-05
0.00255753
5.48203e-06
0.00256287
-1.3059e-05
0.0025716
-2.3296e-05
0.00258129
-2.65689e-05
0.00259007
-2.43881e-05
0.00259657
-1.82378e-05
0.00259995
-9.5598e-06
0.00259986
2.31738e-07
0.00259639
9.7976e-06
0.00259008
1.7992e-05
0.0025817
2.39953e-05
0.00257218
2.73947e-05
0.00256245
2.81787e-05
0.00255329
2.66669e-05
0.00254532
2.33981e-05
0.0025389
1.89983e-05
0.00253419
1.41714e-05
0.00253116
9.28776e-06
0.00252946
5.49456e-06
4.67036e-07
0.00250216
-8.92871e-06
0.00250894
-2.78904e-05
0.002521
-4.91318e-05
0.00253907
-7.27984e-05
0.00256383
-9.83915e-05
0.0025956
-0.000124213
0.00263403
-0.000147623
0.00267746
-0.000163913
0.00272284
-0.000168315
0.00276517
-0.000155159
0.00279855
-0.000121955
0.0028187
-7.36492e-05
0.00282303
-1.63478e-05
0.00281048
4.34049e-05
0.00278295
9.53875e-05
0.00274595
0.000127864
0.0027074
0.000133062
0.00267572
0.00010943
0.00265805
6.1707e-05
0.00265867
2.67774e-07
0.00267761
-5.98193e-05
0.00270918
-9.99021e-05
0.00274215
-0.000103116
0.00276337
-6.41743e-05
0.00276356
5.21828e-06
0.00274066
8.27408e-05
0.00269906
0.000147536
0.00264635
0.000187362
0.00259081
0.000197977
0.00254026
0.000179392
0.00250214
0.000132877
0.00248375
6.03486e-05
0.00249185
-3.35543e-05
0.00253032
-0.000136548
0.00259576
-0.000224476
0.00267453
-0.000266307
0.00274561
-0.000240385
0.00278915
-0.000150292
0.00279497
-2.51496e-05
0.00276512
9.68402e-05
0.00271016
0.000187187
0.00264297
0.000235122
0.0025747
0.000242687
0.00251415
0.000215743
0.00246895
0.00015803
0.00244687
7.07396e-05
0.0024555
-4.28552e-05
0.00249978
-0.000169785
0.00257771
-0.00028248
0.00267633
-0.000343725
0.0027721
-0.000323476
0.00283848
-0.000218886
0.00285769
-6.10052e-05
0.00282824
0.000100502
0.00276299
0.000222889
0.00268052
0.000287208
0.00259705
0.000296926
0.0025233
0.000265359
0.00246585
0.000203588
0.00243065
0.000115316
0.00242539
2.64617e-07
0.00245774
-0.000135491
0.00252925
-0.00026974
0.00262977
-0.000366039
0.00273818
-0.000389464
0.00282945
-0.000324975
0.00288291
-0.000185535
0.00288779
-7.17528e-06
0.00284548
0.000164052
0.00276827
0.000288584
0.00267429
0.000347172
0.00258081
0.000343595
0.0025001
0.000294653
0.00244043
0.000214791
0.00240987
0.000107988
0.00241731
-2.56084e-05
0.00246789
-0.00017474
0.00255689
-0.000310467
0.00266819
-0.000396103
0.00277872
-0.000405019
0.00286576
-0.000332785
0.00291331
-0.000197683
0.00291541
-3.19281e-05
0.00287567
0.000129554
0.0028045
0.00025734
0.0027158
0.000332527
0.00262393
0.000349121
0.00254207
0.000312159
0.00248225
0.000230522
0.00245607
0.000110834
0.00247289
-3.87906e-05
0.00253498
-0.000198616
0.0026337
-0.000335671
0.00275074
-0.000415817
0.00286375
-0.000419208
0.00295259
-0.000347886
0.00300399
-0.000223361
0.00301377
-7.80132e-05
0.00298664
5.54117e-05
0.00293403
0.000152687
0.00287025
0.000202505
0.0028091
0.000204646
0.00276239
0.000164153
0.00274012
8.66793e-05
0.00275052
-2.10906e-05
0.00279812
-0.00014687
0.00288072
-0.00026986
0.00298816
-0.000364142
0.00310429
-0.000406978
0.00321101
-0.000386427
0.00329219
-0.00030429
0.00333626
-0.000174639
0.00333761
-1.9924e-05
0.00329728
0.000133738
0.00322268
0.000261436
0.00312606
0.000344822
0.00302173
0.000375975
0.00292289
0.000358254
0.00283924
0.000303834
0.00277616
0.000228722
0.00273534
0.000147103
0.00271628
6.78297e-05
0.00271747
-5.15107e-06
0.0027365
-6.95246e-05
0.00276964
-0.000121652
0.0028115
-0.000156069
0.00285538
-0.000167176
0.00289411
-0.000151499
0.00292115
-0.000109175
0.00293143
-4.43762e-05
0.00292199
3.48231e-05
0.00289254
0.000116807
0.0028459
0.000187875
0.00278781
0.000235341
0.00272589
0.000251476
0.00266785
0.000236173
0.00261976
0.000196601
0.00258497
0.000143991
0.00256406
8.95566e-05
0.00255546
4.15972e-05
0.00255636
4.58277e-06
0.00256356
-2.02592e-05
0.00257403
-3.37662e-05
0.00258521
-3.77517e-05
0.00259512
-3.42986e-05
0.00260235
-2.54635e-05
0.00260603
-1.32418e-05
0.00260585
4.1391e-07
0.00260198
1.36593e-05
0.00259505
2.49221e-05
0.00258596
3.30897e-05
0.00257573
3.76197e-05
0.00256539
3.85273e-05
0.00255577
3.62848e-05
0.00254751
3.16514e-05
0.002541
2.5517e-05
0.00253635
1.88214e-05
0.00253348
1.21512e-05
0.00253207
6.90694e-06
2.5063e-07
0.00250207
-1.09982e-05
0.0025086
-3.44228e-05
0.00252034
-6.08702e-05
0.00253818
-9.06426e-05
0.00256305
-0.000123254
0.00259554
-0.000156703
0.00263567
-0.000187751
0.00268195
-0.000210198
0.00273133
-0.000217695
0.002778
-0.000201825
0.00281486
-0.000158824
0.00283714
-9.59271e-05
0.00284183
-2.10358e-05
0.00282732
5.79191e-05
0.00279535
0.000127355
0.00275222
0.000170992
0.00270721
0.000178075
0.0026702
0.000146438
0.00264969
8.22154e-05
0.00265108
-1.12067e-06
0.00267495
-8.36913e-05
0.00271484
-0.000139792
0.00275691
-0.000145185
0.00278461
-9.18722e-05
0.00278645
3.37611e-06
0.00276052
0.000108667
0.00271289
0.00019517
0.00265299
0.000247262
0.00259024
0.000260727
0.00253298
0.000236651
0.002489
0.000176861
0.00246648
8.28679e-05
0.00247412
-4.11932e-05
0.00251816
-0.000180588
0.00259583
-0.00030215
0.00269049
-0.00036096
0.00277534
-0.000325241
0.00282557
-0.000200519
0.00282964
-2.92192e-05
0.00279181
0.000134669
0.00272627
0.000252726
0.00264876
0.000312628
0.00257167
0.000319782
0.00250367
0.000283745
0.00245166
0.000210038
0.00242261
9.97914e-05
0.00242444
-4.46899e-05
0.00246476
-0.0002101
0.00254529
-0.000363016
0.00265476
-0.000453193
0.00276742
-0.000436133
0.0028512
-0.000302666
0.00288172
-9.15288e-05
0.00285366
0.000128558
0.00278125
0.000295304
0.00268781
0.000380648
0.00259381
0.000390926
0.0025113
0.000347868
0.00244613
0.000268763
0.0024042
0.00015724
0.00239569
8.77386e-06
0.00243142
-0.000171219
0.00251304
-0.000351357
0.00262663
-0.000479632
0.0027462
-0.000509037
0.00284371
-0.000422476
0.00289837
-0.0002402
0.00290113
-9.937e-06
0.00285484
0.000210346
0.00277233
0.000371091
0.00267204
0.000447466
0.00257176
0.000443873
0.00248459
0.00038182
0.00242027
0.000279113
0.00238915
0.000139108
0.0024019
-3.83562e-05
0.0024629
-0.000235738
0.00256412
-0.00041169
0.00268581
-0.000517798
0.00280276
-0.000521965
0.00289151
-0.000421537
0.00293611
-0.000242287
0.00293135
-2.7162e-05
0.00288264
0.000178266
0.0028027
0.000337275
0.00270692
0.000428309
0.00260997
0.000446074
0.002525
0.000397123
0.00246493
0.000290599
0.00244284
0.000132916
0.00246857
-6.45171e-05
0.00254239
-0.000272431
0.00265208
-0.000445369
0.00277635
-0.000540086
0.00289163
-0.000534485
0.00297822
-0.000434479
0.00302391
-0.000269045
0.00302535
-7.94532e-05
0.00298799
9.27724e-05
0.00292424
0.000216432
0.0028499
0.000276848
0.00278043
0.000274118
0.00272925
0.000215332
0.00270786
0.000108063
0.00272527
-3.84925e-05
0.00278481
-0.000206412
0.00288094
-0.000365992
0.00299956
-0.000482765
0.00312218
-0.000529595
0.00323071
-0.000494961
0.00331057
-0.00038415
0.00335189
-0.000215953
0.00334998
-1.80152e-05
0.00330592
0.000177797
0.00322687
0.000340484
0.00312503
0.000446668
0.00301502
0.000485977
0.00291065
0.000462632
0.00282213
0.000392352
0.0027552
0.000295654
0.00271185
0.000190444
0.00269192
8.77665e-05
0.00269399
-7.21955e-06
0.00271537
-9.09064e-05
0.00275155
-0.000157835
0.00279613
-0.000200653
0.00284156
-0.000212598
0.00288032
-0.00019026
0.00290614
-0.000135003
0.00291471
-5.29438e-05
0.00290392
4.56171e-05
0.00287408
0.000146648
0.00282813
0.000233819
0.00277156
0.000291908
0.00271158
0.000311462
0.00265556
0.000292187
0.00260945
0.000242716
0.00257663
0.000176812
0.00255778
0.000108403
0.00255141
4.79736e-05
0.00255466
1.32796e-06
0.00256421
-2.98102e-05
0.00257686
-4.64139e-05
0.0025899
-5.07904e-05
0.00260124
-4.56391e-05
0.00260941
-3.36328e-05
0.00261353
-1.73608e-05
0.0026133
6.4219e-07
0.00260898
1.79775e-05
0.0026013
3.26019e-05
0.00259131
4.30824e-05
0.00258018
4.87477e-05
0.00256904
4.9663e-05
0.00255884
4.64932e-05
0.00255023
4.02561e-05
0.00254359
3.21548e-05
0.00253905
2.3368e-05
0.00253642
1.47813e-05
0.0025354
7.92352e-06
-2.90849e-07
0.00250194
-1.29415e-05
0.00250813
-4.06064e-05
0.0025194
-7.21448e-05
0.00253686
-0.0001081
0.00256171
-0.000148101
0.00259497
-0.000189967
0.00263715
-0.000229933
0.00268709
-0.000260131
0.00274177
-0.000272383
0.00279426
-0.000254311
0.00283581
-0.000200372
0.00286103
-0.000121152
0.00286642
-2.64178e-05
0.00284942
7.49127e-05
0.00281152
0.000165256
0.0027601
0.000222417
0.00270632
0.000231855
0.00266204
0.000190717
0.00263753
0.000106724
0.00263972
-3.3158e-06
0.00267017
-0.000114134
0.00272149
-0.000191114
0.00277621
-0.000199903
0.00281284
-0.000128507
0.00281682
-6.01309e-07
0.00278657
0.000138917
0.00273071
0.000251026
0.00266129
0.000316681
0.00258921
0.000332811
0.00252328
0.000302584
0.00247153
0.000228605
0.00244324
0.00011116
0.00244943
-4.73805e-05
0.00249907
-0.000230225
0.00259088
-0.000393961
0.0027063
-0.000476382
0.00281157
-0.000430511
0.00287311
-0.000262057
0.00287569
-3.17986e-05
0.00282678
0.000183579
0.00274661
0.000332895
0.00265545
0.000403787
0.00256725
0.00040798
0.00248997
0.000361026
0.0024285
0.000271503
0.00238834
0.000139952
0.00237942
-3.57703e-05
0.00241501
-0.000245689
0.00250091
-0.00044891
0.00262416
-0.000576441
0.00275428
-0.000566253
0.00285519
-0.000403581
0.0028988
-0.000135134
0.00287576
0.000151598
0.00279903
0.000372026
0.00269516
0.000484525
0.00258926
0.000496818
0.00249593
0.000441202
0.00242148
0.000343216
0.00237336
0.000205357
0.00236521
1.69264e-05
0.00240965
-0.000215659
0.0025055
-0.00044721
0.00263347
-0.000607604
0.00276337
-0.000638936
0.00286531
-0.000524419
0.00291863
-0.00029352
0.00291599
-7.29172e-06
0.00286264
0.000263695
0.00277299
0.000460738
0.00266577
0.000554691
0.00255865
0.000550993
0.00246531
0.000475158
0.00239744
0.000346985
0.00236793
0.000168621
0.0023882
-5.86339e-05
0.00246022
-0.000307754
0.00257194
-0.00052341
0.00270083
-0.000646685
0.00282112
-0.000642256
0.00291003
-0.000510447
0.00295201
-0.000284271
0.00294178
-1.69323e-05
0.00288527
0.000234775
0.00279681
0.000425737
0.00269354
0.000531578
0.00259114
0.000548475
0.00250338
0.000484883
0.00244423
0.000349753
0.00242781
0.000149331
0.00246323
-9.99343e-05
0.00254773
-0.000356936
0.00266547
-0.000563108
0.00279295
-0.000667563
0.00290652
-0.000648056
0.00298778
-0.00051574
0.00302606
-0.000307321
0.00301903
-7.24295e-05
0.0029726
0.000139205
0.00289956
0.000289477
0.00281649
0.000359913
0.00274029
0.000350317
0.00268635
0.000269274
0.00266807
0.000126341
0.00269467
-6.50942e-05
0.00276663
-0.000278373
0.00287352
-0.00047288
0.0029975
-0.000606739
0.0031195
-0.000651599
0.00322353
-0.00059899
0.00329783
-0.000458455
0.00333466
-0.00025278
0.00333013
-1.34802e-05
0.00328494
0.000222983
0.0032053
0.000420127
0.00310251
0.000549452
0.00299087
0.000597613
0.00288431
0.000569193
0.00279347
0.000483198
0.00272456
0.000364562
0.00268018
0.000234829
0.00266069
0.000107256
0.0026649
-1.14344e-05
0.00268967
-0.000115677
0.00272944
-0.000197603
0.00277667
-0.000247879
0.00282309
-0.000259021
0.00286115
-0.000228321
0.00288506
-0.000158908
0.0028913
-5.91852e-05
0.0028787
5.82135e-05
0.00284832
0.00017703
0.00280336
0.000278778
0.00274905
0.000346221
0.00269203
0.000368485
0.00263915
0.000345067
0.00259603
0.000285829
0.00256603
0.000206812
0.00254992
0.000124514
0.00254627
5.16229e-05
0.00255223
-4.62495e-06
0.00256434
-4.19235e-05
0.0025793
-6.13689e-05
0.00259431
-6.58004e-05
0.00260723
-5.85666e-05
0.00261656
-4.29597e-05
0.00262136
-2.21587e-05
0.0026213
6.99196e-07
0.00261667
2.26072e-05
0.00260829
4.09796e-05
0.00259737
5.40058e-05
0.00258525
6.0864e-05
0.00257323
6.16866e-05
0.00256235
5.73769e-05
0.00255334
4.92601e-05
0.00254658
3.89154e-05
0.00254218
2.77718e-05
0.00253984
1.71153e-05
0.00253932
8.44489e-06
-1.21728e-06
0.00250177
-1.4716e-05
0.00250749
-4.63169e-05
0.0025181
-8.27609e-05
0.00253494
-0.000124938
0.00255956
-0.000172725
0.00259354
-0.000223946
0.00263806
-0.000274447
0.00269246
-0.000314537
0.002754
-0.000333921
0.00281407
-0.000314377
0.00286159
-0.000247893
0.00289055
-0.000150113
0.00289697
-3.28401e-05
0.00287705
9.4832e-05
0.00283168
0.00021063
0.00276958
0.000284518
0.00270439
0.000297046
0.0026505
0.000244605
0.00262049
0.000136735
0.00262341
-6.23649e-06
0.00266235
-0.000153079
0.00272901
-0.000257769
0.00280092
-0.000271812
0.00284959
-0.000177185
0.00285614
-7.1506e-06
0.00281975
0.000175312
0.00275289
0.000317888
0.00267123
0.000398337
0.00258749
0.000416552
0.0025108
0.000379274
0.00244929
0.000290115
0.00241288
0.000147568
0.00241331
-4.78154e-05
0.002461
-0.000277912
0.00255942
-0.000492379
0.00269525
-0.00061221
0.00283092
-0.000566188
0.00291808
-0.000349213
0.00292851
-4.2226e-05
0.00286979
0.000242295
0.0027716
0.000431085
0.00266298
0.000512405
0.00256116
0.000509802
0.00247255
0.000449636
0.00239871
0.000345343
0.00234476
0.000193899
0.00232654
-1.755e-05
0.00236463
-0.000283775
0.00246466
-0.000548941
0.00260607
-0.000717853
0.00275123
-0.000711412
0.00286226
-0.000514612
0.00291243
-0.000185306
0.00289217
0.000171867
0.00281245
0.000451743
0.00269991
0.000597069
0.00258243
0.000614295
0.00247741
0.000546217
0.00239347
0.00042716
0.00234131
0.000257515
0.00233753
2.07103e-05
0.00239358
-0.000271709
0.00250303
-0.000556663
0.00264179
-0.000746363
0.00277811
-0.000775258
0.0028825
-0.000628809
0.00293448
-0.000345498
0.00292685
3.34898e-07
0.00286622
0.000324327
0.00276891
0.000558049
0.00265462
0.000668985
0.00254109
0.000664524
0.00244261
0.000573631
0.00237292
0.000416683
0.00234685
0.000194686
0.00237522
-8.7005e-05
0.00245653
-0.000389066
0.00257514
-0.000642016
0.00270704
-0.000778581
0.00282719
-0.000762411
0.00291437
-0.000597626
0.00295392
-0.000323821
0.00294024
-3.2523e-06
0.00287867
0.000296346
0.0027839
0.000520507
0.00267438
0.000641093
0.00256722
0.000655642
0.00247747
0.000574632
0.00242038
0.000406835
0.00241047
0.000159247
0.00245499
-0.000144457
0.00254763
-0.000449579
0.00266942
-0.000684893
0.00279578
-0.000793923
0.00290393
-0.000756206
0.00297725
-0.000589057
0.00300677
-0.000336848
0.00299128
-5.69386e-05
0.00293704
0.000193447
0.00285687
0.000369649
0.00276763
0.000449148
0.00268736
0.000430589
0.00263352
0.000323119
0.00262115
0.000138706
0.00265822
-0.000102163
0.00274037
-0.000360526
0.00285194
-0.000584446
0.0029732
-0.000728
0.00308713
-0.000765526
0.00318141
-0.000693268
0.00324741
-0.00052446
0.00327911
-0.000284475
0.00327302
-7.39269e-06
0.00322927
0.00026673
0.00315283
0.000496569
0.00305367
0.000648614
0.0029451
0.000706185
0.00284063
0.000673661
0.002751
0.00057283
0.00268294
0.000432626
0.00263984
0.000277926
0.00262283
0.000124269
0.0026308
-1.94118e-05
0.00265979
-0.000144664
0.00270292
-0.000240733
0.00275172
-0.000296676
0.00279782
-0.000305123
0.00283421
-0.000264712
0.00285583
-0.000180525
0.00285984
-6.3197e-05
0.00284573
7.23244e-05
0.00281516
0.000207599
0.00277168
0.00032226
0.00272035
0.000397542
0.00266728
0.000421563
0.00261863
0.000393712
0.00257957
0.000324891
0.00255326
0.00023312
0.00254049
0.000137286
0.00253985
5.22606e-05
0.00254845
-1.32263e-05
0.00256281
-5.62802e-05
0.00257964
-7.82025e-05
0.00259629
-8.24493e-05
0.00261073
-7.30086e-05
0.00262146
-5.36838e-05
0.00262742
-2.81184e-05
0.00262812
-1.38178e-09
0.00262373
2.6999e-05
0.00261507
4.9635e-05
0.00260348
6.55968e-05
0.0025905
7.38412e-05
0.00257763
7.456e-05
0.00256607
6.89373e-05
0.00255666
5.86685e-05
0.00254979
4.57866e-05
0.00254556
3.19977e-05
0.00254357
1.91066e-05
0.00254362
8.40137e-06
-2.552e-06
0.00250155
-1.62706e-05
0.00250664
-5.14024e-05
0.00251635
-9.24686e-05
0.00253224
-0.000140831
0.0025563
-0.00019678
0.00259078
-0.000258432
0.00263779
-0.000321452
0.00269753
-0.000374277
0.00276781
-0.000404205
0.00283767
-0.000384236
0.00289282
-0.000303048
0.00292685
-0.000184138
0.0029351
-4.10896e-05
0.00291168
0.000118254
0.00285658
0.000265721
0.00278054
0.000360565
0.00270054
0.000377043
0.00263414
0.000311006
0.00259667
0.000174202
0.00259998
-9.54361e-06
0.00264967
-0.00020277
0.00273665
-0.000344745
0.0028317
-0.00036687
0.00289649
-0.000241971
0.0029061
-1.67628e-05
0.00286111
0.000220301
0.00277972
0.000399277
0.00268265
0.000495408
0.00258476
0.000514441
0.00249533
0.000468712
0.00242205
0.000363396
0.00237315
0.000196467
0.00235738
-3.20469e-05
0.00238752
-0.000308052
0.00247883
-0.000583687
0.00262976
-0.000763139
0.0028026
-0.000739033
0.00293336
-0.000479969
0.00297168
-8.05544e-05
0.00291491
0.000299065
0.00280059
0.000545412
0.00267175
0.000641244
0.00255335
0.000628197
0.00245098
0.000552006
0.0023629
0.00043343
0.00229664
0.000260152
0.00227639
2.69934e-06
0.00232645
-0.000333835
0.00244581
-0.000668298
0.00260444
-0.00087648
0.00276006
-0.000867039
0.002875
-0.000629544
0.00292505
-0.000235358
0.00290285
0.000194064
0.00281918
0.000535413
0.00269945
0.000716804
0.00257186
0.000741876
0.00245595
0.000662128
0.00236388
0.000519238
0.00231041
0.000310977
0.00231339
1.77325e-05
0.00238044
-0.000338754
0.00249937
-0.000675593
0.00264317
-0.000890162
0.00278092
-0.000913014
0.00288527
-0.000733158
0.00293651
-0.000396736
0.00292653
1.03161e-05
0.00286133
0.000389524
0.00275813
0.000661249
0.00263787
0.000789248
0.00251902
0.000783373
0.00241695
0.000675701
0.00234725
0.000486382
0.00232573
0.00021621
0.00236135
-0.000122633
0.00244903
-0.000476743
0.00257052
-0.000763506
0.0027016
-0.000909657
0.00281869
-0.000879503
0.00290243
-0.000681362
0.00293933
-0.000360726
0.00292368
1.2396e-05
0.0028598
0.000360228
0.00276171
0.000618603
0.0026483
0.000754501
0.00253799
0.00076595
0.00244754
0.00066508
0.00239354
0.000460831
0.0023902
0.000162596
0.00244213
-0.000196396
0.00253948
-0.000546926
0.00266107
-0.000806481
0.00278237
-0.000915225
0.00288214
-0.000855974
0.00294568
-0.000652601
0.00296568
-0.000356841
0.00294191
-3.31698e-05
0.00288101
0.00025434
0.00279572
0.000454939
0.00270294
0.000541928
0.00262172
0.000511817
0.00257138
0.000373453
0.00256747
0.000142614
0.00261446
-0.000149147
0.00270191
-0.000447975
0.00281035
-0.000692893
0.00292122
-0.000838863
0.00302169
-0.000866004
0.00310356
-0.000775139
0.00316054
-0.000581437
0.0031874
-0.000311335
0.0031807
-6.88202e-07
0.00314008
0.000307343
0.00306954
0.000567109
0.00297768
0.000740473
0.00287644
0.000807427
0.00277834
0.000771757
0.00269379
0.000657387
0.00262991
0.0004965
0.00259103
0.000316814
0.0025789
0.000136397
0.00259206
-3.25777e-05
0.00262522
-0.000177819
0.00267026
-0.000285776
0.00271852
-0.000344938
0.00276249
-0.000349089
0.00279632
-0.000298547
0.00281582
-0.000200021
0.00281852
-6.59014e-05
0.0028041
8.67528e-05
0.00277445
0.000237244
0.00273338
0.000363329
0.00268593
0.000444997
0.00263773
0.000469763
0.00259431
0.00043713
0.00256025
0.000358949
0.00253839
0.000254983
0.00252933
0.000146347
0.00253153
5.0055e-05
0.00254203
-2.37189e-05
0.00255743
-7.16847e-05
0.00257485
-9.56273e-05
0.00259218