/*--------------------------------*- C++ -*----------------------------------*\
  =========                 |
  \\      /  F ield         | OpenFOAM: The Open Source CFD Toolbox
   \\    /   O peration     | Website:  https://openfoam.org
    \\  /    A nd           | Version:  11
     \\/     M anipulation  |
\*---------------------------------------------------------------------------*/
FoamFile
{
    format      ascii;
    class       volVectorField;
    location    "12.610287";
    object      vorticity;
}
// * * * * * * * * * * * * * * * * * * * * * * * * * * * * * * * * * * * * * //

dimensions      [0 0 -1 0 0 0 0];

internalField   nonuniform List<vector> 
7132
(
(-5.99821e-17 -1.864e-15 -0.00936291)
(-1.90068e-16 -1.8017e-15 -0.00985037)
(-1.77264e-16 -1.95152e-17 -0.0103538)
(-2.15201e-16 -1.79235e-15 -0.0107538)
(-2.77917e-16 -1.76784e-15 -0.0109834)
(-2.58338e-16 1.9084e-17 -0.0110213)
(-2.21286e-16 2.84755e-17 -0.0108925)
(-1.83263e-16 1.96755e-17 -0.0106538)
(-1.59237e-16 9.10382e-18 -0.0103817)
(-1.45857e-16 1.8339e-18 -0.0101491)
(-1.3907e-16 -3.3287e-18 -0.0100118)
(-8.1905e-17 -5.48589e-18 -0.0100138)
(-8.34291e-17 -6.71566e-18 -0.0101649)
(-8.70286e-17 3.74961e-17 -0.0104245)
(7.19107e-18 -1.65127e-15 -0.0107258)
(9.71904e-17 -1.66291e-15 -0.0109815)
(1.55165e-16 -3.43368e-15 -0.0111)
(1.27537e-16 3.25384e-17 -0.01101)
(1.20808e-16 -1.69223e-15 -0.0106826)
(1.04361e-16 -1.72196e-15 -0.0101712)
(2.44051e-16 -1.67227e-17 -0.00962425)
(6.29701e-16 -2.45315e-17 -0.00918979)
(8.69886e-16 -1.78852e-17 -0.00899938)
(7.27884e-16 1.28891e-18 -0.00917298)
(5.36519e-16 1.7556e-15 -0.00976764)
(3.39548e-16 1.97039e-17 -0.0106669)
(2.7629e-16 -2.97386e-17 -0.0116296)
(7.21724e-16 -4.87323e-17 -0.0124157)
(-7.7222e-16 4.27589e-16 -0.0128409)
(-7.84116e-15 1.90588e-15 -0.012785)
(7.92906e-15 -3.97207e-15 -0.0121995)
(1.19919e-13 -4.21399e-15 -0.0111462)
(6.88693e-14 6.82252e-14 -0.00987977)
(-1.65416e-12 2.66814e-13 -0.00878172)
(-6.57465e-12 3.95519e-13 -0.00808682)
(-1.2122e-11 1.95737e-13 -0.00781657)
(-1.29081e-11 -1.77704e-13 -0.00794966)
(-8.41003e-12 -3.52939e-13 -0.00859291)
(-3.32988e-12 -2.69861e-13 -0.00988442)
(-6.16856e-13 -1.03258e-13 -0.0116427)
(1.5155e-13 4.1565e-14 -0.0133798)
(1.39675e-13 2.5207e-14 -0.0146291)
(4.16421e-13 -4.68243e-13 -0.0151022)
(9.53404e-13 -1.22946e-12 -0.0147121)
(-1.04616e-12 3.84284e-13 -0.0135777)
(-7.55123e-12 1.14063e-11 -0.0120625)
(-4.67089e-12 3.97511e-11 -0.0108628)
(5.92162e-11 7.92315e-11 -0.010759)
(2.30892e-10 9.88794e-11 -0.0118621)
(4.28153e-10 6.66138e-11 -0.0133884)
(4.86725e-10 -7.69316e-12 -0.0142653)
(3.77865e-10 -7.24597e-11 -0.0141493)
(2.10216e-10 -8.97676e-11 -0.0138771)
(6.97211e-11 -7.05956e-11 -0.0143574)
(1.16939e-12 -4.20515e-11 -0.0154007)
(-1.10236e-11 -1.55085e-11 -0.0164016)
(-1.23068e-11 5.91551e-12 -0.0168776)
(-3.07139e-11 9.95656e-12 -0.0166046)
(-1.97905e-11 -4.1169e-11 -0.0154126)
(2.11554e-10 -2.01728e-10 -0.0127089)
(1.00469e-09 -4.96301e-10 -0.00725587)
(2.67814e-09 -8.62416e-10 0.00222493)
(5.19691e-09 -1.13094e-09 0.015743)
(7.99281e-09 -1.09972e-09 0.0308354)
(1.01458e-08 -6.82745e-10 0.0429143)
(1.07972e-08 -3.33574e-12 0.0472862)
(9.62471e-09 6.74204e-10 0.041686)
(7.11717e-09 1.10635e-09 0.0277268)
(4.25434e-09 1.17941e-09 0.0101478)
(1.89237e-09 9.39988e-10 -0.00561259)
(4.34711e-10 5.55249e-10 -0.0159337)
(-1.84806e-10 1.87635e-10 -0.0200569)
(-2.45746e-10 -1.24576e-10 -0.0191472)
(4.55459e-11 -4.56602e-10 -0.0146982)
(6.58926e-10 -8.7324e-10 -0.00787215)
(1.62657e-09 -1.33211e-09 5.91233e-05)
(2.85781e-09 -1.69993e-09 0.00741857)
(4.09672e-09 -1.84146e-09 0.0133421)
(5.0833e-09 -1.6908e-09 0.0192006)
(5.70995e-09 -1.25795e-09 0.0276896)
(5.98466e-09 -5.97983e-10 0.0397649)
(5.88025e-09 2.08787e-10 0.0523027)
(5.30484e-09 1.05702e-09 0.0591021)
(4.25297e-09 1.80453e-09 0.0550851)
(2.9163e-09 2.24469e-09 0.0400173)
(1.60484e-09 2.17073e-09 0.0187406)
(6.00828e-10 1.54383e-09 -0.00129864)
(5.82138e-11 5.65597e-10 -0.0143603)
(-6.72782e-12 -4.38911e-10 -0.019894)
(3.24552e-10 -1.20988e-09 -0.0225348)
(9.06586e-10 -1.64468e-09 -0.0285987)
(1.54934e-09 -1.76593e-09 -0.0416097)
(2.06198e-09 -1.65424e-09 -0.0594088)
(2.32484e-09 -1.40494e-09 -0.0753626)
(2.32964e-09 -1.10413e-09 -0.0828057)
(2.15735e-09 -8.1098e-10 -0.0786751)
(1.91931e-09 -5.44939e-10 -0.0640493)
(1.69976e-09 -2.78719e-10 -0.0426631)
(1.526e-09 6.24723e-11 -0.0191693)
(1.38221e-09 5.64167e-10 0.00241544)
(1.23374e-09 1.22629e-09 0.0189172)
(1.04594e-09 1.88497e-09 0.0279471)
(8.10438e-10 2.26566e-09 0.0286148)
(5.57251e-10 2.16606e-09 0.021761)
(3.43038e-10 1.61108e-09 0.0090302)
(2.24193e-10 8.27661e-10 -0.00848465)
(2.30833e-10 8.01473e-11 -0.0301776)
(3.54252e-10 -4.69627e-10 -0.0543919)
(5.52686e-10 -7.88345e-10 -0.0776251)
(7.6973e-10 -9.20043e-10 -0.0956475)
(9.541e-10 -9.29144e-10 -0.105542)
(1.07077e-09 -8.71278e-10 -0.106929)
(1.10133e-09 -7.8627e-10 -0.101906)
(1.04335e-09 -6.98852e-10 -0.0936362)
(9.14227e-10 -6.27639e-10 -0.0842311)
(7.44889e-10 -5.87618e-10 -0.0747026)
(5.71114e-10 -5.63475e-10 -0.0650687)
(4.24377e-10 -4.78451e-10 -0.0545191)
(3.22119e-10 -2.19306e-10 -0.0420267)
(2.61508e-10 2.67211e-10 -0.0273895)
(2.23996e-10 8.90971e-10 -0.0119612)
(1.91606e-10 1.44437e-09 0.00175969)
(1.64078e-10 1.72465e-09 0.0115495)
(1.6407e-10 1.64788e-09 0.016816)
(2.25678e-10 1.27427e-09 0.0190049)
(3.71924e-10 7.51174e-10 0.0208299)
(5.95293e-10 2.33751e-10 0.0248371)
(8.52132e-10 -1.66998e-10 0.0321055)
(1.07459e-09 -3.97316e-10 0.0416294)
(1.19611e-09 -4.49388e-10 0.0505866)
(1.17892e-09 -3.4542e-10 0.055435)
(1.02715e-09 -1.31099e-10 0.0534584)
(7.83999e-10 1.2294e-10 0.0439927)
(5.13445e-10 3.29842e-10 0.0288945)
(2.74091e-10 4.18852e-10 0.0119472)
(1.00673e-10 3.74377e-10 -0.00268088)
(2.56446e-13 2.44022e-10 -0.012167)
(-4.02474e-11 1.02744e-10 -0.0159712)
(-4.26948e-11 5.01948e-12 -0.0155223)
(-2.80367e-11 -3.60722e-11 -0.0130623)
(-1.08714e-11 -3.72582e-11 -0.0105015)
(1.67373e-12 -2.23924e-11 -0.00886237)
(8.17146e-12 -7.79132e-12 -0.00832381)
(1.01493e-11 5.04941e-13 -0.00857654)
(9.80073e-12 3.03391e-12 -0.00919545)
(8.7456e-12 2.51867e-12 -0.00985697)
(7.73304e-12 1.2657e-12 -0.0103961)
(6.87817e-12 4.25813e-13 -0.0107689)
(6.04363e-12 2.13875e-13 -0.0109883)
(5.11566e-12 3.95909e-13 -0.0110799)
(4.09437e-12 6.73357e-13 -0.0110657)
(3.07004e-12 8.42642e-13 -0.010963)
(2.15779e-12 8.4228e-13 -0.0107902)
(1.44354e-12 7.02058e-13 -0.0105702)
(9.61886e-13 4.86296e-13 -0.0103306)
(7.02176e-13 2.63338e-13 -0.010099)
(6.24759e-13 6.23194e-14 -0.00990567)
(6.91581e-13 -7.23117e-14 -0.00970694)
(8.16226e-13 -2.56885e-13 -0.00993473)
(1.16375e-12 -2.01614e-13 -0.00963784)
(-6.05946e-17 -5.31286e-18 -0.0280108)
(-1.97843e-16 -8.12368e-18 -0.0294851)
(-1.94386e-16 -7.79569e-18 -0.0310238)
(-2.37051e-16 -8.99224e-18 -0.0322691)
(-3.11176e-16 -9.85539e-18 -0.0330104)
(-3.01726e-16 -7.53736e-18 -0.0331664)
(-2.83533e-16 -9.06174e-18 -0.0327895)
(-2.58913e-16 -1.13488e-17 -0.0320297)
(-1.81976e-16 1.72512e-15 -0.0311024)
(-2.1497e-16 -8.24962e-18 -0.0302204)
(-3.45106e-16 -3.53049e-17 -0.0295522)
(-4.1287e-16 1.70142e-15 -0.029247)
(-3.70193e-16 -4.15387e-18 -0.0293596)
(-2.58518e-16 -6.11994e-18 -0.0298449)
(-2.96775e-17 -6.96132e-18 -0.0306153)
(1.71573e-16 -4.75831e-19 -0.0315351)
(2.31354e-16 1.88971e-17 -0.0324449)
(5.0908e-17 4.8023e-17 -0.0331911)
(-1.78859e-16 5.41849e-17 -0.0336511)
(-1.89926e-16 -5.05522e-17 -0.0337842)
(-1.34112e-15 -2.79499e-16 -0.0336509)
(-7.25156e-15 -3.37449e-16 -0.0332734)
(-1.00331e-14 -6.69767e-17 -0.0326409)
(-4.68225e-15 1.67972e-16 -0.0318405)
(6.23047e-17 2.15043e-16 -0.0310929)
(1.13427e-15 1.49819e-16 -0.0305804)
(1.91819e-15 -2.20827e-16 -0.0303666)
(3.11703e-15 4.75523e-16 -0.0304092)
(-1.15717e-14 4.70564e-15 -0.0305943)
(-2.65551e-14 -4.18287e-15 -0.0307886)
(1.10181e-13 -6.78505e-14 -0.0309375)
(2.7678e-13 -3.81502e-14 -0.0311681)
(-6.88936e-13 9.53537e-13 -0.0318027)
(-2.3197e-12 3.58684e-12 -0.0330988)
(-7.82789e-13 5.62596e-12 -0.034798)
(-8.71914e-13 3.36246e-12 -0.0360802)
(-9.10982e-12 -2.03543e-12 -0.0362111)
(-1.4939e-11 -5.14378e-12 -0.0353022)
(-1.11069e-11 -4.16818e-12 -0.0341101)
(-4.66173e-12 -1.84745e-12 -0.0332326)
(-6.75833e-13 -3.36706e-13 -0.0328332)
(1.3299e-12 -1.10694e-13 -0.0327166)
(3.74769e-12 -8.76839e-13 -0.0325433)
(-2.87492e-12 -4.99905e-13 -0.0321498)
(-4.06984e-11 4.63313e-12 -0.0318884)
(-4.67239e-11 1.32186e-11 -0.0325528)
(3.59389e-10 6.36566e-12 -0.034499)
(1.92478e-09 -3.85515e-11 -0.0364467)
(4.93151e-09 -8.55906e-11 -0.0364563)
(8.07742e-09 -6.13065e-11 -0.0352659)
(9.18129e-09 1.74473e-11 -0.0356238)
(7.49569e-09 6.57966e-11 -0.0377991)
(4.42889e-09 6.43025e-11 -0.0395545)
(1.78877e-09 3.39278e-11 -0.0396684)
(3.36789e-10 -1.68088e-12 -0.0382843)
(-1.36692e-10 -8.77208e-12 -0.0364431)
(-1.82563e-10 1.57624e-11 -0.0350962)
(-1.70414e-10 1.36966e-11 -0.0344668)
(-3.69088e-13 -1.62303e-10 -0.0335104)
(9.94218e-10 -7.13968e-10 -0.029013)
(3.74918e-09 -1.7296e-09 -0.0157568)
(8.66232e-09 -2.95853e-09 0.0103743)
(1.49551e-08 -3.78828e-09 0.0483106)
(2.11403e-08 -3.57415e-09 0.0916295)
(2.58815e-08 -2.08492e-09 0.130645)
(2.80311e-08 2.57203e-10 0.153108)
(2.65059e-08 2.5142e-09 0.147806)
(2.12035e-08 3.79154e-09 0.113273)
(1.37851e-08 3.79181e-09 0.0615427)
(6.75189e-09 2.8498e-09 0.0109214)
(1.90398e-09 1.59384e-09 -0.0244648)
(-3.96393e-10 5.27865e-10 -0.0404254)
(-7.56939e-10 -2.39754e-10 -0.0405896)
(1.43156e-10 -9.08937e-10 -0.0313306)
(1.96208e-09 -1.66376e-09 -0.0193651)
(4.43478e-09 -2.43155e-09 -0.0115819)
(7.01148e-09 -2.935e-09 -0.0126439)
(9.00323e-09 -2.9542e-09 -0.0192733)
(1.00825e-08 -2.49741e-09 -0.0191076)
(1.0493e-08 -1.70864e-09 0.000810692)
(1.07271e-08 -6.83129e-10 0.0433356)
(1.09594e-08 5.487e-10 0.096988)
(1.07711e-08 1.87066e-09 0.14018)
(9.55504e-09 2.9988e-09 0.152655)
(7.22974e-09 3.56876e-09 0.127909)
(4.37135e-09 3.32846e-09 0.0767815)
(1.84904e-09 2.31714e-09 0.0211503)
(3.45278e-10 8.69373e-10 -0.0203034)
(9.97316e-11 -5.72078e-10 -0.0448309)
(9.1184e-10 -1.66654e-09 -0.0663265)
(2.28008e-09 -2.25707e-09 -0.102424)
(3.60855e-09 -2.34362e-09 -0.157898)
(4.44996e-09 -2.04199e-09 -0.218041)
(4.65848e-09 -1.53877e-09 -0.259032)
(4.35749e-09 -1.02038e-09 -0.264935)
(3.79847e-09 -6.05815e-10 -0.235463)
(3.23772e-09 -3.16142e-10 -0.181106)
(2.85549e-09 -8.20628e-11 -0.114445)
(2.69599e-09 2.21246e-10 -0.045785)
(2.67397e-09 7.103e-10 0.0168368)
(2.63035e-09 1.39443e-09 0.0657027)
(2.4145e-09 2.09662e-09 0.0936861)
(1.98192e-09 2.51e-09 0.096787)
(1.43043e-09 2.39976e-09 0.075353)
(9.44288e-10 1.77761e-09 0.0322882)
(6.90391e-10 8.83766e-10 -0.0289681)
(7.3718e-10 1.51193e-11 -0.102761)
(1.03872e-09 -6.30553e-10 -0.177969)
(1.47618e-09 -9.96082e-10 -0.239639)
(1.91858e-09 -1.12075e-09 -0.276009)
(2.26819e-09 -1.07966e-09 -0.284456)
(2.47532e-09 -9.44889e-10 -0.271234)
(2.52367e-09 -7.72558e-10 -0.246579)
(2.41216e-09 -6.05297e-10 -0.21938)
(2.16209e-09 -4.78409e-10 -0.194195)
(1.81816e-09 -4.16059e-10 -0.171869)
(1.44548e-09 -4.03217e-10 -0.150545)
(1.11404e-09 -3.53954e-10 -0.126644)
(8.68877e-10 -1.37869e-10 -0.0966138)
(7.06185e-10 3.16274e-10 -0.0597201)
(5.84726e-10 9.25923e-10 -0.0199886)
(4.73567e-10 1.47434e-09 0.0151345)
(3.96828e-10 1.73841e-09 0.0391708)
(4.34452e-10 1.61708e-09 0.0508133)
(6.74706e-10 1.17035e-09 0.0549278)
(1.15222e-09 5.66368e-10 0.0598958)
(1.81448e-09 -6.35103e-12 0.0731886)
(2.53072e-09 -4.06647e-10 0.0975952)
(3.12951e-09 -5.69302e-10 0.129605)
(3.44939e-09 -5.01552e-10 0.160404)
(3.393e-09 -2.60939e-10 0.179116)
(2.96438e-09 6.63653e-11 0.177067)
(2.27383e-09 3.79792e-10 0.151582)
(1.49644e-09 5.84797e-10 0.107691)
(8.01165e-10 6.2524e-10 0.0564772)
(2.93375e-10 5.11296e-10 0.0105131)
(-1.99347e-12 3.14483e-10 -0.0213297)
(-1.21232e-10 1.24219e-10 -0.0367868)
(-1.2806e-10 -1.08414e-12 -0.0394506)
(-8.40271e-11 -5.19822e-11 -0.0355071)
(-3.20109e-11 -5.21117e-11 -0.030407)
(6.95076e-12 -3.19121e-11 -0.0271718)
(2.83352e-11 -1.20291e-11 -0.0264491)
(3.61587e-11 -3.07959e-13 -0.0274916)
(3.64665e-11 3.73748e-12 -0.0291917)
(3.3837e-11 3.55425e-12 -0.030706)
(3.0523e-11 2.20115e-12 -0.0316395)
(2.70712e-11 1.27052e-12 -0.0319569)
(2.33492e-11 1.09686e-12 -0.0318015)
(1.92773e-11 1.37227e-12 -0.031351)
(1.50443e-11 1.6979e-12 -0.0307523)
(1.10248e-11 1.81267e-12 -0.0301069)
(7.5963e-12 1.65553e-12 -0.0294839)
(5.00024e-12 1.30175e-12 -0.0289343)
(3.29954e-12 8.58713e-13 -0.0284989)
(2.41453e-12 4.33635e-13 -0.0282041)
(2.1817e-12 6.93516e-14 -0.0280804)
(2.45627e-12 -1.68045e-13 -0.0279439)
(2.9281e-12 -4.91235e-13 -0.0290278)
(4.1921e-12 -3.73642e-13 -0.0285779)
(-1.94713e-18 -6.01563e-20 -0.0464434)
(-2.13951e-17 -8.06793e-20 -0.0489292)
(-3.71368e-17 8.88284e-20 -0.0515363)
(-6.11243e-17 7.70451e-19 -0.0536646)
(-7.2185e-17 -7.8078e-19 -0.0549526)
(-1.11272e-16 5.26236e-18 -0.0552479)
(-1.95485e-16 7.06921e-18 -0.0546177)
(6.46177e-17 -2.43266e-17 -0.0532929)
(-3.98781e-17 -1.28679e-17 -0.0516221)
(-9.20998e-16 7.66228e-17 -0.0499524)
(-1.1381e-15 9.90098e-17 -0.0485645)
(-3.91122e-17 7.0575e-18 -0.0477305)
(9.64913e-16 -8.72797e-17 -0.047585)
(1.57553e-15 -1.32762e-16 -0.0481255)
(1.787e-15 -1.31591e-16 -0.0493108)
(1.3612e-15 -5.86985e-17 -0.0510343)
(-3.17765e-17 9.60968e-17 -0.0531346)
(-2.27717e-15 2.37645e-16 -0.0554026)
(-3.40734e-15 1.62908e-16 -0.0575887)
(-4.27322e-15 5.93894e-16 -0.0594321)
(-4.54494e-14 3.5141e-15 -0.0606453)
(-1.65617e-13 4.32146e-15 -0.0608371)
(-2.26358e-13 -1.30254e-15 -0.0596397)
(-1.36571e-13 -5.04641e-15 -0.0569809)
(-4.00913e-14 -2.88739e-15 -0.0532887)
(-3.19175e-15 -9.0824e-16 -0.0492795)
(9.7721e-15 -1.02112e-15 -0.0457093)
(-9.66774e-15 6.69619e-15 -0.0432168)
(-5.61146e-14 1.52637e-14 -0.042221)
(2.37542e-13 -6.07118e-14 -0.0429092)
(3.14505e-13 -1.57371e-13 -0.0453369)
(-4.46886e-12 3.93615e-13 -0.0494902)
(-5.58247e-12 1.36646e-12 -0.0552844)
(7.13297e-11 3.11994e-13 -0.0627016)
(3.06339e-10 -3.30094e-13 -0.0710396)
(5.66932e-10 4.35753e-12 -0.0772335)
(5.8411e-10 6.85409e-12 -0.0774768)
(3.51183e-10 6.45601e-13 -0.0716134)
(1.13577e-10 -5.41023e-12 -0.0628678)
(3.61026e-12 -5.32054e-12 -0.0541135)
(-1.5678e-11 -2.95598e-12 -0.0468423)
(-1.01695e-12 -2.18999e-12 -0.0417573)
(1.05474e-11 1.63417e-12 -0.0391528)
(-5.31507e-11 2.09918e-11 -0.0394319)
(-2.22046e-10 2.2307e-11 -0.0434118)
(7.42382e-11 -1.88639e-10 -0.0503849)
(2.71445e-09 -9.46001e-10 -0.05365)
(1.00412e-08 -2.20683e-09 -0.0408171)
(2.17651e-08 -2.97745e-09 -0.00722792)
(3.32885e-08 -2.05828e-09 0.030652)
(3.82601e-08 2.83176e-10 0.0455749)
(3.34728e-08 2.30375e-09 0.026923)
(2.1983e-08 2.76369e-09 -0.00881454)
(1.03533e-08 1.97545e-09 -0.0376433)
(2.81889e-09 9.20681e-10 -0.0490663)
(-3.07469e-10 2.44168e-10 -0.0472845)
(-8.89861e-10 2.278e-11 -0.0419911)
(-6.21942e-10 -8.11406e-11 -0.0395019)
(2.40039e-10 -6.23485e-10 -0.038807)
(2.67647e-09 -2.0765e-09 -0.0325335)
(7.41985e-09 -4.33035e-09 -0.0129727)
(1.34143e-08 -6.46539e-09 0.02032)
(1.83913e-08 -7.36992e-09 0.062127)
(2.13735e-08 -6.5629e-09 0.112556)
(2.36539e-08 -4.12814e-09 0.175069)
(2.66791e-08 -3.15533e-10 0.238725)
(2.93037e-08 4.088e-09 0.272733)
(2.82519e-08 7.46677e-09 0.24972)
(2.20338e-08 8.40521e-09 0.173935)
(1.29797e-08 6.88053e-09 0.0793221)
(4.89715e-09 4.12939e-09 0.00270619)
(1.51543e-10 1.5181e-09 -0.0380133)
(-1.07951e-09 -3.94351e-10 -0.0464598)
(2.4198e-10 -1.81611e-09 -0.0391752)
(2.95865e-09 -3.01905e-09 -0.0377116)
(5.85631e-09 -3.85682e-09 -0.060361)
(7.76191e-09 -3.98415e-09 -0.108481)
(8.08644e-09 -3.37694e-09 -0.157434)
(7.14806e-09 -2.4357e-09 -0.170719)
(5.86821e-09 -1.58028e-09 -0.127649)
(5.25962e-09 -8.31164e-10 -0.0356536)
(5.92037e-09 1.86783e-10 0.0779669)
(7.4795e-09 1.75921e-09 0.177892)
(8.6057e-09 3.57522e-09 0.23096)
(8.08421e-09 4.83654e-09 0.220431)
(5.85405e-09 4.86107e-09 0.156716)
(3.01671e-09 3.55687e-09 0.0723586)
(9.58351e-10 1.44025e-09 -0.00146585)
(4.48344e-10 -7.22189e-10 -0.0594692)
(1.3073e-09 -2.30005e-09 -0.123469)
(2.69642e-09 -2.99303e-09 -0.215299)
(3.73826e-09 -2.85087e-09 -0.326221)
(4.01976e-09 -2.1792e-09 -0.415731)
(3.64195e-09 -1.3587e-09 -0.443176)
(2.93289e-09 -6.74123e-10 -0.398217)
(2.18132e-09 -2.51091e-10 -0.302917)
(1.57929e-09 -7.34474e-11 -0.190918)
(1.27727e-09 -7.85649e-12 -0.0859838)
(1.36582e-09 1.53232e-10 0.00444064)
(1.77183e-09 5.96988e-10 0.0805997)
(2.23288e-09 1.35603e-09 0.139648)
(2.44007e-09 2.20918e-09 0.173407)
(2.25169e-09 2.75769e-09 0.172756)
(1.79309e-09 2.68487e-09 0.132139)
(1.35269e-09 1.9811e-09 0.0509812)
(1.17783e-09 9.31216e-10 -0.0637563)
(1.33788e-09 -9.40132e-11 -0.191905)
(1.73193e-09 -8.39128e-10 -0.300953)
(2.19032e-09 -1.22828e-09 -0.360573)
(2.57088e-09 -1.31604e-09 -0.360282)
(2.80028e-09 -1.20751e-09 -0.314242)
(2.87035e-09 -9.99017e-10 -0.250529)
(2.8119e-09 -7.54694e-10 -0.194647)
(2.65815e-09 -5.1806e-10 -0.159038)
(2.42413e-09 -3.30634e-10 -0.143673)
(2.11909e-09 -2.2931e-10 -0.140498)
(1.77346e-09 -2.11416e-10 -0.138593)
(1.44352e-09 -1.90152e-10 -0.127673)
(1.17491e-09 -1.53772e-11 -0.100772)
(9.62148e-10 4.09288e-10 -0.0575095)
(7.6512e-10 1.00728e-09 -0.00593325)
(5.82392e-10 1.53832e-09 0.0406832)
(5.01858e-10 1.7442e-09 0.0716109)
(6.62758e-10 1.50894e-09 0.0854642)
(1.15462e-09 9.15392e-10 0.0910132)
(1.94501e-09 1.81285e-10 0.101993)
(2.89458e-09 -4.555e-10 0.12971)
(3.82547e-09 -8.2451e-10 0.177361)
(4.57029e-09 -8.56651e-10 0.237934)
(4.97865e-09 -5.8113e-10 0.295955)
(4.92827e-09 -1.02914e-10 0.332602)
(4.38166e-09 4.28484e-10 0.332716)
(3.43827e-09 8.56911e-10 0.291332)
(2.31779e-09 1.06617e-09 0.216709)
(1.27132e-09 1.02039e-09 0.127569)
(4.79985e-10 7.75956e-10 0.0454028)
(5.59459e-12 4.51325e-10 -0.0142294)
(-1.93303e-10 1.65777e-10 -0.0466266)
(-2.10162e-10 -1.35828e-11 -0.0568966)
(-1.40455e-10 -8.40951e-11 -0.0547627)
(-5.26999e-11 -8.27472e-11 -0.0491387)
(1.78905e-11 -5.25654e-11 -0.0452397)
(6.1699e-11 -2.23953e-11 -0.0445067)
(8.27026e-11 -3.56073e-12 -0.0460823)
(8.87755e-11 4.19649e-12 -0.0484202)
(8.64882e-11 5.49045e-12 -0.0502978)
(7.97015e-11 4.64859e-12 -0.0511525)
(7.02239e-11 4.01267e-12 -0.0509815)
(5.90309e-11 4.11085e-12 -0.0500736)
(4.70768e-11 4.55013e-12 -0.0487771)
(3.54282e-11 4.79956e-12 -0.0473879)
(2.50871e-11 4.56663e-12 -0.0461159)
(1.67632e-11 3.85458e-12 -0.0450952)
(1.07566e-11 2.85044e-12 -0.0444014)
(6.98921e-12 1.78088e-12 -0.0440661)
(5.13517e-12 8.22256e-13 -0.0440779)
(4.75185e-12 4.14505e-14 -0.0444211)
(5.48544e-12 -4.45512e-13 -0.0447343)
(6.63409e-12 -1.1248e-12 -0.0469911)
(9.55589e-12 -8.31879e-13 -0.0466986)
(-5.72161e-17 6.35824e-18 -0.0645017)
(-1.95801e-16 9.47114e-18 -0.0680301)
(-1.60144e-16 1.20689e-17 -0.0717289)
(-2.05913e-16 8.53185e-18 -0.0747472)
(-1.06706e-16 1.52187e-17 -0.0765708)
(-5.4478e-16 5.41126e-17 -0.0769811)
(3.12514e-16 -9.70068e-17 -0.0760708)
(7.28122e-16 -8.91521e-17 -0.074163)
(-3.94437e-15 2.21793e-15 -0.0717555)
(-2.75162e-15 5.40859e-16 -0.0693357)
(8.20195e-15 -3.94569e-15 -0.0672909)
(1.68511e-14 6.49913e-16 -0.0660486)
(1.62988e-14 -8.11474e-16 -0.0657668)
(1.13004e-14 -4.17163e-16 -0.066434)
(4.10596e-15 1.00205e-16 -0.0680433)
(-5.7358e-15 9.08912e-16 -0.0704875)
(-1.89113e-14 1.83808e-15 -0.0735621)
(-3.07557e-14 1.7358e-15 -0.0769764)
(-2.80788e-14 1.05221e-15 -0.0803282)
(-7.64937e-14 2.09705e-14 -0.0831657)
(-1.56629e-13 8.03924e-14 -0.0850835)
(4.5194e-13 9.01171e-14 -0.0855629)
(9.47051e-13 -1.45899e-14 -0.0839902)
(4.5158e-13 -9.29656e-14 -0.0801223)
(1.94738e-15 -6.64746e-14 -0.0744975)
(-7.09508e-14 -2.47819e-14 -0.0681332)
(-3.26137e-14 3.01717e-15 -0.062186)
(-1.67615e-13 3.34189e-14 -0.0577678)
(1.4807e-13 -1.18899e-13 -0.0557895)
(1.92755e-12 -1.89493e-13 -0.0567943)
(-3.51031e-12 2.28535e-12 -0.060883)
(-2.69836e-11 2.91034e-12 -0.0677799)
(1.58891e-11 -3.69457e-11 -0.0776115)
(3.5655e-10 -1.52374e-10 -0.0919321)
(1.08486e-09 -2.42175e-10 -0.110476)
(1.9168e-09 -1.35523e-10 -0.126276)
(2.27317e-09 1.05839e-10 -0.129125)
(1.77352e-09 2.30123e-10 -0.116398)
(8.57902e-10 1.69618e-10 -0.0962578)
(2.07383e-10 6.27802e-11 -0.0774261)
(-3.73643e-11 1.9769e-12 -0.062844)
(-3.36985e-11 -1.32234e-11 -0.0529213)
(-2.05004e-11 2.519e-11 -0.0480051)
(-2.62147e-10 1.15797e-10 -0.0494984)
(-4.84962e-10 -5.90613e-11 -0.0580072)
(1.47654e-09 -1.45503e-09 -0.0655058)
(9.49578e-09 -4.97713e-09 -0.048442)
(2.48673e-08 -9.56389e-09 0.0181002)
(4.3247e-08 -1.17092e-08 0.129701)
(5.89789e-08 -8.30878e-09 0.244803)
(6.82812e-08 -7.46658e-11 0.306471)
(6.672e-08 8.20433e-09 0.276783)
(5.19689e-08 1.16241e-08 0.171362)
(3.01554e-08 9.61599e-09 0.0520536)
(1.1426e-08 5.32869e-09 -0.0279)
(1.0984e-09 1.84561e-09 -0.0574196)
(-2.0858e-09 1.72999e-10 -0.0572481)
(-1.63001e-09 -5.51253e-10 -0.050158)
(7.12667e-10 -1.81151e-09 -0.0428054)
(4.89309e-09 -4.30387e-09 -0.0309708)
(9.82334e-09 -7.09854e-09 -0.0172907)
(1.24664e-08 -8.44424e-09 -0.0139592)
(1.08529e-08 -7.76784e-09 -0.0170139)
(6.60949e-09 -6.20547e-09 0.00822017)
(3.67426e-09 -4.73772e-09 0.0939819)
(5.54303e-09 -2.5677e-09 0.227988)
(1.25759e-08 1.72781e-09 0.350466)
(2.02651e-08 7.42648e-09 0.39193)
(2.24059e-08 1.14279e-08 0.326678)
(1.73331e-08 1.14181e-08 0.193583)
(8.84252e-09 8.00791e-09 0.0607896)
(1.97315e-09 3.51619e-09 -0.0232421)
(-7.164e-10 -2.84972e-10 -0.0527815)
(3.80565e-10 -2.92801e-09 -0.0588588)
(3.21658e-09 -4.47092e-09 -0.0877616)
(5.51457e-09 -4.83318e-09 -0.168215)
(5.96154e-09 -4.05007e-09 -0.279455)
(4.6989e-09 -2.64728e-09 -0.355626)
(2.69279e-09 -1.3883e-09 -0.337758)
(8.10973e-10 -7.64415e-10 -0.220697)
(-3.67258e-10 -7.09208e-10 -0.0485318)
(-2.35947e-10 -5.6124e-10 0.124103)
(1.56745e-09 5.27996e-10 0.258042)
(4.26374e-09 2.69645e-09 0.327916)
(6.03391e-09 4.94458e-09 0.319343)
(5.66477e-09 5.86221e-09 0.241392)
(3.66903e-09 4.76499e-09 0.129206)
(1.68121e-09 2.15356e-09 0.0187324)
(9.58494e-10 -7.46555e-10 -0.085766)
(1.49423e-09 -2.79057e-09 -0.209873)
(2.37472e-09 -3.47255e-09 -0.365423)
(2.76371e-09 -3.00529e-09 -0.513644)
(2.48051e-09 -1.99383e-09 -0.584726)
(1.83363e-09 -9.95334e-10 -0.535216)
(1.17401e-09 -2.90069e-10 -0.380716)
(6.47178e-10 7.09882e-11 -0.180439)
(2.4103e-10 1.35883e-10 0.00192423)
(-1.8018e-11 2.46711e-11 0.130406)
(2.33415e-11 -2.60338e-11 0.205319)
(4.6022e-10 2.76773e-10 0.246325)
(1.12374e-09 1.06031e-09 0.269179)
(1.65392e-09 2.08721e-09 0.273915)
(1.80297e-09 2.83349e-09 0.247427)
(1.64967e-09 2.84926e-09 0.173371)
(1.49682e-09 2.08524e-09 0.0442981)
(1.59222e-09 8.91174e-10 -0.12346)
(1.95831e-09 -2.61932e-10 -0.282054)
(2.442e-09 -1.05677e-09 -0.37088)
(2.86774e-09 -1.41556e-09 -0.354075)
(3.13209e-09 -1.42573e-09 -0.242981)
(3.2051e-09 -1.2294e-09 -0.0865942)
(3.10056e-09 -9.50695e-10 0.056389)
(2.8663e-09 -6.66455e-10 0.143969)
(2.57356e-09 -4.11412e-10 0.163244)
(2.27434e-09 -2.0888e-10 0.126129)
(1.98405e-09 -9.07264e-11 0.0596149)
(1.70402e-09 -6.5433e-11 -0.00667793)
(1.44782e-09 -5.46801e-11 -0.049369)
(1.22368e-09 1.02817e-10 -0.0559265)
(1.00379e-09 5.21171e-10 -0.0274626)
(7.60083e-10 1.1158e-09 0.0214792)
(5.51969e-10 1.60597e-09 0.0698004)
(5.43003e-10 1.69823e-09 0.1018)
(8.87835e-10 1.2907e-09 0.116135)
(1.59278e-09 5.29221e-10 0.125488)
(2.49729e-09 -3.03614e-10 0.148042)
(3.39064e-09 -9.46579e-10 0.196987)
(4.1402e-09 -1.2445e-09 0.273801)
(4.71255e-09 -1.14589e-09 0.366912)
(5.08292e-09 -6.80541e-10 0.454416)
(5.14945e-09 3.7555e-11 0.509956)
(4.78164e-09 8.11366e-10 0.511787)
(3.95096e-09 1.41173e-09 0.452283)
(2.80778e-09 1.66827e-09 0.342913)
(1.62571e-09 1.54414e-09 0.210693)
(6.60814e-10 1.14416e-09 0.0870695)
(4.31208e-11 6.51127e-10 -0.00476288)
(-2.37944e-10 2.32098e-10 -0.0570743)
(-2.78631e-10 -2.75081e-11 -0.0762798)
(-1.92874e-10 -1.30713e-10 -0.0757494)
(-6.87654e-11 -1.31284e-10 -0.0682074)
(4.38455e-11 -8.91116e-11 -0.061556)
(1.25966e-10 -4.44351e-11 -0.0585661)
(1.75966e-10 -1.38462e-11 -0.0587588)
(1.98875e-10 1.84468e-12 -0.0605004)
(2.00837e-10 8.09123e-12 -0.0623435)
(1.87424e-10 1.03333e-11 -0.0635087)
(1.63651e-10 1.16059e-11 -0.0638207)
(1.34257e-10 1.26705e-11 -0.0634338)
(1.03604e-10 1.31736e-11 -0.0625974)
(7.52027e-11 1.26927e-11 -0.0615621)
(5.1375e-11 1.11452e-11 -0.0605464)
(3.31983e-11 8.82078e-12 -0.0597299)
(2.07047e-11 6.18872e-12 -0.0592441)
(1.32296e-11 3.66944e-12 -0.0591639)
(9.78491e-12 1.55232e-12 -0.0594948)
(9.31465e-12 -1.05782e-13 -0.0602183)
(1.10474e-11 -1.10916e-12 -0.0608335)
(1.35593e-11 -2.52646e-12 -0.0640819)
(1.96423e-11 -1.83455e-12 -0.0635834)
(7.05538e-17 1.86117e-15 -0.0819836)
(2.41043e-16 1.78611e-15 -0.0866002)
(1.43123e-16 5.14467e-18 -0.0914352)
(4.24638e-16 1.70877e-15 -0.0953749)
(1.2032e-16 1.90338e-15 -0.0977461)
(-3.14011e-16 1.53038e-15 -0.098261)
(5.84801e-15 -6.29382e-16 -0.0970388)
(-1.13835e-14 2.13122e-15 -0.0944971)
(-1.261e-14 1.727e-15 -0.091296)
(4.65787e-14 -7.77192e-15 -0.0880591)
(6.78364e-14 -9.68878e-15 -0.0852704)
(3.24007e-16 -4.0278e-15 -0.0835273)
(-5.82444e-14 2.67449e-15 -0.0830707)
(-9.56143e-14 5.96364e-15 -0.0838657)
(-1.2682e-13 8.38652e-15 -0.0859093)
(-1.59039e-13 1.31847e-14 -0.0890606)
(-1.85878e-13 1.43408e-14 -0.0930466)
(-1.53179e-13 4.82138e-15 -0.0974906)
(-1.23699e-13 2.47666e-14 -0.101919)
(-4.60363e-13 6.66039e-14 -0.105804)
(3.39033e-12 -2.60703e-13 -0.108551)
(1.85521e-11 -5.47519e-13 -0.109381)
(2.91755e-11 -1.12248e-15 -0.107445)
(1.92893e-11 4.67505e-13 -0.102376)
(5.40251e-12 2.58378e-13 -0.0949471)
(-7.28604e-14 1.29029e-14 -0.0865338)
(-9.47288e-13 4.7311e-14 -0.0785813)
(-7.45461e-13 -8.36457e-14 -0.0725403)
(2.18093e-12 -1.03232e-12 -0.0697297)
(1.65801e-12 1.76845e-12 -0.070941)
(-2.32296e-11 1.42965e-11 -0.0762485)
(-4.76498e-12 -9.30782e-12 -0.0858554)
(1.70777e-10 -1.904e-10 -0.100758)
(-9.52135e-11 -5.34177e-10 -0.118109)
(-1.82817e-09 -7.80458e-10 -0.12873)
(-3.78475e-09 -5.89795e-10 -0.132895)
(-3.24045e-09 7.84949e-11 -0.13906)
(-7.58841e-10 7.08277e-10 -0.140474)
(8.00677e-10 7.77655e-10 -0.126912)
(7.82808e-10 4.42311e-10 -0.103824)
(2.52616e-10 1.17583e-10 -0.0811345)
(-1.42157e-11 -1.06236e-11 -0.0650211)
(-2.00657e-10 1.15859e-10 -0.0580604)
(-6.95002e-10 2.53221e-10 -0.0621192)
(-6.23714e-11 -8.47038e-10 -0.0727091)
(5.91681e-09 -5.17901e-09 -0.0663605)
(1.92344e-08 -1.26414e-08 -0.00767351)
(3.29301e-08 -1.90824e-08 0.112722)
(3.804e-08 -2.00332e-08 0.267809)
(3.77951e-08 -1.45754e-08 0.429879)
(4.37575e-08 -3.58742e-09 0.564754)
(5.70323e-08 1.04599e-08 0.602574)
(6.28778e-08 2.1046e-08 0.491001)
(5.02509e-08 2.22469e-08 0.277217)
(2.69355e-08 1.54492e-08 0.0748878)
(7.34695e-09 7.00007e-09 -0.0416302)
(-1.96212e-09 1.38699e-09 -0.075949)
(-2.81166e-09 -1.48038e-09 -0.0680658)
(9.73217e-10 -3.88503e-09 -0.0489322)
(6.06688e-09 -6.63184e-09 -0.0407466)
(8.65137e-09 -8.117e-09 -0.0726839)
(6.05638e-09 -6.98016e-09 -0.154312)
(-2.1109e-10 -4.44147e-09 -0.229856)
(-6.26916e-09 -2.97359e-09 -0.208226)
(-9.7448e-09 -3.59491e-09 -0.0526164)
(-9.5976e-09 -4.76635e-09 0.185831)
(-4.30302e-09 -3.27305e-09 0.410221)
(5.67876e-09 2.55178e-09 0.528973)
(1.47376e-08 9.87123e-09 0.495642)
(1.66787e-08 1.36622e-08 0.339835)
(1.14828e-08 1.18094e-08 0.150026)
(4.43634e-09 6.29756e-09 0.00963037)
(4.81072e-10 4.01942e-10 -0.0581814)
(6.68228e-10 -3.78259e-09 -0.0988901)
(2.77724e-09 -5.58605e-09 -0.183697)
(4.12017e-09 -5.22929e-09 -0.336856)
(3.72464e-09 -3.57632e-09 -0.492895)
(2.31797e-09 -1.74257e-09 -0.541547)
(9.36598e-10 -4.91738e-10 -0.423163)
(-5.67857e-11 -5.02533e-11 -0.174035)
(-8.55931e-10 -3.07701e-10 0.109003)
(-1.39318e-09 -7.80568e-10 0.336434)
(-9.17209e-10 -4.90638e-10 0.46792)
(1.0177e-09 1.342e-09 0.503172)
(3.33765e-09 4.13603e-09 0.453071)
(4.33371e-09 6.04351e-09 0.336661)
(3.5538e-09 5.54865e-09 0.186882)
(2.15494e-09 2.79552e-09 0.0325013)
(1.44053e-09 -6.28695e-10 -0.130222)
(1.58115e-09 -3.00817e-09 -0.324492)
(1.87009e-09 -3.62777e-09 -0.535927)
(1.74496e-09 -2.90376e-09 -0.685839)
(1.23575e-09 -1.71416e-09 -0.684311)
(6.78954e-10 -7.05455e-10 -0.505389)
(3.22682e-10 -8.08969e-11 -0.204974)
(1.77028e-10 2.15401e-10 0.118536)
(8.52875e-11 2.59151e-10 0.375511)
(-7.13574e-11 1.00988e-10 0.519545)
(-1.96777e-10 -8.58874e-11 0.556582)
(-7.47773e-11 4.67907e-11 0.526578)
(3.32166e-10 7.59181e-10 0.471402)
(7.873e-10 1.86956e-09 0.408399)
(1.05178e-09 2.75981e-09 0.324692)
(1.16638e-09 2.83795e-09 0.192917)
(1.37348e-09 2.00983e-09 0.0029924)
(1.81949e-09 7.00474e-10 -0.205464)
(2.41729e-09 -5.18907e-10 -0.345891)
(2.97437e-09 -1.29384e-09 -0.338957)
(3.36644e-09 -1.57332e-09 -0.169417)
(3.57204e-09 -1.48473e-09 0.107103)
(3.60419e-09 -1.19175e-09 0.400723)
(3.46023e-09 -8.29615e-10 0.62861)
(3.14324e-09 -4.91194e-10 0.739894)
(2.70751e-09 -2.22081e-10 0.723473)
(2.24816e-09 -3.58795e-11 0.603598)
(1.84508e-09 5.58551e-11 0.428579)
(1.53097e-09 5.67007e-11 0.2521)
(1.29832e-09 5.00163e-11 0.11682)
(1.10172e-09 2.06635e-10 0.0448773)
(8.7144e-10 6.41086e-10 0.0344406)
(5.96096e-10 1.23319e-09 0.0630234)
(4.07438e-10 1.64686e-09 0.0999997)
(5.16176e-10 1.57627e-09 0.124162)
(1.01834e-09 9.84052e-10 0.135016)
(1.78204e-09 1.10663e-10 0.150146)
(2.54103e-09 -7.17642e-10 0.191397)
(3.08998e-09 -1.27696e-09 0.270454)
(3.40489e-09 -1.48547e-09 0.382677)
(3.61307e-09 -1.32801e-09 0.509589)
(3.84363e-09 -7.99581e-10 0.624254)
(4.06711e-09 4.77256e-11 0.696269)
(4.08082e-09 1.02773e-09 0.699351)
(3.67692e-09 1.84384e-09 0.622588)
(2.8398e-09 2.2288e-09 0.478798)
(1.7819e-09 2.09387e-09 0.302106)
(8.00855e-10 1.56725e-09 0.134092)
(1.07723e-10 9.00704e-10 0.00661522)
(-2.43492e-10 3.26653e-10 -0.0684536)
(-3.18487e-10 -3.61181e-11 -0.098034)
(-2.26134e-10 -1.89028e-10 -0.0987289)
(-6.21739e-11 -2.01105e-10 -0.0870548)
(1.10635e-10 -1.49931e-10 -0.0739865)
(2.58194e-10 -8.84555e-11 -0.0643992)
(3.64081e-10 -4.00152e-11 -0.0591831)
(4.22103e-10 -8.23901e-12 -0.057512)
(4.33445e-10 1.12174e-11 -0.0582278)
(4.05581e-10 2.32415e-11 -0.0603455)
(3.50497e-10 3.05964e-11 -0.0631106)
(2.81803e-10 3.41344e-11 -0.065933)
(2.11731e-10 3.40773e-11 -0.0683687)
(1.49094e-10 3.09158e-11 -0.070188)
(9.86851e-11 2.55688e-11 -0.0713911)
(6.1838e-11 1.91897e-11 -0.0721536)
(3.75539e-11 1.28348e-11 -0.0727255)