/*--------------------------------*- C++ -*----------------------------------*\
  =========                 |
  \\      /  F ield         | OpenFOAM: The Open Source CFD Toolbox
   \\    /   O peration     | Website:  https://openfoam.org
    \\  /    A nd           | Version:  11
     \\/     M anipulation  |
\*---------------------------------------------------------------------------*/
FoamFile
{
    format      ascii;
    class       volVectorField;
    location    "6.028629";
    object      U;
}
// * * * * * * * * * * * * * * * * * * * * * * * * * * * * * * * * * * * * * //

dimensions      [0 1 -1 0 0 0 0];

internalField   nonuniform List<vector> 
7132
(
(1.00014 -0.000288616 1.52229e-18)
(1.00223 -0.000870828 6.67598e-18)
(1.00698 -0.0014887 7.54107e-18)
(1.01419 -0.00215404 8.96729e-18)
(1.02418 -0.00287008 1.14e-17)
(1.03713 -0.00361684 1.15695e-17)
(1.05312 -0.0043551 1.08446e-17)
(1.072 -0.0050075 1.00885e-17)
(1.09325 -0.00549124 9.5824e-18)
(1.11604 -0.00571883 9.31839e-18)
(1.13913 -0.00564176 9.02025e-18)
(1.16133 -0.00532763 8.90479e-18)
(1.18185 -0.00483967 7.67356e-18)
(1.20012 -0.00424259 8.12967e-18)
(1.21584 -0.00359493 -3.01117e-18)
(1.2289 -0.00293536 -1.06765e-17)
(1.23933 -0.00228686 -2.11473e-17)
(1.2472 -0.00165741 -1.30712e-17)
(1.25259 -0.001043 -1.73652e-17)
(1.25555 -0.000432041 -2.85817e-17)
(1.25606 0.00018828 -3.13446e-17)
(1.25405 0.000825032 -3.73828e-17)
(1.24946 0.00147253 -4.60465e-17)
(1.24225 0.00210914 -5.96231e-17)
(1.23254 0.00269928 -6.02326e-17)
(1.22059 0.00320107 -7.25394e-17)
(1.20685 0.00357689 -8.64537e-17)
(1.19187 0.00380307 -9.91299e-17)
(1.17631 0.00387512 -1.11079e-16)
(1.16077 0.00380738 -1.11526e-16)
(1.14576 0.00362818 -1.08075e-16)
(1.13167 0.00337291 -1.00511e-16)
(1.11873 0.00307709 -9.82852e-17)
(1.10703 0.00277119 -8.6735e-17)
(1.09655 0.00247758 -7.05042e-17)
(1.08721 0.00220981 -4.9431e-17)
(1.07888 0.00197351 -2.47081e-17)
(1.07143 0.00176828 1.01811e-18)
(1.06474 0.00158995 3.35681e-17)
(1.05872 0.00143272 6.92668e-17)
(1.05329 0.00129079 1.0755e-16)
(1.0484 0.00115946 1.47457e-16)
(1.04402 0.00103562 1.87441e-16)
(1.04012 0.000917844 2.31089e-16)
(1.03668 0.000806103 2.75688e-16)
(1.03367 0.000701381 3.21496e-16)
(1.03106 0.000605184 3.67015e-16)
(1.02883 0.000519103 4.11141e-16)
(1.02691 0.000444447 4.55369e-16)
(1.02527 0.000381991 4.96472e-16)
(1.02386 0.000331844 5.32034e-16)
(1.02262 0.000293432 5.62562e-16)
(1.02151 0.000265574 5.8821e-16)
(1.0205 0.000246632 6.06144e-16)
(1.01954 0.000234698 6.15798e-16)
(1.01862 0.000227787 6.16026e-16)
(1.01772 0.00022402 6.07018e-16)
(1.01683 0.000221764 5.90161e-16)
(1.01595 0.000219726 5.6417e-16)
(1.01507 0.000216995 5.29725e-16)
(1.01421 0.000213044 4.86396e-16)
(1.01336 0.000207688 4.34863e-16)
(1.01255 0.000201015 3.75405e-16)
(1.01176 0.000193313 3.05994e-16)
(1.011 0.000184987 2.28172e-16)
(1.01027 0.000176484 1.40667e-16)
(1.00958 0.000168232 4.32925e-17)
(1.00893 0.000160593 -6.2458e-17)
(1.0083 0.000153835 -1.76689e-16)
(1.00769 0.000148117 -2.95704e-16)
(1.00711 0.000143488 -4.1895e-16)
(1.00655 0.000139897 -5.45228e-16)
(1.00599 0.000137218 -6.72864e-16)
(1.00545 0.000135271 -8.02539e-16)
(1.00491 0.000133847 -9.31809e-16)
(1.00438 0.00013274 -1.06145e-15)
(1.00385 0.000131763 -1.19098e-15)
(1.00332 0.000130766 -1.31892e-15)
(1.0028 0.000129641 -1.44537e-15)
(1.00228 0.000128326 -1.5673e-15)
(1.00177 0.000126796 -1.68542e-15)
(1.00127 0.000125056 -1.7997e-15)
(1.00077 0.000123131 -1.90985e-15)
(1.00028 0.000121054 -2.01688e-15)
(0.999797 0.000118857 -2.11758e-15)
(0.999326 0.000116569 -2.21038e-15)
(0.998863 0.000114204 -2.29034e-15)
(0.99841 0.000111759 -2.34991e-15)
(0.997966 0.000109211 -2.38139e-15)
(0.997533 0.000106513 -2.37308e-15)
(0.997111 0.0001036 -2.31735e-15)
(0.996702 0.000100399 -2.20806e-15)
(0.996305 9.68375e-05 -2.04303e-15)
(0.995923 9.2854e-05 -1.8314e-15)
(0.995558 8.83836e-05 -1.5894e-15)
(0.995212 8.33061e-05 -1.34674e-15)
(0.994887 7.73512e-05 -1.14418e-15)
(0.994588 6.99769e-05 -1.02816e-15)
(0.994322 6.02677e-05 -1.04989e-15)
(0.9941 4.69293e-05 -1.25303e-15)
(0.993939 2.84547e-05 -1.67475e-15)
(0.993863 3.50373e-06 -2.34163e-15)
(0.9939 -2.85407e-05 -3.26479e-15)
(0.994078 -6.69713e-05 -4.43768e-15)
(0.994419 -0.000109319 -5.81918e-15)
(0.994933 -0.000151305 -7.32691e-15)
(0.995609 -0.000187332 -8.82887e-15)
(0.996412 -0.000211512 -1.01503e-14)
(0.997282 -0.000219024 -1.11092e-14)
(0.998147 -0.000207442 -1.15643e-14)
(0.998928 -0.000177607 -1.14852e-14)
(0.999557 -0.000133736 -1.10056e-14)
(0.999991 -8.26424e-05 -1.04394e-14)
(1.00021 -3.22802e-05 -1.02428e-14)
(1.00025 1.00143e-05 -1.09021e-14)
(1.00013 3.90627e-05 -1.2786e-14)
(0.999933 5.27568e-05 -1.59881e-14)
(0.99971 5.21413e-05 -2.02149e-14)
(0.999515 4.07298e-05 -2.47782e-14)
(0.999382 2.33372e-05 -2.87062e-14)
(0.999326 4.80786e-06 -3.09812e-14)
(0.999343 -1.10129e-05 -3.08297e-14)
(0.999414 -2.18491e-05 -2.7965e-14)
(0.999518 -2.70638e-05 -2.27015e-14)
(0.999631 -2.73321e-05 -1.58864e-14)
(0.999737 -2.41031e-05 -8.68097e-15)
(0.999825 -1.90441e-05 -2.25673e-15)
(0.999891 -1.36108e-05 2.49891e-15)
(0.999935 -8.80911e-06 5.16701e-15)
(0.999961 -5.1446e-06 5.83697e-15)
(0.999976 -2.70537e-06 4.99719e-15)
(0.999983 -1.30939e-06 3.33514e-15)
(0.999986 -6.55485e-07 1.52574e-15)
(0.999988 -4.39595e-07 6.33869e-17)
(0.99999 -4.22182e-07 -8.10614e-16)
(0.999991 -4.50939e-07 -1.09477e-15)
(0.999993 -4.52593e-07 -9.49948e-16)
(0.999995 -4.09572e-07 -5.9475e-16)
(0.999996 -3.34193e-07 -2.23252e-16)
(0.999998 -2.48058e-07 4.5995e-17)
(0.999998 -1.69523e-07 1.75607e-16)
(0.999999 -1.08691e-07 1.86922e-16)
(0.999999 -6.76221e-08 1.31263e-16)
(1 -4.30973e-08 5.80726e-17)
(1 -2.98102e-08 1.2093e-18)
(1 -2.27586e-08 -2.68295e-17)
(1 -1.84197e-08 -3.10082e-17)
(1 -1.49288e-08 -2.14501e-17)
(1 -1.16516e-08 -9.31309e-18)
(1 -8.61473e-09 -5.66707e-20)
(1 -6.02591e-09 4.88092e-18)
(1 -4.02637e-09 5.18444e-18)
(1 -2.60865e-09 3.49624e-18)
(1 -1.66799e-09 9.18029e-19)
(1 -1.05402e-09 -6.20542e-19)
(1 -6.50457e-10 -4.51346e-19)
(1 -3.52383e-10 -2.12162e-19)
(1 -1.50351e-10 1.96694e-19)
(1 4.93294e-11 5.21543e-20)
(1 1.63084e-10 -7.92353e-19)
(1.00014 -0.000862996 1.697e-20)
(1.00221 -0.00260522 3.29814e-19)
(1.00692 -0.00445566 7.10022e-19)
(1.01409 -0.00645224 1.09304e-18)
(1.02404 -0.00860571 1.48503e-18)
(1.03699 -0.0108572 1.83895e-18)
(1.05304 -0.0130896 2.19194e-18)
(1.07205 -0.0150671 1.99789e-18)
(1.09353 -0.0165373 5.44697e-18)
(1.11661 -0.017227 7.10184e-18)
(1.13998 -0.0169857 4.36379e-18)
(1.1624 -0.0160284 4.45359e-18)
(1.18307 -0.0145487 -2.29687e-19)
(1.20143 -0.0127439 1.22919e-17)
(1.21719 -0.0107915 4.846e-17)
(1.23026 -0.00880784 9.68875e-17)
(1.24068 -0.00686122 1.33573e-16)
(1.24853 -0.0049743 1.36687e-16)
(1.25392 -0.00313333 9.48348e-17)
(1.25688 -0.0013016 1.26714e-17)
(1.2574 0.000561228 -8.90538e-17)
(1.25541 0.00247748 -1.90407e-16)
(1.25081 0.00442998 -2.79196e-16)
(1.24358 0.00635243 -3.48471e-16)
(1.2338 0.00813566 -3.94114e-16)
(1.22174 0.00965132 -4.16188e-16)
(1.20785 0.0107846 -4.16318e-16)
(1.19272 0.0114636 -3.96676e-16)
(1.177 0.0116752 -3.59245e-16)
(1.16132 0.0114639 -3.06689e-16)
(1.14621 0.0109163 -2.29977e-16)
(1.13206 0.0101403 -1.52459e-16)
(1.11908 0.00924361 -6.34336e-17)
(1.10737 0.00831845 4.2765e-17)
(1.09691 0.00743226 1.53042e-16)
(1.08759 0.00662561 2.7869e-16)
(1.07928 0.00591509 4.03463e-16)
(1.07186 0.00529906 5.24815e-16)
(1.0652 0.00476461 6.46879e-16)
(1.05919 0.00429394 7.62597e-16)
(1.05377 0.00386935 8.77732e-16)
(1.04889 0.00347649 9.82978e-16)
(1.04451 0.00310592 1.0792e-15)
(1.04061 0.00275326 1.16917e-15)
(1.03717 0.00241842 1.24908e-15)
(1.03417 0.00210438 1.32134e-15)
(1.03157 0.00181572 1.37899e-15)
(1.02934 0.00155728 1.42172e-15)
(1.02743 0.00133304 1.44889e-15)
(1.0258 0.0011454 1.45543e-15)
(1.02439 0.000994739 1.44142e-15)
(1.02316 0.000879362 1.40423e-15)
(1.02206 0.000795749 1.34148e-15)
(1.02105 0.000738988 1.25434e-15)
(1.0201 0.00070334 1.14166e-15)
(1.01918 0.000682831 1.00723e-15)
(1.01828 0.000671794 8.52112e-16)
(1.01739 0.000665299 6.77993e-16)
(1.01651 0.000659438 4.88234e-16)
(1.01563 0.000651462 2.8303e-16)
(1.01476 0.000639774 6.57421e-17)
(1.01392 0.000623812 -1.64328e-16)
(1.01309 0.000603846 -4.07565e-16)
(1.0123 0.000580746 -6.64495e-16)
(1.01154 0.000555736 -9.34472e-16)
(1.01081 0.00053017 -1.21482e-15)
(1.01012 0.000505344 -1.50767e-15)
(1.00946 0.000482358 -1.80656e-15)
(1.00883 0.000462024 -2.10812e-15)
(1.00823 0.000444825 -2.40718e-15)
(1.00765 0.00043091 -2.69863e-15)
(1.00708 0.000420135 -2.98414e-15)
(1.00652 0.000412114 -3.25924e-15)
(1.00598 0.000406303 -3.52451e-15)
(1.00544 0.000402077 -3.77868e-15)
(1.0049 0.000398809 -4.01997e-15)
(1.00437 0.000395935 -4.25097e-15)
(1.00384 0.000393 -4.4664e-15)
(1.00332 0.000389679 -4.6655e-15)
(1.0028 0.000385782 -4.84623e-15)
(1.00228 0.000381236 -5.00792e-15)
(1.00177 0.000376059 -5.15582e-15)
(1.00127 0.000370325 -5.28789e-15)
(1.00078 0.000364135 -5.40482e-15)
(1.00029 0.000357593 -5.50128e-15)
(0.999818 0.00035078 -5.5677e-15)
(0.999351 0.000343744 -5.59417e-15)
(0.998893 0.000336477 -5.55948e-15)
(0.998445 0.000328913 -5.44458e-15)
(0.998007 0.000320916 -5.22792e-15)
(0.99758 0.000312292 -4.89217e-15)
(0.997164 0.000302816 -4.43117e-15)
(0.996761 0.000292272 -3.84544e-15)
(0.996372 0.000280471 -3.1574e-15)
(0.996 0.000267217 -2.40979e-15)
(0.995645 0.000252154 -1.66815e-15)
(0.995312 0.000234495 -1.01842e-15)
(0.995004 0.000212654 -5.53468e-16)
(0.994727 0.000183942 -3.67827e-16)
(0.994493 0.00014454 -5.41903e-16)
(0.994318 8.99713e-05 -1.13851e-15)
(0.994225 1.62149e-05 -2.20327e-15)
(0.994241 -7.86506e-05 -3.75458e-15)
(0.994394 -0.000192648 -5.7703e-15)
(0.994706 -0.000318573 -8.15557e-15)
(0.995187 -0.000443809 -1.0717e-14)
(0.995826 -0.000551746 -1.31553e-14)
(0.99659 -0.000624808 -1.50948e-14)
(0.997423 -0.000648496 -1.61812e-14)
(0.998254 -0.000615364 -1.62147e-14)
(0.999004 -0.000527681 -1.52978e-14)
(0.999609 -0.000397805 -1.39332e-14)
(1.00002 -0.00024594 -1.30091e-14)
(1.00023 -9.57985e-05 -1.36552e-14)
(1.00025 3.06284e-05 -1.69546e-14)
(1.00013 0.000117705 -2.35887e-14)
(0.99993 0.000158935 -3.3515e-14)
(0.999703 0.000157268 -4.57644e-14)
(0.999506 0.000123105 -5.84698e-14)
(0.999373 7.08236e-05 -6.9171e-14)
(0.999317 1.49706e-05 -7.53865e-14)
(0.999335 -3.28469e-05 -7.53062e-14)
(0.999408 -6.57063e-05 -6.83605e-14)
(0.999514 -8.16144e-05 -5.54542e-14)
(0.99963 -8.25507e-05 -3.87677e-14)
(0.999738 -7.286e-05 -2.11921e-14)
(0.999827 -5.75772e-05 -5.5856e-15)
(0.999893 -4.11198e-05 5.92425e-15)
(0.999937 -2.65554e-05 1.23646e-14)
(0.999964 -1.54369e-05 1.39837e-14)
(0.999978 -8.04449e-06 1.1978e-14)
(0.999984 -3.83047e-06 8.00646e-15)
(0.999987 -1.87792e-06 3.68406e-15)
(0.999988 -1.25745e-06 1.90003e-16)
(0.99999 -1.23543e-06 -1.90482e-15)
(0.999991 -1.34544e-06 -2.59658e-15)
(0.999993 -1.36411e-06 -2.26483e-15)
(0.999995 -1.23964e-06 -1.42743e-15)
(0.999996 -1.01214e-06 -5.44065e-16)
(0.999998 -7.49866e-07 9.94886e-17)
(0.999998 -5.10424e-07 4.11811e-16)
(0.999999 -3.25397e-07 4.42641e-16)
(0.999999 -2.01157e-07 3.1289e-16)
(1 -1.27638e-07 1.41198e-16)
(1 -8.8347e-08 5.93457e-18)
(1 -6.78137e-08 -6.26293e-17)
(1 -5.52343e-08 -7.43427e-17)
(1 -4.49618e-08 -5.26136e-17)
(1 -3.51588e-08 -2.25476e-17)
(1 -2.59918e-08 6.46196e-20)
(1 -1.81587e-08 1.13069e-17)
(1 -1.21143e-08 1.15196e-17)
(1 -7.84645e-09 7.2246e-18)
(1 -5.02712e-09 2.45564e-18)
(1 -3.19748e-09 -7.9189e-19)
(1 -1.99514e-09 -1.17148e-18)
(1 -1.10867e-09 -1.33816e-18)
(1 -4.99672e-10 -6.88251e-19)
(1 9.0673e-11 1.04039e-19)
(1 4.50376e-10 -3.73504e-19)
(1.00014 -0.00142945 9.40695e-23)
(1.00217 -0.00431716 4.45662e-21)
(1.0068 -0.00739089 5.53727e-21)
(1.01387 -0.0107197 1.40067e-20)
(1.02375 -0.0143263 -1.5473e-19)
(1.03668 -0.0181167 2.37343e-19)
(1.05284 -0.0218975 -8.47037e-19)
(1.07213 -0.0252631 -1.53182e-18)
(1.09406 -0.0277794 6.44528e-18)
(1.11774 -0.0289531 -1.21522e-18)
(1.14169 -0.028516 -3.85764e-17)
(1.16454 -0.0268692 -3.05251e-17)
(1.18552 -0.0243488 1.09857e-16)
(1.20406 -0.0212934 3.50898e-16)
(1.21989 -0.0180049 5.31324e-16)
(1.23297 -0.014677 4.71704e-16)
(1.24337 -0.0114232 8.99498e-17)
(1.2512 -0.00827904 -5.56169e-16)
(1.25657 -0.00521851 -1.3062e-15)
(1.25954 -0.00217552 -1.95002e-15)
(1.26009 0.000922835 -2.33858e-15)
(1.25812 0.00411939 -2.4914e-15)
(1.25352 0.00738863 -2.43278e-15)
(1.24622 0.010619 -2.20246e-15)
(1.23629 0.0136231 -1.84824e-15)
(1.224 0.0161791 -1.41597e-15)
(1.20981 0.0180879 -9.42378e-16)
(1.19435 0.0192252 -4.52022e-16)
(1.17832 0.019569 4.19028e-17)
(1.16237 0.0191963 5.33498e-16)
(1.14706 0.018257 1.02223e-15)
(1.13277 0.016936 1.50493e-15)
(1.11973 0.0154175 1.977e-15)
(1.10801 0.0138575 2.43198e-15)
(1.09757 0.0123693 2.8599e-15)
(1.0883 0.01102 3.25169e-15)
(1.08005 0.00983586 3.59828e-15)
(1.07267 0.00881232 3.89331e-15)
(1.06605 0.00792621 4.13467e-15)
(1.06007 0.00714648 4.32251e-15)
(1.05466 0.00644273 4.45941e-15)
(1.04979 0.00579058 4.54732e-15)
(1.04542 0.0051742 4.58721e-15)
(1.04153 0.00458646 4.5787e-15)
(1.0381 0.00402755 4.51908e-15)
(1.0351 0.00350281 4.40445e-15)
(1.03252 0.00302025 4.22941e-15)
(1.0303 0.00258825 3.98863e-15)
(1.02842 0.00221369 3.67786e-15)
(1.02681 0.00190068 3.29408e-15)
(1.02542 0.00164989 2.83747e-15)
(1.02421 0.00145845 2.31048e-15)
(1.02313 0.00132037 1.71706e-15)
(1.02213 0.00122731 1.06766e-15)
(1.02119 0.00116953 3.72555e-16)
(1.02028 0.00113694 -3.56095e-16)
(1.01938 0.00111994 -1.10782e-15)
(1.01848 0.00111025 -1.87481e-15)
(1.01759 0.00110129 -2.64881e-15)
(1.01671 0.00108849 -3.42658e-15)
(1.01584 0.00106921 -4.20629e-15)
(1.01499 0.00104257 -4.98951e-15)
(1.01416 0.00100907 -5.77823e-15)
(1.01336 0.000970238 -6.57215e-15)
(1.01259 0.000928181 -7.37054e-15)
(1.01186 0.000885206 -8.16499e-15)
(1.01117 0.000843518 -8.94695e-15)
(1.01051 0.000804978 -9.70422e-15)
(1.00988 0.000770956 -1.04234e-14)
(1.00927 0.000742259 -1.10953e-14)
(1.00869 0.00071913 -1.17111e-14)
(1.00812 0.00070131 -1.22707e-14)
(1.00756 0.000688138 -1.27761e-14)
(1.00701 0.000678684 -1.32299e-14)
(1.00646 0.000671883 -1.36357e-14)
(1.00592 0.000666671 -1.39904e-14)
(1.00539 0.000662096 -1.42922e-14)
(1.00485 0.000657389 -1.45364e-14)
(1.00432 0.000652011 -1.47194e-14)
(1.0038 0.000645647 -1.48432e-14)
(1.00328 0.000638184 -1.49107e-14)
(1.00276 0.000629661 -1.49309e-14)
(1.00225 0.00062021 -1.49088e-14)
(1.00175 0.000610011 -1.48414e-14)
(1.00126 0.000599241 -1.47149e-14)
(1.00078 0.000588043 -1.4498e-14)
(1.0003 0.0005765 -1.41506e-14)
(0.999836 0.000564607 -1.36222e-14)
(0.999379 0.000552257 -1.28599e-14)
(0.998931 0.000539228 -1.18165e-14)
(0.998494 0.000525201 -1.04552e-14)
(0.998066 0.000509797 -8.76252e-15)
(0.997651 0.000492647 -6.75602e-15)
(0.997249 0.000473421 -4.49506e-15)
(0.996863 0.000451779 -2.08809e-15)
(0.996493 0.000427137 3.07983e-16)
(0.996143 0.000398219 2.50003e-15)
(0.995817 0.000362468 4.2834e-15)
(0.995522 0.000315541 5.4708e-15)
(0.995267 0.000251238 5.91421e-15)
(0.995067 0.000162249 5.50913e-15)
(0.994945 4.19475e-05 4.18522e-15)
(0.994925 -0.000112932 1.91431e-15)
(0.995035 -0.00029933 -1.22777e-15)
(0.995295 -0.000505637 -4.98456e-15)
(0.995716 -0.000711323 -8.85425e-15)
(0.996288 -0.000889199 -1.20905e-14)
(0.996981 -0.00101035 -1.38329e-14)
(0.997742 -0.00105076 -1.33909e-14)
(0.998501 -0.000997943 -1.06279e-14)
(0.999186 -0.000855339 -6.31767e-15)
(0.999733 -0.00064307 -2.31007e-15)
(1.0001 -0.000394291 -1.37593e-15)
(1.00027 -0.000148076 -6.68639e-15)
(1.00027 5.921e-05 -2.09874e-14)
(1.00013 0.000201614 -4.56451e-14)
(0.999911 0.000268256 -7.987e-14)
(0.999679 0.000263909 -1.20297e-13)
(0.99948 0.000205749 -1.61145e-13)
(0.999349 0.000117632 -1.95139e-13)
(0.999298 2.37639e-05 -2.15142e-13)
(0.999321 -5.64846e-05 -2.16099e-13)
(0.999401 -0.000111528 -1.96639e-13)
(0.999512 -0.000138019 -1.59657e-13)
(0.999633 -0.000139282 -1.11679e-13)
(0.999744 -0.000122638 -6.11796e-14)
(0.999835 -9.65946e-05 -1.64177e-14)
(0.999901 -6.86336e-05 1.65283e-14)
(0.999944 -4.39587e-05 3.49404e-14)
(0.999969 -2.52011e-05 3.95936e-14)
(0.999981 -1.28228e-05 3.3937e-14)
(0.999986 -5.86891e-06 2.27088e-14)
(0.999988 -2.75289e-06 1.04864e-14)
(0.999989 -1.87049e-06 6.03694e-16)
(0.99999 -1.96005e-06 -5.3292e-15)
(0.999991 -2.22615e-06 -7.3049e-15)
(0.999993 -2.29661e-06 -6.38688e-15)
(0.999995 -2.09637e-06 -4.0375e-15)
(0.999997 -1.70713e-06 -1.55117e-15)
(0.999998 -1.25532e-06 2.65831e-16)
(0.999999 -8.44738e-07 1.1502e-15)
(0.999999 -5.30821e-07 1.24455e-15)
(0.999999 -3.23501e-07 8.83329e-16)
(1 -2.03768e-07 4.01124e-16)
(1 -1.41893e-07 2.00365e-17)
(1 -1.10635e-07 -1.76305e-16)
(1 -9.14561e-08 -2.09277e-16)
(1 -7.50631e-08 -1.48631e-16)
(1 -5.88036e-08 -6.42056e-17)
(1 -4.33539e-08 1.98852e-20)
(1 -3.01368e-08 3.00689e-17)
(1 -2.00048e-08 3.2187e-17)
(1 -1.2932e-08 2.04019e-17)
(1 -8.31787e-09 6.92755e-18)
(1 -5.35606e-09 -1.86943e-18)
(1 -3.41167e-09 -4.85127e-18)
(1 -1.97335e-09 -4.04476e-18)
(1 -9.62175e-10 -1.92865e-18)
(1 -7.08725e-12 -8.58533e-20)
(1 6.31839e-10 6.97097e-19)
(1.00014 -0.00198245 -2.8295e-20)
(1.00211 -0.00598998 -4.74157e-19)
(1.0066 -0.0102709 -8.14654e-19)
(1.01352 -0.0149323 -1.6445e-18)
(1.02327 -0.0200173 -1.78742e-18)
(1.03617 -0.0254037 -1.70428e-18)
(1.05248 -0.0308252 -1.13382e-17)
(1.07218 -0.0356882 1.83496e-17)
(1.09481 -0.0393565 3.68767e-18)
(1.11942 -0.0410516 -1.43548e-16)
(1.14426 -0.0403608 -2.70839e-17)
(1.16778 -0.0379427 6.88854e-16)
(1.18921 -0.0342976 1.36725e-15)
(1.20801 -0.0299202 8.16238e-16)
(1.22394 -0.0252457 -1.67656e-15)
(1.23703 -0.0205452 -5.75308e-15)
(1.24738 -0.0159743 -1.02278e-14)
(1.25516 -0.0115767 -1.37233e-14)
(1.26051 -0.00730746 -1.52265e-14)
(1.26349 -0.00306289 -1.42946e-14)
(1.26409 0.00127127 -1.13719e-14)
(1.26217 0.00576524 -7.57203e-15)
(1.25757 0.0103872 -3.50948e-15)
(1.25018 0.0149762 3.96785e-16)
(1.24003 0.0192563 3.87991e-15)
(1.22738 0.0228993 6.81434e-15)
(1.21274 0.0256112 9.19212e-15)
(1.19678 0.0272097 1.1081e-14)
(1.18026 0.0276646 1.25819e-14)
(1.1639 0.0270924 1.37916e-14)
(1.14827 0.0257145 1.47929e-14)
(1.13379 0.0238017 1.56019e-14)
(1.12065 0.0216209 1.62412e-14)
(1.10892 0.0193958 1.67029e-14)
(1.09853 0.0172865 1.69581e-14)
(1.08933 0.0153855 1.70068e-14)
(1.08116 0.0137264 1.68356e-14)
(1.07386 0.0122991 1.64576e-14)
(1.06729 0.0110674 1.59017e-14)
(1.06135 0.00998499 1.51876e-14)
(1.05597 0.00900729 1.43426e-14)
(1.05111 0.00809924 1.33712e-14)
(1.04675 0.00723849 1.22756e-14)
(1.04286 0.0064154 1.10497e-14)
(1.03944 0.00563095 9.67535e-15)
(1.03646 0.00489342 8.13833e-15)
(1.0339 0.00421479 6.4189e-15)
(1.03171 0.00360742 4.5117e-15)
(1.02986 0.00308141 2.42097e-15)
(1.02828 0.00264275 1.58644e-16)
(1.02693 0.00229244 -2.24645e-15)
(1.02575 0.00202631 -4.75708e-15)
(1.0247 0.00183574 -7.32915e-15)
(1.02372 0.00170873 -9.9123e-15)
(1.02279 0.00163131 -1.24617e-14)
(1.02188 0.00158898 -1.4936e-14)
(1.02099 0.00156811 -1.7308e-14)
(1.02009 0.00155687 -1.95637e-14)
(1.01919 0.00154599 -2.16994e-14)
(1.0183 0.00152906 -2.37245e-14)
(1.01742 0.00150244 -2.56511e-14)
(1.01656 0.00146501 -2.74964e-14)
(1.01572 0.00141763 -2.9273e-14)
(1.01491 0.00136257 -3.09841e-14)
(1.01414 0.00130291 -3.26189e-14)
(1.01341 0.00124201 -3.41518e-14)
(1.01271 0.00118304 -3.55538e-14)
(1.01205 0.00112866 -3.67857e-14)
(1.01141 0.00108081 -3.78186e-14)
(1.0108 0.00104064 -3.86356e-14)
(1.01022 0.00100845 -3.92364e-14)
(1.00965 0.000983849 -3.96413e-14)
(1.00908 0.000965867 -3.98718e-14)
(1.00853 0.000953148 -3.99523e-14)
(1.00798 0.000944155 -3.98963e-14)
(1.00743 0.000937361 -3.97042e-14)
(1.00689 0.000931402 -3.93708e-14)
(1.00635 0.000925192 -3.88815e-14)
(1.00581 0.000917975 -3.82335e-14)
(1.00527 0.000909322 -3.74357e-14)
(1.00474 0.000899092 -3.65106e-14)
(1.00422 0.000887361 -3.549e-14)
(1.0037 0.000874338 -3.43878e-14)
(1.00319 0.00086029 -3.3195e-14)
(1.00269 0.00084548 -3.18637e-14)
(1.00219 0.00083012 -3.03077e-14)
(1.00171 0.000814334 -2.84165e-14)
(1.00123 0.000798127 -2.60587e-14)
(1.00076 0.000781357 -2.31118e-14)
(1.0003 0.000763724 -1.94715e-14)
(0.999844 0.000744783 -1.50691e-14)
(0.999401 0.000724 -9.8885e-15)
(0.998968 0.000700836 -3.97231e-15)
(0.998547 0.000674803 2.55156e-15)
(0.998139 0.000645398 9.46454e-15)
(0.997747 0.000611803 1.64612e-14)
(0.997374 0.000572289 2.31789e-14)
(0.997022 0.000523427 2.92587e-14)
(0.996699 0.000459381 3.44027e-14)
(0.996414 0.000371787 3.84211e-14)
(0.996179 0.000250729 4.12227e-14)
(0.996016 8.71317e-05 4.27653e-14)
(0.995946 -0.000123602 4.30513e-14)
(0.995995 -0.000377528 4.22869e-14)
(0.996182 -0.000659058 4.10941e-14)
(0.996517 -0.000940351 4.06289e-14)
(0.996993 -0.00118432 4.25019e-14)
(0.997581 -0.00135131 4.83538e-14)
(0.998232 -0.00140822 5.90587e-14)
(0.998884 -0.0013376 7.37706e-14)
(0.999468 -0.0011439 8.91626e-14)
(0.999925 -0.000854544 9.92604e-14)
(1.00022 -0.000515021 9.6131e-14)
(1.00033 -0.000179127 7.14284e-14)
(1.00028 0.000102957 1.86063e-14)
(1.00011 0.000295346 -6.46817e-14)
(0.999874 0.000382976 -1.74791e-13)
(0.999634 0.000372479 -3.01169e-13)
(0.999436 0.000287747 -4.269e-13)
(0.99931 0.000162008 -5.31266e-13)
(0.999267 2.90372e-05 -5.94226e-13)
(0.9993 -8.41075e-05 -6.01789e-13)
(0.99939 -0.000161249 -5.50423e-13)
(0.999511 -0.000197779 -4.48646e-13)
(0.999639 -0.000198503 -3.15153e-13)
(0.999755 -0.000173889 -1.74032e-13)
(0.999848 -0.000136098 -4.86474e-14)
(0.999914 -9.58277e-05 4.38605e-14)
(0.999956 -6.05125e-05 9.5832e-14)
(0.999978 -3.38843e-05 1.09397e-13)
(0.999987 -1.65439e-05 9.41459e-14)
(0.99999 -7.04457e-06 6.32546e-14)
(0.999989 -3.03364e-06 2.94545e-14)
(0.999989 -2.14999e-06 2.02962e-15)
(0.99999 -2.55202e-06 -1.45117e-14)
(0.999991 -3.09667e-06 -2.01042e-14)
(0.999993 -3.27071e-06 -1.76623e-14)
(0.999995 -2.99805e-06 -1.12179e-14)
(0.999997 -2.42692e-06 -4.35541e-15)
(0.999998 -1.7616e-06 6.81871e-16)
(0.999999 -1.16309e-06 3.15095e-15)
(0.999999 -7.13736e-07 3.43249e-15)
(0.999999 -4.24972e-07 2.44683e-15)
(1 -2.64852e-07 1.11824e-15)
(1 -1.86812e-07 6.33654e-17)
(1 -1.49723e-07 -4.82499e-16)
(1 -1.26708e-07 -5.7757e-16)
(1 -1.05217e-07 -4.12015e-16)
(1 -8.25311e-08 -1.79211e-16)
(1 -6.05052e-08 -1.42183e-18)
(1 -4.1676e-08 8.27648e-17)
(1 -2.7418e-08 8.85519e-17)
(1 -1.76521e-08 5.61007e-17)
(1 -1.14144e-08 1.88994e-17)
(1 -7.4769e-09 -5.49419e-18)
(1 -4.89556e-09 -1.32169e-17)
(1 -2.96769e-09 -1.15266e-17)
(1 -1.56774e-09 -5.77855e-18)
(1 -2.82914e-10 -6.02402e-19)
(1 6.72296e-10 1.1267e-18)
(1.00013 -0.00251524 -2.14391e-18)
(1.00201 -0.00760442 -7.30103e-18)
(1.00633 -0.013067 -5.97716e-18)
(1.01302 -0.0190588 -9.45788e-18)
(1.02258 -0.0256554 5.01801e-19)
(1.03539 -0.032718 -3.02087e-17)
(1.05187 -0.0399146 2.22672e-17)
(1.07211 -0.0464382 8.29693e-17)
(1.0957 -0.0514221 -4.47337e-16)
(1.12164 -0.0536946 4.45586e-17)
(1.14773 -0.0526568 2.49079e-15)
(1.17214 -0.0493444 2.59668e-15)
(1.19417 -0.0444511 -5.16932e-15)
(1.21328 -0.0386471 -2.08265e-14)
(1.22933 -0.0325117 -3.80962e-14)
(1.2424 -0.0263927 -4.87628e-14)
(1.25268 -0.0204872 -4.72692e-14)
(1.26039 -0.0148426 -3.27099e-14)
(1.2657 -0.00938793 -8.18976e-15)
(1.26871 -0.00397059 2.05041e-14)
(1.26938 0.00157899 4.71207e-14)
(1.26755 0.00737287 6.89753e-14)
(1.26297 0.0133812 8.48993e-14)
(1.25546 0.0193909 9.48052e-14)
(1.24501 0.0250241 9.93932e-14)
(1.23188 0.029826 9.98004e-14)
(1.21661 0.0333888 9.73334e-14)
(1.19996 0.0354616 9.3129e-14)
(1.18277 0.0360061 8.80546e-14)
(1.16585 0.0351863 8.26672e-14)
(1.1498 0.0333085 7.72334e-14)
(1.13506 0.0307418 7.18218e-14)
(1.12181 0.0278456 6.63811e-14)
(1.11008 0.0249168 6.08059e-14)
(1.09976 0.0221637 5.50412e-14)
(1.09067 0.0197027 4.90922e-14)
(1.08262 0.0175709 4.30203e-14)
(1.07542 0.0157483 3.69164e-14)
(1.06892 0.0141821 3.08545e-14)
(1.06304 0.0128073 2.48812e-14)
(1.05768 0.0115636 1.89905e-14)
(1.05284 0.0104042 1.31279e-14)
(1.04848 0.00930036 7.20257e-15)
(1.0446 0.00824052 1.10371e-15)
(1.04119 0.00722733 -5.26727e-15)
(1.03824 0.00627296 -1.19844e-14)
(1.0357 0.00539427 -1.90777e-14)
(1.03355 0.00460834 -2.65258e-14)
(1.03174 0.00392894 -3.42567e-14)
(1.03021 0.00336421 -4.21473e-14)
(1.02891 0.00291542 -5.00383e-14)
(1.02777 0.00257696 -5.77526e-14)
(1.02675 0.00233721 -6.51116e-14)
(1.0258 0.00218009 -7.19518e-14)
(1.02489 0.00208698 -7.81544e-14)
(1.02399 0.00203865 -8.36469e-14)
(1.0231 0.00201707 -8.84154e-14)
(1.0222 0.00200674 -9.24953e-14)
(1.02129 0.00199562 -9.59541e-14)
(1.02039 0.00197544 -9.88852e-14)
(1.01949 0.00194169 -1.01382e-13)
(1.01861 0.00189315 -1.03526e-13)
(1.01776 0.00183119 -1.05371e-13)
(1.01695 0.00175901 -1.06922e-13)
(1.01617 0.00168082 -1.08141e-13)
(1.01543 0.00160113 -1.08946e-13)
(1.01473 0.00152419 -1.09242e-13)
(1.01406 0.0014535 -1.0894e-13)
(1.01342 0.00139162 -1.07988e-13)
(1.01281 0.00133999 -1.0639e-13)
(1.01222 0.00129899 -1.04203e-13)
(1.01165 0.00126802 -1.01533e-13)
(1.01108 0.00124574 -9.84899e-14)
(1.01052 0.00123033 -9.51679e-14)
(1.00997 0.00121972 -9.16183e-14)
(1.00941 0.00121188 -8.78384e-14)
(1.00886 0.001205 -8.37978e-14)
(1.00831 0.00119767 -7.94567e-14)
(1.00776 0.00118892 -7.48034e-14)
(1.00721 0.00117821 -6.98741e-14)
(1.00667 0.00116542 -6.47405e-14)
(1.00613 0.00115066 -5.9491e-14)
(1.0056 0.00113425 -5.41738e-14)
(1.00508 0.00111657 -4.87614e-14)
(1.00456 0.00109797 -4.31298e-14)
(1.00405 0.00107875 -3.70597e-14)
(1.00355 0.00105908 -3.02825e-14)
(1.00306 0.00103899 -2.25146e-14)
(1.00257 0.0010183 -1.35076e-14)
(1.00209 0.000996656 -3.07574e-15)
(1.00162 0.000973478 8.89617e-15)
(1.00115 0.000948075 2.2444e-14)
(1.0007 0.000919722 3.75236e-14)
(1.00025 0.000887746 5.39923e-14)
(0.999818 0.000851452 7.16004e-14)
(0.999397 0.000809779 8.99986e-14)
(0.998993 0.000760587 1.08795e-13)
(0.998608 0.000699685 1.27656e-13)
(0.998249 0.000619957 1.46413e-13)
(0.997924 0.000511166 1.65126e-13)
(0.997645 0.000361105 1.84023e-13)
(0.997428 0.000158501 2.03345e-13)
(0.997295 -0.000102505 2.23247e-13)
(0.997266 -0.000417292 2.44137e-13)
(0.997359 -0.000766812 2.67221e-13)
(0.997584 -0.00111671 2.94647e-13)
(0.997934 -0.00142094 3.29113e-13)
(0.998383 -0.00163001 3.72641e-13)
(0.99889 -0.00170239 4.24614e-13)
(0.999398 -0.00161598 4.7968e-13)
(0.999846 -0.00137608 5.26419e-13)
(1.00018 -0.00101685 5.47611e-13)
(1.00037 -0.000595279 5.2249e-13)
(1.00039 -0.000178972 4.30815e-13)
(1.00028 0.000168931 2.58244e-13)
(1.00007 0.000403256 1.89381e-15)
(0.999816 0.000505133 -3.25725e-13)
(0.999566 0.000483189 -6.94596e-13)
(0.999369 0.000367987 -1.05859e-12)
(0.999252 0.000202004 -1.36198e-12)
(0.999222 2.84343e-05 -1.55109e-12)
(0.999271 -0.000118113 -1.58838e-12)
(0.999376 -0.000217016 -1.4643e-12)
(0.999511 -0.000262587 -1.20161e-12)
(0.999649 -0.000261338 -8.50558e-13)
(0.999772 -0.000227158 -4.76033e-13)
(0.999867 -0.000176124 -1.41156e-13)
(0.999933 -0.000122368 1.07532e-13)
(0.999971 -7.56746e-05 2.48842e-13)
(0.99999 -4.08908e-05 2.87816e-13)
(0.999995 -1.86766e-05 2.4955e-13)
(0.999994 -6.95837e-06 1.68893e-13)
(0.999991 -2.47119e-06 7.97081e-14)
(0.999989 -1.97735e-06 6.84452e-15)
(0.999989 -2.98339e-06 -3.74653e-14)
(0.999991 -3.97678e-06 -5.28069e-14)
(0.999993 -4.3195e-06 -4.674e-14)
(0.999995 -3.97034e-06 -2.98899e-14)
(0.999997 -3.18216e-06 -1.17708e-14)
(0.999998 -2.26582e-06 1.6169e-15)
(0.999999 -1.45475e-06 8.23773e-15)
(0.999999 -8.61493e-07 9.05884e-15)
(1 -4.95026e-07 6.49416e-15)
(1 -3.04043e-07 2.99134e-15)
(1 -2.19707e-07 1.94923e-16)
(1 -1.83988e-07 -1.2635e-15)
(1 -1.60984e-07 -1.52503e-15)
(1 -1.35639e-07 -1.0926e-15)
(1 -1.06379e-07 -4.7823e-16)
(1 -7.72447e-08 -6.09091e-18)
(1 -5.24438e-08 2.16539e-16)
(1 -3.40183e-08 2.33691e-16)
(1 -2.17495e-08 1.48584e-16)
(1 -1.41577e-08 5.01202e-17)
(1 -9.48206e-09 -1.37167e-17)
(1 -6.41731e-09 -3.59277e-17)
(1 -4.08532e-09 -3.08576e-17)
(1 -2.31646e-09 -1.54121e-17)
(1 -7.38765e-10 -2.03199e-18)
(1 5.6799e-10 4.41368e-18)
(1.00012 -0.00302019 1.95684e-18)
(1.00189 -0.00913806 7.9475e-18)
(1.00595 -0.015745 5.41186e-18)
(1.01234 -0.0230593 1.01347e-17)
(1.0216 -0.0312061 2.2579e-17)
(1.03426 -0.0400488 -9.80156e-17)
(1.0509 -0.0492015 4.71822e-16)
(1.07179 -0.0576141 -1.00705e-15)
(1.09665 -0.0641533 -4.52203e-16)
(1.12437 -0.0670803 7.05832e-15)
(1.1521 -0.065552 2.41687e-15)
(1.17764 -0.0611697 -3.18938e-14)
(1.20041 -0.0548593 -7.73494e-14)
(1.2199 -0.0474932 -9.09299e-14)
(1.23605 -0.0398083 -4.04257e-14)
(1.24908 -0.0322231 7.60446e-14)
(1.25923 -0.0249688 2.34291e-13)
(1.26682 -0.0180871 3.98815e-13)
(1.27207 -0.0114701 5.36535e-13)
(1.27511 -0.00490173 6.2142e-13)
(1.27589 0.00185973 6.45476e-13)
(1.27418 0.00898191 6.31116e-13)
(1.26966 0.016442 5.90503e-13)
(1.26204 0.0239679 5.33905e-13)
(1.25123 0.0310598 4.70247e-13)
(1.23748 0.0371107 4.06246e-13)
(1.2214 0.0415766 3.46087e-13)
(1.20385 0.0441268 2.9166e-13)
(1.18581 0.0447177 2.43219e-13)
(1.16816 0.0435742 2.00109e-13)
(1.15159 0.0411048 1.61287e-13)
(1.13652 0.0377944 1.25716e-13)
(1.12315 0.0341072 9.2587e-14)
(1.11143 0.0304199 6.14687e-14)
(1.10122 0.0269905 3.22813e-14)
(1.09228 0.0239562 5.20882e-15)
(1.08438 0.0213529 -1.94936e-14)
(1.07731 0.0191453 -4.16874e-14)
(1.07092 0.0172582 -6.14564e-14)
(1.06509 0.0156046 -7.91445e-14)
(1.05978 0.0141055 -9.5288e-14)
(1.05495 0.0127014 -1.10526e-13)
(1.05059 0.011357 -1.25493e-13)
(1.04672 0.0100595 -1.40727e-13)
(1.04333 0.00881424 -1.56599e-13)
(1.0404 0.00763858 -1.73265e-13)
(1.0379 0.00655531 -1.90654e-13)
(1.0358 0.00558711 -2.08488e-13)
(1.03405 0.00475204 -2.2632e-13)
(1.03258 0.00406065 -2.436e-13)
(1.03133 0.00351455 -2.59734e-13)
(1.03024 0.00310646 -2.74152e-13)
(1.02927 0.00282139 -2.86376e-13)
(1.02835 0.00263873 -2.9608e-13)
(1.02746 0.0025347 -3.03118e-13)
(1.02658 0.00248489 -3.0753e-13)
(1.02569 0.00246652 -3.09517e-13)
(1.02478 0.00246018 -3.09389e-13)
(1.02386 0.00245092 -3.07519e-13)
(1.02294 0.00242867 -3.04283e-13)
(1.02203 0.00238812 -3.0001e-13)
(1.02114 0.00232812 -2.9494e-13)
(1.02027 0.00225077 -2.8919e-13)
(1.01944 0.0021604 -2.82737e-13)
(1.01865 0.00206253 -2.75429e-13)
(1.01791 0.00196301 -2.67027e-13)
(1.0172 0.00186725 -2.57279e-13)
(1.01653 0.0017797 -2.46003e-13)