/*--------------------------------*- C++ -*----------------------------------*\
  =========                 |
  \\      /  F ield         | OpenFOAM: The Open Source CFD Toolbox
   \\    /   O peration     | Website:  https://openfoam.org
    \\  /    A nd           | Version:  11
     \\/     M anipulation  |
\*---------------------------------------------------------------------------*/
FoamFile
{
    format      ascii;
    class       volScalarField;
    location    "15.594559";
    object      p;
}
// * * * * * * * * * * * * * * * * * * * * * * * * * * * * * * * * * * * * * //

dimensions      [0 2 -2 0 0 0 0];

internalField   nonuniform List<scalar> 
7132
(
0.0891317
0.0877698
0.0831197
0.0764791
0.0673801
0.0558263
0.0420376
0.0265576
0.0103385
-0.00494013
-0.0176671
-0.0256514
-0.0284936
-0.0262075
-0.0197609
-0.0109587
-0.0014906
0.00730863
0.0147396
0.0208705
0.0263054
0.0316396
0.0370628
0.0424087
0.0474158
0.051913
0.055896
0.0594325
0.0625365
0.0650001
0.0663345
0.066074
0.0643215
0.0620014
0.0602817
0.0597759
0.0602948
0.0612574
0.0621708
0.0628351
0.0633329
0.0638696
0.064581
0.065237
0.0651479
0.0636056
0.0606778
0.0574978
0.0554596
0.0551595
0.056141
0.0574851
0.0584949
0.0589436
0.0589895
0.0589616
0.0591033
0.0592453
0.0587346
0.0568986
0.0538344
0.0506836
0.0488589
0.0489633
0.0504676
0.0522921
0.0536003
0.0541279
0.0540673
0.0537982
0.0535812
0.0532697
0.0523246
0.050275
0.0473426
0.0445714
0.0431589
0.0435972
0.0453856
0.047484
0.0490244
0.0496908
0.0496571
0.0493064
0.0488922
0.0482935
0.0470972
0.0450318
0.0424235
0.0401851
0.039242
0.0399155
0.041749
0.0438555
0.0454522
0.0461978
0.0462035
0.0458148
0.0452842
0.0445378
0.04326
0.0412843
0.0389609
0.037098
0.0364617
0.0372875
0.0391653
0.0413253
0.0430583
0.0439934
0.0441472
0.0437845
0.0431491
0.0422291
0.0407829
0.0386637
0.0361703
0.0340549
0.0331063
0.0336656
0.0354509
0.0377518
0.0398171
0.041144
0.041572
0.0412174
0.0402997
0.0389166
0.0369353
0.0341287
0.0305101
0.026562
0.0231108
0.0209075
0.0202378
0.020826
0.0220306
0.0231712
0.0237685
0.0236177
0.0227442
0.0213137
0.0195636
0.0177712
0.0162579
0.0153683
0.0154158
0.0165596
0.0187309
0.0216382
0.0247831
0.0278179
0.0299964
0.0317349
0.0310098
0.0312422
0.0241638
0.0262565
0.00284384
0.025838
0.0896789
0.0883209
0.0836859
0.0770491
0.067928
0.0562979
0.0423525
0.026609
0.0100261
-0.00566601
-0.0187714
-0.0269027
-0.0297129
-0.0271923
-0.0203623
-0.0111633
-0.00138457
0.00758023
0.0150146
0.0210333
0.0263315
0.0315765
0.0369736
0.0423369
0.0473832
0.0519275
0.0559606
0.0595468
0.062697
0.0651957
0.0665292
0.0662003
0.0643103
0.0618353
0.0600131
0.0594851
0.06004
0.0610586
0.062026
0.0627364
0.0632732
0.0638418
0.0645816
0.0652583
0.0651586
0.0635453
0.0604887
0.0571756
0.055068
0.0547848
0.0558442
0.0572794
0.058365
0.0588672
0.0589465
0.0589356
0.0590833
0.059216
0.0586649
0.0567431
0.0535581
0.0502952
0.0484202
0.0485557
0.0501537
0.05209
0.0534936
0.0540859
0.0540596
0.0538016
0.053579
0.0532389
0.0522292
0.0500768
0.0470281
0.0441695
0.0427324
0.0432126
0.0450925
0.0472999
0.0489385
0.0496747
0.0496779
0.0493367
0.0489106
0.0482727
0.0470014
0.0448314
0.0421181
0.0398136
0.038866
0.0395914
0.0415117
0.043713
0.0453937
0.0462011
0.0462414
0.0458608
0.0453139
0.0445212
0.0431636
0.0410857
0.038667
0.0367505
0.0361205
0.0370052
0.0389717
0.0412229
0.0430326
0.0440235
0.0442104
0.043857
0.0432043
0.0422332
0.0407006
0.0384727
0.0358771
0.0336991
0.032748
0.0333627
0.0352424
0.0376485
0.0398065
0.0412026
0.0416752
0.0413415
0.0404188
0.0389963
0.0369337
0.0340095
0.0302618
0.0262091
0.0227091
0.0205266
0.019939
0.0206468
0.0219778
0.023224
0.0238887
0.0237615
0.0228708
0.0213896
0.0195637
0.0176817
0.016081
0.015126
0.0151483
0.0163164
0.0185586
0.0215687
0.0248287
0.0279696
0.0302351
0.0320212
0.0313237
0.0315138
0.0244188
0.0263526
0.00296068
0.0257165
0.0907712
0.0894229
0.0848204
0.0781967
0.069037
0.0572607
0.0430056
0.0267318
0.00940834
-0.00713602
-0.0210243
-0.0294486
-0.0321838
-0.0291626
-0.0215237
-0.0114998
-0.00109109
0.00819591
0.0156112
0.0213712
0.0263673
0.0314202
0.0367646
0.0421675
0.0472963
0.051937
0.0560711
0.0597585
0.0630042
0.0655788
0.0669147
0.0664468
0.0642709
0.0614718
0.059438
0.0588692
0.0595046
0.0606409
0.0617182
0.0625192
0.0631308
0.0637618
0.0645589
0.0652788
0.0651584
0.0633982
0.0600731
0.0564817
0.0542309
0.0539892
0.055217
0.056844
0.0580854
0.0586934
0.0588357
0.0588568
0.059017
0.0591329
0.0585001
0.0563988
0.0529607
0.0494653
0.0474882
0.0476931
0.0494887
0.0516586
0.0532584
0.0539795
0.0540177
0.0537787
0.0535459
0.053152
0.0520155
0.0496578
0.0463745
0.0433396
0.0418533
0.0424205
0.0444869
0.0469145
0.0487489
0.0496221
0.0496958
0.049372
0.0489236
0.0482097
0.0467894
0.0444094
0.0414851
0.0390486
0.0380943
0.0389285
0.0410264
0.0434191
0.0452665
0.0461944
0.0463014
0.0459374
0.0453592
0.0444736
0.0429525
0.0406639
0.0380491
0.0360227
0.0354074
0.0364169
0.038568
0.0410068
0.0429724
0.044075
0.0443283
0.0439953
0.0433095
0.0422342
0.0405206
0.0380627
0.0352505
0.0329398
0.0319825
0.032716
0.0347953
0.0374208
0.0397709
0.0413097
0.041874
0.0415849
0.0406551
0.0391532
0.0369215
0.0337494
0.029728
0.0254535
0.0218509
0.0197136
0.0193009
0.0202614
0.0218567
0.0233223
0.0241268
0.0240496
0.0231262
0.0215439
0.019565
0.0174997
0.0157176
0.0146247
0.0145917
0.0158079
0.0181958
0.021418
0.0249156
0.0282746
0.0307179
0.0326021
0.0319574
0.0320645
0.0249272
0.0265456
0.0031807
0.0254357
0.0924053
0.0910738
0.0865282
0.0799358
0.0707331
0.0587525
0.044042
0.0269629
0.00849451
-0.00939845
-0.0245351
-0.0334148
-0.0360498
-0.0322578
-0.0233552
-0.0120398
-0.000641663
0.009155
0.0165347
0.0218744
0.0263878
0.0311427
0.0364138
0.0418845
0.0471411
0.0519262
0.0562098
0.0600482
0.0634391
0.0661334
0.0674746
0.0667831
0.0641439
0.0608227
0.05846
0.0578481
0.058634
0.0599689
0.0612198
0.0621565
0.0628762
0.063596
0.0644748
0.0652548
0.0650914
0.0630844
0.0593175
0.0552749
0.0528078
0.0526622
0.0541869
0.0561354
0.0576254
0.0583926
0.0586215
0.0586795
0.0588484
0.0589332
0.058173
0.0557939
0.0519613
0.048101
0.0459641
0.046284
0.0484035
0.0509505
0.0528599
0.0537759
0.053904
0.0536863
0.053436
0.0529616
0.0516306
0.0489539
0.0453063
0.0420016
0.0404479
0.0411633
0.0435282
0.0462981
0.04843
0.0495061
0.0496821
0.0493846
0.0489048
0.0480743
0.0464176
0.0437021
0.0404427
0.037802
0.0368498
0.0378707
0.0402582
0.0429524
0.0450537
0.0461606
0.0463671
0.0460311
0.0454073
0.0443736
0.0425855
0.0399526
0.0370205
0.0348219
0.0342395
0.0354607
0.0379139
0.0406532
0.0428624
0.044136
0.0444913
0.0441931
0.0434581
0.0422145
0.0402026
0.0373653
0.0341986
0.0316751
0.0307163
0.0316489
0.0340541
0.0370335
0.0396887
0.0414508
0.0421581
0.0419404
0.041002
0.039374
0.0368677
0.0332926
0.0288294
0.0242021
0.0204431
0.0183885
0.018265
0.0196347
0.0216523
0.0234645
0.0244879
0.0244891
0.0235161
0.0217779
0.0195593
0.017203
0.0151299
0.0138141
0.0136913
0.0149854
0.0176082
0.0211701
0.0250442
0.0287448
0.0314617
0.0334933
0.0329236
0.0328952
0.0256919
0.0268015
0.00353276
0.0248491
0.0945746
0.0932702
0.0888154
0.082287
0.0730559
0.0608331
0.045536
0.0273681
0.00731143
-0.0125141
-0.0294486
-0.0389319
-0.0413927
-0.0364577
-0.025709
-0.0125257
0.000233051
0.0106835
0.0179136
0.0225498
0.0263047
0.0306204
0.0358093
0.0414023
0.046854
0.0518435
0.0563304
0.0603727
0.0639625
0.0668277
0.0681809
0.0671616
0.0638334
0.0597399
0.0569143
0.0562817
0.0573307
0.0589768
0.0604795
0.0615981
0.0624525
0.0632778
0.0642503
0.0650969
0.064858
0.0624814
0.0580594
0.0533505
0.0505802
0.0506168
0.0526229
0.0550708
0.0569274
0.057909
0.0582333
0.05831
0.0584668
0.0585025
0.0575744
0.0548268
0.0504631
0.0461034
0.043743
0.0442222
0.0468037
0.0498907
0.0522375
0.0534167
0.0536535
0.053455
0.0531843
0.052606
0.0510013
0.0478633
0.0436909
0.0400111
0.0383891
0.0393469
0.0421507
0.0454022
0.047939
0.0492835
0.0495935
0.0493358
0.0488204
0.0478267
0.0458238
0.0426147
0.0388681
0.0359405
0.0350092
0.0363245
0.0391439
0.0422719
0.044725
0.0460731
0.0464154
0.0461253
0.0454424
0.0441926
0.0420069
0.0388642
0.0354701
0.0330284
0.0325049
0.0340448
0.0369427
0.0401179
0.0426733
0.0441859
0.0446853
0.044442
0.0436398
0.0421494
0.0396952
0.036299
0.0326173
0.029791
0.0288377
0.0300636
0.0329412
0.0364294
0.0395202
0.041599
0.0425094
0.0423959
0.0414486
0.0396383
0.036732
0.0325745
0.0274833
0.0223665
0.0184028
0.0164813
0.0167768
0.0187286
0.0213417
0.02364
0.0249702
0.0250834
0.0240457
0.0220929
0.0195367
0.0167637
0.0142697
0.0126309
0.0123792
0.0137876
0.0167484
0.0207923
0.0251932
0.0293633
0.0324485
0.0346717
0.0341931
0.0339697
0.0266764
0.0270605
0.00403221
0.0237545
0.0972686
0.0960053
0.0916882
0.0852759
0.0760573
0.0635843
0.0475909
0.0280406
0.00589366
-0.0165942
-0.0360288
-0.0463022
-0.048592
-0.0421283
-0.0288625
-0.0132822
0.00146343
0.0127999
0.0197766
0.0233773
0.0260501
0.0297757
0.0348896
0.0406763
0.0463949
0.0516441
0.0563788
0.0606681
0.064506
0.0675994
0.0689677
0.0674805
0.063163
0.0579722
0.0545347
0.0539532
0.0554506
0.0575724
0.0594268
0.0607743
0.0617744
0.0626866
0.0637131
0.0645989
0.0642648
0.0614464
0.0561857
0.0505588
0.0473332
0.0476208
0.0503466
0.0535349
0.0559112
0.0571626
0.0575665
0.0576164
0.0577329
0.0577079
0.0565668
0.0533284
0.048259
0.0432622
0.0406521
0.0413833
0.0445926
0.0483986
0.0513182
0.0528275
0.0531885
0.0530123
0.052728
0.0520183
0.0500307
0.046242
0.0413431
0.0371692
0.0354981
0.0368393
0.0402675
0.0441675
0.047225
0.0489039
0.0493834
0.0491884
0.0486354
0.0474158
0.0449249
0.0410307
0.0366231
0.0333216
0.0324424
0.0341832
0.0376076
0.0413262
0.0442418
0.0458987
0.046419
0.046199
0.0454399
0.0438869
0.041144
0.0373012
0.0332882
0.0305338
0.0301043
0.0320843
0.0355888
0.0393524
0.042369
0.0441962
0.0448871
0.0447215
0.0438271
0.0419928
0.0389289
0.0347772
0.0304149
0.0272005
0.0262666
0.0278894
0.0313958
0.0355581
0.039224
0.0417203
0.0428992
0.0429253
0.0419646
0.0399021
0.0364518
0.031521
0.0256199
0.0198946
0.0157004
0.01398
0.014833
0.0175416
0.0209238
0.0238477
0.0255732
0.0258329
0.0247132
0.0224783
0.0194684
0.0161293
0.0130648
0.010995
0.0105812
0.0121551
0.0155728
0.0202502
0.0253275
0.0300868
0.0336207
0.0360659
0.0356857
0.0352008
0.0277984
0.0272309
0.00467512
0.0219795
0.100471
0.0992682
0.0951516
0.0889326
0.0798031
0.0671151
0.0503527
0.0291238
0.00431812
-0.0217569
-0.0445657
-0.0557448
-0.0576795
-0.0491468
-0.0324407
-0.0135129
0.00359803
0.0159186
0.0223285
0.0243097
0.0253897
0.0283248
0.0334192
0.0395384
0.0456422
0.0512254
0.0562519
0.060824
0.0649574
0.0683372
0.0697069
0.0675466
0.0618127
0.0550764
0.0508774
0.050529
0.0527848
0.0556266
0.057964
0.0595838
0.0607048
0.061606
0.0625598
0.0634181
0.0629923
0.0597481
0.05357
0.0468148
0.0429402
0.0434817
0.047164
0.0513779
0.0544624
0.0560391
0.0564851
0.0564557
0.0565246
0.0564429
0.0550167
0.0510926
0.0450723
0.039282
0.036443
0.0375984
0.0416573
0.0463845
0.050015
0.0519188
0.0524235
0.0522873
0.0520047
0.051122
0.0486106
0.0439537
0.0381157
0.0333293
0.0316372
0.0335206
0.0377886
0.0425261
0.0462279
0.0483087
0.0489993
0.0488992
0.0483043
0.046779
0.0436371
0.0388567
0.0336198
0.0298664
0.0290751
0.0313756
0.0355867
0.0400627
0.0435582
0.0455962
0.0463416
0.0462189
0.0453594
0.0434007
0.0399284
0.0351951
0.030418
0.0272935
0.0269973
0.0295369
0.0338072
0.0383124
0.0419079
0.0441285
0.0450613
0.0449956
0.0439748
0.0416871
0.0378405
0.0327459
0.0275575
0.0238886
0.0229932
0.0251119
0.0293912
0.0343821
0.038757
0.0417706
0.0432854
0.0434871
0.0425022
0.0401067
0.0359636
0.0300827
0.0232233
0.0168117
0.012393
0.0109525
0.0124929
0.0161129
0.0204147
0.0240868
0.0262877
0.0267253
0.0255034
0.0229079
0.0193103
0.0152388
0.0114481
0.00884874
0.0082587
0.0100643
0.0140602
0.0195092
0.0253867
0.0308231
0.0348559
0.0375321
0.0372474
0.0364374
0.0289188
0.0272057
0.00541222
0.0195024
0.10416
0.103041
0.0992061
0.093288
0.0843693
0.0715595
0.0540079
0.0308094
0.00268087
-0.0282248
-0.0555999
-0.0678931
-0.0695903
-0.0583336
-0.0370067
-0.0136902
0.00656722
0.0201378
0.0256531
0.0252724
0.0241299
0.0260642
0.0312553
0.0378954
0.044514
0.0504889
0.0558221
0.0606795
0.0651246
0.0688131
0.0701221
0.0669702
0.0592356
0.0503665
0.045258
0.0455013
0.0490286
0.0529661
0.0559671
0.0578922
0.0590439
0.0597412
0.0604461
0.0612266
0.0607324
0.0570239
0.0497841
0.0417465
0.0371609
0.0380403
0.0429166
0.0484499
0.052445
0.0544021
0.0548486
0.0547067
0.0547489
0.0546107
0.0527857
0.0479417
0.0407145
0.0339777
0.0309414
0.0327199
0.0378928
0.0437644
0.0482421
0.050601
0.0512781
0.0512137
0.050947
0.049833
0.0466463
0.0409204
0.0339674
0.0284764
0.0267876
0.0293533
0.0346647
0.0404238
0.0448895
0.0474379
0.0483847
0.0484157
0.0477668
0.0458471
0.0418961
0.0360554
0.029858
0.0256002
0.024932
0.027907
0.033063
0.0384462
0.0426299
0.0451175
0.0461347
0.0461331
0.0451414
0.0426711
0.0383108
0.0325299
0.0268825
0.0233559
0.0232333
0.0264316
0.0315986
0.0369736
0.0412493
0.0439342
0.0451548
0.0452042
0.0440151
0.041165
0.0363846
0.0302024
0.0240907
0.0199348
0.0191066
0.0217969
0.0269583
0.0328956
0.0380851
0.0416991
0.0436087
0.0440164
0.042988
0.040176
0.0352093
0.0282477
0.0203473
0.0132339
0.00863453
0.00755572
0.00988855
0.0145312
0.019857
0.0243624
0.0270954
0.0277309
0.0263788
0.0233293
0.0189983
0.0140305
0.00938219
0.00619244
0.00544521
0.0075599
0.0122358
0.0185518
0.025297
0.0314424
0.0359798
0.038869
0.0386658
0.0374799
0.0298628
0.0268868
0.00616028
0.0164802
0.1083
0.107296
0.103845
0.0983724
0.0898432
0.0770874
0.0588117
0.033391
0.00118489
-0.0362126
-0.0696712
-0.0830029
-0.0842327
-0.0693349
-0.0419033
-0.0129392
0.0111758
0.0260465
0.0299807
0.0260571
0.0217352
0.022407
0.0279491
0.0354518
0.0428019
0.0492482
0.0548803
0.0599671
0.0645939
0.0684349
0.0696516
0.065449
0.0552874
0.0435137
0.0370164
0.0382055
0.0437631
0.0493659
0.0532844
0.0555268
0.0565431
0.0568027
0.0571454
0.0578765
0.0573174
0.0529391
0.0443228
0.0348384
0.0296261
0.031104
0.037476
0.044621
0.049719
0.0521092
0.0525321
0.0522765
0.0523271
0.0521171
0.0497686
0.0438109
0.0351999
0.0274128
0.0241916
0.0267405
0.0332601
0.0404805
0.045925
0.0487918
0.0496752
0.0497197
0.0494766
0.0480713
0.0440871
0.0371583
0.0289921
0.0227531
0.0210867
0.0244252
0.0309221
0.0378402
0.0431617
0.0462297
0.0474723
0.0476627
0.0469452
0.0445538
0.0396771
0.0326682
0.0254456
0.0206691
0.0201552
0.0238778
0.0300801
0.0364708
0.0414186
0.0444072
0.0457329
0.045867
0.0447088
0.0416395
0.0362807
0.0293623
0.0228007
0.0188737
0.01896
0.0228776
0.0290169
0.0353375
0.0403566
0.0435533
0.0450938
0.0452633
0.0438631
0.0403648
0.0345537
0.0272135
0.0201509
0.0155169
0.0147855
0.0180901
0.0241855
0.0311252
0.037184
0.0414469
0.0437901
0.0444228
0.0433257
0.0400283
0.0341547
0.0260607
0.0171253
0.00936543
0.00466317
0.00401506
0.0072061
0.0129191
0.0193054
0.0246736
0.0279588
0.028791
0.0272666
0.0236637
0.0184653
0.0124799
0.00690995
0.00313655
0.00228761
0.00477954
0.0101848
0.0173844
0.0249776
0.0317855
0.0367761
0.0398315
0.0396876
0.0381034
0.0304476
0.0262019
0.00683163
0.0131575
0.112847
0.111996
0.109051
0.104207
0.0963128
0.0838905
0.0650702
0.0372486
6.28674e-05
-0.0461815
-0.0878613
-0.102433
-0.103507
-0.0838445
-0.0480534
-0.011631
0.0175297
0.0339785
0.0354612
0.0263401
0.0175762
0.0167939
0.0231745
0.0320327
0.0403618
0.0473228
0.0531789
0.0582627
0.0625339
0.0660176
0.0670864
0.0623811
0.0503757
0.0352612
0.0263389
0.0281979
0.0365093
0.0445319
0.0497283
0.0522928
0.0529682
0.0525973
0.0525683
0.0533111
0.0526273
0.0473354
0.037077
0.0260155
0.0202508
0.0225895
0.0307827
0.0398112
0.0461707
0.0490396
0.0494389
0.0490929
0.0491839
0.0488829
0.0459296
0.0387738
0.0287336
0.0198762
0.0164701
0.0198469
0.0278382
0.0365343
0.0430197
0.0464256
0.0475422
0.0477257
0.0475076
0.0457731
0.0409385
0.0327774
0.0234028
0.0164345
0.0148075
0.0189452
0.0266746
0.0348041
0.0410168
0.0446255
0.0461851
0.0465508
0.0457514
0.0428466
0.037003
0.0288143
0.0205866
0.0153225
0.0149871
0.019476
0.0267454
0.0341665
0.0398973
0.0434029
0.0450523
0.0453246
0.0439741
0.0402616
0.0338728
0.0258201
0.0183773
0.0140887
0.0144094
0.0190554
0.0261677
0.0334339
0.0391989
0.0429142
0.0447817
0.0450637
0.0434219
0.0392381
0.0323827
0.0239105
0.0159504
0.0108907
0.0102843
0.0142029
0.0212122
0.0291301
0.0360407
0.0409477
0.0437297
0.0445885
0.0433984
0.0395826
0.0327949
0.023619
0.0137534
0.00547198
0.000770655
0.000613259
0.00466404
0.0114164
0.0188177
0.025008
0.0288165
0.0298148
0.0280596
0.0238141
0.017664
0.0106316
0.00418308
-8.53725e-05
-0.000957601
0.00194422
0.00804804
0.016042
0.0243561
0.0316905
0.037021
0.0401673
0.0400587
0.0380943
0.0305124
0.025109
0.00735647
0.00976238
0.117742
0.117085
0.11479
0.110801
0.103869
0.0922069
0.0732062
0.0429843
-0.000172615
-0.0585691
-0.111185
-0.126076
-0.126809
-0.101165
-0.054622
-0.00870738
0.0265416
0.0445449
0.0421971
0.0255503
0.0105368
0.00805275
0.0161011
0.0271475
0.0368717
0.0444352
0.0503721
0.0548887
0.0577862
0.0602145
0.0610295
0.0564971
0.0435308
0.0253747
0.0135692
0.0156033
0.0270337
0.0381948
0.0450887
0.0479991
0.048155
0.0470518
0.0467047
0.0475138
0.0466371
0.040319
0.0283844
0.0157503
0.009448
0.0127337
0.0229399
0.0340293
0.0417444
0.0451166
0.0455044
0.0450959
0.0452501
0.04486
0.041312
0.0330206
0.0216548
0.0118052
0.00822032
0.0123903
0.0218329
0.0320046
0.0395245
0.0434587
0.0448108
0.0451455
0.0449551
0.042901
0.0372628
0.0279668
0.0175014
0.00988947
0.00831994
0.0132159
0.0221139
0.0313958
0.0384525
0.0425711
0.0444365
0.0449761
0.0440955
0.0406958
0.0339453
0.0246791
0.0155585
0.00988414
0.00974278
0.0149555
0.0232191
0.0315964
0.0380513
0.0420371
0.0439932
0.0443939
0.0428485
0.0385164
0.0311676
0.0220902
0.0138796
0.00930435
0.00987092
0.0151962
0.0231957
0.0313154
0.0377509
0.0419354
0.0441028
0.0444802
0.0425941
0.0377588
0.0299483
0.0204758
0.0117523
0.00635904
0.00590112
0.0103861
0.0182111
0.0269913
0.0346504
0.0401292
0.04331
0.0443756
0.0430809
0.0387711
0.0311591
0.0210629
0.0104666
0.00184635
-0.00273621
-0.00237418
0.00248011
0.0101563
0.0184369
0.0253308
0.029578
0.03068
0.0286273
0.0236901
0.0165993
0.00862099
0.00145864
-0.0031479
-0.00396456
-0.000676469
0.00599826
0.014581
0.023376
0.0310114
0.0365106
0.0396488
0.0395585
0.037279
0.0299323
0.0235899
0.00768415
0.00648007
0.122906
0.122491
0.121004
0.118135
0.112578
0.10226
0.083676
0.0513373
0.000940754
-0.0743549
-0.141914
-0.15743
-0.15858
-0.124496
-0.0627192
-0.00435487
0.0387741
0.0584145
0.0501355
0.0222333
-0.00151334
-0.00537005
0.00600696
0.0205083
0.0321395
0.0403646
0.0460512
0.0490858
0.0496065
0.0506955
0.0515708
0.0474051
0.033323
0.012448
-0.00179356
0.000614822
0.0153852
0.03022
0.0391904
0.0424966
0.0420289
0.0401752
0.0395871
0.0405229
0.039468
0.032224
0.0188329
0.00480286
-0.00203714
0.00210284
0.0142684
0.0274116
0.0364688
0.0403249
0.0406998
0.0402417
0.0404761
0.0400456
0.0360296
0.0268216
0.0143783
0.00371106
-2.72363e-05
0.00482528
0.0155523
0.027049
0.035489
0.0398751
0.041423
0.041897
0.0417493
0.0394516
0.0331714
0.0229686
0.0116401
0.00353335
0.00204218
0.00759321
0.0174858
0.02774
0.0354937
0.0400222
0.0421386
0.042834
0.0418992
0.0380999
0.030615
0.0204895
0.0106768
0.00471251
0.00477092
0.0106048
0.0196945
0.028849
0.0358784
0.0402417
0.0424477
0.0429593
0.0412537
0.0364093
0.0282809
0.0183941
0.00960435
0.0048484
0.00565711
0.0115541
0.0202671
0.0290508
0.0359932
0.0405313
0.0429324
0.0433837
0.0412929
0.0359261
0.0273578
0.0171174
0.00783665
0.00223635
0.00194362
0.00690168
0.0153678
0.0248018
0.0330147
0.0389172
0.0424052
0.0436355
0.0422531
0.0375464
0.0293039
0.0185538
0.0075066
-0.00122601
-0.00556772
-0.00468996
0.00084726
0.00924639
0.0181799
0.0255807
0.0301273
0.0312447
0.0288408
0.0232355
0.0153398
0.00665412
-0.000957023
-0.00570518
-0.00640094
-0.00281657
0.00420571
0.0130648
0.0220019
0.0296386
0.0350908
0.0381083
0.0380305
0.0355421
0.0286235
0.0216437
0.00777811
0.00347333
0.128245
0.128121
0.127608
0.126163
0.122483
0.114345
0.0971461
0.0636123
0.00472838
-0.0949428
-0.181874
-0.193902
-0.196802
-0.153396
-0.0722329
0.00214458
0.0548949
0.0755369
0.0580521
0.0142059
-0.0216022
-0.0260741
-0.00872865
0.0113384
0.0257801
0.0348088
0.0397469
0.0402711
0.0380127
0.0380541
0.0395159
0.0355943
0.0201092
-0.00315459
-0.0193121
-0.0162308
0.00194838
0.0206985
0.0319719
0.0357224
0.0346035
0.032026
0.0312763
0.0324344
0.0313589
0.0235119
0.00909765
-0.00599281
-0.0133281
-0.00855132
0.00527045
0.0202296
0.0304702
0.0347172
0.0350368
0.0345142
0.0348494
0.0344906
0.030255
0.0204922
0.00734552
-0.00387972
-0.00772156
-0.00235219
0.00936602
0.0218886
0.0310124
0.0356907
0.0373404
0.0379169
0.0378493
0.0354594
0.0288127
0.0180508
0.00618299
-0.00221547
-0.00360442
0.00244613
0.0130613
0.0239911
0.0321902
0.0369503
0.0392136
0.0400338
0.0391077
0.0350873
0.0271506
0.0164891
0.00626106
0.000162131
0.000416622
0.00671563
0.0163762
0.026028
0.0333894
0.0379564
0.0403144
0.0409173
0.0391334
0.0339721
0.0253501
0.0149625
0.005845
0.00103877
0.00207056
0.00837912
0.017551
0.0267156
0.0339141
0.0386225
0.0411532
0.0416599
0.0394549
0.0337643
0.024735
0.0140454
0.00447235
-0.00118318
-0.00130151
0.00399626
0.0128611
0.0226554
0.0311402
0.0372435
0.0408969
0.0422362
0.0408168
0.0358875
0.0273049
0.0162552
0.00509733
-0.00349341
-0.00747756
-0.00612337
-8.65369e-05
0.00875344
0.0180297
0.0256717
0.0303344
0.0313665
0.0286002
0.0224456
0.0140057
0.0049572
-0.00277918
-0.0074641
-0.00800188
-0.00426472
0.00280704
0.0115489
0.020219
0.0275104
0.0326755
0.035457
0.0353939
0.0328296
0.0265436
0.0192869
0.00761551
0.000888805
0.133641
0.133853
0.134478
0.134756
0.133546
0.128562
0.114181
0.0810392
0.0115575
-0.121222
-0.237174
-0.246373
-0.250961
-0.192883
-0.084077
0.0108105
0.0756441
0.0963997
0.0640742
-0.0040261
-0.0560266
-0.0582397
-0.0297199
-0.000744908
0.0176947
0.02759
0.0311355
0.02836
0.0233493
0.0228848
0.0254848
0.0219364
0.00546456
-0.0194995
-0.0371842
-0.033643
-0.0124441
0.0100203
0.0235646
0.0277487
0.0259833
0.022713
0.0218784
0.0234154
0.0226328
0.0146941
-0.000150312
-0.0158413
-0.0235622
-0.0184306
-0.00344839
0.0128668
0.0239688
0.028416
0.0285759
0.0279421
0.028411
0.0283036
0.0242036
0.0143617
0.000981795
-0.0104768
-0.0143492
-0.00866242
0.0036597
0.016783
0.0262369
0.0309586
0.0325579
0.0331789
0.0332568
0.0309988
0.0243582
0.0134804
0.00147002
-0.00697683
-0.00823744
-0.00188201
0.00910685
0.0203177
0.028615
0.0333518
0.0356112
0.0365179
0.0357025
0.0317166
0.0237028
0.0129114
0.00260245
-0.00345042
-0.00301223
0.00355325
0.0134587
0.023242
0.0306095
0.0351407
0.0375165
0.0381955
0.0364634
0.0312608
0.0225181
0.0120107
0.00286283
-0.00184709
-0.000625
0.00589229
0.0152023
0.0243866
0.0315142
0.0361495
0.038675
0.039228
0.0370496
0.0313196
0.0222061
0.0114508
0.00189202
-0.00364958
-0.00359197
0.00187969
0.0108468
0.0206384
0.0290401
0.0350571
0.038692
0.0400789
0.0387096
0.033801
0.0252459
0.0143139
0.00342397
-0.00475812
-0.00828043
-0.0065257
-0.000231304
0.00869583
0.0179365
0.0255045
0.0300758
0.0309308
0.0278538
0.0213629
0.0127304
0.00371868
-0.00380368
-0.00823079
-0.00859858
-0.00489111
0.00188393
0.0100697
0.018034
0.0246214
0.0292561
0.0316877
0.0316414
0.029147
0.0236939
0.0165562
0.00719063
-0.00116142
0.138959
0.139549
0.141444
0.143765
0.145637
0.145227
0.135727
0.107259
0.0249639
-0.164033
-0.305636
-0.301215
-0.318551
-0.246062
-0.100856
0.0213303
0.0975067
0.115951
0.0761472
-0.0155569
-0.0924423
-0.101394
-0.0594013
-0.0169709
0.00756451
0.0185948
0.0201519
0.0136531
0.0061297
0.00584267
0.010207
0.00761278
-0.00887116
-0.0345214
-0.0533389
-0.0498462
-0.0265822
-0.00113437
0.0143214
0.0188053
0.0163656
0.0124076
0.0115653
0.0137105
0.0136702
0.00628054
-0.00830683
-0.0240615
-0.0320003
-0.0268024
-0.011269
0.00577044
0.0172598
0.0216093
0.0214352
0.0206148
0.0212681
0.0216516
0.0181201
0.00874684
-0.00433939
-0.0156679
-0.0194804
-0.0136896
-0.00120721
0.0120022
0.0213368
0.0257731
0.0271182
0.0277119
0.0280277
0.0261831
0.0199899
0.00950003
-0.0022125
-0.0104416
-0.0115469
-0.00510499
0.00585914
0.0168873
0.0248617
0.0292581
0.0313263
0.0322792
0.0317111
0.0280743
0.0204222
0.00995991
-6.15724e-05
-0.00587451
-0.00527222
0.00133287
0.0111094
0.0205973
0.0275826
0.0317878
0.0340215
0.0347696
0.0332603
0.0283512
0.0199198
0.00971908
0.000864534
-0.00359539
-0.00222691
0.00426708
0.0133496
0.0221375
0.0288128
0.0330889
0.0354554
0.0360576
0.0340871
0.0286572
0.0198883
0.00948968
0.000274951
-0.0049764
-0.00474872
0.000708926
0.00944564
0.0188249
0.0267378
0.0323372
0.0357425
0.0371159
0.0359148
0.0313204
0.0232104
0.0128477
0.00261933
-0.00489033
-0.00786656
-0.00582293
0.000436883
0.00904334
0.0178282
0.0249845
0.0292575
0.0298754
0.0266026
0.0200567
0.0116236
0.00305276
-0.00393161
-0.00792735
-0.00813446
-0.00466063
0.00145453
0.00864377
0.0154788
0.0210232
0.0248938
0.0268616
0.0268281
0.0245516
0.0201206
0.0135091
0.006515
-0.00261926
0.144048
0.145032
0.148294
0.152843
0.158473
0.163676
0.162265
0.141359
0.0454669
-0.196879
-0.425566
-0.388642
-0.41404
-0.319707
-0.123093
0.0292028
0.105795
0.127408
0.0724577
-0.0168942
-0.110366
-0.139433
-0.0925131
-0.0364308
-0.00446661
0.0079221
0.00702439
-0.00338578
-0.0131116
-0.0124291
-0.00546435
-0.00612959
-0.0214081
-0.0465898
-0.0660241
-0.0631315
-0.0391187
-0.0118823
0.00479182
0.00927244
0.0060442
0.00136013
0.000597039
0.0036499
0.0048904
-0.00125471
-0.0148761
-0.0301368
-0.0380848
-0.0330823
-0.0176377
-0.000604155
0.0106841
0.0145424
0.0137978
0.0126949
0.0136025
0.0147565
0.0122643
0.0039303
-0.00832401
-0.0191504
-0.0228032
-0.0171183
-0.00493578
0.00780126
0.0165072
0.020273
0.0211247
0.0216131
0.0222793
0.0211625
0.0158883
0.00631031
-0.00465419
-0.0123964
-0.0133203
-0.00701733
0.0035051
0.0138542
0.0210434
0.0247453
0.026414
0.0273755
0.0272138
0.024272
0.0174482
0.00779181
-0.00156608
-0.0069452
-0.00620376
0.000202204
0.00945545
0.0181923
0.024375
0.0279373
0.0298576
0.0306763
0.0295857
0.0253356
0.0176721
0.00821885
-1.39408e-05
-0.0040728
-0.00260962
0.0036158
0.012086
0.0200376
0.0258547
0.029467
0.0315144
0.0321797
0.0306218
0.0258574
0.0178815
0.00827276
-0.000265508
-0.00505336
-0.00466828
0.000576932
0.00873606
0.0172745
0.0242731
0.0291051
0.0320594
0.0333628
0.0324668
0.0285041
0.021274
0.0119361
0.00275377
-0.00383882
-0.00621145
-0.0040225
0.00187539
0.0097268
0.0176277
0.0240427
0.0278325
0.0281943
0.0248872
0.0185967
0.0107469
0.00298788
-0.00317206
-0.0065889
-0.00666343
-0.00363229
0.00147841
0.00727545
0.0126133
0.016817
0.0197043
0.0210917
0.0210591
0.0191453
0.0159106
0.01022
0.00561505
-0.00348735
0.148746
0.150127
0.154753
0.161696
0.171475
0.184221
0.194844
0.198694
0.0917044
-0.186431
-0.495465
-0.449084
-0.548869
-0.428857
-0.159523
0.0154467
0.0701499
0.0680382
0.0330201
-0.0290027
-0.120832
-0.167023
-0.123701
-0.0570766
-0.0177471
-0.00406145
-0.00773711
-0.0221574
-0.0337237
-0.031158
-0.0205378
-0.0181378
-0.0310312
-0.0546483
-0.074093
-0.0722381
-0.0488532
-0.0212877
-0.00435128
-0.000352854
-0.00459313
-0.0100821
-0.0106627
-0.0063535
-0.0032666
-0.00749806
-0.0194991
-0.0337442
-0.0414791
-0.0368803
-0.022128
-0.00584667
0.00459568
0.00750717
0.00591432
0.00442541
0.00567137
0.0078883
0.00689798
0.000144112
-0.0107755
-0.0207507
-0.0241442
-0.0187555
-0.00731167
0.00439963
0.011953
0.0146413
0.0147477
0.0150545
0.016192
0.0161198
0.0122238
0.00405758
-0.00573407
-0.0127371
-0.0134567
-0.0075084
0.00216928
0.0113509
0.0172916
0.0199394
0.0209991
0.0219364
0.0223457
0.0204432
0.0149014
0.0065082
-0.00182955
-0.00659412
-0.00574196
0.000231752
0.00857729
0.0161158
0.0210794
0.023684
0.025123
0.02602
0.025548
0.0223187
0.0158669
0.00758382
0.000283313
-0.00323578
-0.00173344
0.00398254
0.0114654
0.0181529
0.0227165
0.0253686
0.0269444
0.0276929
0.0267536
0.023013
0.0162636
0.00785875
0.000310787
-0.00385399
-0.00332992
0.00150695
0.0087507
0.0160338
0.0217066
0.025433
0.0277236
0.0289057
0.0284528
0.0254332
0.0195008
0.0116158
0.0038297
-0.00163697
-0.00338039
-0.0012136
0.00398364
0.0106559
0.0172735
0.0226507
0.0258049
0.0259252
0.0227675
0.0170348
0.0101097
0.00347584
-0.00162705
-0.00435254
-0.00433845
-0.00194201
0.00187688
0.00597085
0.00952434
0.0121393
0.0138396
0.0145284
0.0144787
0.0130649
0.0111838
0.00677345
0.00452956
-0.00382276
0.152889
0.154626
0.160532
0.169664
0.183916
0.203713
0.233286
0.229439
0.186331
-0.224759
-0.672014
-0.51141
-0.610614
-0.541354
-0.229416
-0.0642504
-0.00519737
-0.0249038
-0.0190629
-0.0494435
-0.123439
-0.178258
-0.146408
-0.0757223
-0.031003
-0.0166367
-0.0233779
-0.0418863
-0.0548307
-0.0493508
-0.0339347
-0.0274411
-0.0370353
-0.0582177
-0.077059
-0.0764824
-0.0549246
-0.0285131
-0.0124046
-0.00950301
-0.0150717
-0.0214658
-0.0217418
-0.0158145
-0.01036
-0.0121146
-0.0219653
-0.0347614
-0.0420703
-0.0380227
-0.0244747
-0.0096314
-0.000668174
0.000826534
-0.00190074
-0.00387342
-0.00219921
0.00135414
0.00227307
-0.00244083
-0.0116027
-0.0204299
-0.0234745
-0.0185403
-0.0082179
0.00196709
0.00787808
0.00910124
0.00822397
0.00828151
0.010005
0.0112634
0.00914944
0.00282794
-0.00542531
-0.0114733
-0.0119706
-0.0065672
0.00190809
0.00948298
0.0137531
0.0150171
0.0152772
0.0161627
0.0172936
0.0167383
0.0128792
0.00614985
-0.000857602
-0.00485334
-0.00391988
0.00141178
0.00850572
0.0144451
0.0178156
0.0191794
0.0199875
0.0209719
0.0212992
0.0194138
0.0145674
0.00782696
0.00172925
-0.00113333
0.000353333
0.00534195
0.0115028
0.0165469
0.019508
0.0209389
0.0219096
0.022761
0.0226248
0.0202266
0.0150877
0.00825212
0.00196854
-0.00143798
-0.000797488
0.00345189
0.00947753
0.015138
0.0191229
0.0214463
0.0228841
0.0238985
0.0240096
0.0222081
0.0179405
0.0118785
0.0057806
0.00159768
0.000475856
0.00244271
0.00662119
0.0117407
0.0167356
0.0208263
0.0232218
0.0231318
0.0203044
0.0153981
0.0096781
0.00441057
0.000532289
-0.00143351
-0.00138186
0.000231096
0.00256047
0.00474862
0.00632005
0.00714945
0.00747936
0.0073553
0.00726647
0.00647592
0.0060849
0.00325785
0.0033094
-0.00372364
0.156326
0.158359
0.165278
0.176342
0.194154
0.221885
0.265937
0.297947
0.338782