/*--------------------------------*- C++ -*----------------------------------*\
  =========                 |
  \\      /  F ield         | OpenFOAM: The Open Source CFD Toolbox
   \\    /   O peration     | Website:  https://openfoam.org
    \\  /    A nd           | Version:  11
     \\/     M anipulation  |
\*---------------------------------------------------------------------------*/
FoamFile
{
    format      ascii;
    class       volVectorField;
    location    "15.594559";
    object      U_0;
}
// * * * * * * * * * * * * * * * * * * * * * * * * * * * * * * * * * * * * * //

dimensions      [0 1 -1 0 0 0 0];

internalField   nonuniform List<vector> 
7132
(
(1.00013 -0.000274109 3.63002e-18)
(1.00212 -0.000816246 1.24728e-17)
(1.00655 -0.00135423 1.34185e-17)
(1.01302 -0.00187734 1.72606e-17)
(1.02155 -0.0023688 2.39873e-17)
(1.03199 -0.002795 2.59344e-17)
(1.04396 -0.00310546 2.57235e-17)
(1.05691 -0.00322818 2.49178e-17)
(1.06989 -0.00308789 2.38495e-17)
(1.08176 -0.00265096 2.24347e-17)
(1.0912 -0.0019247 2.06062e-17)
(1.09728 -0.00111101 1.85866e-17)
(1.10008 -0.000386852 1.6623e-17)
(1.1003 6.65049e-05 1.44263e-17)
(1.09944 0.000138018 1.08281e-17)
(1.09911 -0.000108235 7.76283e-18)
(1.10032 -0.000468343 6.11791e-18)
(1.10302 -0.000651108 4.96103e-18)
(1.10583 -0.000385174 4.78174e-18)
(1.10646 0.00042573 7.15583e-18)
(1.10276 0.00162821 8.56967e-18)
(1.09366 0.0029043 9.3791e-18)
(1.07959 0.00393048 9.46886e-18)
(1.06214 0.00447877 1.00929e-17)
(1.04358 0.00443199 9.05879e-18)
(1.02643 0.00375807 1.97206e-17)
(1.01323 0.00248764 -2.03717e-17)
(1.00625 0.000721494 -2.5021e-16)
(1.00725 -0.00133386 1.38592e-16)
(1.01688 -0.00331282 4.99642e-15)
(1.03395 -0.00470134 1.57695e-14)
(1.05491 -0.00500373 2.28035e-14)
(1.07452 -0.00401595 1.80331e-14)
(1.08757 -0.00199474 8.17299e-15)
(1.09085 0.000455787 1.80138e-15)
(1.08405 0.00268768 -6.99844e-16)
(1.06924 0.00426484 -1.37128e-16)
(1.04966 0.00501558 4.69982e-15)
(1.02876 0.00493875 2.01084e-15)
(1.00975 0.00409054 -5.01204e-14)
(0.995603 0.00253156 -1.36618e-13)
(0.989076 0.000358455 1.23977e-13)
(0.992424 -0.0021966 1.74877e-12)
(1.00658 -0.00466051 5.67148e-12)
(1.02996 -0.00635281 1.08127e-11)
(1.05795 -0.0066411 1.38738e-11)
(1.08379 -0.00529599 1.26656e-11)
(1.10097 -0.00267581 8.44872e-12)
(1.10562 0.000430218 4.05093e-12)
(1.09764 0.00318442 1.13954e-12)
(1.07998 0.00503712 -1.57384e-13)
(1.05699 0.00581675 -3.62138e-13)
(1.03301 0.00560361 1.13699e-13)
(1.0117 0.00454799 6.80357e-13)
(0.996156 0.00276657 -9.832e-13)
(0.98912 0.000372373 -9.81e-12)
(0.992834 -0.00239134 -3.10037e-11)
(1.00814 -0.00502996 -6.55873e-11)
(1.0333 -0.00684434 -1.05773e-10)
(1.06343 -0.00719155 -1.36408e-10)
(1.09154 -0.00582314 -1.44104e-10)
(1.11072 -0.00306772 -1.25423e-10)
(1.1166 0.000284317 -8.75763e-11)
(1.10865 0.00332367 -4.58533e-11)
(1.08988 0.00538375 -1.44054e-11)
(1.06521 0.00621121 2.75986e-12)
(1.0397 0.00589464 8.09391e-12)
(1.01754 0.00466459 -2.76587e-13)
(1.00188 0.00273111 -3.56194e-11)
(0.995208 0.000271258 -1.17942e-10)
(0.999301 -0.00244689 -2.59838e-10)
(1.01454 -0.00495221 -4.52369e-10)
(1.03894 -0.00662504 -6.59618e-10)
(1.06784 -0.00692754 -8.27935e-10)
(1.09488 -0.0056675 -9.07078e-10)
(1.1138 -0.00312181 -8.71463e-10)
(1.12043 5.1222e-05 -7.2966e-10)
(1.11379 0.00305052 -5.19911e-10)
(1.09616 0.00520667 -2.97712e-10)
(1.07201 0.00616729 -1.16796e-10)
(1.0465 0.00592047 -8.64442e-12)
(1.02421 0.00467295 2.47994e-11)
(1.00863 0.00269067 8.62538e-13)
(1.00222 0.000236903 -5.98129e-11)
(1.00638 -0.00236056 -1.41481e-10)
(1.02095 -0.00464003 -2.32056e-10)
(1.04361 -0.006071 -3.19312e-10)
(1.06984 -0.00624786 -3.8997e-10)
(1.09402 -0.00507868 -4.31807e-10)
(1.1109 -0.0028396 -4.36446e-10)
(1.11708 -7.39567e-05 -4.01273e-10)
(1.11171 0.00258839 -3.30384e-10)
(1.09645 0.00460803 -2.35695e-10)
(1.07478 0.00564793 -1.35996e-10)
(1.05108 0.00560389 -4.96466e-11)
(1.02967 0.00456146 1.46805e-11)
(1.01425 0.00272019 6.08024e-11)
(1.00759 0.000356402 9.90052e-11)
(1.01121 -0.00215161 1.37689e-10)
(1.02485 -0.00431682 1.7957e-10)
(1.04603 -0.0056381 2.23033e-10)
(1.0704 -0.00577593 2.65046e-10)
(1.0927 -0.00469707 3.02836e-10)
(1.10831 -0.00269031 3.33691e-10)
(1.11438 -0.000250385 3.53352e-10)
(1.11029 0.00209275 3.54488e-10)
(1.09747 0.00391538 3.28284e-10)
(1.07873 0.00495668 2.71329e-10)
(1.05756 0.00510397 1.93795e-10)
(1.03764 0.00435457 1.19559e-10)
(1.02249 0.00279668 7.44736e-11)
(1.01512 0.000630711 7.18165e-11)
(1.01745 -0.00179208 1.07425e-10)
(1.02968 -0.00398419 1.66289e-10)
(1.04978 -0.0054331 2.32331e-10)
(1.07372 -0.00577409 2.94121e-10)
(1.09651 -0.00492995 3.4571e-10)
(1.11353 -0.00313785 3.85053e-10)
(1.12174 -0.000854265 4.11759e-10)
(1.12025 0.00140553 4.24451e-10)
(1.11018 0.00322423 4.18533e-10)
(1.09403 0.00436141 3.87197e-10)
(1.07484 0.00473639 3.27245e-10)
(1.05574 0.00435516 2.46358e-10)
(1.03969 0.00325229 1.6397e-10)
(1.02954 0.00150199 1.02344e-10)
(1.02767 -0.000710574 7.46991e-11)
(1.03544 -0.00303706 8.03327e-11)
(1.05243 -0.00501097 1.089e-10)
(1.07617 -0.00618733 1.4798e-10)
(1.1026 -0.00630353 1.88077e-10)
(1.12714 -0.00537129 2.23815e-10)
(1.14587 -0.00366103 2.53002e-10)
(1.15644 -0.00160097 2.75261e-10)
(1.15844 0.00035653 2.90846e-10)
(1.15317 0.00185523 2.99527e-10)
(1.14308 0.00270732 2.99743e-10)
(1.13099 0.00289856 2.88716e-10)
(1.11943 0.00254052 2.64059e-10)
(1.11031 0.00180199 2.26272e-10)
(1.1048 0.000858522 1.80174e-10)
(1.10341 -0.000121837 1.33846e-10)
(1.10596 -0.000973615 9.56213e-11)
(1.11158 -0.00154231 7.11949e-11)
(1.11881 -0.00171826 6.23884e-11)
(1.12588 -0.00148015 6.7694e-11)
(1.13114 -0.000916507 8.36658e-11)
(1.13352 -0.00020776 1.06239e-10)
(1.13288 0.000424982 1.3157e-10)
(1.12997 0.000781581 1.56436e-10)
(1.12627 0.000728584 1.78422e-10)
(1.12369 0.000218731 1.96013e-10)
(1.12396 -0.000718514 2.08593e-10)
(1.12899 -0.00198161 2.16296e-10)
(1.13915 -0.00343924 2.19749e-10)
(1.15649 -0.00487945 2.19711e-10)
(1.17704 -0.00617354 2.1708e-10)
(1.20744 -0.00693384 2.11847e-10)
(1.22881 -0.00749848 2.06834e-10)
(1.27408 -0.00637718 1.92731e-10)
(1.00013 -0.000821232 5.85189e-20)
(1.00212 -0.00244682 6.18594e-19)
(1.00653 -0.00406173 1.26806e-18)
(1.013 -0.00563613 2.08086e-18)
(1.02156 -0.00712034 3.18091e-18)
(1.03207 -0.00841387 4.30608e-18)
(1.04418 -0.00936431 5.04962e-18)
(1.05736 -0.00975016 6.51005e-18)
(1.07063 -0.0093383 6.57909e-18)
(1.08282 -0.00801664 5.66884e-18)
(1.09248 -0.00579963 5.17435e-18)
(1.09858 -0.00331468 6.98306e-18)
(1.10121 -0.00110408 6.9956e-18)
(1.10112 0.00026751 6.29435e-18)
(1.0999 0.000453203 2.96231e-18)
(1.09935 -0.00034678 -3.13236e-18)
(1.10057 -0.00150412 -9.02035e-18)
(1.10356 -0.00211935 -1.01811e-17)
(1.10685 -0.00134916 -5.42417e-18)
(1.10795 0.00111046 8.01e-19)
(1.10449 0.00478468 5.17868e-18)
(1.09532 0.00868971 7.49435e-18)
(1.08092 0.0118337 6.66787e-18)
(1.06296 0.0135268 8.87281e-18)
(1.0438 0.0134197 2.29068e-17)
(1.02604 0.0114168 -5.14592e-17)
(1.01227 0.00760415 -1.14976e-16)
(1.00486 0.00227115 1.39434e-15)
(1.0057 -0.00397607 2.18116e-15)
(1.01562 -0.0100351 -2.32566e-14)
(1.0335 -0.0143246 -8.796e-14)
(1.05564 -0.0153006 -1.21428e-13)
(1.07643 -0.0123159 -8.40488e-14)
(1.09024 -0.006155 -3.2665e-14)
(1.09368 0.00132191 -6.3612e-15)
(1.08652 0.00812614 -8.1059e-16)
(1.07104 0.0129292 4.24814e-15)
(1.05068 0.0152217 2.53154e-14)
(1.02898 0.015015 2.05858e-15)
(1.0092 0.0124857 -2.72978e-13)
(0.994336 0.00780589 -7.20309e-13)
(0.987245 0.00123891 8.21719e-13)
(0.990408 -0.00654299 1.09318e-11)
(1.00501 -0.014106 3.62401e-11)
(1.02954 -0.0193459 7.00769e-11)
(1.05909 -0.0202896 9.01555e-11)
(1.08638 -0.0162147 8.07025e-11)
(1.10442 -0.0082238 5.1012e-11)
(1.10916 0.00125441 2.26359e-11)
(1.1006 0.00965115 5.75316e-12)
(1.082 0.0152895 -1.09544e-12)
(1.05802 0.0176621 -1.9113e-12)
(1.03312 0.0170342 8.59675e-13)
(1.01099 0.0138741 4.15883e-12)
(0.994702 0.00852538 -5.53345e-12)
(0.987046 0.00129718 -6.23214e-11)
(0.990438 -0.007109 -2.13302e-10)
(1.00595 -0.0151972 -4.78379e-10)
(1.03196 -0.0208113 -7.93368e-10)
(1.06349 -0.0219491 -1.01576e-09)
(1.09316 -0.0178259 -1.02677e-09)
(1.11354 -0.00944398 -8.29339e-10)
(1.11989 0.000775552 -5.32089e-10)
(1.11165 0.0100508 -2.5773e-10)
(1.09202 0.016339 -7.5796e-11)
(1.06629 0.0188699 1.06729e-11)
(1.03976 0.0179307 3.25858e-11)
(1.0167 0.0142414 9.09671e-12)
(1.00024 0.00843838 -7.90809e-11)
(0.992869 0.00102929 -2.80032e-10)
(0.99653 -0.0072104 -6.29734e-10)
(1.01181 -0.0148649 -1.10526e-09)
(1.0368 -0.0200358 -1.60806e-09)
(1.06674 -0.0210564 -1.9952e-09)
(1.09494 -0.0173148 -2.14065e-09)
(1.11484 -0.00963897 -1.99381e-09)
(1.12204 -2.42512e-05 -1.60419e-09)
(1.1155 0.00909675 -1.09316e-09)
(1.09753 0.0156834 -5.98011e-10)
(1.07276 0.0186556 -2.23265e-10)
(1.04647 0.017972 -1.11834e-11)
(1.02337 0.0142571 5.27743e-11)
(1.00704 0.00830679 9.59564e-12)
(1.00008 0.000896103 -1.01617e-10)
(1.00408 -0.00700016 -2.51882e-10)
(1.01904 -0.0139734 -4.1548e-10)
(1.04254 -0.0183826 -5.64963e-10)
(1.06981 -0.0189692 -6.74437e-10)
(1.09486 -0.0154504 -7.25182e-10)
(1.11222 -0.00867925 -7.08709e-10)
(1.11845 -0.000314415 -6.28118e-10)
(1.11282 0.00773913 -4.97936e-10)
(1.09713 0.0138578 -3.42377e-10)
(1.07497 0.0170307 -1.90885e-10)
(1.05074 0.0169445 -6.75861e-11)
(1.0288 0.0138471 1.89643e-11)
(1.01293 0.00831842 7.69317e-11)
(1.00606 0.00116775 1.22192e-10)
(1.00991 -0.00646939 1.67425e-10)
(1.0243 -0.0130935 2.17161e-10)
(1.0466 -0.0171437 2.6918e-10)
(1.07209 -0.0175635 3.18297e-10)
(1.09519 -0.014259 3.59562e-10)
(1.11103 -0.00813686 3.89397e-10)
(1.11677 -0.000723549 4.04196e-10)
(1.11199 0.00636922 3.98046e-10)
(1.09835 0.0118668 3.63442e-10)
(1.07883 0.0149965 2.97811e-10)
(1.05704 0.0154332 2.12114e-10)
(1.03668 0.0131713 1.31574e-10)
(1.02133 0.00846337 8.39348e-11)
(1.01407 0.00189337 8.41144e-11)
(1.01699 -0.00548574 1.283e-10)
(1.03027 -0.0121772 1.99988e-10)
(1.0517 -0.0165912 2.80166e-10)
(1.07694 -0.0175987 3.54044e-10)
(1.10063 -0.0149733 4.12918e-10)
(1.11794 -0.00946509 4.53285e-10)
(1.1258 -0.00248914 4.74901e-10)
(1.12346 0.00438342 4.77977e-10)
(1.11229 0.0098881 4.60234e-10)
(1.09501 0.0133052 4.17053e-10)
(1.07484 0.0144044 3.468e-10)
(1.055 0.0132158 2.58098e-10)
(1.03856 0.00984599 1.70902e-10)
(1.0284 0.00451091 1.0763e-10)
(1.02702 -0.00223914 8.11901e-11)
(1.03581 -0.0093419 9.00692e-11)
(1.05421 -0.0153551 1.22782e-10)
(1.07947 -0.0189025 1.65783e-10)
(1.10717 -0.0191837 2.08777e-10)
(1.13244 -0.0162571 2.46011e-10)
(1.15125 -0.0109776 2.75249e-10)
(1.16129 -0.00467075 2.96279e-10)
(1.16232 0.00128653 3.09665e-10)
(1.15586 0.00582375 3.15576e-10)
(1.14456 0.00838163 3.12854e-10)
(1.13139 0.00892493 2.99017e-10)
(1.11901 0.00779613 2.71885e-10)
(1.10939 0.00550671 2.32142e-10)
(1.10379 0.00258602 1.8482e-10)
(1.10273 -0.000456279 1.38136e-10)
(1.10605 -0.00310937 1.0037e-10)
(1.11277 -0.00488573 7.69204e-11)
(1.12124 -0.0054331 6.91687e-11)
(1.12941 -0.00467806 7.52171e-11)
(1.13541 -0.00289668 9.14313e-11)
(1.13804 -0.000655233 1.13788e-10)
(1.13714 0.00135614 1.38629e-10)
(1.13357 0.00251757 1.62937e-10)
(1.12894 0.00241908 1.84434e-10)
(1.1253 0.000917755 2.01655e-10)
(1.12453 -0.00189286 2.13971e-10)
(1.1286 -0.00570304 2.21455e-10)
(1.13797 -0.0101129 2.24647e-10)
(1.15472 -0.0144861 2.24218e-10)
(1.17493 -0.0184291 2.20996e-10)
(1.20524 -0.0207719 2.1502e-10)
(1.22672 -0.0225315 2.09164e-10)
(1.27243 -0.0191873 1.94392e-10)
(1.00013 -0.00136558 5.48255e-22)
(1.0021 -0.00407053 9.15379e-21)
(1.00649 -0.00676445 6.08534e-21)
(1.01295 -0.00940305 8.91347e-21)
(1.02156 -0.0119076 -3.67099e-20)
(1.0322 -0.0141126 -1.19263e-19)
(1.0446 -0.0157617 -4.30384e-19)
(1.05823 -0.0164676 -5.07695e-20)
(1.0721 -0.0158177 -2.32557e-19)
(1.08494 -0.0135835 -3.7317e-18)
(1.09504 -0.00976136 -4.50637e-18)
(1.10121 -0.00546653 2.93627e-18)
(1.10352 -0.00163182 7.94788e-18)
(1.1028 0.000746126 -3.68449e-18)
(1.10088 0.0010327 -2.82755e-17)
(1.09988 -0.000439672 -3.90057e-17)
(1.10116 -0.00257907 -9.17664e-18)
(1.10476 -0.00379848 5.00786e-17)
(1.10903 -0.00258742 9.36303e-17)
(1.11105 0.00160922 9.75693e-17)
(1.108 0.00795076 7.47927e-17)
(1.09859 0.014696 4.06064e-17)
(1.0834 0.0201149 5.56846e-18)
(1.06433 0.0230356 9.75085e-17)
(1.04395 0.022887 7.42205e-17)
(1.02498 0.0195232 -1.97183e-15)
(1.01015 0.0130802 7.51264e-16)
(1.00199 0.00400875 4.06362e-14)
(1.00268 -0.00671134 -3.78231e-15)
(1.01335 -0.0172118 -8.17733e-13)
(1.033 -0.0247219 -2.67484e-12)
(1.05762 -0.026482 -3.89569e-12)
(1.08076 -0.0213149 -3.06492e-12)
(1.09599 -0.0106092 -1.35062e-12)
(1.09953 0.00233261 -2.87103e-13)
(1.09135 0.0140207 3.80823e-14)
(1.07426 0.0221892 8.10291e-14)
(1.05217 0.0260413 9.44988e-14)
(1.02886 0.025672 -1.07271e-13)
(1.00761 0.0214094 -8.52882e-13)
(0.991461 0.0135091 -9.46283e-13)
(0.983461 0.00232965 4.4579e-12)
(0.9865 -0.0110667 2.10368e-11)
(1.00222 -0.0242214 4.29831e-11)
(1.02922 -0.0334039 6.00376e-11)
(1.06204 -0.0350792 7.35616e-11)
(1.09231 -0.0279633 7.89427e-11)
(1.11196 -0.0140439 6.41907e-11)
(1.11654 0.00236658 3.85059e-11)
(1.10642 0.0167754 1.54628e-11)
(1.0856 0.0263266 5.51632e-13)
(1.05941 0.0302508 -3.15632e-12)
(1.03264 0.029109 5.41388e-12)
(1.00896 0.0237524 1.4909e-11)
(0.991343 0.0147407 -3.37286e-11)
(0.982557 0.0025134 -2.79736e-10)
(0.985245 -0.0118301 -8.95754e-10)
(1.00091 -0.0257846 -1.91784e-09)
(1.02829 -0.0356272 -3.08163e-09)
(1.06236 -0.0378102 -3.89201e-09)
(1.09506 -0.0308505 -3.93932e-09)
(1.11798 -0.0164185 -3.20722e-09)
(1.12552 0.00125516 -2.07854e-09)
(1.11684 0.0172732 -1.02354e-09)
(1.09558 0.0280625 -3.15603e-10)
(1.06771 0.0323343 2.29254e-11)
(1.03914 0.0306805 1.08562e-10)
(1.01436 0.0244212 3.96315e-11)
(0.996462 0.0146468 -1.88737e-10)
(0.987989 0.00213326 -6.52093e-10)
(0.991194 -0.0119063 -1.38543e-09)
(1.00705 -0.0250877 -2.2952e-09)
(1.03371 -0.0341025 -3.18253e-09)
(1.06589 -0.0360089 -3.83453e-09)
(1.0962 -0.0297175 -4.08541e-09)
(1.11752 -0.0166551 -3.84627e-09)
(1.12523 -0.000254654 -3.15373e-09)
(1.11836 0.0153167 -2.19237e-09)
(1.09943 0.0265756 -1.22492e-09)
(1.0733 0.0316899 -4.74319e-10)
(1.04554 0.030604 -4.00947e-11)
(1.02101 0.0243818 9.91509e-11)
(1.0035 0.0143379 2.43933e-11)
(0.995916 0.00172278 -1.79982e-10)
(1.00023 -0.0118338 -4.43189e-10)
(1.01659 -0.0238686 -7.03257e-10)
(1.04228 -0.0314671 -9.11209e-10)
(1.07181 -0.0324158 -1.04147e-09)
(1.09843 -0.0262771 -1.08879e-09)
(1.11627 -0.0146197 -1.05353e-09)
(1.12197 -0.00035828 -9.36082e-10)
(1.11517 0.0132598 -7.47015e-10)
(1.09808 0.0235372 -5.16756e-10)
(1.07459 0.0288385 -2.89651e-10)
(1.04921 0.0286785 -1.04606e-10)
(1.02635 0.0234586 2.31239e-11)
(1.00991 0.0140882 1.04505e-10)
(1.00312 0.00186981 1.63607e-10)
(1.00799 -0.0112622 2.21343e-10)
(1.02434 -0.022659 2.86695e-10)
(1.0491 -0.0295446 3.56518e-10)
(1.07684 -0.030076 4.20589e-10)
(1.10128 -0.024159 4.68523e-10)
(1.11725 -0.0134683 4.94638e-10)
(1.12197 -0.000717465 4.97468e-10)
(1.11542 0.0113125 4.75168e-10)
(1.09977 0.0204953 4.23515e-10)
(1.07845 0.0256057 3.41675e-10)
(1.05529 0.026171 2.41896e-10)
(1.03409 0.0222055 1.51523e-10)
(1.01853 0.0141019 1.00998e-10)
(1.01187 0.00280568 1.06814e-10)
(1.01633 -0.00988366 1.64161e-10)
(1.03197 -0.0213416 2.53216e-10)
(1.05611 -0.028776 3.50978e-10)
(1.08373 -0.030245 4.39493e-10)
(1.10892 -0.0254271 5.08028e-10)
(1.12651 -0.0157098 5.51737e-10)
(1.13346 -0.00360252 5.6957e-10)
(1.12929 0.00816855 5.61991e-10)
(1.11581 0.017457 5.28529e-10)
(1.09618 0.0230866 4.67367e-10)
(1.07403 0.0247313 3.79888e-10)
(1.0528 0.0224904 2.77428e-10)
(1.03568 0.0165535 1.81862e-10)
(1.02574 0.00727186 1.16139e-10)
(1.02561 -0.00441144 9.20383e-11)
(1.03662 -0.0166289 1.05805e-10)
(1.05782 -0.0268424 1.43658e-10)
(1.08584 -0.0326705 1.90567e-10)
(1.11565 -0.0327925 2.35778e-10)
(1.14196 -0.0274075 2.73786e-10)
(1.16063 -0.0180764 3.02819e-10)
(1.16949 -0.00712632 3.22947e-10)
(1.1686 0.0030785 3.34722e-10)
(1.15985 0.0107374 3.38255e-10)
(1.14627 0.01494 3.3244e-10)
(1.13112 0.0156689 3.14978e-10)
(1.11728 0.013533 2.84062e-10)
(1.10689 0.00940676 2.4101e-10)
(1.10131 0.00418579 1.91617e-10)
(1.10115 -0.00125125 1.44637e-10)
(1.10618 -0.00599057 1.08291e-10)
(1.11517 -0.0091363 8.72809e-11)
(1.12602 -0.0100367 8.19912e-11)
(1.13616 -0.00856099 8.9694e-11)
(1.14332 -0.00522512 1.06395e-10)
(1.14613 -0.00106801 1.28199e-10)
(1.14446 0.00266597 1.51867e-10)
(1.13939 0.00488068 1.74835e-10)
(1.13284 0.00486998 1.95138e-10)
(1.12712 0.00240516 2.1142e-10)
(1.12434 -0.0023309 2.22989e-10)
(1.12664 -0.008795 2.29747e-10)
(1.13458 -0.016301 2.31997e-10)
(1.15031 -0.0237767 2.30201e-10)
(1.17005 -0.0305629 2.25115e-10)
(1.20039 -0.034641 2.1711e-10)
(1.22232 -0.0378066 2.09246e-10)
(1.26904 -0.0321554 1.93699e-10)
(1.00013 -0.00190488 -3.62653e-20)
(1.00208 -0.00568069 -7.67574e-19)
(1.00642 -0.00945613 -1.56113e-18)
(1.01286 -0.0131791 -2.50218e-18)
(1.02151 -0.0167495 -3.83757e-18)
(1.03235 -0.0199406 -5.21831e-18)
(1.04516 -0.0223902 -6.96353e-18)
(1.05948 -0.0235177 -3.05064e-18)
(1.07428 -0.0226947 -1.52497e-17)
(1.08816 -0.0195056 -3.15775e-17)
(1.09899 -0.0138843 1.18883e-18)
(1.10526 -0.0075521 5.88929e-17)
(1.10709 -0.00188282 3.67854e-17)
(1.10536 0.00159836 -7.42004e-17)
(1.1023 0.0018896 -1.22057e-16)
(1.10057 -0.000515524 1.5155e-16)
(1.1019 -0.00397892 8.60778e-16)
(1.10647 -0.00609092 1.59711e-15)
(1.11233 -0.00451359 1.69562e-15)
(1.11581 0.00162795 1.25041e-15)
(1.11342 0.0110271 7.26385e-16)
(1.10361 0.021005 2.51048e-16)
(1.08716 0.0289732 3.43776e-17)
(1.06635 0.0332568 8.01681e-16)
(1.04406 0.0330949 -1.37143e-15)
(1.02325 0.0283174 -1.18359e-14)
(1.0068 0.019101 2.92988e-14)
(0.9975 0.00601149 1.64606e-13)
(0.997915 -0.00964585 -3.41269e-13)
(1.00972 -0.0251962 -2.80253e-12)
(1.03218 -0.0364716 -6.75023e-12)
(1.06072 -0.0391978 -1.01489e-11)
(1.08761 -0.0315044 -9.91292e-12)
(1.10504 -0.0155204 -5.76734e-12)
(1.10862 0.00366504 -1.82409e-12)
(1.09872 0.0207702 -1.02319e-14)
(1.07903 0.0325165 4.05699e-13)
(1.05422 0.0379203 9.35906e-14)
(1.02842 0.0372942 -7.93152e-13)
(1.00497 0.0311822 7.89375e-13)
(0.986926 0.0198814 9.85767e-12)
(0.977523 0.0037291 6.99592e-13)
(0.980123 -0.0159075 -1.43017e-10)
(0.996946 -0.0354593 -5.75737e-10)
(1.027 -0.0492695 -1.20118e-09)
(1.06454 -0.051855 -1.5786e-09)
(1.09979 -0.0411786 -1.39199e-09)
(1.1227 -0.0203211 -8.37255e-10)
(1.12762 0.00405215 -3.23126e-10)
(1.11525 0.0251369 -4.85365e-11)
(1.09093 0.0387933 2.66075e-11)
(1.06123 0.0441374 2.5141e-11)
(1.03156 0.0422507 3.14889e-11)
(1.00558 0.0345183 2.99742e-11)
(0.985905 0.0217326 -1.59912e-10)
(0.975152 0.00435846 -8.83996e-10)
(0.976352 -0.01627 -2.43354e-09)
(0.991887 -0.0367165 -4.68406e-09)
(1.02113 -0.05155 -7.01664e-09)
(1.05876 -0.055353 -8.62531e-09)
(1.09568 -0.0456412 -8.87222e-09)
(1.12223 -0.0246566 -7.58498e-09)
(1.13181 0.00136953 -5.26044e-09)
(1.12309 0.0250357 -2.81764e-09)
(1.09997 0.0409032 -1.00183e-09)
(1.0693 0.0470761 -4.0653e-11)
(1.03785 0.0445958 2.46673e-10)
(1.01053 0.0355789 1.0455e-10)
(0.990542 0.021627 -3.82359e-10)
(0.980668 0.00367345 -1.23544e-09)
(0.983775 -0.0167319 -2.38422e-09)
(1.00133 -0.0361205 -3.59143e-09)
(1.03115 -0.0494674 -4.5982e-09)
(1.06691 -0.0523184 -5.27504e-09)
(1.09999 -0.0431287 -5.58012e-09)
(1.12261 -0.0241373 -5.42841e-09)
(1.13019 -0.000421223 -4.71606e-09)
(1.12213 0.0220145 -3.50784e-09)
(1.10142 0.0382119 -2.10962e-09)
(1.07327 0.0455921 -9.0525e-10)
(1.04345 0.0441089 -1.44945e-10)
(1.01706 0.0352691 1.32809e-10)
(0.998149 0.0208558 3.64212e-11)
(0.990164 0.00253898 -2.75876e-10)
(0.995597 -0.0173314 -6.51213e-10)
(1.01462 -0.0349989 -9.69029e-10)
(1.04381 -0.0459996 -1.16761e-09)
(1.07658 -0.0470509 -1.25201e-09)
(1.10521 -0.03768 -1.2626e-09)
(1.12336 -0.0204376 -1.2252e-09)
(1.1278 0.0002557 -1.12795e-09)
(1.11878 0.0196965 -9.47762e-10)
(1.09922 0.0341476 -6.92397e-10)
(1.0735 0.0414584 -4.09999e-10)
(1.04635 0.0410574 -1.61111e-10)
(1.02224 0.0334943 1.89576e-11)
(1.00528 0.0199325 1.34833e-10)
(0.999088 0.0021294 2.17008e-10)
(1.00592 -0.0170741 2.96802e-10)
(1.02536 -0.0336484 3.88763e-10)
(1.05359 -0.0434009 4.87393e-10)
(1.0842 -0.0436614 5.74975e-10)
(1.11021 -0.0344634 6.33275e-10)
(1.12611 -0.0184688 6.52748e-10)
(1.12924 0.000207273 6.34467e-10)
(1.12006 0.0174789 5.83691e-10)
(1.10143 0.0303524 5.03219e-10)
(1.0774 0.037233 3.96384e-10)
(1.05219 0.0376041 2.77448e-10)
(1.02981 0.0315454 1.75615e-10)
(1.01412 0.0195727 1.23066e-10)
(1.00861 0.00299641 1.36074e-10)
(1.01551 -0.0155296 2.06709e-10)
(1.03453 -0.032066 3.10636e-10)
(1.06219 -0.0424783 4.21457e-10)
(1.09267 -0.0440099 5.20081e-10)
(1.11944 -0.0363628 5.96063e-10)
(1.13714 -0.0217284 6.44554e-10)
(1.14278 -0.00386682 6.63197e-10)
(1.13618 0.0132204 6.50522e-10)
(1.11964 0.0264452 6.05256e-10)
(1.0969 0.0341882 5.26948e-10)
(1.07206 0.0360928 4.2043e-10)
(1.04893 0.0323885 3.01485e-10)
(1.03099 0.0233713 1.95635e-10)
(1.02155 0.0095454 1.26919e-10)
(1.02335 -0.00767194 1.05308e-10)
(1.03746 -0.0254429 1.23765e-10)
(1.06229 -0.0399717 1.65688e-10)
(1.09357 -0.0478231 2.14694e-10)
(1.12555 -0.0472472 2.60028e-10)
(1.15263 -0.0387457 2.96959e-10)
(1.1707 -0.0247364 3.24673e-10)
(1.17787 -0.00864914 3.43897e-10)
(1.17453 0.00611085 3.55226e-10)
(1.16296 0.0169922 3.58251e-10)
(1.14659 0.0227472 3.51165e-10)
(1.12906 0.0234138 3.31255e-10)
(1.11352 0.0199069 2.96954e-10)
(1.10236 0.01349 2.50573e-10)
(1.09715 0.00545252 1.99252e-10)
(1.0986 -0.00289429 1.5267e-10)
(1.10629 -0.0101219 1.18961e-10)
(1.11853 -0.0148046 1.01764e-10)
(1.13248 -0.0159255 1.00031e-10)
(1.14491 -0.0133265 1.09912e-10)
(1.15309 -0.00787394 1.26986e-10)
(1.15554 -0.0012176 1.47606e-10)
(1.15233 0.00472906 1.69178e-10)
(1.14486 0.00832793 1.89829e-10)
(1.13545 0.00856333 2.08067e-10)
(1.12676 0.00514625 2.22699e-10)
(1.12116 -0.00161203 2.32884e-10)
(1.12097 -0.0109055 2.38142e-10)
(1.12696 -0.0217517 2.38311e-10)
(1.1414 -0.0326301 2.336e-10)
(1.16076 -0.0426135 2.25001e-10)
(1.19142 -0.0486898 2.13893e-10)
(1.2143 -0.05362 2.03694e-10)
(1.26245 -0.0454307 1.89383e-10)
(1.00013 -0.00243556 -3.35377e-18)
(1.00203 -0.00726769 -1.17198e-17)
(1.0063 -0.0121251 -1.08664e-17)
(1.01269 -0.0169583 -1.44926e-17)
(1.02138 -0.021657 -1.42741e-17)
(1.03244 -0.0259415 -2.25674e-17)
(1.04579 -0.0293425 1.52052e-18)
(1.06105 -0.0310481 -2.09346e-17)
(1.07715 -0.0301614 -1.45536e-16)
(1.09254 -0.0259585 7.26938e-17)
(1.10442 -0.0182379 5.00344e-16)
(1.11084 -0.00950804 4.75389e-16)
(1.11195 -0.00163345 -6.39189e-17)
(1.10873 0.00319 -4.87341e-16)
(1.104 0.00344696 -9.11804e-17)
(1.10118 -0.000216716 1.46028e-15)
(1.10258 -0.00552331 3.66425e-15)
(1.10858 -0.00901887 5.29091e-15)
(1.11678 -0.00726242 5.07945e-15)
(1.12243 0.00106755 3.43186e-15)
(1.121 0.0140618 1.86611e-15)
(1.11059 0.0278347 3.8721e-16)
(1.09233 0.0387461 8.22769e-16)
(1.06907 0.0445775 6.30206e-16)
(1.04417 0.0444264 -1.63318e-14)
(1.02083 0.0381493 3.25239e-14)
(1.00213 0.0259587 1.32875e-13)
(0.991147 0.00845963 -1.10876e-12)
(0.991058 -0.0128136 -1.07872e-12)
(1.00441 -0.0343395 2.42279e-11)
(1.03093 -0.05023 8.74965e-11)
(1.06522 -0.0542174 1.29171e-10)
(1.09749 -0.0434772 9.82605e-11)
(1.11794 -0.0210938 3.9149e-11)
(1.1214 0.00551962 5.53678e-12)
(1.10889 0.0288315 -2.24159e-12)
(1.08543 0.0444384 -1.2235e-12)
(1.05682 0.0513403 -1.63598e-12)
(1.02765 0.05029 -1.35833e-12)
(1.00128 0.0421551 1.96339e-11)
(0.980643 0.0272374 5.05624e-11)
(0.968979 0.00574321 -1.34133e-10)
(0.969838 -0.0207592 -1.09767e-09)
(0.986185 -0.0476481 -3.26596e-09)
(1.01831 -0.0672114 -6.03524e-09)
(1.06115 -0.0715004 -7.80319e-09)
(1.10373 -0.0570557 -7.32967e-09)
(1.13303 -0.0279444 -4.99642e-09)
(1.14061 0.00611487 -2.3744e-09)
(1.12661 0.0351374 -6.45423e-10)
(1.098 0.0533379 5.1038e-11)
(1.06356 0.0599231 1.6789e-10)
(1.02992 0.0569229 1.36825e-10)
(1.00077 0.0465779 2.79862e-11)
(0.978149 0.0299594 -5.21287e-10)
(0.964542 0.00730202 -2.05202e-09)
(0.963932 -0.0201836 -4.70281e-09)
(0.98012 -0.0481715 -7.86768e-09)
(1.0128 -0.0690799 -1.06594e-08)
(1.05539 -0.0751013 -1.25163e-08)
(1.09704 -0.0625839 -1.31037e-08)
(1.127 -0.0344617 -1.20283e-08)
(1.13826 0.000856475 -9.24797e-09)
(1.12934 0.0332101 -5.60514e-09)
(1.10429 0.0549529 -2.37989e-09)
(1.07055 0.0633793 -3.76213e-10)
(1.03572 0.0600521 3.6959e-10)
(1.00524 0.0480719 1.89335e-10)
(0.982682 0.029582 -6.42712e-10)
(0.971517 0.00552586 -1.92842e-09)
(0.975478 -0.0222263 -3.36208e-09)
(0.99624 -0.0487769 -4.55896e-09)
(1.03068 -0.0669072 -5.30618e-09)
(1.07089 -0.0704424 -5.68425e-09)
(1.10693 -0.057569 -5.89033e-09)
(1.1304 -0.0317355 -5.93733e-09)
(1.13691 8.74515e-06 -5.56679e-09)
(1.12658 0.0297141 -4.54814e-09)
(1.10312 0.0510071 -3.02557e-09)
(1.07225 0.060663 -1.47363e-09)
(1.03995 0.0586999 -3.61396e-10)
(1.01145 0.0470287 1.10817e-10)
(0.991225 0.0277851 2.87794e-11)
(0.983386 0.00300676 -3.64438e-10)
(0.990904 -0.0240542 -8.05952e-10)
(1.01362 -0.0479773 -1.11286e-09)
(1.04703 -0.0624595 -1.23052e-09)
(1.08332 -0.063124 -1.21349e-09)
(1.1139 -0.0496628 -1.1577e-09)
(1.1321 -0.025905 -1.12407e-09)
(1.13484 0.00194432 -1.09549e-09)
(1.12292 0.027561 -1.00334e-09)
(1.10009 0.0461781 -8.02347e-10)
(1.07142 0.0552678 -5.18711e-10)
(1.04198 0.0543004 -2.28785e-10)
(1.01645 0.0439842 2.39169e-12)
(0.999213 0.0256636 1.61485e-10)
(0.994244 0.00155615 2.79007e-10)
(1.00389 -0.024394 3.93164e-10)
(1.02714 -0.0464914 5.20503e-10)
(1.05914 -0.0589718 6.5176e-10)
(1.09256 -0.0583966 7.64321e-10)
(1.11987 -0.0451118 8.35342e-10)
(1.13541 -0.0229719 8.50626e-10)
(1.13667 0.00231915 8.09593e-10)
(1.12451 0.0252234 7.2248e-10)
(1.10244 0.0418254 6.0174e-10)
(1.0752 0.0502206 4.59453e-10)
(1.04753 0.0499541 3.15086e-10)
(1.02381 0.0412319 2.00189e-10)
(1.00817 0.024706 1.4687e-10)
(1.00433 0.00211742 1.68281e-10)
(1.01436 -0.022837 2.51071e-10)
(1.03728 -0.0446818 3.65893e-10)
(1.06862 -0.0578542 4.84094e-10)
(1.10171 -0.0588795 5.87205e-10)
(1.12966 -0.0476668 6.66694e-10)
(1.14707 -0.0273705 7.19022e-10)
(1.15114 -0.00311111 7.41131e-10)
(1.14195 0.0197461 7.28781e-10)
(1.12219 0.0370991 6.77585e-10)
(1.09611 0.0468687 5.862e-10)
(1.06835 0.0487055 4.62178e-10)
(1.04316 0.0430185 3.267e-10)
(1.02445 0.0302434 2.10335e-10)
(1.01583 0.0110987 1.38795e-10)
(1.02011 -0.0123626 1.19905e-10)
(1.03786 -0.0360987 1.42857e-10)
(1.06649 -0.0548977 1.88105e-10)
(1.10073 -0.0643044 2.38082e-10)
(1.13423 -0.0623281 2.8222e-10)
(1.16131 -0.0499862 3.16641e-10)
(1.17812 -0.0306927 3.41605e-10)
(1.18316 -0.00903249 3.58821e-10)
(1.17716 0.0105349 3.69379e-10)
(1.16275 0.0247018 3.72502e-10)
(1.14367 0.0318864 3.65336e-10)
(1.12388 0.0321984 3.44186e-10)
(1.10687 0.026876 3.07401e-10)
(1.09534 0.0175883 2.58418e-10)
(1.09115 0.00606743 2.06092e-10)
(1.09506 -0.00582219 1.61201e-10)
(1.10632 -0.0159571 1.31609e-10)
(1.12242 -0.0222288 1.19515e-10)
(1.1396 -0.0232231 1.22156e-10)
(1.1539 -0.0188604 1.34482e-10)
(1.1623 -0.0105373 1.51697e-10)
(1.16341 -0.000682999 1.70514e-10)
(1.15766 0.00801061 1.89122e-10)
(1.14689 0.0133195 2.0649e-10)
(1.13385 0.0139288 2.21746e-10)
(1.12154 0.00953009 2.33888e-10)
(1.11259 0.00060288 2.41791e-10)
(1.1095 -0.0117737 2.44321e-10)
(1.11337 -0.0263285 2.40706e-10)
(1.12666 -0.0410712 2.31271e-10)
(1.14605 -0.0547433 2.18149e-10)
(1.17737 -0.0631431 2.04585e-10)
(1.20156 -0.0701701 1.94134e-10)
(1.25067 -0.0590327 1.85795e-10)
(1.00013 -0.00295287 4.21723e-18)
(1.00197 -0.00881801 1.22015e-17)
(1.00612 -0.0147531 1.3734e-17)
(1.0124 -0.0207253 1.19943e-17)
(1.02109 -0.0266306 2.74187e-17)
(1.03239 -0.0321505 -1.21348e-17)
(1.04637 -0.0367123 1.80911e-16)
(1.06283 -0.0392247 -4.97614e-16)
(1.08068 -0.0384539 -2.5809e-17)
(1.09817 -0.0331728 2.74645e-15)
(1.11152 -0.0229396 2.48274e-15)
(1.11816 -0.011339 -2.54959e-15)
(1.11833 -0.00081588 -7.08844e-15)
(1.11304 0.00557193 -7.57298e-15)
(1.10593 0.00560605 -5.46868e-15)
(1.10149 0.000135394 -1.00154e-14)
(1.10287 -0.00774135 -3.62876e-14)
(1.11083 -0.0132467 -7.60761e-14)
(1.12233 -0.0114694 -8.43196e-14)
(1.13108 -0.000475265 -5.75608e-14)
(1.13102 0.0169806 -2.9865e-14)
(1.11979 0.0353711 -1.03409e-14)
(1.09906 0.0497469 3.58116e-15)
(1.07255 0.0573404 -3.03968e-14)
(1.04422 0.0572155 -1.21874e-14)
(1.0176 0.0493384 5.64398e-13)
(0.995918 0.0339467 -9.57745e-13)
(0.982583 0.0115552 -9.62277e-12)
(0.981634 -0.0162653 1.35958e-11)
(0.997065 -0.0451279 1.80347e-10)
(1.02941 -0.0668882 4.97507e-10)
(1.07194 -0.0724978 7.36627e-10)
(1.11164 -0.0578599 6.60913e-10)
(1.13583 -0.0274427 3.55587e-10)
(1.1386 0.00822654 1.03126e-10)
(1.12216 0.0387702 -2.334e-13)
(1.09351 0.0585463 -1.6315e-11)
(1.05989 0.0668054 -1.28933e-11)
(1.02647 0.0650617 6.41856e-12)
(0.996481 0.0546848 8.53411e-11)
(0.972435 0.0360341 7.22657e-11)
(0.956973 0.00914822 -7.96942e-10)
(0.953714 -0.024486 -3.68378e-09)
(0.967412 -0.059682 -8.76668e-09)
(1.00077 -0.0867647 -1.43996e-08)
(1.04936 -0.0945904 -1.80859e-08)
(1.10066 -0.0771275 -1.78929e-08)
(1.13883 -0.0387419 -1.36892e-08)
(1.15211 0.00728903 -7.70828e-09)
(1.13863 0.0464482 -2.81955e-09)
(1.10626 0.07031 -2.74397e-10)
(1.06639 0.0781676 4.56539e-10)
(1.02776 0.0736374 4.08613e-10)
(0.994461 0.0604011 -1.0299e-11)
(0.968037 0.0398484 -1.21096e-09)
(0.951288 0.0114778 -3.67307e-09)
(0.949861 -0.0240466 -7.01232e-09)
(0.968833 -0.0611503 -1.00901e-08)
(1.00705 -0.089205 -1.21431e-08)
(1.05564 -0.097498 -1.33445e-08)
(1.1018 -0.0814481 -1.40869e-08)
(1.13398 -0.0452389 -1.39992e-08)
(1.14541 0.000232351 -1.2161e-08)
(1.13519 0.0420396 -8.49917e-09)
(1.10772 0.0702915 -4.31269e-09)
(1.07078 0.0813455 -1.14093e-09)
(1.03238 0.0772435 3.22829e-10)
(0.99847 0.0620918 2.31244e-10)
(0.973324 0.0384878 -9.29189e-10)
(0.961475 0.00728628 -2.58662e-09)
(0.967467 -0.029083 -4.12972e-09)
(0.992534 -0.0637246 -5.10005e-09)
(1.03201 -0.0868083 -5.42124e-09)
(1.07644 -0.0904586 -5.37607e-09)
(1.11499 -0.0728904 -5.35118e-09)
(1.13894 -0.0391197 -5.50554e-09)
(1.14397 0.0015086 -5.56303e-09)
(1.13078 0.0389206 -5.02732e-09)
(1.10395 0.0653721 -3.72618e-09)
(1.06986 0.0771667 -2.05725e-09)
(1.03479 0.0744997 -6.70604e-10)
(1.00418 0.0596268 9.55136e-12)
(0.982999 0.03489 -1.32499e-11)
(0.976028 0.0027093 -4.27783e-10)