/*--------------------------------*- C++ -*----------------------------------*\
  =========                 |
  \\      /  F ield         | OpenFOAM: The Open Source CFD Toolbox
   \\    /   O peration     | Website:  https://openfoam.org
    \\  /    A nd           | Version:  11
     \\/     M anipulation  |
\*---------------------------------------------------------------------------*/
FoamFile
{
    format      ascii;
    class       volScalarField;
    location    "13.250889";
    object      p;
}
// * * * * * * * * * * * * * * * * * * * * * * * * * * * * * * * * * * * * * //

dimensions      [0 2 -2 0 0 0 0];

internalField   nonuniform List<scalar> 
7132
(
0.0601041
0.0588047
0.0543455
0.0479503
0.0391271
0.0278121
0.0141585
-0.00141963
-0.0180284
-0.0341458
-0.0480863
-0.0577104
-0.0622559
-0.0615284
-0.0559973
-0.0471817
-0.0368144
-0.0264904
-0.0174095
-0.0102008
-0.00481608
-0.000578253
0.00335573
0.00746933
0.0117521
0.0159503
0.0198264
0.0232942
0.0264013
0.0291958
0.0315827
0.0331638
0.0333623
0.031925
0.0294257
0.0270892
0.0259013
0.0260284
0.0269463
0.0280243
0.028889
0.0294983
0.0300258
0.0306722
0.0314087
0.0317351
0.0308494
0.0283711
0.0250055
0.0222537
0.0212334
0.0219466
0.0235105
0.0249891
0.0258964
0.0262372
0.0263141
0.026485
0.0268443
0.0269466
0.0259501
0.0233605
0.0197933
0.0168358
0.0158709
0.0170742
0.0194408
0.0217017
0.0231052
0.023578
0.0234834
0.0233108
0.0233257
0.0232546
0.022326
0.0198792
0.0161652
0.0125354
0.0106387
0.0112957
0.0140059
0.0173815
0.0200906
0.0215008
0.0217311
0.0213339
0.0209052
0.0206574
0.0201695
0.0185984
0.0154139
0.011085
0.00703749
0.00480757
0.00509997
0.00745759
0.0106315
0.0133109
0.0146822
0.0146088
0.0134741
0.0118132
0.00984933
0.00727685
0.00354594
-0.00145734
-0.00695977
-0.0115564
-0.0140046
-0.0139093
-0.0118364
-0.008917
-0.00628662
-0.0047451
-0.00470996
-0.00634643
-0.0097431
-0.0149857
-0.0220774
-0.0306909
-0.0399
-0.0481555
-0.0536498
-0.0549879
-0.0517749
-0.0448106
-0.0357591
-0.0264642
-0.0183338
-0.0120579
-0.00769403
-0.00495218
-0.00347272
-0.00297657
-0.0032954
-0.00432124
-0.00593226
-0.00792417
-0.00997641
-0.0116772
-0.0126067
-0.0124601
-0.0111539
-0.00888333
-0.00608399
-0.00330618
-0.00101504
0.000545054
0.00142159
0.00178305
0.0019006
0.00182088
0.00177509
0.00146003
0.00143769
0.000721845
0.00112404
-0.000490054
0.00147126
-0.00272458
0.0606285
0.0593348
0.0548961
0.0485131
0.0396803
0.0283056
0.0145167
-0.00130337
-0.0182549
-0.0347818
-0.0491127
-0.0589404
-0.0635278
-0.0626659
-0.0568134
-0.0475956
-0.0368452
-0.0262341
-0.0170073
-0.0098057
-0.00455245
-0.000490285
0.00330745
0.00735971
0.0116412
0.0158708
0.0197919
0.0233094
0.0264679
0.029311
0.0317411
0.033343
0.0335073
0.0319601
0.0293014
0.0268295
0.0255835
0.0257315
0.0267083
0.0278502
0.0287703
0.029425
0.0299892
0.0306643
0.0314238
0.0317532
0.0308205
0.0282296
0.024716
0.0218525
0.0208074
0.0215806
0.0232416
0.0248117
0.0257878
0.0261736
0.0262752
0.026455
0.0268096
0.0268837
0.0258173
0.0231106
0.0194056
0.0163442
0.0153558
0.0166235
0.0191069
0.0214894
0.0229883
0.0235205
0.0234536
0.0232868
0.0232909
0.0231802
0.0221645
0.0195815
0.0157162
0.0119738
0.0100419
0.0107416
0.0135524
0.0170529
0.0198828
0.0213882
0.0216777
0.021307
0.0208827
0.0206183
0.0200746
0.0183929
0.015056
0.0105778
0.00643863
0.00420703
0.00458013
0.00706957
0.0103864
0.0131948
0.0146697
0.0146674
0.0135669
0.0119006
0.00988304
0.00719444
0.0032887
-0.00191084
-0.00757063
-0.0122316
-0.0146275
-0.0143767
-0.012084
-0.00893156
-0.0060997
-0.00441479
-0.00430348
-0.00593193
-0.00939305
-0.0147799
-0.0220966
-0.0309972
-0.0405117
-0.0490319
-0.0546946
-0.0560715
-0.052765
-0.0456002
-0.0362925
-0.0267399
-0.0183913
-0.0119565
-0.00749589
-0.00471226
-0.00323479
-0.00277234
-0.0031467
-0.00424318
-0.00593488
-0.00801133
-0.010143
-0.0119076
-0.0128767
-0.0127422
-0.0114228
-0.00911951
-0.00627501
-0.00344612
-0.00110448
0.00049953
0.00140883
0.00179115
0.00191833
0.00184162
0.00179181
0.00147381
0.00144057
0.000726158
0.00111148
-0.000486607
0.00145286
-0.00272239
0.0616746
0.0603939
0.0559984
0.0496452
0.0407988
0.0293111
0.0152559
-0.00105015
-0.0186975
-0.0360669
-0.0512015
-0.0614381
-0.0661058
-0.0649575
-0.0584296
-0.0483786
-0.0368427
-0.0256508
-0.016139
-0.00897008
-0.00400695
-0.000323139
0.00318535
0.0071108
0.0113926
0.0156887
0.0197024
0.02332
0.0265821
0.0295249
0.032046
0.0336949
0.0337921
0.0320178
0.029026
0.0262719
0.0249084
0.0251057
0.0262091
0.0274829
0.0285139
0.029257
0.0298918
0.0306239
0.0314309
0.0317667
0.0307373
0.0279122
0.0240891
0.0209922
0.0199002
0.0208055
0.0226738
0.0244347
0.0255498
0.0260225
0.0261692
0.0263653
0.0267124
0.0267315
0.0255208
0.0225686
0.0185759
0.0153011
0.0142681
0.0156726
0.0184012
0.0210364
0.0227294
0.0233778
0.0233603
0.0232004
0.0231831
0.0229961
0.0218086
0.0189559
0.0147907
0.0108258
0.00882597
0.00961467
0.0126296
0.0163803
0.0194489
0.0211392
0.021541
0.0212189
0.0208032
0.0205061
0.0198489
0.0179405
0.0142922
0.00951148
0.00518916
0.00295946
0.00350616
0.00627185
0.00988377
0.0129538
0.0146348
0.014773
0.0137418
0.0120686
0.0099417
0.00700823
0.00272962
-0.00288877
-0.0088827
-0.0136779
-0.0159594
-0.0153758
-0.0126199
-0.00898438
-0.00574
-0.00376508
-0.00350179
-0.00511581
-0.00870901
-0.0143915
-0.0221717
-0.0316656
-0.0418127
-0.0508825
-0.0568962
-0.0583524
-0.054848
-0.0472645
-0.0374216
-0.0273317
-0.0185301
-0.0117681
-0.00711028
-0.00424249
-0.00276895
-0.002373
-0.00285675
-0.00409282
-0.00594455
-0.00818899
-0.0104782
-0.012369
-0.0134154
-0.013303
-0.0119554
-0.0095858
-0.00665109
-0.00372126
-0.0012807
0.000408854
0.00138189
0.00180507
0.0019517
0.00188165
0.00182469
0.00150115
0.0014465
0.000734672
0.00108607
-0.000479433
0.0014153
-0.00271421
0.0632379
0.0619788
0.0576559
0.0513583
0.0425063
0.0308642
0.01642
-0.000622348
-0.0193428
-0.0380415
-0.0544514
-0.0653231
-0.0701285
-0.0685569
-0.0609777
-0.04962
-0.0368533
-0.0247508
-0.0147913
-0.00767943
-0.00318815
-0.000113724
0.0029409
0.0066817
0.010979
0.015386
0.0195425
0.0233096
0.0267254
0.0298175
0.0324783
0.0342016
0.0341909
0.0320475
0.0285157
0.025312
0.0237793
0.0240806
0.0254034
0.0268916
0.028093
0.0289659
0.0297017
0.0305152
0.0313883
0.0317243
0.0305279
0.0273145
0.0229857
0.0195175
0.0183751
0.019523
0.0217463
0.02382
0.0251514
0.0257495
0.0259526
0.0261595
0.0264857
0.0264172
0.0249864
0.0216593
0.0172234
0.0136149
0.0125095
0.0141336
0.0172562
0.0202938
0.0222889
0.0231088
0.023156
0.0229999
0.0229505
0.0226483
0.0211924
0.0179146
0.0132789
0.00897298
0.00688552
0.00783923
0.0111888
0.01533
0.0187578
0.0207188
0.0212821
0.0210324
0.0206357
0.0202901
0.0194464
0.0171635
0.0130072
0.00774146
0.00313544
0.000926963
0.00177288
0.00499561
0.00908397
0.0125641
0.0145584
0.0149089
0.0139888
0.0123132
0.0100119
0.00667235
0.00177506
-0.00452865
-0.0110564
-0.0160519
-0.0181308
-0.0170002
-0.0135007
-0.00910335
-0.00522026
-0.0028054
-0.00231825
-0.00391963
-0.00772653
-0.013879
-0.0223934
-0.0328251
-0.0439688
-0.0539014
-0.060462
-0.0620338
-0.0582047
-0.0499482
-0.039249
-0.0283039
-0.0187867
-0.0115132
-0.00655076
-0.00355423
-0.00208566
-0.00178828
-0.00243488
-0.00387975
-0.00597148
-0.00846755
-0.0109917
-0.0130687
-0.014227
-0.014143
-0.0127482
-0.0102754
-0.00720417
-0.00412463
-0.00153954
0.000274121
0.00133992
0.00182356
0.00199993
0.0019407
0.00187302
0.00154072
0.00145223
0.000744958
0.00104057
-0.000466878
0.00134067
-0.00267621
0.0653097
0.0640838
0.059872
0.0536702
0.0448388
0.0330216
0.0180812
4.70655e-05
-0.0201566
-0.0407524
-0.0589846
-0.0707113
-0.0756824
-0.0734929
-0.0643853
-0.051163
-0.0366678
-0.0233155
-0.0127766
-0.0058123
-0.00206698
7.97581e-05
0.00246871
0.00596417
0.0103111
0.0148933
0.019256
0.0232281
0.0268507
0.0301444
0.0329991
0.0348306
0.0346635
0.0319723
0.0276359
0.0237745
0.0220275
0.0225305
0.0242087
0.0260185
0.0274577
0.0284987
0.029357
0.030263
0.0312066
0.0315261
0.0300807
0.0262969
0.0212224
0.0172092
0.0160162
0.0175641
0.020348
0.0228966
0.0245358
0.0252898
0.0255384
0.0257277
0.0260104
0.0258239
0.0241012
0.0202719
0.0152391
0.0111795
0.00997792
0.0119068
0.0155825
0.0191869
0.0216009
0.0226454
0.0227667
0.0226137
0.02253
0.0220717
0.0202241
0.0163183
0.0109958
0.0062108
0.00403512
0.00527747
0.0091393
0.0138422
0.0177606
0.0200767
0.0208497
0.0207023
0.0203453
0.0199331
0.0188066
0.0159637
0.0110672
0.00511271
0.000115456
-0.00204678
-0.000756052
0.00313716
0.0079184
0.0119824
0.0144109
0.0150545
0.0142976
0.0126291
0.0100732
0.0061282
0.000321981
-0.0069626
-0.0142287
-0.019477
-0.0212439
-0.0193321
-0.0147911
-0.00933897
-0.00458238
-0.00157491
-0.000793328
-0.00238958
-0.00650586
-0.0133277
-0.0228789
-0.0346199
-0.0471387
-0.058248
-0.0655449
-0.0672613
-0.0629728
-0.0537751
-0.0418772
-0.0297333
-0.0192148
-0.0112306
-0.00584912
-0.00267689
-0.00121271
-0.00104309
-0.00190251
-0.00362226
-0.00603135
-0.00885969
-0.0116918
-0.0140098
-0.0153088
-0.015254
-0.0137887
-0.0111736
-0.00791929
-0.0046434
-0.00187178
0.000100689
0.00128539
0.00184769
0.00206384
0.00201956
0.00193713
0.00159194
0.00145538
0.000754631
0.00096766
-0.000447422
0.00120634
-0.00257406
0.0678773
0.0666999
0.0626499
0.0566022
0.0478435
0.0358597
0.0203392
0.00105126
-0.021096
-0.0442934
-0.0650363
-0.0778864
-0.0831296
-0.0801687
-0.0689796
-0.0532113
-0.0363781
-0.0213468
-0.0100408
-0.00331871
-0.000664353
0.000149804
0.00162575
0.00483844
0.00930986
0.0141584
0.0187981
0.0230257
0.0268985
0.0304371
0.0335393
0.0355118
0.0351162
0.031633
0.026139
0.0213657
0.0193896
0.0202669
0.0225067
0.0247842
0.0265394
0.0277787
0.0287544
0.0297135
0.0306833
0.0309592
0.0292266
0.0247553
0.0187071
0.0139139
0.0126007
0.0147174
0.0183275
0.0215655
0.0236227
0.0245491
0.0248046
0.024934
0.0251586
0.02483
0.0227168
0.0181978
0.0123703
0.0077597
0.00650198
0.00887767
0.0132913
0.0176363
0.020587
0.0219069
0.0221143
0.0219778
0.0218652
0.0211918
0.0187849
0.0139998
0.00774104
0.00232598
7.13921e-05
0.00176093
0.00636414
0.011841
0.0163987
0.0191565
0.0201904
0.0201861
0.0198968
0.0193893
0.0178562
0.0142421
0.00836505
0.00152526
-0.00396115
-0.00605184
-0.00417208
0.000613283
0.00632
0.0111573
0.0141513
0.0151775
0.0146439
0.0129897
0.0100765
0.00529432
-0.00172928
-0.0102788
-0.0184533
-0.02397
-0.0252951
-0.0223689
-0.0165044
-0.00972437
-0.00387715
-0.000136714
0.00100168
-0.000605895
-0.00514593
-0.0128601
-0.0237606
-0.0371627
-0.0513845
-0.0639222
-0.0720971
-0.0739734
-0.0691068
-0.0587293
-0.0453196
-0.0316529
-0.0198577
-0.0109674
-0.005054
-0.00165795
-0.000193369
-0.000174526
-0.00129085
-0.00334668
-0.00614565
-0.00938052
-0.0125852
-0.0151896
-0.0166486
-0.016616
-0.0150514
-0.0122526
-0.00877063
-0.00525733
-0.00226479
-0.000105975
0.00121898
0.00187621
0.00214206
0.00211707
0.00201515
0.00165178
0.00145086
0.000759201
0.000856964
-0.000419605
0.000979943
-0.00235936
0.0709219
0.0698128
0.0659901
0.0601793
0.0515796
0.0394805
0.0233339
0.00253302
-0.022074
-0.0487577
-0.0728547
-0.0870393
-0.0925671
-0.0885771
-0.0745859
-0.0554669
-0.0356123
-0.018471
-0.00627347
-1.38361e-05
0.00102531
-6.26969e-05
0.000178404
0.00308619
0.00780699
0.0130537
0.0180619
0.0225983
0.0267568
0.0305773
0.0339781
0.0361137
0.0353666
0.0307389
0.0235929
0.0175747
0.0154358
0.0170009
0.0201269
0.0230784
0.0252421
0.0266896
0.0277177
0.0286011
0.029495
0.0296957
0.0276889
0.0225059
0.0153401
0.00954463
0.00799229
0.0107979
0.0155138
0.0196953
0.0222985
0.0234014
0.0236105
0.0236544
0.0238321
0.0233313
0.0206702
0.0151915
0.0083144
0.00305646
0.00184511
0.00489294
0.0102815
0.0155556
0.0191576
0.0208029
0.0211202
0.02103
0.020892
0.0199201
0.0167598
0.0108402
0.00341391
-0.00276727
-0.005097
-0.00281091
0.00277207
0.00925257
0.0146085
0.0178965
0.019246
0.0194324
0.0192384
0.0185942
0.0165204
0.0119343
0.00487168
-0.00300677
-0.00905248
-0.0110502
-0.00846335
-0.00259596
0.00424757
0.0100398
0.013731
0.0152329
0.0149847
0.0133417
0.0099503
0.00409319
-0.0044279
-0.0144642
-0.0236471
-0.0294007
-0.0301511
-0.0260105
-0.0185989
-0.0102817
-0.00317772
0.00140467
0.00294661
0.00129976
-0.00379061
-0.0126139
-0.0251239
-0.0404312
-0.0565461
-0.0706379
-0.0797575
-0.0818016
-0.0762919
-0.0645876
-0.0494541
-0.0340265
-0.0207378
-0.01078
-0.00423677
-0.000570823
0.000905185
0.000760626
-0.00064617
-0.00308894
-0.00633818
-0.0100382
-0.0136621
-0.016581
-0.0182073
-0.0181831
-0.0164892
-0.0134681
-0.00972037
-0.00593816
-0.00270121
-0.000338133
0.001142
0.00190739
0.00223209
0.00223068
0.00210394
0.00171634
0.00143418
0.000755168
0.000700885
-0.000380881
0.000626911
-0.00197599
0.0744168
0.0734008
0.0698885
0.0644258
0.0561146
0.0440085
0.0272428
0.00468018
-0.0229847
-0.0543392
-0.0829188
-0.098746
-0.104794
-0.0996144
-0.0818667
-0.0582789
-0.0344847
-0.0146356
-0.00132976
0.00420985
0.00292492
-0.000853865
-0.00224725
0.000413911
0.00562463
0.011469
0.0169508
0.0218307
0.0262772
0.0303803
0.0340658
0.0363358
0.0350753
0.0288578
0.0194252
0.0117209
0.0095501
0.0123145
0.0168327
0.0207581
0.0234422
0.0250678
0.0260002
0.0266128
0.0273337
0.0274651
0.025168
0.0191349
0.0106694
0.00376878
0.00201361
0.00566644
0.0117614
0.0171462
0.0204275
0.0217081
0.0218288
0.0217936
0.021948
0.0212147
0.017806
0.0110877
0.00292021
-0.00307947
-0.00414236
-0.000171552
0.00646427
0.0128662
0.0172278
0.0192478
0.019711
0.0197046
0.0195347
0.0181674
0.0140729
0.00681556
-0.00194255
-0.00898212
-0.0113896
-0.00839985
-0.00164488
0.00603996
0.0123383
0.0162378
0.017955
0.0183777
0.0182979
0.0174689
0.014735
0.00902572
0.000644977
-0.00835574
-0.0149891
-0.0168723
-0.0135019
-0.00642608
0.0017061
0.00859444
0.013094
0.0151557
0.0152466
0.0135968
0.00960218
0.00246463
-0.00775306
-0.0193889
-0.0295832
-0.0354923
-0.0355523
-0.0300547
-0.0209684
-0.0110085
-0.00256792
0.00290915
0.00487169
0.00313648
-0.00262847
-0.0127198
-0.0269665
-0.044235
-0.0622396
-0.077862
-0.0879122
-0.090128
-0.0839794
-0.0709282
-0.0540123
-0.0367296
-0.0218409
-0.0107236
-0.00348604
0.000488204
0.00199429
0.00168703
-2.9507e-05
-0.00289292
-0.00662954
-0.0108237
-0.0148822
-0.0181181
-0.019904
-0.0198719
-0.0180249
-0.0147542
-0.010717
-0.00665038
-0.00316109
-0.000588842
0.00105277
0.00193527
0.00232648
0.00235237
0.0021958
0.00177895
0.00140162
0.000741944
0.000498964
-0.000325573
0.000121075
-0.00137211
0.0783256
0.0774334
0.0743333
0.0693645
0.0615256
0.0496007
0.0323075
0.00777842
-0.0236186
-0.0612136
-0.0956906
-0.113202
-0.119745
-0.113117
-0.0904932
-0.0612173
-0.0324915
-0.00936031
0.00517516
0.00953818
0.00490363
-0.00261897
-0.00614257
-0.00358548
0.00247757
0.00919676
0.0152822
0.0205272
0.0252193
0.0294744
0.0331971
0.0354661
0.033781
0.0259909
0.0137963
0.00361698
0.00113127
0.00566299
0.0123008
0.0176416
0.020985
0.0227063
0.0233318
0.0235114
0.0240493
0.0241515
0.0214431
0.0142382
0.00419159
-0.0038458
-0.0056028
-0.000812476
0.00695879
0.0137902
0.0178695
0.0193364
0.0193566
0.019273
0.0194215
0.0183779
0.0140439
0.00588922
-0.00371783
-0.0105274
-0.0113863
-0.00630702
0.00180955
0.00951496
0.0147258
0.0171632
0.0178112
0.0179218
0.0177039
0.015858
0.0107097
0.0020104
-0.00814301
-0.0160695
-0.0185545
-0.0148147
-0.00678563
0.0022263
0.00956215
0.0141277
0.0162493
0.0169399
0.0169802
0.0159254
0.0124577
0.00555822
-0.00417253
-0.0142927
-0.0214929
-0.0232387
-0.0190585
-0.0107325
-0.00125027
0.00680405
0.0121783
0.0148584
0.0153241
0.0136371
0.00893531
0.00038958
-0.0115954
-0.0248034
-0.0359066
-0.0418482
-0.0411187
-0.0342253
-0.0234659
-0.0118926
-0.00214974
0.00419637
0.00655055
0.00465663
-0.00186914
-0.0132658
-0.0291815
-0.0482483
-0.067952
-0.0849519
-0.0958506
-0.0982331
-0.0915085
-0.0772164
-0.0586283
-0.039571
-0.0231212
-0.0108503
-0.00290469
0.00140149
0.00296198
0.00250684
0.000481128
-0.0028082
-0.00703026
-0.011702
-0.0161674
-0.0196907
-0.0216137
-0.021559
-0.0195493
-0.0160232
-0.0116965
-0.00735263
-0.00362299
-0.000852245
0.000946687
0.0019491
0.00241132
0.00246657
0.00227742
0.00183152
0.00135452
0.000727543
0.000266861
-0.000240784
-0.000536211
-0.000522123
0.0825996
0.0818674
0.0793005
0.0750074
0.0678879
0.0564323
0.0388146
0.0121923
-0.0237389
-0.069803
-0.112138
-0.131633
-0.139272
-0.131037
-0.101684
-0.0647629
-0.0296954
-0.00244275
0.013541
0.0161285
0.00668779
-0.00617772
-0.0124588
-0.00959564
-0.00199917
0.00603569
0.0128836
0.0184799
0.0232561
0.0271845
0.0303048
0.032249
0.0303834
0.0218082
0.00719554
-0.00615167
-0.00977987
-0.00333141
0.00617222
0.0134983
0.0176838
0.0193906
0.0194992
0.0191744
0.019587
0.0196693
0.0163726
0.00771728
-0.00411817
-0.0133236
-0.0149161
-0.00868348
0.00105834
0.00954051
0.0145095
0.0161791
0.0161138
0.0160179
0.0161668
0.0147543
0.00940736
-0.000238958
-0.0113036
-0.018936
-0.0195837
-0.0133266
-0.00360906
0.00550009
0.0116074
0.0144841
0.0153427
0.0155884
0.0153066
0.0129431
0.00671942
-0.00339861
-0.0148943
-0.0236636
-0.0262173
-0.0217423
-0.0124466
-0.00209647
0.00628975
0.0115264
0.0140572
0.0150222
0.0151774
0.0138796
0.00967497
0.0016253
-0.00937323
-0.0205181
-0.028214
-0.029799
-0.0248344
-0.01531
-0.00452524
0.00466863
0.010915
0.0142283
0.0150774
0.0133201
0.00785966
-0.00210332
-0.0157669
-0.0303696
-0.0421802
-0.0480058
-0.0464392
-0.0382115
-0.0259244
-0.0129198
-0.00204039
0.0050549
0.00771464
0.00558582
-0.00170883
-0.0142867
-0.0315996
-0.0521119
-0.0731777
-0.0913024
-0.102909
-0.105435
-0.0982305
-0.0829013
-0.0629029
-0.0423259
-0.0245116
-0.0112062
-0.00260127
0.00203798
0.00367847
0.00310371
0.000795645
-0.00288444
-0.00753825
-0.012617
-0.0174155
-0.0211653
-0.0231881
-0.0230988
-0.0209341
-0.0171737
-0.0125873
-0.00800121
-0.00406661
-0.00112582
0.000813858
0.00193034
0.00246249
0.00254693
0.00232738
0.00186304
0.00129846
0.000727598
3.7371e-05
-0.000108046
-0.00129864
0.000546691
0.0871757
0.0866453
0.0847502
0.0813557
0.0752778
0.0647199
0.0471582
0.0184981
-0.0228482
-0.080482
-0.133135
-0.153809
-0.162516
-0.15286
-0.115056
-0.0685631
-0.025672
0.00644319
0.0240313
0.0239453
0.00762535
-0.01263
-0.022277
-0.0183871
-0.00827172
0.00167679
0.00949356
0.0154002
0.0198925
0.0226326
0.0243445
0.0257022
0.023957
0.0151151
-0.00151014
-0.017956
-0.0229568
-0.0146694
-0.00176529
0.00810738
0.0133418
0.0149404
0.0143884
0.0135645
0.0139281
0.0139814
0.00998711
-0.000182695
-0.0138024
-0.0241736
-0.0255641
-0.017755
-0.00586719
0.00438336
0.0102841
0.012167
0.0120381
0.0119557
0.0121109
0.0103308
0.00401707
-0.00701113
-0.0194113
-0.0278086
-0.0282693
-0.0208901
-0.00960599
0.000886501
0.00786475
0.0111607
0.0122252
0.0126045
0.0122575
0.00940756
0.00220819
-0.0091662
-0.0218317
-0.031326
-0.0339273
-0.028789
-0.0183466
-0.00677492
0.00256911
0.00840976
0.0113062
0.0125204
0.012779
0.0112606
0.00640433
-0.00263796
-0.014706
-0.0266916
-0.0347641
-0.0361658
-0.0304932
-0.0199168
-0.00799383
0.00220153
0.00922983
0.0131311
0.0143403
0.0124932
0.00630557
-0.00493729
-0.0200219
-0.0357005
-0.047936
-0.0534878
-0.0510938
-0.0417064
-0.0281863
-0.014089
-0.00237371
0.00525322
0.00807809
0.00566509
-0.00229975
-0.0157736
-0.0340475
-0.0555145
-0.0774942
-0.0964015
-0.10851
-0.111129
-0.103566
-0.0874817
-0.0664629
-0.0447754
-0.0259407
-0.0118327
-0.00268411
0.00226034
0.00400237
0.00334999
0.000819496
-0.00316732
-0.00814365
-0.0135078
-0.0185254
-0.0224138
-0.0244856
-0.0243495
-0.0220521
-0.0181039
-0.0133181
-0.0085545
-0.00447471
-0.0014108
0.00063919
0.00185267
0.00244527
0.00255615
0.00231523
0.00185574
0.0012348
0.0007526
-0.00015313
8.37397e-05
-0.00207466
0.00173815
0.0919741
0.0916898
0.0906188
0.0883772
0.0837436
0.0746616
0.0577586
0.0273933
-0.0205008
-0.0942074
-0.160692
-0.18285
-0.194072
-0.18269
-0.132595
-0.0731017
-0.0203394
0.0177579
0.0369466
0.0327542
0.00664985
-0.0244361
-0.0381
-0.0315446
-0.0170353
-0.0041786
0.00490535
0.0109951
0.0145586
0.0151731
0.0151207
0.0160992
0.0147495
0.00532299
-0.013442
-0.0325331
-0.0384553
-0.0281643
-0.0115141
0.00133114
0.00779729
0.00924063
0.0079689
0.00669207
0.0070828
0.0071376
0.00250224
-0.00899295
-0.0241642
-0.0356064
-0.0368553
-0.0275691
-0.0135821
-0.00159411
0.00520158
0.00727764
0.00708768
0.00702706
0.00721212
0.00515322
-0.0019318
-0.014069
-0.0275497
-0.0365806
-0.0368932
-0.0285565
-0.0159012
-0.00419147
0.003533
0.007165
0.00838698
0.00887889
0.00849381
0.00527461
-0.00267369
-0.0150077
-0.0285598
-0.0385938
-0.0412086
-0.0355271
-0.0241603
-0.0116108
-0.00151672
0.00477445
0.00793272
0.00933608
0.00968799
0.00802233
0.002694
-0.00706907
-0.0199019
-0.0324648
-0.0407536
-0.0419515
-0.0356949
-0.0243007
-0.0115175
-0.000574863
0.00704671
0.0114205
0.0129349
0.0110096
0.0042301
-0.00800044
-0.0240912
-0.0404088
-0.0527273
-0.0578502
-0.0547009
-0.0444408
-0.030125
-0.0154199
-0.00329139
0.00456599
0.00738641
0.00469137
-0.00373901
-0.0177022
-0.0363941
-0.0582292
-0.0805774
-0.0998313
-0.112171
-0.11481
-0.107032
-0.0905432
-0.0689992
-0.0467368
-0.0273488
-0.0127675
-0.00325424
0.00193543
0.00379303
0.00312085
0.000464522
-0.00369661
-0.00883822
-0.0143262
-0.0194183
-0.0233345
-0.02539
-0.0251917
-0.0227934
-0.0187251
-0.0138273
-0.00897764
-0.00483507
-0.00171244
0.000403033
0.00168325
0.00231676
0.002448
0.00219989
0.00177613
0.00114344
0.000785057
-0.000291049
0.000317236
-0.00275511
0.0028987
0.0968969
0.0969058
0.096815
0.0960173
0.0933105
0.0865188
0.071228
0.0401174
-0.0154622
-0.112214
-0.196514
-0.215831
-0.230422
-0.219788
-0.154632
-0.0788241
-0.0140175
0.0311169
0.0516694
0.0405774
-0.000247311
-0.0457495
-0.0629617
-0.05076
-0.0290724
-0.011905
-0.00114462
0.00491049
0.00677397
0.00464301
0.00298305
0.00405266
0.00326017
-0.00697656
-0.0277659
-0.0490392
-0.0556023
-0.0432411
-0.0227837
-0.00679724
0.000990013
0.0022656
0.00027361
-0.00140312
-0.000903813
-0.000724751
-0.0057432
-0.0181451
-0.034443
-0.0467492
-0.0479571
-0.0374882
-0.0216982
-0.00819415
-0.000649903
0.00153997
0.00125097
0.00120258
0.0014752
-0.00067422
-0.00819289
-0.0210226
-0.0352148
-0.044682
-0.0448877
-0.0358426
-0.0221548
-0.00954146
-0.00130914
0.00249684
0.0037768
0.00434595
0.00398795
0.000605921
-0.0077465
-0.0206269
-0.0346894
-0.0450214
-0.0476035
-0.0415372
-0.0295535
-0.016382
-0.00585684
0.000640758
0.00389293
0.00539265
0.00583623
0.00415137
-0.00138035
-0.0114924
-0.0246962
-0.0375088
-0.0458216
-0.0467985
-0.0401228
-0.0282212
-0.0149574
-0.00363118
0.00429659
0.00895506
0.0106893
0.00874592
0.00162053
-0.0111622
-0.027714
-0.044146
-0.0561688
-0.0607253
-0.0569544
-0.0462105
-0.0316623
-0.0169552
-0.00492881
0.00280512
0.0054564
0.00253906
-0.00607309
-0.0200508
-0.038562
-0.0601117
-0.0821953
-0.101271
-0.113506
-0.116078
-0.108263
-0.0917853
-0.0702952
-0.0480847
-0.0286988
-0.0140469
-0.00439965
0.000945584
0.00292564
0.00230843
-0.000343436
-0.00450716
-0.00962201
-0.015044
-0.0200426
-0.0238562
-0.0258166
-0.0255362
-0.0230754
-0.0189701
-0.014069
-0.00924611
-0.00514097
-0.00203822
8.47636e-05
0.00138849
0.00203377
0.00217437
0.00193286
0.00157361
0.000978203
0.000774454
-0.000395597
0.000542953
-0.00324953
0.00385904
0.101827
0.10217
0.103211
0.104138
0.103921
0.10036
0.088072
0.0578026
-0.00742444
-0.135575
-0.245608
-0.263041
-0.282917
-0.272045
-0.183885
-0.0861181
-0.00646025
0.0464162
0.0670589
0.0493273
-0.00894486
-0.0744651
-0.099921
-0.0791909
-0.0456629
-0.0217973
-0.00876809
-0.00306208
-0.00360948
-0.00869967
-0.0116378
-0.00991867
-0.00990586
-0.0205983
-0.042722
-0.0656267
-0.0728215
-0.0588026
-0.0349464
-0.0160137
-0.00697942
-0.00589841
-0.00860209
-0.0106388
-0.00992857
-0.00938595
-0.0143421
-0.0270523
-0.0439083
-0.0567699
-0.0580317
-0.0468034
-0.0297228
-0.0151201
-0.00710348
-0.00496123
-0.00543953
-0.00549761
-0.00503621
-0.00699355
-0.0144914
-0.0274875
-0.0419363
-0.0515911
-0.0517263
-0.0422781
-0.028007
-0.0149323
-0.00654198
-0.002807
-0.00161869
-0.00101584
-0.00124052
-0.00449908
-0.0128157
-0.0257411
-0.0398704
-0.0502186
-0.0527128
-0.0464459
-0.0342141
-0.0208639
-0.0103204
-0.00394271
-0.000823607
0.000653337
0.0012
-0.0003257
-0.00571915
-0.0157326
-0.0288494
-0.0415392
-0.0496629
-0.0504064
-0.0435088
-0.0314687
-0.0181847
-0.0069301
0.000930006
0.00562188
0.00747462
0.00561921
-0.00150701
-0.0142919
-0.030667
-0.0466349
-0.0579697
-0.061847
-0.0576457
-0.0468948
-0.0327753
-0.0187517
-0.00739287
-0.000149888
0.00219463
-0.000839486
-0.0093083
-0.0228044
-0.0405177
-0.0610893
-0.0822137
-0.100522
-0.112278
-0.114692
-0.107048
-0.0910477
-0.0702439
-0.0487631
-0.0299818
-0.0157041
-0.00618764
-0.000798865
0.00130509
0.000831366
-0.00166074
-0.005629
-0.010503
-0.0156506
-0.0203704
-0.0239361
-0.0257127
-0.0253281
-0.0228479
-0.0187999
-0.0140177
-0.00934767
-0.0053904
-0.00239488
-0.000331871
0.000942166
0.00156325
0.00169737
0.00147112
0.00119821
0.00068957
0.00066417
-0.000497991
0.000703055
-0.00349863
0.00447889
0.10663
0.107343
0.109634
0.112581
0.115428
0.116458
0.109152
0.0839543
0.00687843
-0.174336
-0.306808
-0.307676
-0.341948
-0.340649
-0.224074
-0.0978007
-3.38679e-05
0.0562709
0.07345
0.0541865
-0.0117235
-0.0924455
-0.136218
-0.114165
-0.067332
-0.0342822
-0.0181132
-0.0129873
-0.0164477
-0.0244556
-0.028238
-0.0252453
-0.0238931
-0.0341908
-0.0565787
-0.0803737
-0.0882694
-0.0734117
-0.0470885
-0.0258194
-0.0158287
-0.0150456
-0.018493
-0.0208699
-0.0198102
-0.0185503
-0.0228578
-0.0351648
-0.0519248
-0.0649615
-0.0663414
-0.0548359
-0.0371257
-0.0220076
-0.0139241
-0.0120816
-0.012892
-0.0129868
-0.0121917
-0.0135998
-0.0205443
-0.0331149
-0.0473165
-0.0568782
-0.0569712
-0.0474526
-0.0331162
-0.0201161
-0.0120104
-0.00866464
-0.00775899
-0.00716759
-0.00711618
-0.00990557
-0.0176845
-0.0301026
-0.0438187
-0.05388
-0.0562257
-0.0499557
-0.0378788
-0.0248476
-0.014764
-0.0088951
-0.00618083
-0.00486264
-0.00418751
-0.00533769
-0.010203
-0.0196252
-0.0321623
-0.0443352
-0.0520486
-0.0525522
-0.0456506
-0.0338775
-0.0210864
-0.0104224
-0.00306777
0.00135942
0.00322144
0.00159905
-0.00511018
-0.0172731
-0.0327844
-0.0476912
-0.0579553
-0.0610737
-0.0566844
-0.0464667
-0.0334916
-0.0208639
-0.0107395
-0.00433663
-0.00240724
-0.00542699
-0.0134176
-0.0259451
-0.0422548
-0.0611551
-0.0806105
-0.0975425
-0.108435
-0.110609
-0.103364
-0.0883284
-0.0688561
-0.0487877
-0.0312168
-0.0177649
-0.00865701
-0.00335082
-0.00112766
-0.00136318
-0.00352566
-0.0070851
-0.0114914
-0.0161458
-0.020393
-0.0235596
-0.0250606
-0.0245506
-0.0220981
-0.0182068
-0.0136707
-0.00928212
-0.00558385
-0.00278425
-0.00085238
0.000334322
0.000891885
0.00100268
0.000800187
0.000631321
0.000259594
0.000427905
-0.000610995
0.000761129
-0.00346356
0.00466661
0.111157
0.112252
0.115875
0.120997
0.127536
0.134116
0.134866
0.117437
0.0278447
-0.203335
-0.414146
-0.386714
-0.431009
-0.43947
-0.277949
-0.113156
0.00174725
0.0490866
0.0588823
0.0304132
-0.021853
-0.102113
-0.162708
-0.148175
-0.0915766
-0.0488004
-0.0290119
-0.0246711
-0.0313513
-0.0421947
-0.0463096
-0.041285
-0.0377332
-0.0465159
-0.0679673
-0.0917795
-0.100384
-0.0856452
-0.0581626
-0.0355378
-0.0251132
-0.0248553
-0.0291498
-0.0318678
-0.0302718
-0.0278524
-0.0308506
-0.042008
-0.0579984
-0.070797
-0.0723199
-0.0610181
-0.0434072
-0.0284651
-0.0208252
-0.0196153
-0.0209425
-0.0210992
-0.0197906
-0.0202494
-0.0260774
-0.0376163
-0.0510592
-0.0602383
-0.0603075
-0.0510511
-0.0371904
-0.0248495
-0.0175303
-0.0149424
-0.0145363
-0.0139979
-0.0135024
-0.0154465
-0.0221644
-0.0335135
-0.0463344
-0.0558058
-0.0579417
-0.0518653
-0.0403513
-0.0281541
-0.0190384
-0.0141
-0.012086
-0.0110684
-0.0102279
-0.0107665
-0.0146962
-0.0230252
-0.0344884
-0.0457535
-0.0528414
-0.053105
-0.0464244
-0.0353347
-0.0235683
-0.0140412
-0.00766203
-0.00382216
-0.00206232
-0.00328454
-0.00912368
-0.0200144
-0.0339715
-0.0472391
-0.0560828
-0.0583995
-0.054105
-0.0449903
-0.0338739
-0.0233224
-0.0149584
-0.00971344
-0.00829033
-0.0111582
-0.0183437
-0.0294405
-0.0437801
-0.0603622
-0.0774826
-0.092464
-0.102131
-0.103996
-0.0973836
-0.0837852
-0.0662568
-0.0482393
-0.0324416
-0.0202392
-0.0118121
-0.00672463
-0.00439713
-0.00430168
-0.00595834
-0.00888729
-0.0125933
-0.0165347
-0.0201193
-0.022742
-0.0238821
-0.0232294
-0.0208529
-0.0172157
-0.0130471
-0.00905918
-0.00572133
-0.00319977
-0.0014672
-0.00042332
3.49242e-05
0.000109538
-5.26585e-05
-9.61905e-05
-0.000281392
8.51366e-05
-0.000717339
0.000712753
-0.00312189
0.00437546
0.115249
0.116726
0.121658
0.129093
0.139662
0.153613
0.166181
0.1732
0.070986
-0.195103
-0.47567
-0.428105
-0.540159
-0.579525
-0.36105
-0.138711
-0.0128876
0.0125033
0.00800236
-0.0143368
-0.0446152
-0.113608
-0.181094
-0.17684
-0.115614
-0.0643411
-0.0410564
-0.0377032
-0.047768
-0.0613725
-0.065215
-0.057237
-0.0504272
-0.0565509
-0.0759446
-0.0988966
-0.108098
-0.0943671
-0.0671739
-0.0444134
-0.0342766
-0.0349083
-0.040227
-0.0432884
-0.0409337
-0.0368696
-0.0379005
-0.0472077
-0.0618047
-0.0739629
-0.0756166
-0.0649491
-0.0481535
-0.0341152
-0.0274893
-0.027297
-0.0293483
-0.0295846
-0.0275646
-0.0266694
-0.0308401
-0.04078
-0.0529879
-0.0615114
-0.0615648
-0.0528764
-0.0400104
-0.0289112
-0.0228958
-0.0214524
-0.0217683
-0.0213174
-0.0202013
-0.0209275
-0.0260831
-0.0358355
-0.0473129
-0.0559135
-0.057782
-0.0520819
-0.0415144
-0.030644
-0.0229931
-0.0194049
-0.0183846
-0.0178041
-0.0167552
-0.0164485
-0.0190512
-0.025813
-0.0357404
-0.0457359
-0.0520026
-0.0520325
-0.045791
-0.035784
-0.0255545
-0.0176967
-0.0127576
-0.0098277
-0.0082811
-0.00893704
-0.0134613
-0.022454
-0.0342101
-0.045317
-0.0524477
-0.0539568
-0.0500636
-0.0426044
-0.0339957
-0.0261159
-0.019972
-0.0161752
-0.0153481
-0.0179341
-0.0240025
-0.0332389
-0.0451052
-0.0588152
-0.0730374
-0.0855808
-0.0937184
-0.0952253
-0.0894602
-0.0777194
-0.0626674
-0.047246
-0.0336981
-0.0231131
-0.0156227
-0.0109015
-0.00849948
-0.00798704
-0.00895979
-0.0110329
-0.0138067
-0.0168252
-0.019575
-0.0215291
-0.0222379
-0.0214322
-0.0191775
-0.0158809
-0.0121834
-0.00869482
-0.00579999
-0.00362539
-0.00215167
-0.00129826
-0.000964643
-0.000927119
-0.00102121
-0.0009127
-0.00086726
-0.000311106
-0.000781769
0.000577747
-0.0024764
0.00360534
0.11875
0.120562
0.126704
0.136219
0.151082
0.171822
0.202818