/*--------------------------------*- C++ -*----------------------------------*\
  =========                 |
  \\      /  F ield         | OpenFOAM: The Open Source CFD Toolbox
   \\    /   O peration     | Website:  https://openfoam.org
    \\  /    A nd           | Version:  11
     \\/     M anipulation  |
\*---------------------------------------------------------------------------*/
FoamFile
{
    format      ascii;
    class       surfaceScalarField;
    location    "1.125948";
    object      phi;
}
// * * * * * * * * * * * * * * * * * * * * * * * * * * * * * * * * * * * * * //

dimensions      [0 3 -1 0 0 0 0];

internalField   nonuniform List<scalar> 
14638
(
0.00250264
-2.64401e-06
0.00251058
-7.93988e-06
0.00252406
-1.34778e-05
0.00254338
-1.93171e-05
0.00256879
-2.54109e-05
0.00260025
-3.14597e-05
0.00263719
-3.6942e-05
0.00267812
-4.09303e-05
0.00272054
-4.24135e-05
0.00276089
-4.0356e-05
0.00279506
-3.41699e-05
0.00281968
-2.46235e-05
0.0028324
-1.27113e-05
0.00283202
3.78193e-07
0.00281908
1.29392e-05
0.00279565
2.34263e-05
0.00276487
3.07813e-05
0.00273027
3.46024e-05
0.00269519
3.50791e-05
0.00266233
3.28565e-05
0.00263344
2.88895e-05
0.00260919
2.42516e-05
0.00258931
1.98777e-05
0.00257299
1.63274e-05
0.00255928
1.37023e-05
0.00254752
1.17657e-05
0.00253734
1.01769e-05
0.00252865
8.69104e-06
0.00252142
7.22805e-06
0.0025156
5.82537e-06
0.00251105
4.55235e-06
0.00250759
3.45387e-06
0.00250505
2.54024e-06
0.00250325
1.80224e-06
0.00250202
1.22569e-06
0.00250123
7.9538e-07
0.00250074
4.92532e-07
0.00250044
2.93242e-07
0.00250027
1.70702e-07
0.00250017
9.95986e-08
0.00250011
5.97313e-08
0.00250007
3.7307e-08
0.00250005
2.41507e-08
0.00250003
1.5963e-08
0.00250002
1.06383e-08
0.00250002
7.11865e-09
0.00250001
4.79617e-09
0.00250001
3.26893e-09
0.00250001
2.25953e-09
0.0025
1.58259e-09
0.0025
1.12031e-09
0.0025
7.99666e-10
0.0025
5.7497e-10
0.0025
4.16454e-10
0.0025
3.04108e-10
0.0025
2.24076e-10
0.0025
1.66825e-10
0.0025
1.25653e-10
0.0025
9.59559e-11
0.0025
7.44204e-11
0.0025
5.87779e-11
0.0025
4.73341e-11
0.0025
3.89569e-11
0.0025
3.27555e-11
0.0025
2.81685e-11
0.0025
2.47129e-11
0.0025
2.21183e-11
0.0025
2.01115e-11
0.0025
1.85716e-11
0.0025
1.7335e-11
0.0025
1.63578e-11
0.0025
1.55345e-11
0.0025
1.48608e-11
0.0025
1.42625e-11
0.0025
1.37551e-11
0.0025
1.32818e-11
0.0025
1.28677e-11
0.0025
1.24664e-11
0.0025
1.21072e-11
0.0025
1.17502e-11
0.0025
1.14257e-11
0.0025
1.10984e-11
0.0025
1.07981e-11
0.0025
1.04929e-11
0.0025
1.02111e-11
0.0025
9.9239e-12
0.0025
9.65765e-12
0.0025
9.38627e-12
0.0025
9.13401e-12
0.0025
8.87727e-12
0.0025
8.6381e-12
0.0025
8.39525e-12
0.0025
8.16855e-12
0.0025
7.93902e-12
0.0025
7.72429e-12
0.0025
7.50759e-12
0.0025
7.30435e-12
0.0025
7.09995e-12
0.0025
6.90767e-12
0.0025
6.71498e-12
0.0025
6.53312e-12
0.0025
6.35152e-12
0.0025
6.17943e-12
0.0025
6.00824e-12
0.0025
5.84531e-12
0.0025
5.68388e-12
0.0025
5.52949e-12
0.0025
5.37717e-12
0.0025
5.23072e-12
0.0025
5.08688e-12
0.0025
4.9478e-12
0.0025
4.81184e-12
0.0025
4.67957e-12
0.0025
4.55092e-12
0.0025
4.42496e-12
0.0025
4.3031e-12
0.0025
4.183e-12
0.0025
4.06747e-12
0.0025
3.9528e-12
0.0025
3.84312e-12
0.0025
3.73349e-12
0.0025
3.62929e-12
0.0025
3.52437e-12
0.0025
3.42528e-12
0.0025
3.32474e-12
0.0025
3.23042e-12
0.0025
3.13401e-12
0.0025
3.04417e-12
0.0025
2.95162e-12
0.0025
2.86599e-12
0.0025
2.77707e-12
0.0025
2.69539e-12
0.0025
2.60992e-12
0.0025
2.53197e-12
0.0025
2.44973e-12
0.0025
2.3753e-12
0.0025
2.29615e-12
0.0025
2.22504e-12
0.0025
2.14882e-12
0.0025
2.08087e-12
0.0025
2.00745e-12
0.0025
1.94248e-12
0.0025
1.8717e-12
0.0025
1.80957e-12
0.0025
1.74134e-12
0.0025
1.6819e-12
0.0025
1.6161e-12
0.0025
1.55921e-12
0.0025
1.49572e-12
0.0025
1.4412e-12
0.0025
1.37996e-12
0.0025
1.32763e-12
0.0025
1.26908e-12
0.0025
1.21882e-12
0.0025
1.16578e-12
0.0025
1.11331e-12
0.0025
1.07959e-12
0.0025
9.91137e-13
0.0025
1.06901e-12
7.79838e-13
0.00250262
-5.26756e-06
0.00251051
-1.5825e-05
0.00252392
-2.6885e-05
0.00254319
-3.85874e-05
0.00256863
-5.08519e-05
0.00260026
-6.30929e-05
0.00263759
-7.42718e-05
0.00267915
-8.24929e-05
0.00272242
-8.56857e-05
0.00276372
-8.1655e-05
0.0027987
-6.91504e-05
0.0028239
-4.98171e-05
0.00283686
-2.56713e-05
0.00283634
8.97222e-07
0.0028229
2.63749e-05
0.00279874
4.75873e-05
0.00276714
6.23816e-05
0.00273177
6.99784e-05
0.00269604
7.0809e-05
0.00266268
6.62134e-05
0.00263344
5.81321e-05
0.00260896
4.87256e-05
0.00258897
3.98689e-05
0.00257261
3.26843e-05
0.00255894
2.73775e-05
0.00254723
2.3474e-05
0.00253712
2.02884e-05
0.00252849
1.73234e-05
0.0025213
1.44111e-05
0.00251551
1.16202e-05
0.00251098
9.08546e-06
0.00250753
6.89527e-06
0.002505
5.0706e-06
0.00250321
3.59459e-06
0.002502
2.44078e-06
0.00250121
1.58018e-06
0.00250073
9.75847e-07
0.00250044
5.79679e-07
0.00250028
3.37343e-07
0.00250018
1.97512e-07
0.00250012
1.19406e-07
0.00250008
7.54127e-08
0.00250005
4.9379e-08
0.00250004
3.29583e-08
0.00250003
2.21375e-08
0.00250002
1.49124e-08
0.00250001
1.01101e-08
0.00250001
6.93262e-09
0.00250001
4.81896e-09
0.00250001
3.3914e-09
0.0025
2.4095e-09
0.0025
1.72401e-09
0.0025
1.24101e-09
0.0025
8.98746e-10
0.0025
6.55223e-10
0.0025
4.81195e-10
0.0025
3.56329e-10
0.0025
2.66347e-10
0.0025
2.01306e-10
0.0025
1.54109e-10
0.0025
1.19786e-10
0.0025
9.47064e-11
0.0025
7.63435e-11
0.0025
6.28052e-11
0.0025
5.28021e-11
0.0025
4.53301e-11
0.0025
3.97356e-11
0.0025
3.54732e-11
0.0025
3.22187e-11
0.0025
2.96661e-11
0.0025
2.76627e-11
0.0025
2.60286e-11
0.0025
2.47009e-11
0.0025
2.35663e-11
0.0025
2.26085e-11
0.0025
2.17506e-11
0.0025
2.09999e-11
0.0025
2.02997e-11
0.0025
1.96695e-11
0.0025
1.9064e-11
0.0025
1.85083e-11
0.0025
1.79639e-11
0.0025
1.74582e-11
0.0025
1.6957e-11
0.0025
1.64879e-11
0.0025
1.60201e-11
0.0025
1.55805e-11
0.0025
1.51407e-11
0.0025
1.47267e-11
0.0025
1.43118e-11
0.0025
1.3921e-11
0.0025
1.35293e-11
0.0025
1.31601e-11
0.0025
1.27903e-11
0.0025
1.24416e-11
0.0025
1.20925e-11
0.0025
1.17632e-11
0.0025
1.14338e-11
0.0025
1.11231e-11
0.0025
1.08124e-11
0.0025
1.0519e-11
0.0025
1.02259e-11
0.0025
9.94891e-12
0.0025
9.67232e-12
0.0025
9.41058e-12
0.0025
9.1494e-12
0.0025
8.90188e-12
0.0025
8.65506e-12
0.0025
8.42077e-12
0.0025
8.18729e-12
0.0025
7.96525e-12
0.0025
7.74415e-12
0.0025
7.53346e-12
0.0025
7.32383e-12
0.0025
7.12365e-12
0.0025
6.92467e-12
0.0025
6.73422e-12
0.0025
6.54514e-12
0.0025
6.36373e-12
0.0025
6.18382e-12
0.0025
6.01082e-12
0.0025
5.83947e-12
0.0025
5.67429e-12
0.0025
5.51093e-12
0.0025
5.35306e-12
0.0025
5.19716e-12
0.0025
5.04614e-12
0.0025
4.89726e-12
0.0025
4.75267e-12
0.0025
4.61037e-12
0.0025
4.47182e-12
0.0025
4.33571e-12
0.0025
4.20287e-12
0.0025
4.0726e-12
0.0025
3.94516e-12
0.0025
3.8204e-12
0.0025
3.69807e-12
0.0025
3.57855e-12
0.0025
3.46107e-12
0.0025
3.3465e-12
0.0025
3.23365e-12
0.0025
3.12379e-12
0.0025
3.01534e-12
0.0025
2.90996e-12
0.0025
2.80571e-12
0.0025
2.7046e-12
0.0025
2.60439e-12
0.0025
2.50734e-12
0.0025
2.41103e-12
0.0025
2.31784e-12
0.0025
2.2254e-12
0.0025
2.13573e-12
0.0025
2.04793e-12
0.0025
1.96094e-12
0.0025
1.88222e-12
0.0025
1.79015e-12
0.0025
1.7428e-12
0.0025
1.59531e-12
0.0025
1.71519e-12
1.29467e-12
0.00250258
-7.84935e-06
0.00251035
-2.35928e-05
0.00252361
-4.01424e-05
0.00254277
-5.77488e-05
0.00256825
-7.63344e-05
0.00260021
-9.50543e-05
0.00263831
-0.000112365
0.00268113
-0.000125322
0.00272615
-0.000130698
0.00276936
-0.000124869
0.00280597
-0.000105765
0.0028323
-7.61465e-05
0.00284573
-3.91021e-05
0.00284488
1.7503e-06
0.00283038
4.08725e-05
0.00280469
7.32829e-05
0.00277141
9.5663e-05
0.00273447
0.000106915
0.00269745
0.000107826
0.00266313
0.000100539
0.00263321
8.80456e-05
0.00260832
7.36223e-05
0.0025881
6.00888e-05
0.00257166
4.91259e-05
0.002558
4.10369e-05
0.00254637
3.51046e-05
0.00253636
3.0292e-05
0.00252784
2.58422e-05
0.00252076
2.14903e-05
0.00251506
1.73272e-05
0.0025106
1.35459e-05
0.00250722
1.02741e-05
0.00250475
7.54333e-06
0.00250301
5.33149e-06
0.00250185
3.60314e-06
0.00250111
2.31777e-06
0.00250066
1.42047e-06
0.00250041
8.37576e-07
0.00250026
4.85263e-07
0.00250017
2.84657e-07
0.00250012
1.73779e-07
0.00250008
1.11405e-07
0.00250006
7.40516e-08
0.00250004
5.00114e-08
0.00250003
3.38694e-08
0.00250002
2.29566e-08
0.00250001
1.56521e-08
0.00250001
1.0796e-08
0.00250001
7.54816e-09
0.00250001
5.33925e-09
0.0025
3.80822e-09
0.0025
2.73187e-09
0.0025
1.96914e-09
0.0025
1.42628e-09
0.0025
1.03865e-09
0.0025
7.60809e-10
0.0025
5.60918e-10
0.0025
4.16567e-10
0.0025
3.12039e-10
0.0025
2.36116e-10
0.0025
1.80858e-10
0.0025
1.40499e-10
0.0025
1.10962e-10
0.0025
8.92351e-11
0.0025
7.32167e-11
0.0025
6.1314e-11
0.0025
5.24446e-11
0.0025
4.57524e-11
0.0025
4.0686e-11
0.0025
3.67748e-11
0.0025
3.37451e-11
0.0025
3.13296e-11
0.0025
2.94005e-11
0.0025
2.77982e-11
0.0025
2.64714e-11
0.0025
2.53183e-11
0.0025
2.43274e-11
0.0025
2.34286e-11
0.0025
2.26309e-11
0.0025
2.1882e-11
0.0025
2.12011e-11
0.0025
2.05459e-11
0.0025
1.99405e-11
0.0025
1.93485e-11
0.0025
1.87959e-11
0.0025
1.82503e-11
0.0025
1.7738e-11
0.0025
1.72296e-11
0.0025
1.67505e-11
0.0025
1.62737e-11
0.0025
1.58237e-11
0.0025
1.53753e-11
0.0025
1.49517e-11
0.0025
1.45294e-11
0.0025
1.41303e-11
0.0025
1.37325e-11
0.0025
1.33563e-11
0.0025
1.29814e-11
0.0025
1.26269e-11
0.0025
1.22736e-11
0.0025
1.19392e-11
0.0025
1.16061e-11
0.0025
1.12907e-11
0.0025
1.09765e-11
0.0025
1.06786e-11
0.0025
1.0382e-11
0.0025
1.01005e-11
0.0025
9.82025e-12
0.0025
9.5539e-12
0.0025
9.28883e-12
0.0025
9.03654e-12
0.0025
8.78553e-12
0.0025
8.54623e-12
0.0025
8.30826e-12
0.0025
8.08098e-12
0.0025
7.85508e-12
0.0025
7.63895e-12
0.0025
7.42426e-12
0.0025
7.21845e-12
0.0025
7.01418e-12
0.0025
6.81797e-12
0.0025
6.62339e-12
0.0025
6.43612e-12
0.0025
6.25058e-12
0.0025
6.07167e-12
0.0025
5.89458e-12
0.0025
5.72349e-12
0.0025
5.55433e-12
0.0025
5.39059e-12
0.0025
5.22888e-12
0.0025
5.07204e-12
0.0025
4.91734e-12
0.0025
4.76701e-12
0.0025
4.61893e-12
0.0025
4.47476e-12
0.0025
4.33293e-12
0.0025
4.1946e-12
0.0025
4.0587e-12
0.0025
3.92592e-12
0.0025
3.79564e-12
0.0025
3.66815e-12
0.0025
3.54322e-12
0.0025
3.42078e-12
0.0025
3.30095e-12
0.0025
3.18335e-12
0.0025
3.0684e-12
0.0025
2.95545e-12
0.0025
2.84517e-12
0.0025
2.73677e-12
0.0025
2.63094e-12
0.0025
2.52714e-12
0.0025
2.42537e-12
0.0025
2.32718e-12
0.0025
2.22829e-12
0.0025
2.14102e-12
0.0025
2.03618e-12
0.0025
1.98344e-12
0.0025
1.82214e-12
0.0025
1.92899e-12
1.51091e-12
0.00250251
-1.03642e-05
0.00251009
-3.11713e-05
0.0025231
-5.31514e-05
0.00254207
-7.67138e-05
0.00256757
-0.000101839
0.00259999
-0.00012747
0.00263921
-0.000151584
0.00268396
-0.000170074
0.00273167
-0.000178405
0.00277786
-0.000171065
0.00281701
-0.000144911
0.00284511
-0.000104246
0.00285929
-5.32884e-05
0.00285794
3.10686e-06
0.00284178
5.70285e-05
0.00281367
0.000101393
0.00277775
0.000131589
0.00273837
0.000146289
0.00269937
0.000146828
0.00266358
0.00013633
0.00263267
0.00011895
0.00260717
9.91286e-05
0.00258662
8.06321e-05
0.00257006
6.56858e-05
0.00255643
5.46748e-05
0.0025449
4.66259e-05
0.00253506
4.01415e-05
0.0025267
3.41946e-05
0.00251978
2.84123e-05
0.00251421
2.2895e-05
0.00250987
1.7884e-05
0.00250661
1.35409e-05
0.00250424
9.90805e-06
0.00250261
6.96245e-06
0.00250155
4.66478e-06
0.0025009
2.96587e-06
0.00250053
1.79234e-06
0.00250033
1.04195e-06
0.00250021
5.97721e-07
0.00250015
3.50675e-07
0.0025001
2.16777e-07
0.00250007
1.41756e-07
0.00250005
9.60142e-08
0.00250004
6.56923e-08
0.00250003
4.48192e-08
0.00250002
3.0514e-08
0.00250001
2.0891e-08
0.00250001
1.44816e-08
0.00250001
1.01809e-08
0.00250001
7.23765e-09
0.0025
5.18185e-09
0.0025
3.72638e-09
0.0025
2.68953e-09
0.0025
1.94888e-09
0.0025
1.41856e-09
0.0025
1.03755e-09
0.0025
7.6286e-10
0.0025
5.64138e-10
0.0025
4.20029e-10
0.0025
3.1526e-10
0.0025
2.3896e-10
0.0025
1.83234e-10
0.0025
1.42459e-10
0.0025
1.12505e-10
0.0025
9.04527e-11
0.0025
7.41185e-11
0.0025
6.19872e-11
0.0025
5.28903e-11
0.0025
4.60457e-11
0.0025
4.08172e-11
0.0025
3.68076e-11
0.0025
3.3662e-11
0.0025
3.11856e-11
0.0025
2.91726e-11
0.0025
2.75351e-11
0.0025
2.61469e-11
0.0025
2.49762e-11
0.0025
2.39401e-11
0.0025
2.30361e-11
0.0025
2.22052e-11
0.0025
2.146e-11
0.0025
2.07547e-11
0.0025
2.01093e-11
0.0025
1.9486e-11
0.0025
1.89079e-11
0.0025
1.83423e-11
0.0025
1.78134e-11
0.0025
1.72918e-11
0.0025
1.68018e-11
0.0025
1.63162e-11
0.0025
1.58588e-11
0.0025
1.54044e-11
0.0025
1.49757e-11
0.0025
1.45493e-11
0.0025
1.41467e-11
0.0025
1.37459e-11
0.0025
1.33673e-11
0.0025
1.29903e-11
0.0025
1.2634e-11
0.0025
1.22792e-11
0.0025
1.19436e-11
0.0025
1.16094e-11
0.0025
1.1293e-11
0.0025
1.0978e-11
0.0025
1.06795e-11
0.0025
1.03823e-11
0.0025
1.01003e-11
0.0025
9.81959e-12
0.0025
9.55297e-12
0.0025
9.28751e-12
0.0025
9.03506e-12
0.0025
8.78374e-12
0.0025
8.54437e-12
0.0025
8.30613e-12
0.0025
8.07887e-12
0.0025
7.85274e-12
0.0025
7.63668e-12
0.0025
7.42178e-12
0.0025
7.2161e-12
0.0025
7.01164e-12
0.0025
6.8156e-12
0.0025
6.62084e-12
0.0025
6.43377e-12
0.0025
6.24806e-12
0.0025
6.06939e-12
0.0025
5.89214e-12
0.0025
5.7213e-12
0.0025
5.55199e-12
0.0025
5.38852e-12
0.0025
5.22666e-12
0.0025
5.07012e-12
0.0025
4.91527e-12
0.0025
4.76526e-12
0.0025
4.61703e-12
0.0025
4.47321e-12
0.0025
4.33125e-12
0.0025
4.19329e-12
0.0025
4.05727e-12
0.0025
3.92489e-12
0.0025
3.79452e-12
0.0025
3.66747e-12
0.0025
3.54247e-12
0.0025
3.42052e-12
0.0025
3.30067e-12
0.0025
3.18362e-12
0.0025
3.06871e-12
0.0025
2.95641e-12
0.0025
2.84626e-12
0.0025
2.73863e-12
0.0025
2.63304e-12
0.0025
2.53023e-12
0.0025
2.42881e-12
0.0025
2.33198e-12
0.0025
2.2335e-12
0.0025
2.14815e-12
0.0025
2.04424e-12
0.0025
1.9912e-12
0.0025
1.83929e-12
0.0025
1.913e-12
1.55541e-12
0.00250242
-1.27814e-05
0.00250972
-3.84729e-05
0.00252235
-6.57856e-05
0.00254099
-9.53534e-05
0.00256645
-0.000127292
0.00259939
-0.000160416
0.00264008
-0.000192268
0.00268743
-0.000217429
0.0027389
-0.000229871
0.00278928
-0.000221447
0.00283194
-0.000187574
0.00286249
-0.000134794
0.00287771
-6.85074e-05
0.00287561
5.20873e-06
0.0028571
7.55394e-05
0.00282562
0.000132872
0.00278606
0.000171143
0.0027434
0.000188954
0.00270176
0.000188468
0.00266405
0.000174039
0.00263186
0.000151139
0.00260557
0.00012542
0.00258461
0.000101594
0.00256789
8.24042e-05
0.00255427
6.82919e-05
0.00254289
5.80115e-05
0.00253324
4.9793e-05
0.0025251
4.23293e-05
0.00251839
3.5125e-05
0.00251301
2.82745e-05
0.00250884
2.20534e-05
0.00250573
1.66502e-05
0.00250352
1.21184e-05
0.00250204
8.44057e-06
0.00250113
5.58074e-06
0.00250061
3.48484e-06
0.00250034
2.05985e-06
0.00250021
1.17012e-06
0.00250015
6.60119e-07
0.00250011
3.87055e-07
0.00250009
2.43778e-07
0.00250006
1.6396e-07
0.00250005
1.13772e-07
0.00250003
7.89691e-08
0.00250002
5.42098e-08
0.00250002
3.69973e-08
0.00250001
2.53987e-08
0.00250001
1.76886e-08
0.00250001
1.25088e-08
0.0025
8.94148e-09
0.0025
6.42769e-09
0.0025
4.63394e-09
0.0025
3.34928e-09
0.0025
2.42868e-09
0.0025
1.76805e-09
0.0025
1.29251e-09
0.0025
9.48998e-10
0.0025
7.00075e-10
0.0025
5.19311e-10
0.0025
3.87773e-10
0.0025
2.91914e-10
0.0025
2.21889e-10
0.0025
1.70649e-10
0.0025
1.33028e-10
0.0025
1.05352e-10
0.0025
8.48883e-11
0.0025
6.97202e-11
0.0025
5.83884e-11
0.0025
4.98951e-11
0.0025
4.34503e-11
0.0025
3.85407e-11
0.0025
3.47299e-11
0.0025
3.17602e-11
0.0025
2.93827e-11
0.0025
2.74746e-11
0.0025
2.58875e-11
0.0025
2.45698e-11
0.0025
2.34271e-11
0.0025
2.24455e-11
0.0025
2.15602e-11
0.0025
2.07768e-11
0.0025
2.00469e-11
0.0025
1.9386e-11
0.0025
1.87553e-11
0.0025
1.8175e-11
0.0025
1.76122e-11
0.0025
1.70887e-11
0.0025
1.65758e-11
0.0025
1.60956e-11
0.0025
1.56221e-11
0.0025
1.51771e-11
0.0025
1.47365e-11
0.0025
1.43216e-11
0.0025
1.39099e-11
0.0025
1.35215e-11
0.0025
1.31358e-11
0.0025
1.27715e-11
0.0025
1.24094e-11
0.0025
1.20673e-11
0.0025
1.1727e-11
0.0025
1.14051e-11
0.0025
1.1085e-11
0.0025
1.0782e-11
0.0025
1.04805e-11
0.0025
1.01948e-11
0.0025
9.9105e-12
0.0025
9.64081e-12
0.0025
9.37246e-12
0.0025
9.11754e-12
0.0025
8.8639e-12
0.0025
8.62262e-12
0.0025
8.38256e-12
0.0025
8.15385e-12
0.0025
7.92636e-12
0.0025
7.70926e-12
0.0025
7.4934e-12
0.0025
7.28704e-12
0.0025
7.08193e-12
0.0025
6.88552e-12
0.0025
6.6904e-12
0.0025
6.50322e-12
0.0025
6.31739e-12
0.0025
6.13879e-12
0.0025
5.96162e-12
0.0025
5.79105e-12
0.0025
5.62198e-12
0.0025
5.4589e-12
0.0025
5.29742e-12
0.0025
5.14138e-12
0.0025
4.98703e-12
0.0025
4.83762e-12
0.0025
4.68997e-12
0.0025
4.54681e-12
0.0025
4.4055e-12
0.0025
4.26826e-12
0.0025
4.13294e-12
0.0025
4.00133e-12
0.0025
3.8717e-12
0.0025
3.74544e-12
0.0025
3.62123e-12
0.0025
3.50008e-12
0.0025
3.38106e-12
0.0025
3.26483e-12
0.0025
3.15078e-12
0.0025
3.0393e-12
0.0025
2.93004e-12
0.0025
2.82318e-12
0.0025
2.71857e-12
0.0025
2.61632e-12
0.0025
2.5162e-12
0.0025
2.41877e-12
0.0025
2.32277e-12
0.0025
2.23138e-12
0.0025
2.13837e-12
0.0025
2.05827e-12
0.0025
1.96117e-12
0.0025
1.90908e-12
0.0025
1.77445e-12
0.0025
1.81592e-12
1.52714e-12
0.00250228
-1.50639e-05
0.0025092
-4.53891e-05
0.00252129
-7.78804e-05
0.00253942
-0.000113482
0.00256468
-0.00015255
0.00259816
-0.000193893
0.00264059
-0.000234706
0.00269127
-0.000268103
0.00274772
-0.000286324
0.0028037
-0.000277428
0.00285101
-0.000234887
0.00288484
-0.000168616
0.00290151
-8.51815e-05
0.00289846
8.25496e-06
0.00287679
9.72168e-05
0.00284074
0.000168919
0.0027963
0.00021558
0.00274929
0.000235971
0.00270425
0.000233504
0.00266415
0.000214134
0.00263044
0.000184853
0.00260327
0.000152592
0.00258188
0.000122985
0.00256504
9.92456e-05
0.0025515
8.18297e-05
0.00254032
6.91925e-05
0.00253093
5.91768e-05
0.00252308
5.0182e-05
0.00251663
4.15735e-05
0.00251149
3.34202e-05
0.00250753
2.60144e-05
0.00250461
1.95629e-05
0.0025026
1.41327e-05
0.00250132
9.72155e-06
0.00250059
6.30721e-06
0.00250024
3.83598e-06
0.00250011
2.19299e-06
0.00250007
1.20198e-06
0.00250007
6.60991e-07
0.00250007
3.88395e-07
0.00250006
2.52762e-07
0.00250005
1.77412e-07
0.00250004
1.27072e-07
0.00250003
8.95674e-08
0.00250002
6.17208e-08
0.00250001
4.21094e-08
0.00250001
2.89464e-08
0.00250001
2.02592e-08
0.00250001
1.44269e-08
0.0025
1.03788e-08
0.0025
7.49381e-09
0.0025
5.41595e-09
0.0025
3.91968e-09
0.0025
2.84463e-09
0.0025
2.07193e-09
0.0025
1.51483e-09
0.0025
1.11167e-09
0.0025
8.19027e-10
0.0025
6.06224e-10
0.0025
4.5123e-10
0.0025
3.382e-10
0.0025
2.55602e-10
0.0025
1.95144e-10
0.0025
1.50763e-10
0.0025
1.1812e-10
0.0025
9.40074e-11
0.0025
7.61524e-11
0.0025
6.28425e-11
0.0025
5.28889e-11
0.0025
4.53676e-11
0.0025
3.96614e-11
0.0025
3.52634e-11
0.0025
3.18587e-11
0.0025
2.91619e-11
0.0025
2.70178e-11
0.0025
2.52596e-11
0.0025
2.38167e-11
0.0025
2.25859e-11
0.0025
2.15415e-11
0.0025
2.06151e-11
0.0025
1.98046e-11
0.0025
1.90606e-11
0.0025
1.83932e-11
0.0025
1.7764e-11
0.0025
1.71891e-11
0.0025
1.66368e-11
0.0025
1.61258e-11
0.0025
1.56285e-11
0.0025
1.51647e-11
0.0025
1.47097e-11
0.0025
1.42831e-11
0.0025
1.38624e-11
0.0025
1.34669e-11
0.0025
1.30755e-11
0.0025
1.27068e-11
0.0025
1.23413e-11
0.0025
1.19965e-11
0.0025
1.16543e-11
0.0025
1.13311e-11
0.0025
1.10101e-11
0.0025
1.07066e-11
0.0025
1.04049e-11
0.0025
1.01195e-11
0.0025
9.83571e-12
0.0025
9.56685e-12
0.0025
9.29948e-12
0.0025
9.04588e-12
0.0025
8.79363e-12
0.0025
8.55406e-12
0.0025
8.31574e-12
0.0025
8.08908e-12
0.0025
7.86362e-12
0.0025
7.64886e-12
0.0025
7.43524e-12
0.0025
7.23146e-12
0.0025
7.02879e-12
0.0025
6.83514e-12
0.0025
6.64261e-12
0.0025
6.45833e-12
0.0025
6.2752e-12
0.0025
6.09962e-12
0.0025
5.92522e-12
0.0025
5.75772e-12
0.0025
5.59146e-12
0.0025
5.43151e-12
0.0025
5.27286e-12
0.0025
5.11997e-12
0.0025
4.96844e-12
0.0025
4.82218e-12
0.0025
4.67733e-12
0.0025
4.53731e-12
0.0025
4.39878e-12
0.0025
4.26463e-12
0.0025
4.13205e-12
0.0025
4.00348e-12
0.0025
3.87654e-12
0.0025
3.75327e-12
0.0025
3.63169e-12
0.0025
3.51348e-12
0.0025
3.39702e-12
0.0025
3.28365e-12
0.0025
3.17209e-12
0.0025
3.06339e-12
0.0025
2.95656e-12
0.0025
2.8524e-12
0.0025
2.75014e-12
0.0025
2.65042e-12
0.0025
2.55264e-12
0.0025
2.45739e-12
0.0025
2.36398e-12
0.0025
2.27348e-12
0.0025
2.18411e-12
0.0025
2.09953e-12
0.0025
2.01324e-12
0.0025
1.93937e-12
0.0025
1.85057e-12
0.0025
1.80024e-12
0.0025
1.68353e-12
0.0025
1.70088e-12
1.47111e-12
0.0025021
-1.71659e-05
0.0025085
-5.17861e-05
0.00251984
-8.92241e-05
0.0025372
-0.00013084
0.00256201
-0.000177363
0.00259591
-0.000227792
0.00264032
-0.000279111
0.00269505
-0.000322835
0.00275794
-0.000349215
0.00282121
-0.000340692
0.00287444
-0.000288119
0.00291241
-0.00020659
0.00293091
-0.000103684
0.00292657
1.25994e-05
0.00290075
0.000123034
0.00285886
0.000210815
0.00280829
0.000266146
0.00275592
0.000288338
0.00270681
0.00028262
0.00266392
0.000257023
0.00262847
0.000220305
0.00260032
0.000180735
0.00257848
0.000144828
0.00256153
0.000116194
0.00254812
9.52467e-05
0.0025372
8.01101e-05
0.00252815
6.82254e-05
0.00252065
5.7686e-05
0.00251452
4.76996e-05
0.00250966
3.82841e-05
0.00250594
2.97267e-05
0.00250327
2.22409e-05
0.00250149
1.59104e-05
0.00250045
1.07614e-05
0.00249996
6.80028e-06
0.00249981
3.98061e-06
0.00249984
2.16248e-06
0.00249992
1.11895e-06
0.00249999
5.90919e-07
0.00250003
3.51347e-07
0.00250004
2.43367e-07
0.00250004
1.82606e-07
0.00250003
1.36262e-07
0.00250002
9.74825e-08
0.00250001
6.71359e-08
0.00250001
4.55985e-08
0.00250001
3.13391e-08
0.00250001
2.20693e-08
0.0025
1.58607e-08
0.0025
1.1502e-08
0.0025
8.3462e-09
0.0025
6.04659e-09
0.0025
4.38126e-09
0.0025
3.18248e-09
0.0025
2.32005e-09
0.0025
1.69732e-09
0.0025
1.24577e-09
0.0025
9.1737e-10
0.0025
6.78207e-10
0.0025
5.03841e-10
0.0025
3.76591e-10
0.0025
2.83556e-10
0.0025
2.15428e-10
0.0025
1.65407e-10
0.0025
1.28611e-10
0.0025
1.01441e-10
0.0025
8.13304e-11
0.0025
6.63567e-11
0.0025
5.51721e-11
0.0025
4.6742e-11
0.0025
4.0362e-11
0.0025
3.54672e-11
0.0025
3.1694e-11
0.0025
2.87272e-11
0.0025
2.63837e-11
0.0025
2.44817e-11
0.0025
2.29341e-11
0.0025
2.16308e-11
0.0025
2.05357e-11
0.0025
1.95776e-11
0.0025
1.87472e-11
0.0025
1.7995e-11
0.0025
1.73258e-11
0.0025
1.67022e-11
0.0025
1.61361e-11
0.0025
1.55973e-11
0.0025
1.51011e-11
0.0025
1.46219e-11
0.0025
1.41764e-11
0.0025
1.37419e-11
0.0025
1.33355e-11
0.0025
1.29365e-11
0.0025
1.25617e-11
0.0025
1.21924e-11
0.0025
1.18446e-11
0.0025
1.1501e-11
0.0025
1.11768e-11
0.0025
1.08558e-11
0.0025
1.05527e-11
0.0025
1.02522e-11
0.0025
9.96809e-12
0.0025
9.68623e-12
0.0025
9.41936e-12
0.0025
9.15447e-12
0.0025
8.90337e-12
0.0025
8.65403e-12
0.0025
8.41738e-12
0.0025
8.18229e-12
0.0025
7.95887e-12
0.0025
7.73688e-12
0.0025
7.52561e-12
0.0025
7.31567e-12
0.0025
7.11557e-12
0.0025
6.91674e-12
0.0025
6.72692e-12
0.0025
6.53833e-12
0.0025
6.35799e-12
0.0025
6.17887e-12
0.0025
6.00731e-12
0.0025
5.83696e-12
0.0025
5.67351e-12
0.0025
5.51131e-12
0.0025
5.35542e-12
0.0025
5.2008e-12
0.0025
5.05195e-12
0.0025
4.90442e-12
0.0025
4.76216e-12
0.0025
4.62126e-12
0.0025
4.48519e-12
0.0025
4.35052e-12
0.0025
4.22027e-12
0.0025
4.09149e-12
0.0025
3.96672e-12
0.0025
3.84349e-12
0.0025
3.72393e-12
0.0025
3.60596e-12
0.0025
3.49136e-12
0.0025
3.3784e-12
0.0025
3.26854e-12
0.0025
3.16036e-12
0.0025
3.05506e-12
0.0025
2.9515e-12
0.0025
2.8506e-12
0.0025
2.7515e-12
0.0025
2.6549e-12
0.0025
2.56015e-12
0.0025
2.46779e-12
0.0025
2.37732e-12
0.0025
2.28927e-12
0.0025
2.20303e-12
0.0025
2.11962e-12
0.0025
2.03735e-12
0.0025
1.95967e-12
0.0025
1.88058e-12
0.0025
1.81282e-12
0.0025
1.73282e-12
0.0025
1.68467e-12
0.0025
1.58461e-12
0.0025
1.58576e-12
1.40296e-12
0.00250187
-1.9033e-05
0.00250758
-5.75015e-05
0.00251791
-9.9549e-05
0.00253414
-0.000147075
0.00255813
-0.000201353
0.00259219
-0.000261852
0.00263866
-0.000325573
0.00269822
-0.000382395
0.00276932
-0.000420318
0.00284194
-0.000413314
0.0029026
-0.000348779
0.00294589
-0.000249881
0.00296694
-0.000124735
0.00296104
1.85074e-05
0.00292979
0.000154278
0.00288019
0.000260417
0.00282169
0.000324641
0.00276263
0.000347403
0.00270863
0.000336615
0.0026626
0.000303056
0.00262535
0.000257555
0.00259632
0.000209764
0.00257416
0.000166988
0.00255724
0.000133112
0.00254407
0.000108417
0.00253353
9.06537e-05
0.00252491
7.6844e-05
0.00251783
6.4765e-05
0.00251208
5.34463e-05
0.00250754
4.28261e-05
0.00250411
3.3159e-05
0.0025017
2.46523e-05
0.0025002
1.74123e-05
0.00249944
1.15136e-05
0.00249923
7.01141e-06
0.00249934
3.87632e-06
0.00249956
1.93799e-06
0.00249978
9.04245e-07
0.00249992
4.44044e-07
0.0025
2.76481e-07
0.00250002
2.18463e-07
0.00250002
1.82186e-07
0.00250002
1.42877e-07
0.00250001
1.03271e-07
0.00250001
7.04895e-08
0.00250001
4.73465e-08
0.00250001
3.24795e-08
0.0025
2.30738e-08
0.0025
1.67957e-08
0.0025
1.23039e-08
0.0025
8.97585e-09
0.0025
6.51502e-09
0.0025
4.72373e-09
0.0025
3.43397e-09
0.0025
2.50623e-09
0.0025
1.83549e-09
0.0025
1.34799e-09
0.0025
9.92645e-10
0.0025
7.33438e-10
0.0025
5.44273e-10
0.0025
4.06123e-10
0.0025
3.05061e-10
0.0025
2.31012e-10
0.0025
1.76621e-10
0.0025
1.36596e-10
0.0025
1.0704e-10
0.0025
8.51612e-11
0.0025
6.888e-11
0.0025
5.67242e-11
0.0025
4.75752e-11
0.0025
4.066e-11
0.0025
3.53701e-11
0.0025
3.13027e-11
0.0025
2.81207e-11
0.0025
2.56178e-11
0.0025
2.36019e-11
0.0025
2.19714e-11
0.0025
2.06121e-11
0.0025
1.94781e-11
0.0025
1.84974e-11
0.0025
1.7654e-11
0.0025
1.68989e-11
0.0025
1.62317e-11
0.0025
1.56168e-11
0.0025
1.50617e-11
0.0025
1.45384e-11
0.0025
1.40586e-11
0.0025
1.35987e-11
0.0025
1.31725e-11
0.0025
1.27594e-11
0.0025
1.23737e-11
0.0025
1.19971e-11
0.0025
1.16437e-11
0.0025
1.12969e-11
0.0025
1.09705e-11
0.0025
1.06491e-11
0.0025
1.03459e-11
0.0025
1.00467e-11
0.0025
9.76393e-12
0.0025
9.4844e-12
0.0025
9.21992e-12
0.0025
8.95813e-12
0.0025
8.71012e-12
0.0025
8.46441e-12
0.0025
8.23133e-12
0.0025
8.00027e-12
0.0025
7.7808e-12
0.0025
7.56312e-12
0.0025
7.35609e-12
0.0025
7.15065e-12
0.0025
6.95499e-12
0.0025
6.76079e-12
0.0025
6.57557e-12
0.0025
6.39169e-12
0.0025
6.21607e-12
0.0025
6.04171e-12
0.0025
5.87491e-12
0.0025
5.70933e-12
0.0025
5.55069e-12
0.0025
5.39324e-12
0.0025
5.24215e-12
0.0025
5.09223e-12
0.0025
4.94815e-12
0.0025
4.80526e-12
0.0025
4.66772e-12
0.0025
4.53138e-12
0.0025
4.39995e-12
0.0025
4.26975e-12
0.0025
4.14405e-12
0.0025
4.01961e-12
0.0025
3.89932e-12
0.0025
3.78033e-12
0.0025
3.66514e-12
0.0025
3.55127e-12
0.0025
3.44091e-12
0.0025
3.33193e-12
0.0025
3.22619e-12
0.0025
3.12186e-12
0.0025
3.02053e-12
0.0025
2.92066e-12
0.0025
2.82359e-12
0.0025
2.72803e-12
0.0025
2.6351e-12
0.0025
2.54373e-12
0.0025
2.45485e-12
0.0025
2.36759e-12
0.0025
2.28276e-12
0.0025
2.19957e-12
0.0025
2.11888e-12
0.0025
2.03977e-12
0.0025
1.96359e-12
0.0025
1.88839e-12
0.0025
1.81771e-12
0.0025
1.7458e-12
0.0025
1.68419e-12
0.0025
1.61272e-12
0.0025
1.5675e-12
0.0025
1.48227e-12
0.0025
1.4737e-12
1.32805e-12
0.00250157
-2.06004e-05
0.00250641
-6.23415e-05
0.00251538
-0.000108524
0.00253003
-0.000161728
0.00255265
-0.000223967
0.0025864
-0.000295602
0.0026348
-0.000373978
0.00269996
-0.000447552
0.00278148
-0.00050184
0.00286603
-0.000497859
0.00293578
-0.000418528
0.00298555
-0.000299652
0.0030097
-0.000148893
0.00300174
2.64747e-05
0.00296367
0.000192347
0.00290453
0.000319552
0.00283641
0.000392762
0.0027694
0.000414413
0.0027098
0.000396222
0.0026603
0.000352553
0.00262119
0.000296668
0.00259133
0.000239625
0.00256894
0.000189368
0.00255216
0.000149895
0.00253934
0.000121239
0.00252927
0.000100722
0.00252118
8.49364e-05
0.00251461
7.13354e-05
0.00250931
5.8749e-05
0.00250513
4.70005e-05
0.00250201
3.62774e-05
0.0024999
2.67637e-05
0.00249872
1.85971e-05
0.0024983
1.19277e-05
0.00249843
6.88769e-06
0.00249883
3.47723e-06
0.00249928
1.48786e-06
0.00249964
5.41994e-07
0.00249987
2.16838e-07
0.00249998
1.66945e-07
0.00250001
1.82904e-07
0.00250001
1.79899e-07
0.00250001
1.48829e-07
0.0025
1.07466e-07
0.0025
7.16717e-08
0.0025
4.71179e-08
0.0025
3.22138e-08
0.0025
2.32143e-08
0.0025
1.72202e-08
0.0025
1.27818e-08
0.0025
9.3757e-09
0.0025
6.81087e-09
0.0025
4.93725e-09
0.0025
3.59161e-09
0.0025
2.62534e-09
0.0025
1.92582e-09
0.0025
1.41581e-09
0.0025
1.04299e-09
0.0025
7.7053e-10
0.0025
5.71501e-10
0.0025
4.26049e-10
0.0025
3.19576e-10
0.0025
2.41503e-10
0.0025
1.8412e-10
0.0025
1.41866e-10
0.0025
1.10653e-10
0.0025
8.75385e-11
0.0025
7.03372e-11
0.0025
5.74928e-11
0.0025
4.78314e-11
0.0025
4.05319e-11
0.0025
3.49573e-11
0.0025
3.06768e-11
0.0025
2.73389e-11
0.0025
2.47204e-11
0.0025
2.26227e-11
0.0025
2.09332e-11
0.0025
1.95353e-11
0.0025
1.83756e-11
0.0025
1.73821e-11
0.0025
1.65329e-11
0.0025
1.57804e-11
0.0025
1.51195e-11
0.0025
1.45164e-11
0.0025
1.39747e-11
0.0025
1.34687e-11
0.0025
1.30066e-11
0.0025
1.25673e-11
0.0025
1.21612e-11
0.0025
1.17702e-11
0.0025
1.14059e-11
0.0025
1.10521e-11
0.0025
1.07204e-11
0.0025
1.03965e-11
0.0025
1.00918e-11
0.0025
9.79287e-12
0.0025
9.51088e-12
0.0025
9.23352e-12
0.0025
8.97132e-12
0.0025
8.71291e-12
0.0025
8.46821e-12
0.0025
8.22667e-12
0.0025
7.99762e-12
0.0025
7.77125e-12
0.0025
7.55629e-12
0.0025
7.34366e-12
0.0025
7.14146e-12
0.0025
6.94132e-12
0.0025
6.75074e-12
0.0025
6.56199e-12
0.0025
6.382e-12
0.0025
6.20366e-12
0.0025
6.03336e-12
0.0025
5.86457e-12
0.0025
5.70316e-12
0.0025
5.54315e-12
0.0025
5.3899e-12
0.0025
5.23799e-12
0.0025
5.09227e-12
0.0025
4.94784e-12
0.0025
4.80909e-12
0.0025
4.67159e-12
0.0025
4.53931e-12
0.0025
4.40827e-12
0.0025
4.282e-12
0.0025
4.15698e-12
0.0025
4.03635e-12
0.0025
3.91696e-12
0.0025
3.80161e-12
0.0025
3.68752e-12
0.0025
3.57715e-12
0.0025
3.46806e-12
0.0025
3.36239e-12
0.0025
3.25802e-12
0.0025
3.15681e-12
0.0025
3.05693e-12
0.0025
2.95999e-12
0.0025
2.8644e-12
0.0025
2.77154e-12
0.0025
2.68009e-12
0.0025
2.5912e-12
0.0025
2.50375e-12
0.0025
2.41871e-12
0.0025
2.33516e-12
0.0025
2.25394e-12
0.0025
2.17427e-12
0.0025
2.09687e-12
0.0025
2.02107e-12
0.0025
1.94765e-12
0.0025
1.87577e-12
0.0025
1.80669e-12
0.0025
1.73866e-12
0.0025
1.67484e-12
0.0025
1.6102e-12
0.0025
1.55462e-12
0.0025
1.49153e-12
0.0025
1.44985e-12
0.0025
1.37784e-12
0.0025
1.36413e-12
1.2483e-12
0.00250119
-2.17948e-05
0.00250493
-6.6082e-05
0.00251216
-0.000115752
0.00252464
-0.000174209
0.00254512
-0.000244442
0.0025778
-0.00032828
0.00262772
-0.000423898
0.00269921
-0.000519048
0.00279398
-0.000596608
0.00289371
-0.000597585
0.00297457
-0.000499393
0.00303262
-0.000357701
0.00306124
-0.000177517
0.00305077
3.69461e-05
0.00300358
0.000239537
0.00293181