/*--------------------------------*- C++ -*----------------------------------*\
  =========                 |
  \\      /  F ield         | OpenFOAM: The Open Source CFD Toolbox
   \\    /   O peration     | Website:  https://openfoam.org
    \\  /    A nd           | Version:  11
     \\/     M anipulation  |
\*---------------------------------------------------------------------------*/
FoamFile
{
    format      ascii;
    class       volScalarField;
    location    "7.269606";
    object      p;
}
// * * * * * * * * * * * * * * * * * * * * * * * * * * * * * * * * * * * * * //

dimensions      [0 2 -2 0 0 0 0];

internalField   nonuniform List<scalar> 
7132
(
0.0515067
0.0500635
0.0451934
0.0380614
0.0280635
0.0148702
-0.00164857
-0.0215625
-0.0444514
-0.0694861
-0.0954103
-0.120506
-0.143839
-0.164571
-0.182159
-0.19641
-0.207332
-0.215143
-0.220217
-0.223014
-0.223975
-0.223415
-0.221421
-0.217825
-0.212273
-0.204395
-0.194024
-0.181347
-0.16692
-0.151532
-0.136028
-0.121154
-0.107471
-0.0953219
-0.0848367
-0.0759538
-0.0684597
-0.0620472
-0.0563925
-0.0512253
-0.0463726
-0.041762
-0.0373957
-0.0333156
-0.0295707
-0.0261982
-0.0232159
-0.0206225
-0.0184019
-0.0165279
-0.0149677
-0.0136839
-0.012636
-0.0117811
-0.0110758
-0.0104787
-0.00995311
-0.0094696
-0.00900723
-0.00855363
-0.00810373
-0.00765781
-0.00721941
-0.00679354
-0.00638533
-0.00599914
-0.00563812
-0.00530404
-0.00499735
-0.00471727
-0.00446209
-0.00422936
-0.00401621
-0.00381957
-0.00363649
-0.0034643
-0.00330072
-0.00314404
-0.00299302
-0.0028469
-0.00270532
-0.0025682
-0.00243566
-0.00230788
-0.0021851
-0.00206747
-0.00195513
-0.00184807
-0.00174623
-0.00164946
-0.00155754
-0.0014702
-0.00138715
-0.00130811
-0.00123278
-0.00116091
-0.00109225
-0.00102661
-0.000963803
-0.000903702
-0.000846188
-0.000791169
-0.000738567
-0.00068832
-0.000640374
-0.00059468
-0.000551193
-0.000509872
-0.000470675
-0.000433562
-0.000398494
-0.000365434
-0.000334343
-0.000305187
-0.00027793
-0.000252536
-0.000228963
-0.000207162
-0.000187064
-0.000168572
-0.000151547
-0.000135802
-0.000121104
-0.000107192
-9.38244e-05
-8.08343e-05
-6.81946e-05
-5.60548e-05
-4.47255e-05
-3.45968e-05
-2.60117e-05
-1.91452e-05
-1.39458e-05
-1.01681e-05
-7.47458e-06
-5.55029e-06
-4.17047e-06
-3.20031e-06
-2.55213e-06
-2.14056e-06
-1.86939e-06
-1.64797e-06
-1.4165e-06
-1.15742e-06
-8.86834e-07
-6.341e-07
-4.23622e-07
-2.65915e-07
-1.5904e-07
-9.23613e-08
-5.75027e-08
-3.66027e-08
-4.14719e-08
-2.09512e-08
-7.5565e-08
2.78591e-08
-2.03242e-07
2.72924e-07
-6.6378e-07
1.25273e-06
0.0520824
0.0506512
0.0458241
0.0387379
0.0287786
0.0155897
-0.000983461
-0.0210476
-0.0441805
-0.0695467
-0.0958146
-0.121147
-0.144644
-0.165464
-0.18307
-0.197289
-0.208137
-0.215843
-0.2208
-0.223488
-0.224374
-0.223792
-0.221836
-0.218323
-0.212863
-0.205042
-0.194654
-0.181877
-0.167283
-0.151694
-0.135992
-0.120952
-0.107153
-0.0949479
-0.0844616
-0.0756215
-0.0681969
-0.0618616
-0.0562752
-0.0511573
-0.0463324
-0.0417309
-0.0373609
-0.0332703
-0.0295131
-0.0261298
-0.02314
-0.0205431
-0.018323
-0.0164532
-0.0149
-0.0136254
-0.0125878
-0.0117436
-0.0110486
-0.0104605
-0.00994233
-0.0094642
-0.00900525
-0.00855333
-0.00810373
-0.00765716
-0.00721759
-0.00679038
-0.0063809
-0.0059937
-0.005632
-0.00529763
-0.00499097
-0.00471123
-0.0044566
-0.00422457
-0.00401216
-0.00381626
-0.00363386
-0.00346224
-0.00329912
-0.00314277
-0.00299195
-0.00284594
-0.0027044
-0.00256726
-0.00243466
-0.00230682
-0.00218398
-0.00206631
-0.00195394
-0.00184689
-0.00174508
-0.00164835
-0.00155649
-0.00146922
-0.00138625
-0.00130728
-0.00123201
-0.0011602
-0.00109159
-0.00102599
-0.000963223
-0.00090315
-0.000845659
-0.000790656
-0.000738067
-0.000687831
-0.000639893
-0.000594207
-0.000550727
-0.000509412
-0.000470221
-0.000433114
-0.000398051
-0.000364994
-0.000333907
-0.000304754
-0.000277499
-0.000252108
-0.000228539
-0.000206745
-0.000186659
-0.000168184
-0.000151184
-0.000135469
-0.000120807
-0.000106933
-9.36013e-05
-8.06406e-05
-6.80207e-05
-5.5891e-05
-4.45648e-05
-3.44371e-05
-2.58571e-05
-1.90038e-05
-1.38266e-05
-1.00764e-05
-7.41014e-06
-5.50676e-06
-4.13826e-06
-3.16989e-06
-2.51723e-06
-2.09946e-06
-1.82435e-06
-1.60354e-06
-1.37761e-06
-1.12787e-06
-8.68506e-07
-6.26783e-07
-4.25363e-07
-2.73681e-07
-1.69521e-07
-1.02735e-07
-6.58147e-08
-4.21532e-08
-4.41621e-08
-2.18994e-08
-7.52007e-08
2.7971e-08
-2.04532e-07
2.73765e-07
-6.76297e-07
1.27553e-06
0.0532282
0.051823
0.0470835
0.0400937
0.030217
0.017043
0.000366584
-0.0199979
-0.0436255
-0.0696732
-0.0966461
-0.122452
-0.146278
-0.16727
-0.184908
-0.199058
-0.209752
-0.217246
-0.221963
-0.22443
-0.225164
-0.22454
-0.222666
-0.219328
-0.214064
-0.206363
-0.195944
-0.182963
-0.168026
-0.152026
-0.135918
-0.120539
-0.106507
-0.0941872
-0.0836999
-0.0749486
-0.0676674
-0.0614906
-0.056044
-0.0510263
-0.046257
-0.0416728
-0.0372942
-0.0331816
-0.0293988
-0.0259933
-0.022988
-0.0203839
-0.0181648
-0.0163031
-0.0147641
-0.0135078
-0.0124911
-0.0116685
-0.0109941
-0.0104244
-0.00992102
-0.00945376
-0.00900167
-0.00855308
-0.00810404
-0.00765613
-0.00721415
-0.00678417
-0.0063721
-0.00598282
-0.00561975
-0.00528475
-0.00497817
-0.00469909
-0.00444557
-0.00421492
-0.00400402
-0.00380962
-0.00362859
-0.00345813
-0.00329594
-0.00314025
-0.00298986
-0.00284407
-0.00270258
-0.00256539
-0.00243269
-0.00230472
-0.00218175
-0.002064
-0.00195159
-0.00184455
-0.00174279
-0.00164615
-0.00155441
-0.00146727
-0.00138445
-0.00130562
-0.00123049
-0.00115879
-0.00109029
-0.00102478
-0.000962079
-0.000902064
-0.000844617
-0.000789649
-0.000737088
-0.000686874
-0.000638955
-0.000593285
-0.00054982
-0.000508519
-0.000469342
-0.000432247
-0.000397196
-0.00036415
-0.000333072
-0.000303928
-0.000276681
-0.000251299
-0.000227743
-0.000205968
-0.000185913
-0.000167484
-0.000150548
-0.000134916
-0.000120352
-0.000106584
-9.33534e-05
-8.04758e-05
-6.79096e-05
-5.57984e-05
-4.4458e-05
-3.42944e-05
-2.56724e-05
-1.87871e-05
-1.35979e-05
-9.85806e-06
-7.2193e-06
-5.35164e-06
-4.01849e-06
-3.0795e-06
-2.44861e-06
-2.04592e-06
-1.7811e-06
-1.56751e-06
-1.34707e-06
-1.10211e-06
-8.47623e-07
-6.11165e-07
-4.15188e-07
-2.68533e-07
-1.68291e-07
-1.03987e-07
-6.79874e-08
-4.43858e-08
-4.5516e-08
-2.30649e-08
-7.56231e-08
2.67255e-08
-2.08698e-07
2.74935e-07
-7.02872e-07
1.31987e-06
0.0549343
0.05357
0.0489689
0.0421341
0.0323952
0.0192594
0.00244121
-0.0183747
-0.0427618
-0.0698809
-0.0979561
-0.124475
-0.148791
-0.170033
-0.187711
-0.201749
-0.212205
-0.219367
-0.223708
-0.225824
-0.226314
-0.225623
-0.223879
-0.220827
-0.215884
-0.208388
-0.197933
-0.184641
-0.169172
-0.152532
-0.135795
-0.119894
-0.105502
-0.093011
-0.0825278
-0.0739199
-0.0668662
-0.0609385
-0.0557092
-0.0508451
-0.0461583
-0.041597
-0.0372016
-0.0330521
-0.0292283
-0.0257874
-0.0227579
-0.0201424
-0.0179247
-0.0160756
-0.0145582
-0.0133301
-0.0123454
-0.011556
-0.0109133
-0.0103716
-0.00989077
-0.00943983
-0.00899786
-0.00855394
-0.00810535
-0.00765505
-0.00720913
-0.00677474
-0.00635861
-0.00596611
-0.00560094
-0.00526502
-0.00495861
-0.00468061
-0.00442885
-0.00420037
-0.00399181
-0.00379972
-0.00362078
-0.0034521
-0.00329129
-0.00313659
-0.00298682
-0.00284133
-0.00269991
-0.00256262
-0.00242972
-0.00230154
-0.00217838
-0.00206049
-0.00194801
-0.00184098
-0.0017393
-0.00164281
-0.00155126
-0.00146433
-0.00138173
-0.00130312
-0.0012282
-0.00115668
-0.00108834
-0.00102295
-0.000960363
-0.000900431
-0.000843048
-0.000788131
-0.000735609
-0.000685426
-0.000637533
-0.000591886
-0.000548443
-0.000507162
-0.000468004
-0.000430927
-0.000395892
-0.000362861
-0.000331795
-0.00030266
-0.000275423
-0.00025005
-0.000226509
-0.000204757
-0.000184738
-0.000166366
-0.000149511
-0.000133986
-0.000119548
-0.000105917
-9.28175e-05
-8.00477e-05
-6.75507e-05
-5.5463e-05
-4.41048e-05
-3.38972e-05
-2.52273e-05
-1.83116e-05
-1.31237e-05
-9.41941e-06
-6.84244e-06
-5.04934e-06
-3.79027e-06
-2.91567e-06
-2.33564e-06
-1.97006e-06
-1.7304e-06
-1.53246e-06
-1.32082e-06
-1.08063e-06
-8.29421e-07
-5.9633e-07
-4.04307e-07
-2.61759e-07
-1.64933e-07
-1.02869e-07
-6.76397e-08
-4.41913e-08
-4.44993e-08
-2.25193e-08
-7.45689e-08
2.56041e-08
-2.13981e-07
2.75541e-07
-7.41874e-07
1.38116e-06
0.0571845
0.0558787
0.0514746
0.044866
0.0353377
0.022284
0.00530341
-0.0161136
-0.0415458
-0.0701921
-0.0998256
-0.127295
-0.152256
-0.173814
-0.19152
-0.205391
-0.21551
-0.222211
-0.226028
-0.227654
-0.227804
-0.227022
-0.225478
-0.222852
-0.218393
-0.211211
-0.200721
-0.186992
-0.170773
-0.153231
-0.135613
-0.118984
-0.104098
-0.091376
-0.0809092
-0.0725127
-0.0657866
-0.0602136
-0.0552892
-0.0506355
-0.0460566
-0.0415192
-0.0370929
-0.0328869
-0.0290026
-0.0255107
-0.0224464
-0.0198148
-0.0175987
-0.015767
-0.0142796
-0.0130904
-0.0121499
-0.0114061
-0.0108071
-0.0103036
-0.0098535
-0.00942448
-0.00899575
-0.00855753
-0.00810885
-0.00765464
-0.00720282
-0.00676205
-0.00634012
-0.00594311
-0.00557505
-0.00523791
-0.00493182
-0.00465541
-0.00440615
-0.00418074
-0.00397547
-0.00378658
-0.00361055
-0.00344429
-0.00328536
-0.00313197
-0.00298299
-0.00283786
-0.00269646
-0.00255898
-0.00242577
-0.00229726
-0.00217381
-0.00205573
-0.00194316
-0.00183615
-0.0017346
-0.00163831
-0.00154702
-0.0014604
-0.00137811
-0.0012998
-0.00122516
-0.00115389
-0.00108576
-0.00102055
-0.000958097
-0.000898273
-0.000840973
-0.000786119
-0.000733646
-0.000683502
-0.000635643
-0.000590026
-0.000546611
-0.000505358
-0.000466225
-0.000429173
-0.000394161
-0.000361148
-0.000330099
-0.000300976
-0.000273749
-0.000248387
-0.00022486
-0.000203132
-0.000183153
-0.000164846
-0.000148085
-0.000132686
-0.000118401
-0.000104938
-9.20048e-05
-7.93764e-05
-6.69773e-05
-5.49338e-05
-4.35693e-05
-3.33219e-05
-2.46044e-05
-1.76597e-05
-1.24791e-05
-8.82322e-06
-6.32787e-06
-4.63475e-06
-3.47826e-06
-2.69691e-06
-2.19381e-06
-1.88602e-06
-1.685e-06
-1.50858e-06
-1.30522e-06
-1.06538e-06
-8.11663e-07
-5.76997e-07
-3.85944e-07
-2.46595e-07
-1.53831e-07
-9.55191e-08
-6.27703e-08
-4.11387e-08
-4.17315e-08
-2.14034e-08
-7.30625e-08
2.35567e-08
-2.2023e-07
2.7402e-07
-7.91736e-07
1.45304e-06
0.0599556
0.0587292
0.0545913
0.0482972
0.0390762
0.0261781
0.00904116
-0.0131222
-0.0399146
-0.070646
-0.10238
-0.131026
-0.156779
-0.178705
-0.19642
-0.210059
-0.219728
-0.225811
-0.228918
-0.229874
-0.229552
-0.228643
-0.227379
-0.225363
-0.221609
-0.214905
-0.204405
-0.190107
-0.172884
-0.154138
-0.13535
-0.117762
-0.102233
-0.089221
-0.0787934
-0.0706949
-0.064419
-0.0593265
-0.0548083
-0.050427
-0.0459794
-0.0414602
-0.0369816
-0.0326925
-0.028723
-0.025161
-0.0220497
-0.0193963
-0.0171821
-0.015373
-0.0139246
-0.0127862
-0.0119034
-0.0112195
-0.0106772
-0.0102233
-0.00981253
-0.00941102
-0.00899825
-0.00856611
-0.00811607
-0.00765572
-0.00719543
-0.0067458
-0.00631603
-0.00591304
-0.00554124
-0.00520264
-0.00489714
-0.00462297
-0.00437715
-0.00415589
-0.00395501
-0.00377036
-0.0035981
-0.00343497
-0.00327841
-0.00312663
-0.00297857
-0.00283379
-0.00269233
-0.00255451
-0.00242084
-0.00229185
-0.002168
-0.00204963
-0.00193694
-0.00182996
-0.00172859
-0.00163259
-0.00154166
-0.00145544
-0.00137356
-0.00129565
-0.00122138
-0.00115043
-0.00108257
-0.00101757
-0.00095529
-0.000895595
-0.000838391
-0.000783608
-0.000731189
-0.000681089
-0.000633267
-0.000587684
-0.000544303
-0.000503083
-0.000463983
-0.000426961
-0.000391976
-0.000358986
-0.000327953
-0.000298842
-0.000271622
-0.000246265
-0.000222745
-0.000201031
-0.000181083
-0.000162829
-0.000146151
-0.000130869
-0.000116731
-0.000103435
-9.06732e-05
-7.81995e-05
-6.59193e-05
-5.39482e-05
-4.26116e-05
-3.23633e-05
-2.36399e-05
-1.67088e-05
-1.15784e-05
-8.01303e-06
-5.64053e-06
-4.08725e-06
-3.07082e-06
-2.41738e-06
-2.02106e-06
-1.794e-06
-1.64634e-06
-1.49794e-06
-1.30277e-06
-1.05946e-06
-7.98422e-07
-5.58279e-07
-3.65937e-07
-2.2894e-07
-1.40169e-07
-8.58056e-08
-5.56869e-08
-3.60887e-08
-3.69676e-08
-1.88894e-08
-6.98052e-08
2.13361e-08
-2.25527e-07
2.68843e-07
-8.48684e-07
1.52567e-06
0.0632164
0.0620941
0.0583043
0.0524343
0.0436488
0.0310212
0.0137738
-0.00926897
-0.0377735
-0.0713
-0.105798
-0.135823
-0.162494
-0.184803
-0.202468
-0.215786
-0.224878
-0.230178
-0.232379
-0.232467
-0.231529
-0.230461
-0.229591
-0.228427
-0.225667
-0.219654
-0.209178
-0.194141
-0.175603
-0.155285
-0.134983
-0.11617
-0.099831
-0.0864686
-0.0761168
-0.0684288
-0.0627575
-0.0583003
-0.0543076
-0.0502655
-0.0459666
-0.0414491
-0.0368852
-0.0324766
-0.0283903
-0.0247347
-0.0215616
-0.0188797
-0.0166679
-0.0148875
-0.0134888
-0.0124149
-0.0116051
-0.0109966
-0.0105259
-0.010134
-0.00977177
-0.00940345
-0.00900897
-0.00858256
-0.00812899
-0.00765938
-0.00718726
-0.00672571
-0.00628563
-0.00587496
-0.00549851
-0.00515824
-0.00485373
-0.00458267
-0.00434144
-0.00412559
-0.00393039
-0.00375116
-0.00358368
-0.00342445
-0.00327078
-0.0031209
-0.00297384
-0.00282934
-0.00268763
-0.00254925
-0.00241489
-0.00228523
-0.00216083
-0.0020421
-0.00192926
-0.00182234
-0.0017212
-0.00162559
-0.00153514
-0.00144945
-0.00136811
-0.00129071
-0.00121689
-0.00114634
-0.00107879
-0.00101406
-0.000951971
-0.000892419
-0.000835319
-0.000780611
-0.000728249
-0.000678194
-0.000630412
-0.000584869
-0.000541528
-0.000500349
-0.000461288
-0.000424304
-0.000389351
-0.000356387
-0.000325373
-0.000296272
-0.000269055
-0.000243695
-0.00022017
-0.000198456
-0.00017852
-0.000160298
-0.000143681
-0.000128491
-0.000114481
-0.000101339
-8.87471e-05
-7.64426e-05
-6.43127e-05
-5.2461e-05
-4.1211e-05
-3.10258e-05
-2.23601e-05
-1.55007e-05
-1.04695e-05
-7.035e-06
-4.81899e-06
-3.43655e-06
-2.59054e-06
-2.09558e-06
-1.8344e-06
-1.7106e-06
-1.6299e-06
-1.51334e-06
-1.32226e-06
-1.06723e-06
-7.90217e-07
-5.38172e-07
-3.41163e-07
-2.05635e-07
-1.21389e-07
-7.20067e-08
-4.54988e-08
-2.88255e-08
-3.04202e-08
-1.54356e-08
-6.49535e-08
1.84289e-08
-2.28367e-07
2.57766e-07
-9.06601e-07
1.58519e-06
0.0669257
0.0659366
0.0625914
0.0572801
0.0490975
0.0369103
0.0196541
-0.00437536
-0.0349906
-0.0722502
-0.110344
-0.141887
-0.169577
-0.192271
-0.209818
-0.222714
-0.231067
-0.23536
-0.236377
-0.235317
-0.233554
-0.232266
-0.231931
-0.231956
-0.230606
-0.225608
-0.215236
-0.199274
-0.17904
-0.156705
-0.134482
-0.114131
-0.0967921
-0.0830187
-0.0727986
-0.0656665
-0.0607937
-0.0571618
-0.0538363
-0.0502069
-0.0460681
-0.0415226
-0.0368258
-0.0322494
-0.0280061
-0.0242281
-0.0209757
-0.0182576
-0.0160485
-0.0143037
-0.0129666
-0.0119727
-0.0112538
-0.0107391
-0.0103568
-0.0100409
-0.00973712
-0.00940754
-0.00903287
-0.00861063
-0.00815003
-0.00766679
-0.00717846
-0.00670115
-0.00624782
-0.00582752
-0.00544545
-0.00510343
-0.00480053
-0.00453372
-0.00429853
-0.0040897
-0.00390172
-0.00372929
-0.00356772
-0.00341319
-0.00326292
-0.00311516
-0.00296911
-0.00282473
-0.00268252
-0.00254329
-0.00240794
-0.00227734
-0.00215219
-0.00203298
-0.00191996
-0.00181313
-0.00171232
-0.00161721
-0.00152739
-0.00144238
-0.00136172
-0.00128496
-0.00121171
-0.00114164
-0.00107448
-0.00101004
-0.000948165
-0.000888766
-0.000831771
-0.000777134
-0.000724823
-0.000674811
-0.000627069
-0.000581568
-0.000538271
-0.000497139
-0.000458127
-0.000421187
-0.000386273
-0.000353339
-0.000322343
-0.000293249
-0.000266026
-0.000240649
-0.000217101
-0.000195363
-0.000175407
-0.000157178
-0.000140575
-0.00012543
-0.000111499
-9.84729e-05
-8.60284e-05
-7.38966e-05
-6.19509e-05
-5.02831e-05
-3.92095e-05
-2.91915e-05
-2.06876e-05
-1.39915e-05
-9.13217e-06
-5.88195e-06
-3.86202e-06
-2.68277e-06
-2.03923e-06
-1.73561e-06
-1.64095e-06
-1.64544e-06
-1.64621e-06
-1.56434e-06
-1.37109e-06
-1.09379e-06
-7.90629e-07
-5.19733e-07
-3.14805e-07
-1.80055e-07
-1.00706e-07
-5.67307e-08
-3.39484e-08
-2.02062e-08
-2.22114e-08
-1.07308e-08
-5.76012e-08
1.52751e-08
-2.25988e-07
2.38714e-07
-9.55591e-07
1.61292e-06
0.0710311
0.0702091
0.0674197
0.0628312
0.0554664
0.0439636
0.0268808
0.00181065
-0.0313694
-0.0736353
-0.11639
-0.149488
-0.178225
-0.201202
-0.218489
-0.230847
-0.238319
-0.241406
-0.240963
-0.238449
-0.235612
-0.234029
-0.234409
-0.236049
-0.236651
-0.233088
-0.222923
-0.205781
-0.183364
-0.158454
-0.133811
-0.111554
-0.0930001
-0.0787541
-0.0687434
-0.0623588
-0.0585347
-0.0559679
-0.053479
-0.0503379
-0.0463544
-0.0417284
-0.0368297
-0.032021
-0.02757
-0.0236346
-0.0202823
-0.0175194
-0.0153141
-0.0136137
-0.0123528
-0.0114571
-0.0108491
-0.0104487
-0.010174
-0.00994982
-0.00971534
-0.00943001
-0.00907576
-0.00865474
-0.00818206
-0.00767935
-0.00716918
-0.00667138
-0.00620126
-0.0057691
-0.00538041
-0.00503671
-0.00473632
-0.00447521
-0.00424787
-0.00404797
-0.00386904
-0.00370503
-0.00355066
-0.00340177
-0.00325544
-0.00310999
-0.00296485
-0.00282028
-0.00267715
-0.00253661
-0.00239987
-0.00226802
-0.00214191
-0.00202211
-0.00190887
-0.0018022
-0.00170185
-0.00160742
-0.0015184
-0.00143426
-0.00135445
-0.00127847
-0.0012059
-0.00113639
-0.00106967
-0.00100555
-0.000943912
-0.000884664
-0.000827765
-0.000773189
-0.000720921
-0.000670945
-0.000623242
-0.000577786
-0.000534541
-0.000493467
-0.000454513
-0.000417629
-0.000382762
-0.000349863
-0.000318887
-0.000289795
-0.000262556
-0.000237147
-0.000213553
-0.000191758
-0.000171742
-0.000153457
-0.000136812
-0.00012165
-0.000107738
-9.47797e-05
-8.24567e-05
-7.05054e-05
-5.87952e-05
-4.74018e-05
-3.66238e-05
-2.69047e-05
-1.86881e-05
-1.22594e-05
-7.64585e-06
-4.62374e-06
-2.82451e-06
-1.86497e-06
-1.4453e-06
-1.36056e-06
-1.46234e-06
-1.61988e-06
-1.71515e-06
-1.66713e-06
-1.46016e-06
-1.14465e-06
-8.01046e-07
-5.02087e-07
-2.85321e-07
-1.50896e-07
-7.73192e-08
-3.96002e-08
-2.09398e-08
-1.03016e-08
-1.24864e-08
-4.96291e-09
-4.74968e-08
1.17512e-08
-2.15555e-07
2.09387e-07
-9.81559e-07
1.58555e-06
0.0754666
0.0748497
0.0727419
0.0690703
0.0627933
0.0523113
0.0356941
0.00962353
-0.0266447
-0.0757025
-0.124469
-0.158934
-0.188727
-0.211914
-0.228792
-0.240438
-0.24678
-0.248324
-0.245995
-0.241581
-0.237319
-0.23533
-0.236678
-0.240557
-0.243904
-0.242405
-0.232627
-0.213998
-0.188777
-0.160597
-0.13293
-0.108329
-0.0883083
-0.073532
-0.0638424
-0.0584438
-0.0559788
-0.0547758
-0.0533295
-0.0507608
-0.0469115
-0.0421255
-0.0369302
-0.0318047
-0.0270826
-0.022948
-0.0194723
-0.016655
-0.0144545
-0.0128078
-0.0116392
-0.0108629
-0.0103903
-0.0101292
-0.00998489
-0.0098702
-0.00971655
-0.00948032
-0.00914545
-0.00872054
-0.00822846
-0.00769843
-0.00715926
-0.00663513
-0.00614405
-0.00569752
-0.00530124
-0.00495616
-0.00465955
-0.0044061
-0.00418892
-0.00400034
-0.00383271
-0.00367901
-0.00353326
-0.00339092
-0.00324899
-0.00310592
-0.00296145
-0.00281627
-0.0026717
-0.00252931
-0.00239068
-0.00225717
-0.00212981
-0.00200926
-0.0018958
-0.00178935
-0.00168961
-0.00159606
-0.00150809
-0.00142503
-0.00134628
-0.00127126
-0.00119951
-0.00113065
-0.00106443
-0.00100067
-0.00093926
-0.000880152
-0.00082333
-0.000768795
-0.00071655
-0.000666598
-0.000618928
-0.000573519
-0.000530334
-0.000489328
-0.000450447
-0.000413632
-0.000378823
-0.000345967
-0.000315012
-0.000285917
-0.000258651
-0.000233191
-0.000209523
-0.000187635
-0.00016751
-0.000149109
-0.000132352
-0.000117098
-0.000103134
-9.01881e-05
-7.79588e-05
-6.62023e-05
-5.47923e-05
-4.37867e-05
-3.34558e-05
-2.4201e-05
-1.64237e-05
-1.03777e-05
-6.07868e-06
-3.3169e-06
-1.74542e-06
-1.00934e-06
-8.26208e-07
-9.84886e-07
-1.3136e-06
-1.64997e-06
-1.85209e-06
-1.8341e-06
-1.59773e-06
-1.224e-06
-8.23147e-07
-4.86176e-07
-2.54056e-07
-1.2015e-07
-5.34963e-08
-2.26348e-08
-7.92838e-09
6.35938e-11
-1.53559e-09
1.92943e-09
-3.39914e-08
8.24734e-09
-1.93514e-07
1.68045e-07
-9.65802e-07
1.47623e-06
0.080151
0.0797813
0.0784928
0.075964
0.0711068
0.0621061
0.0464045
0.0195535
-0.0204043
-0.078785
-0.13541
-0.1707
-0.201241
-0.224279
-0.240545
-0.251427
-0.256551
-0.256343
-0.251722
-0.244881
-0.238723
-0.236134
-0.238709
-0.245589
-0.252707
-0.254113
-0.244953
-0.224416
-0.195572
-0.163231
-0.131796
-0.104333
-0.0825609
-0.0671861
-0.0579582
-0.0538687
-0.0531837
-0.0537333
-0.0535673
-0.0516385
-0.0478607
-0.0427893
-0.0371642
-0.031612
-0.0265407
-0.0221577
-0.0185314
-0.0156495
-0.013457
-0.0118773
-0.0108218
-0.0101893
-0.00987874
-0.00978483
-0.00979667
-0.00981196
-0.00975197
-0.00956923
-0.00925084
-0.00881441
-0.00829302
-0.00772552
-0.00714832
-0.00659079
-0.00607386
-0.00561022
-0.00520548
-0.00485966
-0.00456859
-0.00432528
-0.00412107
-0.00394663
-0.00379289
-0.00365167
-0.00351623
-0.00338157
-0.00324455
-0.00310384
-0.00295962
-0.00281315
-0.00266634
-0.00252135
-0.00238018
-0.00224452
-0.00211562
-0.0019942
-0.00188053
-0.00177446
-0.00167555
-0.00158314
-0.00149648
-0.00141478
-0.00133731
-0.00126343
-0.00119263
-0.00112452
-0.00105885
-0.000995447
-0.000934258
-0.000875265
-0.00081849
-0.000763967
-0.000711725
-0.000661784
-0.000614144
-0.000568786
-0.000525672
-0.000484752
-0.000445961
-0.000409233
-0.000374499
-0.000341695
-0.000310766
-0.000281667
-0.000254363
-0.000228833
-0.000205062
-0.000183042
-0.000162759
-0.000144183
-0.000127246
-0.000111829
-9.77503e-05
-8.47718e-05
-7.26328e-05
-6.11037e-05
-5.00803e-05
-3.9606e-05
-2.98875e-05
-2.12641e-05
-1.40676e-05
-8.50156e-06
-4.5671e-06
-2.06521e-06
-6.97521e-07
-1.66198e-07
-2.16136e-07
-6.3413e-07
-1.21625e-06
-1.75463e-06
-2.07231e-06
-2.07556e-06
-1.78886e-06
-1.33229e-06
-8.54803e-07
-4.69319e-07
-2.1904e-07
-8.6885e-08
-2.90659e-08
-5.99658e-09
4.85693e-09
1.06986e-08
1.04699e-08
9.83339e-09
-1.68393e-08
4.93004e-09
-1.56547e-07
1.13526e-07
-8.86212e-07
1.25744e-06
0.0849868
0.0849071
0.0845826
0.0834451
0.0804049
0.0734805
0.0593537
0.0322261
-0.0121486
-0.0835565
-0.150146
-0.18519
-0.216485
-0.239131
-0.254379
-0.264139
-0.267667
-0.265237
-0.257706
-0.247751
-0.239094
-0.235686
-0.239948
-0.250991
-0.263437
-0.26896
-0.260742
-0.237704
-0.204132
-0.166483
-0.130357
-0.099405
-0.0755442
-0.0595345
-0.0509687
-0.0485781
-0.0501777
-0.0529315
-0.054371
-0.0531602
-0.0493524
-0.0438153
-0.03758
-0.0314587
-0.0259419
-0.0212528
-0.0174467
-0.0144901
-0.0123082
-0.0108082
-0.00988751
-0.00942907
-0.00931544
-0.00942426
-0.00962352
-0.00979171
-0.00983784
-0.00971093
-0.00940311
-0.008944
-0.00837987
-0.00776183
-0.00713552
-0.00653617
-0.00598781
-0.00550412
-0.00509026
-0.00474482
-0.0044617
-0.0042317
-0.00404398
-0.00388717
-0.00375042
-0.00362416
-0.0035007
-0.00337461
-0.00324277
-0.0031042
-0.00295966
-0.00281114
-0.00266126
-0.00251282
-0.00236838
-0.00223002
-0.00209921
-0.00197675
-0.00186288
-0.00175733
-0.0016595
-0.00156853
-0.0014835
-0.00140346
-0.00132754
-0.00125502
-0.00118532
-0.00111806
-0.00105297
-0.000989952
-0.000928967
-0.000870056
-0.000813288
-0.000758739
-0.00070647
-0.000656522
-0.000608904
-0.000563601
-0.000520572
-0.000479754
-0.000441076
-0.000404456
-0.000369815
-0.00033708
-0.000306186
-0.000277084
-0.000249736
-0.00022412
-0.000200222
-0.000178036
-0.000157553
-0.000138751
-0.000121579
-0.000105946
-9.17098e-05
-7.86801e-05
-6.66458e-05
-5.54181e-05
-4.4884e-05
-3.50718e-05
-2.61388e-05
-1.83093e-05
-1.18178e-05
-6.79777e-06
-3.22349e-06
-9.40207e-07
2.69825e-07
6.36376e-07
3.69181e-07
-3.17505e-07
-1.17584e-06
-1.93636e-06
-2.37507e-06
-2.38755e-06
-2.02716e-06
-1.46235e-06
-8.89891e-07
-4.4757e-07
-1.78654e-07
-5.11883e-08
-4.94807e-09
9.2678e-09
1.6594e-08
2.11006e-08
2.3229e-08
1.86857e-08
4.16994e-09
2.22193e-09
-1.01739e-07
4.59114e-08
-7.19826e-07
9.05619e-07
0.0898587
0.0901123
0.0908931
0.0914174
0.0906506
0.0865934
0.0749973
0.0486701
-0.000960572
-0.0909775
-0.171066
-0.202941
-0.233594
-0.255381
-0.269818
-0.278797
-0.280853
-0.275967
-0.264782
-0.250654
-0.238545
-0.233895
-0.240273
-0.256892
-0.276659
-0.288002
-0.281189
-0.254824
-0.215014
-0.170539
-0.128559
-0.0933821
-0.0670624
-0.0503388
-0.0426728
-0.0425427
-0.0471477
-0.0527327
-0.0560646
-0.0555915
-0.0515717
-0.0453093
-0.0382227
-0.0313535
-0.0252768
-0.0202162
-0.0161976
-0.0131564
-0.0109931
-0.00959549
-0.00883961
-0.0085871
-0.00870482
-0.00905305
-0.00947402
-0.00982089
-0.00998685
-0.00991702
-0.00961137
-0.00911554
-0.00849249
-0.00780835
-0.00711991
-0.00646914
-0.00588332
-0.00537675
-0.00495351
-0.00461015
-0.00433796
-0.00412497
-0.00395759
-0.00382198
-0.0037053
-0.00359653
-0.00348697
-0.00337066
-0.00324445
-0.00310779
-0.00296218
-0.00281054
-0.00265649
-0.00250362
-0.00235513
-0.00221354
-0.00208051
-0.00195693
-0.00184295
-0.00173814
-0.00164167
-0.00155247
-0.00146938
-0.00139127
-0.00131713
-0.00124613
-0.00117767
-0.00111131
-0.00104685
-0.000984198
-0.000923392
-0.00086453
-0.000807735
-0.000753131
-0.000700814
-0.000650848
-0.000603253
-0.000558014
-0.000515084
-0.000474392
-0.000435848
-0.000399361
-0.000364835
-0.000332185
-0.000301339
-0.00027224
-0.000244849
-0.00021914
-0.000195104
-0.000172734
-0.000152028
-0.000132975
-0.000115546
-9.96827e-05
-8.52893e-05
-7.22333e-05
-6.03579e-05
-4.95138e-05
-3.96002e-05
-3.0593e-05
-2.25531e-05
-1.56047e-05
-9.86339e-06
-5.37976e-06
-2.12467e-06
7.15199e-10
1.12631e-06
1.38345e-06
9.24228e-07
-3.27202e-08
-1.18253e-06
-2.17836e-06
-2.73859e-06
-2.74618e-06
-2.28925e-06
-1.59479e-06
-9.14175e-07
-4.11643e-07
-1.27437e-07
-1.00691e-08
2.04744e-08
2.40573e-08
2.77486e-08
3.14714e-08
3.66797e-08
2.83995e-08
2.88262e-08
4.23061e-10
-2.76388e-08
-3.334e-08
-4.47671e-07
4.07493e-07
0.0946343
0.0952565
0.0972711
0.0997085
0.101726
0.101438
0.0937192
0.0699158
0.0138094
-0.101704
-0.198557
-0.225981
-0.256303
-0.275809
-0.288162
-0.295683
-0.295703
-0.287697
-0.271915
-0.252508
-0.235739
-0.229337
-0.238608
-0.262828
-0.292464
-0.3118
-0.307231
-0.2767
-0.22882
-0.175648
-0.126408
-0.0861146
-0.0569157
-0.0395134
-0.0330966
-0.0357455
-0.0440317
-0.0530802
-0.0586844
-0.0590111
-0.054612
-0.0473454
-0.0391334
-0.0313079
-0.0245391
-0.0190353
-0.0147736
-0.0116419
-0.00950581
-0.00822796
-0.00766573
-0.00766013
-0.00805419
-0.00868275
-0.00935764
-0.00990509
-0.0102006
-0.010187
-0.00987581
-0.00932953
-0.00863087
-0.00786476
-0.00710114
-0.00638945
-0.00576036
-0.00522842
-0.00479603
-0.00445688
-0.0041989
-0.00400661
-0.00386324
-0.00375223
-0.00365846
-0.00356916
-0.00347463
-0.00336858
-0.00324803
-0.00311306
-0.00296603
-0.00281083
-0.00265202
-0.0024941
-0.00234099
-0.0021957
-0.00206017
-0.00193533
-0.00182123
-0.00171726
-0.00162233
-0.0015351
-0.00145417
-0.00137819
-0.00130601
-0.00123669
-0.00116956
-0.0011042
-0.0010404
-0.000978136
-0.000917512
-0.000858688
-0.000801853
-0.000747179
-0.000694803
-0.000644811
-0.000597237
-0.000552066
-0.000509246
-0.000468691
-0.000430299
-0.000393961
-0.000359569
-0.000327023
-0.000296242
-0.000267161
-0.000239739
-0.000213949
-0.000189783
-0.000167239
-0.000146322
-0.000127036
-0.000109375
-9.33186e-05
-7.8822e-05
-6.58091e-05
-5.41772e-05
-4.38086e-05
-3.45942e-05
-2.646e-05
-1.93701e-05
-1.33141e-05
-8.28981e-06
-4.28196e-06
-1.25976e-06
8.05065e-07
1.92493e-06
2.12274e-06
1.4926e-06
2.64899e-07
-1.18604e-06
-2.4242e-06
-3.10405e-06
-3.09652e-06
-2.52947e-06
-1.69643e-06
-9.06416e-07
-3.49365e-07
-5.88632e-08
4.00346e-08
4.93201e-08
3.96845e-08
3.90364e-08
4.20998e-08
5.07547e-08
3.8894e-08
5.65934e-08
-1.21646e-10
6.50578e-08
-1.21081e-07
-6.10828e-08
-2.33095e-07
0.0991661
0.100185
0.103523
0.108116
0.113419
0.118118
0.116121
0.0988301
0.0342928
-0.124984
-0.239941
-0.24953
-0.278609
-0.297814
-0.309474
-0.315974
-0.313989
-0.30235
-0.280739
-0.254598
-0.232082
-0.222547
-0.233346
-0.265073
-0.306492
-0.336634
-0.336535
-0.302517
-0.245656
-0.182211
-0.12433
-0.0781246
-0.0457475
-0.0275379
-0.0224672
-0.0282903
-0.0405725
-0.0533038
-0.0614483
-0.0627868
-0.058103
-0.0497536
-0.0402475
-0.0313045
-0.0237301
-0.0177176
-0.0131836
-0.00996117
-0.00787745
-0.00676013
-0.00643035
-0.00669112
-0.00736758
-0.00828399
-0.00922432
-0.00998603
-0.010425
-0.010477
-0.0101642
-0.00956656
-0.00878647
-0.00792963
-0.00708218
-0.00630304
-0.0056269
-0.00506839
-0.00462753
-0.00429429
-0.00405246
-0.00388261
-0.00376442
-0.0036784
-0.0036076
-0.00353811
-0.00345939
-0.00336457
-0.00325059
-0.0031179
-0.00296965
-0.00281083
-0.00264719
-0.00248418
-0.00232647
-0.00217751
-0.00203952
-0.00191346
-0.00179928
-0.00169615
-0.00160274
-0.00151743
-0.00143858
-0.00136467
-0.00129437
-0.00122668
-0.00116085
-0.00109647
-0.00103335
-0.00097152
-0.000911123
-0.000852389
-0.000795561
-0.00074086
-0.000688459
-0.000638467
-0.000590932
-0.000545841
-0.000503137
-0.000462724
-0.000424489
-0.000388306
-0.000354053
-0.000321621
-0.000290917
-0.000261873
-0.000234443
-0.000208601
-0.000184341
-0.000161667
-0.000140595
-0.000121143
-0.000103333
-8.71804e-05
-7.26859e-05
-5.98226e-05
-4.85284e-05
-3.87045e-05
-3.02247e-05
-2.29484e-05
-1.67371e-05
-1.14668e-05
-7.03398e-06
-3.37091e-06
-4.67779e-07
1.61822e-06
2.78292e-06
2.94527e-06
2.14986e-06
6.48928e-07
-1.10579e-06
-2.58574e-06
-3.38223e-06
-3.35806e-06
-2.6842e-06
-1.72323e-06
-8.39576e-07
-2.45334e-07
3.60539e-08
1.05069e-07
8.59478e-08
5.92575e-08
5.23726e-08
5.38874e-08
6.55895e-08
5.00859e-08
8.64365e-08
7.50997e-10
1.72705e-07
-2.12677e-07
4.31371e-07
-9.89544e-07
0.103295
0.104714
0.109418
0.116272
0.12537
0.135918
0.142394
0.134658
0.0624011
-0.135164
-0.307768
-0.295822
-0.311571
-0.320334
-0.327106
-0.331401
-0.327709
-0.314235
-0.289149
-0.257927
-0.229729
-0.216083
-0.225945
-0.261274
-0.311303
-0.352722
-0.360581
-0.327001
-0.263535
-0.190492
-0.123799
-0.071336
-0.0357279
-0.017112
-0.0131306
-0.0204501
-0.0349201
-0.0505174
-0.0615319
-0.0648341
-0.0607394
-0.0518886
-0.0413321
-0.0313085
-0.0228976
-0.0163498
-0.0115443
-0.0082533
-0.00625014
-0.00531033
-0.00521977
-0.00574907
-0.00667919
-0.00782719
-0.00897775
-0.00992725
-0.0105166
-0.0106663
-0.0103889
-0.00977193
-0.00893074
-0.00799573
-0.00707115
-0.00622756
-0.00550586
-0.00492173
-0.00447282
-0.00414511
-0.00391781
-0.00376729
-0.00367011
-0.00360504
-0.00355352
-0.00350046
-0.00343496
-0.00335013
-0.00324286
-0.00311387
-0.00296675
-0.00280693
-0.00264072
-0.00247434
-0.00231318
-0.00216127
-0.00202115
-0.0018939
-0.00177943
-0.00167678
-0.00158439
-0.00150049
-0.00142323
-0.00135095
-0.0012822
-0.00121588
-0.00115122
-0.00108778
-0.00102538
-0.000964058
-0.000904007
-0.000845489
-0.000788789
-0.000734165
-0.000681818
-0.000631882