/*--------------------------------*- C++ -*----------------------------------*\
  =========                 |
  \\      /  F ield         | OpenFOAM: The Open Source CFD Toolbox
   \\    /   O peration     | Website:  https://openfoam.org
    \\  /    A nd           | Version:  11
     \\/     M anipulation  |
\*---------------------------------------------------------------------------*/
FoamFile
{
    format      ascii;
    class       surfaceScalarField;
    location    "7.269606";
    object      phi;
}
// * * * * * * * * * * * * * * * * * * * * * * * * * * * * * * * * * * * * * //

dimensions      [0 3 -1 0 0 0 0];

internalField   nonuniform List<scalar> 
14638
(
0.00250287
-2.86524e-06
0.00251151
-8.64748e-06
0.0025263
-1.47867e-05
0.0025477
-2.14037e-05
0.00257623
-2.85303e-05
0.0026122
-3.59645e-05
0.00265551
-4.33101e-05
0.00270529
-4.97781e-05
0.00275981
-5.45231e-05
0.00281645
-5.66383e-05
0.00287207
-5.56197e-05
0.00292424
-5.21758e-05
0.00297121
-4.69697e-05
0.00301191
-4.06975e-05
0.00304594
-3.40325e-05
0.00307344
-2.74969e-05
0.00309494
-2.15012e-05
0.00311125
-1.6311e-05
0.00312325
-1.19996e-05
0.00313165
-8.39412e-06
0.00313671
-5.06319e-06
0.00313809
-1.38603e-06
0.00313482
3.27464e-06
0.0031255
9.32362e-06
0.00310881
1.66858e-05
0.00308412
2.46897e-05
0.00305193
3.21929e-05
0.003014
3.79273e-05
0.00297311
4.08948e-05
0.00293246
4.06432e-05
0.00289511
3.73489e-05
0.00286338
3.17362e-05
0.00283848
2.48994e-05
0.0028204
1.808e-05
0.00280797
1.24284e-05
0.00279918
8.78561e-06
0.00279166
7.52139e-06
0.00278318
8.47876e-06
0.00277212
1.10623e-05
0.00275768
1.44377e-05
0.00273992
1.77629e-05
0.00271956
2.03661e-05
0.00269772
2.18339e-05
0.00267571
2.2016e-05
0.00265473
2.0977e-05
0.0026358
1.89282e-05
0.00261964
1.61629e-05
0.00260663
1.30038e-05
0.00259687
9.76558e-06
0.00259014
6.72728e-06
0.00258603
4.11333e-06
0.00258395
2.07989e-06
0.00258324
7.07353e-07
0.00258324
-8.80417e-10
0.00258335
-1.12049e-07
0.0025831
2.51317e-07
0.00258217
9.32975e-07
0.0025804
1.76794e-06
0.0025778
2.60556e-06
0.00257447
3.32658e-06
0.00257062
3.85197e-06
0.00256647
4.14396e-06
0.00256227
4.20115e-06
0.00255822
4.05009e-06
0.00255449
3.73572e-06
0.00255117
3.31218e-06
0.00254834
2.83501e-06
0.00254598
2.35517e-06
0.00254407
1.91483e-06
0.00254252
1.54493e-06
0.00254126
1.26424e-06
0.00254018
1.07968e-06
0.00253919
9.8775e-07
0.00253822
9.76602e-07
0.00253719
1.02867e-06
0.00253606
1.12344e-06
0.00253482
1.24002e-06
0.00253346
1.35942e-06
0.002532
1.46614e-06
0.00253045
1.54914e-06
0.00252885
1.60212e-06
0.00252722
1.62323e-06
0.00252561
1.61438e-06
0.00252403
1.58023e-06
0.0025225
1.52717e-06
0.00252104
1.4623e-06
0.00251965
1.39256e-06
0.00251832
1.32407e-06
0.00251706
1.26168e-06
0.00251585
1.20877e-06
0.00251468
1.16719e-06
0.00251355
1.1374e-06
0.00251243
1.11866e-06
0.00251132
1.10937e-06
0.00251021
1.10734e-06
0.0025091
1.11014e-06
0.00250799
1.11536e-06
0.00250687
1.12086e-06
0.00250574
1.1249e-06
0.00250461
1.12627e-06
0.00250349
1.12426e-06
0.00250237
1.11866e-06
0.00250126
1.10961e-06
0.00250016
1.09753e-06
0.00249908
1.08296e-06
0.00249801
1.06645e-06
0.00249697
1.04848e-06
0.00249594
1.02936e-06
0.00249493
1.0092e-06
0.00249394
9.87895e-07
0.00249297
9.65117e-07
0.00249203
9.4037e-07
0.00249112
9.13054e-07
0.00249024
8.82528e-07
0.00248939
8.4811e-07
0.00248858
8.08922e-07
0.00248782
7.63513e-07
0.00248711
7.09245e-07
0.00248647
6.41562e-07
0.00248591
5.53435e-07
0.00248548
4.35398e-07
0.0024852
2.76634e-07
0.00248513
6.73462e-08
0.00248533
-1.97706e-07
0.00248585
-5.15197e-07
0.00248672
-8.69904e-07
0.00248795
-1.23344e-06
0.00248952
-1.56621e-06
0.00249134
-1.82302e-06
0.0024933
-1.96156e-06
0.00249525
-1.95219e-06
0.00249704
-1.78618e-06
0.00249852
-1.48008e-06
0.00249959
-1.07452e-06
0.00250022
-6.27086e-07
0.00250042
-2.01087e-07
0.00250028
1.4719e-07
0.0024999
3.793e-07
0.00249942
4.80913e-07
0.00249895
4.62195e-07
0.0024986
3.52713e-07
0.00249841
1.92674e-07
0.00249838
2.3124e-08
0.00249851
-1.22394e-07
0.00249873
-2.22969e-07
0.002499
-2.71615e-07
0.00249927
-2.73215e-07
0.00249952
-2.4036e-07
0.0024997
-1.88568e-07
0.00249984
-1.32194e-07
0.00249992
-8.17978e-08
0.00249996
-4.31802e-08
0.00249998
-1.78121e-08
0.00249998
-4.07177e-09
0.00249998
1.21908e-09
0.00249998
1.5465e-09
0.00249998
-2.51639e-10
0.00249998
-2.21466e-09
0.00249999
-3.5064e-09
-3.60631e-09
0.00250284
-5.70438e-06
0.00251141
-1.72226e-05
0.0025261
-2.94702e-05
0.0025474
-4.27095e-05
0.00257589
-5.70163e-05
0.00261192
-7.19997e-05
0.00265549
-8.68718e-05
0.00270573
-0.000100018
0.00276091
-0.000109706
0.00281828
-0.000114009
0.00287452
-0.000111865
0.00292717
-0.000104818
0.00297443
-9.42318e-05
0.00301526
-8.15245e-05
0.00304928
-6.80589e-05
0.00307667
-5.48825e-05
0.00309799
-4.28239e-05
0.0031141
-3.2425e-05
0.00312595
-2.38435e-05
0.00313429
-1.67333e-05
0.00313944
-1.02137e-05
0.00314105
-3.00146e-06
0.00313809
6.23463e-06
0.00312906
1.83579e-05
0.0031125
3.32406e-05
0.00308768
4.95106e-05
0.00305507
6.48095e-05
0.00301648
7.65142e-05
0.00297481
8.25653e-05
0.00293342
8.20343e-05
0.00289548
7.52874e-05
0.0028634
6.38118e-05
0.00283846
4.98472e-05
0.0028206
3.5933e-05
0.00280861
2.44214e-05
0.00280036
1.70332e-05
0.00279336
1.45215e-05
0.00278529
1.65556e-05
0.00277445
2.19032e-05
0.00276004
2.88456e-05
0.00274214
3.56576e-05
0.00272154
4.09723e-05
0.00269941
4.39585e-05
0.0026771
4.43232e-05
0.00265587
4.22091e-05
0.00263675
3.80528e-05
0.00262046
3.24522e-05
0.0026074
2.60622e-05
0.00259765
1.95185e-05
0.00259099
1.33846e-05
0.00258699
8.11354e-06
0.00258505
4.02022e-06
0.00258449
1.26674e-06
0.00258463
-1.40912e-07
0.00258486
-3.39969e-07
0.00258469
4.19762e-07
0.0025838
1.82024e-06
0.00258204
3.526e-06
0.00257942
5.23141e-06
0.00257605
6.69529e-06
0.00257214
7.75868e-06
0.00256794
8.34664e-06
0.00256368
8.45787e-06
0.00255959
8.14744e-06
0.00255581
7.50726e-06
0.00255248
6.64748e-06
0.00254963
5.68074e-06
0.00254728
4.71012e-06
0.00254537
3.82076e-06
0.00254384
3.07499e-06
0.0025426
2.51045e-06
0.00254154
2.14085e-06
0.00254056
1.95874e-06
0.0025396
1.93991e-06
0.00253858
2.04856e-06
0.00253746
2.24302e-06
0.00253622
2.48095e-06
0.00253486
2.72388e-06
0.00253338
2.94051e-06
0.00253182
3.10862e-06
0.00253021
3.2156e-06
0.00252857
3.25788e-06
0.00252695
3.23945e-06
0.00252536
3.16988e-06
0.00252382
3.0622e-06
0.00252236
2.93083e-06
0.00252096
2.78984e-06
0.00251963
2.6516e-06
0.00251837
2.52591e-06
0.00251716
2.41956e-06
0.00251599
2.33625e-06
0.00251485
2.27684e-06
0.00251373
2.23981e-06
0.00251261
2.22187e-06
0.0025115
2.21856e-06
0.00251039
2.22496e-06
0.00250927
2.23618e-06
0.00250814
2.24789e-06
0.00250701
2.25659e-06
0.00250587
2.25984e-06
0.00250474
2.25625e-06
0.00250362
2.24538e-06
0.0025025
2.22757e-06
0.00250139
2.20368e-06
0.0025003
2.17483e-06
0.00249922
2.14216e-06
0.00249817
2.10663e-06
0.00249713
2.06889e-06
0.00249611
2.02918e-06
0.00249511
1.9873e-06
0.00249413
1.94259e-06
0.00249318
1.89407e-06
0.00249225
1.84052e-06
0.00249135
1.78064e-06
0.00249049
1.71304e-06
0.00248966
1.63595e-06
0.00248888
1.5465e-06
0.00248815
1.43953e-06
0.00248748
1.30616e-06
0.0024869
1.13265e-06
0.00248644
9.00468e-07
0.00248612
5.88345e-07
0.00248602
1.76886e-07
0.00248616
-3.44495e-07
0.00248662
-9.6965e-07
0.00248742
-1.66904e-06
0.00248857
-2.3871e-06
0.00249005
-3.04595e-06
0.00249178
-3.5563e-06
0.00249366
-3.83427e-06
0.00249552
-3.82064e-06
0.00249723
-3.49739e-06
0.00249865
-2.89657e-06
0.00249967
-2.09802e-06
0.00250026
-1.21554e-06
0.00250044
-3.74625e-07
0.00250027
3.12821e-07
0.00249988
7.70079e-07
0.00249939
9.68243e-07
0.00249893
9.27182e-07
0.00249858
7.05535e-07
0.00249838
3.83363e-07
0.00249837
4.26051e-08
0.00249849
-2.49627e-07
0.00249872
-4.51393e-07
0.002499
-5.48627e-07
0.00249928
-5.51115e-07
0.00249952
-4.84187e-07
0.00249971
-3.79139e-07
0.00249984
-2.64965e-07
0.00249992
-1.63028e-07
0.00249997
-8.50745e-08
0.00249998
-3.40692e-08
0.00249998
-6.69067e-09
0.00249998
3.55657e-09
0.00249998
3.79258e-09
0.00249998
-1.86249e-10
0.00249998
-4.38484e-09
0.00249999
-7.12598e-09
-7.33401e-09
0.00250279
-8.49083e-06
0.00251121
-2.56457e-05
0.00252568
-4.39403e-05
0.00254678
-6.38067e-05
0.00257516
-8.53985e-05
0.00261132
-0.000108161
0.00265538
-0.000130929
0.00270655
-0.000151187
0.00276308
-0.000166234
0.00282194
-0.000172875
0.00287946
-0.000169382
0.00293304
-0.0001584
0.00298089
-0.000142078
0.00302197
-0.000122606
0.00305598
-0.000102068
0.00308314
-8.20411e-05
0.0031041
-6.37857e-05
0.00311982
-4.81422e-05
0.00313135
-3.53745e-05
0.00313958
-2.49654e-05
0.00314491
-1.5546e-05
0.003147
-5.08624e-06
0.00314467
8.5572e-06
0.00313621
2.68166e-05
0.0031199
4.95562e-05
0.00309477
7.46397e-05
0.00306124
9.83347e-05
0.00302128
0.000116482
0.00297801
0.000125831
0.00293511
0.000124933
0.00289602
0.00011438
0.00286333
9.65055e-05
0.00283837
7.48063e-05
0.00282106
5.3237e-05
0.00281002
3.54589e-05
0.00280291
2.4149e-05
0.00279696
2.04669e-05
0.00278965
2.38655e-05
0.00277918
3.23811e-05
0.00276472
4.33019e-05
0.00274644
5.39326e-05
0.00272525
6.21665e-05
0.00270246
6.67489e-05
0.00267952
6.72659e-05
0.00265776
6.39708e-05
0.00263825
5.75576e-05
0.00262175
4.89561e-05
0.00260864
3.91727e-05
0.00259898
2.9179e-05
0.00259253
1.98335e-05
0.00258882
1.18246e-05
0.00258721
5.63021e-06
0.00258698
1.49448e-06
0.00258742
-5.77697e-07
0.00258788
-8.01532e-07
0.00258786
4.34677e-07
0.00258704
2.63846e-06
0.00258528
5.29225e-06
0.00258258
7.92673e-06
0.0025791
1.01742e-05
0.00257507
1.17951e-05
0.00257073
1.26797e-05
0.00256636
1.28309e-05
0.00256217
1.23374e-05
0.00255834
1.13427e-05
0.00255497
1.00171e-05
0.00255211
8.53366e-06
0.00254977
7.04978e-06
0.0025479
5.69495e-06
0.00254641
4.56341e-06
0.00254521
3.7115e-06
0.00254419
3.15895e-06
0.00254326
2.89325e-06
0.00254232
2.87635e-06
0.00254132
3.05281e-06
0.0025402
3.35831e-06
0.00253895
3.72789e-06
0.00253757
4.10275e-06
0.00253608
4.43527e-06
0.0025345
4.69188e-06
0.00253286
4.85384e-06
0.0025312
4.91624e-06
0.00252955
4.88568e-06
0.00252795
4.77724e-06
0.0025264
4.61113e-06
0.00252492
4.40957e-06
0.00252351
4.19413e-06
0.00252218
3.98368e-06
0.00252092
3.79309e-06
0.0025197
3.63257e-06
0.00251853
3.50761e-06
0.00251739
3.41934e-06
0.00251626
3.3653e-06
0.00251514
3.34032e-06
0.00251403
3.33751e-06
0.0025129
3.34926e-06
0.00251177
3.36811e-06
0.00251063
3.38744e-06
0.00250948
3.40196e-06
0.00250834
3.408e-06
0.00250719
3.4035e-06
0.00250605
3.38789e-06
0.00250491
3.36177e-06
0.00250379
3.3265e-06
0.00250268
3.28386e-06
0.00250159
3.23562e-06
0.00250051
3.18329e-06
0.00249945
3.12788e-06
0.00249841
3.06979e-06
0.00249739
3.0087e-06
0.00249639
2.94368e-06
0.00249541
2.87321e-06
0.00249445
2.79546e-06
0.00249353
2.70842e-06
0.00249263
2.60992e-06
0.00249177
2.49727e-06
0.00249095
2.3662e-06
0.00249018
2.20919e-06
0.00248947
2.01335e-06
0.00248885
1.75879e-06
0.00248833
1.41862e-06
0.00248795
9.61828e-07
0.00248777
3.59966e-07
0.00248783
-4.0279e-07
0.00248818
-1.31799e-06
0.00248885
-2.34302e-06
0.00248986
-3.39702e-06
0.00249118
-4.36609e-06
0.00249274
-5.11907e-06
0.00249444
-5.53228e-06
0.00249614
-5.51787e-06
0.00249769
-5.04845e-06
0.00249896
-4.17044e-06
0.00249987
-3.00101e-06
0.00250036
-1.70789e-06
0.00250046
-4.7645e-07
0.00250025
5.27657e-07
0.00249983
1.1907e-06
0.00249932
1.46978e-06
0.00249886
1.3945e-06
0.00249851
1.05224e-06
0.00249833
5.62445e-07
0.00249833
4.75048e-08
0.00249847
-3.92282e-07
0.00249871
-6.94293e-07
0.002499
-8.37765e-07
0.00249929
-8.3785e-07
0.00249954
-7.3317e-07
0.00249973
-5.71352e-07
0.00249986
-3.9651e-07
0.00249994
-2.41114e-07
0.00249998
-1.2294e-07
0.00249999
-4.63227e-08
0.00249999
-5.97511e-09
0.00249998
8.2409e-09
0.00249998
7.37764e-09
0.00249998
3.92552e-10
0.00249998
-6.56786e-09
0.00249999
-1.10401e-08
-1.13082e-08
0.0025027
-1.11941e-05
0.00251089
-3.38282e-05
0.00252501
-5.8068e-05
0.00254577
-8.45597e-05
0.00257395
-0.000113586
0.00261027
-0.000144476
0.00265505
-0.000175711
0.00270763
-0.000203766
0.00276625
-0.000224852
0.00282744
-0.000234069
0.0028869
-0.000228844
0.00294191
-0.000213402
0.00299062
-0.000190793
0.00303207
-0.000164055
0.00306603
-0.000136032
0.00309282
-0.000108834
0.00311321
-8.41727e-05
0.00312829
-6.32235e-05
0.00313931
-4.63963e-05
0.00314736
-3.30089e-05
0.00315296
-2.11495e-05
0.00315578
-7.90816e-06
0.00315448
9.85862e-06
0.00314696
3.43342e-05
0.00313107
6.54528e-05
0.00310549
0.000100214
0.00307057
0.000133257
0.00302846
0.000158595
0.00298271
0.000171578
0.00293747
0.000170172
0.0028966
0.000155253
0.00286297
0.00013014
0.00283802
9.97574e-05
0.00282159
6.96599e-05
0.00281207
4.49847e-05
0.00280673
2.94857e-05
0.00280243
2.47657e-05
0.00279631
2.99921e-05
0.00278637
4.23193e-05
0.0027718
5.78679e-05
0.0027529
7.28353e-05
0.00273076
8.43053e-05
0.00270691
9.05946e-05
0.00268297
9.12051e-05
0.00266039
8.65536e-05
0.00264031
7.76436e-05
0.00262348
6.57781e-05
0.00261031
5.23466e-05
0.00260081
3.86783e-05
0.0025947
2.59423e-05
0.00259145
1.50734e-05
0.00259037
6.71807e-06
0.00259066
1.20259e-06
0.00259155
-1.47535e-06
0.00259237
-1.6217e-06
0.00259259
2.18807e-07
0.00259187
3.35932e-06
0.00259008
7.0818e-06
0.00258727
1.07399e-05
0.00258361
1.38323e-05
0.00257937
1.60384e-05
0.00257483
1.72177e-05
0.00257027
1.73845e-05
0.00256594
1.66686e-05
0.00256201
1.52731e-05
0.00255859
1.34347e-05
0.00255574
1.1392e-05
0.00255343
9.36008e-06
0.00255161
7.51482e-06
0.00255019
5.98302e-06
0.00254906
4.83933e-06
0.00254811
4.1082e-06
0.00254723
3.77015e-06
0.00254634
3.77102e-06
0.00254536
4.03328e-06
0.00254425
4.46783e-06
0.00254299
4.9852e-06
0.00254159
5.50492e-06
0.00254006
5.96231e-06
0.00253844
6.31229e-06
0.00253676
6.5303e-06
0.00253507
6.61075e-06
0.00253339
6.56373e-06
0.00253176
6.41073e-06
0.00253019
6.18005e-06
0.0025287
5.90245e-06
0.00252728
5.60757e-06
0.00252595
5.32114e-06
0.00252468
5.06328e-06
0.00252346
4.84762e-06
0.00252229
4.68129e-06
0.00252114
4.56551e-06
0.00252001
4.49658e-06
0.00251888
4.46714e-06
0.00251775
4.46761e-06
0.00251661
4.48747e-06
0.00251547
4.51645e-06
0.00251431
4.54554e-06
0.00251314
4.5676e-06
0.00251197
4.57773e-06
0.0025108
4.57328e-06
0.00250964
4.55364e-06
0.00250848
4.51977e-06
0.00250733
4.47369e-06
0.0025062
4.41792e-06
0.00250508
4.35496e-06
0.00250397
4.28692e-06
0.00250289
4.21522e-06
0.00250182
4.14042e-06
0.00250076
4.06216e-06
0.00249973
3.97917e-06
0.00249871
3.88944e-06
0.00249772
3.79047e-06
0.00249675
3.67947e-06
0.0024958
3.55342e-06
0.00249489
3.40863e-06
0.00249402
3.23945e-06
0.00249319
3.03616e-06
0.00249242
2.78231e-06
0.00249173
2.45259e-06
0.00249113
2.01271e-06
0.00249067
1.42302e-06
0.00249039
6.46911e-07
0.00249032
-3.36306e-07
0.00249052
-1.51635e-06
0.00249101
-2.83904e-06
0.00249182
-4.20073e-06
0.00249291
-5.45471e-06
0.00249422
-6.43136e-06
0.00249566
-6.97014e-06
0.00249709
-6.95645e-06
0.0024984
-6.354e-06
0.00249945
-5.2225e-06
0.00250017
-3.71401e-06
0.0025005
-2.0469e-06
0.00250049
-4.62925e-07
0.0025002
8.21706e-07
0.00249973
1.65862e-06
0.00249921
1.99237e-06
0.00249874
1.86275e-06
0.0024984
1.38572e-06
0.00249825
7.19509e-07
0.00249827
2.61945e-08
0.00249844
-5.61525e-07
0.0024987
-9.61149e-07
0.00249901
-1.14607e-06
0.00249931
-1.13774e-06
0.00249957
-9.89029e-07
0.00249976
-7.64775e-07
0.00249989
-5.24891e-07
0.00249996
-3.13324e-07
0.00249999
-1.53898e-07
0.0025
-5.20385e-08
0.00249999
-1.44176e-11
0.00249999
1.64813e-08
0.00249998
1.28894e-08
0.00249998
1.61963e-09
0.00249998
-8.88098e-09
0.00249999
-1.54716e-08
-1.56741e-08
0.00250258
-1.37789e-05
0.00251042
-4.16671e-05
0.00252405
-7.16983e-05
0.00254429
-0.000104794
0.00257214
-0.000141438
0.00260859
-0.000180921
0.00265429
-0.000221418
0.00270878
-0.000258256
0.00277032
-0.000286395
0.00283478
-0.000298527
0.00289692
-0.000290978
0.00295383
-0.000270311
0.00300368
-0.000240644
0.00304558
-0.000205953
0.00307943
-0.00016989
0.00310569
-0.000135088
0.00312525
-0.000103735
0.00313942
-7.73929e-05
0.0031497
-5.66787e-05
0.00315746
-4.0765e-05
0.00316344
-2.71262e-05
0.00316731
-1.17866e-05
0.0031675
9.67168e-06
0.00316138
4.04544e-05
0.00314615
8.06868e-05
0.00312
0.000126362
0.00308314
0.000170117
0.00303802
0.00020371
0.0029888
0.000220798
0.0029403
0.000218678
0.00289695
0.000198599
0.00286203
0.000165063
0.00283712
0.000124666
0.00282196
8.48159e-05
0.00281459
5.23609e-05
0.00281177
3.2305e-05
0.00280978
2.67478e-05
0.0028053
3.44718e-05
0.00279609
5.15292e-05
0.00278134
7.26208e-05
0.00276153
9.26438e-05
0.00273806
0.000107779
0.00271274
0.000115914
0.00268742
0.000116522
0.00266372
0.000110261
0.00264284
9.85175e-05
0.0026256
8.30237e-05
0.00261235
6.55937e-05
0.00260308
4.79434e-05
0.00259745
3.15736e-05
0.00259485
1.76794e-05
0.00259448
7.08316e-06
0.00259549
1.94018e-07
0.00259702
-3.00599e-06
0.00259833
-2.93126e-06
0.00259886
-3.07927e-07
0.00259826
3.95475e-06
0.00259643
8.91266e-06
0.00259345
1.37237e-05
0.00258954
1.77439e-05
0.002585
2.05709e-05
0.00258018
2.20398e-05
0.00257538
2.21859e-05
0.00257086
2.11919e-05
0.0025668
1.93306e-05
0.00256332
1.69143e-05
0.00256046
1.42536e-05
0.00255819
1.16262e-05
0.00255645
9.25674e-06
0.00255513
7.30547e-06
0.0025541
5.86467e-06
0.00255325
4.96168e-06
0.00255245
4.56733e-06
0.00255161
4.60821e-06
0.00255067
4.9814e-06
0.00254956
5.56993e-06
0.00254829
6.25726e-06
0.00254686
6.93947e-06
0.00254528
7.53383e-06
0.00254361
7.98356e-06
0.00254189
8.25874e-06
0.00254014
8.35405e-06
0.00253842
8.28431e-06
0.00253675
8.07874e-06
0.00253516
7.77491e-06
0.00253365
7.41318e-06
0.00253222
7.032e-06
0.00253088
6.66447e-06
0.00252961
6.33616e-06
0.00252839
6.06411e-06
0.00252721
5.85694e-06
0.00252606
5.71558e-06
0.00252493
5.63472e-06
0.00252379
5.60445e-06
0.00252265
5.61205e-06
0.00252149
5.64375e-06
0.00252032
5.68626e-06
0.00251914
5.72798e-06
0.00251794
5.75986e-06
0.00251675
5.77577e-06
0.00251555
5.77259e-06
0.00251435
5.74977e-06
0.00251316
5.70884e-06
0.00251198
5.65262e-06
0.00251082
5.58453e-06
0.00250966
5.5079e-06
0.00250852
5.42554e-06
0.0025074
5.33932e-06
0.00250629
5.25002e-06
0.0025052
5.15721e-06
0.00250412
5.05934e-06
0.00250305
4.95386e-06
0.002502
4.83756e-06
0.00250098
4.7068e-06
0.00249997
4.55762e-06
0.002499
4.38523e-06
0.00249805
4.18258e-06
0.00249715
3.93794e-06
0.0024963
3.6318e-06
0.00249552
3.23428e-06
0.00249483
2.70497e-06
0.00249425
1.99696e-06
0.00249383
1.06678e-06
0.00249361
-1.10443e-07
0.00249361
-1.52291e-06
0.00249388
-3.10657e-06
0.00249442
-4.73803e-06
0.00249521
-6.2419e-06
0.00249619
-7.41473e-06
0.00249728
-8.06333e-06
0.00249838
-8.0494e-06
0.00249935
-7.32885e-06
0.0025001
-5.97367e-06
0.00250056
-4.16784e-06
0.00250069
-2.17604e-06
0.00250051
-2.91495e-07
0.00250011
1.22357e-06
0.00249958
2.18974e-06
0.00249903
2.54123e-06
0.00249857
2.32903e-06
0.00249825
1.69754e-06
0.00249813
8.43025e-07
0.00249819
-3.38491e-08
0.0024984
-7.69187e-07
0.0024987
-1.26188e-06
0.00249903
-1.48081e-06
0.00249935
-1.45512e-06
0.00249962
-1.25332e-06
0.00249981
-9.58706e-07
0.00249993
-6.47863e-07
0.0025
-3.76646e-07
0.00250002
-1.7487e-07
0.00250001
-4.85767e-08
0.0025
1.31125e-08
0.00249999
2.94254e-08
0.00249998
2.08143e-08
0.00249998
3.52147e-09
0.00249998
-1.1533e-08
0.00249998
-2.07106e-08
-2.0598e-08
0.00250242
-1.62035e-05
0.0025098
-4.90398e-05
0.00252274
-8.46403e-05
0.00254223
-0.000124281
0.00256953
-0.000168745
0.00260601
-0.000217401
0.0026528
-0.000268202
0.00270972
-0.000315178
0.00277516
-0.000351837
0.00284398
-0.000367347
0.00290958
-0.000356573
0.00296889
-0.000329627
0.00302013
-0.000291882
0.00306253
-0.000248358
0.00309619
-0.000203551
0.00312169
-0.000160586
0.00314012
-0.00012216
0.00315302
-9.02914e-05
0.00316224
-6.59063e-05
0.00316955
-4.80711e-05
0.00317599
-3.3564e-05
0.0031813
-1.7097e-05
0.00318357
7.40287e-06
0.00317946
4.45596e-05
0.00316527
9.48796e-05
0.00313847
0.000153158
0.00309909
0.000209499
0.00305
0.000252804
0.00299616
0.000274636
0.00294332
0.000271516
0.00289671
0.000245209
0.00286011
0.000201667
0.00283529
0.00014948
0.00282186
9.8245e-05
0.00281739
5.68355e-05
0.00281795
3.17412e-05
0.00281907
2.56352e-05
0.00281676
3.67778e-05
0.00280848
5.98123e-05
0.00279343
8.76724e-05
0.00277238
0.000113694
0.00274712
0.000133038
0.00271986
0.000143173
0.00269275
0.000143631
0.00266759
0.000135416
0.00264572
0.000120391
0.00262795
0.000100795
0.00261463
7.89145e-05
0.00260568
5.68885e-05
0.00260068
3.65739e-05
0.00259892
1.94438e-05
0.00259949
6.50674e-06
0.00260143
-1.74471e-06
0.00260378
-5.35446e-06
0.00260572
-4.86849e-06
0.00260664
-1.22742e-06
0.00260619
4.40004e-06
0.0026043
1.08098e-05
0.00260108
1.69399e-05
0.00259683
2.1992e-05
0.00259192
2.54823e-05
0.00258673
2.72302e-05
0.00258161
2.73061e-05
0.00257684
2.59596e-05
0.00257263
2.35473e-05
0.00256907
2.04685e-05
0.00256621
1.71143e-05
0.00256401
1.38306e-05
0.00256237
1.08942e-05
0.00256117
8.49961e-06
0.00256028
6.75579e-06
0.00255955
5.6905e-06
0.00255886
5.26135e-06
0.0025581
5.37152e-06
0.00255719
5.88842e-06
0.0025561
6.66322e-06
0.00255481
7.54908e-06
0.00255333
8.41631e-06
0.0025517
9.16291e-06
0.00254996
9.7202e-06
0.00254817
1.00536e-05
0.00254636
1.01592e-05
0.00254459
1.00584e-05
0.00254288
9.78966e-06
0.00254125
9.4015e-06
0.00253972
8.94516e-06
0.00253828
8.46889e-06
0.00253693
8.01375e-06
0.00253566
7.61101e-06
0.00253444
7.28113e-06
0.00253326
7.03389e-06
0.00253211
6.86957e-06
0.00253096
6.78071e-06
0.00252981
6.75428e-06
0.00252865
6.77397e-06
0.00252747
6.82232e-06
0.00252628
6.88265e-06
0.00252506
6.9406e-06
0.00252384
6.9851e-06
0.00252261
7.00887e-06
0.00252137
7.00837e-06
0.00252014
6.98338e-06
0.00251891
6.93615e-06
0.00251769
6.87053e-06
0.00251649
6.79102e-06
0.00251529
6.70196e-06
0.00251411
6.60693e-06
0.00251294
6.50834e-06
0.00251178
6.40719e-06
0.00251064
6.30304e-06
0.0025095
6.19403e-06
0.00250838
6.07708e-06
0.00250727
5.94822e-06
0.00250617
5.80289e-06
0.00250509
5.63605e-06
0.00250404
5.4417e-06
0.00250301
5.21138e-06
0.00250202
4.93153e-06
0.00250107
4.58008e-06
0.00250018
4.12361e-06
0.00249937
3.51695e-06
0.00249866
2.70771e-06
0.00249808
1.64715e-06
0.00249766
3.07332e-07
0.00249743
-1.29856e-06
0.00249742
-3.09825e-06
0.00249764
-4.95211e-06
0.00249806
-6.66107e-06
0.00249864
-7.99369e-06
0.0024993
-8.72976e-06
0.00249997
-8.71157e-06
0.00250053
-7.88921e-06
0.0025009
-6.34612e-06
0.00250103
-4.29472e-06
0.00250089
-2.04044e-06
0.00250052
7.8348e-08
0.00249998
1.75953e-06
0.00249938
2.79749e-06
0.0024988
3.11927e-06
0.00249834
2.78839e-06
0.00249806
1.97761e-06
0.00249798
9.20227e-07
0.00249809
-1.45951e-07
0.00249835
-1.0275e-06
0.0024987
-1.60644e-06
0.00249906
-1.84899e-06
0.0024994
-1.79387e-06
0.00249968
-1.52706e-06
0.00249987
-1.15186e-06
0.00249999
-7.62673e-07
0.00250004
-4.27697e-07
0.00250004
-1.82564e-07
0.00250003
-3.3244e-08
0.00250001
3.52573e-08
0.00249999
4.80772e-08
0.00249998
3.1471e-08
0.00249997
5.97301e-09
0.00249998
-1.48447e-08
0.00249998
-2.71169e-08
-2.62607e-08
0.00250222
-1.84186e-05
0.00250898
-5.58006e-05
0.00252099
-9.66594e-05
0.00253944
-0.000142723
0.00256589
-0.000195198
0.00260221
-0.000253717
0.00265015
-0.000316141
0.00271004
-0.000375076
0.00278056
-0.000422355
0.00285506
-0.00044185
0.00292499
-0.000426499
0.0029872
-0.000391838
0.00304003
-0.000344706
0.00308294
-0.000291267
0.00311626
-0.000236871
0.00314074
-0.000185067
0.00315766
-0.000139084
0.00316887
-0.000101502
0.00317667
-7.37001e-05
0.00318331
-5.47194e-05
0.00319031
-4.05578e-05
0.00319751
-2.42982e-05
0.0032026
2.30793e-06
0.0032013
4.58602e-05
0.00318865
0.000107531
0.00316115
0.000180663
0.00311855
0.000252092
0.00306432
0.00030704
0.00300452
0.000334438
0.00294611
0.000329923
0.00289534
0.000295983
0.00285663
0.000240378
0.002832
0.000174102
0.00282088
0.000109373
0.00282022
5.74902e-05
0.00282521
2.67484e-05
0.00283035
2.05024e-05
0.00283082
3.63043e-05
0.00282366
6.69678e-05
0.00280815
0.000103189
0.00278544
0.000136404
0.00275786
0.000160615
0.00272813
0.000172905
0.00269877
0.000172987
0.00267183
0.000162357
0.00264874
0.000143481
0.00263035
0.000119185
0.00261697
9.22942e-05
0.00260845
6.54066e-05
0.00260426
4.07655e-05
0.00260356
2.01428e-05
0.00260532
4.74504e-06
0.00260843
-4.84987e-06
0.0026118
-8.72386e-06
0.00261451
-7.58322e-06
0.00261591
-2.62522e-06
0.00261564
4.67427e-06
0.00261364
1.28076e-05
0.00261012
2.04623e-05
0.00260544
2.6672e-05
0.00260005
3.0873e-05
0.00259439
3.28815e-05
0.00258888
3.28202e-05
0.00258381
3.10254e-05
0.00257941
2.79543e-05
0.00257577
2.41071e-05
0.00257292
1.99658e-05
0.0025708
1.59514e-05
0.00256929
1.23963e-05
0.00256826
9.53027e-06
0.00256754
7.47757e-06
0.00256697
6.26319e-06
0.0025664
5.82706e-06
0.00256573
6.04372e-06
0.00256487
6.74559e-06
0.00256379
7.74703e-06
0.00256247
8.86687e-06
0.00256094
9.94679e-06
0.00255924
1.08641e-05
0.00255742
1.1538e-05
0.00255555
1.19302e-05
0.00255367
1.20402e-05
0.00255183
1.18974e-05
0.00255006
1.15522e-05
0.0025484
1.10657e-05
0.00254684
1.05018e-05
0.00254539
9.91968e-06
0.00254404
9.36908e-06
0.00254276
8.88727e-06
0.00254154
8.498e-06
0.00254037
8.2119e-06
0.00253921
8.02801e-06
0.00253805
7.93611e-06
0.00253689
7.91938e-06
0.0025357
7.95727e-06
0.0025345
8.0281e-06
0.00253327
8.11145e-06
0.00253202
8.18992e-06
0.00253076
8.25035e-06
0.00252948
8.28433e-06
0.0025282
8.28812e-06
0.00252692
8.262e-06
0.00252565
8.20925e-06
0.00252438
8.13499e-06
0.00252313
8.04504e-06
0.00252189
7.9449e-06
0.00252065
7.83905e-06
0.00251943
7.7305e-06
0.00251822
7.62056e-06
0.00251701
7.50875e-06
0.00251581
7.39292e-06
0.00251462
7.26945e-06
0.00251344
7.13357e-06
0.00251226
6.97971e-06
0.00251109
6.80163e-06
0.00250994
6.59204e-06
0.00250881
6.34099e-06
0.00250771
6.03327e-06
0.00250665
5.64479e-06
0.00250563
5.13958e-06
0.00250468
4.46931e-06
0.00250381
3.57804e-06
0.00250304
2.41381e-06
0.0025024
9.47017e-07
0.00250191
-8.07498e-07
0.00250158
-2.77084e-06
0.00250142
-4.79089e-06
0.00250141
-6.65068e-06
0.00250152
-8.0978e-06
0.00250168
-8.89219e-06
0.00250183
-8.86237e-06
0.0025019
-7.95562e-06
0.00250182
-6.26626e-06
0.00250155
-4.03108e-06
0.0025011
-1.58961e-06
0.0025005
6.8271e-07
0.00249981
2.45157e-06
0.00249911
3.49139e-06
0.00249851
3.72603e-06
0.00249806
3.23323e-06
0.00249782
2.21403e-06
0.00249781
9.37404e-07
0.00249798
-3.23632e-07
0.00249831
-1.34828e-06
0.0024987
-2.00394e-06
0.00249911
-2.25649e-06
0.00249947
-2.15663e-06
0.00249976
-1.81007e-06
0.00249995
-1.34202e-06
0.00250005
-8.65884e-07
0.00250008
-4.62701e-07
0.00250008
-1.73565e-07
0.00250005
-3.43009e-09
0.00250001
6.80621e-08
0.00249999
7.31837e-08
0.00249997
4.49371e-08
0.00249997
8.66468e-09
0.00249998
-1.92521e-08
0.00249998
-3.51045e-08
-3.28405e-08
0.00250195
-2.03665e-05
0.00250792
-6.1777e-05
0.00251873
-0.000107469
0.00253575
-0.000159738
0.00256092
-0.000220366
0.00259673
-0.000289526
0.00264578
-0.000365192
0.00270921
-0.000438514
0.00278627
-0.000499411
0.00286809
-0.000523671
0.00294331
-0.000501713
0.00300889
-0.000457425
0.00306346
-0.000399279
0.00310683
-0.000334637
0.00313961
-0.000269651
0.00316273
-0.00020818
0.00317766
-0.000154017
0.0031866
-0.000110441
0.00319241
-7.95104e-05
0.00319806
-6.03723e-05
0.00320567
-4.8166e-05
0.00321532
-3.39516e-05
0.00322424
-6.60795e-06
0.00322686
4.32401e-05
0.00321653
0.000117864
0.00318837
0.000208824
0.00314179
0.000298667
0.00308103
0.000367799
0.00301365
0.000401822
0.00294819
0.000395378
0.00289219
0.000351983
0.00285088
0.000281687
0.00282658
0.000198399
0.00281847
0.000117489
0.00282276
5.31991e-05
0.00283346
1.60477e-05
0.00284374
1.02271e-05
0.0028477
3.23348e-05
0.00284189
7.27867e-05
0.00282566
0.000119412
0.00280076
0.000161305
0.00277022
0.000191157
0.0027374
0.00020573
0.00270528
0.000205102
0.00267618
0.000191455
0.00265166
0.000168006
0.00263256
0.00013828
0.00261916
0.000105699
0.0026112
7.33651e-05
0.00260803
4.39395e-05
0.00260865
1.95172e-05
0.00261188
1.51798e-06
0.00261642
-9.39059e-06
0.00262104
-1.33423e-05
0.00262469
-1.12396e-05
0.00262666
-4.58971e-06
0.00262657
4.76356e-06
0.00262442
1.49543e-05
0.0026205
2.43818e-05
0.00261528
3.18961e-05
0.00260929
3.68573e-05
0.00260308
3.90955e-05
0.00259709
3.88093e-05
0.00259167
3.64448e-05
0.00258705
3.25812e-05
0.00258332
2.78363e-05
0.00258049
2.2795e-05
0.00257848
1.79611e-05
0.00257715
1.37268e-05
0.00257632
1.03577e-05
0.00257581
7.99138e-06
0.00257542
6.64612e-06
0.00257501
6.23852e-06
0.00257445
6.60812e-06
0.00257365
7.54573e-06
0.00257257
8.82297e-06
0.00257122
1.02195e-05
0.00256962
1.1545e-05
0.00256783
1.26546e-05
0.00256591
1.34554e-05
0.00256394
1.39065e-05
0.00256196
1.40128e-05
0.00256005
1.38146e-05
0.00255822
1.33764e-05
0.00255651
1.27748e-05
0.00255493
1.20879e-05
0.00255346
1.13873e-05
0.0025521
1.07321e-05
0.00255082
1.01661e-05
0.0025496
9.71598e-06
0.00254842
9.3928e-06
0.00254725
9.19368e-06
0.00254608
9.1048e-06
0.0025449
9.10479e-06
0.00254369
9.16808e-06
0.00254245
9.26821e-06
0.00254118
9.38052e-06
0.00253988
9.48434e-06
0.00253857
9.56435e-06
0.00253724
9.6111e-06
0.00253591
9.62082e-06
0.00253458
9.59459e-06
0.00253325
9.53702e-06
0.00253193
9.4548e-06
0.00253062
9.35532e-06
0.00252932
9.24544e-06
0.00252803
9.13069e-06
0.00252674
9.01475e-06
0.00252546
8.89926e-06
0.00252419
8.78376e-06
0.00252292
8.66581e-06
0.00252165
8.54121e-06
0.00252037
8.40436e-06
0.00251911
8.24862e-06
0.00251784
8.06648e-06
0.00251658
7.8492e-06
0.00251534
7.58535e-06
0.00251411
7.2582e-06
0.00251292
6.84214e-06
0.00251176
6.29968e-06
0.00251064
5.58098e-06
0.00250959
4.62866e-06
0.00250862
3.38981e-06
0.00250773
1.83504e-06
0.00250694
-1.85904e-08
0.00250626
-2.08698e-06
0.00250568
-4.2094e-06
0.00250518
-6.15739e-06
0.00250475
-7.66578e-06
0.00250434
-8.48313e-06
0.00250391
-8.43137e-06
0.00250341
-7.4589e-06
0.00250282
-5.67071e-06
0.00250211
-3.32339e-06
0.0025013
-7.82537e-07
0.00250044
1.54892e-06
0.00249958
3.31393e-06
0.00249879
4.2745e-06
0.00249816
4.35611e-06
0.00249774
3.65274e-06
0.00249756
2.39333e-06
0.00249762
8.80766e-07
0.00249788
-5.79236e-07
0.00249827
-1.74124e-06
0.00249873
-2.46086e-06
0.00249918
-2.70648e-06
0.00249956
-2.54357e-06
0.00249985
-2.10018e-06
0.00250004
-1.5255e-06
0.00250012
-9.53257e-07
0.00250014
-4.7763e-07
0.00250011
-1.44615e-07
0.00250006