/*--------------------------------*- C++ -*----------------------------------*\
  =========                 |
  \\      /  F ield         | OpenFOAM: The Open Source CFD Toolbox
   \\    /   O peration     | Website:  https://openfoam.org
    \\  /    A nd           | Version:  11
     \\/     M anipulation  |
\*---------------------------------------------------------------------------*/
FoamFile
{
    format      ascii;
    class       volScalarField;
    location    "1.796711";
    object      p;
}
// * * * * * * * * * * * * * * * * * * * * * * * * * * * * * * * * * * * * * //

dimensions      [0 2 -2 0 0 0 0];

internalField   nonuniform List<scalar> 
7132
(
0.0526166
0.051209
0.0464611
0.0395222
0.0298227
0.0170774
0.00122528
-0.0177034
-0.0391328
-0.0620296
-0.0848379
-0.105498
-0.122618
-0.134959
-0.14159
-0.142277
-0.137386
-0.127926
-0.11532
-0.101066
-0.0864694
-0.0725035
-0.059786
-0.0486279
-0.0391129
-0.0311757
-0.0246678
-0.0194036
-0.0151907
-0.0118469
-0.00920891
-0.00713616
-0.00551142
-0.0042402
-0.0032481
-0.00247683
-0.00188009
-0.00142063
-0.00106859
-0.000800369
-0.000597345
-0.00044471
-0.000330606
-0.000245609
-0.000182374
-0.000135312
-0.000100256
-7.41342e-05
-5.46823e-05
-4.02211e-05
-2.94938e-05
-2.15549e-05
-1.56921e-05
-1.13699e-05
-8.18764e-06
-5.84694e-06
-4.12667e-06
-2.86349e-06
-1.93692e-06
-1.2582e-06
-7.61886e-07
-3.9979e-07
-1.36377e-07
5.44871e-08
1.92062e-07
2.90484e-07
3.60174e-07
4.08768e-07
4.41905e-07
4.63707e-07
4.7723e-07
4.84696e-07
4.87761e-07
4.87622e-07
4.85177e-07
4.81072e-07
4.75791e-07
4.69681e-07
4.63005e-07
4.55949e-07
4.48651e-07
4.41212e-07
4.33705e-07
4.26183e-07
4.1868e-07
4.11229e-07
4.0384e-07
3.96534e-07
3.89309e-07
3.8218e-07
3.75138e-07
3.68195e-07
3.61337e-07
3.54577e-07
3.47896e-07
3.4131e-07
3.34796e-07
3.28372e-07
3.22011e-07
3.15735e-07
3.09515e-07
3.03375e-07
2.97283e-07
2.91266e-07
2.8529e-07
2.79384e-07
2.73515e-07
2.6771e-07
2.61936e-07
2.56223e-07
2.50536e-07
2.44906e-07
2.39298e-07
2.33745e-07
2.2821e-07
2.22727e-07
2.17258e-07
2.11838e-07
2.0643e-07
2.0107e-07
1.95718e-07
1.90413e-07
1.85113e-07
1.79858e-07
1.74607e-07
1.69399e-07
1.64194e-07
1.5903e-07
1.53866e-07
1.48743e-07
1.43618e-07
1.38533e-07
1.33445e-07
1.28395e-07
1.23341e-07
1.18324e-07
1.13302e-07
1.08315e-07
1.03321e-07
9.83621e-08
9.33953e-08
8.84616e-08
8.3519e-08
7.86084e-08
7.36875e-08
6.87975e-08
6.38958e-08
5.90245e-08
5.41386e-08
4.92849e-08
4.44099e-08
3.95761e-08
3.4701e-08
2.99005e-08
2.4995e-08
2.02763e-08
1.5264e-08
1.06746e-08
5.44151e-09
3.33836e-09
0.0531777
0.0517813
0.0470727
0.0401738
0.0305041
0.0177498
0.00182407
-0.0172825
-0.0389947
-0.0622762
-0.0854973
-0.10648
-0.123853
-0.136361
-0.143035
-0.143638
-0.138538
-0.128784
-0.115856
-0.101305
-0.0864683
-0.0723334
-0.0595137
-0.0483079
-0.0387845
-0.0308644
-0.0243876
-0.0191606
-0.0149854
-0.0116769
-0.00907026
-0.00702431
-0.00542193
-0.00416904
-0.00319179
-0.00243249
-0.00184533
-0.00139348
-0.00104747
-0.000783995
-0.000584694
-0.000434985
-0.000323181
-0.000239986
-0.000178148
-0.000132154
-9.79033e-05
-7.23846e-05
-5.33835e-05
-3.92587e-05
-2.87819e-05
-2.10289e-05
-1.53036e-05
-1.10829e-05
-7.97552e-06
-5.69024e-06
-4.011e-06
-2.77822e-06
-1.87414e-06
-1.21203e-06
-7.27948e-07
-3.74851e-07
-1.18049e-07
6.7954e-08
2.01958e-07
2.97751e-07
3.65511e-07
4.12684e-07
4.44779e-07
4.65814e-07
4.78775e-07
4.85826e-07
4.88588e-07
4.88225e-07
4.85618e-07
4.81391e-07
4.76023e-07
4.69848e-07
4.63125e-07
4.56033e-07
4.4871e-07
4.41252e-07
4.33732e-07
4.262e-07
4.18691e-07
4.11234e-07
4.03841e-07
3.96532e-07
3.89306e-07
3.82175e-07
3.75132e-07
3.68189e-07
3.6133e-07
3.54571e-07
3.4789e-07
3.41304e-07
3.3479e-07
3.28365e-07
3.22005e-07
3.15729e-07
3.0951e-07
3.03369e-07
2.97278e-07
2.91261e-07
2.85285e-07
2.7938e-07
2.7351e-07
2.67705e-07
2.61931e-07
2.56219e-07
2.50531e-07
2.44903e-07
2.39294e-07
2.33742e-07
2.28206e-07
2.22723e-07
2.17254e-07
2.11835e-07
2.06426e-07
2.01067e-07
1.95715e-07
1.9041e-07
1.8511e-07
1.79856e-07
1.74604e-07
1.69397e-07
1.64191e-07
1.59027e-07
1.53863e-07
1.48741e-07
1.43615e-07
1.38531e-07
1.33442e-07
1.28393e-07
1.23339e-07
1.18322e-07
1.13299e-07
1.08313e-07
1.03319e-07
9.83609e-08
9.33931e-08
8.84606e-08
8.3517e-08
7.86075e-08
7.36856e-08
6.87969e-08
6.3894e-08
5.9024e-08
5.4137e-08
4.92846e-08
4.44084e-08
3.95759e-08
3.46996e-08
2.99005e-08
2.49936e-08
2.02771e-08
1.52613e-08
1.06791e-08
5.42926e-09
3.36815e-09
0.0542951
0.0529225
0.0482945
0.0414806
0.0318761
0.0191107
0.00304362
-0.0164183
-0.0387023
-0.0627718
-0.0868374
-0.108469
-0.126355
-0.139201
-0.145962
-0.146392
-0.140867
-0.130512
-0.116927
-0.101773
-0.0864537
-0.0719806
-0.0589584
-0.0476598
-0.0381224
-0.0302386
-0.0238259
-0.0186742
-0.0145754
-0.011338
-0.00879431
-0.00680207
-0.00524438
-0.004028
-0.00308024
-0.00234456
-0.00177628
-0.00133952
-0.0010055
-0.000751506
-0.000559683
-0.000415853
-0.000308655
-0.000229041
-0.000169952
-0.000126038
-9.33449e-05
-6.89859e-05
-5.08496e-05
-3.73718e-05
-2.73796e-05
-1.99891e-05
-1.45341e-05
-1.05143e-05
-7.55587e-06
-5.38068e-06
-3.78278e-06
-2.61005e-06
-1.7503e-06
-1.12089e-06
-6.60903e-07
-3.25551e-07
-8.18058e-08
9.45938e-08
2.21537e-07
3.12139e-07
3.76084e-07
4.20451e-07
4.50486e-07
4.70006e-07
4.81854e-07
4.88087e-07
4.90249e-07
4.89445e-07
4.86513e-07
4.82048e-07
4.76505e-07
4.70201e-07
4.63385e-07
4.56223e-07
4.4885e-07
4.41354e-07
4.33807e-07
4.26254e-07
4.18731e-07
4.11263e-07
4.03863e-07
3.96548e-07
3.89317e-07
3.82184e-07
3.75138e-07
3.68193e-07
3.61334e-07
3.54573e-07
3.47892e-07
3.41305e-07
3.34791e-07
3.28366e-07
3.22006e-07
3.1573e-07
3.0951e-07
3.0337e-07
2.97278e-07
2.91261e-07
2.85285e-07
2.7938e-07
2.7351e-07
2.67706e-07
2.61931e-07
2.56219e-07
2.50531e-07
2.44903e-07
2.39294e-07
2.33742e-07
2.28206e-07
2.22724e-07
2.17254e-07
2.11836e-07
2.06426e-07
2.01068e-07
1.95715e-07
1.9041e-07
1.8511e-07
1.79856e-07
1.74604e-07
1.69397e-07
1.6419e-07
1.59028e-07
1.53863e-07
1.48741e-07
1.43615e-07
1.38531e-07
1.33442e-07
1.28394e-07
1.23338e-07
1.18323e-07
1.13299e-07
1.08314e-07
1.03319e-07
9.83613e-08
9.33931e-08
8.8461e-08
8.3517e-08
7.86079e-08
7.36856e-08
6.87973e-08
6.3894e-08
5.90244e-08
5.4137e-08
4.92851e-08
4.44084e-08
3.95764e-08
3.46996e-08
2.99012e-08
2.49931e-08
2.02786e-08
1.5258e-08
1.06859e-08
5.40835e-09
3.41046e-09
0.0559597
0.0546249
0.0501249
0.0434496
0.0339574
0.021192
0.00492723
-0.0150672
-0.0382255
-0.0635269
-0.0889083
-0.111526
-0.130194
-0.143564
-0.150463
-0.150631
-0.144441
-0.133148
-0.118541
-0.102455
-0.0863983
-0.0714151
-0.058093
-0.0466624
-0.0371117
-0.0292892
-0.0229776
-0.0179428
-0.0139607
-0.0108313
-0.00838256
-0.00647102
-0.00498022
-0.00381831
-0.00291441
-0.00221387
-0.00167368
-0.00125932
-0.000943109
-0.00070322
-0.000522523
-0.000387445
-0.000287103
-0.000212816
-0.000157814
-0.000116988
-8.66013e-05
-6.39582e-05
-4.71005e-05
-3.45785e-05
-2.53018e-05
-1.84466e-05
-1.33912e-05
-9.66891e-06
-6.93133e-06
-4.91982e-06
-3.44301e-06
-2.35976e-06
-1.56605e-06
-9.85323e-07
-5.61206e-07
-2.52253e-07
-2.79277e-08
1.34191e-07
2.50635e-07
3.33519e-07
3.91791e-07
4.3199e-07
4.58961e-07
4.76231e-07
4.86426e-07
4.91444e-07
4.92714e-07
4.91254e-07
4.87841e-07
4.83022e-07
4.7722e-07
4.70725e-07
4.63768e-07
4.56504e-07
4.49055e-07
4.41505e-07
4.33916e-07
4.26334e-07
4.18788e-07
4.11304e-07
4.03892e-07
3.96569e-07
3.89332e-07
3.82194e-07
3.75145e-07
3.68198e-07
3.61336e-07
3.54574e-07
3.47892e-07
3.41305e-07
3.34789e-07
3.28365e-07
3.22004e-07
3.15728e-07
3.09508e-07
3.03368e-07
2.97276e-07
2.91259e-07
2.85283e-07
2.79378e-07
2.73508e-07
2.67704e-07
2.61929e-07
2.56217e-07
2.50529e-07
2.44901e-07
2.39292e-07
2.33741e-07
2.28204e-07
2.22722e-07
2.17252e-07
2.11834e-07
2.06425e-07
2.01066e-07
1.95713e-07
1.90409e-07
1.85108e-07
1.79855e-07
1.74602e-07
1.69396e-07
1.64189e-07
1.59027e-07
1.53861e-07
1.4874e-07
1.43614e-07
1.38531e-07
1.33441e-07
1.28393e-07
1.23337e-07
1.18322e-07
1.13298e-07
1.08313e-07
1.03318e-07
9.8361e-08
9.33923e-08
8.84608e-08
8.35163e-08
7.86078e-08
7.3685e-08
6.87973e-08
6.38935e-08
5.90245e-08
5.41365e-08
4.92852e-08
4.4408e-08
3.95766e-08
3.4699e-08
2.99016e-08
2.49919e-08
2.02802e-08
1.52536e-08
1.06934e-08
5.38554e-09
3.45406e-09
0.0581563
0.0568762
0.0525599
0.0460897
0.0367755
0.0240431
0.00754383
-0.0131572
-0.0375119
-0.0645551
-0.0917866
-0.115735
-0.135471
-0.149564
-0.156655
-0.156459
-0.149337
-0.136726
-0.120694
-0.103323
-0.0862611
-0.0705957
-0.0568831
-0.0452904
-0.0357361
-0.028007
-0.0218391
-0.0169659
-0.0131431
-0.0101596
-0.00783829
-0.00603444
-0.00463252
-0.00354275
-0.00269678
-0.00204255
-0.0015393
-0.00115437
-0.000861556
-0.000640185
-0.000474096
-0.000350505
-0.000259153
-0.000191836
-0.000142158
-0.000105335
-7.79226e-05
-5.74842e-05
-4.22676e-05
-3.09736e-05
-2.2618e-05
-1.64531e-05
-1.19139e-05
-8.57623e-06
-6.12439e-06
-4.32457e-06
-3.00428e-06
-2.03661e-06
-1.32815e-06
-8.10269e-07
-4.32442e-07
-1.57569e-07
4.16819e-08
1.85357e-07
2.8824e-07
3.61154e-07
4.12098e-07
4.46911e-07
4.69924e-07
4.84285e-07
4.92343e-07
4.95791e-07
4.95907e-07
4.936e-07
4.89565e-07
4.84289e-07
4.78151e-07
4.71409e-07
4.64271e-07
4.56874e-07
4.49327e-07
4.41705e-07
4.34064e-07
4.26443e-07
4.18869e-07
4.11364e-07
4.03937e-07
3.96602e-07
3.89356e-07
3.82213e-07
3.75159e-07
3.68209e-07
3.61344e-07
3.54581e-07
3.47897e-07
3.41309e-07
3.34793e-07
3.28368e-07
3.22006e-07
3.15731e-07
3.0951e-07
3.0337e-07
2.97277e-07
2.91261e-07
2.85284e-07
2.7938e-07
2.73508e-07
2.67705e-07
2.6193e-07
2.56218e-07
2.5053e-07
2.44902e-07
2.39293e-07
2.33742e-07
2.28204e-07
2.22723e-07
2.17252e-07
2.11835e-07
2.06425e-07
2.01067e-07
1.95713e-07
1.9041e-07
1.85108e-07
1.79856e-07
1.74603e-07
1.69397e-07
1.64189e-07
1.59028e-07
1.53862e-07
1.48741e-07
1.43614e-07
1.38531e-07
1.33441e-07
1.28394e-07
1.23338e-07
1.18323e-07
1.13298e-07
1.08314e-07
1.03318e-07
9.83618e-08
9.33927e-08
8.84616e-08
8.35167e-08
7.86086e-08
7.36854e-08
6.87981e-08
6.38939e-08
5.90253e-08
5.41369e-08
4.9286e-08
4.44083e-08
3.95774e-08
3.46991e-08
2.99026e-08
2.49913e-08
2.02823e-08
1.52497e-08
1.07012e-08
5.36598e-09
3.49133e-09
0.0608635
0.0596582
0.0555924
0.0494117
0.0403662
0.0277309
0.010989
-0.0105861
-0.0364864
-0.0658833
-0.0955917
-0.121222
-0.14233
-0.157387
-0.164746
-0.164081
-0.15571
-0.141328
-0.123396
-0.104336
-0.0859803
-0.0694579
-0.055273
-0.0435016
-0.0339669
-0.0263749
-0.0204018
-0.0157408
-0.0121235
-0.00932573
-0.00716507
-0.00549601
-0.00420468
-0.00320425
-0.00242978
-0.00183256
-0.00137467
-0.00102588
-0.000761746
-0.000563074
-0.000414897
-0.0003054
-0.000225083
-0.000166314
-0.000123151
-9.12033e-05
-6.74013e-05
-4.96329e-05
-3.64034e-05
-2.65978e-05
-1.936e-05
-1.40335e-05
-1.01211e-05
-7.2506e-06
-5.14573e-06
-3.60291e-06
-2.4726e-06
-1.64515e-06
-1.04009e-06
-5.98379e-07
-2.76636e-07
-4.30308e-08
1.25866e-07
2.47222e-07
3.33698e-07
3.94553e-07
4.36636e-07
4.64936e-07
4.83166e-07
4.94011e-07
4.99487e-07
5.01038e-07
4.99761e-07
4.9643e-07
4.91643e-07
4.85815e-07
4.79271e-07
4.72232e-07
4.64875e-07
4.57317e-07
4.49653e-07
4.41944e-07
4.34239e-07
4.26571e-07
4.18963e-07
4.11433e-07
4.03987e-07
3.96639e-07
3.89384e-07
3.82233e-07
3.75174e-07
3.6822e-07
3.61352e-07
3.54587e-07
3.47901e-07
3.41313e-07
3.34795e-07
3.2837e-07
3.22007e-07
3.15732e-07
3.0951e-07
3.0337e-07
2.97277e-07
2.91261e-07
2.85284e-07
2.7938e-07
2.73508e-07
2.67705e-07
2.61929e-07
2.56219e-07
2.50529e-07
2.44902e-07
2.39292e-07
2.33742e-07
2.28204e-07
2.22723e-07
2.17252e-07
2.11835e-07
2.06425e-07
2.01067e-07
1.95713e-07
1.9041e-07
1.85108e-07
1.79856e-07
1.74603e-07
1.69397e-07
1.64189e-07
1.59028e-07
1.53862e-07
1.48741e-07
1.43614e-07
1.38532e-07
1.33441e-07
1.28394e-07
1.23338e-07
1.18323e-07
1.13298e-07
1.08314e-07
1.03318e-07
9.83623e-08
9.33928e-08
8.84621e-08
8.35168e-08
7.86092e-08
7.36855e-08
6.87987e-08
6.3894e-08
5.90259e-08
5.41371e-08
4.92866e-08
4.44084e-08
3.9578e-08
3.4699e-08
2.99034e-08
2.49905e-08
2.02842e-08
1.52459e-08
1.07082e-08
5.3505e-09
3.52025e-09
0.064052
0.0629455
0.0592104
0.0534257
0.0447725
0.0323418
0.0153919
-0.00720881
-0.0350376
-0.0675514
-0.100492
-0.128149
-0.150953
-0.167236
-0.174945
-0.173696
-0.16371
-0.147026
-0.126642
-0.10544
-0.0854789
-0.0679264
-0.0532014
-0.0412526
-0.0317772
-0.0243789
-0.0186607
-0.0142683
-0.0109057
-0.00833492
-0.00636859
-0.00486123
-0.00370174
-0.0028073
-0.00211732
-0.0015872
-0.00118272
-0.000876277
-0.000645713
-0.000473575
-0.000346326
-0.000253296
-0.000185861
-0.000137047
-0.000101432
-7.50941e-05
-5.54131e-05
-4.06782e-05
-2.97059e-05
-2.15951e-05
-1.56334e-05
-1.12657e-05
-8.07084e-06
-5.73511e-06
-4.02735e-06
-2.77852e-06
-1.86538e-06
-1.19814e-06
-7.11153e-07
-3.56421e-07
-9.87063e-08
8.7783e-08
2.22023e-07
3.17894e-07
3.85634e-07
4.32716e-07
4.64677e-07
4.85539e-07
4.98302e-07
5.05131e-07
5.07656e-07
5.07039e-07
5.04169e-07
4.99668e-07
4.94022e-07
4.87562e-07
4.80555e-07
4.73175e-07
4.65569e-07
4.57827e-07
4.50028e-07
4.4222e-07
4.34442e-07
4.26721e-07
4.19074e-07
4.11515e-07
4.04048e-07
3.96685e-07
3.89417e-07
3.82259e-07
3.75193e-07
3.68235e-07
3.61364e-07
3.54596e-07
3.47908e-07
3.41319e-07
3.348e-07
3.28374e-07
3.22011e-07
3.15735e-07
3.09513e-07
3.03373e-07
2.9728e-07
2.91264e-07
2.85286e-07
2.79382e-07
2.7351e-07
2.67707e-07
2.61931e-07
2.5622e-07
2.50531e-07
2.44904e-07
2.39294e-07
2.33743e-07
2.28205e-07
2.22725e-07
2.17253e-07
2.11837e-07
2.06426e-07
2.01069e-07
1.95714e-07
1.90412e-07
1.85109e-07
1.79857e-07
1.74604e-07
1.69399e-07
1.6419e-07
1.59029e-07
1.53863e-07
1.48743e-07
1.43615e-07
1.38533e-07
1.33442e-07
1.28396e-07
1.23339e-07
1.18325e-07
1.13299e-07
1.08316e-07
1.03319e-07
9.83636e-08
9.33937e-08
8.84634e-08
8.35177e-08
7.86104e-08
7.36864e-08
6.87998e-08
6.38948e-08
5.9027e-08
5.41378e-08
4.92876e-08
4.4409e-08
3.9579e-08
3.46993e-08
2.99046e-08
2.49901e-08
2.02864e-08
1.5243e-08
1.07144e-08
5.33919e-09
3.54171e-09
0.0676826
0.0667038
0.0633943
0.0581385
0.0500417
0.0379808
0.0209167
-0.00283116
-0.0330128
-0.0696321
-0.106733
-0.136719
-0.161573
-0.179436
-0.187637
-0.185677
-0.173601
-0.153938
-0.130423
-0.106547
-0.0846416
-0.0658916
-0.0505801
-0.0384809
-0.0291276
-0.0219978
-0.0166073
-0.0125478
-0.00949375
-0.00719342
-0.00545562
-0.00413653
-0.00312937
-0.00235663
-0.00176324
-0.00130962
-0.00096573
-0.00070731
-0.000514749
-0.000372636
-0.000269082
-0.000194722
-0.000141907
-0.000104377
-7.72758e-05
-5.72149e-05
-4.21075e-05
-3.07261e-05
-2.22518e-05
-1.60242e-05
-1.14846e-05
-8.18638e-06
-5.79171e-06
-4.05192e-06
-2.78624e-06
-1.86435e-06
-1.19247e-06
-7.03061e-07
-3.47039e-07
-8.87022e-08
9.80908e-08
2.3242e-07
3.28309e-07
3.9599e-07
4.43012e-07
4.7487e-07
4.95644e-07
5.08287e-07
5.15012e-07
5.17405e-07
5.16671e-07
5.1366e-07
5.09032e-07
5.0324e-07
4.96645e-07
4.89489e-07
4.8197e-07
4.74214e-07
4.66332e-07
4.58387e-07
4.5044e-07
4.42523e-07
4.34665e-07
4.26885e-07
4.19194e-07
4.11604e-07
4.04114e-07
3.96733e-07
3.89454e-07
3.82286e-07
3.75213e-07
3.6825e-07
3.61376e-07
3.54606e-07
3.47915e-07
3.41325e-07
3.34804e-07
3.28378e-07
3.22014e-07
3.15738e-07
3.09515e-07
3.03376e-07
2.97282e-07
2.91266e-07
2.85288e-07
2.79384e-07
2.73512e-07
2.67709e-07
2.61932e-07
2.56222e-07
2.50532e-07
2.44906e-07
2.39295e-07
2.33745e-07
2.28207e-07
2.22726e-07
2.17254e-07
2.11838e-07
2.06427e-07
2.0107e-07
1.95716e-07
1.90413e-07
1.85111e-07
1.79859e-07
1.74605e-07
1.694e-07
1.64191e-07
1.59031e-07
1.53864e-07
1.48744e-07
1.43616e-07
1.38535e-07
1.33443e-07
1.28397e-07
1.2334e-07
1.18326e-07
1.133e-07
1.08317e-07
1.0332e-07
9.8365e-08
9.33948e-08
8.84648e-08
8.35187e-08
7.86117e-08
7.36873e-08
6.88011e-08
6.38957e-08
5.90282e-08
5.41386e-08
4.92887e-08
4.44096e-08
3.95801e-08
3.46997e-08
2.99057e-08
2.49898e-08
2.02883e-08
1.52406e-08
1.07196e-08
5.33098e-09
3.55723e-09
0.0717051
0.0708876
0.0681146
0.0635507
0.0562242
0.044775
0.0277754
0.0028182
-0.0301889
-0.0722334
-0.114665
-0.1472
-0.174451
-0.194278
-0.203146
-0.200386
-0.185675
-0.162209
-0.134736
-0.107562
-0.0833397
-0.0632329
-0.0473162
-0.0351245
-0.0259827
-0.0192151
-0.0142376
-0.0105827
-0.0078946
-0.0059095
-0.0044346
-0.00332986
-0.0024947
-0.00185855
-0.00137303
-0.0010045
-0.000727765
-0.000522385
-0.000371685
-0.000262591
-0.000185092
-0.000131273
-9.4544e-05
-6.93918e-05
-5.15516e-05
-3.82274e-05
-2.79696e-05
-2.01245e-05
-1.42906e-05
-1.00658e-05
-7.04632e-06
-4.89384e-06
-3.3565e-06
-2.25477e-06
-1.46197e-06
-8.89424e-07
-4.75108e-07
-1.75378e-07
4.10194e-08
1.96615e-07
3.0783e-07
3.86577e-07
4.41601e-07
4.79241e-07
5.04184e-07
5.19815e-07
5.28665e-07
5.32547e-07
5.32834e-07
5.30497e-07
5.26289e-07
5.20725e-07
5.14222e-07
5.07052e-07
4.99445e-07
4.91546e-07
4.83481e-07
4.75325e-07
4.67148e-07
4.58988e-07
4.50881e-07
4.42848e-07
4.34904e-07
4.27062e-07
4.19325e-07
4.11701e-07
4.04185e-07
3.96787e-07
3.89494e-07
3.82317e-07
3.75237e-07
3.68269e-07
3.6139e-07
3.54617e-07
3.47925e-07
3.41332e-07
3.34811e-07
3.28384e-07
3.22019e-07
3.15743e-07
3.0952e-07
3.0338e-07
2.97285e-07
2.91269e-07
2.85291e-07
2.79387e-07
2.73515e-07
2.67712e-07
2.61935e-07
2.56225e-07
2.50535e-07
2.44909e-07
2.39298e-07
2.33748e-07
2.28209e-07
2.22729e-07
2.17257e-07
2.11841e-07
2.0643e-07
2.01073e-07
1.95718e-07
1.90416e-07
1.85113e-07
1.79861e-07
1.74607e-07
1.69403e-07
1.64193e-07
1.59033e-07
1.53866e-07
1.48746e-07
1.43618e-07
1.38537e-07
1.33445e-07
1.28399e-07
1.23342e-07
1.18328e-07
1.13302e-07
1.08319e-07
1.03322e-07
9.83669e-08
9.33964e-08
8.84666e-08
8.35202e-08
7.86135e-08
7.36888e-08
6.88027e-08
6.3897e-08
5.90297e-08
5.41398e-08
4.92901e-08
4.44106e-08
3.95814e-08
3.47004e-08
2.9907e-08
2.49898e-08
2.02902e-08
1.5239e-08
1.07239e-08
5.32528e-09
3.56847e-09
0.0760558
0.0754377
0.0733271
0.0696494
0.0633639
0.0528639
0.0362224
0.0100952
-0.0262691
-0.0755621
-0.124774
-0.159866
-0.189945
-0.212334
-0.222131
-0.218423
-0.20033
-0.17198
-0.139511
-0.10831
-0.0813774
-0.0597826
-0.0432865
-0.0311044
-0.022299
-0.0160128
-0.0115495
-0.00837981
-0.00611929
-0.00449536
-0.00331707
-0.00245129
-0.00180611
-0.00131974
-0.000951878
-0.000675772
-0.000471743
-0.000323624
-0.000218032
-0.000144511
-9.51317e-05
-6.35554e-05
-4.42834e-05
-3.2534e-05
-2.46273e-05
-1.84172e-05
-1.31986e-05
-9.00418e-06
-5.91296e-06
-3.78968e-06
-2.37514e-06
-1.4335e-06
-8.00973e-07
-3.71441e-07
-7.59339e-08
1.29898e-07
2.74286e-07
3.75476e-07
4.4588e-07
4.94136e-07
5.26445e-07
5.47198e-07
5.59605e-07
5.6593e-07
5.67866e-07
5.66595e-07
5.63028e-07
5.57787e-07
5.51373e-07
5.44114e-07
5.3629e-07
5.2807e-07
5.19617e-07
5.11014e-07
5.02355e-07
4.93683e-07
4.85051e-07
4.76478e-07
4.67995e-07
4.5961e-07
4.51339e-07
4.43184e-07
4.35152e-07
4.27245e-07
4.1946e-07
4.11801e-07
4.0426e-07
3.96842e-07
3.89535e-07
3.82348e-07
3.75261e-07
3.68287e-07
3.61404e-07
3.54629e-07
3.47934e-07
3.4134e-07
3.34818e-07
3.2839e-07
3.22024e-07
3.15747e-07
3.09524e-07
3.03384e-07
2.97289e-07
2.91273e-07
2.85295e-07
2.79391e-07
2.73518e-07
2.67716e-07
2.61938e-07
2.56228e-07
2.50538e-07
2.44912e-07
2.39301e-07
2.33751e-07
2.28212e-07
2.22732e-07
2.1726e-07
2.11844e-07
2.06432e-07
2.01076e-07
1.9572e-07
1.90419e-07
1.85115e-07
1.79864e-07
1.74609e-07
1.69405e-07
1.64196e-07
1.59036e-07
1.53868e-07
1.48749e-07
1.43621e-07
1.38539e-07
1.33448e-07
1.28402e-07
1.23344e-07
1.18331e-07
1.13304e-07
1.08322e-07
1.03324e-07
9.83692e-08
9.33983e-08
8.84688e-08
8.35221e-08
7.86155e-08
7.36905e-08
6.88046e-08
6.38986e-08
5.90314e-08
5.41411e-08
4.92917e-08
4.44118e-08
3.95828e-08
3.47012e-08
2.99083e-08
2.499e-08
2.0292e-08
1.52379e-08
1.07274e-08
5.32129e-09
3.57655e-09
0.080656
0.0802796
0.0789698
0.0764058
0.071496
0.0624103
0.046584
0.0195149
-0.0208037
-0.0799086
-0.137854
-0.175154
-0.208291
-0.233886
-0.245139
-0.240533
-0.218172
-0.183548
-0.144747
-0.108619
-0.0785393
-0.0553557
-0.0383606
-0.0263421
-0.0180369
-0.0123765
-0.00854352
-0.00594726
-0.00417916
-0.00296307
-0.00211464
-0.00151143
-0.00107303
-0.00074851
-0.000507029
-0.00032969
-0.000202984
-0.000115477
-5.74556e-05
-2.13908e-05
-1.65584e-06
6.39908e-06
7.17758e-06
4.79208e-06
2.37966e-06
1.3874e-06
1.62604e-06
2.23667e-06
2.60262e-06
2.6021e-06
2.37903e-06
2.08312e-06
1.7925e-06
1.53761e-06
1.32767e-06
1.1614e-06
1.03229e-06
9.32524e-07
8.55241e-07
7.9495e-07
7.47481e-07
7.09604e-07
6.78927e-07
6.53595e-07
6.32271e-07
6.13909e-07
5.97786e-07
5.83321e-07
5.7013e-07
5.57892e-07
5.46411e-07
5.35505e-07
5.25077e-07
5.15025e-07
5.05302e-07
4.95847e-07
4.86641e-07
4.77647e-07
4.68854e-07
4.60242e-07
4.51804e-07
4.43527e-07
4.35405e-07
4.27432e-07
4.19598e-07
4.11904e-07
4.04336e-07
3.969e-07
3.89579e-07
3.82382e-07
3.75287e-07
3.68308e-07
3.61421e-07
3.54642e-07
3.47945e-07
3.4135e-07
3.34826e-07
3.28397e-07
3.22031e-07
3.15754e-07
3.09529e-07
3.03389e-07
2.97294e-07
2.91278e-07
2.85299e-07
2.79395e-07
2.73522e-07
2.6772e-07
2.61943e-07
2.56233e-07
2.50542e-07
2.44916e-07
2.39304e-07
2.33755e-07
2.28216e-07
2.22736e-07
2.17263e-07
2.11848e-07
2.06436e-07
2.01079e-07
1.95724e-07
1.90422e-07
1.85119e-07
1.79868e-07
1.74613e-07
1.69409e-07
1.64199e-07
1.59039e-07
1.53871e-07
1.48752e-07
1.43624e-07
1.38542e-07
1.3345e-07
1.28405e-07
1.23347e-07
1.18334e-07
1.13307e-07
1.08324e-07
1.03327e-07
9.83717e-08
9.34007e-08
8.84712e-08
8.35242e-08
7.86178e-08
7.36925e-08
6.88067e-08
6.39004e-08
5.90334e-08
5.41428e-08
4.92935e-08
4.44132e-08
3.95843e-08
3.47023e-08
2.99098e-08
2.49905e-08
2.02937e-08
1.52373e-08
1.07304e-08
5.31861e-09
3.58243e-09
0.0854101
0.0853187
0.0849559
0.0837566
0.0806243
0.0735555
0.0592166
0.0317275
-0.013251
-0.0858753
-0.154719
-0.193324
-0.230197
-0.260006
-0.273137
-0.267568
-0.239738
-0.197038
-0.150253
-0.108177
-0.0745199
-0.0497182
-0.0323858
-0.0207546
-0.0131629
-0.00830392
-0.00523406
-0.00330658
-0.00209705
-0.0013337
-0.000845237
-0.000524728
-0.000306716
-0.000153368
-4.48002e-05
2.91503e-05
7.52631e-05
9.98375e-05
0.000108578
0.000105806
9.46553e-05
7.80243e-05
5.92918e-05
4.20499e-05
2.89963e-05
2.08269e-05
1.62725e-05
1.34613e-05
1.11646e-05
9.03492e-06
7.15211e-06
5.60361e-06
4.38307e-06
3.44116e-06
2.72509e-06
2.18705e-06
1.78528e-06
1.48546e-06
1.26133e-06
1.0932e-06
9.66529e-07
8.70485e-07
7.97088e-07
7.4038e-07
6.96013e-07
6.60727e-07
6.32173e-07
6.08576e-07
5.8868e-07
5.71516e-07
5.56416e-07
5.42853e-07
5.30474e-07
5.18988e-07
5.08213e-07
4.97986e-07
4.88212e-07
4.78801e-07
4.69703e-07
4.60866e-07
4.52263e-07
4.43865e-07
4.35654e-07
4.27616e-07
4.19735e-07
4.12005e-07
4.04412e-07
3.96956e-07
3.89622e-07
3.82415e-07
3.75313e-07
3.68328e-07
3.61437e-07
3.54655e-07
3.47956e-07
3.41359e-07
3.34834e-07
3.28405e-07
3.22037e-07
3.1576e-07
3.09535e-07
3.03395e-07
2.97299e-07
2.91283e-07
2.85304e-07
2.794e-07
2.73527e-07
2.67725e-07
2.61947e-07
2.56237e-07
2.50546e-07
2.4492e-07
2.39309e-07
2.33759e-07
2.2822e-07
2.2274e-07
2.17267e-07
2.11852e-07
2.0644e-07
2.01084e-07
1.95728e-07
1.90426e-07
1.85123e-07
1.79872e-07
1.74616e-07
1.69413e-07
1.64203e-07
1.59043e-07
1.53875e-07
1.48756e-07
1.43627e-07
1.38546e-07
1.33454e-07
1.28408e-07
1.2335e-07
1.18337e-07
1.1331e-07
1.08327e-07
1.0333e-07
9.83748e-08
9.34035e-08
8.84741e-08
8.35269e-08
7.86205e-08
7.36949e-08
6.88092e-08
6.39027e-08
5.90356e-08
5.41447e-08
4.92955e-08
4.44149e-08
3.95861e-08
3.47036e-08
2.99113e-08
2.49912e-08
2.02954e-08
1.52371e-08
1.07328e-08
5.31685e-09
3.5867e-09
0.0902051
0.0904425
0.09117
0.0916093
0.0907173
0.086468
0.074591
0.0477897
-0.00265057
-0.0944118
-0.177724
-0.214769
-0.254989
-0.290727
-0.307318
-0.301203
-0.266351
-0.21305
-0.155981
-0.106641
-0.0689489
-0.0425928
-0.0251916
-0.0142541
-0.00764234
-0.00379001
-0.00163083
-0.000473517
0.000109776
0.000376111
0.000475945
0.000495221
0.000480793
0.000455032
0.000425464
0.000392678
0.000356174
0.000316679
0.000275494
0.000233398
0.000190811
0.00014883
0.000109943
7.74636e-05
5.38209e-05
3.89013e-05
3.00871e-05
2.42551e-05
1.94937e-05
1.53024e-05
1.17862e-05
9.00957e-06
6.8842e-06
5.27657e-06
4.07099e-06
3.17409e-06
2.5096e-06
2.01726e-06
1.65185e-06
1.38e-06
1.17717e-06
1.02519e-06
9.10722e-07
8.23848e-07
7.57323e-07
7.05762e-07
6.65253e-07
6.32875e-07
6.06528e-07
5.84625e-07
5.66046e-07
5.49926e-07
5.35669e-07
5.22804e-07
5.11016e-07
5.00045e-07
4.89725e-07
4.79913e-07
4.70521e-07
4.61468e-07
4.52706e-07
4.44192e-07
4.35896e-07
4.27794e-07
4.19867e-07
4.12105e-07
4.04487e-07
3.97013e-07
3.89666e-07
3.82448e-07
3.75339e-07
3.68349e-07
3.61454e-07
3.54669e-07
3.47968e-07
3.4137e-07
3.34843e-07
3.28413e-07
3.22045e-07
3.15767e-07
3.09542e-07
3.03402e-07
2.97306e-07
2.9129e-07
2.8531e-07
2.79406e-07
2.73533e-07
2.67731e-07
2.61953e-07
2.56243e-07
2.50552e-07
2.44926e-07
2.39314e-07
2.33764e-07
2.28225e-07
2.22745e-07
2.17272e-07
2.11857e-07
2.06445e-07
2.01088e-07
1.95732e-07
1.90431e-07
1.85127e-07
1.79876e-07
1.74621e-07
1.69417e-07
1.64207e-07
1.59047e-07
1.53879e-07
1.4876e-07
1.43631e-07
1.3855e-07
1.33457e-07
1.28412e-07
1.23353e-07
1.1834e-07
1.13313e-07
1.08331e-07
1.03333e-07
9.83779e-08
9.34064e-08
8.8477e-08
8.35296e-08
7.86232e-08
7.36975e-08
6.88117e-08
6.39049e-08
5.90379e-08
5.41468e-08
4.92975e-08
4.44166e-08
3.95879e-08
3.47049e-08
2.99129e-08
2.49921e-08
2.02969e-08
1.52372e-08
1.07348e-08
5.31574e-09
3.58985e-09
0.0949104
0.0955124
0.0974611
0.0997944
0.101661
0.101146
0.0931028
0.0687521
0.0116928
-0.106008
-0.206913
-0.240924
-0.285661
-0.328261
-0.34966
-0.343257
-0.299075
-0.231835
-0.16162
-0.103513
-0.0613742
-0.0336714
-0.0166097
-0.00677694
-0.00147514
0.00113279
0.00222168
0.00250702
0.00240165
0.00213394
0.00182377
0.00152966
0.00127587
0.00106696
0.000896936
0.000756226
0.000636713
0.000533223
0.0004423
0.000360877
0.000286483
0.000218439
0.000158598
0.000110385
7.62424e-05
5.5172e-05
4.28292e-05
3.45005e-05
2.75096e-05
2.13247e-05
1.62058e-05
1.22403e-05
9.25142e-06
7.01151e-06
5.34145e-06
4.10464e-06
3.19188e-06
2.51786e-06
2.01924e-06
1.64966e-06
1.37512e-06
1.17053e-06
1.01743e-06
9.02205e-07
8.14865e-07
7.48019e-07
6.96287e-07
6.55666e-07
6.23265e-07
5.96917e-07
5.75073e-07
5.56555e-07
5.40538e-07
5.2638e-07
5.13642e-07
5.01974e-07
4.91143e-07
4.80955e-07
4.71287e-07
4.62032e-07
4.53121e-07
4.44498e-07
4.36122e-07
4.27962e-07
4.19992e-07
4.12198e-07
4.04557e-07
3.97067e-07
3.89707e-07
3.82481e-07
3.75364e-07
3.68369e-07
3.6147e-07
3.54683e-07
3.4798e-07
3.4138e-07
3.34852e-07
3.28422e-07
3.22053e-07
3.15775e-07
3.09549e-07
3.03409e-07
2.97312e-07
2.91296e-07
2.85317e-07
2.79413e-07
2.73539e-07
2.67737e-07
2.61959e-07
2.56249e-07
2.50557e-07
2.44931e-07
2.3932e-07
2.3377e-07
2.28231e-07
2.22751e-07
2.17278e-07
2.11863e-07
2.0645e-07
2.01094e-07
1.95738e-07
1.90436e-07
1.85132e-07
1.79881e-07
1.74626e-07
1.69422e-07
1.64212e-07
1.59052e-07
1.53883e-07
1.48764e-07
1.43635e-07
1.38554e-07
1.33462e-07
1.28416e-07
1.23358e-07
1.18345e-07
1.13317e-07
1.08335e-07
1.03337e-07
9.83818e-08
9.341e-08
8.84806e-08
8.3533e-08
7.86265e-08
7.37005e-08
6.88148e-08
6.39077e-08
5.90406e-08
5.41493e-08
4.92999e-08
4.44188e-08
3.959e-08
3.47067e-08
2.99146e-08
2.49932e-08
2.02985e-08
1.52376e-08
1.07366e-08
5.31513e-09
3.5922e-09
0.09938
0.100375
0.103637
0.108112
0.113247
0.1177
0.11536
0.0975108
0.0319209
-0.13007
-0.249806
-0.267266
-0.318821
-0.375761
-0.40401
-0.397593
-0.340932
-0.254628
-0.166957
-0.0980622
-0.0511122
-0.0225072
-0.00639947
0.00178272
0.00537129
0.00646193
0.0063064
0.00561344
0.00475683
0.00391957
0.0031799
0.002562
0.00206341
0.00166875
0.00135743
0.00110927
0.000908117
0.000742404
0.000603418
0.000483851
0.000378137
0.00028388
0.000202679
0.000138637
9.45847e-05
6.85289e-05
5.38642e-05
4.38445e-05
3.49711e-05
2.69018e-05
2.02482e-05
1.51754e-05
1.13999e-05
8.58665e-06
6.49414e-06
4.94835e-06
3.81045e-06
2.97175e-06
2.35235e-06
1.89415e-06
1.5546e-06
1.3023e-06
1.11419e-06
9.73261e-07
8.67049e-07
7.86346e-07
7.24436e-07
6.7634e-07
6.38449e-07
6.08069e-07
5.83263e-07
5.62571e-07
5.44956e-07
5.29625e-07
5.16026e-07
5.03726e-07
4.9243e-07
4.81902e-07
4.71983e-07
4.62544e-07
4.53499e-07
4.44777e-07
4.36328e-07
4.28116e-07
4.20106e-07
4.12284e-07
4.04622e-07
3.97119e-07
3.89747e-07
3.82512e-07
3.75389e-07
3.68389e-07
3.61487e-07
3.54698e-07
3.47992e-07
3.41391e-07
3.34862e-07
3.28431e-07
3.22062e-07
3.15783e-07
3.09557e-07
3.03417e-07
2.9732e-07
2.91304e-07
2.85324e-07
2.7942e-07
2.73546e-07
2.67743e-07
2.61965e-07
2.56255e-07
2.50564e-07
2.44938e-07
2.39326e-07
2.33776e-07
2.28236e-07
2.22757e-07
2.17284e-07
2.11868e-07
2.06456e-07
2.011e-07
1.95743e-07
1.90441e-07
1.85137e-07
1.79886e-07
1.74631e-07
1.69427e-07
1.64216e-07
1.59056e-07
1.53888e-07
1.48769e-07
1.4364e-07
1.38559e-07
1.33466e-07
1.28421e-07
1.23362e-07
1.18349e-07
1.13321e-07
1.08339e-07
1.0334e-07
9.83855e-08
9.34136e-08
8.84841e-08
8.35363e-08
7.86297e-08
7.37035e-08
6.88177e-08
6.39105e-08
5.90433e-08
5.41517e-08
4.93022e-08
4.44208e-08
3.9592e-08
3.47083e-08
2.99163e-08
2.49944e-08
2.03e-08
1.52382e-08
1.07381e-08
5.31485e-09
3.59396e-09
0.103456
0.104849
0.10947
0.116195
0.125115
0.135411
0.141562
0.133308
0.060037
-0.140579
-0.317816
-0.313786
-0.358842
-0.424878
-0.462727
-0.458052
-0.388382
-0.279892
-0.171176
-0.0896119
-0.0375846
-0.00872319
0.00562026
0.0114625
0.0128558
0.0121242
0.0105459
0.00877725
0.00712041
0.00569173
0.00451477
0.00357177
0.00282953
0.00225103
0.00180074
0.00144791
0.00116826
0.000943426
0.000758915
0.000602791
0.000466239
0.000345335
0.000241993
0.000161784
0.000108416
7.87055e-05
6.31332e-05
5.22854e-05
4.18282e-05
3.19389e-05
2.38205e-05
1.77486e-05
1.3288e-05
9.97338e-06
7.50791e-06
5.68962e-06
4.3537e-06
3.37028e-06
2.64467e-06
2.10856e-06
1.71191e-06
1.41775e-06
1.19894e-06
1.03548e-06
9.1273e-07
8.19887e-07
7.49065e-07
6.94425e-07
6.5173e-07
6.17821e-07
5.90424e-07
5.67829e-07
5.48817e-07
5.32461e-07
5.18109e-07
5.05256e-07
4.93555e-07
4.82728e-07
4.72592e-07
4.62993e-07
4.5383e-07
4.45021e-07
4.3651e-07
4.28251e-07
4.20207e-07
4.1236e-07
4.04679e-07
3.97166e-07
3.89784e-07
3.8254e-07
3.75412e-07
3.68408e-07
3.61503e-07
3.54711e-07
3.48004e-07
3.41402e-07
3.34872e-07
3.28441e-07
3.22071e-07
3.15792e-07
3.09566e-07
3.03425e-07
2.97328e-07
2.91312e-07
2.85332e-07
2.79427e-07
2.73553e-07
2.67751e-07
2.61972e-07
2.56262e-07