/*--------------------------------*- C++ -*----------------------------------*\
  =========                 |
  \\      /  F ield         | OpenFOAM: The Open Source CFD Toolbox
   \\    /   O peration     | Website:  https://openfoam.org
    \\  /    A nd           | Version:  11
     \\/     M anipulation  |
\*---------------------------------------------------------------------------*/
FoamFile
{
    format      ascii;
    class       surfaceScalarField;
    location    "1.796711";
    object      phi_0;
}
// * * * * * * * * * * * * * * * * * * * * * * * * * * * * * * * * * * * * * //

dimensions      [0 3 -1 0 0 0 0];

internalField   nonuniform List<scalar> 
14638
(
0.00250279
-2.7909e-06
0.0025112
-8.40487e-06
0.00252552
-1.43275e-05
0.00254618
-2.06529e-05
0.00257355
-2.73767e-05
0.0026078
-3.42466e-05
0.0026486
-4.07979e-05
0.00269474
-4.61464e-05
0.00274407
-4.93236e-05
0.00279333
-4.92614e-05
0.00283861
-4.52842e-05
0.00287652
-3.79086e-05
0.00290424
-2.77195e-05
0.00291967
-1.54263e-05
0.00292177
-2.09946e-06
0.00291073
1.10393e-05
0.00288804
2.26908e-05
0.00285625
3.17863e-05
0.0028185
3.77527e-05
0.00277792
4.05777e-05
0.00273724
4.06818e-05
0.00269852
3.87231e-05
0.00266311
3.54099e-05
0.00263173
3.13768e-05
0.0026046
2.71242e-05
0.0025816
2.30028e-05
0.00256238
1.92197e-05
0.00254653
1.58484e-05
0.00253368
1.28485e-05
0.00252357
1.01102e-05
0.00251605
7.52881e-06
0.00251096
5.08497e-06
0.00250808
2.88564e-06
0.00250695
1.12962e-06
0.00250694
7.15027e-09
0.00250735
-4.11136e-07
0.00250758
-2.29268e-07
0.00250727
3.07084e-07
0.00250636
9.09183e-07
0.00250501
1.3508e-06
0.00250348
1.52755e-06
0.00250203
1.45246e-06
0.00250082
1.20811e-06
0.00249993
8.91331e-07
0.00249935
5.77233e-07
0.00249905
3.08878e-07
0.00249894
1.03447e-07
0.00249898
-3.74026e-08
0.0024991
-1.20162e-07
0.00249926
-1.55818e-07
0.00249941
-1.57784e-07
0.00249955
-1.39748e-07
0.00249967
-1.13402e-07
0.00249975
-8.68687e-08
0.00249982
-6.44072e-08
0.00249987
-4.72178e-08
0.0024999
-3.47382e-08
0.00249993
-2.5792e-08
0.00249995
-1.928e-08
0.00249996
-1.44261e-08
0.00249997
-1.07534e-08
0.00249998
-7.97147e-09
0.00249998
-5.88218e-09
0.00249999
-4.32952e-09
0.00249999
-3.18424e-09
0.00249999
-2.34183e-09
0.0025
-1.72189e-09
0.0025
-1.265e-09
0.0025
-9.27982e-10
0.0025
-6.79443e-10
0.0025
-4.96317e-10
0.0025
-3.61522e-10
0.0025
-2.62375e-10
0.0025
-1.89485e-10
0.0025
-1.35924e-10
0.0025
-9.65896e-11
0.0025
-6.7727e-11
0.0025
-4.65715e-11
0.0025
-3.10882e-11
0.0025
-1.9777e-11
0.0025
-1.1535e-11
0.0025
-5.5486e-12
0.0025
-1.22135e-12
0.0025
1.88828e-12
0.0025
4.10218e-12
0.0025
5.6602e-12
0.0025
6.73561e-12
0.0025
7.45914e-12
0.0025
7.92354e-12
0.0025
8.2005e-12
0.0025
8.33928e-12
0.0025
8.37963e-12
0.0025
8.34728e-12
0.0025
8.26465e-12
0.0025
8.14476e-12
0.0025
8.00058e-12
0.0025
7.83831e-12
0.0025
7.66574e-12
0.0025
7.48544e-12
0.0025
7.30235e-12
0.0025
7.11715e-12
0.0025
6.93312e-12
0.0025
6.75e-12
0.0025
6.5701e-12
0.0025
6.3927e-12
0.0025
6.21949e-12
0.0025
6.0496e-12
0.0025
5.8843e-12
0.0025
5.72269e-12
0.0025
5.56573e-12
0.0025
5.41258e-12
0.0025
5.26394e-12
0.0025
5.1191e-12
0.0025
4.97853e-12
0.0025
4.84167e-12
0.0025
4.70877e-12
0.0025
4.57944e-12
0.0025
4.45378e-12
0.0025
4.33153e-12
0.0025
4.21262e-12
0.0025
4.09697e-12
0.0025
3.98437e-12
0.0025
3.87485e-12
0.0025
3.76809e-12
0.0025
3.66426e-12
0.0025
3.56292e-12
0.0025
3.46437e-12
0.0025
3.36807e-12
0.0025
3.27442e-12
0.0025
3.18277e-12
0.0025
3.09367e-12
0.0025
3.00636e-12
0.0025
2.9215e-12
0.0025
2.83823e-12
0.0025
2.75731e-12
0.0025
2.67782e-12
0.0025
2.60058e-12
0.0025
2.52462e-12
0.0025
2.45082e-12
0.0025
2.37817e-12
0.0025
2.30763e-12
0.0025
2.23809e-12
0.0025
2.1706e-12
0.0025
2.10401e-12
0.0025
2.03939e-12
0.0025
1.97558e-12
0.0025
1.91369e-12
0.0025
1.85249e-12
0.0025
1.7932e-12
0.0025
1.73447e-12
0.0025
1.67778e-12
0.0025
1.62122e-12
0.0025
1.56762e-12
0.0025
1.51205e-12
0.0025
1.46471e-12
0.0025
1.40323e-12
0.0025
1.38217e-12
0.0025
1.27194e-12
0.0025
1.39219e-12
1.05891e-12
0.00250277
-5.55792e-06
0.00251111
-1.67445e-05
0.00252534
-2.85655e-05
0.00254592
-4.12302e-05
0.00257329
-5.47437e-05
0.00260766
-6.86153e-05
0.00264878
-8.19222e-05
0.00269549
-9.28594e-05
0.00274562
-9.94492e-05
0.0027958
-9.94393e-05
0.00284193
-9.14171e-05
0.00288055
-7.65238e-05
0.00290878
-5.59486e-05
0.00292445
-3.11014e-05
0.0029265
-4.14493e-06
0.00291509
2.2442e-05
0.00289179
4.59976e-05
0.00285924
6.43304e-05
0.00282072
7.62787e-05
0.00277945
8.18413e-05
0.00273823
8.19021e-05
0.00269914
7.78201e-05
0.0026635
7.1043e-05
0.00263202
6.28567e-05
0.00260488
5.4266e-05
0.00258191
4.597e-05
0.00256276
3.83769e-05
0.00254698
3.1628e-05
0.00253419
2.56386e-05
0.00252411
2.01856e-05
0.00251659
1.50546e-05
0.00251147
1.02002e-05
0.00250853
5.82848e-06
0.00250733
2.33105e-06
0.00250725
8.67405e-08
0.0025076
-7.60002e-07
0.00250778
-4.11095e-07
0.00250744
6.4826e-07
0.0025065
1.84422e-06
0.00250513
2.72466e-06
0.00250358
3.07867e-06
0.0025021
2.92937e-06
0.00250087
2.43964e-06
0.00249996
1.80232e-06
0.00249937
1.16824e-06
0.00249905
6.25001e-07
0.00249894
2.08546e-07
0.00249898
-7.67564e-08
0.00249911
-2.43627e-07
0.00249927
-3.14493e-07
0.00249943
-3.17009e-07
0.00249956
-2.7937e-07
0.00249968
-2.25505e-07
0.00249976
-1.71864e-07
0.00249982
-1.26886e-07
0.00249987
-9.27699e-08
0.0024999
-6.81866e-08
0.00249993
-5.06467e-08
0.00249995
-3.78946e-08
0.00249996
-2.83757e-08
0.00249997
-2.11568e-08
0.00249998
-1.56809e-08
0.00249998
-1.15671e-08
0.00249999
-8.51168e-09
0.00249999
-6.25982e-09
0.00249999
-4.60451e-09
0.0025
-3.38664e-09
0.0025
-2.489e-09
0.0025
-1.82676e-09
0.0025
-1.33832e-09
0.0025
-9.78418e-10
0.0025
-7.135e-10
0.0025
-5.1864e-10
0.0025
-3.75378e-10
0.0025
-2.70091e-10
0.0025
-1.92757e-10
0.0025
-1.35997e-10
0.0025
-9.43803e-11
0.0025
-6.39066e-11
0.0025
-4.1632e-11
0.0025
-2.53854e-11
0.0025
-1.35727e-11
0.0025
-5.01676e-12
0.0025
1.14432e-12
0.0025
5.54878e-12
0.0025
8.66179e-12
0.0025
1.083e-11
0.0025
1.23037e-11
0.0025
1.32716e-11
0.0025
1.38678e-11
0.0025
1.41958e-11
0.0025
1.43266e-11
0.0025
1.43177e-11
0.0025
1.42059e-11
0.0025
1.40239e-11
0.0025
1.379e-11
0.0025
1.35232e-11
0.0025
1.32319e-11
0.0025
1.2928e-11
0.0025
1.26142e-11
0.0025
1.22987e-11
0.0025
1.19812e-11
0.0025
1.16677e-11
0.0025
1.13563e-11
0.0025
1.10519e-11
0.0025
1.07515e-11
0.0025
1.04597e-11
0.0025
1.01728e-11
0.0025
9.89496e-12
0.0025
9.62242e-12
0.0025
9.35909e-12
0.0025
9.10094e-12
0.0025
8.85186e-12
0.0025
8.60771e-12
0.0025
8.37232e-12
0.0025
8.14148e-12
0.0025
7.91904e-12
0.0025
7.70075e-12
0.0025
7.49047e-12
0.0025
7.28392e-12
0.0025
7.08498e-12
0.0025
6.88936e-12
0.0025
6.70095e-12
0.0025
6.51549e-12
0.0025
6.33687e-12
0.0025
6.16081e-12
0.0025
5.99125e-12
0.0025
5.82393e-12
0.0025
5.66278e-12
0.0025
5.50359e-12
0.0025
5.35025e-12
0.0025
5.19858e-12
0.0025
5.05251e-12
0.0025
4.90787e-12
0.0025
4.76858e-12
0.0025
4.6305e-12
0.0025
4.49753e-12
0.0025
4.36558e-12
0.0025
4.23854e-12
0.0025
4.11236e-12
0.0025
3.99089e-12
0.0025
3.87013e-12
0.0025
3.75391e-12
0.0025
3.63825e-12
0.0025
3.52699e-12
0.0025
3.41616e-12
0.0025
3.30961e-12
0.0025
3.20333e-12
0.0025
3.10129e-12
0.0025
2.99928e-12
0.0025
2.90178e-12
0.0025
2.80347e-12
0.0025
2.71148e-12
0.0025
2.61464e-12
0.0025
2.53394e-12
0.0025
2.42639e-12
0.0025
2.39071e-12
0.0025
2.20309e-12
0.0025
2.39397e-12
1.86034e-12
0.00250272
-8.27653e-06
0.00251092
-2.49459e-05
0.00252497
-4.26163e-05
0.00254538
-6.16422e-05
0.00257271
-8.20738e-05
0.00260731
-0.000103211
0.00264907
-0.000123688
0.00269692
-0.000140707
0.00274867
-0.000151201
0.00280071
-0.000151478
0.00284856
-0.000139262
0.00288859
-0.000116558
0.00291784
-8.51958e-05
0.002934
-4.72632e-05
0.00293591
-6.05815e-06
0.00292374
3.46109e-05
0.00289915
7.05869e-05
0.00286504
9.84435e-05
0.00282492
0.000116398
0.00278225
0.000124511
0.00273993
0.00012422
0.00270008
0.000117674
0.002664
0.000107122
0.00263232
9.4536e-05
0.00260515
8.14334e-05
0.00258227
6.88547e-05
0.00256325
5.73963e-05
0.00254762
4.72549e-05
0.00253497
3.82912e-05
0.002525
3.01617e-05
0.00251751
2.25352e-05
0.00251238
1.5331e-05
0.00250937
8.84358e-06
0.00250805
3.64693e-06
0.00250784
3.02292e-07
0.00250805
-9.72237e-07
0.00250811
-4.71141e-07
0.00250767
1.08893e-06
0.00250666
2.85652e-06
0.00250522
4.15807e-06
0.00250362
4.67684e-06
0.00250211
4.44402e-06
0.00250085
3.70001e-06
0.00249992
2.73187e-06
0.00249932
1.76633e-06
0.00249901
9.37284e-07
0.00249892
3.01722e-07
0.00249897
-1.31748e-07
0.00249911
-3.8201e-07
0.00249928
-4.84206e-07
0.00249945
-4.82136e-07
0.00249959
-4.20221e-07
0.0024997
-3.35635e-07
0.00249978
-2.53353e-07
0.00249984
-1.85639e-07
0.00249988
-1.35117e-07
0.00249991
-9.91905e-08
0.00249993
-7.37532e-08
0.00249995
-5.52798e-08
0.00249996
-4.14438e-08
0.00249997
-3.09078e-08
0.00249998
-2.28967e-08
0.00249999
-1.68775e-08
0.00249999
-1.24128e-08
0.00249999
-9.12762e-09
0.00249999
-6.7154e-09
0.0025
-4.94124e-09
0.0025
-3.63334e-09
0.0025
-2.66811e-09
0.0025
-1.95606e-09
0.0025
-1.43138e-09
0.0025
-1.0452e-09
0.0025
-7.61159e-10
0.0025
-5.52316e-10
0.0025
-3.98813e-10
0.0025
-2.86038e-10
0.0025
-2.03242e-10
0.0025
-1.42513e-10
0.0025
-9.80216e-11
0.0025
-6.5477e-11
0.0025
-4.1716e-11
0.0025
-2.44147e-11
0.0025
-1.18586e-11
0.0025
-2.79111e-12
0.0025
3.71699e-12
0.0025
8.34435e-12
0.0025
1.15949e-11
0.0025
1.38343e-11
0.0025
1.53365e-11
0.0025
1.62975e-11
0.0025
1.68669e-11
0.0025
1.71492e-11
0.0025
1.72267e-11
0.0025
1.71541e-11
0.0025
1.69776e-11
0.0025
1.67249e-11
0.0025
1.64225e-11
0.0025
1.60837e-11
0.0025
1.57243e-11
0.0025
1.53499e-11
0.0025
1.49705e-11
0.0025
1.45872e-11
0.0025
1.42073e-11
0.0025
1.38293e-11
0.0025
1.34591e-11
0.0025
1.30937e-11
0.0025
1.27381e-11
0.0025
1.23888e-11
0.0025
1.20501e-11
0.0025
1.17181e-11
0.0025
1.1397e-11
0.0025
1.10825e-11
0.0025
1.07787e-11
0.0025
1.04813e-11
0.0025
1.01943e-11
0.0025
9.91309e-12
0.0025
9.6419e-12
0.0025
9.37605e-12
0.0025
9.11971e-12
0.0025
8.8682e-12
0.0025
8.62572e-12
0.0025
8.38756e-12
0.0025
8.15794e-12
0.0025
7.93217e-12
0.0025
7.71449e-12
0.0025
7.5002e-12
0.0025
7.29358e-12
0.0025
7.08995e-12
0.0025
6.89359e-12
0.0025
6.69985e-12
0.0025
6.51302e-12
0.0025
6.32847e-12
0.0025
6.15051e-12
0.0025
5.97451e-12
0.0025
5.80481e-12
0.0025
5.63681e-12
0.0025
5.47482e-12
0.0025
5.31429e-12
0.0025
5.15954e-12
0.0025
5.00603e-12
0.0025
4.85808e-12
0.0025
4.71117e-12
0.0025
4.56962e-12
0.0025
4.42893e-12
0.0025
4.29343e-12
0.0025
4.15863e-12
0.0025
4.02888e-12
0.0025
3.89964e-12
0.0025
3.77542e-12
0.0025
3.65137e-12
0.0025
3.53278e-12
0.0025
3.41317e-12
0.0025
3.30149e-12
0.0025
3.18348e-12
0.0025
3.08599e-12
0.0025
2.95494e-12
0.0025
2.9101e-12
0.0025
2.69008e-12
0.0025
2.88532e-12
2.29849e-12
0.00250264
-1.09183e-05
0.00251062
-3.2927e-05
0.00252437
-5.63632e-05
0.0025445
-8.17732e-05
0.00257173
-0.000109307
0.00260663
-0.000138106
0.00264933
-0.000166392
0.0026989
-0.000190271
0.00275316
-0.000205461
0.00280807
-0.000206395
0.00285854
-0.000189731
0.00290075
-0.00015876
0.00293156
-0.000116007
0.00294848
-6.41821e-05
0.00295019
-7.77476e-06
0.00293684
4.79664e-05
0.00291025
9.7171e-05
0.0028737
0.000134994
0.00283112
0.000158981
0.00278629
0.00016934
0.0027423
0.000168209
0.00270131
0.000158665
0.00266457
0.000143861
0.00263261
0.0001265
0.00260542
0.000108625
0.00258267
9.16032e-05
0.00256387
7.61996e-05
0.00254848
6.26448e-05
0.00253604
5.07297e-05
0.00252622
3.99788e-05
0.00251882
2.99351e-05
0.00251368
2.04713e-05
0.00251057
1.19554e-05
0.00250909
5.12897e-06
0.00250866
7.24773e-07
0.00250866
-9.68497e-07
0.00250852
-3.32615e-07
0.00250791
1.69502e-06
0.00250677
3.99692e-06
0.00250525
5.68636e-06
0.00250358
6.3439e-06
0.00250202
6.00738e-06
0.00250072
4.99125e-06
0.00249978
3.67429e-06
0.00249919
2.35908e-06
0.0024989
1.22827e-06
0.00249884
3.63033e-07
0.00249893
-2.21798e-07
0.0024991
-5.51601e-07
0.00249929
-6.76611e-07
0.00249947
-6.60016e-07
0.00249961
-5.65232e-07
0.00249972
-4.44166e-07
0.0024998
-3.30465e-07
0.00249985
-2.39476e-07
0.00249989
-1.73234e-07
0.00249992
-1.2703e-07
0.00249994
-9.46543e-08
0.00249995
-7.11452e-08
0.00249997
-5.34287e-08
0.00249998
-3.985e-08
0.00249998
-2.94919e-08
0.00249999
-2.17117e-08
0.00249999
-1.59544e-08
0.00249999
-1.17291e-08
0.00249999
-8.63152e-09
0.0025
-6.35412e-09
0.0025
-4.67456e-09
0.0025
-3.43442e-09
0.0025
-2.51933e-09
0.0025
-1.84507e-09
0.0025
-1.34887e-09
0.0025
-9.83937e-10
0.0025
-7.15623e-10
0.0025
-5.18382e-10
0.0025
-3.73447e-10
0.0025
-2.67012e-10
0.0025
-1.88919e-10
0.0025
-1.3168e-10
0.0025
-8.97842e-11
0.0025
-5.91685e-11
0.0025
-3.68471e-11
0.0025
-2.06193e-11
0.0025
-8.87003e-12
0.0025
-4.06971e-13
0.0025
5.64195e-12
0.0025
9.92319e-12
0.0025
1.29069e-11
0.0025
1.49438e-11
0.0025
1.62863e-11
0.0025
1.71254e-11
0.0025
1.75958e-11
0.0025
1.78021e-11
0.0025
1.78154e-11
0.0025
1.76935e-11
0.0025
1.74732e-11
0.0025
1.71872e-11
0.0025
1.68533e-11
0.0025
1.64909e-11
0.0025
1.61077e-11
0.0025
1.57159e-11
0.0025
1.53176e-11
0.0025
1.49211e-11
0.0025
1.45256e-11
0.0025
1.41373e-11
0.0025
1.37538e-11
0.0025
1.33801e-11
0.0025
1.30128e-11
0.0025
1.26565e-11
0.0025
1.23073e-11
0.0025
1.19695e-11
0.0025
1.16387e-11
0.0025
1.13191e-11
0.0025
1.10063e-11
0.0025
1.07044e-11
0.0025
1.04088e-11
0.0025
1.01236e-11
0.0025
9.84419e-12
0.0025
9.57471e-12
0.0025
9.3104e-12
0.0025
9.05553e-12
0.0025
8.80529e-12
0.0025
8.56402e-12
0.0025
8.32684e-12
0.0025
8.09814e-12
0.0025
7.87307e-12
0.0025
7.65603e-12
0.0025
7.44217e-12
0.0025
7.23594e-12
0.0025
7.03249e-12
0.0025
6.8363e-12
0.0025
6.64252e-12
0.0025
6.45565e-12
0.0025
6.27088e-12
0.0025
6.0927e-12
0.0025
5.91633e-12
0.0025
5.74628e-12
0.0025
5.57778e-12
0.0025
5.41534e-12
0.0025
5.2542e-12
0.0025
5.09891e-12
0.0025
4.94473e-12
0.0025
4.79618e-12
0.0025
4.64854e-12
0.0025
4.50636e-12
0.0025
4.36491e-12
0.0025
4.22879e-12
0.0025
4.0932e-12
0.0025
3.96294e-12
0.0025
3.83281e-12
0.0025
3.70856e-12
0.0025
3.58306e-12
0.0025
3.4663e-12
0.0025
3.34234e-12
0.0025
3.24071e-12
0.0025
3.10358e-12
0.0025
3.05346e-12
0.0025
2.83445e-12
0.0025
2.99252e-12
2.45111e-12
0.00250253
-1.34495e-05
0.00251019
-4.05904e-05
0.00252349
-6.96618e-05
0.00254319
-0.000101467
0.00257021
-0.000136332
0.00260543
-0.000173321
0.00264934
-0.000210301
0.00270121
-0.000242145
0.00275895
-0.000263203
0.00281788
-0.000265321
0.00287195
-0.000243804
0.00291712
-0.000203927
0.00295008
-0.000148969
0.00296805
-8.21503e-05
0.0029695
-9.22563e-06
0.00295449
6.29707e-05
0.00292513
0.000126533
0.0028852
0.000174927
0.00283922
0.000204957
0.00279145
0.000217111
0.00274522
0.000214441
0.00270273
0.000201156
0.00266514
0.000181444
0.00263284
0.000158803
0.00260566
0.00013581
0.00258312
0.000114141
0.00256462
9.46949e-05
0.00254956
7.77064e-05
0.00253742
6.28745e-05
0.00252782
4.9578e-05
0.00252053
3.72225e-05
0.00251538
2.56205e-05
0.00251214
1.51953e-05
0.00251043
6.83618e-06
0.00250973
1.43172e-06
0.00250942
-6.64476e-07
0.00250901
8.42433e-08
0.00250817
2.53373e-06
0.00250685
5.31651e-06
0.00250519
7.34498e-06
0.00250343
8.10215e-06
0.00250181
7.63114e-06
0.00250048
6.31606e-06
0.00249953
4.62388e-06
0.00249896
2.93318e-06
0.00249871
1.47872e-06
0.0024987
3.70328e-07
0.00249885
-3.68426e-07
0.00249907
-7.70228e-07
0.00249929
-9.04155e-07
0.00249949
-8.57636e-07
0.00249964
-7.17067e-07
0.00249975
-5.51089e-07
0.00249982
-4.02027e-07
0.00249987
-2.87073e-07
0.0024999
-2.06111e-07
0.00249993
-1.51088e-07
0.00249995
-1.13017e-07
0.00249996
-8.53086e-08
0.00249997
-6.42069e-08
0.00249998
-4.7879e-08
0.00249998
-3.53734e-08
0.00249999
-2.59912e-08
0.00249999
-1.90752e-08
0.00249999
-1.40189e-08
0.0025
-1.032e-08
0.0025
-7.60128e-09
0.0025
-5.59468e-09
0.0025
-4.1119e-09
0.0025
-3.01743e-09
0.0025
-2.2111e-09
0.0025
-1.6179e-09
0.0025
-1.18172e-09
0.0025
-8.6104e-10
0.0025
-6.25278e-10
0.0025
-4.52008e-10
0.0025
-3.24741e-10
0.0025
-2.31342e-10
0.0025
-1.62863e-10
0.0025
-1.12715e-10
0.0025
-7.60448e-11
0.0025
-4.92829e-11
0.0025
-2.98002e-11
0.0025
-1.56665e-11
0.0025
-5.45817e-12
0.0025
1.86783e-12
0.0025
7.08246e-12
0.0025
1.07484e-11
0.0025
1.32833e-11
0.0025
1.49897e-11
0.0025
1.60941e-11
0.0025
1.67586e-11
0.0025
1.71066e-11
0.0025
1.7224e-11
0.0025
1.71786e-11
0.0025
1.7015e-11
0.0025
1.67711e-11
0.0025
1.64693e-11
0.0025
1.61313e-11
0.0025
1.57674e-11
0.0025
1.53908e-11
0.0025
1.50053e-11
0.0025
1.46195e-11
0.0025
1.42334e-11
0.0025
1.38534e-11
0.0025
1.34777e-11
0.0025
1.31111e-11
0.0025
1.27507e-11
0.0025
1.24009e-11
0.0025
1.20581e-11
0.0025
1.17263e-11
0.0025
1.14016e-11
0.0025
1.10878e-11
0.0025
1.07808e-11
0.0025
1.04845e-11
0.0025
1.01945e-11
0.0025
9.91462e-12
0.0025
9.64057e-12
0.0025
9.37621e-12
0.0025
9.11708e-12
0.0025
8.86713e-12
0.0025
8.62187e-12
0.0025
8.38531e-12
0.0025
8.1529e-12
0.0025
7.92873e-12
0.0025
7.70823e-12
0.0025
7.49553e-12
0.0025
7.28606e-12
0.0025
7.08398e-12
0.0025
6.88474e-12
0.0025
6.69253e-12
0.0025
6.50278e-12
0.0025
6.31973e-12
0.0025
6.13882e-12
0.0025
5.96431e-12
0.0025
5.79165e-12
0.0025
5.62511e-12
0.0025
5.46016e-12
0.0025
5.3011e-12
0.0025
5.14338e-12
0.0025
4.99134e-12
0.0025
4.84044e-12
0.0025
4.69502e-12
0.0025
4.55056e-12
0.0025
4.41139e-12
0.0025
4.27301e-12
0.0025
4.1398e-12
0.0025
4.00717e-12
0.0025
3.87977e-12
0.0025
3.75252e-12
0.0025
3.63109e-12
0.0025
3.50835e-12
0.0025
3.39444e-12
0.0025
3.27317e-12
0.0025
3.17405e-12
0.0025
3.04088e-12
0.0025
2.98735e-12
0.0025
2.78638e-12
0.0025
2.8945e-12
2.43715e-12
0.00250238
-1.583e-05
0.00250961
-4.78185e-05
0.00252228
-8.23309e-05
0.00254132
-0.00012051
0.00256795
-0.000162962
0.00260343
-0.000208801
0.00264875
-0.000255625
0.00270355
-0.000296943
0.00276589
-0.000325538
0.00283012
-0.000329552
0.00288886
-0.000302546
0.00293785
-0.000252916
0.00297362
-0.000184736
0.00299299
-0.000101526
0.00299413
-1.03602e-05
0.00297695
8.01468e-05
0.0029439
0.000159583
0.00289949
0.000219334
0.00284907
0.000255376
0.00279751
0.000268675
0.00274844
0.000263508
0.00270411
0.000245491
0.00266554
0.000220017
0.00263288
0.000191456
0.00260577
0.00016292
0.00258355
0.000136361
0.00256548
0.000112764
0.00255086
9.23294e-05
0.0025391
7.46337e-05
0.00252979
5.88925e-05
0.00252265
4.4361e-05
0.00251749
3.07757e-05
0.00251409
1.85939e-05
0.0025121
8.82753e-06
0.00251103
2.50076e-06
0.00251035
2.37488e-08
0.00250957
8.58048e-07
0.00250844
3.67044e-06
0.00250689
6.86455e-06
0.00250506
9.1682e-06
0.00250319
9.97388e-06
0.0025015
9.32821e-06
0.00250013
7.67894e-06
0.00249918
5.57667e-06
0.00249864
3.47622e-06
0.00249845
1.66942e-06
0.00249852
3.00836e-07
0.00249874
-5.93775e-07
0.00249903
-1.0558e-06
0.0024993
-1.17861e-06
0.00249952
-1.0807e-06
0.00249968
-8.7687e-07
0.00249979
-6.55006e-07
0.00249985
-4.6584e-07
0.00249989
-3.26493e-07
0.00249992
-2.32459e-07
0.00249994
-1.7067e-07
0.00249995
-1.28521e-07
0.00249996
-9.76146e-08
0.00249997
-7.36692e-08
0.00249998
-5.48902e-08
0.00249999
-4.04413e-08
0.00249999
-2.96309e-08
0.00249999
-2.17101e-08
0.00249999
-1.59506e-08
0.0025
-1.17485e-08
0.0025
-8.65941e-09
0.0025
-6.37638e-09
0.0025
-4.68731e-09
0.0025
-3.44014e-09
0.0025
-2.52161e-09
0.0025
-1.8462e-09
0.0025
-1.34976e-09
0.0025
-9.84791e-10
0.0025
-7.16449e-10
0.0025
-5.19206e-10
0.0025
-3.74312e-10
0.0025
-2.67963e-10
0.0025
-1.89976e-10
0.0025
-1.32848e-10
0.0025
-9.10549e-11
0.0025
-6.05339e-11
0.0025
-3.82936e-11
0.0025
-2.21371e-11
0.0025
-1.04452e-11
0.0025
-2.0307e-12
0.0025
3.98294e-12
0.0025
8.23613e-12
0.0025
1.12036e-11
0.0025
1.32294e-11
0.0025
1.45708e-11
0.0025
1.54122e-11
0.0025
1.58934e-11
0.0025
1.61122e-11
0.0025
1.6145e-11
0.0025
1.60431e-11
0.0025
1.58486e-11
0.0025
1.55876e-11
0.0025
1.52839e-11
0.0025
1.49498e-11
0.0025
1.45996e-11
0.0025
1.42381e-11
0.0025
1.38742e-11
0.0025
1.3509e-11
0.0025
1.31486e-11
0.0025
1.27917e-11
0.0025
1.24432e-11
0.0025
1.21004e-11
0.0025
1.17676e-11
0.0025
1.14414e-11
0.0025
1.11257e-11
0.0025
1.08168e-11
0.0025
1.05183e-11
0.0025
1.02263e-11
0.0025
9.94456e-12
0.0025
9.66888e-12
0.0025
9.40291e-12
0.0025
9.14252e-12
0.0025
8.89137e-12
0.0025
8.64525e-12
0.0025
8.40788e-12
0.0025
8.17502e-12
0.0025
7.95042e-12
0.0025
7.72984e-12
0.0025
7.51706e-12
0.0025
7.30783e-12
0.0025
7.10599e-12
0.0025
6.90726e-12
0.0025
6.71555e-12
0.0025
6.52656e-12
0.0025
6.34423e-12
0.0025
6.16428e-12
0.0025
5.99068e-12
0.0025
5.81913e-12
0.0025
5.65364e-12
0.0025
5.48993e-12
0.0025
5.33203e-12
0.0025
5.17565e-12
0.0025
5.02485e-12
0.0025
4.87536e-12
0.0025
4.73123e-12
0.0025
4.58822e-12
0.0025
4.45039e-12
0.0025
4.31349e-12
0.0025
4.18162e-12
0.0025
4.05051e-12
0.0025
3.92433e-12
0.0025
3.7987e-12
0.0025
3.67807e-12
0.0025
3.55757e-12
0.0025
3.44269e-12
0.0025
3.32649e-12
0.0025
3.21885e-12
0.0025
3.10413e-12
0.0025
3.01016e-12
0.0025
2.88553e-12
0.0025
2.8296e-12
0.0025
2.65216e-12
0.0025
2.71505e-12
2.34285e-12
0.00250218
-1.80117e-05
0.00250883
-5.44691e-05
0.00252064
-9.41428e-05
0.00253875
-0.000138617
0.0025647
-0.000188909
0.00260027
-0.000244376
0.00264714
-0.000302494
0.00270549
-0.000355287
0.00277372
-0.000393767
0.00284478
-0.000400611
0.00290936
-0.000367131
0.00296309
-0.000306646
0.00300238
-0.000224025
0.00302356
-0.000122707
0.00302433
-1.11322e-05
0.00300439
0.000100085
0.00296661
0.000197363
0.00291649
0.000269461
0.00286046
0.000311405
0.00280419
0.000324944
0.00275169
0.000316004
0.00270521
0.000291975
0.00266555
0.000259671
0.0026326
0.000224412
0.00260568
0.000189837
0.00258392
0.000158118
0.00256642
0.000130266
0.00255236
0.000106389
0.00254109
8.5907e-05
0.00253213
6.78508e-05
0.00252518
5.13115e-05
0.00252002
3.59331e-05
0.00251644
2.21822e-05
0.0025141
1.11639e-05
0.00251259
4.01221e-06
0.00251143
1.18261e-06
0.00251022
2.06876e-06
0.00250872
5.17037e-06
0.00250689
8.68899e-06
0.00250487
1.11888e-05
0.00250287
1.19807e-05
0.00250108
1.11119e-05
0.00249968
9.08545e-06
0.00249872
6.52947e-06
0.00249822
3.97566e-06
0.00249811
1.77983e-06
0.00249828
1.29852e-07
0.00249861
-9.21693e-07
0.00249898
-1.42699e-06
0.00249932
-1.51132e-06
0.00249957
-1.33354e-06
0.00249974
-1.04399e-06
0.00249983
-7.5286e-07
0.00249989
-5.18511e-07
0.00249992
-3.55136e-07
0.00249993
-2.50745e-07
0.00249995
-1.8507e-07
0.00249996
-1.40914e-07
0.00249997
-1.07974e-07
0.00249998
-8.17401e-08
0.00249998
-6.07861e-08
0.00249999
-4.45912e-08
0.00249999
-3.25403e-08
0.00249999
-2.37919e-08
0.0025
-1.74785e-08
0.0025
-1.28861e-08
0.0025
-9.50706e-09
0.0025
-7.00371e-09
0.0025
-5.14842e-09
0.0025
-3.77805e-09
0.0025
-2.76942e-09
0.0025
-2.02837e-09
0.0025
-1.48395e-09
0.0025
-1.08374e-09
0.0025
-7.89453e-10
0.0025
-5.73106e-10
0.0025
-4.14169e-10
0.0025
-2.97509e-10
0.0025
-2.11955e-10
0.0025
-1.49277e-10
0.0025
-1.03411e-10
0.0025
-6.99018e-11
0.0025
-4.54696e-11
0.0025
-2.77049e-11
0.0025
-1.48329e-11
0.0025
-5.55141e-12
0.0025
1.09975e-12
0.0025
5.82309e-12
0.0025
9.13845e-12
0.0025
1.14232e-11
0.0025
1.29583e-11
0.0025
1.39465e-11
0.0025
1.45398e-11
0.0025
1.48463e-11
0.0025
1.49485e-11
0.0025
1.49032e-11
0.0025
1.47556e-11
0.0025
1.45349e-11
0.0025
1.42663e-11
0.0025
1.3964e-11
0.0025
1.36426e-11
0.0025
1.33082e-11
0.0025
1.29697e-11
0.0025
1.26289e-11
0.0025
1.22917e-11
0.0025
1.19575e-11
0.0025
1.16308e-11
0.0025
1.13094e-11
0.0025
1.09972e-11
0.0025
1.06914e-11
0.0025
1.03952e-11
0.0025
1.01057e-11
0.0025
9.8259e-12
0.0025
9.55242e-12
0.0025
9.28842e-12
0.0025
9.03031e-12
0.0025
8.78126e-12
0.0025
8.53761e-12
0.0025
8.30254e-12
0.0025
8.07236e-12
0.0025
7.85029e-12
0.0025
7.63259e-12
0.0025
7.42256e-12
0.0025
7.2164e-12
0.0025
7.01748e-12
0.0025
6.822e-12
0.0025
6.63336e-12
0.0025
6.44774e-12
0.0025
6.2686e-12
0.0025
6.0921e-12
0.0025
5.92176e-12
0.0025
5.75375e-12
0.0025
5.59158e-12
0.0025
5.43144e-12
0.0025
5.27688e-12
0.0025
5.12407e-12
0.0025
4.97661e-12
0.0025
4.83067e-12
0.0025
4.68987e-12
0.0025
4.55037e-12
0.0025
4.41581e-12
0.0025
4.28238e-12
0.0025
4.15373e-12
0.0025
4.02602e-12
0.0025
3.90295e-12
0.0025
3.78068e-12
0.0025
3.66296e-12
0.0025
3.54584e-12
0.0025
3.43335e-12
0.0025
3.32103e-12
0.0025
3.21399e-12
0.0025
3.10574e-12
0.0025
3.00548e-12
0.0025
2.89879e-12
0.0025
2.81076e-12
0.0025
2.69633e-12
0.0025
2.63895e-12
0.0025
2.48488e-12
0.0025
2.513e-12
2.2128e-12
0.00250193
-1.99376e-05
0.00250783
-6.03726e-05
0.0025185
-0.000104816
0.0025353
-0.000155415
0.00256015
-0.000213757
0.0025955
-0.000279727
0.00264391
-0.0003509
0.00270643
-0.000417809
0.00278213
-0.000469471
0.00286185
-0.000480334
0.00293356
-0.000438839
0.00299303
-0.000366112
0.00303668
-0.00026768
0.00306021
-0.000146228
0.0030606
-1.15302e-05
0.00303719
0.000123502
0.00299339
0.00024116
0.00293604
0.000326812
0.00287304
0.000374408
0.00281106
0.000386922
0.00275453
0.000372529
0.00270564
0.000340867
0.00266489
0.000300425
0.00263175
0.000257552
0.00260521
0.000216378
0.00258411
0.000179216
0.00256735
0.000147019
0.00255401
0.000119733
0.00254334
9.65764e-05
0.00253482
7.63702e-05
0.0025281
5.80274e-05
0.00252295
4.10834e-05
0.00251915
2.59875e-05
0.00251641
1.39035e-05
0.00251438
6.04488e-06
0.00251266
2.89743e-06
0.00251094
3.79492e-06
0.00250901
7.09668e-06
0.00250686
1.08355e-05
0.00250461
1.34379e-05
0.00250245
1.41436e-05
0.00250057
1.2996e-05
0.00249911
1.05422e-05
0.00249816
7.47942e-06
0.00249772
4.41762e-06
0.00249771
1.78645e-06
0.00249801
-1.71011e-07
0.00249847
-1.37911e-06
0.00249895
-1.90393e-06
0.00249935
-1.91318e-06
0.00249963
-1.61861e-06
0.00249981
-1.21538e-06
0.00249989
-8.39425e-07
0.00249993
-5.55151e-07
0.00249994
-3.69645e-07
0.00249995
-2.5922e-07
0.00249996
-1.93655e-07
0.00249997
-1.50091e-07
0.00249998
-1.16406e-07
0.00249998
-8.83948e-08
0.00249999
-6.548e-08
0.00249999
-4.7714e-08
0.00249999
-3.46245e-08
0.0025
-2.52536e-08
0.0025
-1.85603e-08
0.0025
-1.37067e-08
0.0025
-1.01265e-08
0.0025
-7.46337e-09
0.0025
-5.48479e-09
0.0025
-4.02307e-09
0.0025
-2.94845e-09
0.0025
-2.15991e-09
0.0025
-1.58098e-09
0.0025
-1.15543e-09
0.0025
-8.42425e-10
0.0025
-6.12282e-10
0.0025
-4.43206e-10
0.0025
-3.19114e-10
0.0025
-2.28117e-10
0.0025
-1.6145e-10
0.0025
-1.12661e-10
0.0025
-7.70081e-11
0.0025
-5.10046e-11
0.0025
-3.20878e-11
0.0025
-1.83705e-11
0.0025
-8.46786e-12
0.0025
-1.35924e-12
0.0025
3.70225e-12
0.0025
7.26921e-12
0.0025
9.74241e-12
0.0025
1.14201e-11
0.0025
1.25179e-11
0.0025
1.31968e-11
0.0025
1.35716e-11
0.0025
1.37296e-11
0.0025
1.37313e-11
0.0025
1.36241e-11
0.0025
1.34392e-11
0.0025
1.3203e-11
0.0025
1.29308e-11
0.0025
1.26374e-11
0.0025
1.23298e-11
0.0025
1.2017e-11
0.0025
1.1701e-11
0.0025
1.13878e-11
0.0025
1.10771e-11
0.0025
1.07731e-11
0.0025
1.04742e-11
0.0025
1.01837e-11
0.0025
9.89925e-12
0.0025
9.62385e-12
0.0025
9.35475e-12
0.0025
9.0947e-12
0.0025
8.8407e-12
0.0025
8.59552e-12
0.0025
8.356e-12
0.0025
8.12486e-12
0.0025
7.8989e-12
0.0025
7.68088e-12
0.0025
7.46752e-12
0.0025
7.26167e-12
0.0025
7.05998e-12
0.0025
6.86536e-12
0.0025
6.67445e-12
0.0025
6.4902e-12
0.0025
6.30924e-12
0.0025
6.13456e-12
0.0025
5.96277e-12
0.0025
5.79692e-12
0.0025
5.63363e-12
0.0025
5.47597e-12
0.0025
5.32054e-12
0.0025
5.17047e-12
0.0025
5.02235e-12
0.0025
4.87934e-12
0.0025
4.73804e-12
0.0025
4.60161e-12
0.0025
4.46668e-12
0.0025
4.33642e-12
0.0025
4.20746e-12
0.0025
4.08302e-12
0.0025
3.95969e-12
0.0025
3.84071e-12
0.0025
3.72271e-12
0.0025
3.60892e-12
0.0025
3.49596e-12
0.0025
3.38716e-12
0.0025
3.279e-12
0.0025
3.17507e-12
0.0025
3.07139e-12
0.0025
2.97256e-12
0.0025
2.87271e-12
0.0025
2.78014e-12
0.0025
2.68197e-12
0.0025
2.60007e-12
0.0025
2.49621e-12
0.0025
2.43853e-12
0.0025
2.30562e-12
0.0025
2.30948e-12
2.0663e-12
0.0025016
-2.15414e-05
0.00250656
-6.53293e-05
0.00251575
-0.000114008
0.00253076
-0.000170421
0.00255392
-0.000236918
0.00258852
-0.000314325
0.00263825
-0.000400635
0.00270557
-0.000485125
0.00279072
-0.000554623
0.00288137
-0.000570981
0.0029616
-0.000519068
0.00302782
-0.000432339
0.00307676
-0.000316614
0.00310325
-0.000172719
0.00310334
-1.1618e-05
0.00307565
0.000151186
0.00302433
0.000292486
0.00295796
0.000393176
0.00288641
0.000445964
0.00281762
0.000455711
0.00275648
0.000433671
0.002705
0.000392346
0.00266322
0.000342198
0.00263012
0.00029066
0.00260421
0.000242285
0.00258402
0.000199409
0.00256822
0.000162811
0.00255576
0.000132193
0.00254583
0.000106514
0.00253784
8.43615e-05
0.00253141
6.4458e-05
0.00252627
4.62147e-05
0.00252223
3.0036e-05
0.00251902
1.71059e-05
0.00251639
8.68019e-06
0.00251403
5.25635e-06
0.00251171
6.11677e-06
0.00250929
9.51247e-06
0.00250678
1.33482e-05
0.00250427
1.59449e-05
0.00250193
1.64828e-05
0.00249993
1.49947e-05
0.00249842
1.2056e-05
0.00249748
8.42256e-06
0.00249711
4.78485e-06
0.00249724
1.66036e-06
0.0024977
-6.36286e-07
0.00249832
-1.99802e-06
0.00249892
-2.50938e-06
0.00249941
-2.39503e-06
0.00249972
-1.9364e-06
0.00249989
-1.38524e-06
0.00249996
-9.0704e-07
0.00249998
-5.6932e-07
0.00249997
-3.66025e-07
0.00249997
-2.56131e-07
0.00249997
-1.96056e-07
0.00249998
-1.56227e-07
0.00249998
-1.23117e-07
0.00249999
-9.3692e-08
0.00249999
-6.89061e-08
0.0025
-4.96999e-08
0.0025
-3.57882e-08
0.0025
-2.6034e-08
0.0025
-1.91632e-08
0.0025
-1.4193e-08
0.0025
-1.05066e-08
0.0025
-7.74635e-09
0.0025
-5.68874e-09
0.0025
-4.16901e-09
0.0025
-3.05405e-09
0.0025
-2.23748e-09
0.0025
-1.63847e-09
0.0025
-1.1981e-09
0.0025
-8.7407e-10
0.0025
-6.35755e-10
0.0025
-4.60684e-10
0.0025
-3.32219e-10
0.0025
-2.38034e-10
0.0025
-1.6904e-10
0.0025
-1.18548e-10
0.0025
-8.16496e-11
0.0025
-5.4735e-11
0.0025
-3.51514e-11
0.0025
-2.09456e-11
0.0025
-1.06839e-11
0.0025
-3.31028e-12
0.0025
1.94791e-12
0.0025
5.66309e-12
0.0025
8.24888e-12
0.0025
1.00136e-11
0.0025
1.11803e-11
0.0025
1.19151e-11
0.0025
1.23368e-11
0.0025
1.25349e-11
0.0025
1.25722e-11
0.0025
1.24972e-11
0.0025
1.23425e-11
0.0025
1.21344e-11
0.0025
1.18894e-11
0.0025
1.16221e-11
0.0025
1.134e-11
0.0025
1.10519e-11
0.0025
1.07603e-11
0.0025
1.04708e-11
0.0025
1.01836e-11
0.0025
9.90239e-12
0.0025
9.62603e-12
0.0025
9.3574e-12
0.0025
9.09465e-12
0.0025
8.84023e-12
0.0025
8.59187e-12
0.0025
8.35187e-12
0.0025
8.11771e-12
0.0025
7.89164e-12
0.0025
7.67101e-12
0.0025
7.45808e-12
0.0025
7.25011e-12
0.0025
7.04941e-12
0.0025
6.8532e-12
0.0025
6.66381e-12
0.0025
6.47843e-12
0.0025
6.29947e-12
0.0025
6.12408e-12
0.0025
5.95472e-12
0.0025
5.78854e-12
0.0025
5.62803e-12
0.0025
5.47032e-12
0.0025