/*--------------------------------*- C++ -*----------------------------------*\
  =========                 |
  \\      /  F ield         | OpenFOAM: The Open Source CFD Toolbox
   \\    /   O peration     | Website:  https://openfoam.org
    \\  /    A nd           | Version:  11
     \\/     M anipulation  |
\*---------------------------------------------------------------------------*/
FoamFile
{
    format      ascii;
    class       volVectorField;
    location    "13.198193";
    object      U;
}
// * * * * * * * * * * * * * * * * * * * * * * * * * * * * * * * * * * * * * //

dimensions      [0 1 -1 0 0 0 0];

internalField   nonuniform List<vector> 
7132
(
(1.00013 -0.000272342 1.98663e-18)
(1.00211 -0.000819004 7.9034e-18)
(1.00656 -0.00137145 8.3921e-18)
(1.01314 -0.00191738 9.91194e-18)
(1.02189 -0.0024368 1.3426e-17)
(1.03266 -0.00289184 1.47344e-17)
(1.04507 -0.0032277 1.50577e-17)
(1.05856 -0.00336636 1.52617e-17)
(1.07211 -0.00322737 1.54853e-17)
(1.08453 -0.00276701 1.5474e-17)
(1.09438 -0.00198826 1.49923e-17)
(1.10057 -0.00108105 1.43253e-17)
(1.10303 -0.000231609 1.33629e-17)
(1.10236 0.000366627 1.24742e-17)
(1.09999 0.000554599 7.29976e-18)
(1.09781 0.000330359 2.36545e-18)
(1.09732 -0.000148835 -1.84249e-18)
(1.09911 -0.000608141 -2.96755e-18)
(1.10245 -0.000730393 -5.30657e-18)
(1.10532 -0.000290849 -5.91077e-18)
(1.10515 0.000702509 -4.8856e-18)
(1.09999 0.0019995 -3.62158e-18)
(1.08929 0.00324519 -2.4324e-18)
(1.074 0.00413428 -1.15226e-18)
(1.05607 0.00447831 -1.14777e-18)
(1.03794 0.0041972 5.47642e-18)
(1.0222 0.00328724 7.9544e-18)
(1.01134 0.0018061 -8.14337e-17)
(1.00748 -0.000109389 -2.39921e-16)
(1.01206 -0.00219686 1.04444e-15)
(1.0251 -0.00402372 7.21682e-15)
(1.04453 -0.00504899 1.64141e-14)
(1.06598 -0.00484792 1.90515e-14)
(1.08389 -0.00338095 1.24517e-14)
(1.09352 -0.00107151 4.63094e-15)
(1.09274 0.00140604 7.07326e-16)
(1.08231 0.00344826 -4.47878e-16)
(1.06497 0.00471715 -9.12551e-17)
(1.04425 0.00512329 1.07998e-15)
(1.0236 0.00470744 -1.31916e-15)
(1.00617 0.00353932 -1.53701e-14)
(0.994846 0.00169339 -2.35146e-14)
(0.992226 -0.00069191 8.31265e-14)
(1.00015 -0.00329968 5.13399e-13)
(1.01867 -0.00556148 1.34539e-12)
(1.04502 -0.00676994 2.21028e-12)
(1.07347 -0.00639828 2.50229e-12)
(1.09693 -0.00443056 2.0379e-12)
(1.10951 -0.00143323 1.20777e-12)
(1.10872 0.00171556 4.89927e-13)
(1.09579 0.0042348 9.20081e-14)
(1.07457 0.00571068 -2.75659e-14)
(1.0497 0.00609142 -9.7375e-14)
(1.02538 0.00551398 -3.68349e-13)
(1.00511 0.0041302 -4.94208e-13)
(0.99186 0.00204328 1.44526e-12)
(0.988318 -0.000619342 9.08873e-12)
(0.996508 -0.00355088 2.59869e-11)
(1.01669 -0.00616909 5.18705e-11)
(1.04617 -0.00772112 7.95201e-11)
(1.07908 -0.00759451 9.73504e-11)
(1.10771 -0.00565641 9.72565e-11)
(1.12507 -0.00238755 7.98492e-11)
(1.12731 0.00129817 5.27533e-11)
(1.11484 0.00444278 2.61591e-11)
(1.09157 0.00641448 7.3199e-12)
(1.06309 0.00704351 -2.40378e-12)
(1.0347 0.00650054 -4.83731e-12)
(1.01055 0.00505757 7.90415e-13)
(0.993704 0.00291345 2.08776e-11)
(0.986693 0.000199932 6.4275e-11)
(0.991591 -0.00285529 1.35526e-10)
(1.00918 -0.00577916 2.29748e-10)
(1.03773 -0.00789143 3.32412e-10)
(1.07251 -0.00854735 4.2342e-10)
(1.10658 -0.00743216 4.82612e-10)
(1.1326 -0.00472272 4.94891e-10)
(1.14502 -0.00104009 4.54412e-10)
(1.14149 0.00275484 3.66702e-10)
(1.12334 0.00583073 2.49108e-10)
(1.09493 0.0076302 1.30027e-10)
(1.06212 0.00799438 3.93591e-11)
(1.03061 0.00710645 -4.2528e-12)
(1.00479 0.00528022 1.419e-12)
(0.987828 0.00276377 4.71044e-11)
(0.982174 -0.000259699 1.19705e-10)
(0.98957 -0.00349579 2.06417e-10)
(1.01012 -0.00641833 2.95631e-10)
(1.04124 -0.0083694 3.77661e-10)
(1.07763 -0.00882473 4.45627e-10)
(1.11243 -0.00763012 4.95291e-10)
(1.13911 -0.00506332 5.23459e-10)
(1.15316 -0.00171289 5.25863e-10)
(1.15285 0.0017264 4.95842e-10)
(1.13926 0.00463676 4.26292e-10)
(1.11561 0.00657991 3.19011e-10)
(1.08645 0.0073256 1.94347e-10)
(1.05681 0.00684382 8.82475e-11)
(1.03147 0.00525515 3.35537e-11)
(1.01453 0.00276482 4.07846e-11)
(1.00921 -0.000337352 9.58938e-11)
(1.01734 -0.00360628 1.73837e-10)
(1.03854 -0.00643519 2.53027e-10)
(1.06963 -0.00820345 3.21247e-10)
(1.10511 -0.00851327 3.74389e-10)
(1.13855 -0.00735425 4.1308e-10)
(1.16441 -0.00510191 4.40014e-10)
(1.1794 -0.00237275 4.5831e-10)
(1.18303 0.000179281 4.70115e-10)
(1.17732 0.00204723 4.74695e-10)
(1.16585 0.00297731 4.67082e-10)
(1.15267 0.00295919 4.39553e-10)
(1.14144 0.00213363 3.86628e-10)
(1.13502 0.000689224 3.10739e-10)
(1.13554 -0.00118105 2.2349e-10)
(1.14434 -0.00325189 1.40878e-10)
(1.16173 -0.0052231 7.62807e-11)
(1.18663 -0.00672406 3.61851e-11)
(1.21634 -0.00738884 2.03013e-11)
(1.24675 -0.00696877 2.42755e-11)
(1.2731 -0.00542345 4.25365e-11)
(1.29099 -0.00294988 7.00575e-11)
(1.29726 5.73892e-05 1.03011e-10)
(1.29075 0.00309597 1.38678e-10)
(1.27238 0.00567576 1.7505e-10)
(1.24495 0.00742976 2.10704e-10)
(1.21237 0.00817544 2.44914e-10)
(1.1789 0.00792108 2.77168e-10)
(1.14837 0.0068321 3.05483e-10)
(1.12367 0.00517669 3.24826e-10)
(1.10646 0.00325869 3.2807e-10)
(1.09719 0.00134858 3.09763e-10)
(1.09534 -0.000362049 2.69882e-10)
(1.09983 -0.00176238 2.14659e-10)
(1.10929 -0.0027916 1.5422e-10)
(1.12213 -0.00340535 9.89323e-11)
(1.13659 -0.00356349 5.65024e-11)
(1.15075 -0.00324049 3.07146e-11)
(1.16265 -0.00244397 2.15978e-11)
(1.17043 -0.00122858 2.63035e-11)
(1.17258 0.000298067 4.00349e-11)
(1.16813 0.00197356 5.67146e-11)
(1.15688 0.0035855 6.97155e-11)
(1.13954 0.00489241 7.3322e-11)
(1.11782 0.00567233 6.49698e-11)
(1.09422 0.00579136 4.69325e-11)
(1.07152 0.00525838 2.55097e-11)
(1.05215 0.00422818 7.57983e-12)
(1.03767 0.00294621 -2.97338e-12)
(1.02855 0.00166468 -6.3337e-12)
(1.02435 0.000575727 -5.2146e-12)
(1.02394 -0.000218927 -2.59777e-12)
(1.02616 -0.000696059 -3.73808e-13)
(1.02955 -0.000890744 8.25484e-13)
(1.03345 -0.000857453 1.15352e-12)
(1.03639 -0.000667286 1.01683e-12)
(1.03909 -0.000375961 7.55381e-13)
(1.03906 -4.04994e-05 5.40901e-13)
(1.04015 0.000258636 4.22211e-13)
(1.03583 0.00066537 3.2723e-13)
(1.00013 -0.000815776 2.84613e-20)
(1.00211 -0.00245467 3.78006e-19)
(1.00654 -0.00411279 7.70271e-19)
(1.01312 -0.00575564 1.2261e-18)
(1.0219 -0.00732399 1.83367e-18)
(1.03273 -0.00870469 2.50611e-18)
(1.0453 -0.00973242 3.08105e-18)
(1.05902 -0.0101677 3.90472e-18)
(1.07288 -0.00976196 6.3193e-18)
(1.08563 -0.00837234 6.25942e-18)
(1.09572 -0.00600008 5.4412e-18)
(1.10197 -0.00323421 9.29019e-18)
(1.1043 -0.000644397 9.49522e-18)
(1.10331 0.00117241 9.1302e-18)
(1.10053 0.00172078 6.98094e-18)
(1.098 0.000993471 2.83598e-18)
(1.09738 -0.000519494 -1.59704e-18)
(1.09933 -0.00197241 -3.49474e-18)
(1.1031 -0.00238783 -1.40815e-18)
(1.10651 -0.0010672 2.87267e-18)
(1.10678 0.00196744 5.76016e-18)
(1.10177 0.00594011 6.63678e-18)
(1.0909 0.00975525 5.339e-18)
(1.07519 0.0124814 3.24304e-18)
(1.05669 0.0135528 1.58993e-17)
(1.03795 0.0127336 -3.42097e-18)
(1.02159 0.0100128 -2.03785e-16)
(1.01019 0.00555507 4.62599e-16)
(1.00598 -0.000244143 4.03327e-15)
(1.01055 -0.00660725 -6.89206e-15)
(1.02409 -0.0122189 -8.36511e-14)
(1.04452 -0.0154064 -1.9754e-13)
(1.06721 -0.0148406 -2.14996e-13)
(1.08619 -0.0103845 -1.27631e-13)
(1.09638 -0.0033398 -4.25246e-14)
(1.09554 0.00421936 -4.51963e-15)
(1.08458 0.0104436 3.10347e-15)
(1.06649 0.014309 3.66562e-15)
(1.04496 0.0155591 5.84156e-15)
(1.02351 0.0143308 -9.70853e-15)
(1.00532 0.0108357 -7.92332e-14)
(0.993318 0.00528056 -1.10554e-13)
(0.99025 -0.00194891 4.92339e-13)
(0.998209 -0.0099157 2.98108e-12)
(1.01747 -0.0168805 7.93531e-12)
(1.0452 -0.0206468 1.32833e-11)
(1.07527 -0.0195675 1.52126e-11)
(1.10003 -0.0135832 1.22684e-11)
(1.1132 -0.00443908 7.02406e-12)
(1.11219 0.00516764 2.79279e-12)
(1.0985 0.0128438 5.53322e-13)
(1.07627 0.0173329 -1.76342e-13)
(1.05039 0.0184972 -5.67668e-13)
(1.02518 0.0167735 -1.70004e-12)
(1.0041 0.0126288 -1.89431e-12)
(0.990112 0.00635746 7.95175e-12)
(0.985975 -0.00169302 4.62552e-11)
(0.993908 -0.0106241 1.3213e-10)
(1.0144 -0.0186647 2.63852e-10)
(1.04487 -0.0234894 4.02614e-10)
(1.0793 -0.023189 4.87067e-10)
(1.10955 -0.0173337 4.74958e-10)
(1.12811 -0.00739122 3.75109e-10)
(1.13075 0.00384356 2.37283e-10)
(1.11786 0.0134392 1.13349e-10)
(1.09364 0.0194569 3.17112e-11)
(1.06404 0.0213829 -6.79649e-12)
(1.03461 0.0197598 -1.52607e-11)
(1.00954 0.0154378 -1.28429e-12)
(0.991822 0.00901912 4.25974e-11)
(0.983992 0.000867586 1.31666e-10)
(0.988306 -0.00837236 2.71897e-10)
(1.00582 -0.0172849 4.48229e-10)
(1.03494 -0.0237895 6.29625e-10)
(1.07078 -0.0258951 7.82628e-10)
(1.10602 -0.0226197 8.77999e-10)
(1.13304 -0.0144891 8.91036e-10)
(1.14611 -0.00338015 8.08609e-10)
(1.14286 0.0081077 6.41691e-10)
(1.12462 0.0174574 4.2767e-10)
(1.09582 0.0229706 2.19889e-10)
(1.0624 0.0241529 6.65912e-11)
(1.03013 0.0215511 -7.10856e-12)
(1.00349 0.0161072 -1.90505e-12)
(0.985765 0.0085506 6.57888e-11)
(0.979651 -0.000597906 1.74358e-10)
(0.9872 -0.0104619 3.01201e-10)
(1.00866 -0.0194145 4.24596e-10)
(1.04125 -0.0253992 5.28047e-10)
(1.07917 -0.0267847 6.03913e-10)
(1.11505 -0.0231157 6.51951e-10)
(1.14206 -0.0152877 6.73299e-10)
(1.15571 -0.005132 6.64705e-10)
(1.15457 0.005242 6.17713e-10)
(1.14005 0.0139895 5.24393e-10)
(1.11562 0.0198186 3.88496e-10)
(1.08588 0.022062 2.35134e-10)
(1.05581 0.0206355 1.0639e-10)
(1.03015 0.0158797 4.02821e-11)
(1.01309 0.00836992 4.93613e-11)
(1.00811 -0.00105712 1.17483e-10)
(1.0173 -0.0110508 2.14082e-10)
(1.04025 -0.0197133 3.10926e-10)
(1.07342 -0.0250928 3.90785e-10)
(1.11074 -0.0259537 4.47625e-10)
(1.14531 -0.0222919 4.82909e-10)
(1.17135 -0.0153047 5.01702e-10)
(1.1856 -0.00691411 5.09845e-10)
(1.18779 0.000878911 5.11809e-10)
(1.18026 0.00654882 5.08486e-10)
(1.16692 0.00934163 4.9556e-10)
(1.15205 0.00924122 4.64807e-10)
(1.13948 0.00668727 4.09602e-10)
(1.13218 0.00225563 3.31414e-10)
(1.13237 -0.0034775 2.41704e-10)
(1.14147 -0.00984161 1.57149e-10)
(1.15987 -0.0159254 9.20672e-11)
(1.18645 -0.0205838 5.3468e-11)
(1.21824 -0.0226739 4.07915e-11)
(1.25077 -0.021416 4.87205e-11)
(1.2789 -0.0166854 7.04733e-11)
(1.29789 -0.00910564 1.00056e-10)
(1.30451 9.29016e-05 1.33184e-10)
(1.29762 0.00937056 1.6719e-10)
(1.27832 0.0172363 2.00476e-10)
(1.2496 0.0225759 2.32196e-10)
(1.21564 0.0248414 2.62219e-10)
(1.18087 0.0240693 2.90584e-10)
(1.14923 0.0207732 3.15748e-10)
(1.12365 0.0157718 3.32879e-10)
(1.10575 0.00998295 3.34733e-10)
(1.09595 0.00421587 3.15579e-10)
(1.09373 -0.000960222 2.75291e-10)
(1.09804 -0.00521438 2.20447e-10)
(1.1075 -0.00835782 1.61873e-10)
(1.12051 -0.0102464 1.10551e-10)
(1.13525 -0.0107497 7.4236e-11)
(1.14969 -0.00978823 5.59686e-11)
(1.16178 -0.00739067 5.43477e-11)
(1.16964 -0.00373236 6.47948e-11)
(1.17177 0.000854973 8.10215e-11)
(1.16724 0.00588216 9.61615e-11)
(1.15591 0.0107152 1.03799e-10)
(1.13855 0.0146353 9.94361e-11)
(1.11687 0.0169813 8.2302e-11)
(1.09336 0.0173524 5.63725e-11)
(1.07076 0.0157714 2.90403e-11)
(1.05149 0.0126955 7.50937e-12)
(1.03712 0.00885488 -4.62417e-12)
(1.02811 0.00500384 -8.15864e-12)
(1.02405 0.00172149 -6.47663e-12)
(1.02383 -0.000680876 -3.09624e-12)
(1.02627 -0.00212747 -2.31224e-13)
(1.02988 -0.00271916 1.36492e-12)
(1.03397 -0.00261925 1.85936e-12)
(1.03707 -0.00204187 1.73157e-12)
(1.03988 -0.00115737 1.39828e-12)
(1.03989 -0.000138498 1.08185e-12)
(1.041 0.000770761 8.70667e-13)
(1.03657 0.0020023 6.37812e-13)
(1.00013 -0.00135601 1.19868e-22)
(1.00209 -0.0040825 6.83039e-21)
(1.0065 -0.00684817 3.8092e-21)
(1.01307 -0.00960109 4.71639e-22)
(1.02188 -0.0122467 -5.20414e-20)
(1.03286 -0.0145987 -4.98735e-20)
(1.04571 -0.0163795 -4.13238e-19)
(1.05989 -0.017172 -2.206e-19)
(1.07438 -0.0165383 8.71053e-19)
(1.08783 -0.0141972 -1.57505e-18)
(1.09842 -0.0101219 -5.49341e-18)
(1.1048 -0.0053558 -2.01254e-18)
(1.10686 -0.000874034 6.02588e-18)
(1.10523 0.00228114 6.56513e-18)
(1.10163 0.00321811 -5.72674e-18)
(1.09844 0.00190677 -1.67146e-17)
(1.09758 -0.000814923 2.96735e-18)
(1.09988 -0.00347249 6.49563e-17)
(1.10455 -0.00433275 1.27869e-16)
(1.10908 -0.00213854 1.42679e-16)
(1.11018 0.00308145 1.17486e-16)
(1.10537 0.00995086 7.62951e-17)
(1.09403 0.01654 2.52046e-17)
(1.07736 0.0212386 2.34721e-17)
(1.05766 0.0230984 1.93294e-16)
(1.03766 0.0217431 -5.62265e-16)
(1.02013 0.017162 -2.9979e-15)
(1.00775 0.00961243 1.25168e-14)
(1.00297 -0.000282675 5.88101e-14)
(1.00768 -0.0112439 -1.94658e-13)
(1.02237 -0.02101 -1.49213e-12)
(1.04493 -0.0266242 -3.41126e-12)
(1.07021 -0.0256969 -3.96555e-12)
(1.09131 -0.0179614 -2.59998e-12)
(1.10245 -0.00572993 -9.5144e-13)
(1.10122 0.00732491 -1.3161e-13)
(1.08891 0.0179817 6.97356e-14)
(1.06909 0.0245283 6.03557e-14)
(1.04582 0.0266099 2.39915e-14)
(1.02278 0.0245229 -5.49713e-14)
(1.00318 0.0186325 -1.70432e-13)
(0.990005 0.0092293 3.50471e-14)
(0.986279 -0.00312802 1.24795e-12)
(0.994558 -0.0169012 3.35237e-12)
(1.0155 -0.0290598 4.92024e-12)
(1.04616 -0.0356852 6.26881e-12)
(1.0796 -0.033824 8.87987e-12)
(1.10697 -0.0233848 1.06362e-11)
(1.12111 -0.00749117 8.9957e-12)
(1.11932 0.00909057 5.63314e-12)
(1.10366 0.0222061 2.37789e-12)
(1.07909 0.0297584 2.8439e-13)
(1.05106 0.0316262 -1.90518e-12)
(1.02408 0.0286521 -5.84836e-12)
(1.00153 0.0216619 -3.33157e-12)
(0.98622 0.0111105 3.74229e-11)
(0.980938 -0.00250521 1.68501e-10)
(0.988179 -0.0177496 4.23866e-10)
(1.00892 -0.0316481 7.71443e-10)
(1.04095 -0.0401858 1.11451e-09)
(1.07811 -0.0399556 1.33494e-09)
(1.11155 -0.0300615 1.33906e-09)
(1.13268 -0.0129658 1.11125e-09)
(1.13643 0.00644744 7.44386e-10)
(1.12295 0.0230092 3.80405e-10)
(1.09694 0.0333223 1.21636e-10)
(1.06512 0.03655 -8.62547e-12)
(1.03365 0.0337401 -4.10813e-11)
(1.00684 0.0264465 -7.12053e-12)
(0.987599 0.0156897 8.97689e-11)
(0.978536 0.00196846 2.58215e-10)
(0.98236 -0.0137566 4.85385e-10)
(1.00064 -0.0290942 7.2937e-10)
(1.03178 -0.0403833 9.47463e-10)
(1.0702 -0.0441024 1.12068e-09)
(1.10766 -0.0385648 1.24396e-09)
(1.13593 -0.0247513 1.29649e-09)
(1.14926 -0.00592065 1.23518e-09)
(1.14554 0.0135227 1.03326e-09)
(1.12642 0.0293555 7.23812e-10)
(1.0965 0.0387324 3.92602e-10)
(1.06181 0.0408252 1.32396e-10)
(1.0282 0.0365504 -1.30622e-12)
(1.00024 0.0274579 -2.7409e-12)
(0.981521 0.0146881 9.8915e-11)
(0.975263 -0.000965565 2.59251e-10)
(0.98402 -0.0179882 4.32179e-10)
(1.00804 -0.0334431 5.80913e-10)
(1.04388 -0.0436395 6.8683e-10)
(1.08476 -0.0457389 7.50442e-10)
(1.12244 -0.0390746 7.83722e-10)
(1.14967 -0.0253761 7.97858e-10)
(1.16204 -0.00794343 7.91497e-10)
(1.15867 0.00957568 7.47891e-10)
(1.14167 0.0241236 6.47683e-10)
(1.11511 0.0336642 4.88944e-10)
(1.08386 0.037217 3.01606e-10)
(1.05284 0.0346972 1.40541e-10)
(1.02671 0.0266101 5.6558e-11)
(1.00984 0.013788 6.73397e-11)
(1.00613 -0.00243066 1.51858e-10)
(1.01792 -0.0196683 2.68843e-10)
(1.04449 -0.0345004 3.80713e-10)
(1.08142 -0.0434618 4.66483e-10)
(1.12167 -0.0444679 5.21264e-10)
(1.15772 -0.0376548 5.49577e-10)
(1.18358 -0.0252267 5.59298e-10)
(1.19616 -0.010572 5.58311e-10)
(1.19557 0.0028594 5.52538e-10)
(1.18464 0.0124869 5.4394e-10)
(1.1678 0.0170783 5.28426e-10)
(1.1498 0.0166699 4.96713e-10)
(1.13479 0.0120605 4.40465e-10)
(1.12598 0.00424363 3.60196e-10)
(1.12578 -0.00582031 2.6806e-10)
(1.13585 -0.0170028 1.82665e-10)
(1.15663 -0.0277139 1.20029e-10)
(1.18669 -0.0359118 8.73897e-11)
(1.22244 -0.0395598 8.27523e-11)
(1.25864 -0.0373003 9.84488e-11)
(1.28951 -0.0289715 1.25502e-10)
(1.31 -0.0157339 1.56697e-10)
(1.3168 0.000221806 1.87765e-10)
(1.30892 0.0162177 2.16928e-10)
(1.28773 0.029695 2.4378e-10)
(1.2566 0.0387649 2.6851e-10)
(1.2201 0.0425316 2.91725e-10)
(1.183 0.0411125 3.14008e-10)
(1.14944 0.0354332 3.34204e-10)
(1.12239 0.0269142 3.47539e-10)
(1.10341 0.0171092 3.46452e-10)
(1.09287 0.00735965 3.24919e-10)
(1.09021 -0.00140641 2.83171e-10)
(1.0944 -0.00864616 2.28971e-10)
(1.10407 -0.0140286 1.74554e-10)
(1.11756 -0.0172798 1.31578e-10)
(1.13289 -0.018153 1.07186e-10)
(1.14785 -0.0165088 1.02639e-10)
(1.16023 -0.0124185 1.14112e-10)
(1.16808 -0.00621673 1.34457e-10)
(1.16995 0.00150327 1.55111e-10)
(1.16505 0.0099047 1.67788e-10)
(1.15338 0.0179335 1.66153e-10)
(1.13582 0.0244124 1.47559e-10)
(1.11413 0.0282652 1.14345e-10)
(1.09077 0.0288422 7.37176e-11)
(1.06846 0.0261859 3.5299e-11)
(1.04953 0.0210501 7.04489e-12)
(1.03554 0.0146388 -7.95908e-12)
(1.02694 0.00820201 -1.1698e-11)
(1.02334 0.00270701 -8.83769e-12)
(1.02361 -0.00131785 -3.90376e-12)
(1.02654 -0.00373595 2.9023e-13)
(1.03061 -0.00471045 2.75493e-12)
(1.0351 -0.00451339 3.66056e-12)
(1.03849 -0.00350995 3.60047e-12)
(1.04148 -0.00198377 3.12632e-12)
(1.04153 -0.000245794 2.56132e-12)
(1.04263 0.00132418 2.09903e-12)
(1.03795 0.00338725 1.46706e-12)
(1.00013 -0.00189052 -3.19628e-20)
(1.00206 -0.0056952 -4.71563e-19)
(1.00642 -0.00957058 -9.27673e-19)
(1.01296 -0.0134541 -1.57106e-18)
(1.02182 -0.0172236 -2.29834e-18)
(1.03299 -0.0206239 -3.26364e-18)
(1.04626 -0.0232635 -5.15142e-18)
(1.06116 -0.0245208 2.03112e-18)
(1.07661 -0.0237331 -7.00249e-18)
(1.09116 -0.0204079 -3.46926e-17)
(1.10257 -0.0144456 -1.98911e-17)
(1.10916 -0.00744894 5.03963e-17)
(1.11082 -0.000847091 8.16294e-17)
(1.10819 0.00379925 3.96751e-17)
(1.10328 0.00510266 -3.44473e-17)
(1.099 0.00299404 -7.76881e-19)
(1.09772 -0.00127463 3.16723e-16)
(1.10057 -0.00549111 9.26443e-16)
(1.10667 -0.00701555 1.39856e-15)
(1.11299 -0.0038952 1.3009e-15)
(1.11542 0.00383335 9.12002e-16)
(1.11091 0.0140369 4.92988e-16)
(1.0988 0.0237729 9.41452e-17)
(1.08062 0.0306688 2.89971e-16)
(1.05905 0.033404 6.48666e-16)
(1.03711 0.0315014 -5.64599e-15)
(1.01778 0.0249703 -4.17522e-15)
(1.0039 0.0141369 7.34778e-14)
(0.998233 -0.000203865 3.46225e-14)
(1.00314 -0.0163009 -7.88787e-13)
(1.01961 -0.0308482 -1.87926e-12)
(1.04555 -0.0393412 -2.74503e-12)
(1.07493 -0.0380452 -4.4244e-12)
(1.0994 -0.0264997 -4.92782e-12)
(1.11197 -0.00827094 -2.96214e-12)
(1.11 0.0110084 -9.0274e-13)
(1.09547 0.0265164 8.79337e-14)
(1.07285 0.0358556 2.46529e-13)
(1.04687 0.0387067 4.87164e-14)
(1.02144 0.0356474 -1.08876e-13)
(0.999728 0.0272239 6.62883e-13)
(0.984813 0.0137339 2.06099e-12)
(0.980001 -0.00421302 -5.31141e-12)
(0.988372 -0.0245146 -4.59187e-11)
(1.01113 -0.0426811 -1.3555e-10)
(1.04557 -0.0527124 -2.35686e-10)
(1.08413 -0.0499905 -2.69386e-10)
(1.11617 -0.0343323 -2.09847e-10)
(1.13262 -0.0105886 -1.10417e-10)
(1.13008 0.0139194 -3.36548e-11)
(1.11145 0.0329694 9.63154e-13)
(1.08315 0.0436267 6.46069e-12)
(1.05173 0.0459923 -1.62874e-12)
(1.02207 0.0415355 -1.21686e-11)
(0.997322 0.0315578 6.32776e-12)
(0.979911 0.0166578 1.24125e-10)
(0.972543 -0.00265749 4.07988e-10)
(0.978334 -0.024601 8.356e-10)
(0.999268 -0.0450504 1.29283e-09)
(1.03359 -0.058103 1.68561e-09)
(1.07457 -0.0585071 1.98204e-09)
(1.11222 -0.0446165 2.11883e-09)
(1.13687 -0.0198089 1.97209e-09)
(1.14251 0.00873438 1.50815e-09)
(1.12884 0.0331929 8.89907e-10)
(1.10085 0.0483639 3.52463e-10)
(1.06617 0.0530178 3.14979e-11)
(1.03182 0.0488919 -7.31685e-11)
(1.00247 0.0384577 -1.7899e-11)
(0.981103 0.0231748 1.53338e-10)
(0.970701 0.00349914 4.04094e-10)
(0.974791 -0.0194103 6.78153e-10)
(0.995444 -0.0419916 9.15488e-10)
(1.03053 -0.0585847 1.09092e-09)
(1.07309 -0.0638543 1.22078e-09)
(1.11349 -0.0554893 1.33514e-09)
(1.14278 -0.035269 1.43608e-09)
(1.15534 -0.00815465 1.46607e-09)
(1.14981 0.0195481 1.33776e-09)
(1.12857 0.0419854 1.02562e-09)
(1.0966 0.0552681 6.12334e-10)
(1.06003 0.0582896 2.41385e-10)
(1.02465 0.052325 2.80575e-11)
(0.995138 0.0394404 7.03193e-12)
(0.975555 0.0210458 1.38011e-10)
(0.969882 -0.00183389 3.42753e-10)
(0.981116 -0.0268381 5.44827e-10)
(1.00907 -0.0493477 6.96853e-10)
(1.04918 -0.0637771 7.86852e-10)
(1.09349 -0.0660825 8.2708e-10)
(1.13303 -0.0555756 8.39103e-10)
(1.16027 -0.035075 8.4234e-10)
(1.17088 -0.00960648 8.41926e-10)
(1.16441 0.0154489 8.18639e-10)
(1.14382 0.0357747 7.37906e-10)
(1.114 0.0487183 5.81011e-10)
(1.08034 0.0531856 3.74405e-10)
(1.04784 0.0492007 1.85777e-10)
(1.02116 0.037374 8.35336e-11)
(1.00496 0.018662 9.32857e-11)
(1.00353 -0.00508818 1.88251e-10)
(1.01921 -0.0302222 3.15785e-10)
(1.05048 -0.0514639 4.3127e-10)
(1.09166 -0.0636988 5.13738e-10)
(1.13468 -0.0641186 5.61869e-10)
(1.17158 -0.0532496 5.83291e-10)
(1.19647 -0.0345157 5.87108e-10)
(1.20662 -0.012894 5.81403e-10)
(1.20254 0.00665006 5.72566e-10)
(1.1875 0.0204384 5.63308e-10)
(1.16645 0.0267567 5.49531e-10)
(1.14464 0.0257378 5.20537e-10)
(1.12666 0.0185941 4.65972e-10)
(1.1161 0.00676049 3.85688e-10)
(1.1158 -0.00841095 2.93569e-10)
(1.12774 -0.0252641 2.11195e-10)
(1.15222 -0.0413474 1.5638e-10)
(1.18704 -0.0534969 1.35577e-10)
(1.22754 -0.0586593 1.43982e-10)
(1.26751 -0.0549562 1.70621e-10)
(1.30076 -0.0423608 2.03951e-10)
(1.32223 -0.02274 2.35551e-10)
(1.3288 0.000648253 2.61524e-10)
(1.31965 0.023923 2.81816e-10)
(1.29637 0.0434025 2.98256e-10)
(1.2626 0.0563852 3.1287e-10)
(1.22328 0.0616294 3.27266e-10)
(1.18355 0.0593851 3.4236e-10)
(1.1478 0.051071 3.56929e-10)
(1.11906 0.0387825 3.65762e-10)
(1.09889 0.0247439 3.60681e-10)
(1.08755 0.0108213 3.35578e-10)
(1.0845 -0.00172399 2.91824e-10)
(1.08874 -0.0121446 2.39201e-10)
(1.0989 -0.0199398 1.9149e-10)
(1.11319 -0.0246573 1.60215e-10)
(1.12938 -0.0258967 1.50688e-10)
(1.14499 -0.0234602 1.61659e-10)
(1.15763 -0.0175046 1.87073e-10)
(1.16529 -0.0085886 2.17973e-10)
(1.16663 0.00237477 2.43963e-10)
(1.16108 0.0141722 2.54977e-10)
(1.14885 0.0253357 2.43866e-10)
(1.13099 0.0342617 2.09147e-10)
(1.10934 0.0394997 1.56411e-10)
(1.0863 0.0401828 9.70064e-11)
(1.06451 0.0363853 4.38866e-11)
(1.04623 0.0291527 6.45878e-12)
(1.03293 0.0201484 -1.25683e-11)
(1.02506 0.011107 -1.66239e-11)
(1.02221 0.00338338 -1.2044e-11)
(1.02324 -0.00226994 -4.71406e-12)
(1.02691 -0.0056462 1.68749e-12)
(1.03166 -0.00696848 5.75251e-12)
(1.0367 -0.00661692 7.54518e-12)
(1.04051 -0.00512182 7.73579e-12)
(1.04375 -0.00287197 7.04094e-12)
(1.04386 -0.000360642 5.95115e-12)
(1.04494 0.00196207 4.90255e-12)
(1.0399 0.00485301 3.30393e-12)
(1.00013 -0.00241547 -2.31183e-18)
(1.00201 -0.00728256 -7.47999e-18)
(1.00629 -0.0122676 -6.54208e-18)
(1.01277 -0.0173078 -8.92485e-18)
(1.02167 -0.0222653 -6.38907e-18)
(1.03306 -0.026824 -1.90217e-17)
(1.04687 -0.0304787 1.20095e-17)
(1.06273 -0.0323656 7.75516e-18)
(1.07954 -0.0315461 -1.74188e-16)
(1.09567 -0.027193 -2.60452e-17)
(1.10826 -0.0190596 5.20222e-16)
(1.11515 -0.00947085 7.59192e-16)
(1.11624 -0.000348075 3.624e-16)
(1.11215 0.00610713 -2.69085e-16)
(1.10533 0.00784273 -6.79406e-16)
(1.09945 0.00470615 -5.95862e-16)
(1.09757 -0.00159036 -5.15967e-16)
(1.10121 -0.00794735 -1.37067e-15)
(1.10942 -0.0105542 -2.13211e-15)
(1.11838 -0.00651844 -1.30599e-15)
(1.12276 0.00413059 -2.07548e-16)
(1.11867 0.0182767 1.06774e-16)
(1.10542 0.031694 1.34016e-16)
(1.08507 0.0411115 1.69565e-15)
(1.06089 0.0448428 -6.49491e-15)
(1.0363 0.0423726 -8.86916e-15)
(1.01449 0.0337663 1.22632e-13)
(0.998503 0.0193874 -2.28771e-13)
(0.991484 0.000107029 -2.2825e-12)
(0.996548 -0.0219245 5.55875e-12)
(1.01554 -0.0422177 5.34525e-11)
(1.04645 -0.0542991 1.26974e-10)
(1.08181 -0.0526345 1.4787e-10)
(1.11103 -0.03647 9.43565e-11)
(1.12546 -0.0110049 3.17768e-11)
(1.12226 0.0155987 2.53809e-12)
(1.10442 0.0365636 -2.81547e-12)
(1.07783 0.0488216 -1.33865e-12)
(1.04811 0.0523118 -4.59107e-13)
(1.01944 0.0480918 6.30468e-13)
(0.994935 0.0369438 5.70283e-12)
(0.977573 0.0190984 4.91852e-12)
(0.970674 -0.0048918 -5.57559e-11)
(0.977606 -0.0324493 -2.69579e-10)
(1.00054 -0.0576569 -6.66275e-10)
(1.03809 -0.0722006 -1.09515e-09)
(1.08293 -0.0691484 -1.2876e-09)
(1.12255 -0.0476329 -1.10281e-09)
(1.14452 -0.014426 -6.79317e-10)
(1.14314 0.0196986 -2.80757e-10)
(1.12162 0.0456804 -5.07909e-11)
(1.08854 0.0596085 2.23549e-11)
(1.05249 0.0621532 1.19538e-11)
(1.01916 0.0558522 -8.20685e-12)
(0.99136 0.0427421 5.11611e-11)
(0.970897 0.0235063 2.82955e-10)
(0.960658 -0.00170265 6.77146e-10)
(0.965148 -0.0310993 1.06891e-09)
(0.987699 -0.0592791 1.30976e-09)
(1.02627 -0.0778578 1.45189e-09)
(1.07236 -0.0792897 1.6674e-09)
(1.11428 -0.0612006 2.00471e-09)
(1.14166 -0.0280789 2.24879e-09)
(1.14851 0.0104928 2.09073e-09)
(1.13441 0.043851 1.49251e-09)
(1.10442 0.0646479 7.42784e-10)
(1.06669 0.0710528 1.71739e-10)
(1.02899 0.0655796 -7.46818e-11)
(0.996518 0.0517987 -2.72084e-11)
(0.972704 0.0315776 2.09632e-10)
(0.961403 0.00513578 5.17394e-10)
(0.967095 -0.0261155 7.96091e-10)
(0.991814 -0.0569617 1.00064e-09)
(1.03211 -0.0792208 1.14177e-09)
(1.07933 -0.0856033 1.24902e-09)
(1.12266 -0.0734174 1.34762e-09)
(1.15262 -0.0456635 1.4521e-09)
(1.16372 -0.00941167 1.53409e-09)
(1.15529 0.0269332 1.49737e-09)
(1.13073 0.055969 1.25027e-09)
(1.09578 0.0729908 8.22775e-10)
(1.05677 0.0767854 3.74853e-10)
(1.01936 0.0689844 8.44286e-11)
(0.988335 0.0519981 3.28816e-11)
(0.968355 0.0273211 1.77927e-10)
(0.964159 -0.00373214 4.08494e-10)
(0.978815 -0.0375707 6.21441e-10)
(1.01118 -0.0674767 7.65748e-10)
(1.05534 -0.085865 8.39818e-10)
(1.1024 -0.087685 8.64941e-10)
(1.14313 -0.0724754 8.64486e-10)
(1.17006 -0.0442915 8.57768e-10)
(1.17894 -0.00999748 8.55386e-10)
(1.16948 0.0231188 8.45116e-10)
(1.14515 0.0493308 7.87286e-10)
(1.11166 0.0653959 6.46333e-10)
(1.07509 0.0702854 4.37104e-10)
(1.04079 0.0642725 2.33087e-10)
(1.01362 0.048046 1.17905e-10)
(0.9986 0.0226124 1.25027e-10)
(1.00031 -0.00954561 2.23152e-10)
(1.02062 -0.0431364 3.51595e-10)
(1.05672 -0.0707289 4.62695e-10)
(1.10152 -0.0855785 5.37716e-10)
(1.14614 -0.0844425 5.78859e-10)
(1.18258 -0.0685566 5.95629e-10)
(1.20542 -0.0427425 5.96861e-10)
(1.21247 -0.0135945 5.89482e-10)
(1.20463 0.0124249 5.79566e-10)
(1.18552 0.0305291 5.7059e-10)
(1.16039 0.0384994 5.58943e-10)
(1.1349 0.0365586 5.32851e-10)
(1.1141 0.0263295 4.80192e-10)
(1.10216 0.00967083 4.00842e-10)
(1.10256 -0.0116379 3.11417e-10)
(1.11748 -0.0352053 2.36768e-10)
(1.14659 -0.0573684 1.95527e-10)
(1.18634 -0.0735822 1.91799e-10)
(1.23071 -0.07981 2.1696e-10)
(1.27291 -0.073927 2.56672e-10)
(1.3069 -0.0563352 2.97273e-10)
(1.32816 -0.0297497 3.29381e-10)
(1.33401 0.00151958 3.4924e-10)
(1.32379 0.0324426 3.58286e-10)
(1.29906 0.05822 3.61021e-10)
(1.26347 0.0752949 3.6227e-10)
(1.2221 0.082038 3.65497e-10)
(1.18034 0.0788381 3.72196e-10)
(1.14282 0.0676665 3.80669e-10)
(1.1127 0.0513655 3.84559e-10)
(1.09154 0.032868 3.74657e-10)
(1.0796 0.0145553 3.45119e-10)
(1.07642 -0.00200267 2.99294e-10)
(1.08104 -0.0158467 2.49431e-10)
(1.09204 -0.0262517 2.10248e-10)
(1.10741 -0.0325185 1.91794e-10)
(1.12459 -0.0340575 1.96438e-10)
(1.14082 -0.0306352 2.20309e-10)
(1.15351 -0.022564 2.56194e-10)
(1.16071 -0.0107146 2.95086e-10)
(1.16125 0.00361193 3.26214e-10)
(1.15482 0.0187979 3.37901e-10)
(1.14191 0.0329779 3.20891e-10)
(1.12377 0.0441705 2.73021e-10)
(1.10229 0.0506076 2.01969e-10)
(1.07983 0.051248 1.23267e-10)
(1.05889 0.0462155 5.40364e-11)
(1.0416 0.0368392 6.04297e-12)
(1.02933 0.0252226 -1.78389e-11)
(1.02249 0.0135681 -2.23199e-11)
(1.02065 0.00361384 -1.54686e-11)
(1.02266 -0.0036574 -4.70838e-12)
(1.02723 -0.00796044 5.16112e-12)
(1.03278 -0.00957724 1.20134e-11)
(1.03849 -0.00899583 1.55371e-11)
(1.0428 -0.00692616 1.63223e-11)
(1.04636 -0.00384942 1.52461e-11)
(1.0466 -0.000494645 1.3072e-11)
(1.0477 0.00270682 1.0749e-11)
(1.04227 0.00642026 7.03528e-12)
(1.00012 -0.0029259 2.5026e-18)
(1.00194 -0.00883049 7.91004e-18)
(1.0061 -0.01492 7.86839e-18)
(1.01247 -0.021146 8.39312e-18)
(1.02135 -0.0273712 1.65523e-17)
(1.03297 -0.0332338 -2.48669e-17)
(1.04744 -0.0381192 2.22809e-16)
(1.06451 -0.0408748 -5.65285e-16)
(1.08312 -0.0402203 -1.98782e-16)
(1.10145 -0.034797 2.81629e-15)
(1.11567 -0.0241056 3.4396e-15)
(1.12301 -0.0114551 -8.90553e-16)
(1.12337 0.000656247 -6.37612e-15)
(1.1173 0.00926131 -1.02109e-14)
(1.1078 0.0114082 -1.10438e-14)
(1.09964 0.0068192 -1.17878e-14)
(1.0968 -0.00220785 -2.45979e-14)
(1.10144 -0.0114662 -6.46995e-14)
(1.11259 -0.0156439 -1.05392e-13)
(1.12528 -0.0105803 -9.45357e-14)
(1.13243 0.00370653 -5.66696e-14)
(1.12893 0.0227401 -2.67902e-14)
(1.11412 0.0405962 -4.51493e-15)
(1.09084 0.0529423 -3.4564e-15)
(1.06321 0.0577891 -5.47422e-14)
(1.03517 0.0547051 1.91308e-13)
(1.01011 0.0438736 5.14057e-13)
(0.991294 0.0256424 -3.99822e-12)
(0.98231 0.000785226 -7.75862e-12)
(0.987431 -0.0283179 5.31279e-11)
(1.00994 -0.0557977 2.48032e-10)
(1.04796 -0.0724913 5.0609e-10)
(1.09184 -0.0703538 6.33089e-10)
(1.12749 -0.0483113 5.00696e-10)
(1.14399 -0.0138459 2.37943e-10)
(1.13859 0.0215605 5.6364e-11)
(1.11598 0.0487368 -8.83844e-12)
(1.08399 0.0640053 -1.34977e-11)
(1.04943 0.0678963 -5.47919e-12)
(1.01673 0.0622329 4.20733e-12)
(0.988753 0.0481581 1.79896e-11)
(0.967935 0.0258725 -1.0155e-11)
(0.957014 -0.00420788 -2.26722e-10)
(0.959881 -0.0394247 -7.97326e-10)
(0.980999 -0.0729179 -1.68877e-09)
(1.02112 -0.0939304 -2.58038e-09)
(1.07291 -0.0922483 -3.04096e-09)
(1.12187 -0.0651264 -2.7958e-09)
(1.15238 -0.0208554 -1.95502e-09)
(1.15533 0.0253939 -9.79599e-10)
(1.13273 0.06027 -2.8637e-10)
(1.09494 0.0781783 1.42241e-11)
(1.05339 0.0806703 5.19242e-11)
(1.01536 0.0720946 3.38859e-11)
(0.983548 0.0556874 1.4889e-10)
(0.959293 0.0320142 4.56421e-10)
(0.946388 0.000229962 7.86382e-10)
(0.951314 -0.0381108 8.97136e-10)
(0.978069 -0.0756149 7.9414e-10)
(1.02289 -0.100456 7.21839e-10)
(1.07476 -0.102536 8.93045e-10)
(1.1203 -0.0792673 1.35145e-09)
(1.14884 -0.0368962 1.92437e-09)
(1.15504 0.0123949 2.2196e-09)
(1.13926 0.0552545 1.9288e-09)
(1.1068 0.0822191 1.18107e-09)
(1.06597 0.0907179 4.15875e-10)
(1.02483 0.0839639 -9.78755e-12)
(0.989076 0.0665922 -2.03596e-11)
(0.962994 0.0407346 2.42008e-10)
(0.951665 0.00631715 5.7671e-10)
(0.960204 -0.0346013 8.56354e-10)
(0.989746 -0.0744969 1.06308e-09)
(1.03502 -0.102362 1.23019e-09)
(1.08599 -0.109158 1.37509e-09)
(1.13137 -0.0921527 1.49018e-09)
(1.16169 -0.0557917 1.57423e-09)
(1.17142 -0.00946678 1.63052e-09)
(1.16012 0.0360575 1.60843e-09)
(1.13197 0.0717373 1.40433e-09)
(1.0936 0.0922368 9.90949e-10)
(1.0518 0.0964875 5.04045e-10)
(1.01228 0.0865296 1.56393e-10)
(0.980012 0.0649357 7.31319e-11)
(0.960266 0.0331412 2.17866e-10)
(0.958274 -0.00704738 4.56415e-10)
(0.976663 -0.0503377 6.67603e-10)
(1.01299 -0.0876144 8.00876e-10)