/*--------------------------------*- C++ -*----------------------------------*\
  =========                 |
  \\      /  F ield         | OpenFOAM: The Open Source CFD Toolbox
   \\    /   O peration     | Website:  https://openfoam.org
    \\  /    A nd           | Version:  11
     \\/     M anipulation  |
\*---------------------------------------------------------------------------*/
FoamFile
{
    format      ascii;
    class       volScalarField;
    location    "4.956202";
    object      p;
}
// * * * * * * * * * * * * * * * * * * * * * * * * * * * * * * * * * * * * * //

dimensions      [0 2 -2 0 0 0 0];

internalField   nonuniform List<scalar> 
7132
(
0.0507971
0.0493426
0.0444352
0.0372452
0.0271608
0.0138427
-0.00285159
-0.0230099
-0.0462341
-0.0717234
-0.0982503
-0.124125
-0.148429
-0.170316
-0.189191
-0.20474
-0.21674
-0.22505
-0.229572
-0.230243
-0.227069
-0.220177
-0.209869
-0.196644
-0.181183
-0.164286
-0.146779
-0.129415
-0.112812
-0.0974104
-0.0834812
-0.0711434
-0.0603998
-0.0511723
-0.0433328
-0.0367283
-0.0311987
-0.0265886
-0.0227548
-0.0195694
-0.0169214
-0.0147162
-0.0128745
-0.0113303
-0.0100295
-0.00892784
-0.00798941
-0.00718498
-0.0064909
-0.005888
-0.00536075
-0.00489651
-0.004485
-0.00411787
-0.00378827
-0.00349062
-0.00322035
-0.0029737
-0.00274759
-0.00253949
-0.0023473
-0.00216928
-0.00200397
-0.00185015
-0.00170679
-0.00157301
-0.00144804
-0.00133123
-0.001222
-0.00111984
-0.00102431
-0.000935019
-0.000851618
-0.000773806
-0.000701314
-0.000633904
-0.000571364
-0.000513501
-0.000460128
-0.000411046
-0.000366017
-0.000324732
-0.000286788
-0.000251698
-0.000218945
-0.000188089
-0.000158911
-0.000131522
-0.000106365
-8.40589e-05
-6.51341e-05
-4.97874e-05
-3.77936e-05
-2.86173e-05
-2.16382e-05
-1.63385e-05
-1.23593e-05
-9.44579e-06
-7.36568e-06
-5.87791e-06
-4.75885e-06
-3.8448e-06
-3.05055e-06
-2.35369e-06
-1.76172e-06
-1.2837e-06
-9.17141e-07
-6.47875e-07
-4.56047e-07
-3.21743e-07
-2.2826e-07
-1.62853e-07
-1.1649e-07
-8.29812e-08
-5.83306e-08
-3.99402e-08
-2.62067e-08
-1.60025e-08
-8.56849e-09
-3.24256e-09
4.54848e-10
2.98489e-09
4.64613e-09
5.73112e-09
6.38263e-09
6.76555e-09
6.92355e-09
6.95494e-09
6.85865e-09
6.70709e-09
6.48068e-09
6.24049e-09
5.95616e-09
5.68173e-09
5.37943e-09
5.09925e-09
4.799e-09
4.52701e-09
4.23854e-09
3.9818e-09
3.70921e-09
3.46993e-09
3.2159e-09
2.99529e-09
2.75946e-09
2.55713e-09
2.33856e-09
2.15355e-09
1.95044e-09
1.78179e-09
1.59146e-09
1.43909e-09
1.25713e-09
1.12381e-09
9.40141e-10
8.402e-10
6.31893e-10
5.67289e-10
4.31213e-10
2.28214e-10
0.0513772
0.049935
0.0450715
0.0379285
0.0278845
0.0145733
-0.00217205
-0.0224764
-0.0459399
-0.071756
-0.0986223
-0.124732
-0.149204
-0.171191
-0.190116
-0.205686
-0.217694
-0.226009
-0.230533
-0.231197
-0.227996
-0.221046
-0.210639
-0.197276
-0.181649
-0.164573
-0.146892
-0.129377
-0.112653
-0.0971681
-0.0831884
-0.0708289
-0.0600856
-0.0508738
-0.0430595
-0.036485
-0.0309868
-0.0264072
-0.0226016
-0.0194413
-0.0168152
-0.0146286
-0.0128024
-0.0112711
-0.00998097
-0.00888804
-0.00795668
-0.00715801
-0.00646861
-0.00586951
-0.00534535
-0.00488363
-0.00447419
-0.00410874
-0.00378052
-0.003484
-0.00321466
-0.00296877
-0.00274329
-0.00253571
-0.00234395
-0.00216628
-0.00200126
-0.0018477
-0.00170455
-0.00157095
-0.00144614
-0.00132947
-0.00122036
-0.0011183
-0.00102286
-0.000933645
-0.000850311
-0.000772557
-0.000700114
-0.000632747
-0.000570245
-0.000512417
-0.000459081
-0.000410043
-0.000365067
-0.000323847
-0.000285979
-0.000250972
-0.0002183
-0.000187512
-0.000158381
-0.000131018
-0.000105869
-8.35666e-05
-6.46546e-05
-4.9339e-05
-3.7395e-05
-2.82795e-05
-2.13599e-05
-1.61093e-05
-1.21654e-05
-9.27606e-06
-7.21479e-06
-5.74571e-06
-4.64762e-06
-3.75655e-06
-2.98545e-06
-2.30984e-06
-1.73556e-06
-1.2708e-06
-9.12937e-07
-6.48298e-07
-4.58029e-07
-3.23408e-07
-2.28827e-07
-1.6231e-07
-1.15225e-07
-8.14611e-08
-5.69222e-08
-3.88396e-08
-2.54608e-08
-1.55579e-08
-8.33448e-09
-3.12787e-09
5.14586e-10
3.02841e-09
4.6866e-09
5.77154e-09
6.41811e-09
6.7945e-09
6.9434e-09
6.96828e-09
6.86586e-09
6.71177e-09
6.48266e-09
6.2423e-09
5.95652e-09
5.68248e-09
5.37893e-09
5.09929e-09
4.79791e-09
4.52659e-09
4.23709e-09
3.98051e-09
3.70772e-09
3.46932e-09
3.21441e-09
2.99472e-09
2.75801e-09
2.55662e-09
2.33716e-09
2.15311e-09
1.94909e-09
1.78144e-09
1.59013e-09
1.43887e-09
1.25567e-09
1.12394e-09
9.3782e-10
8.41742e-10
6.24982e-10
5.76295e-10
4.00374e-10
2.8311e-10
0.0525317
0.051116
0.0463418
0.0392977
0.02934
0.0160487
-0.000793334
-0.02139
-0.0453386
-0.0718262
-0.0993885
-0.125968
-0.150774
-0.172959
-0.191974
-0.207583
-0.219606
-0.227931
-0.232463
-0.23312
-0.229871
-0.222806
-0.212203
-0.198563
-0.182596
-0.165155
-0.14712
-0.129297
-0.112332
-0.096677
-0.0825967
-0.0701945
-0.059453
-0.0502737
-0.0425108
-0.0359972
-0.0305624
-0.0260442
-0.0222952
-0.0191853
-0.0166029
-0.0144536
-0.0126586
-0.0111531
-0.00988423
-0.00880866
-0.00789144
-0.00710425
-0.00642418
-0.00583268
-0.00531469
-0.004858
-0.00445266
-0.00409057
-0.0037651
-0.00347083
-0.00320333
-0.00295896
-0.00273473
-0.00252817
-0.00233726
-0.0021603
-0.00199589
-0.00184282
-0.0017001
-0.00156686
-0.00144237
-0.00132597
-0.0012171
-0.00111525
-0.00101999
-0.000930936
-0.00084774
-0.000770105
-0.000697765
-0.000630487
-0.000568064
-0.000510312
-0.000457055
-0.000408112
-0.000363256
-0.000322189
-0.000284506
-0.000249705
-0.000217235
-0.000186619
-0.000157604
-0.000130285
-0.000105119
-8.27626e-05
-6.37977e-05
-4.84629e-05
-3.65499e-05
-2.75125e-05
-2.0701e-05
-1.55675e-05
-1.17336e-05
-8.93913e-06
-6.95613e-06
-5.54974e-06
-4.50023e-06
-3.64526e-06
-2.90008e-06
-2.24331e-06
-1.68361e-06
-1.23104e-06
-8.83632e-07
-6.27629e-07
-4.43951e-07
-3.13924e-07
-2.22286e-07
-1.57549e-07
-1.11538e-07
-7.84789e-08
-5.44803e-08
-3.68713e-08
-2.39283e-08
-1.44147e-08
-7.51793e-09
-2.5641e-09
8.96833e-10
3.28958e-09
4.87004e-09
5.90589e-09
6.51922e-09
6.87171e-09
7.00147e-09
7.01141e-09
6.89686e-09
6.73407e-09
6.49832e-09
6.25372e-09
5.96463e-09
5.68866e-09
5.38332e-09
5.10277e-09
4.80029e-09
4.52859e-09
4.23839e-09
3.98193e-09
3.70845e-09
3.47012e-09
3.21482e-09
2.9953e-09
2.75827e-09
2.55709e-09
2.33733e-09
2.15352e-09
1.94918e-09
1.78183e-09
1.59009e-09
1.43933e-09
1.25519e-09
1.12487e-09
9.35438e-10
8.45112e-10
6.13896e-10
5.93255e-10
3.4592e-10
3.80709e-10
0.0542508
0.0528767
0.0482433
0.0413579
0.0315435
0.0182979
0.00132387
-0.0197119
-0.0444054
-0.071949
-0.100599
-0.127884
-0.153186
-0.175656
-0.194795
-0.210453
-0.222492
-0.230831
-0.235375
-0.236021
-0.232702
-0.225468
-0.214569
-0.200508
-0.184024
-0.166024
-0.147452
-0.129161
-0.11183
-0.0959207
-0.0816915
-0.0692287
-0.0584934
-0.0493664
-0.0416835
-0.0352634
-0.0299254
-0.0255004
-0.0218369
-0.018803
-0.0162863
-0.0141926
-0.0124443
-0.0109774
-0.00974018
-0.00869046
-0.00779427
-0.00702416
-0.00635797
-0.00577774
-0.00526893
-0.00481973
-0.00442051
-0.00406342
-0.00374205
-0.00345114
-0.00318639
-0.00294428
-0.00272191
-0.0025169
-0.00232726
-0.00215136
-0.00198782
-0.0018355
-0.00169342
-0.00156072
-0.0014367
-0.00132071
-0.00121219
-0.00111066
-0.00101567
-0.000926849
-0.000843857
-0.000766397
-0.000694208
-0.000627059
-0.000564751
-0.000507105
-0.000453959
-0.000405145
-0.000360453
-0.000319593
-0.000282162
-0.000247639
-0.000215447
-0.000185065
-0.000156208
-0.000128952
-0.000103766
-8.13445e-05
-6.2322e-05
-4.69832e-05
-3.51428e-05
-2.62485e-05
-1.96246e-05
-1.46919e-05
-1.10471e-05
-8.41708e-06
-6.56932e-06
-5.26913e-06
-4.29867e-06
-3.49889e-06
-2.79023e-06
-2.15757e-06
-1.61517e-06
-1.17672e-06
-8.41605e-07
-5.96046e-07
-4.20624e-07
-2.96668e-07
-2.09307e-07
-1.47592e-07
-1.03809e-07
-7.24851e-08
-4.989e-08
-3.34241e-08
-2.13979e-08
-1.25944e-08
-6.22729e-09
-1.65207e-09
1.54486e-09
3.75727e-09
5.21214e-09
6.15957e-09
6.70704e-09
7.01085e-09
7.10277e-09
7.08522e-09
6.94948e-09
6.7723e-09
6.52534e-09
6.27372e-09
5.97864e-09
5.6993e-09
5.39051e-09
5.10841e-09
4.80381e-09
4.53155e-09
4.23995e-09
3.9835e-09
3.70898e-09
3.47094e-09
3.21484e-09
2.99575e-09
2.758e-09
2.55735e-09
2.33691e-09
2.15368e-09
1.94864e-09
1.78194e-09
1.58934e-09
1.43953e-09
1.2538e-09
1.12571e-09
9.31477e-10
8.49348e-10
5.98519e-10
6.15615e-10
2.75423e-10
5.05472e-10
0.0565177
0.0552031
0.0507698
0.0441157
0.0345189
0.0213653
0.00424195
-0.0173784
-0.043097
-0.0721461
-0.102333
-0.130555
-0.156507
-0.179332
-0.198608
-0.214312
-0.226363
-0.234722
-0.239296
-0.23995
-0.236558
-0.22911
-0.217816
-0.203177
-0.185979
-0.167206
-0.14789
-0.128957
-0.111128
-0.0948779
-0.080453
-0.0679146
-0.0571942
-0.0481428
-0.0405718
-0.0342804
-0.0290743
-0.0247755
-0.0212272
-0.0182951
-0.0158662
-0.0138469
-0.0121605
-0.0107449
-0.00954962
-0.00853413
-0.00766577
-0.00691825
-0.0062704
-0.00570508
-0.00520842
-0.00476911
-0.00437798
-0.0040275
-0.00371154
-0.00342506
-0.00316396
-0.00292484
-0.00270493
-0.00250194
-0.00231398
-0.00213947
-0.00197711
-0.00182577
-0.00168453
-0.00155256
-0.00142916
-0.00131371
-0.00120567
-0.00110455
-0.00100992
-0.000921416
-0.000838695
-0.000761468
-0.000689478
-0.000622499
-0.000560338
-0.000502827
-0.000449821
-0.000401166
-0.000356675
-0.00031607
-0.000278949
-0.000244774
-0.000212932
-0.000182854
-0.000154208
-0.000127051
-0.000101859
-7.9375e-05
-6.02982e-05
-4.49712e-05
-3.3238e-05
-2.4541e-05
-1.81733e-05
-1.35171e-05
-1.01368e-05
-7.74016e-06
-6.08498e-06
-4.93337e-06
-4.06834e-06
-3.33593e-06
-2.66605e-06
-2.055e-06
-1.52692e-06
-1.10153e-06
-7.80048e-07
-5.47943e-07
-3.84437e-07
-2.70055e-07
-1.89888e-07
-1.33382e-07
-9.33276e-08
-6.46831e-08
-4.40454e-08
-2.90399e-08
-1.81261e-08
-1.01764e-08
-4.46195e-09
-3.76021e-10
2.46115e-09
4.41559e-09
5.68687e-09
6.50507e-09
6.9597e-09
7.1969e-09
7.23918e-09
7.1855e-09
7.02229e-09
6.82559e-09
6.56371e-09
6.30199e-09
5.99893e-09
5.71454e-09
5.40138e-09
5.11681e-09
4.80967e-09
4.53629e-09
4.24313e-09
3.9863e-09
3.71073e-09
3.47268e-09
3.21582e-09
2.99693e-09
2.75856e-09
2.55822e-09
2.33721e-09
2.15436e-09
1.94874e-09
1.78253e-09
1.58914e-09
1.44018e-09
1.25279e-09
1.12708e-09
9.27389e-10
8.54622e-10
5.81522e-10
6.41201e-10
1.99827e-10
6.39154e-10
0.059309
0.0580749
0.0539118
0.0475781
0.0382973
0.0253115
0.00804812
-0.0142978
-0.0413509
-0.0724565
-0.104714
-0.134091
-0.160833
-0.184064
-0.203472
-0.219203
-0.231248
-0.239625
-0.244239
-0.244914
-0.241446
-0.233742
-0.221954
-0.206579
-0.188461
-0.168688
-0.148411
-0.128654
-0.110192
-0.0935147
-0.0788515
-0.0662291
-0.0555383
-0.046592
-0.0391695
-0.0330458
-0.0280093
-0.0238713
-0.0204689
-0.0176649
-0.0153459
-0.0134193
-0.01181
-0.0104578
-0.00931443
-0.00834116
-0.00750708
-0.00678739
-0.00616213
-0.00561518
-0.00513348
-0.00470639
-0.00432525
-0.00398296
-0.0036737
-0.00339272
-0.00313612
-0.0029007
-0.00268383
-0.00248335
-0.00229746
-0.00212468
-0.00196376
-0.00181364
-0.00167343
-0.00154235
-0.00141973
-0.00130495
-0.0011975
-0.0010969
-0.00100272
-0.000914606
-0.000832221
-0.000755281
-0.000683533
-0.000616758
-0.000554771
-0.000497416
-0.000444562
-0.000396079
-0.000351797
-0.000311459
-0.000274664
-0.00024086
-0.000209397
-0.000179659
-0.000151267
-0.00012425
-9.91005e-05
-7.6608e-05
-5.75395e-05
-4.22976e-05
-3.0755e-05
-2.23447e-05
-1.63242e-05
-1.20326e-05
-8.99852e-06
-6.90722e-06
-5.50381e-06
-4.54437e-06
-3.81188e-06
-3.15953e-06
-2.53136e-06
-1.94038e-06
-1.42473e-06
-1.01209e-06
-7.05563e-07
-4.89026e-07
-3.39568e-07
-2.36567e-07
-1.65055e-07
-1.14959e-07
-7.96388e-08
-5.45048e-08
-3.64854e-08
-2.34422e-08
-1.40052e-08
-7.16331e-09
-2.27348e-09
1.20793e-09
3.60641e-09
5.24628e-09
6.29121e-09
6.94701e-09
7.28295e-09
7.43396e-09
7.41205e-09
7.31189e-09
7.11383e-09
6.89248e-09
6.61194e-09
6.33748e-09
6.02441e-09
5.73354e-09
5.41486e-09
5.12706e-09
4.81676e-09
4.54189e-09
4.24681e-09
3.98943e-09
3.71259e-09
3.47448e-09
3.21672e-09
2.99802e-09
2.75893e-09
2.55892e-09
2.33727e-09
2.15484e-09
1.94856e-09
1.78289e-09
1.58861e-09
1.44059e-09
1.25135e-09
1.12828e-09
9.22692e-10
8.60002e-10
5.63768e-10
6.67196e-10
1.26954e-10
7.66789e-10
0.0625929
0.0614643
0.0576539
0.0517511
0.0429161
0.0302151
0.0128606
-0.0103395
-0.0390729
-0.0729369
-0.107918
-0.138641
-0.166287
-0.189932
-0.209419
-0.225133
-0.237153
-0.245563
-0.250266
-0.251021
-0.247512
-0.239527
-0.22714
-0.210841
-0.191554
-0.170509
-0.149018
-0.128228
-0.108985
-0.0917922
-0.0768519
-0.0641435
-0.0535047
-0.0446998
-0.0374681
-0.0315549
-0.0267287
-0.0227879
-0.019563
-0.016914
-0.0147273
-0.0129116
-0.0113944
-0.0101177
-0.00903596
-0.00811275
-0.00731927
-0.00663249
-0.00603394
-0.00550871
-0.00504471
-0.00463208
-0.00426276
-0.00393014
-0.00362881
-0.00335433
-0.00310306
-0.00287201
-0.00265873
-0.00246121
-0.00227777
-0.00210702
-0.00194781
-0.00179913
-0.00166015
-0.00153014
-0.00140843
-0.00129446
-0.00118772
-0.00108774
-0.0009941
-0.00090645
-0.000824466
-0.000747865
-0.000676401
-0.000609862
-0.000548071
-0.000490885
-0.00043819
-0.000389875
-0.000345798
-0.000305716
-0.000269241
-0.000235807
-0.000204735
-0.000175365
-0.000147272
-0.000120462
-9.54323e-05
-7.30197e-05
-5.40539e-05
-3.89936e-05
-2.77366e-05
-1.97043e-05
-1.41181e-05
-1.02736e-05
-7.66498e-06
-5.95149e-06
-4.86021e-06
-4.13578e-06
-3.55874e-06
-2.99172e-06
-2.39962e-06
-1.81951e-06
-1.30915e-06
-9.06345e-07
-6.15479e-07
-4.17119e-07
-2.84728e-07
-1.95779e-07
-1.35041e-07
-9.29569e-08
-6.35261e-08
-4.26901e-08
-2.77951e-08
-1.70304e-08
-9.27315e-09
-3.68056e-09
2.76707e-10
3.06647e-09
4.95568e-09
6.22508e-09
7.00136e-09
7.46392e-09
7.65966e-09
7.70954e-09
7.61326e-09
7.45925e-09
7.2211e-09
6.97104e-09
6.66892e-09
6.3794e-09
6.05474e-09
5.75611e-09
5.43112e-09
5.13939e-09
4.82555e-09
4.54876e-09
4.25162e-09
3.9934e-09
3.71526e-09
3.47688e-09
3.21823e-09
2.99957e-09
2.75981e-09
2.56e-09
2.33777e-09
2.15565e-09
1.94876e-09
1.78354e-09
1.58841e-09
1.44126e-09
1.25018e-09
1.12973e-09
9.18274e-10
8.65564e-10
5.47065e-10
6.92057e-10
6.26844e-11
8.78877e-10
0.0663279
0.065334
0.0619731
0.0566369
0.0484162
0.0361719
0.0188307
-0.00532642
-0.0361324
-0.0736835
-0.112206
-0.1444
-0.17303
-0.197067
-0.216556
-0.232179
-0.244115
-0.252541
-0.257352
-0.258233
-0.254725
-0.246456
-0.233385
-0.21598
-0.195264
-0.172655
-0.149672
-0.127627
-0.10745
-0.0896558
-0.0744078
-0.0616222
-0.0510688
-0.0424509
-0.0354599
-0.029806
-0.0252344
-0.0215297
-0.0185152
-0.0160483
-0.014016
-0.0123292
-0.0109181
-0.00972831
-0.00871714
-0.00785116
-0.00710401
-0.00645479
-0.00588672
-0.00538631
-0.00494256
-0.0045465
-0.00419075
-0.00386926
-0.00357706
-0.00331006
-0.00306492
-0.0028389
-0.00262975
-0.00243562
-0.00225498
-0.00208657
-0.0019293
-0.00178227
-0.00164471
-0.00151591
-0.00139526
-0.00128223
-0.0011763
-0.00107704
-0.000984034
-0.000896928
-0.000815408
-0.000739197
-0.000668056
-0.00060178
-0.000540201
-0.000483189
-0.000430643
-0.000382478
-0.00033857
-0.000298702
-0.000262496
-0.000229389
-0.000198679
-0.00016968
-0.00014193
-0.000115412
-9.06273e-05
-6.84426e-05
-4.97355e-05
-3.50046e-05
-2.41629e-05
-1.66184e-05
-1.15611e-05
-8.2488e-06
-6.14755e-06
-4.88855e-06
-4.17403e-06
-3.72956e-06
-3.32941e-06
-2.84862e-06
-2.28178e-06
-1.69925e-06
-1.18487e-06
-7.88419e-07
-5.13935e-07
-3.36136e-07
-2.23125e-07
-1.49912e-07
-1.01124e-07
-6.79492e-08
-4.51468e-08
-2.92086e-08
-1.7901e-08
-9.75766e-09
-3.92836e-09
2.38048e-10
3.13887e-09
5.15113e-09
6.47125e-09
7.32736e-09
7.80339e-09
8.04882e-09
8.08624e-09
8.02134e-09
7.84062e-09
7.62545e-09
7.34199e-09
7.05946e-09
6.73309e-09
6.42654e-09
6.08888e-09
5.78141e-09
5.44936e-09
5.15311e-09
4.83533e-09
4.55631e-09
4.25689e-09
3.99766e-09
3.71812e-09
3.47937e-09
3.21979e-09
3.00111e-09
2.76066e-09
2.56101e-09
2.33818e-09
2.15634e-09
1.94885e-09
1.78404e-09
1.58808e-09
1.44178e-09
1.24889e-09
1.131e-09
9.13924e-10
8.70708e-10
5.31863e-10
7.14285e-10
9.23112e-12
9.71132e-10
0.0704608
0.0696356
0.0668359
0.062231
0.0548405
0.0432983
0.0261554
0.000991382
-0.0323346
-0.0748354
-0.117948
-0.151633
-0.18125
-0.205543
-0.224867
-0.240303
-0.252125
-0.260615
-0.265643
-0.266783
-0.263373
-0.254828
-0.240955
-0.222201
-0.199717
-0.175175
-0.150365
-0.126806
-0.105526
-0.0870445
-0.0714668
-0.0586249
-0.0482021
-0.0398274
-0.0331348
-0.0277944
-0.0235253
-0.0200976
-0.0173273
-0.0150702
-0.0132146
-0.0116743
-0.0103835
-0.00929169
-0.0083599
-0.00755811
-0.00686286
-0.00625565
-0.00572168
-0.00524903
-0.00482794
-0.00445042
-0.00410988
-0.00380086
-0.00351888
-0.00326025
-0.00302197
-0.00280157
-0.00259702
-0.00240668
-0.00222917
-0.00206336
-0.00190828
-0.0017631
-0.00162712
-0.0014997
-0.00138026
-0.00126828
-0.0011633
-0.00106486
-0.000972571
-0.000886087
-0.000805095
-0.000729324
-0.000658542
-0.000592551
-0.000531193
-0.00047435
-0.000421937
-0.000373885
-0.000330095
-0.000290372
-0.00025436
-0.000221507
-0.000191113
-0.000162481
-0.000135131
-0.000109023
-8.46509e-05
-6.28916e-05
-4.46405e-05
-3.04124e-05
-2.01229e-05
-1.31671e-05
-8.71691e-06
-6.00881e-06
-4.4901e-06
-3.76235e-06
-3.49178e-06
-3.37193e-06
-3.16429e-06
-2.7601e-06
-2.19577e-06
-1.58767e-06
-1.05405e-06
-6.58126e-07
-4.00519e-07
-2.4612e-07
-1.55183e-07
-9.95624e-08
-6.39556e-08
-4.06031e-08
-2.51429e-08
-1.46276e-08
-7.25611e-09
-1.95245e-09
1.80917e-09
4.45266e-09
6.22529e-09
7.40464e-09
8.11252e-09
8.52173e-09
8.67205e-09
8.68141e-09
8.54704e-09
8.35778e-09
8.08603e-09
7.8049e-09
7.4728e-09
7.15523e-09
6.8028e-09
6.47776e-09
6.12614e-09
5.80901e-09
5.46941e-09
5.16817e-09
4.84625e-09
4.5647e-09
4.26292e-09
4.00249e-09
3.72154e-09
3.48228e-09
3.22179e-09
3.00296e-09
2.76186e-09
2.56227e-09
2.33891e-09
2.15725e-09
1.94922e-09
1.78474e-09
1.588e-09
1.44245e-09
1.24788e-09
1.13235e-09
9.1014e-10
8.75526e-10
5.189e-10
7.33515e-10
-3.30098e-11
1.04364e-09
0.0749249
0.0743066
0.0721943
0.068515
0.0622254
0.0517232
0.0350727
0.00894598
-0.0274166
-0.0766404
-0.125674
-0.160637
-0.191209
-0.215619
-0.234566
-0.24962
-0.261176
-0.269676
-0.274962
-0.276485
-0.273322
-0.264589
-0.249867
-0.229546
-0.204943
-0.17806
-0.151046
-0.125687
-0.103126
-0.0838775
-0.0679633
-0.0551037
-0.0448737
-0.0368124
-0.0304868
-0.0255215
-0.0216079
-0.0185006
-0.0160095
-0.0139898
-0.0123323
-0.0109551
-0.00979732
-0.00881318
-0.00796834
-0.00723666
-0.00659801
-0.00603661
-0.00553985
-0.00509755
-0.00470131
-0.00434419
-0.00402041
-0.00372516
-0.00345449
-0.00320513
-0.00297442
-0.00276021
-0.00256074
-0.00237455
-0.00220047
-0.00203751
-0.00188481
-0.00174166
-0.00160742
-0.00148151
-0.00136341
-0.00125262
-0.00114868
-0.00105117
-0.000959699
-0.000873919
-0.000793522
-0.000718243
-0.000647854
-0.000582169
-0.000521037
-0.000464352
-0.000412042
-0.000364053
-0.000320308
-0.000280635
-0.000244707
-0.000212007
-0.000181858
-0.00015358
-0.000126697
-0.000101159
-7.74324e-05
-5.63634e-05
-3.88233e-05
-2.53048e-05
-1.57076e-05
-9.42659e-06
-5.63718e-06
-3.58979e-06
-2.72333e-06
-2.60706e-06
-2.85386e-06
-3.10583e-06
-3.10187e-06
-2.75464e-06
-2.15856e-06
-1.49294e-06
-9.20488e-07
-5.18396e-07
-2.78693e-07
-1.50829e-07
-8.42191e-08
-4.71539e-08
-2.50674e-08
-1.17979e-08
-3.99414e-09
7.90575e-10
3.98933e-09
6.28765e-09
7.86238e-09
8.89423e-09
9.47381e-09
9.77461e-09
9.83884e-09
9.77896e-09
9.58742e-09
9.34856e-09
9.03329e-09
8.71274e-09
8.34489e-09
7.99407e-09
7.61067e-09
7.2561e-09
6.87627e-09
6.53171e-09
6.16543e-09
5.83805e-09
5.49055e-09
5.18399e-09
4.85773e-09
4.57347e-09
4.26925e-09
4.00749e-09
3.7251e-09
3.48524e-09
3.22384e-09
3.00482e-09
2.76308e-09
2.56351e-09
2.33963e-09
2.15811e-09
1.94956e-09
1.78536e-09
1.58791e-09
1.44303e-09
1.2469e-09
1.13353e-09
9.06749e-10
8.7972e-10
5.08056e-10
7.49444e-10
-6.53597e-11
1.0986e-09
0.0796386
0.0792692
0.0779819
0.0754544
0.0705981
0.061597
0.0458901
0.019024
-0.0209704
-0.0794327
-0.13621
-0.171892
-0.20307
-0.227164
-0.245439
-0.260003
-0.271295
-0.279924
-0.285674
-0.287831
-0.285106
-0.276243
-0.26054
-0.238321
-0.211117
-0.181364
-0.151683
-0.124188
-0.100154
-0.0800658
-0.0638252
-0.0510068
-0.04105
-0.0333864
-0.0275061
-0.022984
-0.0194821
-0.0167407
-0.0145648
-0.0128103
-0.0113723
-0.0101746
-0.00916227
-0.00829542
-0.0075449
-0.00688906
-0.00631152
-0.00579953
-0.00534293
-0.00493339
-0.00456401
-0.00422894
-0.00392329
-0.00364295
-0.0033845
-0.00314515
-0.00292262
-0.00271508
-0.00252106
-0.00233935
-0.00216896
-0.00200906
-0.00185895
-0.001718
-0.00158566
-0.00146141
-0.00134478
-0.0012353
-0.00113253
-0.00103606
-0.000945502
-0.000860509
-0.000780776
-0.000706039
-0.000636078
-0.000570714
-0.000509808
-0.000453262
-0.000401017
-0.000353031
-0.000309243
-0.000269509
-0.000233544
-0.000200883
-0.000170911
-0.000142988
-0.000116681
-9.19265e-05
-6.9128e-05
-4.90639e-05
-3.25157e-05
-1.99076e-05
-1.11183e-05
-5.55094e-06
-2.43182e-06
-1.06789e-06
-9.07843e-07
-1.48169e-06
-2.32236e-06
-2.99219e-06
-3.19368e-06
-2.868e-06
-2.18924e-06
-1.42191e-06
-7.85154e-07
-3.69225e-07
-1.49467e-07
-5.2136e-08
-1.21671e-08
5.79929e-09
1.4466e-08
1.76848e-08
1.76647e-08
1.65263e-08
1.54318e-08
1.46681e-08
1.40254e-08
1.34215e-08
1.27874e-08
1.21936e-08
1.16021e-08
1.10637e-08
1.05229e-08
1.00301e-08
9.52982e-09
9.07505e-09
8.60917e-09
8.18721e-09
7.7516e-09
7.35927e-09
6.95157e-09
6.58701e-09
6.20583e-09
5.86793e-09
5.51241e-09
5.20035e-09
4.86971e-09
4.58262e-09
4.27596e-09
4.01277e-09
3.72897e-09
3.48844e-09
3.22617e-09
3.00687e-09
2.76455e-09
2.56491e-09
2.34057e-09
2.15911e-09
1.95011e-09
1.78611e-09
1.58801e-09
1.4437e-09
1.24619e-09
1.1347e-09
9.03985e-10
8.83417e-10
4.99395e-10
7.62419e-10
-8.94339e-11
1.13936e-09
0.0845034
0.0844258
0.0841081
0.082981
0.0799549
0.07305
0.0589465
0.031847
-0.0125001
-0.0838887
-0.150483
-0.185777
-0.217491
-0.240894
-0.257929
-0.271517
-0.282219
-0.290891
-0.297232
-0.300343
-0.298453
-0.289743
-0.273084
-0.24868
-0.218341
-0.185098
-0.1522
-0.122187
-0.0964768
-0.0754907
-0.0589615
-0.0462722
-0.0366946
-0.0295331
-0.0241912
-0.0201899
-0.0171619
-0.0148344
-0.0130097
-0.0115473
-0.0103483
-0.00934422
-0.00848759
-0.00774547
-0.00709477
-0.00651896
-0.00600583
-0.00554596
-0.00513181
-0.00475704
-0.00441628
-0.00410483
-0.00381869
-0.00355441
-0.00330916
-0.0030806
-0.00286686
-0.00266648
-0.00247828
-0.00230132
-0.00213484
-0.00197819
-0.00183081
-0.00169219
-0.00156188
-0.00143941
-0.00132437
-0.00121632
-0.00111484
-0.00101952
-0.000929982
-0.000845872
-0.00076688
-0.000692744
-0.00062325
-0.000558226
-0.000497545
-0.000441121
-0.000388901
-0.000340852
-0.000296927
-0.000257016
-0.000220889
-0.000188159
-0.000158309
-0.000130792
-0.000105198
-8.14809e-05
-5.99777e-05
-4.12796e-05
-2.60191e-05
-1.4511e-05
-6.57698e-06
-1.68671e-06
8.05722e-07
1.50082e-06
9.14653e-07
-4.29308e-07
-1.9461e-06
-3.08032e-06
-3.4807e-06
-3.12691e-06
-2.29981e-06
-1.37724e-06
-6.47941e-07
-2.1185e-07
-1.62206e-08
4.56663e-08
5.71825e-08
5.66316e-08
5.29999e-08
4.68539e-08
3.92046e-08
3.217e-08
2.6805e-08
2.30137e-08
2.01764e-08
1.79421e-08
1.60933e-08
1.46046e-08
1.33593e-08
1.23444e-08
1.1456e-08
1.07101e-08
1.00254e-08
9.43675e-09
8.87304e-09
8.38002e-09
7.89232e-09
7.46227e-09
7.02678e-09
6.64226e-09
6.24623e-09
5.89779e-09
5.5343e-09
5.21671e-09
4.88175e-09
4.59178e-09
4.28272e-09
4.01806e-09
3.73289e-09
3.49163e-09
3.22852e-09
3.00891e-09
2.76604e-09
2.5663e-09
2.34153e-09
2.16009e-09
1.95068e-09
1.78682e-09
1.58815e-09
1.44432e-09
1.2456e-09
1.13571e-09
9.01678e-10
8.86508e-10
4.92547e-10
7.72681e-10
-1.07103e-10
1.16907e-09
0.0894034
0.0896608
0.090454
0.0909971
0.0902572
0.0862384
0.0746932
0.0484374
-0.00109744
-0.090963
-0.170884
-0.202879
-0.233692
-0.255796
-0.271579
-0.28433
-0.294577
-0.303529
-0.310767
-0.315168
-0.314388
-0.305977
-0.288214
-0.261133
-0.226904
-0.189347
-0.152538
-0.119547
-0.091939
-0.0700156
-0.053268
-0.040829
-0.0317638
-0.0252284
-0.0205302
-0.0171344
-0.014646
-0.0127822
-0.0113459
-0.0102026
-0.00926248
-0.00846634
-0.00777576
-0.00716588
-0.00662055
-0.00612896
-0.0056835
-0.00527838
-0.00490884
-0.00457067
-0.00426007
-0.00397356
-0.003708
-0.00346068
-0.00322934
-0.00301213
-0.00280762
-0.00261472
-0.0024326
-0.0022606
-0.00209821
-0.00194498
-0.00180048
-0.00166434
-0.00153619
-0.00141564
-0.00130231
-0.00119582
-0.00109576
-0.00100171
-0.000913309
-0.000830178
-0.000752006
-0.000678529
-0.000609537
-0.000544871
-0.000484415
-0.000428094
-0.000375862
-0.000327691
-0.00028355
-0.000243366
-0.000206981
-0.00017412
-0.000144396
-0.000117384
-9.27525e-05
-7.03939e-05
-5.05099e-05
-3.35179e-05
-1.97878e-05
-9.44997e-06
-2.32939e-06
1.981e-06
3.95981e-06
4.04384e-06
2.6919e-06
5.04381e-07
-1.76752e-06
-3.40515e-06
-3.98518e-06
-3.5396e-06
-2.48628e-06
-1.34981e-06
-5.0099e-07
-4.26811e-08
1.20817e-07
1.4055e-07
1.2171e-07
1.03803e-07
8.95606e-08
7.49741e-08
6.00363e-08
4.72465e-08
3.77486e-08
3.10648e-08
2.6131e-08
2.23242e-08
1.92965e-08
1.69396e-08
1.50614e-08
1.35856e-08
1.23605e-08
1.13693e-08
1.05059e-08
9.78731e-09
9.12887e-09
8.56701e-09
8.0289e-09
7.5623e-09
7.09995e-09
6.69604e-09
6.28566e-09
5.92698e-09
5.55578e-09
5.23279e-09
4.89366e-09
4.60086e-09
4.2895e-09
4.02338e-09
3.7369e-09
3.49491e-09
3.23099e-09
3.01106e-09
2.76768e-09
2.56779e-09
2.34264e-09
2.16117e-09
1.9514e-09
1.78763e-09
1.58845e-09
1.445e-09
1.24525e-09
1.1367e-09
8.99918e-10
8.89142e-10
4.87335e-10
7.80745e-10
-1.19866e-10
1.19057e-09
0.0942057
0.0948333
0.0968652
0.0993295
0.101385
0.101154
0.0935103
0.069821
0.0138852
-0.101322
-0.19776
-0.225149
-0.255276
-0.274429
-0.287329
-0.298164
-0.307354
-0.316504
-0.324952
-0.331238
-0.332289
-0.324784
-0.306082
-0.275938
-0.236989
-0.194135
-0.152578
-0.116076
-0.0863368
-0.0634656
-0.0466155
-0.0345944
-0.0262139
-0.0204579
-0.016529
-0.0138363
-0.0119599
-0.0106118
-0.00959998
-0.00880038
-0.00813524
-0.00755743
-0.00703951
-0.0065661
-0.00612892
-0.00572352
-0.00534731
-0.00499836
-0.00467481
-0.00437461
-0.00409553
-0.00383522
-0.00359142
-0.00336207
-0.00314547
-0.00294025
-0.00274545
-0.00256038
-0.00238457
-0.0022177
-0.00205952
-0.00190978
-0.00176825
-0.00163466
-0.00150875
-0.00139021
-0.00127871
-0.00117388
-0.00107535
-0.0009827
-0.00089554
-0.000813492
-0.000736227
-0.000663477
-0.000595036
-0.000530758
-0.000470542
-0.000414323
-0.000362062
-0.000313739
-0.00026934
-0.000228843
-0.00019218
-0.000159209
-0.000129703
-0.000103373
-7.99481e-05
-5.92737e-05
-4.13485e-05
-2.62765e-05
-1.41593e-05
-4.97057e-06
1.46807e-06
5.39545e-06
7.02382e-06
6.57546e-06
4.44555e-06
1.34452e-06
-1.7566e-06
-3.93006e-06
-4.66542e-06
-4.06396e-06
-2.71158e-06
-1.31278e-06
-3.29073e-07
1.44174e-07
2.62095e-07
2.30931e-07
1.797e-07
1.46049e-07
1.23282e-07
1.01388e-07
7.96512e-08
6.13843e-08
4.80076e-08
3.8647e-08
3.1764e-08
2.6473e-08
2.23239e-08
1.91429e-08
1.66668e-08
1.47566e-08
1.32142e-08
1.19916e-08
1.09595e-08
1.01185e-08
9.37062e-09
8.74374e-09
8.15806e-09
7.65693e-09
7.16923e-09
6.747e-09
6.32309e-09
5.95469e-09
5.57624e-09
5.24812e-09
4.90506e-09
4.60956e-09
4.29605e-09
4.02851e-09
3.74081e-09
3.49811e-09
3.23348e-09
3.01318e-09
2.76933e-09
2.56926e-09
2.34377e-09
2.16224e-09
1.95215e-09
1.78843e-09
1.58881e-09
1.44565e-09
1.24503e-09
1.13756e-09
8.98557e-10
8.91294e-10
4.83392e-10
7.86945e-10
-1.29043e-10
1.20601e-09
0.0987621
0.0997874
0.103147
0.107774
0.113126
0.117894
0.115994
0.0988499
0.0345568
-0.124197
-0.238544
-0.24798
-0.276402
-0.294205
-0.30504
-0.31379
-0.321412
-0.330359
-0.339746
-0.347901
-0.350997
-0.344788
-0.325437
-0.292183
-0.248038
-0.199149
-0.152127
-0.111633
-0.0795645
-0.0557705
-0.0389681
-0.0275595
-0.0200534
-0.0152387
-0.0122068
-0.0103129
-0.00911796
-0.00833452
-0.00778106
-0.0073481
-0.00697325
-0.00662385
-0.00628515
-0.00595247
-0.00562628
-0.00530905
-0.00500356
-0.00471194
-0.00443537
-0.00417399
-0.00392714
-0.00369363
-0.00347203
-0.00326098
-0.00305935
-0.00286629
-0.0026813
-0.00250412
-0.0023347
-0.00217303
-0.00201913
-0.00187298
-0.0017345
-0.00160357
-0.00147999
-0.00136355
-0.00125396
-0.0011509
-0.00105399
-0.000962833
-0.000877002
-0.000796108
-0.00071981
-0.000647835
-0.000579986
-0.000516128
-0.000456178
-0.000400085
-0.000347818
-0.000299368
-0.00025475
-0.000214001
-0.000177159
-0.000144227
-0.000115136
-8.97249e-05
-6.77555e-05
-4.89619e-05
-3.31035e-05
-1.99748e-05
-9.37804e-06
-1.13092e-06
4.88172e-06
8.65478e-06
1.0091e-05
9.1778e-06
6.2576e-06
2.18831e-06
-1.7939e-06
-4.52047e-06
-5.38651e-06
-4.58069e-06
-2.88706e-06
-1.20931e-06
-1.00377e-07
3.64887e-07
4.15829e-07
3.21405e-07
2.33876e-07
1.84822e-07
1.54571e-07
1.26025e-07
9.78068e-08
7.43317e-08
5.73707e-08
4.55905e-08
3.69394e-08
3.02822e-08
2.50956e-08
2.11557e-08
1.81326e-08
1.5826e-08
1.39939e-08
1.25599e-08
1.13739e-08
1.0421e-08
9.59159e-09
8.90537e-09
8.27629e-09
7.74364e-09
7.23283e-09
6.79385e-09
6.3576e-09
5.98031e-09
5.59525e-09
5.26241e-09
4.91577e-09
4.61777e-09
4.3023e-09
4.03344e-09
3.74463e-09
3.50125e-09
3.23603e-09
3.01533e-09
2.77104e-09
2.57079e-09
2.34499e-09
2.16338e-09
1.953e-09
1.7893e-09
1.58931e-09
1.44636e-09
1.24501e-09
1.1384e-09
8.97621e-10
8.93099e-10
4.80529e-10
7.91708e-10
-1.35557e-10
1.21708e-09
0.102913
0.104339
0.109069
0.115963
0.125116
0.135746
0.142331
0.134772
0.0628474
-0.133902
-0.305412
-0.293301
-0.30775
-0.313991
-0.318194
-0.322782
-0.32808
-0.336769
-0.347378
-0.358178
-0.364142
-0.360059
-0.341162
-0.305976
-0.257526
-0.203064
-0.150705
-0.10622
-0.0718425
-0.0472199
-0.0306151
-0.0199882
-0.0135146
-0.0097726
-0.00773771
-0.0067128
-0.00624534
-0.00605434
-0.00597422
-0.0059144
-0.00583113
-0.0057085
-0.00554602
-0.00535068
-0.00513226
-0.00490044
-0.00466347
-0.00442756
-0.00419684
-0.00397356
-0.00375854
-0.00355163
-0.00335219
-0.00315944
-0.00297279
-0.00279188
-0.00261668
-0.00244739
-0.00228432
-0.00212782
-0.00197817
-0.00183557
-0.00170012
-0.0015718
-0.00145054
-0.00133618
-0.0012285
-0.0011272
-0.00103193
-0.00094226
-0.000857774
-0.000778056
-0.000702753
-0.000631588
-0.000564371
-0.000500986
-0.000441365
-0.000385471
-0.000333288
-0.000284827
-0.000240143
-0.000199339
-0.000162558
-0.000129933
-0.00010152
-7.72355e-05
-5.68265e-05
-3.98928e-05
-2.59436e-05
-1.44746e-05
-5.05564e-06
2.57329e-06
8.41419e-06
1.21932e-05
1.35021e-05
1.21171e-05
8.3632e-06
3.27879e-06
-1.61478e-06
-4.90459e-06
-5.89973e-06
-4.89264e-06