/*--------------------------------*- C++ -*----------------------------------*\
  =========                 |
  \\      /  F ield         | OpenFOAM: The Open Source CFD Toolbox
   \\    /   O peration     | Website:  https://openfoam.org
    \\  /    A nd           | Version:  11
     \\/     M anipulation  |
\*---------------------------------------------------------------------------*/
FoamFile
{
    format      ascii;
    class       surfaceScalarField;
    location    "16.124779";
    object      phi;
}
// * * * * * * * * * * * * * * * * * * * * * * * * * * * * * * * * * * * * * //

dimensions      [0 3 -1 0 0 0 0];

internalField   nonuniform List<scalar> 
14638
(
0.00250217
-2.1712e-06
0.00250856
-6.39048e-06
0.00251933
-1.07658e-05
0.00253481
-1.5479e-05
0.00255544
-2.06381e-05
0.00258154
-2.60997e-05
0.00261304
-3.14921e-05
0.00264905
-3.60164e-05
0.00268783
-3.87744e-05
0.00272666
-3.88297e-05
0.00276226
-3.56067e-05
0.00279209
-2.98259e-05
0.00281409
-2.19989e-05
0.00282655
-1.24651e-05
0.00282786
-1.3067e-06
0.0028164
1.14609e-05
0.0027916
2.47971e-05
0.00275503
3.6568e-05
0.00271053
4.45031e-05
0.00266356
4.69699e-05
0.00262033
4.32274e-05
0.00258695
3.33876e-05
0.00256856
1.8383e-05
0.00256851
5.28824e-08
0.00258713
-1.86165e-05
0.00262051
-3.33845e-05
0.00266019
-3.96764e-05
0.0026949
-3.47163e-05
0.00271442
-1.95175e-05
0.00271312
1.30246e-06
0.00269122
2.19012e-05
0.00265348
3.77423e-05
0.00260694
4.65339e-05
0.00255925
4.76917e-05
0.00251784
4.14142e-05
0.0024897
2.8132e-05
0.00248108
8.62337e-06
0.00249634
-1.52562e-05
0.00253586
-3.95239e-05
0.00259379
-5.793e-05
0.00265774
-6.39468e-05
0.002712
-5.42626e-05
0.00274319
-3.11904e-05
0.00274496
-1.76742e-06
0.00271915
2.58086e-05
0.00267347
4.56797e-05
0.00261789
5.55825e-05
0.00256205
5.58414e-05
0.00251439
4.76518e-05
0.00248241
3.19802e-05
0.00247275
9.66661e-06
0.00249014
-1.73896e-05
0.00253493
-4.47942e-05
0.00260054
-6.56134e-05
0.00267324
-7.26926e-05
0.00273558
-6.23443e-05
0.00277242
-3.68398e-05
0.00277612
-3.70244e-06
0.00274836
2.77636e-05
0.00269799
5.03709e-05
0.0026369
6.10842e-05
0.00257647
6.04299e-05
0.002526
5.04775e-05
0.00249289
3.31054e-05
0.00248319
9.70118e-06
0.00250084
-1.76501e-05
0.00254554
-4.46991e-05
0.0026106
-6.50593e-05
0.00268292
-7.23241e-05
0.00274606
-6.31411e-05
0.00278529
-3.9221e-05
0.00279224
-6.95656e-06
0.00276718
2.50642e-05
0.00271791
4.92629e-05
0.00265648
6.14346e-05
0.0025953
6.11786e-05
0.00254475
5.05517e-05
0.00251257
3.2183e-05
0.00250416
8.40444e-06
0.0025222
-1.80392e-05
0.00256507
-4.28686e-05
0.00262556
-6.04876e-05
0.00269144
-6.58866e-05
0.00274841
-5.69702e-05
0.0027841
-3.56855e-05
0.00279144
-7.34033e-06
0.00277018
2.12599e-05
0.00272629
4.38945e-05
0.0026698
5.64831e-05
0.00261214
5.76663e-05
0.00256376
4.83744e-05
0.00253296
3.08069e-05
0.00252522
7.73568e-06
0.00254255
-1.73279e-05
0.00258234
-3.97908e-05
0.00263694
-5.46025e-05
0.00269488
-5.79356e-05
0.00274372
-4.88466e-05
0.00277346
-2.97355e-05
0.00277883
-5.37528e-06
0.00276008
1.87588e-05
0.00272208
3.79906e-05
0.00267283
4.92546e-05
0.00262163
5.12041e-05
0.00257769
4.39322e-05
0.00254905
2.86474e-05
0.00254143
7.61942e-06
0.00255703
-1.56068e-05
0.00259336
-3.63225e-05
0.00264302
-4.96661e-05
0.0026953
-5.22814e-05
0.00273897
-4.36618e-05
0.00276529
-2.63254e-05
0.00277005
-4.7595e-06
0.00275386
1.61907e-05
0.00272118
3.26821e-05
0.00267874
4.24387e-05
0.00263421
4.45293e-05
0.00259534
3.88666e-05
0.00256935
2.59917e-05
0.00256197
7.38128e-06
0.00257602
-1.40458e-05
0.00260998
-3.39606e-05
0.00265761
-4.76351e-05
0.00270918
-5.15663e-05
0.002754
-4.48187e-05
0.00278334
-2.9344e-05
0.00279252
-9.17996e-06
0.00278153
1.09867e-05
0.0027543
2.72342e-05
0.00271706
3.72377e-05
0.00267681
4.02541e-05
0.00264031
3.64986e-05
0.0026138
2.651e-05
0.00260272
1.10762e-05
0.00261095
-8.22841e-06
0.00263948
-2.85277e-05
0.00268538
-4.59058e-05
0.00274192
-5.65384e-05
0.0028
-5.80793e-05
0.0028505
-5.05018e-05
0.00288652
-3.60157e-05
0.00290475
-1.8226e-05
0.00290574
-9.90868e-07
0.00289315
1.25846e-05
0.00287239
2.07604e-05
0.00284912
2.32731e-05
0.00282808
2.1035e-05
0.00281248
1.56032e-05
0.00280378
8.69762e-06
0.00280191
1.87491e-06
0.00280545
-3.53868e-06
0.00281207
-6.62758e-06
0.00281892
-6.84818e-06
0.00282351
-4.58915e-06
0.00282391
-3.93886e-07
0.0028204
3.50436e-06
0.00281325
7.15123e-06
0.00280666
6.59186e-06
3.71189e-06
0.00250215
-4.32497e-06
0.00250849
-1.27303e-05
0.00251919
-2.14613e-05
0.00253461
-3.09008e-05
0.00255525
-4.12791e-05
0.00258147
-5.23217e-05
0.00261327
-6.32888e-05
0.0026498
-7.25437e-05
0.00268927
-7.8246e-05
0.00272885
-7.84134e-05
0.00276509
-7.18474e-05
0.00279542
-6.01478e-05
0.00281782
-4.44016e-05
0.00283065
-2.5301e-05
0.00283227
-2.9214e-06
0.00282086
2.28651e-05
0.00279567
4.99901e-05
0.00275821
7.40285e-05
0.00271244
9.02787e-05
0.002664
9.54037e-05
0.00261932
8.79124e-05
0.00258468
6.80259e-05
0.00256549
3.7576e-05
0.00256535
1.86697e-07
0.00258488
-3.81459e-05
0.00262019
-6.86952e-05
0.00266238
-8.1868e-05
0.00269942
-7.1754e-05
0.00272033
-4.04243e-05
0.00271918
2.44809e-06
0.00269639
4.4691e-05
0.00265714
7.69994e-05
0.00260883
9.48431e-05
0.0025593
9.72152e-05
0.0025161
8.4614e-05
0.00248638
5.78581e-05
0.00247668
1.83233e-05
0.00249189
-3.04697e-05
0.00253285
-8.04877e-05
0.00259366
-0.000118731
0.00266114
-0.000131431
0.00271843
-0.000111554
0.00275119
-6.39494e-05
0.0027528
-3.37417e-06
0.00272549
5.31123e-05
0.00267766
9.35107e-05
0.00261981
0.00011343
0.00256183
0.000113821
0.00251221
9.72769e-05
0.00247849
6.56965e-05
0.00246763
2.05267e-05
0.00248491
-3.46639e-05
0.00253114
-9.10293e-05
0.00259976
-0.000134233
0.00267633
-0.00014926
0.0027422
-0.000128214
0.00278108
-7.57168e-05
0.00278484
-7.47012e-06
0.00275547
5.71366e-05
0.00270259
0.000103254
0.00263885
0.000124825
0.00257602
0.000123257
0.00252344
0.000103058
0.00248844
6.81001e-05
0.00247718
2.09612e-05
0.00249402
-3.44909e-05
0.00253916
-8.9832e-05
0.00260607
-0.000131974
0.0026813
-0.000147555
0.0027476
-0.000129434
0.00278932
-8.09463e-05
0.00279751
-1.51478e-05
0.00277225
5.03269e-05
0.00272163
9.98828e-05
0.00265818
0.000124886
0.00259478
0.000124575
0.00254209
0.000103243
0.00250805
6.6228e-05
0.00249837
1.80824e-05
0.00251615
-3.58237e-05
0.00256004
-8.67612e-05
0.00262262
-0.00012306
0.00269098
-0.000134245
0.00275004
-0.000116033
0.00278696
-7.26032e-05
0.00279459
-1.49718e-05
0.00277285
4.29933e-05
0.00272797
8.87783e-05
0.00267019
0.000114266
0.00261105
0.0001168
0.0025612
9.82285e-05
0.00252918
6.28261e-05
0.00252093
1.59855e-05
0.00253885
-3.52464e-05
0.0025804
-8.1338e-05
0.00263746
-0.000111668
0.00269776
-0.000118233
0.00274812
-9.92081e-05
0.00277819
-5.98006e-05
0.00278284
-1.00295e-05
0.00276272
3.88751e-05
0.00272318
7.75351e-05
0.00267247
9.99657e-05
0.00262003
0.000103639
0.00257518
8.87847e-05
0.00254611
5.77141e-05
0.00253889
1.48466e-05
0.00255594
-3.26561e-05
0.00259464
-7.50269e-05
0.00264707
-0.000102099
0.00270171
-0.000106918
0.00274664
-8.85904e-05
0.00277286
-5.25512e-05
0.00277632
-8.2204e-06
0.00275809
3.44205e-05
0.00272316
6.76128e-05
0.0026787
8.69066e-05
0.00263262
9.06055e-05
0.00259285
7.86331e-05
0.00256678
5.20601e-05
0.00256035
1.38123e-05
0.00257646
-3.01555e-05
0.00261337
-7.08635e-05
0.00266422
-9.8485e-05
0.00271848
-0.000105836
0.00276484
-9.11696e-05
0.00279424
-5.87477e-05
0.00280211
-1.70518e-05
0.00278885
2.42529e-05
0.00275888
5.72004e-05
0.00271895
7.71684e-05
0.00267641
8.27897e-05
0.0026383
7.46099e-05
0.00261106
5.3748e-05
0.00260036
2.17764e-05
0.00261022
-1.80846e-05
0.00264153
-5.98333e-05
0.00269089
-9.52726e-05
0.00275083
-0.00011648
0.0028115
-0.000118745
0.00286325
-0.000102258
0.00289905
-7.18103e-05
0.00291578
-3.49611e-05
0.00291443
3.58502e-07
0.00289914
2.78795e-05
0.00287573
4.41738e-05
0.00285018
4.88212e-05
0.00282746
4.37579e-05
0.00281088
3.21761e-05
0.00280202
1.75588e-05
0.00280082
3.07207e-06
0.00280582
-8.53172e-06
0.00281445
-1.52598e-05
0.00282349
-1.58862e-05
0.00283
-1.10974e-05
0.0028317
-2.09892e-06
0.0028286
6.60395e-06
0.00282112
1.46367e-05
0.00281327
1.44421e-05
8.87757e-06
0.00250212
-6.44269e-06
0.00250835
-1.89613e-05
0.0025189
-3.20078e-05
0.00253419
-4.61967e-05
0.00255483
-6.19154e-05
0.00258129
-7.87836e-05
0.0026137
-9.57035e-05
0.00265128
-0.00011012
0.0026922
-0.000119161
0.00273334
-0.000119555
0.00277087
-0.000109375
0.00280216
-9.14458e-05
0.00282532
-6.75635e-05
0.00283884
-3.8812e-05
0.002841
-5.08515e-06
0.00282963
3.4231e-05
0.00280356
7.60657e-05
0.00276422
0.00011337
0.00271582
0.000138676
0.00266443
0.000146791
0.00261688
0.000135462
0.00257988
0.000105026
0.00255929
5.8164e-05
0.00255928
1.97633e-07
0.00258095
-5.98106e-05
0.0026204
-0.000108145
0.0026678
-0.00012927
0.00270944
-0.000113398
0.00273282
-6.37992e-05
0.00273146
3.80351e-06
0.00270632
6.98337e-05
0.00266357
0.000119751
0.00261145
0.000146959
0.00255824
0.000150425
0.00251166
0.000131194
0.00247912
9.0406e-05
0.00246777
2.96698e-05
0.00248353
-4.62258e-05
0.00252808
-0.000125046
0.00259529
-0.000185933
0.00267019
-0.000206337
0.00273338
-0.000174736
0.0027686
-9.91726e-05
0.00276892
-3.69698e-06
0.00273767
8.43648e-05
0.00268482
0.000146361
0.00262208
0.000176167
0.00255983
0.000176076
0.00250654
0.000150559
0.00246977
0.000102473
0.00245676
3.3531e-05
0.00247356
-5.14607e-05
0.0025219
-0.00013937
0.00259565
-0.000207983
0.00267958
-0.000233188
0.00275285
-0.000201487
0.00279654
-0.000119407
0.00280098
-1.19094e-05
0.00276847
8.96478e-05
0.00271033
0.000161395
0.00264103
0.000194122
0.00257337
0.000190913
0.0025168
0.000159633
0.00247842
0.000106482
0.00246455
3.48297e-05
0.00248039
-5.03359e-05
0.00252707
-0.000136509
0.00259817
-0.00020307
0.00267915
-0.000228532
0.00275106
-0.000201348
0.00279679
-0.00012668
0.00280654
-2.48974e-05
0.00278031
7.65617e-05
0.00272676
0.000153427
0.00265935
0.000192295
0.0025918
0.000192126
0.00253533
0.00015972
0.00249835
0.000103205
0.00248731
2.91217e-05
0.00250611
-5.46195e-05
0.00255359
-0.000134244
0.00262142
-0.000190895
0.00269499
-0.00020781
0.00275756
-0.000178608
0.00279555
-0.000110588
0.00280205
-2.14724e-05
0.00277779
6.72523e-05
0.00272981
0.000136762
0.00266889
0.000175186
0.00260684
0.000178844
0.00255455
0.00015052
0.00252107
9.63065e-05
0.0025131
2.39546e-05
0.00253362
-5.57604e-05
0.00257984
-0.00012756
0.00264244
-0.00017427
0.00270743
-0.000183221
0.00276023
-0.000152009
0.00278997
-8.9541e-05
0.00279199
-1.20484e-05
0.00276797
6.2895e-05
0.00272434
0.000121162
0.00267011
0.000154194
0.00261507
0.000158687
0.0025687
0.00013515
0.00253956
8.68515e-05
0.00253417
2.02375e-05
0.00255514
-5.36235e-05
0.00259929
-0.000119173
0.00265739
-0.000160205
0.00271641
-0.00016593
0.00276326
-0.000135448
0.00278859
-7.78797e-05
0.00278876
-8.38695e-06
0.00276581
5.73649e-05
0.00272587
0.000107552
0.00267703
0.000135752
0.00262779
0.00013984
0.00258646
0.000119963
0.00256078
7.77489e-05
0.00255695
1.76362e-05
0.00257781
-5.10131e-05
0.00262085
-0.000113906
0.00267791
-0.000155542
0.00273701
-0.000164934
0.00278575
-0.000139911
0.00281471
-8.77051e-05
0.00281957
-2.19174e-05
0.00280151
4.23097e-05
0.00276598
9.27321e-05
0.00272068
0.000122472
0.00267371
0.000129757
0.00263265
0.000115672
0.00260439
8.20047e-05
0.002595
3.11678e-05
0.00260862
-3.17028e-05
0.00264568
-9.68935e-05
0.00270167
-0.000151262
0.00276764
-0.000182448
0.00283246
-0.000183566
0.00288579
-0.000155589
0.00292053
-0.000106549
0.00293404
-4.84758e-05
0.00292807
6.3261e-06
0.00290762
4.83346e-05
0.00287928
7.25123e-05
0.00284963
7.84682e-05
0.00282403
6.93614e-05
0.00280605
5.0161e-05
0.0027974
2.62071e-05
0.00279806
2.41011e-06
0.00280634
-1.68077e-05
0.00281912
-2.80457e-05
0.00283239
-2.91525e-05
0.00284231
-2.10226e-05
0.00284604
-5.82385e-06
0.00284311
9.52865e-06
0.00283441
2.3342e-05
0.00282362
2.52286e-05
1.7053e-05
0.00250206
-8.5022e-06
0.00250812
-2.50169e-05
0.00251842
-4.23098e-05
0.0025335
-6.12748e-05
0.00255409
-8.251e-05
0.00258088
-0.000105575
0.00261421
-0.000129035
0.00265339
-0.000149299
0.00269655
-0.000162323
0.00274012
-0.000163119
0.00277961
-0.000148866
0.00281237
-0.000124203
0.00283667
-9.18665e-05
0.00285125
-5.33959e-05
0.00285435
-8.17775e-06
0.0028431
4.54773e-05
0.00281564
0.000103524
0.00277332
0.000155696
0.0027208
0.000191192
0.00266483
0.000202757
0.00261289
0.000187408
0.00257227
0.000145642
0.00254952
8.09152e-05
0.00254966
5.92519e-08
0.00257462
-8.47764e-05
0.00262059
-0.00015411
0.00267626
-0.000184936
0.00272519
-0.00016233
0.00275236
-9.09727e-05
0.00275047
5.69137e-06
0.00272141
9.88945e-05
0.00267305
0.000168113
0.00261499
0.000205021
0.00255615
0.000209261
0.00250448
0.000182868
0.00246768
0.000127208
0.00245383
4.3513e-05
0.00247044
-6.28307e-05
0.00252059
-0.000175195
0.00259788
-0.000263223
0.00268467
-0.000293128
0.00275732
-0.000247384
0.0027963
-0.000138161
0.00279418
-1.57137e-06
0.00275622
0.000122327
0.00269516
0.000207419
0.00262473
0.000246597
0.00255602
0.000244789
0.0024973
0.000209272
0.00245567
0.000144104
0.00243839
5.08101e-05
0.00245253
-6.55933e-05
0.0025017
-0.000188549
0.0025812
-0.000287478
0.00267518
-0.000327165
0.00275995
-0.000286266
0.00281268
-0.000172136
0.00282063
-1.98585e-05
0.00278555
0.000124731
0.00272073
0.000226216
0.0026435
0.000271351
0.00256861
0.000265805
0.00250596
0.000222284
0.00246251
0.00014993
0.00244516
5.21834e-05
0.00246064
-6.58223e-05
0.00251126
-0.000187131
0.00258989
-0.0002817
0.0026795
-0.000318143
0.00275846
-0.000280305
0.00280812
-0.000176334
0.00281843
-3.52143e-05
0.0027899
0.000105099
0.002732
0.000211323
0.00265916
0.000265139
0.00258599
0.000265292
0.00252448
0.000221228
0.00248399
0.000143696
0.00247225
4.08597e-05
0.00249424
-7.66101e-05
0.00254857
-0.00018857
0.00262496
-0.000267286
0.00270605
-0.000288896
0.00277289
-0.000245449
0.00281107
-0.00014877
0.00281436
-2.4761e-05
0.00278496
9.66464e-05
0.0027314
0.000190328
0.00266537
0.000241212
0.00259909
0.000245125
0.00254374
0.000205864
0.0025091
0.000130954
0.00250282
3.02307e-05
0.00252835
-8.12879e-05
0.00258208
-0.000181295
0.0026527
-0.000244884
0.0027239
-0.000254428
0.00277949
-0.000207593
0.00280807
-0.000118126
0.00280566
-9.63089e-06
0.00277536
9.31883e-05
0.00272523
0.000171291
0.00266547
0.000213957
0.0026065
0.00021766
0.00255821
0.00018344
0.00252963
0.000115426
0.00252776
2.21119e-05
0.00255504
-8.091e-05
0.00260712
-0.000171248
0.00267283
-0.000225917
0.00273723
-0.000230331
0.00278605
-0.000184272
0.00280965
-0.000101479
0.00280498
-3.71567e-06
0.00277531
8.70389e-05
0.00272822
0.000154643
0.0026731
0.000190874
0.00261939
0.000193549
0.00257604
0.000163313
0.0025513
0.000102481
0.00255167
1.72719e-05
0.0025795
-7.88439e-05
0.00263093
-0.000165338
0.00269588
-0.000220493
0.00276064
-0.000229695
0.00281178
-0.000191044
0.00283962
-0.000115552
0.0028403
-2.25931e-05
0.00281588
6.67337e-05
0.00277298
0.000135623
0.00272054
0.000174918
0.00266768
0.000182617
0.0026228
0.00016055
0.00259352
0.000111286
0.00258642
3.82726e-05
0.00260559
-5.08763e-05
0.00265049
-0.000141795
0.00271481
-0.000215581
0.00278765
-0.000255289
0.00285651
-0.000252429
0.00291058
-0.000209654
0.00294303
-0.000139
0.00295197
-5.74194e-05
0.00294006
1.82363e-05
0.00291324
7.51601e-05
0.00287896
0.000106786
0.00284452
0.000112917
0.00281576
9.81136e-05
0.00279667
6.9256e-05
0.0027892
3.36797e-05
0.0027933
-1.69367e-06
0.00280682
-3.03254e-05
0.00282567
-4.68976e-05
0.00284458
-4.8062e-05
0.00285851
-3.49585e-05
0.00286397
-1.12743e-05
0.00286009
1.34052e-05
0.00284859
3.48401e-05
0.00283271
4.11063e-05
2.99041e-05
0.00250197
-1.04764e-05
0.00250777
-3.08161e-05
0.00251771
-5.22464e-05
0.00253244
-7.60062e-05
0.00255291
-0.00010298
0.00258008
-0.000132744
0.00261461
-0.000163564
0.00265597
-0.00019066
0.00270228
-0.000208635
0.00274924
-0.000210076
0.00279138
-0.000191009
0.00282602
-0.00015884
0.00285175
-0.000117594
0.00286775
-6.93979e-05
0.00287223
-1.26575e-05
0.00286135
5.63557e-05
0.00283216
0.000132713
0.00278582
0.000202039
0.00272766
0.000249354
0.00266537
0.000265046
0.0026073
0.00024547
0.00256157
0.000191374
0.00253562
0.000106868
0.00253572
-4.21292e-08
0.00256514
-0.000114199
0.00262031
-0.000209275
0.00268786
-0.000252485
0.00274731
-0.000221779
0.00277986
-0.000123523
0.002777
8.5473e-06
0.00274216
0.000133738
0.00268579
0.000224479
0.00261948
0.000271337
0.00255297
0.000275762
0.00249438
0.000241463
0.00245167
0.000169918
0.00243389
6.12891e-05
0.00245016
-7.91026e-05
0.00250539
-0.000230423
0.0025942
-0.000352029
0.00269722
-0.00039615
0.00278527
-0.000335434
0.00283239
-0.00018528
0.00282857
2.24483e-06
0.00278162
0.00016928
0.00270893
0.000280106
0.00262775
0.000327779
0.00255031
0.000322235
0.00248419
0.000275387
0.00243529
0.000193011
0.00241081
7.52824e-05
0.00242011
-7.48873e-05
0.00247015
-0.000238592
0.00255747
-0.0003748
0.00266409
-0.00043378
0.00276247
-0.000384649
0.00282616
-0.000235828
0.00283966
-3.33559e-05
0.00280347
0.000160917
0.00273209
0.000297599
0.00264573
0.000357715
0.00256169
0.000349843
0.002491
0.000292977
0.00244118
0.000199748
0.00242064
7.27169e-05
0.00243826
-8.34394e-05
0.0024968
-0.00024567
0.00258675
-0.000371651
0.00268718
-0.000418571
0.00277327
-0.00036639
0.00282516
-0.00022823
0.00283348
-4.35375e-05
0.00280017
0.000138409
0.00273607
0.000275432
0.0026565
0.000344701
0.00257678
0.00034502
0.00250966
0.000288343
0.0024659
0.000187462
0.00245497
5.17868e-05
0.00248273
-0.000104371
0.0025466
-0.000252441
0.00263344
-0.000354125
0.00272282
-0.000378277
0.00279376
-0.000316387
0.00283121
-0.000186217
0.00282966
-2.32118e-05
0.00279304
0.000133264
0.00273179
0.000251581
0.00265896
0.000314037
0.00258741
0.000316674
0.00252882
0.000264451
0.00249382
0.000165957
0.002491
3.30547e-05
0.00252372
-0.000114014
0.00258678
-0.000244352
0.00266631
-0.000324413
0.00274377
-0.00033189
0.00280166
-0.000265483
0.00282835
-0.000144813
0.00282048
-1.76038e-06
0.00278258
0.000131082
0.00272445
0.000229421
0.0026578
0.000280616
0.00259402
0.000281434
0.00254372
0.000233739
0.00251658
0.000142574
0.00251985
1.88369e-05
0.00255528
-0.000116335
0.00261658
-0.000232553
0.0026903
-0.000299639
0.00275973
-0.000299753
0.00280978
-0.000234324
0.00283085
-0.000122548
0.00282053
6.6008e-06
0.00278324
0.000124331
0.00272801
0.000209875
0.00266566
0.000253222
0.00260683
0.000252376
0.00256142
0.000208724
0.00253838
0.000125517
0.00254431
1.13471e-05
0.00258059
-0.000115129
0.00264137
-0.000226116
0.00271431
-0.000293431
0.00278409
-0.000299479
0.00283667
-0.00024362
0.00286253
-0.000141409
0.00285835
-1.84128e-05
0.00282703
9.80518e-05
0.00277626
0.000186391
0.00271612
0.000235052
0.00265691
0.000241836
0.00260807
0.000209385
0.0025782
0.000141157
0.00257445
4.2023e-05
0.00260054
-7.69695e-05
0.0026543
-0.000195549
0.00272702
-0.000288307
0.00280573
-0.000333999
0.00287689
-0.000323588
0.00292977
-0.000262528
0.00295832
-0.000167551
0.00296163
-6.07305e-05
0.00294328
3.65849e-05
0.00291004
0.000108403
0.0028701
0.000146726
0.00283137
0.000151646
0.00280029
0.000129194
0.00278131
8.82294e-05
0.00277672
3.82713e-05
0.00278631
-1.12762e-05
0.00280703
-5.10526e-05
0.00283333
-7.31907e-05
0.00285827
-7.30025e-05
0.00287552
-5.22125e-05
0.00288113
-1.68839e-05
0.00287418
2.03555e-05
0.00285766
5.13601e-05
0.00283425
6.45168e-05
4.8978e-05
0.00250186
-1.23316e-05
0.0025073
-3.62588e-05
0.00251671
-6.16628e-05
0.00253092
-9.0212e-05
0.00255112
-0.000123179
0.00257865
-0.000160273
0.00261462
-0.000199535
0.00265879
-0.000234827
0.00270931
-0.000259159
0.0027608
-0.000261568
0.00280634
-0.000236548
0.00284327
-0.000195769
0.00287073
-0.000145055
0.00288867
-8.73402e-05
0.00289527
-1.92504e-05
0.00288514
6.64837e-05
0.00285372
0.000164134
0.00280196
0.000253795
0.00273625
0.000315067
0.00266562
0.000335669
0.00259955
0.000311542
0.00254704
0.000243885
0.00251663
0.00013728
0.0025163
2.84379e-07
0.00255141
-0.000149301
0.00261901
-0.000276881
0.00270294
-0.000336413
0.00277687
-0.000295714
0.00281663
-0.000163283
0.00281212
1.30613e-05
0.00276913
0.000176726
0.00270193
0.000291676
0.00262482
0.000348451
0.00254854
0.000352043
0.00248117
0.000308829
0.00243057
0.000220516
0.00240578
8.60837e-05
0.00241654
-8.98662e-05
0.00247063
-0.000284507
0.00256727
-0.000448667
0.00268886
-0.000517742
0.00280078
-0.000447358
0.00286637
-0.000250874
0.00286767
9.46178e-07
0.002813
0.000223952
0.00272634
0.000366772
0.00263128
0.000422837
0.00254256
0.000410952
0.00246676
0.000351185
0.00240807
0.000251699
0.00237476
0.000108596
0.00238054
-8.06659e-05
0.002436
-0.000294051
0.00253624
-0.000475041
0.00265798
-0.000555525
0.00276896
-0.000495624
0.00284074
-0.000307607
0.00285753
-5.01461e-05
0.00281965
0.0001988
0.00274194
0.000375301
0.00264631
0.000453346
0.00255221
0.000443951
0.0024723
0.000372882
0.0024159
0.000256148
0.00239396
9.46567e-05
0.0024171
-0.000106575
0.00248678
-0.000315355
0.00258961
-0.000474476
0.00270069
-0.000529657
0.00279283
-0.000458527
0.00284544
-0.000280841
0.00284984
-4.79358e-05
0.00280969
0.000178554
0.00273769
0.000347432
0.00265037
0.000432027
0.00256362
0.000431771
0.00249106
0.000360896
0.00244508
0.000233443
0.00243686
6.00037e-05
0.00247233
-0.000139832
0.00254663
-0.000326744
0.0026434
-0.000450899
0.00273978
-0.000474655
0.00281366
-0.000390269
0.00284979
-0.000222348
0.00284312
-1.6536e-05
0.00279882
0.000177564
0.00272913
0.000321272
0.00264871
0.00039445
0.00257147
0.000393914
0.00250994
0.000325986
0.00247572
0.000200175
0.00247798
3.07993e-05
0.00251919
-0.00015523
0.00259179
-0.000316947
0.00267929
-0.000411921
0.00276152
-0.00041412
0.00282047
-0.000324428
0.00284467
-0.000169012
0.0028313
1.16065e-05
0.0027859
0.000176485
0.00271968
0.000295635
0.00264589
0.000354415
0.0025772
0.000350116
0.00252528
0.00028566
0.00250057
0.000167293
0.00251026
9.13782e-06
0.00255467
-0.00016074
0.00262505
-0.000302933
0.00270564
-0.000380229
0.00277849
-0.000372607
0.00282841
-0.000284237
0.00284622
-0.000140359
0.00283017
2.26478e-05
0.00278553
0.000168975
0.00272245
0.000272949
0.00265308
0.000322594
0.00258937
0.000316088
0.00254242
0.000255675
0.00252199
0.000145942
0.0025345
-1.16233e-06
0.00257977
-0.000160398
0.00264945
-0.000295793
0.00272898
-0.00037296
0.00280195
-0.000372447
0.00285433
-0.000296003
0.00287722
-0.000164302
0.00286798
-9.16784e-06
0.00283013
0.000135897
0.00277211
0.000244416
0.0027049
0.000302263
0.00263988
0.000306857
0.00258774
0.000261523
0.00255821
0.000170685
0.00255893
4.13003e-05
0.00259273
-0.000110773
0.00265513
-0.000257946
0.00273474
-0.000367916
0.00281678
-0.000416038
0.00288737
-0.000394179
0.00293657
-0.000311723
0.00295955
-0.000190536
0.00295653
-5.7707e-05
0.00293191
6.12037e-05
0.00289307
0.000147243
0.0028487
0.000191093
0.00280721
0.000193142
0.00277558
0.000160822
0.00275884
0.000104968
0.00275951
3.75991e-05
0.00277686
-2.86269e-05
0.00280638
-8.0573e-05
0.00284045
-0.000107263
0.00287036
-0.000102908
0.00288876
-7.06155e-05
0.00289178
-1.99013e-05
0.00287896
3.31789e-05
0.00285494
7.53787e-05
0.0028218
9.76531e-05
7.53167e-05
0.00250169
-1.40265e-05
0.00250666
-4.12216e-05
0.00251536
-7.03611e-05
0.00252879
-0.000103647
0.00254848
-0.000142869
0.00257626
-0.000188053
0.00261386
-0.000237135
0.0026615
-0.000282466
0.00271752
-0.000315183
0.00277492
-0.000318966
0.00282461
-0.000286238
0.00286406
-0.000235218
0.00289329
-0.000174285
0.00291355
-0.000107596
0.00292316
-2.88652e-05
0.00291457
7.50736e-05
0.00288076
0.000197942
0.00282234
0.000312223
0.00274709
0.000390309
0.0026659
0.000416867
0.0025896
0.000387837
0.00252824
0.00030525
0.00249158
0.000173933
0.00249002
1.84629e-06
0.00253239
-0.000191667
0.00261717
-0.000361664
0.0027237
-0.000442946
0.00281683
-0.000388845
0.00286523
-0.000211679
0.00285744
2.08556e-05
0.00280301
0.000231149
0.00272153
0.000373163
0.0026308
0.000439181
0.00254265
0.000440193
0.00246473
0.000386749
0.00240345
0.000281796
0.00236591
0.00012362
0.00236283
-8.67859e-05
0.00240865
-0.00033033
0.00251018
-0.000550195
0.00265126
-0.000658818
0.00279183
-0.000587932
0.00288501
-0.000344052
0.00290172
-1.57708e-05
0.00284581
0.000279863
0.00274631
0.000466278
0.0026354
0.000533741
0.00253279
0.000513568
0.0024449
0.000439075
0.00237504
0.000321555
0.00233445
0.00014919
0.00234197
-8.81908e-05
0.00240911
-0.000361186
0.00252583
-0.000591767
0.0026625
-0.000692188
0.00278317
-0.0006163
0.00285883
-0.000383263
0.00287483
-6.61478e-05
0.00283278
0.000240852
0.00274818
0.000459901
0.00264355
0.000557977
0.00253947
0.000548023
0.00245046
0.000461898
0.00238859
0.000318016
0.00236767
0.000115575
0.00239869
-0.000137589
0.00247994
-0.000396606
0.00259374
-0.000588282
0.00271264
-0.000648552
0.00280874
-0.000554634
0.00286142
-0.000333516
0.00286206
-4.85761e-05
0.00281518
0.000225433
0.0027351
0.000427517
0.00263981
0.000527314
0.00254619
0.000525388
0.002469
0.000438085
0.00242231
0.000280137
0.00241842
6.38972e-05
0.00246219
-0.000183607
0.00254582
-0.000410375
0.00265004
-0.000555112
0.00275064
-0.000575258
0.00282558
-0.000465208
0.00285997
-0.000256736
0.00284895
-5.51424e-06
0.00279815
0.000228359
0.00272094
0.000398486
0.00263345
0.000481938
0.00255096
0.0004764
0.00248729
0.000389663
0.00245507
0.000232386
0.00246349
2.23846e-05
0.00251328
-0.000205024
0.0025941
-0.000397767
0.00268727
-0.000505091
0.00277185
-0.000498691
0.00283017
-0.00038275
0.0028514
-0.000190246
0.00283317
2.98429e-05
0.00278146
0.000228191
0.00270837
0.000368727
0.00262836
0.000434424
0.00255554
0.000422933
0.00250289
0.00033831
0.00248163
0.000188555
0.00249844
-7.67788e-06
0.00255154
-0.000213837
0.0026295
-0.000380888
0.00271466
-0.000465395
0.00278864
-0.000446586
0.0028368
-0.000332398
0.00285079
-0.000154349
0.00282947
4.3975e-05
0.00277858
0.000219861
0.00270897
0.000342555
0.00263378
0.000397786
0.00256626
0.000383612
0.00251883
0.000303098
0.00250204
0.000162739
0.00252167
-2.07921e-05
0.00257541
-0.000214145
0.00265227
-0.000372652
0.0027359
-0.000456589
0.00280955
-0.000446096
0.0028599
-0.000346348
0.00287899
-0.000183394
0.00286487
4.94596e-06
0.00282149
0.000179279
0.00275761
0.000308296
0.00268479
0.000375082
0.00261535
0.000376305
0.00256124
0.00031563
0.00253338
0.000198546
0.00253958
3.51007e-05
0.00258111
-0.000152308
0.00265068
-0.00032751
0.00273432
-0.000451562
0.0028162
-0.000497916
0.00288297
-0.000460945
0.00292608
-0.000354835
0.0029422
-0.000206652
0.00293261
-4.81217e-05
0.0029024
9.14133e-05
0.00285932
0.000190325
0.00281233
0.000238079
0.00277021
0.000235264
0.0027405
0.000190529
0.00272876
0.000116712
0.00273742
2.89375e-05
0.00276453
-5.57317e-05
0.00280332
-0.000119362
0.00284382
-0.000147769
0.00287589
-0.000134971
0.00289196
-8.66922e-05
0.00288899
-1.69317e-05
0.00286755
5.46184e-05
0.00283403
0.000108897
0.00278996
0.000141728
0.000109031
0.00250148
-1.5511e-05
0.00250582
-4.55545e-05
0.00251355
-7.8093e-05
0.00252589
-0.000115985
0.00254471
-0.000161696
0.0025725
-0.000215843
0.00261182
-0.000276452
0.00266365
-0.000334296
0.0027268
-0.000378327
0.00279183
-0.000383997
0.0028465
-0.000340908
0.00288863
-0.000277349
0.00291965
-0.000205311
0.00294291
-0.000130855
0.00295701
-4.29584e-05
0.002951
8.10758e-05
0.00291431
0.000234635
0.00284722
0.000379318
0.00275979
0.000477738
0.00266539
0.00051126
0.00257649
0.000476739
0.00250398
0.000377758
0.00245886
0.000219052
0.00245498
5.73165e-06
0.0025068
-0.000243492
0.0026153
-0.000470154
0.00275328
-0.000580929
0.00287215
-0.00050772
0.00293024
-0.000269763
0.00291567
3.54217e-05
0.0028447
0.000302118
0.00274442
0.000473446
0.00263699
0.000546611
0.0025351
0.000542078
0.0024448
0.000477055
0.00236885
0.00035774
0.00231227
0.000180206
0.00229184
-6.63606e-05
0.00233342
-0.000371908
0.00244714
-0.000663912
0.00260973
-0.000821408
0.00277418
-0.000752386
0.00289046
-0.000460327
0.00292441
-4.97247e-05
0.00287317
0.00033111
0.0027652
0.000574244
0.00263917
0.000659768
0.00252106
0.000631681
0.0024194
0.000540736
0.00233898
0.00040197
0.00229528
0.000192892
0.00231007
-0.00010298
0.00239137
-0.000442489
0.00252239
-0.000722781
0.00266944
-0.00083924
0.0027961
-0.000742964
0.00287366
-0.000460824
0.00288772
-8.02028e-05
0.00284068
0.000287893
0.00274908
0.000551496
0.00263607
0.000670984
0.00252297
0.000661131
0.00242614
0.000558728
0.0023608
0.000383358
0.00234294
0.000133435
0.00238222
-0.000176879
0.00247284
-0.000487221
0.00259359
-0.000709027
0.00271612
-0.000771085
0.00281347
-0.000651981
0.00286572
-0.000385769
0.002864
-4.68538e-05
0.00281244
0.000276986
0.00272597
0.000513993
0.00262386
0.000629421
0.00252438
0.000624864
0.00244388
0.000518585
0.00239801
0.000326009
0.00239933
6.25768e-05
0.0024507
-0.000234972
0.00254117
-0.00050085
0.0026494
-0.000663345
0.00275101
-0.000676864
0.00282489
-0.000539094
0.00285706
-0.000288898
0.00284279
8.75618e-06
0.00278753
0.000283616
0.0027049
0.000481116
0.00261202
0.000574816
0.00252563
0.000562793
0.00246109
0.000454206
0.00243201
0.000261466
0.00244692
7.46967e-06
0.00250423
-0.00026233
0.00259086
-0.000484401
0.00268669
-0.000600921
0.00277093
-0.00058293
0.00282696
-0.00043878
0.00284488
-0.000208172
0.0028227
5.20259e-05
0.00276646
0.000284433
0.00268849
0.000446692
0.00260408
0.000518837
0.00252865
0.000498362
0.00247659
0.000390375
0.0024597
0.000205437
0.00248364
-3.16106e-05
0.00254408
-0.000274278
0.00262711
-0.000463921
0.00271396
-0.000552246
0.00278661
-0.000519234
0.00283154
-0.000377327
0.00284141
-0.000164221
0.0028156
6.97846e-05
0.00276005
0.000275414
0.00268582
0.000416787
0.00260668
0.000476923
0.00253704
0.000453253
0.00249061
0.00034953
0.00247839
0.000174952
0.00250506
-4.74571e-05
0.00256578
-0.000274869
0.00264716
-0.000454031
0.00273186
-0.000541284
0.00280361
-0.000517846
0.00285029
-0.000393037
0.00286509
-0.000198186
0.00284664
2.33902e-05
0.00279907
0.000226856
0.00273114
0.000376223
0.00265466
0.000451565
0.00258268
0.000448284
0.00252839
0.000369914
0.00250369
0.000223245
0.002516
2.27922e-05
0.00256436
-0.000200666
0.00263849
-0.000401636
0.00272251
-0.000535589
0.00280054
-0.000575944
0.00286056
-0.000520963
0.00289578
-0.000390057
0.00290433
-0.000215203
0.00288844
-3.22286e-05