/*--------------------------------*- C++ -*----------------------------------*\
  =========                 |
  \\      /  F ield         | OpenFOAM: The Open Source CFD Toolbox
   \\    /   O peration     | Website:  https://openfoam.org
    \\  /    A nd           | Version:  11
     \\/     M anipulation  |
\*---------------------------------------------------------------------------*/
FoamFile
{
    format      ascii;
    class       surfaceScalarField;
    location    "5.9722";
    object      phi;
}
// * * * * * * * * * * * * * * * * * * * * * * * * * * * * * * * * * * * * * //

dimensions      [0 3 -1 0 0 0 0];

internalField   nonuniform List<scalar> 
14638
(
0.00250288
-2.88009e-06
0.00251157
-8.69175e-06
0.00252644
-1.48634e-05
0.00254795
-2.15188e-05
0.00257665
-2.86936e-05
0.00261284
-3.61909e-05
0.00265646
-4.36202e-05
0.00270666
-5.02001e-05
0.00276175
-5.50929e-05
0.00281915
-5.73986e-05
0.00287577
-5.66173e-05
0.00292922
-5.34526e-05
0.00297777
-4.85481e-05
0.00302032
-4.25554e-05
0.00305638
-3.60589e-05
0.00308582
-2.94351e-05
0.00310872
-2.28978e-05
0.00312522
-1.65087e-05
0.00313544
-1.02151e-05
0.00313934
-3.90314e-06
0.00313681
2.53304e-06
0.00312769
9.11964e-06
0.00311195
1.5744e-05
0.00308981
2.214e-05
0.00306188
2.79285e-05
0.00302917
3.27042e-05
0.00299303
3.61394e-05
0.00295497
3.80647e-05
0.00291647
3.85013e-05
0.00287883
3.76396e-05
0.00284305
3.57826e-05
0.00280977
3.32758e-05
0.00277932
3.04449e-05
0.00275177
2.75544e-05
0.00272698
2.47871e-05
0.00270474
2.22451e-05
0.00268477
1.99636e-05
0.00266684
1.79311e-05
0.00265073
1.61106e-05
0.00263628
1.44572e-05
0.00262334
1.2931e-05
0.00261184
1.15033e-05
0.00260168
1.01598e-05
0.00259278
8.89838e-06
0.00258506
7.72649e-06
0.0025784
6.65669e-06
0.0025727
5.70258e-06
0.00256782
4.87532e-06
0.00256364
4.18107e-06
0.00256002
3.61968e-06
0.00255684
3.18439e-06
0.00255397
2.86257e-06
0.00255134
2.63705e-06
0.00254885
2.48803e-06
0.00254645
2.39491e-06
0.00254412
2.33816e-06
0.00254182
2.30067e-06
0.00253955
2.26876e-06
0.00253731
2.23263e-06
0.00253513
2.18636e-06
0.002533
2.12753e-06
0.00253094
2.05657e-06
0.00252897
1.97601e-06
0.00252708
1.88962e-06
0.00252528
1.80171e-06
0.00252356
1.71645e-06
0.00252192
1.63742e-06
0.00252036
1.56731e-06
0.00251885
1.50773e-06
0.00251739
1.45919e-06
0.00251597
1.42123e-06
0.00251457
1.39262e-06
0.0025132
1.37154e-06
0.00251185
1.35592e-06
0.0025105
1.34369e-06
0.00250917
1.33295e-06
0.00250785
1.32218e-06
0.00250654
1.31026e-06
0.00250524
1.29655e-06
0.00250396
1.28078e-06
0.0025027
1.26299e-06
0.00250145
1.2434e-06
0.00250023
1.22233e-06
0.00249903
1.20012e-06
0.00249785
1.17704e-06
0.0024967
1.15323e-06
0.00249557
1.12867e-06
0.00249447
1.10315e-06
0.00249339
1.07621e-06
0.00249235
1.0472e-06
0.00249133
1.01538e-06
0.00249035
9.79996e-07
0.00248941
9.40433e-07
0.00248851
8.96054e-07
0.00248767
8.45734e-07
0.00248688
7.86926e-07
0.00248617
7.14424e-07
0.00248555
6.19299e-07
0.00248506
4.88728e-07
0.00248475
3.07551e-07
0.00248469
6.19711e-08
0.00248494
-2.54877e-07
0.00248558
-6.36795e-07
0.00248664
-1.05992e-06
0.00248812
-1.48197e-06
0.00248997
-1.84697e-06
0.00249207
-2.09542e-06
0.00249424
-2.17801e-06
0.00249631
-2.06919e-06
0.00249809
-1.77623e-06
0.00249943
-1.34056e-06
0.00250026
-8.3027e-07
0.00250059
-3.2536e-07
0.00250049
9.99519e-08
0.00250009
3.92941e-07
0.00249956
5.31768e-07
0.00249903
5.26468e-07
0.00249862
4.12145e-07
0.00249838
2.37204e-07
0.00249833
5.0485e-08
0.00249844
-1.09164e-07
0.00249866
-2.18694e-07
0.00249893
-2.71597e-07
0.00249921
-2.74619e-07
0.00249945
-2.42341e-07
0.00249964
-1.91564e-07
0.00249978
-1.36963e-07
0.00249987
-8.86848e-08
0.00249992
-5.1834e-08
0.00249995
-2.73046e-08
0.00249996
-1.32669e-08
0.00249997
-6.68969e-09
0.00249997
-4.51217e-09
0.00249998
-4.3244e-09
0.00249998
-4.59589e-09
0.00249999
-4.59281e-09
0.00249999
-4.14197e-09
0.00249999
-3.37001e-09
0.0025
-2.49538e-09
0.0025
-1.70228e-09
0.0025
-1.09075e-09
0.0025
-6.79613e-10
0.0025
-4.34923e-10
0.0025
-3.02466e-10
0.0025
-2.31726e-10
0.0025
-1.87584e-10
0.0025
-1.51681e-10
0.0025
-1.1802e-10
0.0025
-8.70109e-11
0.0025
-6.07808e-11
0.0025
-4.06307e-11
0.0025
-2.64264e-11
0.0025
-1.69881e-11
0.0025
-1.0857e-11
0.0025
-6.72124e-12
0.0025
-3.81929e-12
0.0025
-1.51072e-12
0.0025
3.31727e-14
0.0025
1.66906e-12
2.31383e-12
0.00250285
-5.73373e-06
0.00251147
-1.73101e-05
0.00252623
-2.96217e-05
0.00254765
-4.29367e-05
0.00257629
-5.73389e-05
0.00261255
-7.24467e-05
0.00265641
-8.7485e-05
0.00270707
-0.000100853
0.00276281
-0.000110835
0.00282093
-0.000115518
0.00287816
-0.000113852
0.00293208
-0.000107369
0.00298093
-9.73988e-05
0.00302365
-8.52741e-05
0.00305977
-7.2182e-05
0.00308921
-5.88759e-05
0.00311209
-4.57793e-05
0.00312859
-3.30064e-05
0.00313882
-2.0439e-05
0.00314275
-7.83289e-06
0.00314024
5.04e-06
0.00313111
1.82449e-05
0.0031153
3.15594e-05
0.003093
4.44423e-05
0.00306481
5.61154e-05
0.00303177
6.57454e-05
0.00299525
7.26582e-05
0.00295681
7.65073e-05
0.00291797
7.73385e-05
0.00288006
7.55455e-05
0.0028441
7.17497e-05
0.00281072
6.66565e-05
0.00278023
6.09285e-05
0.00275269
5.50993e-05
0.00272794
4.95356e-05
0.00270574
4.44391e-05
0.00268583
3.98756e-05
0.00266795
3.58174e-05
0.00265187
3.21861e-05
0.00263744
2.8889e-05
0.00262453
2.5844e-05
0.00261304
2.29933e-05
0.00260289
2.03078e-05
0.002594
1.77841e-05
0.00258629
1.54379e-05
0.00257965
1.32952e-05
0.00257397
1.13841e-05
0.00256912
9.72755e-06
0.00256496
8.33828e-06
0.00256136
7.2162e-06
0.0025582
6.34775e-06
0.00255536
5.70738e-06
0.00255273
5.26045e-06
0.00255025
4.96688e-06
0.00254786
4.78511e-06
0.00254553
4.67568e-06
0.00254322
4.60412e-06
0.00254095
4.5429e-06
0.00253871
4.47237e-06
0.00253651
4.38073e-06
0.00253438
4.26325e-06
0.00253231
4.12097e-06
0.00253033
3.95911e-06
0.00252844
3.7854e-06
0.00252663
3.60861e-06
0.00252491
3.43721e-06
0.00252327
3.27848e-06
0.0025217
3.13783e-06
0.00252019
3.0185e-06
0.00251872
2.92152e-06
0.0025173
2.84594e-06
0.0025159
2.78921e-06
0.00251453
2.74768e-06
0.00251316
2.71713e-06
0.00251182
2.69334e-06
0.00251048
2.67249e-06
0.00250915
2.6515e-06
0.00250783
2.62815e-06
0.00250652
2.60115e-06
0.00250523
2.56997e-06
0.00250396
2.53472e-06
0.00250271
2.49588e-06
0.00250148
2.45411e-06
0.00250027
2.41011e-06
0.00249908
2.36441e-06
0.00249792
2.31735e-06
0.00249678
2.26889e-06
0.00249566
2.21862e-06
0.00249457
2.16565e-06
0.00249351
2.10869e-06
0.00249248
2.04623e-06
0.00249148
1.97676e-06
0.00249052
1.899e-06
0.00248961
1.81163e-06
0.00248874
1.71243e-06
0.00248793
1.59643e-06
0.00248719
1.45351e-06
0.00248655
1.26623e-06
0.00248603
1.00949e-06
0.00248568
6.53426e-07
0.00248557
1.70647e-07
0.00248577
-4.52837e-07
0.00248634
-1.20545e-06
0.00248732
-2.04082e-06
0.00248871
-2.87601e-06
0.00249047
-3.60061e-06
0.00249247
-4.09676e-06
0.00249456
-4.26619e-06
0.00249654
-4.05726e-06
0.00249825
-3.48326e-06
0.00249954
-2.62538e-06
0.00250032
-1.61804e-06
0.00250062
-6.19882e-07
0.0025005
2.21409e-07
0.00250009
8.00478e-07
0.00249955
1.07321e-06
0.00249902
1.059e-06
0.0024986
8.27417e-07
0.00249836
4.74882e-07
0.00249831
9.90121e-08
0.00249843
-2.22305e-07
0.00249865
-4.42685e-07
0.00249893
-5.489e-07
0.00249921
-5.54431e-07
0.00249945
-4.88637e-07
0.00249965
-3.85469e-07
0.00249979
-2.74665e-07
0.00249987
-1.76835e-07
0.00249992
-1.02355e-07
0.00249995
-5.30279e-08
0.00249996
-2.5084e-08
0.00249997
-1.22913e-08
0.00249997
-8.36084e-09
0.00249998
-8.35023e-09
0.00249998
-9.13812e-09
0.00249998
-9.25186e-09
0.00249999
-8.37523e-09
0.00249999
-6.80396e-09
0.0025
-5.01221e-09
0.0025
-3.3917e-09
0.0025
-2.15132e-09
0.0025
-1.32715e-09
0.0025
-8.45019e-10
0.0025
-5.90027e-10
0.0025
-4.56858e-10
0.0025
-3.7363e-10
0.0025
-3.03902e-10
0.0025
-2.36803e-10
0.0025
-1.74286e-10
0.0025
-1.21341e-10
0.0025
-8.08528e-11
0.0025
-5.25326e-11
0.0025
-3.38824e-11
0.0025
-2.18504e-11
0.0025
-1.37479e-11
0.0025
-8.02983e-12
0.0025
-3.46146e-12
0.0025
-3.5255e-13
0.0025
2.84586e-12
4.26343e-12
0.0025028
-8.53397e-06
0.00251126
-2.57742e-05
0.00252581
-4.41627e-05
0.00254701
-6.41404e-05
0.00257554
-8.5872e-05
0.00261191
-0.000108818
0.00265626
-0.000131831
0.00270782
-0.000152417
0.00276489
-0.000167902
0.00282448
-0.000175113
0.00288297
-0.000172338
0.00293782
-0.000162217
0.00298727
-0.00014685
0.00303031
-0.00012831
0.00306655
-0.000108423
0.00309599
-8.83191e-05
0.00311883
-6.86222e-05
0.00313531
-4.94801e-05
0.00314555
-3.06822e-05
0.00314954
-1.18204e-05
0.00314709
7.49066e-06
0.00313795
2.73811e-05
0.00312199
4.75244e-05
0.00309935
6.70835e-05
0.00307062
8.48401e-05
0.00303688
9.94845e-05
0.00299958
0.000109959
0.00296036
0.000115724
0.00292084
0.000116859
0.0028824
0.000113988
0.00284607
0.000108085
0.00281248
0.000100244
0.00278192
9.14859e-05
0.0027544
8.26241e-05
0.00272972
7.42095e-05
0.00270762
6.65368e-05
0.00268781
5.96931e-05
0.00267
5.36241e-05
0.00265399
4.82015e-05
0.0026396
4.32782e-05
0.00262671
3.87265e-05
0.00261525
3.44582e-05
0.00260513
3.043e-05
0.00259627
2.66388e-05
0.0025886
2.31106e-05
0.00258201
1.9887e-05
0.00257638
1.70123e-05
0.00257158
1.45224e-05
0.00256749
1.24376e-05
0.00256394
1.07578e-05
0.00256083
9.46228e-06
0.00255802
8.51191e-06
0.00255543
7.85358e-06
0.00255297
7.42596e-06
0.00255059
7.16556e-06
0.00254826
7.01225e-06
0.00254595
6.91368e-06
0.00254366
6.82823e-06
0.00254141
6.72637e-06
0.0025392
6.59062e-06
0.00253705
6.41427e-06
0.00253497
6.19938e-06
0.00253297
5.95427e-06
0.00253107
5.69106e-06
0.00252925
5.42328e-06
0.00252752
5.164e-06
0.00252588
4.92434e-06
0.0025243
4.71252e-06
0.00252279
4.53343e-06
0.00252132
4.38855e-06
0.00251989
4.27635e-06
0.00251849
4.19283e-06
0.0025171
4.13232e-06
0.00251573
4.08836e-06
0.00251437
4.05447e-06
0.00251302
4.02481e-06
0.00251168
3.99469e-06
0.00251034
3.96082e-06
0.00250902
3.92125e-06
0.00250772
3.8753e-06
0.00250643
3.82317e-06
0.00250516
3.76568e-06
0.00250391
3.70387e-06
0.00250268
3.63884e-06
0.00250147
3.57144e-06
0.00250029
3.50219e-06
0.00249913
3.4311e-06
0.00249799
3.35756e-06
0.00249687
3.28029e-06
0.00249578
3.19737e-06
0.00249472
3.1065e-06
0.0024937
3.00537e-06
0.0024927
2.89194e-06
0.00249175
2.76415e-06
0.00249084
2.61865e-06
0.00248999
2.44822e-06
0.00248921
2.23822e-06
0.00248851
1.96342e-06
0.00248793
1.58734e-06
0.00248752
1.06634e-06
0.00248733
3.60042e-07
0.00248743
-5.52715e-07
0.00248788
-1.65593e-06
0.00248872
-2.88256e-06
0.00248996
-4.11164e-06
0.00249154
-5.18112e-06
0.00249336
-5.91717e-06
0.00249527
-6.17407e-06
0.00249708
-5.8743e-06
0.00249864
-5.03607e-06
0.00249979
-3.77824e-06
0.00250047
-2.29893e-06
0.00250068
-8.3281e-07
0.0025005
4.01092e-07
0.00250006
1.2461e-06
0.00249949
1.63634e-06
0.00249895
1.60043e-06
0.00249854
1.24198e-06
0.00249831
7.04957e-07
0.00249827
1.35422e-07
0.0024984
-3.49873e-07
0.00249864
-6.81336e-07
0.00249893
-8.39256e-07
0.00249922
-8.44286e-07
0.00249947
-7.41199e-07
0.00249967
-5.81817e-07
0.0024998
-4.11586e-07
0.00249989
-2.62002e-07
0.00249994
-1.48851e-07
0.00249996
-7.47053e-08
0.00249997
-3.35396e-08
0.00249997
-1.55423e-08
0.00249997
-1.08662e-08
0.00249998
-1.18226e-08
0.00249998
-1.36168e-08
0.00249998
-1.40614e-08
0.00249999
-1.27807e-08
0.00249999
-1.03366e-08
0.0025
-7.53609e-09
0.0025
-5.02265e-09
0.0025
-3.12693e-09
0.0025
-1.89498e-09
0.0025
-1.1972e-09
0.0025
-8.44095e-10
0.0025
-6.67292e-10
0.0025
-5.55699e-10
0.0025
-4.56204e-10
0.0025
-3.55898e-10
0.0025
-2.60824e-10
0.0025
-1.80328e-10
0.0025
-1.19369e-10
0.0025
-7.7359e-11
0.0025
-5.01467e-11
0.0025
-3.28015e-11
0.0025
-2.11414e-11
0.0025
-1.28155e-11
0.0025
-6.10256e-12
0.0025
-1.41026e-12
0.0025
3.21486e-12
5.57616e-12
0.00250272
-1.125e-05
0.00251094
-3.39945e-05
0.00252513
-5.83558e-05
0.00254598
-8.49912e-05
0.00257431
-0.000114198
0.00261081
-0.000145326
0.00265586
-0.00017688
0.00270881
-0.000205364
0.00276793
-0.000227026
0.00282982
-0.000236999
0.00289022
-0.000232739
0.00294647
-0.000218468
0.00299681
-0.000197188
0.0030403
-0.000171799
0.00307669
-0.000144816
0.00310611
-0.000117742
0.00312888
-9.13871e-05
0.0031453
-6.5904e-05
0.00315557
-4.09493e-05
0.00315965
-1.58991e-05
0.0031573
9.8431e-06
0.00314816
3.65153e-05
0.00313199
6.36973e-05
0.00310885
9.02258e-05
0.00307931
0.000114377
0.00304451
0.000134287
0.00300601
0.000148454
0.00296561
0.000156122
0.00292505
0.000157421
0.0028858
0.000153244
0.00284891
0.000144971
0.00281502
0.000134134
0.00278436
0.000122144
0.00275688
0.000110109
0.00273232
9.87641e-05
0.00271037
8.84866e-05
0.0026907
7.93692e-05
0.002673
7.1315e-05
0.00265707
6.41321e-05
0.00264274
5.76097e-05
0.0026299
5.1569e-05
0.00261847
4.589e-05
0.00260838
4.05164e-05
0.00259957
3.5448e-05
0.00259196
3.07245e-05
0.00258544
2.64065e-05
0.00257989
2.25571e-05
0.00257519
1.92276e-05
0.00257118
1.64462e-05
0.00256772
1.42135e-05
0.00256469
1.25007e-05
0.00256194
1.12539e-05
0.0025594
1.04e-05
0.00255697
9.85474e-06
0.0025546
9.53131e-06
0.00255227
9.34771e-06
0.00254995
9.23291e-06
0.00254765
9.13081e-06
0.00254537
9.00206e-06
0.00254314
8.82379e-06
0.00254096
8.5879e-06
0.00253887
8.29809e-06
0.00253685
7.9665e-06
0.00253493
7.61024e-06
0.00253311
7.24815e-06
0.00253137
6.89827e-06
0.00252972
6.57581e-06
0.00252814
6.29194e-06
0.00252662
6.05318e-06
0.00252515
5.86137e-06
0.00252371
5.71419e-06
0.0025223
5.60599e-06
0.0025209
5.52888e-06
0.00251952
5.4739e-06
0.00251814
5.43213e-06
0.00251677
5.39562e-06
0.00251541
5.35802e-06
0.00251405
5.31494e-06
0.00251271
5.26389e-06
0.00251138
5.20405e-06
0.00251007
5.13586e-06
0.00250877
5.06055e-06
0.0025075
4.97965e-06
0.00250624
4.89468e-06
0.00250501
4.80689e-06
0.00250379
4.71701e-06
0.0025026
4.62514e-06
0.00250142
4.53051e-06
0.00250027
4.43148e-06
0.00249914
4.32551e-06
0.00249804
4.2095e-06
0.00249697
4.08027e-06
0.00249592
3.93489e-06
0.00249492
3.77043e-06
0.00249395
3.58241e-06
0.00249304
3.36149e-06
0.00249219
3.08905e-06
0.00249142
2.733e-06
0.00249076
2.24673e-06
0.00249025
1.57421e-06
0.00248995
6.63134e-07
0.00248991
-5.14594e-07
0.0024902
-1.93952e-06
0.00249084
-3.52633e-06
0.00249185
-5.11946e-06
0.00249318
-6.50937e-06
0.00249473
-7.47005e-06
0.00249637
-7.81107e-06
0.00249792
-7.43007e-06
0.00249923
-6.34934e-06
0.00250018
-4.72286e-06
0.00250069
-2.80881e-06
0.00250077
-9.13939e-07
0.0025005
6.74902e-07
0.00249999
1.75231e-06
0.00249939
2.23207e-06
0.00249884
2.15249e-06
0.00249843
1.6509e-06
0.00249822
9.18268e-07
0.00249821
1.48499e-07
0.00249836
-5.03308e-07
0.00249862
-9.44879e-07
0.00249894
-1.1507e-06
0.00249924
-1.14949e-06
0.0024995
-1.00257e-06
0.0024997
-7.80745e-07
0.00249984
-5.46103e-07
0.00249991
-3.41578e-07
0.00249995
-1.88454e-07
0.00249997
-8.97684e-08
0.00249997
-3.6685e-08
0.00249997
-1.52019e-08
0.00249997
-1.14082e-08
0.00249998
-1.4559e-08
0.00249998
-1.80871e-08
0.00249999
-1.91518e-08
0.00249999
-1.74647e-08
0.00249999
-1.4011e-08
0.0025
-1.0051e-08
0.0025
-6.54414e-09
0.0025
-3.95797e-09
0.0025
-2.33296e-09
0.0025
-1.45819e-09
0.0025
-1.04736e-09
0.0025
-8.56616e-10
0.0025
-7.32744e-10
0.0025
-6.08933e-10
0.0025
-4.75119e-10
0.0025
-3.45539e-10
0.0025
-2.36163e-10
0.0025
-1.54637e-10
0.0025
-9.97434e-11
0.0025
-6.50821e-11
0.0025
-4.33903e-11
0.0025
-2.88185e-11
0.0025
-1.82075e-11
0.0025
-9.51221e-12
0.0025
-3.22624e-12
0.0025
2.66442e-12
6.14296e-12
0.0025026
-1.38462e-05
0.00251047
-4.18671e-05
0.00252416
-7.2044e-05
0.00254448
-0.000105312
0.00257245
-0.000142173
0.00260907
-0.000181941
0.00265501
-0.000222824
0.00270983
-0.000260185
0.00277184
-0.000289031
0.00283694
-0.000302101
0.00289997
-0.000295765
0.00295809
-0.000276597
0.00300958
-0.000248674
0.00305362
-0.000215838
0.00309016
-0.000181357
0.00311951
-0.000147091
0.00314214
-0.000114017
0.00315849
-8.22501e-05
0.0031688
-5.12585e-05
0.00317303
-2.01293e-05
0.00317085
1.20237e-05
0.00316175
4.56081e-05
0.00314533
8.01246e-05
0.00312151
0.000114038
0.00309087
0.000145024
0.0030546
0.000170554
0.00301446
0.000188596
0.00297244
0.000198143
0.00293046
0.000199399
0.00289011
0.000193593
0.0028525
0.000182585
0.00281822
0.000168409
0.00278745
0.000152912
0.00276005
0.000137516
0.00273567
0.000123138
0.00271394
0.000110223
0.00269446
9.88471e-05
0.00267693
8.88473e-05
0.00266111
7.99497e-05
0.00264685
7.18668e-05
0.00263406
6.43621e-05
0.00262267
5.72816e-05
0.00261262
5.05581e-05
0.00260387
4.41985e-05
0.00259634
3.82607e-05
0.00258991
3.28291e-05
0.00258448
2.79896e-05
0.0025799
2.38111e-05
0.00257601
2.03319e-05
0.00257267
1.75526e-05
0.00256974
1.54359e-05
0.00256708
1.39112e-05
0.0025646
1.28834e-05
0.00256221
1.22431e-05
0.00255986
1.18779e-05
0.00255753
1.16825e-05
0.00255519
1.1566e-05
0.00255287
1.14574e-05
0.00255056
1.13075e-05
0.0025483
1.10886e-05
0.00254609
1.07919e-05
0.00254397
1.04238e-05
0.00254193
1.00011e-05
0.00254
9.54678e-06
0.00253816
9.08572e-06
0.00253642
8.64145e-06
0.00253476
8.23361e-06
0.00253317
7.87648e-06
0.00253165
7.57817e-06
0.00253017
7.34075e-06
0.00252872
7.16087e-06
0.0025273
7.03092e-06
0.00252589
6.94044e-06
0.00252448
6.87769e-06
0.00252308
6.83106e-06
0.00252169
6.79033e-06
0.0025203
6.74742e-06
0.00251892
6.69685e-06
0.00251755
6.63566e-06
0.00251619
6.56305e-06
0.00251484
6.47982e-06
0.00251352
6.38773e-06
0.00251221
6.28892e-06
0.00251092
6.18543e-06
0.00250964
6.07893e-06
0.00250839
5.97046e-06
0.00250716
5.86019e-06
0.00250594
5.74732e-06
0.00250474
5.62983e-06
0.00250356
5.50461e-06
0.0025024
5.36776e-06
0.00250127
5.2151e-06
0.00250016
5.04269e-06
0.00249908
4.84658e-06
0.00249805
4.62105e-06
0.00249705
4.35485e-06
0.00249612
4.02594e-06
0.00249525
3.59648e-06
0.00249449
3.01137e-06
0.00249386
2.20397e-06
0.00249341
1.11157e-06
0.00249319
-3.00255e-07
0.00249326
-2.0095e-06
0.00249365
-3.91528e-06
0.00249437
-5.83186e-06
0.00249536
-7.50751e-06
0.00249656
-8.66944e-06
0.00249784
-9.08662e-06
0.00249904
-8.63395e-06
0.00250003
-7.33725e-06
0.00250069
-5.38263e-06
0.00250097
-3.08366e-06
0.00250087
-8.13715e-07
0.00250046
1.07763e-06
0.00249987
2.34017e-06
0.00249924
2.86977e-06
0.00249867
2.71528e-06
0.00249828
2.04767e-06
0.00249809
1.10414e-06
0.00249811
1.25619e-07
0.00249831
-6.95305e-07
0.00249861
-1.24458e-06
0.00249895
-1.49199e-06
0.00249927
-1.47578e-06
0.00249955
-1.27539e-06
0.00249975
-9.82238e-07
0.00249988
-6.76299e-07
0.00249995
-4.12621e-07
0.00249998
-2.18022e-07
0.00249998
-9.5484e-08
0.00249998
-3.25269e-08
0.00249998
-1.00821e-08
0.00249997
-9.47438e-09
0.00249998
-1.64977e-08
0.00249998
-2.27063e-08
0.00249999
-2.47221e-08
0.00249999
-2.25673e-08
0.00249999
-1.78782e-08
0.0025
-1.25343e-08
0.0025
-7.89455e-09
0.0025
-4.5764e-09
0.0025
-2.58711e-09
0.0025
-1.59492e-09
0.0025
-1.18494e-09
0.0025
-1.02132e-09
0.0025
-9.05974e-10
0.0025
-7.63676e-10
0.0025
-5.94656e-10
0.0025
-4.27205e-10
0.0025
-2.86936e-10
0.0025
-1.84805e-10
0.0025
-1.18299e-10
0.0025
-7.78393e-11
0.0025
-5.31772e-11
0.0025
-3.65718e-11
0.0025
-2.40928e-11
0.0025
-1.35991e-11
0.0025
-5.71551e-12
0.0025
1.28957e-12
6.01019e-12
0.00250243
-1.62806e-05
0.00250984
-4.92687e-05
0.00252283
-8.50351e-05
0.00254239
-0.000124872
0.0025698
-0.000169583
0.00260642
-0.000218565
0.00265341
-0.00026981
0.00271061
-0.000317391
0.00277646
-0.000354878
0.00284586
-0.000371498
0.00291228
-0.000362186
0.00297276
-0.00033708
0.00302563
-0.00030154
0.00307027
-0.000260485
0.00310691
-0.000217997
0.00313609
-0.000176267
0.00315848
-0.000136412
0.00317469
-9.84551e-05
0.00318504
-6.16083e-05
0.00318948
-2.45731e-05
0.00318757
1.39333e-05
0.0031786
5.45777e-05
0.00316192
9.68085e-05
0.0031373
0.00013866
0.00310524
0.000177076
0.00306709
0.000208706
0.00302482
0.000230867
0.00298071
0.000242259
0.00293691
0.000243194
0.00289518
0.000235326
0.00285667
0.000221096
0.00282194
0.000203134
0.00279108
0.000183776
0.00276381
0.000164784
0.0027397
0.000147252
0.00271825
0.000131669
0.00269904
0.000118063
0.00268171
0.000106176
0.00266603
9.56267e-05
0.00265186
8.60352e-05
0.00263913
7.70987e-05
0.00262778
6.86279e-05
0.00261779
6.05475e-05
0.00260911
5.28769e-05
0.00260167
4.56992e-05
0.00259537
3.91283e-05
0.00259009
3.32781e-05
0.00258566
2.82387e-05
0.00258193
2.40598e-05
0.00257874
2.07424e-05
0.00257594
1.82394e-05
0.00257339
1.64612e-05
0.00257098
1.52876e-05
0.00256865
1.45813e-05
0.00256632
1.42017e-05
0.00256399
1.40179e-05
0.00256163
1.39181e-05
0.00255928
1.38156e-05
0.00255693
1.36515e-05
0.00255463
1.33939e-05
0.00255238
1.30345e-05
0.00255022
1.25833e-05
0.00254816
1.20633e-05
0.0025462
1.15042e-05
0.00254435
1.0938e-05
0.0025426
1.03944e-05
0.00254093
9.89789e-06
0.00253935
9.46594e-06
0.00253782
9.10829e-06
0.00253633
8.82702e-06
0.00253487
8.6174e-06
0.00253343
8.46946e-06
0.002532
8.36976e-06
0.00253058
8.30337e-06
0.00252915
8.25571e-06
0.00252773
8.21405e-06
0.00252631
8.1685e-06
0.00252489
8.11253e-06
0.00252349
8.0428e-06
0.00252209
7.95871e-06
0.00252071
7.8616e-06
0.00251934
7.75394e-06
0.00251799
7.6386e-06
0.00251666
7.51826e-06
0.00251534
7.39509e-06
0.00251404
7.27046e-06
0.00251276
7.14474e-06
0.00251149
7.01707e-06
0.00251023
6.88518e-06
0.00250899
6.74539e-06
0.00250777
6.59295e-06
0.00250656
6.42263e-06
0.00250537
6.22933e-06
0.00250421
6.00786e-06
0.00250308
5.75116e-06
0.00250199
5.44623e-06
0.00250095
5.06823e-06
0.00249997
4.57481e-06
0.00249908
3.90422e-06
0.0024983
2.98145e-06
0.00249768
1.73539e-06
0.00249725
1.26335e-07
0.00249706
-1.82184e-06
0.00249714
-3.99559e-06
0.0024975
-6.18408e-06
0.00249809
-8.10008e-06
0.00249885
-9.43094e-06
0.00249967
-9.91089e-06
0.00250044
-9.39533e-06
0.00250101
-7.91365e-06
0.00250131
-5.68075e-06
0.00250129
-3.05969e-06
0.00250096
-4.83391e-07
0.00250039
1.64269e-06
0.0024997
3.02896e-06
0.00249901
3.55675e-06
0.00249844
3.28687e-06
0.00249807
2.4238e-06
0.00249792
1.25012e-06
0.00249799
5.2605e-08
0.00249824
-9.39822e-07
0.00249859
-1.59261e-06
0.00249897
-1.87242e-06
0.00249932
-1.82897e-06
0.00249961
-1.56205e-06
0.00249981
-1.1858e-06
0.00249993
-7.99689e-07
0.00249999
-4.71681e-07
0.00250001
-2.34049e-07
0.0025
-8.89391e-08
0.00249999
-1.90633e-08
0.00249998
8.93507e-10
0.00249997
-4.7211e-09
0.00249997
-1.77453e-08
0.00249998
-2.77626e-08
0.00249999
-3.10504e-08
0.00249999
-2.82608e-08
0.0025
-2.19893e-08
0.0025
-1.49488e-08
0.0025
-8.99565e-09
0.0025
-4.90298e-09
0.0025
-2.59934e-09
0.0025
-1.57565e-09
0.0025
-1.24589e-09
0.0025
-1.162e-09
0.0025
-1.07953e-09
0.0025
-9.23488e-10
0.0025
-7.1503e-10
0.0025
-5.04339e-10
0.0025
-3.30337e-10
0.0025
-2.07706e-10
0.0025
-1.31468e-10
0.0025
-8.74969e-11
0.0025
-6.16834e-11
0.0025
-4.41388e-11
0.0025
-3.02721e-11
0.0025
-1.81513e-11
0.0025
-8.66384e-12
0.0025
-6.57138e-13
5.34435e-12
0.00250222
-1.85037e-05
0.00250901
-5.60525e-05
0.00252106
-9.70931e-05
0.00253956
-0.000143371
0.0025661
-0.000196116
0.00260253
-0.000254994
0.00265062
-0.000317907
0.00271075
-0.000377517
0.0027816
-0.000425729
0.0028566
-0.000446494
0.00292726
-0.00043285
0.00299056
-0.000400379
0.00304497
-0.000355953
0.0030902
-0.000305715
0.00312682
-0.000254618
0.00315568
-0.000205126
0.00317772
-0.000158451
0.00319373
-0.000114462
0.00320415
-7.20279e-05
0.00320892
-2.9341e-05
0.00320743
1.54206e-05
0.0031987
6.33043e-05
0.00318177
0.00011374
0.00315618
0.000164254
0.00312238
0.000210876
0.00308185
0.000249229
0.0030369
0.000275817
0.00299017
0.000288994
0.00294413
0.000289233
0.00290072
0.000278734
0.00286116
0.000260658
0.00282595
0.000238342
0.00279504
0.000214688
0.002768
0.000191818
0.00274426
0.000170996
0.00272321
0.000152723
0.00270433
0.000136937
0.00268726
0.000123246
0.00267176
0.000111131
0.00265769
0.000100099
0.00264502
8.97719e-05
0.00263372
7.99241e-05
0.00262379
7.0477e-05
0.0026152
6.14697e-05
0.00260788
5.30189e-05
0.00260173
4.52759e-05
0.00259662
3.83888e-05
0.00259239
3.24733e-05
0.00258886
2.75924e-05
0.00258585
2.37479e-05
0.00258321
2.08805e-05
0.00258079
1.88791e-05
0.00257849
1.75948e-05
0.00257621
1.68585e-05
0.00257391
1.64983e-05
0.00257157
1.63551e-05
0.0025692
1.62943e-05
0.0025668
1.6213e-05
0.00256441
1.60429e-05
0.00256205
1.57486e-05
0.00255977
1.53235e-05
0.00255757
1.4783e-05
0.00255547
1.41575e-05
0.00255349
1.34853e-05
0.00255162
1.28064e-05
0.00254986
1.21573e-05
0.00254819
1.15679e-05
0.0025466
1.10593e-05
0.00254506
1.06426e-05
0.00254357
1.03197e-05
0.0025421
1.00841e-05
0.00254065
9.9229e-06
0.0025392
9.81913e-06
0.00253775
9.7542e-06
0.00253629
9.71017e-06
0.00253484
9.67155e-06
0.00253338
9.62656e-06
0.00253192
9.56762e-06
0.00253048
9.4912e-06
0.00252904
9.39707e-06
0.00252761
9.28738e-06
0.0025262
9.16549e-06
0.0025248
9.03518e-06
0.00252342
8.8999e-06
0.00252205
8.7624e-06
0.0025207
8.62447e-06
0.00251936
8.48672e-06
0.00251803
8.34831e-06
0.00251671
8.20676e-06
0.00251539
8.05788e-06
0.00251409
7.89606e-06
0.0025128
7.71493e-06
0.00251152
7.50804e-06
0.00251026
7.26878e-06
0.00250902
6.98864e-06
0.00250781
6.65295e-06
0.00250665
6.2347e-06
0.00250553
5.68833e-06
0.00250449
4.94749e-06
0.00250354
3.93133e-06
0.00250271
2.56285e-06
0.00250204
7.98665e-07
0.00250155
-1.33578e-06
0.00250128
-3.71714e-06
0.00250121
-6.1152e-06
0.00250132
-8.21503e-06
0.00250156
-9.67288e-06
0.00250185
-1.01959e-05
0.00250208
-9.62479e-06
0.00250216
-7.99324e-06
0.00250202
-5.54134e-06
0.00250163
-2.67449e-06
0.00250103
1.23786e-07
0.00250027
2.40097e-06
0.00249946
3.83515e-06
0.00249872
4.29752e-06
0.00249815
3.86271e-06
0.0024978
2.76856e-06
0.00249771
1.34191e-06
0.00249785
-8.60934e-08
0.00249816
-1.2517e-06
0.00249857
-2.00151e-06
0.002499
-2.30116e-06
0.00249938
-2.21437e-06
0.00249968
-1.86416e-06
0.00249989
-1.39004e-06
0.0025
-9.1294e-07
0.00250005
-5.14638e-07
0.00250004
-2.32621e-07
0.00250002
-6.70777e-08
0.0025
5.63884e-09
0.00249998
1.86049e-08
0.00249997
2.95821e-09
0.00249997
-1.86191e-08
0.00249998
-3.36918e-08
0.00249999
-3.84922e-08
0.00249999
-3.47385e-08
0.0025
-2.63827e-08
0.0025
-1.7232e-08
0.0025
-9.74713e-09
0.0025
-4.84592e-09
0.0025
-2.30868e-09
0.0025
-1.37211e-09
0.0025
-1.22511e-09
0.0025
-1.28452e-09
0.0025
-1.26095e-09
0.0025
-1.09287e-09
0.0025
-8.36912e-10
0.0025
-5.75041e-10
0.0025
-3.63593e-10
0.0025
-2.20899e-10
0.0025
-1.37622e-10
0.0025
-9.31808e-11
0.0025
-6.8501e-11
0.0025
-5.12942e-11
0.0025
-3.65359e-11
0.0025
-2.29075e-11
0.0025
-1.17919e-11
0.0025
-2.84492e-12
4.37472e-12
0.00250195
-2.04574e-05
0.00250795
-6.20456e-05
0.00251878
-0.00010793
0.00253584
-0.000160426
0.00256106
-0.000221339
0.00259695
-0.00029088
0.00264611
-0.000367067
0.00270971
-0.000441116
0.00278701
-0.000503033
0.00286922
-0.000528703
0.00294505
-0.000508684
0.00301161
-0.000466931
0.00306767
-0.000412021
0.0031134
-0.000351436
0.00314979
-0.000291017
0.00317809
-0.000233419
0.00319955
-0.00017991
0.00321521
-0.000130126
0.00322568
-8.24965e-05
0.00323089
-3.45483e-05
0.00323004
1.62698e-05
0.00322178
7.15628e-05
0.00320472
0.000130804
0.00317806
0.000190909
0.00314218
0.000246755
0.00309876
0.000292646
0.00305052
0.000324062
0.00300058
0.000338937
0.00295182
0.000337987
0.00290643
0.000324122
0.00286568
0.000301409
0.00282999
0.000274037
0.00279912
0.000245558
0.00277245
0.000218485
0.00274922
0.000194232
0.00272867
0.000173265
0.00271023
0.000155379
0.00269348
0.00014
0.00267818
0.000126433
0.00266423
0.000114047
0.00265162
0.000102379
0.00264038
9.11688e-05
0.00263051
8.03397e-05
0.00262202
6.99615e-05
0.00261484
6.01948e-05
0.00260888
5.12381e-05
0.00260399
4.32816e-05
0.00259999
3.64712e-05
0.0025967
3.0886e-05
0.00259392
2.6528e-05
0.00259147
2.33239e-05
0.00258922
2.11369e-05
0.00258703
1.97852e-05
0.00258482
1.90631e-05
0.00258256
1.87633e-05
0.00258022
1.86955e-05
0.00257781
1.87003e-05
0.00257537
1.86579e-05
0.00257292
1.84908e-05
0.0025705
1.81613e-05
0.00256816
1.76663e-05
0.00256592
1.70284e-05
0.00256379
1.62875e-05
0.00256178
1.54918e-05
0.0025599
1.46906e-05
0.00255812
1.39287e-05
0.00255645
1.32417e-05
0.00255486
1.26544e-05
0.00255332
1.21794e-05
0.00255182
1.18179e-05
0.00255034
1.15611e-05
0.00254887
1.13924e-05
0.0025474
1.12909e-05
0.00254592
1.12337e-05
0.00254443
1.11989e-05
0.00254294
1.1168e-05
0.00254144
1.11273e-05
0.00253994
1.10682e-05
0.00253844
1.09872e-05
0.00253695
1.08847e-05
0.00253548
1.07638e-05
0.00253401
1.06291e-05
0.00253256
1.04855e-05
0.00253112
1.03374e-05
0.0025297
1.01882e-05
0.00252828
1.00402e-05
0.00252688
9.89427e-06
0.00252547
9.74973e-06
0.00252408
9.60392e-06
0.00252268
9.45216e-06
0.00252129
9.28799e-06
0.0025199
9.10383e-06
0.00251852
8.89173e-06
0.00251714
8.64349e-06
0.00251578
8.34896e-06
0.00251444
7.99191e-06
0.00251314
7.54373e-06
0.00251187
6.95693e-06
0.00251065
6.16267e-06
0.00250951
5.07713e-06
0.00250845
3.62036e-06
0.0025075
1.74747e-06
0.00250668
-5.1429e-07
0.002506
-3.03445e-06
0.00250545
-5.56943e-06
0.00250502
-7.78565e-06
0.00250467
-9.31868e-06
0.00250433
-9.85831e-06
0.00250394
-9.23722e-06
0.00250344
-7.49494e-06
0.00250279
-4.89287e-06
0.00250199
-1.8703e-06
0.00250106
1.04966e-06
0.00250009
3.37835e-06
0.00249915
4.77036e-06
0.00249836
5.09229e-06
0.00249778
4.4347e-06
0.00249748
3.06862e-06
0.00249746
1.36359e-06
0.00249768
-3.06718e-07
0.00249808
-1.64563e-06
0.00249856
-2.48301e-06
0.00249904
-2.78603e-06
0.00249947
-2.63566e-06
0.00249978
-2.18164e-06
0.00249998
-1.59206e-06
0.00250008
-1.01158e-06
0.00250011
-5.36671e-07
0.00250008
-2.0954e-07
0.00250004
-2.68962e-08
0.0025
4.32504e-08
0.00249998
4.3588e-08
0.00249997
1.33476e-08
0.00249997
-1.96758e-08
0.00249998
-4.10672e-08
0.00249999
-4.74522e-08
0.00249999
-4.21842e-08
0.0025
-3.10613e-08
0.0025
-1.92852e-08
0.0025
-1.00242e-08
0.0025
-4.30377e-09
0.0025
-1.65589e-09
0.0025
-9.63395e-10
0.0025
-1.12555e-09
0.0025
-1.40075e-09
0.0025
-1.46089e-09
0.0025
-1.27721e-09
0.0025
-9.6064e-10
0.0025
-6.36758e-10
0.0025
-3.83463e-10
0.0025
-2.21796e-10
0.0025
-1.35225e-10
0.0025
-9.42053e-11
0.0025
-7.3397e-11
0.0025
-5.79248e-11
0.0025
-4.27236e-11
0.0025
-2.76142e-11
0.0025
-1.48111e-11
0.0025
-4.93551e-12
3.33958e-12
0.00250162
-2.20751e-05
0.00250662
-6.70467e-05
0.00251589
-0.0001172
0.00253101
-0.000175548
0.00255433
-0.000244657
0.00258912
-0.000325677
0.0026391
-0.000417047
0.00270674
-0.000508749
0.00279236
-0.000588653
0.00288383
-0.000620176
0.00296586
-0.000590716
0.00303604
-0.000537107
0.00309372
-0.000469699
0.00313967
-0.000397393
0.00317552
-0.000326866