/*--------------------------------*- C++ -*----------------------------------*\
  =========                 |
  \\      /  F ield         | OpenFOAM: The Open Source CFD Toolbox
   \\    /   O peration     | Website:  https://openfoam.org
    \\  /    A nd           | Version:  11
     \\/     M anipulation  |
\*---------------------------------------------------------------------------*/
FoamFile
{
    format      ascii;
    class       volVectorField;
    location    "7.100467";
    object      vorticity;
}
// * * * * * * * * * * * * * * * * * * * * * * * * * * * * * * * * * * * * * //

dimensions      [0 0 -1 0 0 0 0];

internalField   nonuniform List<vector> 
7132
(
(-4.39177e-17 -1.82675e-15 -0.0115333)
(-1.34929e-16 -1.78699e-15 -0.0115623)
(-1.3494e-16 -2.3855e-17 -0.0116177)
(-1.69019e-16 -1.77961e-15 -0.0117024)
(-2.11318e-16 -1.76079e-15 -0.0118191)
(-2.02018e-16 8.85841e-18 -0.011969)
(-1.76508e-16 1.8995e-17 -0.0121524)
(-1.6098e-16 1.53405e-17 -0.0123644)
(-7.72182e-17 8.43672e-18 -0.0125987)
(-4.5475e-17 5.07709e-18 -0.0128431)
(-9.44515e-17 2.86098e-18 -0.0130802)
(-9.11511e-17 1.19694e-17 -0.0133115)
(-1.58866e-16 7.06046e-18 -0.0135232)
(6.40826e-17 9.12842e-17 -0.0137092)
(9.40558e-16 -1.53633e-15 -0.0138668)
(2.10199e-15 -1.56158e-15 -0.0139947)
(3.00979e-15 -1.7344e-15 -0.0140947)
(3.02225e-15 -1.70977e-17 -0.0141702)
(2.37838e-15 -1.56223e-15 -0.0142259)
(9.90993e-16 -1.58864e-15 -0.0142673)
(-1.08659e-15 8.36515e-17 -0.0142995)
(-3.09866e-15 1.42215e-16 -0.014326)
(-4.73906e-15 2.20453e-16 -0.0143455)
(-5.83419e-15 1.4323e-16 -0.0143507)
(-6.69347e-15 1.86527e-15 -0.0143289)
(-6.85884e-15 2.56398e-16 -0.0142645)
(-6.59825e-15 2.61933e-16 -0.0141436)
(-5.97439e-15 2.57003e-16 -0.0139586)
(-4.95223e-15 1.38545e-16 -0.0137129)
(-3.73726e-15 1.70621e-15 -0.0134222)
(-1.84107e-15 1.60186e-15 -0.0131146)
(2.86198e-16 1.56332e-15 -0.0128263)
(3.01539e-15 -2.83197e-16 -0.0125948)
(6.08411e-15 1.25411e-15 -0.0124506)
(9.10661e-15 1.12167e-15 -0.012409)
(1.21159e-14 1.01598e-15 -0.0124661)
(1.46417e-14 1.00924e-15 -0.0125998)
(1.66409e-14 -7.40568e-16 -0.012775)
(1.81024e-14 9.51066e-16 -0.0129517)
(1.90862e-14 9.58795e-16 -0.0130931)
(1.99322e-14 9.46926e-16 -0.013171)
(2.05732e-14 2.66667e-15 -0.0131695)
(2.12141e-14 -8.77672e-16 -0.0130857)
(2.19058e-14 7.35093e-16 -0.0129284)
(2.26379e-14 6.27726e-16 -0.0127155)
(2.34221e-14 5.2185e-16 -0.0124708)
(2.39736e-14 4.61034e-16 -0.0122199)
(2.41247e-14 -1.2999e-15 -0.0119867)
(2.36467e-14 4.71967e-16 -0.0117902)
(2.23711e-14 6.208e-16 -0.0116427)
(2.03307e-14 -9.02193e-16 -0.0115489)
(1.75796e-14 -2.42076e-15 -0.0115062)
(1.4228e-14 -4.61685e-16 -0.0115061)
(1.05901e-14 -2.33564e-16 -0.0115361)
(6.84281e-15 -2.78131e-17 -0.0115819)
(3.20202e-15 1.53699e-16 -0.0116297)
(-2.70231e-16 -1.43958e-15 -0.0116681)
(-3.65924e-15 4.30224e-16 -0.0116887)
(-6.99452e-15 5.9281e-16 -0.0116872)
(-1.04599e-14 7.90653e-16 -0.0116629)
(-1.41522e-14 1.03651e-15 -0.011618)
(-1.82351e-14 -4.15179e-16 -0.0115572)
(-2.28521e-14 1.6625e-15 -0.011486)
(-2.80076e-14 3.07787e-16 -0.0114104)
(-3.37388e-14 6.9345e-16 -0.0113358)
(-3.98999e-14 2.83001e-15 -0.0112666)
(-4.64315e-14 1.46941e-15 -0.0112058)
(-5.31216e-14 3.53605e-15 -0.011155)
(-5.97416e-14 2.06668e-15 -0.0111145)
(-6.61273e-14 2.24713e-15 -0.0110831)
(-7.20465e-14 4.10214e-15 -0.0110593)
(-7.74439e-14 2.41561e-15 -0.0110407)
(-8.21921e-14 4.14642e-15 -0.0110248)
(-8.62402e-14 2.35841e-15 -0.0110094)
(-8.96347e-14 2.26858e-15 -0.0109925)
(-9.23754e-14 3.91938e-15 -0.0109728)
(-9.46166e-14 3.69984e-16 -0.0109493)
(-9.64013e-14 3.78502e-15 -0.0109218)
(-9.78058e-14 2.01355e-15 -0.0108904)
(-9.89293e-14 1.99099e-15 -0.0108558)
(-9.97644e-14 3.73263e-15 -0.0108185)
(-1.00395e-13 2.00005e-15 -0.0107795)
(-1.00741e-13 3.72057e-15 -0.0107395)
(-1.00725e-13 1.9185e-15 -0.0106993)
(-1.00281e-13 1.77764e-15 -0.0106592)
(-9.92697e-14 3.31117e-15 -0.0106197)
(-9.76973e-14 1.30226e-15 -0.0105806)
(-9.54813e-14 2.71789e-15 -0.010542)
(-9.26392e-14 6.29231e-16 -0.0105035)
(-8.92602e-14 2.67518e-16 -0.0104647)
(-8.54013e-14 1.67652e-15 -0.0104254)
(-8.12273e-14 -3.6604e-16 -0.010385)
(-7.679e-14 1.09003e-15 -0.0103431)
(-7.21156e-14 8.24019e-16 -0.0102994)
(-6.72301e-14 -1.20108e-15 -0.0102535)
(-6.20978e-14 2.28206e-16 -0.0102053)
(-5.66977e-14 -1.83582e-15 -0.0101545)
(-5.1e-14 -4.2464e-16 -0.010101)
(-4.501e-14 -7.28305e-16 -0.0100446)
(-3.87969e-14 -2.7603e-15 -0.00998521)
(-3.24003e-14 -1.31307e-15 -0.0099227)
(-2.58505e-14 -3.38024e-15 -0.00985689)
(-1.90896e-14 -2.07414e-15 -0.00978756)
(-1.19932e-14 -2.68237e-15 -0.00971448)
(-4.40203e-15 -5.30142e-15 -0.00963736)
(3.92701e-15 -4.76537e-15 -0.00955585)
(1.3234e-14 -8.04691e-15 -0.00946951)
(2.37742e-14 -8.16561e-15 -0.00937778)
(3.57578e-14 -1.02495e-14 -0.00927992)
(4.93075e-14 -1.41785e-14 -0.00917508)
(6.45242e-14 -1.4533e-14 -0.00906246)
(8.14287e-14 -1.80215e-14 -0.00894158)
(1.00018e-13 -1.74247e-14 -0.0088127)
(1.20243e-13 -1.77074e-14 -0.00867712)
(1.42014e-13 -1.87125e-14 -0.00853712)
(1.65322e-13 -1.5145e-14 -0.0083952)
(1.90223e-13 -1.39957e-14 -0.00825236)
(2.16914e-13 -8.44497e-15 -0.0081056)
(2.45652e-13 -3.92147e-15 -0.00794513)
(2.76658e-13 -8.00855e-16 -0.00775237)
(3.10196e-13 5.56948e-15 -0.00749991)
(3.46777e-13 9.12581e-15 -0.00715453)
(3.87371e-13 1.05418e-14 -0.00668339)
(4.33267e-13 8.81747e-15 -0.00606277)
(4.85583e-13 1.70805e-15 -0.0052872)
(5.44419e-13 -5.01216e-15 -0.00437639)
(6.07482e-13 -1.44892e-14 -0.00337725)
(6.68787e-13 -2.12776e-14 -0.00235938)
(7.17716e-13 -2.03878e-14 -0.00140426)
(7.39088e-13 -8.30084e-15 -0.000590021)
(7.14661e-13 2.42074e-14 2.42303e-05)
(6.25924e-13 7.28795e-14 0.00041037)
(4.58172e-13 1.3581e-13 0.000576144)
(2.05133e-13 2.04112e-13 0.000561517)
(-1.26644e-13 2.6268e-13 0.000427662)
(-5.15167e-13 3.01229e-13 0.00024194)
(-9.22952e-13 3.00462e-13 6.32986e-05)
(-1.30038e-12 2.53625e-13 -6.81806e-05)
(-1.59333e-12 1.61426e-13 -0.000135419)
(-1.75428e-12 3.35916e-14 -0.000142126)
(-1.75409e-12 -1.03919e-13 -0.000106008)
(-1.59097e-12 -2.3092e-13 -5.01881e-05)
(-1.29266e-12 -3.22024e-13 4.42453e-06)
(-9.10984e-13 -3.61438e-13 4.3968e-05)
(-5.10081e-13 -3.46937e-13 6.30968e-05)
(-1.51645e-13 -2.81712e-13 6.36486e-05)
(1.1826e-13 -1.88882e-13 5.17338e-05)
(2.77449e-13 -8.88145e-14 3.45824e-05)
(3.28917e-13 -1.84137e-15 1.81528e-05)
(2.95779e-13 5.64791e-14 5.95093e-06)
(2.12187e-13 8.63814e-14 -1.00848e-06)
(1.13145e-13 8.60148e-14 -3.50115e-06)
(2.63529e-14 6.61596e-14 -3.14124e-06)
(-3.23023e-14 3.79152e-14 -1.56702e-06)
(-5.91079e-14 9.31617e-15 3.97528e-08)
(-5.95801e-14 -8.14103e-15 1.08736e-06)
(-4.40039e-14 -1.74568e-14 1.48043e-06)
(-2.31445e-14 -1.82507e-14 1.32795e-06)
(-4.80183e-15 -1.4178e-14 1.29281e-06)
(8.13317e-15 -7.47117e-15 5.77619e-07)
(-4.41444e-17 -3.65994e-18 -0.0344934)
(-1.39843e-16 -6.54785e-18 -0.0345816)
(-1.48658e-16 -7.65732e-18 -0.0347472)
(-1.87376e-16 -8.39598e-18 -0.0349981)
(-2.41503e-16 -7.87379e-18 -0.0353425)
(-2.35004e-16 -6.85295e-18 -0.0357842)
(-2.37451e-16 -1.52399e-18 -0.0363259)
(-2.32217e-16 -3.43041e-17 -0.0369541)
(-3.64623e-17 1.68541e-15 -0.0376529)
(-2.06051e-16 1.36937e-17 -0.0383878)
(-9.38916e-16 2.56991e-17 -0.0391045)
(-7.81814e-16 1.7789e-15 -0.0398078)
(1.92014e-15 -7.05564e-17 -0.0404545)
(6.64241e-15 -4.61816e-16 -0.0410267)
(1.0536e-14 -8.22259e-16 -0.0415176)
(9.91814e-15 -8.61474e-16 -0.0419226)
(2.90271e-15 -4.58107e-16 -0.042245)
(-1.00446e-14 3.00301e-16 -0.0424901)
(-2.55947e-14 1.18727e-15 -0.0426634)
(-4.00285e-14 1.88026e-15 -0.0427687)
(-4.91238e-14 2.12932e-15 -0.042807)
(-5.18784e-14 1.96845e-15 -0.0427764)
(-4.97966e-14 1.58822e-15 -0.0426708)
(-4.41785e-14 1.11874e-15 -0.0424831)
(-3.65799e-14 6.42874e-16 -0.0422096)
(-2.74355e-14 2.10482e-16 -0.0418537)
(-1.74643e-14 -1.80295e-16 -0.0414273)
(-6.77254e-15 -5.66007e-16 -0.0409506)
(4.93904e-15 -9.83405e-16 -0.0404501)
(1.78508e-14 -1.58748e-15 -0.0399549)
(3.23954e-14 -4.08179e-16 -0.0394936)
(4.83777e-14 -4.33097e-15 -0.0390889)
(6.49959e-14 -4.91688e-15 -0.0387533)
(8.05725e-14 -3.52707e-15 -0.038486)
(9.37381e-14 -5.36365e-15 -0.0382738)
(1.03376e-13 -1.75241e-15 -0.0380949)
(1.09221e-13 -2.98633e-15 -0.0379257)
(1.11703e-13 -4.20566e-15 -0.0377455)
(1.11426e-13 -2.00799e-15 -0.0375389)
(1.09505e-13 -3.42553e-15 -0.0372968)
(1.06775e-13 2.03423e-16 -0.0370163)
(1.03976e-13 -1.44206e-15 -0.0367006)
(1.01472e-13 -3.27866e-15 -0.0363588)
(9.91856e-14 -1.71325e-15 -0.0360053)
(9.68172e-14 -3.59904e-15 -0.0356587)
(9.35823e-14 -1.45154e-16 -0.0353382)
(8.85004e-14 -1.62414e-15 -0.0350607)
(8.04972e-14 -4.60543e-15 -0.0348374)
(6.87171e-14 -3.86159e-16 -0.0346718)
(5.30012e-14 -1.19025e-15 -0.0345597)
(3.39028e-14 -2.40873e-16 -0.0344905)
(1.25737e-14 2.36532e-15 -0.0344497)
(-9.55409e-15 1.29822e-15 -0.0344218)
(-3.09416e-14 3.45903e-15 -0.0343924)
(-5.05329e-14 1.93152e-15 -0.0343501)
(-6.78245e-14 1.97592e-15 -0.0342875)
(-8.29284e-14 3.72578e-15 -0.0342014)
(-9.64902e-14 2.05722e-15 -0.0340923)
(-1.09307e-13 3.99312e-15 -0.033964)
(-1.22321e-13 2.63478e-15 -0.0338224)
(-1.3638e-13 3.18984e-15 -0.0336746)
(-1.52163e-13 5.66949e-15 -0.0335278)
(-1.70097e-13 4.81379e-15 -0.0333885)
(-1.90196e-13 7.48608e-15 -0.0332614)
(-2.12273e-13 4.90469e-15 -0.0331496)
(-2.35726e-13 1.26458e-14 -0.0330536)
(-2.5976e-13 9.81498e-15 -0.0329724)
(-2.83522e-13 8.45628e-15 -0.0329031)
(-3.06049e-13 1.03044e-14 -0.0328419)
(-3.26607e-13 6.66475e-15 -0.0327847)
(-3.44519e-13 1.14951e-14 -0.0327275)
(-3.59406e-13 9.2231e-15 -0.0326667)
(-3.71145e-13 6.80986e-15 -0.0325999)
(-3.79753e-13 7.81465e-15 -0.0325256)
(-3.8553e-13 3.60135e-15 -0.0324432)
(-3.88759e-13 8.14499e-15 -0.0323533)
(-3.89854e-13 5.85239e-15 -0.0322569)
(-3.89237e-13 3.645e-15 -0.0321556)
(-3.87221e-13 5.01248e-15 -0.0320512)
(-3.8413e-13 1.23536e-15 -0.0319453)
(-3.80033e-13 6.20036e-15 -0.0318393)
(-3.74927e-13 4.22282e-15 -0.0317342)
(-3.68664e-13 2.15049e-15 -0.0316306)
(-3.60919e-13 3.42369e-15 -0.0315285)
(-3.51403e-13 -6.84741e-16 -0.0314276)
(-3.39728e-13 3.7539e-15 -0.0313271)
(-3.257e-13 1.14277e-15 -0.0312259)
(-3.09302e-13 -1.54586e-15 -0.0311231)
(-2.90686e-13 -7.4651e-16 -0.0310175)
(-2.70277e-13 -5.0863e-15 -0.030908)
(-2.48492e-13 -6.05203e-16 -0.0307937)
(-2.25784e-13 -2.93696e-15 -0.030674)
(-2.02514e-13 -3.46591e-15 -0.0305482)
(-1.78786e-13 -2.22109e-15 -0.0304161)
(-1.5458e-13 -4.47527e-15 -0.0302774)
(-1.2973e-13 -3.30324e-15 -0.0301319)
(-1.04038e-13 -5.64999e-15 -0.0299795)
(-7.74309e-14 -6.26861e-15 -0.0298199)
(-4.9911e-14 -5.09504e-15 -0.0296529)
(-2.16782e-14 -7.33043e-15 -0.029478)
(7.05025e-15 -6.05155e-15 -0.0292947)
(3.61468e-14 -8.30087e-15 -0.0291024)
(6.5647e-14 -9.00289e-15 -0.0289002)
(9.59022e-14 -8.29133e-15 -0.0286873)
(1.27436e-13 -1.15268e-14 -0.0284628)
(1.60963e-13 -1.18487e-14 -0.0282255)
(1.97264e-13 -1.62358e-14 -0.0279741)
(2.37064e-13 -1.94276e-14 -0.0277072)
(2.81082e-13 -2.12814e-14 -0.0274226)
(3.29918e-13 -2.6827e-14 -0.0271181)
(3.84194e-13 -2.88589e-14 -0.0267913)
(4.44584e-13 -3.40337e-14 -0.0264412)
(5.11822e-13 -3.68319e-14 -0.0260685)
(5.86843e-13 -3.69708e-14 -0.0256776)
(6.70716e-13 -3.95172e-14 -0.0252757)
(7.64833e-13 -3.75146e-14 -0.0248718)
(8.70949e-13 -3.80572e-14 -0.0244714)
(9.91111e-13 -3.61597e-14 -0.024069)
(1.12751e-12 -3.20587e-14 -0.0236399)
(1.28197e-12 -3.13382e-14 -0.0231331)
(1.45584e-12 -2.77554e-14 -0.0224696)
(1.65081e-12 -2.7727e-14 -0.0215498)
(1.86927e-12 -3.27028e-14 -0.0202704)
(2.11366e-12 -3.85538e-14 -0.01855)
(2.38438e-12 -5.21333e-14 -0.016357)
(2.67626e-12 -6.42265e-14 -0.0137327)
(2.97395e-12 -7.49386e-14 -0.0108005)
(3.24772e-12 -7.63949e-14 -0.00775664)
(3.4514e-12 -5.38036e-14 -0.00484077)
(3.52404e-12 -5.03844e-15 -0.00229249)
(3.3963e-12 8.25241e-14 -0.000303949)
(3.00119e-12 2.02859e-13 0.00101868)
(2.28835e-12 3.46205e-13 0.0016741)
(1.24038e-12 4.98255e-13 0.00175997)
(-1.11832e-13 6.24565e-13 0.00144437)
(-1.68017e-12 7.01117e-13 0.000923481)
(-3.3186e-12 6.94802e-13 0.000377973)
(-4.83545e-12 5.88816e-13 -6.04242e-05)
(-6.02153e-12 3.90113e-13 -0.000324855)
(-6.69217e-12 1.15702e-13 -0.000410586)
(-6.73314e-12 -1.83843e-13 -0.000357925)
(-6.13563e-12 -4.59899e-13 -0.000228463)
(-5.00574e-12 -6.62015e-13 -8.26146e-05)
(-3.54393e-12 -7.50992e-13 3.57979e-05)
(-1.99942e-12 -7.24871e-13 0.000105665)
(-6.12944e-13 -5.94148e-13 0.000126477)
(4.35123e-13 -4.01695e-13 0.000111155)
(1.05679e-12 -1.94143e-13 7.75465e-05)
(1.26199e-12 -9.27146e-15 4.15422e-05)
(1.13913e-12 1.16579e-13 1.33083e-05)
(8.19692e-13 1.79433e-13 -3.35763e-06)
(4.39006e-13 1.80667e-13 -9.51399e-06)
(1.04323e-13 1.38883e-13 -8.7065e-06)
(-1.22546e-13 8.23803e-14 -4.82705e-06)
(-2.26742e-13 2.46898e-14 -7.84242e-07)
(-2.29282e-13 -1.39583e-14 1.92533e-06)
(-1.69631e-13 -3.39399e-14 3.03954e-06)
(-8.93913e-14 -3.78517e-14 2.77976e-06)
(-1.87408e-14 -2.80821e-14 2.98184e-06)
(3.12142e-14 -1.2204e-14 1.24788e-06)
(-1.20227e-18 -3.11268e-20 -0.0571458)
(-1.66855e-17 -1.35667e-20 -0.0572884)
(-3.12428e-17 -8.81301e-20 -0.0575571)
(-5.53849e-17 1.5309e-18 -0.0579653)
(-6.63148e-17 -2.25373e-18 -0.0585265)
(-7.21438e-17 6.83272e-18 -0.0592481)
(-2.69404e-16 1.76015e-17 -0.0601345)
(3.18312e-16 -7.16015e-17 -0.0611637)
(-4.23824e-17 -4.64628e-18 -0.0623109)
(-2.96437e-15 4.42751e-16 -0.0635164)
(-6.87181e-16 3.04295e-16 -0.0646861)
(1.33102e-14 -1.41756e-15 -0.0658413)
(2.70301e-14 -3.71861e-15 -0.0669034)
(1.72307e-14 -4.21666e-15 -0.0678448)
(-3.03294e-14 -1.43947e-15 -0.0686558)
(-1.09996e-13 3.9898e-15 -0.0693296)
(-2.00528e-13 9.98171e-15 -0.0698707)
(-2.76056e-13 1.42316e-14 -0.070284)
(-3.15114e-13 1.51644e-14 -0.0705704)
(-3.06059e-13 1.19107e-14 -0.0707242)
(-2.47654e-13 6.00862e-15 -0.0707322)
(-1.61935e-13 4.78575e-16 -0.0705791)
(-7.14591e-14 -3.62952e-15 -0.0702536)
(1.20926e-14 -6.46512e-15 -0.069758)
(8.35595e-14 -8.24092e-15 -0.0691167)
(1.42581e-13 -9.30138e-15 -0.0683799)
(1.91997e-13 -1.00696e-14 -0.0676164)
(2.3608e-13 -1.09447e-14 -0.0669006)
(2.78861e-13 -1.21731e-14 -0.0662944)
(3.22667e-13 -1.37635e-14 -0.0658317)
(3.67014e-13 -1.53895e-14 -0.0655093)
(4.08223e-13 -1.64581e-14 -0.0652854)
(4.40483e-13 -1.63874e-14 -0.0650872)
(4.58283e-13 -1.48551e-14 -0.0648268)
(4.59117e-13 -1.20217e-14 -0.0644227)
(4.44577e-13 -8.46368e-15 -0.0638219)
(4.19154e-13 -4.87519e-15 -0.0630142)
(3.88213e-13 -1.84322e-15 -0.0620327)
(3.56034e-13 3.15173e-16 -0.0609449)
(3.25171e-13 1.54294e-15 -0.0598352)
(2.96601e-13 1.97008e-15 -0.0587879)
(2.7014e-13 1.85552e-15 -0.0578734)
(2.44669e-13 1.51745e-15 -0.0571405)
(2.1817e-13 1.33124e-15 -0.0566137)
(1.87724e-13 1.69128e-15 -0.0562947)
(1.49694e-13 2.94212e-15 -0.0561648)
(1.00375e-13 5.27394e-15 -0.0561888)
(3.7119e-14 8.59173e-15 -0.0563191)
(-4.04698e-14 1.24844e-14 -0.0565019)
(-1.29721e-13 1.62937e-14 -0.0566835)
(-2.25087e-13 1.93107e-14 -0.0568167)
(-3.19361e-13 2.27769e-14 -0.0568667)
(-4.05527e-13 2.1296e-14 -0.0568143)
(-4.78456e-13 2.02565e-14 -0.0566568)
(-5.35889e-13 1.84145e-14 -0.0564058)
(-5.785e-13 1.63506e-14 -0.0560836)
(-6.09234e-13 1.63635e-14 -0.0557189)
(-6.323e-13 1.36195e-14 -0.0553414)
(-6.52188e-13 1.3508e-14 -0.0549782)
(-6.72899e-13 1.43279e-14 -0.0546512)
(-6.97452e-13 1.59559e-14 -0.0543752)
(-7.27653e-13 1.99128e-14 -0.0541577)
(-7.6401e-13 2.06789e-14 -0.0539991)
(-8.05817e-13 2.48663e-14 -0.053894)
(-8.51304e-13 2.51924e-14 -0.053832)
(-8.97956e-13 2.65716e-14 -0.0538003)
(-9.42873e-13 2.88383e-14 -0.0537843)
(-9.83203e-13 2.66806e-14 -0.0537703)
(-1.01654e-12 2.70789e-14 -0.0537458)
(-1.04116e-12 2.32165e-14 -0.0537016)
(-1.05621e-12 2.05009e-14 -0.0536316)
(-1.06161e-12 1.91986e-14 -0.0535334)
(-1.05793e-12 1.432e-14 -0.0534075)
(-1.04618e-12 1.30208e-14 -0.0532574)
(-1.02759e-12 8.50598e-15 -0.0530884)
(-1.00341e-12 6.08084e-15 -0.0529067)
(-9.74812e-13 5.81404e-15 -0.0527186)
(-9.4275e-13 2.46852e-15 -0.0525299)
(-9.07919e-13 2.92974e-15 -0.0523452)
(-8.70704e-13 1.30917e-16 -0.0521677)
(-8.31152e-13 -8.69752e-16 -0.0519991)
(-7.88971e-13 -2.14145e-16 -0.0518396)
(-7.43569e-13 -3.2834e-15 -0.051688)
(-6.94166e-13 -3.24181e-15 -0.0515421)
(-6.39953e-13 -7.08358e-15 -0.0513993)
(-5.8031e-13 -9.54145e-15 -0.0512563)
(-5.15021e-13 -1.04403e-14 -0.0511101)
(-4.44408e-13 -1.47888e-14 -0.0509578)
(-3.69357e-13 -1.54136e-14 -0.0507971)
(-2.91171e-13 -1.90954e-14 -0.0506262)
(-2.11313e-13 -2.0571e-14 -0.050444)
(-1.31062e-13 -2.16199e-14 -0.0502499)
(-5.12236e-14 -2.24091e-14 -0.0500438)
(2.80203e-14 -2.31428e-14 -0.0498259)
(1.07072e-13 -2.39945e-14 -0.0495966)
(1.86693e-13 -2.50427e-14 -0.0493564)
(2.67669e-13 -2.62501e-14 -0.0491055)
(3.5049e-13 -2.74888e-14 -0.0488438)
(4.35167e-13 -2.86047e-14 -0.0485712)
(5.21241e-13 -2.9506e-14 -0.0482868)
(6.07984e-13 -3.02255e-14 -0.0479897)
(6.94711e-13 -3.09437e-14 -0.0476787)
(7.81062e-13 -3.19523e-14 -0.0473522)
(8.67169e-13 -3.35771e-14 -0.0470087)
(9.53631e-13 -3.60971e-14 -0.0466465)
(1.04138e-12 -3.96793e-14 -0.0462636)
(1.13151e-12 -4.4362e-14 -0.0458581)
(1.22523e-12 -5.00746e-14 -0.0454275)
(1.32399e-12 -5.66767e-14 -0.0449686)
(1.42976e-12 -6.4e-14 -0.0444779)
(1.54543e-12 -7.18661e-14 -0.043952)
(1.67511e-12 -8.01004e-14 -0.043389)
(1.82438e-12 -8.85544e-14 -0.0427904)
(2.00027e-12 -9.71542e-14 -0.0421633)
(2.21113e-12 -1.05973e-13 -0.0415206)
(2.46642e-12 -1.15262e-13 -0.0408786)
(2.77634e-12 -1.254e-13 -0.0402495)
(3.15134e-12 -1.36726e-13 -0.0396294)
(3.60111e-12 -1.4935e-13 -0.0389839)
(4.13332e-12 -1.63233e-13 -0.0382352)
(4.75229e-12 -1.78853e-13 -0.0372571)
(5.45985e-12 -1.97586e-13 -0.0358846)
(6.25618e-12 -2.20882e-13 -0.0339401)
(7.13679e-12 -2.4874e-13 -0.031274)
(8.08649e-12 -2.77855e-13 -0.0278129)
(9.07063e-12 -2.99796e-13 -0.0236002)
(1.00256e-11 -3.00223e-13 -0.0188175)
(1.08523e-11 -2.60002e-13 -0.0137738)
(1.1416e-11 -1.58547e-13 -0.00886138)
(1.15556e-11 2.09845e-14 -0.00448617)
(1.11016e-11 2.85633e-13 -0.000987889)
(9.90181e-12 6.26854e-13 0.0014275)
(7.85218e-12 1.01621e-12 0.00272518)
(4.93202e-12 1.4042e-12 0.00303824)
(1.23685e-12 1.72469e-12 0.00262599)
(-3.00156e-12 1.90461e-12 0.00180704)
(-7.41131e-12 1.8781e-12 0.000886919)
(-1.15065e-11 1.60509e-12 9.97819e-05)
(-1.47538e-11 1.08979e-12 -0.000422721)
(-1.66767e-11 3.91133e-13 -0.00065197)
(-1.69729e-11 -3.82189e-13 -0.000638247)
(-1.56068e-11 -1.09462e-12 -0.0004738)
(-1.2839e-11 -1.61787e-12 -0.000256039)
(-9.17704e-12 -1.86459e-12 -6.07115e-05)
(-5.26054e-12 -1.81069e-12 7.05074e-05)
(-1.71314e-12 -1.49899e-12 0.000128959)
(9.9229e-13 -1.02375e-12 0.000129112)
(2.61868e-12 -5.0225e-13 9.56664e-05)
(3.18099e-12 -4.30127e-14 5.24866e-05)
(2.89801e-12 2.79365e-13 1.60284e-05)
(2.10224e-12 4.36445e-13 -6.42097e-06)
(1.13928e-12 4.43699e-13 -1.49981e-05)
(2.85356e-13 3.46936e-13 -1.39559e-05)
(-2.98338e-13 2.03448e-13 -8.4867e-06)
(-5.70529e-13 6.44191e-14 -2.64699e-06)
(-5.82481e-13 -3.66966e-14 1.40173e-06)
(-4.33819e-13 -8.74023e-14 3.236e-06)
(-2.30571e-13 -9.36956e-14 3.08406e-06)
(-5.03938e-14 -7.44807e-14 3.83155e-06)
(7.82293e-14 -3.07139e-14 1.43557e-06)
(-4.44521e-17 5.28395e-18 -0.0792713)
(-1.47293e-16 8.47243e-18 -0.0794603)
(-1.29098e-16 1.16924e-17 -0.079819)
(-1.88951e-16 9.13999e-18 -0.0803665)
(1.22183e-17 5.05662e-19 -0.0811225)
(-6.05708e-16 9.46917e-17 -0.0820979)
(4.57067e-16 -1.96752e-16 -0.0833003)
(1.6774e-15 -1.47815e-16 -0.0846976)
(-8.93942e-15 3.32675e-15 -0.0862584)
(7.2499e-16 3.36093e-16 -0.087892)
(4.98761e-14 -9.84629e-15 -0.0894572)
(5.36693e-14 -1.20798e-14 -0.0910144)
(-9.83317e-14 -2.03081e-15 -0.092438)
(-4.0787e-13 2.8218e-14 -0.0936936)
(-7.53756e-13 6.27911e-14 -0.0947714)
(-9.76462e-13 8.42379e-14 -0.095662)
(-9.64474e-13 8.25719e-14 -0.0963744)
(-6.87857e-13 5.75931e-14 -0.0969161)
(-1.91163e-13 1.61889e-14 -0.0972891)
(4.30156e-13 -3.18497e-14 -0.0974847)
(1.02845e-12 -6.99327e-14 -0.0974839)
(1.49971e-12 -8.61288e-14 -0.097263)
(1.82053e-12 -8.54258e-14 -0.0968032)
(1.99734e-12 -7.63906e-14 -0.0961055)
(2.05736e-12 -6.46015e-14 -0.0952039)
(2.03817e-12 -5.40084e-14 -0.0941707)
(1.97864e-12 -4.69294e-14 -0.0931073)
(1.90819e-12 -4.39979e-14 -0.0921249)
(1.84185e-12 -4.4277e-14 -0.0913172)
(1.77817e-12 -4.56641e-14 -0.0907352)
(1.70084e-12 -4.31863e-14 -0.090372)
(1.5864e-12 -4.10655e-14 -0.0901603)
(1.41656e-12 -2.99468e-14 -0.0899852)
(1.19192e-12 -1.28441e-14 -0.0897085)
(9.37112e-13 1.48941e-15 -0.0892013)
(6.89723e-13 1.82291e-14 -0.088377)
(4.82726e-13 2.51957e-14 -0.0872116)
(3.31193e-13 2.56199e-14 -0.0857491)
(2.30871e-13 2.9513e-14 -0.0840901)
(1.66095e-13 2.62907e-14 -0.0823698)
(1.17647e-13 2.77188e-14 -0.0807309)
(6.88186e-14 2.45239e-14 -0.0792995)
(5.83954e-15 2.27066e-14 -0.0781676)
(-8.28793e-14 2.67593e-14 -0.0773842)
(-2.07787e-13 3.0639e-14 -0.0769545)
(-3.78578e-13 4.35296e-14 -0.0768443)
(-6.01277e-13 5.46631e-14 -0.0769884)
(-8.74919e-13 6.75516e-14 -0.0773012)
(-1.18822e-12 8.30339e-14 -0.0776883)
(-1.51922e-12 9.11181e-14 -0.0780582)
(-1.8394e-12 9.45787e-14 -0.0783338)
(-2.1205e-12 9.25857e-14 -0.0784596)
(-2.34148e-12 7.91116e-14 -0.0784067)
(-2.49279e-12 6.86399e-14 -0.0781734)
(-2.57711e-12 5.19536e-14 -0.0777815)
(-2.60641e-12 3.86467e-14 -0.0772705)
(-2.59784e-12 3.06254e-14 -0.0766898)
(-2.56948e-12 2.35362e-14 -0.076091)
(-2.53713e-12 2.4293e-14 -0.075521)
(-2.51258e-12 2.52667e-14 -0.0750171)
(-2.50279e-12 3.05649e-14 -0.0746044)
(-2.51007e-12 3.89484e-14 -0.0742943)
(-2.53246e-12 4.38968e-14 -0.074086)
(-2.56462e-12 5.11333e-14 -0.0739682)
(-2.59891e-12 5.0975e-14 -0.0739219)
(-2.62667e-12 5.66947e-14 -0.0739236)
(-2.63976e-12 5.24385e-14 -0.0739484)
(-2.63173e-12 4.5288e-14 -0.0739724)
(-2.59881e-12 3.92844e-14 -0.0739756)
(-2.54017e-12 2.6504e-14 -0.073943)
(-2.45763e-12 2.17204e-14 -0.0738653)
(-2.35488e-12 1.00827e-14 -0.0737396)
(-2.23641e-12 -9.06494e-16 -0.0735679)
(-2.10668e-12 -7.35773e-15 -0.0733569)
(-1.96941e-12 -1.77833e-14 -0.0731158)
(-1.82725e-12 -1.8243e-14 -0.0728556)
(-1.68178e-12 -2.44787e-14 -0.072587)
(-1.53357e-12 -2.98025e-14 -0.0723194)
(-1.38239e-12 -3.10106e-14 -0.0720606)
(-1.22745e-12 -3.71473e-14 -0.0718154)
(-1.06747e-12 -3.46666e-14 -0.0715863)
(-9.00912e-13 -3.95687e-14 -0.0713731)
(-7.26001e-13 -4.52516e-14 -0.0711736)
(-5.41078e-13 -4.83845e-14 -0.070984)
(-3.44887e-13 -5.76125e-14 -0.0707996)
(-1.36961e-13 -5.87123e-14 -0.0706153)
(8.19887e-14 -6.6808e-14 -0.0704259)
(3.09986e-13 -7.43781e-14 -0.070227)
(5.43858e-13 -7.73651e-14 -0.070015)
(7.79745e-13 -8.41074e-14 -0.0697873)
(1.01383e-12 -8.06599e-14 -0.0695423)
(1.2432e-12 -8.29819e-14 -0.0692794)
(1.46649e-12 -8.30069e-14 -0.0689988)
(1.68414e-12 -8.13689e-14 -0.0687013)
(1.89825e-12 -8.38116e-14 -0.0683877)
(2.11173e-12 -8.36015e-14 -0.0680589)
(2.32749e-12 -8.75484e-14 -0.0677155)
(2.54751e-12 -9.00179e-14 -0.0673577)
(2.77219e-12 -9.04704e-14 -0.0669851)
(3.00037e-12 -9.37387e-14 -0.0665968)
(3.22964e-12 -9.27867e-14 -0.0661915)
(3.45713e-12 -9.48401e-14 -0.0657674)
(3.68014e-12 -9.52318e-14 -0.0653223)
(3.89659e-12 -9.45757e-14 -0.0648541)
(4.10514e-12 -9.86317e-14 -0.0643602)
(4.30508e-12 -1.00787e-13 -0.0638381)
(4.49635e-12 -1.08162e-13 -0.063285)
(4.67996e-12 -1.15668e-13 -0.0626976)
(4.8588e-12 -1.23546e-13 -0.0620717)
(5.03913e-12 -1.37545e-13 -0.0614027)
(5.23197e-12 -1.51534e-13 -0.0606858)
(5.45445e-12 -1.73513e-13 -0.0599184)
(5.73033e-12 -1.99413e-13 -0.0591022)
(6.08956e-12 -2.30346e-13 -0.0582465)
(6.56702e-12 -2.7259e-13 -0.0573687)
(7.20056e-12 -3.20119e-13 -0.0564918)
(8.02864e-12 -3.80515e-13 -0.0556342)
(9.08782e-12 -4.48544e-13 -0.0547943)
(1.04096e-11 -5.23049e-13 -0.0539297)
(1.20167e-11 -6.06925e-13 -0.0529385)
(1.39185e-11 -6.9102e-13 -0.0516509)
(1.61094e-11 -7.79673e-13 -0.0498401)
(1.85707e-11 -8.71173e-13 -0.0472556)
(2.12611e-11 -9.5371e-13 -0.04368)
(2.41022e-11 -1.01906e-12 -0.0389955)
(2.69598e-11 -1.03379e-12 -0.0332438)
(2.96283e-11 -9.65759e-13 -0.0266596)
(3.1826e-11 -7.7158e-13 -0.0196602)
(3.32075e-11 -4.05467e-13 -0.0127878)
(3.33932e-11 1.52133e-13 -0.00661324)
(3.20145e-11 9.0942e-13 -0.00162444)
(2.87653e-11 1.82759e-12 0.0018714)
(2.34608e-11 2.8311e-12 0.00380406)
(1.61023e-11 3.80592e-12 0.00434027)
(6.93988e-12 4.59135e-12 0.00382914)
(-3.48359e-12 5.02519e-12 0.00271061)
(-1.43147e-11 4.94726e-12 0.00141447)
(-2.44353e-11 4.26008e-12 0.000277008)
(-3.26035e-11 2.97525e-12 -0.000505322)
(-3.76881e-11 1.22524e-12 -0.000879821)
(-3.89447e-11 -7.1881e-13 -0.000906526)
(-3.62427e-11 -2.52687e-12 -0.000708204)
(-3.01489e-11 -3.8769e-12 -0.000419275)
(-2.1827e-11 -4.5402e-12 -0.000147571)
(-1.27731e-11 -4.45682e-12 4.44224e-05)
(-4.46827e-12 -3.72056e-12 0.000139675)
(1.94507e-12 -2.5676e-12 0.0001541)
(5.87192e-12 -1.28849e-12 0.000119291)
(7.31143e-12 -1.48936e-13 6.72579e-05)
(6.75007e-12 6.55952e-13 2.09773e-05)
(4.95332e-12 1.0588e-12 -8.56479e-06)
(2.72911e-12 1.08911e-12 -2.04586e-05)
(7.31626e-13 8.57692e-13 -1.96475e-05)
(-6.50282e-13 5.10323e-13 -1.27007e-05)
(-1.30869e-12 1.66761e-13 -4.95212e-06)
(-1.35539e-12 -8.23133e-14 6.3701e-07)
(-1.01951e-12 -2.09895e-13 3.37691e-06)
(-5.48751e-13 -2.29564e-13 3.4446e-06)
(-1.27063e-13 -1.82482e-13 4.81413e-06)
(1.78427e-13 -7.65155e-14 1.65655e-06)
(4.90816e-17 1.83056e-15 -0.100606)
(1.7753e-16 1.77703e-15 -0.100831)
(1.21976e-16 2.07411e-17 -0.101262)
(2.59114e-16 1.6656e-15 -0.101924)
(5.40963e-16 1.94085e-15 -0.102842)
(-1.85105e-15 1.51913e-15 -0.104034)
(9.58408e-15 -1.12395e-15 -0.105508)
(-2.03247e-14 4.65375e-15 -0.107223)
(-9.06018e-15 4.71558e-16 -0.109143)
(1.42451e-13 -3.07539e-14 -0.111138)
(5.1328e-14 -2.61408e-14 -0.113009)
(-6.35315e-13 7.27135e-14 -0.114897)
(-1.55392e-12 2.27024e-13 -0.116603)
(-1.86028e-12 3.23495e-13 -0.118092)
(-9.1713e-13 2.82856e-13 -0.119359)
(1.3426e-12 1.11083e-13 -0.120396)
(4.50611e-12 -1.32586e-13 -0.121222)
(7.95082e-12 -3.72424e-13 -0.121848)
(1.10423e-11 -5.42107e-13 -0.122279)
(1.32578e-11 -5.94427e-13 -0.122503)
(1.4077e-11 -5.28768e-13 -0.122491)
(1.36394e-11 -3.9556e-13 -0.122207)
(1.25199e-11 -2.52445e-13 -0.121628)
(1.10789e-11 -1.24881e-13 -0.120759)
(9.56401e-12 -2.86586e-14 -0.119641)
(8.12304e-12 2.65899e-14 -0.118363)
(6.82078e-12 5.49206e-14 -0.117051)
(5.65528e-12 5.74518e-14 -0.115842)
(4.57099e-12 5.28399e-14 -0.114853)
(3.47423e-12 5.67272e-14 -0.114151)
(2.25867e-12 7.70405e-14 -0.113729)
(8.55139e-13 1.23973e-13 -0.113502)
(-7.1022e-13 1.80837e-13 -0.113326)
(-2.28571e-12 2.23127e-13 -0.113025)
(-3.63996e-12 2.35594e-13 -0.112435)
(-4.56717e-12 2.15253e-13 -0.111446)
(-4.98034e-12 1.72682e-13 -0.110022)
(-4.9363e-12 1.24084e-13 -0.108215)
(-4.58862e-12 8.11295e-14 -0.106146)
(-4.11554e-12 5.6393e-14 -0.10398)
(-3.6659e-12 4.886e-14 -0.1019)
(-3.33815e-12 5.6065e-14 -0.100071)
(-3.18676e-12 7.73664e-14 -0.0986178)
(-3.23766e-12 1.0641e-13 -0.0976109)
(-3.50107e-12 1.47799e-13 -0.0970629)
(-3.97445e-12 1.97939e-13 -0.0969325)
(-4.63646e-12 2.5172e-13 -0.0971355)
(-5.43832e-12 3.02061e-13 -0.0975595)
(-6.30111e-12 3.32897e-13 -0.0980798)
(-7.12628e-12 3.40153e-13 -0.0985769)
(-7.81749e-12 3.19953e-13 -0.0989494)
(-8.30435e-12 2.75549e-13 -0.0991253)
(-8.5577e-12 2.0744e-13 -0.099067)
(-8.59055e-12 1.39806e-13 -0.098772)
(-8.44641e-12 7.52227e-14 -0.098268)
(-8.18333e-12 2.67183e-14 -0.0976062)
(-7.85909e-12 -3.6189e-16 -0.0968508)
(-7.5216e-12 -1.67362e-14 -0.0960697)
(-7.20472e-12 -1.32099e-14 -0.0953251)
(-6.92705e-12 -2.84061e-15 -0.0946674)
(-6.69345e-12 1.46974e-14 -0.0941303)
(-6.49693e-12 3.64818e-14 -0.09373)
(-6.32137e-12 4.7958e-14 -0.0934659)
(-6.14492e-12 5.98263e-14 -0.0933231)
(-5.94361e-12 5.62166e-14 -0.0932764)
(-5.69588e-12 4.87303e-14 -0.0932942)
(-5.38631e-12 3.31042e-14 -0.093343)
(-5.00886e-12 6.2027e-15 -0.0933911)
(-4.56771e-12 -1.69666e-14 -0.0934116)
(-4.07587e-12 -4.73717e-14 -0.0933844)
(-3.55211e-12 -7.04131e-14 -0.0932975)
(-3.01646e-12 -8.96765e-14 -0.0931466)
(-2.48654e-12 -1.09781e-13 -0.0929348)
(-1.97462e-12 -1.18745e-13 -0.0926707)
(-1.48641e-12 -1.31208e-13 -0.0923669)
(-1.0217e-12 -1.35998e-13 -0.0920377)
(-5.75489e-13 -1.39291e-13 -0.0916975)
(-1.40114e-13 -1.47228e-13 -0.0913592)
(2.93162e-13 -1.48394e-13 -0.0910327)
(7.32884e-13 -1.57328e-13 -0.0907247)
(1.18637e-12 -1.62405e-13 -0.0904386)
(1.65953e-12 -1.69214e-13 -0.0901739)
(2.15637e-12 -1.832e-13 -0.0899278)
(2.67893e-12 -1.92063e-13 -0.0896952)
(3.22709e-12 -2.09143e-13 -0.0894697)
(3.79811e-12 -2.21246e-13 -0.0892443)
(4.38673e-12 -2.32177e-13 -0.0890123)
(4.98508e-12 -2.45724e-13 -0.0887677)
(5.58365e-12 -2.48558e-13 -0.0885058)
(6.17264e-12 -2.54084e-13 -0.0882231)
(6.74363e-12 -2.50564e-13 -0.0879178)
(7.29155e-12 -2.47945e-13 -0.0875891)
(7.81573e-12 -2.42884e-13 -0.0872376)
(8.3203e-12 -2.39025e-13 -0.0868642)
(8.81333e-12 -2.37787e-13 -0.0864703)
(9.3048e-12 -2.3793e-13 -0.0860572)
(9.80413e-12 -2.44138e-13 -0.0856256)
(1.03178e-11 -2.49837e-13 -0.0851758)
(1.08475e-11 -2.55034e-13 -0.0847074)
(1.139e-11 -2.58233e-13 -0.0842193)
(1.19378e-11 -2.56871e-13 -0.0837099)
(1.24801e-11 -2.56192e-13 -0.0831768)
(1.3005e-11 -2.51683e-13 -0.0826174)
(1.35007e-11 -2.46077e-13 -0.082029)
(1.39561e-11 -2.40342e-13 -0.0814084)
(1.43616e-11 -2.3355e-13 -0.0807524)
(1.47107e-11 -2.31802e-13 -0.0800574)
(1.50012e-11 -2.31302e-13 -0.0793195)
(1.52396e-11 -2.36262e-13 -0.0785335)
(1.54454e-11 -2.50583e-13 -0.0776938)
(1.56555e-11 -2.77793e-13 -0.0767945)
(1.59277e-11 -3.29282e-13 -0.0758318)
(1.6342e-11 -4.06108e-13 -0.0748073)
(1.69978e-11 -5.15499e-13 -0.0737314)
(1.80088e-11 -6.61473e-13 -0.072625)
(1.94947e-11 -8.44338e-13 -0.0715162)
(2.15717e-11 -1.06903e-12 -0.0704292)
(2.43433e-11 -1.3272e-12 -0.0693649)
(2.78917e-11 -1.61378e-12 -0.0682748)
(3.22682e-11 -1.91767e-12 -0.0670369)
(3.74821e-11 -2.2235e-12 -0.0654428)
(4.34893e-11 -2.52371e-12 -0.0632086)
(5.01933e-11 -2.79673e-12 -0.0600154)
(5.74279e-11 -3.01449e-12 -0.0555788)
(6.4925e-11 -3.12718e-12 -0.0497345)
(7.22817e-11 -3.06109e-12 -0.0425176)
(7.89413e-11 -2.73336e-12 -0.0342091)
(8.42036e-11 -2.0496e-12 -0.025328)
(8.72719e-11 -9.42135e-13 -0.0165607)
(8.73309e-11 6.17491e-13 -0.00864032)
(8.36402e-11 2.60133e-12 -0.00220202)
(7.56296e-11 4.90368e-12 0.00234468)
(6.29961e-11 7.34772e-12 0.00489218)