/*--------------------------------*- C++ -*----------------------------------*\
  =========                 |
  \\      /  F ield         | OpenFOAM: The Open Source CFD Toolbox
   \\    /   O peration     | Website:  https://openfoam.org
    \\  /    A nd           | Version:  11
     \\/     M anipulation  |
\*---------------------------------------------------------------------------*/
FoamFile
{
    format      ascii;
    class       surfaceScalarField;
    location    "15.752367";
    object      phi_0;
}
// * * * * * * * * * * * * * * * * * * * * * * * * * * * * * * * * * * * * * //

dimensions      [0 3 -1 0 0 0 0];

internalField   nonuniform List<scalar> 
14638
(
0.00250249
-2.49356e-06
0.00251021
-7.71757e-06
0.00252352
-1.33101e-05
0.00254267
-1.91511e-05
0.00256765
-2.49729e-05
0.00259792
-3.02716e-05
0.00263227
-3.43546e-05
0.00266851
-3.62436e-05
0.00270348
-3.49648e-05
0.00273326
-2.97843e-05
0.00275383
-2.05692e-05
0.00276275
-8.91753e-06
0.00275956
3.19437e-06
0.00274588
1.3672e-05
0.0027259
1.99823e-05
0.00270537
2.05357e-05
0.00269009
1.52747e-05
0.00268436
5.734e-06
0.00268959
-5.22792e-06
0.00270352
-1.39371e-05
0.0027203
-1.67751e-05
0.00273203
-1.17306e-05
0.00273177
2.55234e-07
0.00271612
1.56553e-05
0.0026859
3.02156e-05
0.00264525
4.0648e-05
0.00260012
4.51381e-05
0.0025571
4.30193e-05
0.0025228
3.42945e-05
0.00250336
1.94471e-05
0.00250368
-3.21331e-07
0.00252615
-2.24749e-05
0.00256866
-4.25095e-05
0.00262319
-5.4524e-05
0.00267684
-5.36577e-05
0.00271593
-3.90905e-05
0.00273098
-1.50474e-05
0.00271963
1.13488e-05
0.0026861
3.35339e-05
0.00263834
4.77546e-05
0.00258532
5.30264e-05
0.00253548
4.98367e-05
0.00249654
3.89403e-05
0.00247556
2.09836e-05
0.00247846
-2.89901e-06
0.00250826
-2.98016e-05
0.00256236
-5.41007e-05
0.00263081
-6.84494e-05
0.00269782
-6.70081e-05
0.00274677
-4.89578e-05
0.00276629
-1.95144e-05
0.00275374
1.25523e-05
0.00271473
3.90078e-05
0.00265958
5.5151e-05
0.00259945
6.01254e-05
0.00254417
5.52829e-05
0.00250186
4.23046e-05
0.00247949
2.23702e-05
0.0024827
-3.21041e-06
0.00251415
-3.14438e-05
0.00257084
-5.66924e-05
0.0026426
-7.17583e-05
0.00271352
-7.09186e-05
0.00276661
-5.30942e-05
0.00278955
-2.29363e-05
0.00277853
1.10153e-05
0.00273863
3.99046e-05
0.00268079
5.78396e-05
0.00261766
6.3126e-05
0.00256044
5.72242e-05
0.00251778
4.26565e-05
0.00249623
2.15528e-05
0.00250037
-4.13836e-06
0.00253161
-3.12443e-05
0.00258617
-5.45596e-05
0.00265411
-6.79403e-05
0.00272097
-6.68622e-05
0.0027717
-5.07257e-05
0.00279511
-2.34144e-05
0.00278702
8.09339e-06
0.00275086
3.61589e-05
0.00269596
5.49001e-05
0.00263436
6.1598e-05
0.00257774
5.6627e-05
0.00253555
4.21829e-05
0.00251464
2.09154e-05
0.00251899
-4.35213e-06
0.00254886
-2.98707e-05
0.0025995
-5.0638e-05
0.00266103
-6.15339e-05
0.00272042
-5.93918e-05
0.00276494
-4.45139e-05
0.00278556
-2.06183e-05
0.00277899
6.56712e-06
0.00274786
3.11263e-05
0.00269943
4.84325e-05
0.00264354
5.58853e-05
0.00259061
5.2935e-05
0.00255002
4.0592e-05
0.00252914
2.08788e-05
0.00253238
-3.24447e-06
0.00255998
-2.75944e-05
0.00260702
-4.70371e-05
0.00266385
-5.68346e-05
0.00271831
-5.44621e-05
0.002759
-4.06914e-05
0.00277824
-1.92382e-05
0.00277353
4.71451e-06
0.00274731
2.62145e-05
0.00270563
4.1683e-05
0.00265646
4.91664e-05
0.00260848
4.79865e-05
0.00257014
3.83363e-05
0.00254889
2.12475e-05
0.0025499
-1.0061e-06
0.00257444
-2.45373e-05
0.00261871
-4.42699e-05
0.00267407
-5.53633e-05
0.00272905
-5.49817e-05
0.00277244
-4.33894e-05
0.00279622
-2.37837e-05
0.00279726
-1.03916e-06
0.00277732
1.99418e-05
0.00274175
3.55739e-05
0.00269767
4.40764e-05
0.00265259
4.50847e-05
0.00261371
3.88718e-05
0.00258781
2.59067e-05
0.00258064
7.16416e-06
0.00259576
-1.51155e-05
0.00263287
-3.7111e-05
0.00268705
-5.41763e-05
0.00274944
-6.23948e-05
0.00280947
-6.00336e-05
0.00285758
-4.81083e-05
0.00288748
-2.98939e-05
0.00289724
-9.7591e-06
0.0028891
8.13346e-06
0.00286827
2.08328e-05
0.00284119
2.70783e-05
0.00281401
2.71845e-05
0.0027915
2.25066e-05
0.0027767
1.4802e-05
0.00277089
5.8128e-06
0.00277372
-2.83917e-06
0.00278337
-9.6432e-06
0.00279671
-1.33425e-05
0.00280997
-1.32639e-05
0.00281964
-9.66297e-06
0.0028234
-3.75827e-06
0.00282088
2.51583e-06
0.00281372
7.15498e-06
0.0028053
8.42128e-06
0.00279975
5.55459e-06
0.00280165
-1.89814e-06
0.00281443
-1.27782e-05
0.00284152
-2.70974e-05
0.00288299
-4.14624e-05
0.0029396
-5.66155e-05
-7.09452e-05
0.00250248
-4.97268e-06
0.00251016
-1.5401e-05
0.00252344
-2.6589e-05
0.00254261
-3.83163e-05
0.00256769
-5.00607e-05
0.00259824
-6.0822e-05
0.0026331
-6.9212e-05
0.00267008
-7.32219e-05
0.00270595
-7.08378e-05
0.00273663
-6.04571e-05
0.00275778
-4.17274e-05
0.00276684
-1.79779e-05
0.00276327
6.77285e-06
0.00274866
2.82767e-05
0.00272738
4.12598e-05
0.00270552
4.23987e-05
0.00268925
3.15428e-05
0.00268317
1.18126e-05
0.0026889
-1.09504e-05
0.00270413
-2.9168e-05
0.00272263
-3.52769e-05
0.00273591
-2.50151e-05
0.0027365
-3.33448e-07
0.00272078
3.13757e-05
0.00268973
6.12664e-05
0.00264776
8.2618e-05
0.00260107
9.18323e-05
0.00255643
8.76558e-05
0.0025206
7.01223e-05
0.00249992
4.01278e-05
0.00249967
-6.70694e-08
0.00252266
-4.54712e-05
0.00256703
-8.68762e-05
0.00262445
-0.000111947
0.00268119
-0.000110391
0.00272251
-8.04072e-05
0.00273831
-3.08505e-05
0.00272628
2.33775e-05
0.00269113
6.86882e-05
0.00264136
9.7517e-05
0.00258628
0.000108106
0.00253447
0.000101653
0.00249368
7.97248e-05
0.00247121
4.34565e-05
0.00247347
-5.15654e-06
0.00250408
-6.04116e-05
0.00256069
-0.000110712
0.00263285
-0.000140615
0.00270362
-0.000137771
0.00275512
-0.000100465
0.00277531
-3.9697e-05
0.00276166
2.62026e-05
0.00272045
8.02159e-05
0.00266275
0.000112846
0.00260022
0.000122656
0.0025428
0.000112703
0.00249858
8.65272e-05
0.00247455
4.63959e-05
0.00247668
-5.33947e-06
0.00250813
-6.28907e-05
0.00256631
-0.00011487
0.00264096
-0.000146408
0.00271547
-0.000145435
0.00277177
-0.000109394
0.00279654
-4.77049e-05
0.00278557
2.19822e-05
0.0027442
8.12825e-05
0.00268403
0.000118001
0.0026184
0.00012876
0.00255884
0.000116784
0.0025141
8.73968e-05
0.00249079
4.4864e-05
0.0024938
-7.14974e-06
0.002525
-6.24428e-05
0.00258082
-0.00011038
0.00265105
-0.000138176
0.00272056
-0.000136372
0.00277356
-0.000103721
0.00279838
-4.82382e-05
0.00279068
1.58022e-05
0.00275396
7.28695e-05
0.00269781
0.000111051
0.00263454
0.000124868
0.00257607
0.000115098
0.00253213
8.61303e-05
0.00250988
4.3161e-05
0.0025138
-8.2719e-06
0.00254448
-6.05511e-05
0.00259707
-0.000103231
0.00266109
-0.000125555
0.00272267
-0.000120965
0.00276844
-9.02816e-05
0.00278923
-4.14094e-05
0.00278199
1.38058e-05
0.00274973
6.3389e-05
0.0027
9.81573e-05
0.00264282
0.000113064
0.00258867
0.000107091
0.00254707
8.21861e-05
0.00252574
4.22128e-05
0.00252949
-6.99848e-06
0.00255877
-5.68745e-05
0.0026084
-9.66651e-05
0.002668
-0.000116434
0.00272454
-0.000111001
0.00276603
-8.21859e-05
0.00278471
-3.79153e-05
0.00277841
1.10119e-05
0.00275014
5.44917e-05
0.00270641
8.54073e-05
0.00265554
0.000100035
0.00260634
9.71849e-05
0.00256741
7.72706e-05
0.00254639
4.22672e-05
0.0025487
-3.31134e-06
0.00257565
-5.14915e-05
0.00262309
-9.17092e-05
0.00268164
-0.000113912
0.002739
-0.000112341
0.00278338
-8.77697e-05
0.00280662
-4.7022e-05
0.00280583
-2.56783e-07
0.0027833
4.24791e-05
0.00274492
7.39538e-05
0.00269829
9.06996e-05
0.00265123
9.2144e-05
0.00261117
7.89394e-05
0.00258504
5.20317e-05
0.00257885
1.33593e-05
0.0025962
-3.2472e-05
0.00263658
-7.74905e-05
0.00269442
-0.000112018
0.00276005
-0.000128023
0.00282217
-0.000122149
0.00287083
-9.67684e-05
0.00289977
-5.88371e-05
0.00290742
-1.74097e-05
0.00289652
1.90383e-05
0.00287275
4.4601e-05
0.00284299
5.68415e-05
0.00281366
5.65078e-05
0.00278976
4.64081e-05
0.00277445
3.01099e-05
0.00276913
1.11392e-05
0.00277345
-7.1646e-06
0.0027854
-2.15963e-05
0.00280148
-2.94188e-05
0.00281735
-2.91339e-05
0.00282895
-2.12608e-05
0.0028336
-8.41337e-06
0.00283084
5.28253e-06
0.00282242
1.55727e-05
0.002812
1.88386e-05
0.00280406
1.34944e-05
0.00280348
-1.3119e-06
0.00281392
-2.32262e-05
0.00283901
-5.2181e-05
0.00287888
-8.13319e-05
0.00293444
-0.00011218
-0.000141534
0.00250245
-7.42233e-06
0.00251006
-2.30098e-05
0.00252327
-3.97988e-05
0.00254245
-5.74975e-05
0.00256775
-7.53606e-05
0.00259884
-9.19104e-05
0.00263469
-0.00010506
0.00267313
-0.000111667
0.00271084
-0.000108546
0.00274331
-9.29328e-05
0.00276566
-6.40738e-05
0.002775
-2.7321e-05
0.00277065
1.11287e-05
0.00275417
4.476e-05
0.0027303
6.51273e-05
0.00270582
6.68788e-05
0.00268765
4.9708e-05
0.00268102
1.84399e-05
0.0026879
-1.78286e-05
0.00270587
-4.71386e-05
0.00272791
-5.73089e-05
0.00274423
-4.1337e-05
0.00274626
-2.36243e-06
0.00273004
4.75965e-05
0.00269693
9.43693e-05
0.00265203
0.00012752
0.00260209
0.000141771
0.00255426
0.000135486
0.00251557
0.000108814
0.00249276
6.29419e-05
0.00249177
9.20346e-07
0.00251626
-6.99642e-05
0.00256478
-0.000135397
0.00262834
-0.000175508
0.00269134
-0.000173386
0.00273687
-0.000125939
0.0027536
-4.75838e-05
0.00273946
3.7525e-05
0.00270036
0.000107784
0.00264611
0.000151762
0.00258676
0.000167458
0.00253111
0.000157308
0.00248699
0.00012384
0.00246205
6.84034e-05
0.0024635
-6.61146e-06
0.00249599
-9.28983e-05
0.00255765
-0.000172378
0.0026373
-0.000220265
0.0027158
-0.000216268
0.00277258
-0.000157239
0.00279387
-6.09905e-05
0.00277737
4.27002e-05
0.00273097
0.000126616
0.00266759
0.00017623
0.00260002
0.000190227
0.00253845
0.000174269
0.00249072
0.000134259
0.00246367
7.34425e-05
0.00246369
-5.3545e-06
0.0024949
-9.41069e-05
0.00255564
-0.000175601
0.0026356
-0.000226376
0.00271693
-0.000226761
0.00277948
-0.000171945
0.00280801
-7.62346e-05
0.00279735
3.26377e-05
0.00275321
0.000125422
0.00268853
0.000182689
0.002618
0.000199291
0.00255399
0.000180788
0.00250552
0.000135872
0.00247943
7.09512e-05
0.0024813
-9.02432e-06
0.00251381
-9.49488e-05
0.00257347
-0.000170041
0.00264901
-0.000213714
0.00272357
-0.000210931
0.00277995
-0.000160104
0.00280596
-7.42505e-05
0.00279745
2.43102e-05
0.00275852
0.000111806
0.00269932
0.000170248
0.00263268
0.00019151
0.00257091
0.00017687
0.00252419
0.000132846
0.00250043
6.69223e-05
0.00250495
-1.27916e-05
0.00253877
-9.43744e-05
0.00259646
-0.000160923
0.00266599
-0.000195079
0.00273168
-0.000186662
0.00277905
-0.000137645
0.00279882
-6.11816e-05
0.00278872
2.39003e-05
0.00275285
9.92655e-05
0.00269961
0.000151397
0.00263944
0.000173232
0.00258298
0.000163548
0.00254004
0.000125126
0.00251888
6.33748e-05
0.00252493
-1.30503e-05
0.0025587
-9.06368e-05
0.00261412
-0.000152087
0.00267925
-0.000181569
0.00273948
-0.00017123
0.00278186
-0.000124561
0.00279857
-5.46291e-05
0.00278824
2.13419e-05
0.00275504
8.76895e-05
0.00270662
0.000133828
0.00265202
0.000154642
0.00260042
0.000148784
0.0025607
0.000116987
0.00254088
6.20861e-05
0.00254664
-9.07388e-06
0.00257906
-8.39094e-05
0.00263297
-0.000145614
0.00269749
-0.000178434
0.00275891
-0.000173763
0.00280457
-0.000133431
0.00282618
-6.86275e-05
0.00282138
4.54105e-06
0.00279341
7.04439e-05
0.0027493
0.000118073
0.00269756
0.000142432
0.00264668
0.000143028
0.00260453
0.000121089
0.00257848
7.80858e-05
0.00257483
1.70096e-05
0.00259712
-5.47685e-05
0.00264406
-0.000124428
0.00270869
-0.000176647
0.00277982
-0.000199155
0.00284505
-0.000187379
0.00289401
-0.000145726
0.00292064
-8.54709e-05
0.00292403
-2.07969e-05
0.00290778
3.52889e-05
0.00287848
7.39002e-05
0.00284376
9.15562e-05
0.00281063
8.96419e-05
0.00278445
7.25899e-05
0.00276868
4.58808e-05
0.00276488
1.49376e-05
0.00277264
-1.49321e-05
0.00278947
-3.84171e-05
0.00281092
-5.08771e-05
0.00283157
-4.97822e-05
0.00284636
-3.60498e-05
0.00285206
-1.4107e-05
0.00284812
9.21649e-06
0.0028367
2.69896e-05
0.00282207
3.34778e-05
0.00280932
2.62348e-05
0.00280392
4.0908e-06
0.0028099
-2.92065e-05
0.00283131
-7.35856e-05
0.00286821
-0.000118234
0.00292237
-0.000166338
-0.000211651
0.0025024
-9.82343e-06
0.00250988
-3.04932e-05
0.00252297
-5.28809e-05
0.00254214
-7.66688e-05
0.00256772
-0.000100939
0.00259958
-0.000123773
0.00263691
-0.000142387
0.00267759
-0.000152354
0.00271817
-0.00014912
0.00275349
-0.000128254
0.00277772
-8.83074e-05
0.00278756
-3.71579e-05
0.00278205
1.66386e-05
0.00276265
6.41556e-05
0.00273472
9.30603e-05
0.00270611
9.54918e-05
0.00268491
7.09007e-05
0.00267735
2.59995e-05
0.002686
-2.64712e-05
0.00270829
-6.94322e-05
0.00273594
-8.49619e-05
0.00275709
-6.24818e-05
0.00276135
-6.62367e-06
0.00274424
6.47043e-05
0.00270782
0.000130787
0.0026583
0.000177043
0.00260335
0.000196727
0.00255064
0.000188188
0.0025076
0.000151858
0.00248151
8.90351e-05
0.00247935
3.07446e-06
0.0025062
-9.68095e-05
0.00256138
-0.000190581
0.0026348
-0.000248924
0.00270771
-0.000246297
0.00275971
-0.000177937
0.00277757
-6.54459e-05
0.00275971
5.53804e-05
0.00271414
0.000153358
0.00265276
0.00021314
0.00258682
0.000233401
0.00252541
0.000218711
0.00247636
0.000172897
0.00244748
9.72844e-05
0.00244672
-5.85396e-06
0.00247996
-0.000126144
0.00254674
-0.00023915
0.00263613
-0.000309662
0.00272682
-0.000306959
0.00279383
-0.000224247
0.00281938
-8.6539e-05
0.00280021
6.18748e-05
0.00274643
0.000180388
0.00267431
0.000248358
0.00259892
0.000265611
0.00253103
0.000242163
0.00247788
0.000187403
0.00244593
0.000105401
0.00244234
-1.76963e-06
0.00247315
-0.000124914
0.002538
-0.000240451
0.00262593
-0.000314311
0.00271668
-0.000317504
0.00278742
-0.000242685
0.00282094
-0.000109754
0.00281109
4.24848e-05
0.00276379
0.000172717
0.00269334
0.000253146
0.00261615
0.000276476
0.00254586
0.000251083
0.00249213
0.000189603
0.00246262
0.000100461
0.00246422
-1.06243e-05
0.00250059
-0.000131325
0.00256766
-0.000237111
0.0026518
-0.000297855
0.00273332
-0.000292445
0.00279316
-0.000219945
0.0028189
-9.99911e-05
0.00280735
3.58631e-05
0.00276388
0.000155277
0.00269966
0.000234462
0.00262811
0.000263057
0.00256195
0.000243039
0.00251197
0.00018282
0.00248719
9.17003e-05
0.00249409
-1.96821e-05
0.00253386
-0.000134149
0.00259972
-0.000226784
0.0026772
-0.000272562
0.00274829
-0.000257746
0.00279711
-0.00018647
0.00281444
-7.85124e-05
0.00279918
3.91655e-05
0.00275707
0.000141372
0.00269797
0.000210505
0.00263307
0.000238125
0.00257337
0.000223249
0.00252908
0.00016942
0.00250916
8.32933e-05
0.00251959
-2.34859e-05
0.00256047
-0.000131515
0.00262415
-0.000215763
0.00269652
-0.000253938
0.00276112
-0.000235836
0.00280407
-0.000167511
0.00281763
-6.81856e-05
0.00280137
3.76004e-05
0.00276098
0.000128079
0.00270564
0.000189167
0.00264553
0.000214755
0.00259052
0.00020379
0.00255001
0.000157501
0.00253247
7.96245e-05
0.00254369
-2.02972e-05
0.00258398
-0.000124195
0.00264647
-0.000208106
0.00271831
-0.000250275
0.00278425
-0.000239696
0.00283088
-0.000180063
0.00284995
-8.77007e-05
0.00283976
1.47344e-05
0.00280462
0.000105576
0.00275288
0.000169818
0.00269429
0.00020102
0.00263829
0.000199025
0.00259353
0.000165855
0.00256799
0.000103626
0.00256831
1.66835e-05
0.00259762
-8.40736e-05
0.00265316
-0.000179971
0.00272596
-0.000249445
0.002803
-0.000276193
0.00287087
-0.000255245
0.00291908
-0.000193944
0.00294213
-0.000108519
0.00293992
-1.85854e-05
0.00291701
5.8197e-05
0.00288097
0.000109943
0.0028403
0.000132223
0.00280273
0.000127217
0.0027742
0.000101123
0.00275863
6.14476e-05
0.00275783
1.57391e-05
0.00277113
-2.82395e-05
0.00279511
-6.23898e-05
0.00282385
-7.9615e-05
0.00285032
-7.62519e-05
0.00286829
-5.40227e-05
0.00287404
-1.98638e-05
0.00286725
1.60131e-05
0.00285071
4.35284e-05
0.00282956
5.46315e-05
0.00280973
4.60556e-05
0.00279737
1.64571e-05
0.00279695
-2.87924e-05
0.00281319
-8.98192e-05
0.0028461
-0.000151149
0.00289891
-0.000219141
-0.000281516
0.00250233
-1.21514e-05
0.00250962
-3.77838e-05
0.00252249
-6.57474e-05
0.00254158
-9.57621e-05
0.00256745
-0.000126812
0.00260028
-0.000156598
0.00263956
-0.000181666
0.00268331
-0.000196107
0.00272792
-0.000193732
0.0027673
-0.000167632
0.00279421
-0.00011522
0.00280477
-4.77176e-05
0.00279767
2.3735e-05
0.00277417
8.76568e-05
0.00274047
0.000126767
0.00270596
0.000129999
0.00268043
9.64345e-05
0.0026715
3.49226e-05
0.00268266
-3.76246e-05
0.0027112
-9.79719e-05
0.00274702
-0.000120788
0.00277516
-9.06167e-05
0.00278256
-1.40287e-05
0.00276405
8.32152e-05
0.00272281
0.000172025
0.00266676
0.000233094
0.00260486
0.000258625
0.00254548
0.00024757
0.0024964
0.000200936
0.0024656
0.000119842
0.0024616
7.07477e-06
0.00249178
-0.000126996
0.00255687
-0.000255668
0.00264493
-0.000336985
0.00273221
-0.000333573
0.002793
-0.000238731
0.00281169
-8.41351e-05
0.00278788
7.91964e-05
0.00273276
0.000208472
0.00266132
0.000284587
0.00258639
0.000308327
0.00251733
0.000287772
0.00246149
0.000228736
0.00242619
0.000132584
0.00241962
7.20405e-07
0.00244963
-0.000156158
0.00251901
-0.000308526
0.0026187
-0.000409354
0.0027255
-0.000413756
0.00280896
-0.000307712
0.00284493
-0.000122506
0.00282667
8.01311e-05
0.00276576
0.0002413
0.00268289
0.00033123
0.00259708
0.000351416
0.00252046
0.000318782
0.00245974
0.000248127
0.00242119
0.000143953
0.00241388
5.54233e-06
0.00244658
-0.000157619
0.00251956
-0.000313433
0.00261914
-0.000413887
0.00272093
-0.000419296
0.00279925
-0.000321008
0.00283605
-0.000146547
0.00282544
5.3094e-05
0.00277396
0.00022419
0.00269692
0.000330186
0.00261208
0.000361316
0.0025343
0.000328867
0.00247443
0.000249478
0.00244177
0.000133117
0.00244508
-1.39396e-05
0.00248857
-0.000174814
0.00256628
-0.00031482
0.00266116
-0.000392731
0.00275031
-0.000381601
0.00281295
-0.000282584
0.00283665
-0.000123693
0.00281963
5.28921e-05
0.00276916
0.000205742
0.00269795
0.00030567
0.00262017
0.000340836
0.00254895
0.000314265
0.00249586
0.000235904
0.00247126
0.000116308
0.00248264
-3.10638e-05
0.00253073
-0.000182238
0.00260651
-0.000302567
0.00269271
-0.000358766
0.00276914
-0.000334173
0.00281889
-0.000236219
0.00283283
-9.24499e-05
0.00281098
6.10131e-05
0.0027609
0.000191449
0.0026942
0.000277207
0.00262326
0.000309068
0.00255971
0.000286798
0.00251441
0.000214722
0.00249705
0.000100648
0.00251379
-4.02206e-05
0.00256355
-0.000181281
0.00263646
-0.00028867
0.00271609
-0.000333575
0.00278451
-0.000304252
0.00282729
-0.00021029
0.00283695
-7.78412e-05
0.00281393
6.06167e-05
0.00276533
0.000176675
0.00270195
0.000252552
0.00263534
0.000281362
0.00257643
0.000262706
0.00253539
0.000198539
0.00252123
9.37866e-05
0.00253947
-3.85442e-05
0.00258898
-0.000173703
0.00266063
-0.000279751
0.00273945
-0.000329095
0.00280899
-0.000309236
0.00285562
-0.000226692
0.00287142
-0.000103503
0.00285533
3.08245e-05
0.00281259
0.00014831
0.00275271
0.000229699
0.00268671
0.000267022
0.00262519
0.000260548
0.00257784
0.000213206
0.0025535
0.000127961
0.00255905
1.11366e-05
0.00259664
-0.000121666
0.00266142
-0.000244747
0.00274195
-0.000329974
0.00282349
-0.000357741
0.00289214
-0.000323888
0.00293787
-0.000239673
0.00295606
-0.00012671
0.00294756
-1.00887e-05
0.00291779
8.79666e-05
0.00287512
0.000152611
0.00282883
0.00017851
0.00278738
0.000168669
0.00275744
0.000131064
0.00274356
7.53274e-05
0.00274776
1.15407e-05
0.00276878
-4.92563e-05
0.00280162
-9.52378e-05
0.00283835
-0.000116343
0.00287012
-0.000108016
0.00288969
-7.35967e-05
0.00289329
-2.34624e-05
0.0028812
2.81044e-05
0.0028572
6.75305e-05
0.00282742
8.44066e-05
0.00279867
7.48035e-05
0.00277775
3.73774e-05
0.00276969
-2.07273e-05
0.00278003
-0.00010016
0.00280891
-0.000180032
0.00286118
-0.000271411
-0.000351459
0.00250222
-1.43749e-05
0.00250923
-4.47926e-05
0.00252176
-7.82707e-05
0.00254064
-0.000114651
0.00256675
-0.00015292
0.00260066
-0.000190509
0.00264234
-0.000223345
0.00269005
-0.000243816
0.00274009
-0.000243773
0.00278502
-0.000212555
0.00281562
-0.000145819
0.00282731
-5.94072e-05
0.00281826
3.27851e-05
0.00278927
0.000116643
0.00274769
0.000168342
0.00270509
0.000172601
0.0026735
0.000128029
0.00266248
4.59371e-05
0.00267687
-5.20075e-05
0.00271395
-0.000135053
0.00276115
-0.00016799
0.00279902
-0.00012849
0.00281071
-2.57185e-05
0.00279015
0.000103782
0.00274229
0.000219883
0.00267753
0.000297848
0.00260659
0.000329566
0.00253858
0.000315587
0.00248157
0.000257946
0.00244429
0.000157116
0.00243736
1.40022e-05
0.0024712
-0.000160832
0.00254854
-0.000333011
0.00265605
-0.000444493
0.00276377
-0.000441296
0.00283769
-0.000312644
0.00285766
-0.000104105
0.00282513
0.000111721
0.00275659
0.000277017
0.00267164
0.000369537
0.00258526
0.000394703
0.00250668
0.000366352
0.00244179
0.000293622
0.00239642
0.000177959
0.00237956
1.75803e-05
0.00240358
-0.000180176
0.00247607
-0.000381022
0.00258835
-0.000521627
0.00271321
-0.000538613
0.00281509
-0.0004096
0.0028648
-0.000172211
0.00285142
9.35059e-05
0.00278583
0.000306893
0.00269224
0.000424815
0.00259437
0.000449295
0.0025068
0.00040635
0.00243661
0.000318315
0.00239114
0.000189426
0.00238247
1.42113e-05
0.00242163
-0.000196781
0.00250721
-0.000399011
0.0026208
-0.000527483
0.00273354
-0.000532034
0.00281742
-0.00040489
0.00285441
-0.000183528
0.00284002
6.74791e-05
0.00278234
0.000281871
0.00269773
0.000414798
0.00260473
0.000454315
0.00251909
0.000414503
0.00245322
0.000315353
0.00241872
0.000167613
0.00242614
-2.13548e-05
0.00247902
-0.000227701
0.00256833
-0.000404121
0.00267344
-0.000497843
0.00276914
-0.0004773
0.00283365
-0.000347096
0.00285457
-0.000144616
0.00283112
7.63394e-05
0.00277244
0.000264425
0.00269304
0.000385071
0.00260822
0.000425654
0.00253179
0.0003907
0.00247631
0.000291385
0.00245341
0.000139201
0.00247107
-4.87198e-05
0.00252854
-0.000239704
0.00261401
-0.000388038
0.00270767
-0.000452433
0.00278801
-0.000414505
0.00283778
-0.000285997
0.00284809
-0.000102758
0.00281968
8.94257e-05
0.00276147
0.000249659
0.00268674
0.000351937
0.00260931
0.000386496
0.00254189
0.000354221
0.00249626
0.00026035
0.00248276
0.000114151
0.00250707
-6.45314e-05
0.0025662
-0.000240412
0.00264765
-0.000370123
0.00273303
-0.000418954
0.00280362
-0.00037484
0.00284514
-0.000251809
0.00285058
-8.32769e-05
0.00282103
9.01581e-05
0.0027646
0.000233109
0.00269339
0.000323764
0.00262038
0.000354375
0.00255778
0.000325302
0.00251686
0.000239459
0.00250709
0.000103557
0.00253325
-6.47065e-05
0.00259209
-0.000232544
0.00267191
-0.000359575
0.00275595
-0.000413126
0.00282719
-0.000380485
0.00287242
-0.000271919
0.00288438
-0.000115463
0.0028626
5.26069e-05
0.00281292
0.000197985
0.00274565
0.00029697
0.00267286
0.000339818
0.00260636
0.000327048
0.00255712
0.000262445
0.00253496
0.000150125
0.0025467
-6.0975e-07
0.00259294
-0.000167907
0.00266613
-0.000317937
0.00275236
-0.000416204
0.00283571
-0.000441083
0.00290246
-0.000390638
0.00294366
-0.000280878
0.00295589
-0.000138939
0.00294092
4.87735e-06
0.00290487
0.000124019
0.00285664
0.000200839
0.00280608
0.000229073
0.00276232
0.00021243
0.00273286
0.000160527
0.00272293
8.52558e-05
0.00273452
-5.47747e-08
0.00276514
-7.98703e-05
0.0028075
-0.0001376
0.00285125
-0.000160093
0.00288597
-0.000142739
0.00290409
-9.17148e-05
0.00290244
-2.1807e-05
0.00288238
4.81586e-05
0.00284887
0.000101047
0.002809
0.00012427
0.00277032
0.000113488
0.00274023
6.74657e-05
0.00272444
-4.93298e-06
0.00272943
-0.000105159
0.00275551
-0.000206106
0.00280831
-0.000324211
-0.00042124
0.00250208
-1.64538e-05
0.00250869
-5.14035e-05
0.00252069
-9.02728e-05
0.00253917
-0.000133131
0.00256535
-0.000179103
0.00260037
-0.000225523
0.00264483
-0.000267812
0.00269746
-0.000296441
0.0027546
-0.000300918
0.00280689
-0.000264842
0.00284232
-0.000181251
0.00285555
-7.26363e-05
0.00284411
4.42322e-05
0.00280802
0.000152723
0.00275612
0.000220246
0.00270279
0.000225929
0.00266307
0.000167756
0.0026491
5.99045e-05
0.00266764
-7.05475e-05
0.0027162
-0.000183617
0.00277892
-0.000230706
0.00283003
-0.000179607
0.00284732
-4.30008e-05
0.00282366
0.000127442
0.00276679
0.000276746
0.00269071
0.000373933
0.00260838
0.000411897
0.00252963
0.000394335
0.00246264
0.000324934
0.00241681
0.000202945
0.00240419
2.66196e-05
0.00243698
-0.000193612
0.00252112
-0.000417152
0.00264723
-0.000570605
0.00278304
-0.000577108
0.00288217
-0.000411777
0.00291176
-0.000133688
0.00287161
0.000151867
0.00278619
0.000362437
0.00268372
0.000472003
0.00258315
0.000495276
0.00249308
0.00045642
0.00241651
0.000370199
0.0023577
0.00023677
0.00232944
4.58367e-05
0.00235149
-0.00020223
0.00243432
-0.000463846
0.00256412
-0.000651432
0.00270645
-0.000680939
0.00282207
-0.00052522
0.00288113
-0.000231271
0.00287161
0.000103021
0.00280284
0.000375666
0.00269995
0.000527708
0.00258989
0.000559351
0.00249017
0.000506073
0.00240978
0.000398703
0.00235882
0.000240388
0.00235249
2.0536e-05
0.0024018
-0.000246082
0.00250112
-0.00049834
0.0026272
-0.000653556
0.00274843
-0.000653263
0.00283597
-0.000492434
0.00287178
-0.000219342
0.0028523
8.69636e-05
0.00278724
0.000346925
0.00269444
0.000507607
0.00259321
0.000555541
0.00250013
0.000507586
0.00242935
0.000386131
0.00239486
0.000202101
0.00240813
-3.4622e-05
0.00247072
-0.000290298
0.00256996
-0.000503353
0.00268246
-0.000610347
0.00278213
-0.000576969
0.00284731
-0.00041228
0.00286572
-0.000163024
0.00283679
0.000105268
0.00277064
0.000330574
0.00268336
0.000472358
0.00259166
0.000517355
0.0025105
0.000471857
0.00245372
0.000348159
0.00243399
0.000158933
0.00245884
-7.35678e-05
0.00252522
-0.000306085
0.00261845
-0.000481271
0.00271695
-0.000550924
0.00279888
-0.000496444
0.00284754
-0.000334649
0.0028544
-0.000109624
0.00282052
0.000123309
0.00275545
0.000314724
0.00267367
0.000433722
0.00259041
0.000469752
0.0025198
0.000424833
0.00247481
0.000305337
0.00246618
0.000122786
0.00249844
-9.67974e-05
0.00256609
-0.000308061
0.00265408
-0.000458107
0.00274269
-0.000507566
0.00281329
-0.00044544
0.00285235
-0.000290872
0.00285355
-8.44758e-05
0.00281842
0.00012529
0.00275553
0.000296001
0.00267782
0.000401466
0.00259951
0.000432692
0.00253421
0.000390601
0.00249441
0.000279262
0.00248985
0.000108108
0.00252403
-9.88796e-05
0.00259109
-0.000299609
0.00267689
-0.000445373
0.00276348
-0.000499715
0.00283411
-0.000451117
0.0028765
-0.000314306
0.00288428
-0.000123248
0.00285749
7.94027e-05
0.00280223
0.000253247
0.00272916
0.000370035
0.00265108
0.000417898
0.00258095
0.000397179
0.0025311
0.000312297
0.00251225
0.000168969
0.00253077
-1.91241e-05
0.00258501
-0.000222148
0.0026645
-0.000397432
0.0027533
-0.000504998
0.0028351
-0.000522882
0.00289717
-0.000452716
0.00293205
-0.000315755
0.00293759
-0.000144478
0.00291642
2.60487e-05
0.00287512
0.000165319
0.00282291
0.000253048
0.00277
0.000281983
0.00272617
0.000256263
0.00269976
0.00018693
0.00269655
8.84663e-05
0.00271786
-2.13609e-05
0.00275897
-0.000120985
0.0028097
-0.000188332
0.00285747
-0.000207854
0.00289116
-0.000176432
0.00290389
-0.000104449
0.00289384
-1.1751e-05
0.00286374
7.82572e-05
0.00281963
0.000145155
0.00276936
0.000174543
0.00272096
0.000161887
0.00268244
0.000105981
0.00266037
1.71425e-05
0.00266193
-0.000106717
0.00268715
-0.000231325
0.00274062
-0.000377686
-0.000489382
0.00250188
-1.83385e-05
0.00250795
-5.74695e-05
0.00251919
-0.000101515
0.00253696
-0.000150902
0.00256292
-0.000205063
0.00259891
-0.00026151
0.00264645
-0.000315353
0.00270503
-0.000355022
0.00277139
-0.00036727
0.0028334
-0.000326853
0.00287523
-0.000223086
0.00289083
-8.82294e-05
0.00287669
5.83665e-05
0.00283146
0.000197952
0.00276594
0.000285772
0.00269841
0.000293453
0.00264775
0.000218415
0.00262942
7.82414e-05
0.00265295
-9.40802e-05
0.00271662
-0.000247282
0.00280027
-0.000314361
0.00286933
-0.000248664
0.00289393
-6.75999e-05
0.00286577
0.0001556
0.00279687
0.000345642
0.00270634
0.000464467
0.00261003
0.000508207
0.00251839
0.000485977
0.00243944
0.000403881
0.00238212
0.00026026
0.0023566
5.21454e-05
0.00237483
-0.000211846
0.00245075
-0.000493071
0.00258743
-0.000707282
0.00275624
-0.000745918
0.00289781
-0.000553346
0.00295704
-0.000192926
0.00292132
0.000187589
0.00282099
0.000462772
0.002698
0.000594993
0.00258005
0.000613218
0.00247611
0.000560365
0.00238557
0.000460742
0.00231287
0.000309463
0.00227794
8.07745e-05
0.00230691
-0.000231208
0.00240712
-0.000564053
0.00255566
-0.000799972
0.00271173
-0.000837013
0.00283487
-0.000648353
0.00289677
-0.000293171
0.00288686
0.000112926
0.00281418
0.000448344
0.00270331
0.00063858
0.00258222
0.000680443
0.00247072
0.000617574
0.00238103
0.000488393
0.00232711
0.000294311
0.00232606
2.15847e-05
0.00238614
-0.000306169
0.00249646
-0.000608656
0.0026303
-0.000787398
0.00275586
-0.000778824
0.0028452
-0.000581769
0.00288028
-0.000254428
0.00285711
0.000110138
0.00278588
0.00041816
0.00268566
0.00060782
0.00257696
0.000664242
0.00247754
0.000607002
0.00240353
0.000460146
0.00237078
0.000234846
0.0023905
-5.43402e-05
0.00246134
-0.000361139
0.00256726
-0.000609266
0.00268332
-0.000726412
0.00278384
-0.00067749
0.00284822
-0.000476655
0.00286456
-0.000179369
0.002832
0.00013783
0.00276059
0.000401988
0.00266719
0.000565753
0.00256989
0.000614653
0.00248521
0.000556542
0.00242847
0.000404897
0.00241294
0.000174461
0.00244488
-0.000105502
0.00251845
-0.000379662
0.00261653
-0.000579353
0.0027167
-0.000651093
0.00279779
-0.000577529
0.00284413
-0.000380992
0.00284786
-0.000113349
0.00281002
0.000161144
0.00274018
0.000384563
0.00265332
0.000520587
0.00256584
0.000557229
0.00249338
0.000497288
0.0024502
0.000348525
0.00244704
0.00012594
0.00248671
-0.000136468
0.00256094
-0.000382293
0.00265263
-0.00054979
0.00274161
-0.000596546
0.00281007
-0.000513899
0.00284565
-0.000326459
0.00284283
-8.16501e-05
0.00280337
0.000164744
0.00273591
0.000363459
0.00265374
0.000483642
0.00257194
0.000514491
0.0025055
0.000457039
0.00246805
0.000316717
0.00246923
0.000106923
0.00251068
-0.000140331
0.00258386
-0.000372785
0.00267267
-0.000534187
0.00275889
-0.000585927
0.00282669
-0.000518922
0.00286509
-0.000352706
0.00286867
-0.000126827
0.00283782
0.000110251
0.00277865
0.000312422
0.0027018
0.000446885
0.00262045
0.000499246
0.00254856
0.000469071
0.00249974
0.000361114
0.00248534
0.000183371
0.0025106
-4.43827e-05
0.00257119
-0.000282738
0.00265392
-0.000480169
0.00274166
-0.000592737
0.00281867
-0.000599893
0.00287377
-0.000507813
0.00290109
-0.00034308
0.00289971
-0.000143089
0.00287292
5.28355e-05
0.00282762
0.000210616
0.00277318
0.000307491
0.00272009
0.000335074
0.00267878
0.000297569