/*--------------------------------*- C++ -*----------------------------------*\
  =========                 |
  \\      /  F ield         | OpenFOAM: The Open Source CFD Toolbox
   \\    /   O peration     | Website:  https://openfoam.org
    \\  /    A nd           | Version:  11
     \\/     M anipulation  |
\*---------------------------------------------------------------------------*/
FoamFile
{
    format      ascii;
    class       volScalarField;
    location    "8.731117";
    object      p;
}
// * * * * * * * * * * * * * * * * * * * * * * * * * * * * * * * * * * * * * //

dimensions      [0 2 -2 0 0 0 0];

internalField   nonuniform List<scalar> 
7132
(
0.0562187
0.0548481
0.0502184
0.0434522
0.0339849
0.0215311
0.00601118
-0.0125726
-0.0337228
-0.056515
-0.079622
-0.101254
-0.120477
-0.13646
-0.148693
-0.156938
-0.160995
-0.160687
-0.155887
-0.146668
-0.133508
-0.117359
-0.0995122
-0.0813463
-0.0641431
-0.0489938
-0.0367286
-0.0278109
-0.0221355
-0.0188392
-0.01638
-0.0131645
-0.00831475
-0.00192238
0.00533409
0.0127188
0.0197441
0.0262278
0.0321417
0.0373672
0.0413708
0.0429645
0.0404091
0.0323733
0.0195569
0.00553695
-0.00494023
-0.00925582
-0.00814426
-0.00418506
0.000311748
0.00411244
0.00684923
0.00859403
0.00953053
0.00977729
0.00931871
0.00803301
0.00582629
0.00279638
-0.000677716
-0.00401598
-0.00667212
-0.0083526
-0.00907707
-0.00907552
-0.00863522
-0.00799568
-0.00731303
-0.00666975
-0.00610022
-0.00561429
-0.00521265
-0.00489436
-0.0046588
-0.00450442
-0.00442582
-0.00441113
-0.00444142
-0.00449263
-0.00453961
-0.00456087
-0.00454204
-0.00447731
-0.00436855
-0.00422296
-0.00405045
-0.00386141
-0.00366531
-0.00346996
-0.00328132
-0.00310358
-0.00293927
-0.00278956
-0.00265443
-0.00253293
-0.00242343
-0.00232387
-0.00223204
-0.00214577
-0.00206318
-0.00198278
-0.00190352
-0.00182482
-0.00174646
-0.00166856
-0.00159142
-0.00151546
-0.00144112
-0.00136881
-0.00129889
-0.0012316
-0.00116712
-0.00110549
-0.0010467
-0.00099065
-0.000937215
-0.000886226
-0.000837506
-0.000790881
-0.000746193
-0.000703302
-0.000662094
-0.000622477
-0.000584384
-0.000547765
-0.000512586
-0.000478825
-0.000446467
-0.0004155
-0.000385919
-0.000357715
-0.000330881
-0.000305409
-0.000281288
-0.000258507
-0.000237053
-0.000216913
-0.000198068
-0.000180504
-0.000164195
-0.000149121
-0.000135234
-0.000122502
-0.000110807
-0.000100129
-9.01681e-05
-8.10742e-05
-7.2082e-05
-6.41535e-05
-5.5151e-05
-4.88486e-05
-3.87423e-05
-3.68735e-05
-2.39299e-05
-3.27176e-05
-1.49663e-05
-3.79599e-05
-3.37432e-05
-9.78909e-06
0.0567658
0.0554062
0.0508156
0.0440895
0.0346528
0.022193
0.0066061
-0.0121418
-0.0335505
-0.0566856
-0.0801435
-0.102011
-0.121392
-0.13746
-0.14973
-0.158001
-0.162087
-0.161804
-0.156993
-0.147681
-0.134321
-0.117874
-0.0996778
-0.081163
-0.063661
-0.0483057
-0.0359591
-0.0271066
-0.0216441
-0.0186667
-0.0165339
-0.0135466
-0.00877587
-0.00234024
0.00502567
0.0125417
0.0196971
0.0263024
0.0323285
0.0376556
0.041742
0.0433691
0.0407298
0.0324083
0.0190927
0.00451068
-0.00631862
-0.0106393
-0.00926058
-0.00495355
-0.000151682
0.00387968
0.00678219
0.00864392
0.00965985
0.00995374
0.00951068
0.00820446
0.00593932
0.00281914
-0.000759189
-0.0041892
-0.00690134
-0.00859446
-0.00929621
-0.00925282
-0.00876595
-0.00808372
-0.00736585
-0.00669541
-0.00610611
-0.00560673
-0.0051969
-0.00487463
-0.00463842
-0.00448598
-0.00441126
-0.00440176
-0.00443782
-0.0044946
-0.00454626
-0.00457079
-0.00455359
-0.00448892
-0.00437896
-0.00423134
-0.0040564
-0.00386487
-0.00366651
-0.00346928
-0.00327925
-0.00310057
-0.00293579
-0.00278598
-0.00265105
-0.00252995
-0.00242097
-0.00232198
-0.00223069
-0.0021449
-0.0020627
-0.00198258
-0.0019035
-0.00182486
-0.0017465
-0.00166854
-0.0015913
-0.00151521
-0.00144075
-0.00136835
-0.00129834
-0.00123101
-0.00116649
-0.00110486
-0.00104608
-0.000990069
-0.000936674
-0.000885729
-0.000837053
-0.00079047
-0.000745818
-0.000702958
-0.000661774
-0.000622175
-0.000584094
-0.000547483
-0.000512309
-0.000478549
-0.000446191
-0.000415224
-0.000385641
-0.000357435
-0.0003306
-0.000305127
-0.000281005
-0.000258224
-0.000236769
-0.000216627
-0.000197782
-0.000180217
-0.000163908
-0.000148836
-0.000134952
-0.000122227
-0.000110543
-9.98784e-05
-8.99361e-05
-8.086e-05
-7.18901e-05
-6.39718e-05
-5.49801e-05
-4.86673e-05
-3.85201e-05
-3.6659e-05
-2.34332e-05
-3.26117e-05
-1.33432e-05
-3.91691e-05
-2.76025e-05
-1.86241e-05
0.0578551
0.0565191
0.0520084
0.0453673
0.0359972
0.0235317
0.00781612
-0.0112606
-0.0331934
-0.0570334
-0.0812111
-0.103549
-0.123246
-0.139477
-0.151813
-0.160131
-0.164277
-0.164054
-0.159234
-0.149745
-0.135983
-0.118934
-0.100025
-0.0807993
-0.0626874
-0.0469093
-0.0343924
-0.0256702
-0.020645
-0.0183286
-0.0168743
-0.0143587
-0.00974531
-0.00321369
0.00438058
0.012164
0.0195793
0.0264242
0.0326717
0.0382007
0.0424544
0.04415
0.0413398
0.032427
0.0180714
0.00231763
-0.0092371
-0.0135424
-0.0115808
-0.00653649
-0.00110095
0.00340148
0.00663847
0.00873517
0.00991149
0.0103025
0.00989376
0.00854879
0.00616644
0.00286215
-0.000930187
-0.00454883
-0.00737546
-0.00909284
-0.00974584
-0.00961501
-0.00903196
-0.00826235
-0.00747288
-0.00674748
-0.00611826
-0.00559174
-0.00516533
-0.00483496
-0.00459731
-0.00444865
-0.00438169
-0.00438262
-0.00443036
-0.00449849
-0.00455971
-0.00459093
-0.00457708
-0.00451256
-0.00440019
-0.00424846
-0.00406857
-0.00387201
-0.00366904
-0.003468
-0.0032751
-0.00309455
-0.00292879
-0.00277877
-0.00264422
-0.00252393
-0.00241599
-0.00231813
-0.00222795
-0.00214314
-0.00206174
-0.00198219
-0.00190346
-0.00182498
-0.00174661
-0.00166852
-0.00159107
-0.00151475
-0.00144006
-0.00136744
-0.00129727
-0.00122982
-0.00116525
-0.00110361
-0.00104486
-0.000988909
-0.000935594
-0.000884738
-0.000836152
-0.000789654
-0.000745078
-0.00070228
-0.000661146
-0.000621584
-0.00058353
-0.000546936
-0.000511771
-0.000478016
-0.000445659
-0.000414691
-0.000385106
-0.000356899
-0.000330063
-0.000304589
-0.000280468
-0.000257686
-0.000236232
-0.000216092
-0.000197247
-0.000179684
-0.000163379
-0.000148314
-0.000134443
-0.000121738
-0.000110086
-9.94633e-05
-8.95774e-05
-8.05596e-05
-7.1659e-05
-6.37874e-05
-5.48389e-05
-4.85223e-05
-3.82981e-05
-3.64425e-05
-2.26407e-05
-3.25398e-05
-1.02494e-05
-4.1574e-05
-1.52365e-05
-3.65439e-05
0.0594776
0.058179
0.0537952
0.0472921
0.038036
0.0255774
0.00968151
-0.00989011
-0.032628
-0.0575764
-0.0828805
-0.105925
-0.126088
-0.142549
-0.15497
-0.163352
-0.167594
-0.167477
-0.162663
-0.152918
-0.138543
-0.120565
-0.100556
-0.080233
-0.0611784
-0.044746
-0.0319651
-0.0234484
-0.0191176
-0.0178583
-0.0174893
-0.0157133
-0.011326
-0.00461889
0.00334739
0.0115484
0.0193575
0.0265572
0.03313
0.0389547
0.0434541
0.0452457
0.0421566
0.032293
0.0162593
-0.001383
-0.0140689
-0.0182834
-0.0153006
-0.00902751
-0.00257472
0.0026601
0.00640608
0.00885774
0.0102781
0.0108202
0.0104679
0.0090659
0.0065017
0.00290797
-0.00122203
-0.00513651
-0.00813771
-0.00988379
-0.0104504
-0.0101757
-0.00943896
-0.00853261
-0.00763274
-0.00682351
-0.00613383
-0.00556649
-0.00511536
-0.00477315
-0.00453381
-0.00439139
-0.00433675
-0.00435412
-0.00442014
-0.00450592
-0.00458187
-0.00462323
-0.00461422
-0.00454954
-0.00443308
-0.0042747
-0.00408698
-0.00388253
-0.00367245
-0.00346557
-0.00326833
-0.00308498
-0.00291783
-0.0027676
-0.00263374
-0.00251475
-0.00240848
-0.00231241
-0.00222395
-0.00214065
-0.00206045
-0.00198177
-0.00190355
-0.00182527
-0.00174686
-0.00166853
-0.00159074
-0.00151404
-0.00143897
-0.00136603
-0.00129561
-0.001228
-0.00116334
-0.00110169
-0.001043
-0.000987147
-0.00093396
-0.000883245
-0.000834801
-0.000788434
-0.000743971
-0.000701268
-0.000660208
-0.0006207
-0.000582683
-0.000546111
-0.000510958
-0.000477208
-0.00044485
-0.000413879
-0.000384291
-0.00035608
-0.000329241
-0.000303765
-0.000279642
-0.000256861
-0.000235406
-0.000215264
-0.000196419
-0.000178856
-0.000162553
-0.000147493
-0.000133635
-0.000120953
-0.000109338
-9.87655e-05
-8.89489e-05
-8.00013e-05
-7.11874e-05
-6.33679e-05
-5.44743e-05
-4.8137e-05
-3.78122e-05
-3.59392e-05
-2.1359e-05
-3.22215e-05
-5.69277e-06
-4.47927e-05
2.95864e-06
-6.27562e-05
0.0616183
0.0603736
0.0561718
0.0498724
0.0407952
0.028377
0.0122666
-0.00796573
-0.0318125
-0.0583409
-0.085239
-0.109223
-0.129993
-0.146724
-0.159219
-0.167667
-0.17205
-0.172124
-0.167378
-0.157327
-0.142125
-0.122857
-0.101313
-0.0794618
-0.0590961
-0.0417502
-0.0285946
-0.0203648
-0.0170313
-0.0173107
-0.018526
-0.0178047
-0.0136991
-0.00669122
0.00183482
0.0106295
0.0189727
0.0266362
0.0336259
0.0398261
0.0446381
0.0465332
0.0430015
0.0317259
0.0132066
-0.0072345
-0.0215165
-0.0254075
-0.0207505
-0.0125864
-0.00464038
0.00162533
0.00606623
0.00899605
0.0107471
0.0114994
0.011232
0.0097564
0.00693871
0.00293331
-0.00167993
-0.00601497
-0.00925601
-0.0110269
-0.0114528
-0.0109604
-0.00999932
-0.00889847
-0.00784479
-0.00692057
-0.00614898
-0.00552692
-0.00504315
-0.00468584
-0.00444512
-0.00431217
-0.00427531
-0.0043161
-0.00440803
-0.00451868
-0.00461516
-0.00467037
-0.00466759
-0.00460204
-0.00447923
-0.00431105
-0.00411203
-0.00389638
-0.00367633
-0.00346137
-0.00325825
-0.00307118
-0.00290229
-0.00275194
-0.00261922
-0.00250219
-0.00239834
-0.00230483
-0.00221879
-0.0021376
-0.00205905
-0.00198151
-0.00190395
-0.0018259
-0.00174736
-0.00166866
-0.00159036
-0.00151309
-0.00143748
-0.00136408
-0.00129331
-0.00122547
-0.00116071
-0.00109907
-0.00104047
-0.000984765
-0.000931768
-0.000881257
-0.000833013
-0.000786829
-0.000742524
-0.000699949
-0.000658986
-0.000619548
-0.000581576
-0.00054503
-0.000509889
-0.00047614
-0.000443778
-0.000412801
-0.000383207
-0.000354991
-0.000328148
-0.000302671
-0.000278547
-0.000255765
-0.00023431
-0.000214167
-0.00019532
-0.000177755
-0.000161452
-0.000146396
-0.00013255
-0.000119891
-0.000108317
-9.77993e-05
-8.80635e-05
-7.91979e-05
-7.04913e-05
-6.27353e-05
-5.3922e-05
-4.75569e-05
-3.71435e-05
-3.52191e-05
-1.97585e-05
-3.16916e-05
-4.84924e-08
-4.85745e-05
2.61362e-05
-9.60485e-05
0.0642561
0.0630849
0.0591309
0.0531181
0.0443089
0.0319939
0.015661
-0.00539483
-0.0306861
-0.0593719
-0.088422
-0.113567
-0.135069
-0.152085
-0.164618
-0.173124
-0.177698
-0.178068
-0.173484
-0.163096
-0.14684
-0.125879
-0.102314
-0.0784532
-0.0563613
-0.037809
-0.0241533
-0.0163095
-0.0143494
-0.0167797
-0.0202113
-0.0209191
-0.0171199
-0.00961405
-0.000278333
0.00931891
0.018343
0.0265669
0.0340425
0.0406725
0.0458386
0.0477857
0.0435258
0.0301318
0.00800509
-0.0164148
-0.0327962
-0.0358179
-0.0284508
-0.0174432
-0.00738513
0.000258526
0.00559088
0.00912329
0.0112945
0.0123231
0.0121762
0.0106117
0.00745715
0.00289214
-0.00238252
-0.00728765
-0.0108371
-0.0126104
-0.0128123
-0.0120019
-0.0107272
-0.00936317
-0.00810676
-0.007034
-0.00615822
-0.00546759
-0.00494377
-0.00456887
-0.00432804
-0.00420884
-0.00419649
-0.00426914
-0.00439604
-0.00453997
-0.00466352
-0.00473648
-0.00474094
-0.00467304
-0.00454065
-0.00435855
-0.00414396
-0.00391318
-0.00367988
-0.00345439
-0.00324375
-0.00305212
-0.00288128
-0.00273113
-0.00260019
-0.002486
-0.00238552
-0.00229548
-0.0022127
-0.00213427
-0.00205786
-0.00198176
-0.00190497
-0.00182709
-0.00174827
-0.00166899
-0.00158993
-0.00151186
-0.00143551
-0.00136148
-0.00129026
-0.00122214
-0.00115727
-0.00109566
-0.0010372
-0.000981724
-0.000928995
-0.000878766
-0.000830793
-0.000784853
-0.000740754
-0.000698341
-0.000657497
-0.000618141
-0.000580216
-0.000543694
-0.000508559
-0.000474805
-0.000442432
-0.000411443
-0.000381837
-0.000353613
-0.000326765
-0.000301284
-0.000277159
-0.000254376
-0.000232919
-0.000212772
-0.000193919
-0.000176347
-0.000160036
-0.000144974
-0.00013113
-0.000118481
-0.000106935
-9.64579e-05
-8.67907e-05
-7.7993e-05
-6.93894e-05
-6.16841e-05
-5.29663e-05
-4.65528e-05
-3.60959e-05
-3.40628e-05
-1.77705e-05
-3.07067e-05
6.38848e-06
-5.23258e-05
5.30393e-05
-0.000134284
0.0673617
0.0662879
0.0626604
0.0570388
0.0486185
0.036511
0.0199871
-0.00204436
-0.0291561
-0.0607338
-0.0926226
-0.119124
-0.141449
-0.158698
-0.171166
-0.179693
-0.184545
-0.185416
-0.181204
-0.170512
-0.152952
-0.129817
-0.103651
-0.0772194
-0.0529271
-0.0328291
-0.0185144
-0.0111635
-0.0110449
-0.0164216
-0.0229018
-0.0255053
-0.021986
-0.0136657
-0.00316828
0.0074933
0.0173534
0.0262128
0.0342072
0.0412954
0.0467914
0.0486341
0.0433077
0.0270828
2.95149e-05
-0.029955
-0.0492857
-0.0507684
-0.039153
-0.0239228
-0.0109256
-0.0014921
0.00493841
0.00919608
0.0118777
0.0132565
0.0132771
0.0116112
0.00801932
0.00270904
-0.00345175
-0.0091091
-0.0130366
-0.0147612
-0.0146138
-0.0133465
-0.0116423
-0.00993151
-0.00841616
-0.0071582
-0.00615492
-0.00538188
-0.00481122
-0.00441717
-0.00417862
-0.00407882
-0.00409932
-0.00421409
-0.00438686
-0.00457402
-0.00473218
-0.00482701
-0.00483925
-0.00476648
-0.00462004
-0.00441868
-0.00418314
-0.00393248
-0.00368213
-0.00344335
-0.00322349
-0.00302652
-0.00285372
-0.00270432
-0.0025761
-0.00246587
-0.00236995
-0.00228452
-0.00220596
-0.00213106
-0.00205729
-0.0019829
-0.00190693
-0.00182912
-0.0017498
-0.00166963
-0.0015895
-0.00151033
-0.00143298
-0.00135815
-0.00128635
-0.00121789
-0.00115291
-0.00109138
-0.00103315
-0.000977997
-0.000925638
-0.000875788
-0.000828172
-0.000782544
-0.000738701
-0.000696485
-0.000655779
-0.00061651
-0.000578632
-0.000542125
-0.000506984
-0.000473213
-0.00044082
-0.00040981
-0.000380188
-0.000351952
-0.000325098
-0.000299614
-0.000275489
-0.000252704
-0.000231245
-0.000211092
-0.000192229
-0.000174642
-0.000158314
-0.000143235
-0.000129376
-0.000116719
-0.00010518
-9.47201e-05
-8.51001e-05
-7.63474e-05
-6.7837e-05
-6.01667e-05
-5.15696e-05
-4.50919e-05
-3.46851e-05
-3.24645e-05
-1.55563e-05
-2.92047e-05
1.30381e-05
-5.54566e-05
8.17785e-05
-0.000174496
0.0708967
0.0699485
0.0667409
0.0616408
0.0537697
0.0420294
0.0254014
0.00226607
-0.0270929
-0.0625327
-0.0981237
-0.126117
-0.149326
-0.166715
-0.178974
-0.187445
-0.192636
-0.194235
-0.190673
-0.179774
-0.160668
-0.134819
-0.105384
-0.0757412
-0.0486997
-0.0266628
-0.0115045
-0.00477956
-0.00710846
-0.0164962
-0.0271369
-0.0322007
-0.0288283
-0.019198
-0.00705115
0.00499872
0.0158519
0.0253876
0.0338968
0.0414055
0.0469984
0.0483791
0.0418316
0.0229686
-0.00908735
-0.0460169
-0.0704347
-0.0710534
-0.0537214
-0.032466
-0.015416
-0.00368942
0.00405271
0.00914907
0.0124293
0.0142414
0.0144897
0.0127052
0.00854169
0.00224106
-0.00509958
-0.0117367
-0.0160986
-0.017661
-0.0169701
-0.015051
-0.0127662
-0.010607
-0.00876867
-0.00728598
-0.0061312
-0.00526229
-0.00463898
-0.00422548
-0.00399295
-0.00391966
-0.00398328
-0.00415271
-0.00438463
-0.00462699
-0.00482847
-0.00494942
-0.0049691
-0.00488744
-0.00472071
-0.00449302
-0.0042298
-0.00395348
-0.00368161
-0.00342649
-0.00319567
-0.00299273
-0.00281823
-0.00267048
-0.00254628
-0.0024415
-0.00235162
-0.00227217
-0.00219899
-0.00212848
-0.00205791
-0.00198548
-0.00191032
-0.00183236
-0.00175217
-0.0016707
-0.00158907
-0.00150843
-0.00142977
-0.00135391
-0.0012814
-0.00121257
-0.0011475
-0.00108613
-0.00102824
-0.000973535
-0.000921676
-0.000872326
-0.000825169
-0.000779935
-0.000736406
-0.00069442
-0.000653869
-0.000614687
-0.000576844
-0.000540336
-0.000505171
-0.000471365
-0.000438935
-0.000407893
-0.000378247
-0.000349996
-0.000323134
-0.000297649
-0.000273524
-0.00025074
-0.000229276
-0.000209114
-0.000190234
-0.000172622
-0.000156264
-0.000141147
-0.000127251
-0.000114555
-0.000102988
-9.25051e-05
-8.28917e-05
-7.41415e-05
-6.56978e-05
-5.80319e-05
-4.95803e-05
-4.30193e-05
-3.28027e-05
-3.02921e-05
-1.31771e-05
-2.70015e-05
1.92979e-05
-5.71581e-05
0.000109875
-0.000212611
0.0748115
0.0740221
0.0713432
0.0669245
0.0598115
0.0486728
0.0321084
0.00779282
-0.0243002
-0.0649182
-0.105327
-0.134841
-0.158892
-0.176158
-0.187921
-0.19624
-0.201964
-0.204771
-0.202385
-0.191477
-0.17051
-0.141234
-0.107699
-0.0740879
-0.0436789
-0.0192524
-0.00300576
0.00296232
-0.00258756
-0.0174148
-0.0337289
-0.0419863
-0.0384671
-0.0267364
-0.012228
0.00163441
0.0136415
0.0238548
0.0328224
0.0404604
0.0454639
0.0456595
0.037632
0.0167996
-0.0186622
-0.0620646
-0.0934859
-0.0954499
-0.0722601
-0.0434114
-0.0210395
-0.00642265
0.00285217
0.0088833
0.0128394
0.0151791
0.0157199
0.0137922
0.00890383
0.00133017
-0.0075355
-0.0154296
-0.020295
-0.0215349
-0.0200298
-0.0171901
-0.0141258
-0.0113932
-0.00915871
-0.00740897
-0.00607825
-0.00510053
-0.00441984
-0.003988
-0.00376689
-0.00372923
-0.00384861
-0.00408803
-0.00439521
-0.00470707
-0.00496188
-0.00511319
-0.00513878
-0.00504217
-0.00484662
-0.00458344
-0.00428405
-0.00397509
-0.00367651
-0.00340167
-0.00315812
-0.00294883
-0.00277326
-0.00262849
-0.00251005
-0.00241262
-0.00233064
-0.00225882
-0.00219235
-0.0021272
-0.00206039
-0.0019901
-0.00191563
-0.00183718
-0.00175565
-0.00167232
-0.00158866
-0.00150606
-0.00142573
-0.00134859
-0.00127524
-0.001206
-0.00114091
-0.00107981
-0.00102241
-0.00096832
-0.000917124
-0.000868419
-0.00082184
-0.000777088
-0.000733931
-0.000692207
-0.000651817
-0.000612713
-0.000574885
-0.00053835
-0.000503134
-0.000469269
-0.000436783
-0.000405697
-0.000376019
-0.000347752
-0.000320884
-0.000295401
-0.000271281
-0.000248499
-0.000227033
-0.000206858
-0.000187955
-0.000170308
-0.000153901
-0.000138726
-0.000124763
-0.000111993
-0.000100357
-8.9804e-05
-8.01508e-05
-7.13553e-05
-6.29518e-05
-5.52619e-05
-4.69921e-05
-4.03389e-05
-3.05051e-05
-2.7582e-05
-1.08575e-05
-2.40524e-05
2.43607e-05
-5.6627e-05
0.000134158
-0.00024357
0.0790435
0.0784501
0.0764239
0.0728773
0.0667873
0.0565782
0.0403557
0.0148762
-0.0205123
-0.0681518
-0.114801
-0.14566
-0.170507
-0.18737
-0.198256
-0.206151
-0.21244
-0.216922
-0.216426
-0.205937
-0.182871
-0.149376
-0.110769
-0.0723181
-0.0378201
-0.0104865
0.00711621
0.0121254
0.00227892
-0.0199936
-0.0440981
-0.0563506
-0.0520097
-0.0369248
-0.0190438
-0.00283255
0.0104841
0.0213518
0.0305707
0.0375889
0.040812
0.0388853
0.0289509
0.00680249
-0.0307494
-0.0792859
-0.117581
-0.122045
-0.0938718
-0.0566659
-0.0278896
-0.00978639
0.00123067
0.00826592
0.0129554
0.0158979
0.0167579
0.0146729
0.00905528
0.000196083
-0.0103773
-0.019898
-0.0255844
-0.0265043
-0.0239226
-0.0198389
-0.0157471
-0.0122909
-0.00957861
-0.00751775
-0.00598691
-0.00488852
-0.00414743
-0.00370011
-0.00349744
-0.0035062
-0.00369642
-0.00402437
-0.00442635
-0.00482484
-0.00514445
-0.00533009
-0.00535825
-0.00523803
-0.00500224
-0.00469177
-0.0043457
-0.0039957
-0.00366443
-0.00336618
-0.00310826
-0.00289255
-0.00271703
-0.00257711
-0.00246671
-0.00237901
-0.00230718
-0.00224493
-0.00218671
-0.00212798
-0.00206552
-0.00199753
-0.00192351
-0.00184405
-0.0017605
-0.0016746
-0.00158824
-0.00150312
-0.00142069
-0.00134198
-0.00126766
-0.00119799
-0.00113296
-0.0010723
-0.00101558
-0.000962311
-0.000911976
-0.000864088
-0.000818226
-0.000774057
-0.000731334
-0.000689901
-0.000649674
-0.000610631
-0.000572788
-0.00053619
-0.000500887
-0.000466933
-0.000434368
-0.00040322
-0.000373504
-0.000345217
-0.000318347
-0.000292871
-0.000268762
-0.000245989
-0.000224522
-0.000204334
-0.000185401
-0.000167706
-0.000151233
-0.000135974
-0.000121912
-0.000109029
-9.72768e-05
-8.66009e-05
-7.68557e-05
-6.79642e-05
-5.95724e-05
-5.18351e-05
-4.37968e-05
-3.70496e-05
-2.78319e-05
-2.43563e-05
-8.79505e-06
-2.03042e-05
2.74029e-05
-5.29978e-05
0.000150913
-0.000261441
0.0835149
0.0831593
0.081922
0.0794713
0.0747326
0.0659071
0.0504649
0.0240182
-0.0153093
-0.0725838
-0.127433
-0.159081
-0.184277
-0.200021
-0.209474
-0.216822
-0.224124
-0.231349
-0.233892
-0.22434
-0.198722
-0.159872
-0.114958
-0.0706608
-0.0313275
-0.000545801
0.0188254
0.0225204
0.00670991
-0.0259269
-0.0607417
-0.0778067
-0.0712806
-0.0507684
-0.0279752
-0.00868584
0.00612656
0.0175983
0.0266028
0.0318729
0.0321571
0.0277564
0.0161433
-0.00679477
-0.0460397
-0.0984774
-0.142314
-0.149282
-0.117144
-0.0716843
-0.035906
-0.0138659
-0.000944821
0.00712533
0.012547
0.0160413
0.0171252
0.0149119
0.00896404
-0.000518632
-0.0123347
-0.0236898
-0.0309553
-0.0321829
-0.0286
-0.0230344
-0.017651
-0.0132987
-0.0100185
-0.00760189
-0.00584788
-0.00461833
-0.00381549
-0.00335735
-0.00318236
-0.00325089
-0.0035297
-0.00396748
-0.00448647
-0.00499092
-0.005388
-0.00561156
-0.00563726
-0.00548223
-0.00519189
-0.00481963
-0.00441421
-0.00401332
-0.00364261
-0.00331709
-0.00304335
-0.00282165
-0.0026479
-0.00251534
-0.00241581
-0.00234064
-0.00228155
-0.00223106
-0.00218276
-0.00213155
-0.00207398
-0.00200831
-0.00193438
-0.00185328
-0.00176691
-0.00167761
-0.00158776
-0.00149948
-0.00141446
-0.0013339
-0.00125848
-0.00118841
-0.00112357
-0.00106354
-0.00100775
-0.000955541
-0.000906286
-0.000859401
-0.000814399
-0.00077091
-0.000728678
-0.000687556
-0.000647484
-0.000608473
-0.000570576
-0.000533872
-0.000498444
-0.000464366
-0.000431698
-0.000400475
-0.000370713
-0.000342409
-0.000315543
-0.000290085
-0.000265997
-0.00024324
-0.000221778
-0.000201577
-0.000182611
-0.000164858
-0.000148304
-0.000132938
-0.000118747
-0.000105715
-9.38048e-05
-8.29606e-05
-7.30812e-05
-6.40561e-05
-5.56624e-05
-4.78759e-05
-4.01376e-05
-3.33085e-05
-2.49731e-05
-2.07916e-05
-7.28445e-06
-1.58281e-05
2.75784e-05
-4.55429e-05
0.000156121
-0.000259863
0.0881317
0.0880566
0.0877523
0.0866448
0.0836527
0.0768013
0.0627902
0.035858
-0.00818305
-0.0788976
-0.144231
-0.175704
-0.201222
-0.215178
-0.222174
-0.228112
-0.236291
-0.247263
-0.254645
-0.247283
-0.218917
-0.173406
-0.120687
-0.0693829
-0.0243402
0.0106535
0.0319368
0.0338348
0.0100127
-0.0369857
-0.0863396
-0.109406
-0.098581
-0.0694896
-0.0395494
-0.0162116
0.000340107
0.0122738
0.0203273
0.0226904
0.0197553
0.0132652
0.000827914
-0.0224791
-0.0627797
-0.117564
-0.165376
-0.174869
-0.14008
-0.087422
-0.0448011
-0.0186979
-0.00381187
0.00526663
0.0112673
0.0149733
0.0159195
0.0134778
0.00758399
-0.00155071
-0.013389
-0.025938
-0.0351543
-0.0375921
-0.0336142
-0.0266481
-0.0198115
-0.014404
-0.0104653
-0.0076502
-0.00565279
-0.00428449
-0.00342201
-0.00296109
-0.00282433
-0.00296598
-0.00335069
-0.00391907
-0.00457702
-0.0052073
-0.00569561
-0.00596162
-0.00598016
-0.00577864
-0.00541799
-0.00496763
-0.00448854
-0.00402582
-0.00360838
-0.00325172
-0.00296111
-0.00273445
-0.00256482
-0.00244265
-0.00235719
-0.00229765
-0.00225404
-0.00221754
-0.0021808
-0.00213818
-0.00208602
-0.00202271
-0.00194847
-0.001865
-0.00177494
-0.00168135
-0.0015872
-0.00149509
-0.00140701
-0.0013243
-0.00124767
-0.00117725
-0.00111274
-0.00105355
-0.000998916
-0.000948015
-0.000900062
-0.000854366
-0.000810367
-0.000767658
-0.000725973
-0.000685182
-0.000645257
-0.000606251
-0.000568261
-0.00053141
-0.000495816
-0.000461582
-0.000428786
-0.000397473
-0.000367661
-0.000339342
-0.000312488
-0.000287057
-0.000263002
-0.000240273
-0.000218824
-0.000198616
-0.000179615
-0.0001618
-0.000145154
-0.000129664
-0.000115324
-0.000102115
-9.00192e-05
-7.89776e-05
-6.89406e-05
-5.97657e-05
-5.13785e-05
-4.35556e-05
-3.62074e-05
-2.93285e-05
-2.21301e-05
-1.70773e-05
-6.5688e-06
-1.07359e-05
2.42126e-05
-3.37201e-05
0.000146061
-0.0002329
0.0927827
0.0930313
0.0938015
0.094308
0.0935195
0.0894338
0.0778074
0.0514536
0.00181767
-0.0881109
-0.167653
-0.195952
-0.220116
-0.231049
-0.235059
-0.239714
-0.249789
-0.266878
-0.281307
-0.277181
-0.245282
-0.191108
-0.128645
-0.0690486
-0.0174661
0.0224074
0.0455862
0.0456228
0.0151749
-0.0461727
-0.113936
-0.148861
-0.135043
-0.0944818
-0.0544748
-0.0257124
-0.0070676
0.00504456
0.0112389
0.00995112
0.00438124
-0.00323785
-0.0154567
-0.0385994
-0.0788435
-0.134199
-0.184381
-0.196283
-0.160434
-0.102502
-0.0540663
-0.0242354
-0.00748885
0.00244279
0.00861559
0.0118665
0.0119735
0.0089732
0.00339676
-0.0043499
-0.0148716
-0.0274331
-0.0380681
-0.0420169
-0.0383581
-0.0303853
-0.022126
-0.01557
-0.0108983
-0.00764839
-0.00539262
-0.0038831
-0.00296778
-0.00251657
-0.00243184
-0.00265902
-0.00315939
-0.00386672
-0.00467341
-0.00544294
-0.0060377
-0.00635809
-0.00637305
-0.00612007
-0.00567733
-0.0051342
-0.00456757
-0.00403204
-0.00356069
-0.00316939
-0.0028614
-0.00263137
-0.00246866
-0.00236005
-0.00229175
-0.00225063
-0.00222474
-0.00220396
-0.00218006
-0.00214689
-0.00210057
-0.00203965
-0.00196486
-0.00187858
-0.00178423
-0.00168566
-0.00158656
-0.00149007
-0.00139854
-0.00131346
-0.00123554
-0.0011648
-0.00110075
-0.00104258
-0.000989302
-0.00093989
-0.000893399
-0.00084902
-0.000806121
-0.000764254
-0.000723153
-0.000682706
-0.000642924
-0.000603906
-0.0005658
-0.000528776
-0.000492993
-0.000458585
-0.000425648
-0.000394239
-0.000364377
-0.000336048
-0.000309213
-0.000283821
-0.00025981
-0.00023712
-0.000215695
-0.000195486
-0.000176458
-0.000158583
-0.000141843
-0.000126228
-0.000111734
-9.83443e-05
-8.60591e-05
-7.48209e-05
-6.46351e-05
-5.53281e-05
-4.69843e-05
-3.91675e-05
-3.22952e-05
-2.54031e-05
-1.95851e-05
-1.34845e-05
-6.84478e-06
-5.19398e-06
1.69604e-05
-1.73428e-05
0.000117974
-0.000176303
0.0973389
0.0979467
0.099921
0.102294
0.104223
0.103808
0.0959189
0.0718592
0.0153576
-0.100838
-0.198473
-0.222647
-0.245861
-0.251468
-0.249582
-0.250599
-0.262158
-0.287462
-0.313717
-0.316005
-0.280132
-0.214592
-0.139736
-0.0702401
-0.0110558
0.0328509
0.0552383
0.0534435
0.0197487
-0.048816
-0.131124
-0.18371
-0.174817
-0.124574
-0.0729119
-0.0373928
-0.0162527
-0.00433607
-0.000854046
-0.00591074
-0.0133276
-0.0207644
-0.0317975
-0.0538642
-0.0925631
-0.146619
-0.197489
-0.211474
-0.176177
-0.115482
-0.0630413
-0.0303195
-0.012049
-0.00163991
0.00406986
0.0060895
0.00481549
0.001291
-0.00332472
-0.00892152
-0.0172239
-0.0285699
-0.0396009
-0.0449494
-0.0421927
-0.0338291
-0.0244128
-0.0167317
-0.0112902
-0.00758068
-0.00505948
-0.00341702
-0.0024692
-0.00205165
-0.00203238
-0.00234324
-0.0029435
-0.00376568
-0.00470074
-0.00560587
-0.0063243
-0.00672819
-0.00676574
-0.0064766
-0.00595499
-0.00531365
-0.00465053
-0.00403379
-0.00350276
-0.00307423
-0.00274898
-0.00251739
-0.00236407
-0.00227136
-0.00222202
-0.00220047
-0.00219304
-0.0021884
-0.00217766
-0.00215431
-0.00211437
-0.00205641
-0.00198143
-0.00189247
-0.00179382
-0.00169018
-0.00158598
-0.00148493
-0.00138978
-0.00130222
-0.00122294
-0.00115185
-0.00108826
-0.00103112
-0.000979201
-0.000931297
-0.000886292
-0.000843258
-0.000801488
-0.000760496
-0.00072001
-0.000679936
-0.000640321
-0.000601312
-0.000563106
-0.00052592
-0.000489955
-0.000455375
-0.0004223
-0.000390797
-0.000360885
-0.000332548
-0.000305737
-0.000280387
-0.000256427
-0.000233784
-0.000212391
-0.000192193
-0.000173148
-0.000155225
-0.000138408
-0.000122684
-0.000108054
-9.45077e-05
-8.20626e-05
-7.06644e-05
-6.03745e-05
-5.09878e-05
-4.27477e-05
-3.4994e-05
-2.8675e-05
-2.179e-05
-1.74981e-05
-1.01773e-05
-8.11571e-06
6.37844e-07
5.96365e-06
3.29735e-06
7.10465e-05
-8.89105e-05
0.101657
0.102652
0.105922
0.110408
0.115561
0.120047
0.117758
0.100017
0.0346952
-0.126422
-0.243286
-0.250005
-0.270539
-0.271192
-0.263836
-0.261777
-0.276253
-0.312389
-0.354318
-0.366315
-0.326099
-0.245816
-0.155321
-0.0740942
-0.00779679
0.0351246
0.0500494
0.043683
0.00740475
-0.0551255
-0.14065
-0.209058
-0.210897
-0.156144
-0.093809
-0.0510557
-0.027245
-0.0159617
-0.0158726
-0.024457
-0.0330634
-0.0390358
-0.0478033
-0.067414
-0.102863
-0.15374
-0.20354
-0.219089
-0.185793
-0.125095
-0.0710195
-0.0366939
-0.0175518
-0.00727689
-0.00276166
-0.00246824
-0.00478811
-0.00801131
-0.0108525
-0.0140003
-0.0197371
-0.0290854
-0.0395736
-0.0459824
-0.0445284
-0.0365115
-0.0264275
-0.0177964
-0.0116104
-0.00743494
-0.00465175
-0.00290063
-0.00195903
-0.00161267
-0.00168157
-0.00206733
-0.00271835
-0.00357978
-0.00456944
-0.00556819
-0.00641457
-0.00694526
-0.00706461
-0.0067878
-0.00621849
-0.00549366
-0.00473777
-0.00403857
-0.00344589
-0.00297936
-0.00263746
-0.00240552
-0.00226243
-0.00218558
-0.00215398
-0.00214979
-0.00215827
-0.00216763
-0.00216874
-0.00215489
-0.00212159
-0.00206733
-0.00199344
-0.0019033
-0.00180168
-0.00169397
-0.00158542
-0.00148034
-0.00138189
-0.00129197
-0.00121134
-0.0011398
-0.00107649
-0.00102015
-0.000969363
-0.000922719
-0.000878974
-0.000837101
-0.000796326
-0.000756132
-0.000716235
-0.000676551
-0.000637152
-0.000598218
-0.000559986
-0.00052271
-0.000486626
-0.000451926
-0.00041875
-0.000387176
-0.000357228
-0.000328887
-0.000302099
-0.00027679
-0.000252878
-0.000230281
-0.000208923
-0.000188745
-0.000169698
-0.000151749
-0.000134881
-0.000119083
-0.000104364
-9.07139e-05
-7.81721e-05
-6.6686e-05
-5.63694e-05
-4.69822e-05
-3.89185e-05
-3.12876e-05
-2.55637e-05
-1.86877e-05
-1.59695e-05
-7.2753e-06
-1.0205e-05
6.59991e-06
-8.02465e-06
2.7326e-05
7.22998e-06
2.59575e-05
0.10558
0.106967
0.111578
0.118285
0.127181
0.137442
0.143537
0.135196
0.0616833
-0.139365
-0.317402
-0.303052
-0.311534
-0.295711
-0.274706
-0.261935
-0.27452
-0.323661
-0.388694
-0.41871
-0.379786
-0.285179
-0.177084
-0.0827897
-0.01229
0.0207372
0.0204643
0.0021953
-0.0267997
-0.0725327
-0.148596
-0.224574
-0.238585
-0.185114
-0.115245
-0.0660502
-0.039888
-0.0297671
-0.033532
-0.0455632
-0.0548663
-0.0581731
-0.0632139
-0.0786599
-0.109149
-0.155079
-0.202099
-0.218551
-0.18845
-0.13045
-0.0773607
-0.0430545
-0.0239942
-0.0145684
-0.0117976
-0.0131393
-0.0155616
-0.0172054
-0.017648
-0.0184093
-0.0216666
-0.0287558
-0.0380993
-0.0450759
-0.0450823
-0.0380734
-0.0279343
-0.0186699
-0.0118404
-0.00722023
-0.00419586
-0.00238674
-0.00152956
-0.00132763
-0.00152331
-0.00197169
-0.00261882
-0.0034187
-0.00433841
-0.00532152
-0.00623836
-0.00690264
-0.00715972
-0.00696904
-0.00641486
-0.00565032
-0.00482709
-0.00405829
-0.00341001
-0.00290847
-0.00255126
-0.00231875
-0.00218376
-0.00211859
-0.002099
-0.00210563
-0.00212334
-0.00214087
-0.00214945
-0.00214243
-0.00211532
-0.00206613
-0.00199538
-0.00190638
-0.00180432
-0.00169507
-0.00158426
-0.00147671
-0.00137601
-0.00128434
-0.00120255
-0.00113044
-0.00106705
-0.001011
-0.000960744
-0.000914784
-0.000871782
-0.000830646
-0.000790555
-0.000750959
-0.000711558
-0.00067226
-0.000633139
-0.000594386
-0.000556253
-0.000519016
-0.000482931
-0.00044821
-0.000415006
-0.000383411
-0.000353455
-0.000325119
-0.00029835
-0.00027307
-0.000249192
-0.000226629
-0.000205302