/*--------------------------------*- C++ -*----------------------------------*\
  =========                 |
  \\      /  F ield         | OpenFOAM: The Open Source CFD Toolbox
   \\    /   O peration     | Website:  https://openfoam.org
    \\  /    A nd           | Version:  11
     \\/     M anipulation  |
\*---------------------------------------------------------------------------*/
FoamFile
{
    format      ascii;
    class       volVectorField;
    location    "8.731117";
    object      U;
}
// * * * * * * * * * * * * * * * * * * * * * * * * * * * * * * * * * * * * * //

dimensions      [0 1 -1 0 0 0 0];

internalField   nonuniform List<vector> 
7132
(
(1.00014 -0.000273338 2.32181e-18)
(1.00212 -0.000827059 8.17791e-18)
(1.00663 -0.00141696 8.12576e-18)
(1.0135 -0.00205318 9.48915e-18)
(1.02302 -0.00273657 1.23641e-17)
(1.03538 -0.00344424 1.27908e-17)
(1.05059 -0.0041337 1.21177e-17)
(1.06848 -0.00472457 1.11977e-17)
(1.08846 -0.00513095 1.0387e-17)
(1.10964 -0.00526404 9.79705e-18)
(1.13071 -0.00507347 9.27733e-18)
(1.15039 -0.00462762 9.09002e-18)
(1.16784 -0.00398567 8.28798e-18)
(1.18237 -0.00320339 8.5963e-18)
(1.19354 -0.00231965 2.68449e-19)
(1.20099 -0.00134731 -7.70906e-18)
(1.20437 -0.000292925 -1.80513e-17)
(1.20337 0.00081792 -1.70931e-17)
(1.19784 0.00191257 -2.35288e-17)
(1.18803 0.00285905 -3.25802e-17)
(1.17485 0.00349073 -3.1835e-17)
(1.1599 0.00365887 -3.01943e-17)
(1.14531 0.00328469 -2.99908e-17)
(1.13335 0.00238651 -3.29885e-17)
(1.12598 0.00108866 -3.50823e-17)
(1.12449 -0.00038356 -4.7263e-17)
(1.12904 -0.00172366 -6.92723e-17)
(1.13843 -0.00258305 -1.00329e-16)
(1.15002 -0.00265188 -1.26349e-16)
(1.16005 -0.0017905 -1.28811e-16)
(1.16474 -0.000144557 -1.13836e-16)
(1.16151 0.00187924 -1.00659e-16)
(1.14983 0.00378518 -9.45815e-17)
(1.13114 0.00517567 -9.08669e-17)
(1.10818 0.00582911 -9.16075e-17)
(1.08416 0.00567405 -1.02344e-16)
(1.06238 0.00472424 -6.06744e-17)
(1.04593 0.0030257 1.56435e-16)
(1.03772 0.000642732 -2.81154e-16)
(1.04038 -0.00231188 -3.74286e-15)
(1.05594 -0.00559397 -1.59692e-15)
(1.08511 -0.00871635 4.88315e-14)
(1.12602 -0.0109037 1.81737e-13)
(1.17307 -0.0112766 3.20444e-13)
(1.21719 -0.0093125 3.33367e-13)
(1.24852 -0.00531348 2.21389e-13)
(1.2604 -0.000404689 9.92777e-14)
(1.25201 0.00405099 3.01899e-14)
(1.22778 0.00712378 3.16583e-15)
(1.19451 0.00856813 -2.92933e-15)
(1.15866 0.00862458 -2.0914e-15)
(1.12502 0.00770602 -4.59756e-16)
(1.09664 0.00619248 4.19729e-16)
(1.07521 0.00436317 7.05772e-16)
(1.06153 0.00241497 7.73496e-16)
(1.05576 0.000512203 8.14445e-16)
(1.0574 -0.00116973 9.27069e-16)
(1.06519 -0.00243575 1.17076e-15)
(1.07707 -0.00310742 1.42414e-15)
(1.09032 -0.00308705 1.32586e-15)
(1.10206 -0.00241409 5.91272e-16)
(1.1099 -0.0012735 -5.90816e-16)
(1.11244 5.94837e-05 -1.63784e-15)
(1.10951 0.00130985 -2.12296e-15)
(1.10194 0.00228044 -2.0358e-15)
(1.09117 0.00288194 -1.58607e-15)
(1.07876 0.00311797 -1.01468e-15)
(1.0661 0.00304937 -4.93274e-16)
(1.05425 0.00275938 -1.12825e-16)
(1.04392 0.00233021 1.00289e-16)
(1.03553 0.0018318 1.4392e-16)
(1.02921 0.00131901 1.84771e-17)
(1.02494 0.000832935 -2.77953e-16)
(1.02253 0.000403703 -7.47266e-16)
(1.02171 5.28409e-05 -1.3726e-15)
(1.02212 -0.000205463 -2.11884e-15)
(1.02338 -0.000364453 -2.93254e-15)
(1.02507 -0.000425548 -3.74321e-15)
(1.02682 -0.000398788 -4.47811e-15)
(1.0283 -0.000302122 -5.07305e-15)
(1.02927 -0.000159136 -5.49488e-15)
(1.0296 4.39491e-06 -5.7457e-15)
(1.02925 0.000164318 -5.85508e-15)
(1.02829 0.000301318 -5.8697e-15)
(1.02683 0.000402791 -5.83398e-15)
(1.02505 0.000463201 -5.78858e-15)
(1.02311 0.000483226 -5.76477e-15)
(1.02117 0.000468161 -5.78272e-15)
(1.01935 0.000426112 -5.85531e-15)
(1.01774 0.000366318 -5.98199e-15)
(1.01641 0.000297832 -6.15577e-15)
(1.01535 0.000228611 -6.36074e-15)
(1.01457 0.000164995 -6.57266e-15)
(1.01403 0.000111496 -6.76866e-15)
(1.01368 7.0804e-05 -6.92467e-15)
(1.01347 4.39394e-05 -7.02343e-15)
(1.01334 3.05025e-05 -7.0569e-15)
(1.01323 2.89719e-05 -7.02389e-15)
(1.01311 3.70338e-05 -6.93398e-15)
(1.01294 5.19219e-05 -6.79813e-15)
(1.0127 7.07467e-05 -6.62961e-15)
(1.01237 9.07882e-05 -6.44082e-15)
(1.01197 0.000109728 -6.23847e-15)
(1.0115 0.000125804 -6.02807e-15)
(1.01096 0.000137885 -5.80762e-15)
(1.01039 0.000145463 -5.5731e-15)
(1.0098 0.000148584 -5.31922e-15)
(1.0092 0.000147729 -5.03805e-15)
(1.00861 0.00014368 -4.725e-15)
(1.00805 0.000137378 -4.37255e-15)
(1.00751 0.000129794 -3.97516e-15)
(1.00701 0.000121828 -3.5287e-15)
(1.00654 0.000114233 -3.02862e-15)
(1.00609 0.000107575 -2.47575e-15)
(1.00567 0.000102218 -1.87013e-15)
(1.00528 9.8327e-05 -1.21635e-15)
(1.00489 9.59005e-05 -5.22578e-16)
(1.00451 9.47997e-05 2.02362e-16)
(1.00413 9.47918e-05 9.45731e-16)
(1.00375 9.55898e-05 1.69928e-15)
(1.00336 9.68896e-05 2.45757e-15)
(1.00297 9.84015e-05 3.21761e-15)
(1.00258 9.98738e-05 3.98318e-15)
(1.00217 0.000101109 4.76055e-15)
(1.00177 0.000101969 5.55924e-15)
(1.00136 0.00010238 6.38737e-15)
(1.00095 0.000102321 7.24779e-15)
(1.00054 0.000101815 8.14063e-15)
(1.00013 0.000100918 9.06051e-15)
(0.999727 9.97006e-05 1.00009e-14)
(0.99933 9.8237e-05 1.09545e-14)
(0.998939 9.65917e-05 1.19143e-14)
(0.998555 9.48121e-05 1.28797e-14)
(0.998179 9.29225e-05 1.38544e-14)
(0.99781 9.0923e-05 1.48509e-14)
(0.997449 8.8791e-05 1.58886e-14)
(0.997097 8.64857e-05 1.69929e-14)
(0.996755 8.3953e-05 1.82005e-14)
(0.996423 8.11275e-05 1.95576e-14)
(0.996102 7.79284e-05 2.11244e-14)
(0.995796 7.42428e-05 2.29734e-14)
(0.995505 6.98962e-05 2.51886e-14)
(0.995233 6.4611e-05 2.78674e-14)
(0.994984 5.79651e-05 3.11144e-14)
(0.994764 4.9371e-05 3.50403e-14)
(0.994583 3.80964e-05 3.97524e-14)
(0.994453 2.33614e-05 4.53456e-14)
(0.994389 4.50008e-06 5.1897e-14)
(0.994408 -1.87809e-05 5.94557e-14)
(0.994528 -4.61709e-05 6.80367e-14)
(0.994764 -7.64832e-05 7.75926e-14)
(0.995124 -0.00010764 8.79708e-14)
(0.995609 -0.000136694 9.88603e-14)
(0.996199 -0.000160215 1.09721e-13)
(0.996875 -0.000175057 1.19763e-13)
(0.997579 -0.00017799 1.27788e-13)
(0.998288 -0.000169707 1.32809e-13)
(0.998918 -0.000145461 1.31567e-13)
(0.999443 -0.000123278 1.29255e-13)
(0.999896 -5.74389e-05 9.84681e-14)
(1.00013 -0.000817423 3.28927e-20)
(1.0021 -0.00247456 3.81346e-19)
(1.00657 -0.00424149 7.27191e-19)
(1.0134 -0.00615109 1.09728e-18)
(1.0229 -0.00820701 1.55273e-18)
(1.03526 -0.0103417 2.00445e-18)
(1.05054 -0.0124282 2.38613e-18)
(1.06858 -0.0142216 2.47501e-18)
(1.08881 -0.0154599 5.04043e-18)
(1.11029 -0.0158664 6.00216e-18)
(1.13166 -0.0152849 4.29336e-18)
(1.15158 -0.0139337 5.70415e-18)
(1.1692 -0.011995 2.45261e-18)
(1.18386 -0.00963981 6.71564e-18)
(1.19513 -0.00698572 2.04328e-17)
(1.20267 -0.00406766 3.61668e-17)
(1.20613 -0.000899014 4.25164e-17)
(1.20516 0.00245081 4.01068e-17)
(1.19954 0.00576693 3.14852e-17)
(1.1895 0.00864808 1.78659e-17)
(1.17592 0.0105827 -2.0058e-19)
(1.16046 0.0111123 -2.42019e-17)
(1.14531 0.0099929 -5.78511e-17)
(1.13286 0.00727585 -1.03907e-16)
(1.12517 0.00333376 -1.57864e-16)
(1.12363 -0.00115506 -2.28424e-16)
(1.12846 -0.00526204 -3.47881e-16)
(1.13848 -0.00792058 -5.02695e-16)
(1.15092 -0.00817195 -5.43269e-16)
(1.16184 -0.00557449 -3.51347e-16)
(1.16715 -0.000567354 -8.80624e-17)
(1.1641 0.00560257 4.16647e-17)
(1.15216 0.0114142 5.87083e-17)
(1.13289 0.0156549 3.10009e-17)
(1.10918 0.0176589 -1.3502e-17)
(1.08436 0.0172204 -3.80426e-17)
(1.06178 0.0143891 2.97721e-16)
(1.04455 0.0093036 4.74089e-16)
(1.03564 0.00214293 -4.08947e-15)
(1.03776 -0.0067809 -3.35436e-15)
(1.05318 -0.0167591 7.71153e-14)
(1.08287 -0.0263275 2.54854e-13)
(1.12515 -0.0331066 3.47125e-13)
(1.17428 -0.0343601 3.32544e-13)
(1.22062 -0.0284364 3.43991e-13)
(1.25349 -0.0162484 2.83364e-13)
(1.2657 -0.00126819 1.43797e-13)
(1.25653 0.0123083 4.80906e-14)
(1.2309 0.0216316 1.70637e-15)
(1.19621 0.0259746 -1.04179e-14)
(1.15921 0.0261032 -7.32112e-15)
(1.12477 0.023296 -2.06057e-15)
(1.09587 0.0187116 8.8693e-16)
(1.07414 0.0131884 1.8201e-15)
(1.06034 0.00730877 1.87724e-15)
(1.05461 0.00155622 1.59729e-15)
(1.05649 -0.00354594 1.45829e-15)
(1.06474 -0.00740281 2.29462e-15)
(1.07724 -0.00946166 3.45828e-15)
(1.09117 -0.00941445 1.95686e-15)
(1.1035 -0.00737557 -3.66145e-15)
(1.1117 -0.00390867 -1.04222e-14)
(1.11434 0.000144554 -1.41133e-14)
(1.11128 0.00394396 -1.37354e-14)
(1.10343 0.00688858 -1.10274e-14)
(1.09232 0.00870875 -7.81005e-15)
(1.07958 0.009419 -5.11303e-15)
(1.06664 0.00920713 -3.2411e-15)
(1.05459 0.0083273 -2.1318e-15)
(1.04414 0.00702892 -1.6306e-15)
(1.03567 0.00552316 -1.62353e-15)
(1.02933 0.00397495 -2.07456e-15)
(1.02507 0.00250766 -2.97742e-15)
(1.0227 0.00121163 -4.31421e-15)
(1.02195 0.000151572 -6.00895e-15)
(1.02245 -0.000629573 -7.9158e-15)
(1.0238 -0.00111092 -9.84294e-15)
(1.02559 -0.00129622 -1.15589e-14)
(1.02742 -0.00121544 -1.2856e-14)
(1.02896 -0.000922682 -1.3612e-14)
(1.02997 -0.000489351 -1.38357e-14)
(1.03031 6.40693e-06 -1.36695e-14)
(1.02996 0.000491305 -1.32999e-14)
(1.02897 0.000906708 -1.28847e-14)
(1.02748 0.00121437 -1.25217e-14)
(1.02566 0.00139752 -1.22522e-14)
(1.02368 0.00145827 -1.20889e-14)
(1.0217 0.00141273 -1.20189e-14)
(1.01986 0.00128551 -1.20243e-14)
(1.01823 0.0011046 -1.20778e-14)
(1.01689 0.000897426 -1.21411e-14)
(1.01583 0.000688063 -1.21713e-14)
(1.01505 0.000495684 -1.21139e-14)
(1.01452 0.00033392 -1.19223e-14)
(1.01418 0.000210898 -1.15635e-14)
(1.01398 0.000129703 -1.10264e-14)
(1.01386 8.91261e-05 -1.03277e-14)
(1.01376 8.45684e-05 -9.50248e-15)
(1.01365 0.000109034 -8.60325e-15)
(1.01349 0.000154156 -7.68393e-15)
(1.01325 0.000211191 -6.78938e-15)
(1.01292 0.000271906 -5.95043e-15)
(1.01252 0.000329281 -5.1753e-15)
(1.01204 0.000377983 -4.4573e-15)
(1.0115 0.000414586 -3.77441e-15)
(1.01092 0.000437551 -3.09589e-15)
(1.01032 0.000447017 -2.39058e-15)
(1.00972 0.000444445 -1.62657e-15)
(1.00913 0.000432205 -7.8086e-16)
(1.00856 0.000413148 1.642e-16)
(1.00802 0.000390214 1.21968e-15)
(1.00752 0.000366128 2.38851e-15)
(1.00704 0.000343172 3.67063e-15)
(1.0066 0.000323058 5.05647e-15)
(1.00618 0.000306882 6.53222e-15)
(1.00578 0.000295149 8.07923e-15)
(1.00539 0.000287849 9.67353e-15)
(1.00501 0.000284562 1.12928e-14)
(1.00463 0.000284582 1.29131e-14)
(1.00425 0.000287041 1.45179e-14)
(1.00387 0.000291019 1.61007e-14)
(1.00347 0.000295638 1.76628e-14)
(1.00307 0.000300137 1.92193e-14)
(1.00267 0.000303918 2.0791e-14)
(1.00226 0.000306568 2.24005e-14)
(1.00185 0.000307857 2.40684e-14)
(1.00143 0.000307727 2.58032e-14)
(1.00102 0.000306251 2.76049e-14)
(1.00061 0.000303595 2.94595e-14)
(1.0002 0.000299977 3.13432e-14)
(0.999803 0.000295622 3.32283e-14)
(0.999409 0.000290727 3.50843e-14)
(0.999021 0.000285436 3.68897e-14)
(0.998641 0.000279826 3.86315e-14)
(0.998268 0.000273898 4.03115e-14)
(0.997902 0.000267585 4.19523e-14)
(0.997546 0.000260766 4.35985e-14)
(0.997198 0.000253275 4.53292e-14)
(0.99686 0.000244916 4.72597e-14)
(0.996534 0.000235447 4.95476e-14)
(0.996221 0.000224531 5.2397e-14)
(0.995923 0.000211652 5.60513e-14)
(0.995643 0.000195994 6.07938e-14)
(0.995386 0.000176315 6.69297e-14)
(0.995157 0.000150884 7.47724e-14)
(0.994966 0.000117539 8.46236e-14)
(0.994823 7.39626e-05 9.67428e-14)
(0.994745 1.81644e-05 1.11324e-13)
(0.994747 -5.07631e-05 1.28458e-13)
(0.994846 -0.00013195 1.48112e-13)
(0.995059 -0.000221936 1.7006e-13)
(0.995391 -0.000314607 1.93794e-13)
(0.995846 -0.000401255 2.18421e-13)
(0.996402 -0.000471684 2.42557e-13)
(0.997044 -0.000516516 2.64338e-13)
(0.997713 -0.000526062 2.81205e-13)
(0.99839 -0.000502298 2.91155e-13)
(0.998989 -0.000430896 2.88136e-13)
(0.999494 -0.000365831 2.82352e-13)
(0.999918 -0.000169855 2.21845e-13)
(1.00013 -0.00135433 5.57631e-22)
(1.00206 -0.00410172 4.49785e-21)
(1.00646 -0.00703773 1.72767e-21)
(1.01321 -0.0102231 5.61845e-21)
(1.02265 -0.0136687 -1.41245e-19)
(1.03501 -0.0172662 1.83088e-19)
(1.05042 -0.0208056 -6.68463e-19)
(1.06876 -0.0238659 -1.47559e-18)
(1.08947 -0.025997 4.80202e-18)
(1.1116 -0.0266994 5.52703e-19)
(1.13357 -0.025696 -2.72998e-17)
(1.15397 -0.023396 -3.01369e-17)
(1.17194 -0.0201191 4.60563e-17)
(1.18686 -0.0161619 1.77663e-16)
(1.19832 -0.0117218 2.73563e-16)
(1.20604 -0.00684455 2.58757e-16)
(1.20965 -0.00153309 1.42436e-16)
(1.20873 0.00411583 -3.51194e-18)
(1.20296 0.00974967 -1.4329e-16)
(1.19245 0.014681 -2.70482e-16)
(1.17807 0.0180198 -3.92808e-16)
(1.16158 0.0189638 -5.23174e-16)
(1.14534 0.0170821 -6.72089e-16)
(1.13193 0.0124515 -8.21123e-16)
(1.12365 0.00569569 -8.93253e-16)
(1.12207 -0.0020381 -8.91681e-16)
(1.12753 -0.00916373 -7.92094e-16)
(1.13887 -0.013832 -2.72277e-16)
(1.15309 -0.0143476 1.06861e-15)
(1.16578 -0.00990386 2.81264e-15)
(1.17226 -0.00125591 3.72367e-15)
(1.16944 0.00940267 3.49855e-15)
(1.15679 0.0194065 2.77169e-15)
(1.1362 0.0266697 2.00436e-15)
(1.11087 0.0300903 1.33277e-15)
(1.08441 0.0293683 1.56264e-15)
(1.06026 0.0246241 2.82881e-15)
(1.0416 0.016096 -8.0389e-15)
(1.03144 0.00404879 -1.64298e-14)
(1.03269 -0.0110657 2.05712e-13)
(1.048 -0.0281335 5.35143e-13)
(1.07892 -0.0447049 -1.53094e-12)
(1.12418 -0.0566443 -8.86875e-12)
(1.17774 -0.0590661 -1.7319e-11)
(1.2286 -0.0489355 -1.8336e-11)
(1.26437 -0.0278032 -1.17172e-11)
(1.27687 -0.00184304 -4.69328e-12)
(1.26561 0.0215023 -1.04044e-12)
(1.23674 0.0372859 7.49087e-14)
(1.19887 0.0443972 1.65369e-13)
(1.15942 0.0443258 6.65723e-14)
(1.12338 0.0393624 1.13951e-14)
(1.09356 0.0315 -2.87688e-16)
(1.07139 0.0221284 1.49547e-15)
(1.05751 0.012183 3.37024e-15)
(1.05206 0.00243909 2.12078e-15)
(1.05462 -0.00623407 -2.24336e-15)
(1.06395 -0.0128131 -8.61743e-15)
(1.07782 -0.0163257 -2.10526e-14)
(1.09317 -0.0162183 -4.65576e-14)
(1.10667 -0.0126792 -7.86654e-14)
(1.11554 -0.00669036 -9.72135e-14)
(1.11826 0.000279247 -9.12692e-14)
(1.11478 0.00677253 -6.97981e-14)
(1.10621 0.0117625 -4.66571e-14)
(1.09431 0.0148065 -2.90358e-14)
(1.08085 0.015953 -1.80377e-14)
(1.06735 0.0155407 -1.20716e-14)
(1.05491 0.0140117 -9.24222e-15)
(1.04423 0.0117916 -8.29652e-15)
(1.03568 0.00923562 -8.68018e-15)
(1.02935 0.00661843 -1.02724e-14)
(1.02518 0.00414432 -1.30636e-14)
(1.02296 0.00196259 -1.6924e-14)
(1.0224 0.000180577 -2.15128e-14)
(1.02311 -0.0011298 -2.62809e-14)
(1.02467 -0.00193302 -3.05254e-14)
(1.02666 -0.00223501 -3.35222e-14)
(1.02866 -0.00208643 -3.4757e-14)
(1.03033 -0.00157944 -3.41558e-14)
(1.03141 -0.00083591 -3.21722e-14)
(1.03176 1.07868e-05 -2.96523e-14)
(1.03137 0.00083584 -2.73993e-14)
(1.03031 0.00153984 -2.58152e-14)
(1.02873 0.00205854 -2.49441e-14)
(1.02681 0.00236448 -2.46094e-14)
(1.02475 0.00246231 -2.45686e-14)
(1.0227 0.00238029 -2.46032e-14)
(1.0208 0.00216077 -2.45472e-14)
(1.01915 0.00185159 -2.42762e-14)
(1.01779 0.00149929 -2.36768e-14)
(1.01674 0.00114453 -2.26381e-14)
(1.01598 0.000819538 -2.10576e-14)
(1.01547 0.000547125 -1.88674e-14)
(1.01516 0.000340761 -1.60624e-14)
(1.01499 0.000205418 -1.27178e-14)
(1.01489 0.000138842 -8.98748e-15)
(1.01482 0.000133087 -5.08011e-15)
(1.01472 0.000176193 -1.22156e-15)
(1.01457 0.000253916 2.38711e-15)
(1.01433 0.000351414 5.6045e-15)
(1.01401 0.000454743 8.36799e-15)
(1.01359 0.00055205 1.06957e-14)
(1.0131 0.000634362 1.26724e-14)
(1.01255 0.000695959 1.4426e-14)
(1.01196 0.000734325 1.6102e-14)
(1.01135 0.000749781 1.78395e-14)
(1.01074 0.000744883 1.97554e-14)
(1.01014 0.000723702 2.1935e-14)
(1.00956 0.000691103 2.44288e-14)
(1.00902 0.000652087 2.72548e-14)
(1.00851 0.000611268 3.04031e-14)
(1.00803 0.000572495 3.3841e-14)
(1.00759 0.000538642 3.75181e-14)
(1.00717 0.000511535 4.13714e-14)
(1.00677 0.000491997 4.53305e-14)
(1.00639 0.000479982 4.93239e-14)
(1.006 0.000474754 5.32861e-14)
(1.00562 0.000475101 5.71655e-14)
(1.00524 0.000479539 6.09326e-14)
(1.00485 0.000486504 6.45857e-14)
(1.00445 0.000494513 6.81518e-14)
(1.00405 0.00050228 7.16834e-14)
(1.00364 0.000508799 7.52487e-14)
(1.00322 0.000513383 7.89175e-14)
(1.0028 0.000515656 8.27463e-14)
(1.00238 0.000515529 8.67638e-14)
(1.00196 0.000513136 9.0963e-14)
(1.00155 0.000508772 9.52992e-14)
(1.00114 0.000502809 9.96946e-14)
(1.00073 0.000495635 1.0405e-13)
(1.00033 0.000487588 1.08256e-13)
(0.999932 0.000478917 1.12212e-13)
(0.999544 0.00046975 1.1584e-13)
(0.999163 0.000460093 1.19102e-13)
(0.998789 0.000449833 1.22019e-13)
(0.998423 0.000438764 1.24689e-13)
(0.998065 0.000426607 1.27315e-13)
(0.997717 0.000413029 1.30222e-13)
(0.997379 0.000397617 1.33873e-13)
(0.997053 0.000379813 1.38875e-13)
(0.996742 0.000358771 1.45963e-13)
(0.996448 0.000333162 1.55983e-13)
(0.996175 0.000300976 1.6984e-13)
(0.99593 0.000259411 1.88454e-13)
(0.995719 0.000204959 2.12689e-13)
(0.995556 0.000133854 2.43281e-13)
(0.995452 4.28364e-05 2.80741e-13)
(0.995424 -6.96087e-05 3.25253e-13)
(0.995487 -0.000202123 3.76587e-13)
(0.995658 -0.000349128 4.33929e-13)
(0.99594 -0.000500714 4.95657e-13)
(0.996339 -0.000642676 5.59108e-13)
(0.996833 -0.000758396 6.20412e-13)
(0.997409 -0.00083239 6.74616e-13)
(0.99801 -0.000848909 7.15392e-13)
(0.998623 -0.00081075 7.38005e-13)
(0.999155 -0.000694839 7.29112e-13)
(0.999614 -0.000589135 7.12586e-13)
(0.99997 -0.000268918 5.70952e-13)
(1.00013 -0.00187902 -3.02906e-20)
(1.002 -0.00569323 -5.12553e-19)
(1.00628 -0.00978442 -9.01366e-19)
(1.0129 -0.0142482 -1.6763e-18)
(1.02223 -0.0191114 -1.99206e-18)
(1.03458 -0.0242314 -1.86678e-18)
(1.05018 -0.0293188 -1.04762e-17)
(1.06897 -0.0337578 1.32273e-17)
(1.09043 -0.0368891 6.51869e-18)
(1.11354 -0.0379257 -1.10605e-16)
(1.13646 -0.0364428 -5.67294e-17)
(1.15757 -0.033117 4.31748e-16)
(1.17606 -0.0284305 9.66202e-16)
(1.19135 -0.022825 8.74092e-16)
(1.2031 -0.0165807 -1.04939e-16)
(1.2111 -0.00973429 -1.5675e-15)
(1.21495 -0.00224452 -2.63757e-15)
(1.21414 0.00580003 -3.19984e-15)
(1.20815 0.01392 -3.43373e-15)
(1.19694 0.0211087 -3.47203e-15)
(1.18134 0.0260335 -3.40869e-15)
(1.16324 0.0274872 -3.27546e-15)
(1.1453 0.0248162 -2.97821e-15)
(1.13042 0.0181131 -2.22611e-15)
(1.12121 0.00826011 -6.09769e-16)
(1.11954 -0.00310221 2.4909e-15)
(1.12597 -0.013676 1.05339e-14)
(1.13935 -0.0207194 2.83102e-14)
(1.15639 -0.0216438 4.79103e-14)
(1.17187 -0.01516 5.1772e-14)
(1.18021 -0.00237778 4.03328e-14)
(1.17771 0.0133676 2.80651e-14)
(1.16392 0.0280534 1.94411e-14)
(1.1412 0.0386193 1.35337e-14)
(1.11336 0.0435477 9.76268e-15)
(1.08438 0.0425202 1.21859e-14)
(1.05786 0.0357923 4.17986e-15)
(1.03704 0.02372 -5.84939e-14)
(1.02498 0.00661183 1.37349e-13)
(1.02483 -0.0150416 1.11439e-12)
(1.03986 -0.0398532 -9.29871e-13)
(1.07273 -0.0644191 -1.60757e-11)
(1.12308 -0.0825536 -4.70221e-11)
(1.18416 -0.0866258 -7.86413e-11)
(1.24235 -0.071774 -8.71702e-11)
(1.28234 -0.0403208 -6.43717e-11)
(1.29469 -0.00179189 -3.15324e-11)
(1.27968 0.0324299 -9.79991e-12)
(1.24545 0.0550053 -7.27245e-13)
(1.20249 0.0646154 1.142e-12)
(1.15925 0.0638294 7.23861e-13)
(1.12079 0.0562158 2.11152e-13)
(1.08964 0.0447018 1.0015e-14)
(1.06688 0.0312117 -1.7947e-14)
(1.05296 0.0169731 -4.49259e-15)
(1.048 0.00300252 -2.76606e-15)
(1.05165 -0.00949112 -5.40034e-14)
(1.06268 -0.019008 -2.26668e-13)
(1.07871 -0.0240787 -5.29677e-13)
(1.0963 -0.023842 -8.12474e-13)
(1.11162 -0.0185583 -8.87759e-13)
(1.12151 -0.00969722 -7.32541e-13)
(1.12431 0.000536049 -4.83651e-13)
(1.12011 0.00997445 -2.72334e-13)
(1.11038 0.017126 -1.39091e-13)
(1.09719 0.0213908 -7.11387e-14)
(1.0826 0.0228949 -4.2247e-14)
(1.06823 0.0221725 -3.19218e-14)
(1.05521 0.0198844 -2.8981e-14)
(1.04421 0.0166476 -2.90247e-14)
(1.03554 0.0129658 -3.11743e-14)
(1.02926 0.00922224 -3.57249e-14)
(1.02525 0.00569916 -4.27522e-14)
(1.02329 0.00260209 -5.15634e-14)
(1.02303 7.96215e-05 -6.07711e-14)
(1.02407 -0.0017674 -6.85337e-14)
(1.02598 -0.00288819 -7.27752e-14)
(1.02828 -0.00329079 -7.18368e-14)
(1.03054 -0.0030481 -6.5259e-14)
(1.03239 -0.00229366 -5.42696e-14)
(1.03356 -0.00120456 -4.16661e-14)
(1.03393 2.562e-05 -3.09375e-14)
(1.03347 0.00121647 -2.44873e-14)
(1.03229 0.00222548 -2.25816e-14)
(1.03057 0.00296199 -2.40651e-14)
(1.0285 0.00338909 -2.72516e-14)
(1.0263 0.0035161 -3.06013e-14)
(1.02414 0.00338591 -3.3015e-14)
(1.02217 0.00306093 -3.38517e-14)
(1.02047 0.00261065 -3.27758e-14)
(1.0191 0.00210199 -2.95974e-14)
(1.01806 0.00159295 -2.41931e-14)
(1.01733 0.00112915 -1.6501e-14)
(1.01687 0.000742532 -6.5991e-15)
(1.01661 0.000451697 5.22408e-15)
(1.01648 0.000263125 1.8438e-14)
(1.01643 0.000173055 3.23046e-14)
(1.01639 0.000169695 4.59866e-14)
(1.01632 0.000235609 5.86802e-14)
(1.01617 0.000350195 6.97565e-14)
(1.01594 0.000492095 7.88575e-14)
(1.01561 0.000641335 8.59286e-14)
(1.01518 0.000781019 9.11976e-14)
(1.01467 0.000898454 9.50953e-14)
(1.0141 0.000985647 9.81639e-14)
(1.01349 0.00103922 1.00962e-13)
(1.01286 0.00105987 1.03986e-13)
(1.01223 0.00105143 1.07627e-13)
(1.01162 0.0010199 1.1214e-13)
(1.01103 0.000972347 1.17648e-13)
(1.01048 0.000915972 1.2416e-13)
(1.00997 0.000857384 1.31585e-13)
(1.0095 0.000802059 1.39768e-13)
(1.00905 0.000754048 1.48506e-13)
(1.00864 0.000715889 1.57576e-13)
(1.00824 0.000688683 1.66754e-13)
(1.00785 0.000672289 1.75837e-13)
(1.00747 0.000665592 1.84662e-13)
(1.00708 0.000666811 1.93122e-13)
(1.0067 0.00067379 2.01181e-13)
(1.0063 0.000684276 2.08883e-13)
(1.0059 0.000696145 2.1634e-13)
(1.00549 0.000707569 2.23727e-13)
(1.00507 0.000717129 2.31249e-13)
(1.00464 0.000723863 2.39101e-13)
(1.00422 0.000727266 2.47438e-13)
(1.00379 0.000727234 2.56329e-13)
(1.00336 0.00072399 2.65748e-13)
(1.00293 0.000717974 2.75556e-13)
(1.00251 0.00070974 2.85518e-13)
(1.00209 0.000699852 2.95329e-13)
(1.00168 0.000688802 3.04643e-13)
(1.00128 0.000676951 3.13128e-13)
(1.00088 0.000664485 3.20503e-13)
(1.00048 0.000651415 3.26597e-13)
(1.0001 0.000637579 3.31406e-13)
(0.999719 0.000622681 3.35154e-13)
(0.999346 0.00060632 3.38361e-13)
(0.998982 0.000588013 3.41903e-13)
(0.998627 0.000567171 3.47041e-13)
(0.998284 0.00054301 3.55434e-13)
(0.997953 0.000514361 3.69093e-13)
(0.997638 0.000479424 3.90298e-13)
(0.997343 0.000435485 4.21474e-13)
(0.997073 0.000378779 4.65037e-13)
(0.996835 0.000304586 5.23219e-13)
(0.996641 0.000207832 5.9786e-13)
(0.996501 8.41033e-05 6.90174e-13)
(0.996431 -6.86766e-05 8.00453e-13)
(0.996444 -0.000248724 9.27799e-13)
(0.996554 -0.000448525 1.06976e-12)
(0.996766 -0.000654722 1.22177e-12)
(0.997083 -0.000847988 1.37672e-12)
(0.997487 -0.00100586 1.52464e-12)
(0.997967 -0.00110696 1.65328e-12)
(0.998466 -0.00113029 1.74769e-12)
(0.998982 -0.00107861 1.79713e-12)
(0.999413 -0.000922083 1.77261e-12)
(0.9998 -0.000778132 1.729e-12)
(1.00005 -0.000344489 1.40396e-12)
(1.00012 -0.0023852 -2.34717e-18)
(1.00192 -0.0072312 -7.86818e-18)
(1.00603 -0.0124551 -6.68166e-18)
(1.01244 -0.0181982 -9.35431e-18)
(1.0216 -0.0245157 -1.05156e-18)
(1.03391 -0.0312426 -2.77658e-17)
(1.04973 -0.0380164 1.28145e-17)
(1.06912 -0.044001 8.07019e-17)
(1.0916 -0.0482982 -3.64972e-16)
(1.1161 -0.0497258 -6.73344e-17)
(1.14033 -0.0476693 1.90645e-15)
(1.1624 -0.0431996 2.60404e-15)
(1.18157 -0.0369971 -1.70306e-15)
(1.19732 -0.0296746 -1.06169e-14)
(1.20945 -0.0215983 -1.96665e-14)
(1.21782 -0.0127679 -2.41813e-14)
(1.22204 -0.00305122 -2.21153e-14)
(1.22143 0.00751996 -1.71747e-14)
(1.21521 0.0183595 -1.20567e-14)
(1.20306 0.0281003 -7.54055e-15)
(1.18578 0.0348759 -3.49435e-15)
(1.16546 0.0369822 7.95441e-16)
(1.14513 0.0334895 6.76389e-15)
(1.12816 0.0244891 1.61021e-14)
(1.11761 0.0111281 2.91202e-14)
(1.11574 -0.0044266 5.19102e-14)
(1.12346 -0.0190891 1.12534e-13)
(1.13972 -0.0290642 2.38536e-13)
(1.16076 -0.0306265 3.50088e-13)
(1.18027 -0.021815 3.13227e-13)
(1.19128 -0.00415086 1.81647e-13)
(1.18921 0.017585 9.61509e-14)
(1.17374 0.0376807 6.1373e-14)
(1.14802 0.0519491 4.6495e-14)
(1.11668 0.0584974 4.1536e-14)
(1.08424 0.0571123 4.36144e-14)
(1.05453 0.0482907 -3.85533e-14)
(1.03078 0.0325418 -9.05633e-15)
(1.01606 0.0101654 1.13631e-12)
(1.01381 -0.0184862 -1.63001e-13)
(1.02835 -0.052059 -1.60886e-11)
(1.06402 -0.0863059 -3.43341e-11)
(1.12149 -0.11239 -1.05484e-11)
(1.19328 -0.118755 3.71565e-11)
(1.26253 -0.0980388 3.26187e-11)
(1.30897 -0.0538883 -1.34173e-11)
(1.32068 -0.000393862 -3.63008e-11)
(1.29954 0.0461948 -2.73785e-11)
(1.25712 0.0758779 -9.79624e-12)
(1.20686 0.0874679 8.10934e-14)
(1.15842 0.0851529 2.03588e-12)
(1.11682 0.0741522 1.12087e-12)
(1.08401 0.0584512 2.61399e-13)
(1.06054 0.0404689 -3.44986e-14)
(1.04659 0.0216265 -4.11867e-14)
(1.04229 0.00310007 -3.92795e-14)
(1.04741 -0.0135749 -4.38181e-13)
(1.06081 -0.0263504 -1.82323e-12)
(1.07989 -0.0331396 -4.03137e-12)
(1.10064 -0.0326751 -5.63043e-12)
(1.11852 -0.0252821 -5.36778e-12)
(1.12981 -0.0130237 -3.63718e-12)
(1.13264 0.000991427 -1.82348e-12)
(1.12737 0.0137446 -6.99644e-13)
(1.11595 0.0232221 -2.01031e-13)
(1.10096 0.0286938 -5.26402e-14)
(1.08479 0.0304314 -4.13764e-14)
(1.06924 0.0292319 -6.1183e-14)
(1.05544 0.0260207 -7.71112e-14)
(1.04402 0.0216281 -8.58117e-14)
(1.03522 0.0167115 -9.26381e-14)
(1.02902 0.0117602 -1.01982e-13)
(1.02526 0.00712905 -1.14223e-13)
(1.02364 0.00307554 -1.25918e-13)
(1.02381 -0.000212833 -1.31795e-13)
(1.02532 -0.00260623 -1.26253e-13)
(1.02769 -0.00403755 -1.04659e-13)
(1.03043 -0.00451668 -6.58632e-14)
(1.03305 -0.00414083 -1.39022e-14)
(1.03515 -0.00308989 4.21432e-14)
(1.03644 -0.00160314 9.03548e-14)
(1.03681 5.82411e-05 1.19781e-13)
(1.03626 0.00165219 1.25968e-13)
(1.03492 0.00298968 1.12822e-13)
(1.03299 0.00395318 8.83929e-14)
(1.03072 0.00449823 6.10434e-14)
(1.02833 0.00464215 3.71786e-14)
(1.02602 0.00444616 2.06244e-14)
(1.02395 0.00399614 1.30681e-14)
(1.02219 0.00338588 1.48879e-14)
(1.02081 0.00270452 2.5874e-14)
(1.01979 0.00202844 4.55815e-14)
(1.0191 0.00141701 7.33476e-14)
(1.01869 0.000911296 1.081e-13)
(1.0185 0.000534614 1.48168e-13)
(1.01844 0.000294391 1.91247e-13)
(1.01844 0.000184677 2.34579e-13)
(1.01845 0.000189096 2.75331e-13)
(1.01841 0.000283994 3.11031e-13)
(1.01828 0.000441711 3.3997e-13)
(1.01805 0.000633766 3.61425e-13)
(1.01771 0.000833688 3.75687e-13)
(1.01727 0.00101925 3.83896e-13)
(1.01674 0.00117391 3.87745e-13)
(1.01614 0.00128748 3.89156e-13)
(1.0155 0.00135589 3.89973e-13)
(1.01484 0.00138047 3.91753e-13)
(1.01419 0.00136667 3.95636e-13)
(1.01356 0.0013227 4.023e-13)
(1.01296 0.0012581 4.11998e-13)
(1.0124 0.0011825 4.24614e-13)
(1.01189 0.00110465 4.39757e-13)
(1.01141 0.00103173 4.5685e-13)
(1.01097 0.000968979 4.75223e-13)
(1.01055 0.000919627 4.94188e-13)
(1.01015 0.000884983 5.13107e-13)
(1.00977 0.000864725 5.31453e-13)
(1.00938 0.000857267 5.48855e-13)
(1.009 0.000860161 5.65125e-13)
(1.00861 0.000870503 5.80279e-13)
(1.00821 0.000885282 5.94532e-13)
(1.00779 0.000901687 6.08271e-13)
(1.00737 0.000917318 6.22005e-13)
(1.00694 0.000930335 6.36289e-13)
(1.00651 0.000939512 6.51636e-13)
(1.00607 0.000944232 6.68421e-13)
(1.00563 0.00094441 6.86807e-13)
(1.00519 0.000940387 7.06684e-13)
(1.00475 0.000932784 7.27659e-13)
(1.00431 0.000922363 7.49077e-13)
(1.00388 0.000909893 7.70079e-13)
(1.00346 0.000896038 7.89701e-13)
(1.00304 0.000881279 8.06985e-13)
(1.00262 0.000865866 8.21111e-13)
(1.00222 0.000849814 8.3154e-13)
(1.00181 0.000832912 8.38177e-13)
(1.00142 0.000814763 8.41539e-13)
(1.00102 0.000794834 8.42919e-13)
(1.00064 0.000772478 8.44527e-13)
(1.00026 0.000746915 8.49562e-13)
(0.999895 0.000717127 8.62206e-13)
(0.999539 0.000681638 8.87494e-13)
(0.999196 0.000638214 9.31074e-13)
(0.998872 0.000583528 9.98862e-13)
(0.99857 0.000512986 1.09664e-12)
(0.998298 0.000420837 1.22961e-12)
(0.998064 0.000300895 1.40192e-12)
(0.997879 0.000147765 1.61607e-12)
(0.997754 -4.10963e-05 1.87223e-12)
(0.997703 -0.000263529 2.16755e-12)
(0.997736 -0.000510296 2.49534e-12)
(0.997857 -0.000765034 2.84406e-12)
(0.99807 -0.00100381 3.19636e-12)
(0.998356 -0.00119912 3.52884e-12)
(0.99871 -0.00132401 3.81356e-12)
(0.999075 -0.00135343 4.01773e-12)
(0.999462 -0.00128896 4.11876e-12)
(0.999757 -0.00109701 4.0567e-12)
(1.00005 -0.000917607 3.95143e-12)
(1.00016 -0.000386301 3.24439e-12)
(1.00012 -0.0028657 2.28279e-18)
(1.0018 -0.00869449 8.49846e-18)
(1.00568 -0.0150178 6.28611e-18)
(1.01181 -0.0220367 9.98978e-18)
(1.02071 -0.0298517 2.58047e-17)
(1.03291 -0.0382943 -9.43663e-17)
(1.04896 -0.046941 4.23071e-16)
(1.06907 -0.0547045 -8.15009e-16)
(1.0929 -0.0604102 -5.98221e-16)
(1.11928 -0.0623064 5.84746e-15)
(1.14522 -0.0595297 3.83928e-15)
(1.16849 -0.0537447 -2.11176e-14)
(1.18849 -0.0458788 -5.7011e-14)
(1.20477 -0.0367578 -7.52622e-14)
(1.21734 -0.026839 -5.77929e-14)
(1.22618 -0.0160389 -1.01379e-14)
(1.23092 -0.0040565 3.96976e-14)
(1.23066 0.00921899 7.60078e-14)
(1.22423 0.023122 9.80993e-14)
(1.21094 0.0358496 1.09706e-13)
(1.19147 0.0448596 1.16619e-13)
(1.16821 0.0478227 1.25488e-13)
(1.1447 0.0434689 1.43699e-13)
(1.12491 0.0318749 1.73938e-13)
(1.11249 0.0144652 2.07053e-13)
(1.11026 -0.00603859 2.66736e-13)
(1.11961 -0.0256802 3.90373e-13)
(1.13967 -0.0393916 4.72526e-13)
(1.16617 -0.041947 3.30215e-13)
(1.19123 -0.0304182 -9.57059e-15)
(1.20589 -0.00681309 -2.69643e-13)
(1.20437 0.0221838 -2.39187e-13)
(1.18655 0.0486793 -8.9928e-14)
(1.15674 0.0671556 2.63028e-14)
(1.12079 0.0754285 9.52798e-14)
(1.08393 0.0735851 5.00995e-14)
(1.05018 0.0625195 -1.16365e-13)
(1.0227 0.0429578 1.099e-12)
(1.00444 0.0151106 1.5761e-12)
(0.99937 -0.0211572 -1.75498e-11)
(1.0132 -0.0649257 -3.68632e-11)
(1.05072 -0.110975 1.08059e-10)
(1.11223 -0.147225 5.59928e-10)
(1.19249 -0.157248 1.09174e-09)
(1.27615 -0.129702 1.23144e-09)
(1.33665 -0.0693516 8.58912e-10)
(1.35291 0.00304382 3.57438e-10)
(1.3256 0.0642906 5.85631e-11)
(1.27211 0.101332 -2.67064e-11)
(1.21174 0.113924 -2.00192e-11)
(1.15649 0.108821 -3.90863e-12)
(1.11108 0.0934119 1.6818e-12)
(1.07639 0.0728421 1.42355e-12)
(1.05217 0.0499198 4.01725e-13)
(1.03823 0.0261005 -4.83142e-16)
(1.03472 0.00259652 -2.96497e-13)
(1.04172 -0.0187539 -2.05472e-12)
(1.05828 -0.0352497 -6.55891e-12)
(1.08152 -0.0439967 -1.22177e-11)
(1.1066 -0.0431646 -1.50351e-11)
(1.1279 -0.0331394 -1.26446e-11)
(1.14088 -0.016744 -6.94561e-12)
(1.14357 0.00176644 -2.10272e-12)
(1.13671 0.0183272 1.45235e-13)
(1.12295 0.0303323 6.42316e-13)
(1.10555 0.0369685 4.34659e-13)
(1.08733 0.0387544 1.20321e-13)
(1.07027 0.0368446 -9.2894e-14)
(1.05552 0.0324891 -1.93382e-13)