/*--------------------------------*- C++ -*----------------------------------*\
  =========                 |
  \\      /  F ield         | OpenFOAM: The Open Source CFD Toolbox
   \\    /   O peration     | Website:  https://openfoam.org
    \\  /    A nd           | Version:  11
     \\/     M anipulation  |
\*---------------------------------------------------------------------------*/
FoamFile
{
    format      ascii;
    class       surfaceScalarField;
    location    "14.528924";
    object      phi_0;
}
// * * * * * * * * * * * * * * * * * * * * * * * * * * * * * * * * * * * * * //

dimensions      [0 3 -1 0 0 0 0];

internalField   nonuniform List<scalar> 
14638
(
0.00250223
-2.22988e-06
0.00250877
-6.54009e-06
0.00251972
-1.0955e-05
0.00253537
-1.5643e-05
0.00255607
-2.07067e-05
0.00258208
-2.60093e-05
0.00261328
-3.11953e-05
0.00264878
-3.54983e-05
0.00268684
-3.80618e-05
0.00272486
-3.8016e-05
0.00275972
-3.48632e-05
0.00278914
-2.94179e-05
0.0028114
-2.22659e-05
0.00282514
-1.37379e-05
0.00282892
-3.77804e-06
0.00282098
7.94065e-06
0.00280009
2.08859e-05
0.00276689
3.32046e-05
0.00272435
4.25354e-05
0.0026774
4.69502e-05
0.00263202
4.53795e-05
0.0025944
3.76231e-05
0.00257012
2.42804e-05
0.00256332
6.79773e-06
0.00257566
-1.23347e-05
0.00260497
-2.93104e-05
0.0026444
-3.94372e-05
0.0026833
-3.88999e-05
0.0027104
-2.70979e-05
0.0027179
-7.49537e-06
0.00270378
1.4113e-05
0.0026714
3.23851e-05
0.00262727
4.41303e-05
0.00257904
4.82242e-05
0.00253435
4.46925e-05
0.00250042
3.39345e-05
0.00248385
1.65622e-05
0.00248994
-6.08858e-06
0.00252088
-3.09368e-05
0.00257335
-5.24654e-05
0.00263719
-6.38411e-05
0.00269727
-6.00842e-05
0.00273854
-4.12697e-05
0.00275156
-1.30228e-05
0.00273523
1.63298e-05
0.00269558
3.96514e-05
0.00264228
5.33013e-05
0.00258544
5.68408e-05
0.00253407
5.13746e-05
0.00249598
3.80812e-05
0.00247816
1.78263e-05
0.00248616
-8.00439e-06
0.00252216
-3.60003e-05
0.00258215
-5.99898e-05
0.00265465
-7.24987e-05
0.00272284
-6.81906e-05
0.00276995
-4.71105e-05
0.0027852
-1.52481e-05
0.00276704
1.81561e-05
0.00272236
4.46807e-05
0.00266267
5.96897e-05
0.00260003
6.26436e-05
0.00254465
5.53815e-05
0.00250458
4.00731e-05
0.00248628
1.82983e-05
0.00249453
-8.24844e-06
0.00253071
-3.61879e-05
0.00259049
-5.97749e-05
0.00266276
-7.22742e-05
0.00273164
-6.88819e-05
0.00278099
-4.93426e-05
0.00279952
-1.85368e-05
0.0027842
1.53197e-05
0.00274041
4.37902e-05
0.00267928
6.11332e-05
0.00261371
6.55729e-05
0.00255519
5.85219e-05
0.00251258
4.26051e-05
0.00249244
2.01455e-05
0.00249909
-6.65775e-06
0.00253343
-3.43384e-05
0.00259094
-5.75107e-05
0.00266111
-7.01685e-05
0.00272935
-6.82423e-05
0.00278094
-5.15915e-05
0.00280512
-2.41748e-05
0.00279768
7.4348e-06
0.00276152
3.61681e-05
0.00270513
5.63816e-05
0.00264012
6.50161e-05
0.00257838
6.17415e-05
0.00253028
4.81014e-05
0.00250391
2.63657e-05
0.00250468
-7.69804e-07
0.00253413
-2.94495e-05
0.00258838
-5.42541e-05
0.00265771
-6.93246e-05
0.00272831
-7.06028e-05
0.00278595
-5.76343e-05
0.0028197
-3.37509e-05
0.00282435
-4.65881e-06
0.00280078
2.35719e-05
0.00275467
4.61114e-05
0.00269467
6e-05
0.00263073
6.39414e-05
0.00257294
5.77921e-05
0.00253076
4.21735e-05
0.00251223
1.85302e-05
0.00252252
-1.02853e-05
0.00256204
-3.9525e-05
0.0026252
-6.31566e-05
0.00270089
-7.56924e-05
0.00277515
-7.42526e-05
0.00283478
-5.96317e-05
0.00287067
-3.58931e-05
0.00287952
-8.84769e-06
0.00286371
1.58076e-05
0.00282972
3.39868e-05
0.0027859
4.38288e-05
0.00274059
4.53087e-05
0.00270127
3.93121e-05
0.00267434
2.69393e-05
0.00266476
9.57554e-06
0.00267525
-1.04883e-05
0.00270499
-2.9744e-05
0.00274909
-4.41022e-05
0.00279937
-5.0278e-05
0.00284647
-4.70994e-05
0.00288244
-3.5967e-05
0.00290273
-2.02929e-05
0.00290705
-4.31925e-06
0.00289894
8.11532e-06
0.00288449
1.44437e-05
0.0028708
1.36931e-05
0.00286446
6.33857e-06
0.00287057
-6.11371e-06
0.00289215
-2.15724e-05
0.0029298
-3.76551e-05
0.00298162
-5.18216e-05
0.00304312
-6.14939e-05
0.00310747
-6.43552e-05
0.00316633
-5.88543e-05
0.00321106
-4.47306e-05
0.00323436
-2.33038e-05
0.00323172
2.63781e-06
0.00320238
2.93436e-05
0.00314949
5.28911e-05
0.00307943
7.00619e-05
0.00300045
7.89806e-05
0.00292112
7.93291e-05
0.002849
7.21213e-05
0.0027898
5.91941e-05
0.00274714
4.26622e-05
0.00272254
2.46001e-05
0.00271578
6.75515e-06
0.00272492
-9.13815e-06
0.00274718
-2.22572e-05
0.00277771
-3.05311e-05
0.00281413
-3.64165e-05
-3.21973e-05
0.00250221
-4.44343e-06
0.00250871
-1.30326e-05
0.0025196
-2.18445e-05
0.00253519
-3.12351e-05
0.0025559
-4.14231e-05
0.00258204
-5.21467e-05
0.00261354
-6.26979e-05
0.00264955
-7.1503e-05
0.00268829
-7.68042e-05
0.00272703
-7.67519e-05
0.00276247
-7.03049e-05
0.00279231
-5.92605e-05
0.00281491
-4.48655e-05
0.00282898
-2.78116e-05
0.00283312
-7.90851e-06
0.00282538
1.56803e-05
0.0028043
4.19638e-05
0.00277039
6.71082e-05
0.00272672
8.62088e-05
0.00267837
9.53042e-05
0.00263151
9.2233e-05
0.00259254
7.65969e-05
0.00256725
4.95724e-05
0.00256005
1.3996e-05
0.00257289
-2.51806e-05
0.00260378
-6.01952e-05
0.00264561
-8.12698e-05
0.00268704
-8.03292e-05
0.00271598
-5.60344e-05
0.00272412
-1.56322e-05
0.00270946
2.87652e-05
0.00267573
6.61144e-05
0.00262987
8.99904e-05
0.00257981
9.82914e-05
0.00253329
9.12127e-05
0.00249765
6.95717e-05
0.00247975
3.44567e-05
0.00248534
-1.16751e-05
0.00251713
-6.27287e-05
0.002572
-0.00010733
0.00263928
-0.000131122
0.00270275
-0.000123553
0.00274622
-8.47465e-05
0.00275972
-2.65168e-05
0.0027423
3.37495e-05
0.00270063
8.13186e-05
0.00264503
0.000108903
0.00258597
0.000115904
0.00253254
0.000104798
0.00249262
7.80055e-05
0.00247336
3.70855e-05
0.00248081
-1.54516e-05
0.00251767
-7.28593e-05
0.00258015
-0.000122474
0.00265635
-0.000148694
0.00272836
-0.0001402
0.00277815
-9.69088e-05
0.00279418
-3.12791e-05
0.00277493
3.74091e-05
0.00272793
9.16802e-05
0.00266553
0.00012209
0.00260035
0.000127826
0.00254276
0.000112973
0.00250072
8.21089e-05
0.00248071
3.83075e-05
0.0024878
-1.53394e-05
0.00252389
-7.22718e-05
0.00258495
-0.000120842
0.00265978
-0.000147099
0.00273182
-0.000140925
0.00278404
-0.000101565
0.00280441
-3.89036e-05
0.0027895
3.02331e-05
0.00274479
8.84978e-05
0.00268185
0.000124072
0.00261409
0.000133339
0.00255333
0.000119282
0.00250864
8.72958e-05
0.00248682
4.19648e-05
0.00249266
-1.25061e-05
0.0025275
-6.91701e-05
0.00258682
-0.000116835
0.00265955
-0.000142902
0.00273024
-0.000138929
0.00278347
-0.000104825
0.00280827
-4.89741e-05
0.00280061
1.50992e-05
0.00276365
7.31299e-05
0.00270614
0.000113889
0.00263979
0.00013137
0.00257657
0.000124953
0.00252706
9.76152e-05
0.00249976
5.36636e-05
0.00250067
-1.67233e-06
0.00253172
-6.05019e-05
0.00258888
-0.000111416
0.00266162
-0.000142065
0.00273507
-0.000144051
0.00279413
-0.000116699
0.00282764
-6.72561e-05
0.0028307
-7.72296e-06
0.00280484
4.94371e-05
0.00275638
9.45645e-05
0.00269441
0.000121976
0.00262898
0.000129369
0.00257019
0.000116586
0.0025276
8.47573e-05
0.00250958
3.65539e-05
0.00252165
-2.23535e-05
0.00256425
-8.21258e-05
0.00263123
-0.000130136
0.00271055
-0.000155014
0.00278731
-0.000151012
0.00284775
-0.000120077
0.00288269
-7.08316e-05
0.00288917
-1.53293e-05
0.00287019
3.47949e-05
0.00283286
7.13161e-05
0.00278608
9.06082e-05
0.00273859
9.27994e-05
0.0026981
7.98041e-05
0.00267117
5.38651e-05
0.00266298
1.77625e-05
0.00267628
-2.37856e-05
0.00270995
-6.34146e-05
0.00275838
-9.25265e-05
0.00281242
-0.000104327
0.00286192
-9.65907e-05
0.00289847
-7.25171e-05
0.00291758
-3.94047e-05
0.00291936
-6.09984e-06
0.00290791
1.95659e-05
0.00288987
3.24825e-05
0.00287273
3.08298e-05
0.00286336
1.57065e-05
0.00286702
-9.77314e-06
0.00288685
-4.14019e-05
0.00292363
-7.44359e-05
0.0029756
-0.000103786
0.00303829
-0.000124189
0.00310474
-0.000130805
0.00316621
-0.000120319
0.00321357
-9.20894e-05
0.00323906
-4.87931e-05
0.00323785
3.84073e-06
0.00320907
5.81291e-05
0.00315591
0.000106052
0.00308494
0.000141033
0.00300466
0.000159253
0.00292391
0.000160083
0.00285042
0.000145609
0.00279004
0.000119578
0.00274641
8.62913e-05
0.00272107
4.9937e-05
0.00271379
1.40367e-05
0.00272261
-1.79612e-05
0.00274473
-4.43719e-05
0.00277528
-6.10787e-05
0.00281182
-7.29631e-05
-6.4445e-05
0.00250218
-6.62308e-06
0.00250857
-1.94222e-05
0.00251932
-3.2594e-05
0.0025348
-4.67124e-05
0.00255552
-6.21468e-05
0.00258191
-7.85345e-05
0.00261403
-9.48231e-05
0.00265108
-0.000108549
0.00269123
-0.00011696
0.00273146
-0.000116982
0.00276809
-0.000106929
0.00279877
-8.99428e-05
0.002822
-6.80912e-05
0.00283668
-4.24975e-05
0.00284146
-1.26823e-05
0.00283405
2.30852e-05
0.0028125
6.35132e-05
0.0027771
0.000102514
0.00273105
0.000132254
0.00267984
0.000146519
0.00263005
0.000142016
0.00258849
0.000118164
0.00256137
7.6689e-05
0.00255364
2.17243e-05
0.00256782
-3.9359e-05
0.00260216
-9.45378e-05
0.00264902
-0.000128132
0.00269557
-0.00012688
0.00272798
-8.84432e-05
0.00273694
-2.45905e-05
0.00272063
4.5081e-05
0.00268368
0.000103063
0.00263401
0.000139658
0.00258014
0.000152158
0.00253008
0.000141274
0.00249134
0.000108308
0.00247124
5.45563e-05
0.00247642
-1.68454e-05
0.00251061
-9.69276e-05
0.00257099
-0.000167708
0.00264566
-0.000205789
0.00271594
-0.000193837
0.00276334
-0.000132138
0.00277687
-4.00558e-05
0.00275627
5.4354e-05
0.00270973
0.000127855
0.00264903
0.000169609
0.00258539
0.000179539
0.00252807
0.000162119
0.00248486
0.000121218
0.00246308
5.88682e-05
0.00246935
-2.17231e-05
0.00250727
-0.000110784
0.00257377
-0.000188975
0.00265669
-0.000231607
0.00273641
-0.000219925
0.00279228
-0.000152773
0.00281059
-4.95889e-05
0.00278943
5.8562e-05
0.00273768
0.000143437
0.0026696
0.000190168
0.00259923
0.000198199
0.00253735
0.00017485
0.00249172
0.000127733
0.00246875
6.128e-05
0.00247409
-2.0678e-05
0.00251063
-0.000108808
0.00257486
-0.000185076
0.00265494
-0.000227177
0.0027328
-0.00021879
0.00278981
-0.000158577
0.00281283
-6.19237e-05
0.00279803
4.50398e-05
0.00275117
0.000135351
0.00268464
0.00019061
0.00261271
0.00020526
0.00254791
0.000184088
0.00249976
0.000135445
0.00247574
6.59869e-05
0.00248158
-1.83523e-05
0.00251924
-0.000106831
0.00258376
-0.000181351
0.00266241
-0.000221549
0.00273774
-0.000214264
0.00279307
-0.000160149
0.00281731
-7.32111e-05
0.00280723
2.51719e-05
0.00276705
0.000113309
0.00270626
0.000174679
0.00263687
0.000200764
0.00257097
0.000190855
0.00251943
0.000149149
0.00249156
8.15352e-05
0.00249429
-4.40147e-06
0.00252995
-9.61593e-05
0.00259371
-0.000175179
0.00267329
-0.00022164
0.00275185
-0.000222616
0.00281296
-0.000177804
0.00284508
-9.93792e-05
0.00284402
-6.66037e-06
0.00281261
8.08411e-05
0.00275862
0.000148554
0.00269209
0.000188509
0.00262346
0.000197995
0.00256291
0.000177143
0.00252022
0.000127441
0.00250426
5.25158e-05
0.00252088
-3.89746e-05
0.00257007
-0.000131313
0.00264431
-0.000204379
0.00272986
-0.000240562
0.00281042
-0.000231576
0.00287157
-0.000181225
0.00290415
-0.000103409
0.00290582
-1.69944e-05
0.00288056
6.00455e-05
0.0028367
0.00011518
0.00278418
0.000143127
0.00273253
0.000144452
0.00268999
0.000122341
0.00266358
8.02763e-05
0.00265878
2.25601e-05
0.00267821
-4.32084e-05
0.00271981
-0.000105018
0.00277633
-0.000149048
0.00283684
-0.000164833
0.00288983
-0.000149587
0.00292646
-0.000109143
0.00294254
-5.54867e-05
0.00293903
-2.58557e-06
0.00292105
3.75417e-05
0.00289622
5.73097e-05
0.00287277
5.42867e-05
0.00285801
3.04653e-05
0.0028575
-9.26835e-06
0.00287468
-5.8581e-05
0.00291066
-0.000110409
0.00296389
-0.000157023
0.00302984
-0.000190137
0.00310096
-0.000201926
0.0031676
-0.000186954
0.00321964
-0.000144136
0.00324858
-7.77245e-05
0.00324917
3.24745e-06
0.00322049
8.68121e-05
0.00316598
0.000160555
0.00309267
0.000214341
0.0030096
0.000242331
0.00292604
0.00024364
0.00285009
0.000221559
0.00278776
0.000181908
0.00274274
0.000131307
0.00271654
7.61356e-05
0.00270885
2.1736e-05
0.00271763
-2.67449e-05
0.00273998
-6.67273e-05
0.00277093
-9.20287e-05
0.00280803
-0.000110058
-9.6785e-05
0.00250212
-8.74767e-06
0.00250835
-2.5645e-05
0.00251887
-4.31123e-05
0.00253414
-6.19885e-05
0.00255484
-8.28468e-05
0.00258158
-0.000105268
0.00261463
-0.000127874
0.00265327
-0.000147189
0.00269563
-0.00015932
0.00273819
-0.000159541
0.00277661
-0.000145354
0.00280854
-0.000121868
0.00283268
-9.22359e-05
0.00284832
-5.81387e-05
0.00285417
-1.85271e-05
0.00284736
2.98918e-05
0.00282509
8.57811e-05
0.0027873
0.000140307
0.00273751
0.000182043
0.00268184
0.000202191
0.00262755
0.000196308
0.00258201
0.0001637
0.00255209
0.000106614
0.0025435
3.03066e-05
0.00255971
-5.55688e-05
0.00259947
-0.000134292
0.00265429
-0.000182956
0.00270897
-0.000181554
0.00274681
-0.000126286
0.00275689
-3.46749e-05
0.00273773
6.42437e-05
0.00269555
0.000145244
0.00263987
0.000195336
0.00258016
0.000211872
0.00252474
0.000196689
0.00248134
0.000151707
0.00245791
7.7993e-05
0.00246244
-2.13782e-05
0.00250033
-0.000134816
0.00256928
-0.000236659
0.00265567
-0.000292177
0.00273694
-0.000275108
0.00279058
-0.000185778
0.00280391
-5.33917e-05
0.00277782
8.0449e-05
0.00272322
0.000182452
0.00265436
0.00023847
0.00258372
0.000250184
0.00252061
0.000225228
0.00247237
0.000169451
0.00244606
8.5177e-05
0.00244888
-2.45429e-05
0.00248608
-0.000147982
0.00255637
-0.000259267
0.00264788
-0.000323117
0.00273897
-0.000311014
0.00280527
-0.000219072
0.00282944
-7.3753e-05
0.0028079
8.00973e-05
0.00275066
0.000200679
0.00267478
0.000266051
0.00259675
0.000276225
0.00252837
0.000243228
0.0024773
0.000178803
0.0024501
8.84842e-05
0.00245368
-2.42589e-05
0.00249248
-0.000147605
0.00256308
-0.000255677
0.00265165
-0.000315751
0.00273733
-0.000304465
0.00279947
-0.000220721
0.00282435
-8.68027e-05
0.00280841
6.09788e-05
0.00275807
0.000185687
0.00268655
0.000262133
0.00260904
0.000282769
0.00253884
0.000254292
0.00248636
0.000187929
0.00246035
9.19902e-05
0.002468
-2.60023e-05
0.00251168
-0.000150509
0.00258501
-0.000254682
0.00267251
-0.000309047
0.00275399
-0.000295744
0.0028112
-0.000217358
0.00283314
-9.51521e-05
0.00281796
4.03489e-05
0.00277167
0.0001596
0.00270512
0.000241228
0.00263091
0.000274971
0.00256132
0.000260449
0.00250765
0.000202819
0.0024802
0.000108986
0.0024869
-1.10984e-05
0.00252997
-0.000139231
0.00260297
-0.000248182
0.00269119
-0.000309862
0.00277568
-0.000307102
0.00283874
-0.000240868
0.00286862
-0.000129257
0.0028618
1.58578e-07
0.00282262
0.000120026
0.00276063
0.000210536
0.00268736
0.000261782
0.00261402
0.000271332
0.00255112
0.000240045
0.00250886
0.000169705
0.00249657
6.48052e-05
0.00252006
-6.24614e-05
0.0025781
-0.000189356
0.00266111
-0.000287392
0.00275334
-0.000332789
0.00283731
-0.000315544
0.0028983
-0.00024222
0.00292747
-0.000132581
0.00292312
-1.26413e-05
0.00289019
9.29758e-05
0.00283822
0.000167155
0.00277844
0.000202904
0.0027215
0.000201387
0.00267659
0.000167255
0.00265148
0.000105383
0.00265207
2.19773e-05
0.00268041
-7.15529e-05
0.00273271
-0.000157317
0.00279917
-0.000215512
0.00286659
-0.000232247
0.00292221
-0.00020521
0.00295713
-0.000144067
0.00296799
-6.63397e-05
0.0029569
8.50434e-06
0.00293023
6.42115e-05
0.00289666
9.0877e-05
0.00286521
8.5735e-05
0.00284375
5.193e-05
0.00283828
-3.7974e-06
0.00285278
-7.30805e-05
0.0028889
-0.000146538
0.0029453
-0.000213417
0.00301685
-0.000261691
0.00309483
-0.000279903
0.00316819
-0.000260319
0.00322576
-0.000201698
0.00325836
-0.000110333
0.00326058
1.03482e-06
0.00323153
0.000115856
0.00317502
0.00021707
0.00309858
0.000290776
0.00301189
0.000329025
0.00292481
0.000330719
0.00284585
0.000300519
0.00278125
0.000246513
0.00273473
0.000177821
0.00270775
0.000103113
0.00269988
2.9606e-05
0.00270902
-3.58762e-05
0.00273207
-8.97779e-05
0.00276387
-0.000123836
0.00280188
-0.000148065
-0.000129227
0.00250204
-1.07909e-05
0.00250802
-3.16223e-05
0.00251819
-5.32823e-05
0.00253314
-7.69398e-05
0.00255374
-0.000103447
0.00258088
-0.000132403
0.00261514
-0.000162138
0.00265596
-0.000188005
0.00270142
-0.00020478
0.00274725
-0.000205371
0.0027881
-0.000186212
0.0028216
-0.000155367
0.00284685
-0.000117477
0.00286371
-7.50056e-05
0.00287112
-2.59294e-05
0.00286534
3.5665e-05
0.00284228
0.000108839
0.00280132
0.000181272
0.00274641
0.000236952
0.00268459
0.000264007
0.00262405
0.000256851
0.00257295
0.000214802
0.00253896
0.000140601
0.00252895
4.03218e-05
0.00254777
-7.43945e-05
0.00259507
-0.00018159
0.00266128
-0.000249167
0.00272768
-0.000247958
0.00277332
-0.000171923
0.00278486
-4.62106e-05
0.00276141
8.76942e-05
0.00271167
0.000194981
0.00264756
0.000259442
0.00257984
0.000279599
0.00251716
0.000259367
0.00246737
0.000201497
0.00243905
0.000106309
0.00244157
-2.38988e-05
0.00248209
-0.000175336
0.00255989
-0.000314453
0.00266108
-0.00039337
0.00275905
-0.000373075
0.00282449
-0.000251224
0.00284007
-6.89715e-05
0.00280731
0.000113213
0.00274146
0.000248297
0.00266111
0.000318824
0.00258086
0.000330429
0.00250995
0.000296138
0.0024545
0.000224903
0.00242085
0.000118834
0.00241756
-2.12563e-05
0.00245316
-0.000183586
0.00252872
-0.000334823
0.00263137
-0.000425766
0.00273601
-0.000415656
0.00281455
-0.000297609
0.00284656
-0.000105767
0.0028265
0.00010016
0.00276453
0.00026265
0.00268014
0.000350438
0.00259277
0.000363599
0.00251587
0.000320124
0.00245769
0.000236987
0.00242585
0.000120319
0.00242942
-2.78292e-05
0.0024742
-0.000192387
0.0025554
-0.00033687
0.00265548
-0.000415835
0.00274985
-0.000398836
0.00281592
-0.000286787
0.00284012
-0.000111008
0.00282031
8.07943e-05
0.00276433
0.000241662
0.00268639
0.000340079
0.00260229
0.000366861
0.002526
0.000330582
0.00246913
0.000244806
0.00244227
0.000118846
0.00245409
-3.78244e-05
0.00250657
-0.00020299
0.00259083
-0.000338933
0.00268812
-0.000406339
0.00277576
-0.000383389
0.0028343
-0.000275894
0.00285282
-0.000113676
0.00283079
6.23798e-05
0.00277626
0.000214132
0.00270194
0.000315545
0.00262146
0.000355451
0.00254752
0.000334387
0.00249206
0.000258284
0.00246639
0.000134651
0.00247904
-2.37433e-05
0.00253126
-0.000191452
0.00261422
-0.000331147
0.00271068
-0.00040632
0.00280009
-0.000396506
0.00286421
-0.000304991
0.00289136
-0.000156407
0.00287851
1.30111e-05
0.00283107
0.000167461
0.00276026
0.000281349
0.00267922
0.000342818
0.00260036
0.000350195
0.00253492
0.00030548
0.00249376
0.000210873
0.00248651
7.20486e-05
0.00251829
-9.42389e-05
0.00258586
-0.000256929
0.00267715
-0.000378679
0.0027746
-0.000430236
0.00286016
-0.000401109
0.0029195
-0.000301555
0.00294442
-0.000157501
0.00293383
-2.05237e-06
0.00289333
0.000133473
0.00283337
0.000227117
0.00276635
0.000269922
0.0027042
0.000263536
0.0026574
0.000214057
0.00263485
0.000127929
0.00264279
1.40428e-05
0.00268209
-0.00011085
0.0027462
-0.000221428
0.00282215
-0.000291468
0.00289452
-0.000304617
0.00294997
-0.000260659
0.00298032
-0.000174421
0.00298355
-6.9569e-05
0.00296317
2.88864e-05
0.00292672
0.000100663
0.00288378
0.000133817
0.00284401
0.000125509
0.00281579
8.01478e-05
0.00280579
6.19752e-06
0.00281883
-8.61128e-05
0.00285708
-0.000184792
0.00291879
-0.00027513
0.00299744
-0.000340342
0.00308255
-0.000365014
0.00316185
-0.000339617
0.0032237
-0.000263546
0.003259
-0.000145631
0.00326243
-2.4005e-06
0.00323321
0.000145078
0.00317523
0.000275052
0.00309632
0.000369685
0.00300661
0.000418736
0.0029165
0.000420827
0.00283494
0.000382077
0.00276844
0.000313018
0.0027208
0.000225456
0.00269346
0.000130452
0.00268589
3.71746e-05
0.00269589
-4.5877e-05
0.0027201
-0.000113987
0.0027531
-0.000156837
0.00279204
-0.000187006
-0.000161507
0.00250193
-1.272e-05
0.00250756
-3.72561e-05
0.00251723
-6.29526e-05
0.00253169
-9.13925e-05
0.00255205
-0.000123808
0.00257957
-0.00015993
0.00261531
-0.000197869
0.00265893
-0.000231629
0.00270855
-0.000254401
0.00275877
-0.000255592
0.00280274
-0.000230182
0.00283811
-0.000190738
0.0028646
-0.000143965
0.00288307
-9.34814e-05
0.00289279
-3.56413e-05
0.0028887
3.97495e-05
0.00286474
0.000132796
0.00281952
0.000226494
0.00275774
0.000298734
0.00268779
0.000333958
0.00261906
0.000325583
0.00256063
0.000273229
0.00252113
0.000180105
0.00250886
5.25906e-05
0.00253081
-9.63505e-05
0.00258818
-0.000238958
0.00267005
-0.000331032
0.00275264
-0.00033055
0.00280886
-0.000228146
0.00282207
-5.9413e-05
0.00279242
0.000117336
0.00273231
0.00025509
0.00265704
0.000334715
0.00257901
0.00035763
0.00250714
0.000331235
0.0024491
0.000259534
0.00241334
0.000142076
0.00240935
-1.99065e-05
0.00244614
-0.000212135
0.00252742
-0.000395731
0.00264301
-0.000508955
0.00276395
-0.000494017
0.00285159
-0.000338868
0.00287836
-9.57392e-05
0.00284258
0.000148991
0.00276437
0.000326516
0.00266947
0.000413718
0.00257681
0.000423091
0.00249578
0.000377172
0.00243064
0.000290037
0.00238744
0.000162034
0.00237815
-1.19591e-05
0.00241581
-0.000221253
0.00250206
-0.000421074
0.00261962
-0.00054332
0.00273794
-0.000533978
0.00282603
-0.000385699
0.00286297
-0.000142708
0.0028431
0.000120034
0.00277651
0.000329234
0.00268381
0.00044314
0.0025865
0.000460907
0.00249991
0.000406714
0.0024339
0.000303002
0.00239846
0.000155756
0.00240507
-3.44404e-05
0.00245949
-0.00024681
0.00255366
-0.00043104
0.00266576
-0.000527932
0.00276808
-0.000501157
0.0028367
-0.000355407
0.00285833
-0.000132639
0.00283239
0.000106737
0.00276876
0.000305294
0.00268305
0.000425787
0.00259173
0.000458184
0.00250932
0.000412987
0.00244884
0.000305292
0.00242283
0.000144856
0.00244083
-5.58236e-05
0.00250326
-0.000265426
0.00259804
-0.000433714
0.00270359
-0.000511884
0.00279579
-0.000475589
0.00285482
-0.000334922
0.00286987
-0.000128731
0.00284109
9.11651e-05
0.00277804
0.000277184
0.0026953
0.000398283
0.00260792
0.000442825
0.00252953
0.000412776
0.00247297
0.000314845
0.00245044
0.000157181
0.0024703
-4.35991e-05
0.00253192
-0.000253075
0.00262369
-0.000422917
0.00272623
-0.000508858
0.00281829
-0.000488567
0.00288198
-0.000368675
0.00290609
-0.000180518
0.0028879
3.11956e-05
0.00283331
0.000222053
0.00275453
0.000360124
0.00266615
0.000431202
0.00258195
0.000434396
0.00251436
0.000373065
0.00247509
0.000250143
0.00247383
7.33121e-05
0.00251425
-0.000134657
0.00259051
-0.000333195
0.00268806
-0.000476221
0.0027881
-0.000530276
0.00287278
-0.000485792
0.00292871
-0.000357486
0.00294867
-0.000177462
0.00293215
1.44656e-05
0.00288511
0.000180516
0.00281846
0.000293771
0.00274544
0.000342939
0.00267925
0.000329729
0.00263192
0.000261386
0.00261368
0.000146167
0.00263077
-3.04969e-06
0.00268195
-0.000162028
0.00275701
-0.00029649
0.00283968
-0.000374131
0.00291304
-0.000377983
0.00296428
-0.000311899
0.00298682
-0.000196961
0.00298037
-6.31127e-05
0.00294979
5.94633e-05
0.00290355
0.000146899
0.0028518
0.000185575
0.00280456
0.000172742
0.00277079
0.000113922
0.00275803
1.89537e-05
0.00277196
-0.00010004
0.00281464
-0.000227473
0.00288274
-0.000343228
0.00296752
-0.000425125
0.00305702
-0.00045451
0.0031388
-0.000421398
0.003202
-0.000326749
0.0032384
-0.000182026
0.00324304
-7.03827e-06
0.00321494
0.000173172
0.00315762
0.000332374
0.00307864
0.00044867
0.00298817
0.000509201
0.00289696
0.000512041
0.00281434
0.000464691
0.00274715
0.000380213
0.00269936
0.000273245
0.00267248
0.000157331
0.00266594
4.37173e-05
0.00267739
-5.73306e-05
0.00270303
-0.000139626
0.00273713
-0.000190937
0.00277634
-0.000226216
-0.000192919
0.00250177
-1.44939e-05
0.00250694
-4.24242e-05
0.00251592
-7.19278e-05
0.00252963
-0.000105106
0.00254952
-0.000143698
0.00257734
-0.000187752
0.00261474
-0.00023527
0.00266186
-0.000278742
0.00271694
-0.000309479
0.0027729
-0.000311559
0.00282067
-0.000277954
0.00285802
-0.000228082
0.0028856
-0.000171549
0.00290589
-0.000113766
0.0029188
-4.85563e-05
0.00291746
4.10871e-05
0.00289288
0.000157379
0.0028425
0.000276878
0.00277205
0.000369183
0.00269179
0.000414222
0.00261265
0.000404723
0.00254478
0.000341096
0.00249782
0.000227066
0.00248196
6.84524e-05
0.00250757
-0.000121962
0.00257873
-0.000310125
0.00268245
-0.000434752
0.00278695
-0.000435047
0.00285646
-0.000297658
0.00287062
-7.35742e-05
0.00283183
0.000156132
0.00275773
0.000329192
0.00266813
0.000424309
0.00257743
0.000448331
0.00249457
0.000414097
0.00242608
0.000328022
0.00237835
0.000189804
0.00236019
-1.74509e-06
0.00238537
-0.000237313
0.00246584
-0.000476199
0.00259548
-0.000638594
0.00274224
-0.000640784
0.00285911
-0.000455732
0.00290722
-0.000143855
0.00287692
0.000179298
0.00278964
0.000413792
0.00267925
0.000524106
0.00257166
0.000530683
0.00247794
0.000470895
0.00240115
0.000366821
0.00234868
0.000214511
0.00233748
-7.64821e-07
0.0023837
-0.000267466
0.00248562
-0.000522994
0.00261929
-0.000676993
0.00274926
-0.000663949
0.00284293
-0.000479372
0.00288026
-0.000180037
0.00285718
0.000143119
0.00278468
0.00040173
0.00268379
0.000544032
0.00257682
0.00056788
0.00248058
0.000502955
0.00240739
0.000376185
0.00237043
0.000192715
0.00238279
-4.67939e-05
0.00244818
-0.000312205
0.00255421
-0.000537064
0.00267561
-0.000649336
0.00278343
-0.000608974
0.00285354
-0.000425525
0.00287265
-0.000151741
0.00284073
0.000138657
0.00276922
0.000376801
0.00267542
0.00051959
0.00257683
0.000556769
0.00248889
0.000500929
0.00242611
0.00036807
0.00240262
0.000168351
0.00242777
-8.09736e-05
0.00249946
-0.000337122
0.00260239
-0.000536643
0.00271308
-0.000622569
0.00280723
-0.000569746
0.00286559
-0.000393283
0.00287764
-0.000140779
0.00284356
0.000125249
0.00277348
0.000347259
0.0026833
0.000488466
0.00258959
0.000536541
0.00250735
0.000495017
0.00245065
0.00037154
0.00243229
0.000175539
0.00245966
-7.09632e-05
0.00252957
-0.000322984
0.00262769
-0.000521044
0.00273329
-0.000614459
0.00282534
-0.000580614
0.00288695
-0.000430281
0.00290777
-0.00020134
0.00288533
5.3637e-05
0.00282547
0.000281907
0.00274073
0.000444866
0.0026466
0.000525338
0.00255821
0.00052278
0.00248945
0.00044183
0.00245296
0.000286633
0.00245809
6.81838e-05
0.00250647
-0.000183037
0.00258942
-0.000416145
0.00269031
-0.000577111
0.00278992
-0.000629886
0.00287125
-0.000567126
0.00292224
-0.000408476
0.00293675
-0.000191977
0.00291484
3.63809e-05
0.00286259
0.00023276
0.00279105
0.000365315
0.00271395
0.000420039
0.00264563
0.000398046
0.0025998
0.000307217
0.00258791
0.000158065
0.00261544
-3.05859e-05
0.00267792
-0.000224501
0.00276095
-0.000379525
0.00284559
-0.000458774
0.00291485
-0.000447236
0.00295764
-0.000354692
0.00296964
-0.000208966
0.00295235
-4.58187e-05
0.00291172
0.000100096
0.00285672
0.000201898
0.00279767
0.000244625
0.00274484
0.000225574
0.00270783
0.000150926
0.0026952
3.15847e-05
0.00271283
-0.000117668
0.0027612
-0.000275848
0.00283422
-0.000416244
0.00292113
-0.000512039
0.00300992
-0.000543302
0.00308961
-0.000501087
0.00315109
-0.000388229
0.00318733
-0.00021826
0.00319369
-1.34032e-05
0.00316876
0.000198105
0.00311515
0.000385981
0.0030396
0.000524219
0.00295184
0.000596968
0.00286257
0.000601311
0.0027814
0.000545858
0.00271548
0.000446134
0.00266906
0.000319659
0.00264385
0.000182547
0.00263921
4.83508e-05
0.00265255
-7.06667e-05
0.0026794
-0.000166474
0.00271379
-0.000225326
0.00275183
-0.000264257
-0.000222395
0.00250157
-1.60627e-05
0.00250612
-4.69774e-05
0.00251416
-7.99616e-05
0.00252681
-0.000117757
0.00254588
-0.000162772
0.00257377
-0.000215638
0.00261294
-0.000274448
0.00266429
-0.000330089
0.00272647
-0.000371658
0.00278991
-0.000374998
0.00284224
-0.000330289
0.00288156
-0.000267397
0.00290996
-0.000199953
0.00293241
-0.000136211
0.00294993
-6.60822e-05
0.00295286
3.81583e-05
0.00292786
0.000182385
0.00287082
0.000333918
0.00278921
0.000450792
0.00269597
0.000507462
0.00260397
0.00049672
0.00252436
0.000420704
0.00246762
0.000283807
0.0024464
8.96741e-05
0.00247629
-0.00015185
0.00256589
-0.000399731
0.00269967
-0.000568526
0.00283433
-0.000569703
0.00292086
-0.000384188
0.00293408
-8.68036e-05
0.00288122
0.000208997
0.00278807
0.000422342
0.00268042
0.000531953
0.00257478
0.000553971
0.0024793
0.000509576
0.00239742
0.000409904
0.00233205
0.000255178
0.00229465
3.56485e-05
0.0023099
-0.000252555
0.00239717
-0.000563477
0.00254587
-0.000787289
0.00271558
-0.000810493
0.0028554
-0.000595549
0.0029233
-0.000211759
0.00290303
0.000199566
0.00281215
0.000504671
0.00268854
0.000647723
0.00256518
0.000654041
0.00245687
0.0005792
0.00236793
0.000455767
0.00230909
0.000273351
0.00230154
6.77734e-06
0.00236036
-0.000326281
0.00247738
-0.000640019
0.00262314
-0.000822753
0.00276059
-0.000801399
0.00285737
-0.000576151
0.0028937
-0.000216364
0.00286627
0.000170544
0.00278732
0.00048069
0.00267858
0.000652767
0.00256281
0.000683652
0.00245807
0.000607694
0.00237951
0.000454742
0.00234328
0.000228952
0.00236258
-6.61027e-05
0.00243767
-0.000387288
0.00255193
-0.000651327
0.00267826
-0.000775662
0.00278818
-0.000718901
0.00285857
-0.000495917
0.00287612
-0.000169282
0.00284028
0.000174492
0.00276279
0.000454291
0.00266215
0.000620229
0.00255726
0.000661665
0.00246495
0.000593232
0.0024014
0.00043162
0.00238162
0.000188131
0.00241374
-0.000113091
0.00249265
-0.000416035
0.0026004
-0.000644387
0.00271269
-0.000734867
0.00280607
-0.000663119
0.00286246
-0.000449676
0.00287192
-0.000150235
0.00283436
0.000162804
0.00275967
0.000421948
0.0026642
0.000583934
0.00256577
0.000634972
0.00248099
0.000579802
0.0024253
0.000427223
0.00241173
0.000189116
0.00244598
-0.000105212
0.00252205
-0.000399058
0.00262344
-0.000622437
0.00272896
-0.000719972
0.00281852
-0.000670175
0.00287665
-0.000488414
0.00289403
-0.000218722
0.00286843
7.92426e-05
0.00280536
0.00034497
0.0027171
0.000533124
0.00261949
0.000622948
0.00252878
0.000613497
0.00246026
0.000510343
0.00242744
0.000319458
0.00243884
5.67861e-05
0.00249364
-0.00023784
0.00258052
-0.00050302
0.00268154
-0.000678136
0.00277787
-0.000726216
0.00285383
-0.000643086
0.00289879
-0.000453436
0.00290766
-0.000200849
0.00288098
6.30658e-05
0.00282488
0.000288861
0.00275029
0.0004399
0.00267123
0.000499104
0.00260307
0.000466203
0.0025611
0.000349182
0.00255745
0.000161717
0.00259568
-6.88187e-05
0.00266704
-0.000295858
0.00275322
-0.000465701
0.00283405
-0.000539606
0.0028941
-0.000507284
0.00292504
-0.000385637
0.00292499
-0.000208914
0.00289691
-1.77371e-05
0.00284739
0.000149619
0.00278547
0.000263817
0.00272137
0.000308723
0.00266563
0.000281318
0.00262867
0.000187879
0.00261958
4.06771e-05
0.0026429
-0.000140986
0.00269588
-0.000328829
0.00276959
-0.000489953