/*--------------------------------*- C++ -*----------------------------------*\
  =========                 |
  \\      /  F ield         | OpenFOAM: The Open Source CFD Toolbox
   \\    /   O peration     | Website:  https://openfoam.org
    \\  /    A nd           | Version:  11
     \\/     M anipulation  |
\*---------------------------------------------------------------------------*/
FoamFile
{
    format      ascii;
    class       volVectorField;
    location    "2.077803";
    object      vorticity;
}
// * * * * * * * * * * * * * * * * * * * * * * * * * * * * * * * * * * * * * //

dimensions      [0 0 -1 0 0 0 0];

internalField   nonuniform List<vector> 
7132
(
(-4.31514e-17 -1.82537e-15 -0.0113397)
(-1.32457e-16 -1.79218e-15 -0.0113407)
(-1.43391e-16 -2.47469e-17 -0.0113627)
(-1.68213e-16 -1.7731e-15 -0.0114109)
(-2.10796e-16 -1.7626e-15 -0.0114882)
(-2.03708e-16 4.70716e-19 -0.0115957)
(-1.8686e-16 1.13192e-17 -0.0117331)
(-1.71138e-16 1.26202e-17 -0.011895)
(-9.65705e-17 1.02722e-17 -0.0120744)
(-7.3519e-17 9.12736e-18 -0.0122579)
(-1.00452e-16 5.80253e-18 -0.0124274)
(-2.22839e-17 6.59335e-18 -0.0125812)
(-5.25844e-17 -3.08657e-18 -0.0127046)
(-3.6919e-17 9.0174e-17 -0.0127877)
(2.3887e-16 -3.29147e-15 -0.0128281)
(4.57008e-16 -1.55795e-15 -0.0128243)
(6.6021e-16 -1.64153e-15 -0.0127761)
(6.15479e-16 5.33805e-17 -0.0126867)
(6.73113e-16 -1.60468e-15 -0.0125613)
(7.29182e-16 -1.67333e-15 -0.012406)
(6.09044e-16 -2.96948e-17 -0.0122269)
(4.90727e-16 -3.84756e-17 -0.0120294)
(3.90288e-16 -3.79492e-17 -0.0118178)
(3.12086e-16 -7.53939e-17 -0.0115953)
(1.7018e-16 1.66005e-15 -0.0113638)
(1.34965e-16 -3.15148e-17 -0.0111244)
(1.1398e-16 -2.79372e-17 -0.010876)
(1.09462e-16 -3.35685e-17 -0.0106149)
(1.03291e-16 -5.46336e-17 -0.0103351)
(7.00183e-17 1.6721e-15 -0.0100365)
(2.61074e-17 1.70029e-15 -0.00973628)
(-7.09323e-17 1.7355e-15 -0.00947426)
(-1.20579e-16 1.78758e-18 -0.00929639)
(-1.24073e-16 1.70923e-15 -0.00921252)
(-1.24339e-17 1.66821e-15 -0.00914972)
(1.84504e-16 1.63551e-15 -0.00894067)
(3.03927e-16 1.65005e-15 -0.00837653)
(2.70136e-16 -2.4152e-17 -0.0073122)
(3.52515e-17 1.80614e-15 -0.00576764)
(-2.64275e-16 1.87939e-15 -0.00395771)
(-4.50636e-16 1.87859e-15 -0.00222241)
(-4.15601e-16 1.80175e-15 -0.000888668)
(-1.11311e-16 -5.09163e-17 -0.000137911)
(3.15903e-16 1.60786e-15 5.13383e-05)
(7.24587e-16 1.60733e-15 -0.000136584)
(9.6664e-16 1.66783e-15 -0.000458132)
(9.53187e-16 1.74666e-15 -0.000715539)
(7.43644e-16 5.54623e-17 -0.000813859)
(3.94696e-16 1.80739e-15 -0.00075759)
(1.84462e-17 1.80934e-15 -0.000608029)
(-2.52248e-16 4.15402e-17 -0.000434754)
(-4.17255e-16 -1.74434e-15 -0.000285089)
(-4.49038e-16 -3.50131e-17 -0.000177119)
(-3.4321e-16 -3.57767e-17 -0.000108149)
(-1.93098e-16 -2.23413e-17 -6.70344e-05)
(-1.79102e-17 -6.55664e-18 -4.28706e-05)
(8.40864e-17 -1.74054e-15 -2.82804e-05)
(9.85973e-17 -1.21188e-18 -1.91619e-05)
(7.68315e-17 6.14575e-18 -1.3337e-05)
(2.20438e-17 1.15654e-17 -9.52039e-06)
(1.17511e-17 1.06834e-17 -6.87656e-06)
(1.36761e-18 -1.73452e-15 -4.89894e-06)
(5.42328e-19 4.01641e-18 -3.34108e-06)
(7.30636e-18 -1.73414e-15 -2.11426e-06)
(6.86668e-18 -1.74257e-15 -1.18493e-06)
(3.42763e-17 -2.9516e-18 -5.14931e-07)
(1.4069e-17 -1.73719e-15 -4.95958e-08)
(7.78413e-18 4.94339e-18 2.69458e-07)
(7.40128e-18 -1.73258e-15 4.90171e-07)
(1.38916e-18 -1.74147e-15 6.4507e-07)
(2.65859e-17 -2.40451e-18 7.53831e-07)
(6.83153e-18 -1.73692e-15 8.28471e-07)
(2.0513e-18 5.19503e-18 8.77205e-07)
(3.04358e-18 -1.73227e-15 9.06449e-07)
(-2.1224e-18 -1.74114e-15 9.21312e-07)
(2.35079e-17 -2.12944e-18 9.25798e-07)
(4.01947e-18 -1.73672e-15 9.22836e-07)
(-5.09449e-19 5.34902e-18 9.14576e-07)
(7.55874e-19 -1.73213e-15 9.02521e-07)
(-4.14266e-18 -1.74102e-15 8.87801e-07)
(2.17145e-17 -2.0984e-18 8.71206e-07)
(2.38992e-18 -1.73687e-15 8.5336e-07)
(-2.04862e-18 4.94559e-18 8.34681e-07)
(-7.67751e-19 -1.73278e-15 8.1552e-07)
(-5.71593e-18 -1.74179e-15 7.96092e-07)
(2.00549e-17 -2.78477e-18 7.76597e-07)
(6.41496e-19 -1.73725e-15 7.5714e-07)
(-3.79701e-18 5.02595e-18 7.37842e-07)
(-2.57847e-18 -1.73218e-15 7.18748e-07)
(-6.77619e-18 -1.74097e-15 6.99938e-07)
(1.6735e-17 -7.90634e-19 6.81422e-07)
(8.41104e-18 -1.741e-15 6.63255e-07)
(2.59398e-18 -2.91329e-18 6.45432e-07)
(1.1733e-17 5.26303e-18 6.27993e-07)
(1.13644e-17 -1.73435e-15 6.10923e-07)
(1.14717e-17 9.68177e-19 5.94252e-07)
(-6.15456e-19 -1.74037e-15 5.77961e-07)
(-5.78768e-18 -2.55834e-18 5.62073e-07)
(4.73443e-18 5.60658e-18 5.46565e-07)
(5.68189e-18 -1.73391e-15 5.31456e-07)
(6.91754e-18 1.5016e-18 5.16722e-07)
(-4.2099e-18 -1.73981e-15 5.02379e-07)
(-8.56429e-18 -2.07677e-18 4.88401e-07)
(2.64508e-18 5.9223e-18 4.74801e-07)
(4.15039e-18 -1.7338e-15 4.61555e-07)
(5.81654e-18 1.45459e-18 4.48673e-07)
(-4.99704e-18 -1.73995e-15 4.36132e-07)
(-9.1338e-18 -2.22455e-18 4.23938e-07)
(2.22305e-18 5.81863e-18 4.12071e-07)
(3.83094e-18 -1.73384e-15 4.00535e-07)
(5.57436e-18 1.46022e-18 3.89309e-07)
(-5.17542e-18 -1.73992e-15 3.78398e-07)
(-9.25668e-18 -2.19665e-18 3.67783e-07)
(2.14846e-18 5.83309e-18 3.57465e-07)
(3.7968e-18 -1.73384e-15 3.47428e-07)
(5.57366e-18 1.43836e-18 3.37672e-07)
(-5.15393e-18 -1.7399e-15 3.28182e-07)
(-9.20467e-18 -2.42633e-18 3.18957e-07)
(2.1671e-18 6.76343e-18 3.09984e-07)
(3.97094e-18 -1.73833e-15 3.0126e-07)
(5.43326e-18 -6.8532e-18 2.92776e-07)
(-5.95071e-18 -2.00812e-18 2.84526e-07)
(-1.00497e-17 4.69159e-18 2.76504e-07)
(1.54398e-18 8.51401e-18 2.68702e-07)
(3.63238e-18 -1.73771e-15 2.61116e-07)
(5.36697e-18 -6.32816e-18 2.53739e-07)
(-5.78405e-18 -1.36497e-18 2.46566e-07)
(-9.70655e-18 5.39632e-18 2.3959e-07)
(1.99293e-18 9.10535e-18 2.32809e-07)
(4.11064e-18 -1.73743e-15 2.26212e-07)
(5.80682e-18 -6.48173e-18 2.19802e-07)
(-5.42704e-18 -1.94542e-18 2.13567e-07)
(-9.44576e-18 4.53384e-18 2.07509e-07)
(2.17233e-18 8.18379e-18 2.01617e-07)
(4.23986e-18 -1.7382e-15 1.95894e-07)
(5.91865e-18 -6.97176e-18 1.90327e-07)
(-5.3096e-18 -2.14429e-18 1.84922e-07)
(-9.31381e-18 4.54904e-18 1.79666e-07)
(2.31598e-18 8.30015e-18 1.74565e-07)
(4.3867e-18 -1.73808e-15 1.69604e-07)
(6.06025e-18 -6.89913e-18 1.64792e-07)
(-5.17832e-18 -2.12784e-18 1.60113e-07)
(-9.19417e-18 4.52798e-18 1.55578e-07)
(2.42516e-18 8.26628e-18 1.51169e-07)
(4.48747e-18 -1.73811e-15 1.46897e-07)
(6.15428e-18 -6.91927e-18 1.42745e-07)
(-5.09029e-18 -2.14279e-18 1.38726e-07)
(-9.11229e-18 4.51045e-18 1.34821e-07)
(2.50031e-18 8.24242e-18 1.31043e-07)
(4.55568e-18 -1.73813e-15 1.27374e-07)
(6.21696e-18 -6.91448e-18 1.23828e-07)
(-5.02903e-18 -2.07248e-18 1.20384e-07)
(-9.04559e-18 4.68458e-18 1.1706e-07)
(2.58093e-18 8.52877e-18 1.13833e-07)
(4.65506e-18 -1.73775e-15 1.10722e-07)
(6.34211e-18 -6.60322e-18 1.077e-07)
(-4.91311e-18 -1.56316e-18 1.04805e-07)
(-8.83174e-18 3.52897e-18 1.01922e-07)
(2.37245e-18 1.39303e-17 9.94865e-08)
(5.99617e-18 -1.72503e-15 9.51395e-08)
(-4.33448e-17 -3.89643e-18 -0.0339189)
(-1.37834e-16 -7.12017e-18 -0.0339236)
(-1.58193e-16 -7.71572e-18 -0.0339888)
(-1.87282e-16 -8.06499e-18 -0.0341286)
(-2.37538e-16 -8.43191e-18 -0.0343511)
(-2.39877e-16 -8.10936e-18 -0.0346591)
(-2.46271e-16 -4.96574e-18 -0.0350526)
(-2.46031e-16 -3.25244e-17 -0.035515)
(-9.71043e-17 1.69619e-15 -0.0360264)
(-1.93879e-16 1.10682e-17 -0.0365469)
(-6.1768e-16 -1.98151e-17 -0.0370164)
(-6.07392e-16 1.71738e-15 -0.0374272)
(3.08923e-16 4.231e-18 -0.0377281)
(1.5601e-15 -5.64003e-17 -0.0378853)
(2.28374e-15 -6.85661e-17 -0.0378853)
(2.12633e-15 -3.1357e-17 -0.0377194)
(1.6884e-15 1.35339e-17 -0.0373911)
(9.99991e-16 4.86231e-17 -0.0369186)
(5.31894e-16 7.65768e-17 -0.0363293)
(2.43797e-16 9.00441e-17 -0.035656)
(-5.59469e-17 8.61445e-17 -0.0349318)
(-2.31159e-16 7.09026e-17 -0.0341847)
(-2.91526e-16 5.13716e-17 -0.0334348)
(-2.67961e-16 3.12718e-17 -0.0326939)
(-2.80087e-16 1.38887e-17 -0.0319672)
(-1.91581e-16 -2.6777e-20 -0.0312537)
(-6.91259e-17 -1.51857e-17 -0.0305458)
(8.29762e-17 -2.82241e-17 -0.0298253)
(2.06132e-16 -3.5759e-17 -0.0290682)
(1.80965e-16 -2.48803e-17 -0.0282656)
(-2.28968e-17 1.77077e-15 -0.0274609)
(-2.78085e-16 -1.65975e-15 -0.0267697)
(-3.53718e-16 -1.70594e-15 -0.0263374)
(-2.09012e-17 -7.99847e-17 -0.0262157)
(7.10876e-16 -1.95531e-15 -0.0262169)
(1.35309e-15 1.47754e-15 -0.0258609)
(1.31966e-15 -1.27275e-16 -0.0245116)
(3.82843e-16 -1.62422e-15 -0.0216822)
(-9.77762e-16 3.38732e-16 -0.0173499)
(-1.79956e-15 -1.34712e-15 -0.0120799)
(-1.34017e-15 1.95425e-15 -0.0068523)
(4.37147e-16 -1.02737e-16 -0.00266624)
(2.83224e-15 -2.15151e-15 -0.000135648)
(4.9435e-15 -5.44868e-16 0.000712586)
(6.2443e-15 -2.18758e-15 0.000354062)
(6.61595e-15 1.55347e-15 -0.000519746)
(6.18756e-15 1.23539e-16 -0.00131298)
(5.04297e-15 -1.40002e-15 -0.00171002)
(3.24795e-15 4.35213e-16 -0.00168451)
(1.0402e-15 -1.33653e-15 -0.0013863)
(-1.11322e-15 -1.47528e-15 -0.00100221)
(-2.68461e-15 8.87817e-17 -0.000663798)
(-3.2578e-15 -1.80676e-15 -0.000422699)
(-2.7657e-15 -1.63747e-16 -0.000272593)
(-1.63127e-15 -1.91971e-15 -0.00018411)
(-4.01523e-16 -1.87989e-15 -0.000129744)
(4.31891e-16 -6.40663e-17 -9.2867e-05)
(6.98617e-16 -1.73229e-15 -6.61291e-05)
(5.7329e-16 4.44225e-17 -4.6726e-05)
(2.77692e-16 -1.69062e-15 -3.30445e-05)
(4.82205e-17 -1.71371e-15 -2.35225e-05)
(-7.1549e-17 5.81084e-18 -1.67457e-05)
(-8.5231e-17 -1.73367e-15 -1.17214e-05)
(-2.54753e-17 -2.57831e-18 -7.90083e-06)
(-3.41152e-18 -3.49077e-15 -5.01086e-06)
(2.89188e-17 1.72817e-15 -2.87897e-06)
(3.45933e-17 1.07788e-17 -1.34723e-06)
(2.46085e-17 -1.72645e-15 -2.62801e-07)
(3.29589e-17 5.33714e-18 5.04015e-07)
(4.85946e-18 -3.48578e-15 1.04874e-06)
(1.17092e-17 1.7296e-15 1.43541e-06)
(1.4104e-17 1.00725e-17 1.70633e-06)
(1.08837e-17 -1.72763e-15 1.89097e-06)
(2.62518e-17 4.5395e-18 2.01132e-06)
(1.69127e-18 -3.48609e-15 2.08428e-06)
(9.1168e-18 1.72952e-15 2.12272e-06)
(1.09349e-17 1.00147e-17 2.13617e-06)
(7.24215e-18 -1.72774e-15 2.1316e-06)
(2.26007e-17 4.40911e-18 2.11405e-06)
(-1.66425e-18 -3.48622e-15 2.08724e-06)
(6.10107e-18 1.72936e-15 2.05384e-06)
(8.14477e-18 9.73685e-18 2.01588e-06)
(4.50635e-18 -1.7282e-15 1.97481e-06)
(1.97492e-17 3.78051e-18 1.93172e-06)
(-4.76936e-18 -3.48692e-15 1.88739e-06)
(2.67524e-18 1.72876e-15 1.84243e-06)
(4.40358e-18 9.40062e-18 1.79724e-06)
(7.10636e-19 -1.72809e-15 1.75216e-06)
(1.55677e-17 4.03193e-18 1.70741e-06)
(-6.23113e-18 -3.48535e-15 1.66317e-06)
(-9.93222e-18 1.72634e-15 1.61956e-06)
(-6.52667e-18 7.89852e-19 1.57668e-06)
(-1.8788e-17 -4.57426e-18 1.53458e-06)
(-7.60524e-18 1.7356e-15 1.49334e-06)
(-4.03204e-18 5.02925e-19 1.45295e-06)
(-3.00616e-18 1.74168e-15 1.41348e-06)
(-6.81525e-21 2.98254e-18 1.3749e-06)
(-1.37353e-17 -5.23329e-18 1.33725e-06)
(-4.00769e-18 1.7346e-15 1.3005e-06)
(-1.59172e-18 -2.83038e-19 1.26468e-06)
(-1.36239e-18 1.74117e-15 1.22975e-06)
(1.17738e-18 2.65365e-18 1.19573e-06)
(-1.27467e-17 -5.50426e-18 1.16259e-06)
(-3.05008e-18 1.73429e-15 1.13032e-06)
(-6.00397e-19 -6.59115e-19 1.0989e-06)
(-3.49215e-19 1.74075e-15 1.06833e-06)
(2.16122e-18 2.25048e-18 1.03857e-06)
(-1.18462e-17 -5.8346e-18 1.00962e-06)
(-2.26556e-18 1.73406e-15 9.81451e-07)
(6.43982e-20 -7.91596e-19 9.54057e-07)
(2.14572e-19 1.74069e-15 9.27405e-07)
(2.65288e-18 2.21897e-18 9.01487e-07)
(-1.13991e-17 -5.85859e-18 8.76276e-07)
(-1.8431e-18 1.73403e-15 8.51761e-07)
(4.72236e-19 -8.26963e-19 8.27915e-07)
(6.15908e-19 1.74064e-15 8.04728e-07)
(3.02712e-18 2.21749e-18 7.82175e-07)
(-1.09526e-17 -6.08685e-18 7.60244e-07)
(-1.83669e-18 1.7349e-15 7.38913e-07)
(2.58625e-18 -5.24423e-18 7.18169e-07)
(-8.00526e-18 1.73283e-15 6.97993e-07)
(-9.27611e-18 1.74046e-15 6.78372e-07)
(-1.13883e-17 9.44242e-19 6.59289e-07)
(2.89562e-19 1.7364e-15 6.40728e-07)
(5.12633e-18 -4.90083e-18 6.22679e-07)
(-5.47601e-18 1.7331e-15 6.05123e-07)
(-6.80459e-18 1.7409e-15 5.88051e-07)
(-8.98472e-18 1.50783e-18 5.71447e-07)
(2.57202e-18 1.73692e-15 5.55302e-07)
(7.19453e-18 -4.61472e-18 5.39599e-07)
(-3.71985e-18 1.73301e-15 5.24334e-07)
(-5.42235e-18 1.7404e-15 5.09487e-07)
(-7.97686e-18 7.34155e-19 4.95057e-07)
(3.26612e-18 1.73606e-15 4.81024e-07)
(7.67296e-18 -5.34969e-18 4.67388e-07)
(-3.35531e-18 1.73253e-15 4.54129e-07)
(-5.09439e-18 1.7402e-15 4.41248e-07)
(-7.64506e-18 7.36257e-19 4.28726e-07)
(3.60924e-18 1.73617e-15 4.16566e-07)
(8.01575e-18 -5.22794e-18 4.04747e-07)
(-3.02891e-18 1.73261e-15 3.93274e-07)
(-4.79529e-18 1.74022e-15 3.82126e-07)
(-7.37623e-18 7.26242e-19 3.71309e-07)
(3.85089e-18 1.73615e-15 3.60802e-07)
(8.23574e-18 -5.24995e-18 3.50612e-07)
(-2.82564e-18 1.73259e-15 3.40718e-07)
(-4.60592e-18 1.74021e-15 3.31128e-07)
(-7.20031e-18 7.15153e-19 3.2182e-07)
(4.01232e-18 1.73613e-15 3.12805e-07)
(8.3821e-18 -5.2658e-18 3.04058e-07)
(-2.69169e-18 1.7326e-15 2.95593e-07)
(-4.47579e-18 1.74028e-15 2.87385e-07)
(-7.0591e-18 8.79598e-19 2.79447e-07)
(4.18421e-18 1.7364e-15 2.71755e-07)
(8.59496e-18 -4.90654e-18 2.64325e-07)
(-2.40958e-18 1.7329e-15 2.57121e-07)
(-4.2613e-18 1.74075e-15 2.50204e-07)
(-6.32461e-18 -1.13813e-19 2.43341e-07)
(2.30843e-18 1.74124e-15 2.37509e-07)
(1.96085e-17 7.87963e-18 2.27111e-07)
(-1.16952e-18 -5.25178e-20 -0.0562082)
(-1.68318e-17 -2.76781e-20 -0.0562138)
(-3.26719e-17 -2.29212e-20 -0.0563175)
(-5.53813e-17 1.29305e-18 -0.0565419)
(-7.01083e-17 -1.57557e-18 -0.0569005)
(-7.50743e-17 4.83708e-18 -0.0573976)
(-2.40836e-16 1.43964e-17 -0.0580333)
(1.89643e-16 -4.84104e-17 -0.0587786)
(1.36075e-17 -1.5804e-17 -0.0596013)
(-2.01618e-15 2.55863e-16 -0.060431)
(-1.07307e-15 2.26112e-16 -0.061161)
(6.0865e-15 -4.56709e-16 -0.0617878)
(1.30593e-14 -1.10039e-15 -0.0622156)
(1.23105e-14 -8.97237e-16 -0.0623819)
(4.89427e-15 -1.05138e-16 -0.0622603)
(-3.10789e-15 4.74445e-16 -0.0618321)
(-8.84618e-15 6.56362e-16 -0.0611077)
(-1.18822e-14 6.31633e-16 -0.0601227)
(-1.26518e-14 5.08137e-16 -0.0589309)
(-1.18547e-14 3.55318e-16 -0.0575974)
(-1.01792e-14 2.07783e-16 -0.0561893)
(-8.13711e-15 7.93141e-17 -0.0547647)
(-6.04996e-15 -1.95482e-17 -0.0533661)
(-4.10828e-15 -8.11137e-17 -0.0520187)
(-2.43454e-15 -1.12862e-16 -0.0507328)
(-1.05798e-15 -1.36995e-16 -0.0495065)
(9.0058e-17 -1.65216e-16 -0.0483241)
(1.04365e-15 -1.71197e-16 -0.0471516)
(1.62717e-15 -1.03628e-16 -0.0459429)
(1.5275e-15 4.8501e-17 -0.0446749)
(7.66161e-16 1.9679e-16 -0.04341)
(1.61185e-16 1.71274e-16 -0.0423354)
(9.98522e-16 -1.28498e-16 -0.0417017)
(3.74089e-15 -5.58633e-16 -0.0416228)
(6.85218e-15 -7.54356e-16 -0.0418255)
(7.30827e-15 -4.04456e-16 -0.0415386)
(3.17979e-15 4.01304e-16 -0.0396927)
(-3.767e-15 1.12456e-15 -0.035413)
(-8.33355e-15 1.16219e-15 -0.0285597)
(-5.50975e-15 3.26291e-16 -0.019974)
(5.40253e-15 -9.7406e-16 -0.0112362)
(1.98311e-14 -2.0197e-15 -0.00403135)
(3.12504e-14 -2.30409e-15 0.000533074)
(3.59342e-14 -1.83258e-15 0.00229869)
(3.49104e-14 -9.64043e-16 0.00195899)
(3.17902e-14 -3.87411e-17 0.000612664)
(2.90877e-14 7.99063e-16 -0.000749146)
(2.62319e-14 1.52527e-15 -0.00156484)
(2.06823e-14 2.07395e-15 -0.00174006)
(1.08863e-14 2.25525e-15 -0.00147822)
(-1.61529e-15 1.90384e-15 -0.00105793)
(-1.27189e-14 2.79732e-15 -0.0006803)
(-1.83956e-14 5.53559e-18 -0.000424579)
(-1.72607e-14 -8.49071e-16 -0.000280801)
(-1.11736e-14 -1.20443e-15 -0.000204989)
(-3.76025e-15 -1.03808e-15 -0.000158614)
(1.77239e-15 1.17881e-15 -0.000121984)
(4.05912e-15 -7.19116e-17 -9.017e-05)
(3.62369e-15 2.16621e-16 -6.41454e-05)
(1.93266e-15 2.74087e-16 -4.48404e-05)
(3.35998e-16 1.85317e-16 -3.14875e-05)
(-5.14887e-16 1.80166e-15 -2.23708e-05)
(-6.42117e-16 -1.90205e-17 -1.58968e-05)
(-3.91965e-16 1.6944e-15 -1.1064e-05)
(-1.02321e-16 -3.50402e-17 -7.38171e-06)
(6.47287e-17 -2.19441e-17 -4.61045e-06)
(1.00802e-16 1.73441e-15 -2.57772e-06)
(6.83355e-17 5.76059e-18 -1.11712e-06)
(2.81642e-17 1.74674e-15 -7.61369e-08)
(4.5659e-18 3.882e-18 6.66319e-07)
(1.60877e-19 -7.02514e-18 1.19604e-06)
(4.17539e-18 1.73294e-15 1.57107e-06)
(8.15686e-18 -8.78838e-19 1.83166e-06)
(1.07488e-17 1.74177e-15 2.0072e-06)
(9.83785e-18 2.15252e-18 2.11993e-06)
(9.09512e-18 -6.75087e-18 2.18671e-06)
(8.35098e-18 1.73367e-15 2.22007e-06)
(7.40612e-18 -4.83877e-19 2.22921e-06)
(7.78269e-18 1.74177e-15 2.22086e-06)
(6.80721e-18 1.9524e-18 2.19991e-06)
(6.73809e-18 -7.00283e-18 2.16997e-06)
(6.4983e-18 1.73338e-15 2.13371e-06)
(5.64055e-18 -8.56637e-19 2.09306e-06)
(5.77583e-18 1.74131e-15 2.04948e-06)
(4.38551e-18 1.47074e-18 2.004e-06)
(3.85706e-18 -7.37123e-18 1.95741e-06)
(3.21269e-18 1.73318e-15 1.91028e-06)
(2.15871e-18 -5.56102e-19 1.86303e-06)
(2.22086e-18 1.74074e-15 1.81596e-06)
(1.50454e-18 6.49875e-18 1.76932e-06)
(7.57211e-19 -6.42864e-19 1.72325e-06)
(-1.23411e-19 -1.85277e-18 1.67789e-06)
(-1.67355e-18 -2.37401e-18 1.63332e-06)
(-2.86099e-18 -2.11496e-18 1.58961e-06)
(-3.16659e-18 -1.92727e-18 1.5468e-06)
(-2.98715e-18 -1.04443e-18 1.50493e-06)
(-3.03863e-18 -2.82577e-19 1.464e-06)
(-3.99353e-18 -5.57907e-19 1.42404e-06)
(-4.76232e-18 -4.652e-19 1.38503e-06)
(-4.72349e-18 -5.14135e-19 1.34699e-06)
(-4.19115e-18 1.17055e-19 1.30991e-06)
(-3.84348e-18 6.04897e-19 1.27377e-06)
(-4.3624e-18 3.69602e-20 1.23857e-06)
(-4.70135e-18 -1.50849e-19 1.20428e-06)
(-4.29224e-18 -4.23819e-19 1.17091e-06)
(-3.49004e-18 7.37831e-20 1.13841e-06)
(-2.98724e-18 5.23819e-19 1.10679e-06)
(-3.45243e-18 -1.11678e-20 1.07602e-06)
(-3.80768e-18 -1.3668e-19 1.04609e-06)
(-3.44924e-18 -3.56011e-19 1.01696e-06)
(-2.70394e-18 1.65976e-19 9.88625e-07)
(-2.24869e-18 6.1031e-19 9.61064e-07)
(-2.74814e-18 5.13384e-20 9.34255e-07)
(-3.12747e-18 -1.02595e-19 9.08179e-07)
(-2.78882e-18 -3.43865e-19 8.82817e-07)
(-2.06234e-18 1.60919e-19 8.58147e-07)
(-1.63292e-18 6.1259e-19 8.34154e-07)
(-2.14593e-18 5.57218e-21 8.10815e-07)
(-2.60584e-18 -5.99395e-21 7.88116e-07)
(-2.1492e-18 -5.26866e-19 7.66037e-07)
(-1.78106e-18 -9.22018e-19 7.44561e-07)
(-2.07809e-18 -3.16589e-19 7.23672e-07)
(-2.69661e-18 -9.12493e-20 7.03354e-07)
(-2.94481e-18 2.56684e-19 6.83591e-07)
(-2.15021e-18 -1.06551e-19 6.64369e-07)
(-1.39579e-18 -3.62695e-19 6.45672e-07)
(-1.30918e-18 3.89385e-19 6.27487e-07)
(-1.6054e-18 7.08016e-19 6.09799e-07)
(-1.65474e-18 1.01572e-18 5.92598e-07)
(-8.2791e-19 4.38158e-19 5.75868e-07)
(-2.10876e-19 -1.73289e-19 5.596e-07)
(-3.87991e-19 1.83086e-19 5.4378e-07)
(-9.98794e-19 1.89608e-19 5.28399e-07)
(-1.33359e-18 3.58884e-19 5.13443e-07)
(-7.06266e-19 -1.65815e-19 4.98905e-07)
(-1.84353e-19 -5.88084e-19 4.84772e-07)
(-3.69488e-19 5.8052e-22 4.71037e-07)
(-9.38517e-19 1.97231e-19 4.57689e-07)
(-1.21991e-18 4.69742e-19 4.44719e-07)
(-5.53083e-19 -3.67239e-20 4.32118e-07)
(-1.44521e-20 -4.93603e-19 4.1988e-07)
(-2.01972e-19 4.58151e-20 4.07993e-07)
(-7.83394e-19 2.04887e-19 3.96452e-07)
(-1.07883e-18 4.60298e-19 3.85247e-07)
(-4.22992e-19 -4.71262e-20 3.74374e-07)
(1.0856e-19 -4.98443e-19 3.63822e-07)
(-8.36701e-20 4.45403e-20 3.53587e-07)
(-6.69861e-19 2.01328e-19 3.43659e-07)
(-9.71927e-19 4.5121e-19 3.34035e-07)
(-3.24576e-19 -5.54688e-20 3.24706e-07)
(1.99477e-19 -4.85539e-19 3.15668e-07)
(6.27833e-21 1.11223e-19 3.06912e-07)
(-5.67774e-19 3.54577e-19 2.98436e-07)
(-8.4032e-19 7.01745e-19 2.9023e-07)
(-1.48479e-19 2.70946e-19 2.82293e-07)
(4.26992e-19 -1.75088e-19 2.74608e-07)
(2.67987e-19 3.94363e-19 2.67217e-07)
(-2.68333e-19 2.44106e-19 2.59904e-07)
(-6.63876e-19 9.63716e-19 2.53645e-07)
(3.91534e-19 1.04144e-18 2.42439e-07)
(-4.568e-17 5.10424e-18 -0.077999)
(-1.48638e-16 8.63101e-18 -0.0780015)
(-1.27452e-16 1.1559e-17 -0.0781359)
(-1.8398e-16 1.06532e-17 -0.0784342)
(-2.49085e-17 1.41456e-18 -0.0789161)
(-5.13421e-16 7.72545e-17 -0.0795887)
(2.45738e-16 -1.37324e-16 -0.0804539)
(1.52589e-15 -1.59746e-16 -0.0814707)
(-6.62647e-15 2.7991e-15 -0.0825985)
(-1.27873e-15 5.54409e-16 -0.0837326)
(3.13712e-14 -5.80588e-15 -0.0847136)
(4.09977e-14 -5.3488e-15 -0.0855695)
(-1.67143e-14 -3.10779e-15 -0.0861503)
(-1.12579e-13 4.02611e-15 -0.0863682)
(-1.72811e-13 7.64065e-15 -0.0861876)
(-1.77853e-13 6.83887e-15 -0.0855772)
(-1.5768e-13 4.40067e-15 -0.0845512)
(-1.277e-13 1.95145e-15 -0.0831583)
(-9.60942e-14 6.28603e-17 -0.0814705)
(-6.72573e-14 -1.14629e-15 -0.0795763)
(-4.30418e-14 -1.77267e-15 -0.0775693)
(-2.37302e-14 -1.9937e-15 -0.0755329)
(-9.04524e-15 -1.96304e-15 -0.0735297)
(1.63613e-15 -1.77644e-15 -0.071598)
(9.03617e-15 -1.51126e-15 -0.0697553)
(1.3818e-14 -1.26233e-15 -0.0680012)
(1.67746e-14 -1.066e-15 -0.0663158)
(1.82407e-14 -7.96779e-16 -0.0646535)
(1.79821e-14 -2.77684e-16 -0.06295)
(1.56786e-14 4.05624e-16 -0.0611702)
(1.26139e-14 2.45393e-15 -0.059395)
(1.28217e-14 -1.77593e-15 -0.0578799)
(2.0281e-14 -3.4958e-15 -0.056976)
(3.35057e-14 -3.00682e-15 -0.0568576)
(4.24263e-14 -3.739e-15 -0.0571703)
(3.40173e-14 3.31374e-15 -0.0568624)
(5.96043e-15 5.41036e-15 -0.0544442)
(-2.45993e-14 4.13245e-15 -0.0486634)
(-2.90997e-14 1.21011e-15 -0.0392665)
(9.99615e-15 -8.21516e-15 -0.0273675)
(8.12527e-14 -1.07162e-14 -0.0151375)
(1.49142e-13 -1.30267e-14 -0.00493685)
(1.803e-13 -1.02031e-14 0.00164217)
(1.68514e-13 -2.37483e-15 0.00431387)
(1.36076e-13 -1.15573e-16 0.00398845)
(1.13087e-13 4.4648e-15 0.00216611)
(1.13059e-13 2.90272e-15 0.000226033)
(1.23499e-13 2.80271e-15 -0.00102965)
(1.18036e-13 8.10799e-15 -0.00143998)
(7.91032e-14 9.81224e-15 -0.00125913)
(1.27694e-14 1.03273e-14 -0.000852216)
(-5.49254e-14 8.47894e-15 -0.000484355)
(-9.58191e-14 4.64146e-16 -0.000258323)
(-9.72928e-14 -3.77474e-15 -0.000158471)
(-6.73408e-14 -8.66996e-15 -0.000125915)
(-2.6285e-14 -8.35278e-15 -0.000111801)
(6.41335e-15 -3.97375e-15 -9.43982e-05)
(2.1439e-14 -2.65805e-15 -7.21822e-05)
(2.05982e-14 1.10766e-15 -5.07349e-05)
(1.17505e-14 -4.67733e-17 -3.42229e-05)
(2.70279e-15 -4.89921e-16 -2.3271e-05)
(-2.49007e-15 4.94868e-16 -1.63787e-05)
(-3.58786e-15 -1.79514e-15 -1.17837e-05)
(-2.3843e-15 -2.72476e-16 -8.37059e-06)
(-7.7856e-16 -3.71913e-15 -5.68151e-06)
(2.33092e-16 1.62661e-15 -3.58758e-06)
(4.91235e-16 8.97544e-18 -2.02561e-06)
(3.42813e-16 -1.69013e-15 -9.03674e-07)
(1.1682e-16 3.72219e-17 -1.11194e-07)
(-2.33935e-17 -3.47178e-15 4.49587e-07)
(-4.5382e-17 1.72979e-15 8.48967e-07)
(-3.56475e-17 6.07453e-18 1.13271e-06)
(-1.0541e-17 -1.73092e-15 1.33096e-06)
(4.4995e-18 3.69901e-18 1.46522e-06)
(5.11367e-18 -3.48527e-15 1.55194e-06)
(1.50239e-17 1.73027e-15 1.60377e-06)
(2.53447e-18 1.08592e-17 1.63023e-06)
(-5.49274e-19 -1.72746e-15 1.63833e-06)
(-1.28063e-19 4.70856e-18 1.63317e-06)
(-1.62639e-18 -3.4857e-15 1.61847e-06)
(1.12917e-17 1.72951e-15 1.59695e-06)
(1.65577e-18 1.02856e-17 1.57061e-06)
(-3.28136e-19 -1.72784e-15 1.54094e-06)
(-8.0631e-20 4.40803e-18 1.50903e-06)
(-2.17612e-18 -3.48597e-15 1.47567e-06)
(1.02145e-17 1.72935e-15 1.44145e-06)
(2.314e-19 1.02498e-17 1.4068e-06)
(-1.8108e-18 -1.72759e-15 1.37204e-06)
(-1.96311e-18 4.35901e-18 1.3374e-06)
(-1.72793e-18 -3.48462e-15 1.30307e-06)
(4.19668e-23 1.72715e-15 1.26915e-06)
(-1.15464e-17 2.00523e-18 1.23575e-06)
(-1.24244e-17 -3.20547e-18 1.20293e-06)
(-1.41146e-17 1.73635e-15 1.17074e-06)
(-2.66231e-18 5.66001e-19 1.13921e-06)
(1.547e-18 1.74162e-15 1.10838e-06)
(-9.43823e-18 3.48573e-18 1.07824e-06)
(-1.02453e-17 -4.37144e-18 1.0488e-06)
(-1.20172e-17 1.73496e-15 1.02008e-06)
(-6.86278e-19 -5.68626e-19 9.92071e-07)
(3.41303e-18 1.74073e-15 9.64762e-07)
(-7.65131e-18 2.73928e-18 9.38151e-07)
(-8.50997e-18 -5.07533e-18 9.12228e-07)
(-1.03227e-17 1.73425e-15 8.86984e-07)
(9.57879e-19 -1.26477e-18 8.62405e-07)
(4.9836e-18 1.7401e-15 8.38481e-07)
(-6.18122e-18 2.23168e-18 8.15196e-07)
(-7.16117e-18 -5.42439e-18 7.92539e-07)
(-9.10441e-18 1.73406e-15 7.70494e-07)
(2.04875e-18 -1.34346e-18 7.49048e-07)
(5.959e-18 1.74009e-15 7.28185e-07)
(-5.30498e-18 2.24107e-18 7.07891e-07)
(-6.36752e-18 -5.4192e-18 6.8815e-07)
(-8.37927e-18 1.73405e-15 6.68949e-07)
(2.71582e-18 -1.35953e-18 6.50273e-07)
(6.57495e-18 1.74006e-15 6.32108e-07)
(-4.73613e-18 2.25929e-18 6.1444e-07)
(-5.84389e-18 -5.60039e-18 5.97254e-07)
(-7.90101e-18 1.7349e-15 5.80539e-07)
(3.14857e-18 -5.65662e-18 5.6428e-07)
(6.96445e-18 1.7328e-15 5.48465e-07)
(-4.38181e-18 1.74091e-15 5.33082e-07)
(-5.50334e-18 1.3776e-18 5.1812e-07)
(-7.53423e-18 1.73612e-15 5.03566e-07)
(3.59745e-18 -5.67534e-18 4.8941e-07)
(7.55343e-18 1.73268e-15 4.7564e-07)
(-3.61487e-18 1.741e-15 4.62248e-07)
(-4.56341e-18 1.68061e-18 4.49222e-07)
(-6.48048e-18 1.73653e-15 4.36554e-07)
(4.6599e-18 -5.33665e-18 4.24232e-07)
(8.50148e-18 1.73279e-15 4.12251e-07)
(-2.88497e-18 1.7408e-15 4.006e-07)
(-4.10475e-18 1.20695e-18 3.89271e-07)
(-6.28343e-18 1.73592e-15 3.78256e-07)
(4.65672e-18 -5.92431e-18 3.67549e-07)
(8.38419e-18 1.73236e-15 3.57139e-07)
(-3.03557e-18 1.74057e-15 3.47023e-07)
(-4.23398e-18 1.16147e-18 3.37191e-07)
(-6.36876e-18 1.73598e-15 3.27639e-07)
(4.6125e-18 -5.83067e-18 3.18357e-07)
(8.36571e-18 1.73243e-15 3.09343e-07)
(-3.0445e-18 1.74061e-15 3.00587e-07)
(-4.24369e-18 1.16467e-18 2.92086e-07)
(-6.38246e-18 1.73597e-15 2.83833e-07)
(4.59645e-18 -5.84365e-18 2.75824e-07)
(8.35067e-18 1.73242e-15 2.68051e-07)
(-3.05596e-18 1.7406e-15 2.60512e-07)
(-4.25097e-18 1.15928e-18 2.53199e-07)
(-6.3868e-18 1.73596e-15 2.4611e-07)
(4.59323e-18 -5.8515e-18 2.39238e-07)
(8.34805e-18 1.73244e-15 2.3258e-07)
(-3.05535e-18 1.74067e-15 2.2613e-07)
(-4.24026e-18 1.3029e-18 2.19886e-07)
(-6.35721e-18 1.73619e-15 2.1384e-07)
(4.65476e-18 -5.5402e-18 2.07994e-07)
(8.42543e-18 1.7327e-15 2.02333e-07)
(-2.86605e-18 1.74109e-15 1.96886e-07)
(-4.45786e-18 3.52119e-19 1.91508e-07)
(-4.46126e-18 1.74091e-15 1.8685e-07)
(-4.13314e-18 7.35193e-18 1.78426e-07)
(4.97003e-17 1.83183e-15 -0.0990375)
(1.88556e-16 1.77558e-15 -0.0990315)
(1.43088e-16 1.76479e-17 -0.0991853)
(2.3942e-16 1.68474e-15 -0.0995402)
(5.95133e-16 1.89787e-15 -0.100123)
(-1.72445e-15 1.60424e-15 -0.100945)
(8.23468e-15 -1.00526e-15 -0.10201)
(-1.52653e-14 3.4148e-15 -0.103266)
(-1.22849e-14 1.38651e-15 -0.104669)
(1.05206e-13 -2.05319e-14 -0.10607)
(6.82124e-14 -2.0885e-14 -0.107249)
(-3.33779e-13 2.36131e-14 -0.10831)
(-8.4816e-13 7.56607e-14 -0.109027)
(-1.0795e-12 7.7151e-14 -0.109285)
(-9.10934e-13 3.25323e-14 -0.109051)
(-5.63298e-13 -5.35634e-15 -0.108281)
(-2.49585e-13 -2.26856e-14 -0.106998)
(-2.71225e-14 -3.01611e-14 -0.105264)
(1.07008e-13 -2.79786e-14 -0.103164)
(1.77416e-13 -2.44361e-14 -0.100803)
(2.09104e-13 -2.15558e-14 -0.0982957)
(2.18955e-13 -1.6919e-14 -0.0957446)
(2.16264e-13 -1.27027e-14 -0.0932284)
(2.05651e-13 -9.12182e-15 -0.0907962)
(1.90051e-13 -6.20378e-15 -0.0884706)
(1.71719e-13 -5.74094e-15 -0.0862523)
(1.5245e-13 -2.37657e-15 -0.084118)
(1.33089e-13 -7.74948e-16 -0.0820115)
(1.13499e-13 1.17743e-15 -0.079852)
(9.52049e-14 2.72584e-15 -0.077593)
(8.54493e-14 -1.02728e-16 -0.0753307)
(9.6577e-14 -5.38344e-15 -0.0733827)
(1.34059e-13 -1.04773e-14 -0.0721929)
(1.79345e-13 -1.33694e-14 -0.0719939)
(1.8823e-13 -2.74657e-15 -0.0723578)
(1.23276e-13 1.60904e-14 -0.0719711)
(3.12929e-15 2.79766e-14 -0.0689457)
(-8.20088e-14 1.86546e-14 -0.0616678)
(-2.57312e-14 -1.78711e-14 -0.0497714)
(1.97937e-13 -5.65838e-14 -0.0346303)
(4.8681e-13 -7.22807e-14 -0.0189865)
(6.7157e-13 -5.32795e-14 -0.00585608)
(6.4714e-13 -1.19905e-14 0.00269596)
(4.58458e-13 1.85455e-14 0.00625947)
(2.62555e-13 2.50139e-14 0.00595608)
(2.10079e-13 9.73479e-15 0.00367793)
(3.31778e-13 -6.14016e-15 0.00118217)
(5.15264e-13 -9.6344e-16 -0.000495691)
(5.888e-13 2.25368e-14 -0.00113089)
(4.46772e-13 5.31541e-14 -0.00102733)
(1.23503e-13 6.8918e-14 -0.000633712)
(-2.34106e-13 5.88261e-14 -0.000276459)
(-4.668e-13 2.11892e-14 -8.04839e-05)
(-4.97475e-13 -1.33535e-14 -2.4413e-05)
(-3.59026e-13 -3.67084e-14 -3.50706e-05)
(-1.53218e-13 -3.79151e-14 -5.38155e-05)
(1.8356e-14 -2.09485e-14 -5.69985e-05)
(1.03239e-13 -7.16435e-15 -4.62365e-05)
(1.05969e-13 6.79563e-15 -3.13128e-05)
(6.43316e-14 9.22178e-15 -1.9301e-05)
(1.8019e-14 7.30565e-15 -1.20628e-05)
(-1.04175e-14 6.68171e-15 -8.31576e-06)
(-1.80103e-14 -7.19064e-17 -6.21638e-06)
(-1.29513e-14 2.02448e-15 -4.639e-06)
(-4.86118e-15 -1.34373e-15 -3.23861e-06)
(5.90833e-16 1.0779e-15 -2.04413e-06)
(2.38542e-15 3.41426e-15 -1.12465e-06)
(1.85286e-15 1.92969e-16 -4.73351e-07)
(7.16357e-16 3.66456e-15 -2.82644e-08)
(-4.94702e-17 8.49828e-17 2.78768e-07)
(-3.13071e-16 1.73383e-15 4.96316e-07)
(-2.195e-16 3.45024e-15 6.52325e-07)
(-7.45235e-17 -2.09523e-17 7.62522e-07)
(1.01266e-17 3.46867e-15 8.37497e-07)
(3.57503e-17 -3.10929e-18 8.85747e-07)
(-1.62546e-18 1.72926e-15 9.14279e-07)
(2.78036e-18 3.47618e-15 9.28545e-07)
(-9.70057e-20 8.47387e-19 9.32561e-07)
(-2.14578e-18 3.47703e-15 9.292e-07)
(4.37711e-18 -3.75741e-18 9.20535e-07)
(-2.01428e-17 1.72608e-15 9.08073e-07)
(-4.07996e-19 3.47391e-15 8.92933e-07)
(3.8545e-18 1.15615e-20 8.75935e-07)
(2.22994e-18 3.47696e-15 8.57693e-07)
(6.857e-18 -3.67683e-18 8.38649e-07)
(-1.91861e-17 1.72615e-15 8.19136e-07)
(-8.06059e-21 3.47392e-15 7.99392e-07)
(4.234e-18 5.41152e-19 7.79598e-07)
(2.87435e-18 3.47542e-15 7.5988e-07)
(6.99592e-18 5.51717e-18 7.4034e-07)
(-1.65379e-17 1.73899e-15 7.21043e-07)
(-8.20733e-18 4.35944e-18 7.02045e-07)
(-2.38021e-18 -1.08989e-18 6.83378e-07)
(-1.15301e-17 -6.99599e-18 6.65075e-07)
(-1.12092e-17 -9.7581e-18 6.47149e-07)
(-1.14071e-17 1.73707e-15 6.29617e-07)
(5.53476e-19 5.6136e-18 6.12482e-07)
(5.58175e-18 7.31564e-19 5.95753e-07)
(-5.08196e-18 -5.24473e-18 5.79427e-07)
(-6.15161e-18 -8.22924e-18 5.63507e-07)
(-7.48269e-18 1.73832e-15 5.47987e-07)
(3.5746e-18 6.5664e-18 5.32864e-07)
(7.87703e-18 1.37267e-18 5.18133e-07)
(-3.37767e-18 -4.88477e-18 5.03788e-07)
(-4.92986e-18 -8.07699e-18 4.89822e-07)
(-6.64852e-18 1.73837e-15 4.76229e-07)
(4.10853e-18 6.59621e-18 4.62999e-07)
(8.18987e-18 1.45043e-18 4.50126e-07)
(-3.21876e-18 -4.74164e-18 4.37602e-07)
(-4.87274e-18 -7.88772e-18 4.25418e-07)
(-6.6563e-18 1.73857e-15 4.13565e-07)
(4.06038e-18 6.77357e-18 4.02036e-07)
(8.11744e-18 1.58848e-18 3.90822e-07)
(-3.30454e-18 -4.64426e-18 3.79915e-07)
(-4.96393e-18 -7.82097e-18 3.69306e-07)
(-6.74844e-18 1.73861e-15 3.58987e-07)
(3.97392e-18 6.82201e-18 3.48951e-07)
(8.02249e-18 1.58801e-18 3.39189e-07)
(-3.35118e-18 -4.50223e-18 3.29694e-07)
(-5.15776e-18 -7.95959e-18 3.20459e-07)
(-6.6238e-18 1.73757e-15 3.11476e-07)
(4.7595e-18 5.91731e-18 3.02739e-07)