/*--------------------------------*- C++ -*----------------------------------*\
  =========                 |
  \\      /  F ield         | OpenFOAM: The Open Source CFD Toolbox
   \\    /   O peration     | Website:  https://openfoam.org
    \\  /    A nd           | Version:  11
     \\/     M anipulation  |
\*---------------------------------------------------------------------------*/
FoamFile
{
    format      ascii;
    class       volVectorField;
    location    "6.480023";
    object      vorticity;
}
// * * * * * * * * * * * * * * * * * * * * * * * * * * * * * * * * * * * * * //

dimensions      [0 0 -1 0 0 0 0];

internalField   nonuniform List<vector> 
7132
(
(-3.48432e-17 -1.82768e-15 -0.0115726)
(-1.4568e-16 -1.79276e-15 -0.0115956)
(-1.37329e-16 -1.34551e-17 -0.0116445)
(-1.60529e-16 -1.77066e-15 -0.0117232)
(-1.97655e-16 -1.76058e-15 -0.0118349)
(-1.9314e-16 1.98869e-18 -0.0119812)
(-1.7497e-16 1.31177e-17 -0.0121627)
(-1.62552e-16 1.41892e-17 -0.0123746)
(-8.07224e-17 1.00805e-17 -0.0126108)
(-4.37011e-17 6.56724e-18 -0.012859)
(-9.37387e-17 3.12592e-18 -0.0131021)
(-8.54203e-17 1.1431e-17 -0.0133414)
(-1.51148e-16 6.1334e-18 -0.0135631)
(7.81959e-17 9.89722e-17 -0.0137607)
(9.64979e-16 -1.54024e-15 -0.0139305)
(2.05273e-15 -1.54228e-15 -0.0140693)
(2.93907e-15 -1.70268e-15 -0.0141764)
(2.86009e-15 -1.77132e-17 -0.0142511)
(2.21082e-15 -1.57279e-15 -0.0142936)
(9.39986e-16 -1.60221e-15 -0.0143042)
(-9.40687e-16 6.94211e-17 -0.0142842)
(-2.90224e-15 1.33375e-16 -0.014237)
(-4.68386e-15 2.40558e-16 -0.0141679)
(-6.04417e-15 1.7022e-16 -0.0140845)
(-7.22036e-15 1.90803e-15 -0.013996)
(-7.54772e-15 3.19799e-16 -0.0139115)
(-7.2682e-15 3.01402e-16 -0.013838)
(-6.47385e-15 2.61324e-16 -0.0137782)
(-5.23231e-15 1.16646e-16 -0.0137296)
(-3.91666e-15 1.68003e-15 -0.0136846)
(-2.20312e-15 1.58827e-15 -0.0136329)
(-7.25497e-16 1.59501e-15 -0.0135636)
(9.96859e-16 -1.7187e-16 -0.0134679)
(2.81907e-15 3.16293e-15 -0.0133413)
(4.62343e-15 1.34126e-15 -0.013185)
(6.71996e-15 1.24311e-15 -0.0130052)
(8.83846e-15 2.90475e-15 -0.0128126)
(1.10478e-14 -6.76207e-16 -0.0126205)
(1.32776e-14 9.09002e-16 -0.0124422)
(1.54239e-14 2.53647e-15 -0.012289)
(1.75397e-14 7.17931e-16 -0.012168)
(1.93672e-14 6.87597e-16 -0.012082)
(2.08748e-14 -1.07728e-15 -0.0120287)
(2.19907e-14 6.3523e-16 -0.012002)
(2.26984e-14 6.58391e-16 -0.0119933)
(2.30907e-14 7.00665e-16 -0.0119931)
(2.30858e-14 7.66798e-16 -0.0119924)
(2.27707e-14 -9.15324e-16 -0.0119839)
(2.21557e-14 2.60794e-15 -0.0119627)
(2.12379e-14 9.72329e-16 -0.0119268)
(2.0086e-14 -6.55606e-16 -0.0118764)
(1.86319e-14 -2.3046e-15 -0.0118139)
(1.67702e-14 -4.66096e-16 -0.0117429)
(1.45376e-14 -3.25022e-16 -0.0116676)
(1.18591e-14 -1.57443e-16 -0.0115924)
(8.78089e-15 3.69671e-17 -0.0115208)
(5.29498e-15 -1.49978e-15 -0.0114557)
(1.38498e-15 4.5145e-16 -0.0113986)
(-2.83306e-15 6.9299e-16 -0.0113501)
(-7.32769e-15 9.4193e-16 -0.0113096)
(-1.19614e-14 1.1885e-15 -0.0112759)
(-1.66728e-14 -3.21958e-16 -0.0112472)
(-2.14049e-14 1.6317e-15 -0.0112215)
(-2.60545e-14 9.42041e-17 -0.0111969)
(-3.06053e-14 2.59636e-16 -0.0111717)
(-3.49743e-14 2.15615e-15 -0.0111446)
(-3.9234e-14 5.68227e-16 -0.0111149)
(-4.33505e-14 2.45008e-15 -0.0110822)
(-4.73284e-14 8.55045e-16 -0.0110465)
(-5.12259e-14 9.86746e-16 -0.0110082)
(-5.50013e-14 2.87368e-15 -0.0109679)
(-5.87277e-14 1.28942e-15 -0.0109261)
(-6.23327e-14 3.17131e-15 -0.0108835)
(-6.5755e-14 1.55457e-15 -0.0108406)
(-6.89531e-14 1.6273e-15 -0.0107977)
(-7.18057e-14 3.40354e-15 -0.0107552)
(-7.43267e-14 1.65953e-15 -0.010713)
(-7.64285e-14 3.34861e-15 -0.0106711)
(-7.80992e-14 1.52822e-15 -0.0106291)
(-7.93821e-14 1.41526e-15 -0.0105868)
(-8.02674e-14 3.0426e-15 -0.0105437)
(-8.08689e-14 1.19291e-15 -0.0104995)
(-8.11579e-14 2.81267e-15 -0.0104538)
(-8.11378e-14 9.41162e-16 -0.0104063)
(-8.08144e-14 7.77554e-16 -0.0103566)
(-8.01278e-14 2.34209e-15 -0.0103045)
(-7.91509e-14 4.19218e-16 -0.0102498)
(-7.78458e-14 1.96963e-15 -0.0101923)
(-7.62507e-14 4.80416e-17 -0.010132)
(-7.44228e-14 -1.40219e-16 -0.0100685)
(-7.23409e-14 1.41033e-15 -0.0100018)
(-7.00316e-14 -5.65262e-16 -0.00993154)
(-6.73595e-14 8.39598e-16 -0.0098576)
(-6.41331e-14 3.60381e-16 -0.00977968)
(-6.01443e-14 -2.0758e-15 -0.00969745)
(-5.5121e-14 -1.28284e-15 -0.00961054)
(-4.88188e-14 -4.21991e-15 -0.00951845)
(-4.10069e-14 -3.89975e-15 -0.0094205)
(-3.15431e-14 -5.44631e-15 -0.00931583)
(-2.04365e-14 -8.73499e-15 -0.00920341)
(-7.81268e-15 -8.33978e-15 -0.00908238)
(5.99779e-15 -1.09602e-14 -0.00895244)
(2.05046e-14 -9.372e-15 -0.00881439)
(3.50526e-14 -8.54735e-15 -0.00867044)
(4.8865e-14 -8.35343e-15 -0.00852387)
(6.12203e-14 -3.53267e-15 -0.00837764)
(7.14948e-14 -1.11821e-15 -0.00823173)
(7.92609e-14 5.67286e-15 -0.00807978)
(8.42253e-14 1.1381e-14 -0.00790591)
(8.6185e-14 1.56121e-14 -0.00768331)
(8.52706e-14 2.30022e-14 -0.00737619)
(8.22329e-14 2.57485e-14 -0.00694579)
(7.87608e-14 2.97357e-14 -0.00635994)
(7.7507e-14 2.86746e-14 -0.00560425)
(8.16738e-14 2.18636e-14 -0.00469154)
(9.40625e-14 1.4761e-14 -0.00366623)
(1.15449e-13 2.01421e-15 -0.00260091)
(1.42956e-13 -6.33666e-15 -0.00158503)
(1.68846e-13 -1.13246e-14 -0.000707604)
(1.80549e-13 -8.68927e-15 -3.84988e-05)
(1.62371e-13 9.7863e-15 0.000386492)
(9.86658e-14 3.90971e-14 0.000572368)
(-2.17573e-14 7.73358e-14 0.000561443)
(-2.01162e-13 1.16966e-13 0.000420853)
(-4.29708e-13 1.45985e-13 0.000225108)
(-6.84266e-13 1.58974e-13 3.90633e-05)
(-9.30346e-13 1.4279e-13 -9.40766e-05)
(-1.1276e-12 9.69332e-14 -0.000157189)
(-1.23856e-12 2.66203e-14 -0.000156189)
(-1.23849e-12 -5.76759e-14 -0.000111826)
(-1.12299e-12 -1.34379e-13 -4.9749e-05)
(-9.10361e-13 -1.92625e-13 7.92422e-06)
(-6.3766e-13 -2.19341e-13 4.75364e-05)
(-3.51739e-13 -2.10939e-13 6.48955e-05)
(-9.78689e-14 -1.73982e-13 6.32503e-05)
(9.05721e-14 -1.14622e-13 4.97903e-05)
(1.98243e-13 -5.23994e-14 3.22037e-05)
(2.28686e-13 1.2149e-15 1.63195e-05)
(2.00117e-13 3.74077e-14 5.17164e-06)
(1.38194e-13 5.15303e-14 -7.44596e-07)
(6.83625e-14 5.13922e-14 -2.55736e-06)
(9.82286e-15 3.79538e-14 -1.98897e-06)
(-2.73296e-14 2.01776e-14 -5.84952e-07)
(-4.18916e-14 4.13649e-15 6.62382e-07)
(-3.89999e-14 -8.31684e-15 1.34547e-06)
(-2.65357e-14 -1.10672e-14 1.4734e-06)
(-1.2002e-14 -1.05062e-14 1.25109e-06)
(-4.76295e-16 -7.10566e-15 9.05171e-07)
(5.92913e-15 -3.06066e-15 5.9195e-07)
(7.51287e-15 -1.63022e-15 3.78533e-07)
(5.96286e-15 1.79279e-15 2.65543e-07)
(3.20583e-15 2.12025e-15 2.22058e-07)
(7.22285e-16 1.59408e-15 2.12994e-07)
(-7.73283e-16 7.82531e-16 2.13448e-07)
(-1.25813e-15 -1.64989e-15 2.11241e-07)
(-1.05173e-15 -2.97607e-16 2.03656e-07)
(-5.82107e-16 -3.77252e-16 1.92765e-07)
(-1.43826e-16 -2.79992e-16 1.79818e-07)
(1.36459e-16 -1.08374e-16 1.76034e-07)
(1.89252e-16 -1.7415e-15 1.58096e-07)
(-3.4934e-17 -3.75418e-18 -0.0346101)
(-1.50893e-16 -6.58315e-18 -0.0346803)
(-1.50973e-16 -6.87755e-18 -0.0348263)
(-1.77723e-16 -7.46943e-18 -0.0350589)
(-2.26107e-16 -7.85745e-18 -0.0353875)
(-2.25113e-16 -7.6593e-18 -0.0358172)
(-2.35971e-16 -2.17654e-18 -0.0363511)
(-2.34413e-16 -3.29348e-17 -0.0369763)
(-3.70645e-17 1.68538e-15 -0.0376767)
(-2.04999e-16 1.30754e-17 -0.0384174)
(-9.36612e-16 2.39856e-17 -0.039144)
(-7.66492e-16 1.77486e-15 -0.0398607)
(1.94931e-15 -7.56747e-17 -0.0405228)
(6.60461e-15 -4.62479e-16 -0.0411106)
(1.02908e-14 -7.96171e-16 -0.0416141)
(9.3815e-15 -7.92903e-16 -0.042025)
(2.54052e-15 -3.68247e-16 -0.0423426)
(-9.3936e-15 3.4726e-16 -0.0425689)
(-2.29295e-14 1.12177e-15 -0.0427084)
(-3.49725e-14 1.70911e-15 -0.0427668)
(-4.34716e-14 1.99075e-15 -0.0427509)
(-4.80195e-14 2.00496e-15 -0.0426683)
(-4.83848e-14 1.81153e-15 -0.0425265)
(-4.45851e-14 1.43677e-15 -0.0423321)
(-3.74481e-14 9.25074e-16 -0.0420904)
(-2.71883e-14 3.45415e-16 -0.0418045)
(-1.51067e-14 -2.35533e-16 -0.0414762)
(-2.37826e-15 -7.56623e-16 -0.0411066)
(1.0042e-14 -1.16534e-15 -0.0406979)
(2.12542e-14 -1.57267e-15 -0.0402547)
(3.11488e-14 1.72742e-15 -0.0397846)
(3.9844e-14 -3.47103e-15 -0.0392972)
(4.76838e-14 -3.67888e-15 -0.0388036)
(5.47961e-14 -2.11981e-15 -0.0383151)
(6.16727e-14 -4.07864e-15 -0.0378429)
(6.84434e-14 -8.66097e-16 -0.0373975)
(7.52305e-14 -2.72522e-15 -0.0369884)
(8.18907e-14 -4.63052e-15 -0.0366229)
(8.79088e-14 -3.0146e-15 -0.0363054)
(9.29683e-14 -4.79788e-15 -0.0360366)
(9.65897e-14 -1.25373e-15 -0.035813)
(9.8499e-14 -2.71385e-15 -0.0356279)
(9.85417e-14 -4.12377e-15 -0.035472)
(9.66675e-14 -2.01169e-15 -0.0353354)
(9.31308e-14 -3.36064e-15 -0.0352085)
(8.81896e-14 5.06944e-16 -0.0350836)
(8.21345e-14 -8.07513e-16 -0.0349548)
(7.51581e-14 -2.18498e-15 -0.0348191)
(6.72769e-14 -9.55118e-17 -0.0346758)
(5.85068e-14 -1.46186e-15 -0.0345266)
(4.87435e-14 -1.08648e-15 -0.0343743)
(3.77675e-14 1.08803e-15 -0.0342228)
(2.53187e-14 -1.541e-16 -0.034076)
(1.13167e-14 2.13053e-15 -0.0339373)
(-4.30355e-15 9.86196e-16 -0.033809)
(-2.14597e-14 1.5845e-15 -0.0336923)
(-3.99748e-14 3.9329e-15 -0.0335868)
(-5.96039e-14 2.78054e-15 -0.0334912)
(-7.98922e-14 5.04932e-15 -0.033403)
(-1.00414e-13 3.77136e-15 -0.0333196)
(-1.20702e-13 4.12644e-15 -0.0332381)
(-1.40374e-13 6.13451e-15 -0.0331558)
(-1.59127e-13 4.58785e-15 -0.0330708)
(-1.7669e-13 6.42934e-15 -0.0329816)
(-1.93031e-13 2.98468e-15 -0.0328875)
(-2.08099e-13 8.20525e-15 -0.0327886)
(-2.21997e-13 6.49104e-15 -0.0326853)
(-2.34903e-13 4.76257e-15 -0.0325786)
(-2.46946e-13 6.5277e-15 -0.0324695)
(-2.58339e-13 3.08825e-15 -0.032359)
(-2.69103e-13 8.35929e-15 -0.0322481)
(-2.79225e-13 6.68985e-15 -0.0321374)
(-2.88595e-13 4.95027e-15 -0.0320273)
(-2.96943e-13 6.59968e-15 -0.0319177)
(-3.04042e-13 2.9177e-15 -0.0318083)
(-3.0955e-13 7.82496e-15 -0.0316985)
(-3.13284e-13 5.70565e-15 -0.0315875)
(-3.15183e-13 3.50017e-15 -0.0314743)
(-3.15284e-13 4.73986e-15 -0.0313582)
(-3.13832e-13 7.64499e-16 -0.0312383)
(-3.10995e-13 5.52072e-15 -0.0311137)
(-3.07006e-13 3.37287e-15 -0.0309838)
(-3.02003e-13 1.21239e-15 -0.0308483)
(-2.95973e-13 2.50428e-15 -0.0307065)
(-2.88914e-13 -1.4623e-15 -0.0305583)
(-2.80687e-13 3.24506e-15 -0.0304033)
(-2.71301e-13 1.01295e-15 -0.0302413)
(-2.60845e-13 -1.21524e-15 -0.0300718)
(-2.4946e-13 7.13913e-17 -0.0298945)
(-2.3738e-13 -3.82994e-15 -0.0297089)
(-2.24639e-13 9.49432e-16 -0.0295142)
(-2.11109e-13 -1.32125e-15 -0.0293098)
(-1.96418e-13 -2.10973e-15 -0.0290947)
(-1.79851e-13 -1.51238e-15 -0.0288681)
(-1.60566e-13 -4.84716e-15 -0.028629)
(-1.3761e-13 -5.21098e-15 -0.0283763)
(-1.10083e-13 -9.5422e-15 -0.0281085)
(-7.7286e-14 -1.25376e-14 -0.0278238)
(-3.87348e-14 -1.39967e-14 -0.0275198)
(5.62453e-15 -1.88655e-14 -0.0271937)
(5.54297e-14 -1.98222e-14 -0.0268432)
(1.09807e-13 -2.33841e-14 -0.0264674)
(1.67333e-13 -2.38995e-14 -0.0260688)
(2.26228e-13 -2.09928e-14 -0.0256545)
(2.84476e-13 -1.97025e-14 -0.0252352)
(3.40272e-13 -1.31129e-14 -0.0248218)
(3.92313e-13 -8.40382e-15 -0.0244177)
(4.39864e-13 -6.92388e-16 -0.0240087)
(4.82682e-13 9.65364e-15 -0.0235527)
(5.20678e-13 1.68242e-14 -0.0229742)
(5.54537e-13 2.6713e-14 -0.0221677)
(5.87035e-13 3.07381e-14 -0.021014)
(6.23847e-13 3.20987e-14 -0.0194071)
(6.73571e-13 2.89527e-14 -0.0172882)
(7.45756e-13 1.53205e-14 -0.0146761)
(8.46882e-13 -3.9212e-16 -0.0116838)
(9.74436e-13 -2.06977e-14 -0.00851297)
(1.11105e-12 -3.30349e-14 -0.00542436)
(1.22121e-12 -2.83867e-14 -0.00268861)
(1.25253e-12 -3.71672e-15 -0.000530223)
(1.14308e-12 5.24629e-14 0.000919835)
(8.34153e-13 1.32896e-13 0.00164916)
(2.86602e-13 2.2725e-13 0.00175933)
(-5.02324e-13 3.22676e-13 0.00143375)
(-1.48763e-12 3.89272e-13 0.000888699)
(-2.57266e-12 4.11028e-13 0.000322548)
(-3.61644e-12 3.66191e-13 -0.000122597)
(-4.45555e-12 2.5104e-13 -0.000378238)
(-4.93868e-12 8.38034e-14 -0.000444809)
(-4.966e-12 -1.13723e-13 -0.000370738)
(-4.52002e-12 -2.9671e-13 -0.000224771)
(-3.67526e-12 -4.33558e-13 -7.10136e-05)
(-2.58256e-12 -4.98652e-13 4.6984e-05)
(-1.43242e-12 -4.791e-13 0.000111194)
(-4.08764e-13 -3.93403e-13 0.00012508)
(3.52655e-13 -2.60943e-13 0.000104718)
(7.89301e-13 -1.19721e-13 6.93771e-05)
(9.14875e-13 2.77766e-16 3.46713e-05)
(8.02437e-13 8.4388e-14 9.44088e-06)
(5.55207e-13 1.19142e-13 -4.04502e-06)
(2.75493e-13 1.17313e-13 -7.93734e-06)
(4.06698e-14 8.75346e-14 -6.18288e-06)
(-1.08629e-13 4.60348e-14 -2.47917e-06)
(-1.67426e-13 1.17063e-14 7.68168e-07)
(-1.56139e-13 -1.42601e-14 2.58183e-06)
(-1.06381e-13 -2.28314e-14 3.01086e-06)
(-4.81667e-14 -2.18011e-14 2.57952e-06)
(-1.97284e-15 -1.60712e-14 1.85087e-06)
(2.3681e-14 -5.32051e-15 1.20176e-06)
(3.00489e-14 8.76317e-17 7.83711e-07)
(2.38399e-14 5.68103e-15 5.87624e-07)
(1.28484e-14 6.47527e-15 5.34063e-07)
(2.91865e-15 3.58364e-15 5.40809e-07)
(-3.1037e-15 3.50746e-15 5.54533e-07)
(-5.04653e-15 2.2406e-16 5.53544e-07)
(-4.23548e-15 1.09911e-15 5.36897e-07)
(-2.31082e-15 9.03521e-16 5.1267e-07)
(-5.4288e-16 -6.39275e-16 4.83601e-07)
(5.41548e-16 1.45981e-15 4.81102e-07)
(7.53461e-16 -3.31766e-17 4.37816e-07)
(-1.08996e-18 -4.36118e-20 -0.0573362)
(-1.6566e-17 -1.80027e-20 -0.0574493)
(-3.02778e-17 -4.02899e-20 -0.0576856)
(-5.26281e-17 1.62862e-18 -0.0580632)
(-6.38381e-17 -2.16185e-18 -0.0585979)
(-7.18231e-17 6.9206e-18 -0.0592986)
(-2.72987e-16 1.77679e-17 -0.0601708)
(3.16435e-16 -7.17115e-17 -0.0611925)
(-3.37288e-17 -4.62691e-18 -0.0623388)
(-2.96391e-15 4.42788e-16 -0.0635493)
(-6.42846e-16 2.97425e-16 -0.0647288)
(1.33053e-14 -1.43153e-15 -0.0658967)
(2.65893e-14 -3.69297e-15 -0.066972)
(1.58088e-14 -4.0718e-15 -0.067923)
(-3.23368e-14 -1.19396e-15 -0.0687349)
(-1.09895e-13 4.06761e-15 -0.0693952)
(-1.93325e-13 9.41959e-15 -0.0699056)
(-2.56975e-13 1.27173e-14 -0.0702727)
(-2.83871e-13 1.29514e-14 -0.0705076)
(-2.68986e-13 1.04035e-14 -0.0706238)
(-2.19806e-13 6.59293e-15 -0.0706342)
(-1.50378e-13 2.59e-15 -0.0705498)
(-6.82649e-14 -1.47667e-15 -0.0703748)
(2.00447e-14 -5.29812e-15 -0.0701056)
(1.07862e-13 -8.52507e-15 -0.0697308)
(1.88541e-13 -1.08509e-14 -0.0692338)
(2.56469e-13 -1.21036e-14 -0.0685992)
(3.08174e-13 -1.2313e-14 -0.0678205)
(3.42936e-13 -1.16996e-14 -0.0669069)
(3.6254e-13 -1.06217e-14 -0.0658868)
(3.70369e-13 -9.4278e-15 -0.0648056)
(3.704e-13 -8.38008e-15 -0.0637185)
(3.66199e-13 -7.66149e-15 -0.0626809)
(3.6041e-13 -7.30099e-15 -0.0617397)
(3.54478e-13 -7.22389e-15 -0.0609268)
(3.4871e-13 -7.28404e-15 -0.0602562)
(3.42353e-13 -7.27475e-15 -0.0597247)
(3.33975e-13 -7.01538e-15 -0.0593144)
(3.219e-13 -6.36792e-15 -0.0589972)
(3.04641e-13 -5.2768e-15 -0.0587401)
(2.81385e-13 -3.78555e-15 -0.05851)
(2.52242e-13 -2.01804e-15 -0.0582786)
(2.18214e-13 -1.61517e-16 -0.0580255)
(1.80835e-13 1.60591e-15 -0.0577404)
(1.41761e-13 3.16093e-15 -0.0574221)
(1.02342e-13 4.46244e-15 -0.0570778)
(6.33568e-14 5.55119e-15 -0.0567202)
(2.49092e-14 6.51345e-15 -0.0563645)
(-1.35019e-14 7.46418e-15 -0.0560261)
(-5.27604e-14 8.50602e-15 -0.0557177)
(-9.39143e-14 9.71231e-15 -0.0554486)
(-1.37948e-13 1.28764e-14 -0.0552234)
(-1.85543e-13 1.27593e-14 -0.0550423)
(-2.37002e-13 1.44861e-14 -0.0549011)
(-2.92092e-13 1.62316e-14 -0.0547926)
(-3.50064e-13 1.78717e-14 -0.0547074)
(-4.09719e-13 2.10414e-14 -0.0546351)
(-4.69552e-13 2.04102e-14 -0.0545656)
(-5.2792e-13 2.10982e-14 -0.0544899)
(-5.83224e-13 2.13475e-14 -0.0544012)
(-6.34072e-13 2.11681e-14 -0.0542951)
(-6.79433e-13 2.23598e-14 -0.0541698)
(-7.1871e-13 1.97897e-14 -0.0540257)
(-7.51754e-13 2.05159e-14 -0.0538652)
(-7.78828e-13 1.76981e-14 -0.053692)
(-8.00515e-13 1.66382e-14 -0.0535105)
(-8.17588e-13 1.74409e-14 -0.0533251)
(-8.3088e-13 1.4925e-14 -0.0531398)
(-8.4115e-13 1.60433e-14 -0.0529577)
(-8.48947e-13 1.37994e-14 -0.0527808)
(-8.54521e-13 1.33151e-14 -0.05261)
(-8.57755e-13 1.45059e-14 -0.0524452)
(-8.58178e-13 1.20305e-14 -0.0522851)
(-8.55075e-13 1.27476e-14 -0.052128)
(-8.47648e-13 9.66526e-15 -0.0519715)
(-8.35247e-13 8.0237e-15 -0.0518131)
(-8.17561e-13 7.9462e-15 -0.0516504)
(-7.94728e-13 4.34897e-15 -0.0514812)
(-7.67343e-13 4.32204e-15 -0.0513037)
(-7.36288e-13 1.00489e-15 -0.0511164)
(-7.02508e-13 -3.70658e-16 -0.0509186)
(-6.66755e-13 1.67268e-16 -0.0507097)
(-6.29419e-13 -2.7042e-15 -0.0504897)
(-5.90502e-13 -2.13379e-15 -0.0502586)
(-5.49735e-13 -5.13059e-15 -0.0500166)
(-5.06817e-13 -6.46507e-15 -0.0497638)
(-4.61635e-13 -6.0317e-15 -0.0495001)
(-4.14406e-13 -8.95081e-15 -0.0492251)
(-3.65625e-13 -8.21486e-15 -0.0489382)
(-3.15848e-13 -1.08167e-14 -0.0486385)
(-2.65378e-13 -1.17258e-14 -0.0483248)
(-2.13972e-13 -1.29403e-14 -0.0479957)
(-1.607e-13 -1.47895e-14 -0.0476497)
(-1.03998e-13 -1.75659e-14 -0.0472852)
(-4.19087e-14 -2.14617e-14 -0.0469004)
(2.75961e-14 -2.65242e-14 -0.0464935)
(1.06325e-13 -3.2647e-14 -0.0460622)
(1.95685e-13 -3.9574e-14 -0.0456039)
(2.96624e-13 -4.69016e-14 -0.0451147)
(4.09638e-13 -5.40825e-14 -0.0445905)
(5.34784e-13 -6.04312e-14 -0.0440274)
(6.71683e-13 -6.51771e-14 -0.0434242)
(8.19544e-13 -6.75827e-14 -0.042785)
(9.77346e-13 -6.71184e-14 -0.0421217)
(1.14424e-12 -6.36405e-14 -0.0414529)
(1.32011e-12 -5.74513e-14 -0.0407992)
(1.50602e-12 -4.91794e-14 -0.040171)
(1.70422e-12 -3.95117e-14 -0.0395514)
(1.91739e-12 -2.90261e-14 -0.0388789)
(2.14767e-12 -1.85803e-14 -0.038035)
(2.39716e-12 -1.01762e-14 -0.0368478)
(2.67133e-12 -7.17186e-15 -0.0351153)
(2.98041e-12 -1.35316e-14 -0.0326487)
(3.33799e-12 -3.22803e-14 -0.0293288)
(3.75509e-12 -6.30575e-14 -0.0251593)
(4.22935e-12 -9.95787e-14 -0.0203001)
(4.73131e-12 -1.28335e-13 -0.015065)
(5.19272e-12 -1.29724e-13 -0.00987735)
(5.5026e-12 -8.20663e-14 -0.00519262)
(5.51518e-12 3.21095e-14 -0.00140456)
(5.071e-12 2.18976e-13 0.00123727)
(4.02921e-12 4.67337e-13 0.00267579)
(2.3071e-12 7.45574e-13 0.00304647)
(-8.04886e-14 1.00408e-12 0.00263083)
(-2.99525e-12 1.18289e-12 0.00177908)
(-6.16583e-12 1.22338e-12 0.000826142)
(-9.20586e-12 1.08423e-12 2.47405e-05)
(-1.16698e-11 7.58056e-13 -0.000488778)
(-1.31443e-11 2.81843e-13 -0.000692455)
(-1.33543e-11 -2.65271e-13 -0.000648686)
(-1.22481e-11 -7.79747e-13 -0.000460967)
(-1.0026e-11 -1.16136e-12 -0.000232834)
(-7.09906e-12 -1.34076e-12 -3.99385e-05)
(-3.98939e-12 -1.29784e-12 8.0718e-05)
(-1.20348e-12 -1.06479e-12 0.000126753)
(8.82403e-13 -7.13655e-13 0.000117736)
(2.09145e-12 -3.3351e-13 8.07522e-05)
(2.45539e-12 -5.35287e-15 3.92853e-05)
(2.16887e-12 2.17242e-13 7.65412e-06)
(1.51038e-12 3.16737e-13 -9.39584e-06)
(7.57558e-13 3.08661e-13 -1.38871e-05)
(1.21498e-13 2.30015e-13 -1.08474e-05)
(-2.85676e-13 1.24225e-13 -5.25276e-06)
(-4.48637e-13 2.78918e-14 -3.9968e-07)
(-4.21294e-13 -3.71044e-14 2.38063e-06)
(-2.88593e-13 -6.50536e-14 3.18838e-06)
(-1.31837e-13 -6.27103e-14 2.78088e-06)
(-6.76034e-15 -4.30295e-14 1.9536e-06)
(6.31025e-14 -1.90715e-14 1.22631e-06)
(8.08492e-14 2.50417e-17 7.96697e-07)
(6.44615e-14 1.0393e-14 6.40912e-07)
(3.49144e-14 1.25809e-14 6.45256e-07)
(8.09037e-15 9.57015e-15 7.00802e-07)
(-8.27826e-15 4.76512e-15 7.43532e-07)
(-1.36092e-14 6.5073e-16 7.53817e-07)
(-1.14336e-14 -1.66546e-15 7.37852e-07)
(-6.24734e-15 -2.22355e-15 7.10908e-07)
(-1.46644e-15 -1.70618e-15 6.7667e-07)
(1.44582e-15 -7.56545e-16 6.84445e-07)
(1.98051e-15 -1.12737e-16 6.28108e-07)
(-4.25692e-17 5.0738e-18 -0.0795293)
(-1.39608e-16 8.01075e-18 -0.079678)
(-1.1962e-16 1.11535e-17 -0.0799926)
(-1.77033e-16 9.31076e-18 -0.0804985)
(1.32698e-17 1.74005e-18 -0.0812185)
(-6.0877e-16 9.69154e-17 -0.0821658)
(4.41605e-16 -1.96306e-16 -0.083349)
(1.6936e-15 -1.52564e-16 -0.0847365)
(-8.9245e-15 3.32555e-15 -0.0862964)
(6.93725e-16 3.17634e-16 -0.0879369)
(4.95827e-14 -9.84532e-15 -0.0895157)
(5.22829e-14 -1.18412e-14 -0.0910906)
(-1.0171e-13 -1.32743e-15 -0.0925323)
(-4.10325e-13 2.90006e-14 -0.0938014)
(-7.45925e-13 6.20559e-14 -0.0948803)
(-9.46687e-13 7.97011e-14 -0.0957514)
(-9.1162e-13 7.31715e-14 -0.0964187)
(-6.34596e-13 4.56206e-14 -0.0968925)
(-1.82311e-13 7.12718e-15 -0.0971897)
(3.4745e-13 -3.03237e-14 -0.0973302)
(8.65588e-13 -5.73131e-14 -0.0973343)
(1.33397e-12 -7.37655e-14 -0.097217)
(1.72987e-12 -8.33999e-14 -0.0969838)
(2.03717e-12 -8.66266e-14 -0.0966283)
(2.24451e-12 -8.33233e-14 -0.0961322)
(2.34692e-12 -7.39582e-14 -0.0954691)
(2.34991e-12 -6.00516e-14 -0.094613)
(2.26915e-12 -4.39902e-14 -0.0935492)
(2.12813e-12 -2.83487e-14 -0.0922855)
(1.95254e-12 -1.52888e-14 -0.090858)
(1.76456e-12 -2.2027e-15 -0.0893297)
(1.58062e-12 -1.38635e-15 -0.0877813)
(1.40949e-12 1.31632e-15 -0.086298)
(1.25349e-12 3.74058e-15 -0.0849546)
(1.11045e-12 1.77137e-15 -0.0838038)
(9.74445e-13 5.19667e-15 -0.0828705)
(8.38126e-13 4.6421e-15 -0.0821507)
(6.94125e-13 5.59598e-15 -0.0816156)
(5.36927e-13 1.16524e-14 -0.0812191)
(3.65044e-13 1.54595e-14 -0.0809067)
(1.81122e-13 2.49459e-14 -0.0806242)
(-8.20773e-15 2.88718e-14 -0.0803258)
(-1.94428e-13 3.15799e-14 -0.0799794)
(-3.6945e-13 3.62147e-14 -0.0795692)
(-5.27463e-13 3.58857e-14 -0.0790957)
(-6.66369e-13 3.97091e-14 -0.0785728)
(-7.87561e-13 3.79089e-14 -0.0780238)
(-8.95272e-13 3.62443e-14 -0.0774763)
(-9.9529e-13 3.87393e-14 -0.0769576)
(-1.09348e-12 3.87444e-14 -0.076491)
(-1.195e-12 4.15038e-14 -0.0760925)
(-1.30344e-12 4.69023e-14 -0.0757702)
(-1.42047e-12 4.93765e-14 -0.0755236)
(-1.54559e-12 5.54053e-14 -0.0753452)
(-1.67638e-12 5.75171e-14 -0.0752215)
(-1.80881e-12 6.0397e-14 -0.0751357)
(-1.93787e-12 6.36769e-14 -0.0750696)
(-2.05824e-12 6.18818e-14 -0.0750058)
(-2.165e-12 6.18852e-14 -0.0749294)
(-2.25415e-12 5.68472e-14 -0.0748292)
(-2.32297e-12 5.22314e-14 -0.0746984)
(-2.37029e-12 4.84537e-14 -0.0745345)
(-2.39634e-12 4.07473e-14 -0.074339)
(-2.40263e-12 3.64883e-14 -0.0741166)
(-2.39151e-12 2.73659e-14 -0.073874)
(-2.36585e-12 2.75846e-14 -0.0736189)
(-2.32863e-12 2.16737e-14 -0.0733589)
(-2.28252e-12 1.65434e-14 -0.0731008)
(-2.22961e-12 1.55614e-14 -0.0728496)
(-2.17119e-12 9.77465e-15 -0.0726086)
(-2.10755e-12 1.27623e-14 -0.0723791)
(-2.03805e-12 8.51814e-15 -0.0721605)
(-1.96118e-12 3.61035e-15 -0.0719507)
(-1.87499e-12 1.33496e-15 -0.0717464)
(-1.77766e-12 -6.9954e-15 -0.0715438)
(-1.66803e-12 -7.21976e-15 -0.0713386)
(-1.54615e-12 -1.45539e-14 -0.071127)
(-1.41334e-12 -2.16084e-14 -0.0709054)
(-1.27211e-12 -2.448e-14 -0.070671)
(-1.12553e-12 -3.16526e-14 -0.0704219)
(-9.76538e-13 -2.92465e-14 -0.0701569)
(-8.2721e-13 -3.31714e-14 -0.0698756)
(-6.78323e-13 -3.69142e-14 -0.0695781)
(-5.29421e-13 -3.73376e-14 -0.0692648)
(-3.79247e-13 -4.33044e-14 -0.0689362)
(-2.26462e-13 -4.08056e-14 -0.0685927)
(-7.03813e-14 -4.51925e-14 -0.0682344)
(8.87119e-14 -4.92202e-14 -0.0678608)
(2.49592e-13 -4.92074e-14 -0.0674712)
(4.10686e-13 -5.3953e-14 -0.0670643)
(5.7084e-13 -4.99885e-14 -0.0666386)
(7.30029e-13 -5.36603e-14 -0.066192)
(8.89667e-13 -5.70969e-14 -0.0657223)
(1.05235e-12 -6.0908e-14 -0.0652273)
(1.22131e-12 -7.06441e-14 -0.0647045)
(1.39965e-12 -7.93279e-14 -0.0641514)
(1.59e-12 -9.35869e-14 -0.063565)
(1.79447e-12 -1.07687e-13 -0.0629415)
(2.01515e-12 -1.20973e-13 -0.0622762)
(2.25487e-12 -1.37946e-13 -0.0615632)
(2.51778e-12 -1.50845e-13 -0.0607973)
(2.80987e-12 -1.65764e-13 -0.0599767)
(3.139e-12 -1.76731e-13 -0.0591064)
(3.51482e-12 -1.83341e-13 -0.058202)
(3.94875e-12 -1.91084e-13 -0.0572893)
(4.45405e-12 -1.94005e-13 -0.0563975)
(5.04568e-12 -2.00462e-13 -0.0555439)
(5.73942e-12 -2.06375e-13 -0.0547106)
(6.54951e-12 -2.12067e-13 -0.0538186)
(7.48553e-12 -2.23059e-13 -0.0527106)
(8.55109e-12 -2.35117e-13 -0.051152)
(9.75049e-12 -2.60889e-13 -0.0488609)
(1.10912e-11 -3.01232e-13 -0.0455664)
(1.25771e-11 -3.58388e-13 -0.041087)
(1.41925e-11 -4.30363e-13 -0.0354075)
(1.58777e-11 -4.885e-13 -0.0287295)
(1.75017e-11 -5.02379e-13 -0.0214737)
(1.88455e-11 -4.18678e-13 -0.0142229)
(1.96048e-11 -1.89615e-13 -0.00761567)
(1.9418e-11 2.12081e-13 -0.00221551)
(1.79191e-11 7.95445e-13 0.0016077)
(1.48091e-11 1.51484e-12 0.00374997)
(9.93981e-12 2.2821e-12 0.00437858)
(3.39557e-12 2.97385e-12 0.00387141)
(-4.45196e-12 3.43194e-12 0.00271142)
(-1.29179e-11 3.51633e-12 0.00136938)
(-2.10397e-11 3.11819e-12 0.000208357)
(-2.77056e-11 2.22027e-12 -0.000567289)
(-3.18738e-11 9.26046e-13 -0.000912786)
(-3.28367e-11 -5.61818e-13 -0.000903986)
(-3.0439e-11 -1.96084e-12 -0.000678688)
(-2.51584e-11 -3.0081e-12 -0.000379609)
(-1.80121e-11 -3.51698e-12 -0.000114495)
(-1.03108e-11 -3.42689e-12 6.05098e-05)
(-3.33898e-12 -2.8293e-12 0.000136923)
(1.93617e-12 -1.90841e-12 0.000137603)
(5.0446e-12 -9.06213e-13 9.73514e-05)
(6.04133e-12 -3.8434e-14 4.75542e-05)
(5.39586e-12 5.5689e-13 8.11441e-06)
(3.79595e-12 8.24798e-13 -1.36274e-05)
(1.9352e-12 8.11755e-13 -1.94933e-05)
(3.46633e-13 6.09152e-13 -1.55938e-05)
(-6.81467e-13 3.31102e-13 -8.25179e-06)
(-1.10304e-12 7.95154e-14 -1.7598e-06)
(-1.04722e-12 -9.42822e-14 2.09111e-06)
(-7.23624e-13 -1.6756e-13 3.37378e-06)
(-3.35223e-13 -1.62717e-13 3.03861e-06)
(-2.25501e-14 -1.13541e-13 2.10856e-06)
(1.53846e-13 -4.91253e-14 1.26298e-06)
(2.00287e-13 -5.91834e-16 7.69112e-07)
(1.60881e-13 2.86484e-14 6.07275e-07)
(8.78116e-14 3.46608e-14 6.39197e-07)
(2.09399e-14 2.518e-14 7.3e-07)
(-2.01423e-14 1.43572e-14 8.00437e-07)
(-3.37205e-14 1.80172e-15 8.26801e-07)
(-2.84932e-14 -2.58182e-15 8.17626e-07)
(-1.56574e-14 -4.08005e-15 7.92666e-07)
(-3.74195e-15 -4.48585e-15 7.5633e-07)
(3.54873e-15 -2.63668e-16 7.75227e-07)
(4.91954e-15 -3.00525e-16 7.09437e-07)
(4.48296e-17 1.82577e-15 -0.100923)
(1.80562e-16 1.77323e-15 -0.101098)
(1.28349e-16 1.86723e-17 -0.101474)
(2.66085e-16 1.66991e-15 -0.102085)
(5.53132e-16 1.94843e-15 -0.102959)
(-1.87299e-15 1.52748e-15 -0.104116)
(9.60654e-15 -1.13342e-15 -0.105567)
(-2.02e-14 4.63845e-15 -0.107271)
(-9.33855e-15 4.95312e-16 -0.109191)
(1.41699e-13 -3.06268e-14 -0.111195)
(4.93411e-14 -2.54701e-14 -0.113084)
(-6.35874e-13 7.42689e-14 -0.114994)
(-1.535e-12 2.27584e-13 -0.116725)
(-1.78827e-12 3.18036e-13 -0.118232)
(-7.73322e-13 2.66987e-13 -0.119503)
(1.50499e-12 8.86497e-14 -0.120517)
(4.51696e-12 -1.44891e-13 -0.121284)
(7.54749e-12 -3.51937e-13 -0.121821)
(1.00046e-11 -4.76337e-13 -0.122147)
(1.15455e-11 -5.11811e-13 -0.12229)
(1.22117e-11 -4.86668e-13 -0.122272)
(1.22677e-11 -4.29551e-13 -0.122114)
(1.1824e-11 -3.53074e-13 -0.121822)
(1.09638e-11 -2.62616e-13 -0.121388)
(9.78359e-12 -1.63401e-13 -0.120788)
(8.4047e-12 -6.5287e-14 -0.119988)
(6.96751e-12 2.67796e-14 -0.118954)
(5.6038e-12 9.85769e-14 -0.117665)
(4.40602e-12 1.46608e-13 -0.11613)
(3.41243e-12 1.71135e-13 -0.11439)
(2.61231e-12 1.74824e-13 -0.11252)
(1.96616e-12 1.6574e-13 -0.110619)
(1.42347e-12 1.55873e-13 -0.108791)
(9.36194e-13 1.4047e-13 -0.107132)
(4.62887e-13 1.30552e-13 -0.10571)
(-2.98024e-14 1.27131e-13 -0.104558)
(-5.65037e-13 1.31178e-13 -0.103674)
(-1.15412e-12 1.43584e-13 -0.103023)
(-1.79278e-12 1.56431e-13 -0.102545)
(-2.46028e-12 1.70884e-13 -0.102172)
(-3.12228e-12 1.81099e-13 -0.101834)
(-3.73821e-12 1.84033e-13 -0.101471)
(-4.27167e-12 1.80459e-13 -0.101042)
(-4.69903e-12 1.66388e-13 -0.100528)
(-5.01415e-12 1.49882e-13 -0.0999266)
(-5.22767e-12 1.32773e-13 -0.0992576)
(-5.36215e-12 1.18275e-13 -0.0985511)
(-5.446e-12 1.10378e-13 -0.0978435)
(-5.50709e-12 1.04835e-13 -0.0971714)
(-5.56858e-12 1.06625e-13 -0.0965658)
(-5.64627e-12 1.14688e-13 -0.096049)
(-5.74759e-12 1.27348e-13 -0.0956322)
(-5.87186e-12 1.33832e-13 -0.0953158)
(-6.0117e-12 1.4418e-13 -0.0950898)
(-6.15449e-12 1.47845e-13 -0.0949369)
(-6.28502e-12 1.48611e-13 -0.0948347)
(-6.38776e-12 1.47493e-13 -0.0947593)
(-6.44927e-12 1.33976e-13 -0.0946874)
(-6.46005e-12 1.20784e-13 -0.0945993)
(-6.41515e-12 1.00335e-13 -0.0944802)
(-6.31435e-12 7.9236e-14 -0.0943208)
(-6.1613e-12 6.07816e-14 -0.094118)
(-5.96243e-12 3.59604e-14 -0.0938736)
(-5.72579e-12 2.15694e-14 -0.0935939)
(-5.4597e-12 -6.89744e-16 -0.0932878)
(-5.17198e-12 -1.30683e-14 -0.0929655)
(-4.86901e-12 -2.24902e-14 -0.0926372)
(-4.55554e-12 -3.45876e-14 -0.0923119)
(-4.23438e-12 -3.78869e-14 -0.0919963)
(-3.90617e-12 -4.72285e-14 -0.0916949)
(-3.56964e-12 -5.15176e-14 -0.0914095)
(-3.22162e-12 -5.69454e-14 -0.0911391)
(-2.85794e-12 -6.95021e-14 -0.0908811)
(-2.47428e-12 -7.72766e-14 -0.0906311)
(-2.06738e-12 -9.3815e-14 -0.0903838)
(-1.63647e-12 -1.06e-13 -0.0901336)
(-1.18382e-12 -1.17663e-13 -0.0898753)
(-7.15065e-13 -1.3267e-13 -0.089604)
(-2.38175e-13 -1.37845e-13 -0.0893162)
(2.38259e-13 -1.46781e-13 -0.0890093)
(7.06865e-13 -1.478e-13 -0.0886818)
(1.16344e-12 -1.47204e-13 -0.0883332)
(1.60755e-12 -1.51599e-13 -0.0879638)
(2.04232e-12 -1.49936e-13 -0.0875742)
(2.47306e-12 -1.56611e-13 -0.0871652)
(2.90501e-12 -1.59165e-13 -0.0867373)
(3.34165e-12 -1.61882e-13 -0.0862907)
(3.78324e-12 -1.68937e-13 -0.0858249)
(4.2271e-12 -1.65731e-13 -0.085339)
(4.6688e-12 -1.71442e-13 -0.0848314)
(5.10385e-12 -1.69665e-13 -0.0843002)
(5.52941e-12 -1.72353e-13 -0.0837428)
(5.94481e-12 -1.7595e-13 -0.0831565)
(6.3512e-12 -1.83385e-13 -0.0825383)
(6.75048e-12 -1.95114e-13 -0.0818851)
(7.14415e-12 -2.09134e-13 -0.0811937)
(7.53334e-12 -2.30055e-13 -0.0804604)
(7.92007e-12 -2.52153e-13 -0.0796806)
(8.3101e-12 -2.77101e-13 -0.0788484)
(8.71631e-12 -3.05397e-13 -0.0779567)
(9.16164e-12 -3.36198e-13 -0.076999)
(9.68076e-12 -3.75788e-13 -0.0759721)
(1.03198e-11 -4.20057e-13 -0.0748815)
(1.11344e-11 -4.71991e-13 -0.0737453)
(1.21866e-11 -5.33255e-13 -0.0725945)
(1.35407e-11 -6.04183e-13 -0.0714662)
(1.52596e-11 -6.91868e-13 -0.070384)
(1.73999e-11 -7.91428e-13 -0.0693299)
(2.00057e-11 -9.02078e-13 -0.0682115)
(2.3101e-11 -1.01937e-12 -0.0668372)
(2.66822e-11 -1.14092e-12 -0.0649158)
(3.07254e-11 -1.27721e-12 -0.0620901)
(3.51939e-11 -1.42682e-12 -0.0580094)
(4.00184e-11 -1.58295e-12 -0.0524287)
(4.50595e-11 -1.71335e-12 -0.0453086)
(5.00584e-11 -1.75241e-12 -0.0368854)
(5.45935e-11 -1.61228e-12 -0.027679)
(5.80646e-11 -1.18131e-12 -0.0184255)
(5.9723e-11 -3.68294e-13 -0.00994333)
(5.87493e-11 8.74963e-13 -0.00296534)
(5.43689e-11 2.52516e-12 0.00201669)
(4.59944e-11 4.45699e-12 0.00484914)
(3.33897e-11 6.45234e-12 0.00572819)
(1.68245e-11 8.19997e-12 0.00512562)
(-2.80727e-12 9.33961e-12 0.00365533)
(-2.3911e-11 9.51899e-12 0.00192276)
(-4.4248e-11 8.47808e-12 0.000400774)
(-6.12071e-11 6.17509e-12 -0.000638318)
(-7.23005e-11 2.84743e-12 -0.00112666)
(-7.5785e-11 -9.82653e-13 -0.00115318)
(-7.11933e-11 -4.61717e-12 -0.00088979)
(-5.95603e-11 -7.37479e-12 -0.000518517)