/*--------------------------------*- C++ -*----------------------------------*\
  =========                 |
  \\      /  F ield         | OpenFOAM: The Open Source CFD Toolbox
   \\    /   O peration     | Website:  https://openfoam.org
    \\  /    A nd           | Version:  11
     \\/     M anipulation  |
\*---------------------------------------------------------------------------*/
FoamFile
{
    format      ascii;
    class       surfaceScalarField;
    location    "3.14923";
    object      phi;
}
// * * * * * * * * * * * * * * * * * * * * * * * * * * * * * * * * * * * * * //

dimensions      [0 3 -1 0 0 0 0];

internalField   nonuniform List<scalar> 
14638
(
0.00250288
-2.88116e-06
0.00251157
-8.69199e-06
0.00252643
-1.48573e-05
0.00254793
-2.14977e-05
0.00257657
-2.86434e-05
0.00261266
-3.60883e-05
0.00265609
-4.34263e-05
0.00270594
-4.98491e-05
0.00276041
-5.44769e-05
0.00281675
-5.63404e-05
0.00287159
-5.48403e-05
0.00292213
-5.05345e-05
0.00296602
-4.38905e-05
0.00300138
-3.53654e-05
0.00302678
-2.53963e-05
0.00304113
-1.4348e-05
0.00304379
-2.66268e-06
0.00303472
9.07327e-06
0.00301459
2.01275e-05
0.00298487
2.97209e-05
0.00294768
3.71904e-05
0.00290553
4.21434e-05
0.00286101
4.45297e-05
0.0028164
4.46062e-05
0.00277357
4.28327e-05
0.00273381
3.97513e-05
0.00269793
3.58866e-05
0.00266624
3.16834e-05
0.00263877
2.74795e-05
0.00261526
2.3505e-05
0.00259536
1.9897e-05
0.00257864
1.67197e-05
0.00256466
1.39863e-05
0.00255298
1.16769e-05
0.00254323
9.75268e-06
0.00253506
8.16652e-06
0.00252819
6.86952e-06
0.00252238
5.81516e-06
0.00251742
4.96127e-06
0.00251314
4.2709e-06
0.00250943
3.71221e-06
0.00250617
3.2581e-06
0.00250329
2.88567e-06
0.00250071
2.57581e-06
0.0024984
2.31319e-06
0.00249631
2.08643e-06
0.00249443
1.88784e-06
0.00249271
1.71166e-06
0.00249116
1.54992e-06
0.00248978
1.38639e-06
0.00248859
1.19174e-06
0.00248766
9.24536e-07
0.00248712
5.41855e-07
0.0024871
1.91733e-08
0.00248773
-6.27478e-07
0.00248906
-1.32849e-06
0.00249102
-1.96733e-06
0.00249343
-2.40979e-06
0.00249598
-2.54744e-06
0.00249832
-2.33807e-06
0.00250014
-1.82529e-06
0.00250127
-1.12753e-06
0.00250167
-4.00782e-07
0.00250146
2.09639e-07
0.00250085
6.08831e-07
0.00250008
7.69941e-07
0.00249936
7.27009e-07
0.00249881
5.5073e-07
0.00249849
3.19718e-07
0.00249839
9.82039e-08
0.00249846
-7.46297e-08
0.00249865
-1.8448e-07
0.00249888
-2.35242e-07
0.00249912
-2.40563e-07
0.00249934
-2.16842e-07
0.00249952
-1.78831e-07
0.00249966
-1.37628e-07
0.00249976
-1.00268e-07
0.00249983
-7.0194e-08
0.00249987
-4.81382e-08
0.00249991
-3.31243e-08
0.00249993
-2.34038e-08
0.00249995
-1.71759e-08
0.00249996
-1.30112e-08
0.00249997
-9.98813e-09
0.00249998
-7.62575e-09
0.00249998
-5.72578e-09
0.00249999
-4.21932e-09
0.00249999
-3.06708e-09
0.00249999
-2.21842e-09
0.0025
-1.60946e-09
0.0025
-1.17591e-09
0.0025
-8.64442e-10
0.0025
-6.36821e-10
0.0025
-4.68092e-10
0.0025
-3.42359e-10
0.0025
-2.48961e-10
0.0025
-1.80064e-10
0.0025
-1.29559e-10
0.0025
-9.26478e-11
0.0025
-6.56725e-11
0.0025
-4.59296e-11
0.0025
-3.14676e-11
0.0025
-2.08807e-11
0.0025
-1.31485e-11
0.0025
-7.5208e-12
0.0025
-3.44209e-12
0.0025
-5.01577e-13
0.0025
1.60478e-12
0.0025
3.09903e-12
0.0025
4.14578e-12
0.0025
4.8637e-12
0.0025
5.3424e-12
0.0025
5.64491e-12
0.0025
5.8208e-12
0.0025
5.90295e-12
0.0025
5.91941e-12
0.0025
5.88654e-12
0.0025
5.82094e-12
0.0025
5.72985e-12
0.0025
5.62385e-12
0.0025
5.50512e-12
0.0025
5.38111e-12
0.0025
5.25114e-12
0.0025
5.1211e-12
0.0025
4.98863e-12
0.0025
4.8589e-12
0.0025
4.72852e-12
0.0025
4.6024e-12
0.0025
4.47644e-12
0.0025
4.35555e-12
0.0025
4.23512e-12
0.0025
4.12014e-12
0.0025
4.00566e-12
0.0025
3.89679e-12
0.0025
3.78828e-12
0.0025
3.68543e-12
0.0025
3.58274e-12
0.0025
3.48566e-12
0.0025
3.3885e-12
0.0025
3.29689e-12
0.0025
3.20493e-12
0.0025
3.11842e-12
0.0025
3.03134e-12
0.0025
2.9496e-12
0.0025
2.86705e-12
0.0025
2.78977e-12
0.0025
2.71144e-12
0.0025
2.63839e-12
0.0025
2.56395e-12
0.0025
2.4951e-12
0.0025
2.42385e-12
0.0025
2.35993e-12
0.0025
2.28939e-12
0.0025
2.2356e-12
0.0025
2.15456e-12
0.0025
2.14139e-12
0.0025
1.99013e-12
0.0025
2.16884e-12
1.72663e-12
0.00250285
-5.73601e-06
0.00251147
-1.73111e-05
0.00252623
-2.96108e-05
0.00254763
-4.28972e-05
0.00257623
-5.72437e-05
0.00261239
-7.22508e-05
0.00265608
-8.71134e-05
0.00270641
-0.000100178
0.00276158
-0.000109648
0.00281871
-0.000113473
0.00287427
-0.000110404
0.00292542
-0.000101681
0.0029698
-8.82751e-05
0.00300555
-7.11145e-05
0.00303123
-5.1071e-05
0.00304573
-2.88522e-05
0.0030484
-5.32856e-06
0.00303915
1.8325e-05
0.00301865
4.06207e-05
0.00298841
5.99651e-05
0.0029506
7.4999e-05
0.00290782
8.49217e-05
0.00286271
8.96393e-05
0.00281763
8.9688e-05
0.00277445
8.60143e-05
0.00273447
7.97259e-05
0.00269847
7.18878e-05
0.00266676
6.33969e-05
0.00263931
5.49302e-05
0.00261587
4.69451e-05
0.00259606
3.97107e-05
0.00257942
3.3351e-05
0.00256552
2.78877e-05
0.00255392
2.32773e-05
0.00254423
1.94398e-05
0.00253612
1.62792e-05
0.0025293
1.36965e-05
0.00252351
1.15982e-05
0.00251857
9.89973e-06
0.00251432
8.52713e-06
0.00251061
7.41683e-06
0.00250736
6.51479e-06
0.00250447
5.77533e-06
0.00250188
5.16041e-06
0.00249956
4.63947e-06
0.00249745
4.18975e-06
0.00249554
3.79588e-06
0.00249381
3.44645e-06
0.00249223
3.12584e-06
0.00249082
2.80238e-06
0.00248959
2.41858e-06
0.00248862
1.89271e-06
0.00248802
1.1395e-06
0.00248793
1.09161e-07
0.00248848
-1.16845e-06
0.0024897
-2.55735e-06
0.00249157
-3.82773e-06
0.00249387
-4.71324e-06
0.00249632
-4.99707e-06
0.00249857
-4.59283e-06
0.00250033
-3.58438e-06
0.00250141
-2.20516e-06
0.00250177
-7.64597e-07
0.00250154
4.47576e-07
0.0025009
1.24088e-06
0.00250011
1.55999e-06
0.00249937
1.47127e-06
0.0024988
1.115e-06
0.00249848
6.48229e-07
0.00249837
2.00028e-07
0.00249845
-1.50248e-07
0.00249864
-3.7312e-07
0.00249888
-4.75969e-07
0.00249913
-4.86246e-07
0.00249935
-4.37315e-07
0.00249953
-3.594e-07
0.00249966
-2.75309e-07
0.00249976
-1.99464e-07
0.00249983
-1.38824e-07
0.00249988
-9.47227e-08
0.00249991
-6.49936e-08
0.00249993
-4.59367e-08
0.00249995
-3.38164e-08
0.00249996
-2.57183e-08
0.00249997
-1.98025e-08
0.00249998
-1.51378e-08
0.00249999
-1.13619e-08
0.00249999
-8.36092e-09
0.00249999
-6.06789e-09
0.00249999
-4.38395e-09
0.0025
-3.17967e-09
0.0025
-2.32433e-09
0.0025
-1.71024e-09
0.0025
-1.26105e-09
0.0025
-9.27547e-10
0.0025
-6.78718e-10
0.0025
-4.93789e-10
0.0025
-3.57402e-10
0.0025
-2.57473e-10
0.0025
-1.84474e-10
0.0025
-1.3113e-10
0.0025
-9.20802e-11
0.0025
-6.34633e-11
0.0025
-4.25054e-11
0.0025
-2.71909e-11
0.0025
-1.60392e-11
0.0025
-7.95054e-12
0.0025
-2.11331e-12
0.0025
2.0749e-12
0.0025
5.05265e-12
0.0025
7.14594e-12
0.0025
8.58894e-12
0.0025
9.559e-12
0.0025
1.01807e-11
0.0025
1.05518e-11
0.0025
1.07376e-11
0.0025
1.07931e-11
0.0025
1.07511e-11
0.0025
1.06437e-11
0.0025
1.04861e-11
0.0025
1.02982e-11
0.0025
1.00853e-11
0.0025
9.86096e-12
0.0025
9.62507e-12
0.0025
9.38794e-12
0.0025
9.14627e-12
0.0025
8.90881e-12
0.0025
8.67041e-12
0.0025
8.43911e-12
0.0025
8.20859e-12
0.0025
7.98664e-12
0.0025
7.76614e-12
0.0025
7.55492e-12
0.0025
7.34529e-12
0.0025
7.14521e-12
0.0025
6.94654e-12
0.0025
6.75747e-12
0.0025
6.56948e-12
0.0025
6.39098e-12
0.0025
6.21316e-12
0.0025
6.04466e-12
0.0025
5.87641e-12
0.0025
5.71728e-12
0.0025
5.55798e-12
0.0025
5.40759e-12
0.0025
5.25662e-12
0.0025
5.1144e-12
0.0025
4.97116e-12
0.0025
4.83665e-12
0.0025
4.70047e-12
0.0025
4.57365e-12
0.0025
4.44329e-12
0.0025
4.32576e-12
0.0025
4.19685e-12
0.0025
4.09847e-12
0.0025
3.95041e-12
0.0025
3.92506e-12
0.0025
3.6524e-12
0.0025
3.96009e-12
3.18924e-12
0.0025028
-8.53772e-06
0.00251127
-2.5777e-05
0.00252581
-4.41494e-05
0.002547
-6.40874e-05
0.00257549
-8.57414e-05
0.00261179
-0.000108546
0.00265599
-0.000131313
0.00270728
-0.000151471
0.00276386
-0.000166231
0.00282261
-0.000172217
0.00287963
-0.000167427
0.002932
-0.000154053
0.00297737
-0.000133643
0.00301388
-0.000107626
0.00304011
-7.72992e-05
0.00305493
-4.36681e-05
0.0030576
-7.99906e-06
0.00304798
2.79428e-05
0.00302673
6.18671e-05
0.00299541
9.12903e-05
0.00295632
0.000114086
0.00291223
0.000129012
0.00286592
0.000135945
0.00281986
0.000135748
0.00277597
0.00012991
0.00273554
0.000120154
0.00269931
0.000108119
0.00266754
9.51669e-05
0.00264015
8.23167e-05
0.00261685
7.02467e-05
0.00259721
5.93487e-05
0.00258077
4.97957e-05
0.00256705
4.16091e-05
0.00255561
3.47148e-05
0.00254606
2.89861e-05
0.00253807
2.42745e-05
0.00253134
2.04292e-05
0.00252563
1.73082e-05
0.00252074
1.47842e-05
0.00251652
1.27462e-05
0.00251284
1.10989e-05
0.00250959
9.76164e-06
0.0025067
8.66632e-06
0.00250411
7.7562e-06
0.00250176
6.98571e-06
0.00249963
6.32083e-06
0.00249769
5.73856e-06
0.00249591
5.22188e-06
0.00249429
4.74798e-06
0.00249282
4.27079e-06
0.00249153
3.70638e-06
0.00249049
2.93478e-06
0.0024898
1.82978e-06
0.00248959
3.16174e-07
0.00248999
-1.56473e-06
0.00249105
-3.61497e-06
0.00249272
-5.49665e-06
0.00249482
-6.81568e-06
0.00249707
-7.24903e-06
0.00249914
-6.66535e-06
0.00250074
-5.18547e-06
0.00250169
-3.15319e-06
0.00250195
-1.02694e-06
0.00250164
7.6224e-07
0.00250095
1.92951e-06
0.00250012
2.39061e-06
0.00249935
2.24292e-06
0.00249877
1.69506e-06
0.00249844
9.82011e-07
0.00249834
2.98082e-07
0.00249842
-2.36285e-07
0.00249863
-5.75615e-07
0.00249888
-7.30584e-07
0.00249914
-7.43067e-07
0.00249936
-6.64616e-07
0.00249955
-5.42304e-07
0.00249968
-4.11734e-07
0.00249978
-2.95255e-07
0.00249984
-2.03332e-07
0.00249989
-1.37518e-07
0.00249992
-9.39392e-08
0.00249994
-6.65017e-08
0.00249995
-4.92674e-08
0.00249996
-3.77477e-08
0.00249997
-2.92156e-08
0.00249998
-2.23726e-08
0.00249999
-1.67721e-08
0.00249999
-1.23071e-08
0.00249999
-8.90491e-09
0.00249999
-6.42104e-09
0.0025
-4.65567e-09
0.0025
-3.40693e-09
0.0025
-2.51099e-09
0.0025
-1.85423e-09
0.0025
-1.36513e-09
0.0025
-9.99417e-10
0.0025
-7.27446e-10
0.0025
-5.26981e-10
0.0025
-3.80257e-10
0.0025
-2.73159e-10
0.0025
-1.9491e-10
0.0025
-1.37608e-10
0.0025
-9.55869e-11
0.0025
-6.47907e-11
0.0025
-4.2273e-11
0.0025
-2.58648e-11
0.0025
-1.39528e-11
0.0025
-5.34409e-12
0.0025
8.45341e-13
0.0025
5.2599e-12
0.0025
8.37691e-12
0.0025
1.05407e-11
0.0025
1.20101e-11
0.0025
1.29691e-11
0.0025
1.35597e-11
0.0025
1.38788e-11
0.0025
1.40058e-11
0.0025
1.39901e-11
0.0025
1.38772e-11
0.0025
1.3691e-11
0.0025
1.34586e-11
0.0025
1.31899e-11
0.0025
1.29026e-11
0.0025
1.25987e-11
0.0025
1.22909e-11
0.0025
1.19768e-11
0.0025
1.16667e-11
0.0025
1.13557e-11
0.0025
1.10528e-11
0.0025
1.07516e-11
0.0025
1.04605e-11
0.0025
1.01721e-11
0.0025
9.89485e-12
0.0025
9.62066e-12
0.0025
9.35794e-12
0.0025
9.0981e-12
0.0025
8.84976e-12
0.0025
8.60395e-12
0.0025
8.36945e-12
0.0025
8.13699e-12
0.0025
7.91559e-12
0.0025
7.69571e-12
0.0025
7.48659e-12
0.0025
7.27846e-12
0.0025
7.0808e-12
0.0025
6.88361e-12
0.0025
6.69665e-12
0.0025
6.5096e-12
0.0025
6.33275e-12
0.0025
6.15495e-12
0.0025
5.98821e-12
0.0025
5.81799e-12
0.0025
5.66362e-12
0.0025
5.49523e-12
0.0025
5.36615e-12
0.0025
5.17316e-12
0.0025
5.13606e-12
0.0025
4.79023e-12
0.0025
5.15007e-12
4.20904e-12
0.00250272
-1.12556e-05
0.00251094
-3.40005e-05
0.00252514
-5.83434e-05
0.00254598
-8.49316e-05
0.00257428
-0.000114045
0.00261074
-0.000145003
0.00265569
-0.000176258
0.00270844
-0.000204223
0.0027672
-0.000224996
0.00282844
-0.000233454
0.00288769
-0.000226673
0.0029419
-0.00020827
0.00298874
-0.000180481
0.00302639
-0.000145278
0.00305346
-0.000104365
0.00306875
-5.8963e-05
0.00307144
-1.06819e-05
0.00306126
3.81182e-05
0.00303886
8.42676e-05
0.00300588
0.000124274
0.00296483
0.000155133
0.00291873
0.000175109
0.00287061
0.000184072
0.00282307
0.000183288
0.0027781
0.000174879
0.00273699
0.000161259
0.00270043
0.000144685
0.00266858
0.000127012
0.0026413
0.000109598
0.00261821
9.33339e-05
0.00259884
7.87181e-05
0.00258268
6.59574e-05
0.00256923
5.50589e-05
0.00255804
4.59069e-05
0.00254871
3.83205e-05
0.00254089
3.20936e-05
0.0025343
2.70201e-05
0.0025287
2.29081e-05
0.00252389
1.95868e-05
0.00251973
1.6908e-05
0.00251609
1.47454e-05
0.00251286
1.29918e-05
0.00250997
1.15571e-05
0.00250735
1.03663e-05
0.00250498
9.35922e-06
0.00250281
8.49075e-06
0.00250082
7.7303e-06
0.00249899
7.05537e-06
0.0024973
6.4364e-06
0.00249575
5.81424e-06
0.00249438
5.08084e-06
0.00249323
4.08082e-06
0.00249241
2.64944e-06
0.00249204
6.86541e-07
0.00249224
-1.75768e-06
0.00249305
-4.42884e-06
0.00249444
-6.88833e-06
0.00249625
-8.62123e-06
0.0024982
-9.20259e-06
0.00249999
-8.45651e-06
0.00250134
-6.5374e-06
0.00250208
-3.89343e-06
0.00250218
-1.12543e-06
0.00250175
1.19963e-06
0.00250097
2.70556e-06
0.00250008
3.27974e-06
0.00249927
3.04952e-06
0.00249868
2.29043e-06
0.00249835
1.31461e-06
0.00249826
3.81888e-07
0.00249837
-3.45241e-07
0.0024986
-8.0447e-07
0.00249888
-1.00982e-06
0.00249916
-1.01876e-06
0.00249939
-9.0305e-07
0.00249958
-7.28748e-07
0.00249971
-5.45871e-07
0.0024998
-3.85426e-07
0.00249986
-2.61244e-07
0.0024999
-1.74392e-07
0.00249992
-1.18428e-07
0.00249994
-8.41544e-08
0.00249996
-6.30195e-08
0.00249997
-4.88429e-08
0.00249997
-3.8084e-08
0.00249998
-2.92211e-08
0.00249999
-2.18534e-08
0.00249999
-1.59605e-08
0.00249999
-1.14941e-08
0.00249999
-8.26431e-09
0.0025
-5.9907e-09
0.0025
-4.39185e-09
0.0025
-3.24512e-09
0.0025
-2.40124e-09
0.0025
-1.76974e-09
0.0025
-1.29604e-09
0.0025
-9.43523e-10
0.0025
-6.83997e-10
0.0025
-4.94379e-10
0.0025
-3.56144e-10
0.0025
-2.5517e-10
0.0025
-1.81182e-10
0.0025
-1.26873e-10
0.0025
-8.70378e-11
0.0025
-5.78911e-11
0.0025
-3.66388e-11
0.0025
-2.11967e-11
0.0025
-1.00207e-11
0.0025
-1.96812e-12
0.0025
3.7944e-12
0.0025
7.88206e-12
0.0025
1.07399e-11
0.0025
1.2701e-11
0.0025
1.40036e-11
0.0025
1.48298e-11
0.0025
1.53061e-11
0.0025
1.55331e-11
0.0025
1.55763e-11
0.0025
1.54925e-11
0.0025
1.53141e-11
0.0025
1.50744e-11
0.0025
1.47878e-11
0.0025
1.44752e-11
0.0025
1.41411e-11
0.0025
1.37998e-11
0.0025
1.34502e-11
0.0025
1.31036e-11
0.0025
1.27556e-11
0.0025
1.24156e-11
0.0025
1.20776e-11
0.0025
1.17504e-11
0.0025
1.14265e-11
0.0025
1.11146e-11
0.0025
1.08066e-11
0.0025
1.05109e-11
0.0025
1.0219e-11
0.0025
9.9395e-12
0.0025
9.66339e-12
0.0025
9.39946e-12
0.0025
9.13842e-12
0.0025
8.88924e-12
0.0025
8.64239e-12
0.0025
8.40705e-12
0.0025
8.17345e-12
0.0025
7.95101e-12
0.0025
7.72975e-12
0.0025
7.51935e-12
0.0025
7.30951e-12
0.0025
7.11051e-12
0.0025
6.91106e-12
0.0025
6.72353e-12
0.0025
6.53255e-12
0.0025
6.35913e-12
0.0025
6.17013e-12
0.0025
6.02509e-12
0.0025
5.80951e-12
0.0025
5.7617e-12
0.0025
5.39009e-12
0.0025
5.73246e-12
4.77041e-12
0.0025026
-1.3854e-05
0.00251048
-4.18777e-05
0.00252417
-7.20363e-05
0.00254449
-0.000105254
0.00257246
-0.000142014
0.00260905
-0.000181597
0.00265495
-0.000222153
0.00270967
-0.000258941
0.00277147
-0.000286801
0.00283618
-0.000298166
0.00289846
-0.000288948
0.00295514
-0.000264955
0.00300393
-0.000229268
0.0030431
-0.000184447
0.0030713
-0.000132566
0.00308727
-7.49374e-05
0.00309002
-1.34263e-05
0.00307912
4.90181e-05
0.00305515
0.000108236
0.00301988
0.000159545
0.00297612
0.000198893
0.00292725
0.000223975
0.00287663
0.000234694
0.00282708
0.000232833
0.00278068
0.00022128
0.0027387
0.000203243
0.00270172
0.000181668
0.0026698
0.000158923
0.00264269
0.000136709
0.00261992
0.000116111
0.00260092
9.77119e-05
0.00258515
8.17299e-05
0.00257207
6.81392e-05
0.00256121
5.6768e-05
0.00255216
4.73709e-05
0.00254457
3.96773e-05
0.00253817
3.34221e-05
0.00253272
2.83616e-05
0.00252802
2.42807e-05
0.00252394
2.09943e-05
0.00252034
1.83448e-05
0.00251713
1.61997e-05
0.00251424
1.44472e-05
0.00251161
1.29948e-05
0.0025092
1.17681e-05
0.00250698
1.07112e-05
0.00250493
9.78604e-06
0.00250302
8.96476e-06
0.00250124
8.21158e-06
0.0024996
7.45577e-06
0.00249811
6.56797e-06
0.00249683
5.36117e-06
0.00249585
3.63542e-06
0.00249527
1.2668e-06
0.0024952
-1.68828e-06
0.00249569
-4.9258e-06
0.00249672
-7.91597e-06
0.00249813
-1.00327e-05
0.00249969
-1.07557e-05
0.0025011
-9.86637e-06
0.00250211
-7.54893e-06
0.00250256
-4.34839e-06
0.00250244
-9.99012e-07
0.00250183
1.80406e-06
0.00250094
3.59808e-06
0.00249998
4.24357e-06
0.00249913
3.89686e-06
0.00249852
2.89869e-06
0.0024982
1.63732e-06
0.00249814
4.38404e-07
0.00249829
-4.92301e-07
0.00249856
-1.07469e-06
0.00249888
-1.3264e-06
0.00249918
-1.3224e-06
0.00249943
-1.15757e-06
0.00249962
-9.20061e-07
0.00249976
-6.76518e-07
0.00249984
-4.67513e-07
0.00249989
-3.09905e-07
0.00249991
-2.0317e-07
0.00249993
-1.37007e-07
0.00249995
-9.80967e-08
0.00249996
-7.47205e-08
0.00249997
-5.88789e-08
0.00249998
-4.63546e-08
0.00249998
-3.56268e-08
0.00249999
-2.65297e-08
0.00249999
-1.92371e-08
0.00249999
-1.37598e-08
0.0025
-9.8556e-09
0.0025
-7.14485e-09
0.0025
-5.25336e-09
0.0025
-3.89587e-09
0.0025
-2.89034e-09
0.0025
-2.13238e-09
0.0025
-1.56139e-09
0.0025
-1.13628e-09
0.0025
-8.23977e-10
0.0025
-5.96422e-10
0.0025
-4.30828e-10
0.0025
-3.099e-10
0.0025
-2.21209e-10
0.0025
-1.56027e-10
0.0025
-1.08167e-10
0.0025
-7.31283e-11
0.0025
-4.75689e-11
0.0025
-2.89852e-11
0.0025
-1.55192e-11
0.0025
-5.79747e-12
0.0025
1.18059e-12
0.0025
6.15139e-12
0.0025
9.64874e-12
0.0025
1.20708e-11
0.0025
1.37038e-11
0.0025
1.47653e-11
0.0025
1.54076e-11
0.0025
1.57502e-11
0.0025
1.58725e-11
0.0025
1.58414e-11
0.0025
1.56967e-11
0.0025
1.5477e-11
0.0025
1.52007e-11
0.0025
1.48915e-11
0.0025
1.45561e-11
0.0025
1.421e-11
0.0025
1.38537e-11
0.0025
1.34986e-11
0.0025
1.31413e-11
0.0025
1.27915e-11
0.0025
1.24435e-11
0.0025
1.2106e-11
0.0025
1.17722e-11
0.0025
1.14502e-11
0.0025
1.11326e-11
0.0025
1.08273e-11
0.0025
1.05264e-11
0.0025
1.02378e-11
0.0025
9.95317e-12
0.0025
9.68073e-12
0.0025
9.41169e-12
0.0025
9.15454e-12
0.0025
8.90021e-12
0.0025
8.65737e-12
0.0025
8.41677e-12
0.0025
8.18728e-12
0.0025
7.95944e-12
0.0025
7.74241e-12
0.0025
7.52638e-12
0.0025
7.32118e-12
0.0025
7.11587e-12
0.0025
6.92259e-12
0.0025
6.72597e-12
0.0025
6.54741e-12
0.0025
6.35282e-12
0.0025
6.20313e-12
0.0025
5.98284e-12
0.0025
5.92528e-12
0.0025
5.56326e-12
0.0025
5.84438e-12
4.96182e-12
0.00250244
-1.62909e-05
0.00250984
-4.92855e-05
0.00252284
-8.50362e-05
0.00254241
-0.000124824
0.00256983
-0.000169435
0.00260647
-0.000218232
0.00265347
-0.000269148
0.00271067
-0.000316151
0.0027765
-0.000352631
0.00284582
-0.000367479
0.00291198
-0.000355109
0.00297176
-0.000324733
0.00302295
-0.000280461
0.003064
-0.000225498
0.00309364
-0.000162209
0.00311051
-9.18044e-05
0.00311337
-1.62801e-05
0.00310156
6.08283e-05
0.00307557
0.000134219
0.00303734
0.000197774
0.00299007
0.000246163
0.00293764
0.00027641
0.00288383
0.000288508
0.00283174
0.000284914
0.00278356
0.000269459
0.00274052
0.000246291
0.00270306
0.000219122
0.00267112
0.000190868
0.00264426
0.000163565
0.00262191
0.000138466
0.00260341
0.000116211
0.00258814
9.6999e-05
0.00257553
8.07473e-05
0.00256509
6.72099e-05
0.0025564
5.60639e-05
0.00254911
4.69666e-05
0.00254294
3.9589e-05
0.00253767
3.36334e-05
0.00253311
2.88401e-05
0.00252912
2.49868e-05
0.00252558
2.18859e-05
0.0025224
1.93798e-05
0.00251951
1.73363e-05
0.00251686
1.56457e-05
0.0025144
1.422e-05
0.00251212
1.29933e-05
0.00250999
1.19201e-05
0.00250799
1.09673e-05
0.0025061
1.00935e-05
0.00250434
9.21796e-06
0.00250272
8.19337e-06
0.00250127
6.80557e-06
0.00250008
4.8238e-06
0.00249925
2.10228e-06
0.00249886
-1.29889e-06
0.00249897
-5.0339e-06
0.00249954
-8.49354e-06
0.00250046
-1.0953e-05
0.00250151
-1.1806e-05
0.00250244
-1.07943e-05
0.00250302
-8.12837e-06
0.00250311
-4.44065e-06
0.0025027
-5.87277e-07
0.00250189
2.61882e-06
0.00250085
4.63504e-06
0.0024998
5.29725e-06
0.0024989
4.78974e-06
0.00249829
3.51624e-06
0.00249798
1.93987e-06
0.00249797
4.52652e-07
0.00249817
-6.94769e-07
0.0024985
-1.40322e-06
0.00249887
-1.69449e-06
0.00249921
-1.66372e-06
0.00249949
-1.43312e-06
0.00249968
-1.11703e-06
0.00249981
-8.01719e-07
0.00249988
-5.38362e-07
0.00249991
-3.46202e-07
0.00249993
-2.21485e-07
0.00249994
-1.48244e-07
0.00249995
-1.0767e-07
0.00249996
-8.41857e-08
0.00249997
-6.78674e-08
0.00249998
-5.40604e-08
0.00249999
-4.15745e-08
0.00249999
-3.07381e-08
0.00249999
-2.20546e-08
0.00249999
-1.56266e-08
0.0025
-1.11393e-08
0.0025
-8.08282e-09
0.0025
-5.97077e-09
0.0025
-4.45069e-09
0.0025
-3.31268e-09
0.0025
-2.44584e-09
0.0025
-1.7893e-09
0.0025
-1.3006e-09
0.0025
-9.42857e-10
0.0025
-6.83263e-10
0.0025
-4.94815e-10
0.0025
-3.57214e-10
0.0025
-2.56151e-10
0.0025
-1.81748e-10
0.0025
-1.27055e-10
0.0025
-8.69975e-11
0.0025
-5.77746e-11
0.0025
-3.65217e-11
0.0025
-2.11079e-11
0.0025
-9.96184e-12
0.0025
-1.94109e-12
0.0025
3.79249e-12
0.0025
7.84727e-12
0.0025
1.0676e-11
0.0025
1.26058e-11
0.0025
1.38837e-11
0.0025
1.46842e-11
0.0025
1.51425e-11
0.0025
1.53499e-11
0.0025
1.53813e-11
0.0025
1.52833e-11
0.0025
1.50985e-11
0.0025
1.48489e-11
0.0025
1.45602e-11
0.0025
1.42412e-11
0.0025
1.39082e-11
0.0025
1.35631e-11
0.0025
1.32174e-11
0.0025
1.28687e-11
0.0025
1.25263e-11
0.0025
1.21855e-11
0.0025
1.18545e-11
0.0025
1.15272e-11
0.0025
1.12112e-11
0.0025
1.08997e-11
0.0025
1.06e-11
0.0025
1.03049e-11
0.0025
1.00217e-11
0.0025
9.74258e-12
0.0025
9.47527e-12
0.0025
9.2116e-12
0.0025
8.95937e-12
0.0025
8.7102e-12
0.0025
8.47208e-12
0.0025
8.23644e-12
0.0025
8.01147e-12
0.0025
7.7884e-12
0.0025
7.5757e-12
0.0025
7.36425e-12
0.0025
7.16321e-12
0.0025
6.96229e-12
0.0025
6.77304e-12
0.0025
6.58063e-12
0.0025
6.40589e-12
0.0025
6.21558e-12
0.0025
6.06837e-12
0.0025
5.85513e-12
0.0025
5.78895e-12
0.0025
5.45684e-12
0.0025
5.6611e-12
4.90379e-12
0.00250223
-1.85167e-05
0.00250902
-5.60768e-05
0.00252109
-9.71064e-05
0.00253961
-0.000143342
0.00256617
-0.000195996
0.00260264
-0.000254704
0.00265081
-0.000317316
0.00271105
-0.00037639
0.00278208
-0.000423661
0.00285733
-0.000442731
0.0029283
-0.000426079
0.00299177
-0.000388209
0.00304579
-0.000334478
0.00308907
-0.000268776
0.00312049
-0.000193632
0.00313855
-0.000109864
0.00314167
-1.93971e-05
0.00312882
7.36791e-05
0.00310033
0.000162704
0.00305835
0.00023976
0.00300661
0.000297905
0.00294966
0.000333358
0.00289187
0.000346298
0.00283669
0.00034009
0.0027864
0.00031975
0.00274215
0.000290543
0.00270422
0.000257051
0.00267233
0.000222762
0.00264586
0.000190033
0.00262407
0.000160251
0.00260621
0.00013407
0.00259158
0.000111632
0.00257956
9.27683e-05
0.00256963
7.71364e-05
0.00256138
6.43215e-05
0.00255444
5.38993e-05
0.00254856
4.54724e-05
0.00254351
3.86869e-05
0.00253911
3.32378e-05
0.00253523
2.88668e-05
0.00253176
2.53567e-05
0.00252861
2.2526e-05
0.00252572
2.02229e-05
0.00252305
1.83216e-05
0.00252055
1.67215e-05
0.00251819
1.53468e-05
0.00251597
1.41453e-05
0.00251386
1.30787e-05
0.00251185
1.21005e-05
0.00250995
1.1122e-05
0.00250816
9.98117e-06
0.00250652
8.44206e-06
0.0025051
6.24843e-06
0.00250396
3.23558e-06
0.0025032
-5.34932e-07
0.00250285
-4.68415e-06
0.00250289
-8.53734e-06
0.00250323
-1.12864e-05
0.00250367
-1.22516e-05
0.00250402
-1.11398e-05
0.00250407
-8.18402e-06
0.00250373
-4.09311e-06
0.00250297
1.6944e-07
0.0025019
3.68623e-06
0.00250069
5.84342e-06
0.00249954
6.45514e-06
0.00249859
5.73221e-06
0.00249797
4.13852e-06
0.0024977
2.21061e-06
0.00249775
4.07737e-07
0.00249802
-9.72117e-07
0.00249843
-1.80897e-06
0.00249886
-2.12952e-06
0.00249925
-2.05284e-06
0.00249955
-1.73405e-06
0.00249976
-1.31933e-06
0.00249987
-9.18234e-07
0.00249993
-5.93722e-07
0.00249995
-3.66309e-07
0.00249995
-2.26666e-07
0.00249996
-1.50713e-07
0.00249996
-1.12387e-07
0.00249997
-9.14333e-08
0.00249998
-7.59789e-08
0.00249998
-6.13247e-08
0.00249999
-4.70821e-08
0.00249999
-3.4417e-08
0.00249999
-2.43219e-08
0.0025
-1.70128e-08
0.0025
-1.20593e-08
0.0025
-8.77314e-09
0.0025
-6.5285e-09
0.0025
-4.90143e-09
0.0025
-3.66236e-09
0.0025
-2.70454e-09
0.0025
-1.97449e-09
0.0025
-1.43191e-09
0.0025
-1.03704e-09
0.0025
-7.52219e-10
0.0025
-5.46105e-10
0.0025
-3.95564e-10
0.0025
-2.84742e-10
0.0025
-2.0296e-10
0.0025
-1.42766e-10
0.0025
-9.86748e-11
0.0025
-6.65225e-11
0.0025
-4.3144e-11
0.0025
-2.61799e-11
0.0025
-1.38971e-11
0.0025
-5.0402e-12
0.0025
1.30846e-12
0.0025
5.81571e-12
0.0025
8.97732e-12
0.0025
1.1153e-11
0.0025
1.26133e-11
0.0025
1.35504e-11
0.0025
1.41117e-11
0.0025
1.43982e-11
0.0025
1.4491e-11
0.0025
1.44418e-11
0.0025
1.42964e-11
0.0025
1.40799e-11
0.0025
1.38192e-11
0.0025
1.3525e-11
0.0025
1.32141e-11
0.0025
1.28894e-11
0.0025
1.25624e-11
0.0025
1.22317e-11
0.0025
1.19062e-11
0.0025
1.1582e-11
0.0025
1.12666e-11
0.0025
1.09549e-11
0.0025
1.06536e-11
0.0025
1.03568e-11
0.0025
1.00712e-11
0.0025
9.79004e-12
0.0025
9.52015e-12
0.0025
9.25448e-12
0.0025
8.99985e-12
0.0025
8.74896e-12
0.0025
8.50879e-12
0.0025
8.27182e-12
0.0025
8.04517e-12
0.0025
7.82117e-12
0.0025
7.60711e-12
0.0025
7.39514e-12
0.0025
7.19282e-12
0.0025
6.99195e-12
0.0025
6.8008e-12
0.0025
6.60999e-12
0.0025
6.43014e-12
0.0025
6.24744e-12
0.0025
6.08138e-12
0.0025
5.90089e-12
0.0025
5.75993e-12
0.0025
5.56024e-12
0.0025
5.48697e-12
0.0025
5.19293e-12
0.0025
5.3243e-12
4.69842e-12
0.00250196
-2.04733e-05
0.00250796
-6.20782e-05
0.00251881
-0.000107958
0.00253589
-0.000160422
0.00256116
-0.000221261
0.00259711
-0.000290662
0.0026464
-0.000366602
0.00271022
-0.000440209
0.0027879
-0.000501341
0.00287072
-0.000525551
0.00294748
-0.000502839
0.00301522
-0.000455951
0.00307243
-0.000391682
0.00311825
-0.000314601
0.00315179
-0.000227173
0.00317134
-0.000129412
0.00317485
-2.29112e-05
0.00316081
8.77194e-05
0.00312933
0.000194191
0.00308276
0.000286327
0.00302554
0.000355125
0.00296308
0.000395815
0.00290049
0.000408891
0.00284164
0.000398935
0.00278892
0.00037247
0.00274336
0.000336111
0.00270499
0.000295419
0.00267327
0.000254482
0.00264735
0.000215951
0.00262631
0.000181295
0.00260925
0.000151126
0.0025954
0.000125486
0.00258408
0.000104081
0.00257477
8.64483e-05
0.00256703
7.20642e-05
0.00256052
6.04133e-05
0.00255496
5.10243e-05
0.00255016
4.34855e-05
0.00254596
3.74469e-05
0.00254221
3.26148e-05
0.00253882
2.87443e-05
0.00253572
2.56308e-05
0.00253283
2.3104e-05
0.00253013
2.10236e-05
0.00252758
1.92768e-05
0.00252514
1.77792e-05
0.00252282
1.64719e-05
0.00252058
1.53121e-05
0.00251844
1.42487e-05
0.00251637
1.31865e-05
0.0025144
1.19529e-05
0.00251255
1.02957e-05
0.00251086
7.93958e-06
0.00250939
4.70492e-06
0.0025082
6.53264e-07
0.00250733
-3.81242e-06
0.00250676
-7.96777e-06
0.00250641
-1.09402e-05
0.00250615
-1.19919e-05
0.00250581
-1.08028e-05
0.00250525
-7.62441e-06
0.00250439
-3.22919e-06
0.00250323
1.32984e-06
0.00250187
5.04734e-06
0.00250046
7.24898e-06
0.00249919
7.73053e-06
0.00249819
6.72726e-06
0.00249757
4.75962e-06
0.00249735
2.43585e-06
0.00249747
2.84153e-07
0.00249784
-1.34664e-06
0.00249835
-2.31323e-06
0.00249887
-2.64828e-06
0.00249931
-2.49993e-06
0.00249964
-2.06375e-06
0.00249985
-1.52494e-06
0.00249995
-1.02102e-06
0.00249999
-6.27887e-07
0.00249999
-3.65519e-07
0.00249997
-2.15724e-07
0.00249997
-1.43065e-07
0.00249997
-1.12017e-07
0.00249997
-9.67551e-08
0.00249998
-8.35788e-08
0.00249999
-6.83677e-08
0.00249999
-5.21919e-08
0.00249999
-3.74929e-08
0.0025
-2.59296e-08
0.0025
-1.78258e-08
0.0025
-1.25584e-08
0.0025
-9.18923e-09
0.0025
-6.91744e-09
0.0025
-5.24508e-09
0.0025
-3.93658e-09
0.0025
-2.9045e-09
0.0025
-2.11244e-09
0.0025
-1.52616e-09
0.0025
-1.10343e-09
0.0025
-8.01114e-10
0.0025
-5.83185e-10
0.0025
-4.23826e-10
0.0025
-3.06073e-10
0.0025
-2.18887e-10
0.0025
-1.54626e-10
0.0025
-1.07573e-10
0.0025
-7.33e-11
0.0025
-4.8398e-11
0.0025
-3.03254e-11
0.0025
-1.72267e-11
0.0025
-7.76559e-12
0.0025
-9.69872e-13
0.0025
3.86814e-12
0.0025
7.27468e-12
0.0025
9.63324e-12
0.0025
1.12311e-11
0.0025
1.22737e-11
0.0025
1.29168e-11
0.0025
1.32684e-11
0.0025
1.34137e-11
0.0025
1.34086e-11
0.0025
1.33005e-11
0.0025
1.31171e-11
0.0025
1.28857e-11
0.0025
1.26188e-11
0.0025
1.23329e-11
0.0025
1.20323e-11
0.0025
1.17279e-11
0.0025
1.14194e-11
0.0025
1.11149e-11
0.0025
1.08115e-11
0.0025
1.05161e-11
0.0025
1.02241e-11
0.0025
9.94177e-12
0.0025
9.66386e-12
0.0025
9.39623e-12
0.0025
9.13313e-12
0.0025
8.88039e-12
0.0025
8.63192e-12
0.0025
8.39362e-12
0.0025
8.15913e-12
0.0025
7.93448e-12
0.0025
7.71313e-12
0.0025
7.50122e-12
0.0025
7.2921e-12
0.0025
7.09205e-12
0.0025
6.89425e-12
0.0025
6.70526e-12
0.0025
6.51789e-12
0.0025
6.33939e-12
0.0025
6.16146e-12
0.0025
5.99357e-12
0.0025
5.82327e-12
0.0025
5.66818e-12
0.0025
5.50028e-12
0.0025
5.36734e-12
0.0025
5.18416e-12
0.0025
5.1058e-12
0.0025
4.85051e-12
0.0025
4.92236e-12
4.41369e-12
0.00250162
-2.20938e-05
0.00250663
-6.7088e-05
0.00251592
-0.000117245
0.00253107
-0.000175574
0.00255444
-0.000244632
0.00258933
-0.000325555
0.00263948
-0.000416754
0.00270743
-0.000508153
0.0027936
-0.000587514
0.00288603
-0.000617979
0.00296963
-0.000586445
0.00304212
-0.000528441
0.00310275
-0.000452307
0.00315137
-0.000363226
0.00318744
-0.000263236
0.00320897
-0.000150949
0.00321326
-2.71948e-05
0.00319797
0.000103004
0.00316285
0.000229309
0.0031106
0.000338584
0.00304658
0.000419144
0.00297738
0.000465012
0.00290905
0.000477224
0.00284595
0.000462029
0.00279055
0.000427876
0.00274365
0.000383008
0.00270498
0.00033409
0.00267364
0.00028582
0.00264851
0.000241088
0.00262843
0.000201375
0.00261237
0.000167181
0.00259946
0.000138392
0.002589
0.000114549
0.00258041
9.5037e-05
0.00257326
7.92072e-05
0.00256723
6.64426e-05
0.00256206
5.61941e-05
0.00255756
4.7991e-05
0.00255357
4.14387e-05
0.00254997
3.62102e-05
0.00254668
3.2034e-05
0.00254363
2.86848e-05
0.00254076
2.5975e-05
0.00253803
2.37504e-05
0.00253542
2.18878e-05
0.0025329
2.0295e-05
0.00253047
1.89074e-05
0.0025281
1.76778e-05
0.0025258
1.65512e-05
0.00252356
1.54276e-05
0.00252138
1.41273e-05
0.00251929
1.23882e-05
0.00251731
9.92322e-06
0.00251547
6.54336e-06
0.00251381
2.30961e-06
0.00251236
-2.36025e-06
0.0025111
-6.71001e-06
0.00250999
-9.82476e-06
0.00250893
-1.09285e-05
0.00250781
-9.68406e-06
0.00250654
-6.35874e-06
0.00250508
-1.77336e-06
0.00250346
2.95099e-06
0.00250177
6.74125e-06
0.00250014
8.87552e-06
0.00249874
9.1349e-06
0.00249769
7.77604e-06
0.00249708
5.37125e-06
0.00249692
2.59881e-06
0.00249714
5.86267e-08
0.00249764
-1.84442e-06
0.00249827
-2.94027e-06
0.00249889
-3.26907e-06
0.0024994
-3.01493e-06
0.00249976
-2.42388e-06
0.00249997
-1.72944e-06
0.00250005
-1.1027e-06
0.00250005
-6.33403e-07
0.00250003
-3.3818e-07
0.0025
-1.85444e-07
0.00249998
-1.24183e-07