/*--------------------------------*- C++ -*----------------------------------*\
  =========                 |
  \\      /  F ield         | OpenFOAM: The Open Source CFD Toolbox
   \\    /   O peration     | Website:  https://openfoam.org
    \\  /    A nd           | Version:  11
     \\/     M anipulation  |
\*---------------------------------------------------------------------------*/
FoamFile
{
    format      ascii;
    class       volScalarField;
    location    "16.497324";
    object      p;
}
// * * * * * * * * * * * * * * * * * * * * * * * * * * * * * * * * * * * * * //

dimensions      [0 2 -2 0 0 0 0];

internalField   nonuniform List<scalar> 
7132
(
0.085421
0.0841303
0.0796947
0.07334
0.0645747
0.0533464
0.0398109
0.0244007
0.00800916
-0.00781926
-0.0214234
-0.0306636
-0.0348471
-0.0338181
-0.0281066
-0.0192604
-0.0089842
0.00117165
0.0100464
0.0170243
0.0221483
0.0260882
0.0296939
0.0334691
0.0374216
0.0413072
0.0448914
0.0480893
0.0509602
0.0535754
0.0558782
0.0575019
0.0578545
0.0566003
0.0541966
0.051811
0.0504664
0.0504128
0.0511795
0.0521389
0.0528933
0.0533748
0.0537534
0.0542561
0.0549218
0.0553229
0.0546651
0.0524579
0.0492262
0.0463666
0.0450518
0.0454269
0.0467245
0.0480324
0.0488266
0.049059
0.0489928
0.0489719
0.0491197
0.0490685
0.0480794
0.0457039
0.0424638
0.0397243
0.0386679
0.0394447
0.0412136
0.0429153
0.0439202
0.0441654
0.0439504
0.0436548
0.0434136
0.0429174
0.0415898
0.0391677
0.0361979
0.0338554
0.0331208
0.0341064
0.0360549
0.0379483
0.0391176
0.0394474
0.0392124
0.0387712
0.0382394
0.0373672
0.03577
0.0334086
0.0308758
0.029128
0.0288496
0.0300213
0.0319777
0.0338624
0.0350801
0.0354846
0.0352838
0.0347792
0.0340797
0.0330221
0.0313912
0.0292876
0.0272735
0.0260916
0.0261869
0.0274428
0.0292803
0.0310094
0.0321467
0.0325499
0.0323613
0.0318156
0.0310186
0.0298853
0.0283164
0.0264734
0.0248608
0.024074
0.0244272
0.0257674
0.0275797
0.0292748
0.0304341
0.0309083
0.0307749
0.030198
0.0292612
0.027917
0.0261203
0.0240526
0.0222005
0.0211535
0.0212642
0.0224475
0.0242368
0.0260358
0.027365
0.0279762
0.0278364
0.0270263
0.0256091
0.0235524
0.020787
0.0173625
0.0136234
0.010131
0.00751183
0.00604927
0.00577422
0.00616898
0.0069406
0.00732233
0.00748369
0.00679237
0.00578367
0.00454998
0.00194271
0.00266293
0.0859424
0.0846572
0.0802413
0.0738978
0.0651215
0.053832
0.0401593
0.0245063
0.00777188
-0.00846329
-0.0224532
-0.0318874
-0.0361035
-0.0349301
-0.0288918
-0.0196464
-0.00899506
0.00143955
0.0104552
0.0174252
0.0224193
0.026184
0.0296515
0.0333616
0.0373082
0.0412202
0.0448446
0.0480878
0.0510067
0.0536685
0.0560149
0.0576647
0.0579941
0.0566436
0.0540901
0.0515704
0.0501622
0.0501223
0.0509425
0.0519617
0.0527681
0.053292
0.0537048
0.0542347
0.0549243
0.0553343
0.0546419
0.0523372
0.0489683
0.0459976
0.0446506
0.0450754
0.0464635
0.0478604
0.0487226
0.0489998
0.0489589
0.0489488
0.0490961
0.0490238
0.0479758
0.0454981
0.042137
0.0393079
0.0382344
0.0390709
0.0409443
0.0427538
0.0438429
0.0441402
0.0439491
0.0436577
0.0434036
0.042867
0.0414601
0.038928
0.035851
0.0334458
0.0327149
0.0337652
0.035814
0.037813
0.0390696
0.039456
0.0392462
0.0388053
0.0382504
0.0373238
0.0356374
0.0331688
0.030546
0.02876
0.028505
0.0297483
0.0317984
0.033775
0.0350677
0.0355222
0.0353435
0.0348347
0.0341038
0.0329838
0.0312641
0.0290654
0.0269811
0.0257791
0.0259085
0.027237
0.0291609
0.030969
0.0321673
0.0326095
0.0324364
0.0318818
0.0310482
0.0298492
0.0281939
0.0262651
0.0245946
0.0237979
0.0241901
0.0256037
0.0275005
0.0292713
0.0304871
0.030996
0.0308756
0.0302879
0.0293116
0.0278972
0.0260081
0.0238478
0.0219303
0.020866
0.0210117
0.0222709
0.0241551
0.0260457
0.0274479
0.0281076
0.027991
0.0271783
0.0257284
0.0236044
0.02074
0.0172018
0.013362
0.00980957
0.00718689
0.00577487
0.00558942
0.00608601
0.00695435
0.00739899
0.0076038
0.00690089
0.00588576
0.00460175
0.00190083
0.00281458
0.0869827
0.08571
0.0813358
0.07502
0.0662273
0.0548216
0.0408791
0.0247381
0.00730704
-0.00976487
-0.0245495
-0.0343725
-0.038647
-0.0371678
-0.0304454
-0.0203745
-0.00895568
0.00204245
0.0113341
0.018271
0.022979
0.0263674
0.0295424
0.033118
0.0370551
0.0410233
0.0447304
0.048065
0.0510802
0.053837
0.056275
0.0579824
0.0582676
0.0567183
0.0538522
0.0510523
0.0495152
0.0495091
0.0504446
0.0515881
0.0524991
0.0531053
0.0535835
0.0541668
0.0549054
0.0553342
0.0545708
0.0520637
0.0484081
0.0452049
0.0437947
0.0443301
0.0459119
0.0474945
0.0484948
0.0488591
0.0488648
0.0488749
0.0490229
0.0489101
0.0477415
0.0450505
0.0414374
0.038424
0.037318
0.0382816
0.040374
0.0424067
0.0436666
0.0440658
0.0439184
0.0436337
0.0433559
0.0427418
0.0411783
0.0384259
0.0351331
0.0326024
0.0318805
0.0330633
0.0353157
0.0375269
0.0389564
0.0394526
0.0392906
0.0388506
0.0382516
0.0372176
0.0353524
0.0326673
0.0298634
0.0280016
0.0277972
0.029189
0.0314303
0.0335918
0.0350329
0.0355845
0.0354489
0.0349329
0.0341399
0.032894
0.0309925
0.0285981
0.0263698
0.0251278
0.0253292
0.0268093
0.0289111
0.0308806
0.0322016
0.0327216
0.0325803
0.0320096
0.0311028
0.0297686
0.0279327
0.0258235
0.0240315
0.0232137
0.0236882
0.0252555
0.0273278
0.0292545
0.0305859
0.0311661
0.0310737
0.0304666
0.0294109
0.0278506
0.025767
0.0234099
0.0213529
0.0202509
0.0204702
0.0218889
0.0239712
0.0260517
0.0276046
0.0283638
0.0282955
0.0274796
0.0259647
0.023702
0.0206312
0.0168546
0.0128038
0.00912566
0.0064968
0.00519239
0.00519634
0.00590636
0.0069757
0.00755032
0.007845
0.00711763
0.00609506
0.00469658
0.00183834
0.00305947
0.0885373
0.0872856
0.0829818
0.0767185
0.0679158
0.0563507
0.0420136
0.0251328
0.00662682
-0.0117665
-0.027813
-0.0382404
-0.0426223
-0.0406861
-0.0328943
-0.0215287
-0.00890753
0.00297285
0.0126968
0.0195758
0.0238189
0.0266009
0.0293165
0.0326956
0.0366338
0.0406976
0.0445327
0.0480032
0.0511609
0.0540595
0.0566372
0.0584353
0.0586489
0.0567762
0.0534027
0.0501534
0.0484281
0.0485021
0.04964
0.0509868
0.0520591
0.052786
0.0533571
0.0540159
0.0548232
0.0552724
0.0543842
0.0515403
0.0474158
0.0438419
0.0423518
0.0430938
0.0450087
0.0468972
0.0481135
0.0486047
0.0486701
0.0486988
0.04884
0.0486624
0.0473084
0.0442889
0.0402844
0.0369828
0.0358277
0.036999
0.0394455
0.0418339
0.0433587
0.0439083
0.0438191
0.0435397
0.0432263
0.0424948
0.0406884
0.0375916
0.0339634
0.0312437
0.0305484
0.0319508
0.0345263
0.0370647
0.0387541
0.039412
0.03932
0.0388832
0.0382185
0.0370161
0.0348647
0.0318332
0.028743
0.0267689
0.026658
0.0282976
0.0308462
0.0332955
0.0349608
0.0356568
0.0355868
0.0350629
0.0341747
0.0327269
0.03053
0.0278191
0.0253613
0.0240617
0.0243878
0.026118
0.0285064
0.0307297
0.0322397
0.0328781
0.0327874
0.0321949
0.0311732
0.0296197
0.0274879
0.0250838
0.0230959
0.0222488
0.0228623
0.0246817
0.0270364
0.0292101
0.030722
0.031413
0.0313658
0.0307306
0.0295488
0.0277517
0.0253496
0.022671
0.020388
0.0192286
0.0195719
0.0212521
0.023654
0.0260363
0.0278254
0.0287392
0.028746
0.0279252
0.0263065
0.023821
0.0204176
0.016259
0.0118743
0.00800382
0.00537538
0.00425312
0.00456577
0.00561831
0.00700548
0.00778368
0.00821721
0.00744805
0.00642384
0.00481587
0.0018003
0.0032689
0.0905981
0.0893788
0.085183
0.0790111
0.0702231
0.058476
0.0436347
0.0257565
0.00576396
-0.0145164
-0.032368
-0.0436056
-0.0481106
-0.0455076
-0.0361649
-0.0229558
-0.00865072
0.00443854
0.0147224
0.0214559
0.0249674
0.0268293
0.0288727
0.0319894
0.0359564
0.040174
0.044195
0.0478518
0.0512002
0.0542887
0.0570587
0.0589872
0.0590967
0.0567429
0.0526133
0.0487084
0.0467362
0.046973
0.0484431
0.0500988
0.051398
0.0522813
0.0529629
0.0537047
0.0545845
0.0550467
0.0539742
0.0506417
0.0458307
0.0417121
0.04012
0.0412022
0.0436431
0.0459975
0.0475236
0.0481756
0.0482949
0.0483199
0.0484386
0.0481736
0.046573
0.0431096
0.038572
0.0348767
0.0336586
0.0351263
0.0380774
0.04097
0.0428622
0.0436084
0.0435865
0.043312
0.0429567
0.0420656
0.0399094
0.0363115
0.0322026
0.0292292
0.0286024
0.0303449
0.033389
0.0363833
0.0384232
0.0392941
0.0392965
0.0388716
0.0381205
0.0366747
0.034102
0.0305629
0.0270606
0.0249369
0.0249808
0.0269963
0.0299955
0.0328528
0.0348252
0.0357159
0.0357382
0.0352106
0.0341902
0.0324468
0.0298134
0.0266383
0.0238504
0.0224767
0.0229951
0.025096
0.0279016
0.0304877
0.0322625
0.0330663
0.0330499
0.032432
0.0312468
0.0293704
0.0268009
0.0239638
0.0216929
0.0208095
0.0216314
0.0238192
0.0265822
0.029109
0.0308768
0.0317253
0.0317454
0.031074
0.0297108
0.0275665
0.0246973
0.0215505
0.0189429
0.0177059
0.0182334
0.0202928
0.023153
0.0259646
0.0280868
0.0292179
0.0293313
0.028505
0.0267376
0.0239295
0.0200475
0.0153467
0.0104992
0.00637418
0.00376579
0.00291607
0.00367224
0.00520903
0.00704009
0.00810077
0.00872551
0.00789367
0.0068843
0.00493538
0.0018508
0.00326388
0.0931525
0.0919807
0.0879429
0.0819198
0.0731967
0.0612738
0.0458414
0.0267009
0.00475834
-0.0181133
-0.038456
-0.050759
-0.0554788
-0.0520325
-0.0405705
-0.0248447
-0.00826639
0.0064423
0.0174648
0.0239602
0.0264024
0.0269431
0.0280635
0.0308747
0.0349404
0.0393979
0.0436707
0.0475592
0.0511363
0.0544532
0.0574663
0.0595638
0.0595164
0.0564649
0.0512425
0.0464215
0.0441722
0.04473
0.0467332
0.0488431
0.0504472
0.0515149
0.0522977
0.0530791
0.053986
0.0544391
0.0531591
0.0492487
0.0435574
0.0386763
0.0369005
0.0384576
0.0416676
0.044697
0.046647
0.0474832
0.0476257
0.0476106
0.0476951
0.0473248
0.0453951
0.0413259
0.036079
0.0318968
0.0306509
0.0325508
0.0361839
0.0397423
0.0421071
0.0430936
0.0431486
0.0428884
0.0424898
0.0413814
0.0387308
0.034431
0.0296669
0.026375
0.0258871
0.0281347
0.0318314
0.0354305
0.0379167
0.0390536
0.0391813
0.0387846
0.0379214
0.0361338
0.0329707
0.0287345
0.0246812
0.022374
0.0226513
0.0251973
0.0288175
0.0322216
0.0345928
0.035733
0.0358803
0.0353559
0.0341568
0.0320009
0.0287622
0.0249555
0.021731
0.0202727
0.0210652
0.023676
0.0270485
0.0301207
0.0322448
0.0332663
0.0333522
0.0327042
0.0312942
0.0289695
0.0257975
0.0223749
0.0197321
0.0188127
0.0199247
0.0226117
0.0259224
0.0289194
0.0310257
0.0320836
0.0321953
0.0314757
0.0298623
0.0272402
0.0237365
0.0199656
0.0169364
0.0156101
0.0163923
0.0189588
0.0224261
0.0258022
0.0283605
0.0297761
0.03003
0.0291953
0.0272228
0.0239751
0.0194536
0.0140489
0.0086231
0.00420457
0.00165849
0.00118575
0.0025281
0.00469246
0.00709111
0.0085102
0.00937552
0.00845461
0.0074833
0.00502388
0.00205657
0.00282855
0.0961822
0.0950774
0.0912625
0.0854697
0.0768963
0.0648463
0.0487732
0.0281075
0.00369446
-0.0226528
-0.0463278
-0.0598854
-0.0648167
-0.0602482
-0.0459402
-0.0269108
-0.00740276
0.00933507
0.0212157
0.0272615
0.0281261
0.0267906
0.0266628
0.0291393
0.0334212
0.0382434
0.0428532
0.0470211
0.0508562
0.0544323
0.0577324
0.0600277
0.0597243
0.0556565
0.0488751
0.0427947
0.0403035
0.0414745
0.0443319
0.0471068
0.0491111
0.0503722
0.0511903
0.0518841
0.0527188
0.0531365
0.0516592
0.047138
0.040431
0.0345984
0.0325467
0.0346856
0.03892
0.0428677
0.0453734
0.0464081
0.0465288
0.0464483
0.0465085
0.0460117
0.0436223
0.0387152
0.0325359
0.0277791
0.026594
0.0291299
0.0336668
0.0380679
0.0410102
0.04228
0.0424309
0.0422079
0.0417638
0.0403582
0.037039
0.0318192
0.0262237
0.0225527
0.0222832
0.02522
0.0297776
0.0341459
0.0371783
0.0386375
0.0389295
0.0385825
0.0375728
0.0353247
0.0313856
0.0262605
0.0215262
0.0190098
0.0196032
0.0228391
0.0272585
0.0313555
0.0342217
0.0356704
0.0359802
0.0354655
0.0340304
0.0313288
0.0273057
0.0227025
0.0189452
0.0174008
0.018553
0.0218148
0.0259063
0.0295913
0.0321533
0.033449
0.0336676
0.0329805
0.0312724
0.0283597
0.0244141
0.0202592
0.0171677
0.0162214
0.0177088
0.0210247
0.025021
0.0286051
0.0311349
0.0324567
0.0326859
0.0319
0.0299557
0.0267144
0.0224082
0.017869
0.014338
0.0129226
0.0140325
0.0172285
0.0214434
0.025513
0.0286077
0.0303755
0.0308052
0.0299558
0.0277123
0.0238987
0.0185812
0.0123352
0.00625394
0.00153986
-0.000879771
-0.000866818
0.00119097
0.00410762
0.00717762
0.00901684
0.0101621
0.00912075
0.00821253
0.00504574
0.00246909
0.00175489
0.0996612
0.098648
0.0951383
0.0896858
0.0813896
0.069318
0.0526072
0.0301616
0.00267313
-0.0283391
-0.0564778
-0.0715834
-0.0769383
-0.0710341
-0.0528951
-0.029468
-0.00615924
0.0131704
0.0261141
0.0314625
0.0300605
0.0260594
0.0242853
0.0264795
0.0312126
0.0365953
0.0416437
0.0461216
0.0502097
0.0540324
0.0575872
0.0600522
0.0593868
0.0539469
0.0450279
0.0372215
0.0345309
0.0367807
0.0409936
0.0447437
0.0472673
0.0486947
0.0494061
0.0498297
0.0505028
0.0508962
0.0492026
0.0439153
0.0359887
0.0291015
0.0268315
0.0297321
0.0352586
0.0403761
0.043573
0.0448176
0.0448795
0.0447356
0.0447943
0.0441261
0.0411083
0.0351172
0.027791
0.0223772
0.0213469
0.0247465
0.0304377
0.0358679
0.0394887
0.0410858
0.0413635
0.0412095
0.0407091
0.0389107
0.0347502
0.0284211
0.0218551
0.0177602
0.0177778
0.021568
0.0271823
0.0324772
0.036152
0.0379896
0.0384885
0.0382116
0.0370124
0.0341806
0.0292937
0.0231209
0.0176106
0.014875
0.0158582
0.0199207
0.0252957
0.0302168
0.0336668
0.0354813
0.0359904
0.0354867
0.0337509
0.0303708
0.0254027
0.0198702
0.0155145
0.0138948
0.0154849
0.0195186
0.0244599
0.0288691
0.0319493
0.0335723
0.0339519
0.0332092
0.0311224
0.0274851
0.0226161
0.017615
0.0140265
0.0130733
0.0150136
0.0190682
0.0238653
0.0281354
0.0311626
0.0327978
0.0331668
0.0322887
0.0299274
0.0259332
0.0206837
0.0152713
0.0111938
0.00970519
0.0112088
0.0151327
0.0202052
0.0250704
0.0287836
0.0309621
0.031598
0.0307217
0.0281357
0.0236374
0.0174002
0.0102323
0.00348131
-0.00148325
-0.00369329
-0.00309725
-0.000228048
0.00352453
0.00733044
0.00962398
0.0110675
0.00986763
0.009036
0.00496005
0.00309572
-9.66192e-05
0.103553
0.102662
0.0995592
0.0945917
0.0867547
0.0748466
0.0575847
0.0331479
0.00190099
-0.0353514
-0.069372
-0.0860257
-0.0917718
-0.0842453
-0.0611386
-0.0321213
-0.00406892
0.0183881
0.0325089
0.0367253
0.0320601
0.0243611
0.0204427
0.0224984
0.0280377
0.0342507
0.0398629
0.0446687
0.0489593
0.0528715
0.0564016
0.0588786
0.057956
0.0512833
0.039922
0.029657
0.0263636
0.0301223
0.0363821
0.0415633
0.0447623
0.0462864
0.0466927
0.0466933
0.0471972
0.0476033
0.0455858
0.039237
0.0298101
0.0218026
0.0194848
0.023444
0.0305686
0.0371002
0.0411126
0.0425831
0.042575
0.0423934
0.0424707
0.0415707
0.0377702
0.0305158
0.0219058
0.0157772
0.0149592
0.0193968
0.0264593
0.033084
0.0374693
0.0394347
0.0398756
0.0398212
0.0392474
0.0369706
0.0318417
0.0242877
0.0166812
0.0121467
0.0124968
0.017248
0.0240564
0.0303948
0.0347853
0.0370478
0.0377913
0.0375982
0.0361664
0.0326504
0.026697
0.0193863
0.0130611
0.0101169
0.0115432
0.0165194
0.0229511
0.0287846
0.0328815
0.0351059
0.0358437
0.0353453
0.0332479
0.0290844
0.0230639
0.0165315
0.0115579
0.00988567
0.0119708
0.0168537
0.0227275
0.0279331
0.0315871
0.033578
0.0341392
0.0333177
0.0307782
0.0263102
0.0204207
0.0145178
0.0104255
0.00949421
0.0119426
0.0168031
0.022469
0.0274847
0.0310571
0.0330406
0.0335633
0.032562
0.0297081
0.024863
0.0185879
0.0122614
0.00763913
0.00610738
0.00805027
0.0127562
0.0187429
0.0244571
0.0288355
0.0314621
0.0323241
0.031402
0.028409
0.0231412
0.0159275
0.00784208
0.000483289
-0.00464163
-0.00655583
-0.00530946
-0.00158459
0.00302826
0.0075787
0.0103217
0.0120514
0.0106483
0.00988203
0.00472314
0.00387902
-0.00271444
0.107811
0.107078
0.104502
0.1002
0.0930679
0.0816079
0.0639925
0.0374281
0.00160629
-0.0441323
-0.0860132
-0.104508
-0.111185
-0.101749
-0.0717735
-0.0352841
-0.00117914
0.0251776
0.0406756
0.0431883
0.0338667
0.0208926
0.0142003
0.0164931
0.0235131
0.0309996
0.0373375
0.0424584
0.0467816
0.0502861
0.0531467
0.0552997
0.0543061
0.0471063
0.0337053
0.0204941
0.0158922
0.0211927
0.0301555
0.0373315
0.0414115
0.0429467
0.0428561
0.042359
0.0427447
0.0431744
0.0406819
0.0330341
0.0219238
0.0127432
0.0104962
0.0157845
0.0248014
0.0329587
0.0378847
0.0396011
0.0395362
0.0393508
0.0394585
0.0382803
0.0336173
0.0250431
0.0151276
0.00827497
0.00768489
0.0132332
0.0217845
0.0297025
0.0349022
0.0372613
0.0378941
0.0379605
0.0372993
0.0344985
0.0283587
0.019569
0.0109391
0.00598714
0.00668964
0.012432
0.0204794
0.0279035
0.0330371
0.0357454
0.0367552
0.0366505
0.0349575
0.0307097
0.0236578
0.0152131
0.00810382
0.00498437
0.00687796
0.0127869
0.020295
0.0270596
0.0318197
0.0344707
0.0354508
0.0349471
0.0324491
0.0274548
0.0203584
0.0128391
0.00728288
0.00559158
0.00819726
0.0139448
0.0207622
0.0267748
0.0310153
0.0333884
0.0341382
0.033214
0.0301742
0.0248293
0.0179039
0.0111203
0.00656387
0.00568978
0.00866618
0.0143397
0.0208742
0.026635
0.0307569
0.0330962
0.033772
0.0326203
0.0292297
0.0235004
0.0162026
0.00900036
0.00388549
0.00234836
0.00474897
0.0102326
0.0171185
0.0236669
0.0287043
0.0317823
0.0328716
0.0318812
0.0284416
0.0223826
0.0142294
0.00533021
-0.0024995
-0.00766049
-0.00920029
-0.00727947
-0.00272128
0.00270402
0.00794071
0.0110813
0.0130468
0.0113914
0.0106455
0.00429574
0.00469544
-0.00588068
0.112372
0.111839
0.109928
0.106514
0.100407
0.0898206
0.0722265
0.0435788
0.00228614
-0.0550623
-0.107278
-0.126725
-0.134368
-0.123165
-0.0845197
-0.0386612
0.00286804
0.0337792
0.0508024
0.0507597
0.0347706
0.0145105
0.00444336
0.00769799
0.0171877
0.0265449
0.0338174
0.0392122
0.0432007
0.0454807
0.0469328
0.048562
0.0477617
0.0403337
0.0251053
0.00908457
0.00314893
0.00998603
0.0221278
0.0318362
0.0370242
0.0385076
0.0377922
0.0367954
0.0371319
0.037584
0.0345277
0.0255361
0.0127659
0.00241988
0.000256493
0.00696715
0.018037
0.0279435
0.033832
0.0358064
0.0357044
0.0355421
0.0356909
0.0342375
0.0287488
0.0189456
0.00783007
0.000307169
-7.00379e-05
0.00654852
0.0165672
0.0257691
0.0317693
0.0345132
0.0353436
0.0355387
0.0347942
0.0314918
0.0244096
0.0144946
0.00495253
-0.000354507
0.000695024
0.00737439
0.0165942
0.025046
0.03088
0.034012
0.0352832
0.0352654
0.0333154
0.0283672
0.0202948
0.0108271
0.00303757
-0.0002026
0.00214944
0.00893258
0.0174394
0.0250639
0.030437
0.0334895
0.0347032
0.0341859
0.0312906
0.0255016
0.01741
0.00900977
0.00296262
0.00129482
0.00440616
0.0109601
0.0186454
0.0253961
0.0301759
0.0329076
0.0338349
0.032795
0.0292565
0.0230737
0.0151956
0.00763532
0.0027004
0.00191915
0.00540161
0.0118236
0.0191442
0.0255737
0.0301908
0.0328564
0.0336679
0.0323545
0.0284375
0.0218786
0.0136597
0.00570271
0.000194016
-0.00130487
0.0015351
0.00772613
0.0154138
0.0227006
0.0283245
0.0318119
0.0331072
0.0320306
0.0281503
0.0213647
0.0124162
0.00290269
-0.00519987
-0.0102544
-0.0113641
-0.00879645
-0.00349818
0.00261574
0.00840957
0.0118464
0.0139574
0.012
0.0112051
0.00366047
0.00538974
-0.00918755
0.117157
0.116868
0.115774
0.113502
0.108823
0.0996844
0.0827078
0.0522956
0.00437007
-0.0691352
-0.135266
-0.155982
-0.165822
-0.152292
-0.101108
-0.0426555
0.00815394
0.0446434
0.063119
0.0590957
0.0336616
0.0027846
-0.0113294
-0.00551154
0.00832974
0.0205753
0.029097
0.0346475
0.0376881
0.0378857
0.0376547
0.0389855
0.0386134
0.0306046
0.0133271
-0.00514912
-0.0119762
-0.00334359
0.0123161
0.0249609
0.0314525
0.0328639
0.0314751
0.030018
0.0303756
0.030885
0.0273233
0.0171693
0.00297331
-0.00842538
-0.01056
-0.00254126
0.0105211
0.022148
0.0289681
0.0311808
0.0310439
0.0309155
0.0311294
0.0294789
0.0233344
0.0125422
0.000453636
-0.00762053
-0.00781591
-0.000269115
0.0110486
0.0213932
0.0280912
0.0311565
0.0321546
0.032474
0.0316825
0.0279864
0.0201518
0.00934353
-0.000909908
-0.00647108
-0.00510231
0.00237922
0.01259
0.0218989
0.028304
0.031779
0.0332736
0.0333407
0.0311863
0.0256649
0.0167678
0.00649443
-0.00180339
-0.00509173
-0.00232359
0.00519718
0.0145229
0.0228363
0.0286929
0.0320686
0.0334828
0.0329556
0.0297257
0.0232769
0.0143808
0.00529574
-0.00110008
-0.00269659
0.000864463
0.00809064
0.0164754
0.0238062
0.0290072
0.0320278
0.0331024
0.0319581
0.0279899
0.0211072
0.0124623
0.00430781
-0.000882049
-0.00153866
0.00238539
0.00941793
0.0173543
0.0242918
0.0292826
0.0322011
0.0331171
0.0316589
0.0272964
0.020061
0.0111212
0.00260482
-0.00315991
-0.00457475
-0.00135032
0.00541154
0.0137196
0.0215626
0.0276267
0.0314303
0.0328871
0.0317226
0.02747
0.0201193
0.0106214
0.000771338
-0.00736488
-0.0121669
-0.0128215
-0.00968841
-0.00381418
0.00279073
0.00894593
0.0125336
0.014669
0.0123657
0.0114535
0.00284445
0.00583219
-0.0121508
0.122068
0.122071
0.121951
0.121112
0.118342
0.111465
0.0960554
0.0648243
0.00910713
-0.087615
-0.171645
-0.189214
-0.202495
-0.188879
-0.122039
-0.0477245
0.0142551
0.0571559
0.0768582
0.0662219
0.0264977
-0.0185501
-0.036308
-0.0248469
-0.00381297
0.012744
0.0229315
0.0284382
0.0298291
0.0273886
0.025616
0.0270726
0.0272736
0.0185242
-0.000670747
-0.0212251
-0.0287222
-0.0182208
0.00102913
0.0167676
0.0246578
0.0260013
0.023945
0.0220754
0.0225288
0.0232095
0.0193793
0.00845194
-0.00676
-0.0189864
-0.0211633
-0.012114
0.00264593
0.0157752
0.0233848
0.0257578
0.0255497
0.025448
0.0257779
0.024096
0.0175949
0.00618639
-0.00654286
-0.0149903
-0.0150405
-0.00678795
0.00552765
0.0167383
0.023928
0.0271812
0.0282746
0.028706
0.0279465
0.0240554
0.0157742
0.00441352
-0.00627302
-0.011955
-0.0103137
-0.00223482
0.00868061
0.0185643
0.0253174
0.0289882
0.0306333
0.0307905
0.0285424
0.0226736
0.013259
0.00249084
-0.0060858
-0.0093358
-0.00622497
0.00182609
0.0116954
0.0204275
0.0265547
0.0301181
0.0316761
0.0311643
0.0277319
0.0208584
0.0114502
0.00195419
-0.00460697
-0.00608336
-0.00216612
0.00552794
0.0143553
0.0220193
0.0274501
0.0306417
0.0318203
0.0306164
0.0263637
0.0190179
0.00988411
0.00138318
-0.00390638
-0.0044125
-0.000152951
0.00728357
0.0155818
0.0227835
0.0279582
0.0310132
0.0319953
0.0304468
0.0257967
0.0181323
0.00875711
-6.29243e-05
-0.00591669
-0.00720358
-0.0036823
0.00345388
0.0121231
0.0202578
0.0265437
0.0305197
0.0320745
0.0308495
0.0263628
0.0186997
0.00898044
-0.000874746
-0.00878441
-0.0131973
-0.0134055
-0.00984291
-0.00362356
0.00320957
0.0094768
0.0130412
0.0150671
0.0124058
0.0113313
0.00193129
0.00596576
-0.0143615
0.126991
0.127325
0.128332
0.129207
0.128911
0.125235
0.112778
0.0822968
0.0167603
-0.111613
-0.221758
-0.236998
-0.254912
-0.239999
-0.149684
-0.0542723
0.0214057
0.0709415
0.090286
0.0742416
0.0188022
-0.0454421
-0.0724799
-0.0533456
-0.0205936
0.0027265
0.0152163
0.0204106
0.0195153
0.0142476
0.0112282
0.013309
0.0143248
0.00520187
-0.0152258
-0.0373256
-0.0454909
-0.0335363
-0.0110904
0.00754705
0.0167636
0.0180188
0.0153073
0.0130607
0.0137001
0.0147659
0.0110707
-7.73663e-05
-0.015764
-0.0284983
-0.0307699
-0.0210689
-0.00510087
0.00912302
0.0172511
0.0196262
0.0192602
0.0191626
0.0196951
0.0182312
0.0117806
0.000231385
-0.0127263
-0.021323
-0.0212637
-0.012583
0.000325253
0.0120055
0.0193779
0.0226108
0.0236842
0.0242132
0.0236095
0.0198046
0.0114787
-8.77511e-06
-0.0107923
-0.0164383
-0.0145857
-0.00616788
0.00508092
0.0151605
0.0219507
0.0256054
0.027297
0.027562
0.0253888
0.0194863
0.00995265
-0.00092716
-0.00951133
-0.0126282
-0.00927356
-0.000956486
0.00910153
0.0178963
0.0240048
0.0275673
0.0291932
0.028751
0.0253154
0.0183399
0.0087936
-0.00078071
-0.00729503
-0.00860415
-0.00445572
0.00344411
0.0123822
0.020055
0.025458
0.0286606
0.0298939
0.0287125
0.0243927
0.0169048
0.00763285
-0.000918422
-0.00613388
-0.00647095
-0.00201481
0.00556291
0.0138983
0.021049
0.026158
0.0291977
0.0302071
0.0286629
0.0239533
0.0161853
0.00672552
-0.00209964
-0.00785644
-0.00897585
-0.00527244
0.00199303
0.0106998
0.0187922
0.0250199
0.0289826
0.030562
0.0293374
0.0248202
0.0171695
0.00761125
-0.00189062
-0.00931138
-0.0132176
-0.0130238
-0.00922028
-0.00294421
0.00380694
0.00990733
0.0132696
0.0150603
0.0120839
0.010844
0.00104446
0.00581218
-0.0155848
0.13179
0.132493
0.134746
0.137632
0.140386
0.141274
0.133752
0.108247
0.0306604
-0.151358
-0.284038
-0.282552
-0.315498
-0.307846
-0.187654
-0.0648159
0.026917
0.0779567
0.0935406
0.0756289
0.0153745
-0.0614536
-0.106527
-0.0875862
-0.0422685
-0.00984863
0.00582537
0.0105313
0.00690825
-0.00115429
-0.00503066
-0.00175846
0.00058574
-0.00810002
-0.0287327
-0.0516402
-0.0605117
-0.0478661
-0.023121
-0.00218308
0.00807027
0.00913438
0.00573881
0.00313021
0.00407264
0.00583513
0.00280436
-0.0079086
-0.023452
-0.03631
-0.0386947
-0.0287623
-0.0122041
0.00255155
0.0108013
0.0129321
0.0122695
0.0121447
0.0130025
0.0120725
0.00615281
-0.00499832
-0.0177258
-0.0262196
-0.0260815
-0.017279
-0.00425029
0.00741394
0.0145732
0.0175105
0.0184129
0.0190275
0.0187427
0.0153673
0.00746326
-0.00367273
-0.0141836
-0.0196245
-0.0176311
-0.0091667
0.00198712
0.0118126
0.0182598
0.0216341
0.0232457
0.0236507
0.021769
0.0162112
0.00701789
-0.00354566
-0.0118425
-0.0147289
-0.0112478
-0.0029677
0.00686898
0.0153074
0.0210503
0.0243831
0.0259899
0.0256986
0.0225134
0.0158217
0.0065653
-0.00271937
-0.00895948
-0.0100583
-0.00582672
0.0019762
0.0106401
0.0179406
0.0230091
0.0260333
0.0272728
0.0262298
0.0221168
0.0148671
0.00585428
-0.00242335
-0.00738017
-0.0075375
-0.00304938
0.00436664
0.0123649
0.0190986
0.0238507
0.0267002
0.0277036
0.0262934
0.021805
0.0143114
0.00515783
-0.00334982
-0.00881513
-0.00973358
-0.00598325
0.00113209
0.00950767
0.0171757
0.0230226
0.0267592
0.0282895
0.027157
0.0228619
0.0155928
0.00660154
-0.00218744
-0.00887247
-0.012183
-0.0116697
-0.00785916
-0.00185434
0.00448556
0.0101432
0.0131466
0.0146061
0.0114177
0.0100499
0.000308272
0.00544076
-0.0157603
0.136317
0.137401
0.140982
0.146038
0.152474
0.158889
0.159386
0.141517
0.051075
-0.181485
-0.39353
-0.362076
-0.404374
-0.405231
-0.238765
-0.0789706
0.0270231
0.0671986
0.074888
0.0492897
0.003349
-0.0719325
-0.132085
-0.120805
-0.0663988
-0.0244081
-0.00505571
-0.000982968
-0.00759603
-0.0183789
-0.0226524
-0.0174967
-0.0130183
-0.0202165
-0.0399168
-0.0627764
-0.0723113
-0.0598319
-0.034026
-0.011741
-0.000969152
-0.000323103
-0.00450242
-0.00747825
-0.00608084
-0.00323457
-0.0050046
-0.0145945
-0.0293618
-0.0419343
-0.0444148
-0.0346625
-0.0181851
-0.00355843
0.0043163
0.00587881
0.00473873
0.00455307
0.00588744
0.00584641
0.000968026
-0.00923029
-0.0212604
-0.0293915
-0.0291985
-0.0205841
-0.00793238
0.00318187
0.00967544
0.0119952
0.0125527
0.013246
0.013469
0.0108984
0.00390833
-0.00638298
-0.0162457
-0.0213118
-0.0192524
-0.0110455
-0.000439027
0.00864648
0.0143307
0.0171294
0.0185232
0.0191128
0.0177674
0.0129649
0.00459583
-0.00521048
-0.0129223
-0.0154844
-0.0120042
-0.00408066
0.00509983
0.0127324
0.0177324
0.0205863
0.022085
0.0220447
0.0193947
0.0134028
0.00488512
-0.00373221
-0.00947047
-0.0103224
-0.00616833
0.00121587
0.00919565
0.0157158
0.0201195
0.022763
0.0239649
0.0231989
0.0195981
0.012995
0.00465601
-0.00301744
-0.00753366
-0.00750833
-0.00316596
0.00376662
0.0110312
0.0169601
0.0210464
0.0235235
0.0244956
0.0233705
0.0194113
0.0125923
0.00414891
-0.0037144
-0.00869636
-0.00938796
-0.00573827
0.000930542
0.00858607
0.0154276
0.0205541
0.0238425
0.0252553
0.0243268
0.0205317
0.014027
0.0060017
-0.00173878
-0.00747471
-0.0101378
-0.00942481
-0.00587122
-0.000475129
0.00514201
0.0101158
0.0126438
0.01372
0.0104683
0.00902981
-0.000189272
0.00492577
-0.0149507
0.140415
0.14188
0.146769
0.154134
0.164597
0.178375
0.190666
0.197239
0.0941852
-0.173793
-0.457422
-0.407175
-0.519449
-0.54433
-0.316856
-0.10175
0.0111924
0.0308297
0.0253926
0.00704815
-0.0196158
-0.0845847
-0.15041
-0.148707
-0.0902055
-0.0399177
-0.0169974
-0.0137105
-0.0234467
-0.0368763
-0.0410054
-0.0331273
-0.0255312
-0.0301727
-0.0478885
-0.0698534
-0.0798937
-0.068351
-0.0428364
-0.0203808
-0.00980092
-0.00993315
-0.0150703
-0.0184285
-0.0163933
-0.0120385
-0.0119531
-0.0197748
-0.033182
-0.0450766
-0.0476068
-0.0383979
-0.0226539
-0.00884568
-0.00189697
-0.00127668
-0.00309885
-0.00337539
-0.00139826
-0.000191278
-0.00353634
-0.0122602
-0.0231566
-0.0306798
-0.0304485
-0.0223108
-0.0105174
-0.000488789
0.00486996
0.00623278
0.00626591
0.00703606
0.00796225
0.00656824
0.000966935
-0.00801148
-0.0168729
-0.021407
-0.0193548
-0.0116986
-0.00208017
0.00578403
0.0102824
0.0122063
0.0132455
0.0140701
0.0135097
0.00986726
0.00279083
-0.0058374
-0.0126842
-0.0148385
-0.0114868
-0.00423238
0.0038666
0.010251
0.0141342
0.0162624
0.0175688
0.0178856
0.0160575
0.0111752
0.00383089
-0.0037587
-0.00878245
-0.00935924
-0.00544436
0.00120431
0.00809819
0.0134379
0.0168523
0.0189177
0.0200448
0.0197005
0.016919
0.0113637
0.00409971
-0.0026548
-0.00656195
-0.00635861
-0.0023407
0.00379202
0.00993656
0.0146847
0.0178066
0.0197372
0.0206592
0.0199745
0.0168501
0.0110961
0.00375146
-0.00315735
-0.00747849
-0.00792633
-0.00452769
0.0014016
0.0079575
0.013583
0.0176607
0.0202872
0.021521
0.0209131
0.0178937
0.0125185
0.00582297
-0.000580805
-0.00520425
-0.00721135
-0.00644749
-0.00341856
0.00106003
0.00569462
0.00979798
0.0117795
0.0124566
0.00931144
0.00785722
-0.000413239
0.00431939
-0.0132868
0.143927
0.145726
0.151827
0.161271
0.176033
0.196598
0.227364
0.225427
0.186101
-0.214173
-0.616476
-0.446644
-0.529707
-0.668718
-0.400898
-0.144277
-0.0395092
-0.0209499
-0.0386339
-0.0325481
-0.0414081
-0.0921485
-0.155909
-0.164191
-0.108928
-0.0542694
-0.0290065
-0.0269189
-0.0399211
-0.0559185
-0.059273
-0.0477244
-0.0360362
-0.037245
-0.0521738
-0.0725252
-0.0828214
-0.0727813
-0.0488042
-0.0274023
-0.017835
-0.0192086
-0.0255305
-0.029286
-0.0264077
-0.0201317
-0.0176692
-0.0231906
-0.0347612
-0.0456419
-0.0481578
-0.0397807
-0.025343
-0.0130012
-0.00752686
-0.00823205
-0.0109404
-0.0113299
-0.00854722
-0.00576695
-0.00715281
-0.0139609
-0.0233549
-0.0300593
-0.0297997
-0.0223859
-0.0118773
-0.00342432
0.000358672
0.000442663
-0.000216094
0.000633
0.00244222
0.00255607
-0.00124191
-0.00850288
-0.01606
-0.0199286
-0.0179507
-0.011105
-0.00286815
0.00333984
0.00626622
0.00704129
0.00760171
0.00870921
0.00915844
0.00703699
0.00166646
-0.00541562
-0.0111562
-0.0128346
-0.00973
-0.00342541
0.00321171
0.00795211
0.0103831
0.0115642
0.0126039
0.0133747
0.0126273
0.00922054
0.00343497
-0.00281038
-0.00693703
-0.00722057
-0.00369478
0.00193232
0.0073812
0.0111846
0.0133214
0.014633
0.0156538
0.0158637
0.0141786
0.0100309
0.00419874
-0.00136028
-0.00451443
-0.00414445
-0.000616871
0.00443087
0.0091128
0.01235
0.0142463
0.0154781
0.0163353
0.0162308
0.014215
0.00987425
0.00397364
-0.00170828
-0.00521731
-0.00541435
-0.00240896
0.00251398
0.00763155
0.0116978