/*--------------------------------*- C++ -*----------------------------------*\
  =========                 |
  \\      /  F ield         | OpenFOAM: The Open Source CFD Toolbox
   \\    /   O peration     | Website:  https://openfoam.org
    \\  /    A nd           | Version:  11
     \\/     M anipulation  |
\*---------------------------------------------------------------------------*/
FoamFile
{
    format      ascii;
    class       volVectorField;
    location    "16.497324";
    object      U;
}
// * * * * * * * * * * * * * * * * * * * * * * * * * * * * * * * * * * * * * //

dimensions      [0 1 -1 0 0 0 0];

internalField   nonuniform List<vector> 
7132
(
(1.00012 -0.000264613 3.19911e-18)
(1.00206 -0.000807262 1.11284e-17)
(1.00647 -0.00136946 1.13371e-17)
(1.01307 -0.00193576 1.43123e-17)
(1.02194 -0.00247973 1.97653e-17)
(1.03293 -0.0029555 2.07399e-17)
(1.04563 -0.00330005 2.04777e-17)
(1.05941 -0.00342735 2.03119e-17)
(1.07317 -0.00325038 2.03066e-17)
(1.08558 -0.00271839 2.03527e-17)
(1.09507 -0.00183245 2.0238e-17)
(1.10039 -0.000779714 1.98977e-17)
(1.10133 0.000240097 1.91747e-17)
(1.09841 0.00101397 1.79084e-17)
(1.09311 0.00133354 1.40331e-17)
(1.0876 0.00112768 1.05162e-17)
(1.084 0.000493998 8.32617e-18)
(1.0837 -0.000326426 6.21053e-18)
(1.08682 -0.000997628 4.06089e-18)
(1.09203 -0.00117898 4.68183e-18)
(1.09668 -0.000673454 5.8746e-18)
(1.09783 0.000445009 7.12725e-18)
(1.09342 0.00186263 8.16471e-18)
(1.08305 0.00319227 1.00516e-17)
(1.06783 0.00412702 8.10602e-18)
(1.04985 0.00449022 1.076e-17)
(1.03164 0.00421233 8.13179e-18)
(1.01584 0.0032926 -1.86674e-17)
(1.00498 0.00178571 5.16018e-17)
(1.00126 -0.000174673 2.76143e-16)
(1.0062 -0.00232102 1.57551e-16)
(1.01987 -0.00420323 -3.67757e-16)
(1.04012 -0.00525861 3.06625e-17)
(1.06244 -0.00505151 7.93926e-16)
(1.08111 -0.00354789 -5.13633e-17)
(1.09132 -0.00118607 -9.37028e-16)
(1.09089 0.00134667 -9.27607e-16)
(1.08058 0.00343856 -4.42605e-16)
(1.06319 0.00474993 4.5009e-15)
(1.04226 0.00519389 9.4519e-15)
(1.02125 0.00481322 -3.01372e-14)
(1.00333 0.00367512 -1.63251e-13)
(0.991412 0.00184672 -1.52388e-13)
(0.988157 -0.000541461 1.06711e-12)
(0.995503 -0.00317534 5.3535e-12)
(1.01361 -0.00548308 1.32568e-11)
(1.03975 -0.00675196 2.13486e-11)
(1.06826 -0.00645017 2.41408e-11)
(1.09207 -0.00455358 1.98941e-11)
(1.10528 -0.00161494 1.21335e-11)
(1.1053 0.00150059 5.29516e-12)
(1.09328 0.00401532 1.16232e-12)
(1.07292 0.00550831 -4.81102e-13)
(1.04881 0.00591839 -3.94132e-13)
(1.02512 0.00537766 6.74851e-13)
(1.00532 0.0040392 6.1839e-13)
(0.992339 0.00201369 -6.39584e-12)
(0.98878 -0.000556779 -2.93619e-11)
(0.996503 -0.00334977 -7.49592e-11)
(1.01555 -0.00578599 -1.39652e-10)
(1.0431 -0.0071545 -2.04942e-10)
(1.07338 -0.00692018 -2.44849e-10)
(1.09918 -0.00502598 -2.42118e-10)
(1.11426 -0.00197678 -1.9796e-10)
(1.11544 0.00136417 -1.29701e-10)
(1.10346 0.004139 -6.30114e-11)
(1.08213 0.00580805 -1.58851e-11)
(1.05659 0.00624177 8.34891e-12)
(1.0317 0.00559712 1.14453e-11)
(1.0113 0.00411331 -1.52798e-11)
(0.998291 0.00198737 -9.59667e-11)
(0.99493 -0.000587435 -2.57165e-10)
(1.00262 -0.00328203 -5.05784e-10)
(1.02103 -0.005565 -8.12824e-10)
(1.04726 -0.0068236 -1.11388e-09)
(1.07599 -0.00662191 -1.32963e-09)
(1.10078 -0.00492549 -1.39687e-09)
(1.11599 -0.00214881 -1.29323e-09)
(1.11848 0.000992018 -1.04388e-09)
(1.10836 0.00373225 -7.11918e-10)
(1.08868 0.00550392 -3.80802e-10)
(1.06415 0.00606667 -1.27653e-10)
(1.0398 0.005484 1.65702e-12)
(1.01984 0.00398633 -1.54608e-12)
(1.00744 0.00183974 -1.21083e-10)
(1.00471 -0.000670502 -3.30429e-10)
(1.01254 -0.00316451 -5.98325e-10)
(1.03 -0.00514603 -8.88214e-10)
(1.05392 -0.006122 -1.15933e-09)
(1.07936 -0.00580367 -1.37145e-09)
(1.10078 -0.00424629 -1.49049e-09)
(1.1137 -0.00183655 -1.49239e-09)
(1.11574 0.000847639 -1.36621e-09)
(1.10704 0.00321888 -1.1195e-09)
(1.08997 0.00482779 -7.90125e-10)
(1.06829 0.00543492 -4.48444e-10)
(1.04626 0.00501117 -1.74376e-10)
(1.02791 0.00368702 -2.05341e-11)
(1.01646 0.00169595 9.03471e-12)
(1.01409 -0.000639912 -5.10655e-11)
(1.02149 -0.00289867 -1.54626e-10)
(1.03741 -0.00460091 -2.64699e-10)
(1.05862 -0.00533775 -3.59631e-10)
(1.08053 -0.0049258 -4.29591e-10)
(1.0984 -0.003486 -4.7103e-10)
(1.10866 -0.00139484 -4.82454e-10)
(1.10964 0.000854813 -4.62191e-10)
(1.10175 0.00280524 -4.08634e-10)
(1.08702 0.00413098 -3.24175e-10)
(1.06847 0.00465889 -2.19298e-10)
(1.04951 0.00434402 -1.11477e-10)
(1.03349 0.00324309 -1.78323e-11)
(1.02338 0.00151342 5.28979e-11)
(1.0213 -0.000564468 1.02364e-10)
(1.02798 -0.00258594 1.38059e-10)
(1.04227 -0.00409425 1.67316e-10)
(1.06116 -0.00471874 1.94185e-10)
(1.08047 -0.00431269 2.19588e-10)
(1.09602 -0.00300896 2.42788e-10)
(1.10472 -0.00116273 2.62331e-10)
(1.10529 0.000781366 2.75724e-10)
(1.09827 0.00242987 2.7857e-10)
(1.08554 0.00352529 2.65219e-10)
(1.06971 0.0039493 2.3246e-10)
(1.05361 0.00367759 1.84384e-10)
(1.04002 0.00274272 1.33506e-10)
(1.03151 0.00124405 9.54794e-11)
(1.03007 -0.000606241 8.10972e-11)
(1.03656 -0.00246306 9.19694e-11)
(1.05017 -0.00390823 1.22172e-10)
(1.06836 -0.00457981 1.62897e-10)
(1.08735 -0.00430619 2.06268e-10)
(1.10323 -0.00317079 2.46884e-10)
(1.11293 -0.00147715 2.81615e-10)
(1.11502 0.00036078 3.08462e-10)
(1.10981 0.0019511 3.24984e-10)
(1.09902 0.00302506 3.27299e-10)
(1.08515 0.00346662 3.11001e-10)
(1.07083 0.0032761 2.74374e-10)
(1.05855 0.00250905 2.21838e-10)
(1.05048 0.00124427 1.64096e-10)
(1.04847 -0.000392971 1.13919e-10)
(1.05371 -0.00218586 8.05441e-11)
(1.06628 -0.0038242 6.67591e-11)
(1.08482 -0.00497345 6.98566e-11)
(1.10668 -0.00538567 8.45697e-11)
(1.12849 -0.00498902 1.05647e-10)
(1.14702 -0.003909 1.29091e-10)
(1.15996 -0.00241963 1.52311e-10)
(1.16631 -0.000852196 1.73761e-10)
(1.16653 0.000493468 1.92441e-10)
(1.16197 0.00142203 2.07409e-10)
(1.15473 0.00185668 2.17409e-10)
(1.14665 0.00185131 2.20803e-10)
(1.13957 0.00150518 2.15951e-10)
(1.13429 0.00100574 2.02025e-10)
(1.13137 0.000445762 1.79706e-10)
(1.13073 1.80138e-05 1.51382e-10)
(1.13109 -0.000252837 1.22655e-10)
(1.1335 -0.000329132 8.41142e-11)
(1.00012 -0.000792476 5.80325e-20)
(1.00205 -0.00241914 5.51214e-19)
(1.00644 -0.00410647 1.04489e-18)
(1.01305 -0.00581062 1.61041e-18)
(1.02194 -0.00745319 2.41407e-18)
(1.03301 -0.00889704 3.32681e-18)
(1.04587 -0.0099523 4.03993e-18)
(1.0599 -0.0103553 5.32592e-18)
(1.07398 -0.00983788 5.98901e-18)
(1.08675 -0.0082355 6.24132e-18)
(1.09651 -0.00554344 6.36328e-18)
(1.10192 -0.00234049 8.5676e-18)
(1.10274 0.000763364 8.7383e-18)
(1.09949 0.00311669 9.23802e-18)
(1.09371 0.00407526 8.69013e-18)
(1.08772 0.00341901 5.68435e-18)
(1.08381 0.00144581 8.04354e-19)
(1.08346 -0.00109841 -2.79008e-18)
(1.08688 -0.00318433 -1.67745e-18)
(1.09266 -0.00376532 4.36341e-18)
(1.09796 -0.00223089 1.11813e-17)
(1.09957 0.00119388 1.45237e-17)
(1.09529 0.00553842 1.33673e-17)
(1.08471 0.00960987 7.85644e-18)
(1.06904 0.0124736 1.90762e-17)
(1.05048 0.0136016 4.9861e-17)
(1.03164 0.0127912 -2.21188e-16)
(1.01521 0.0100409 -5.78591e-16)
(1.00379 0.00550547 4.2762e-15)
(0.999707 -0.000430706 1.39679e-14)
(1.00463 -0.00697557 -5.86208e-14)
(1.01881 -0.0127594 -3.88628e-13)
(1.04009 -0.0160412 -8.39404e-13)
(1.06368 -0.0154576 -9.29515e-13)
(1.08345 -0.0108894 -5.91605e-13)
(1.09422 -0.00368381 -2.18607e-13)
(1.09372 0.00404202 -3.40857e-14)
(1.08288 0.010415 1.53116e-14)
(1.06473 0.0144072 3.10773e-14)
(1.04298 0.0157704 3.29951e-14)
(1.02117 0.0146482 -1.27999e-13)
(1.00249 0.0112446 -6.02701e-13)
(0.989881 0.00574356 -4.84342e-13)
(0.986167 -0.00149421 4.53867e-12)
(0.99354 -0.00954062 2.24651e-11)
(1.01237 -0.0166447 5.55629e-11)
(1.03989 -0.0205921 8.95089e-11)
(1.07002 -0.0197207 1.00909e-10)
(1.09513 -0.013949 8.13553e-11)
(1.10893 -0.00498191 4.71072e-11)
(1.10876 0.00452253 1.9412e-11)
(1.09596 0.0121836 3.94754e-12)
(1.0746 0.0167235 -1.88511e-12)
(1.04949 0.017975 -1.23775e-12)
(1.02492 0.01636 3.45176e-12)
(1.00432 0.0123493 3.25358e-12)
(0.990623 0.00626011 -3.13399e-11)
(0.986498 -0.00151481 -1.55297e-10)
(0.99401 -0.0100271 -4.22481e-10)
(1.01342 -0.0175123 -8.20822e-10)
(1.04196 -0.0217724 -1.22213e-09)
(1.0737 -0.0211364 -1.43717e-09)
(1.10098 -0.0154091 -1.35698e-09)
(1.11708 -0.00613198 -1.03512e-09)
(1.11854 0.00405483 -6.28621e-10)
(1.10613 0.0125256 -2.83368e-10)
(1.0839 0.0176255 -6.72488e-11)
(1.05732 0.0189647 2.91108e-11)
(1.03145 0.0170393 4.19157e-11)
(1.01018 0.0125898 -2.25967e-11)
(0.996389 0.00620354 -2.09493e-10)
(0.992409 -0.00156808 -5.8417e-10)
(0.999828 -0.00975802 -1.16813e-09)
(1.01849 -0.0167545 -1.88644e-09)
(1.04551 -0.020671 -2.57177e-09)
(1.07535 -0.0201514 -3.02652e-09)
(1.10122 -0.0150712 -3.10587e-09)
(1.11722 -0.00668326 -2.78198e-09)
(1.12007 0.00284033 -2.15636e-09)
(1.10988 0.0111775 -1.40758e-09)
(1.08976 0.0165977 -7.21043e-10)
(1.06459 0.0183641 -2.29672e-10)
(1.03948 0.0166644 1.30619e-11)
(1.01876 0.0121903 1.7377e-11)
(1.0057 0.00573121 -1.77601e-10)
(1.00258 -0.0018714 -5.24718e-10)
(1.01049 -0.00947367 -9.67012e-10)
(1.02856 -0.0155491 -1.43274e-09)
(1.05347 -0.0185674 -1.84508e-09)
(1.0799 -0.0176334 -2.13856e-09)
(1.10204 -0.0129219 -2.26771e-09)
(1.11521 -0.00562526 -2.20886e-09)
(1.1171 0.00249687 -1.96339e-09)
(1.10801 0.00967076 -1.56256e-09)
(1.09042 0.0145469 -1.07403e-09)
(1.06821 0.0164098 -5.95737e-10)
(1.04567 0.0151714 -2.25749e-10)
(1.02684 0.0112126 -2.27119e-11)
(1.01506 0.00521508 1.38956e-11)
(1.01265 -0.00186779 -6.95994e-11)
(1.02046 -0.00875623 -2.11747e-10)
(1.03722 -0.0139677 -3.60698e-10)
(1.05948 -0.0162284 -4.84184e-10)
(1.0823 -0.01497 -5.67974e-10)
(1.10069 -0.010575 -6.09086e-10)
(1.11094 -0.00421151 -6.08932e-10)
(1.11148 0.00261187 -5.69336e-10)
(1.1029 0.00850944 -4.92189e-10)
(1.08744 0.0125063 -3.83179e-10)
(1.06824 0.0140929 -2.55627e-10)
(1.04878 0.0131413 -1.28902e-10)
(1.03245 0.00981777 -2.05394e-11)
(1.02227 0.00458162 6.18607e-11)
(1.02049 -0.00173315 1.21912e-10)
(1.02788 -0.00789642 1.68572e-10)
(1.0432 -0.0124979 2.09046e-10)
(1.06322 -0.0143883 2.45599e-10)
(1.08342 -0.0131179 2.76731e-10)
(1.09938 -0.00910842 3.00091e-10)
(1.10794 -0.0034631 3.14334e-10)
(1.10791 0.00245505 3.18668e-10)
(1.10001 0.00745166 3.11023e-10)
(1.08634 0.0107527 2.87786e-10)
(1.06967 0.0120106 2.47008e-10)
(1.05293 0.0111613 1.93358e-10)
(1.039 0.0083043 1.39599e-10)
(1.0305 0.00373356 1.01543e-10)
(1.0295 -0.00191496 8.99631e-11)
(1.03688 -0.00758787 1.06033e-10)
(1.05172 -0.0119941 1.42832e-10)
(1.07118 -0.0140154 1.90171e-10)
(1.09121 -0.0131302 2.3879e-10)
(1.10762 -0.00961146 2.82269e-10)
(1.11728 -0.00440714 3.17046e-10)
(1.11879 0.00121095 3.41328e-10)
(1.11264 0.00605197 3.53363e-10)
(1.10077 0.00930478 3.50148e-10)
(1.08583 0.0106249 3.28099e-10)
(1.07062 0.0100212 2.86183e-10)
(1.0577 0.00766544 2.29387e-10)
(1.04935 0.00379343 1.68859e-10)
(1.0475 -0.00122057 1.17572e-10)
(1.0534 -0.00671611 8.46286e-11)
(1.06707 -0.0117335 7.23575e-11)
(1.08697 -0.0152337 7.74077e-11)
(1.11015 -0.0164517 9.38943e-11)
(1.13294 -0.015177 1.1614e-10)
(1.15193 -0.0118141 1.39982e-10)
(1.16478 -0.00722142 1.62893e-10)
(1.17056 -0.00242094 1.83532e-10)
(1.1699 0.00167668 2.01149e-10)
(1.16433 0.00448681 2.15009e-10)
(1.1561 0.00578451 2.23975e-10)
(1.14718 0.00573981 2.26434e-10)
(1.13947 0.004656 2.20727e-10)
(1.13379 0.00310427 2.06032e-10)
(1.13075 0.00135475 1.83104e-10)
(1.13031 2.03159e-05 1.54452e-10)
(1.13095 -0.000888205 1.25714e-10)
(1.13435 -0.00110652 8.77488e-11)
(1.00012 -0.00131685 4.21638e-22)
(1.00203 -0.00402275 8.32932e-21)
(1.0064 -0.00683746 8.06373e-21)
(1.01299 -0.00969356 4.49658e-21)
(1.02193 -0.0124647 -4.20574e-20)
(1.03314 -0.0149244 -1.14396e-20)
(1.04631 -0.0167545 -5.58756e-19)
(1.06082 -0.0174973 -3.76282e-19)
(1.07557 -0.0166821 1.0272e-18)
(1.08907 -0.0139903 -1.15136e-18)
(1.0994 -0.00938358 -6.01394e-18)
(1.10499 -0.00388228 -5.02738e-18)
(1.10558 0.00147414 2.51569e-18)
(1.10166 0.00556101 8.59397e-18)
(1.09492 0.00723145 2.27688e-18)
(1.08799 0.00608427 -1.73668e-17)
(1.08347 0.00262412 -2.76215e-17)
(1.0831 -0.00187017 1.62763e-17)
(1.08717 -0.00560513 1.38596e-16)
(1.09413 -0.00672472 2.51542e-16)
(1.10072 -0.00412898 2.51921e-16)
(1.1032 0.00178782 1.84985e-16)
(1.09906 0.00930299 1.0137e-16)
(1.08792 0.0163225 2.34204e-17)
(1.07122 0.0212421 1.55055e-16)
(1.05142 0.0231881 2.26473e-16)
(1.03129 0.0218448 -2.4832e-15)
(1.01366 0.0172163 -2.77614e-15)
(1.00124 0.00953853 4.0221e-14)
(0.996567 -0.000590089 7.83743e-14)
(1.00164 -0.0118667 -5.62263e-13)
(1.01701 -0.0219329 -2.88255e-12)
(1.0405 -0.0277093 -5.98922e-12)
(1.06674 -0.0267461 -6.97106e-12)
(1.08867 -0.0188114 -4.83095e-12)
(1.10038 -0.0063019 -1.9473e-12)
(1.09947 0.00703668 -3.51199e-13)
(1.08725 0.017942 1.32836e-13)
(1.06734 0.0246971 1.75706e-13)
(1.04385 0.0269648 2.06623e-14)
(1.02045 0.0250551 -4.24091e-13)
(1.00034 0.0193202 -4.44756e-13)
(0.986546 0.0100099 1.83024e-12)
(0.982139 -0.00236115 4.47553e-12)
(0.989763 -0.0162685 -9.19971e-12)
(1.01016 -0.0286604 -6.02701e-11)
(1.04049 -0.0355903 -1.23312e-10)
(1.07394 -0.0340808 -1.37219e-10)
(1.10174 -0.024001 -9.29041e-11)
(1.11664 -0.00840605 -3.73098e-11)
(1.1158 0.0080064 -2.08981e-12)
(1.10111 0.0211007 6.62054e-12)
(1.07742 0.02874 2.48169e-12)
(1.05017 0.0307518 3.14074e-12)
(1.02383 0.0279555 1.485e-11)
(1.00176 0.0211847 5.70005e-12)
(0.986771 0.0109301 -1.37098e-10)
(0.981582 -0.00223914 -6.09274e-10)
(0.988584 -0.0167987 -1.56962e-09)
(1.0085 -0.0297634 -2.92508e-09)
(1.03881 -0.0373107 -4.24173e-09)
(1.07327 -0.036445 -4.94497e-09)
(1.10344 -0.0267112 -4.69027e-09)
(1.12165 -0.0107362 -3.61277e-09)
(1.12381 0.00686245 -2.22066e-09)
(1.11063 0.0214709 -1.02019e-09)
(1.08665 0.0302088 -2.60834e-10)
(1.05801 0.0324559 7.7532e-11)
(1.03023 0.0291573 1.27988e-10)
(1.00734 0.0216407 -3.94177e-11)
(0.992213 0.0108772 -4.79099e-10)
(0.987355 -0.00229746 -1.28303e-09)
(0.994741 -0.0163161 -2.43051e-09)
(1.01449 -0.0284102 -3.72423e-09)
(1.04352 -0.0352641 -4.87397e-09)
(1.07563 -0.0344842 -5.61414e-09)
(1.10332 -0.0258543 -5.75593e-09)
(1.12028 -0.0115537 -5.22397e-09)
(1.12319 0.00468279 -4.12258e-09)
(1.11233 0.0188933 -2.73943e-09)
(1.09108 0.0281439 -1.43232e-09)
(1.06453 0.0311998 -4.78559e-10)
(1.03801 0.0283909 5.51274e-12)
(1.016 0.0208735 3.9864e-11)
(1.002 0.0099314 -2.87772e-10)
(0.998651 -0.00306301 -8.62606e-10)
(1.00736 -0.0161519 -1.54927e-09)
(1.02723 -0.026637 -2.20789e-09)
(1.05443 -0.0318011 -2.73283e-09)
(1.08291 -0.0300931 -3.07287e-09)
(1.10618 -0.0218931 -3.20868e-09)
(1.11937 -0.00935183 -3.11981e-09)
(1.12035 0.00446756 -2.78736e-09)
(1.10986 0.0165661 -2.23224e-09)
(1.09081 0.0247243 -1.54276e-09)
(1.06729 0.0278045 -8.61366e-10)
(1.04369 0.0256887 -3.31981e-10)
(1.02409 0.0189892 -3.99032e-11)
(1.01201 0.00879013 1.56914e-11)
(1.01004 -0.00333584 -9.67409e-11)
(1.01918 -0.0151779 -2.84748e-10)
(1.038 -0.0241128 -4.7148e-10)
(1.0625 -0.0278872 -6.14764e-10)
(1.08708 -0.0255345 -7.04039e-10)
(1.10624 -0.0177952 -7.44418e-10)
(1.11612 -0.00677451 -7.41194e-10)
(1.11539 0.00488626 -6.94088e-10)
(1.10506 0.01483 -6.01742e-10)
(1.08782 0.0214584 -4.69438e-10)
(1.06714 0.0239832 -3.13719e-10)
(1.04664 0.0222355 -1.58784e-10)
(1.0298 0.0164913 -2.54635e-11)
(1.01979 0.00749191 7.86032e-11)
(1.01896 -0.00336339 1.5923e-10)
(1.02812 -0.0139414 2.27083e-10)
(1.04572 -0.0217651 2.88544e-10)
(1.06797 -0.0248296 3.42686e-10)
(1.08979 -0.0223942 3.84191e-10)
(1.10635 -0.0152645 4.08169e-10)
(1.11439 -0.00541939 4.13208e-10)
(1.11293 0.00475623 4.00992e-10)
(1.10307 0.0132211 3.73369e-10)
(1.08737 0.0186958 3.30606e-10)
(1.06894 0.0206468 2.73605e-10)
(1.05095 0.0190083 2.08696e-10)
(1.03642 0.0139604 1.49447e-10)
(1.02814 0.00599452 1.11751e-10)
(1.02829 -0.00379736 1.05596e-10)
(1.03767 -0.0135713 1.30452e-10)
(1.05501 -0.0210612 1.77193e-10)
(1.07692 -0.0243308 2.33605e-10)
(1.09877 -0.0225255 2.89065e-10)
(1.116 -0.0161954 3.36448e-10)
(1.12534 -0.00704867 3.71884e-10)
(1.12557 0.00268624 3.93509e-10)
(1.11748 0.0109655 3.99866e-10)
(1.10341 0.0164304 3.88664e-10)
(1.08638 0.018537 3.57346e-10)
(1.06945 0.0173382 3.06176e-10)
(1.05539 0.0131417 2.41593e-10)
(1.04666 0.00634393 1.76011e-10)
(1.04536 -0.00241472 1.22971e-10)
(1.05277 -0.0119692 9.11871e-11)
(1.06872 -0.020613 8.18633e-11)
(1.09121 -0.0265166 9.0316e-11)
(1.1167 -0.0283725 1.09589e-10)
(1.14106 -0.0258801 1.3342e-10)
(1.1606 -0.0198179 1.57552e-10)
(1.17301 -0.011729 1.79712e-10)
(1.17755 -0.00340147 1.98967e-10)
(1.17514 0.00360822 2.1495e-10)
(1.16764 0.00832829 2.27185e-10)
(1.15759 0.0104127 2.34625e-10)
(1.14715 0.0101834 2.35609e-10)
(1.13837 0.00817635 2.28404e-10)
(1.13211 0.00537418 2.12232e-10)
(1.12905 0.00220747 1.88092e-10)
(1.12917 -0.000189972 1.58842e-10)
(1.13057 -0.00201211 1.30188e-10)
(1.13598 -0.0022834 9.38268e-11)
(1.00012 -0.00183503 -5.61703e-20)
(1.002 -0.00561056 -6.93901e-19)
(1.00631 -0.00955543 -1.25609e-18)
(1.01288 -0.0135855 -2.06043e-18)
(1.02187 -0.0175343 -2.73961e-18)
(1.03329 -0.0210905 -4.58954e-18)
(1.0469 -0.0238058 -7.10195e-18)
(1.06216 -0.0250018 3.06364e-18)
(1.07792 -0.0239696 -8.47465e-18)
(1.0926 -0.0201621 -4.19788e-17)
(1.10382 -0.0134611 -3.3025e-17)
(1.10971 -0.00542511 2.80923e-17)
(1.10995 0.00243406 6.91231e-17)
(1.10501 0.00846096 4.97969e-17)
(1.09675 0.0108994 -4.0306e-17)
(1.08832 0.00912328 -1.27557e-16)
(1.08282 0.0038669 -4.49411e-17)
(1.08237 -0.00297535 4.10178e-16)
(1.08745 -0.00872552 1.24587e-15)
(1.09629 -0.0105605 1.8689e-15)
(1.10495 -0.00677308 1.66431e-15)
(1.10881 0.00203185 1.04855e-15)
(1.10487 0.0131948 4.70433e-16)
(1.09281 0.0235407 2.00212e-16)
(1.07447 0.0307282 8.4623e-16)
(1.05273 0.033564 -1.54e-15)
(1.03065 0.0316681 -7.88862e-15)
(1.01118 0.0250699 2.74836e-14)
(0.997234 0.014056 3.61151e-14)
(0.991639 -0.000624564 -4.40961e-13)
(0.996925 -0.0171914 1.82825e-13)
(1.01417 -0.0321888 8.03562e-12)
(1.04117 -0.0409197 2.01384e-11)
(1.07163 -0.0395591 2.10347e-11)
(1.09696 -0.0277067 1.04494e-11)
(1.11008 -0.00906176 1.8357e-12)
(1.10837 0.0106288 -6.81013e-13)
(1.09387 0.0264847 -3.1964e-13)
(1.07112 0.0361076 5.54291e-14)
(1.0449 0.039211 -6.00382e-13)
(1.0191 0.0363977 1.08496e-13)
(0.996882 0.0281968 9.39695e-12)
(0.981313 0.0148491 1.43801e-11)
(0.975699 -0.00308986 -9.07487e-11)
(0.983144 -0.0235374 -5.32025e-10)
(1.00497 -0.0420063 -1.41394e-09)
(1.03871 -0.0525017 -2.35691e-09)
(1.0771 -0.0503654 -2.68893e-09)
(1.10971 -0.0352936 -2.1689e-09)
(1.12731 -0.0119883 -1.23628e-09)
(1.12616 0.0123141 -4.61052e-10)
(1.10879 0.0313805 -6.43486e-11)
(1.0815 0.0421901 4.64753e-11)
(1.05087 0.044766 5.20744e-11)
(1.02183 0.0405555 5.40418e-11)
(0.997559 0.0308752 -2.00293e-11)
(0.980514 0.016357 -4.64825e-10)
(0.973466 -0.00240724 -1.68219e-09)
(0.979469 -0.023475 -3.8256e-09)
(1.00012 -0.0426282 -6.49975e-09)
(1.0331 -0.0541733 -8.9089e-09)
(1.07143 -0.0534662 -1.02474e-08)
(1.10548 -0.0395961 -9.98375e-09)
(1.12657 -0.0162984 -8.12307e-09)
(1.12991 0.00958886 -5.3552e-09)
(1.11603 0.0311156 -2.68583e-09)
(1.08992 0.0439294 -8.23242e-10)
(1.05852 0.047163 9.19322e-11)
(1.02804 0.0423662 2.76791e-10)
(1.00279 0.0315981 -7.02981e-11)
(0.985819 0.016202 -9.25663e-10)
(0.980064 -0.00282097 -2.28541e-09)
(0.988126 -0.023319 -3.94999e-09)
(1.01031 -0.0411486 -5.5536e-09)
(1.04285 -0.0512532 -6.79987e-09)
(1.07833 -0.0500619 -7.57544e-09)
(1.10821 -0.0373925 -7.81838e-09)
(1.12578 -0.0165992 -7.38665e-09)
(1.12794 0.00683554 -6.1792e-09)
(1.11549 0.0272445 -4.38012e-09)
(1.09226 0.0404961 -2.46088e-09)
(1.06366 0.0448905 -9.2829e-10)
(1.0352 0.0409234 -8.42694e-11)
(1.01154 0.0301924 3.09356e-11)
(0.996567 0.0144084 -4.3732e-10)
(0.993452 -0.00454518 -1.24595e-09)
(1.00395 -0.0237579 -2.12391e-09)
(1.0269 -0.0390911 -2.85422e-09)
(1.05758 -0.0464184 -3.34327e-09)
(1.08885 -0.0435132 -3.61496e-09)
(1.11344 -0.0311458 -3.72719e-09)
(1.12626 -0.012695 -3.68042e-09)
(1.1255 0.00726611 -3.40408e-09)
(1.11256 0.0244503 -2.84264e-09)
(1.09101 0.0358322 -2.04877e-09)
(1.06537 0.0399635 -1.19524e-09)
(1.04018 0.0367613 -4.94591e-10)
(1.01964 0.0270462 -8.96895e-11)
(1.00747 0.012243 5.3021e-12)
(1.0066 -0.00544583 -1.15823e-10)
(1.01808 -0.0227299 -3.21606e-10)
(1.04005 -0.03563 -5.1043e-10)
(1.06768 -0.0407791 -6.39317e-10)
(1.09451 -0.036843 -7.12332e-10)
(1.11447 -0.0250877 -7.50039e-10)
(1.12361 -0.00877251 -7.62721e-10)
(1.12089 0.00815583 -7.41657e-10)
(1.10789 0.0222965 -6.70585e-10)
(1.08796 0.0314625 -5.43473e-10)
(1.06503 0.034678 -3.7511e-10)
(1.043 0.0318048 -1.95803e-10)
(1.02553 0.0232417 -3.38325e-11)
(1.01597 0.0100028 9.93388e-11)
(1.01682 -0.00589575 2.09092e-10)
(1.02872 -0.0212748 3.05671e-10)
(1.04958 -0.0324294 3.93192e-10)
(1.07479 -0.0364293 4.67618e-10)
(1.09856 -0.032305 5.21079e-10)
(1.11566 -0.0213993 5.46918e-10)
(1.12281 -0.00674238 5.42941e-10)
(1.11928 0.00812082 5.11948e-10)
(1.10668 0.0202334 4.59307e-10)
(1.08812 0.0278194 3.90196e-10)
(1.06721 0.0302173 3.1018e-10)
(1.04747 0.0274166 2.2898e-10)
(1.03221 0.0197055 1.61894e-10)
(1.02442 0.00779835 1.24668e-10)
(1.02638 -0.00667794 1.25296e-10)
(1.03866 -0.0209445 1.60076e-10)
(1.05938 -0.03162 2.16758e-10)
(1.08438 -0.0359016 2.81112e-10)
(1.10836 -0.0326697 3.41873e-10)
(1.12636 -0.0228911 3.92178e-10)
(1.1351 -0.00918385 4.28509e-10)
(1.13355 0.00514761 4.48878e-10)
(1.12288 0.0171352 4.51325e-10)
(1.10589 0.0248575 4.33223e-10)
(1.08608 0.0276025 3.92409e-10)
(1.06687 0.0255121 3.30592e-10)
(1.05136 0.0190566 2.56474e-10)
(1.04229 0.00880933 1.84632e-10)
(1.04195 -0.00427225 1.29603e-10)
(1.05162 -0.0183972 9.95353e-11)
(1.07069 -0.0309564 9.40086e-11)
(1.09643 -0.0392282 1.06543e-10)
(1.12453 -0.0413779 1.28861e-10)
(1.15036 -0.0371296 1.54077e-10)
(1.17009 -0.0277834 1.77942e-10)
(1.18153 -0.0156902 1.98628e-10)
(1.18428 -0.00347644 2.15828e-10)
(1.1796 0.00662743 2.29729e-10)
(1.16971 0.0132678 2.40148e-10)
(1.15749 0.0160091 2.46031e-10)
(1.14529 0.0153676 2.45506e-10)
(1.13537 0.012148 2.36654e-10)
(1.12864 0.00778103 2.18776e-10)
(1.1259 0.00284276 1.93273e-10)
(1.12711 -0.000856743 1.63561e-10)
(1.12992 -0.00399679 1.35392e-10)
(1.13818 -0.0040973 1.01835e-10)
(1.00012 -0.00234303 -3.58035e-18)
(1.00195 -0.00717214 -1.1024e-17)
(1.00618 -0.0122479 -9.21843e-18)
(1.01269 -0.0174802 -1.19563e-17)
(1.02172 -0.022674 -9.65574e-18)
(1.03338 -0.0274416 -2.7959e-17)
(1.04756 -0.0312048 1.27354e-17)
(1.06383 -0.0330267 1.78806e-17)
(1.08101 -0.0319096 -1.89882e-16)
(1.09736 -0.0269519 -1.02534e-16)
(1.10988 -0.0178793 4.16866e-16)
(1.11619 -0.00693651 7.18582e-16)
(1.11597 0.00385496 4.66406e-16)
(1.10955 0.0122202 -1.55087e-16)
(1.09912 0.0156019 -7.57414e-16)
(1.08852 0.0130692 -8.02561e-16)
(1.0816 0.00561069 -1.07044e-16)
(1.08103 -0.00418467 -5.7417e-16)
(1.08758 -0.0125743 -6.33408e-15)
(1.09917 -0.0154854 -1.22957e-14)
(1.11085 -0.010389 -9.5382e-15)
(1.11672 0.00184187 -4.46321e-15)
(1.11301 0.0173248 -1.67378e-15)
(1.09958 0.0315301 1.0845e-15)
(1.07891 0.0412779 -7.95452e-16)
(1.05447 0.0450952 -2.02801e-14)
(1.02969 0.0426142 6.51923e-14)
(1.00771 0.0339226 2.22303e-13)
(0.991608 0.019314 -1.59211e-12)
(0.984622 -0.000426366 -4.19611e-12)
(0.990112 -0.0231224 2.47237e-11)
(1.01009 -0.0440593 1.37389e-10)
(1.04236 -0.0564572 2.90772e-10)
(1.07901 -0.0546532 3.38495e-10)
(1.10909 -0.0380223 2.33367e-10)
(1.12393 -0.0119783 9.29442e-11)
(1.12083 0.0151663 1.54545e-11)
(1.1029 0.0365714 -5.52062e-12)
(1.07611 0.0491763 -5.59938e-12)
(1.04612 0.0529727 -4.17227e-12)
(1.01709 0.0490604 9.43469e-12)
(0.992083 0.0382115 5.20313e-11)
(0.973972 0.0206068 -1.24957e-13)
(0.965984 -0.00326008 -6.32447e-10)
(0.971599 -0.0308848 -2.52641e-09)
(0.993326 -0.0564409 -5.69212e-09)
(1.03002 -0.0716751 -8.85828e-09)
(1.07446 -0.0696006 -1.01874e-08)
(1.11438 -0.0491049 -8.80134e-09)
(1.13762 -0.0166119 -5.62962e-09)
(1.13816 0.0172852 -2.51909e-09)
(1.11853 0.0434343 -6.02674e-10)
(1.08685 0.0576938 1.26186e-10)
(1.0517 0.0605773 2.35942e-10)
(1.01895 0.0546057 1.65966e-10)
(0.991595 0.0418422 -1.38815e-10)
(0.971634 0.0229828 -1.18679e-09)
(0.962161 -0.0017038 -3.445e-09)
(0.967506 -0.0301145 -6.69961e-09)
(0.990274 -0.0565832 -1.00622e-08)
(1.02765 -0.0729833 -1.27048e-08)
(1.07095 -0.0726505 -1.42447e-08)
(1.109 -0.0542727 -1.43698e-08)
(1.13241 -0.022922 -1.26734e-08)
(1.13635 0.0121604 -9.2847e-09)
(1.12142 0.0414755 -5.28064e-09)
(1.09295 0.0589542 -1.98854e-09)
(1.05844 0.0633827 -1.03873e-10)
(1.02475 0.0570134 4.14986e-10)
(0.996609 0.0427483 -1.30736e-10)
(0.977565 0.0222453 -1.4944e-09)
(0.971365 -0.00344062 -3.37462e-09)
(0.981292 -0.031432 -5.28331e-09)
(1.00737 -0.0557754 -6.7498e-09)
(1.04456 -0.0692868 -7.6286e-09)
(1.08395 -0.0671754 -8.1032e-09)
(1.11597 -0.0495747 -8.36495e-09)
(1.13359 -0.0214026 -8.28832e-09)
(1.13409 0.00984671 -7.48972e-09)
(1.119 0.0367464 -5.80035e-09)
(1.0929 0.0540553 -3.58742e-09)
(1.06163 0.0597195 -1.55735e-09)
(1.03085 0.0544393 -3.08889e-10)
(1.00543 0.040184 -5.30924e-11)
(0.989736 0.0189819 -6.13046e-10)
(0.987571 -0.00674646 -1.58307e-09)
(1.00086 -0.0328711 -2.53567e-09)
(1.02779 -0.0534572 -3.20151e-09)
(1.06244 -0.0627861 -3.53689e-09)
(1.09659 -0.0580313 -3.6584e-09)
(1.12235 -0.0405939 -3.70902e-09)
(1.13447 -0.0153669 -3.73011e-09)
(1.13146 0.0113311 -3.61488e-09)
(1.11538 0.0338176 -3.20411e-09)
(1.09059 0.0483161 -2.45521e-09)
(1.06219 0.0532089 -1.52638e-09)
(1.03504 0.0485454 -6.93579e-10)
(1.0135 0.0353407 -1.76677e-10)
(1.00162 0.0153132 -2.19696e-11)
(1.00258 -0.00863471 -1.17645e-10)
(1.01727 -0.0319023 -3.00154e-10)
(1.04304 -0.0489157 -4.53657e-10)
(1.07405 -0.0551222 -5.41848e-10)
(1.10304 -0.048933 -5.8396e-10)
(1.12356 -0.0323423 -6.14694e-10)
(1.13164 -0.00997135 -6.51428e-10)
(1.12654 0.0127555 -6.79546e-10)
(1.11041 0.0312968 -6.63701e-10)
(1.08724 0.0428884 -5.76406e-10)
(1.06158 0.046457 -4.2134e-10)
(1.03772 0.041978 -2.31234e-10)
(1.01963 0.0300028 -4.3562e-11)
(1.0109 0.0118474 1.21999e-10)
(1.01411 -0.00973662 2.65399e-10)
(1.02947 -0.0303179 3.9233e-10)
(1.05407 -0.0448014 5.03323e-10)
(1.08236 -0.0493266 5.93444e-10)
(1.10791 -0.0428315 6.56159e-10)
(1.12524 -0.0273808 6.85521e-10)
(1.13114 -0.00721854 6.77663e-10)
(1.12521 0.0128251 6.33094e-10)
(1.10951 0.0288014 5.57633e-10)
(1.08771 0.0384289 4.60607e-10)
(1.06397 0.0409637 3.53786e-10)
(1.04227 0.0365045 2.52662e-10)
(1.02628 0.0254868 1.75856e-10)
(1.01932 0.00891188 1.39002e-10)
(1.02367 -0.0109132 1.46968e-10)
(1.03945 -0.0300717 1.91669e-10)
(1.06394 -0.0439269 2.57226e-10)
(1.09205 -0.048823 3.27602e-10)
(1.11787 -0.0435168 3.91449e-10)
(1.13628 -0.0295655 4.42817e-10)
(1.14406 -0.0106342 4.7921e-10)
(1.14043 0.00880408 4.98943e-10)
(1.12695 0.0247947 4.99292e-10)
(1.10681 0.0348292 4.76356e-10)
(1.08398 0.0380414 4.27411e-10)
(1.06232 0.0346916 3.55297e-10)
(1.04532 0.0254338 2.71432e-10)
(1.03611 0.011051 1.93268e-10)
(1.03722 -0.00707719 1.36696e-10)
(1.04973 -0.0263374 1.09165e-10)
(1.07234 -0.04302 1.08255e-10)
(1.10133 -0.0534422 1.25374e-10)
(1.13159 -0.0553417 1.508e-10)
(1.15814 -0.0486609 1.77062e-10)
(1.17724 -0.0354005 2.00032e-10)
(1.18705 -0.0188227 2.18456e-10)
(1.18756 -0.00242759 2.32806e-10)
(1.1804 0.0108836 2.43974e-10)
(1.16812 0.0193923 2.52164e-10)
(1.15384 0.0226044 2.56286e-10)
(1.1401 0.0212623 2.54136e-10)
(1.12941 0.0164685 2.43523e-10)
(1.12267 0.0101325 2.23865e-10)
(1.12094 0.00297752 1.97117e-10)
(1.12393 -0.00231777 1.6739e-10)
(1.129 -0.00722491 1.40367e-10)
(1.1406 -0.00672814 1.10947e-10)
(1.00011 -0.0028358 3.2788e-18)
(1.00188 -0.00869328 1.08724e-17)
(1.00598 -0.0148959 9.76802e-18)
(1.01238 -0.0213617 1.46113e-17)
(1.02142 -0.0278844 1.37145e-17)
(1.03332 -0.0340148 -1.62486e-17)
(1.04819 -0.0390494 2.52943e-16)
(1.06572 -0.041747 -6.08437e-16)
(1.08479 -0.0407552 -2.55711e-16)
(1.10345 -0.0346202 2.53888e-15)
(1.11776 -0.0228029 3.45941e-15)
(1.12469 -0.00848279 8.21066e-16)
(1.1239 0.00574674 -3.32132e-15)
(1.11552 0.0168994 -7.12931e-15)
(1.10209 0.0213775 -8.40431e-15)
(1.08848 0.0178415 -5.84926e-15)
(1.07952 0.00756821 -3.25305e-15)
(1.07869 -0.00600548 -2.43458e-14)
(1.08718 -0.0178315 -9.71195e-14)
(1.1026 -0.0222279 -1.69866e-13)
(1.11853 -0.0155498 -1.58529e-13)
(1.12718 0.000970552 -9.47357e-14)
(1.12379 0.0217881 -4.18368e-14)
(1.10845 0.0406081 -6.45792e-15)
(1.08462 0.0532877 -3.77425e-14)
(1.05663 0.0581722 -2.80759e-14)
(1.02837 0.0550448 6.05644e-13)
(1.00313 0.0441136 -3.31963e-13)
(0.984118 0.0256071 -8.8082e-12)
(0.975121 0.000135792 -2.35573e-13)
(0.980726 -0.0299125 1.08708e-10)
(1.00429 -0.0583107 3.33814e-10)
(1.04374 -0.0753942 5.78707e-10)
(1.08912 -0.0729422 7.30642e-10)
(1.12593 -0.0501549 6.46803e-10)
(1.14293 -0.0148916 3.63107e-10)
(1.13749 0.0211768 1.14842e-10)
(1.11459 0.0488502 -1.42968e-12)
(1.08227 0.0644925 -2.62927e-11)
(1.04741 0.0687151 -1.47337e-11)
(1.01438 0.063413 4.75227e-11)
(0.985882 0.0497566 1.2959e-10)
(0.964102 0.0279069 -2.50356e-10)
(0.95183 -0.00188271 -2.21633e-09)
(0.953583 -0.0371881 -6.60023e-09)
(0.974356 -0.071215 -1.25744e-08)
(1.01449 -0.0930887 -1.7958e-08)
(1.06586 -0.0925686 -2.05767e-08)
(1.11411 -0.0668682 -1.90697e-08)
(1.14468 -0.023845 -1.38259e-08)
(1.14909 0.021886 -7.37131e-09)
(1.12874 0.0570372 -2.45619e-09)
(1.09293 0.0755916 -4.3059e-11)
(1.05262 0.0787016 5.83099e-10)
(1.01522 0.0706017 4.0265e-10)
(0.98385 0.0545329 -4.00848e-10)
(0.96036 0.0310798 -2.32777e-09)
(0.948787 -0.000330575 -5.54158e-09)
(0.955073 -0.0375221 -9.18888e-09)
(0.982104 -0.0727038 -1.20809e-08)
(1.0254 -0.094533 -1.38272e-08)
(1.07409 -0.0941658 -1.48699e-08)
(1.11556 -0.0703244 -1.54638e-08)
(1.14008 -0.0299448 -1.49318e-08)
(1.14324 0.015113 -1.23687e-08)
(1.1263 0.0528281 -8.09564e-09)
(1.095 0.0754113 -3.69325e-09)
(1.05722 0.0812471 -6.73081e-10)
(1.02012 0.0732734 4.01644e-10)
(0.988935 0.0551868 -2.56168e-10)
(0.968045 0.0288293 -2.08428e-09)
(0.962242 -0.00467278 -4.32828e-09)
(0.975161 -0.0413139 -6.20991e-09)
(1.00588 -0.0727895 -7.28262e-09)
(1.04775 -0.0895625 -7.62583e-09)
(1.09061 -0.0857828 -7.66739e-09)
(1.12432 -0.0622105 -7.80543e-09)
(1.14167 -0.0256424 -8.03126e-09)
(1.14016 0.0141454 -7.83231e-09)
(1.12196 0.0478419 -6.65343e-09)
(1.09246 0.0691764 -4.54549e-09)