/*--------------------------------*- C++ -*----------------------------------*\
  =========                 |
  \\      /  F ield         | OpenFOAM: The Open Source CFD Toolbox
   \\    /   O peration     | Website:  https://openfoam.org
    \\  /    A nd           | Version:  11
     \\/     M anipulation  |
\*---------------------------------------------------------------------------*/
FoamFile
{
    format      ascii;
    class       volVectorField;
    location    "1.909074";
    object      vorticity;
}
// * * * * * * * * * * * * * * * * * * * * * * * * * * * * * * * * * * * * * //

dimensions      [0 0 -1 0 0 0 0];

internalField   nonuniform List<vector> 
7132
(
(-4.58297e-17 -1.83326e-15 -0.0112621)
(-1.45339e-16 -1.79175e-15 -0.0112579)
(-1.45255e-16 -1.90982e-17 -0.0112733)
(-1.69718e-16 -1.77485e-15 -0.0113139)
(-2.12024e-16 -1.76501e-15 -0.0113827)
(-2.09413e-16 8.84432e-19 -0.0114806)
(-1.91014e-16 1.36762e-17 -0.0116072)
(-1.73689e-16 1.43578e-17 -0.0117569)
(-9.932e-17 1.02499e-17 -0.0119225)
(-7.84495e-17 8.5842e-18 -0.0120906)
(-1.01756e-16 6.00925e-18 -0.012243)
(-1.3045e-17 6.13835e-18 -0.0123779)
(-3.58214e-17 -2.63148e-18 -0.012481)
(-2.47836e-17 7.27737e-17 -0.0125428)
(1.82062e-16 -1.57224e-15 -0.0125629)
(3.74363e-16 -1.55421e-15 -0.012539)
(5.56346e-16 -1.63957e-15 -0.0124719)
(5.05179e-16 6.15537e-17 -0.0123651)
(5.82868e-16 -1.6073e-15 -0.0122235)
(6.42705e-16 -1.68552e-15 -0.0120528)
(5.47469e-16 -3.24507e-17 -0.0118582)
(4.58218e-16 -3.97376e-17 -0.0116443)
(3.77681e-16 -4.3148e-17 -0.0114144)
(3.08556e-16 -7.57594e-17 -0.0111698)
(1.89083e-16 1.65969e-15 -0.0109084)
(1.65204e-16 -4.2854e-17 -0.010625)
(1.48283e-16 -4.15448e-17 -0.0103171)
(1.26553e-16 -3.71125e-17 -0.00999867)
(6.61615e-17 -3.31447e-17 -0.00971051)
(-3.31986e-17 1.71183e-15 -0.00950863)
(-1.03231e-16 1.72021e-15 -0.00941973)
(-1.04913e-16 1.69787e-15 -0.00938294)
(6.31287e-17 -8.97486e-17 -0.00922491)
(2.69437e-16 1.62519e-15 -0.00871016)
(3.8773e-16 1.67591e-15 -0.00766065)
(2.90324e-16 1.77275e-15 -0.00607932)
(-5.16531e-17 1.85847e-15 -0.00419348)
(-4.28254e-16 1.31253e-16 -0.00237731)
(-6.39305e-16 1.80835e-15 -0.000991577)
(-5.33629e-16 1.72596e-15 -0.000230898)
(-1.7705e-16 1.66745e-15 -6.1766e-05)
(2.12907e-16 1.65957e-15 -0.000274667)
(4.84665e-16 -5.31946e-17 -0.000605262)
(5.21112e-16 1.72498e-15 -0.000849982)
(3.83539e-16 1.75988e-15 -0.000921778)
(1.60604e-16 1.76981e-15 -0.000837712)
(-7.3862e-17 1.75799e-15 -0.000667636)
(-2.1792e-16 -9.15224e-18 -0.000482589)
(-2.72994e-16 1.71267e-15 -0.00032655)
(-2.43964e-16 1.72959e-15 -0.000213539)
(-1.28571e-16 1.48994e-18 -0.000138725)
(-3.31686e-17 -1.74313e-15 -9.10076e-05)
(1.87129e-17 -6.1508e-18 -6.05341e-05)
(4.8653e-17 2.49564e-18 -4.0815e-05)
(3.34011e-17 1.03686e-17 -2.79923e-05)
(3.87049e-17 1.26188e-17 -1.96391e-05)
(2.75846e-17 -1.73564e-15 -1.40785e-05)
(3.9252e-18 -6.29137e-18 -1.01754e-05)
(1.38421e-19 -2.79518e-18 -7.26149e-06)
(-1.46099e-17 3.76982e-18 -5.01314e-06)
(9.21808e-18 6.39609e-18 -3.29016e-06)
(1.52274e-17 -1.73546e-15 -2.00972e-06)
(1.53214e-17 4.91634e-18 -1.08865e-06)
(1.58065e-17 -1.73294e-15 -4.38934e-07)
(9.02671e-18 -1.7419e-15 1.8285e-08)
(3.31262e-17 -2.89412e-18 3.42459e-07)
(1.24024e-17 -1.73742e-15 5.73544e-07)
(6.86647e-18 4.74935e-18 7.37258e-07)
(7.25758e-18 -1.73262e-15 8.50964e-07)
(1.58162e-18 -1.7414e-15 9.27286e-07)
(2.67614e-17 -2.33956e-18 9.75935e-07)
(6.87804e-18 -1.73692e-15 1.00432e-06)
(2.01136e-18 5.12904e-18 1.01802e-06)
(2.99036e-18 -1.73235e-15 1.02109e-06)
(-2.14635e-18 -1.74118e-15 1.0165e-06)
(2.35182e-17 -2.12112e-18 1.0064e-06)
(4.05081e-18 -1.73672e-15 9.92382e-07)
(-4.77959e-19 5.24622e-18 9.75592e-07)
(7.56358e-19 -1.73244e-15 9.56891e-07)
(-4.21532e-18 -1.74157e-15 9.36905e-07)
(2.15183e-17 -2.81619e-18 9.16096e-07)
(2.03023e-18 -1.73759e-15 8.94805e-07)
(-2.57985e-18 4.44049e-18 8.73278e-07)
(-1.43357e-18 -1.73291e-15 8.51704e-07)
(-6.43557e-18 -1.74151e-15 8.30212e-07)
(1.93816e-17 -2.18334e-18 8.08911e-07)
(1.03781e-19 -1.7365e-15 7.87866e-07)
(-4.14763e-18 5.73475e-18 7.6714e-07)
(-2.74142e-18 -1.73165e-15 7.46762e-07)
(-6.79345e-18 -1.74068e-15 7.26774e-07)
(1.67933e-17 -7.36866e-19 7.07183e-07)
(8.46847e-18 -1.74114e-15 6.88017e-07)
(2.58504e-18 -3.16071e-18 6.69273e-07)
(1.16166e-17 5.01289e-18 6.5097e-07)
(1.11332e-17 -1.7345e-15 6.33095e-07)
(1.1153e-17 9.95379e-19 6.15664e-07)
(-9.68315e-19 -1.74017e-15 5.9866e-07)
(-6.11278e-18 -2.26399e-18 5.82095e-07)
(4.48695e-18 5.8809e-18 5.65947e-07)
(5.53567e-18 -1.73376e-15 5.50228e-07)
(6.86633e-18 1.5103e-18 5.34915e-07)
(-4.19407e-18 -1.73992e-15 5.20017e-07)
(-8.51677e-18 -2.22524e-18 5.05509e-07)
(2.6942e-18 5.7961e-18 4.91402e-07)
(4.18409e-18 -1.73387e-15 4.77667e-07)
(5.83083e-18 1.43873e-18 4.64316e-07)
(-4.99764e-18 -1.73993e-15 4.51321e-07)
(-9.14167e-18 -2.193e-18 4.38691e-07)
(2.21396e-18 5.84557e-18 4.26399e-07)
(3.82411e-18 -1.73382e-15 4.14454e-07)
(5.57077e-18 1.46518e-18 4.02829e-07)
(-5.17621e-18 -1.73992e-15 3.91533e-07)
(-9.25543e-18 -2.1987e-18 3.80541e-07)
(2.15075e-18 5.83066e-18 3.69859e-07)
(3.79914e-18 -1.73384e-15 3.59464e-07)
(5.57458e-18 1.43039e-18 3.49364e-07)
(-5.15608e-18 -1.73991e-15 3.39534e-07)
(-9.21018e-18 -2.45918e-18 3.29982e-07)
(2.16215e-18 6.72131e-18 3.20686e-07)
(3.97824e-18 -1.73835e-15 3.11653e-07)
(5.47261e-18 -6.77397e-18 3.02863e-07)
(-5.85658e-18 -1.75583e-18 2.9432e-07)
(-9.88563e-18 5.1491e-18 2.86007e-07)
(1.77402e-18 9.11323e-18 2.77928e-07)
(3.9009e-18 -1.73713e-15 2.70068e-07)
(5.62933e-18 -5.9733e-18 2.62429e-07)
(-5.57345e-18 -1.37726e-18 2.54997e-07)
(-9.57663e-18 5.00735e-18 2.47775e-07)
(2.03954e-18 8.47175e-18 2.4075e-07)
(4.09497e-18 -1.7381e-15 2.33924e-07)
(5.76102e-18 -7.00173e-18 2.27285e-07)
(-5.47389e-18 -2.22232e-18 2.20836e-07)
(-9.47674e-18 4.48437e-18 2.14564e-07)
(2.16066e-18 8.27494e-18 2.08473e-07)
(4.24211e-18 -1.73807e-15 2.02551e-07)
(5.92668e-18 -6.86988e-18 1.96801e-07)
(-5.30213e-18 -2.09683e-18 1.91213e-07)
(-9.30965e-18 4.55199e-18 1.85788e-07)
(2.31702e-18 8.28233e-18 1.80519e-07)
(4.38627e-18 -1.7381e-15 1.75405e-07)
(6.05986e-18 -6.90824e-18 1.70439e-07)
(-5.17798e-18 -2.1279e-18 1.65621e-07)
(-9.19303e-18 4.53202e-18 1.60947e-07)
(2.42672e-18 8.26798e-18 1.56413e-07)
(4.48869e-18 -1.73812e-15 1.52016e-07)
(6.1541e-18 -6.93535e-18 1.47754e-07)
(-5.09252e-18 -2.15815e-18 1.43624e-07)
(-9.1153e-18 4.52402e-18 1.39622e-07)
(2.50105e-18 8.32623e-18 1.35747e-07)
(4.56784e-18 -1.73794e-15 1.31995e-07)
(6.24861e-18 -6.628e-18 1.28364e-07)
(-4.97375e-18 -1.74713e-18 1.2485e-07)
(-8.97e-18 4.94598e-18 1.21454e-07)
(2.66558e-18 8.62527e-18 1.1817e-07)
(4.73329e-18 -1.73786e-15 1.14999e-07)
(6.40021e-18 -6.89562e-18 1.11935e-07)
(-4.88172e-18 -1.93237e-18 1.08995e-07)
(-8.82463e-18 3.19495e-18 1.06085e-07)
(2.36338e-18 1.37143e-17 1.03621e-07)
(5.9834e-18 -1.7251e-15 9.92578e-08)
(-4.60903e-17 -4.00883e-18 -0.0336884)
(-1.5088e-16 -7.09844e-18 -0.0336772)
(-1.60001e-16 -7.75591e-18 -0.0337226)
(-1.88882e-16 -8.43603e-18 -0.0338394)
(-2.42515e-16 -8.7452e-18 -0.0340358)
(-2.47154e-16 -7.92644e-18 -0.0343139)
(-2.50217e-16 -4.186e-18 -0.0346731)
(-2.45559e-16 -3.14891e-17 -0.035096)
(-1.13554e-16 1.69735e-15 -0.035562)
(-1.98724e-16 9.80224e-18 -0.0360308)
(-5.38605e-16 -2.6693e-17 -0.036442)
(-5.39088e-16 1.70789e-15 -0.0367865)
(1.36938e-16 3.23784e-18 -0.0370149)
(9.79833e-16 -3.65914e-17 -0.0370936)
(1.40502e-15 -3.62448e-17 -0.0370137)
(1.35292e-15 -4.51586e-18 -0.0367672)
(1.14394e-15 2.88936e-17 -0.0363632)
(7.1677e-16 4.9987e-17 -0.0358234)
(5.10905e-16 6.20484e-17 -0.0351776)
(4.21125e-16 6.3517e-17 -0.0344585)
(2.73677e-16 5.64046e-17 -0.0336962)
(1.71601e-16 4.51566e-17 -0.0329143)
(1.04992e-16 3.16831e-17 -0.0321283)
(8.87603e-17 1.51515e-17 -0.0313431)
(7.28516e-17 -3.3599e-18 -0.0305501)
(1.55025e-16 -1.9066e-17 -0.0297276)
(1.902e-16 -2.22193e-17 -0.0288595)
(8.17357e-17 3.94828e-18 -0.0279765)
(-1.97417e-16 4.5884e-17 -0.0271929)
(-5.1388e-16 6.09591e-17 -0.0266788)
(-5.52542e-16 1.75607e-15 -0.0265343)
(-7.01457e-17 -1.85391e-15 -0.0266091)
(7.8523e-16 -2.01101e-15 -0.0264101)
(1.44929e-15 -2.71936e-16 -0.0252256)
(1.33863e-15 -1.80376e-15 -0.0224689)
(2.6311e-16 1.9926e-15 -0.0180594)
(-1.24556e-15 4.83035e-16 -0.0125892)
(-2.28532e-15 -1.30964e-15 -0.0071341)
(-2.15182e-15 1.26329e-16 -0.00279592)
(-7.82015e-16 -1.97472e-15 -0.000235093)
(1.20153e-15 1.29406e-15 0.000549742)
(2.98102e-15 -4.05961e-16 0.000105854)
(3.91975e-15 -1.94202e-15 -0.000811805)
(3.81234e-15 4.0715e-17 -0.0015862)
(2.87264e-15 -1.52931e-15 -0.00192193)
(1.46653e-15 1.99856e-15 -0.00182892)
(2.06042e-17 2.1263e-16 -0.00148316)
(-1.12939e-15 -1.64426e-15 -0.00107688)
(-1.75339e-15 -9.02438e-18 -0.000732036)
(-1.75489e-15 -1.81206e-15 -0.000487732)
(-1.25205e-15 -1.83865e-15 -0.000330554)
(-5.77643e-16 -8.20471e-17 -0.000230783)
(-2.36958e-17 -1.78177e-15 -0.000164055)
(2.95638e-16 -4.84845e-18 -0.000116729)
(3.46811e-16 -1.71938e-15 -8.25931e-05)
(2.59125e-16 -1.7192e-15 -5.84207e-05)
(1.18211e-16 1.64722e-17 -4.16244e-05)
(-9.85402e-18 -1.72729e-15 -2.98695e-05)
(-5.06936e-17 6.47238e-18 -2.13674e-05)
(-4.65168e-17 -1.73549e-15 -1.50088e-05)
(1.37994e-18 -1.74325e-15 -1.02008e-05)
(2.51416e-17 -3.78556e-18 -6.60938e-06)
(2.87798e-17 -1.7301e-15 -3.98346e-06)
(4.27298e-17 4.92907e-18 -2.09561e-06)
(1.4436e-17 -3.48529e-15 -7.46836e-07)
(1.91113e-17 1.73014e-15 2.18223e-07)
(1.97241e-17 1.04351e-17 9.09892e-07)
(1.56949e-17 -1.7274e-15 1.40321e-06)
(3.08468e-17 4.74457e-18 1.75018e-06)
(6.18926e-18 -3.48587e-15 1.98852e-06)
(1.34231e-17 1.72974e-15 2.1466e-06)
(1.49511e-17 1.01767e-17 2.24582e-06)
(1.0943e-17 -1.72765e-15 2.30214e-06)
(2.60104e-17 4.4545e-18 2.3273e-06)
(1.49896e-18 -3.48616e-15 2.32987e-06)
(9.07418e-18 1.7295e-15 2.31613e-06)
(1.09993e-17 1.00062e-17 2.29068e-06)
(7.3292e-18 -1.72783e-15 2.25691e-06)
(2.26157e-17 4.15453e-18 2.2173e-06)
(-1.82877e-18 -3.48667e-15 2.17369e-06)
(5.63782e-18 1.72878e-15 2.12741e-06)
(7.28611e-18 9.1873e-18 2.07946e-06)
(3.23132e-18 -1.72855e-15 2.03056e-06)
(1.81462e-17 3.74185e-18 1.98126e-06)
(-6.50717e-18 -3.48664e-15 1.93193e-06)
(1.0459e-18 1.72927e-15 1.88289e-06)
(3.09897e-18 9.98708e-18 1.83432e-06)
(-1.44117e-19 -1.72757e-15 1.78641e-06)
(1.51666e-17 4.39858e-18 1.73925e-06)
(-6.27951e-18 -3.48517e-15 1.69294e-06)
(-9.79312e-18 1.72636e-15 1.64753e-06)
(-6.38095e-18 6.8512e-19 1.60307e-06)
(-1.87894e-17 -4.73476e-18 1.55957e-06)
(-7.84951e-18 1.73546e-15 1.51708e-06)
(-4.538e-18 4.57954e-19 1.47558e-06)
(-3.71318e-18 1.74177e-15 1.4351e-06)
(-7.9545e-19 3.18468e-18 1.3956e-06)
(-1.44656e-17 -4.99162e-18 1.35711e-06)
(-4.56571e-18 1.73478e-15 1.31959e-06)
(-1.92267e-18 -2.23125e-19 1.28306e-06)
(-1.47871e-18 1.7411e-15 1.24747e-06)
(1.21326e-18 2.49872e-18 1.21283e-06)
(-1.26385e-17 -5.66938e-18 1.17911e-06)
(-2.93766e-18 1.73417e-15 1.1463e-06)
(-5.22858e-19 -7.12478e-19 1.11436e-06)
(-3.15864e-19 1.74075e-15 1.0833e-06)
(2.16041e-18 2.28093e-18 1.05308e-06)
(-1.1864e-17 -5.7988e-18 1.02369e-06)
(-2.28604e-18 1.73409e-15 9.95094e-07)
(4.91537e-20 -7.7895e-19 9.6729e-07)
(2.07025e-19 1.74069e-15 9.4024e-07)
(2.65193e-18 2.21595e-18 9.1394e-07)
(-1.13953e-17 -5.86218e-18 8.88353e-07)
(-1.83666e-18 1.73403e-15 8.63477e-07)
(4.78769e-19 -8.30085e-19 8.39276e-07)
(6.19017e-19 1.74063e-15 8.15745e-07)
(3.02261e-18 2.20313e-18 7.92853e-07)
(-1.09656e-17 -6.11829e-18 7.70595e-07)
(-1.84825e-18 1.73485e-15 7.48941e-07)
(2.60473e-18 -5.28251e-18 7.27886e-07)
(-7.9076e-18 1.73287e-15 7.07403e-07)
(-9.04198e-18 1.74065e-15 6.87487e-07)
(-1.09775e-17 1.3338e-18 6.68112e-07)
(8.72238e-19 1.73694e-15 6.49273e-07)
(5.81764e-18 -4.33895e-18 6.30947e-07)
(-4.78415e-18 1.73349e-15 6.1313e-07)
(-6.22785e-18 1.74095e-15 5.95799e-07)
(-8.60288e-18 1.20086e-18 5.78951e-07)
(2.74178e-18 1.73636e-15 5.62565e-07)
(7.19501e-18 -5.23871e-18 5.46637e-07)
(-3.81286e-18 1.73251e-15 5.31148e-07)
(-5.53475e-18 1.74012e-15 5.16095e-07)
(-8.0605e-18 6.6709e-19 5.01461e-07)
(3.22706e-18 1.73614e-15 4.87241e-07)
(7.67028e-18 -5.22809e-18 4.7342e-07)
(-3.3396e-18 1.73263e-15 4.59994e-07)
(-5.07645e-18 1.74024e-15 4.46949e-07)
(-7.63346e-18 7.42414e-19 4.3428e-07)
(3.61344e-18 1.73616e-15 4.21975e-07)
(8.0156e-18 -5.24544e-18 4.1003e-07)
(-3.02981e-18 1.7326e-15 3.98433e-07)
(-4.79484e-18 1.74022e-15 3.87178e-07)
(-7.37391e-18 7.29669e-19 3.76258e-07)
(3.85444e-18 1.73615e-15 3.65665e-07)
(8.23887e-18 -5.25556e-18 3.55392e-07)
(-2.82538e-18 1.73258e-15 3.45432e-07)
(-4.61035e-18 1.7402e-15 3.35779e-07)
(-7.20721e-18 7.27233e-19 3.26426e-07)
(4.0125e-18 1.73621e-15 3.17367e-07)
(8.40612e-18 -5.09386e-18 3.08596e-07)
(-2.62527e-18 1.73287e-15 3.00107e-07)
(-4.35617e-18 1.74059e-15 2.91893e-07)
(-6.89163e-18 1.12632e-18 2.8395e-07)
(4.37614e-18 1.7365e-15 2.76271e-07)
(8.777e-18 -5.00841e-18 2.68855e-07)
(-2.26953e-18 1.73264e-15 2.61685e-07)
(-4.18069e-18 1.7404e-15 2.54803e-07)
(-6.30065e-18 -4.27597e-19 2.47997e-07)
(2.29253e-18 1.74103e-15 2.42214e-07)
(1.95799e-17 7.81126e-18 2.31969e-07)
(-1.46748e-18 -4.92854e-20 -0.0558305)
(-1.7093e-17 -6.76357e-20 -0.0558102)
(-3.18315e-17 -9.7177e-20 -0.0558812)
(-5.34089e-17 1.13073e-18 -0.0560676)
(-6.91337e-17 -1.15102e-18 -0.0563828)
(-7.74604e-17 4.7357e-18 -0.0568298)
(-2.28038e-16 1.28785e-17 -0.0574076)
(1.53129e-16 -4.04214e-17 -0.0580859)
(-1.47029e-17 -1.31675e-17 -0.058831)
(-1.75389e-15 2.07557e-16 -0.0595713)
(-9.97868e-16 1.82968e-16 -0.0601992)
(4.75022e-15 -3.31633e-16 -0.0607086)
(1.01621e-14 -7.68868e-16 -0.0610056)
(9.54335e-15 -5.61268e-16 -0.0610271)
(4.29401e-15 -2.40608e-17 -0.0607545)
(-1.01631e-15 3.11047e-16 -0.0601739)
(-4.55626e-15 4.13223e-16 -0.0593059)
(-6.26217e-15 3.78073e-16 -0.0581939)
(-6.56667e-15 2.75246e-16 -0.0568971)
(-5.95073e-15 1.6782e-16 -0.055482)
(-4.88078e-15 9.23111e-17 -0.0540119)
(-3.7469e-15 4.4605e-17 -0.052537)
(-2.74212e-15 -1.72761e-18 -0.051091)
(-1.81198e-15 -5.96893e-17 -0.0496868)
(-8.59814e-16 -1.08168e-16 -0.048311)
(-4.19886e-17 -1.01528e-16 -0.0469247)
(1.95173e-16 -4.90006e-18 -0.0454936)
(-4.56746e-16 1.56696e-16 -0.0440579)
(-1.56637e-15 2.64663e-16 -0.0427981)
(-1.89881e-15 1.52978e-16 -0.0420015)
(-3.2093e-16 -2.34687e-16 -0.0418593)
(2.83733e-15 -7.0235e-16 -0.0421634)
(5.3323e-15 -8.5116e-16 -0.0421272)
(4.45097e-15 -3.87499e-16 -0.0405606)
(-3.76191e-16 5.34273e-16 -0.0364222)
(-6.29802e-15 1.32969e-15 -0.0294671)
(-8.80915e-15 1.39776e-15 -0.02057)
(-5.16896e-15 5.84381e-16 -0.0114629)
(3.496e-15 -6.77863e-16 -0.00400262)
(1.31708e-14 -1.68554e-15 0.000618244)
(2.00592e-14 -1.94874e-15 0.00227945)
(2.28387e-14 -1.43374e-15 0.00178916)
(2.23877e-14 -4.68855e-16 0.000352487)
(2.00798e-14 5.13603e-16 -0.00100026)
(1.6407e-14 1.19785e-15 -0.00173732)
(1.1047e-14 1.46089e-15 -0.00182289)
(4.02922e-15 1.32154e-15 -0.0015038)
(-3.35964e-15 8.77844e-16 -0.00106809)
(-8.92102e-15 2.90574e-16 -0.000700746)
(-1.08879e-14 -2.55822e-16 -0.000459266)
(-9.11261e-15 -5.87118e-16 -0.000320803)
(-5.1056e-15 1.11211e-15 -0.000240169)
(-1.01251e-15 -4.42791e-16 -0.000184088)
(1.59762e-15 -1.82731e-16 -0.000138314)
(2.32351e-15 2.85984e-17 -0.000100421)
(1.73545e-15 1.26945e-16 -7.11783e-05)
(7.29517e-16 1.86832e-15 -5.02352e-05)
(-3.59457e-17 7.81611e-17 -3.57716e-05)
(-3.42426e-16 1.55296e-17 -2.56439e-05)
(-3.053e-16 -2.22736e-17 -1.82501e-05)
(-1.39711e-16 -2.94265e-17 -1.26821e-05)
(-2.99232e-18 1.72029e-15 -8.47915e-06)
(5.37974e-17 -3.87776e-18 -5.36029e-06)
(5.28566e-17 1.74368e-15 -3.09029e-06)
(3.01342e-17 4.63111e-18 -1.4565e-06)
(1.29714e-17 -5.53489e-18 -2.83307e-07)
(6.70385e-18 1.73373e-15 5.59684e-07)
(7.01121e-18 -8.12003e-19 1.16351e-06)
(1.01991e-17 1.74158e-15 1.59152e-06)
(1.09361e-17 2.03667e-18 1.88936e-06)
(1.12376e-17 -6.71966e-18 2.09098e-06)
(1.07414e-17 1.73376e-15 2.22189e-06)
(9.63668e-18 -4.00591e-19 2.30114e-06)
(9.79198e-18 1.74182e-15 2.34276e-06)
(8.67308e-18 2.0151e-18 2.35704e-06)
(8.55245e-18 -6.87116e-18 2.35151e-06)
(8.34011e-18 1.7336e-15 2.33172e-06)
(7.58381e-18 -5.61978e-19 2.30173e-06)
(7.88076e-18 1.74159e-15 2.26454e-06)
(6.66745e-18 1.64447e-18 2.22234e-06)
(6.25317e-18 -7.3736e-18 2.17676e-06)
(5.59349e-18 1.73306e-15 2.12898e-06)
(4.30741e-18 -9.89558e-19 2.07988e-06)
(4.11047e-18 1.74141e-15 2.03011e-06)
(2.5871e-18 1.76382e-18 1.98012e-06)
(2.17542e-18 -6.98641e-18 1.93028e-06)
(1.8691e-18 1.73354e-15 1.88084e-06)
(1.27873e-18 -2.9904e-19 1.83198e-06)
(1.80664e-18 1.74087e-15 1.78385e-06)
(1.45168e-18 6.52226e-18 1.73654e-06)
(8.99641e-19 -6.86147e-19 1.69013e-06)
(3.70128e-20 -1.92087e-18 1.64467e-06)
(-1.64238e-18 -2.42643e-18 1.60019e-06)
(-3.04834e-18 -2.11281e-18 1.55671e-06)
(-3.58943e-18 -1.842e-18 1.51425e-06)
(-3.59141e-18 -8.75897e-19 1.47281e-06)
(-3.71833e-18 -7.19734e-20 1.43239e-06)
(-4.62554e-18 -3.78861e-19 1.39298e-06)
(-5.24616e-18 -3.90581e-19 1.35458e-06)
(-5.01037e-18 -5.76937e-19 1.31716e-06)
(-4.29115e-18 -5.76607e-20 1.28072e-06)
(-3.81019e-18 3.87086e-19 1.24524e-06)
(-4.26543e-18 -1.49781e-19 1.21071e-06)
(-4.60021e-18 -2.61748e-19 1.1771e-06)
(-4.22168e-18 -4.5506e-19 1.14439e-06)
(-3.45907e-18 9.70995e-20 1.11256e-06)
(-2.98738e-18 5.68768e-19 1.0816e-06)
(-3.46857e-18 3.02237e-20 1.05148e-06)
(-3.82637e-18 -1.11026e-19 1.02218e-06)
(-3.46265e-18 -3.47076e-19 9.93675e-07)
(-2.70951e-18 1.63789e-19 9.65952e-07)
(-2.24713e-18 6.04033e-19 9.38987e-07)
(-2.74144e-18 4.55901e-20 9.12759e-07)
(-3.11796e-18 -1.06394e-19 8.87248e-07)
(-2.77945e-18 -3.46005e-19 8.62435e-07)
(-2.05738e-18 1.58471e-19 8.38299e-07)
(-1.63705e-18 6.03031e-19 8.14823e-07)
(-2.16025e-18 -2.3748e-20 7.91988e-07)
(-2.61953e-18 -6.38233e-20 7.69777e-07)
(-2.1301e-18 -5.97611e-19 7.48172e-07)
(-1.67333e-18 -9.50617e-19 7.27157e-07)
(-1.8144e-18 -2.20878e-19 7.06717e-07)
(-2.22553e-18 1.91993e-19 6.86835e-07)
(-2.26297e-18 7.1566e-19 6.67496e-07)
(-1.32068e-18 4.16901e-19 6.48687e-07)
(-5.37943e-19 4.94405e-20 6.30394e-07)
(-5.60067e-19 5.32107e-19 6.12603e-07)
(-1.07024e-18 5.22538e-19 5.95302e-07)
(-1.3716e-18 5.72804e-19 5.78478e-07)
(-7.63173e-19 -1.00651e-19 5.62118e-07)
(-2.84293e-19 -6.36849e-19 5.46213e-07)
(-5.1095e-19 -9.84979e-20 5.3075e-07)
(-1.10565e-18 1.03461e-19 5.15718e-07)
(-1.39455e-18 4.09549e-19 5.01109e-07)
(-7.22351e-19 -6.17482e-20 4.86911e-07)
(-1.72933e-19 -4.96519e-19 4.73115e-07)
(-3.49871e-19 5.01036e-20 4.59712e-07)
(-9.2328e-19 2.07045e-19 4.46692e-07)
(-1.21295e-18 4.57803e-19 4.34047e-07)
(-5.52366e-19 -5.23958e-20 4.2177e-07)
(-1.60202e-20 -5.03021e-19 4.0985e-07)
(-2.02754e-19 4.41484e-20 3.98281e-07)
(-7.82074e-19 2.07377e-19 3.87056e-07)
(-1.07562e-18 4.61588e-19 3.76165e-07)
(-4.19425e-19 -5.19567e-20 3.65603e-07)
(1.09912e-19 -5.10734e-19 3.55363e-07)
(-8.67287e-20 3.27631e-20 3.45436e-07)
(-6.76014e-19 2.12593e-19 3.35818e-07)
(-9.73162e-19 5.19571e-19 3.26501e-07)
(-3.05839e-19 9.88049e-20 3.17479e-07)
(2.55633e-19 -2.46853e-19 3.08747e-07)
(1.11203e-19 3.8605e-19 3.00298e-07)
(-4.16979e-19 5.79825e-19 2.92127e-07)
(-6.63391e-19 7.90959e-19 2.84227e-07)
(2.35914e-20 1.81738e-19 2.76595e-07)
(5.63632e-19 -4.16772e-19 2.69217e-07)
(3.50897e-19 8.31939e-20 2.6213e-07)
(-2.39023e-19 -4.16559e-20 2.55132e-07)
(-6.74165e-19 7.74022e-19 2.49144e-07)
(3.65578e-19 9.7757e-19 2.38489e-07)
(-4.80183e-17 5.27143e-18 -0.0774838)
(-1.49542e-16 8.08358e-18 -0.0774509)
(-1.23345e-16 1.0402e-17 -0.0775407)
(-1.73111e-16 1.02151e-17 -0.0777874)
(-2.65094e-17 3.28056e-18 -0.0782104)
(-4.7291e-16 7.15256e-17 -0.0788153)
(2.0384e-16 -1.19481e-16 -0.0796022)
(1.3583e-15 -1.38156e-16 -0.0805286)
(-5.78426e-15 2.65087e-15 -0.0815519)
(-1.30581e-15 5.01385e-16 -0.0825658)
(2.62982e-14 -5.01348e-15 -0.0834094)
(3.53653e-14 -3.87206e-15 -0.0841068)
(-7.66626e-15 -2.39333e-15 -0.0845106)
(-7.61906e-14 2.89743e-15 -0.0845308)
(-1.11565e-13 5.24359e-15 -0.0841414)
(-1.12902e-13 4.42062e-15 -0.0833171)
(-9.70752e-14 2.65182e-15 -0.0820872)
(-7.52057e-14 1.05519e-15 -0.0805113)
(-5.35567e-14 -9.36711e-17 -0.078669)
(-3.51836e-14 -7.79426e-16 -0.0766528)
(-2.07847e-14 -1.04551e-15 -0.0745519)
(-1.00368e-14 -1.02418e-15 -0.0724397)
(-2.52112e-15 -9.35776e-16 -0.0703662)
(2.58108e-15 -9.25999e-16 -0.0683532)
(6.16542e-15 -8.88357e-16 -0.0663856)
(8.15299e-15 -5.4656e-16 -0.0644117)
(7.53757e-15 1.85159e-16 -0.0623825)
(4.05767e-15 8.8472e-16 -0.0603487)
(8.86495e-16 7.66914e-16 -0.0585556)
(3.75415e-15 -5.61761e-16 -0.0574033)
(1.52481e-14 -6.12001e-16 -0.0571725)
(2.89153e-14 -4.68053e-15 -0.0576012)
(3.06836e-14 -2.81783e-15 -0.05762)
(1.11364e-14 2.58231e-15 -0.0555752)
(-2.13699e-14 3.57073e-15 -0.0499833)
(-4.16632e-14 6.20908e-15 -0.0404415)
(-2.6499e-14 -8.14983e-17 -0.0281047)
(2.47316e-14 -7.46222e-15 -0.0153526)
(8.71351e-14 -9.04357e-15 -0.00478477)
(1.29225e-13 -1.02563e-14 0.00188431)
(1.36675e-13 -3.53989e-15 0.00441845)
(1.19495e-13 -1.57021e-15 0.00388565)
(9.90854e-14 -5.62549e-16 0.00193459)
(8.89664e-14 3.03105e-15 3.82318e-07)
(8.5339e-14 2.98711e-15 -0.00115507)
(7.35764e-14 8.18747e-15 -0.00145164)
(4.35516e-14 7.41593e-15 -0.00120364)
(-1.63641e-16 4.83086e-15 -0.000788842)
(-4.08794e-14 3.75511e-15 -0.000449107)
(-6.18895e-14 -1.71626e-15 -0.000255907)
(-5.76784e-14 -4.72975e-15 -0.000174832)
(-3.58436e-14 -4.1321e-15 -0.00014492)
(-1.02936e-14 -5.13343e-15 -0.000124674)
(7.56471e-15 -1.67286e-15 -0.000100244)
(1.37608e-14 -1.7883e-15 -7.39503e-05)
(1.11281e-14 -9.22178e-16 -5.13828e-05)
(5.15025e-15 9.02169e-16 -3.5134e-05)
(2.26878e-16 -1.19134e-15 -2.4521e-05)
(-1.9632e-15 1.41149e-16 -1.75856e-05)
(-1.94891e-15 -1.83685e-15 -1.26818e-05)
(-9.95035e-16 -1.89439e-15 -8.93664e-06)
(-1.41833e-16 -1.0054e-16 -6.022e-06)
(2.4718e-16 -1.75802e-15 -3.81118e-06)
(2.63685e-16 1.67606e-17 -2.19194e-06)
(1.32815e-16 -3.46535e-15 -1.032e-06)
(3.28277e-17 1.74186e-15 -2.05137e-07)
(-2.3907e-17 1.34152e-17 3.86675e-07)
(-2.55887e-17 -1.72915e-15 8.10782e-07)
(-9.90228e-18 2.78215e-18 1.11221e-06)
(-4.55317e-19 -3.48639e-15 1.32248e-06)
(1.57264e-17 1.72983e-15 1.46502e-06)
(5.0527e-18 1.09771e-17 1.55764e-06)
(1.33184e-18 -1.72718e-15 1.61375e-06)
(7.0717e-19 4.9363e-18 1.64329e-06)
(-1.38297e-18 -3.48554e-15 1.65354e-06)
(1.14071e-17 1.72967e-15 1.64983e-06)
(1.86858e-18 1.04905e-17 1.63604e-06)
(4.33254e-20 -1.7276e-15 1.61506e-06)
(4.51259e-19 4.61271e-18 1.58899e-06)
(-1.49976e-18 -3.48586e-15 1.55939e-06)
(1.09874e-17 1.72932e-15 1.52741e-06)
(1.04225e-18 1.01602e-17 1.49387e-06)
(-1.16028e-18 -1.72781e-15 1.45939e-06)
(-1.05193e-18 4.602e-18 1.42444e-06)
(-3.1806e-18 -3.48567e-15 1.38934e-06)
(9.30264e-18 1.72963e-15 1.35435e-06)
(-4.78617e-19 1.04354e-17 1.31963e-06)
(-2.26268e-18 -1.72753e-15 1.28533e-06)
(-2.16691e-18 4.3121e-18 1.25154e-06)
(-1.74574e-18 -3.48472e-15 1.21833e-06)
(7.96664e-20 1.72706e-15 1.18575e-06)
(-1.1456e-17 1.95613e-18 1.15384e-06)
(-1.23891e-17 -3.19208e-18 1.12261e-06)
(-1.41691e-17 1.73644e-15 1.0921e-06)
(-2.80762e-18 7.29491e-19 1.0623e-06)
(1.33814e-18 1.74183e-15 1.03322e-06)
(-9.66611e-18 3.70175e-18 1.00485e-06)
(-1.04465e-17 -4.22771e-18 9.77199e-07)
(-1.2159e-17 1.73497e-15 9.50249e-07)
(-7.57398e-19 -7.00634e-19 9.23998e-07)
(3.40325e-18 1.7405e-15 8.9843e-07)
(-7.62154e-18 2.48586e-18 8.73539e-07)
(-8.46516e-18 -5.27436e-18 8.49308e-07)
(-1.02821e-17 1.73415e-15 8.25727e-07)
(9.84083e-19 -1.28305e-18 8.0278e-07)
(4.99335e-18 1.74014e-15 7.80454e-07)
(-6.18394e-18 2.28568e-18 7.58732e-07)
(-7.1701e-18 -5.3793e-18 7.37602e-07)
(-9.11353e-18 1.73408e-15 7.17047e-07)
(2.04351e-18 -1.33738e-18 6.97054e-07)
(5.95932e-18 1.74008e-15 6.77606e-07)
(-5.29913e-18 2.23192e-18 6.58691e-07)
(-6.35762e-18 -5.42676e-18 6.40292e-07)
(-8.36752e-18 1.73405e-15 6.22398e-07)
(2.72656e-18 -1.36038e-18 6.04991e-07)
(6.58102e-18 1.74006e-15 5.88061e-07)
(-4.7384e-18 2.25456e-18 5.71593e-07)
(-5.85562e-18 -5.62705e-18 5.55576e-07)
(-7.91495e-18 1.73484e-15 5.39996e-07)
(3.15485e-18 -5.75561e-18 5.24841e-07)
(7.03166e-18 1.73271e-15 5.101e-07)
(-4.20108e-18 1.74092e-15 4.95762e-07)
(-5.16356e-18 1.55808e-18 4.81816e-07)
(-7.02136e-18 1.73649e-15 4.68252e-07)
(4.24788e-18 -5.20146e-18 4.55058e-07)
(8.25772e-18 1.73311e-15 4.42227e-07)
(-2.96436e-18 1.74122e-15 4.29747e-07)
(-4.06128e-18 1.60663e-18 4.17612e-07)
(-6.17586e-18 1.73621e-15 4.0581e-07)
(4.77523e-18 -5.78236e-18 3.94335e-07)
(8.48069e-18 1.73238e-15 3.83178e-07)
(-2.97118e-18 1.74053e-15 3.72332e-07)
(-4.19594e-18 1.10889e-18 3.61789e-07)
(-6.34514e-18 1.73595e-15 3.51541e-07)
(4.63207e-18 -5.8389e-18 3.41583e-07)
(8.3866e-18 1.73244e-15 3.31906e-07)
(-3.02158e-18 1.74062e-15 3.22504e-07)
(-4.22075e-18 1.17395e-18 3.13372e-07)
(-6.36194e-18 1.73597e-15 3.04503e-07)
(4.61301e-18 -5.84391e-18 2.95891e-07)
(8.36289e-18 1.73242e-15 2.87531e-07)
(-3.0474e-18 1.74061e-15 2.79416e-07)
(-4.24472e-18 1.1661e-18 2.71542e-07)
(-6.38122e-18 1.73597e-15 2.63903e-07)
(4.599e-18 -5.84832e-18 2.56495e-07)
(8.35267e-18 1.73241e-15 2.49312e-07)
(-3.05619e-18 1.74059e-15 2.4235e-07)
(-4.25331e-18 1.17045e-18 2.35603e-07)
(-6.38749e-18 1.73602e-15 2.29068e-07)
(4.60179e-18 -5.70826e-18 2.2274e-07)
(8.375e-18 1.73266e-15 2.16615e-07)
(-3.00378e-18 1.74092e-15 2.10689e-07)
(-4.1651e-18 1.51362e-18 2.04957e-07)
(-6.26818e-18 1.73628e-15 1.99416e-07)
(4.74207e-18 -5.62193e-18 1.94063e-07)
(8.49552e-18 1.73247e-15 1.88888e-07)
(-2.82261e-18 1.7408e-15 1.83915e-07)
(-4.44136e-18 8.49336e-20 1.79016e-07)
(-4.46502e-18 1.74073e-15 1.74768e-07)
(-4.14564e-18 7.29138e-18 1.67128e-07)
(4.67849e-17 1.83345e-15 -0.0983979)
(1.80235e-16 1.77232e-15 -0.098348)
(1.44029e-16 1.16877e-17 -0.0984466)
(2.39761e-16 1.68744e-15 -0.0987379)
(5.87226e-16 1.88347e-15 -0.0992481)
(-1.58901e-15 1.62428e-15 -0.0999868)
(7.592e-15 -9.02727e-16 -0.100957)
(-1.38721e-14 3.00784e-15 -0.102103)
(-1.1265e-14 1.31889e-15 -0.103378)
(9.30825e-14 -1.76497e-14 -0.104635)
(6.3893e-14 -1.81255e-14 -0.105648)
(-2.69762e-13 1.66777e-14 -0.106518)
(-6.86177e-13 5.4982e-14 -0.107019)
(-8.60993e-13 5.1388e-14 -0.107033)
(-7.07461e-13 1.83315e-14 -0.106539)
(-4.47752e-13 -5.19896e-15 -0.105503)
(-2.19227e-13 -1.67e-14 -0.103968)
(-5.56127e-14 -2.13812e-14 -0.102004)
(4.57453e-14 -1.80011e-14 -0.0997066)
(1.00058e-13 -1.44835e-14 -0.0971857)
(1.24126e-13 -1.24811e-14 -0.094552)
(1.30914e-13 -9.08716e-15 -0.0918974)
(1.28408e-13 -6.31065e-15 -0.0892855)
(1.2075e-13 -4.40296e-15 -0.0867448)
(1.10282e-13 -2.89412e-15 -0.0842582)
(9.73313e-14 -4.25705e-15 -0.0817608)
(8.09691e-14 2.04276e-15 -0.0791893)
(6.46513e-14 3.48223e-15 -0.076602)
(6.13103e-14 4.1642e-16 -0.074302)
(8.69059e-14 -7.0346e-15 -0.0727941)
(1.38118e-13 -1.45466e-14 -0.0724443)
(1.75521e-13 -1.01446e-14 -0.072943)
(1.43376e-13 8.03487e-15 -0.0729572)
(2.7072e-14 2.3902e-14 -0.0703942)
(-1.03159e-13 2.51993e-14 -0.0633481)
(-1.2357e-13 2.15867e-15 -0.0512624)
(4.05727e-14 -3.35347e-14 -0.03556)
(3.33044e-13 -5.62326e-14 -0.0192462)
(5.93066e-13 -5.4659e-14 -0.00564207)
(6.78618e-13 -2.81904e-14 0.00303053)
(5.76035e-13 1.18144e-15 0.00642299)
(4.00219e-13 1.56274e-14 0.00585772)
(2.94673e-13 1.47957e-14 0.0034165)
(3.17795e-13 5.65204e-15 0.000928299)
(4.05239e-13 7.1577e-15 -0.000622482)
(4.31485e-13 2.0619e-14 -0.00111419)
(3.14087e-13 3.64574e-14 -0.000927515)
(7.65413e-14 4.30934e-14 -0.000527162)
(-1.7321e-13 2.94186e-14 -0.000209542)
(-3.22472e-13 6.40883e-15 -5.92467e-05)
(-3.25202e-13 -1.361e-14 -3.06539e-05)
(-2.16574e-13 -2.08456e-14 -4.77619e-05)
(-7.50361e-14 -2.21469e-14 -6.12777e-05)
(3.06531e-14 -1.04751e-14 -5.76329e-05)
(7.28534e-14 -1.7532e-15 -4.33995e-05)
(6.33933e-14 4.43225e-15 -2.84129e-05)
(3.1981e-14 9.05374e-15 -1.77801e-05)
(3.98081e-15 3.63489e-15 -1.17426e-05)
(-9.75334e-15 2.83816e-15 -8.49081e-06)
(-1.08356e-14 -5.06371e-16 -6.38705e-06)
(-6.1234e-15 -9.32953e-16 -4.66457e-06)
(-1.33585e-15 2.83392e-15 -3.17962e-06)
(1.10098e-15 -2.06637e-16 -1.98698e-06)
(1.41287e-15 3.53558e-15 -1.10722e-06)
(7.91238e-16 1.20063e-16 -4.91075e-07)
(1.32492e-16 1.80756e-15 -6.34193e-08)
(-1.45733e-16 3.49766e-15 2.3875e-07)
(-1.64098e-16 -7.81435e-18 4.55797e-07)
(-8.4616e-17 3.46374e-15 6.11332e-07)
(-1.01201e-17 -1.07773e-17 7.20407e-07)
(-8.72788e-18 1.72525e-15 7.94273e-07)
(9.58904e-18 3.47568e-15 8.41933e-07)
(5.35621e-18 1.77217e-18 8.7044e-07)
(-1.58955e-18 3.4779e-15 8.85073e-07)
(2.03611e-18 -3.33465e-18 8.89672e-07)
(-2.29539e-17 1.72623e-15 8.87016e-07)
(-2.59943e-18 3.47401e-15 8.7913e-07)
(2.32951e-18 1.46683e-19 8.67506e-07)
(1.08976e-18 3.47708e-15 8.53243e-07)
(5.88207e-18 -3.62358e-18 8.37151e-07)
(-2.00798e-17 1.72608e-15 8.19825e-07)
(-8.41211e-19 3.47386e-15 8.01704e-07)
(3.50324e-18 5.75333e-20 7.8311e-07)
(2.10033e-18 3.47714e-15 7.6428e-07)
(6.88814e-18 -3.41346e-18 7.45387e-07)
(-1.90786e-17 1.72639e-15 7.26561e-07)
(1.19176e-19 3.47405e-15 7.07895e-07)
(4.34634e-18 5.45109e-19 6.89459e-07)
(2.95166e-18 3.47533e-15 6.71301e-07)
(7.03019e-18 5.39897e-18 6.53462e-07)
(-1.65396e-17 1.73889e-15 6.35964e-07)
(-8.22762e-18 4.31351e-18 6.18829e-07)
(-2.39656e-18 -1.06988e-18 6.02065e-07)
(-1.15198e-17 -6.90354e-18 5.85684e-07)
(-1.11543e-17 -9.59562e-18 5.69687e-07)
(-1.12982e-17 1.73728e-15 5.54078e-07)
(7.12532e-19 5.82035e-18 5.38853e-07)
(5.77159e-18 8.67566e-19 5.24013e-07)
(-4.89127e-18 -5.23513e-18 5.09551e-07)
(-5.99105e-18 -8.35805e-18 4.95465e-07)
(-7.37271e-18 1.7381e-15 4.81747e-07)
(3.63039e-18 6.32129e-18 4.68392e-07)
(7.88982e-18 1.18048e-18 4.55392e-07)
(-3.38948e-18 -4.98637e-18 4.42741e-07)
(-4.94969e-18 -8.09277e-18 4.3043e-07)
(-6.6662e-18 1.7384e-15 4.18454e-07)
(4.09687e-18 6.65049e-18 4.06802e-07)
(8.1841e-18 1.49501e-18 3.95468e-07)
(-3.21967e-18 -4.71783e-18 3.84443e-07)
(-4.86964e-18 -7.8835e-18 3.73719e-07)
(-6.64955e-18 1.73856e-15 3.63288e-07)
(4.07033e-18 6.76251e-18 3.53144e-07)
(8.12959e-18 1.57978e-18 3.43276e-07)
(-3.29192e-18 -4.64849e-18 3.33679e-07)
(-4.95321e-18 -7.82027e-18 3.24344e-07)
(-6.74199e-18 1.73861e-15 3.15265e-07)
(3.97405e-18 6.82135e-18 3.06433e-07)
(8.01506e-18 1.56452e-18 2.97844e-07)
(-3.36525e-18 -4.56906e-18 2.89489e-07)
(-5.17263e-18 -8.07091e-18 2.81363e-07)
(-6.62477e-18 1.73745e-15 2.73458e-07)
(4.79761e-18 5.87673e-18 2.6577e-07)