/*--------------------------------*- C++ -*----------------------------------*\
  =========                 |
  \\      /  F ield         | OpenFOAM: The Open Source CFD Toolbox
   \\    /   O peration     | Website:  https://openfoam.org
    \\  /    A nd           | Version:  11
     \\/     M anipulation  |
\*---------------------------------------------------------------------------*/
FoamFile
{
    format      ascii;
    class       surfaceScalarField;
    location    "11.103487";
    object      phi;
}
// * * * * * * * * * * * * * * * * * * * * * * * * * * * * * * * * * * * * * //

dimensions      [0 3 -1 0 0 0 0];

internalField   nonuniform List<scalar> 
14638
(
0.00250229
-2.28603e-06
0.00250929
-7.00403e-06
0.00252147
-1.21799e-05
0.00253938
-1.79135e-05
0.00256355
-2.41713e-05
0.00259419
-3.06373e-05
0.00263096
-3.67647e-05
0.00267254
-4.15826e-05
0.00271659
-4.40527e-05
0.00275967
-4.30812e-05
0.00279767
-3.80013e-05
0.00282711
-2.94385e-05
0.00284518
-1.8067e-05
0.00284997
-4.78516e-06
0.00284074
9.22226e-06
0.00281847
2.22748e-05
0.00278635
3.21181e-05
0.00274965
3.6702e-05
0.0027147
3.49495e-05
0.00268773
2.6966e-05
0.00267364
1.40879e-05
0.00267488
-1.23246e-06
0.00269048
-1.55987e-05
0.00271549
-2.50184e-05
0.00274148
-2.59817e-05
0.00275875
-1.72768e-05
0.0027599
-1.15128e-06
0.00274226
1.76486e-05
0.00270804
3.4214e-05
0.00266282
4.52201e-05
0.00261363
4.91878e-05
0.00256777
4.58672e-05
0.0025322
3.55614e-05
0.00251337
1.88385e-05
0.00251659
-3.22322e-06
0.00254488
-2.82946e-05
0.00259677
-5.18898e-05
0.00266429
-6.7521e-05
0.00273325
-6.89562e-05
0.00278704
-5.37852e-05
0.00281265
-2.56146e-05
0.00280524
7.41186e-06
0.00276852
3.67206e-05
0.00271163
5.68905e-05
0.0026452
6.64306e-05
0.00257891
6.6286e-05
0.00252095
5.79604e-05
0.00247854
4.24074e-05
0.00245856
1.99835e-05
0.00246724
-8.68354e-06
0.0025084
-4.11542e-05
0.00258026
-7.18583e-05
0.0026728
-9.25462e-05
0.00276806
-9.5254e-05
0.00284459
-7.65288e-05
0.00288475
-4.01664e-05
0.00288091
3.8449e-06
0.00283708
4.38291e-05
0.00276558
7.14982e-05
0.00268124
8.43374e-05
0.00259698
8.426e-05
0.00252239
7.45871e-05
0.00246473
5.76616e-05
0.00243061
3.4121e-05
0.00242681
3.80291e-06
0.00245901
-3.22002e-05
0.00252856
-6.95472e-05
0.00262907
-0.000100515
0.00274548
-0.000116404
0.00285669
-0.000111213
0.00294107
-8.43821e-05
0.00298244
-4.13698e-05
0.00297465
7.78657e-06
0.00292334
5.13148e-05
0.00284388
7.94592e-05
0.00275616
8.77164e-05
0.00267854
7.76278e-05
0.00262413
5.44024e-05
0.00260095
2.31879e-05
0.00261372
-1.27698e-05
0.00266452
-5.08079e-05
0.00275115
-8.66213e-05
0.00286497
-0.000113829
0.00299089
-0.000125915
0.00310989
-0.000119003
0.00320357
-9.36804e-05
0.00325866
-5.50863e-05
0.00327
-1.13441e-05
0.00324097
2.90376e-05
0.003181
5.99685e-05
0.00310157
7.94248e-05
0.00301301
8.85678e-05
0.00292393
8.90781e-05
0.00284271
8.12211e-05
0.00277823
6.44783e-05
0.00273852
3.97096e-05
0.00272817
1.03465e-05
0.00274655
-1.8381e-05
0.00278772
-4.11723e-05
0.00284175
-5.40203e-05
0.00289655
-5.48004e-05
0.00294006
-4.35097e-05
0.00296251
-2.24567e-05
0.00295863
3.88149e-06
0.00292883
2.97977e-05
0.00287881
5.00269e-05
0.00281738
6.1423e-05
0.00275375
6.36371e-05
0.0026952
5.855e-05
0.00264617
4.90236e-05
0.00260842
3.77505e-05
0.00258177
2.66483e-05
0.00256498
1.67928e-05
0.00255634
8.64028e-06
0.00255404
2.29854e-06
0.00255632
-2.27587e-06
0.0025615
-5.17742e-06
0.00256802
-6.52573e-06
0.0025745
-6.48227e-06
0.00257978
-5.27888e-06
0.00258301
-3.23032e-06
0.00258373
-7.15888e-07
0.00258186
1.86844e-06
0.00257769
4.17022e-06
0.00257176
5.93179e-06
0.00256474
7.01558e-06
0.00255734
7.40154e-06
0.00255018
7.16397e-06
0.00254374
6.43884e-06
0.00253835
5.39086e-06
0.00253416
4.18588e-06
0.00253119
2.97076e-06
0.00252933
1.86109e-06
0.00252839
9.35798e-07
0.00252816
2.37712e-07
0.00252838
-2.21768e-07
0.00252883
-4.55715e-07
0.00252933
-4.94204e-07
0.0025297
-3.77463e-07
0.00252986
-1.50168e-07
0.00252971
1.4304e-07
0.00252925
4.6101e-07
0.00252848
7.68696e-07
0.00252744
1.03888e-06
0.00252619
1.25313e-06
0.00252479
1.40174e-06
0.00252331
1.48321e-06
0.0025218
1.50256e-06
0.00252033
1.4701e-06
0.00251893
1.39854e-06
0.00251763
1.30274e-06
0.00251644
1.19528e-06
0.00251535
1.08999e-06
0.00251435
9.9312e-07
0.00251344
9.15935e-07
0.00251258
8.54673e-07
0.00251176
8.19953e-07
0.00251096
7.98965e-07
0.00251017
7.97023e-07
8.21542e-07
0.00250226
-4.55036e-06
0.00250921
-1.39487e-05
0.00252131
-2.42804e-05
0.00253916
-3.57655e-05
0.00256334
-4.83515e-05
0.00259412
-6.14196e-05
0.00263124
-7.38825e-05
0.00267342
-8.37596e-05
0.0027183
-8.89322e-05
0.00276231
-8.70944e-05
0.00280116
-7.68502e-05
0.00283129
-5.9564e-05
0.00284982
-3.6601e-05
0.00285477
-9.7381e-06
0.0028453
1.86957e-05
0.00282226
4.53167e-05
0.0027889
6.54724e-05
0.0027507
7.49087e-05
0.00271425
7.13958e-05
0.00268609
5.51272e-05
0.00267139
2.87913e-05
0.00267282
-2.66566e-06
0.00268955
-3.2334e-05
0.00271649
-5.19567e-05
0.00274466
-5.4152e-05
0.00276368
-3.62988e-05
0.0027656
-3.07124e-06
0.00274765
3.56069e-05
0.0027123
6.95557e-05
0.0026655
9.20201e-05
0.00261456
0.000100129
0.00256693
9.35053e-05
0.00252968
7.28027e-05
0.00250944
3.90803e-05
0.0025119
-5.68256e-06
0.00254058
-5.69694e-05
0.00259436
-0.000105675
0.00266514
-0.000138296
0.00273784
-0.000141665
0.00279465
-0.000110588
0.00282161
-5.25805e-05
0.00281373
1.5296e-05
0.00277525
7.51995e-05
0.00271607
0.00011607
0.00264735
0.00013515
0.00257895
0.000134687
0.002519
0.000117908
0.0024747
8.67076e-05
0.00245311
4.15729e-05
0.00246098
-1.65534e-05
0.00250277
-8.29437e-05
0.00257715
-0.000146234
0.00267392
-0.000189312
0.00277409
-0.000195429
0.00285468
-0.000157122
0.00289675
-8.22329e-05
0.00289228
8.30947e-06
0.00284596
9.01582e-05
0.00277121
0.000146245
0.00268382
0.000171726
0.00259708
0.000171002
0.00252042
0.000151243
0.0024607
0.000117388
0.00242418
7.06336e-05
0.00241774
1.02471e-05
0.00244769
-6.21456e-05
0.00251626
-0.000138127
0.00261761
-0.000201864
0.00273639
-0.000235184
0.00285079
-0.000225609
0.00293847
-0.000172061
0.0029827
-8.56055e-05
0.0029768
1.3693e-05
0.00292593
0.00010218
0.00284546
0.000159929
0.00275573
0.000177451
0.00267571
0.000157647
0.00261904
0.000111068
0.00259417
4.80614e-05
0.00260653
-2.5136e-05
0.0026591
-0.000103371
0.00275005
-0.000177577
0.00287019
-0.000233971
0.00300289
-0.000258607
0.00312736
-0.000243476
0.00322385
-0.000190167
0.00327851
-0.000109752
0.0032865
-1.93313e-05
0.00325209
6.34414e-05
0.00318603
0.000126032
0.0031011
0.000164352
0.00300857
0.000181106
0.00291734
0.000180305
0.0028355
0.000163063
0.00277137
0.000128604
0.0027325
7.85799e-05
0.00272322
1.96258e-05
0.00274284
-3.79974e-05
0.00278544
-8.37699e-05
0.00284109
-0.000109679
0.0028977
-0.000111407
0.00294299
-8.88016e-05
0.00296687
-4.63332e-05
0.00296369
7.06048e-06
0.00293369
5.97937e-05
0.00288269
0.000101035
0.00281987
0.000124244
0.00275483
0.000128668
0.0026952
0.000118187
0.00264551
9.87094e-05
0.0026075
7.57656e-05
0.00258088
5.32621e-05
0.00256432
3.33584e-05
0.00255601
1.69444e-05
0.0025541
4.20727e-06
0.00255679
-4.96064e-06
0.00256237
-1.0758e-05
0.00256927
-1.34255e-05
0.00257607
-1.32846e-05
0.00258159
-1.07999e-05
0.00258497
-6.60747e-06
0.00258573
-1.4776e-06
0.00258382
3.78372e-06
0.00257953
8.45938e-06
0.00257343
1.20269e-05
0.00256624
1.42101e-05
0.00255867
1.49727e-05
0.00255136
1.44702e-05
0.00254482
1.29821e-05
0.00253936
1.08449e-05
0.00253515
8.39589e-06
0.00253219
5.93272e-06
0.00253036
3.68877e-06
0.00252948
1.82262e-06
0.0025293
4.19316e-07
0.00252957
-4.99674e-07
0.00253008
-9.62223e-07
0.00253062
-1.03024e-06
0.00253102
-7.85789e-07
0.00253119
-3.19568e-07
0.00253106
2.78051e-07
0.0025306
9.23926e-07
0.00252982
1.54737e-06
0.00252876
2.0936e-06
0.00252749
2.52562e-06
0.00252607
2.82416e-06
0.00252456
2.98648e-06
0.00252304
3.02308e-06
0.00252156
2.95506e-06
0.00252015
2.80837e-06
0.00251884
2.61319e-06
0.00251764
2.39504e-06
0.00251655
2.1818e-06
0.00251555
1.9862e-06
0.00251464
1.83073e-06
0.00251379
1.7079e-06
0.00251297
1.6387e-06
0.00251217
1.59764e-06
0.00251137
1.59421e-06
1.64518e-06
0.00250222
-6.77066e-06
0.00250904
-2.07687e-05
0.00252098
-3.62171e-05
0.0025387
-5.34862e-05
0.00256289
-7.25399e-05
0.00259395
-9.2484e-05
0.00263177
-0.000111704
0.00267515
-0.000127134
0.0027217
-0.00013549
0.00276761
-0.000132995
0.00280815
-0.000117395
0.00283963
-9.1043e-05
0.00285906
-5.6033e-05
0.00286431
-1.49859e-05
0.00285429
2.87105e-05
0.00282968
6.99281e-05
0.00279384
0.000101319
0.00275263
0.000116112
0.00271325
0.000110776
0.00268282
8.55647e-05
0.00266705
4.45584e-05
0.00266909
-4.70347e-06
0.0026883
-5.15524e-05
0.00271926
-8.29085e-05
0.00275187
-8.67622e-05
0.00277425
-5.86815e-05
0.00277737
-6.19015e-06
0.00275833
5.4644e-05
0.00272029
0.000107596
0.00267002
0.000142291
0.00261545
0.000154697
0.00256435
0.000144606
0.00252401
0.000113145
0.00250136
6.17334e-05
0.00250276
-7.0896e-06
0.00253272
-8.69258e-05
0.00259084
-0.000163798
0.0026686
-0.00021605
0.00274901
-0.000222078
0.00281162
-0.0001732
0.00284063
-8.15872e-05
0.00283087
2.50522e-05
0.00278796
0.000118116
0.00272352
0.000180505
0.0026499
0.000208776
0.00257728
0.000207297
0.00251369
0.000181505
0.00246616
0.000134234
0.00244194
6.57944e-05
0.00244826
-2.28717e-05
0.00249029
-0.000124974
0.00256762
-0.000223565
0.00267081
-0.0002925
0.00278027
-0.000304896
0.00287026
-0.000247107
0.00291807
-0.000130047
0.00291363
1.2754e-05
0.00286247
0.000141321
0.00278075
0.000227958
0.00268679
0.000265685
0.00259498
0.000262811
0.00251445
0.000231776
0.00245102
0.000180817
0.00241025
0.000111404
0.0023995
2.09972e-05
0.002427
-8.96459e-05
0.0024969
-0.000208029
0.00260331
-0.000308266
0.00272863
-0.000360509
0.00284843
-0.000345409
0.00293924
-0.000262871
0.0029848
-0.000131169
0.0029791
1.93954e-05
0.0029273
0.000153978
0.00284452
0.000242713
0.00275131
0.000270661
0.00266735
0.000241605
0.00260716
0.000171257
0.00258038
7.48433e-05
0.00259418
-3.89294e-05
0.00265297
-0.000162162
0.00275474
-0.000279354
0.00288801
-0.000367234
0.00303288
-0.000403478
0.00316592
-0.000376514
0.0032659
-0.000290155
0.00331862
-0.000162466
0.00331964
-2.03556e-05
0.00327455
0.000108534
0.00319617
0.00020441
0.00309975
0.000260776
0.0029985
0.000282354
0.00290221
0.000276593
0.00281869
0.000246587
0.00275534
0.000191953
0.00271866
0.000115261
0.00271209
2.6194e-05
0.0027343
-6.02066e-05
0.00277912
-0.00012859
0.00283687
-0.000167426
0.00289591
-0.000170449
0.00294414
-0.000137036
0.00297094
-7.31334e-05
0.00296972
8.28247e-06
0.00294001
8.95026e-05
0.00288763
0.00015342
0.00282243
0.000189442
0.00275491
0.000196185
0.00269337
0.000179734
0.00264264
0.000149435
0.00260441
0.000113994
0.0025782
7.94763e-05
0.0025624
4.91533e-05
0.00255505
2.42987e-05
0.00255414
5.11353e-06
0.00255781
-8.62477e-06
0.00256429
-1.72455e-05
0.00257199
-2.11177e-05
0.00257942
-2.07227e-05
0.00258539
-1.67613e-05
0.00258898
-1.02055e-05
0.00258975
-2.24171e-06
0.00258765
5.88493e-06
0.00258304
1.30692e-05
0.00257655
1.85123e-05
0.00256896
2.18016e-05
0.00256104
2.28969e-05
0.00255345
2.2052e-05
0.00254673
1.97075e-05
0.00254119
1.63869e-05
0.00253697
1.26102e-05
0.00253407
8.8331e-06
0.00253235
5.40999e-06
0.00253159
2.57896e-06
0.00253155
4.64827e-07
0.00253195
-9.04815e-07
0.00253257
-1.57699e-06
0.00253319
-1.64959e-06
0.00253365
-1.25005e-06
0.00253385
-5.17912e-07
0.00253372
4.08582e-07
0.00253324
1.40279e-06
0.00253243
2.35744e-06
0.00253134
3.1898e-06
0.00253002
3.84441e-06
0.00252855
4.29297e-06
0.002527
4.53243e-06
0.00252544
4.57982e-06
0.00252393
4.46823e-06
0.0025225
4.23794e-06
0.00252118
3.93542e-06
0.00251998
3.59978e-06
0.00251888
3.27358e-06
0.00251789
2.97582e-06
0.00251698
2.74094e-06
0.00251614
2.55603e-06
0.00251532
2.45489e-06
0.00251452
2.39412e-06
0.00251372
2.39452e-06
2.47194e-06
0.00250215
-8.92093e-06
0.00250877
-2.73897e-05
0.00252044
-4.78863e-05
0.00253793
-7.09789e-05
0.0025621
-9.67019e-05
0.00259355
-0.000123934
0.0026324
-0.000150562
0.00267759
-0.000172323
0.00272674
-0.000184639
0.00277557
-0.000181819
0.00281872
-0.000160546
0.00285228
-0.000124606
0.00287313
-7.6887e-05
0.00287891
-2.07657e-05
0.00286813
3.94906e-05
0.00284111
9.69501e-05
0.00280137
0.00014106
0.00275547
0.000162009
0.0027115
0.000154746
0.0026775
0.00011957
0.00266003
6.20251e-05
0.00266296
-7.63216e-06
0.00268605
-7.46384e-05
0.00272334
-0.000120204
0.002763
-0.000126425
0.00279069
-8.63688e-05
0.00279562
-1.11143e-05
0.00277474
7.55229e-05
0.00273234
0.00014999
0.00267661
0.000198025
0.00261645
0.000214853
0.0025601
0.000200954
0.00251508
0.000158169
0.00248873
8.80832e-05
0.00248847
-6.83393e-06
0.00252052
-0.000118971
0.00258582
-0.000229105
0.00267508
-0.000305302
0.00276785
-0.00031485
0.00283929
-0.000244643
0.00287085
-0.000113144
0.00285747
3.84321e-05
0.00280708
0.000168503
0.00273417
0.000253421
0.00265289
0.000290055
0.00257396
0.00028623
0.00250508
0.00025038
0.00245287
0.000186447
0.0024241
9.45589e-05
0.00242575
-2.45129e-05
0.00246373
-0.000162956
0.0025401
-0.000299936
0.00264833
-0.000400734
0.00276972
-0.00042628
0.00287558
-0.000352969
0.00293713
-0.000191597
0.00293862
1.12629e-05
0.00288438
0.000195558
0.00279399
0.00031835
0.00269043
0.000369247
0.00259086
0.000362376
0.00250442
0.000318214
0.00243544
0.000249803
0.00238879
0.000158055
0.00237376
3.60243e-05
0.00240216
-0.000118048
0.0024798
-0.000285664
0.00259825
-0.000426715
0.0027349
-0.000497163
0.00286111
-0.000471615
0.00295218
-0.000353945
0.00299373
-0.000172721
0.00298273
3.03963e-05
0.00292609
0.000210622
0.00283891
0.000329888
0.00274121
0.000368367
0.00265259
0.000330219
0.0025885
0.000235352
0.00256067
0.000102671
0.00257893
-5.7192e-05
0.00264878
-0.000232015
0.0027661
-0.000396669
0.00291509
-0.000516227
0.00307208
-0.000560462
0.00321188
-0.000516322
0.00331332
-0.000391591
0.00336268
-0.000211822
0.0033558
-1.34835e-05
0.00329878
0.000165558
0.00320597
0.000297216
0.00309517
0.00037158
0.00298223
0.000395289
0.00287863
0.000380201
0.0027924
0.000332817
0.00273003
0.000254318
0.00269644
0.000148855
0.00269326
2.9374e-05
0.00271772
-8.46747e-05
0.0027633
-0.000174169
0.00282124
-0.000225365
0.00288151
-0.00023072
0.00293309
-0.000188616
0.00296497
-0.00010501
0.00296884
4.41302e-06
0.00294237
0.000115974
0.00289052
0.000205265
0.00282365
0.000256314
0.00275352
0.000266319
0.00268965
0.000243604
0.0026376
0.000201484
0.00259918
0.000152414
0.00257368
0.000104976
0.00255917
6.36644e-05
0.00255337
3.0098e-05
0.00255408
4.40058e-06
0.0025593
-1.38467e-05
0.00256721
-2.51522e-05
0.00257612
-3.00304e-05
0.00258452
-2.91234e-05
0.00259113
-2.33733e-05
0.00259504
-1.41093e-05
0.00259577
-2.97268e-06
0.00259335
8.30788e-06
0.00258821
1.82028e-05
0.0025811
2.56204e-05
0.00257289
3.00157e-05
0.00256442
3.13651e-05
0.00255642
3.00489e-05
0.00254943
2.66973e-05
0.00254378
2.20445e-05
0.00253958
1.68106e-05
0.00253679
1.16198e-05
0.00253525
6.95186e-06
0.0025347
3.12343e-06
0.00253487
2.94436e-07
0.00253548
-1.50799e-06
0.00253626
-2.35712e-06
0.002537
-2.3934e-06
0.00253755
-1.79509e-06
0.00253778
-7.54853e-07
0.00253765
5.38096e-07
0.00253715
1.91147e-06
0.00253628
3.22014e-06
0.00253512
4.35296e-06
0.00253373
5.23635e-06
0.00253219
5.83392e-06
0.00253058
6.14375e-06
0.00252896
6.19121e-06
0.00252741
6.02319e-06
0.00252595
5.69601e-06
0.00252461
5.27389e-06
0.0025234
4.81049e-06
0.00252231
4.3639e-06
0.00252133
3.9591e-06
0.00252043
3.64347e-06
0.00251959
3.39608e-06
0.00251877
3.26727e-06
0.00251798
3.18741e-06
0.00251717
3.20043e-06
3.30357e-06
0.00250205
-1.09704e-05
0.00250838
-3.37228e-05
0.00251965
-5.91579e-05
0.00253678
-8.81071e-05
0.00256083
-0.000120752
0.00259272
-0.000155824
0.00263292
-0.000190758
0.00268055
-0.00021996
0.0027333
-0.000237386
0.0027862
-0.000234714
0.00283292
-0.000207268
0.00286931
-0.000160998
0.0028921
-9.9678e-05
0.00289866
-2.73228e-05
0.00288692
5.12304e-05
0.00285665
0.000127221
0.00281155
0.000186154
0.00275915
0.000214416
0.00270876
0.000205133
0.0026697
0.000158629
0.00264973
8.19967e-05
0.00265377
-1.16746e-05
0.00268225
-0.00010312
0.00272862
-0.000166565
0.00277846
-0.000176267
0.00281377
-0.000121683
0.00282117
-1.85125e-05
0.00279749
9.92013e-05
0.00274881
0.000198673
0.0026854
0.000261433
0.00261756
0.000282691
0.00255407
0.000264447
0.00250259
0.000209645
0.00247097
0.000119709
0.00246815
-4.01611e-06
0.00250291
-0.000153729
0.00257821
-0.000304403
0.00268393
-0.000411028
0.0027949
-0.000425817
0.00287936
-0.000329104
0.00291421
-0.00014799
0.00289483
5.78071e-05
0.00283314
0.000230194
0.002748
0.000338558
0.00265617
0.000381884
0.0025689
0.000373507
0.00249323
0.000326046
0.00243448
0.000245199
0.00239777
0.000131269
0.0023896
-1.63486e-05
0.00241886
-0.000192209
0.00249256
-0.000373636
0.00260674
-0.000514913
0.0027414
-0.000560942
0.00286493
-0.000476504
0.00294439
-0.000271055
0.0029581
-2.44671e-06
0.002906
0.000247655
0.00280875
0.000415608
0.00269448
0.000483511
0.00258497
0.00047189
0.00249045
0.000412727
0.0024142
0.000326055
0.00236153
0.00021073
0.00234531
5.22403e-05
0.00238083
-0.000153571
0.00247271
-0.000377541
0.00260707
-0.000561073
0.0027558
-0.000645893
0.00288728
-0.000603098
0.00297627
-0.000442934
0.00300989
-0.000206336
0.00298839
5.18896e-05
0.00292207
0.000276941
0.00282745
0.000424508
0.002724
0.000471825
0.00263053
0.000423689
0.00256318
0.000302703
0.00253634
0.000129508
0.00256242
-8.32743e-05
0.00264624
-0.000315835
0.00277924
-0.000529663
0.00294055
-0.00067754
0.00310395
-0.000723863
0.00324473
-0.000657102
0.00334358
-0.00049044
0.00338826
-0.0002565
0.00337477
7.86535e-09
0.0033086
0.000231723
0.00320418
0.000401636
0.00308076
0.000495001
0.00295668
0.000519372
0.00284564
0.00049124
0.00275669
0.000421765
0.0026957
0.000315313
0.00266552
0.000179033
0.00266519
2.97027e-05
0.00269016
-0.000109643
0.00273397
-0.000217977
0.00278959
-0.000280988
0.00284925
-0.00029038
0.00290356
-0.00024293
0.00294169
-0.000143136
0.00295367
-7.57069e-06
0.00293449
0.00013516
0.00288698
0.000252768
0.00282109
0.000322212
0.00274966
0.000337748
0.00268386
0.000309403
0.0026305
0.000254838
0.00259193
0.000190984
0.00256738
0.000129524
0.00255459
7.64558e-05
0.00255091
3.37828e-05
0.00255384
1.4705e-06
0.00256119
-2.11991e-05
0.00257103
-3.49873e-05
0.00258158
-4.05877e-05
0.00259127
-3.88107e-05
0.00259874
-3.08464e-05
0.00260304
-1.8408e-05
0.00260371
-3.64129e-06
0.00260084
1.11822e-05
0.00259498
2.40592e-05
0.00258702
3.35813e-05
0.00257796
3.90772e-05
0.00256875
4.05682e-05
0.0025602
3.86003e-05
0.00255287
3.40329e-05
0.00254707
2.78437e-05
0.0025429
2.09769e-05
0.00254028
1.42392e-05
0.00253899
8.24097e-06
0.00253874
3.37535e-06
0.00253921
-1.69615e-07
0.00254007
-2.37689e-06
0.00254107
-3.35605e-06
0.00254198
-3.29912e-06
0.00254263
-2.44255e-06
0.00254291
-1.03761e-06
0.00254278
6.71572e-07
0.00254222
2.46446e-06
0.00254129
4.15661e-06
0.00254003
5.60802e-06
0.00253854
6.72747e-06
0.0025369
7.47185e-06
0.0025352
7.84237e-06
0.00253352
7.87508e-06
0.00253191
7.63319e-06
0.00253041
7.19129e-06
0.00252905
6.63332e-06
0.00252784
6.02868e-06
0.00252675
5.4521e-06
0.00252577
4.93411e-06
0.00252488
4.53627e-06
0.00252405
4.22614e-06
0.00252324
4.07567e-06
0.00252245
3.97739e-06
0.00252164
4.01554e-06
4.1419e-06
0.00250191
-1.2882e-05
0.00250785
-3.966e-05
0.00251856
-6.98667e-05
0.00253513
-0.000104681
0.00255891
-0.000144533
0.00259122
-0.000188132
0.00263301
-0.000232548
0.00268375
-0.000270702
0.00274125
-0.000294885
0.00279954
-0.000293008
0.00285091
-0.000258633
0.00289098
-0.000201073
0.00291642
-0.000125118
0.00292425
-3.51455e-05
0.00291146
6.40137e-05
0.00287695
0.000161737
0.00282466
0.00023844
0.00276348
0.000275595
0.00270446
0.000264156
0.00265855
0.000204541
0.00263502
0.000105518
0.0026403
-1.69541e-05
0.00267591
-0.000138728
0.00273465
-0.0002253
0.00279857
-0.000240192
0.00284441
-0.000167516
0.00285505
-2.9159e-05
0.00282733
0.000126927
0.00277001
0.000255987
0.00269641
0.000335033
0.00261864
0.000360463
0.002546
0.000337085
0.00248616
0.000269487
0.00244746
0.000158404
0.00244043
3.01967e-06
0.00247568
-0.000188984
0.00255816
-0.000386882
0.00268007
-0.000532933
0.00281503
-0.000560778
0.00292233
-0.00043641
0.00296768
-0.000193335
0.00294326
8.22295e-05
0.00286678
0.000306671
0.00276504
0.000440298
0.00265941
0.000487518
0.00256188
0.000471034
0.00247797
0.000409958
0.00241019
0.00031298
0.0023615
0.000179959
0.00234071
4.43524e-06
0.00236394
-0.000215439
0.00244312
-0.000452811
0.002571
-0.000642799
0.00272039
-0.000710325
0.00285614
-0.000612258
0.00294644
-0.00036135
0.0029696
-2.56146e-05
0.00292177
0.000295487
0.00282088
0.0005165
0.00269728
0.000607116
0.00257707
0.000592093
0.00247286
0.000516936
0.00238851
0.000410409
0.00233158
0.000267661
0.00231886
6.49631e-05
0.00236638
-0.000201091
0.00247399
-0.000485154
0.00262155
-0.000708634
0.00277778
-0.000802119
0.00291113
-0.000736451
0.00299716
-0.000528968
0.00302331
-0.000232476
0.00299097
8.42292e-05
0.00291323
0.000354678
0.00280919
0.000528547
0.00269889
0.000582127
0.00260066
0.000521917
0.00253144
0.000371922
0.00250814
0.000152807
0.00254434
-0.000119472
0.0026417
-0.000413201
0.00278587
-0.00067383
0.00295195
-0.000843615
0.00311358
-0.000885501
0.00324865
-0.000792166
0.00334081
-0.000582606
0.0033797
-0.000295385
0.00336147
1.82406e-05
0.00329047
0.00030272
0.0031799
0.000512209
0.00304898
0.000625922
0.00291756
0.000650792
0.00280153
0.000607266
0.0027114
0.000511892
0.00265263
0.000374087
0.00262578
0.000205878
0.00262724
2.82416e-05
0.00265138
-0.000133778
0.00269266
-0.000259256
0.0027458
-0.000334124
0.00280447
-0.00034905
0.00286037
-0.000298831
0.00290342
-0.00018619
0.00292341
-2.75591e-05
0.00291338
0.000145192
0.00287349
0.000292655
0.00281196
0.000383738
0.00274176
0.000407946
0.00267544
0.000375728
0.00262136
0.000308918
0.00258286
0.000229486
0.00255946
0.000152918
0.00254873
8.71935e-05
0.00254762
3.48882e-05
0.0025533
-4.20422e-06
0.0025633
-3.1199e-05
0.00257552
-4.721e-05
0.0025881
-5.31695e-05
0.00259937
-5.00769e-05
0.0026079
-3.93792e-05
0.00261269
-2.32002e-05
0.0026133
-4.24498e-06
0.00260988
1.4602e-05
0.00260313
3.08015e-05
0.00259412
4.25945e-05
0.00258401
4.91869e-05
0.0025739
5.06792e-05
0.00256467
4.78325e-05
0.00255691
4.17858e-05
0.00255095
3.38034e-05
0.00254685
2.50844e-05
0.00254445
1.6636e-05
0.00254349
9.20542e-06
0.0025436
3.25894e-06
0.00254443
-9.97331e-07
0.00254562
-3.56953e-06
0.00254688
-4.61688e-06
0.00254798
-4.39453e-06
0.00254874
-3.20607e-06
0.00254907
-1.3678e-06
0.00254893
8.17019e-07
0.00254831
3.07693e-06
0.00254728
5.18678e-06
0.00254592
6.97738e-06
0.0025443
8.34061e-06
0.00254255
9.22829e-06
0.00254074
9.64716e-06
0.00253897
9.64685e-06
0.00253729
9.30983e-06
0.00253575
8.73172e-06
0.00253437
8.01844e-06
0.00253314
7.25666e-06
0.00253205
6.53889e-06
0.00253109
5.90075e-06
0.0025302
5.4193e-06
0.00252938
5.04635e-06
0.00252858
4.88187e-06
0.00252779
4.76537e-06
0.00252696
4.84544e-06
4.98878e-06
0.00250173
-1.46114e-05
0.00250714
-4.507e-05
0.00251708
-7.98031e-05
0.00253284
-0.000120441
0.00255609
-0.000167791
0.00258869
-0.000220731
0.00263225
-0.000276104
0.00268677
-0.000325224
0.00275037
-0.000358486
0.00281561
-0.00035825
0.00287276
-0.000315782
0.00291733
-0.000245643
0.00294604
-0.000153822
0.00295561
-4.47176e-05
0.00294184
7.77823e-05
0.00290222
0.000201357
0.0028409
0.000299757
0.00276852
0.000347974
0.00269834
0.000334336
0.0026434
0.00025949
0.0026149
0.000134016
0.00262131
-2.33657e-05
0.00266595
-0.000183364
0.00274109
-0.000300446
0.00282406
-0.000323157
0.0028841
-0.000227555
0.00289885
-4.39102e-05
0.00286531
0.000160467
0.00279637
0.000324929
0.00270961
0.000421791
0.00261945
0.000450625
0.00253558
0.000420949
0.00246549
0.00033958
0.00241767
0.000206225
0.00240198
1.87025e-05
0.00242761
-0.000214604
0.00250258
-0.000461853
0.0026294
-0.000659757
0.00278963
-0.000721012
0.00293538
-0.00058216
0.00301176
-0.000269716
0.00299564
9.83516e-05
0.00290712
0.000395192
0.00278562
0.000561797
0.00266254
0.000610602
0.00255262
0.00058095
0.00245881
0.000503774
0.00237939
0.000392394
0.00231692
0.000242436
0.00228735
3.39988e-05
0.00231532
-0.000243404
0.00241169
-0.000549182
0.00255934
-0.000790446
0.00272226
-0.000873252
0.0028632
-0.000753194
0.00295389
-0.000452038
0.00297735
-4.90762e-05
0.00293009
0.000342744
0.00282676
0.000619832
0.00269617
0.000737702
0.00256624
0.00072203
0.00245208
0.000631095
0.00236016
0.000502329
0.00230176
0.000326053
0.00229616
7.0566e-05
0.00235666
-0.000261586
0.0024766
-0.000605094
0.0026311
-0.000863138
0.0027885
-0.000959515
0.00291951
-0.000867465
0.00300167
-0.000611131
0.00302244
-0.000253248
0.00298242
0.000124253
0.00289537
0.000441725
0.00278252
0.000641399
0.00266543
0.000699223
0.00256304
0.000624303
0.00249367
0.00044129
0.00247605
0.000170427
0.00252268
-0.000166099
0.00262999
-0.000520511
0.00277804
-0.000821881
0.00294022
-0.00100579
0.0030925
-0.00103778
0.00321656
-0.000916232
0.0032992
-0.000665241
0.00333164
-0.000327824
0.00331019
3.96848e-05
0.00323812
0.000374794
0.0031269
0.000623432
0.00299461
0.000758208
0.00286142
0.000783985
0.00274473
0.000723953
0.00265632
0.000600299
0.00260116
0.000429253
0.00257774
0.000229291
0.00258086
2.513e-05
0.00260506
-0.000157987
0.00264597
-0.000300165
0.00269891
-0.000387058
0.00275751
-0.000407654
0.00281373
-0.000355044
0.00285859
-0.000231053
0.00288322
-5.21863e-05
0.00288063
0.000147779
0.00284909
0.000324195
0.00279438
0.000438446
0.00272821
0.000474114
0.00266351
0.00044043
0.00260994
0.000362488
0.00257208
0.000267352
0.00255011
0.000174885
0.00254167
9.56347e-05
0.00254345
3.31063e-05
0.00255222
-1.29724e-05
0.0025652
-4.41763e-05
0.00258008
-6.20954e-05
0.00259491
-6.79997e-05
0.00260795
-6.31167e-05
0.00261772
-4.91501e-05
0.00262316
-2.86392e-05
0.0026238
-4.88824e-06
0.00261987
1.85325e-05
0.00261221
3.84682e-05
0.00260205
5.27549e-05
0.00259077
6.0467e-05
0.00257963
6.18161e-05
0.00256963
5.7835e-05
0.00256141
5.00047e-05
0.00255528
3.99298e-05
0.00255126
2.91036e-05
0.00254914
1.87575e-05
0.00254856
9.7829e-06
0.00254911
2.7141e-06
0.00255035
-2.2384e-06
0.0025519
-5.12125e-06
0.00255344
-6.16027e-06
0.00255474
-5.68773e-06
0.00255562
-4.08433e-06
0.00255599
-1.73772e-06
0.00255582
9.85991e-07
0.00255513
3.76256e-06
0.00255399
6.32528e-06
0.00255249
8.4758e-06
0.00255074
1.00899e-05
0.00254886
1.11162e-05
0.00254693
1.15695e-05
0.00254507
1.1516e-05
0.00254331
1.10606e-05
0.00254172
1.0323e-05
0.00254031
9.43357e-06
0.00253907
8.4978e-06
0.00253798
7.62722e-06
0.00253702
6.86189e-06
0.00253614
6.2958e-06
0.00253533
5.86013e-06
0.00253452
5.69058e-06
0.00253373
5.55477e-06
0.00253288
5.69801e-06
5.84561e-06
0.00250149
-1.61058e-05
0.00250622
-4.97956e-05
0.00251512
-8.8706e-05
0.00252972
-0.000135039
0.00255207
-0.000190143
0.00258469
-0.000253345
0.00263006
-0.000321476
0.00268906
-0.000384221
0.00276041
-0.000429839
0.0028345
-0.000432337
0.00289873
-0.000380013
0.00294879
-0.000295701
0.00298179
-0.000186828
0.00299414
-5.70613e-05
0.00297961
9.23055e-05
0.00293358
0.000247389
0.00286055
0.000372784
0.00277372
0.000434807
0.00268924
0.000418812
0.00262263
0.000326106
0.00258734
0.000169302
0.00259455
-3.05719e-05
0.00265053
-0.000239344
0.00274746
-0.000397374
0.00285601
-0.000431707
0.00293484
-0.000306394
0.00295449
-6.35582e-05
0.00291265
0.000202312
0.00282824
0.000409332
0.00272482
0.000525221
0.0026196
0.000555843
0.00252254
0.000518006
0.00244063
0.000421494
0.00238044
0.000266408
0.00234668
5.24635e-05
0.00234678
-0.000214704
0.00239957
-0.000514642
0.002523
-0.000783187
0.00270557
-0.00090358
0.00289526
-0.000771855
0.0030203
-0.000394749
0.00303417
8.44775e-05
0.00294713
0.000482232
0.00280872
0.000700213
0.00266592
0.000753395
0.00254111
0.000705762
0.00243535
0.000609535
0.00234293
0.000484814
0.00226927
0.0003161
0.0022397
6.35703e-05
0.00228219
-0.000285898
0.00239894
-0.000665936
0.00256221
-0.000953709
0.00273249
-0.00104354
0.00287422
-0.000894922
0.00296172
-0.000539541
0.00298099
-6.83439e-05
0.00293071
0.000393025
0.00282458
0.000725959
0.00268902
0.000873267
0.00255132
0.00085973
0.00242847
0.000753937
0.00233077
0.000600033
0.00227355
0.000383276
0.00227638
6.77366e-05
0.00234757
-0.000332774
0.00247443
-0.000731956
0.00262969
-0.0010184
0.00278311
-0.00111294
0.00290835
-0.0009927
0.00298529
-0.000688066
0.00300186
-0.000269819
0.0029574
0.000168706
0.00286471
0.000534417
0.00274566
0.000760455
0.00262327
0.000821612
0.00251808
0.000729491
0.00245035
0.000509017
0.00243952
0.000181258
0.00249475
-0.000221332
0.00260634
-0.000632096
0.0027504
-0.000965939
0.00290119
-0.00115659
0.00303867
-0.00117525
0.00314856
-0.00102613
0.00322024
-0.000736921
0.00324603
-0.000353617
0.00322236
6.33549e-05
0.00315176
0.000445402
0.00304417
0.000731016
0.00291607
0.000886308
0.00278694
0.000913115
0.00267472
0.000836178
0.00259167
0.000683344
0.00254203
0.000478893
0.00252309
0.000248234
0.00252948
1.87416e-05
0.00255647
-0.000184978
0.00259978
-0.000343476
0.00265407
-0.000441349
0.00271252
-0.000466106
0.00276752
-0.000410043
0.00281147
-0.000274997
0.00283727
-7.79905e-05
0.00283916
0.000145892
0.00281481
0.000348543
0.00276788
0.000485374
0.00270798
0.000534019
0.00264724
0.000501172
0.00259588
0.00041384
0.0025596
0.000303633
0.00253949
0.000195002
0.00253351
0.000101609
0.00253824
2.83779e-05
0.00255007
-2.48008e-05
0.00256588
-5.99924e-05
0.00258323
-7.94386e-05
0.00260014
-8.4908e-05
0.00261492
-7.79045e-05
0.0026261
-6.0331e-05
0.00263253
-3.50619e-05
0.00263362
-5.98023e-06
0.00262956
2.2594e-05
0.00262125
4.67773e-05
0.00261011
6.38979e-05
0.00259772
7.28496e-05
0.00258557
7.39696e-05
0.00257478
6.86195e-05
0.00256609
5.86952e-05
0.00255981
4.62107e-05
0.00255591
3.30057e-05
0.0025541
2.05667e-05
0.00255395
9.93965e-06
0.00255494
1.71939e-06
0.0025566
-3.89747e-06
0.0025585
-7.02071e-06
0.0025603
-7.96371e-06
0.00256177
-7.15153e-06
0.00256273
-5.05152e-06
0.00256312
-2.12721e-06
0.00256292
1.19118e-06
0.00256215
4.52679e-06
0.00256091
7.57185e-06
0.00255928
1.00994e-05
0.0025574
1.19699e-05
0.00255539
1.31299e-05
0.00255335
1.36045e-05
0.00255139
1.34791e-05