/*--------------------------------*- C++ -*----------------------------------*\
  =========                 |
  \\      /  F ield         | OpenFOAM: The Open Source CFD Toolbox
   \\    /   O peration     | Website:  https://openfoam.org
    \\  /    A nd           | Version:  11
     \\/     M anipulation  |
\*---------------------------------------------------------------------------*/
FoamFile
{
    format      ascii;
    class       volVectorField;
    location    "11.103487";
    object      U;
}
// * * * * * * * * * * * * * * * * * * * * * * * * * * * * * * * * * * * * * //

dimensions      [0 1 -1 0 0 0 0];

internalField   nonuniform List<vector> 
7132
(
(1.00011 -0.000229148 3.06353e-18)
(1.00178 -0.000701886 1.03703e-17)
(1.00562 -0.00122007 1.02849e-17)
(1.01157 -0.0017931 1.24646e-17)
(1.01994 -0.00241728 1.65999e-17)
(1.0309 -0.00306064 1.61226e-17)
(1.04445 -0.00366833 1.4278e-17)
(1.0603 -0.00414409 1.25778e-17)
(1.0777 -0.00438514 1.1232e-17)
(1.09552 -0.00428474 1.03065e-17)
(1.11215 -0.00377789 9.72941e-18)
(1.12596 -0.00292451 9.64271e-18)
(1.1357 -0.00179115 9.65549e-18)
(1.14042 -0.000466917 1.03028e-17)
(1.13955 0.000929008 5.86714e-18)
(1.13306 0.00222794 6.09201e-19)
(1.12175 0.0032059 -4.39608e-18)
(1.10738 0.00365997 -4.31269e-18)
(1.09239 0.00348404 -7.16566e-18)
(1.07941 0.00269023 -8.83284e-18)
(1.07081 0.00141352 -7.66125e-18)
(1.06814 -0.000101439 -7.13658e-18)
(1.07179 -0.00151782 -6.64515e-18)
(1.08061 -0.00244215 -4.22602e-18)
(1.09178 -0.00253162 -4.6651e-18)
(1.10136 -0.00167034 -8.25518e-18)
(1.10559 -8.04135e-05 -9.48309e-18)
(1.1023 0.00177248 -7.8815e-18)
(1.0915 0.00340587 -8.17053e-18)
(1.07494 0.00449068 -2.16211e-17)
(1.05532 0.00487785 -4.10003e-18)
(1.03559 0.00454006 1.53357e-16)
(1.01862 0.00350669 3.61305e-17)
(1.00714 0.00183679 -2.1079e-15)
(1.00356 -0.000356608 -4.60812e-15)
(1.00973 -0.00283597 1.75768e-14)
(1.02621 -0.00515537 1.15772e-13)
(1.05124 -0.00667908 2.80553e-13)
(1.08019 -0.00680178 3.81771e-13)
(1.10636 -0.00529282 3.2341e-13)
(1.1232 -0.0025079 1.77364e-13)
(1.12688 0.000754013 6.21619e-14)
(1.11732 0.00365074 8.02081e-15)
(1.09753 0.00564766 -7.62687e-15)
(1.07181 0.0065933 -9.87739e-15)
(1.04437 0.00657545 -5.13994e-15)
(1.01876 0.00573936 2.43683e-14)
(0.997989 0.00418022 7.8584e-14)
(0.984832 0.00193958 2.21241e-14)
(0.982011 -0.000909585 -5.77938e-13)
(0.991804 -0.00411652 -2.43113e-12)
(1.01496 -0.00713121 -5.85316e-12)
(1.04929 -0.00915039 -9.88071e-12)
(1.08895 -0.00940092 -1.24019e-11)
(1.12543 -0.00754548 -1.17712e-11)
(1.15015 -0.0039531 -8.52184e-12)
(1.1576 0.000395468 -4.90478e-12)
(1.14714 0.0043491 -2.25468e-12)
(1.12258 0.00709091 -6.03212e-13)
(1.08994 0.00836906 2.00367e-13)
(1.05508 0.00836496 1.84413e-13)
(1.02251 0.0073998 -6.12537e-13)
(0.995397 0.00570189 -1.02616e-12)
(0.976368 0.00333652 3.04204e-12)
(0.968104 0.000296401 1.89866e-11)
(0.97335 -0.00329763 5.46974e-11)
(0.993902 -0.00700516 1.13319e-10)
(1.02901 -0.0100564 1.88068e-10)
(1.07428 -0.0115922 2.61715e-10)
(1.12206 -0.0110275 3.12535e-10)
(1.16319 -0.00831941 3.23882e-10)
(1.18956 -0.00402172 2.91869e-10)
(1.19635 0.000862445 2.26551e-10)
(1.18341 0.00516583 1.46502e-10)
(1.15534 0.00792979 7.26089e-11)
(1.11983 0.0087193 2.03557e-11)
(1.08513 0.00769321 -6.14517e-12)
(1.0577 0.00536708 -1.13876e-11)
(1.0416 0.00225141 2.85489e-13)
(1.03916 -0.00132371 2.97493e-11)
(1.05184 -0.00508389 8.04044e-11)
(1.07983 -0.00860218 1.5235e-10)
(1.12113 -0.0112609 2.39643e-10)
(1.17085 -0.0124356 3.32366e-10)
(1.22178 -0.0117558 4.20832e-10)
(1.26599 -0.00927687 4.98558e-10)
(1.29673 -0.00549108 5.62888e-10)
(1.31012 -0.00118539 6.14402e-10)
(1.30589 0.00280603 6.54247e-10)
(1.28695 0.00588026 6.77237e-10)
(1.25793 0.00783642 6.68252e-10)
(1.2234 0.00878212 6.06596e-10)
(1.18705 0.00886953 4.82731e-10)
(1.15211 0.00811086 3.15895e-10)
(1.12206 0.0064488 1.50765e-10)
(1.10052 0.00397358 3.03399e-11)
(1.09029 0.00103782 -2.93743e-11)
(1.09225 -0.00182769 -4.05042e-11)
(1.105 -0.00409267 -2.63594e-11)
(1.12518 -0.00536164 -6.0494e-12)
(1.1482 -0.00542825 1.03936e-11)
(1.169 -0.0042965 1.98674e-11)
(1.183 -0.00219859 2.27268e-11)
(1.18698 0.000418461 2.05777e-11)
(1.17992 0.00298708 1.55241e-11)
(1.16317 0.00498774 9.7248e-12)
(1.13991 0.00611258 4.80181e-12)
(1.11402 0.00632927 1.53388e-12)
(1.08898 0.00582399 -9.5123e-14)
(1.06717 0.00487901 -5.74715e-13)
(1.04976 0.00376009 -4.85387e-13)
(1.03697 0.00265705 -2.48962e-13)
(1.02844 0.00167689 -6.71104e-14)
(1.02354 0.000865459 1.83717e-14)
(1.02153 0.000234001 3.72783e-14)
(1.0217 -0.000221461 2.97026e-14)
(1.02335 -0.00051026 2.11757e-14)
(1.02584 -0.000644416 2.08904e-14)
(1.02857 -0.000640176 2.82119e-14)
(1.03103 -0.000520753 3.89751e-14)
(1.0328 -0.000317525 4.90088e-14)
(1.03361 -6.8168e-05 5.54341e-14)
(1.03337 0.000188005 5.69327e-14)
(1.03212 0.000416121 5.36438e-14)
(1.03003 0.000590679 4.67251e-14)
(1.02737 0.000698056 3.78307e-14)
(1.02442 0.000736254 2.86395e-14)
(1.02145 0.000712619 2.05199e-14)
(1.01869 0.000640614 1.43604e-14)
(1.0163 0.000536558 1.05662e-14)
(1.01438 0.000416896 9.15983e-15)
(1.01295 0.000296201 9.91766e-15)
(1.012 0.000185946 1.24932e-14)
(1.01146 9.39761e-05 1.64897e-14)
(1.01125 2.45544e-05 2.14966e-14)
(1.01127 -2.11735e-05 2.71013e-14)
(1.01143 -4.44949e-05 3.28984e-14)
(1.01164 -4.83895e-05 3.85021e-14)
(1.01182 -3.6849e-05 4.35597e-14)
(1.01194 -1.43114e-05 4.77819e-14)
(1.01194 1.47871e-05 5.09735e-14)
(1.01182 4.63554e-05 5.30601e-14)
(1.01158 7.69097e-05 5.40984e-14)
(1.01121 0.000103745 5.42544e-14)
(1.01075 0.000125028 5.37727e-14)
(1.01021 0.000139795 5.29333e-14)
(1.00962 0.000147894 5.20091e-14)
(1.00902 0.000149824 5.12374e-14)
(1.00842 0.000146608 5.0795e-14)
(1.00784 0.000139506 5.07917e-14)
(1.0073 0.000129996 5.12696e-14)
(1.0068 0.000119321 5.2211e-14)
(1.00635 0.000108861 5.35559e-14)
(1.00593 9.92284e-05 5.52152e-14)
(1.00556 9.15591e-05 5.70874e-14)
(1.00518 8.545e-05 5.90749e-14)
(1.00489 8.20095e-05 6.10717e-14)
(1.00449 7.98768e-05 6.30708e-14)
(1.00432 7.97334e-05 6.47291e-14)
(1.00375 8.21093e-05 6.74033e-14)
(1.00011 -0.000685115 4.25648e-20)
(1.00176 -0.00209969 4.94482e-19)
(1.00557 -0.00365201 9.33919e-19)
(1.01149 -0.00537276 1.36845e-18)
(1.01985 -0.00725214 1.9021e-18)
(1.03083 -0.00919563 2.38456e-18)
(1.04447 -0.0110393 2.62845e-18)
(1.0605 -0.0124906 3.12917e-18)
(1.0782 -0.013237 3.43829e-18)
(1.09639 -0.0129473 3.69096e-18)
(1.11339 -0.0114206 3.73939e-18)
(1.12751 -0.00884853 6.54149e-18)
(1.13749 -0.00543324 6.07576e-18)
(1.14235 -0.00144525 6.50267e-18)
(1.14147 0.00276076 7.05676e-18)
(1.13478 0.00668142 7.41847e-18)
(1.12306 0.00963914 7.68086e-18)
(1.10811 0.0110173 8.43224e-18)
(1.09249 0.0104916 9.2815e-18)
(1.07895 0.00809186 8.88396e-18)
(1.06996 0.00421761 5.38691e-18)
(1.06718 -0.000394945 -4.14184e-18)
(1.0711 -0.0047239 -3.08826e-17)
(1.08056 -0.00756559 -8.03413e-17)
(1.09262 -0.00785904 -1.1734e-16)
(1.10307 -0.00523632 -1.01612e-16)
(1.10783 -0.000375601 -4.9198e-17)
(1.10462 0.00529062 -7.892e-18)
(1.09349 0.0102818 -7.66753e-18)
(1.07636 0.0135982 -3.59601e-17)
(1.05605 0.0147974 8.99692e-17)
(1.0356 0.0138068 3.27732e-16)
(1.01794 0.0107178 -1.0002e-15)
(1.00581 0.00569864 -4.26204e-15)
(1.00175 -0.000932604 7.16956e-15)
(1.00779 -0.00848185 7.46327e-14)
(1.02471 -0.0156002 1.83229e-13)
(1.05082 -0.0203276 2.68162e-13)
(1.08129 -0.0207765 3.39676e-13)
(1.10893 -0.0162148 3.30928e-13)
(1.12671 -0.007731 1.88748e-13)
(1.13054 0.0022162 6.05758e-14)
(1.12045 0.0110405 2.43282e-15)
(1.09978 0.0171098 -1.82719e-14)
(1.07311 0.0199794 -2.00643e-14)
(1.04479 0.0199393 7.13668e-15)
(1.01837 0.0174454 5.73794e-14)
(0.99682 0.0127837 -3.74508e-14)
(0.982929 0.00605512 -5.1317e-13)
(0.979557 -0.00256227 -7.08558e-13)
(0.989251 -0.0123433 2.8198e-12)
(1.01302 -0.0216095 1.52206e-11)
(1.04875 -0.0278635 3.47174e-11)
(1.09038 -0.0286933 4.85602e-11)
(1.12882 -0.0230563 4.62395e-11)
(1.15483 -0.0121033 3.1611e-11)
(1.16251 0.0011509 1.50961e-11)
(1.15133 0.0131876 3.81061e-12)
(1.1255 0.0215106 -5.73251e-13)
(1.09153 0.0253666 -8.52613e-13)
(1.05556 0.0253393 -6.77308e-13)
(1.02211 0.0224356 -2.04411e-12)
(0.994218 0.017364 -2.03946e-12)
(0.974318 0.0103141 1.19031e-11)
(0.965011 0.00122784 6.25392e-11)
(0.969187 -0.00957896 1.7208e-10)
(0.989006 -0.0208098 3.42338e-10)
(1.02407 -0.0301446 5.4388e-10)
(1.07005 -0.0349632 7.27487e-10)
(1.11902 -0.0334518 8.44049e-10)
(1.16151 -0.0254288 8.57645e-10)
(1.18916 -0.0125237 7.58132e-10)
(1.19696 0.00225278 5.73317e-10)
(1.18452 0.015359 3.58982e-10)
(1.15631 0.0238518 1.72116e-10)
(1.12013 0.026365 4.7104e-11)
(1.08448 0.0233565 -1.31731e-11)
(1.05609 0.0163938 -2.42878e-11)
(1.03914 0.00702508 9.11379e-13)
(1.0362 -0.00378182 6.14529e-11)
(1.04906 -0.0152354 1.59808e-10)
(1.07827 -0.0260395 2.88761e-10)
(1.12181 -0.0342595 4.29179e-10)
(1.17433 -0.0379149 5.59415e-10)
(1.22789 -0.0358272 6.6546e-10)
(1.27385 -0.0281771 7.43917e-10)
(1.30508 -0.016528 7.98587e-10)
(1.31765 -0.00334286 8.35076e-10)
(1.31156 0.00881348 8.56534e-10)
(1.29019 0.0181078 8.59234e-10)
(1.25873 0.0239322 8.27386e-10)
(1.22223 0.0266433 7.37944e-10)
(1.18467 0.0267603 5.80493e-10)
(1.14923 0.0243766 3.7731e-10)
(1.11918 0.0193421 1.78957e-10)
(1.09791 0.0119106 3.40475e-11)
(1.08808 0.00310203 -3.81005e-11)
(1.0905 -0.00552273 -4.88147e-11)
(1.10378 -0.0123737 -2.2921e-11)
(1.12457 -0.0162435 1.61479e-11)
(1.14829 -0.0164885 5.14419e-11)
(1.16984 -0.0131037 7.27982e-11)
(1.18451 -0.00678046 7.68542e-11)
(1.18895 0.00113707 6.63576e-11)
(1.182 0.00893373 4.78623e-11)
(1.16498 0.0150235 2.85008e-11)
(1.1412 0.0184562 1.32009e-11)
(1.11472 0.0191248 3.72459e-12)
(1.08916 0.0175953 -6.47924e-13)
(1.067 0.0147299 -1.75058e-12)
(1.04941 0.0113397 -1.36781e-12)
(1.03659 0.00800199 -6.66126e-13)
(1.02812 0.00504004 -1.57227e-13)
(1.02333 0.00259051 7.5022e-14)
(1.02148 0.00068532 1.24321e-13)
(1.02181 -0.000688935 1.02755e-13)
(1.02362 -0.00156072 7.98337e-14)
(1.02627 -0.00196584 7.99534e-14)
(1.02914 -0.00195267 1.00394e-13)
(1.03171 -0.00159071 1.28673e-13)
(1.03356 -0.000974494 1.52704e-13)
(1.03441 -0.000218076 1.64788e-13)
(1.03417 0.000559465 1.62395e-13)
(1.03288 0.00125203 1.47516e-13)
(1.03074 0.00178207 1.2465e-13)
(1.02801 0.00210819 9.88565e-14)
(1.02498 0.00222435 7.44323e-14)
(1.02195 0.00215294 5.42892e-14)
(1.01914 0.00193489 3.98944e-14)
(1.01672 0.00161975 3.15615e-14)
(1.01478 0.00125741 2.88636e-14)
(1.01335 0.000892067 3.0994e-14)
(1.01241 0.000558459 3.70138e-14)
(1.01189 0.000280321 4.5958e-14)
(1.0117 7.05155e-05 5.68643e-14)
(1.01174 -6.75416e-05 6.87838e-14)
(1.01192 -0.000137793 8.08049e-14)
(1.01215 -0.000149289 9.20827e-14)
(1.01235 -0.00011413 1.01875e-13)
(1.01247 -4.57476e-05 1.09607e-13)
(1.01248 4.24384e-05 1.14936e-13)
(1.01236 0.000138058 1.17804e-13)
(1.01211 0.000230577 1.18437e-13)
(1.01174 0.000311816 1.17275e-13)
(1.01127 0.00037623 1.14894e-13)
(1.01072 0.000420907 1.11907e-13)
(1.01013 0.000445393 1.0888e-13)
(1.00952 0.000451201 1.06281e-13)
(1.00891 0.000441431 1.04438e-13)
(1.00833 0.000419907 1.03532e-13)
(1.00779 0.0003911 1.03611e-13)
(1.00728 0.000358791 1.04606e-13)
(1.00683 0.000327132 1.06375e-13)
(1.00641 0.000298019 1.08722e-13)
(1.00604 0.000274812 1.11438e-13)
(1.00566 0.000256422 1.14325e-13)
(1.00538 0.000245965 1.17189e-13)
(1.00497 0.000239719 1.19983e-13)
(1.0048 0.000239051 1.22258e-13)
(1.00423 0.000246531 1.25712e-13)
(1.00011 -0.00113457 3.22442e-22)
(1.00173 -0.00347943 5.79934e-21)
(1.00548 -0.00606025 9.4877e-21)
(1.01133 -0.00893413 2.80471e-21)
(1.01964 -0.01209 -7.39243e-20)
(1.03067 -0.0153747 9.00528e-20)
(1.04449 -0.0185169 -5.27548e-19)
(1.0609 -0.0210163 -9.62961e-19)
(1.07918 -0.0223377 2.14888e-18)
(1.09813 -0.021889 1.49844e-18)
(1.11588 -0.0193146 -7.71164e-18)
(1.13061 -0.0149707 -1.17894e-17)
(1.14106 -0.00919899 -3.73815e-18)
(1.14617 -0.00243917 5.71766e-18)
(1.14527 0.00473103 1.21793e-17)
(1.13817 0.011459 1.75468e-17)
(1.12561 0.0165599 2.37266e-17)
(1.10951 0.0189507 2.96414e-17)
(1.09265 0.0180663 2.73345e-17)
(1.078 0.0139552 2.91852e-18)
(1.06829 0.00729381 -4.22783e-17)
(1.06539 -0.000676002 -1.16608e-16)
(1.06992 -0.00821262 -7.32411e-16)
(1.08075 -0.0132165 -2.59371e-15)
(1.09465 -0.0137963 -3.69719e-15)
(1.1068 -0.00927359 -2.3892e-15)
(1.11255 -0.000843116 -7.06617e-16)
(1.10932 0.00896006 -2.50737e-17)
(1.09735 0.0175448 4.37715e-18)
(1.0789 0.0232115 2.28968e-16)
(1.05713 0.0252543 1.00064e-15)
(1.03524 0.0235949 -4.20175e-15)
(1.01624 0.0184026 -1.50042e-14)
(1.00296 0.00993282 6.86676e-14)
(0.998125 -0.00134087 3.28585e-13)
(1.00411 -0.0143059 -5.20446e-13)
(1.02211 -0.0266686 -6.06725e-12)
(1.05061 -0.0349861 -1.64214e-11)
(1.08427 -0.0358794 -2.30384e-11)
(1.11488 -0.0280056 -1.92711e-11)
(1.13434 -0.0132853 -1.00658e-11)
(1.13812 0.00391452 -3.15976e-12)
(1.12659 0.0190458 -2.57459e-13)
(1.10381 0.0293202 3.13069e-13)
(1.07504 0.034081 2.04049e-13)
(1.0449 0.0339355 1.81668e-13)
(1.01693 0.0297181 -2.5626e-14)
(0.994007 0.0219003 -1.64675e-12)
(0.978908 0.0105756 -3.15791e-12)
(0.974638 -0.0040565 1.02247e-11)
(0.983989 -0.0208301 7.35695e-11)
(1.00829 -0.0368779 2.15387e-10)
(1.04586 -0.0478517 4.01884e-10)
(1.09079 -0.0494637 5.30754e-10)
(1.13335 -0.0397738 5.15161e-10)
(1.16275 -0.0207705 3.71139e-10)
(1.17165 0.00218863 1.95142e-10)
(1.15927 0.0228853 6.69365e-11)
(1.13077 0.0369912 5.98052e-12)
(1.09389 0.0433245 -9.20215e-12)
(1.05557 0.0430614 -8.0623e-12)
(1.02042 0.0380621 -7.41408e-12)
(0.991128 0.0295933 -1.19183e-12)
(0.969668 0.0179431 4.44428e-11)
(0.958515 0.0028765 1.78027e-10)
(0.961094 -0.0152727 4.22708e-10)
(0.980556 -0.0344328 7.39878e-10)
(1.01704 -0.0505901 1.05012e-09)
(1.06564 -0.0590962 1.29218e-09)
(1.11722 -0.0567759 1.44394e-09)
(1.16142 -0.0433815 1.48751e-09)
(1.18987 -0.0217095 1.3853e-09)
(1.19793 0.00322705 1.12077e-09)
(1.18539 0.0255101 7.51447e-10)
(1.15654 0.0401141 3.87877e-10)
(1.11915 0.0446098 1.22499e-10)
(1.08193 0.0396989 -1.54372e-11)
(1.05195 0.0280328 -4.55035e-11)
(1.03377 0.0122013 5.50029e-12)
(1.03054 -0.00626918 1.22735e-10)
(1.04484 -0.0261068 2.90299e-10)
(1.0776 -0.0449782 4.77457e-10)
(1.12624 -0.0593064 6.47948e-10)
(1.18415 -0.065496 7.78855e-10)
(1.24206 -0.0615258 8.67191e-10)
(1.29052 -0.0478526 9.23182e-10)
(1.32206 -0.0273413 9.61201e-10)
(1.33276 -0.00436889 9.92368e-10)
(1.32297 0.0165733 1.0193e-09)
(1.29675 0.0323071 1.03353e-09)
(1.26028 0.0418067 1.00959e-09)
(1.2196 0.0457963 9.12703e-10)
(1.17926 0.0453598 7.25956e-10)
(1.14254 0.0408477 4.7617e-10)
(1.11242 0.0320998 2.27194e-10)
(1.09185 0.0195232 4.22512e-11)
(1.08307 0.00475177 -4.83916e-11)
(1.0866 -0.00967132 -5.00905e-11)
(1.10084 -0.0211284 1.14975e-11)
(1.12245 -0.0276218 1.02543e-10)
(1.14702 -0.0280683 1.87626e-10)
(1.16967 -0.0224112 2.37747e-10)
(1.1856 -0.0117476 2.39986e-10)
(1.19112 0.00169096 2.014e-10)
(1.18465 0.0149856 1.41868e-10)
(1.16738 0.0253902 8.24417e-11)
(1.14276 0.0312396 3.7033e-11)
(1.11521 0.03234 9.78791e-12)
(1.08873 0.0296776 -2.33139e-12)
(1.06597 0.0247524 -5.14629e-12)
(1.04814 0.0189656 -3.90247e-12)
(1.03538 0.0133021 -1.86761e-12)
(1.02717 0.00830283 -4.1818e-13)
(1.02275 0.00418692 2.45441e-13)
(1.02129 0.000997426 3.95205e-13)
(1.02202 -0.00129534 3.45631e-13)
(1.02422 -0.00274239 2.91666e-13)
(1.02721 -0.00340413 3.01883e-13)
(1.03038 -0.00336085 3.67073e-13)
(1.03316 -0.00272889 4.49043e-13)
(1.03514 -0.00166812 5.11224e-13)
(1.03604 -0.000372663 5.31912e-13)
(1.03576 0.000954266 5.06851e-13)
(1.03436 0.00213187 4.46135e-13)
(1.03207 0.00302874 3.66361e-13)
(1.02917 0.00357581 2.83809e-13)
(1.026 0.00376463 2.10566e-13)
(1.02283 0.00363501 1.53441e-13)
(1.01993 0.00325782 1.14712e-13)
(1.01745 0.00271808 9.36293e-14)
(1.0155 0.00210081 8.78844e-14)
(1.01408 0.00148091 9.46495e-14)
(1.01318 0.00091697 1.11101e-13)
(1.0127 0.000448675 1.34556e-13)
(1.01257 9.71873e-05 1.62434e-13)
(1.01267 -0.000132329 1.92225e-13)
(1.01289 -0.00024708 2.21559e-13)
(1.01316 -0.00026278 2.48275e-13)
(1.01339 -0.000200151 2.70551e-13)
(1.01353 -8.20435e-05 2.87066e-13)
(1.01355 6.88165e-05 2.97157e-13)
(1.01343 0.000231542 3.00917e-13)
(1.01317 0.000388394 2.99139e-13)
(1.01278 0.00052564 2.93112e-13)
(1.01229 0.000634026 2.84382e-13)
(1.01172 0.000708758 2.74507e-13)
(1.01111 0.000749197 2.64868e-13)
(1.01049 0.000758024 2.5654e-13)
(1.00987 0.000740585 2.50231e-13)
(1.00928 0.000703431 2.46288e-13)
(1.00873 0.000654165 2.44735e-13)
(1.00822 0.000599213 2.45345e-13)
(1.00776 0.000545581 2.47723e-13)
(1.00734 0.000496455 2.51378e-13)
(1.00698 0.000457481 2.55799e-13)
(1.0066 0.000426731 2.60521e-13)
(1.00632 0.000409525 2.65126e-13)
(1.00592 0.000399319 2.69438e-13)
(1.00574 0.000398659 2.72838e-13)
(1.00517 0.000411507 2.77472e-13)
(1.0001 -0.0015729 -4.18474e-20)
(1.00167 -0.00482746 -6.0292e-19)
(1.00532 -0.0084266 -1.0642e-18)
(1.01106 -0.0124613 -1.87892e-18)
(1.01931 -0.0169283 -2.20408e-18)
(1.03038 -0.0216228 -2.88258e-18)
(1.04447 -0.0261699 -8.54657e-18)
(1.06144 -0.0298426 5.08634e-18)
(1.0806 -0.0318617 1.06951e-17)
(1.10072 -0.0313074 -4.76794e-17)
(1.11963 -0.027637 -8.34851e-17)
(1.13532 -0.0214396 1.61503e-18)
(1.14648 -0.0132077 1.25802e-16)
(1.15201 -0.00355104 1.71077e-16)
(1.15111 0.0067537 1.51159e-16)
(1.1434 0.0165085 1.15779e-16)
(1.12953 0.0239593 8.23776e-17)
(1.11163 0.0274822 3.02216e-17)
(1.09281 0.026231 -1.0596e-16)
(1.07645 0.0202576 -3.84486e-16)
(1.0656 0.0105177 -6.86136e-16)
(1.06247 -0.00121498 -1.11616e-15)
(1.06794 -0.0124141 -5.21434e-15)
(1.08092 -0.0199466 -1.62184e-14)
(1.09774 -0.0209002 -2.16032e-14)
(1.11261 -0.0141837 -1.19142e-14)
(1.11988 -0.00161773 -1.52959e-15)
(1.11658 0.0129102 1.01373e-15)
(1.10321 0.0255002 5.2196e-16)
(1.08268 0.0337073 3.26145e-15)
(1.05862 0.0366249 2.21973e-15)
(1.03454 0.0342469 -4.63133e-14)
(1.01354 0.0268549 -2.96622e-14)
(0.998523 0.0147606 6.74465e-13)
(0.992464 -0.00149425 1.27013e-12)
(0.998338 -0.0204632 -6.90602e-12)
(1.01812 -0.0388476 -3.75947e-11)
(1.05058 -0.0514252 -8.63574e-11)
(1.08948 -0.0529349 -1.20602e-10)
(1.12473 -0.0412492 -1.10001e-10)
(1.14661 -0.019323 -6.54841e-11)
(1.15002 0.00612646 -2.473e-11)
(1.13597 0.0282111 -3.92168e-12)
(1.10974 0.0428854 1.99178e-12)
(1.07763 0.0494305 1.95891e-12)
(1.0447 0.0489842 1.12845e-12)
(1.01446 0.0428855 -1.38521e-12)
(0.98959 0.031796 -8.34124e-12)
(0.972692 0.0157466 -2.93675e-12)
(0.966587 -0.00508444 8.26518e-11)
(0.974032 -0.0291481 3.49178e-10)
(0.997006 -0.0525341 8.21135e-10)
(1.03513 -0.0691325 1.36262e-09)
(1.08354 -0.0724798 1.73654e-09)
(1.13216 -0.0590561 1.74494e-09)
(1.16819 -0.0312367 1.36876e-09)
(1.18144 0.00292321 8.11842e-10)
(1.16947 0.0336512 3.35119e-10)
(1.13811 0.0541961 6.43276e-11)
(1.09715 0.0629505 -2.82971e-11)
(1.05522 0.0620635 -3.50963e-11)
(1.01747 0.0546499 -2.30051e-11)
(0.986058 0.0427378 8.94813e-12)
(0.962272 0.0266256 1.21781e-10)
(0.94874 0.00553095 3.743e-10)
(0.950278 -0.0205776 7.40806e-10)
(0.971505 -0.0487699 1.10493e-09)
(1.01241 -0.0727024 1.36099e-09)
(1.06622 -0.0850853 1.49974e-09)
(1.12164 -0.0813595 1.58632e-09)
(1.16712 -0.061739 1.66671e-09)
(1.19451 -0.0307379 1.68928e-09)
(1.20043 0.0045397 1.53557e-09)
(1.18579 0.0360786 1.16397e-09)
(1.15517 0.0569628 6.83208e-10)
(1.11605 0.0636464 2.62684e-10)
(1.07696 0.0569383 9.96821e-12)
(1.04512 0.0404695 -6.02326e-11)
(1.02567 0.017739 1.8438e-11)
(1.02287 -0.00929745 1.99106e-10)
(1.04031 -0.0387479 4.24181e-10)
(1.07878 -0.0667429 6.33241e-10)
(1.13415 -0.0875542 7.87663e-10)
(1.1979 -0.0958537 8.82827e-10)
(1.25965 -0.0890386 9.35577e-10)
(1.30969 -0.0681758 9.65376e-10)
(1.3408 -0.0376232 9.87224e-10)
(1.34925 -0.00376303 1.01423e-09)
(1.33541 0.026841 1.05543e-09)
(1.30371 0.0494519 1.10321e-09)
(1.26118 0.0624973 1.12128e-09)
(1.21504 0.0671405 1.05403e-09)
(1.1708 0.0652752 8.66309e-10)
(1.13212 0.0577864 5.83072e-10)
(1.1018 0.0446826 2.84074e-10)
(1.08222 0.0265845 5.6721e-11)
(1.07492 0.0057321 -4.59972e-11)
(1.07969 -0.0144027 -1.59901e-11)
(1.0945 -0.0302984 1.17289e-10)
(1.11614 -0.0393407 2.98427e-10)
(1.14083 -0.0401061 4.63031e-10)
(1.16434 -0.0324011 5.57495e-10)
(1.18209 -0.0175061 5.55827e-10)
(1.18985 0.00161996 4.6829e-10)
(1.18521 0.0208124 3.33372e-10)
(1.16871 0.0359736 1.96287e-10)
(1.14375 0.0445329 8.95999e-11)
(1.1152 0.0461299 2.45046e-11)
(1.08762 0.0422128 -5.01336e-12)
(1.06409 0.0350193 -1.22365e-11)
(1.04598 0.0266304 -9.51467e-12)
(1.03336 0.0184874 -4.68056e-12)
(1.02558 0.0113578 -1.12045e-12)
(1.02175 0.00553216 5.9357e-13)
(1.02094 0.00104777 1.05917e-12)
(1.02232 -0.0021546 1.01808e-12)
(1.02512 -0.0041557 9.47796e-13)
(1.02865 -0.00504272 1.02296e-12)
(1.03225 -0.00492789 1.22051e-12)
(1.03537 -0.00397522 1.43876e-12)
(1.03754 -0.00241361 1.58023e-12)
(1.03849 -0.000523605 1.59148e-12)
(1.03813 0.00140003 1.47106e-12)
(1.03655 0.003096 1.25773e-12)
(1.03402 0.00437627 1.00478e-12)
(1.03086 0.00514481 7.59371e-13)
(1.02745 0.00539403 5.52595e-13)
(1.02409 0.00518562 3.9863e-13)
(1.02105 0.00462502 2.98933e-13)
(1.0185 0.00383651 2.4772e-13)
(1.01652 0.00294312 2.36428e-13)
(1.01514 0.0020522 2.56347e-13)
(1.01429 0.00124693 2.99609e-13)
(1.0139 0.000582843 3.59151e-13)
(1.01386 8.87098e-05 4.28349e-13)
(1.01404 -0.000229604 5.00859e-13)
(1.01434 -0.000383702 5.70741e-13)
(1.01466 -0.000397029 6.32664e-13)
(1.01494 -0.00029983 6.82295e-13)
(1.0151 -0.000125081 7.16716e-13)
(1.01513 9.46558e-05 7.34755e-13)
(1.015 0.000329609 7.37148e-13)
(1.01472 0.000554613 7.26292e-13)
(1.01431 0.000750301 7.05681e-13)
(1.01379 0.000903752 6.79262e-13)
(1.01319 0.00100844 6.50857e-13)
(1.01256 0.00106377 6.23717e-13)
(1.0119 0.0010739 6.00265e-13)
(1.01127 0.0010467 5.82e-13)
(1.01066 0.000991736 5.69551e-13)
(1.0101 0.000919992 5.62807e-13)
(1.00959 0.000840689 5.61104e-13)
(1.00913 0.000763843 5.63421e-13)
(1.00871 0.000693867 5.6857e-13)
(1.00835 0.000638893 5.75345e-13)
(1.00798 0.000595676 5.82675e-13)
(1.0077 0.000572438 5.89662e-13)
(1.0073 0.000558316 5.95807e-13)
(1.00713 0.000559164 6.00386e-13)
(1.00655 0.000577235 6.05384e-13)
(1.0001 -0.00199432 -2.94662e-18)
(1.00159 -0.00612753 -9.55313e-18)
(1.00509 -0.0107278 -8.42367e-18)
(1.01066 -0.0159314 -1.1058e-17)
(1.01879 -0.0217555 -6.69908e-18)
(1.02989 -0.0279562 -2.50235e-17)
(1.0443 -0.034062 -1.78713e-18)
(1.06201 -0.039094 6.86295e-17)
(1.0824 -0.0419987 -1.72273e-16)
(1.10416 -0.0414168 -3.00829e-16)
(1.12468 -0.0365701 2.10361e-16)
(1.14164 -0.0283889 5.9256e-16)
(1.15377 -0.0175287 2.22919e-16)
(1.15989 -0.00472946 -2.3645e-16)
(1.15902 0.00907633 -5.92683e-16)
(1.1505 0.022306 -8.86695e-16)
(1.13485 0.0324894 -1.17774e-15)
(1.11446 0.0373318 -1.62202e-15)
(1.09292 0.0356661 -2.4224e-15)
(1.07414 0.0275614 -3.28814e-15)
(1.06167 0.0142811 -4.116e-15)
(1.05816 -0.00184809 -8.95648e-15)
(1.0649 -0.0174476 2.11769e-14)
(1.08093 -0.0281334 1.85001e-13)
(1.10195 -0.0296569 3.2541e-13)
(1.12075 -0.0203407 2.44754e-13)
(1.13019 -0.00280418 9.69596e-14)
(1.12671 0.017317 1.96653e-14)
(1.11129 0.034505 6.39993e-16)
(1.08778 0.0455057 1.19695e-14)
(1.06056 0.049317 -2.84172e-14)
(1.03349 0.0461346 -1.5486e-13)
(1.00976 0.0364132 3.93398e-13)
(0.992314 0.0204738 1.83593e-12)
(0.984464 -0.00123716 -3.06634e-12)
(0.990082 -0.0271219 -2.2084e-11)
(1.0123 -0.0527875 -2.73074e-11)
(1.05032 -0.0706798 7.65615e-12)
(1.09683 -0.0729755 2.55551e-11)
(1.13901 -0.0565664 -1.50079e-11)
(1.16436 -0.0258912 -5.18266e-11)
(1.16694 0.00927845 -4.61095e-11)
(1.14894 0.0392057 -2.03257e-11)
(1.11763 0.0584874 -1.25823e-12)
(1.08082 0.066592 4.90134e-12)
(1.04414 0.0655085 3.35381e-12)
(1.01098 0.0572683 -6.97639e-12)
(0.983596 0.0427868 -2.03165e-11)
(0.963974 0.0220855 3.3195e-11)
(0.954235 -0.00470583 3.10019e-10)
(0.957471 -0.0360152 9.17182e-10)
(0.977674 -0.0674193 1.73317e-09)
(1.01644 -0.0911378 2.49063e-09)
(1.06896 -0.0980074 2.99385e-09)
(1.12407 -0.0821085 3.11492e-09)
(1.16774 -0.0453874 2.72755e-09)
(1.18769 0.00158609 1.89017e-09)
(1.17881 0.0445697 9.55314e-10)
(1.14608 0.07314 2.83699e-10)
(1.10099 0.0847458 -2.2935e-11)
(1.05463 0.0828864 -8.70614e-11)
(1.01335 0.0726382 -5.64809e-11)
(0.979001 0.0571894 3.46595e-11)
(0.952338 0.0366046 2.48384e-10)
(0.936863 0.0088865 6.08442e-10)
(0.939398 -0.0266357 1.00611e-09)
(0.965329 -0.0654866 1.28198e-09)
(1.01292 -0.097965 1.37771e-09)
(1.07276 -0.113751 1.3617e-09)
(1.13181 -0.107254 1.35025e-09)
(1.17788 -0.0798117 1.42884e-09)
(1.20301 -0.0383331 1.57643e-09)
(1.20485 0.0076254 1.63176e-09)
(1.18591 0.0481665 1.42311e-09)
(1.15184 0.0749819 9.62074e-10)
(1.1102 0.0836895 4.43723e-10)
(1.06904 0.0751432 7.48359e-11)
(1.03539 0.053671 -5.12555e-11)
(1.01514 0.0233329 4.42996e-11)
(1.01394 -0.0135726 2.73065e-10)
(1.03605 -0.054043 5.26542e-10)
(1.08102 -0.0918962 7.24938e-10)
(1.14241 -0.118897 8.45434e-10)
(1.20999 -0.12829 9.09008e-10)
(1.27304 -0.117459 9.46058e-10)
(1.32256 -0.0884469 9.73008e-10)
(1.35213 -0.0471108 9.92878e-10)
(1.35838 -0.00164992 1.01225e-09)
(1.34145 0.0393547 1.04885e-09)
(1.30553 0.0694073 1.11041e-09)
(1.25794 0.0861141 1.16463e-09)
(1.20677 0.0909627 1.13852e-09)
(1.15863 0.0867999 9.70061e-10)
(1.1179 0.0753398 6.71152e-10)
(1.08745 0.0570475 3.34118e-10)
(1.0691 0.032964 7.77595e-11)
(1.06331 0.00602772 -1.28979e-11)
(1.06884 -0.0194545 8.11431e-11)
(1.08329 -0.0393568 3.10066e-10)
(1.10388 -0.0507961 5.84236e-10)
(1.12777 -0.0521769 8.17159e-10)
(1.15159 -0.043045 9.49733e-10)
(1.17121 -0.0245023 9.52154e-10)
(1.1821 0.000136916 8.26558e-10)
(1.18083 0.0255667 6.13609e-10)
(1.16679 0.0461216 3.79316e-10)
(1.14284 0.0579829 1.83763e-10)
(1.11406 0.0603902 5.64992e-11)
(1.08568 0.0552238 -5.51228e-12)
(1.06141 0.0455711 -2.32903e-11)
(1.04299 0.0343332 -1.96486e-11)
(1.03055 0.0235019 -1.03652e-11)
(1.02335 0.0141072 -2.8959e-12)
(1.02032 0.00650669 1.06006e-12)
(1.0204 0.000712362 2.43866e-12)
(1.02267 -0.00338396 2.68313e-12)
(1.02629 -0.00590487 2.79513e-12)
(1.03053 -0.00696896 3.16099e-12)
(1.03473 -0.00672087 3.72765e-12)
(1.03828 -0.00537342 4.25568e-12)
(1.04071 -0.00322943 4.51915e-12)
(1.04172 -0.000664868 4.41026e-12)
(1.04125 0.00192355 3.95829e-12)
(1.03942 0.00418538 3.29044e-12)
(1.03656 0.00587195 2.55875e-12)
(1.03305 0.00686137 1.88592e-12)
(1.02931 0.00715182 1.34362e-12)
(1.02569 0.00683368 9.56012e-13)
(1.02247 0.00605365 7.15366e-13)
(1.01982 0.00498103 5.98654e-13)
(1.01783 0.0037809 5.7937e-13)
(1.01649 0.00259555 6.33458e-13)
(1.01574 0.0015337 7.40699e-13)
(1.01546 0.000666459 8.83722e-13)
(1.01553 2.90415e-05 1.04657e-12)
(1.01583 -0.000373578 1.21414e-12)
(1.01623 -0.000559108 1.37237e-12)
(1.01663 -0.000560277 1.50886e-12)
(1.01695 -0.000418145 1.61388e-12)
(1.01715 -0.000176799 1.6814e-12)
(1.01718 0.000120639 1.70974e-12)
(1.01704 0.000435024 1.7017e-12)
(1.01674 0.000733479 1.66378e-12)
(1.01629 0.000990908 1.60471e-12)
(1.01573 0.0011908 1.53395e-12)
(1.0151 0.00132513 1.46029e-12)
(1.01442 0.00139372 1.39098e-12)
(1.01374 0.00140257 1.3312e-12)
(1.01308 0.00136256 1.28394e-12)
(1.01245 0.00128665 1.25024e-12)
(1.01188 0.00118955 1.22951e-12)
(1.01136 0.00108349 1.22002e-12)
(1.01091 0.000981706 1.21931e-12)
(1.01049 0.000889763 1.22468e-12)
(1.01013 0.000818493 1.23342e-12)
(1.00977 0.000762747 1.2432e-12)
(1.00949 0.000734486 1.25217e-12)
(1.00909 0.000716625 1.25911e-12)
(1.00891 0.000721043 1.26356e-12)
(1.00833 0.000744128 1.26503e-12)
(1.00009 -0.00239219 3.16086e-18)
(1.00148 -0.00736027 1.02548e-17)
(1.00477 -0.012935 6.8601e-18)
(1.0101 -0.0193127 1.45506e-17)
(1.01803 -0.0265489 1.90502e-17)
(1.02911 -0.0343801 -6.20584e-17)
(1.04389 -0.042251 2.98763e-16)
(1.0625 -0.0489006 -2.61463e-16)
(1.08447 -0.0529636 -1.36436e-15)
(1.10842 -0.0524652 1.42814e-15)
(1.13106 -0.0463233 5.01781e-15)
(1.14968 -0.0359982 2.59014e-15)
(1.16308 -0.0223333 -5.32263e-15)
(1.17004 -0.00619689 -1.06057e-14)
(1.16933 0.0114118 -1.18286e-14)
(1.15981 0.0285723 -1.15606e-14)
(1.14178 0.0419559 -1.1352e-14)
(1.11803 0.0484143 -1.17465e-14)
(1.09283 0.0463658 -1.16626e-14)
(1.0708 0.0358693 -6.0253e-15)
(1.05609 0.0184995 -5.74756e-15)
(1.05197 -0.00283618 -1.56141e-14)
(1.06032 -0.0238087 5.22765e-13)
(1.08044 -0.0384893 2.37938e-12)
(1.10726 -0.0408302 3.8734e-12)
(1.13151 -0.0282981 2.9312e-12)
(1.14391 -0.00456573 1.09398e-12)
(1.14008 0.0223896 1.72706e-13)
(1.12179 0.0449769 -3.56768e-14)
(1.09425 0.0590711 -3.40077e-14)
(1.0629 0.0637598 -2.03759e-13)
(1.03202 0.0596445 1.97295e-13)
(1.00478 0.0474461 2.15978e-12)
(0.984144 0.027413 -4.645e-12)
(0.973831 -0.000364001 -2.94502e-11)
(0.978541 -0.0343601 3.81339e-11)
(1.00207 -0.0689572 4.65764e-10)
(1.04453 -0.0937054 1.25396e-09)
(1.09953 -0.0973125 1.82416e-09)
(1.15239 -0.0750246 1.63202e-09)
(1.18533 -0.0332527 9.08417e-10)
(1.18874 0.0138843 2.79857e-10)
(1.16589 0.052892 2.40626e-12)
(1.12761 0.076941 -3.86961e-11)
(1.08448 0.086162 -1.26647e-11)
(1.04306 0.0838947 -5.44618e-13)
(1.00644 0.0731531 -1.90874e-11)
(0.975927 0.0553 -1.95595e-11)
(0.952211 0.0304365 1.67365e-10)
(0.93698 -0.00181398 7.34717e-10)
(0.935614 -0.0408499 1.60697e-09)
(0.955605 -0.0820197 2.41066e-09)
(0.998961 -0.114808 2.89896e-09)
(1.05785 -0.126336 3.18139e-09)
(1.11837 -0.108445 3.41383e-09)
(1.16639 -0.0629908 3.41995e-09)
(1.19065 -0.00254415 2.85724e-09)
(1.18504 0.054488 1.79144e-09)
(1.15248 0.0930908 7.32771e-10)
(1.10432 0.10865 8.51821e-11)
(1.05354 0.105867 -1.34453e-10)
(1.00812 0.0924554 -1.04778e-10)
(0.970155 0.0732398 7.32831e-11)
(0.940626 0.0476956 4.00614e-10)
(0.924615 0.0120154 8.18332e-10)
(0.93049 -0.0347875 1.15764e-09)
(0.962684 -0.0855185 1.29465e-09)
(1.01659 -0.126442 1.26036e-09)
(1.08067 -0.144578 1.16868e-09)
(1.14147 -0.133961 1.11762e-09)
(1.18728 -0.0973512 1.17259e-09)
(1.21032 -0.0442038 1.34925e-09)
(1.20828 0.0131194 1.53514e-09)
(1.18454 0.0625949 1.50749e-09)
(1.14614 0.0948049 1.15365e-09)
(1.1013 0.105027 6.16551e-10)
(1.05786 0.0943247 1.66347e-10)
(1.02268 0.0674096 -1.30958e-11)
(1.00247 0.0284746 8.52563e-11)
(1.00407 -0.0197269 3.36344e-10)
(1.03147 -0.0722695 5.90543e-10)
(1.08198 -0.119934 7.64734e-10)
(1.14676 -0.152078 8.59411e-10)
(1.21475 -0.161223 9.1556e-10)
(1.27597 -0.14537 9.6642e-10)