/*--------------------------------*- C++ -*----------------------------------*\
  =========                 |
  \\      /  F ield         | OpenFOAM: The Open Source CFD Toolbox
   \\    /   O peration     | Website:  https://openfoam.org
    \\  /    A nd           | Version:  11
     \\/     M anipulation  |
\*---------------------------------------------------------------------------*/
FoamFile
{
    format      ascii;
    class       volVectorField;
    location    "12.181237";
    object      U_0;
}
// * * * * * * * * * * * * * * * * * * * * * * * * * * * * * * * * * * * * * //

dimensions      [0 1 -1 0 0 0 0];

internalField   nonuniform List<vector> 
7132
(
(1.00013 -0.000247662 2.39965e-18)
(1.00191 -0.000725104 9.50226e-18)
(1.00582 -0.00120273 1.08877e-17)
(1.01158 -0.00169046 1.3352e-17)
(1.01933 -0.00219261 1.74001e-17)
(1.02912 -0.00269201 1.86589e-17)
(1.04089 -0.00315238 1.8336e-17)
(1.05438 -0.00350273 1.73096e-17)
(1.06899 -0.00366677 1.58523e-17)
(1.08384 -0.00357928 1.40905e-17)
(1.09773 -0.00321442 1.23131e-17)
(1.10969 -0.00269021 1.10333e-17)
(1.11931 -0.00209603 9.97421e-18)
(1.1265 -0.00150244 9.22009e-18)
(1.13136 -0.000898343 4.3627e-18)
(1.13377 -0.000194292 8.3201e-21)
(1.13307 0.000713862 -4.15791e-18)
(1.12826 0.00183417 -3.22336e-18)
(1.11861 0.00301122 -4.60874e-18)
(1.10432 0.00399932 -5.42843e-18)
(1.08666 0.00457309 -4.23735e-18)
(1.06767 0.00459013 -3.32384e-18)
(1.0498 0.00400023 -3.08276e-18)
(1.03548 0.00283425 -1.7964e-18)
(1.02693 0.00120198 1.85662e-19)
(1.02574 -0.000694205 -5.23342e-18)
(1.03249 -0.0025287 -7.94132e-17)
(1.04617 -0.00385543 -2.86467e-16)
(1.06373 -0.00422821 -4.73364e-16)
(1.08051 -0.00343047 -4.07791e-16)
(1.09168 -0.00165216 -1.87739e-16)
(1.09409 0.000577565 -5.08228e-17)
(1.0872 0.00265641 7.83044e-18)
(1.07276 0.0041547 8.43138e-17)
(1.05372 0.00488109 -6.73792e-17)
(1.03337 0.0048097 -8.69858e-16)
(1.01485 0.0039821 3.69883e-16)
(1.00109 0.00245596 1.05588e-14)
(0.994785 0.00032488 1.67511e-14)
(0.998169 -0.00219999 -6.15724e-14)
(1.01228 -0.00468429 -3.51988e-13)
(1.03586 -0.00646955 -8.2502e-13)
(1.06456 -0.00689039 -1.17262e-12)
(1.09168 -0.00563736 -1.13696e-12)
(1.11035 -0.00299947 -7.98467e-13)
(1.11617 0.000242467 -3.9993e-13)
(1.10859 0.00320379 -1.21454e-13)
(1.09041 0.00527506 -1.94588e-16)
(1.06605 0.0062478 3.50666e-14)
(1.03999 0.00619264 3.53054e-14)
(1.01604 0.00526464 -5.60203e-14)
(0.997392 0.0035764 -2.34694e-13)
(0.986942 0.00119693 5.70333e-14)
(0.987389 -0.00173518 2.20604e-12)
(1.0006 -0.00484991 7.94159e-12)
(1.0263 -0.00747886 1.74749e-11)
(1.06092 -0.00880987 2.76012e-11)
(1.09756 -0.00824234 3.32755e-11)
(1.12772 -0.005739 3.17774e-11)
(1.1442 -0.00192984 2.41227e-11)
(1.14359 0.00213501 1.36092e-11)
(1.12716 0.00544351 4.84414e-12)
(1.09973 0.00741176 1.86258e-13)
(1.06736 0.00797006 -1.33185e-12)
(1.03542 0.00737242 -1.76571e-12)
(1.00786 0.00592295 -8.31919e-13)
(0.987526 0.00380189 6.29686e-12)
(0.976888 0.0010757 2.78784e-11)
(0.978331 -0.00213463 7.1176e-11)
(0.993449 -0.00545933 1.372e-10)
(1.0217 -0.00823969 2.17409e-10)
(1.05937 -0.00971595 2.94831e-10)
(1.09977 -0.00934555 3.49487e-10)
(1.13476 -0.00705722 3.65643e-10)
(1.15703 -0.00331298 3.37758e-10)
(1.16208 0.0010274 2.72437e-10)
(1.14944 0.00496867 1.85585e-10)
(1.12263 0.00769744 9.86407e-11)
(1.08781 0.00882978 3.17199e-11)
(1.05167 0.00845991 -3.97589e-12)
(1.01965 0.00696067 -6.84916e-12)
(0.995424 0.00467316 2.06661e-11)
(0.981682 0.00175602 7.59016e-11)
(0.980885 -0.00166651 1.54474e-10)
(0.994793 -0.00523662 2.47706e-10)
(1.02297 -0.00829092 3.43588e-10)
(1.06171 -0.0100826 4.30797e-10)
(1.10441 -0.0101279 5.01921e-10)
(1.14341 -0.00842911 5.53547e-10)
(1.17221 -0.00545735 5.83873e-10)
(1.18706 -0.00194519 5.89915e-10)
(1.18748 0.00136869 5.65776e-10)
(1.17569 0.0039217 5.0354e-10)
(1.15569 0.00537655 4.01206e-10)
(1.13235 0.00557971 2.72067e-10)
(1.11082 0.00453034 1.44661e-10)
(1.09594 0.00238023 4.96476e-11)
(1.09168 -0.000563691 3.97299e-12)
(1.10049 -0.00384947 5.79917e-12)
(1.12278 -0.00691528 4.14035e-11)
(1.15649 -0.00916581 9.49706e-11)
(1.19712 -0.0101024 1.54283e-10)
(1.23848 -0.00946379 2.11828e-10)
(1.27393 -0.00730985 2.63783e-10)
(1.29778 -0.00401596 3.08786e-10)
(1.30647 -0.000187694 3.47229e-10)
(1.29927 0.00347887 3.80636e-10)
(1.27826 0.00635831 4.11118e-10)
(1.24772 0.00805351 4.4096e-10)
(1.21296 0.00847346 4.69702e-10)
(1.17902 0.00782044 4.89585e-10)
(1.14957 0.00647492 4.85121e-10)
(1.12653 0.00481718 4.41336e-10)
(1.11051 0.00308294 3.55885e-10)
(1.10152 0.00134457 2.44197e-10)
(1.09957 -0.00038732 1.32572e-10)
(1.10458 -0.00204104 4.5085e-11)
(1.11597 -0.00343545 -5.90336e-12)
(1.1322 -0.00432118 -2.11125e-11)
(1.15069 -0.0044688 -9.94976e-12)
(1.1681 -0.00375353 1.50415e-11)
(1.18088 -0.00221177 4.21535e-11)
(1.18598 -6.25163e-05 6.25254e-11)
(1.18159 0.00231465 7.09386e-11)
(1.16767 0.00445874 6.61814e-11)
(1.14607 0.00595636 5.10764e-11)
(1.12007 0.00657172 3.14601e-11)
(1.09346 0.00631167 1.37193e-11)
(1.06947 0.00539028 1.97498e-12)
(1.05021 0.00411894 -3.18345e-12)
(1.03641 0.00278853 -3.75314e-12)
(1.02782 0.00159916 -2.35752e-12)
(1.02359 0.000649529 -8.34158e-13)
(1.02264 -3.66639e-05 8.53826e-14)
(1.02394 -0.000476471 4.06971e-13)
(1.02653 -0.00070239 3.96751e-13)
(1.02964 -0.000749705 2.91159e-13)
(1.03261 -0.000653616 2.10126e-13)
(1.03494 -0.000450938 1.79879e-13)
(1.03627 -0.000181751 1.82234e-13)
(1.03643 0.000111673 1.91252e-13)
(1.0354 0.000388927 1.90183e-13)
(1.03332 0.00061682 1.7422e-13)
(1.03045 0.00077358 1.46751e-13)
(1.0271 0.000850483 1.1448e-13)
(1.02361 0.000850753 8.38151e-14)
(1.02026 0.000786659 5.9082e-14)
(1.01728 0.000675812 4.22225e-14)
(1.01483 0.000537794 3.33104e-14)
(1.01296 0.000391179 3.13233e-14)
(1.01169 0.000251831 3.47957e-14)
(1.01094 0.00013119 4.22217e-14)
(1.01064 3.6754e-05 5.22362e-14)
(1.01065 -2.91944e-05 6.36499e-14)
(1.01089 -6.64115e-05 7.54415e-14)
(1.01118 -7.94199e-05 8.67213e-14)
(1.01156 -7.1529e-05 9.6765e-14)
(1.01173 -4.87726e-05 1.04886e-13)
(1.01201 -2.16786e-05 1.10936e-13)
(1.01181 3.56235e-05 1.14651e-13)
(1.00013 -0.000741491 2.87031e-20)
(1.0019 -0.00217173 4.86605e-19)
(1.00579 -0.00360367 1.04708e-18)
(1.01153 -0.00506931 1.64284e-18)
(1.01927 -0.00658245 2.3452e-18)
(1.0291 -0.00809237 3.05732e-18)
(1.04096 -0.00949014 3.54467e-18)
(1.05463 -0.0105584 4.4377e-18)
(1.06949 -0.0110631 5.17288e-18)
(1.08462 -0.0107984 4.05793e-18)
(1.09875 -0.00968196 4.19525e-18)
(1.11083 -0.00808712 8.25522e-18)
(1.12048 -0.00629202 6.49932e-18)
(1.12767 -0.00452052 2.02289e-18)
(1.13257 -0.00273979 -1.98733e-18)
(1.13511 -0.000669129 -2.39991e-18)
(1.13462 0.00202997 -3.49177e-19)
(1.12994 0.00539875 2.38703e-18)
(1.12024 0.00896613 4.41436e-18)
(1.10567 0.0119792 5.42262e-18)
(1.08754 0.0137482 5.77004e-18)
(1.06798 0.0138379 4.69277e-18)
(1.04951 0.0120921 4.24461e-18)
(1.03466 0.00859675 1.32236e-17)
(1.0257 0.00367205 -3.53433e-17)
(1.02436 -0.00208266 -2.66239e-16)
(1.03136 -0.00768679 5.15661e-16)
(1.04574 -0.0117733 4.44996e-15)
(1.06435 -0.0129555 8.03027e-15)
(1.08222 -0.0105483 6.60132e-15)
(1.09414 -0.00512739 2.9637e-15)
(1.09677 0.00167918 7.0276e-16)
(1.08959 0.00802144 1.81493e-16)
(1.07453 0.012589 4.87025e-16)
(1.05475 0.0148109 -1.82477e-15)
(1.03363 0.0146225 -8.30554e-15)
(1.01435 0.0121557 1.27596e-14)
(0.999881 0.00757634 1.30761e-13)
(0.993003 0.00114195 1.53775e-13)
(0.996146 -0.00653868 -1.19937e-12)
(1.01061 -0.0141564 -6.19222e-12)
(1.03523 -0.0196825 -1.44312e-11)
(1.06547 -0.021044 -2.02909e-11)
(1.09414 -0.0172645 -1.87131e-11)
(1.11382 -0.00922676 -1.1733e-11)
(1.11985 0.00066545 -5.00722e-12)
(1.11177 0.00969451 -1.19146e-12)
(1.09268 0.0159974 2.08853e-13)
(1.06732 0.0189543 4.36006e-13)
(1.04032 0.0188034 1.61016e-13)
(1.01552 0.016031 -7.93977e-13)
(0.996072 0.0109741 -1.75357e-12)
(0.984908 0.00381245 3.14935e-12)
(0.984856 -0.00507694 2.86826e-11)
(0.998009 -0.0145941 9.32648e-11)
(1.02431 -0.0226888 1.9706e-10)
(1.06025 -0.0268409 3.02645e-10)
(1.0987 -0.0251773 3.52877e-10)
(1.13061 -0.0175749 3.19237e-10)
(1.14818 -0.0059719 2.25808e-10)
(1.14769 0.00641882 1.22044e-10)
(1.13052 0.0165003 4.4922e-11)
(1.10189 0.0224841 4.99682e-12)
(1.0683 0.0241713 -7.71765e-12)
(1.03534 0.0223665 -8.33001e-12)
(1.00692 0.0180219 -3.13541e-12)
(0.985745 0.0116876 1.67622e-11)
(0.974191 0.00353286 7.13438e-11)
(0.974756 -0.00612802 1.77805e-10)
(0.989347 -0.0162119 3.34028e-10)
(1.01771 -0.0247258 5.13221e-10)
(1.05616 -0.0293402 6.75329e-10)
(1.09775 -0.0283724 7.81952e-10)
(1.13401 -0.0215739 8.04083e-10)
(1.15736 -0.0103207 7.2975e-10)
(1.16318 0.00279911 5.74646e-10)
(1.15088 0.0147729 3.79899e-10)
(1.12393 0.0231164 1.95836e-10)
(1.08857 0.0266377 6.17193e-11)
(1.05166 0.0256065 -7.14944e-12)
(1.01877 0.0211543 -1.49113e-11)
(0.993656 0.0143106 2.89293e-11)
(0.979184 0.00552464 1.16761e-10)
(0.978162 -0.00487065 2.38427e-10)
(0.99271 -0.0157943 3.75176e-10)
(1.02244 -0.0251726 5.03429e-10)
(1.0632 -0.0306559 6.05647e-10)
(1.1077 -0.0307385 6.76737e-10)
(1.14768 -0.0254643 7.20909e-10)
(1.17638 -0.0163432 7.42942e-10)
(1.19019 -0.00566141 7.40879e-10)
(1.18905 0.00433498 7.05054e-10)
(1.17568 0.0119756 6.24109e-10)
(1.15441 0.0162854 4.9568e-10)
(1.13025 0.016843 3.363e-10)
(1.1083 0.0136648 1.80219e-10)
(1.09331 0.00719052 6.41318e-11)
(1.08929 -0.00170338 9.27859e-12)
(1.09889 -0.0116952 1.49726e-11)
(1.1227 -0.0210819 6.50671e-11)
(1.15857 -0.0280105 1.38715e-10)
(1.20169 -0.0309079 2.18063e-10)
(1.24534 -0.0289475 2.9122e-10)
(1.28243 -0.0223222 3.52041e-10)
(1.30702 -0.0122179 3.98618e-10)
(1.31553 -0.000514499 4.31814e-10)
(1.30736 0.0106641 4.54568e-10)
(1.28481 0.0194319 4.71522e-10)
(1.25242 0.0245872 4.87812e-10)
(1.21579 0.0258588 5.05353e-10)
(1.18014 0.0238654 5.17543e-10)
(1.14927 0.0197645 5.08407e-10)
(1.12516 0.0147114 4.61251e-10)
(1.10843 0.009424 3.72066e-10)
(1.09911 0.00412744 2.5602e-10)
(1.09716 -0.00114055 1.41042e-10)
(1.10245 -0.00615837 5.40651e-11)
(1.11425 -0.0103759 9.9459e-12)
(1.13089 -0.0130449 8.26291e-12)
(1.14971 -0.0134861 3.67768e-11)
(1.16734 -0.0113387 7.77343e-11)
(1.18028 -0.00672017 1.14076e-10)
(1.18553 -0.000282345 1.33961e-10)
(1.18129 0.00685141 1.32685e-10)
(1.1675 0.0133067 1.12365e-10)
(1.14596 0.0178388 8.03652e-11)
(1.11993 0.0197274 4.63562e-11)
(1.09322 0.0189798 1.87068e-11)
(1.06911 0.0162303 1.63039e-12)
(1.04975 0.0124124 -5.3956e-12)
(1.03593 0.0084036 -5.85066e-12)
(1.02739 0.00481175 -3.605e-12)
(1.02329 0.00193998 -1.24992e-12)
(1.02253 -0.000136313 1.93357e-13)
(1.02403 -0.00146669 7.34505e-13)
(1.02684 -0.0021489 7.58256e-13)
(1.03013 -0.00229003 6.17275e-13)
(1.03326 -0.00199705 4.98917e-13)
(1.0357 -0.00138149 4.4923e-13)
(1.0371 -0.000564557 4.42745e-13)
(1.03727 0.000325909 4.39581e-13)
(1.03621 0.00116749 4.14773e-13)
(1.03407 0.00185942 3.63714e-13)
(1.03112 0.00233556 2.95405e-13)
(1.02769 0.00256937 2.23465e-13)
(1.02412 0.00257068 1.59612e-13)
(1.0207 0.00237676 1.10801e-13)
(1.01767 0.00204109 7.92299e-14)
(1.01519 0.00162309 6.3776e-14)
(1.01331 0.00117914 6.16506e-14)
(1.01205 0.000757314 6.96301e-14)
(1.01132 0.000392307 8.46882e-14)
(1.01105 0.000106779 1.04192e-13)
(1.01108 -9.23685e-05 1.25877e-13)
(1.01135 -0.000204532 1.47797e-13)
(1.01167 -0.000243388 1.68262e-13)
(1.01206 -0.000219115 1.85934e-13)
(1.01225 -0.000149885 1.99513e-13)
(1.01254 -6.79128e-05 2.09176e-13)
(1.01234 0.000105722 2.12839e-13)
(1.00013 -0.00123115 4.89902e-24)
(1.00188 -0.00360619 7.63961e-21)
(1.00572 -0.00598912 7.55322e-21)
(1.01142 -0.00843898 1.86274e-20)
(1.01915 -0.0109834 -8.26449e-20)
(1.02904 -0.0135411 -7.05535e-20)
(1.04109 -0.0159305 1.20388e-19)
(1.05512 -0.0177741 -1.4397e-18)
(1.07047 -0.018664 -1.5669e-18)
(1.08621 -0.0182187 4.39646e-18)
(1.10083 -0.0162835 6.59654e-18)
(1.11316 -0.0135441 -7.02747e-18)
(1.12288 -0.0104938 -3.49304e-17)
(1.13004 -0.00754008 -6.09357e-17)
(1.13501 -0.00462231 -6.35596e-17)
(1.13782 -0.00122265 -3.85648e-17)
(1.13772 0.00329378 -1.03532e-17)
(1.1333 0.0090311 7.02692e-18)
(1.12344 0.0151614 1.38755e-17)
(1.10824 0.0203557 1.57261e-17)
(1.08913 0.0234146 1.33825e-17)
(1.0684 0.0236007 -9.90649e-19)
(1.04875 0.0206596 2.53397e-17)
(1.03287 0.0147362 1.06865e-16)
(1.0232 0.0063504 -8.6294e-16)
(1.02168 -0.00351822 -2.6095e-15)
(1.02929 -0.0132161 1.41886e-14)
(1.04521 -0.0203613 7.34284e-14)
(1.06603 -0.0224817 1.32876e-13)
(1.08609 -0.0183295 1.21258e-13)
(1.09943 -0.00891457 5.97521e-14)
(1.10228 0.00287417 1.51384e-14)
(1.09426 0.0137859 8.29313e-16)
(1.07776 0.0215758 -2.59767e-16)
(1.05635 0.0253297 -1.48053e-14)
(1.03365 0.0250039 -3.53942e-14)
(1.01292 0.0208524 1.1911e-13)
(0.997169 0.0131305 6.28328e-13)
(0.989338 0.00219931 7.8871e-14)
(0.992246 -0.0109905 -6.98891e-12)
(1.00769 -0.02422 -2.64296e-11)
(1.03473 -0.0339154 -5.41691e-11)
(1.06831 -0.0363652 -7.45239e-11)
(1.10009 -0.0298133 -7.22045e-11)
(1.12158 -0.0158364 -4.88752e-11)
(1.12763 0.00129458 -2.28538e-11)
(1.11809 0.0168067 -6.40473e-12)
(1.09679 0.0275043 5.75612e-13)
(1.06918 0.0324225 2.03654e-12)
(1.04024 0.032084 5.0813e-13)
(1.01382 0.0273824 -4.00901e-12)
(0.992979 0.0188804 -5.59362e-12)
(0.980567 0.00681243 2.53601e-11)
(0.979487 -0.0082701 1.48443e-10)
(0.992118 -0.0245654 4.15071e-10)
(1.0189 -0.0386049 7.98062e-10)
(1.05673 -0.0460234 1.16899e-09)
(1.09839 -0.0434434 1.35939e-09)
(1.13397 -0.0304784 1.26664e-09)
(1.15432 -0.0104408 9.36921e-10)
(1.15468 0.0109982 5.35607e-10)
(1.13638 0.0283551 2.152e-10)
(1.10543 0.0385157 3.61588e-11)
(1.06934 0.0412355 -2.72339e-11)
(1.03432 0.0380519 -3.14381e-11)
(1.00428 0.0307141 -9.94657e-12)
(0.981603 0.0201681 4.69544e-11)
(0.968522 0.00658069 1.73055e-10)
(0.967902 -0.00969593 3.83729e-10)
(0.982379 -0.0269257 6.46812e-10)
(1.01211 -0.0416541 9.01339e-10)
(1.053 -0.0497567 1.10201e-09)
(1.09713 -0.0482843 1.23347e-09)
(1.13522 -0.0368569 1.28273e-09)
(1.1595 -0.0178701 1.218e-09)
(1.16553 0.00430568 1.01665e-09)
(1.15294 0.0246122 7.11963e-10)
(1.12526 0.0388444 3.89391e-10)
(1.08878 0.0449458 1.36243e-10)
(1.05049 0.0433469 -2.14105e-12)
(1.01612 0.0359561 -2.53354e-11)
(0.98965 0.024465 4.61465e-11)
(0.974423 0.00951271 1.86724e-10)
(0.973964 -0.00841402 3.6364e-10)
(0.990851 -0.0273642 5.36308e-10)
(1.02432 -0.0435408 6.70683e-10)
(1.06913 -0.0527346 7.54309e-10)
(1.11677 -0.0523866 7.96513e-10)
(1.15815 -0.0427608 8.17096e-10)
(1.1862 -0.0266827 8.32212e-10)
(1.1976 -0.00825045 8.41748e-10)
(1.19296 0.00864564 8.25519e-10)
(1.17591 0.0212488 7.5616e-10)
(1.15158 0.028083 6.19825e-10)
(1.12539 0.028622 4.32993e-10)
(1.10241 0.0229898 2.40677e-10)
(1.08732 0.011884 9.41842e-11)
(1.08422 -0.00334535 2.52228e-11)
(1.09604 -0.0205431 3.49688e-11)
(1.12341 -0.0367554 1.01579e-10)
(1.16371 -0.0486714 1.95784e-10)
(1.21122 -0.0534975 2.93136e-10)
(1.25839 -0.0498404 3.78712e-10)
(1.29762 -0.0381383 4.4617e-10)
(1.32287 -0.0205362 4.94564e-10)
(1.33064 -0.000317359 5.25265e-10)
(1.32052 0.0188729 5.41107e-10)
(1.29513 0.033836 5.47434e-10)
(1.25944 0.0425511 5.51325e-10)
(1.21946 0.0445971 5.57399e-10)
(1.18078 0.0410684 5.6097e-10)
(1.14742 0.0339578 5.45732e-10)
(1.12147 0.0252326 4.92764e-10)
(1.1036 0.0161096 3.96342e-10)
(1.09383 0.00698229 2.72879e-10)
(1.09209 -0.00205231 1.54784e-10)
(1.09803 -0.0105805 7.4395e-11)
(1.11066 -0.017659 4.93729e-11)
(1.12803 -0.0220569 7.71867e-11)
(1.14731 -0.0226972 1.38961e-10)
(1.16515 -0.0190377 2.08149e-10)
(1.17819 -0.0113015 2.59633e-10)
(1.18356 -0.000562135 2.76995e-10)
(1.17952 0.0113394 2.56247e-10)
(1.16593 0.0221324 2.05219e-10)
(1.14453 0.029738 1.39645e-10)
(1.11854 0.0329346 7.67126e-11)
(1.09177 0.0317125 2.89381e-11)
(1.0676 0.0271182 9.23905e-13)
(1.04824 0.020711 -9.9899e-12)
(1.03454 0.0139672 -1.02511e-11)
(1.02628 0.00791742 -6.25811e-12)
(1.02257 0.00308157 -2.14552e-12)
(1.02227 -0.000406674 4.55276e-13)
(1.02426 -0.00262897 1.53781e-12)
(1.02752 -0.00375209 1.70947e-12)
(1.03121 -0.00395998 1.54978e-12)
(1.03464 -0.00343583 1.38124e-12)
(1.03727 -0.00236959 1.29233e-12)
(1.03876 -0.000967078 1.24682e-12)
(1.03893 0.000554662 1.18201e-12)
(1.03778 0.00198772 1.06319e-12)
(1.03548 0.00316133 8.93439e-13)
(1.03235 0.00396412 6.99244e-13)
(1.02874 0.00435266 5.12122e-13)
(1.025 0.00434552 3.55976e-13)
(1.02146 0.00400766 2.42574e-13)
(1.01835 0.00343114 1.73028e-13)
(1.01582 0.00271754 1.41858e-13)
(1.01395 0.00196276 1.40956e-13)
(1.01272 0.00124825 1.62163e-13)
(1.01205 0.000632422 1.98348e-13)
(1.01184 0.000153022 2.43514e-13)
(1.01195 -0.000179047 2.92553e-13)
(1.01228 -0.000363409 3.41076e-13)
(1.01264 -0.000424216 3.85268e-13)
(1.01308 -0.000378364 4.22199e-13)
(1.01328 -0.000258522 4.48966e-13)
(1.01359 -0.000116547 4.66931e-13)
(1.01338 0.00017693 4.68292e-13)
(1.00013 -0.0017135 -4.16515e-20)
(1.00184 -0.00501849 -5.62845e-19)
(1.00561 -0.00834615 -1.13517e-18)
(1.01123 -0.0117896 -1.83629e-18)
(1.01893 -0.0153988 -3.33821e-18)
(1.0289 -0.0190673 -2.34032e-18)
(1.04123 -0.0225419 -6.25917e-18)
(1.05579 -0.025262 -1.26728e-17)
(1.07193 -0.0266182 7.24977e-18)
(1.08862 -0.0259878 2.91477e-17)
(1.10401 -0.0231142 -3.35281e-17)
(1.11672 -0.0191014 -1.51156e-16)
(1.1265 -0.0147081 -1.47915e-16)
(1.13359 -0.010587 7.71782e-17)
(1.13865 -0.00664432 3.53173e-16)
(1.14188 -0.00204585 4.60307e-16)
(1.14244 0.00426978 3.90291e-16)
(1.13845 0.0125366 2.35361e-16)
(1.12836 0.0215015 9.44942e-17)
(1.11217 0.0291409 1.48054e-17)
(1.0915 0.0336682 -4.87205e-17)
(1.06896 0.0340228 -9.34545e-17)
(1.0475 0.0298569 1.84392e-16)
(1.03003 0.0213725 -7.80036e-16)
(1.01926 0.00926779 -4.14613e-15)
(1.01745 -0.00512371 1.27574e-14)
(1.02599 -0.0194478 2.18645e-14)
(1.0443 -0.0301497 -1.1861e-13)
(1.06861 -0.033414 -2.21868e-13)
(1.09217 -0.0272566 -6.97359e-14)
(1.10773 -0.0132078 6.48206e-14)
(1.11085 0.00428572 5.70054e-14)
(1.10142 0.0202943 1.87633e-14)
(1.08257 0.0315476 -1.00735e-14)
(1.0586 0.036862 -6.3605e-14)
(1.03348 0.0363314 1.54575e-14)
(1.01057 0.0303954 5.4886e-13)
(0.992891 0.0193713 2.44426e-13)
(0.983616 0.0036126 -4.40223e-12)
(0.986142 -0.0157031 -6.67983e-12)
(1.00301 -0.0353917 2.65106e-11)
(1.03363 -0.0500019 1.06924e-10)
(1.07238 -0.0537467 1.65527e-10)
(1.10926 -0.0439029 1.37147e-10)
(1.13379 -0.0229722 6.10265e-11)
(1.13986 0.00244389 6.28157e-12)
(1.12783 0.0251342 -1.0112e-11)
(1.10288 0.0404524 -5.39648e-12)
(1.07166 0.047224 8.98906e-13)
(1.03974 0.0464742 -1.19551e-12)
(1.01096 0.0396553 -1.20117e-11)
(0.98807 0.0276018 -2.33936e-12)
(0.973554 0.010569 1.14831e-10)
(0.97025 -0.0108328 4.51279e-10)
(0.981172 -0.0342834 1.0257e-09)
(1.0079 -0.0549994 1.7059e-09)
(1.04799 -0.0666092 2.3058e-09)
(1.09384 -0.0638199 2.66737e-09)
(1.13447 -0.0455403 2.64443e-09)
(1.15929 -0.0163022 2.17158e-09)
(1.16206 0.0154188 1.40771e-09)
(1.14338 0.0411341 6.64201e-10)
(1.10988 0.0559907 1.70057e-10)
(1.07047 0.059714 -4.50762e-11)
(1.03243 0.0548894 -8.00458e-11)
(0.999936 0.0443745 -2.52989e-11)
(0.975057 0.0295676 1.03913e-10)
(0.960059 0.0103954 3.2834e-10)
(0.958686 -0.0130392 6.26263e-10)
(0.97461 -0.0383068 9.16874e-10)
(1.00796 -0.0600467 1.12695e-09)
(1.05334 -0.0718742 1.24976e-09)
(1.10117 -0.0695009 1.33125e-09)
(1.14108 -0.0527493 1.4057e-09)
(1.16521 -0.0254431 1.43646e-09)
(1.16989 0.00611483 1.32991e-09)
(1.15555 0.0349282 1.03957e-09)
(1.12613 0.0551926 6.367e-10)
(1.08792 0.0640067 2.62069e-10)
(1.04784 0.0619238 2.86924e-11)
(1.01164 0.0515665 -2.6579e-11)
(0.983701 0.0351573 7.11662e-11)
(0.968171 0.0133781 2.63894e-10)
(0.9695 -0.0130673 4.80358e-10)
(0.990387 -0.0409621 6.58173e-10)
(1.02901 -0.0643211 7.66993e-10)
(1.07854 -0.076905 8.11893e-10)
(1.12926 -0.0752677 8.1707e-10)
(1.17159 -0.0601816 8.09946e-10)
(1.19847 -0.0360492 8.13176e-10)
(1.20678 -0.00901279 8.3441e-10)
(1.19768 0.0151952 8.53293e-10)
(1.17571 0.0326635 8.25825e-10)
(1.14702 0.0415393 7.14969e-10)
(1.1177 0.04142 5.25401e-10)
(1.09309 0.0326902 3.09606e-10)
(1.07792 0.0162868 1.37479e-10)
(1.07656 -0.00605461 5.55684e-11)
(1.0921 -0.0312824 6.7888e-11)
(1.1247 -0.0549203 1.46064e-10)
(1.17057 -0.07193 2.52664e-10)
(1.22266 -0.0782646 3.58604e-10)
(1.27272 -0.0721652 4.48247e-10)
(1.31315 -0.0545651 5.16458e-10)
(1.33824 -0.0287093 5.63759e-10)
(1.34483 0.000685035 5.92629e-10)
(1.33262 0.0284353 6.06035e-10)
(1.30434 0.049974 6.08473e-10)
(1.26518 0.062411 6.06847e-10)
(1.22154 0.0651708 6.07038e-10)
(1.17942 0.059872 6.0574e-10)
(1.14314 0.0494115 5.86069e-10)
(1.115 0.0366198 5.26843e-10)
(1.0958 0.0232438 4.21773e-10)
(1.0856 0.00988482 2.91391e-10)
(1.08423 -0.00323539 1.75563e-10)
(1.09106 -0.0154431 1.12164e-10)
(1.10472 -0.0253782 1.17856e-10)
(1.12289 -0.0313741 1.83132e-10)
(1.14255 -0.0320512 2.80815e-10)
(1.1604 -0.0267788 3.78149e-10)
(1.17331 -0.0159222 4.45383e-10)
(1.1787 -0.000940615 4.61661e-10)
(1.17495 0.0156749 4.20742e-10)
(1.16187 0.0308034 3.33811e-10)
(1.14098 0.0415313 2.25334e-10)
(1.11539 0.046099 1.22724e-10)
(1.08885 0.0444398 4.56651e-11)
(1.06484 0.0379915 8.01557e-13)
(1.04566 0.0289419 -1.66588e-11)
(1.03227 0.0193853 -1.71058e-11)
(1.02449 0.0107996 -1.06145e-11)
(1.02141 0.00394212 -3.7099e-12)
(1.02185 -0.000984191 9.29815e-13)
(1.02458 -0.00409202 3.15683e-12)
(1.02854 -0.00562301 3.83462e-12)
(1.03282 -0.00584621 3.84292e-12)
(1.03669 -0.00502854 3.69424e-12)
(1.03962 -0.00344465 3.54573e-12)
(1.04124 -0.00139098 3.36182e-12)
(1.04137 0.000819984 3.07022e-12)
(1.04007 0.00288908 2.65011e-12)
(1.03754 0.00457159 2.14252e-12)
(1.03412 0.00571 1.61955e-12)
(1.03022 0.00624601 1.14998e-12)
(1.02624 0.00621104 7.78282e-13)
(1.02251 0.00570275 5.20224e-13)
(1.01928 0.00485655 3.694e-13)
(1.01671 0.00382017 3.07543e-13)
(1.01485 0.00273192 3.13208e-13)
(1.01368 0.00170835 3.66731e-13)
(1.0131 0.000832117 4.51764e-13)
(1.013 0.00015573 5.54871e-13)
(1.01322 -0.000307269 6.64671e-13)
(1.01364 -0.000557761 7.71345e-13)
(1.01408 -0.000632946 8.66365e-13)
(1.01457 -0.000555748 9.43363e-13)
(1.01481 -0.000378323 9.96022e-13)
(1.01514 -0.000166342 1.02909e-12)
(1.01491 0.000251046 1.01996e-12)
(1.00013 -0.00218413 -2.88773e-18)
(1.00178 -0.00639592 -8.99341e-18)
(1.00544 -0.0106567 -7.98087e-18)
(1.01094 -0.0151045 -1.11288e-17)
(1.01857 -0.0198237 -9.90872e-18)
(1.02862 -0.0246932 -1.08794e-17)
(1.0413 -0.0293906 -3.5864e-17)
(1.05658 -0.0331409 3.7624e-17)
(1.07382 -0.0350931 3.00423e-17)
(1.09188 -0.0342716 -1.77176e-16)
(1.10835 -0.0302699 -1.9871e-16)
(1.12154 -0.02478 3.26731e-16)
(1.13134 -0.0188934 1.85988e-15)
(1.13824 -0.0136003 4.59819e-15)
(1.14335 -0.00876668 6.97298e-15)
(1.1472 -0.00312187 6.75527e-15)
(1.14876 0.00500825 4.65258e-15)
(1.14548 0.0160848 2.24499e-15)
(1.13513 0.0283173 4.64844e-16)
(1.11759 0.0387938 -4.79953e-16)
(1.09476 0.0450209 -9.44297e-16)
(1.0697 0.0455992 -2.4689e-16)
(1.04573 0.0401184 -1.0348e-15)
(1.02606 0.028853 -1.47455e-14)
(1.01368 0.0126474 3.33496e-14)
(1.01134 -0.00687451 2.05671e-13)
(1.02108 -0.0266403 -6.94231e-13)
(1.04273 -0.0416842 -4.29823e-12)
(1.07205 -0.0464365 -8.0475e-12)
(1.10067 -0.0378932 -7.37075e-12)
(1.11941 -0.0182366 -3.52106e-12)
(1.12286 0.00605667 -7.71704e-13)
(1.1113 0.0279415 9.68008e-14)
(1.08907 0.042987 5.4343e-14)
(1.06151 0.0498691 -1.61669e-14)
(1.0331 0.0490121 7.57369e-13)
(1.00724 0.041147 1.95816e-13)
(0.986946 0.0266101 -1.01848e-11)
(0.975595 0.00558408 -1.37772e-11)
(0.977051 -0.0206692 1.11031e-10)
(0.994451 -0.0479501 5.5486e-10)
(1.02803 -0.0686116 1.26924e-09)
(1.07274 -0.07421 1.80851e-09)
(1.11733 -0.0605261 1.73585e-09)
(1.148 -0.0311125 1.13576e-09)
(1.15582 0.00430576 4.84765e-10)
(1.1411 0.035317 9.8916e-11)
(1.11113 0.055589 -2.59785e-11)
(1.0748 0.0639848 -2.88701e-11)
(1.03879 0.0624243 -1.97546e-11)
(1.00691 0.0532115 -2.34576e-11)
(0.981175 0.0375852 4.01895e-11)
(0.96338 0.0157333 3.26645e-10)
(0.956646 -0.01206 9.0912e-10)
(0.965692 -0.043376 1.6302e-09)
(0.993735 -0.0720236 2.24467e-09)
(1.03803 -0.0890214 2.69043e-09)
(1.08911 -0.0866996 3.06081e-09)
(1.13447 -0.0631873 3.3119e-09)
(1.16305 -0.0241946 3.16224e-09)
(1.16821 0.018991 2.4381e-09)
(1.14976 0.0544491 1.39901e-09)
(1.11416 0.0749573 5.01743e-10)
(1.07128 0.0799457 1.21203e-12)
(1.02966 0.0733047 -1.36766e-10)
(0.993976 0.0593949 -4.96072e-11)
(0.966355 0.0401077 1.78e-10)
(0.949656 0.0147764 4.97489e-10)
(0.948914 -0.0169556 8.23266e-10)
(0.968414 -0.0515543 1.05503e-09)
(1.0072 -0.0810309 1.15803e-09)
(1.05791 -0.0963852 1.17702e-09)
(1.10945 -0.0921726 1.18867e-09)
(1.15079 -0.0688791 1.25321e-09)
(1.17404 -0.0322531 1.3619e-09)
(1.17613 0.00916884 1.40264e-09)
(1.15858 0.0465115 1.23904e-09)
(1.12622 0.0726554 8.60942e-10)
(1.0856 0.0840749 4.15975e-10)
(1.04342 0.0814696 9.17201e-11)
(1.00533 0.0680142 -7.96832e-12)
(0.976169 0.0461999 1.03374e-10)
(0.961115 0.016625 3.31875e-10)
(0.965362 -0.0195032 5.65359e-10)
(0.991092 -0.0571091 7.28993e-10)
(1.03485 -0.0876278 8.06889e-10)
(1.08822 -0.10289 8.22875e-10)
(1.14073 -0.0989418 8.08449e-10)
(1.18287 -0.077371 7.8717e-10)
(1.20796 -0.0442614 7.77844e-10)
(1.21314 -0.00783678 7.95041e-10)
(1.19978 0.0241881 8.30725e-10)
(1.17294 0.046573 8.39313e-10)
(1.13963 0.057076 7.64175e-10)
(1.10678 0.0555783 5.90405e-10)
(1.08026 0.0428728 3.69162e-10)
(1.06529 0.0201517 1.84946e-10)
(1.06658 -0.010422 9.81787e-11)
(1.08704 -0.0446078 1.15459e-10)
(1.12549 -0.0759927 2.02591e-10)
(1.1763 -0.0976668 3.16134e-10)
(1.23123 -0.104601 4.25101e-10)
(1.28197 -0.0951099 5.14874e-10)
(1.32165 -0.0709107 5.81427e-10)
(1.34543 -0.0363707 6.25427e-10)
(1.35061 0.0025062 6.49638e-10)
(1.33689 0.0391237 6.57985e-10)
(1.30677 0.0675456 6.55637e-10)
(1.2653 0.0839271 6.49857e-10)
(1.21896 0.0874552 6.47014e-10)
(1.17405 0.0802534 6.43729e-10)
(1.13526 0.0661558 6.21134e-10)
(1.10517 0.0489009 5.55527e-10)
(1.08483 0.0308124 4.42143e-10)
(1.07441 0.012771 3.09036e-10)
(1.07365 -0.00478006 2.04422e-10)
(1.08162 -0.0208265 1.67197e-10)
(1.09648 -0.0335738 2.05708e-10)
(1.11553 -0.0409746 2.99688e-10)
(1.1355 -0.0414556 4.17085e-10)
(1.15313 -0.0344192 5.2768e-10)
(1.16557 -0.0204508 6.0555e-10)
(1.17065 -0.00137685 6.27815e-10)
(1.16706 0.0197681 5.80742e-10)
(1.15462 0.039122 4.70516e-10)
(1.13466 0.0529749 3.24813e-10)
(1.10997 0.0589912 1.81157e-10)
(1.08417 0.0569774 6.97809e-11)
(1.0607 0.048711 2.96076e-12)
(1.04201 0.0369939 -2.4304e-11)
(1.02916 0.0245543 -2.61036e-11)
(1.02207 0.0133486 -1.68066e-11)
(1.01984 0.00440195 -6.0746e-12)
(1.02123 -0.00199346 1.8281e-12)
(1.02493 -0.0059761 6.31988e-12)
(1.02978 -0.00786838 8.38862e-12)
(1.03482 -0.00803499 9.15791e-12)
(1.03927 -0.00683669 9.30913e-12)
(1.04258 -0.00464142 9.07835e-12)
(1.04438 -0.00184446 8.47785e-12)
(1.04449 0.00113753 7.5054e-12)
(1.043 0.00390584 6.24932e-12)
(1.04016 0.00613591 4.87611e-12)
(1.03637 0.00762237 3.56602e-12)
(1.0321 0.00829487 2.45701e-12)
(1.02779 0.00820365 1.6197e-12)
(1.02382 0.00748636 1.06209e-12)
(1.02044 0.00632883 7.50815e-13)
(1.01782 0.00493072 6.34697e-13)
(1.01599 0.00347697 6.61903e-13)
(1.01491 0.00212161 7.88168e-13)
(1.01446 0.000972213 9.7807e-13)
(1.0145 9.53913e-05 1.20288e-12)
(1.01486 -0.000494697 1.43829e-12)
(1.01541 -0.000801927 1.66317e-12)
(1.01595 -0.000880097 1.85926e-12)
(1.0165 -0.00075746 2.01333e-12)
(1.01678 -0.000512458 2.11238e-12)
(1.01713 -0.000216166 2.16973e-12)
(1.01688 0.000329968 2.12816e-12)
(1.00012 -0.00263761 2.57952e-18)
(1.0017 -0.00772229 9.12452e-18)
(1.0052 -0.0128968 1.06756e-17)
(1.01051 -0.0183587 1.99338e-18)
(1.01801 -0.0242436 5.07497e-17)
(1.0281 -0.0304326 -7.76425e-17)
(1.04119 -0.0365419 8.43902e-17)
(1.05738 -0.0415423 2.60117e-16)
(1.07609 -0.0442891 -3.82687e-16)
(1.09602 -0.0432716 -3.95393e-16)
(1.11394 -0.0378608 1.45134e-15)
(1.12772 -0.0306013 3.12031e-15)
(1.13744 -0.0230219 1.7151e-15)
(1.14396 -0.0166052 -3.52921e-16)
(1.14906 -0.0111643 1.69803e-15)
(1.15376 -0.00479917 5.38524e-15)
(1.1568 0.00509323 6.36172e-15)
(1.15462 0.0193545 4.77597e-15)
(1.14401 0.0354664 1.61833e-15)
(1.12465 0.0493391 -1.95134e-15)
(1.09893 0.0576121 -3.18343e-15)
(1.07055 0.0585349 9.04062e-16)
(1.04328 0.0516764 -2.429e-14)
(1.0207 0.0373972 -2.40906e-14)
(1.00612 0.0166307 3.32108e-13)
(1.0029 -0.0088116 2.61059e-14)
(1.01407 -0.0351381 -2.64044e-12)
(1.04023 -0.0556468 -4.88826e-12)
(1.07649 -0.0624043 -9.1481e-12)
(1.11209 -0.0509431 -1.58832e-11)
(1.13511 -0.0242768 -1.43449e-11)
(1.13882 0.00837824 -6.61738e-12)
(1.1242 0.0372062 -1.14856e-12)
(1.09734 0.0564399 3.5032e-13)
(1.06505 0.0648399 1.17365e-12)
(1.03243 0.0634612 2.84364e-12)
(1.00287 0.053474 -9.36693e-12)
(0.979264 0.0351996 -4.43245e-11)
(0.964829 0.00857488 3.99614e-11)
(0.963105 -0.0251046 6.41223e-10)
(0.977687 -0.0608607 2.0347e-09)
(1.01107 -0.0891544 3.83969e-09)
(1.06072 -0.0984326 5.19223e-09)
(1.11526 -0.0815644 5.3109e-09)
(1.157 -0.042214 4.04658e-09)
(1.17149 0.00591845 2.18114e-09)
(1.15654 0.0474967 7.20187e-10)
(1.12143 0.0735958 3.06097e-11)
(1.07871 0.0833796 -1.2075e-10)
(1.03742 0.0804109 -9.31026e-11)
(1.00156 0.06846 -3.63554e-11)
(0.972056 0.0493676 1.56434e-10)
(0.95002 0.0228432 6.3953e-10)
(0.939989 -0.0119732 1.30992e-09)
(0.949359 -0.052819 1.8289e-09)
(0.982072 -0.0911813 2.03028e-09)
(1.03311 -0.114328 2.10273e-09)
(1.09003 -0.112067 2.34544e-09)
(1.13875 -0.0825014 2.84145e-09)
(1.1685 -0.0331281 3.25915e-09)
(1.17375 0.0221159 3.06624e-09)
(1.15458 0.0681749 2.15657e-09)
(1.11703 0.0952121 1.00912e-09)
(1.07101 0.101945 1.72526e-10)
(1.02574 0.0935286 -1.54882e-10)
(0.986512 0.0760192 -7.13009e-11)
(0.95608 0.0517276 2.47867e-10)
(0.938533 0.0191272 6.35481e-10)
(0.94005 -0.0223999 9.43862e-10)
(0.964428 -0.067438 1.09878e-09)
(1.00868 -0.104806 1.12763e-09)
(1.06363 -0.123032 1.10429e-09)
(1.11758 -0.115973 1.09039e-09)
(1.15966 -0.0850542 1.12966e-09)
(1.18209 -0.0380991 1.23997e-09)
(1.18178 0.0138686 1.35391e-09)
(1.16082 0.0598941 1.31189e-09)
(1.125 0.0916771 1.01471e-09)
(1.0815 0.105391 5.60141e-10)
(1.03705 0.102038 1.74786e-10)
(0.997215 0.0851775 3.18912e-11)
(0.967348 0.0572649 1.42694e-10)
(0.953584 0.0187973 3.86593e-10)
(0.961377 -0.0280345 6.20072e-10)
(0.991776 -0.0756989 7.6456e-10)
(1.03954 -0.1129 8.19472e-10)
(1.09502 -0.129877 8.21939e-10)
(1.14758 -0.122626 8.05599e-10)