/*--------------------------------*- C++ -*----------------------------------*\
  =========                 |
  \\      /  F ield         | OpenFOAM: The Open Source CFD Toolbox
   \\    /   O peration     | Website:  https://openfoam.org
    \\  /    A nd           | Version:  11
     \\/     M anipulation  |
\*---------------------------------------------------------------------------*/
FoamFile
{
    format      ascii;
    class       surfaceScalarField;
    location    "10.064042";
    object      phi;
}
// * * * * * * * * * * * * * * * * * * * * * * * * * * * * * * * * * * * * * //

dimensions      [0 3 -1 0 0 0 0];

internalField   nonuniform List<scalar> 
14638
(
0.0025027
-2.701e-06
0.0025109
-8.19433e-06
0.00252488
-1.39864e-05
0.00254497
-2.00915e-05
0.0025714
-2.64261e-05
0.00260407
-3.26699e-05
0.00264238
-3.83111e-05
0.00268483
-4.24538e-05
0.002729
-4.41615e-05
0.00277149
-4.2491e-05
0.00280847
-3.69849e-05
0.00283703
-2.85619e-05
0.00285536
-1.83297e-05
0.002863
-7.63785e-06
0.00286119
1.81072e-06
0.00285291
8.28507e-06
0.00284233
1.05787e-05
0.00283376
8.56548e-06
0.00283029
3.46746e-06
0.00283265
-2.3551e-06
0.00283859
-5.93973e-06
0.00284316
-4.57413e-06
0.00284022
2.93958e-06
0.00282484
1.53798e-05
0.00279528
2.95636e-05
0.0027534
4.18747e-05
0.00270384
4.95665e-05
0.00265267
5.11698e-05
0.00260641
4.62566e-05
0.00257136
3.50491e-05
0.00255315
1.82148e-05
0.00255616
-3.0169e-06
0.00258256
-2.63949e-05
0.00263058
-4.80174e-05
0.00269296
-6.23837e-05
0.00275701
-6.40481e-05
0.00280758
-5.05737e-05
0.00283232
-2.47388e-05
0.00282596
6.36508e-06
0.00279107
3.48832e-05
0.00273553
5.55389e-05
0.002669
6.65308e-05
0.00260065
6.83512e-05
0.00253847
6.21812e-05
0.00248962
4.88479e-05
0.00246104
2.85795e-05
0.00245956
1.48721e-06
0.00249084
-3.12874e-05
0.00255676
-6.59134e-05
0.00265176
-9.50043e-05
0.00276087
-0.000109111
0.00286175
-0.000100876
0.00293147
-6.97181e-05
0.00295506
-2.35913e-05
0.00293078
2.42782e-05
0.0028691
6.16795e-05
0.00278666
8.24444e-05
0.00269981
8.68469e-05
0.00262128
7.8527e-05
0.00256014
6.11424e-05
0.00252349
3.66468e-05
0.00251806
5.43203e-06
0.00255019
-3.21261e-05
0.00262374
-7.35577e-05
0.00273681
-0.000113065
0.00287909
-0.000142283
0.00303212
-0.000153027
0.00317257
-0.000140452
0.00327737
-0.0001048
0.00332867
-5.12934e-05
0.00331783
1.08391e-05
0.00324837
6.94536e-05
0.00313637
0.000112006
0.00300634
0.000130028
0.00288336
0.000122975
0.00278563
9.77358e-05
0.00272163
6.39991e-05
0.00269201
2.96244e-05
0.00269292
-9.15678e-07
0.00271833
-2.54111e-05
0.0027606
-4.22635e-05
0.00281039
-4.9798e-05
0.00285721
-4.68117e-05
0.00289095
-3.37411e-05
0.00290435
-1.34078e-05
0.0028949
9.45796e-06
0.00286508
2.98179e-05
0.00282099
4.40869e-05
0.00276999
5.09982e-05
0.00271869
5.13029e-05
0.00267186
4.68345e-05
0.00263226
3.95977e-05
0.00260103
3.12307e-05
0.00257818
2.28505e-05
0.00256305
1.5127e-05
0.00255462
8.42691e-06
0.00255168
2.94006e-06
0.00255292
-1.23855e-06
0.00255699
-4.07057e-06
0.00256256
-5.57147e-06
0.00256839
-5.8276e-06
0.0025734
-5.014e-06
0.0025768
-3.39504e-06
0.0025781
-1.29938e-06
0.00257717
9.26209e-07
0.0025742
2.96987e-06
0.00256961
4.59819e-06
0.00256393
5.678e-06
0.00255775
6.17534e-06
0.00255161
6.13753e-06
0.00254595
5.66691e-06
0.00254105
4.89373e-06
0.0025371
3.95302e-06
0.00253413
2.96749e-06
0.0025321
2.03695e-06
0.00253086
1.23343e-06
0.00253026
6.00901e-07
0.0025301
1.58059e-07
0.0025302
-9.71463e-08
0.00253038
-1.82489e-07
0.00253051
-1.26563e-07
0.00253047
3.56915e-08
0.00253021
2.66953e-07
0.00252968
5.31007e-07
0.00252888
7.9565e-07
0.00252785
1.03483e-06
0.00252662
1.22995e-06
0.00252525
1.37027e-06
0.00252379
1.45245e-06
0.00252231
1.47953e-06
0.00252085
1.45929e-06
0.00251945
1.40259e-06
0.00251813
1.32165e-06
0.0025169
1.22852e-06
0.00251577
1.13395e-06
0.00251472
1.04662e-06
0.00251375
9.72691e-07
0.00251283
9.15796e-07
0.00251196
8.77209e-07
0.0025111
8.56235e-07
0.00251025
8.50705e-07
0.00250939
8.57479e-07
0.00250852
8.72951e-07
0.00250762
8.93456e-07
0.00250671
9.15646e-07
0.00250577
9.36666e-07
0.00250482
9.54417e-07
0.00250385
9.67387e-07
0.00250288
9.75032e-07
0.0025019
9.76968e-07
0.00250092
9.74073e-07
0.00249996
9.66277e-07
0.002499
9.55703e-07
0.00249806
9.4143e-07
0.00249713
9.26601e-07
0.00249622
9.09284e-07
0.00249533
8.9063e-07
0.00249446
8.74984e-07
0.00249361
8.45753e-07
8.32402e-07
0.00250268
-5.38202e-06
0.00251082
-1.63358e-05
0.00252474
-2.79057e-05
0.00254479
-4.01411e-05
0.00257125
-5.2888e-05
0.0026041
-6.55178e-05
0.0026428
-7.70099e-05
0.00268588
-8.55301e-05
0.00273087
-8.91558e-05
0.00277425
-8.58753e-05
0.00281197
-7.47028e-05
0.002841
-5.75874e-05
0.00285944
-3.67734e-05
0.00286678
-1.49768e-05
0.00286426
4.32741e-06
0.002855
1.7554e-05
0.00284341
2.21681e-05
0.00283411
1.78615e-05
0.00283046
7.11792e-06
0.00283332
-5.21415e-06
0.00284037
-1.29938e-05
0.00284633
-1.053e-05
0.00284453
4.73786e-06
0.00282963
3.02809e-05
0.00279974
5.94481e-05
0.00275688
8.47353e-05
0.00270592
0.000100533
0.00265317
0.000103921
0.00260531
9.4109e-05
0.00256879
7.15728e-05
0.0025494
3.76019e-05
0.00255185
-5.46286e-06
0.00257867
-5.32201e-05
0.00262843
-9.77737e-05
0.00269376
-0.000127713
0.00276126
-0.000131548
0.00281471
-0.000104028
0.00284088
-5.09064e-05
0.00283428
1.29698e-05
0.00279791
7.12488e-05
0.00274031
0.00011314
0.00267164
0.000135205
0.00260125
0.000138737
0.00253712
0.000126315
0.00248632
9.96393e-05
0.00245589
5.90145e-05
0.00245304
4.33435e-06
0.00248422
-6.24657e-05
0.00255204
-0.000133736
0.00265116
-0.000194125
0.00276577
-0.000223714
0.0028718
-0.000206913
0.00294461
-0.00014253
0.00296842
-4.73946e-05
0.00294185
5.08498e-05
0.00287654
0.000126989
0.00279036
0.000168619
0.00270038
0.000176826
0.0026194
0.000159511
0.00255621
0.000124334
0.0025176
7.52572e-05
0.0025101
1.29313e-05
0.00254016
-6.21873e-05
0.00261216
-0.000145558
0.00272485
-0.000225759
0.00286818
-0.000285608
0.0030231
-0.000307952
0.00316551
-0.000282856
0.0032721
-0.000211397
0.00332534
-0.000104533
0.00331658
1.96051e-05
0.00324863
0.000137405
0.00313678
0.000223853
0.00300549
0.00026132
0.00288055
0.000247917
0.00278108
0.000197204
0.00271616
0.00012892
0.00268655
5.92326e-05
0.00268834
-2.71009e-06
0.00271541
-5.24765e-05
0.00275997
-8.6827e-05
0.00281242
-0.000102246
0.00286174
-9.61278e-05
0.00289728
-6.92903e-05
0.00291143
-2.75513e-05
0.00290159
1.92994e-05
0.00287055
6.08575e-05
0.00282486
8.97723e-05
0.00277232
0.00010354
0.00271979
0.000103829
0.00267214
9.44909e-05
0.00263208
7.96556e-05
0.00260066
6.2647e-05
0.00257782
4.5697e-05
0.00256282
3.01238e-05
0.00255461
1.66394e-05
0.00255194
5.60871e-06
0.00255348
-2.78515e-06
0.00255788
-8.46548e-06
0.00256377
-1.14597e-05
0.00256988
-1.19376e-05
0.00257511
-1.02507e-05
0.00257865
-6.93456e-06
0.00258001
-2.6578e-06
0.00257907
1.87343e-06
0.00257601
6.02472e-06
0.00257129
9.32286e-06
0.00256546
1.15002e-05
0.00255915
1.24917e-05
0.00255289
1.23972e-05
0.00254713
1.14276e-05
0.00254217
9.84906e-06
0.00253819
7.93621e-06
0.00253522
5.93776e-06
0.0025332
4.05523e-06
0.002532
2.43341e-06
0.00253144
1.16007e-06
0.00253133
2.7186e-07
0.00253147
-2.36388e-07
0.00253168
-4.01401e-07
0.00253184
-2.8154e-07
0.00253182
5.22031e-08
0.00253157
5.24177e-07
0.00253104
1.06109e-06
0.00253023
1.59787e-06
0.00252919
2.08194e-06
0.00252794
2.47591e-06
0.00252655
2.75829e-06
0.00252508
2.92266e-06
0.00252359
2.97539e-06
0.00252211
2.93251e-06
0.0025207
2.81618e-06
0.00251937
2.65122e-06
0.00251814
2.4621e-06
0.002517
2.27057e-06
0.00251595
2.09412e-06
0.00251498
1.94516e-06
0.00251406
1.83091e-06
0.00251319
1.75385e-06
0.00251233
1.71247e-06
0.00251148
1.7023e-06
0.00251062
1.71693e-06
0.00250974
1.74903e-06
0.00250885
1.79116e-06
0.00250793
1.83656e-06
0.00250698
1.87947e-06
0.00250602
1.91566e-06
0.00250505
1.94212e-06
0.00250406
1.95777e-06
0.00250308
1.9619e-06
0.0025021
1.95628e-06
0.00250112
1.94084e-06
0.00250016
1.91986e-06
0.00249921
1.89152e-06
0.00249827
1.86221e-06
0.00249735
1.82793e-06
0.00249645
1.79134e-06
0.00249557
1.76044e-06
0.00249471
1.7031e-06
1.67632e-06
0.00250264
-8.02244e-06
0.00251067
-2.43641e-05
0.00252445
-4.16828e-05
0.0025444
-6.00926e-05
0.00257091
-7.94035e-05
0.0026041
-9.87033e-05
0.00264356
-0.000116473
0.00268789
-0.000129855
0.00273457
-0.000135843
0.00277978
-0.000131084
0.00281899
-0.000113916
0.00284897
-8.75626e-05
0.00286766
-5.54632e-05
0.00287441
-2.17277e-05
0.00287049
8.25243e-06
0.00285926
2.87833e-05
0.00284567
3.57541e-05
0.00283497
2.85638e-05
0.00283104
1.10472e-05
0.00283501
-9.18528e-06
0.00284438
-2.23685e-05
0.00285314
-1.92817e-05
0.00285354
4.33554e-06
0.00283938
4.44368e-05
0.00280856
9.0269e-05
0.00276344
0.000129858
0.00270947
0.000154504
0.00265348
0.000159906
0.00260252
0.000145072
0.00256327
0.000110823
0.00254187
5.90001e-05
0.00254357
-7.15884e-06
0.00257165
-8.13065e-05
0.00262526
-0.000151384
0.0026968
-0.000199247
0.00277136
-0.000206112
0.00283045
-0.000163113
0.00285897
-7.94307e-05
0.00285111
2.08328e-05
0.00281096
0.000111402
0.00274859
0.000175505
0.00267528
0.000208513
0.00260079
0.000213229
0.00253298
0.000194123
0.00247877
0.000153852
0.00244529
9.24926e-05
0.00244043
9.19737e-06
0.00247163
-9.3665e-05
0.00254248
-0.000204588
0.0026483
-0.000299944
0.00277295
-0.000348365
0.00288994
-0.000323898
0.0029704
-0.000222989
0.00299543
-7.24269e-05
0.00296388
8.23936e-05
0.00289029
0.000200585
0.00279574
0.000263164
0.00269912
0.000273448
0.00261341
0.000245225
0.00254664
0.0001911
0.00250461
0.000117291
0.00249328
2.42589e-05
0.00251987
-8.87781e-05
0.00259092
-0.000216608
0.00270699
-0.000341825
0.00285726
-0.000435886
0.0030194
-0.000470089
0.00316576
-0.000429218
0.00327203
-0.000317666
0.00332271
-0.00015521
0.00331191
3.04021e-05
0.00324325
0.000206063
0.00313085
0.000336258
0.00299799
0.000394183
0.00287064
0.00037526
0.00276907
0.000298779
0.00270334
0.000194653
0.00267459
8.79826e-05
0.00267886
-6.98498e-06
0.00270984
-8.34584e-05
0.00275944
-0.000136425
0.00281742
-0.000160228
0.00287178
-0.000150489
0.00291077
-0.00010828
0.002926
-4.27756e-05
0.00291484
3.04578e-05
0.00288076
9.49341e-05
0.00283138
0.000139157
0.00277544
0.000159481
0.00272037
0.0001589
0.00267115
0.000143705
0.00263038
0.000120427
0.00259886
9.41684e-05
0.0025763
6.8256e-05
0.00256183
4.4597e-05
0.00255427
2.41926e-05
0.00255234
7.54533e-06
0.00255464
-5.09136e-06
0.00255978
-1.36056e-05
0.00256636
-1.80323e-05
0.00257304
-1.86214e-05
0.0025787
-1.59057e-05
0.00258247
-1.07081e-05
0.00258387
-4.06182e-06
0.00258281
2.9411e-06
0.00257951
9.32271e-06
0.00257447
1.43596e-05
0.00256832
1.76506e-05
0.0025617
1.91089e-05
0.0025552
1.89007e-05
0.00254927
1.73595e-05
0.00254422
1.49001e-05
0.00254021
1.19461e-05
0.00253727
8.87835e-06
0.00253532
6.003e-06
0.00253421
3.53804e-06
0.00253376
1.61365e-06
0.00253375
2.81992e-07
0.00253398
-4.68135e-07
0.00253428
-6.95334e-07
0.00253448
-4.90471e-07
0.0025345
3.69736e-08
0.00253425
7.70933e-07
0.00253371
1.59937e-06
0.00253289
2.42311e-06
0.00253181
3.16245e-06
0.00253052
3.76099e-06
0.0025291
4.18687e-06
0.00252759
4.43123e-06
0.00252606
4.50473e-06
0.00252456
4.43268e-06
0.00252312
4.24952e-06
0.00252178
3.99357e-06
0.00252054
3.70237e-06
0.0025194
3.40911e-06
0.00251836
3.14032e-06
0.00251739
2.91465e-06
0.00251648
2.7428e-06
0.0025156
2.62818e-06
0.00251475
2.5682e-06
0.00251389
2.55574e-06
0.00251303
2.58083e-06
0.00251214
2.63214e-06
0.00251124
2.69829e-06
0.00251031
2.76895e-06
0.00250935
2.83538e-06
0.00250837
2.89123e-06
0.00250738
2.932e-06
0.00250639
2.95617e-06
0.00250538
2.96275e-06
0.00250439
2.95457e-06
0.0025034
2.93155e-06
0.00250242
2.90045e-06
0.00250145
2.85818e-06
0.0025005
2.81537e-06
0.00249956
2.76408e-06
0.00249864
2.71214e-06
0.00249773
2.66464e-06
0.00249685
2.58488e-06
2.54066e-06
0.00250258
-1.05976e-05
0.00251042
-3.22094e-05
0.00252396
-5.5223e-05
0.00254373
-7.98636e-05
0.00257029
-0.000105959
0.00260394
-0.000132358
0.00264453
-0.000157064
0.00269075
-0.000176077
0.00274007
-0.000185156
0.00278812
-0.000179137
0.00282965
-0.000155449
0.00286111
-0.000119023
0.00288022
-7.45705e-05
0.0028861
-2.76085e-05
0.00288
1.43521e-05
0.00286569
4.30952e-05
0.00284893
5.25192e-05
0.00283594
4.15466e-05
0.0028315
1.54933e-05
0.00283717
-1.48597e-05
0.00285022
-3.54132e-05
0.00286343
-3.25e-05
0.00286736
4.10482e-07
0.00285439
5.74092e-05
0.00282207
0.000122589
0.00277337
0.000178553
0.00271472
0.000213156
0.00265376
0.000220863
0.00259806
0.000200774
0.00255466
0.000154219
0.00253017
8.34983e-05
0.00253062
-7.61576e-06
0.00256054
-0.000111226
0.00262009
-0.000210931
0.00270137
-0.000280531
0.00278712
-0.000291864
0.0028551
-0.000231091
0.00288721
-0.000111539
0.00287709
3.09522e-05
0.00283068
0.000157811
0.00276065
0.000245531
0.0026801
0.000289064
0.00259939
0.000293945
0.00252617
0.000267343
0.00246703
0.000212986
0.00242914
0.000130388
0.00242051
1.78263e-05
0.00244857
-0.000121729
0.00251765
-0.000273666
0.00262585
-0.000408144
0.00276045
-0.000482966
0.00289464
-0.00045808
0.00299301
-0.000321362
0.00302789
-0.000107311
0.00299438
0.00011591
0.00291035
0.000284609
0.00280319
0.000370329
0.00269616
0.000380478
0.00260327
0.000338115
0.00253119
0.000263175
0.00248381
0.000164672
0.00246694
4.11327e-05
0.00249086
-0.000112703
0.00256638
-0.000292131
0.00269488
-0.000470319
0.00286121
-0.000602217
0.0030365
-0.000645383
0.00318811
-0.00058083
0.00329026
-0.000419814
0.00333033
-0.00019528
0.00330813
5.26015e-05
0.00323165
0.000282548
0.0031154
0.000452508
0.0029806
0.000528975
0.00285167
0.000504198
0.00274886
0.00040159
0.00268305
0.000260457
0.002656
0.00011503
0.00266385
-1.48317e-05
0.0027
-0.000119611
0.00275601
-0.000192429
0.00282123
-0.000225453
0.00288287
-0.000212123
0.00292767
-0.000153087
0.00294566
-6.07599e-05
0.00293351
4.26008e-05
0.0028954
0.000133052
0.00284054
0.000194007
0.00277939
0.00022064
0.00272039
0.000217896
0.00266883
0.000195268
0.00262707
0.000162184
0.00259553
0.000125707
0.00257356
9.02292e-05
0.00256001
5.81422e-05
0.00255357
3.06374e-05
0.00255282
8.28954e-06
0.00255634
-8.60901e-06
0.00256265
-1.99165e-05
0.00257029
-2.56674e-05
0.00257785
-2.6185e-05
0.00258414
-2.21902e-05
0.00258825
-1.48183e-05
0.00258969
-5.50603e-06
0.0025884
4.22657e-06
0.0025847
1.30253e-05
0.00257916
1.99012e-05
0.00257249
2.43221e-05
0.0025654
2.61956e-05
0.00255853
2.57769e-05
0.00255234
2.35456e-05
0.00254716
2.00847e-05
0.00254312
1.59815e-05
0.00254024
1.17579e-05
0.00253841
7.8287e-06
0.00253747
4.48517e-06
0.00253718
1.89721e-06
0.00253734
1.28255e-07
0.00253771
-8.43698e-07
0.00253812
-1.10383e-06
0.00253841
-7.79801e-07
0.00253847
-2.33509e-08
0.00253824
1.00587e-06
0.00253768
2.15455e-06
0.00253682
3.28771e-06
0.00253568
4.29753e-06
0.00253433
5.10857e-06
0.00253284
5.67915e-06
0.00253127
5.99918e-06
0.00252969
6.08514e-06
0.00252815
5.97324e-06
0.00252669
5.71178e-06
0.00252533
5.35392e-06
0.00252408
4.95126e-06
0.00252294
4.54909e-06
0.0025219
4.18325e-06
0.00252093
3.87862e-06
0.00252003
3.64911e-06
0.00251916
3.49866e-06
0.0025183
3.42306e-06
0.00251745
3.41209e-06
0.00251658
3.45173e-06
0.00251568
3.52627e-06
0.00251476
3.62008e-06
0.00251381
3.71906e-06
0.00251283
3.81141e-06
0.00251184
3.88864e-06
0.00251082
3.94484e-06
0.0025098
3.97815e-06
0.00250878
3.98743e-06
0.00250775
3.97682e-06
0.00250674
3.94622e-06
0.00250573
3.90534e-06
0.00250474
3.84923e-06
0.00250376
3.79431e-06
0.0025028
3.7259e-06
0.00250185
3.66249e-06
0.00250092
3.59615e-06
0.0025
3.50275e-06
3.43445e-06
0.00250248
-1.30776e-05
0.00251006
-3.97859e-05
0.00252324
-6.84032e-05
0.0025427
-9.93298e-05
0.00256923
-0.000132487
0.00260343
-0.000166561
0.00264549
-0.000199123
0.00269429
-0.000224871
0.00274727
-0.000238138
0.00279933
-0.000231192
0.00284409
-0.000200212
0.00287761
-0.000152546
0.0028973
-9.42634e-05
0.00290196
-3.22667e-05
0.00289278
2.3531e-05
0.00287408
6.17945e-05
0.00285277
7.38314e-05
0.00283651
5.78102e-05
0.0028313
2.0698e-05
0.00283943
-2.29815e-05
0.0028578
-5.37876e-05
0.00287754
-5.2238e-05
0.00288659
-8.64352e-06
0.0028753
6.87011e-05
0.00284077
0.000157115
0.00278697
0.000232354
0.00272176
0.000278369
0.00265394
0.00028868
0.00259175
0.000262964
0.00254263
0.000203338
0.0025137
0.000112435
0.00251211
-6.02739e-06
0.00254431
-0.000143428
0.00261236
-0.000278974
0.00270798
-0.000376157
0.00280999
-0.000393869
0.00289041
-0.000311514
0.00292705
-0.000148178
0.00291315
4.48498e-05
0.0028575
0.000213459
0.00277658
0.000326453
0.00268604
0.000379604
0.00259698
0.000383005
0.0025167
0.000347627
0.00245123
0.000278451
0.00240697
0.000174648
0.00239026
3.45383e-05
0.00240735
-0.000138815
0.00246538
-0.000331694
0.00256901
-0.000511782
0.00271094
-0.000624896
0.00286505
-0.000612191
0.00299051
-0.000446819
0.00304842
-0.000165216
0.00302373
0.000140592
0.0029335
0.000374842
0.00281244
0.000491389
0.00269185
0.000501072
0.00258907
0.000440893
0.00250951
0.000342736
0.002455
0.000219179
0.00243304
6.30942e-05
0.00245943
-0.000139091
0.00254819
-0.000380897
0.00269679
-0.000618916
0.00288207
-0.000787496
0.0030692
-0.000832507
0.0032235
-0.000735129
0.00331924
-0.000515555
0.00334526
-0.000221307
0.00330565
9.22164e-05
0.00321439
0.000373811
0.00308949
0.000577406
0.00295138
0.000667078
0.00282186
0.000633721
0.00271955
0.000503906
0.00265514
0.000324867
0.0026306
0.000139571
0.00264171
-2.59482e-05
0.00268119
-0.000159088
0.00274069
-0.000251934
0.002811
-0.000295756
0.00288048
-0.000281604
0.00293484
-0.000207447
0.00296078
-8.67044e-05
0.00295194
5.1447e-05
0.00291182
0.000173167
0.00285148
0.000254352
0.00278399
0.00028813
0.00271983
0.000282049
0.0026651
0.000249998
0.00262205
0.000205234
0.00259058
0.000157179
0.00256951
0.000111303
0.00255731
7.03376e-05
0.00255244
3.55138e-05
0.00255335
7.37621e-06
0.00255853
-1.37924e-05
0.00256645
-2.78278e-05
0.00257553
-3.47501e-05
0.00258429
-3.49435e-05
0.00259142
-2.93235e-05
0.00259597
-1.9372e-05
0.00259745
-6.98415e-06
0.00259585
5.83296e-06
0.00259157
1.7303e-05
0.00258532
2.61503e-05
0.00257792
3.17165e-05
0.00257019
3.39272e-05
0.00256281
3.31593e-05
0.00255628
3.00709e-05
0.00255093
2.54408e-05
0.00254687
2.004e-05
0.00254408
1.45432e-05
0.00254243
9.47901e-06
0.00254171
5.21138e-06
0.00254166
1.9457e-06
0.00254204
-2.49528e-07
0.00254261
-1.41387e-06
0.00254317
-1.66559e-06
0.00254356
-1.17501e-06
0.00254368
-1.41157e-07
0.00254346
1.2285e-06
0.00254288
2.73612e-06
0.00254196
4.20861e-06
0.00254075
5.5089e-06
0.00253931
6.54243e-06
0.00253773
7.25863e-06
0.00253608
7.64784e-06
0.00253443
7.73447e-06
0.00253284
7.56787e-06
0.00253134
7.21239e-06
0.00252996
6.73778e-06
0.0025287
6.21108e-06
0.00252755
5.69048e-06
0.00252652
5.22148e-06
0.00252556
4.83511e-06
0.00252466
4.54809e-06
0.0025238
4.36433e-06
0.00252294
4.27731e-06
0.00252208
4.27299e-06
0.0025212
4.33269e-06
0.00252029
4.43581e-06
0.00251935
4.56205e-06
0.00251837
4.69334e-06
0.00251737
4.81468e-06
0.00251634
4.91545e-06
0.0025153
4.98841e-06
0.00251425
5.03154e-06
0.00251319
5.04375e-06
0.00251214
5.03075e-06
0.00251109
4.99246e-06
0.00251005
4.94214e-06
0.00250903
4.87226e-06
0.00250802
4.80696e-06
0.00250702
4.72118e-06
0.00250603
4.65145e-06
0.00250507
4.56303e-06
0.0025041
4.46827e-06
4.36572e-06
0.00250235
-1.54256e-05
0.00250955
-4.69869e-05
0.00252221
-8.10619e-05
0.00254119
-0.00011831
0.00256755
-0.000158848
0.00260231
-0.000201321
0.00264613
-0.000242945
0.0026982
-0.000276946
0.00275606
-0.000295996
0.00281348
-0.000288612
0.00286252
-0.000249251
0.00289881
-0.000188831
0.00291939
-0.000114845
0.00292255
-3.54265e-05
0.00290928
3.67957e-05
0.00288459
8.64894e-05
0.00285695
0.00010147
0.00283601
7.87558e-05
0.00282953
2.71777e-05
0.00284084
-3.42924e-05
0.00286654
-7.9491e-05
0.0028954
-8.10991e-05
0.00291167
-2.49122e-05
0.00290275
7.76182e-05
0.00286522
0.000194645
0.00280455
0.000293028
0.00273067
0.00035225
0.00265394
0.000365411
0.00258337
0.000333529
0.00252676
0.000259947
0.00249171
0.000147488
0.00248689
-1.20831e-06
0.00252192
-0.000178455
0.00260206
-0.000359117
0.0027185
-0.000492591
0.00284364
-0.000519015
0.00294061
-0.00040848
0.00298176
-0.000189329
0.00296102
6.55888e-05
0.0028919
0.000282576
0.00279619
0.000422169
0.00269273
0.000483062
0.00259331
0.000482422
0.00250459
0.000436346
0.00243138
0.000351659
0.00237742
0.000228608
0.00234592
6.60404e-05
0.00234516
-0.000138057
0.00239134
-0.000377866
0.00249598
-0.000616426
0.00264954
-0.000778455
0.00282081
-0.000783467
0.00296776
-0.000593764
0.00304903
-0.000246487
0.0030407
0.000148928
0.00295226
0.000463278
0.00282076
0.000622887
0.00268592
0.000635912
0.00257095
0.000555864
0.00248162
0.000432069
0.00241938
0.000281414
0.00239567
8.68011e-05
0.00243137
-0.000174782
0.00253877
-0.000488299
0.00270663
-0.000786779
0.00290398
-0.000984849
0.00309416
-0.00102269
0.00324499
-0.000885951
0.00333314
-0.00060371
0.00334769
-0.000235853
0.00329308
0.000146824
0.00318685
0.000480042
0.00305162
0.000712632
0.00290945
0.000809252
0.00278037
0.000762798
0.00268059
0.000603684
0.00261933
0.000386133
0.00259728
0.000161614
0.00260846
-3.71208e-05
0.00264459
-0.000195217
0.00269934
-0.000306691
0.00276816
-0.000364572
0.00284358
-0.000357024
0.00291151
-0.000275376
0.00295397
-0.000129168
0.00295805
4.73664e-05
0.00292333
0.000207884
0.00286133
0.000316356
0.00278844
0.000361015
0.00271864
0.00035185
0.00266003
0.000308615
0.0026153
0.000249963
0.00258391
0.000188561
0.00256404
0.000131173
0.00255364
8.07427e-05
0.00255081
3.83401e-05
0.00255386
4.32731e-06
0.00256117
-2.10995e-05
0.00257111
-3.77679e-05
0.00258202
-4.56637e-05
0.00259229
-4.52103e-05
0.00260049
-3.75229e-05
0.00260559
-2.44726e-05
0.00260709
-8.48409e-06
0.00260505
7.87098e-06
0.00260002
2.23344e-05
0.00259285
3.33167e-05
0.00258453
4.00406e-05
0.00257598
4.24812e-05
0.00256796
4.11801e-05
0.00256101
3.70169e-05
0.00255545
3.10017e-05
0.00255137
2.41142e-05
0.00254872
1.71971e-05
0.0025473
1.08982e-05
0.00254686
5.65276e-06
0.00254711
1.69549e-06
0.00254777
-9.08547e-07
0.00254858
-2.22545e-06
0.00254933
-2.41494e-06
0.00254985
-1.69734e-06
0.00255004
-3.25207e-07
0.00254982
1.44115e-06
0.0025492
3.35542e-06
0.00254821
5.20378e-06
0.0025469
6.81862e-06
0.00254536
8.08623e-06
0.00254367
8.94841e-06
0.00254192
9.39803e-06
0.00254018
9.47011e-06
0.00253852
9.23004e-06
0.00253697
8.76082e-06
0.00253556
8.15106e-06
0.00253428
7.48486e-06
0.00253314
6.83429e-06
0.00253211
6.25486e-06
0.00253116
5.78362e-06
0.00253027
5.43956e-06
0.0025294
5.22578e-06
0.00252855
5.1326e-06
0.00252768
5.14129e-06
0.00252678
5.22776e-06
0.00252585
5.36587e-06
0.00252489
5.53025e-06
0.00252388
5.69852e-06
0.00252284
5.85238e-06
0.00252178
5.97911e-06
0.0025207
6.07025e-06
0.00251961
6.12388e-06
0.00251851
6.13913e-06
0.00251742
6.12364e-06
0.00251633
6.07744e-06
0.00251526
6.01796e-06
0.00251419
5.93431e-06
0.00251314
5.86063e-06
0.00251211
5.75705e-06
0.00251107
5.68735e-06
0.00251006
5.57225e-06
0.00250904
5.49258e-06
5.34072e-06
0.00250217
-1.75967e-05
0.00250886
-5.36802e-05
0.00252079
-9.29899e-05
0.00253903
-0.000136548
0.00256498
-0.000184799
0.0026002
-0.000236534
0.002646
-0.000288746
0.0027021
-0.000333044
0.00276627
-0.000360168
0.00283068
-0.000353029
0.00288518
-0.000303744
0.00292497
-0.00022862
0.0029467
-0.000136579
0.00294796
-3.66831e-05
0.00292939
5.53577e-05
0.00289683
0.000119054
0.00286079
0.000137508
0.00283353
0.000106013
0.00282523
3.54808e-05
0.00284073
-4.97905e-05
0.00287635
-0.00011511
0.00291769
-0.000122447
0.00294382
-5.10336e-05
0.00293803
8.34087e-05
0.00289632
0.00023635
0.00282649
0.000362859
0.00274142
0.000437319
0.00265349
0.000453345
0.00257253
0.000414482
0.00250647
0.000326009
0.00246329
0.000190668
0.00245378
8.30391e-06
0.00249122
-0.000215891
0.00258372
-0.00045162
0.00272337
-0.000632243
0.00287896
-0.000674606
0.00300195
-0.000531466
0.00305241
-0.000239795
0.00302281
9.5189e-05
0.0029348
0.00037059
0.00281921
0.000537764
0.00269951
0.000602754
0.00258797
0.000593966
0.00248984
0.000534477
0.00240704
0.000434462
0.0023388
0.000296843
0.00228797
0.000116869
0.00227314
-0.000123221
0.00232256
-0.000427286
0.00244561
-0.000739481
0.0026188
-0.00095164
0.00280118
-0.000965852
0.00295317
-0.000745753
0.00304158
-0.000334899
0.00304332
0.000147189
0.00295986
0.000546741
0.0028232
0.000759541
0.00267653
0.000782591
0.0025487
0.000683685
0.00244824
0.000532534
0.00237928
0.000350376
0.00235824
0.000107836
0.0024074
-0.000223942
0.00253199
-0.00061288
0.00271103
-0.000965828
0.00290947
-0.00118328
0.003093
-0.00120622
0.00323426
-0.00102721
0.00331347
-0.000682926
0.00332005
-0.00024243
0.00325675
0.000210123
0.00314111
0.000595681
0.00299865
0.00085509
0.00285406
0.000953843
0.0027272
0.000889658
0.00263212
0.000698765
0.0025752
0.000443052
0.00255364
0.000183172
0.00255859
-4.20626e-05
0.0025827
-0.000219335
0.00262502
-0.000349005
0.0026874
-0.000426956
0.00276657
-0.000436189
0.00284906
-0.000357867
0.00291347
-0.000193579
0.00293984
2.09947e-05
0.00292071
0.000227012
0.00286481
0.000372261
0.00279062
0.000435207
0.00271638
0.000426091
0.00265371
0.000371283
0.00260691
0.000296759
0.00257551
0.000219963
0.00255706
0.000149621
0.00254887
8.89371e-05
0.00254858
3.86241e-05
0.00255425
-1.3426e-06
0.00256413
-3.09772e-05
0.0025765
-5.01364e-05
0.00258959
-5.87541e-05
0.00260164
-5.7265e-05
0.00261111
-4.6984e-05
0.00261685
-3.02165e-05
0.00261837
-9.99985e-06
0.0026158
1.04372e-05
0.00260985
2.82814e-05
0.00260157
4.15943e-05
0.00259213
4.94866e-05
0.00258259
5.2022e-05
0.00257381
4.99597e-05
0.00256637
4.44543e-05
0.00256058
3.67912e-05
0.00255651
2.81898e-05
0.00255402
1.96787e-05
0.00255289
1.20309e-05
0.00255279
5.74989e-06
0.0025534
1.09097e-06
0.00255439
-1.89552e-06
0.00255547
-3.31364e-06
0.00255643
-3.37491e-06
0.00255709
-2.35828e-06
0.00255735
-5.76809e-07
0.00255714
1.65089e-06
0.00255647
4.02597e-06
0.00255538
6.29121e-06
0.00255395
8.24713e-06
0.00255228
9.76109e-06
0.00255046
1.07687e-05
0.00254859
1.12678e-05
0.00254675
1.13073e-05
0.00254501
1.09718e-05
0.0025434
1.03661e-05
0.00254195
9.60015e-06
0.00254066
8.77697e-06
0.00253951
7.98358e-06
0.00253848
7.28584e-06
0.00253754
6.72652e-06
0.00253665
6.32625e-06
0.00253579
6.08635e-06
0.00253493
5.99299e-06
0.00253405
6.0218e-06
0.00253313
6.14238e-06
0.00253218
6.32244e-06
0.00253118
6.53099e-06
0.00253013
6.74113e-06
0.00252906
6.93113e-06
0.00252795
7.08619e-06
0.00252682
7.19685e-06
0.00252568
7.26147e-06
0.00252454
7.27971e-06
0.00252341
7.26148e-06
0.00252228
7.20698e-06
0.00252116
7.13854e-06
0.00252005
7.04103e-06
0.00251895
6.96108e-06
0.00251787
6.83906e-06
0.00251678
6.77675e-06
0.00251572
6.62875e-06
0.00251463
6.58535e-06
6.36267e-06
0.00250194
-1.95367e-05
0.00250796
-5.97043e-05
0.0025189
-0.000103921
0.00253604
-0.000153697
0.00256121
-0.000209965
0.00259662
-0.000271948
0.0026445
-0.000336626
0.0027054
-0.00039394
0.00277765
-0.000432417
0.00285108
-0.000426465
0.00291243
-0.000365089
0.00295671
-0.000272901
0.00298021
-0.000160083
0.00297937
-3.58421e-05
0.00295406
8.06727e-05
0.00291107
0.000162043
0.00286371
0.000184868
0.00282773
0.000141992
0.00281652
4.6694e-05
0.00283719
-7.04622e-05
0.002886
-0.00016392
0.00294433
-0.000180774
0.00298389
-9.05935e-05
0.00298229
8.50084e-05
0.00293496
0.000283678
0.0028532
0.000444618
0.00275403
0.000536492
0.00265239
0.000554979
0.00255889
0.000507981
0.0024812
0.0004037
0.00242787
0.000244
0.00241132
2.48511e-05
0.00244387
-0.000248436
0.00253231
-0.000540059
0.00267784
-0.000777773
0.00286292
-0.000859692
0.00303255
-0.000701091
0.00311834
-0.000325588
0.00309358
0.000119947
0.00298669
0.000477482
0.00284596
0.000678498
0.00270584
0.000742869
0.00258044
0.000719365
0.00247212
0.000642799
0.00237739
0.000529196
0.00229159
0.000382638
0.00222443
0.000184033
0.00220994
-0.000108739
0.00228027
-0.000497608
0.00243015
-0.000889363
0.0026206
-0.00114209
0.00280651
-0.00115176
0.00295278
-0.000892028
0.00303471
-0.000416831
0.00303547
0.000146429
0.00295407
0.000628149
0.00281559
0.000898018
0.00266092
0.000937262
0.00252167
0.000822938
0.0024105
0.000643699
0.00233698
0.000423898
0.0023218
0.000123015
0.00238411
-0.000286259
0.00251943
-0.000748197
0.00269951
-0.0011459
0.00288936
-0.00137314
0.0030594
-0.00137626
0.00318725
-0.00115506
0.00325635
-0.000752023
0.00325686
-0.000242943
0.00319001
0.00027697
0.00307162
0.00071408
0.00292766
0.000999046
0.00278465
0.00109686
0.00266297
0.00101133
0.00257475
0.000786984
0.00252201
0.000495799
0.00249701
0.000208166
0.00249007
-3.51183e-05
0.0024993
-0.000228563
0.00253086
-0.000380568
0.00258987
-0.000485967
0.00267267
-0.000518991
0.00276558
-0.000450772
0.00284761
-0.000275616
0.00289647
-2.78628e-05
0.00289842
0.000225066
0.00285624
0.000414443
0.00278697
0.000504474
0.00271167
0.000501394
0.00264601
0.000436941
0.00259712
0.000345646
0.00256552
0.000251563
0.00254855
0.00016659
0.00254288
9.46122e-05
0.00254557
3.59357e-05
0.00255428
-1.00587e-05
0.00256708
-4.37763e-05
0.00258214
-6.51973e-05
0.00259761
-7.42202e-05
0.00261161
-7.12694e-05
0.00262247
-5.78455e-05
0.00262897
-3.67138e-05
0.00263057
-1.15961e-05
0.00262748
1.3527e-05
0.00262056
3.51998e-05
0.00261107
5.10833e-05
0.00260038
6.01729e-05
0.00258975
6.26593e-05
0.00258013
5.95802e-05
0.00257215
5.24282e-05
0.00256612
4.28178e-05
0.00256207
3.22465e-05
0.0025598
2.19499e-05
0.002559
1.28328e-05
0.00255928
5.46186e-06
0.00256027
1.00686e-07
0.00256161
-3.22992e-06
0.00256298
-4.68636e-06
0.00256415
-4.54408e-06
0.00256494
-3.14999e-06
0.00256525
-8.84446e-07
0.00256503
1.87086e-06
0.00256429
4.76132e-06
0.0025631
7.48414e-06
0.00256154
9.80706e-06
0.00255972
1.15788e-05
0.00255776
1.27302e-05
0.00255576
1.3267e-05
0.00255382
1.32547e-05
0.00255199
1.28008e-05
0.00255032
1.20351e-05
0.00254883
1.10915e-05
0.00254751
1.00938e-05
0.00254635
9.14488e-06
0.00254531
8.32125e-06
0.00254437
7.67101e-06
0.00254348
7.2156e-06
0.00254261
6.95359e-06
0.00254174
6.86593e-06
0.00254084
6.92161e-06
0.0025399
7.08317e-06
0.00253891
7.31149e-06
0.00253787
7.56961e-06
0.00253679
7.82583e-06
0.00253566
8.05499e-06
0.00253451
8.24027e-06
0.00253333
8.37136e-06
0.00253215
8.44717e-06
0.00253096
8.46813e-06
0.00252977