/*--------------------------------*- C++ -*----------------------------------*\
  =========                 |
  \\      /  F ield         | OpenFOAM: The Open Source CFD Toolbox
   \\    /   O peration     | Website:  https://openfoam.org
    \\  /    A nd           | Version:  11
     \\/     M anipulation  |
\*---------------------------------------------------------------------------*/
FoamFile
{
    format      ascii;
    class       surfaceScalarField;
    location    "9.788651";
    object      phi;
}
// * * * * * * * * * * * * * * * * * * * * * * * * * * * * * * * * * * * * * //

dimensions      [0 3 -1 0 0 0 0];

internalField   nonuniform List<scalar> 
14638
(
0.00250266
-2.66191e-06
0.00251062
-7.95732e-06
0.00252408
-1.34641e-05
0.00254336
-1.92795e-05
0.00256878
-2.54148e-05
0.00260043
-3.16481e-05
0.00263798
-3.75529e-05
0.00268031
-4.23283e-05
0.00272542
-4.51138e-05
0.00277051
-4.50898e-05
0.00281237
-4.18635e-05
0.00284883
-3.64599e-05
0.00287866
-2.98308e-05
0.00290161
-2.29458e-05
0.0029181
-1.64856e-05
0.00292854
-1.04408e-05
0.00293268
-4.14813e-06
0.00292926
3.42007e-06
0.00291623
1.30318e-05
0.00289181
2.44268e-05
0.00285583
3.59785e-05
0.00281053
4.52941e-05
0.00276035
5.01809e-05
0.00271108
4.92711e-05
0.00266893
4.21545e-05
0.00263967
2.9259e-05
0.00262787
1.17941e-05
0.00263609
-8.21722e-06
0.00266383
-2.77364e-05
0.00270645
-4.26254e-05
0.00275483
-4.8373e-05
0.0027968
-4.19774e-05
0.00282089
-2.40873e-05
0.00282024
6.49904e-07
0.00279446
2.57834e-05
0.00274848
4.59744e-05
0.00269003
5.84556e-05
0.00262738
6.26521e-05
0.00256831
5.90656e-05
0.00251997
4.83413e-05
0.00248911
3.08567e-05
0.0024822
6.91339e-06
0.00250471
-2.25143e-05
0.00255916
-5.44499e-05
0.00264198
-8.28184e-05
0.00274109
-9.91053e-05
0.00283678
-9.56957e-05
0.0029073
-7.05226e-05
0.00293694
-2.96338e-05
0.00292175
1.51905e-05
0.00286945
5.22961e-05
0.0027943
7.51501e-05
0.0027112
8.30975e-05
0.00263242
7.87819e-05
0.00256723
6.51906e-05
0.00252321
4.40238e-05
0.00250762
1.55914e-05
0.00252775
-2.01371e-05
0.00258944
-6.16841e-05
0.00269383
-0.000104396
0.00283404
-0.000140202
0.00299344
-0.000159407
0.00314729
-0.000153845
0.00326748
-0.00012019
0.00332996
-6.24814e-05
0.00332264
7.3218e-06
0.00325055
7.20884e-05
0.00313453
0.00011602
0.00300281
0.000131714
0.00288058
0.000122233
0.00278365
9.69367e-05
0.00271828
6.53654e-05
0.00268451
3.37729e-05
0.00267932
5.18888e-06
0.00269813
-1.88084e-05
0.00273471
-3.65805e-05
0.00278081
-4.61031e-05
0.00282655
-4.57352e-05
0.00286199
-3.54449e-05
0.00287956
-1.7566e-05
0.00287595
3.60694e-06
0.00285265
2.32959e-05
0.00281475
3.79066e-05
0.00276883
4.59204e-05
0.00272111
4.77151e-05
0.00267634
4.47699e-05
0.0026375
3.88455e-05
0.00260603
3.14663e-05
0.00258229
2.37371e-05
0.00256592
1.63706e-05
0.00255613
9.79494e-06
0.00255187
4.25769e-06
0.00255197
-9.89466e-08
0.00255517
-3.19869e-06
0.00256019
-5.02316e-06
0.00256581
-5.62456e-06
0.00257096
-5.14215e-06
0.00257476
-3.80566e-06
0.00257668
-1.91562e-06
0.00257648
1.97361e-07
0.00257426
2.22273e-06
0.00257034
3.91456e-06
0.00256523
5.11783e-06
0.00255945
5.77299e-06
0.00255355
5.90288e-06
0.00254796
5.58976e-06
0.00254301
4.94963e-06
0.0025389
4.1093e-06
0.00253571
3.18865e-06
0.00253342
2.28895e-06
0.00253194
1.4868e-06
0.0025311
8.3265e-07
0.00253075
3.52464e-07
0.0025307
5.13036e-08
0.00253078
-8.22791e-08
0.00253085
-7.17503e-08
0.0025308
5.16801e-08
0.00253055
2.52997e-07
0.00253005
4.96955e-07
0.0025293
7.51168e-07
0.00252831
9.88509e-07
0.00252712
1.18869e-06
0.00252579
1.33896e-06
0.00252435
1.43393e-06
0.00252288
1.4747e-06
0.00252141
1.46748e-06
0.00251999
1.42195e-06
0.00251864
1.34957e-06
0.00251738
1.26206e-06
0.00251621
1.17023e-06
0.00251512
1.08304e-06
0.00251412
1.00719e-06
0.00251317
9.46873e-07
0.00251226
9.03992e-07
0.00251139
8.78416e-07
0.00251052
8.68443e-07
0.00250965
8.71289e-07
0.00250876
8.83569e-07
0.00250786
9.01731e-07
0.00250694
9.22413e-07
0.002506
9.42703e-07
0.00250504
9.60313e-07
0.00250406
9.73655e-07
0.00250308
9.81834e-07
0.0025021
9.84599e-07
0.00250111
9.82185e-07
0.00250014
9.75241e-07
0.00249917
9.64541e-07
0.00249822
9.51066e-07
0.00249729
9.35475e-07
0.00249637
9.18653e-07
0.00249547
9.00655e-07
0.00249459
8.82049e-07
0.00249372
8.62373e-07
0.00249288
8.40955e-07
0.00249206
8.19585e-07
0.00249127
7.89869e-07
0.0024905
7.69445e-07
0.00248978
7.19579e-07
6.87636e-07
0.00250264
-5.30458e-06
0.00251055
-1.58617e-05
0.00252394
-2.68574e-05
0.00254317
-3.85059e-05
0.00256859
-5.08426e-05
0.00260038
-6.34346e-05
0.00263826
-7.54312e-05
0.00268112
-8.51879e-05
0.00272694
-9.09346e-05
0.00277277
-9.09153e-05
0.00281519
-8.42839e-05
0.00285197
-7.32401e-05
0.00288189
-5.97505e-05
0.00290477
-4.5832e-05
0.0029212
-3.29102e-05
0.00293172
-2.09649e-05
0.00293617
-8.596e-06
0.00293319
6.39429e-06
0.00292053
2.56959e-05
0.00289611
4.88432e-05
0.00285962
7.24747e-05
0.0028133
9.16163e-05
0.00276174
0.000101741
0.00271094
0.000100062
0.00266734
8.57616e-05
0.0026369
5.96992e-05
0.00262442
2.42697e-05
0.00263273
-1.65227e-05
0.00266156
-5.6573e-05
0.00270633
-8.73904e-05
0.00275749
-9.95377e-05
0.00280213
-8.66171e-05
0.00282793
-4.98884e-05
0.00282764
9.43525e-07
0.002801
5.24246e-05
0.00275342
9.35508e-05
0.00269308
0.000118801
0.00262851
0.000127223
0.00256756
0.00012001
0.00251737
9.85349e-05
0.00248474
6.34887e-05
0.00247639
1.52612e-05
0.00249838
-4.4503e-05
0.00255394
-0.000110012
0.00263991
-0.000168792
0.00274374
-0.000202936
0.00284434
-0.000196297
0.00291832
-0.000144499
0.00294895
-6.02607e-05
0.00293235
3.17922e-05
0.00287715
0.000107492
0.00279873
0.000153574
0.00271268
0.000169142
0.00263143
0.000160037
0.00256407
0.000132547
0.00251802
9.00754e-05
0.00250051
3.3096e-05
0.00251891
-3.85357e-05
0.0025791
-0.000121873
0.00268247
-0.00020776
0.0028226
-0.000280336
0.00298351
-0.000320313
0.0031408
-0.000311136
0.00326611
-0.000245497
0.00333399
-0.000130362
0.00333023
1.10752e-05
0.00325845
0.000143868
0.00313976
0.00023471
0.00300406
0.000267416
0.0028783
0.000247994
0.0027792
0.00019604
0.002713
0.000131561
0.00267933
6.7441e-05
0.0026749
9.61921e-06
0.00269508
-3.89845e-05
0.00273364
-7.51399e-05
0.00278215
-9.46181e-05
0.0028303
-9.38871e-05
0.00286763
-7.27677e-05
0.00288612
-3.60546e-05
0.00288237
7.35258e-06
0.0028581
4.75703e-05
0.00281878
7.72184e-05
0.00277144
9.32672e-05
0.00272254
9.6613e-05
0.00267693
9.03789e-05
0.00263757
7.82016e-05
0.00260586
6.31813e-05
0.00258206
4.75328e-05
0.00256577
3.26673e-05
0.00255614
1.94234e-05
0.00255211
8.28362e-06
0.00255249
-4.74498e-07
0.00255599
-6.6991e-06
0.00256132
-1.03503e-05
0.00256722
-1.15293e-05
0.00257259
-1.05151e-05
0.00257656
-7.7724e-06
0.00257856
-3.9124e-06
0.00257836
3.91763e-07
0.00257608
4.50815e-06
0.00257205
7.93765e-06
0.0025668
1.03677e-05
0.0025609
1.16809e-05
0.00255487
1.19273e-05
0.00254918
1.1277e-05
0.00254417
9.96752e-06
0.00254002
8.25706e-06
0.00253682
6.38878e-06
0.00253454
4.56736e-06
0.00253308
2.94704e-06
0.00253228
1.62881e-06
0.00253197
6.64105e-07
0.00253196
6.22041e-08
0.00253208
-2.00816e-07
0.00253218
-1.72965e-07
0.00253215
8.22751e-08
0.00253191
4.93873e-07
0.00253142
9.90444e-07
0.00253066
1.50649e-06
0.00252966
1.98722e-06
0.00252846
2.39178e-06
0.0025271
2.69461e-06
0.00252565
2.88507e-06
0.00252416
2.96567e-06
0.00252268
2.94921e-06
0.00252125
2.85547e-06
0.00251989
2.70778e-06
0.00251862
2.52996e-06
0.00251745
2.34385e-06
0.00251636
2.16759e-06
0.00251535
2.01461e-06
0.00251441
1.89336e-06
0.0025135
1.80755e-06
0.00251263
1.75682e-06
0.00251176
1.73765e-06
0.00251088
1.74434e-06
0.00251
1.77001e-06
0.00250909
1.80744e-06
0.00250816
1.84983e-06
0.00250722
1.89131e-06
0.00250625
1.92726e-06
0.00250527
1.95451e-06
0.00250428
1.97128e-06
0.00250329
1.97709e-06
0.0025023
1.97247e-06
0.00250131
1.95874e-06
0.00250034
1.93751e-06
0.00249938
1.91077e-06
0.00249843
1.87987e-06
0.00249751
1.84661e-06
0.0024966
1.8111e-06
0.0024957
1.77453e-06
0.00249483
1.73587e-06
0.00249398
1.69399e-06
0.00249315
1.65203e-06
0.00249234
1.59402e-06
0.00249156
1.55366e-06
0.00249082
1.4561e-06
1.39196e-06
0.0025026
-7.90789e-06
0.00251039
-2.36523e-05
0.00252364
-4.01004e-05
0.00254274
-5.76125e-05
0.00256818
-7.6281e-05
0.00260023
-9.54857e-05
0.00263876
-0.000113959
0.0026827
-0.000129127
0.00272998
-0.000138213
0.00277733
-0.000138264
0.0028209
-0.000127855
0.00285834
-0.000110682
0.00288844
-8.98513e-05
0.0029112
-6.85878e-05
0.00292748
-4.91972e-05
0.00293817
-3.1648e-05
0.00294322
-1.36494e-05
0.00294115
8.46728e-06
0.0029292
3.76406e-05
0.00290474
7.33078e-05
0.00286709
0.000110123
0.00281859
0.00014012
0.00276418
0.000156143
0.00271035
0.000153895
0.00266393
0.000132179
0.00263132
9.23141e-05
0.00261774
3.78511e-05
0.00262651
-2.52935e-05
0.00265784
-8.7901e-05
0.00270714
-0.000136698
0.00276406
-0.000156457
0.002814
-0.000136556
0.00284292
-7.88126e-05
0.00284279
1.07777e-06
0.00281378
8.14313e-05
0.00276244
0.000144899
0.00269795
0.000183291
0.00262942
0.000195747
0.00256485
0.000184587
0.00251128
0.000152098
0.00247559
9.91758e-05
0.00246499
2.58678e-05
0.00248666
-6.61719e-05
0.00254534
-0.000168694
0.00263863
-0.00026208
0.00275278
-0.000317086
0.00286351
-0.00030703
0.00294383
-0.000224814
0.00297509
-9.15253e-05
0.00295403
5.28521e-05
0.00289161
0.000169912
0.00280571
0.000239474
0.00271339
0.000261461
0.00262729
0.000246136
0.00255611
0.000203731
0.00250671
0.000139471
0.00248577
5.40432e-05
0.00250014
-5.29119e-05
0.00255614
-0.000177869
0.00265682
-0.00030844
0.00279736
-0.000420876
0.0029616
-0.000484556
0.00312389
-0.000473423
0.00325533
-0.000376942
0.0033304
-0.000205429
0.00333313
8.34157e-06
0.00326414
0.000212856
0.00314323
0.000355625
0.00300198
0.000408661
0.00287051
0.000379463
0.00276777
0.000298785
0.00270047
0.000198865
0.00266766
0.000100244
0.00266551
1.17726e-05
0.00268919
-6.26618e-05
0.00273237
-0.000118326
0.00278618
-0.00014843
0.00283935
-0.000147053
0.00288026
-0.000113681
0.00290012
-5.59155e-05
0.00289544
1.20318e-05
0.00286853
7.4481e-05
0.00282585
0.000119902
0.00277529
0.000143826
0.00272389
0.000148017
0.00267664
0.000137625
0.00263643
0.000118415
0.00260445
9.51631e-05
0.00258079
7.11924e-05
0.00256489
4.85687e-05
0.00255581
2.84954e-05
0.00255244
1.16566e-05
0.00255352
-1.55241e-06
0.00255773
-1.09089e-05
0.00256373
-1.63479e-05
0.00257021
-1.80159e-05
0.00257603
-1.63344e-05
0.00258028
-1.20169e-05
0.00258237
-6.00709e-06
0.00258211
6.53827e-07
0.00257963
6.99079e-06
0.00257532
1.22388e-05
0.00256977
1.59258e-05
0.00256356
1.78833e-05
0.00255729
1.82005e-05
0.00255142
1.71488e-05
0.00254629
1.50995e-05
0.00254209
1.24519e-05
0.0025389
9.5791e-06
0.00253668
6.79272e-06
0.0025353
4.32573e-06
0.0025346
2.32898e-06
0.00253438
8.77457e-07
0.00253446
-1.78351e-08
0.00253466
-3.95944e-07
0.00253482
-3.32009e-07
0.00253483
7.58183e-08
0.0025346
7.18353e-07
0.00253411
1.48628e-06
0.00253333
2.27964e-06
0.0025323
3.01514e-06
0.00253106
3.63104e-06
0.00252967
4.0891e-06
0.00252818
4.37401e-06
0.00252666
4.49052e-06
0.00252515
4.45901e-06
0.00252369
4.31032e-06
0.00252232
4.08054e-06
0.00252104
3.80628e-06
0.00251987
3.52092e-06
0.00251878
3.25204e-06
0.00251778
3.01989e-06
0.00251683
2.83706e-06
0.00251593
2.70888e-06
0.00251505
2.63449e-06
0.00251418
2.60825e-06
0.00251331
2.62125e-06
0.00251241
2.66284e-06
0.0025115
2.72194e-06
0.00251056
2.78814e-06
0.0025096
2.85254e-06
0.00250862
2.90815e-06
0.00250762
2.95024e-06
0.00250662
2.97621e-06
0.00250561
2.98543e-06
0.0025046
2.97879e-06
0.0025036
2.95843e-06
0.00250261
2.92684e-06
0.00250164
2.88714e-06
0.00250068
2.84139e-06
0.00249973
2.79241e-06
0.0024988
2.74026e-06
0.00249789
2.68702e-06
0.00249699
2.63055e-06
0.00249612
2.57034e-06
0.00249526
2.50866e-06
0.00249443
2.42607e-06
0.00249362
2.36489e-06
0.00249285
2.22644e-06
2.12643e-06
0.00250254
-1.04478e-05
0.00251015
-3.1259e-05
0.00252314
-5.3095e-05
0.00254204
-7.65075e-05
0.00256745
-0.000101697
0.00259987
-0.0001279
0.00263936
-0.000153448
0.00268494
-0.000174715
0.00273449
-0.000187763
0.00278422
-0.000187995
0.00282957
-0.0001732
0.002868
-0.000149113
0.00289833
-0.000120178
0.00292081
-9.10716e-05
0.00293682
-6.52024e-05
0.0029477
-4.25334e-05
0.0029537
-1.96467e-05
0.00295309
9.08051e-06
0.00294235
4.83746e-05
0.00291789
9.77647e-05
0.0028785
0.000149515
0.00282663
0.000191992
0.00276783
0.000214939
0.00270931
0.000212416
0.00265857
0.000182919
0.0026226
0.000128289
0.00260726
5.3186e-05
0.00261667
-3.47041e-05
0.00265181
-0.000123033
0.0027082
-0.000193095
0.00277421
-0.000222462
0.00283253
-0.000194878
0.00286631
-0.000112597
0.00286625
1.14261e-06
0.0028333
0.000114385
0.00277587
0.000202327
0.00270487
0.000254291
0.00263029
0.000270322
0.00256028
0.000254597
0.00250173
0.000210654
0.00246149
0.000139411
0.0024475
3.98596e-05
0.0024685
-8.71729e-05
0.00253095
-0.000231147
0.00263358
-0.000364701
0.00276233
-0.000445842
0.00288956
-0.00043426
0.0029819
-0.000317153
0.00301569
-0.00012532
0.00298782
8.07286e-05
0.00291351
0.000244218
0.00281542
0.000337563
0.00271325
0.000363632
0.00261998
0.000339408
0.00254342
0.000280287
0.00248902
0.000193877
0.00246187
8.1192e-05
0.00246888
-5.99266e-05
0.00251968
-0.000228663
0.00262173
-0.00041049
0.00277072
-0.000569873
0.00294574
-0.000659575
0.00311518
-0.000642862
0.00324825
-0.000510014
0.00332274
-0.000279917
0.00332647
4.60919e-06
0.00325942
0.000279913
0.00313808
0.00047696
0.00299291
0.000553833
0.00285607
0.000516303
0.00274932
0.000405535
0.00268074
0.000267443
0.0026493
0.000131685
0.00265066
1.04173e-05
0.00267971
-9.17179e-05
0.00272991
-0.000168519
0.00279171
-0.00021023
0.00285255
-0.000207894
0.00289912
-0.000160259
0.00292129
-7.80768e-05
0.00291525
1.80708e-05
0.00288419
0.000105538
0.00283613
0.000167961
0.00278046
0.000199491
0.00272513
0.000203347
0.0026754
0.000187355
0.00263398
0.000159842
0.00260172
0.000127422
0.0025784
9.45105e-05
0.00256322
6.37477e-05
0.0025551
3.66208e-05
0.00255279
1.39585e-05
0.002555
-3.75678e-06
0.00256033
-1.62387e-05
0.00256737
-2.33914e-05
0.00257475
-2.53998e-05
0.00258125
-2.28318e-05
0.00258591
-1.66701e-05
0.00258812
-8.22626e-06
0.00258773
1.05007e-06
0.00258491
9.8066e-06
0.00258016
1.69932e-05
0.00257411
2.19762e-05
0.00256744
2.45481e-05
0.00256079
2.48573e-05
0.00255464
2.32982e-05
0.00254934
2.03958e-05
0.00254509
1.67054e-05
0.00254193
1.27399e-05
0.0025398
8.9231e-06
0.00253855
5.56783e-06
0.00253801
2.87314e-06
0.00253795
9.342e-07
0.00253818
-2.40403e-07
0.00253849
-7.09139e-07
0.00253873
-5.78376e-07
0.0025388
1.5324e-08
0.00253859
9.21343e-07
0.00253809
1.98973e-06
0.00253728
3.08404e-06
0.00253621
4.09128e-06
0.00253491
4.92841e-06
0.00253346
5.54491e-06
0.00253191
5.92177e-06
0.00253033
6.06734e-06
0.00252878
6.01115e-06
0.00252729
5.79666e-06
0.0025259
5.47408e-06
0.00252461
5.09387e-06
0.00252343
4.7017e-06
0.00252235
4.33493e-06
0.00252135
4.02074e-06
0.00252041
3.77565e-06
0.00251951
3.60627e-06
0.00251863
3.5108e-06
0.00251776
3.48095e-06
0.00251688
3.50417e-06
0.00251598
3.56562e-06
0.00251505
3.65006e-06
0.00251409
3.74327e-06
0.00251311
3.83314e-06
0.00251211
3.91033e-06
0.00251109
3.96855e-06
0.00251006
4.00448e-06
0.00250903
4.01751e-06
0.002508
4.00903e-06
0.00250698
3.98215e-06
0.00250596
3.94038e-06
0.00250496
3.88809e-06
0.00250398
3.82812e-06
0.002503
3.76443e-06
0.00250205
3.69689e-06
0.00250111
3.62884e-06
0.00250018
3.55623e-06
0.00249927
3.48079e-06
0.00249838
3.40064e-06
0.0024975
3.29896e-06
0.00249665
3.21548e-06
0.00249583
3.04642e-06
2.90441e-06
0.00250245
-1.28948e-05
0.00250978
-3.85962e-05
0.0025224
-6.57157e-05
0.00254096
-9.50591e-05
0.00256627
-0.000127009
0.0025991
-0.00016073
0.00263984
-0.00019419
0.00268768
-0.00022255
0.00274042
-0.000240511
0.00279353
-0.000241096
0.00284132
-0.000220993
0.00288106
-0.000188853
0.00291158
-0.000150697
0.00293353
-0.00011302
0.00294899
-8.06689e-05
0.00296009
-5.3629e-05
0.00296746
-2.70196e-05
0.00296908
7.46704e-06
0.00296026
5.71857e-05
0.00293598
0.000122049
0.00289421
0.000191288
0.00283763
0.00024857
0.00277271
0.000279858
0.00270768
0.00027744
0.00265095
0.000239659
0.00261024
0.000168992
0.0025923
7.11304e-05
0.00260235
-4.47531e-05
0.00264258
-0.000163267
0.00270889
-0.000259406
0.00278787
-0.00030144
0.00285827
-0.000265275
0.00289899
-0.000153322
0.00289885
1.28223e-06
0.00286007
0.00015317
0.00279394
0.000268454
0.00271388
0.000334352
0.0026311
0.000353103
0.00255383
0.000331869
0.00248859
0.00027589
0.00244225
0.000185755
0.00242331
5.87932e-05
0.00244086
-0.000104715
0.00250134
-0.00029163
0.00260587
-0.000469235
0.00274579
-0.000585757
0.00289528
-0.000583756
0.00301279
-0.000434662
0.00306125
-0.00017378
0.00303132
0.000110662
0.00294308
0.000332455
0.00282816
0.00045248
0.00271218
0.000479613
0.00260937
0.000442219
0.00252586
0.000363804
0.00246418
0.000255554
0.00242788
0.00011749
0.00242717
-5.92167e-05
0.00247887
-0.000280359
0.00259381
-0.000525437
0.00276247
-0.000738525
0.00295453
-0.00085164
0.00313149
-0.000819824
0.00326077
-0.00063929
0.00332407
-0.000343219
0.00331676
1.1924e-05
0.00324365
0.00035302
0.00311999
0.000600617
0.00297269
0.000701133
0.00283276
0.000656236
0.0027233
0.000514991
0.00265398
0.000336767
0.00262431
0.000161352
0.00262969
5.04323e-06
0.0026644
-0.000126432
0.00272147
-0.000225585
0.0027914
-0.000280163
0.00286144
-0.000277936
0.00291673
-0.000215543
0.00294447
-0.000105821
0.00293906
2.34785e-05
0.00290399
0.000140609
0.00284932
0.000222628
0.00278686
0.000261951
0.00272618
0.000264032
0.00267308
0.00024045
0.00263009
0.00020284
0.00259757
0.000159943
0.00257482
0.000117254
0.00256071
7.78581e-05
0.00255393
4.34006e-05
0.00255312
1.47681e-05
0.00255688
-7.5136e-06
0.00256374
-2.31039e-05
0.00257222
-3.18651e-05
0.00258083
-3.40076e-05
0.00258824
-3.02489e-05
0.00259344
-2.18691e-05
0.00259581
-1.05971e-05
0.00259521
1.65203e-06
0.00259192
1.31006e-05
0.00258652
2.23866e-05
0.00257979
2.87131e-05
0.00257248
3.18513e-05
0.0025653
3.20379e-05
0.00255878
2.98213e-05
0.00255327
2.59072e-05
0.00254895
2.10281e-05
0.00254584
1.58498e-05
0.00254384
1.09147e-05
0.0025428
6.61669e-06
0.00254247
3.20011e-06
0.00254263
7.75395e-07
0.00254304
-6.57247e-07
0.00254352
-1.18168e-06
0.00254388
-9.41125e-07
0.00254401
-1.15611e-07
0.00254383
1.09841e-06
0.00254332
2.50672e-06
0.00254247
3.93376e-06
0.00254132
5.23527e-06
0.00253994
6.30645e-06
0.0025384
7.08508e-06
0.00253678
7.54982e-06
0.00253513
7.71459e-06
0.00253352
7.62023e-06
0.00253199
7.32495e-06
0.00253057
6.89492e-06
0.00252927
6.3959e-06
0.00252808
5.8868e-06
0.002527
5.41524e-06
0.00252601
5.01535e-06
0.00252508
4.70733e-06
0.00252418
4.49855e-06
0.00252331
4.38559e-06
0.00252243
4.35693e-06
0.00252154
4.39568e-06
0.00252063
4.48231e-06
0.00251968
4.59698e-06
0.0025187
4.72136e-06
0.00251769
4.84003e-06
0.00251666
4.9412e-06
0.00251561
5.01715e-06
0.00251455
5.06395e-06
0.00251349
5.08119e-06
0.00251243
5.07099e-06
0.00251137
5.03762e-06
0.00251033
4.98582e-06
0.0025093
4.92135e-06
0.00250828
4.8479e-06
0.00250727
4.77076e-06
0.00250628
4.68938e-06
0.0025053
4.60891e-06
0.00250433
4.52231e-06
0.00250338
4.43559e-06
0.00250244
4.33855e-06
0.00250151
4.22503e-06
0.00250061
4.11697e-06
0.00249972
3.93163e-06
3.73805e-06
0.00250232
-1.52128e-05
0.00250928
-4.55575e-05
0.00252136
-7.77997e-05
0.00253939
-0.000113081
0.00256444
-0.000152066
0.00259767
-0.00019396
0.00263992
-0.000236441
0.00269065
-0.000273275
0.00274769
-0.000297551
0.00280534
-0.000298744
0.00285634
-0.000271995
0.0028977
-0.000230219
0.0029283
-0.000181298
0.00294931
-0.000134029
0.00296383
-9.51823e-05
0.00297503
-6.48368e-05
0.00298424
-3.62224e-05
0.00298903
2.67561e-06
0.00298313
6.30873e-05
0.00295939
0.000145787
0.00291463
0.000236048
0.00285187
0.000311326
0.00277888
0.000352851
0.0027053
0.000351017
0.00264066
0.000304305
0.00259361
0.00021604
0.00257192
9.28231e-05
0.00258234
-5.51797e-05
0.00262896
-0.000209883
0.00270848
-0.000338924
0.00280519
-0.000398153
0.00289219
-0.000352276
0.00294232
-0.000203446
0.00294177
1.83017e-06
0.00289474
0.0002002
0.00281678
0.000346411
0.00272483
0.000426304
0.00263162
0.000446316
0.00254528
0.000418207
0.00247181
0.000349359
0.00241785
0.000239714
0.00239075
8.58881e-05
0.00239642
-0.000110383
0.00244074
-0.000335949
0.00253232
-0.000560812
0.00267418
-0.000727617
0.0028469
-0.000756472
0.00300294
-0.000590709
0.00308695
-0.000257783
0.00307217
0.000125441
0.00297685
0.00042777
0.00284387
0.000585458
0.00271046
0.000613022
0.00259541
0.000557276
0.00250291
0.0004563
0.00243165
0.000326819
0.00238556
0.000163575
0.00238224
-5.58978e-05
0.00244523
-0.000343353
0.00258181
-0.00066201
0.00277143
-0.000928151
0.00297578
-0.00105599
0.00315485
-0.000998891
0.00327739
-0.000761835
0.00332695
-0.00039277
0.00330322
3.56501e-05
0.00321744
0.000438803
0.00308774
0.000730315
0.00293879
0.000850078
0.00279843
0.000796603
0.00268875
0.000624664
0.00262011
0.000405406
0.00259251
0.000188958
0.00260045
-2.8978e-06
0.00263668
-0.000162658
0.00269423
-0.000283136
0.00276646
-0.000352401
0.00284407
-0.000355545
0.00291227
-0.000283735
0.00295371
-0.000147267
0.00295704
2.01454e-05
0.00292317
0.000174483
0.00286372
0.000282081
0.00279408
0.000331588
0.00272693
0.000331181
0.00266957
0.000297812
0.0026246
0.000247814
0.00259183
0.000192711
0.00256993
0.000139156
0.00255727
9.05171e-05
0.00255226
4.84105e-05
0.00255337
1.36516e-05
0.00255912
-1.32545e-05
0.00256794
-3.19241e-05
0.00257823
-4.21583e-05
0.00258839
-4.41713e-05
0.00259697
-3.88309e-05
0.00260286
-2.775e-05
0.0026054
-1.31402e-05
0.00260451
2.54201e-06
0.00260058
1.70303e-05
0.00259435
2.86168e-05
0.00258672
3.63399e-05
0.0025786
3.99748e-05
0.00257075
3.98845e-05
0.00256376
3.68127e-05
0.00255799
3.16814e-05
0.00255359
2.54264e-05
0.00255055
1.88832e-05
0.00254875
1.27206e-05
0.00254795
7.41385e-06
0.0025479
3.24861e-06
0.00254834
3.43452e-07
0.002549
-1.31765e-06
0.00254967
-1.85173e-06
0.00255017
-1.44601e-06
0.00255039
-3.30281e-07
0.00255024
1.24775e-06
0.0025497
3.04526e-06
0.00254879
4.84436e-06
0.00254755
6.46766e-06
0.00254607
7.78817e-06
0.00254442
8.73276e-06
0.00254269
9.27961e-06
0.00254096
9.45066e-06
0.00253928
9.30083e-06
0.0025377
8.90578e-06
0.00253624
8.34994e-06
0.00253492
7.71615e-06
0.00253373
7.07769e-06
0.00253265
6.493e-06
0.00253167
6.00315e-06
0.00253074
5.63163e-06
0.00252985
5.38587e-06
0.00252898
5.26007e-06
0.0025281
5.23856e-06
0.00252719
5.2994e-06
0.00252626
5.41769e-06
0.00252529
5.56848e-06
0.00252428
5.72901e-06
0.00252324
5.88035e-06
0.00252217
6.0083e-06
0.00252109
6.10374e-06
0.00251999
6.16235e-06
0.00251888
6.18413e-06
0.00251778
6.17221e-06
0.00251669
6.13228e-06
0.0025156
6.07049e-06
0.00251453
5.99425e-06
0.00251347
5.90813e-06
0.00251242
5.81895e-06
0.00251139
5.72556e-06
0.00251036
5.63541e-06
0.00250934
5.53731e-06
0.00250834
5.44403e-06
0.00250734
5.33183e-06
0.00250635
5.21545e-06
0.00250539
5.07944e-06
0.00250442
4.89696e-06
4.63742e-06
0.00250214
-1.73573e-05
0.0025086
-5.20113e-05
0.00251994
-8.91376e-05
0.00253717
-0.000130316
0.00256172
-0.000176617
0.00259524
-0.000227474
0.00263919
-0.000280391
0.00269349
-0.000327579
0.00275616
-0.000360218
0.0028198
-0.000362387
0.00287487
-0.000327063
0.00291814
-0.000273488
0.00294853
-0.000211693
0.00296794
-0.000153432
0.00298085
-0.000108099
0.00299202
-7.60073e-05
0.00300374
-4.79394e-05
0.00301312
-6.70653e-06
0.00301156
6.46475e-05
0.00298891
0.00016844
0.00294039
0.000284568
0.00286964
0.000382075
0.00278628
0.000436208
0.00270184
0.000435458
0.00262716
0.000378983
0.00257189
0.00027131
0.00254492
0.000119792
0.00255507
-6.53266e-05
0.00260963
-0.000264444
0.00270722
-0.000436512
0.00282849
-0.000519418
0.00293763
-0.000461417
0.00299922
-0.000265044
0.00299688
4.17274e-06
0.00293811
0.000258971
0.00284442
0.000440102
0.00273739
0.000533339
0.00263145
0.000552251
0.00253441
0.000515244
0.00245155
0.000432223
0.00238794
0.000303326
0.00234609
0.000127741
0.00232791
-9.2212e-05
0.00234639
-0.000354428
0.0024245
-0.000638923
0.00257123
-0.000874338
0.00276416
-0.000949409
0.00295362
-0.000780165
0.00307789
-0.000382052
0.00309332
0.000110008
0.00300492
0.000516173
0.00285955
0.00073083
0.00270803
0.000764537
0.00257823
0.000687076
0.00247431
0.000560224
0.00239215
0.000408976
0.00233913
0.000216594
0.00234099
-5.77513e-05
0.00242191
-0.000424273
0.00257853
-0.000818632
0.00277948
-0.0011291
0.00298418
-0.00126069
0.00315689
-0.0011716
0.00327066
-0.000875603
0.00330976
-0.000431876
0.0032736
7.18122e-05
0.00317628
0.000536118
0.00304009
0.000866506
0.00289028
0.000999893
0.002752
0.000934884
0.00264503
0.000731632
0.00257894
0.000471497
0.00255264
0.000215256
0.00255797
-8.22983e-06
0.00258585
-0.000190537
0.00263206
-0.000329344
0.00269696
-0.000417306
0.00277802
-0.000436602
0.00286227
-0.000367979
0.00292735
-0.000212346
0.00295264
-5.14673e-06
0.00293167
0.000195454
0.00287468
0.000339066
0.00280069
0.00040558
0.00272725
0.000404626
0.00266494
0.000360118
0.00261747
0.000295281
0.00258437
0.000225815
0.00256355
0.000159975
0.00255275
0.000101316
0.00254997
5.11921e-05
0.00255347
1.01547e-05
0.00256162
-2.14133e-05
0.00257281
-4.31075e-05
0.00258529
-5.46429e-05
0.00259733
-5.62052e-05
0.0026073
-4.8808e-05
0.00261399
-3.44381e-05
0.00261672
-1.58703e-05
0.00261546
3.80414e-06
0.00261074
2.17529e-05
0.00260347
3.58796e-05
0.00259476
4.50569e-05
0.00258564
4.90951e-05
0.00257699
4.85323e-05
0.00256944
4.4359e-05
0.00256337
3.77573e-05
0.00255889
2.98991e-05
0.00255597
2.18094e-05
0.0025544
1.42916e-05
0.00255391
7.90237e-06
0.00255419
2.96205e-06
0.00255495
-4.1193e-07
0.00255589
-2.26207e-06
0.00255679
-2.74823e-06
0.00255746
-2.11019e-06
0.00255776
-6.3486e-07
0.00255763
1.37279e-06
0.00255706
3.61651e-06
0.00255608
5.83267e-06
0.00255473
7.80885e-06
0.00255313
9.39546e-06
0.00255135
1.05095e-05
0.0025495
1.11308e-05
0.00254766
1.12925e-05
0.00254589
1.10666e-05
0.00254425
1.05495e-05
0.00254275
9.84649e-06
0.00254141
9.05959e-06
0.00254021
8.27769e-06
0.00253913
7.57059e-06
0.00253815
6.98625e-06
0.00253723
6.55087e-06
0.00253634
6.27115e-06
0.00253546
6.1379e-06
0.00253457
6.13036e-06
0.00253365
6.22063e-06
0.00253269
6.37773e-06
0.00253169
6.57105e-06
0.00253064
6.77306e-06
0.00252956
6.96117e-06
0.00252845
7.11873e-06
0.00252732
7.23537e-06
0.00252618
7.30659e-06
0.00252503
7.3331e-06
0.00252388
7.31931e-06
0.00252274
7.27258e-06
0.00252161
7.20077e-06
0.00252049
7.11307e-06
0.00251939
7.01509e-06
0.00251829
6.91533e-06
0.0025172
6.81184e-06
0.00251612
6.71493e-06
0.00251505
6.60802e-06
0.00251398
6.51331e-06
0.00251293
6.38776e-06
0.00251186
6.27894e-06
0.00251083
6.1102e-06
0.00250977
5.95523e-06
5.609e-06
0.00250192
-1.92743e-05
0.0025077
-5.7797e-05
0.00251803
-9.9465e-05
0.00253413
-0.000146416
0.0025578
-0.000200289
0.00259134
-0.000261016
0.00263708
-0.000326125
0.0026957
-0.000386197
0.00276567
-0.000430188
0.00283713
-0.000433853
0.00289727
-0.000387201
0.00294274
-0.000318955
0.00297253
-0.000241484
0.00298939
-0.000170298
0.0029997
-0.000118401
0.00301034
-8.66558e-05
0.00302519
-6.27807e-05
0.00304091
-2.24258e-05
0.00304574
5.98172e-05
0.00302522
0.000188954
0.0029723
0.000337495
0.0028915
0.000462875
0.00279508
0.000532623
0.00269707
0.000533464
0.0026099
0.000466157
0.00254414
0.00033707
0.00250977
0.00015416
0.00251863
-7.41823e-05
0.00258356
-0.000329377
0.00270643
-0.000559385
0.00286222
-0.000675203
0.00300118
-0.000600379
0.00307579
-0.000339654
0.00306786
1.21077e-05
0.00299146
0.000335363
0.00287671
0.000554856
0.00275089
0.000659156
0.00263001
0.000673135
0.00252112
0.000624129
0.00242798
0.000525362
0.00235106
0.000380254
0.0022862
0.000192597
0.00223983
-4.58408e-05
0.0022443
-0.000358899
0.00233261
-0.000727234
0.00250024
-0.00104197
0.00270845
-0.00115762
0.00290886
-0.000980571
0.00305118
-0.000524373
0.00309075
7.04412e-05
0.00301713
0.000589786
0.00286868
0.000879282
0.00270294
0.000930278
0.00255777
0.000832247
0.00244052
0.000677471
0.00234784
0.000501658
0.00229268
0.000271756
0.00230532
-7.03964e-05
0.00240342
-0.000522366
0.00257104
-0.000986253
0.00277083
-0.00132889
0.00296527
-0.00145514
0.00312504
-0.00133136
0.00322798
-0.000978541
0.00325939
-0.00046329
0.00321687
0.000114339
0.00311389
0.000639097
0.00297494
0.00100545
0.00282688
0.00114795
0.00269356
0.0010682
0.00259226
0.000832931
0.00252998
0.000533777
0.00250186
0.000243377
0.00249619
-2.55896e-06
0.00250546
-0.000199808
0.00253306
-0.000356944
0.00258753
-0.000471773
0.00267055
-0.000519625
0.00276981
-0.00046723
0.00286059
-0.000303135
0.00291557
-6.01197e-05
0.00291894
0.000192086
0.00287499
0.000383011
0.0028033
0.000477271
0.00272622
0.000481706
0.00265927
0.000427065
0.0026089
0.000345654
0.0025752
0.000259513
0.00255557
0.000179605
0.00254699
0.000109894
0.0025469
5.12869e-05
0.00255322
3.82959e-06
0.00256419
-3.23818e-05
0.00257807
-5.69824e-05
0.00259302
-6.95909e-05
0.00260714
-7.03309e-05
0.00261868
-6.03501e-05
0.00262629
-4.20437e-05
0.00262925
-1.88286e-05
0.00262758
5.46895e-06
0.00262197
2.73614e-05
0.00261354
4.43095e-05
0.00260359
5.50123e-05
0.00259334
5.93478e-05
0.00258378
5.80859e-05
0.00257562
5.25241e-05
0.00256922
4.41589e-05
0.00256468
3.44368e-05
0.00256189
2.45962e-05
0.0025606
1.55845e-05
0.00256046
8.03788e-06
0.00256112
2.30212e-06
0.00256223
-1.51914e-06
0.00256348
-3.5078e-06
0.00256461
-3.87823e-06
0.00256543
-2.9324e-06
0.00256582
-1.02198e-06
0.0025657
1.48492e-06
0.00256509
4.23433e-06
0.002564
6.91389e-06
0.00256254
9.27447e-06
0.00256079
1.11436e-05
0.00255887
1.24297e-05
0.00255688
1.31166e-05
0.00255493
1.32515e-05
0.00255306
1.29275e-05
0.00255135
1.22646e-05
0.0025498
1.13921e-05
0.00254843
1.0433e-05
0.00254721
9.49334e-06
0.00254613
8.65459e-06
0.00254515
7.97144e-06
0.00254422
7.47214e-06
0.00254333
7.16169e-06
0.00254244
7.02649e-06
0.00254154
7.03968e-06
0.00254059
7.16651e-06
0.0025396
7.3692e-06
0.00253856
7.61102e-06
0.00253747
7.85936e-06
0.00253635
8.08784e-06
0.00253519
8.27739e-06
0.00253401
8.41656e-06
0.00253281
8.5009e-06
0.00253161
8.53207e-06
0.00253042
8.51605e-06
0.00252923
8.46217e-06
0.00252805
8.38018e-06
0.00252688
8.28126e-06
0.00252572
8.17213e-06
0.00252457
8.06313e-06