/*--------------------------------*- C++ -*----------------------------------*\
  =========                 |
  \\      /  F ield         | OpenFOAM: The Open Source CFD Toolbox
   \\    /   O peration     | Website:  https://openfoam.org
    \\  /    A nd           | Version:  11
     \\/     M anipulation  |
\*---------------------------------------------------------------------------*/
FoamFile
{
    format      ascii;
    class       surfaceScalarField;
    location    "1.965294";
    object      phi_0;
}
// * * * * * * * * * * * * * * * * * * * * * * * * * * * * * * * * * * * * * //

dimensions      [0 3 -1 0 0 0 0];

internalField   nonuniform List<scalar> 
14638
(
0.00250281
-2.81233e-06
0.00251129
-8.47285e-06
0.00252574
-1.44523e-05
0.00254659
-2.08504e-05
0.00257426
-2.76703e-05
0.00260893
-3.46687e-05
0.00265032
-4.13921e-05
0.00269729
-4.69688e-05
0.00274773
-5.04437e-05
0.00279849
-5.07583e-05
0.00284573
-4.72375e-05
0.00288611
-4.0381e-05
0.00291683
-3.07199e-05
0.00293571
-1.88831e-05
0.00294151
-5.79701e-06
0.00293405
7.45945e-06
0.00291439
1.96631e-05
0.0028847
2.96899e-05
0.0028479
3.67941e-05
0.00280714
4.07579e-05
0.0027653
4.18393e-05
0.0027247
4.06061e-05
0.00268695
3.77467e-05
0.00265303
3.39225e-05
0.00262335
2.96817e-05
0.00259792
2.54276e-05
0.00257649
2.14258e-05
0.00255866
1.78291e-05
0.00254396
1.47036e-05
0.00253192
1.20453e-05
0.00252213
9.78661e-06
0.00251432
7.80859e-06
0.00250835
5.97294e-06
0.00250417
4.1789e-06
0.00250175
2.42168e-06
0.00250093
8.14934e-07
0.00250138
-4.4858e-07
0.00250257
-1.18801e-06
0.0025039
-1.33096e-06
0.00250486
-9.61529e-07
0.00250515
-2.93311e-07
0.00250474
4.15124e-07
0.00250379
9.54413e-07
0.00250256
1.22202e-06
0.00250134
1.22478e-06
0.0025003
1.03991e-06
0.00249953
7.64408e-07
0.00249906
4.78298e-07
0.00249883
2.30522e-07
0.00249878
4.21521e-08
0.00249887
-8.38766e-08
0.00249902
-1.5426e-07
0.0024992
-1.80304e-07
0.00249938
-1.75216e-07
0.00249953
-1.52075e-07
0.00249965
-1.21949e-07
0.00249974
-9.25689e-08
0.00249981
-6.80174e-08
0.00249986
-4.94044e-08
0.0024999
-3.60529e-08
0.00249992
-2.66282e-08
0.00249994
-1.98693e-08
0.00249996
-1.48769e-08
0.00249997
-1.11054e-08
0.00249998
-8.23972e-09
0.00249998
-6.07882e-09
0.00249999
-4.46955e-09
0.00249999
-3.2831e-09
0.00249999
-2.41236e-09
0.0025
-1.77315e-09
0.0025
-1.30279e-09
0.0025
-9.56004e-10
0.0025
-7.0021e-10
0.0025
-5.1168e-10
0.0025
-3.72899e-10
0.0025
-2.70838e-10
0.0025
-1.95828e-10
0.0025
-1.40721e-10
0.0025
-1.00255e-10
0.0025
-7.05611e-11
0.0025
-4.87934e-11
0.0025
-3.28585e-11
0.0025
-2.12137e-11
0.0025
-1.27248e-11
0.0025
-6.55441e-12
0.0025
-2.08988e-12
0.0025
1.12376e-12
0.0025
3.41621e-12
0.0025
5.03544e-12
0.0025
6.15788e-12
0.0025
6.91959e-12
0.0025
7.41403e-12
0.0025
7.71677e-12
0.0025
7.8764e-12
0.0025
7.93576e-12
0.0025
7.91919e-12
0.0025
7.85177e-12
0.0025
7.74479e-12
0.0025
7.61358e-12
0.0025
7.46251e-12
0.0025
7.3015e-12
0.0025
7.13133e-12
0.0025
6.95881e-12
0.0025
6.78297e-12
0.0025
6.60873e-12
0.0025
6.43438e-12
0.0025
6.2636e-12
0.0025
6.09448e-12
0.0025
5.9298e-12
0.0025
5.76777e-12
0.0025
5.61042e-12
0.0025
5.45628e-12
0.0025
5.30671e-12
0.0025
5.16068e-12
0.0025
5.01891e-12
0.0025
4.88085e-12
0.0025
4.74666e-12
0.0025
4.61628e-12
0.0025
4.48929e-12
0.0025
4.36617e-12
0.0025
4.24596e-12
0.0025
4.12967e-12
0.0025
4.0158e-12
0.0025
3.90589e-12
0.0025
3.79792e-12
0.0025
3.69395e-12
0.0025
3.59146e-12
0.0025
3.49299e-12
0.0025
3.39557e-12
0.0025
3.30223e-12
0.0025
3.20952e-12
0.0025
3.12094e-12
0.0025
3.03259e-12
0.0025
2.94843e-12
0.0025
2.86414e-12
0.0025
2.78409e-12
0.0025
2.70359e-12
0.0025
2.62737e-12
0.0025
2.5504e-12
0.0025
2.47777e-12
0.0025
2.4041e-12
0.0025
2.33482e-12
0.0025
2.26425e-12
0.0025
2.1981e-12
0.0025
2.13046e-12
0.0025
2.06727e-12
0.0025
2.0024e-12
0.0025
1.94203e-12
0.0025
1.87986e-12
0.0025
1.82214e-12
0.0025
1.76266e-12
0.0025
1.70719e-12
0.0025
1.65076e-12
0.0025
1.5961e-12
0.0025
1.54631e-12
0.0025
1.48495e-12
0.0025
1.46389e-12
0.0025
1.35115e-12
0.0025
1.47839e-12
1.13495e-12
0.00250279
-5.60025e-06
0.00251119
-1.68788e-05
0.00252555
-2.88119e-05
0.00254632
-4.16204e-05
0.00257398
-5.53239e-05
0.00260876
-6.94499e-05
0.00265046
-8.30981e-05
0.00269798
-9.44889e-05
0.00274921
-0.000101673
0.00280087
-0.000102417
0.00284895
-9.5313e-05
0.00289004
-8.14712e-05
0.00292129
-6.1974e-05
0.00294048
-3.80716e-05
0.00294631
-1.16272e-05
0.00293859
1.51808e-05
0.0029184
3.98539e-05
0.002888
6.00866e-05
0.00285044
7.43558e-05
0.00280896
8.22339e-05
0.00276653
8.42714e-05
0.00272549
8.16465e-05
0.00268747
7.57712e-05
0.0026534
6.79903e-05
0.00262367
5.94093e-05
0.00259826
5.08352e-05
0.0025769
4.27942e-05
0.00255914
3.55846e-05
0.00254451
2.93321e-05
0.00253253
2.40235e-05
0.0025228
1.95218e-05
0.00251502
1.55878e-05
0.00250905
1.19442e-05
0.00250484
8.38714e-06
0.00250236
4.90217e-06
0.00250146
1.71065e-06
0.00250182
-8.06456e-07
0.00250292
-2.28836e-06
0.00250418
-2.5871e-06
0.00250508
-1.86519e-06
0.00250533
-5.44136e-07
0.00250488
8.62404e-07
0.0025039
1.93617e-06
0.00250265
2.47019e-06
0.0025014
2.47534e-06
0.00250034
2.10376e-06
0.00249956
1.54858e-06
0.00249906
9.70288e-07
0.00249883
4.68124e-07
0.00249878
8.57378e-08
0.00249887
-1.69973e-07
0.00249903
-3.12136e-07
0.00249921
-3.63799e-07
0.00249939
-3.52189e-07
0.00249954
-3.04283e-07
0.00249966
-2.42782e-07
0.00249975
-1.83371e-07
0.00249982
-1.3416e-07
0.00249987
-9.71706e-08
0.0024999
-7.08378e-08
0.00249993
-5.23454e-08
0.00249994
-3.91041e-08
0.00249996
-2.93082e-08
0.00249997
-2.18877e-08
0.00249998
-1.62377e-08
0.00249998
-1.19745e-08
0.00249999
-8.80118e-09
0.00249999
-6.46394e-09
0.00249999
-4.7501e-09
0.0025
-3.49247e-09
0.0025
-2.56702e-09
0.0025
-1.88454e-09
0.0025
-1.38102e-09
0.0025
-1.00988e-09
0.0025
-7.36674e-10
0.0025
-5.35762e-10
0.0025
-3.88098e-10
0.0025
-2.79607e-10
0.0025
-1.99927e-10
0.0025
-1.41445e-10
0.0025
-9.85625e-11
0.0025
-6.71594e-11
0.0025
-4.41989e-11
0.0025
-2.74488e-11
0.0025
-1.52619e-11
0.0025
-6.43061e-12
0.0025
-6.20556e-14
0.0025
4.49567e-12
0.0025
7.72686e-12
0.0025
9.98292e-12
0.0025
1.15269e-11
0.0025
1.25476e-11
0.0025
1.31884e-11
0.0025
1.35503e-11
0.0025
1.37119e-11
0.0025
1.37267e-11
0.0025
1.36381e-11
0.0025
1.34742e-11
0.0025
1.32592e-11
0.0025
1.30074e-11
0.0025
1.27325e-11
0.0025
1.24417e-11
0.0025
1.21427e-11
0.0025
1.18391e-11
0.0025
1.15353e-11
0.0025
1.12329e-11
0.0025
1.09343e-11
0.0025
1.06402e-11
0.0025
1.0352e-11
0.0025
1.00699e-11
0.0025
9.79441e-12
0.0025
9.52585e-12
0.0025
9.26411e-12
0.0025
9.00955e-12
0.0025
8.76159e-12
0.0025
8.52084e-12
0.0025
8.28631e-12
0.0025
8.05882e-12
0.0025
7.83707e-12
0.0025
7.62214e-12
0.0025
7.41241e-12
0.0025
7.20927e-12
0.0025
7.0108e-12
0.0025
6.81867e-12
0.0025
6.63069e-12
0.0025
6.44877e-12
0.0025
6.27051e-12
0.0025
6.09808e-12
0.0025
5.92884e-12
0.0025
5.76521e-12
0.0025
5.60433e-12
0.0025
5.44887e-12
0.0025
5.29575e-12
0.0025
5.14787e-12
0.0025
5.00197e-12
0.0025
4.86115e-12
0.0025
4.72198e-12
0.0025
4.58773e-12
0.0025
4.45482e-12
0.0025
4.32671e-12
0.0025
4.19969e-12
0.0025
4.07735e-12
0.0025
3.95583e-12
0.0025
3.83889e-12
0.0025
3.72256e-12
0.0025
3.61071e-12
0.0025
3.49932e-12
0.0025
3.39228e-12
0.0025
3.28562e-12
0.0025
3.18308e-12
0.0025
3.0812e-12
0.0025
2.9825e-12
0.0025
2.88636e-12
0.0025
2.789e-12
0.0025
2.70508e-12
0.0025
2.59584e-12
0.0025
2.56077e-12
0.0025
2.36572e-12
0.0025
2.57111e-12
2.01066e-12
0.00250274
-8.3387e-06
0.002511
-2.51431e-05
0.00252517
-4.29783e-05
0.00254576
-6.22156e-05
0.00257337
-8.2927e-05
0.00260836
-0.000104439
0.00265068
-0.000125421
0.0026993
-0.000143114
0.00275212
-0.000154493
0.00280561
-0.000155903
0.00285538
-0.000145079
0.00289789
-0.000123985
0.00293021
-9.42971e-05
0.00295001
-5.78647e-05
0.00295589
-1.75072e-05
0.00294761
2.34563e-05
0.00292632
6.11437e-05
0.00289446
9.19481e-05
0.00285531
0.000113503
0.00281236
0.000125187
0.00276871
0.000127918
0.00272679
0.000123572
0.0026882
0.000114357
0.00265385
0.000102346
0.00262404
8.92208e-05
0.00259868
7.61918e-05
0.00257744
6.40349e-05
0.00255984
5.31795e-05
0.00254538
4.37969e-05
0.00253355
3.58542e-05
0.00252393
2.91379e-05
0.00251623
2.32865e-05
0.0025103
1.78823e-05
0.00250607
1.26158e-05
0.00250351
7.45772e-06
0.00250249
2.72903e-06
0.0025027
-1.00892e-06
0.00250363
-3.22009e-06
0.00250472
-3.68051e-06
0.00250548
-2.62594e-06
0.00250562
-6.78262e-07
0.00250508
1.40072e-06
0.00250403
2.98803e-06
0.00250272
3.77303e-06
0.00250143
3.76883e-06
0.00250033
3.19991e-06
0.00249953
2.35374e-06
0.00249903
1.47127e-06
0.00249879
7.03548e-07
0.00249876
1.18847e-07
0.00249886
-2.70563e-07
0.00249903
-4.84152e-07
0.00249923
-5.57886e-07
0.00249941
-5.3484e-07
0.00249956
-4.57587e-07
0.00249968
-3.61506e-07
0.00249977
-2.70502e-07
0.00249983
-1.964e-07
0.00249987
-1.41581e-07
0.00249991
-1.03078e-07
0.00249993
-7.62685e-08
0.00249995
-5.71031e-08
0.00249996
-4.28715e-08
0.00249997
-3.20348e-08
0.00249998
-2.37553e-08
0.00249998
-1.75033e-08
0.00249999
-1.28554e-08
0.00249999
-9.43875e-09
0.00249999
-6.93724e-09
0.0025
-5.10274e-09
0.0025
-3.75256e-09
0.0025
-2.75639e-09
0.0025
-2.02117e-09
0.0025
-1.47919e-09
0.0025
-1.08024e-09
0.0025
-7.86892e-10
0.0025
-5.71292e-10
0.0025
-4.1287e-10
0.0025
-2.96497e-10
0.0025
-2.11062e-10
0.0025
-1.48394e-10
0.0025
-1.0248e-10
0.0025
-6.889e-11
0.0025
-4.43632e-11
0.0025
-2.64965e-11
0.0025
-1.35259e-11
0.0025
-4.14996e-12
0.0025
2.58466e-12
0.0025
7.38283e-12
0.0025
1.07592e-11
0.0025
1.30956e-11
0.0025
1.46694e-11
0.0025
1.56879e-11
0.0025
1.63e-11
0.0025
1.66185e-11
0.0025
1.67232e-11
0.0025
1.66753e-11
0.0025
1.65176e-11
0.0025
1.62833e-11
0.0025
1.59951e-11
0.0025
1.56712e-11
0.0025
1.53235e-11
0.0025
1.49619e-11
0.0025
1.45925e-11
0.0025
1.42208e-11
0.0025
1.385e-11
0.0025
1.34828e-11
0.0025
1.31209e-11
0.0025
1.27656e-11
0.0025
1.24179e-11
0.0025
1.2078e-11
0.0025
1.17467e-11
0.0025
1.14237e-11
0.0025
1.11095e-11
0.0025
1.08035e-11
0.0025
1.05064e-11
0.0025
1.0217e-11
0.0025
9.93626e-12
0.0025
9.66268e-12
0.0025
9.39746e-12
0.0025
9.13881e-12
0.0025
8.88814e-12
0.0025
8.64345e-12
0.0025
8.40635e-12
0.0025
8.17465e-12
0.0025
7.95016e-12
0.0025
7.73051e-12
0.0025
7.51772e-12
0.0025
7.30923e-12
0.0025
7.10729e-12
0.0025
6.90916e-12
0.0025
6.71726e-12
0.0025
6.52874e-12
0.0025
6.34619e-12
0.0025
6.1666e-12
0.0025
5.99273e-12
0.0025
5.82147e-12
0.0025
5.65569e-12
0.0025
5.49218e-12
0.0025
5.33396e-12
0.0025
5.17774e-12
0.0025
5.02661e-12
0.0025
4.8772e-12
0.0025
4.73273e-12
0.0025
4.58975e-12
0.0025
4.45154e-12
0.0025
4.31466e-12
0.0025
4.18237e-12
0.0025
4.05136e-12
0.0025
3.92461e-12
0.0025
3.79958e-12
0.0025
3.6775e-12
0.0025
3.55984e-12
0.0025
3.43927e-12
0.0025
3.33706e-12
0.0025
3.20195e-12
0.0025
3.15728e-12
0.0025
2.92493e-12
0.0025
3.14035e-12
2.5118e-12
0.00250266
-1.09987e-05
0.0025107
-3.31822e-05
0.00252455
-5.68318e-05
0.00254485
-8.25159e-05
0.00257234
-0.000110413
0.0026076
-0.0001397
0.00265082
-0.000168645
0.00270112
-0.000193408
0.0027564
-0.00020977
0.00281271
-0.000212215
0.00286506
-0.000197432
0.00290974
-0.000168669
0.0029437
-0.000128255
0.00296443
-7.85907e-05
0.00297039
-2.34715e-05
0.00296126
3.25858e-05
0.00293827
8.41389e-05
0.00290413
0.000126083
0.00286253
0.0001551
0.00281731
0.00017041
0.00277181
0.000173415
0.00272855
0.000166831
0.00268913
0.000153777
0.00265436
0.00013712
0.00262444
0.000119143
0.00259917
0.000101459
0.00257813
8.50736e-05
0.00256079
7.05262e-05
0.00254657
5.80115e-05
0.00253496
4.74602e-05
0.00252553
3.85723e-05
0.00251796
3.08591e-05
0.00251208
2.37618e-05
0.00250783
1.6863e-05
0.00250518
1.01121e-05
0.00250399
3.91981e-06
0.00250396
-9.84064e-07
0.00250464
-3.89664e-06
0.00250548
-4.51984e-06
0.00250601
-3.1575e-06
0.00250595
-6.22003e-07
0.00250527
2.08737e-06
0.0025041
4.15067e-06
0.00250272
5.15663e-06
0.00250137
5.11951e-06
0.00250024
4.33302e-06
0.00249941
3.17649e-06
0.00249891
1.97107e-06
0.00249869
9.21573e-07
0.00249869
1.23653e-07
0.00249882
-4.03242e-07
0.00249902
-6.85168e-07
0.00249924
-7.73188e-07
0.00249943
-7.29295e-07
0.00249959
-6.14379e-07
0.00249971
-4.78058e-07
0.00249979
-3.52715e-07
0.00249985
-2.53236e-07
0.00249989
-1.8137e-07
0.00249991
-1.3189e-07
0.00249994
-9.7839e-08
0.00249995
-7.3519e-08
0.00249996
-5.53329e-08
0.00249997
-4.13697e-08
0.00249998
-3.06492e-08
0.00249999
-2.25495e-08
0.00249999
-1.65421e-08
0.00249999
-1.21401e-08
0.00249999
-8.92452e-09
0.0025
-6.56809e-09
0.0025
-4.83305e-09
0.0025
-3.55192e-09
0.0025
-2.6059e-09
0.0025
-1.90844e-09
0.0025
-1.39515e-09
0.0025
-1.0178e-09
0.0025
-7.40476e-10
0.0025
-5.36685e-10
0.0025
-3.86956e-10
0.0025
-2.77003e-10
0.0025
-1.96326e-10
0.0025
-1.37195e-10
0.0025
-9.39099e-11
0.0025
-6.22782e-11
0.0025
-3.92099e-11
0.0025
-2.24355e-11
0.0025
-1.02827e-11
0.0025
-1.52447e-12
0.0025
4.74409e-12
0.0025
9.18581e-12
0.0025
1.22904e-11
0.0025
1.44155e-11
0.0025
1.5826e-11
0.0025
1.67146e-11
0.0025
1.72247e-11
0.0025
1.74598e-11
0.0025
1.74976e-11
0.0025
1.73935e-11
0.0025
1.71895e-11
0.0025
1.69152e-11
0.0025
1.65931e-11
0.0025
1.62392e-11
0.0025
1.58654e-11
0.0025
1.54803e-11
0.0025
1.509e-11
0.0025
1.46991e-11
0.0025
1.43108e-11
0.0025
1.39275e-11
0.0025
1.35505e-11
0.0025
1.31814e-11
0.0025
1.28202e-11
0.0025
1.24683e-11
0.0025
1.21248e-11
0.0025
1.1791e-11
0.0025
1.14657e-11
0.0025
1.11499e-11
0.0025
1.08423e-11
0.0025
1.0544e-11
0.0025
1.02534e-11
0.0025
9.97157e-12
0.0025
9.69684e-12
0.0025
9.43056e-12
0.0025
9.17073e-12
0.0025
8.91891e-12
0.0025
8.67294e-12
0.0025
8.43454e-12
0.0025
8.20142e-12
0.0025
7.97546e-12
0.0025
7.75425e-12
0.0025
7.53982e-12
0.0025
7.32963e-12
0.0025
7.12588e-12
0.0025
6.92594e-12
0.0025
6.73211e-12
0.0025
6.54167e-12
0.0025
6.35707e-12
0.0025
6.17549e-12
0.0025
5.99947e-12
0.0025
5.82615e-12
0.0025
5.65816e-12
0.0025
5.49258e-12
0.0025
5.33212e-12
0.0025
5.1738e-12
0.0025
5.02041e-12
0.0025
4.86893e-12
0.0025
4.7222e-12
0.0025
4.5772e-12
0.0025
4.43675e-12
0.0025
4.29804e-12
0.0025
4.16344e-12
0.0025
4.03119e-12
0.0025
3.90153e-12
0.0025
3.77735e-12
0.0025
3.64915e-12
0.0025
3.54157e-12
0.0025
3.39854e-12
0.0025
3.34778e-12
0.0025
3.11349e-12
0.0025
3.29301e-12
2.70313e-12
0.00250255
-1.35462e-05
0.00251026
-4.08972e-05
0.00252366
-7.02253e-05
0.0025435
-0.00010236
0.00257075
-0.000137664
0.00260629
-0.000175243
0.00265067
-0.000213024
0.00270321
-0.00024595
0.0027619
-0.000268455
0.00282215
-0.00027246
0.00287804
-0.00025333
0.00292568
-0.000216307
0.00296187
-0.000164447
0.00298389
-0.000100607
0.00298999
-2.95672e-05
0.00297968
4.28889e-05
0.00295432
0.000109501
0.00291703
0.000163376
0.00287204
0.000200088
0.0028237
0.000218745
0.0027757
0.000221418
0.00273066
0.00021187
0.00269016
0.000194284
0.00265486
0.000172413
0.00262483
0.000149175
0.00259972
0.000126572
0.00257897
0.000105817
0.00256198
8.75243e-05
0.00254811
7.18819e-05
0.0025368
5.87612e-05
0.00252762
4.77617e-05
0.00252021
3.8262e-05
0.00251441
2.95607e-05
0.00251015
2.11311e-05
0.00250736
1.28948e-05
0.00250594
5.33886e-06
0.00250561
-6.53783e-07
0.00250594
-4.22602e-06
0.00250643
-5.00986e-06
0.00250665
-3.37152e-06
0.00250633
-3.01101e-07
0.00250543
2.97934e-06
0.00250412
5.46425e-06
0.00250263
6.64686e-06
0.00250121
6.54167e-06
0.00250003
5.50772e-06
0.0024992
4.01285e-06
0.00249871
2.45809e-06
0.00249853
1.10477e-06
0.00249857
7.97443e-08
0.00249876
-5.88033e-07
0.002499
-9.31877e-07
0.00249925
-1.02137e-06
0.00249946
-9.42012e-07
0.00249963
-7.7693e-07
0.00249974
-5.92086e-07
0.00249982
-4.28518e-07
0.00249987
-3.03062e-07
0.0024999
-2.15313e-07
0.00249992
-1.56512e-07
0.00249994
-1.16645e-07
0.00249996
-8.81325e-08
0.00249997
-6.65523e-08
0.00249998
-4.97774e-08
0.00249998
-3.68159e-08
0.00249999
-2.7024e-08
0.00249999
-1.97907e-08
0.00249999
-1.45155e-08
0.0025
-1.06742e-08
0.0025
-7.86134e-09
0.0025
-5.78844e-09
0.0025
-4.25594e-09
0.0025
-3.12348e-09
0.0025
-2.28854e-09
0.0025
-1.67429e-09
0.0025
-1.22288e-09
0.0025
-8.9119e-10
0.0025
-6.47427e-10
0.0025
-4.68295e-10
0.0025
-3.36723e-10
0.0025
-2.40159e-10
0.0025
-1.69362e-10
0.0025
-1.17516e-10
0.0025
-7.96048e-11
0.0025
-5.19323e-11
0.0025
-3.17838e-11
0.0025
-1.71603e-11
0.0025
-6.59427e-12
0.0025
9.95913e-13
0.0025
6.40303e-12
0.0025
1.02121e-11
0.0025
1.28508e-11
0.0025
1.46354e-11
0.0025
1.57962e-11
0.0025
1.65043e-11
0.0025
1.68833e-11
0.0025
1.70257e-11
0.0025
1.69978e-11
0.0025
1.68493e-11
0.0025
1.66156e-11
0.0025
1.63235e-11
0.0025
1.59918e-11
0.0025
1.56349e-11
0.0025
1.52625e-11
0.0025
1.48824e-11
0.0025
1.44996e-11
0.0025
1.41181e-11
0.0025
1.37406e-11
0.0025
1.33688e-11
0.0025
1.30043e-11
0.0025
1.26476e-11
0.0025
1.22998e-11
0.0025
1.19604e-11
0.0025
1.16303e-11
0.0025
1.13089e-11
0.0025
1.09968e-11
0.0025
1.06928e-11
0.0025
1.03981e-11
0.0025
1.0111e-11
0.0025
9.8326e-12
0.0025
9.56134e-12
0.0025
9.29837e-12
0.0025
9.04191e-12
0.0025
8.79329e-12
0.0025
8.55058e-12
0.0025
8.31527e-12
0.0025
8.08529e-12
0.0025
7.8623e-12
0.0025
7.64412e-12
0.0025
7.43254e-12
0.0025
7.22528e-12
0.0025
7.02428e-12
0.0025
6.82715e-12
0.0025
6.63595e-12
0.0025
6.44822e-12
0.0025
6.26614e-12
0.0025
6.08716e-12
0.0025
5.91356e-12
0.0025
5.74275e-12
0.0025
5.57708e-12
0.0025
5.41392e-12
0.0025
5.2557e-12
0.0025
5.09971e-12
0.0025
4.94847e-12
0.0025
4.79924e-12
0.0025
4.65458e-12
0.0025
4.51177e-12
0.0025
4.37331e-12
0.0025
4.23675e-12
0.0025
4.10408e-12
0.0025
3.97398e-12
0.0025
3.84617e-12
0.0025
3.72422e-12
0.0025
3.59779e-12
0.0025
3.49213e-12
0.0025
3.35214e-12
0.0025
3.29716e-12
0.0025
3.08027e-12
0.0025
3.20718e-12
2.70287e-12
0.00250239
-1.59405e-05
0.00250967
-4.81692e-05
0.00252242
-8.29749e-05
0.00254159
-0.000121532
0.00256841
-0.000164486
0.00260417
-0.000211004
0.0026499
-0.000258755
0.00270529
-0.000301333
0.00276846
-0.000331634
0.00283391
-0.000337904
0.00289439
-0.000313808
0.00294581
-0.000267734
0.0029849
-0.000203532
0.00300862
-0.000124329
0.00301492
-3.58698e-05
0.00300309
5.47194e-05
0.0029746
0.000137991
0.00293314
0.000204842
0.00288371
0.000249518
0.00283134
0.000271108
0.00278015
0.000272612
0.0027329
0.000259122
0.00269109
0.000236096
0.00265521
0.000208287
0.00262511
0.000179273
0.00260025
0.000151434
0.00257992
0.000126146
0.00256339
0.000104055
0.00254997
8.53014e-05
0.00253906
6.96687e-05
0.00253019
5.66382e-05
0.002523
4.54485e-05
0.00251731
3.52555e-05
0.00251302
2.54223e-05
0.00251007
1.58353e-05
0.00250837
7.04278e-06
0.00250766
6.09226e-08
0.00250755
-4.1155e-06
0.00250759
-5.05509e-06
0.0025074
-3.18023e-06
0.00250674
3.57371e-07
0.00250559
4.13204e-06
0.00250409
6.96779e-06
0.00250246
8.26931e-06
0.00250095
8.05029e-06
0.00249973
6.72982e-06
0.00249888
4.85985e-06
0.00249842
2.92106e-06
0.00249829
1.23522e-06
0.00249841
-3.43088e-08
0.00249866
-8.4594e-07
0.00249897
-1.24141e-06
0.00249927
-1.31376e-06
0.0024995
-1.17847e-06
0.00249967
-9.46213e-07
0.00249978
-7.01996e-07
0.00249985
-4.95482e-07
0.00249989
-3.43718e-07
0.00249992
-2.41947e-07
0.00249993
-1.76147e-07
0.00249995
-1.32323e-07
0.00249996
-1.00783e-07
0.00249997
-7.64273e-08
0.00249998
-5.71579e-08
0.00249999
-4.2154e-08
0.00249999
-3.0836e-08
0.00249999
-2.25296e-08
0.00249999
-1.65136e-08
0.0025
-1.21507e-08
0.0025
-8.95758e-09
0.0025
-6.60049e-09
0.0025
-4.85456e-09
0.0025
-3.56316e-09
0.0025
-2.61116e-09
0.0025
-1.91123e-09
0.0025
-1.39715e-09
0.0025
-1.0195e-09
0.0025
-7.41937e-10
0.0025
-5.37929e-10
0.0025
-3.88055e-10
0.0025
-2.78044e-10
0.0025
-1.97374e-10
0.0025
-1.38284e-10
0.0025
-9.50564e-11
0.0025
-6.34841e-11
0.0025
-4.04752e-11
0.0025
-2.37542e-11
0.0025
-1.16501e-11
0.0025
-2.93211e-12
0.0025
3.30246e-12
0.0025
7.71905e-12
0.0025
1.08047e-11
0.0025
1.29187e-11
0.0025
1.43235e-11
0.0025
1.5213e-11
0.0025
1.57282e-11
0.0025
1.59736e-11
0.0025
1.60248e-11
0.0025
1.59381e-11
0.0025
1.57536e-11
0.0025
1.55015e-11
0.0025
1.52034e-11
0.0025
1.48751e-11
0.0025
1.4528e-11
0.0025
1.41706e-11
0.0025
1.38087e-11
0.0025
1.34466e-11
0.0025
1.30874e-11
0.0025
1.27332e-11
0.0025
1.23855e-11
0.0025
1.20451e-11
0.0025
1.1713e-11
0.0025
1.1389e-11
0.0025
1.10739e-11
0.0025
1.0767e-11
0.0025
1.04691e-11
0.0025
1.01791e-11
0.0025
9.89783e-12
0.0025
9.62401e-12
0.0025
9.35851e-12
0.0025
9.0999e-12
0.0025
8.84918e-12
0.0025
8.60478e-12
0.0025
8.36781e-12
0.0025
8.13659e-12
0.0025
7.91237e-12
0.0025
7.69337e-12
0.0025
7.48094e-12
0.0025
7.27322e-12
0.0025
7.07169e-12
0.0025
6.87441e-12
0.0025
6.683e-12
0.0025
6.4954e-12
0.0025
6.31334e-12
0.0025
6.13472e-12
0.0025
5.96136e-12
0.0025
5.7911e-12
0.0025
5.62583e-12
0.0025
5.46336e-12
0.0025
5.30566e-12
0.0025
5.15048e-12
0.0025
4.99987e-12
0.0025
4.85155e-12
0.0025
4.70761e-12
0.0025
4.56573e-12
0.0025
4.42806e-12
0.0025
4.29232e-12
0.0025
4.16058e-12
0.0025
4.03084e-12
0.0025
3.90463e-12
0.0025
3.78112e-12
0.0025
3.65952e-12
0.0025
3.54387e-12
0.0025
3.42366e-12
0.0025
3.3231e-12
0.0025
3.19145e-12
0.0025
3.13344e-12
0.0025
2.94098e-12
0.0025
3.01813e-12
2.60502e-12
0.00250219
-1.81331e-05
0.00250888
-5.48547e-05
0.00252075
-9.4851e-05
0.00253896
-0.000139742
0.00256507
-0.000190587
0.00260087
-0.000246806
0.00264807
-0.000305954
0.0027069
-0.000360162
0.00277584
-0.000400582
0.00284797
-0.000410034
0.00291416
-0.000379998
0.00297026
-0.00032383
0.00301294
-0.000246213
0.00303884
-0.000150225
0.00304546
-4.24946e-05
0.00303173
6.84544e-05
0.00299924
0.000170473
0.00295244
0.00025165
0.00289736
0.000304597
0.00283995
0.000328516
0.00278485
0.000327714
0.00273497
0.000309003
0.00269168
0.000279387
0.00265522
0.000244744
0.00262515
0.000209342
0.00260068
0.000175902
0.00258092
0.000145908
0.002565
0.000119975
0.00255215
9.81483e-05
0.00254174
8.00858e-05
0.00253324
6.51292e-05
0.00252632
5.23702e-05
0.00252076
4.08219e-05
0.00251644
2.97379e-05
0.00251331
1.89627e-05
0.00251127
9.08823e-06
0.00251009
1.23992e-06
0.00250944
-3.47095e-06
0.00250895
-4.55885e-06
0.00250826
-2.49553e-06
0.0025072
1.42553e-06
0.00250573
5.59926e-06
0.002504
8.6987e-06
0.00250222
1.00487e-05
0.00250061
9.6605e-06
0.00249933
8.00589e-06
0.00249848
5.71511e-06
0.00249805
3.3484e-06
0.00249799
1.29362e-06
0.0024982
-2.41897e-07
0.00249855
-1.19972e-06
0.00249894
-1.63172e-06
0.00249929
-1.66137e-06
0.00249955
-1.44285e-06
0.00249973
-1.12148e-06
0.00249983
-8.04565e-07
0.00249989
-5.49982e-07
0.00249992
-3.72369e-07
0.00249993
-2.59561e-07
0.00249995
-1.9e-07
0.00249996
-1.44603e-07
0.00249997
-1.11397e-07
0.00249998
-8.49054e-08
0.00249998
-6.34271e-08
0.00249999
-4.65606e-08
0.00249999
-3.38899e-08
0.00249999
-2.46853e-08
0.0025
-1.8084e-08
0.0025
-1.33211e-08
0.0025
-9.83456e-09
0.0025
-7.25301e-09
0.0025
-5.33533e-09
0.0025
-3.91524e-09
0.0025
-2.86881e-09
0.0025
-2.10028e-09
0.0025
-1.53631e-09
0.0025
-1.12212e-09
0.0025
-8.1767e-10
0.0025
-5.93839e-10
0.0025
-4.29374e-10
0.0025
-3.08646e-10
0.0025
-2.20114e-10
0.0025
-1.55259e-10
0.0025
-1.07803e-10
0.0025
-7.31293e-11
0.0025
-4.78449e-11
0.0025
-2.94547e-11
0.0025
-1.61259e-11
0.0025
-6.50861e-12
0.0025
3.87188e-13
0.0025
5.291e-12
0.0025
8.73684e-12
0.0025
1.11185e-11
0.0025
1.27234e-11
0.0025
1.3764e-11
0.0025
1.43946e-11
0.0025
1.47296e-11
0.0025
1.48516e-11
0.0025
1.48221e-11
0.0025
1.46851e-11
0.0025
1.44734e-11
0.0025
1.42104e-11
0.0025
1.39135e-11
0.0025
1.35951e-11
0.0025
1.32642e-11
0.0025
1.29274e-11
0.0025
1.25891e-11
0.0025
1.22528e-11
0.0025
1.19206e-11
0.0025
1.15943e-11
0.0025
1.12747e-11
0.0025
1.09628e-11
0.0025
1.06586e-11
0.0025
1.03627e-11
0.0025
1.00746e-11
0.0025
9.79498e-12
0.0025
9.52292e-12
0.0025
9.25903e-12
0.0025
9.00228e-12
0.0025
8.75333e-12
0.0025
8.51099e-12
0.0025
8.276e-12
0.0025
8.04708e-12
0.0025
7.82507e-12
0.0025
7.60858e-12
0.0025
7.39859e-12
0.0025
7.19362e-12
0.0025
6.99473e-12
0.0025
6.80038e-12
0.0025
6.61174e-12
0.0025
6.42722e-12
0.0025
6.24807e-12
0.0025
6.07263e-12
0.0025
5.90227e-12
0.0025
5.73525e-12
0.0025
5.57305e-12
0.0025
5.41388e-12
0.0025
5.25928e-12
0.0025
5.10741e-12
0.0025
4.9599e-12
0.0025
4.81487e-12
0.0025
4.67401e-12
0.0025
4.5354e-12
0.0025
4.40079e-12
0.0025
4.26823e-12
0.0025
4.13951e-12
0.0025
4.01272e-12
0.0025
3.88955e-12
0.0025
3.76841e-12
0.0025
3.65045e-12
0.0025
3.53521e-12
0.0025
3.4216e-12
0.0025
3.31371e-12
0.0025
3.20154e-12
0.0025
3.10713e-12
0.0025
2.98588e-12
0.0025
2.92589e-12
0.0025
2.75836e-12
0.0025
2.7962e-12
2.46219e-12
0.00250193
-2.00668e-05
0.00250786
-6.07832e-05
0.00251858
-0.00010557
0.00253545
-0.000156612
0.00256041
-0.000215545
0.00259592
-0.00028232
0.00264457
-0.000354603
0.00270746
-0.000423048
0.00278373
-0.00047685
0.00286433
-0.00049064
0.00293746
-0.000453126
0.00299915
-0.000385523
0.00304623
-0.000293289
0.00307488
-0.000178876
0.00308199
-4.96096e-05
0.00306591
8.45395e-05
0.00302839
0.000207991
0.00297485
0.000305195
0.00291273
0.000366715
0.00284915
0.000392093
0.00278939
0.000387472
0.00273649
0.000361902
0.00269161
0.000324268
0.00265464
0.000281718
0.00262476
0.000239222
0.00260088
0.000199783
0.00258187
0.000164911
0.00256673
0.000135115
0.0025546
0.000110284
0.00254478
8.99044e-05
0.00253675
7.31558e-05
0.00253015
5.8974e-05
0.00252474
4.6232e-05
0.0025204
3.40762e-05
0.00251706
2.23031e-05
0.00251462
1.15291e-05
0.0025129
2.96103e-06
0.00251163
-2.19957e-06
0.00251049
-3.42551e-06
0.00250923
-1.23065e-06
0.00250768
2.97346e-06
0.00250585
7.43244e-06
0.00250385
1.06924e-05
0.00250189
1.2009e-05
0.00250017
1.13875e-05
0.00249883
9.34302e-06
0.00249797
6.57613e-06
0.00249759
3.72699e-06
0.00249762
1.25774e-06
0.00249795
-5.6998e-07
0.00249843
-1.67514e-06
0.00249892
-2.12232e-06
0.00249933
-2.07494e-06
0.00249963
-1.73772e-06
0.0024998
-1.29974e-06
0.00249989
-8.94472e-07
0.00249993
-5.86911e-07
0.00249994
-3.85415e-07
0.00249995
-2.66233e-07
0.00249996
-1.97362e-07
0.00249997
-1.53387e-07
0.00249998
-1.20041e-07
0.00249998
-9.20043e-08
0.00249999
-6.85205e-08
0.00249999
-4.99297e-08
0.00249999
-3.6084e-08
0.0025
-2.61829e-08
0.0025
-1.91798e-08
0.0025
-1.41575e-08
0.0025
-1.04744e-08
0.0025
-7.73296e-09
0.0025
-5.68787e-09
0.0025
-4.17143e-09
0.0025
-3.05513e-09
0.0025
-2.23673e-09
0.0025
-1.63688e-09
0.0025
-1.19649e-09
0.0025
-8.72682e-10
0.0025
-6.34533e-10
0.0025
-4.59518e-10
0.0025
-3.3105e-10
0.0025
-2.36853e-10
0.0025
-1.6785e-10
0.0025
-1.17356e-10
0.0025
-8.04549e-11
0.0025
-5.35373e-11
0.0025
-3.39495e-11
0.0025
-1.97419e-11
0.0025
-9.47926e-12
0.0025
-2.10815e-12
0.0025
3.14682e-12
0.0025
6.8536e-12
0.0025
9.43046e-12
0.0025
1.1183e-11
0.0025
1.23367e-11
0.0025
1.30555e-11
0.0025
1.34606e-11
0.0025
1.36398e-11
0.0025
1.36581e-11
0.0025
1.35621e-11
0.0025
1.33866e-11
0.0025
1.31562e-11
0.0025
1.28894e-11
0.0025
1.25992e-11
0.0025
1.2295e-11
0.0025
1.19837e-11
0.0025
1.16701e-11
0.0025
1.13578e-11
0.0025
1.10489e-11
0.0025
1.07453e-11
0.0025
1.04479e-11
0.0025
1.01576e-11
0.0025
9.87447e-12
0.0025
9.59919e-12
0.0025
9.33133e-12
0.0025
9.07134e-12
0.0025
8.81854e-12
0.0025
8.57337e-12
0.0025
8.33498e-12
0.0025
8.10383e-12
0.0025
7.87897e-12
0.0025
7.66092e-12
0.0025
7.44862e-12
0.0025
7.24272e-12
0.0025
7.04207e-12
0.0025
6.84739e-12
0.0025
6.65748e-12
0.0025
6.47316e-12
0.0025
6.29315e-12
0.0025
6.11838e-12
0.0025
5.94753e-12
0.0025
5.78158e-12
0.0025
5.61917e-12
0.0025
5.46139e-12
0.0025
5.30682e-12
0.0025
5.15661e-12
0.0025
5.00933e-12
0.0025
4.86617e-12
0.0025
4.72567e-12
0.0025
4.5891e-12
0.0025
4.45494e-12
0.0025
4.32454e-12
0.0025
4.19635e-12
0.0025
4.07175e-12
0.0025
3.94918e-12
0.0025
3.83004e-12
0.0025
3.71284e-12
0.0025
3.59887e-12
0.0025
3.48693e-12
0.0025
3.3778e-12
0.0025
3.27138e-12
0.0025
3.16633e-12
0.0025
3.06666e-12
0.0025
2.96316e-12
0.0025
2.87523e-12
0.0025
2.76489e-12
0.0025
2.70421e-12
0.0025
2.55947e-12
0.0025
2.56932e-12
2.29865e-12
0.00250161
-2.16752e-05
0.00250658
-6.57543e-05
0.0025158
-0.000114788
0.00253084
-0.00017166
0.00255407
-0.000238768
0.00258876
-0.000317011
0.00263863
-0.000404477
0.00270617
-0.000490587
0.0027917
-0.000562374
0.00288299
-0.000581931
0.00296438
-0.000534516
0.0030326
-0.000453746
0.00308492
-0.000345603
0.00311702
-0.000210981
0.00312494
-5.75223e-05
0.00310606
0.000103413
0.00306227
0.000251779
0.00300029
0.000367177
0.00292946
0.000437547
0.00285842
0.00046313
0.00279323
0.000452669
0.00273698
0.000418152
0.00269049
0.000370753
0.00265317
0.000319041
0.00262372
0.000268666
0.00260069
0.000222815
0.00258269
0.000182917
0.00256852
0.000149277
0.00255726
0.00012155
0.00254816
9.90068e-05
0.00254068
8.06337e-05
0.00253445
6.52043e-05
0.00252922
5.14555e-05
0.00252487
3.84327e-05
0.00252129
2.58797e-05
0.0025184
1.44175e-05
0.00251606
5.30159e-06
0.00251407
-2.07856e-07
0.0025122
-1.55842e-06
0.00251027
7.01348e-07
0.00250817
5.07029e-06
0.00250593
9.68116e-06
0.00250364
1.29825e-05
0.00250147
1.41728e-05
0.00249961
1.32465e-05
0.00249821
1.07483e-05
0.00249734
7.43917e-06
0.00249703
4.04047e-06
0.00249719
1.10019e-06
0.00249767
-1.05134e-06
0.0024983
-2.30279e-06
0.00249891
-2.73522e-06
0.0024994
-2.56515e-06
0.00249973
-2.06366e-06
0.0024999
-1.47526e-06
0.00249997
-9.63926e-07
0.00249998
-5.99536e-07
0.00249998
-3.7855e-07
0.00249997
-2.60001e-07
0.00249997
-1.97798e-07
0.00249998
-1.58883e-07
0.00249998
-1.26991e-07
0.00249999
-9.78422e-08
0.00249999
-7.23996e-08
0.0025
-5.21522e-08
0.0025
-3.7312e-08
0.0025
-2.69504e-08
0.0025
-1.9762e-08
0.0025
-1.46409e-08
0.0025
-1.08666e-08
0.0025
-8.0321e-09
0.0025
-5.90476e-09
0.0025
-4.32539e-09
0.0025
-3.16519e-09
0.0025
-2.31698e-09
0.0025
-1.69634e-09
0.0025
-1.24078e-09
0.0025
-9.0563e-10
0.0025
-6.58993e-10
0.0025
-4.77707e-10
0.0025
-3.44659e-10
0.0025
-2.47131e-10
0.0025
-1.75703e-10
0.0025
-1.23436e-10
0.0025
-8.52376e-11
0.0025
-5.737e-11
0.0025
-3.70868e-11
0.0025
-2.23695e-11
0.0025
-1.17325e-11
0.0025
-4.08511e-12
0.0025
1.37505e-12
0.0025
5.23575e-12
0.0025
7.92951e-12
0.0025
9.77241e-12
0.0025
1.09973e-11
0.0025
1.17738e-11
0.0025
1.22269e-11
0.0025
1.24472e-11
0.0025
1.25016e-11
0.0025
1.24384e-11
0.0025
1.22932e-11
0.0025
1.20913e-11
0.0025
1.18518e-11
0.0025
1.15877e-11
0.0025
1.1309e-11
0.0025
1.10226e-11
0.0025
1.07333e-11
0.0025
1.04447e-11
0.0025
1.01591e-11
0.0025
9.87838e-12
0.0025
9.60339e-12
0.0025
9.335e-12
0.0025
9.07346e-12
0.0025
8.81918e-12
0.0025
8.57194e-12
0.0025
8.332e-12
0.0025
8.0989e-12
0.0025
7.87285e-12
0.0025
7.65323e-12
0.0025
7.4403e-12
0.0025
7.23331e-12
0.0025
7.03258e-12