/*--------------------------------*- C++ -*----------------------------------*\
  =========                 |
  \\      /  F ield         | OpenFOAM: The Open Source CFD Toolbox
   \\    /   O peration     | Website:  https://openfoam.org
    \\  /    A nd           | Version:  11
     \\/     M anipulation  |
\*---------------------------------------------------------------------------*/
FoamFile
{
    format      ascii;
    class       volScalarField;
    location    "16.339352";
    object      p;
}
// * * * * * * * * * * * * * * * * * * * * * * * * * * * * * * * * * * * * * //

dimensions      [0 2 -2 0 0 0 0];

internalField   nonuniform List<scalar> 
7132
(
0.0791599
0.0778018
0.0731976
0.0666143
0.0576184
0.046214
0.0326456
0.0174555
0.0016023
-0.0132615
-0.0255828
-0.0332245
-0.0359625
-0.0338726
-0.0281365
-0.0205039
-0.0123886
-0.00480822
0.00203488
0.00850745
0.0150097
0.0216035
0.0280519
0.0340616
0.0394503
0.0442063
0.0483821
0.051971
0.0547414
0.0562202
0.0560259
0.0543842
0.052285
0.0508391
0.0505583
0.0511966
0.0521966
0.0531189
0.0538104
0.0543742
0.0550078
0.0558058
0.0564684
0.0562672
0.0545588
0.0515557
0.048481
0.046656
0.0465309
0.047556
0.0488344
0.049742
0.0501144
0.0501411
0.0501521
0.0503545
0.0505106
0.0499168
0.0479402
0.0448015
0.0417362
0.0401105
0.040389
0.0419348
0.0436747
0.0448475
0.0452591
0.045138
0.0448686
0.044684
0.0443881
0.0434034
0.0412761
0.0382997
0.0355773
0.0342834
0.0348197
0.0366038
0.0385899
0.0399684
0.0404905
0.040365
0.0399698
0.039516
0.0388342
0.0375012
0.0353002
0.0326429
0.0304811
0.0296899
0.030489
0.0323416
0.0343541
0.0358014
0.036414
0.0363408
0.0359071
0.0353013
0.0344092
0.0329598
0.0309069
0.0286985
0.0271149
0.0267728
0.0277403
0.0295243
0.0313939
0.0327569
0.0333671
0.0333152
0.0328556
0.0321557
0.0311606
0.0297128
0.0278544
0.0260139
0.0248412
0.0248044
0.0259038
0.0276887
0.0295303
0.0309162
0.0316079
0.0316366
0.0311789
0.0303673
0.0291775
0.0275113
0.0254401
0.0233739
0.0219422
0.0216403
0.0225409
0.024261
0.0261855
0.0277532
0.0286282
0.0287219
0.0281095
0.0268883
0.0250605
0.0225346
0.0192799
0.0155249
0.0118104
0.00879022
0.00694458
0.00632753
0.0066613
0.00735567
0.00803625
0.00812658
0.00792885
0.00667813
0.00592519
0.00337299
0.00352237
-0.000678928
0.00287897
-0.00498661
0.0797027
0.0783481
0.0737582
0.0671774
0.0581575
0.0466747
0.0329476
0.0174932
0.00127827
-0.0139901
-0.0266734
-0.0344305
-0.0371034
-0.0347456
-0.028637
-0.0206666
-0.0123242
-0.00467845
0.00210741
0.00848516
0.0149278
0.0215158
0.027996
0.0340551
0.0394979
0.0443086
0.0485363
0.0521711
0.0549722
0.0564398
0.0561641
0.0543754
0.052121
0.0505784
0.0502806
0.0509549
0.0520077
0.0529812
0.053717
0.0543195
0.0549855
0.0558138
0.0564972
0.056281
0.0544939
0.0513574
0.0481538
0.0462692
0.0461698
0.047274
0.0486394
0.0496176
0.0500393
0.0500969
0.0501239
0.0503328
0.0504794
0.0498436
0.0477781
0.0445169
0.0413433
0.0396753
0.0399933
0.0416355
0.0434843
0.0447465
0.045217
0.0451263
0.0448661
0.0446754
0.0443503
0.0433001
0.0410701
0.0379794
0.0351742
0.0338612
0.0344454
0.0363245
0.0384197
0.0398936
0.0404814
0.0403888
0.0400004
0.039532
0.0388071
0.0373948
0.0350872
0.0323278
0.0301071
0.0293199
0.0301782
0.0321219
0.0342311
0.0357619
0.036434
0.0363917
0.0359616
0.0353337
0.0343894
0.0328571
0.0307057
0.0284131
0.0267907
0.0264665
0.0274979
0.0293678
0.031322
0.0327538
0.0334115
0.0333834
0.0329231
0.0321962
0.0311437
0.0296127
0.0276628
0.0257503
0.0245501
0.0245383
0.025704
0.0275743
0.0294973
0.0309475
0.0316819
0.0317315
0.0312716
0.0304306
0.0291792
0.027424
0.0252548
0.0231092
0.0216421
0.0213594
0.022326
0.0241396
0.0261607
0.0278097
0.0287423
0.0288682
0.0282628
0.0270204
0.0251366
0.022519
0.0191496
0.0152832
0.0114909
0.00844806
0.00663903
0.00610462
0.0065438
0.0073402
0.00810011
0.00823364
0.00804708
0.00676923
0.00598616
0.00335857
0.00350963
-0.000821788
0.00288492
-0.00523829
0.0807863
0.0794407
0.0748815
0.0683112
0.0592492
0.0476157
0.0335747
0.0175879
0.000635831
-0.0154678
-0.0289021
-0.0368896
-0.0394218
-0.0364962
-0.0296033
-0.0209309
-0.0121275
-0.00436603
0.0022724
0.00843216
0.0147409
0.0213156
0.0278625
0.0340231
0.0395756
0.0444963
0.0488295
0.0525597
0.0554279
0.056877
0.0564348
0.0543402
0.0517624
0.050021
0.0496936
0.0504472
0.0516108
0.0526874
0.0535102
0.054187
0.0549168
0.0558064
0.0565338
0.056288
0.0543382
0.0509234
0.0474506
0.045444
0.0454043
0.0466788
0.0482268
0.0493491
0.0498678
0.0499833
0.0500408
0.0502631
0.0503928
0.0496706
0.0474184
0.0439009
0.0405027
0.0387498
0.0391546
0.0410008
0.043077
0.0445228
0.0451101
0.0450756
0.044831
0.0446292
0.0442493
0.0430703
0.0406343
0.0373129
0.0343405
0.0329901
0.0336729
0.0357456
0.0380616
0.039726
0.0404422
0.0404124
0.0400363
0.0395405
0.0387319
0.0371617
0.0346401
0.0316755
0.0293374
0.0285607
0.0295421
0.0316721
0.0339759
0.0356724
0.0364603
0.0364775
0.0360553
0.0353847
0.0343357
0.0326348
0.0302816
0.0278171
0.0261159
0.0258306
0.0269957
0.0290433
0.0311698
0.0327403
0.0334921
0.0335117
0.0330518
0.0322712
0.0311019
0.0293979
0.0272564
0.025193
0.0239353
0.0239761
0.0252813
0.0273291
0.0294204
0.0310021
0.0318236
0.0319168
0.0314552
0.0305557
0.0291776
0.0272353
0.0248579
0.022543
0.0209999
0.0207575
0.0218636
0.0238728
0.0260946
0.0279116
0.0289626
0.0291553
0.0285663
0.0272825
0.0252842
0.022476
0.0188661
0.0147652
0.0108097
0.00772015
0.00598956
0.00563031
0.00629143
0.00730051
0.00822489
0.0084476
0.00828476
0.00695241
0.00610993
0.0033288
0.00348572
-0.00111573
0.00292252
-0.00579935
0.0824076
0.0810778
0.076573
0.07003
0.0609196
0.049075
0.0345719
0.0177761
-0.000317007
-0.0177443
-0.032378
-0.0407186
-0.0430375
-0.039221
-0.0310961
-0.021324
-0.0117985
-0.00386782
0.00252065
0.00832253
0.0144193
0.0209783
0.0276327
0.0339498
0.039667
0.0447517
0.0492436
0.0531205
0.056096
0.0575185
0.0568098
0.0542206
0.0511227
0.0490745
0.048722
0.0496233
0.0509725
0.052211
0.0531631
0.0539471
0.0547683
0.0557461
0.0565347
0.0562324
0.0540111
0.0501392
0.0462313
0.0440453
0.0441311
0.0457044
0.0475565
0.048907
0.0495699
0.0497639
0.0498564
0.0500891
0.0501872
0.0493297
0.0467865
0.0428671
0.0391147
0.0372296
0.0377803
0.0399628
0.0424073
0.0441427
0.0449051
0.0449473
0.0447182
0.0444974
0.0440351
0.0426583
0.0399027
0.0362236
0.0329962
0.0315969
0.0324452
0.0348267
0.0374856
0.0394393
0.040346
0.0404072
0.04005
0.0395146
0.0385769
0.0367562
0.033893
0.0306032
0.0280852
0.0273377
0.0285286
0.0309601
0.0335688
0.0355166
0.0364762
0.0365823
0.0361748
0.0354403
0.0342253
0.0322516
0.0295717
0.0268318
0.0250102
0.0247965
0.0261854
0.028521
0.0309203
0.0327046
0.0335995
0.0336927
0.0332367
0.0323736
0.0310158
0.0290286
0.0265732
0.0242652
0.0229187
0.0230511
0.0245872
0.0269224
0.0292817
0.0310694
0.032026
0.0321879
0.0317263
0.0307352
0.0291521
0.0269036
0.0241851
0.0215947
0.0199311
0.0197582
0.0210956
0.0234219
0.0259644
0.0280462
0.0292816
0.0295781
0.0290152
0.0276659
0.025484
0.0223682
0.0183712
0.0138972
0.00968746
0.00653344
0.00493867
0.00486723
0.00588609
0.00723371
0.00841645
0.00877791
0.00864995
0.00723368
0.00629444
0.00327907
0.0034347
-0.00157855
0.00300028
-0.00674648
0.0845603
0.0832563
0.0788391
0.0723549
0.0632089
0.051113
0.0360134
0.0181224
-0.00155703
-0.0208868
-0.0372567
-0.0460613
-0.0480473
-0.0428947
-0.0329551
-0.0216132
-0.0111069
-0.00303261
0.00288047
0.00808698
0.0138563
0.0204064
0.0272326
0.0337797
0.0397265
0.045033
0.0497396
0.0538191
0.056951
0.0583406
0.0572414
0.0539184
0.0500548
0.0475814
0.0472366
0.0483934
0.0500307
0.0515014
0.0526253
0.0535425
0.0544748
0.0555572
0.0564157
0.0560159
0.0533826
0.0488281
0.0442785
0.0418526
0.042171
0.0442295
0.046552
0.0482357
0.0490892
0.0493661
0.0494732
0.049696
0.0497444
0.0487097
0.0457826
0.0413221
0.0370814
0.0350067
0.0357594
0.0384247
0.0414
0.0435456
0.0445426
0.0446738
0.0444555
0.0442121
0.0436426
0.041987
0.0387698
0.0345775
0.0309989
0.029558
0.0306717
0.0335037
0.0366434
0.0389903
0.0401487
0.0403294
0.0400028
0.0394199
0.0383001
0.0361124
0.0327477
0.0289865
0.0262188
0.0255338
0.0270498
0.0299276
0.0329716
0.035265
0.0364551
0.0366827
0.0363026
0.035483
0.0340272
0.0316502
0.0284897
0.0253511
0.0233632
0.0232657
0.0249902
0.0277482
0.0305397
0.0326247
0.0337177
0.0339155
0.0334711
0.032493
0.0308592
0.0284524
0.0255344
0.022871
0.0214014
0.0216741
0.02355
0.0263025
0.0290466
0.031127
0.0322748
0.0325365
0.0320794
0.0309583
0.029075
0.0263763
0.0231593
0.020171
0.0183382
0.0182714
0.0199457
0.0227285
0.0257285
0.0281851
0.0296801
0.0301235
0.0295998
0.0281574
0.0257097
0.0221493
0.0175993
0.0126027
0.00804894
0.00482335
0.00343723
0.00378254
0.00530918
0.00713258
0.00867496
0.00922877
0.00914731
0.00761713
0.00653765
0.00320274
0.0033366
-0.00223204
0.00312502
-0.0081554
0.0872343
0.08597
0.0816865
0.0753121
0.0661699
0.053812
0.038003
0.0187194
-0.00305162
-0.0250082
-0.043801
-0.0532024
-0.0547724
-0.0478118
-0.0353915
-0.0219024
-0.0100593
-0.00183747
0.00334636
0.00767814
0.0129872
0.0195418
0.0266153
0.03347
0.0397075
0.0452864
0.0502574
0.0545942
0.0579393
0.0592885
0.057638
0.0532664
0.0483199
0.0452905
0.045036
0.0466253
0.0486994
0.0504901
0.0518264
0.0528869
0.0539153
0.0550715
0.0559799
0.0554565
0.0523094
0.0468514
0.0414008
0.038617
0.0392856
0.0420833
0.0451063
0.0472585
0.048344
0.0486803
0.0487524
0.0489356
0.0489214
0.047663
0.0442312
0.0390622
0.0342044
0.0319202
0.0329711
0.0362887
0.0399729
0.0426571
0.043946
0.0441747
0.0439681
0.0437079
0.0430015
0.0409543
0.0370853
0.0321844
0.0281485
0.0266992
0.0282256
0.0316935
0.0354768
0.0383278
0.0397997
0.0401328
0.039858
0.0392202
0.0378473
0.0351429
0.0310833
0.0266847
0.0235955
0.0230207
0.025004
0.0285038
0.0321362
0.0348804
0.0363641
0.0367513
0.0364169
0.0354862
0.033695
0.0307556
0.0269362
0.0232646
0.0210673
0.0211427
0.0233331
0.0266688
0.0299888
0.0324714
0.0338238
0.0341624
0.033739
0.0326048
0.030587
0.0275994
0.024052
0.0209168
0.0192946
0.0197673
0.0221063
0.0254208
0.0286788
0.0311472
0.0325483
0.0329445
0.0324952
0.0311948
0.028897
0.0255836
0.0216978
0.0181877
0.0161439
0.0162295
0.0183566
0.0217455
0.0253487
0.0282968
0.0301318
0.0307688
0.030297
0.0287255
0.0259134
0.0217544
0.0164791
0.0108197
0.00585329
0.00257286
0.00148758
0.00238687
0.0045733
0.00700875
0.00900943
0.00980695
0.00977975
0.00810248
0.00682743
0.00308153
0.00314819
-0.0031082
0.00326331
-0.0100547
0.0904142
0.0892083
0.0851208
0.0789327
0.0698692
0.0572822
0.0406869
0.0197093
-0.00472979
-0.0302395
-0.052324
-0.0623912
-0.0633179
-0.053765
-0.0379242
-0.0216257
-0.00816565
-1.38265e-05
0.00389439
0.00686352
0.011533
0.0181623
0.0256287
0.0329115
0.039516
0.0454151
0.0506923
0.0553406
0.0589612
0.0602466
0.057817
0.0519537
0.0454983
0.0417975
0.0418206
0.0441306
0.0468577
0.0490804
0.0506634
0.0518399
0.0528659
0.0539746
0.0548729
0.0542373
0.0505926
0.0441271
0.0375275
0.0341872
0.0352531
0.0390633
0.0430734
0.0458639
0.0472181
0.0475637
0.0475435
0.0476783
0.0476035
0.0460444
0.0419102
0.0357953
0.0301837
0.0277287
0.0292551
0.0334445
0.0380346
0.0413875
0.0430237
0.0433631
0.043184
0.0429206
0.042032
0.039448
0.0347091
0.0288933
0.0242948
0.0228799
0.0249882
0.0293084
0.0339187
0.0373911
0.0392401
0.0397656
0.0395726
0.0388691
0.0371534
0.0337615
0.0288054
0.0236091
0.0201355
0.0197235
0.0223211
0.0266283
0.0310117
0.0343177
0.0361619
0.036752
0.0364842
0.0354092
0.0331715
0.0294967
0.0248387
0.0205086
0.0180686
0.0183788
0.0211673
0.0252387
0.0292275
0.0322089
0.0338862
0.0344052
0.0340109
0.0326694
0.0301447
0.0264061
0.0220651
0.018353
0.0165597
0.0172969
0.0202211
0.0242404
0.028141
0.0310943
0.0328136
0.0333808
0.0329395
0.0314001
0.0285612
0.0244646
0.0197493
0.015611
0.0133292
0.0136183
0.0163094
0.0204451
0.0247893
0.0283416
0.030597
0.0314757
0.0310679
0.029323
0.0260373
0.0211244
0.0149697
0.00854332
0.00313481
-0.00015591
-0.000841438
0.000741908
0.00372202
0.00688601
0.00942756
0.0105106
0.0105388
0.00867774
0.00713822
0.0028846
0.00280929
-0.00423802
0.00334141
-0.0123792
0.094077
0.0929538
0.0891433
0.0832485
0.074384
0.0616592
0.0442533
0.0212849
-0.00649632
-0.0368044
-0.0633664
-0.0742309
-0.0744772
-0.0615629
-0.0411423
-0.0210556
-0.00541862
0.00253012
0.00455406
0.00556513
0.00936845
0.0161553
0.0241824
0.0320178
0.0390495
0.0452895
0.0508843
0.0558824
0.059825
0.0609705
0.057399
0.0494222
0.0408861
0.0364425
0.0371237
0.0406371
0.0443465
0.047151
0.0489985
0.0501919
0.051009
0.0518833
0.0527172
0.0520014
0.0478527
0.0402695
0.0323637
0.0283787
0.029913
0.0349965
0.0402974
0.0439152
0.0455717
0.04587
0.0457211
0.0458288
0.0456895
0.0437063
0.0386273
0.0313132
0.0248127
0.0222434
0.0244617
0.0297878
0.0354989
0.0396474
0.0416837
0.0421581
0.0420372
0.0417819
0.0406483
0.0373724
0.0315641
0.0246634
0.0194201
0.0180766
0.0209176
0.0262966
0.0319138
0.036121
0.0384096
0.0391718
0.0390931
0.0383059
0.0361489
0.0319052
0.0258796
0.0197627
0.0158644
0.0156645
0.0190028
0.02428
0.0295612
0.0335311
0.0358001
0.036637
0.0364538
0.035193
0.0323943
0.0278241
0.0221778
0.0170975
0.0144006
0.0150045
0.0185047
0.0234472
0.0282274
0.0317989
0.0338624
0.0345994
0.0342363
0.0326283
0.0294734
0.02483
0.0195633
0.0152022
0.0132369
0.0143001
0.0179129
0.0227556
0.0274066
0.0309285
0.0330241
0.0337951
0.0333549
0.0315099
0.0280067
0.0229812
0.0173143
0.0124811
0.00995772
0.010501
0.0138463
0.0188387
0.0240319
0.0282793
0.0310232
0.0321864
0.0318487
0.0298794
0.0260124
0.020215
0.0130783
0.00584476
1.96724e-05
-0.00320937
-0.00340444
-0.00103168
0.00283742
0.00680609
0.00993872
0.011329
0.0114007
0.00931384
0.00742332
0.00256316
0.00224353
-0.00564354
0.00324646
-0.0149459
0.0981903
0.0971807
0.0937485
0.0882911
0.0798036
0.0671151
0.0489594
0.0237398
-0.00815471
-0.0449362
-0.0775024
-0.0890306
-0.08811
-0.0704769
-0.0438799
-0.019048
-0.000958456
0.00615613
0.00506005
0.00313442
0.00584061
0.0130624
0.0219964
0.0305972
0.0381316
0.0447045
0.0505796
0.0558593
0.0600437
0.0609772
0.0559638
0.045182
0.0337836
0.0283903
0.0302953
0.0357713
0.0409631
0.0445524
0.0466508
0.0476751
0.0480266
0.0485373
0.0493335
0.0485447
0.0436899
0.0346993
0.0253644
0.0208404
0.0230902
0.0297483
0.0366377
0.0412657
0.0432589
0.0434725
0.0431922
0.0433082
0.043083
0.0405403
0.0343162
0.0256257
0.0181396
0.015487
0.0185659
0.0252701
0.0323026
0.0373585
0.0398422
0.0404835
0.0404576
0.0402144
0.038772
0.0346812
0.0276727
0.019594
0.0136673
0.0124207
0.0160927
0.0226768
0.0294366
0.0344668
0.0372458
0.0382851
0.0383476
0.0374547
0.0347716
0.0295561
0.0223555
0.0152594
0.0109299
0.0109819
0.0151422
0.0214945
0.0277724
0.0324784
0.0352212
0.0363399
0.0362517
0.0347634
0.0313093
0.025731
0.0190099
0.0131425
0.0101993
0.0111435
0.0154283
0.0213272
0.0269778
0.0312012
0.0336963
0.0346796
0.0343425
0.0324104
0.0285252
0.0228723
0.0166086
0.0115763
0.00945851
0.010895
0.0152606
0.0209962
0.0264618
0.0306048
0.0331165
0.0341132
0.0336604
0.0314482
0.0271856
0.0211402
0.0144665
0.0089273
0.00618421
0.00702234
0.0110731
0.0169781
0.0230754
0.0280675
0.0313419
0.0328181
0.0325488
0.0303051
0.0257732
0.0190181
0.0108791
0.00288111
-0.00327798
-0.00635506
-0.00598181
-0.0027691
0.00202281
0.00681392
0.0105416
0.012231
0.0123158
0.00995114
0.00761443
0.00206063
0.00138519
-0.00730821
0.00286515
-0.0174623
0.102709
0.10185
0.0989193
0.0940826
0.086218
0.0738446
0.055116
0.0274594
-0.00946748
-0.0550927
-0.0958355
-0.10813
-0.106263
-0.0822876
-0.0473716
-0.0160386
0.00539094
0.0111428
0.00545771
-0.00064438
0.000654608
0.00865506
0.0189094
0.0284952
0.0365662
0.0433967
0.0493611
0.0544792
0.0584859
0.0592502
0.0532654
0.0398503
0.0247401
0.0173823
0.0206684
0.0290395
0.0364433
0.0411086
0.0434157
0.0440315
0.0437057
0.0438417
0.0446669
0.0437372
0.0379043
0.0272238
0.0163546
0.0114183
0.0146825
0.0232479
0.031999
0.0377904
0.0401542
0.0402755
0.0398872
0.0400433
0.0397075
0.0365174
0.0290615
0.0189487
0.0104546
0.0077228
0.0117333
0.0199534
0.0284371
0.0344716
0.0374325
0.0382685
0.0383673
0.0381353
0.036345
0.0313883
0.0231542
0.0139046
0.00731282
0.00618005
0.0107119
0.0185516
0.0265076
0.0323963
0.0356883
0.0370278
0.0372463
0.0362307
0.0329767
0.0267486
0.0183649
0.010313
0.0055848
0.00591449
0.0109174
0.0183675
0.0256648
0.0311252
0.0343586
0.0357762
0.0357835
0.0340378
0.0298806
0.0232612
0.0154675
0.00884356
0.00569011
0.00700167
0.0120879
0.0189556
0.0254882
0.0303758
0.0333166
0.0345567
0.0342338
0.031938
0.0272734
0.0205851
0.0133361
0.00767013
0.0054381
0.00727231
0.0123997
0.0190288
0.0253078
0.0300742
0.0330089
0.0342352
0.0337514
0.0311323
0.0260714
0.0189979
0.0113481
0.00515526
0.00223879
0.00339487
0.0081502
0.0149528
0.0219368
0.0276635
0.0314691
0.0332628
0.0330499
0.0304962
0.0252664
0.017567
0.00850741
-0.000125885
-0.00648706
-0.00931701
-0.00833347
-0.00428811
0.00138672
0.0069478
0.0112183
0.0131619
0.0132078
0.0105052
0.00763092
0.00133461
0.000215189
-0.00914595
0.00213406
-0.0195875
0.107575
0.106909
0.104623
0.100635
0.0937206
0.0820897
0.0631506
0.0330506
-0.00992351
-0.067733
-0.119429
-0.131583
-0.128107
-0.0955953
-0.0496321
-0.0102804
0.0148309
0.0178012
0.00493417
-0.00730369
-0.00761587
0.00203651
0.0144429
0.0254087
0.0340767
0.0410161
0.0465213
0.0504429
0.0535134
0.0540108
0.0480235
0.03319
0.0143892
0.00408143
0.00818988
0.0200774
0.0304958
0.0366138
0.0390952
0.0390848
0.0379712
0.0377918
0.038702
0.0375474
0.0306036
0.0181799
0.00576966
0.000457994
0.00487065
0.0155678
0.0263694
0.0334194
0.036176
0.0362162
0.0357493
0.035969
0.0355235
0.0316958
0.023073
0.0116396
0.00220545
-0.000609196
0.00429838
0.0140243
0.0239677
0.0309791
0.0344102
0.0354464
0.0356827
0.0354657
0.0333394
0.027568
0.0182086
0.00790422
0.000726835
-0.000280767
0.00506665
0.0140995
0.0231964
0.0299006
0.0336794
0.0353122
0.0356868
0.0345499
0.0307456
0.023569
0.0141076
0.00521165
0.000157662
0.000773742
0.00657143
0.0150444
0.0232875
0.0294462
0.0331381
0.0348423
0.0349385
0.032935
0.0280996
0.0205084
0.0117455
0.00446708
0.00116392
0.0028444
0.00868276
0.0164446
0.0237856
0.0292824
0.0326379
0.034121
0.0337998
0.0311372
0.025721
0.0180708
0.00994084
0.00373838
0.00144489
0.00367222
0.00950624
0.0169468
0.0239566
0.0292831
0.0326033
0.0340398
0.0335096
0.0304854
0.0246675
0.0166577
0.00815454
0.00142097
-0.00160382
-0.00012915
0.005272
0.0128771
0.0206456
0.0270227
0.0313065
0.0333906
0.0332158
0.030348
0.0244622
0.0159363
0.00614182
-0.00292206
-0.00931949
-0.0118155
-0.010223
-0.00541994
0.00101905
0.00722251
0.0119236
0.0140373
0.0139746
0.010877
0.00740537
0.000392564
-0.00119896
-0.0109813
0.00108881
-0.0210208
0.11271
0.112285
0.110802
0.107929
0.102379
0.0920787
0.0735295
0.0412673
-0.00903206
-0.0838052
-0.150585
-0.162757
-0.158162
-0.113486
-0.0521352
-0.00196652
0.028145
0.0266894
0.00308506
-0.0178129
-0.0198352
-0.00728907
0.00832785
0.0211104
0.030404
0.0371166
0.0411738
0.0426397
0.0442678
0.0447282
0.0392475
0.0233458
0.00139784
-0.0116159
-0.00685514
0.00884836
0.0229325
0.0308807
0.0335374
0.0327618
0.0308428
0.0304353
0.03149
0.0301141
0.0221571
0.00820445
-0.00559575
-0.0112987
-0.00582102
0.00698946
0.0198589
0.028166
0.0313037
0.0312674
0.0307387
0.0310423
0.0305406
0.0262091
0.0166427
0.00413268
-0.0060823
-0.00897466
-0.00329317
0.00777468
0.0190388
0.0269238
0.0307583
0.0319616
0.0323263
0.0321442
0.0297634
0.0233443
0.0130884
0.00195137
-0.00567377
-0.00654785
-0.000496887
0.00955351
0.0196158
0.026996
0.0311697
0.0330479
0.0335657
0.0323408
0.0280894
0.0201444
0.009826
0.000282034
-0.00498914
-0.00409531
0.00238199
0.011703
0.0207129
0.0274257
0.0314823
0.033426
0.0336027
0.0313858
0.0259865
0.0176039
0.00807639
0.000311288
-0.00306106
-0.00103689
0.00543708
0.0139273
0.0219091
0.0278813
0.0315659
0.0332505
0.0329266
0.0299479
0.0239003
0.0154677
0.00665065
6.26868e-05
-0.00222995
0.000355661
0.00677503
0.0148586
0.022428
0.0281759
0.0317914
0.0333947
0.0328154
0.0294458
0.0230054
0.014254
0.0051052
-0.0020035
-0.00505688
-0.00328699
0.00264336
0.010875
0.0192374
0.0261004
0.0307485
0.0330609
0.0329065
0.0297686
0.0233571
0.0142276
0.00397441
-0.00525886
-0.0115091
-0.0136029
-0.0114501
-0.00603265
0.00097406
0.00761988
0.0125834
0.0147498
0.0144977
0.0109786
0.00691467
-0.000683592
-0.00269722
-0.0125759
-0.000131837
-0.0215699
0.11802
0.117886
0.117373
0.115921
0.112241
0.10411
0.0869267
0.0534273
-0.00545959
-0.104733
-0.191294
-0.19967
-0.19398
-0.134293
-0.0530984
0.0108619
0.0460883
0.0372855
-0.00213151
-0.0357664
-0.0391328
-0.0210695
-0.000191419
0.0152377
0.025256
0.031176
0.0325586
0.030953
0.0313608
0.0324047
0.0272922
0.00998382
-0.014605
-0.0296703
-0.023977
-0.00435286
0.0137617
0.0238101
0.0266722
0.0250835
0.0223914
0.0218494
0.0231495
0.0217125
0.0130768
-0.00196731
-0.0168495
-0.0229477
-0.0166495
-0.00201385
0.0127137
0.0221419
0.0255854
0.025442
0.0248443
0.0252597
0.0248248
0.0202499
0.0101071
-0.00311179
-0.0138676
-0.016815
-0.0105478
0.00156382
0.0138602
0.0223992
0.0264921
0.0277789
0.0282418
0.0281404
0.0256646
0.0188781
0.0080717
-0.00358396
-0.0114693
-0.0122032
-0.00561768
0.0051736
0.015909
0.0237233
0.0281246
0.0301543
0.0307943
0.0295565
0.0250497
0.0166283
0.00577723
-0.00414658
-0.00949687
-0.00835056
-0.00136954
0.00853252
0.0180278
0.0250596
0.0293198
0.0314203
0.0316746
0.0293433
0.0235884
0.0147006
0.00470164
-0.0033275
-0.00667411
-0.00435688
0.00257472
0.0115417
0.0199047
0.0261377
0.030008
0.0318273
0.0315133
0.0283325
0.0218687
0.0129317
0.00369856
-0.00308116
-0.00530337
-0.0024253
0.00439731
0.0128739
0.0207454
0.0267006
0.0304679
0.0321734
0.0315651
0.0279759
0.0211398
0.0119334
0.00241776
-0.00486042
-0.00785494
-0.00583508
0.00045704
0.00906612
0.0177481
0.0248542
0.0296922
0.0321398
0.0319986
0.0286911
0.021973
0.0125532
0.0021846
-0.00692227
-0.0128391
-0.0144881
-0.0118724
-0.00604968
0.00125737
0.00808414
0.0131001
0.0151855
0.0146713
0.0107609
0.00619908
-0.00174607
-0.00406547
-0.0136843
-0.00133264
-0.0211682
0.123388
0.12359
0.124212
0.124482
0.123267
0.118293
0.103923
0.0708025
0.00129152
-0.13126
-0.247599
-0.252755
-0.245698
-0.16229
-0.0529749
0.0292146
0.071684
0.0484847
-0.0160864
-0.0662961
-0.0683383
-0.0404832
-0.0115208
0.00759711
0.0183724
0.0227432
0.0204335
0.015794
0.0155993
0.0178856
0.013167
-0.00525772
-0.031775
-0.0484807
-0.0419744
-0.0187688
0.00329033
0.0154823
0.0185566
0.0161603
0.0127371
0.0121569
0.0138748
0.0127083
0.00392546
-0.0116098
-0.0271394
-0.0335871
-0.0268006
-0.0108476
0.00529902
0.0155557
0.0191394
0.0188016
0.0181003
0.018673
0.0185011
0.0140528
0.00381391
-0.0096525
-0.0206466
-0.023607
-0.0169827
-0.00422666
0.00868502
0.0175431
0.0216646
0.0228974
0.0234118
0.0234671
0.0211294
0.0143522
0.00343363
-0.00835695
-0.0162781
-0.0168662
-0.00995784
0.00121788
0.0122351
0.0201469
0.0245341
0.026578
0.0273161
0.026185
0.0216957
0.0131837
0.00220585
-0.00777591
-0.0130469
-0.0116877
-0.00442709
0.00571369
0.0153253
0.0223586
0.0265987
0.0287421
0.0290828
0.0267921
0.0209739
0.0119538
0.00184529
-0.00618551
-0.00940258
-0.00686478
0.000296025
0.00941635
0.0178213
0.024028
0.0278887
0.0297564
0.029488
0.0262817
0.0197007
0.0106166
0.0012961
-0.00545132
-0.00753109
-0.00445197
0.00254123
0.0110927
0.018935
0.0248172
0.028547
0.0302751
0.0296869
0.0260664
0.0191403
0.00983717
0.000284744
-0.00692949
-0.00977372
-0.00756844
-0.00112384
0.00755308
0.0162107
0.0232503
0.0280528
0.0305198
0.0304021
0.0270818
0.0203502
0.0110185
0.000917907
-0.00775319
-0.0131602
-0.0143537
-0.01142
-0.00545982
0.00182348
0.00852975
0.0133707
0.0152472
0.0144346
0.0102308
0.00535176
-0.00262641
-0.00509984
-0.0141175
-0.00232682
-0.0198595
0.128679
0.129259
0.131149
0.133464
0.135332
0.134939
0.125472
0.097023
0.0147523
-0.174238
-0.317927
-0.310499
-0.310264
-0.199188
-0.0527002
0.0530114
0.0981727
0.063932
-0.0321584
-0.109143
-0.112447
-0.0689451
-0.0267812
-0.00202537
0.00963501
0.0116773
0.00511001
-0.00228541
-0.00224624
0.00199223
-0.00179589
-0.0203639
-0.0477786
-0.0657732
-0.0590553
-0.0332265
-0.00786344
0.00620318
0.00940361
0.00619205
0.00205893
0.00154405
0.00393837
0.00352127
-0.00474382
-0.0200737
-0.0357352
-0.0424268
-0.0355092
-0.0188851
-0.0019441
0.00869617
0.012151
0.0114661
0.0106025
0.011401
0.0117513
0.00787796
-0.0019057
-0.0151034
-0.0259954
-0.0289105
-0.0221749
-0.00923512
0.00378187
0.0125286
0.0163711
0.0173641
0.0178731
0.0181903
0.0162817
0.00995711
-0.000576856
-0.0120775
-0.0197894
-0.0202272
-0.0132336
-0.00208187
0.00875507
0.0163536
0.0204239
0.0223105
0.0231248
0.0222582
0.0181213
0.00996901
-0.000678335
-0.0103648
-0.0153883
-0.0138669
-0.00658305
0.00340275
0.0126986
0.0193538
0.023302
0.0253531
0.0258031
0.0237539
0.0182273
0.00950689
-0.000306884
-0.00805465
-0.0110357
-0.00836657
-0.00124023
0.00765962
0.0157095
0.0215491
0.0251669
0.0269856
0.0268223
0.0238181
0.0174796
0.00865804
-0.00038591
-0.006861
-0.00872688
-0.00555831
0.00133704
0.00959749
0.0170271
0.0225091
0.0259808
0.0276459
0.0271539
0.0237395
0.0170835
0.0080874
-0.00114165
-0.00804485
-0.0106482
-0.00833733
-0.00197896
0.00641432
0.014655
0.0212725
0.0257795
0.0281384
0.0280742
0.0249425
0.0185409
0.00971054
0.000273279
-0.00765955
-0.0124023
-0.013164
-0.0101026
-0.00431874
0.00258464
0.00886007
0.0133102
0.0148771
0.0137808
0.00944388
0.00448321
-0.00318867
-0.00565818
-0.0137776
-0.00297273
-0.017773
0.133741
0.134717
0.137973
0.142521
0.148149
0.1534
0.152058
0.131412
0.0358138
-0.207069
-0.440446
-0.40143
-0.40343
-0.247821
-0.0505151
0.0781985
0.134455
0.0833892
-0.031606
-0.135076
-0.157078
-0.103657
-0.0460433
-0.0137438
-0.000954441
-0.00186399
-0.0129163
-0.0226691
-0.021419
-0.0143103
-0.0161584
-0.0335841
-0.060694
-0.0795415
-0.0733509
-0.0463385
-0.0188373
-0.00350538
-0.000418953
-0.00452672
-0.00938347
-0.00971361
-0.00630425
-0.00539742
-0.012426
-0.0268339
-0.0420852
-0.0488654
-0.0421513
-0.0255521
-0.00855475
0.00190429
0.00486625
0.00362149
0.00252096
0.00363658
0.00480981
0.00199646
-0.00675994
-0.0191622
-0.0296028
-0.0324034
-0.0257987
-0.0131553
-0.000590473
0.00755238
0.0107524
0.0112865
0.0117293
0.0124351
0.011279
0.005879
-0.00375562
-0.0145331
-0.0217881
-0.0220724
-0.0152389
-0.00453963
0.00562039
0.0124527
0.0158661
0.0174043
0.0182775
0.0178581
0.0144406
0.00712592
-0.00271683
-0.0117486
-0.0163581
-0.014732
-0.0076951
0.00171981
0.0102379
0.0161028
0.0194617
0.0212739
0.0218699
0.0202916
0.0154431
0.00747863
-0.00162256
-0.00879934
-0.0114421
-0.00874091
-0.00192936
0.0063529
0.0136234
0.0187286
0.021852
0.023521
0.0235411
0.0209965
0.0152904
0.00716213
-0.00123146
-0.00719331
-0.00877975
-0.00564477
0.000867143
0.00844921
0.01506
0.0197948
0.0227759
0.0242944
0.0239921
0.0210478
0.0150468
0.00677776
-0.00176076
-0.00810626
-0.0103838
-0.00805771
-0.00203926
0.00569998
0.0131111
0.0189316
0.0228702
0.0249922
0.0250265
0.02231
0.0166022
0.00868942
0.0002957
-0.00662381
-0.0105824
-0.0109703
-0.00800836
-0.00273749
0.00343296
0.00899276
0.0128724
0.0140695
0.0127505
0.00847728
0.00368328
-0.00336193
-0.00568153
-0.0126658
-0.00319348
-0.0150998
0.138413
0.139789
0.144408
0.151354
0.161138
0.173955
0.184746
0.188908
0.0831512
-0.194749
-0.511843
-0.470904
-0.534632
-0.323663
-0.0705111
0.05267
0.0945242
0.0439237
-0.0352457
-0.1426
-0.188285
-0.136792
-0.0668176
-0.0268464
-0.0130317
-0.017364
-0.0330133
-0.0446559
-0.0410709
-0.0299243
-0.0286236
-0.0436477
-0.0692914
-0.0884358
-0.0834127
-0.0568056
-0.0286698
-0.0129714
-0.0104161
-0.0156045
-0.0212323
-0.0212361
-0.0164179
-0.013586
-0.0186904
-0.0315168
-0.0458467
-0.0525342
-0.046301
-0.0303926
-0.014106
-0.0044583
-0.00241938
-0.00447639
-0.00589403
-0.00435373
-0.00204455
-0.00332367
-0.0105129
-0.0216289
-0.0312898
-0.0339036
-0.0276497
-0.0157613
-0.00420426
0.00282428
0.00499514
0.0048391
0.00515731
0.00638659
0.00630728
0.00229001
-0.00595557
-0.0156019
-0.0221687
-0.022298
-0.0158596
-0.00602771
0.00296523
0.00857523
0.0109852
0.0119825
0.012902
0.0131177
0.0107845
0.00477173
-0.00381261
-0.0118503
-0.0158921
-0.0142219
-0.00769557
0.000742581
0.00802885
0.0126949
0.0151697
0.0166065
0.0173859
0.0165092
0.0127213
0.00595635
-0.0020318
-0.00836617
-0.0105787
-0.00794781
-0.00172734
0.00554808
0.0116231
0.0156327
0.0180146
0.0194383
0.0197273
0.0179033
0.0132147
0.00619823
-0.00118724
-0.00640996
-0.0076612
-0.00468544
0.00116145
0.00768686
0.0130843
0.0167357
0.0190023
0.0202982
0.0202841
0.0180738
0.0131047
0.00596821
-0.00152964
-0.00708661
-0.00896412
-0.00671768
-0.00129084
0.005432
0.0116131
0.0162746
0.0193807
0.0211434
0.0213272
0.0192533
0.0145919
0.0079856
0.00097422
-0.00470436
-0.00780344
-0.00790886
-0.00529074
-0.000857241
0.00426855
0.00888008
0.0120563
0.0128632
0.0114107
0.00740113
0.00300016
-0.00314533
-0.00519017
-0.0108682
-0.00298265
-0.0120631
0.142531
0.144265
0.150164
0.159304
0.173561
0.193472
0.22321
0.220101
0.178874
-0.228454
-0.690808
-0.548262
-0.628773
-0.418194
-0.157822
-0.051905
-0.0302206
-0.0260079
-0.0606419
-0.144589
-0.202543
-0.162554
-0.0862808
-0.040213
-0.0259306
-0.0340351
-0.0543546
-0.0672886
-0.0600972
-0.043658
-0.0381224
-0.0497721
-0.0730119
-0.0918505
-0.0884123
-0.063648
-0.036462
-0.0214668
-0.0200089
-0.0265561
-0.0330206
-0.0325331
-0.0258991
-0.0205922
-0.0231993
-0.0339127
-0.0468948
-0.0533071
-0.0477571
-0.0331101
-0.0182484
-0.0100402
-0.00937424
-0.0125058
-0.0143144
-0.0122368
-0.00850042
-0.00783018
-0.0129956
-0.0224133
-0.0310147
-0.0333739
-0.027654
-0.016922
-0.00687775
-0.00144366
-0.000672454
-0.00173802
-0.00159539
0.000284815
0.00157424
-0.000659082
-0.00709291
-0.0152582
-0.0209392
-0.0209143
-0.0150782
-0.00648259
0.000901255
0.0048719
0.00595948
0.0062395
0.00719597
0.00821806
0.00729529
0.0029946
-0.00393408
-0.0106837
-0.0140285
-0.0123724
-0.00659384
0.000504654
0.00615241
0.00925181
0.0105776
0.0115175
0.0125165
0.0125486
0.0101636
0.00499215
-0.00153027
-0.00678684
-0.00849406
-0.00603065
-0.000651639
0.0052682
0.00977703
0.0123694
0.0137898
0.0148836
0.0155207
0.0146534
0.0113279
0.00579596
-0.000265653
-0.00455401
-0.00542753
-0.00272936
0.00219752
0.00732944
0.0111662
0.0134396
0.0147959
0.0158035
0.0161668
0.0149267