/*--------------------------------*- C++ -*----------------------------------*\
  =========                 |
  \\      /  F ield         | OpenFOAM: The Open Source CFD Toolbox
   \\    /   O peration     | Website:  https://openfoam.org
    \\  /    A nd           | Version:  11
     \\/     M anipulation  |
\*---------------------------------------------------------------------------*/
FoamFile
{
    format      ascii;
    class       surfaceScalarField;
    location    "16.339352";
    object      phi;
}
// * * * * * * * * * * * * * * * * * * * * * * * * * * * * * * * * * * * * * //

dimensions      [0 3 -1 0 0 0 0];

internalField   nonuniform List<scalar> 
14638
(
0.00250269
-2.69025e-06
0.00251059
-7.89965e-06
0.00252358
-1.29859e-05
0.0025415
-1.79205e-05
0.00256412
-2.26261e-05
0.00259097
-2.6849e-05
0.00262114
-3.0167e-05
0.00265304
-3.19045e-05
0.00268439
-3.13484e-05
0.00271252
-2.8128e-05
0.00273477
-2.22538e-05
0.00275043
-1.56569e-05
0.00276024
-9.81417e-06
0.00276646
-6.21561e-06
0.00277168
-5.22058e-06
0.00277724
-5.56203e-06
0.00278226
-5.01604e-06
0.00278335
-1.09456e-06
0.00277603
7.32721e-06
0.00275696
1.90623e-05
0.0027257
3.12649e-05
0.00268479
4.09134e-05
0.00263896
4.58241e-05
0.00259411
4.48523e-05
0.00255642
3.76881e-05
0.00253175
2.46691e-05
0.00252489
6.86211e-06
0.00253848
-1.35938e-05
0.00257146
-3.2974e-05
0.0026176
-4.6142e-05
0.0026659
-4.83033e-05
0.00270364
-3.77372e-05
0.00272096
-1.73202e-05
0.00271413
6.82771e-06
0.00268572
2.84157e-05
0.00264235
4.33666e-05
0.00259219
5.0156e-05
0.00254337
4.88204e-05
0.00250349
3.98788e-05
0.00247961
2.38866e-05
0.00247779
1.81395e-06
0.0025017
-2.39035e-05
0.00255001
-4.83081e-05
0.00261442
-6.44145e-05
0.00268042
-6.59988e-05
0.00273163
-5.12149e-05
0.00275583
-2.41945e-05
0.00274893
6.89636e-06
0.00271511
3.38197e-05
0.00266365
5.14612e-05
0.0026052
5.84503e-05
0.00254947
5.57305e-05
0.00250472
4.47508e-05
0.00247817
2.6546e-05
0.002476
2.17247e-06
0.00250185
-2.58468e-05
0.00255415
-5.23009e-05
0.00262408
-6.99307e-05
0.00269636
-7.22843e-05
0.00275358
-5.72199e-05
0.00278216
-2.85749e-05
0.00277682
5.33857e-06
0.00274143
3.53946e-05
0.0026862
5.52238e-05
0.00262351
6.26955e-05
0.00256454
5.89619e-05
0.00251819
4.6351e-05
0.00249138
2.68083e-05
0.00248945
1.93851e-06
0.00251504
-2.55969e-05
0.00256596
-5.09187e-05
0.00263356
-6.75953e-05
0.00270369
-7.01308e-05
0.00276041
-5.67176e-05
0.00279084
-3.0439e-05
0.00278907
1.77863e-06
0.00275733
3.17361e-05
0.00270454
5.2792e-05
0.00264287
6.16705e-05
0.00258434
5.85313e-05
0.00253875
4.5582e-05
0.0025133
2.54527e-05
0.0025126
7.02559e-07
0.00253796
-2.53569e-05
0.00258591
-4.79567e-05
0.00264758
-6.16699e-05
0.00271009
-6.25046e-05
0.0027599
-4.98121e-05
0.0027866
-2.67013e-05
0.00278546
1.13723e-06
0.00275813
2.73291e-05
0.00271155
4.65814e-05
0.0026558
5.57559e-05
0.0026017
5.4093e-05
0.002559
4.27038e-05
0.00253521
2.37939e-05
0.00253489
3.17332e-07
0.00255869
-2.37985e-05
0.00260239
-4.37048e-05
0.00265709
-5.4698e-05
0.00271104
-5.39454e-05
0.00275276
-4.17196e-05
0.00277405
-2.12949e-05
0.00277171
2.34389e-06
0.00274757
2.4139e-05
0.00270738
4.01891e-05
0.00265917
4.82038e-05
0.0026118
4.73707e-05
0.00257377
3.80362e-05
0.00255222
2.15499e-05
0.0025518
4.2076e-07
0.0025733
-2.14985e-05
0.00261274
-3.94463e-05
0.00266179
-4.90488e-05
0.00270971
-4.79195e-05
0.00274631
-3.66052e-05
0.00276462
-1.83074e-05
0.00276223
2.39467e-06
0.00274114
2.10841e-05
0.00270654
3.46027e-05
0.00266523
4.13105e-05
0.00262453
4.06987e-05
0.00259161
3.29174e-05
0.00257289
1.87236e-05
0.00257298
-8.53201e-08
0.00259324
-2.02654e-05
0.0026307
-3.74595e-05
0.00267813
-4.74277e-05
0.00272572
-4.75929e-05
0.00276375
-3.80308e-05
0.00278514
-2.13904e-05
0.00278701
-1.87147e-06
0.00277083
1.61869e-05
0.00274131
2.95126e-05
0.00270488
3.6437e-05
0.00266821
3.6666e-05
0.00263758
3.06287e-05
0.00261859
1.89954e-05
0.0026158
2.78736e-06
0.00263188
-1.60803e-05
0.00266641
-3.45292e-05
0.00271526
-4.88513e-05
0.00277115
-5.58924e-05
0.00282536
-5.42088e-05
0.00286992
-4.45551e-05
0.00289945
-2.95325e-05
0.00291212
-1.26719e-05
0.00290951
2.61291e-06
0.00289567
1.38366e-05
0.00287581
1.9858e-05
0.00285499
2.08241e-05
0.00283713
1.78618e-05
0.00282464
1.24892e-05
0.00281821
6.42424e-06
0.00281739
8.20353e-07
0.00282015
-2.75874e-06
0.00282492
-4.76382e-06
0.0028279
-2.98211e-06
0.00282998
-2.0786e-06
5.42566e-06
0.00250268
-5.37144e-06
0.00251056
-1.57767e-05
0.00252352
-2.59522e-05
0.00254146
-3.58598e-05
0.00256419
-4.5355e-05
0.00259128
-5.39367e-05
0.00262187
-6.07547e-05
0.00265437
-6.44049e-05
0.00268641
-6.3393e-05
0.00271515
-5.6862e-05
0.00273765
-4.47608e-05
0.00275317
-3.11771e-05
0.00276252
-1.91636e-05
0.0027682
-1.1887e-05
0.00277312
-1.01473e-05
0.00277887
-1.13141e-05
0.00278459
-1.07314e-05
0.00278661
-3.11748e-06
0.00277999
1.39501e-05
0.00276105
3.79976e-05
0.00272926
6.3062e-05
0.00268729
8.2881e-05
0.0026401
9.30129e-05
0.00259377
9.11875e-05
0.00255464
7.68094e-05
0.00252879
5.0524e-05
0.00252128
1.43712e-05
0.00253514
-2.74527e-05
0.00256956
-6.73928e-05
0.00261818
-9.47689e-05
0.00266934
-9.94564e-05
0.00270935
-7.77525e-05
0.0027277
-3.56671e-05
0.00272054
1.39846e-05
0.00269081
5.81457e-05
0.00264565
8.85344e-05
0.00259355
0.000102249
0.00254281
9.95608e-05
0.00250111
8.15848e-05
0.00247567
4.93243e-05
0.00247301
4.47694e-06
0.00249735
-4.82486e-05
0.00254775
-9.87038e-05
0.00261557
-0.000132239
0.00268526
-0.000135693
0.00273922
-0.000105174
0.00276443
-4.94045e-05
0.0027568
1.45253e-05
0.00272107
6.95528e-05
0.00266724
0.000105296
0.00260645
0.000119239
0.00254858
0.000113595
0.0025019
9.14359e-05
0.00247369
5.47579e-05
0.00247044
5.42289e-06
0.00249631
-5.17229e-05
0.00255017
-0.000106157
0.00262313
-0.000142888
0.00269919
-0.000148346
0.00275976
-0.000117789
0.00279019
-5.90096e-05
0.0027848
1.07296e-05
0.00274776
7.24349e-05
0.00269005
0.000112931
0.00262475
0.000127996
0.00256343
0.000120287
0.00251498
9.47982e-05
0.00248632
5.54682e-05
0.00248299
5.26391e-06
0.00250814
-5.07406e-05
0.00255993
-0.000102707
0.00262966
-0.00013733
0.00270264
-0.000143106
0.0027621
-0.00011618
0.00279449
-6.28284e-05
0.00279349
2.77714e-06
0.00276135
6.38773e-05
0.00270723
0.000106905
0.00264371
0.000125191
0.00258315
0.000119099
0.0025356
9.31273e-05
0.00250855
5.2508e-05
0.00250701
2.23355e-06
0.00253272
-5.10635e-05
0.00258227
-9.75046e-05
0.00264631
-0.00012571
0.00271117
-0.000127363
0.00276262
-0.00010126
0.00278994
-5.40271e-05
0.00278853
2.55172e-06
0.00276032
5.55348e-05
0.00271256
9.43487e-05
0.00265548
0.000112828
0.00260004
0.000109533
0.00255611
8.66409e-05
0.00253149
4.84075e-05
0.00253119
6.2079e-07
0.00255613
-4.87373e-05
0.00260197
-8.95463e-05
0.00265919
-0.000111921
0.00271524
-0.000109989
0.00275801
-8.44892e-05
0.00277913
-4.24234e-05
0.00277566
5.81362e-06
0.0027499
4.99003e-05
0.00270803
8.20612e-05
0.00265835
9.78802e-05
0.00260985
9.58795e-05
0.00257111
7.67676e-05
0.00254952
4.31453e-05
0.00254996
-2.48548e-08
0.00257334
-4.48736e-05
0.00261539
-8.14961e-05
0.00266712
-0.000100775
0.00271703
-9.78329e-05
0.00275441
-7.3987e-05
0.00277216
-3.60582e-05
0.00276815
6.4067e-06
0.00274487
4.4361e-05
0.00270801
7.14705e-05
0.00266474
8.45748e-05
0.00262264
8.2798e-05
0.00258906
6.65034e-05
0.00257059
3.71922e-05
0.00257202
-1.51439e-06
0.00259468
-4.29337e-05
0.00263523
-7.80034e-05
0.00268574
-9.79372e-05
0.00273566
-9.75143e-05
0.00277473
-7.71009e-05
0.00279571
-4.2376e-05
0.00279595
-2.10453e-06
0.00277733
3.48086e-05
0.00274509
6.17525e-05
0.00270607
7.54497e-05
0.00266731
7.54294e-05
0.0026353
6.26361e-05
0.00261587
3.84281e-05
0.0026138
4.86148e-06
0.00263182
-3.41058e-05
0.00266931
-7.20227e-05
0.00272159
-0.00010113
0.00278063
-0.000114929
0.00283702
-0.000110599
0.0028824
-8.99363e-05
0.00291137
-5.85037e-05
0.00292237
-2.36653e-05
0.00291739
7.59051e-06
0.00290095
3.02737e-05
0.00287864
4.21722e-05
0.00285577
4.36898e-05
0.00283645
3.7183e-05
0.00282318
2.57573e-05
0.00281672
1.28877e-05
0.0028166
9.41823e-07
0.00282071
-6.86879e-06
0.00282726
-1.13133e-05
0.00283208
-7.80804e-06
0.00283602
-6.01168e-06
1.02078e-05
0.00250266
-8.03322e-06
0.00251048
-2.35989e-05
0.0025234
-3.88669e-05
0.00254136
-5.38165e-05
0.00256427
-6.82659e-05
0.00259181
-8.1482e-05
0.00262324
-9.21782e-05
0.00265695
-9.81167e-05
0.00269044
-9.68849e-05
0.00272045
-8.68781e-05
0.00274352
-6.78295e-05
0.0027588
-4.6457e-05
0.00276723
-2.75901e-05
0.00277181
-1.64643e-05
0.00277615
-1.4492e-05
0.00278231
-1.74738e-05
0.00278946
-1.78816e-05
0.00279334
-6.99889e-06
0.00278804
1.92573e-05
0.00276916
5.68717e-05
0.00273606
9.6164e-05
0.00269177
0.00012717
0.00264173
0.000143056
0.00259242
0.000140493
0.00255056
0.000118673
0.00252258
7.8507e-05
0.0025141
2.28422e-05
0.00252887
-4.22206e-05
0.00256656
-0.000105082
0.00262048
-0.000148682
0.00267747
-0.000156451
0.00272189
-0.000122176
0.00274183
-5.56032e-05
0.00273335
2.24589e-05
0.00270035
9.11529e-05
0.00265111
0.00013777
0.00259494
0.00015842
0.00254042
0.000154082
0.00249534
0.00012666
0.00246727
7.73975e-05
0.0024635
8.24342e-06
0.00248938
-7.4124e-05
0.00254457
-0.000153892
0.00261972
-0.000207387
0.00269705
-0.000213028
0.00275631
-0.000164429
0.00278286
-7.59544e-05
0.00277277
2.46125e-05
0.00273224
0.000110082
0.00267298
0.000164557
0.00260724
0.00018498
0.00254521
0.000175627
0.00249499
0.000141653
0.00246378
8.59663e-05
0.0024584
1.07988e-05
0.00248388
-7.71978e-05
0.00254003
-0.000162304
0.00261825
-0.000221112
0.00270151
-0.000231608
0.00276901
-0.00018529
0.00280375
-9.37491e-05
0.00279878
1.57036e-05
0.00275868
0.000112535
0.002696
0.000175611
0.00262545
0.000198548
0.00255949
0.000186245
0.00250716
0.000147131
0.00247534
8.7284e-05
0.00247006
1.05399e-05
0.00249538
-7.60582e-05
0.00255002
-0.000157344
0.00262472
-0.000212026
0.00270324
-0.000221634
0.00276723
-0.000180166
0.00280212
-9.77201e-05
0.00280136
3.53564e-06
0.00276751
9.77306e-05
0.00271036
0.000164059
0.00264316
0.000192386
0.00257887
0.00018339
0.00252805
0.000143952
0.00249879
8.17669e-05
0.00249697
4.04778e-06
0.00252495
-7.90374e-05
0.00257905
-0.000151613
0.00264861
-0.000195268
0.00271813
-0.000196879
0.002772
-0.00015513
0.00279916
-8.1185e-05
0.00279556
6.14275e-06
0.00276416
8.69438e-05
0.00271301
0.000145495
0.00265285
0.000172983
0.00259482
0.000167564
0.00254903
0.000132438
0.00252381
7.36193e-05
0.00252485
-4.15415e-07
0.00255335
-7.72328e-05
0.00260436
-0.000140555
0.00266694
-0.000174502
0.00272691
-0.000169961
0.00277108
-0.000128664
0.00279092
-6.22589e-05
0.00278413
1.26029e-05
0.00275412
7.99089e-05
0.00270811
0.000128075
0.00265506
0.00015093
0.00260426
0.000146677
0.00256456
0.000116467
0.00254367
6.40325e-05
0.00254684
-3.18632e-06
0.00257482
-7.28561e-05
0.00262252
-0.000129195
0.00267954
-0.000157797
0.002733
-0.000151293
0.00277131
-0.000112302
0.0027873
-5.20446e-05
0.00277944
1.42637e-05
0.00275126
7.25415e-05
0.00270949
0.000113244
0.00266213
0.000131929
0.00261729
0.000127639
0.0025827
0.000101096
0.00256531
5.45834e-05
0.00257007
-6.27861e-06
0.00259801
-7.08756e-05
0.0026448
-0.000124785
0.00270111
-0.000154252
0.00275508
-0.000151479
0.00279559
-0.00011762
0.00281528
-6.2061e-05
0.00281192
1.25796e-06
0.00278826
5.84668e-05
0.00275053
9.94843e-05
0.00270644
0.000119534
0.00266369
0.000118185
0.00262927
9.7055e-05
0.00260945
5.82453e-05
0.00260936
4.95335e-06
0.0026317
-5.64462e-05
0.00267518
-0.000115499
0.00273387
-0.000159821
0.00279833
-0.000179396
0.00285808
-0.000170348
0.00290426
-0.000136113
0.00293158
-8.58277e-05
0.00293905
-3.11302e-05
0.00292944
1.71956e-05
0.00290809
5.16278e-05
0.00288126
6.90021e-05
0.00285477
7.01761e-05
0.00283304
5.89184e-05
0.00281874
4.00579e-05
0.00281272
1.89028e-05
0.00281446
-7.93627e-07
0.0028216
-1.4016e-05
0.00283179
-2.15022e-05
0.00284018
-1.61982e-05
0.00284728
-1.31077e-05
1.41182e-05
0.00250263
-1.06611e-05
0.00251035
-3.13245e-05
0.00252317
-5.168e-05
0.00254112
-7.17672e-05
0.00256427
-9.14143e-05
0.00259247
-0.000109688
0.00262515
-0.00012486
0.00266074
-0.0001337
0.00269652
-0.000132666
0.00272858
-0.000118944
0.00275254
-9.17901e-05
0.00276743
-6.13466e-05
0.00277436
-3.4516e-05
0.00277714
-1.92453e-05
0.0027805
-1.78491e-05
0.00278727
-2.42442e-05
0.00279671
-2.73275e-05
0.00280359
-1.38788e-05
0.00280041
2.24423e-05
0.00278162
7.56589e-05
0.00274642
0.000131364
0.00269846
0.000175131
0.00264397
0.000197545
0.0025901
0.000194363
0.00254405
0.000164722
0.0025128
0.000109756
0.00250281
3.28346e-05
0.00251893
-5.83438e-05
0.00256172
-0.000147863
0.00262398
-0.000210945
0.00269025
-0.00022272
0.00274162
-0.000173547
0.00276391
-7.78925e-05
0.0027531
3.32688e-05
0.0027147
0.000129555
0.00265897
0.000193498
0.00259647
0.000220915
0.00253623
0.000214324
0.00248613
0.000176762
0.00245408
0.000109443
0.00244838
1.39448e-05
0.00247578
-0.000101521
0.00253707
-0.000215182
0.00262263
-0.000292952
0.00271209
-0.000302479
0.00278079
-0.000233129
0.00281059
-0.000105758
0.00279715
3.80527e-05
0.00274904
0.00015819
0.00268109
0.000232507
0.00260761
0.000258463
0.00253928
0.000243952
0.00248371
0.000197222
0.00244754
0.000122143
0.00243793
2.04018e-05
0.00246155
-0.000100811
0.00252009
-0.00022085
0.00260541
-0.000306425
0.00269875
-0.000324949
0.00277633
-0.000262875
0.00281815
-0.00013557
0.00281529
1.85605e-05
0.00277226
0.000155566
0.00270332
0.000244554
0.00262548
0.000276392
0.00255275
0.000258972
0.00249468
0.000205202
0.0024585
0.000123461
0.00245134
1.77076e-05
0.00247865
-0.000103368
0.00253939
-0.000218085
0.00262254
-0.000295178
0.00270902
-0.000308116
0.00277816
-0.000249311
0.00281463
-0.000134186
0.00281234
5.8219e-06
0.00277484
0.000135234
0.00271287
0.000226025
0.00264047
0.000264789
0.00257118
0.000252687
0.00251622
0.000198903
0.00248478
0.000113208
0.00248402
4.81129e-06
0.00251688
-0.000111903
0.00257878
-0.000213508
0.0026567
-0.000273188
0.00273256
-0.00027274
0.00278904
-0.000211608
0.00281478
-0.00010693
0.00280676
1.41685e-05
0.00276951
0.000124193
0.00271257
0.000202439
0.00264749
0.000238062
0.00258574
0.000229307
0.0025378
0.000180379
0.00251272
9.86982e-05
0.00251691
-4.6065e-06
0.00255155
-0.000111871
0.0026104
-0.000199408
0.00268041
-0.000244507
0.00274536
-0.000234907
0.00279085
-0.000174157
0.00280826
-7.96686e-05
0.00279621
2.46498e-05
0.00275962
0.000116504
0.00270719
0.000180496
0.00264898
0.000209142
0.00259486
0.000200798
0.00255411
0.000157218
0.00253491
8.32322e-05
0.00254273
-1.10018e-05
0.00257777
-0.000107899
0.00263342
-0.00018485
0.00269735
-0.000221721
0.00275501
-0.000208957
0.00279399
-0.000151278
0.00280714
-6.51955e-05
0.00279375
2.76495e-05
0.00275864
0.000107656
0.00270992
0.000161962
0.00265678
0.00018507
0.00260815
0.000176267
0.00257241
0.000136837
0.00255699
7.0008e-05
0.00256689
-1.61758e-05
0.00260236
-0.000106349
0.00265747
-0.000179897
0.00272101
-0.000217795
0.00277959
-0.000210051
0.00282133
-0.000159368
0.00283888
-7.96034e-05
0.0028306
9.53677e-06
0.00280025
8.88132e-05
0.00275524
0.000144491
0.00270442
0.000170355
0.0026564
0.000166206
0.00261897
0.000134489
0.00259906
7.8153e-05
0.00260219
1.8206e-06
0.00263076
-8.50169e-05
0.00268223
-0.000166961
0.00274878
-0.000226378
0.00281922
-0.00024983
0.00288195
-0.000233083
0.00292792
-0.000182083
0.0029523
-0.000110205
0.00295488
-3.37097e-05
0.00293937
3.2709e-05
0.00291198
7.90167e-05
0.00287976
0.000101219
0.00284912
0.000100814
0.00282489
8.31534e-05
0.00281001
5.49333e-05
0.0028055
2.34174e-05
0.00281064
-5.9342e-06
0.00282264
-2.60146e-05
0.0028381
-3.69656e-05
0.00285125
-2.93456e-05
0.00286188
-2.37367e-05
1.76539e-05
0.00250257
-1.32345e-05
0.00251014
-3.88944e-05
0.00252278
-6.43119e-05
0.00254066
-8.96479e-05
0.00256405
-0.00011481
0.00259308
-0.000138721
0.00262745
-0.000159221
0.00266562
-0.000171878
0.00270469
-0.000171729
0.00273973
-0.000153984
0.00276495
-0.000117013
0.00277921
-7.56085e-05
0.00278384
-3.91411e-05
0.00278386
-1.92669e-05
0.00278566
-1.96535e-05
0.00279328
-3.18654e-05
0.00280614
-4.01872e-05
0.00281753
-2.52629e-05
0.00281754
2.24293e-05
0.00279894
9.42638e-05
0.00276076
0.000169537
0.00270764
0.000228252
0.00264698
0.000258203
0.00258682
0.000254529
0.00253496
0.000216583
0.00249904
0.000145668
0.00248667
4.52057e-05
0.00250444
-7.6115e-05
0.00255438
-0.0001978
0.0026287
-0.000285263
0.00270836
-0.000302384
0.00276961
-0.00023479
0.002795
-0.000103283
0.00278053
4.77308e-05
0.00273425
0.000175839
0.00266933
0.000258414
0.00259813
0.000292116
0.00253018
0.000282275
0.0024733
0.000233645
0.00243543
0.000147314
0.00242532
2.40562e-05
0.00245101
-0.000127217
0.00251571
-0.000279875
0.00261184
-0.000389081
0.00271773
-0.000408374
0.00280295
-0.000318349
0.00284226
-0.000145066
0.00282808
5.22315e-05
0.00277133
0.000214944
0.0026918
0.000312032
0.00260766
0.000342601
0.00253071
0.000320905
0.00246763
0.000260303
0.00242417
0.000165605
0.00240862
3.59519e-05
0.00243069
-0.000122882
0.00249433
-0.000284489
0.00259023
-0.000402329
0.00269594
-0.000430663
0.00278413
-0.000351055
0.00283273
-0.000184169
0.00283188
1.94098e-05
0.00278596
0.00020148
0.00271038
0.000320136
0.00262417
0.000362604
0.00254312
0.000340023
0.00247785
0.000270464
0.00243686
0.000164457
0.00242917
2.53972e-05
0.00246163
-0.000135827
0.00253222
-0.000288682
0.00262672
-0.000389677
0.00272241
-0.000403804
0.00279626
-0.000323159
0.00283248
-0.000170406
0.00282612
1.21805e-05
0.00278246
0.000178888
0.00271373
0.000294756
0.00263479
0.000343732
0.00255968
0.0003278
0.00250042
0.000258158
0.00246761
0.000146022
0.00246983
2.58864e-06
0.00251012
-0.000152192
0.00258199
-0.000285376
0.00266948
-0.000360682
0.00275193
-0.000355191
0.00281058
-0.000270255
0.00283392
-0.000130269
0.00281992
2.81678e-05
0.00277492
0.000169188
0.00271029
0.000267069
0.00263881
0.000309547
0.00257257
0.000295551
0.0025226
0.000230342
0.00249879
0.000122506
0.00250807
-1.38785e-05
0.0025509
-0.000154708
0.00261905
-0.000267552
0.00269699
-0.000322448
0.00276667
-0.000304587
0.00281285
-0.000220344
0.00282702
-9.38298e-05
0.00280866
4.3002e-05
0.0027642
0.000160971
0.002704
0.00024069
0.00263948
0.00027367
0.00258142
0.000258849
0.00253984
0.000198804
0.00252344
9.96296e-05
0.00253763
-2.51868e-05
0.00258141
-0.000151678
0.00264604
-0.000249482
0.002717
-0.000292686
0.00277835
-0.000270309
0.0028172
-0.000190121
0.00282668
-7.46811e-05
0.00280692
4.74096e-05
0.00276396
0.000150618
0.00270735
0.000218576
0.00264759
0.000244825
0.00259474
0.000229117
0.00255807
0.000173506
0.00254558
8.24982e-05
0.00256206
-3.26594e-05
0.00260643
-0.000150717
0.00267059
-0.000244053
0.00274123
-0.000288436
0.00280366
-0.000272484
0.00284569
-0.000201399
0.00286025
-9.4166e-05
0.0028464
2.33878e-05
0.00280881
0.000126407
0.00275597
0.00019733
0.00269787
0.000228455
0.00264421
0.000219867
0.0026038
0.000174896
0.00258447
9.74848e-05
0.00259206
-5.76796e-06
0.0026282
-0.000121158
0.00268843
-0.000227187
0.00276259
-0.000300545
0.00283771
-0.000324948
0.00290155
-0.000296926
0.00294541
-0.000225937
0.00296532
-0.000130122
0.00296208
-3.04642e-05
0.00294027
5.45162e-05
0.0029069
0.000112391
0.00286966
0.000138455
0.00283551
0.000134968
0.00280972
0.000108937
0.00279562
6.90365e-05
0.00279436
2.46755e-05
0.00280487
-1.6445e-05
0.00282354
-4.46757e-05
0.00284539
-5.88196e-05
0.00286359
-4.75494e-05
0.00287678
-3.69212e-05
2.22084e-05
0.00250249
-1.57253e-05
0.00250982
-4.62264e-05
0.00252215
-7.66433e-05
0.00253985
-0.000107339
0.00256343
-0.000138396
0.0025934
-0.000168693
0.00262986
-0.000195675
0.00267144
-0.000213461
0.00271501
-0.000215297
0.0027542
-0.000193176
0.00278116
-0.000143974
0.00279453
-8.89794e-05
0.00279586
-4.04683e-05
0.00279184
-1.52491e-05
0.00279124
-1.90485e-05
0.00279987
-4.0495e-05
0.0028175
-5.78172e-05
0.00283533
-4.30953e-05
0.00283998
1.77776e-05
0.00282174
0.000112503
0.00277954
0.000211734
0.0027195
0.0002883
0.00265069
0.000327006
0.00258231
0.000322912
0.00252282
0.000276072
0.00248057
0.000187923
0.00246463
6.1141e-05
0.00248437
-9.58524e-05
0.00254438
-0.000257815
0.00263597
-0.000376846
0.00273436
-0.000400773
0.00280857
-0.000309009
0.00283714
-0.000131849
0.00281679
6.80834e-05
0.00275938
0.000233245
0.00268215
0.00033564
0.00259974
0.000374529
0.00252214
0.000359873
0.0024566
0.000299194
0.00240997
0.000193939
0.00239046
4.35668e-05
0.00240829
-0.000145046
0.00247181
-0.000343393
0.00257749
-0.000494764
0.00270267
-0.000533557
0.0028108
-0.000426479
0.00286787
-0.000202136
0.00285963
6.04702e-05
0.00279684
0.000277736
0.00270477
0.000404101
0.00260753
0.000439848
0.00251942
0.000409013
0.00244652
0.000333202
0.00239424
0.000217884
0.00237352
5.66746e-05
0.00239794
-0.000147308
0.00247204
-0.000358581
0.00258248
-0.000512776
0.00270147
-0.000549652
0.00279828
-0.00044786
0.00285024
-0.000236132
0.00284837
2.12749e-05
0.00279797
0.000251886
0.00271522
0.000402886
0.00262027
0.000457547
0.00253026
0.000430043
0.00245734
0.000343376
0.00241225
0.000209548
0.00240636
3.12856e-05
0.00244691
-0.000176372
0.0025293
-0.000371068
0.00263538
-0.000495764
0.00273942
-0.000507843
0.00281689
-0.000400629
0.00285176
-0.000205277
0.00283998
2.39672e-05
0.00278861
0.000230256
0.00271172
0.000371646
0.00262532
0.000430133
0.00254409
0.000409028
0.00248102
0.000321229
0.00244822
0.000178818
0.00245534
-4.5254e-06
0.00250451
-0.000201366
0.00258656
-0.000367423
0.00268262
-0.000456742
0.00277023
-0.0004428
0.00283001
-0.000330041
0.00285054
-0.0001508
0.00283044
4.82746e-05
0.00277739
0.000222235
0.0027045
0.00033996
0.00262602
0.000388021
0.00255509
0.000366481
0.00250366
0.00028178
0.00248242
0.000143748
0.0024983
-2.97639e-05
0.00255027
-0.000206681
0.00262751
-0.000344788
0.00271221
-0.000407146
0.00278514
-0.000377523
0.00283093
-0.000266134
0.00284141
-0.000104304
0.00281677
6.76412e-05
0.00276453
0.000213213
0.0026965
0.000308714
0.00262552
0.000344651
0.00256362
0.000320747
0.00252181
0.000240623
0.00250933
0.000112103
0.00253107
-4.69216e-05
0.00258414
-0.000204749
0.00265728
-0.000322622
0.00273398
-0.000369391
0.00279748
-0.000333805
0.002835
-0.000227645
0.00284027
-7.99484e-05
0.00281413
7.35498e-05
0.00276357
0.000201175
0.00269932
0.00028283
0.00263317
0.00031098
0.00257644
0.000285848
0.00253953
0.000210416
0.00253099
9.10343e-05
0.00255501
-5.66798e-05
0.00260855
-0.000204261
0.00268102
-0.000316522
0.00275721
-0.000364624
0.00282171
-0.00033698
0.00286257
-0.000242265
0.0028734
-0.000104989
0.00285391
4.28751e-05
0.00280947
0.00017085
0.00274937
0.000257432
0.00268454
0.000293279
0.00262581
0.000278602
0.00258319
0.000217517
0.00256549
0.000115175
0.00257867
-1.89459e-05
0.00262296
-0.000165447
0.00269135
-0.00029558
0.00277123
-0.000380418
0.00284827
-0.000401992
0.00291035
-0.000359007
0.00294976
-0.00026534
0.00296377
-0.000144138
0.00295422
-2.09147e-05
0.00292647
8.22701e-05
0.00288806
0.000150801
0.00284714
0.000179374
0.00281108
0.000171026
0.00278564
0.000134382
0.0027745
8.01767e-05
0.00277887
2.03003e-05
0.00279691
-3.44874e-05
0.00282365
-7.14115e-05
0.00285203
-8.71967e-05
0.00287429
-6.98087e-05
0.00288754
-5.017e-05
2.99985e-05
0.00250237
-1.80957e-05
0.00250935
-5.32099e-05
0.00252121
-8.85038e-05
0.00253852
-0.000124645
0.00256215
-0.00016202
0.00259308
-0.000199628
0.00263201
-0.000234604
0.00267791
-0.000259366
0.00272753
-0.000264914
0.00277239
-0.000238036
0.00280164
-0.000173222
0.00281365
-0.000100987
0.00281019
-3.7008e-05
0.00280033
-5.39738e-06
0.00279621
-1.49275e-05
0.00280617
-5.04553e-05
0.00283053
-8.21763e-05
0.00285752
-7.00803e-05
0.00286871
6.58839e-06
0.00285099
0.00013022
0.0028034
0.000259326
0.00273432
0.000357381
0.00265516
0.000406166
0.00257646
0.000401607
0.00250729
0.000345242
0.0024566
0.00023861
0.00243546
8.22845e-05
0.00245712
-0.000117511
0.00252981
-0.000330505
0.00264425
-0.00049129
0.00276856
-0.000525084
0.00286092
-0.000401363
0.00289316
-0.000164091
0.00286364
9.7608e-05
0.0027906
0.000306277
0.00269722
0.000429024
0.00260098
0.000470773
0.00251193
0.000448915
0.0024355
0.000375628
0.00237599
0.000253451
0.00234175
7.78033e-05
0.00234908
-0.000152371
0.00241374
-0.000408056
0.00253293
-0.000613959
0.00267851
-0.000679133
0.00280833
-0.000556297
0.00288383
-0.000277635
0.00288547
5.88234e-05
0.0028209
0.000342314
0.00271802
0.000506979
0.00260681
0.000551055
0.0025055
0.000510324
0.00242104
0.000417662
0.00236024
0.000278683
0.00233781
7.91057e-05
0.00236976
-0.000179255
0.00245787
-0.000446698
0.00258315
-0.000638056
0.00271347
-0.000679964
0.00281632
-0.000550712
0.00286898
-0.000288792
0.00286353
2.67201e-05
0.00280683
0.000308591
0.00271623
0.000493488
0.00261257
0.000561203
0.00251383
0.000528786
0.00243398
0.000423228
0.00238647
0.000257055
0.00238458
3.31768e-05
0.0024344
-0.000226194
0.00252765
-0.000464317
0.0026427
-0.000610819
0.0027523
-0.000617439
0.0028318
-0.000480125
0.00286522
-0.000238701
0.00284865
4.05337e-05
0.00279008
0.000288825
0.00270515
0.000456578
0.0026113
0.000523982
0.00252431
0.000496023
0.00245843
0.000387111
0.00242718
0.000210067
0.00244044
-1.7784e-05
0.00249847
-0.000259399
0.00258905
-0.000458005
0.00269103
-0.000558725
0.00278127
-0.000533037
0.00284072
-0.000389496
0.00285839
-0.00016846
0.00283313
7.35267e-05
0.00277326
0.000282106
0.00269304
0.000420181
0.00260817
0.000472895
0.00253315
0.0004415
0.00248119
0.000333743
0.0024637
0.00016123
0.00248698
-5.3037e-05
0.00254771
-0.000267414
0.00263237
-0.00042945
0.00272145
-0.000496222
0.00279543
-0.000451509
0.00283951
-0.000310213
0.00284615
-0.000110944
0.00281602
9.77713e-05
0.00275722
0.000272017
0.00268251
0.000383421
0.002606
0.000421167
0.0025411
0.00038564
0.00250004
0.000281685
0.00249248
0.000119663
0.0025222
-7.66421e-05
0.0025839
-0.000266447
0.00266377
-0.000402489
0.00274388
-0.000449505
0.00280741
-0.00039734
0.00284233
-0.000262559
0.00284312
-8.07442e-05
0.00281124
0.000105433
0.00275423
0.000258183
0.00268359
0.000353472
0.00261219
0.000382383
0.00255267
0.00034537
0.00251663
0.000246451
0.00251301
9.46516e-05
0.00254487
-8.85319e-05
0.00260673
-0.000266121
0.00268552
-0.000395316
0.00276471
-0.000443816
0.00282894
-0.000401208
0.0028671
-0.00028042
0.00287366
-0.000111552
0.00284896
6.75702e-05
0.00279876
0.000221053
0.00273277
0.000323421
0.00266261
0.000363438
0.00260014
0.000341072
0.00255668
0.000260983
0.00254196
0.000129893
0.00256155
-3.85351e-05
0.00261359
-0.000217489
0.00268818
-0.000370168
0.00277056
-0.000462797
0.00284594
-0.000477379
0.00290314
-0.000416201
0.00293595
-0.000298149
0.00294306
-0.000151246
0.00292725
-5.10633e-06
0.00289445
0.000115068
0.00285252
0.000192726
0.00280986
0.000222038
0.00277416
0.00020673
0.00275162
0.000156917
0.00274624
8.55586e-05
0.00275888
7.65781e-06
0.00278624
-6.18446e-05
0.00282135
-0.000106526
0.00285482
-0.000120666
0.00287855
-9.3533e-05
0.00288811
-5.97287e-05
4.36521e-05
0.0025022
-2.02972e-05
0.00250869
-5.97008e-05
0.00251985
-9.96618e-05
0.00253648
-0.000141278
0.00255987
-0.000185405
0.00259166
-0.000231421
0.00263338
-0.000276324
0.00268465
-0.000310635
0.00274233
-0.000322597
0.00279491
-0.000290614
0.00282726
-0.000205569
0.0028375
-0.000111229
0.00282743
-2.69408e-05
0.00280921
1.28285e-05
0.00279964
-5.36024e-06
0.00281087
-6.16853e-05
0.00284432
-0.000115624
0.0028841
-0.000109867
0.0029046
-1.39069e-05
0.00288785
0.00014697
0.00283319
0.000313982
0.00275244
0.000438136
0.00266028
0.00049833
0.0025689
0.000492978
0.00248775
0.0004264
0.00242626
0.000300093
0.00239746
0.000111083
0.00241712
-0.00013717
0.00249632
-0.000409697
0.00263044
-0.000625413
0.00278762
-0.00068226
0.0029124
-0.000526149
0.00295896
-0.000210651
0.00292173
0.000134843
0.00282878
0.00039922
0.00271446
0.000543342
0.00260144
0.000583802
0.00249918
0.000551171
0.00240931
0.000465498
0.00233331
0.00032945
0.00228378
0.000127336
0.00228722
-0.000155813
0.00236366
-0.000484494
0.00250304
-0.000753342
0.00266748
-0.00084357
0.0028111
-0.000699916
0.0028965
-0.000363034
0.00290421
5.11091e-05
0.00283912
0.000407408
0.00272812
0.000617978
0.00260409
0.000675082
0.00248904
0.000625371
0.00239277
0.000513937
0.00232554
0.000345911
0.00230548
9.91618e-05
0.00234782
-0.000221594
0.00244893
-0.000547805
0.00258475
-0.000773879
0.00272173
-0.000816939
0.00282798
-0.000656966
0.00288095
-0.000341758
0.00287245
3.52155e-05
0.00280991
0.000371129
0.0027119
0.000591502
0.00260019
0.000672911
0.00249374
0.000635234
0.00240854
0.000508436
0.00236059
0.000304996
0.00236396
2.98064e-05
0.00242229
-0.000284523
0.00252344
-0.000565466
0.00264344
-0.000730815
0.002755
-0.000728997
0.00283452
-0.000559652
0.00286658
-0.00027076
0.00284692
6.01996e-05
0.0027833
0.000352439
0.00269208
0.000547799
0.00259202
0.000624047
0.00250038
0.000587658
0.00243305
0.000454441
0.00240464
0.000238477
0.00242437
-3.75088e-05
0.00248991
-0.000324945
0.00258623
-0.000554318
0.00269081
-0.00066331
0.00278087
-0.000623091
0.00283842
-0.000447052
0.00285321
-0.000183245
0.00282417
0.000102563
0.00275954
0.00034674
0.00267401
0.000505712
0.00258436
0.000562539
0.00250662
0.000519246
0.00245539
0.000384965
0.00244258
0.000174045
0.00247313
-8.35851e-05
0.00254107
-0.000335361
0.0026305
-0.000518879
0.00272103
-0.000586755
0.00279373
-0.000524207
0.00283488
-0.00035136
0.00283776
-0.00011382
0.00280332
0.000132206
0.00273979
0.00033555
0.00266034
0.000462872
0.00258001
0.000501491
0.00251362
0.000452033
0.00247458
0.000320729
0.00247264
0.000121601
0.00250995
-0.000113951
0.00257852
-0.000335019
0.00266242
-0.000486391
0.00274314
-0.000530222
0.00280455
-0.000458755
0.00283577
-0.000293775
0.00283216
-7.71383e-05
0.00279559
0.000142007
0.0027338
0.000319973
0.00265864
0.000428632
0.00258379
0.000457232
0.00252312
0.000406036
0.00248935
0.000280229
0.00249138
9.26214e-05
0.00253058
-0.000127732
0.00259885
-0.000334394
0.00268111
-0.000477575
0.00276035
-0.000523053
0.002822
-0.000462859
0.00285617
-0.000314599
0.00285832
-0.000113696
0.00282922
9.66709e-05
0.00277474
0.000275534
0.00270468
0.000393473
0.00263108
0.000437037
0.00256673
0.000405423
0.00252418
0.000303536
0.00251378
0.000140298
0.00254001
-6.47648e-05
0.00259831
-0.000275796
0.00267599
-0.000447847
0.002757
-0.000543803