/*--------------------------------*- C++ -*----------------------------------*\
  =========                 |
  \\      /  F ield         | OpenFOAM: The Open Source CFD Toolbox
   \\    /   O peration     | Website:  https://openfoam.org
    \\  /    A nd           | Version:  11
     \\/     M anipulation  |
\*---------------------------------------------------------------------------*/
FoamFile
{
    format      ascii;
    class       surfaceScalarField;
    location    "16.339352";
    object      phi_0;
}
// * * * * * * * * * * * * * * * * * * * * * * * * * * * * * * * * * * * * * //

dimensions      [0 3 -1 0 0 0 0];

internalField   nonuniform List<scalar> 
14638
(
0.00250269
-2.68638e-06
0.00251057
-7.88413e-06
0.00252353
-1.29571e-05
0.00254141
-1.78803e-05
0.00256399
-2.25801e-05
0.00259079
-2.68057e-05
0.00262093
-3.01384e-05
0.00265284
-3.1904e-05
0.00268423
-3.13909e-05
0.00271245
-2.82256e-05
0.00273487
-2.24154e-05
0.00275075
-1.58802e-05
0.00276083
-1.00824e-05
0.00276732
-6.49362e-06
0.00277277
-5.44232e-06
0.00277841
-5.64776e-06
0.00278331
-4.89078e-06
0.00278403
-7.22879e-07
0.00277613
7.89518e-06
0.00275643
1.97008e-05
0.0027246
3.18274e-05
0.00268332
4.12855e-05
0.00263738
4.59399e-05
0.00259269
4.46873e-05
0.00255544
3.72481e-05
0.00253145
2.39893e-05
0.00252544
6.01798e-06
0.0025399
-1.44654e-05
0.00257356
-3.36626e-05
0.00261997
-4.641e-05
0.00266797
-4.79999e-05
0.00270488
-3.6908e-05
0.00272109
-1.62046e-05
0.00271317
7.92171e-06
0.00268392
2.92503e-05
0.00264008
4.38316e-05
0.00258985
5.02376e-05
0.0025413
4.85441e-05
0.00250203
3.92723e-05
0.00247905
2.29818e-05
0.00247836
6.83287e-07
0.00250345
-2.509e-05
0.00255272
-4.92612e-05
0.00261752
-6.48067e-05
0.00268315
-6.56324e-05
0.00273331
-5.01583e-05
0.00275608
-2.27685e-05
0.0027478
8.2805e-06
0.00271296
3.48449e-05
0.00266096
5.19943e-05
0.00260246
5.85057e-05
0.00254708
5.53803e-05
0.00250302
4.40551e-05
0.00247748
2.55437e-05
0.00247654
9.32939e-07
0.00250369
-2.71485e-05
0.00255705
-5.33623e-05
0.00262746
-7.04084e-05
0.00269942
-7.19601e-05
0.00275556
-5.61374e-05
0.0027826
-2.70435e-05
0.00277572
6.88076e-06
0.00273916
3.65682e-05
0.00268332
5.58365e-05
0.00262057
6.27462e-05
0.00256202
5.85529e-05
0.00251643
4.55892e-05
0.00249066
2.57672e-05
0.00248996
7.01479e-07
0.00251682
-2.6861e-05
0.00256876
-5.19368e-05
0.00263683
-6.80701e-05
0.00270671
-6.98758e-05
0.00276247
-5.57599e-05
0.00279149
-2.90234e-05
0.00278821
3.28048e-06
0.00275525
3.29595e-05
0.00270175
5.34975e-05
0.00263996
6.17917e-05
0.00258182
5.81382e-05
0.00253702
4.47985e-05
0.00251263
2.43974e-05
0.00251312
-4.98458e-07
0.00253964
-2.65199e-05
0.00258848
-4.88369e-05
0.00265051
-6.20342e-05
0.00271275
-6.22355e-05
0.00276172
-4.89663e-05
0.00278721
-2.5489e-05
0.00278478
2.42748e-06
0.00275636
2.8418e-05
0.00270909
4.72665e-05
0.00265315
5.59436e-05
0.00259936
5.37929e-05
0.00255736
4.19958e-05
0.00253456
2.27968e-05
0.00253538
-8.12119e-07
0.00256023
-2.48547e-05
0.00260469
-4.44568e-05
0.00265965
-5.49598e-05
0.0027133
-5.36517e-05
0.00275425
-4.09547e-05
0.00277451
-2.0256e-05
0.00277109
3.41862e-06
0.00274605
2.50394e-05
0.00270528
4.07708e-05
0.00265689
4.83935e-05
0.00260973
4.71541e-05
0.00257229
3.74474e-05
0.00255161
2.06725e-05
0.00255221
-6.00187e-07
0.00257467
-2.24584e-05
0.00261479
-4.01222e-05
0.00266407
-4.92727e-05
0.00271171
-4.76432e-05
0.00274763
-3.59173e-05
0.00276502
-1.73937e-05
0.0027617
3.32061e-06
0.00273986
2.18452e-05
0.00270477
3.50898e-05
0.00266329
4.14756e-05
0.00262276
4.05315e-05
0.00259033
3.24315e-05
0.00257236
1.79683e-05
0.00257336
-9.9888e-07
0.00259452
-2.11584e-05
0.00263264
-3.81227e-05
0.00268033
-4.76919e-05
0.00272772
-4.7393e-05
0.00276515
-3.74289e-05
0.0027857
-2.05485e-05
0.00278669
-9.91714e-07
0.00276977
1.69253e-05
0.00273977
2.9996e-05
0.00270315
3.66231e-05
0.00266659
3.65602e-05
0.00263633
3.02538e-05
0.00261795
1.83818e-05
0.00261596
1.99283e-06
0.00263291
-1.6945e-05
0.00266821
-3.53039e-05
0.00271758
-4.93681e-05
0.00277361
-5.60359e-05
0.00282757
-5.39573e-05
0.00287155
-4.39847e-05
0.00290034
-2.87867e-05
0.00291226
-1.19144e-05
0.00290901
3.24224e-06
0.00289476
1.4251e-05
0.00287473
2.00327e-05
0.00285394
2.07874e-05
0.00283627
1.76749e-05
0.00282404
1.22246e-05
0.00281789
6.14997e-06
0.0028173
5.9298e-07
0.0028202
-2.89904e-06
0.002825
-4.79861e-06
0.00282791
-2.91051e-06
0.00282986
-1.9497e-06
5.59216e-06
0.00250268
-5.36367e-06
0.00251054
-1.57455e-05
0.00252348
-2.58943e-05
0.00254137
-3.57787e-05
0.00256406
-4.52617e-05
0.0025911
-5.38484e-05
0.00262166
-6.06954e-05
0.00265415
-6.44014e-05
0.00268624
-6.3476e-05
0.00271507
-5.70558e-05
0.00273774
-4.50845e-05
0.00275348
-3.16274e-05
0.00276311
-1.97087e-05
0.00276907
-1.24575e-05
0.00277424
-1.06086e-05
0.00278009
-1.15016e-05
0.00278569
-1.04872e-05
0.00278733
-2.36306e-06
0.00278011
1.51126e-05
0.00276051
3.93069e-05
0.00272812
6.42143e-05
0.00268576
8.36426e-05
0.00263845
9.32525e-05
0.00259228
9.08577e-05
0.00255361
7.59216e-05
0.00252845
4.91453e-05
0.00252182
1.26485e-05
0.0025366
-2.92458e-05
0.00257176
-6.88228e-05
0.00262069
-9.53364e-05
0.00267153
-9.88403e-05
0.00271067
-7.60457e-05
0.00272783
-3.33712e-05
0.00271953
1.62268e-05
0.00268893
5.98455e-05
0.00264329
8.94745e-05
0.00259111
0.000102412
0.00254065
9.90046e-05
0.00249956
8.0364e-05
0.00247505
4.74933e-05
0.00247357
2.1693e-06
0.00249917
-5.06921e-05
0.00255059
-0.000100682
0.00261884
-0.000133061
0.00268815
-0.00013494
0.00274098
-0.000102992
0.00276468
-4.64673e-05
0.0027556
1.73619e-05
0.00271881
7.16375e-05
0.00266444
0.000106367
0.0026036
0.00011934
0.0025461
0.000112884
0.00250012
9.00349e-05
0.00247293
5.27347e-05
0.00247096
2.9029e-06
0.0024982
-5.43933e-05
0.0025532
-0.000108358
0.00262669
-0.000143903
0.00270244
-0.000147707
0.00276188
-0.000115574
0.00279069
-5.58576e-05
0.00278367
1.39051e-05
0.00274539
7.48434e-05
0.00268705
0.000114179
0.0026217
0.000128092
0.0025608
0.000119455
0.00251313
9.32632e-05
0.00248552
5.33718e-05
0.00248346
2.75875e-06
0.00250993
-5.33221e-05
0.0025628
-0.000104806
0.00263305
-0.000138328
0.00270579
-0.000142612
0.00276427
-0.000114245
0.0027952
-5.99523e-05
0.00279265
5.83634e-06
0.00275923
6.63749e-05
0.00270438
0.000108352
0.00264072
0.000125452
0.00258054
0.000118317
0.00253378
9.15526e-05
0.00250781
5.03736e-05
0.00250752
-2.12568e-07
0.00253445
-5.34462e-05
0.00258492
-9.93124e-05
0.00264935
-0.000126456
0.00271392
-0.000126806
0.00276448
-9.95277e-05
0.00279055
-5.15601e-05
0.00278781
5.16317e-06
0.0027585
5.77296e-05
0.00271004
9.57266e-05
0.00265278
0.000113207
0.00259764
0.000108933
0.00255442
8.52164e-05
0.00253083
4.63874e-05
0.0025317
-1.68291e-06
0.00255774
-5.09001e-05
0.00260437
-9.10834e-05
0.00266185
-0.000112443
0.00271757
-0.000109365
0.00275952
-8.29049e-05
0.00277955
-4.02951e-05
0.00277498
7.99481e-06
0.00274831
5.17106e-05
0.00270586
8.3218e-05
0.00265601
9.82453e-05
0.00260773
9.5429e-05
0.00256961
7.55667e-05
0.00254893
4.1356e-05
0.00255044
-2.11136e-06
0.00257482
-4.68349e-05
0.00261756
-8.28673e-05
0.0026695
-0.000101208
0.00271909
-9.72344e-05
0.00275572
-7.25501e-05
0.0027725
-3.41744e-05
0.00276753
8.29607e-06
0.00274348
4.58967e-05
0.00270613
7.24371e-05
0.00266272
8.48836e-05
0.00262082
8.24334e-05
0.00258776
6.54935e-05
0.00257009
3.5635e-05
0.00257249
-3.39256e-06
0.00259609
-4.47619e-05
0.00263731
-7.93467e-05
0.00268807
-9.84476e-05
0.00273774
-9.70655e-05
0.00277614
-7.58317e-05
0.00279622
-4.06287e-05
0.00279553
-2.97575e-07
0.00277614
3.63104e-05
0.00274342
6.27217e-05
0.00270424
7.58066e-05
0.00266561
7.519e-05
0.00263401
6.18479e-05
0.00261524
3.71521e-05
0.00261402
3.21547e-06
0.00263296
-3.58903e-05
0.00267127
-7.36089e-05
0.00272407
-0.000102169
0.00278322
-0.000115186
0.0028393
-0.00011004
0.00288405
-8.87294e-05
0.00291221
-5.6952e-05
0.00292241
-2.21072e-05
0.00291678
8.87133e-06
0.00289992
3.11051e-05
0.00287745
4.2509e-05
0.00285464
4.35935e-05
0.00283554
3.67798e-05
0.00282257
2.51945e-05
0.00281641
1.23028e-05
0.00281655
4.51553e-07
0.00282083
-7.17892e-06
0.00282743
-1.13984e-05
0.00283219
-7.66564e-06
0.00283597
-5.73192e-06
1.0567e-05
0.00250266
-8.02148e-06
0.00251046
-2.35517e-05
0.00252335
-3.87791e-05
0.00254126
-5.36931e-05
0.00256412
-6.8123e-05
0.00259162
-8.13455e-05
0.00262301
-9.20841e-05
0.00265671
-9.81058e-05
0.00269024
-9.7004e-05
0.00272035
-8.71655e-05
0.00274358
-6.83167e-05
0.0027591
-4.71419e-05
0.00276782
-2.84287e-05
0.00277272
-1.73559e-05
0.00277734
-1.5228e-05
0.00278363
-1.77939e-05
0.00279067
-1.75284e-05
0.00279414
-5.83738e-06
0.00278819
2.10717e-05
0.00276857
5.89177e-05
0.00273483
9.79587e-05
0.00269012
0.000128352
0.00263994
0.00014343
0.00259081
0.000139993
0.00254941
0.000117316
0.00252217
7.63879e-05
0.00251465
2.01701e-05
0.00253044
-4.50351e-05
0.00256897
-0.000107357
0.00262324
-0.000149606
0.0026799
-0.000155492
0.00272333
-0.00011948
0.00274194
-5.19861e-05
0.00273221
2.59608e-05
0.00269828
9.37728e-05
0.00264856
0.000139194
0.00259232
0.000158651
0.0025381
0.000153228
0.00249366
0.0001248
0.00246657
7.45906e-05
0.00246407
4.6618e-06
0.00249135
-7.79685e-05
0.00254771
-0.00015704
0.00262336
-0.000208709
0.00270025
-0.000211832
0.00275821
-0.000160957
0.00278306
-7.13115e-05
0.00277137
2.90465e-05
0.00272972
0.000113287
0.00266993
0.000166158
0.00260418
0.00018509
0.00254255
0.000174521
0.00249306
0.000139521
0.0024629
8.28918e-05
0.00245887
6.93675e-06
0.00248582
-8.13474e-05
0.00254326
-0.000165791
0.00262215
-0.000222794
0.00270514
-0.000230704
0.00277144
-0.000181871
0.00280439
-8.88081e-05
0.00279759
2.0704e-05
0.00275612
0.000116316
0.00269275
0.000177546
0.00262217
0.000198676
0.00255667
0.000184955
0.00250514
0.00014479
0.00247442
8.40936e-05
0.00247048
6.69442e-06
0.00249723
-8.00679e-05
0.00255306
-0.000160637
0.00262834
-0.00021361
0.00270662
-0.00022089
0.00276956
-0.000177187
0.0028029
-9.32903e-05
0.00280049
8.24443e-06
0.00276529
0.000101576
0.00270735
0.000166294
0.00264
0.000192805
0.0025761
0.000182215
0.0025261
0.000141557
0.00249798
7.84893e-05
0.00249751
2.54179e-07
0.00252682
-8.27543e-05
0.00258193
-0.000154425
0.00265187
-0.000196395
0.00272102
-0.000195957
0.00277389
-0.000152395
0.00279969
-7.73585e-05
0.00279471
1.01389e-05
0.00276218
9.02637e-05
0.00271035
0.000147556
0.00265002
0.000173534
0.00259232
0.00016664
0.00254728
0.000130257
0.00252316
7.05066e-05
0.00252546
-3.98993e-06
0.00255516
-8.05942e-05
0.002607
-0.000142921
0.00266981
-0.000175253
0.00272935
-0.000168912
0.00277258
-0.000126135
0.00279122
-5.89303e-05
0.00278326
1.59567e-05
0.00275232
8.26429e-05
0.00270576
0.000129781
0.00265258
0.000151425
0.00260207
0.000145938
0.00256305
0.000114587
0.00254316
6.12475e-05
0.00254748
-6.43028e-06
0.00257653
-7.58896e-05
0.00262495
-0.000131278
0.00268213
-0.000158389
0.00273516
-0.000150268
0.0027726
-0.00010999
0.0027875
-4.90779e-05
0.00277861
1.71892e-05
0.00274963
7.48742e-05
0.0027074
0.000114669
0.00265995
0.00013233
0.00261538
0.000127006
0.0025814
9.94737e-05
0.00256491
5.21222e-05
0.00257074
-9.22203e-06
0.00259969
-7.37096e-05
0.00264717
-0.000126822
0.00270368
-0.000154956
0.00275729
-0.000150677
0.00279701
-0.000115557
0.00281567
-5.92891e-05
0.00281129
4.07983e-06
0.00278683
6.07757e-05
0.00274861
0.000100939
0.00270439
0.000120026
0.00266183
0.000117751
0.00262791
9.57701e-05
0.00260886
5.62035e-05
0.00260973
2.34277e-06
0.00263309
-5.92487e-05
0.00267743
-0.000117949
0.00273663
-0.000161369
0.00280114
-0.000179693
0.00286047
-0.00016937
0.00290589
-0.00013415
0.0029323
-8.3367e-05
0.0029389
-2.87003e-05
0.00292861
1.91617e-05
0.00290684
5.28747e-05
0.00287987
6.94717e-05
0.00285349
6.99722e-05
0.00283204
5.82387e-05
0.0028181
3.91291e-05
0.00281247
1.79358e-05
0.00281453
-1.61346e-06
0.0028219
-1.45462e-05
0.00283216
-2.16563e-05
0.00284047
-1.59737e-05
0.00284736
-1.26222e-05
1.47248e-05
0.00250262
-1.06453e-05
0.00251033
-3.12607e-05
0.00252311
-5.15609e-05
0.00254102
-7.15991e-05
0.00256412
-9.12184e-05
0.00259227
-0.000109498
0.00262491
-0.000124725
0.00266048
-0.000133675
0.00269629
-0.000132815
0.00272844
-0.00011932
0.00275257
-9.24416e-05
0.0027677
-6.22763e-05
0.00277495
-3.56729e-05
0.00277809
-2.05021e-05
0.00278178
-1.89159e-05
0.00278874
-2.47483e-05
0.00279809
-2.68843e-05
0.00280453
-1.22707e-05
0.0028006
2.49999e-05
0.00278097
7.85473e-05
0.00274504
0.000133884
0.00269662
0.000176778
0.00264198
0.000198066
0.00258829
0.000193682
0.00254274
0.000162865
0.0025123
0.000106835
0.00250336
2.91057e-05
0.00252066
-6.23357e-05
0.00256445
-0.000151148
0.00262717
-0.000212321
0.00269305
-0.000221372
0.00274325
-0.000169681
0.00276399
-7.27252e-05
0.00275174
3.82076e-05
0.00271234
0.000133176
0.00265612
0.000195411
0.00259358
0.000221187
0.00253367
0.000213139
0.00248425
0.000174226
0.00245325
0.000105592
0.00244895
8.95652e-06
0.00247796
-0.000106972
0.00254065
-0.00021974
0.00262689
-0.000294942
0.00271587
-0.000300814
0.00278303
-0.000228119
0.00281078
-9.90631e-05
0.00279547
4.43609e-05
0.00274612
0.000162635
0.00267766
0.000234623
0.00260424
0.000258511
0.00253637
0.000242389
0.00248156
0.000194332
0.00244645
0.000117999
0.00243825
1.51327e-05
0.0024635
-0.000106595
0.00252355
-0.000225839
0.00260972
-0.000308963
0.00270287
-0.000323858
0.00277919
-0.000258193
0.00281904
-0.000128655
0.00281411
2.56324e-05
0.0027695
0.000160932
0.00269976
0.000247284
0.00262187
0.00027656
0.00254964
0.000257183
0.00249243
0.000202005
0.00245742
0.000119098
0.00245174
1.2382e-05
0.00248066
-0.000108991
0.00254275
-0.000222723
0.00262652
-0.000297387
0.00271267
-0.000307041
0.00278062
-0.000245138
0.00281539
-0.000128058
0.00281135
1.22869e-05
0.00277243
0.000140493
0.00270965
0.00022908
0.00263708
0.000265373
0.00256819
0.000251101
0.00251412
0.000195632
0.00248393
0.000108674
0.00248468
-4.9486e-07
0.00251904
-0.000117115
0.00258203
-0.000217408
0.00266029
-0.00027466
0.00273565
-0.000271314
0.00279094
-0.000207686
0.00281516
-0.00010158
0.00280565
1.96458e-05
0.00276726
0.000128659
0.00270966
0.000205154
0.00264446
0.000238734
0.0025831
0.000228
0.002536
0.00017736
0.00251213
9.43739e-05
0.00251773
-9.59357e-06
0.00255368
-0.000116544
0.0026134
-0.000202634
0.00268356
-0.00024542
0.00274794
-0.000233286
0.00279231
-0.000170508
0.00280836
-7.4985e-05
0.00279505
2.92715e-05
0.00275751
0.000120184
0.00270458
0.000182713
0.00264631
0.000209692
0.00259257
0.000199675
0.00255261
0.000154546
0.00253454
7.93192e-05
0.00254364
-1.55312e-05
0.00257984
-0.000112084
0.0026362
-0.000187642
0.00270019
-0.000222381
0.00275728
-0.000207357
0.00279522
-0.000147924
0.00280714
-6.10003e-05
0.00279262
3.17067e-05
0.00275668
0.000110817
0.00270753
0.000163814
0.00265438
0.000185486
0.00260613
0.000175256
0.00257113
0.000134468
0.00255676
6.64939e-05
0.00256786
-2.03188e-05
0.00260441
-0.000110266
0.00266021
-0.000182619
0.00272386
-0.000218603
0.00278193
-0.000208752
0.00282273
-0.000156351
0.0028391
-7.56629e-05
0.0028297
1.34799e-05
0.00279849
9.19839e-05
0.002753
0.000146432
0.00270209
0.000170935
0.00265435
0.00016549
0.00261753
0.000132587
0.00259854
7.51978e-05
0.00260279
-1.90765e-06
0.0026325
-8.89545e-05
0.00268486
-0.000170316
0.00275188
-0.000228387
0.00282224
-0.000250049
0.00288441
-0.000231539
0.00292948
-0.000179224
0.00295284
-0.000106726
0.00295448
-3.03378e-05
0.00293825
3.53886e-05
0.00291046
8.06687e-05
0.00287815
0.000101779
0.00284768
0.000100437
0.00282381
8.21144e-05
0.00280939
5.35429e-05
0.00280536
2.19687e-05
0.00281092
-7.17094e-06
0.00282319
-2.68206e-05
0.00283873
-3.71928e-05
0.00285175
-2.89989e-05
0.00286208
-2.29484e-05
1.85908e-05
0.00250257
-1.32145e-05
0.00251012
-3.88134e-05
0.00252272
-6.41601e-05
0.00254055
-8.94324e-05
0.00256389
-0.000114557
0.00259287
-0.000138473
0.00262718
-0.000159037
0.00266533
-0.000171829
0.00270442
-0.000171898
0.00273954
-0.000154443
0.00276493
-0.000117828
0.00277944
-7.67953e-05
0.00278442
-4.0649e-05
0.00278487
-2.09504e-05
0.00278708
-2.11311e-05
0.00279496
-3.26291e-05
0.00280776
-3.96848e-05
0.00281865
-2.31523e-05
0.00281778
2.58628e-05
0.00279819
9.8146e-05
0.00275917
0.000172896
0.00270553
0.000230424
0.00264471
0.000258886
0.00258474
0.000253653
0.00253341
0.000214186
0.00249838
0.000141866
0.00248721
4.02743e-05
0.00250639
-8.15081e-05
0.00255758
-0.000202339
0.00263248
-0.000287226
0.00271168
-0.000300574
0.00277149
-0.000229487
0.002795
-9.62374e-05
0.00277886
5.43544e-05
0.00273147
0.000180567
0.00266607
0.00026081
0.00259487
0.00029238
0.0025273
0.000280712
0.00247114
0.00023039
0.00243437
0.00014236
0.00242577
1.75528e-05
0.00245329
-0.000134487
0.00251973
-0.00028618
0.00261689
-0.000392104
0.00272248
-0.000406408
0.00280596
-0.0003116
0.00284273
-0.000135826
0.00282617
6.09133e-05
0.0027679
0.000220905
0.00268783
0.000314693
0.00260385
0.000342494
0.00252744
0.000318799
0.00246514
0.00025663
0.00242276
0.000160377
0.00240873
2.91634e-05
0.00243269
-0.000130548
0.00249811
-0.00029126
0.00259503
-0.000405884
0.00270056
-0.000429384
0.00278736
-0.000344998
0.00283382
-0.000175112
0.00283069
2.87607e-05
0.00278299
0.000208635
0.00270647
0.000323798
0.00262018
0.000362856
0.00253965
0.000337713
0.00247531
0.000266341
0.00243563
0.000158782
0.00242965
1.83627e-05
0.00246397
-0.000143311
0.00253605
-0.00029481
0.00263116
-0.000392492
0.00272636
-0.000402237
0.00279879
-0.000317572
0.00283311
-0.000162381
0.00282487
2.0525e-05
0.00277976
0.000185608
0.00271021
0.00029863
0.00263112
0.00034446
0.00255646
0.000325762
0.00249817
0.000253921
0.00246678
0.000140068
0.00247072
-4.43938e-06
0.00251268
-0.000159069
0.00258568
-0.000290415
0.00267344
-0.000362417
0.00275521
-0.000353086
0.00281246
-0.000264936
0.00283409
-0.000123206
0.00281848
3.52485e-05
0.00277231
0.000174833
0.00270707
0.000270398
0.00263554
0.000310263
0.00256977
0.000293763
0.00252078
0.000226359
0.00249834
0.000116807
0.00250919
-2.04434e-05
0.00255344
-0.000160793
0.00262244
-0.00027163
0.00270043
-0.000323413
0.00276937
-0.000302224
0.00281425
-0.00021539
0.00282689
-8.76278e-05
0.00280717
4.89992e-05
0.00276172
0.000165628
0.00270106
0.000243377
0.00263657
0.000274183
0.00257902
0.000257217
0.00253839
0.000195185
0.00252329
9.44185e-05
0.0025389
-3.11443e-05
0.00258389
-0.000157077
0.00264919
-0.000252939
0.00272009
-0.000293287
0.0027807
-0.000267964
0.00281833
-0.000185554
0.00282644
-6.91126e-05
0.00280546
5.26959e-05
0.00276163
0.000154643
0.00270462
0.000220828
0.00264493
0.000245172
0.00259259
0.000227597
0.00255683
0.000170223
0.00254558
7.77512e-05
0.00256341
-3.81464e-05
0.00260892
-0.000155776
0.00267371
-0.000247414
0.00274433
-0.00028922
0.0028061
-0.000270527
0.00284702
-0.000197269
0.00286028
-8.89216e-05
0.00284521
2.85509e-05
0.0028067
0.000130493
0.00275337
0.000199758
0.00269524
0.000229073
0.00264196
0.00021877
0.00260231
0.000172232
0.00258407
9.34387e-05
0.00259295
-1.07846e-05
0.00263033
-0.000126336
0.00269146
-0.000231447
0.00276599
-0.000302914
0.00284087
-0.000324933
0.00290399
-0.000294655
0.00294682
-0.000222052
0.00296563
-0.000125538
0.0029614
-2.61083e-05
0.00293887
5.79144e-05
0.00290512
0.000114421
0.00286785
0.000139052
0.00283395
0.000134339
0.00280862
0.000107439
0.00279509
6.70691e-05
0.00279444
2.26284e-05
0.00280545
-1.81894e-05
0.00282443
-4.57947e-05
0.00284632
-5.90857e-05
0.00286431
-4.69927e-05
0.00287705
-3.56861e-05
2.35806e-05
0.00250249
-1.5701e-05
0.0025098
-4.61275e-05
0.0025221
-7.64569e-05
0.00253974
-0.000107072
0.00256326
-0.000138079
0.00259317
-0.000168378
0.00262956
-0.000195432
0.00267111
-0.000213376
0.00271468
-0.000215473
0.00275395
-0.000193705
0.00278107
-0.000144951
0.00279471
-9.04351e-05
0.00279643
-4.23659e-05
0.00279292
-1.74406e-05
0.00279283
-2.10493e-05
0.00280184
-4.16303e-05
0.00281946
-5.73071e-05
0.00283671
-4.04094e-05
0.0028403
2.22726e-05
0.00282086
0.00011759
0.00277767
0.000216087
0.00271702
0.000291071
0.00264804
0.000327866
0.00257987
0.000321823
0.00252097
0.000273089
0.00247969
0.000183147
0.00246514
5.4819e-05
0.0024866
-0.000102965
0.00254823
-0.000263966
0.00264058
-0.000379579
0.00273836
-0.000398357
0.00281075
-0.000301869
0.00283699
-0.000122479
0.00281464
7.67015e-05
0.00275602
0.000239189
0.00267834
0.000338488
0.00259602
0.000374704
0.00251886
0.000357867
0.00245405
0.000295195
0.00240852
0.000187895
0.00239054
3.55278e-05
0.00241039
-0.000154333
0.00247608
-0.000351873
0.00258331
-0.00049933
0.00270855
-0.000531649
0.00281494
-0.000417987
0.00286903
-0.000189918
0.00285777
7.21689e-05
0.00279297
0.000285705
0.00270019
0.000407476
0.00260316
0.000439524
0.00251569
0.000406272
0.00244361
0.00032871
0.00239248
0.000211503
0.00237351
4.813e-05
0.00240018
-0.000157219
0.00247634
-0.000367415
0.00258786
-0.000517404
0.00270652
-0.000548042
0.00280173
-0.000440208
0.00285136
-0.00022474
0.00284706
3.30519e-05
0.00279474
0.000260955
0.00271096
0.000407579
0.00261589
0.000457933
0.0025264
0.0004272
0.00245451
0.000338232
0.00241094
0.000202348
0.00240705
2.22517e-05
0.0024497
-0.000185958
0.00253366
-0.000378769
0.00264027
-0.000499103
0.00274363
-0.000505602
0.00281947
-0.000393405
0.00285223
-0.000195145
0.00283842
3.43361e-05
0.00278554
0.00023849
0.00270784
0.000376325
0.00262135
0.000430959
0.00254064
0.000406465
0.00247867
0.000315896
0.00244749
0.000171242
0.00245654
-1.34891e-05
0.00250751
-0.000210035
0.00259069
-0.00037359
0.00268689
-0.000458621
0.00277365
-0.000439847
0.00283186
-0.000323142
0.00285051
-0.000141855
0.00282867
5.70822e-05
0.0027744
0.000229108
0.00270092
0.000343875
0.00262249
0.000388697
0.00255216
0.000364088
0.00250185
0.000276667
0.00248218
0.000136483
0.0024998
-3.80641e-05
0.00255324
-0.000214236
0.00263127
-0.000349657
0.00271588
-0.000408022
0.00278791
-0.000374253
0.00283223
-0.000259716
0.00284105
-9.64492e-05
0.00281494
7.51095e-05
0.00276169
0.000218883
0.00269323
0.000311839
0.00262237
0.000345035
0.00256113
0.000318462
0.00252044
0.000235874
0.00250945
0.000105407
0.00253274
-5.44359e-05
0.00258705
-0.000211381
0.00266076
-0.000326654
0.00273725
-0.000369779
0.00279984
-0.000330551
0.00283601
-0.00022172
0.00283978
-7.28913e-05
0.00281234
8.01431e-05
0.00276089
0.000206093
0.00269626
0.000285452
0.00263026
0.00031117
0.00257419
0.000283675
0.00253838
0.000206032
0.00253126
8.48661e-05
0.00255675
-6.36374e-05
0.00261145
-0.000210478
0.00268447
-0.00032043
0.00276048
-0.000365232
0.00282416
-0.000334206
0.00286378
-0.000236889
0.0028732
-9.83402e-05
0.00285242
4.93288e-05
0.00280703
0.000175887
0.00274644
0.000260344
0.00268163
0.000293886
0.00262338
0.000277021
0.00258168
0.000213933
0.00256527
0.00010985
0.00257989
-2.54112e-05
0.00262549
-0.00017193
0.00269472
-0.000300684
0.0027748
-0.000382995
0.00285144
-0.000401564
0.00291264
-0.000355861
0.00295093
-0.000260337
0.0029638
-0.000138411
0.00295327
-1.5575e-05
0.00292482
8.63584e-05
0.00288608
0.000153158
0.0028452
0.000179938
0.00280948
0.000170056
0.00278461
0.000132312
0.00277417
7.75034e-05
0.00277927
1.75365e-05
0.00279788
-3.68078e-05
0.00282492
-7.2831e-05
0.00285324
-8.74043e-05
0.00287514
-6.88952e-05
0.00288776
-4.83057e-05
3.19179e-05
0.00250237
-1.8067e-05
0.00250933
-5.30923e-05
0.00252115
-8.82808e-05
0.00253841
-0.000124324
0.00256196
-0.000161635
0.00259282
-0.000199236
0.00263168
-0.00023429
0.00267753
-0.00025923
0.00272714
-0.000265081
0.00277205
-0.00023862
0.00280146
-0.000174353
0.00281374
-0.000102721
0.00281072
-3.93399e-05
0.00280148
-8.20013e-06
0.00279803
-1.76013e-05
0.00280852
-5.21191e-05
0.00283295
-8.17377e-05
0.00285926
-6.67223e-05
0.00286913
1.24001e-05
0.00284993
0.000136795
0.00280115
0.000264868
0.00273138
0.000360836
0.00265204
0.000407213
0.00257358
0.00040028
0.00250504
0.000341631
0.00245542
0.000232764
0.0024359
7.43375e-05
0.00245972
-0.000126778
0.00253456
-0.000338815
0.00265014
-0.000495152
0.00277369
-0.000521907
0.00286356
-0.000391744
0.00289277
-0.000151681
0.00286081
0.000108658
0.00278646
0.000313542
0.00269271
0.000432231
0.00259669
0.000470725
0.00250817
0.000446388
0.00243245
0.000370917
0.00237391
0.000246431
0.00234122
6.82212e-05
0.00235089
-0.000164007
0.00241826
-0.000419235
0.0025394
-0.000620475
0.00268524
-0.000677484
0.00281337
-0.000546118
0.00288572
-0.000262269
0.00288388
7.40034e-05
0.00281676
0.000352831
0.00271285
0.000511385
0.00260181
0.00055056
0.0025012
0.000506884
0.00241764
0.000412269
0.00235819
0.000270953
0.00233789
6.84366e-05
0.00237246
-0.000191788
0.00246281
-0.000457765
0.0025891
-0.000643694
0.00271888
-0.000677829
0.00281991
-0.000541231
0.00287002
-0.000274851
0.002862
4.10687e-05
0.0028033
0.000319655
0.00271162
0.000499261
0.0026078
0.000561753
0.0025096
0.000525392
0.0024309
0.000416936
0.00238517
0.000248077
0.00238557
2.18571e-05
0.00243766
-0.000238049
0.00253247
-0.000473578
0.00264792
-0.000614557
0.00275669
-0.000614371
0.0028344
-0.000471113
0.00286556
-0.000226306
0.00284683
5.3066e-05
0.00278667
0.00029865
0.00270093
0.000462064
0.00260704
0.000524854
0.00252066
0.000492837
0.00245604
0.000380519
0.00242663
0.000200658
0.002442
-2.88606e-05
0.00250188
-0.000269915
0.00259351
-0.000465223
0.00269549
-0.000560606
0.00278474
-0.000529095
0.0028425
-0.000380901
0.00285817
-0.000157528
0.0028311
8.41551e-05
0.00276995
0.000290261
0.00268915
0.000424672
0.00260439
0.000473458
0.00253011
0.000438369
0.00247946
0.000327318
0.00246373
0.00015221
0.00248886
-6.31918e-05
0.00255106
-0.000276434
0.0026364
-0.000434998
0.00272523
-0.000496857
0.00279817
-0.000447194
0.00284068
-0.000302225
0.00284559
-0.000101353
0.00281392
0.000106773
0.00275408
0.00027873
0.00267895
0.000386963
0.00260265
0.000421338
0.00253855
0.000382556
0.00249881
0.000275619
0.00249291
0.000111308
0.00252427
-8.58013e-05
0.00258717
-0.000274275
0.00266748
-0.000406964
0.00274722
-0.000449518
0.00280971
-0.000393038
0.00284316
-0.000255177
0.0028424
-7.21303e-05
0.00280917
0.000113377
0.00275125
0.000264009
0.00268026
0.000356441
0.0026091
0.000382335
0.00255037
0.0003424
0.00251562
0.00024078
0.0025136
8.6892e-05
0.002547
-9.70414e-05
0.00260998
-0.000273453
0.00268918
-0.000399637
0.00276804
-0.000444088
0.00283132
-0.000397484
0.00286814
-0.00027371
0.00287324
-0.000103445
0.00284723
7.53467e-05
0.00279606
0.000227057
0.00272959
0.00032681
0.00265949
0.000363986
0.00259761
0.000338905
0.00255522
0.000256319
0.00254196
0.000123109
0.00256312
-4.65685e-05
0.00261646
-0.000225271
0.00269176
-0.000375985
0.00277415
-0.00046539
0.00284896
-0.000476365
0.00290516
-0.00041207
0.00293681
-0.000291988
0.00294279
-0.000144389
0.00292604
1.17332e-06
0.00289262
0.000119784
0.00285044
0.000195339
0.00280789
0.000222485
0.00277263
0.000205315
0.0027508
0.000154148
0.00274625
8.20463e-05
0.00275971
4.08161e-06
0.00278765
-6.4751e-05
0.00282297
-0.000108152
0.00285621
-0.000120642
0.00287938
-9.20663e-05
0.00288812
-5.7045e-05
4.62122e-05
0.0025022
-2.02639e-05
0.00250867
-5.95636e-05
0.00251979
-9.94001e-05
0.00253636
-0.000140898
0.00255967
-0.000184944
0.00259138
-0.000230943
0.00263301
-0.000275923
0.00268421
-0.000310429
0.00274186
-0.000322732
0.00279447
-0.000291232
0.00282696
-0.000206839
0.00283748
-0.000113243
0.00282789
-2.97528e-05
0.00281041
9.28769e-06
0.00280171
-8.90986e-06
0.0028137
-6.41041e-05
0.00284735
-0.000115385
0.00288634
-0.000105719
0.00290517
-6.43198e-06
0.00288655
0.000155418
0.00283045
0.000320967
0.00274892
0.000442367
0.00265657
0.00049956
0.00256547
0.00049138
0.00248498
0.00042212
0.00242467
0.000293082
0.00239773
0.000101278
0.00241997
-0.000149023
0.00250203
-0.000420876
0.00263817
-0.00063129
0.00279497
-0.000678712
0.00291658
-0.000513354
0.00295879
-0.000193886
0.00291815
0.000149299
0.0028236
0.000408085
0.00270908
0.000546753
0.0025965
0.000583304
0.00249486
0.000548029
0.0024056
0.000460178
0.00233045
0.000321578
0.00228268
0.000115998
0.00228906
-0.000170392
0.00236872
-0.000498895
0.00251017
-0.000761923
0.00267471
-0.000842025
0.00281651
-0.000687922
0.00289873
-0.000344485
0.00290282
6.99136e-05
0.00283484
0.000420806
0.00272249
0.000623739
0.00259848
0.000674567
0.00248414
0.000621225
0.00238891
0.000507502
0.00232335
0.000336514
0.00230583
8.59586e-05
0.00235105
-0.000237009
0.00245439
-0.000561104
0.00259108
-0.000780383
0.00272738
-0.000814137
0.00283169
-0.000645532
0.00288196
-0.000325121
0.00287074
5.22859e-05
0.00280611
0.000384288
0.00270696
0.000598406
0.00259507
0.000673643
0.00248921
0.00063125
0.00240531
0.000500839
0.0023594
0.000293984
0.00236528
1.59788e-05
0.00242594
-0.000298707
0.00252856
-0.000576196
0.00264881
-0.000734811
0.00275944
-0.000724999
0.00283712
-0.000548793
0.00286685
-0.000256039
0.00284493
7.4985e-05
0.00277965
0.000363937
0.00268759
0.000554124
0.00258751
0.000624933
0.0024966
0.000583745
0.0024307
0.000446418
0.00240432
0.000227043
0.00242627
-5.08103e-05
0.00249363
-0.000337281
0.00259087
-0.000562464
0.00269532
-0.000665054
0.00278429
-0.000618062
0.0028401
-0.00043671
0.00285286
-0.000170289
0.00282196
0.000115055
0.002756
0.000356217
0.00266989
0.000510786
0.00258041
0.000562933
0.00250353
0.000515251
0.0024538
0.000377051
0.0024429
0.000163111
0.00247536
-9.56529e-05
0.0025447
-0.000345777
0.00263467
-0.000524962
0.00272481
-0.000587004
0.00279637
-0.00051875
0.0028359
-0.000341754
0.00283701
-0.000102468
0.00280102
0.000142763
0.00273643
0.000343319
0.00265658
0.000466814
0.00257654
0.000501377
0.00251108
0.000448013
0.00247353
0.000313172
0.00247339
0.00011145
0.00251237
-0.000124782
0.00258205
-0.000343951
0.00266623
-0.000491153
0.00274643
-0.000529713
0.0028067
-0.000453308
0.00283641
-0.000284888
0.00283123
-6.69498e-05
0.0027933
0.00015131
0.0027306
0.000326705
0.00265513
0.000431918
0.00258059
0.00045687
0.00252085
0.000402135
0.00248853
0.000273106
0.00249228
8.31444e-05
0.00253304
-0.000137809
0.00260233
-0.00034274
0.00268485
-0.000482151
0.0027636
-0.000522846
0.00282421
-0.000458094
0.00285702
-0.000306517
0.0028577
-0.000104126
0.00282728
0.000105764
0.00277184
0.000282497
0.00270133
0.000397322
0.00262784
0.00043748
0.00256417
0.000402568
0.00252285
0.000297642
0.00251405
0.000131912
0.0025419
-7.44163e-05
0.00260141
-0.000284787
0.00267962
-0.000454189