/*--------------------------------*- C++ -*----------------------------------*\
  =========                 |
  \\      /  F ield         | OpenFOAM: The Open Source CFD Toolbox
   \\    /   O peration     | Website:  https://openfoam.org
    \\  /    A nd           | Version:  11
     \\/     M anipulation  |
\*---------------------------------------------------------------------------*/
FoamFile
{
    format      ascii;
    class       volScalarField;
    location    "16.392315";
    object      p;
}
// * * * * * * * * * * * * * * * * * * * * * * * * * * * * * * * * * * * * * //

dimensions      [0 2 -2 0 0 0 0];

internalField   nonuniform List<scalar> 
7132
(
0.0794158
0.0780515
0.0733982
0.0667535
0.0576559
0.046113
0.0323521
0.0169244
0.000785882
-0.0143771
-0.0269675
-0.0347961
-0.0375105
-0.0351489
-0.0287309
-0.0200792
-0.0108311
-0.00227651
0.00498181
0.0111074
0.0167095
0.0222907
0.0279332
0.033423
0.0385041
0.0430392
0.0470509
0.0506039
0.0536807
0.0560079
0.0570688
0.0564844
0.0545456
0.0523038
0.0508517
0.0506213
0.0512898
0.0522705
0.0531323
0.0537475
0.0542413
0.0548223
0.0555726
0.0561527
0.0558079
0.0539348
0.0508422
0.0478175
0.0461455
0.0461824
0.047303
0.048599
0.0494741
0.0498006
0.0497924
0.0497871
0.0499747
0.0500706
0.0493549
0.0472467
0.0440624
0.0410877
0.039639
0.0400824
0.04171
0.0434471
0.0445712
0.0449303
0.0447773
0.0444981
0.0442973
0.0439418
0.042849
0.0406212
0.0376346
0.0350234
0.0339061
0.0345923
0.0364383
0.0384023
0.0397176
0.0401785
0.0400165
0.0396061
0.0391293
0.0383892
0.0369703
0.0347102
0.0320819
0.0300456
0.0294191
0.0303442
0.0322382
0.0342155
0.0355917
0.0361376
0.0360227
0.0355667
0.034933
0.0339895
0.0324798
0.0304038
0.0282498
0.0267913
0.0265919
0.0276585
0.0294665
0.0312953
0.0325872
0.0331304
0.0330336
0.0325467
0.031817
0.0307778
0.0292881
0.0274282
0.0256545
0.0246038
0.0246956
0.025879
0.0276792
0.0294778
0.0307924
0.031414
0.0313904
0.0308955
0.0300457
0.0288074
0.027097
0.0250215
0.0230185
0.0217089
0.0215439
0.0225437
0.0242952
0.0261869
0.0276832
0.0284775
0.0285004
0.0278307
0.0265547
0.0246625
0.0220674
0.0187634
0.0150186
0.0113824
0.00850799
0.00680181
0.00633416
0.00669496
0.00749885
0.00802163
0.00837162
0.00768755
0.00726402
0.00512046
0.00487578
0.00127107
0.00282998
-0.00257844
0.0799635
0.078603
0.0739643
0.0673227
0.058202
0.0465816
0.0326623
0.0169699
0.000466442
-0.0151089
-0.0280748
-0.0360426
-0.0387151
-0.0361085
-0.0293073
-0.0202666
-0.0107214
-0.00202164
0.00522183
0.0112314
0.0167087
0.022218
0.0278476
0.0333624
0.0384861
0.0430697
0.0471323
0.0507343
0.053856
0.0562128
0.0572595
0.0565895
0.0545027
0.0521124
0.0505744
0.0503375
0.0510482
0.0520845
0.0529981
0.0536572
0.0541883
0.0548
0.0555786
0.0561759
0.0558101
0.053852
0.0506242
0.0474758
0.0457528
0.0458234
0.0470272
0.0484111
0.0493563
0.0497309
0.0497518
0.0497595
0.0499527
0.0500356
0.0492723
0.0470706
0.0437638
0.0406863
0.0392033
0.0396929
0.0414199
0.0432658
0.0444779
0.0448939
0.0447691
0.0444974
0.0442886
0.0439005
0.0427377
0.0404044
0.0373052
0.0346173
0.0334884
0.0342282
0.0361711
0.0382434
0.0396516
0.0401752
0.0400438
0.0396381
0.0391441
0.0383574
0.0368559
0.0344886
0.0317616
0.0296729
0.0290568
0.0300454
0.0320315
0.0341042
0.0355612
0.0361636
0.0360767
0.0356219
0.0349632
0.0339642
0.0323695
0.0301957
0.0279618
0.0264704
0.0262943
0.0274278
0.0293221
0.0312339
0.0325921
0.03318
0.0331044
0.0326142
0.0318544
0.0307552
0.0291809
0.027231
0.0253898
0.0243171
0.0244386
0.0256909
0.0275764
0.0294547
0.030831
0.0314927
0.0314875
0.0309877
0.0301053
0.0288026
0.0270019
0.0248296
0.0227515
0.0214124
0.0212718
0.0223409
0.0241867
0.0261734
0.0277485
0.0285973
0.0286496
0.0279838
0.026683
0.024731
0.0220416
0.0186228
0.0147697
0.0110611
0.00817022
0.00650529
0.00612256
0.00658778
0.00749189
0.00808859
0.00848276
0.00779972
0.0073669
0.00516074
0.00491169
0.00119052
0.00281377
-0.0026972
0.081057
0.0797058
0.0750987
0.0684689
0.0593076
0.0475384
0.0333062
0.0170805
-0.000165673
-0.0165915
-0.0303348
-0.0385802
-0.0411582
-0.0380276
-0.0304117
-0.0205702
-0.0104225
-0.00144296
0.00574326
0.0114863
0.0166872
0.0220422
0.0276475
0.0332168
0.0384295
0.0431118
0.0472769
0.0509792
0.0541943
0.0566159
0.0576376
0.056792
0.0543969
0.051696
0.0499822
0.0497378
0.0505411
0.0516935
0.0527113
0.0534562
0.054059
0.0547308
0.0555673
0.0562009
0.0557926
0.0536585
0.0501483
0.046741
0.0449147
0.0450621
0.0464448
0.0480132
0.049101
0.0495698
0.0496454
0.0496763
0.0498829
0.0499412
0.0490804
0.0466826
0.0431195
0.0398295
0.0382784
0.0388683
0.0408049
0.0428775
0.0442696
0.0447978
0.0447253
0.0444661
0.0442426
0.0437928
0.0424922
0.0399475
0.0366212
0.0337789
0.0326276
0.0334775
0.0356178
0.0379085
0.0395018
0.040148
0.0400745
0.0396777
0.0391513
0.0382735
0.0366069
0.0340239
0.0310986
0.0289055
0.028313
0.0294336
0.0316081
0.0338727
0.0354899
0.036202
0.0361694
0.0357178
0.0350104
0.0338999
0.0321318
0.0297575
0.02736
0.0258022
0.0256759
0.0269495
0.029022
0.0311028
0.0325947
0.0332714
0.0332385
0.0327435
0.0319239
0.0307017
0.0289515
0.0268129
0.0248297
0.0237113
0.0238953
0.0252921
0.0273549
0.0293977
0.0309005
0.0316443
0.0316777
0.0311706
0.0302231
0.0287873
0.0267966
0.0244192
0.0221808
0.0207779
0.0206883
0.0219041
0.0239467
0.026131
0.0278685
0.0288298
0.0289429
0.0282873
0.0269374
0.024863
0.0219773
0.0183177
0.0142369
0.0103768
0.00745207
0.0058753
0.00567246
0.0063572
0.0074701
0.00821979
0.00870522
0.0080247
0.00757427
0.00524152
0.0049875
0.00102073
0.00281051
-0.00300408
0.0826929
0.0813582
0.0768066
0.0702061
0.0609988
0.0490213
0.0343289
0.0172933
-0.00110166
-0.0188737
-0.0338571
-0.0425332
-0.0449793
-0.0410457
-0.0321623
-0.0210579
-0.00995863
-0.000537777
0.00654979
0.0118597
0.0166197
0.0217372
0.0273125
0.032971
0.0383199
0.0431493
0.0474663
0.051319
0.0546775
0.0572023
0.0581858
0.0570572
0.0541628
0.0509638
0.0489816
0.0487481
0.0497192
0.0510646
0.0522451
0.0531171
0.0538228
0.0545804
0.0554995
0.056182
0.0556956
0.0532681
0.0492944
0.0454706
0.0434965
0.043797
0.0454913
0.0473656
0.0486787
0.0492869
0.0494367
0.0495109
0.0497083
0.0497233
0.0487109
0.0460091
0.0420457
0.0384214
0.0367645
0.037521
0.0398007
0.0422384
0.0439129
0.0446087
0.0446068
0.0443599
0.0441126
0.0435699
0.0420569
0.0391833
0.0355047
0.0324275
0.0312518
0.0322857
0.0347404
0.0373694
0.0392428
0.0400704
0.0400811
0.0396984
0.0391248
0.0381056
0.0361765
0.0332488
0.0300093
0.0276573
0.0271151
0.0284586
0.0309376
0.033502
0.0353619
0.0362369
0.0362858
0.0358421
0.0350612
0.0337731
0.031724
0.0290249
0.0263658
0.0247075
0.0246705
0.0261773
0.0285381
0.030886
0.0325838
0.0333957
0.033429
0.03293
0.0320177
0.0305969
0.0285584
0.0261109
0.023898
0.0227099
0.0230013
0.0246367
0.026986
0.0292904
0.030991
0.0318621
0.0319567
0.0314409
0.030391
0.0287395
0.0264377
0.0237244
0.0212257
0.0197223
0.0197203
0.0211779
0.023539
0.0260384
0.0280318
0.0291678
0.0293755
0.0287362
0.0273086
0.0250375
0.0218351
0.0177887
0.0133462
0.00925109
0.00628276
0.0048573
0.00494924
0.00598736
0.00743176
0.00842189
0.00904776
0.00837105
0.00788995
0.00536224
0.00509837
0.000742844
0.00284685
-0.00361273
0.0848648
0.0835566
0.0790943
0.0725551
0.0633155
0.0510907
0.0358047
0.0176738
-0.00231563
-0.0220182
-0.0387895
-0.0480352
-0.0502609
-0.0451293
-0.0343796
-0.0214729
-0.00906022
0.000909533
0.00775058
0.0123374
0.0164068
0.0211798
0.0267368
0.0325457
0.038098
0.0431332
0.0476557
0.0517118
0.0552681
0.0579428
0.058875
0.0573295
0.0536926
0.049761
0.0474115
0.047239
0.0484942
0.0501369
0.0515492
0.0525887
0.053421
0.0542819
0.0552948
0.0560288
0.0554166
0.05255
0.0478888
0.0434518
0.0412825
0.0418529
0.0440485
0.0463938
0.048034
0.0488239
0.0490473
0.0491259
0.0493126
0.0492665
0.0480552
0.0449493
0.0404452
0.0363609
0.0345549
0.0355451
0.0383159
0.041277
0.0433487
0.044267
0.044347
0.0441088
0.043834
0.0431688
0.041354
0.0380039
0.0338195
0.0304206
0.0292391
0.0305644
0.033477
0.0365797
0.0388328
0.0398995
0.0400217
0.0396643
0.0390317
0.0378112
0.0354966
0.0320632
0.028369
0.0257988
0.0253494
0.027036
0.0299639
0.0329556
0.0351489
0.0362428
0.036404
0.0359784
0.0350978
0.0335513
0.031087
0.0279105
0.0248732
0.0230781
0.0231825
0.0250376
0.0278203
0.0305514
0.0325384
0.0335378
0.0336662
0.0331675
0.0321249
0.0304126
0.0279473
0.025045
0.0224989
0.0212157
0.0216701
0.0236558
0.0264204
0.0290999
0.0310814
0.0321328
0.032317
0.0317931
0.0305968
0.0286296
0.0258708
0.0226671
0.0197928
0.0181496
0.0182795
0.0200887
0.0229081
0.0258565
0.0282113
0.0295934
0.029935
0.0293209
0.0277824
0.0252266
0.0215671
0.0169692
0.0120216
0.00761043
0.00460004
0.00340495
0.00392249
0.00546158
0.00737076
0.0086957
0.00951398
0.00884354
0.00831584
0.00552232
0.00523793
0.000334313
0.00295644
-0.00465314
0.0875626
0.0862949
0.0819682
0.075542
0.06631
0.0538284
0.0378373
0.0183149
-0.00377377
-0.0261373
-0.0453977
-0.0553891
-0.0573772
-0.0506399
-0.0373336
-0.0219822
-0.00778181
0.00292048
0.00936877
0.0128949
0.0159836
0.0203003
0.0258658
0.0318987
0.0377232
0.0430167
0.0477889
0.0520937
0.0559001
0.0587775
0.0596377
0.0574967
0.0527952
0.0478303
0.0450147
0.0450117
0.0467371
0.0488258
0.0505551
0.0517992
0.0527625
0.0537026
0.0547711
0.0555346
0.0547718
0.0513708
0.0458119
0.0405154
0.0380425
0.0390047
0.0419527
0.0449934
0.0470897
0.048097
0.0483669
0.048405
0.0485564
0.048437
0.04697
0.0433249
0.0381071
0.0334442
0.0314876
0.0328222
0.0362571
0.0399144
0.042504
0.0436975
0.0438678
0.0436426
0.0433447
0.0425189
0.040279
0.0362573
0.0313772
0.0275636
0.0264218
0.0281919
0.0317482
0.0354832
0.0382219
0.0395865
0.0398524
0.0395405
0.0388363
0.0373348
0.0344781
0.0303458
0.026039
0.0231907
0.0228922
0.0250685
0.0286199
0.0321875
0.034815
0.0361882
0.036498
0.0361056
0.0350933
0.0331863
0.0301438
0.0263146
0.0227732
0.0208086
0.0211197
0.0234567
0.026815
0.0300616
0.0324307
0.033676
0.0339331
0.0334399
0.0322197
0.0301019
0.0270469
0.023527
0.0205398
0.0191416
0.0198263
0.0222883
0.0256116
0.0287914
0.031145
0.0324356
0.0327407
0.0322074
0.0308093
0.0284064
0.0250246
0.0211644
0.0177991
0.0159838
0.0163
0.018581
0.0220082
0.0255483
0.028377
0.0300811
0.0305993
0.0300182
0.0283262
0.025381
0.0211075
0.0157885
0.0102031
0.00541674
0.00238916
0.00152048
0.00260323
0.00479306
0.00729871
0.00905044
0.0101093
0.00944554
0.00884687
0.00571311
0.00538182
-0.000236625
0.00314166
-0.00624423
0.0907704
0.089562
0.0854336
0.0791971
0.0700486
0.0573441
0.0405731
0.0193602
-0.00540053
-0.0313524
-0.0539767
-0.0648199
-0.0663991
-0.0574332
-0.0406452
-0.0220481
-0.00558811
0.0058932
0.0115694
0.0134359
0.0150887
0.0188152
0.0244773
0.030875
0.0370811
0.0426992
0.0477625
0.0523533
0.0564624
0.059596
0.0603396
0.0573468
0.0511238
0.0447216
0.0413731
0.0417652
0.0442631
0.0470133
0.0491668
0.0506425
0.0516971
0.0526031
0.0536099
0.0543532
0.0534545
0.0495257
0.0429584
0.0365729
0.0336304
0.0350496
0.0390162
0.0430246
0.0457349
0.0469882
0.0472549
0.0472064
0.0473213
0.0471256
0.0453086
0.0409128
0.0347458
0.0293825
0.0273307
0.0291969
0.0335177
0.0380623
0.0412913
0.0428107
0.0430865
0.0428937
0.042582
0.0415393
0.0387187
0.0338063
0.0280332
0.0237138
0.0226666
0.0250562
0.0294702
0.034015
0.0373509
0.0390745
0.0395239
0.0392854
0.0384917
0.03661
0.0330348
0.0280043
0.022934
0.0197567
0.0196716
0.0224891
0.0268475
0.0311484
0.0343161
0.0360329
0.0365331
0.0361907
0.0350058
0.0326198
0.0288235
0.0241659
0.0200041
0.0178471
0.0184346
0.0213889
0.0254792
0.0293773
0.0322256
0.0337795
0.0342021
0.0337174
0.0322611
0.0296093
0.0257934
0.021497
0.0179725
0.01645
0.0174361
0.0204994
0.0245228
0.028328
0.0311467
0.0327379
0.0331973
0.0326492
0.0309829
0.0280126
0.0238389
0.0191661
0.0152116
0.0132062
0.0137669
0.016635
0.0208109
0.0250777
0.0284891
0.0305916
0.0313305
0.0307887
0.0288921
0.0254422
0.0203984
0.0142089
0.00788991
0.00270786
-0.000285756
-0.000727505
0.00105195
0.00402409
0.00723785
0.00949307
0.0108298
0.0101692
0.00946604
0.00591445
0.00548671
-0.00100348
0.00336629
-0.00841174
0.0944651
0.0933404
0.0894915
0.083552
0.074608
0.0617726
0.0441993
0.0210016
-0.0071006
-0.0378883
-0.0650726
-0.0769541
-0.0781759
-0.0663155
-0.0448672
-0.0219972
-0.00253405
0.00992685
0.0144184
0.0138871
0.0135441
0.0165515
0.0224508
0.0293888
0.0360881
0.0420766
0.0474411
0.0523221
0.0567579
0.0601708
0.0606928
0.0564578
0.0480928
0.0397263
0.0358339
0.0370423
0.0408068
0.0445439
0.0472631
0.0489746
0.0500047
0.0506708
0.0514596
0.0521558
0.0511452
0.0466317
0.0389052
0.0312878
0.0278405
0.0298293
0.0350781
0.0403401
0.043835
0.0453598
0.045572
0.0454144
0.0455172
0.0452294
0.0429227
0.0375304
0.0301728
0.023991
0.021913
0.0245315
0.0299991
0.035637
0.0396236
0.0415184
0.0419261
0.0417981
0.0414772
0.0401441
0.0365811
0.0305811
0.0237547
0.0188593
0.0179541
0.0211188
0.026594
0.0321211
0.0361617
0.0383045
0.0389815
0.0388457
0.0379368
0.0355682
0.031107
0.0250092
0.0190609
0.0155241
0.01571
0.019299
0.0246252
0.0298011
0.0336068
0.0357291
0.0364614
0.0361821
0.0347758
0.0317901
0.0270791
0.0214484
0.0165828
0.0142274
0.0151567
0.0188445
0.0238011
0.0284697
0.0318846
0.0338057
0.0344287
0.033949
0.0321907
0.0288767
0.0241469
0.018947
0.0148209
0.0131805
0.0145348
0.0183048
0.0231461
0.0276817
0.0310461
0.0329932
0.0336362
0.0330608
0.0310534
0.0273887
0.0222784
0.0166763
0.0120728
0.00987991
0.010741
0.0142892
0.0193242
0.024424
0.028506
0.031072
0.0320705
0.0315685
0.0294095
0.0253429
0.0193996
0.0122435
0.00515926
-0.000386376
-0.00326995
-0.00318785
-0.000612874
0.00323292
0.00722636
0.0100311
0.0116619
0.0109912
0.0101379
0.00608687
0.00548344
-0.00199994
0.00354145
-0.0110643
0.0986139
0.0976037
0.0941359
0.0886376
0.0800764
0.067285
0.0489723
0.0235334
-0.00867198
-0.0459642
-0.0792314
-0.0920616
-0.0926749
-0.0768946
-0.0492429
-0.0208173
0.00224512
0.0155993
0.0180762
0.0139289
0.0107522
0.0129227
0.0193648
0.0271681
0.0345462
0.0409618
0.0466081
0.0517177
0.0563449
0.0599106
0.0601912
0.0545567
0.043483
0.032379
0.0276676
0.0302244
0.0360059
0.0412207
0.0446949
0.0466089
0.0474179
0.0476176
0.0481077
0.0487983
0.0476468
0.0423035
0.0331196
0.0241639
0.0203441
0.0231729
0.0300106
0.0368062
0.0412481
0.043071
0.0431998
0.042942
0.0430649
0.0426509
0.0397115
0.0331285
0.0244166
0.0173329
0.0152683
0.0188096
0.0256574
0.0325775
0.0374243
0.0397391
0.0403125
0.0402847
0.0399524
0.0382576
0.0338273
0.0266133
0.0186481
0.0131459
0.0124149
0.0164562
0.023136
0.0297748
0.0346032
0.0372145
0.0381587
0.0381487
0.0370959
0.0341501
0.0286828
0.0214169
0.0145384
0.0106413
0.0111424
0.0155862
0.0219842
0.0281306
0.0326432
0.0352185
0.0362166
0.036006
0.0343303
0.0306465
0.0249094
0.0182239
0.0126234
0.0100846
0.0114055
0.0159014
0.0218086
0.0273244
0.031366
0.0336979
0.034547
0.0340618
0.0319387
0.0278601
0.0221135
0.0159439
0.0111989
0.00946309
0.0112356
0.0157777
0.0215061
0.0268348
0.0307958
0.0331371
0.0339831
0.0333613
0.0309467
0.0264911
0.0203557
0.0137735
0.00851417
0.00615841
0.00736229
0.0116426
0.0175929
0.0235802
0.0283818
0.0314518
0.0327359
0.0322668
0.0297903
0.0250224
0.0181107
0.00997572
0.00217525
-0.00364853
-0.00633256
-0.00565374
-0.00223305
0.00251709
0.00730405
0.0106605
0.0125714
0.0118624
0.0107958
0.00616958
0.00528915
-0.00324007
0.0035491
-0.01396
0.103172
0.102313
0.0993493
0.0944753
0.0865427
0.0740743
0.0551999
0.027337
-0.00988179
-0.0560426
-0.0975466
-0.111506
-0.111772
-0.0908378
-0.054718
-0.0190245
0.0088562
0.0232378
0.0226428
0.0132092
0.00614652
0.00746863
0.0149583
0.0240587
0.0323073
0.0391603
0.044993
0.0500498
0.0543072
0.0575987
0.0577192
0.0513142
0.0379049
0.0233441
0.016821
0.0207838
0.0294125
0.036786
0.0412824
0.04334
0.0436984
0.0432685
0.0434789
0.0442171
0.0428225
0.036382
0.0254926
0.0151129
0.0110443
0.0150023
0.0237514
0.0323335
0.0378553
0.0400043
0.0400494
0.0397199
0.0398891
0.0393162
0.0356577
0.0278076
0.0177046
0.00970141
0.00765835
0.0121938
0.0205528
0.0288738
0.0346444
0.0374071
0.0381742
0.0382737
0.0379252
0.0358272
0.030481
0.0220326
0.0129391
0.00684979
0.0063111
0.0112584
0.0191914
0.0269918
0.0326404
0.0357419
0.0369764
0.0371038
0.0358864
0.0323173
0.0258056
0.0173672
0.00958454
0.0053599
0.00620162
0.0115206
0.0190122
0.0261503
0.0313873
0.0344322
0.035712
0.0355674
0.0335895
0.0291596
0.022366
0.0146315
0.00832852
0.00564229
0.00738109
0.012701
0.0195709
0.0259453
0.0306257
0.0333827
0.0344674
0.0339612
0.0314309
0.0265392
0.0197531
0.0126284
0.00730273
0.00550818
0.00772256
0.0130454
0.0196612
0.0257821
0.0303427
0.0330856
0.0341377
0.0334478
0.0305844
0.0253005
0.0181352
0.0106063
0.00474368
0.00226959
0.00383708
0.00884742
0.0156977
0.0225561
0.0280681
0.0316438
0.0332171
0.0327657
0.0299345
0.024435
0.0165757
0.00755062
-0.000833786
-0.00680571
-0.0092004
-0.00788868
-0.00363452
0.00197762
0.00750286
0.0113597
0.0134997
0.0127077
0.011349
0.0060899
0.00483159
-0.00469258
0.00328549
-0.0167359
0.108079
0.107415
0.105098
0.101077
0.0940997
0.0823804
0.0633074
0.033017
-0.0102166
-0.0685683
-0.121048
-0.135215
-0.134865
-0.107352
-0.0602979
-0.0152838
0.0182742
0.0334309
0.0281176
0.0109992
-0.00151434
-0.000982226
0.00845974
0.0196148
0.0290661
0.036392
0.0422085
0.0465352
0.0493912
0.0518048
0.051814
0.0454911
0.0306241
0.012675
0.00372826
0.00872472
0.0207446
0.0309795
0.0368237
0.0389777
0.0386958
0.0375696
0.0375686
0.0383901
0.0366599
0.0290189
0.0164024
0.00460037
0.000310544
0.00551558
0.0163776
0.026912
0.0335917
0.0360844
0.0360606
0.0356895
0.0359232
0.0351917
0.0308326
0.0217897
0.0103997
0.00154115
-0.000487634
0.00500545
0.0148613
0.0245854
0.0312732
0.0344756
0.035442
0.0356795
0.0353188
0.0328324
0.0266271
0.0170483
0.00694181
0.000339782
-5.67416e-07
0.00580502
0.0149274
0.0238327
0.0302583
0.0338251
0.0353435
0.035608
0.0342279
0.0300592
0.0225718
0.0130686
0.00449139
6.71208e-06
0.00119201
0.0073346
0.0158437
0.0239004
0.0298073
0.0332919
0.0348423
0.0347566
0.0324771
0.0273294
0.0195524
0.0108734
0.00396714
0.00118824
0.00334133
0.00943291
0.0171902
0.0243508
0.0296175
0.0327713
0.034079
0.0335387
0.0305994
0.0249257
0.0171769
0.00920176
0.00338889
0.00158118
0.0042287
0.0102744
0.0176952
0.0245275
0.0296272
0.0327371
0.0339779
0.0332045
0.0298965
0.0238296
0.0157296
0.00737629
0.00101935
-0.00151463
0.000410924
0.0060883
0.0137425
0.0213714
0.0275134
0.0315454
0.0333824
0.0329307
0.0297436
0.0235613
0.0148805
0.00515605
-0.00360896
-0.00957014
-0.0115984
-0.00966377
-0.00465755
0.00169589
0.00783049
0.0120797
0.0143593
0.0134254
0.0116956
0.00578897
0.0040885
-0.00625099
0.00271605
-0.0190066
0.113259
0.112836
0.111326
0.108421
0.102814
0.0924291
0.0737546
0.041317
-0.00920898
-0.0845164
-0.152025
-0.166684
-0.16642
-0.12958
-0.0670657
-0.00986459
0.0312088
0.0469254
0.0343084
0.00574641
-0.0141178
-0.0136665
-0.00067349
0.0135968
0.0246277
0.0324107
0.0377692
0.0403273
0.0408532
0.0422175
0.0424899
0.036374
0.0200129
-0.000880546
-0.0118444
-0.00575245
0.00998611
0.0236416
0.0311435
0.0333846
0.0323563
0.030542
0.0304138
0.031366
0.029318
0.0206056
0.00648816
-0.00659556
-0.0111354
-0.00477918
0.00816078
0.0206473
0.0284716
0.031293
0.0312046
0.0308073
0.0311248
0.030295
0.0253811
0.0153756
0.00293833
-0.00662893
-0.00864991
-0.00232874
0.00885826
0.019845
0.0273463
0.0309223
0.0320555
0.032423
0.0320747
0.0292899
0.0224003
0.0119217
0.00101819
-0.00597023
-0.00611551
0.00042882
0.0105628
0.0203987
0.0274646
0.0314082
0.0331656
0.0335577
0.032054
0.0273966
0.0191191
0.0087713
-0.000411427
-0.00505845
-0.00354935
0.00329416
0.0126439
0.0214423
0.0278794
0.0317145
0.0334924
0.0334613
0.0309304
0.025186
0.0166099
0.00718883
-0.000160815
-0.00296289
-0.000430252
0.0063106
0.0147883
0.0225704
0.0282947
0.0317648
0.0332591
0.0326839
0.0293917
0.0230619
0.0145324
0.00589764
-0.000259666
-0.00202773
0.00100779
0.00764935
0.0157058
0.0230813
0.0285869
0.0319791
0.0333696
0.0325157
0.0288293
0.02212
0.0132821
0.0043089
-0.00238546
-0.00491131
-0.00266067
0.00356058
0.0118405
0.0200518
0.0266649
0.0310456
0.03309
0.0326254
0.0291338
0.0224088
0.0131373
0.00299104
-0.00589965
-0.0116782
-0.0132853
-0.0107875
-0.00518008
0.00171731
0.00826191
0.0127429
0.0150412
0.0138989
0.0117472
0.00525335
0.0031156
-0.00773343
0.00190334
-0.0204642
0.118616
0.118484
0.117947
0.116464
0.11273
0.104517
0.0872121
0.0535473
-0.00552713
-0.105306
-0.192335
-0.203428
-0.204432
-0.156922
-0.0747404
-0.00180562
0.0481422
0.0634748
0.040084
-0.0047808
-0.0347313
-0.0331334
-0.0139002
0.00533156
0.0186455
0.0268975
0.0311447
0.0308804
0.0288529
0.0295365
0.0305473
0.0243742
0.00631977
-0.017054
-0.0295328
-0.0221251
-0.00255721
0.0148046
0.0241643
0.02651
0.0247103
0.0222494
0.0220811
0.0232648
0.0210838
0.0116565
-0.0035302
-0.0176134
-0.0224281
-0.0151786
-0.000452947
0.0137715
0.0226009
0.0256742
0.0254886
0.0250583
0.0254923
0.0247
0.0195048
0.00890704
-0.00422016
-0.0142756
-0.0162854
-0.00933584
0.00288286
0.0148473
0.0229463
0.0267542
0.0279737
0.0284462
0.0281659
0.0252548
0.0179703
0.00693732
-0.00445995
-0.0116642
-0.011625
-0.00452293
0.00634224
0.0168193
0.0242894
0.0284487
0.0303578
0.0308641
0.0293231
0.0243798
0.0156099
0.00473867
-0.00479304
-0.00948085
-0.00768873
-0.000330751
0.0095892
0.0188512
0.0255901
0.0296225
0.0315531
0.0315826
0.02891
0.0227861
0.0136998
0.00382447
-0.00375823
-0.00650418
-0.00365588
0.00354767
0.012492
0.0206396
0.0266139
0.0302656
0.0318881
0.0312996
0.0277782
0.0210151
0.0119836
0.00295347
-0.00336653
-0.00503767
-0.0016945
0.00535208
0.0137922
0.0214574
0.0271622
0.0307017
0.0321844
0.0312824
0.0273536
0.0202361
0.0109474
0.00162611
-0.00521217
-0.0076571
-0.00513985
0.00144832
0.0101011
0.0186229
0.0254718
0.0300366
0.0322048
0.0317307
0.0280473
0.0210097
0.0114663
0.00123874
-0.00749251
-0.0129178
-0.0140785
-0.0111276
-0.00513573
0.00203897
0.00873556
0.0132499
0.0154324
0.0140295
0.0114577
0.00453385
0.00204155
-0.00892106
0.000986658
-0.0209396
0.124033
0.124237
0.124838
0.125079
0.123812
0.118749
0.10425
0.0709497
0.00121806
-0.131791
-0.248146
-0.256313
-0.258378
-0.194183
-0.0839149
0.00914025
0.0706196
0.0833707
0.0421704
-0.0270366
-0.0694566
-0.0627229
-0.0323561
-0.00544409
0.0110117
0.0196255
0.0219879
0.0182059
0.0137969
0.0144303
0.0166314
0.0105159
-0.00874637
-0.033932
-0.0476795
-0.0392056
-0.016163
0.00477421
0.0159844
0.0184292
0.0158691
0.012802
0.0126856
0.0142837
0.0123257
0.00272508
-0.0129477
-0.0276332
-0.0327078
-0.0249153
-0.00890628
0.00662681
0.0161753
0.0193368
0.0189664
0.0184703
0.0190789
0.0185366
0.0134429
0.00273307
-0.0106375
-0.0209036
-0.0228854
-0.0155524
-0.00270371
0.00982787
0.0181979
0.0220145
0.0231891
0.0237294
0.0236081
0.0208194
0.0135257
0.00237384
-0.00914779
-0.0163649
-0.0161572
-0.00872465
0.0025099
0.0132403
0.0207858
0.0249282
0.0268618
0.0274712
0.0260281
0.0210856
0.0122142
0.0012192
-0.00835492
-0.0129452
-0.0109289
-0.00329423
0.00684883
0.0162087
0.0229407
0.0269577
0.0289392
0.0290517
0.0264069
0.0202064
0.0109842
0.00100792
-0.0065613
-0.00916602
-0.00609127
0.00133549
0.0104198
0.0185976
0.024544
0.028193
0.0298686
0.0293179
0.0257572
0.0188675
0.00969023
0.000583737
-0.00569022
-0.00720879
-0.00366567
0.00354258
0.0120454
0.0196734
0.0253064
0.0288155
0.0303229
0.0294374
0.025468
0.0182549
0.00887215
-0.000476536
-0.00724042
-0.00953039
-0.00682679
-9.264e-05
0.00861819
0.017109
0.0238931
0.0284293
0.0306197
0.0301616
0.0264582
0.0194122
0.00997771
4.51005e-05
-0.00823174
-0.013146
-0.0138686
-0.010624
-0.00452294
0.00260842
0.00916252
0.0134984
0.0154388
0.0137639
0.01084
0.00373247
0.00102514
-0.0096204
0.000127164
-0.020401
0.129376
0.129957
0.131829
0.134114
0.135931
0.135442
0.125821
0.0971713
0.014578
-0.174865
-0.317291
-0.312116
-0.326059
-0.244271
-0.0971729
0.0229176
0.0947441
0.104982
0.0507808
-0.0451807
-0.11079
-0.1043
-0.0585819
-0.019704
0.00150193
0.0104833
0.0102647
0.00268741
-0.00374079
-0.00241746
0.00154357
-0.00386875
-0.0233081
-0.0493682
-0.0642098
-0.0553237
-0.029746
-0.00586509
0.0069115
0.00936085
0.00602586
0.00236981
0.00241044
0.00469677
0.00345862
-0.0056515
-0.0211388
-0.0359541
-0.0412236
-0.0332681
-0.0166121
-0.0003739
0.0094649
0.0124531
0.0117486
0.0111384
0.0120036
0.0119884
0.0074558
-0.00281779
-0.015933
-0.0260974
-0.0280219
-0.0205718
-0.00755785
0.00503862
0.0132603
0.0167881
0.0177427
0.0183073
0.0184684
0.0161101
0.00925924
-0.00151937
-0.0127573
-0.0197662
-0.0194097
-0.0119026
-0.000714212
0.00981062
0.0170303
0.0208648
0.0226653
0.0233726
0.0222042
0.0176119
0.00909375
-0.0015759
-0.0108571
-0.015204
-0.0130359
-0.00539664
0.0045697
0.013599
0.0199542
0.0236975
0.0256107
0.0258468
0.0234475
0.0175363
0.00861006
-0.00107363
-0.00836269
-0.0107402
-0.00754727
-0.000174037
0.00867191
0.0164874
0.0220753
0.0255018
0.0271471
0.0267133
0.0233563
0.0167075
0.00779133
-0.00103961
-0.00704502
-0.00835924
-0.00474479
0.00234492
0.0105409
0.0177529
0.0229981
0.0262705
0.0277335
0.0269576
0.0231996
0.0162579
0.00718166
-0.00184561
-0.00830456
-0.0103674
-0.00757517
-0.000947318
0.00746375
0.0155334
0.0219069
0.0261697
0.0282723
0.0278795
0.0243742
0.0176727
0.00875916
-0.000493646
-0.00803091
-0.0123009
-0.0126279
-0.00929556
-0.00340523
0.00333403
0.00944639
0.0134069
0.0150076
0.0131032
0.00995534
0.00296414
0.000202717
-0.00971238
-0.000538348
-0.0189192
0.134492
0.135468
0.138709
0.143226
0.148804
0.153936
0.152411
0.131345
0.0351292
-0.207931
-0.438352
-0.400601
-0.421715
-0.313343
-0.114389
0.0333933
0.104561
0.119723
0.0504931
-0.0479228
-0.135131
-0.144278
-0.0890239
-0.0369738
-0.00980484
-0.000434287
-0.00375108
-0.0151916
-0.0232159
-0.0203284
-0.0137644
-0.0174328
-0.0358006
-0.0616484
-0.0773002
-0.0687874
-0.0420478
-0.0163161
-0.00255419
-0.000337378
-0.00453684
-0.00879599
-0.00847126
-0.00514275
-0.00507868
-0.0129892
-0.0276015
-0.0420486
-0.0474058
-0.0396467
-0.0230303
-0.00679799
0.00278995
0.00525374
0.00401166
0.00321963
0.00445649
0.00528705
0.00180927
-0.00746059
-0.0198121
-0.029554
-0.0313823
-0.0240797
-0.0113868
0.000724522
0.00831829
0.0112067
0.011736
0.0122808
0.0128706
0.0112833
0.005355
-0.00454121
-0.0150797
-0.0216574
-0.0211741
-0.0138574
-0.00315214
0.00667331
0.0131242
0.0163247
0.0178174
0.0186246
0.0179337
0.0140737
0.00638992
-0.00348964
-0.0121375
-0.0160977
-0.013858
-0.00650071
0.00286599
0.0111057
0.0166826
0.0198704
0.0215892
0.0220033
0.0200962
0.0148715
0.00669647
-0.00228867
-0.00902846
-0.011097
-0.00790561
-0.000880344
0.00732514
0.0143583
0.0192317
0.0221991
0.0237305
0.0235122
0.0206328
0.0146218
0.00639347
-0.00180118
-0.00731561
-0.00838022
-0.00483526
0.00183804
0.00933587
0.0157309
0.0202529
0.0230718
0.0244252
0.0238711
0.0206032
0.0143239
0.00597007
-0.00238084
-0.00830535
-0.0100741
-0.00730293
-0.00104956
0.00668444
0.0139226
0.0195213
0.0232536
0.0251588
0.0248978
0.0218344
0.0158487
0.00786828
-0.000338055
-0.00688012
-0.010408
-0.0104175
-0.00723852
-0.0018978
0.00410853
0.00950896
0.0129348
0.0141401
0.0120942
0.00888563
0.00231761
-0.000345415
-0.00916682
-0.000927741
-0.016636
0.139219
0.140594
0.145201
0.152117
0.161852
0.174541
0.185077
0.188792
0.0817001
-0.197094
-0.508929
-0.463323
-0.557395
-0.415932
-0.145557
0.0179631
0.0691723
0.056443
0.0188136
-0.0558483
-0.148369
-0.175291
-0.118792
-0.0555844
-0.0223658
-0.0127537
-0.0195057
-0.0348382
-0.0439508
-0.0384815
-0.0282335
-0.0289942
-0.0451018
-0.0696831
-0.0857315
-0.0782872
-0.0518955
-0.0256979
-0.011782
-0.0101955
-0.0154438
-0.0203459
-0.0195839
-0.0148096
-0.0128445
-0.0188823
-0.031985
-0.0455924
-0.0509041
-0.0436454
-0.027729
-0.0122421
-0.00350745
-0.00197943
-0.00399638
-0.00503069
-0.00330023
-0.00129642
-0.00323897
-0.0109703
-0.0220839
-0.0311013
-0.0327899
-0.0258777
-0.0139727
-0.00289571
0.00357308
0.00545061
0.00533959
0.00582378
0.00699628
0.00652012
0.00197874
-0.00655108
-0.0159989
-0.0219375
-0.02135
-0.0144779
-0.0046798
0.00395822
0.00919442
0.011429
0.0124388
0.013353
0.0133471
0.0105981
0.00421572
-0.0044293
-0.0121229
-0.0155652
-0.0133358
-0.00654049
0.00181356
0.00881252
0.0132131
0.0155648
0.0169666
0.0176203
0.0164555
0.0123095
0.00532768
-0.00257032
-0.00850767
-0.0101951
-0.00712741
-0.000740342
0.0064304
0.0122694
0.0160782
0.018355
0.0196951
0.0197968
0.0176715
0.01269
0.00556354
-0.00165011
-0.00646572
-0.00724444
-0.0039119
0.00205153
0.00846941
0.0136581
0.0171321
0.0192892
0.0204754
0.0202595
0.0177599
0.0125253
0.00529501
-0.00204155
-0.0072174
-0.00863512
-0.00599876
-0.000385711
0.0063023
0.0123111
0.0167828
0.0197362
0.0213405
0.0212838
0.0189064
0.0139949
0.00732972
0.000493101
-0.00484665
-0.00757901
-0.00738187
-0.00461032
-0.000140272
0.00483738
0.00930908
0.0120872
0.0128818
0.0108069
0.00770383
0.00183519
-0.000601465
-0.00803192
-0.00102311
-0.0137453
0.143394
0.145127
0.151017
0.160129
0.174347
0.194108
0.223624
0.219751
0.176629
-0.234768
-0.687227
-0.529278
-0.627218
-0.525108
-0.216546
-0.0688197
-0.0131144
-0.0334334
-0.0294988
-0.0715989
-0.150854
-0.190603
-0.142107
-0.0729728
-0.0351301
-0.0257844
-0.0362195
-0.0554705
-0.0650383
-0.0558404
-0.0407681
-0.037613
-0.0505507
-0.0729998
-0.0889523
-0.0830638
-0.0583984
-0.0331867
-0.0200941
-0.0196678
-0.0262285
-0.0318233
-0.0304479
-0.0238194
-0.019414
-0.0230207
-0.0341006
-0.0464714
-0.0515976
-0.045068
-0.0304222
-0.0163714
-0.00909049
-0.00892582
-0.0119613
-0.0132967
-0.0109424
-0.00746311
-0.00745165
-0.0131922
-0.022669
-0.0307037
-0.0322101
-0.0258929
-0.0151856
-0.00564352
-0.000767244
-0.000255526
-0.00120964
-0.000820415
0.0010789
0.0020187
-0.000729286
-0.00747475
-0.0154961
-0.0206182
-0.0199487
-0.0137459
-0.00523249
0.00177766
0.00539149
0.0063551
0.00672209
0.00775198
0.00861972
0.00731988
0.00265123
-0.00437029
-0.0108318
-0.0136467
-0.0115051
-0.00552347
0.0014486
0.0068029
0.00966942
0.0109334
0.0119085
0.0128589
0.0126622
0.00994564
0.00454931
-0.00191957
-0.00683541
-0.00808416
-0.00525518
0.000230959
0.00601394
0.010292
0.0127248
0.0141047
0.015186
0.0157037
0.0145826
0.0109817
0.0053258
-0.000603036
-0.00454086
-0.00500847
-0.00202219
0.00296608
0.00796448
0.0116043
0.013746
0.0150592
0.0160285
0.0162565
0.014774
0.0109253
0.00517515