/*--------------------------------*- C++ -*----------------------------------*\
  =========                 |
  \\      /  F ield         | OpenFOAM: The Open Source CFD Toolbox
   \\    /   O peration     | Website:  https://openfoam.org
    \\  /    A nd           | Version:  11
     \\/     M anipulation  |
\*---------------------------------------------------------------------------*/
FoamFile
{
    format      ascii;
    class       surfaceScalarField;
    location    "16.392315";
    object      phi_0;
}
// * * * * * * * * * * * * * * * * * * * * * * * * * * * * * * * * * * * * * //

dimensions      [0 3 -1 0 0 0 0];

internalField   nonuniform List<scalar> 
14638
(
0.00250274
-2.73577e-06
0.00251086
-8.12331e-06
0.00252431
-1.3448e-05
0.00254293
-1.86208e-05
0.00256642
-2.34934e-05
0.00259417
-2.77482e-05
0.00262507
-3.08965e-05
0.00265729
-3.22211e-05
0.00268825
-3.09661e-05
0.00271503
-2.67791e-05
0.00273474
-1.97103e-05
0.00274657
-1.18233e-05
0.00275143
-4.86043e-06
0.00275204
-6.18304e-07
0.00275212
-7.87251e-08
0.00275453
-2.40861e-06
0.00275998
-5.45223e-06
0.00276625
-6.26088e-06
0.00276856
-2.31876e-06
0.00276167
6.89163e-06
0.00274227
1.94069e-05
0.00271035
3.19105e-05
0.00266904
4.13169e-05
0.00262344
4.55957e-05
0.00257966
4.37866e-05
0.00254395
3.57096e-05
0.00252216
2.17902e-05
0.00251896
3.20001e-06
0.00253667
-1.77141e-05
0.00257357
-3.68969e-05
0.00262253
-4.89662e-05
0.0026718
-4.92704e-05
0.00270849
-3.66839e-05
0.00272327
-1.47874e-05
0.00271336
9.91666e-06
0.00268216
3.12012e-05
0.00263685
4.53091e-05
0.00258582
5.10298e-05
0.00253723
4.85835e-05
0.00249868
3.85504e-05
0.00247717
2.15147e-05
0.00247861
-1.43841e-06
0.00250618
-2.75728e-05
0.00255772
-5.15389e-05
0.0026239
-6.61842e-05
0.00268952
-6.56185e-05
0.00273827
-4.87465e-05
0.00275871
-2.04382e-05
0.00274788
1.08245e-05
0.0027109
3.69818e-05
0.00265754
5.33634e-05
0.00259854
5.89974e-05
0.00254351
5.50308e-05
0.00250057
4.29429e-05
0.00247681
2.37604e-05
0.00247815
-1.34586e-06
0.0025077
-2.95449e-05
0.00256298
-5.52874e-05
0.00263424
-7.12532e-05
0.00270563
-7.13949e-05
0.00275993
-5.43026e-05
0.00278442
-2.44887e-05
0.00277497
9.45256e-06
0.0027364
3.8571e-05
0.00267945
5.69524e-05
0.00261653
6.29159e-05
0.00255866
5.78718e-05
0.00251446
4.41979e-05
0.00249065
2.38146e-05
0.00249223
-1.58521e-06
0.00252131
-2.9074e-05
0.00257482
-5.35118e-05
0.00264331
-6.84887e-05
0.00271224
-6.89313e-05
0.00276593
-5.36914e-05
0.00279235
-2.642e-05
0.00278662
5.73015e-06
0.0027519
3.47154e-05
0.0026976
5.43005e-05
0.00263596
6.16431e-05
0.00257877
5.71856e-05
0.00253556
4.32192e-05
0.00251319
2.23703e-05
0.0025159
-2.71443e-06
0.0025444
-2.85049e-05
0.00259447
-5.00696e-05
0.00265657
-6.20985e-05
0.00271761
-6.10377e-05
0.00276442
-4.68065e-05
0.00278736
-2.29442e-05
0.00278264
4.72344e-06
0.00275266
2.99795e-05
0.00270479
4.7865e-05
0.0026492
5.5594e-05
0.00259654
5.26593e-05
0.00255625
4.02911e-05
0.0025355
2.07526e-05
0.00253839
-2.89367e-06
0.00256495
-2.65629e-05
0.0026103
-4.53519e-05
0.00266505
-5.47494e-05
0.0027174
-5.23438e-05
0.00275627
-3.8877e-05
0.00277421
-1.79329e-05
0.00276876
5.44846e-06
0.00274238
2.63777e-05
0.00270115
4.12302e-05
0.00265317
4.79788e-05
0.00260718
4.59957e-05
0.00257144
3.57413e-05
0.00255277
1.86696e-05
0.00255533
-2.5653e-06
0.00257931
-2.39739e-05
0.0026201
-4.0798e-05
0.002669
-4.88936e-05
0.00271527
-4.62779e-05
0.00274918
-3.39067e-05
0.00276441
-1.52283e-05
0.00275925
5.16289e-06
0.00273622
2.30262e-05
0.00270076
3.5458e-05
0.00265973
4.10363e-05
0.00262034
3.93861e-05
0.0025896
3.07394e-05
0.00257364
1.59584e-05
0.00257664
-2.9978e-06
0.00259938
-2.27354e-05
0.00263826
-3.88882e-05
0.00268569
-4.74231e-05
0.00273182
-4.61351e-05
0.00276731
-3.54912e-05
0.00278571
-1.83996e-05
0.00278482
8.89092e-07
0.00276665
1.81778e-05
0.0027362
3.04429e-05
0.00269995
3.62554e-05
0.00266447
3.54736e-05
0.00263588
2.85907e-05
0.00261956
1.63213e-05
0.00261978
-2.13776e-07
0.00263873
-1.8956e-05
0.00267547
-3.67425e-05
0.00272542
-4.99418e-05
0.00278107
-5.56501e-05
0.00283382
-5.27575e-05
0.00287613
-4.23048e-05
0.00290317
-2.70383e-05
0.00291363
-1.04651e-05
0.00290948
4.15115e-06
0.00289493
1.45501e-05
0.00287515
1.97847e-05
0.00285496
2.01869e-05
0.00283808
1.68771e-05
0.00282654
1.15418e-05
0.00282104
5.49907e-06
0.00282046
5.78399e-07
0.00282372
-3.25445e-06
0.00282731
-3.59532e-06
0.00283124
-3.92633e-06
2.06841e-06
0.00250273
-5.46251e-06
0.00251083
-1.62257e-05
0.00252426
-2.68818e-05
0.00254291
-3.72715e-05
0.00256653
-4.71085e-05
0.00259454
-5.57635e-05
0.0026259
-6.22515e-05
0.00265876
-6.5084e-05
0.00269047
-6.26773e-05
0.0027179
-5.4206e-05
0.00273788
-3.96898e-05
0.00274953
-2.34726e-05
0.0027538
-9.13389e-06
0.00275363
-4.4682e-07
0.00275307
4.7971e-07
0.00275532
-4.65271e-06
0.00276124
-1.1377e-05
0.0027685
-1.35198e-05
0.00277194
-5.75427e-06
0.00276578
1.3046e-05
0.00274643
3.8762e-05
0.00271388
6.44599e-05
0.00267142
8.3776e-05
0.0026244
9.26119e-05
0.0025791
8.90852e-05
0.00254195
7.28597e-05
0.002519
4.47412e-05
0.00251524
6.96457e-06
0.00253337
-3.58507e-05
0.00257192
-7.54412e-05
0.00262353
-0.000100582
0.00267569
-0.000101431
0.00271455
-7.55427e-05
0.00273018
-3.0413e-05
0.00271974
2.03515e-05
0.00268709
6.38505e-05
0.00263991
9.24905e-05
0.00258692
0.000104027
0.0025364
9.90974e-05
0.00249603
7.89204e-05
0.00247302
4.45279e-05
0.00247375
-2.16544e-06
0.00250199
-5.58158e-05
0.00255587
-0.000105416
0.00262562
-0.000135934
0.00269491
-0.000134911
0.00274622
-0.000100054
0.00276742
-4.16387e-05
0.00275564
2.26041e-05
0.00271661
7.60127e-05
0.00266082
0.00010915
0.00259949
0.000120331
0.00254234
0.000112176
0.00249749
8.77974e-05
0.0024721
4.91492e-05
0.00247244
-1.68628e-06
0.00250212
-5.92287e-05
0.00255908
-0.000112246
0.00263343
-0.000145602
0.00270858
-0.000146543
0.00276611
-0.000111839
0.00279231
-5.06828e-05
0.00278267
1.90879e-05
0.00274239
7.88539e-05
0.00268295
0.000116391
0.00261746
0.000128407
0.00255725
0.000118079
0.00251098
9.04732e-05
0.00248535
4.94406e-05
0.00248566
-1.89147e-06
0.00251446
-5.78787e-05
0.00256904
-0.000108094
0.00263979
-0.000139239
0.00271155
-0.000140689
0.00276784
-0.00010998
0.002796
-5.45829e-05
0.00279087
1.08681e-05
0.00275563
6.99528e-05
0.00269997
0.00010996
0.00263649
0.00012512
0.00257731
0.000116366
0.00253219
8.83374e-05
0.00250833
4.62292e-05
0.0025104
-4.78539e-06
0.00253948
-5.75843e-05
0.00259133
-0.000101912
0.00265586
-0.000126628
0.00271917
-0.000124347
0.00276743
-9.50707e-05
0.0027908
-4.63113e-05
0.00278563
9.89193e-06
0.00275466
6.09436e-05
0.00270557
9.69647e-05
0.00264865
0.000112507
0.00259468
0.000106631
0.00255324
8.1735e-05
0.0025318
4.21842e-05
0.0025349
-5.99274e-06
0.0025628
-5.44552e-05
0.0026104
-9.29517e-05
0.00266766
-0.000112009
0.00272197
-0.000106654
0.0027617
-7.86145e-05
0.00277929
-3.55198e-05
0.00277259
1.21498e-05
0.00274452
5.44413e-05
0.0027016
8.41554e-05
0.00265217
9.7407e-05
0.00260509
9.30762e-05
0.00256875
7.20841e-05
0.00255018
3.72428e-05
0.00255378
-6.16758e-06
0.00257977
-4.99689e-05
0.00262323
-8.42553e-05
0.00267474
-0.000100402
0.00272285
-9.43902e-05
0.00275734
-6.83919e-05
0.00277183
-2.97252e-05
0.00276494
1.20563e-05
0.00273968
4.82879e-05
0.00270197
7.31663e-05
0.00265903
8.39736e-05
0.00261833
8.00916e-05
0.00258703
6.20353e-05
0.00257147
3.15169e-05
0.00257597
-7.49716e-06
0.00260123
-4.79966e-05
0.00264324
-8.08967e-05
0.00269367
-9.78536e-05
0.00274197
-9.44342e-05
0.0027783
-7.18186e-05
0.00279611
-3.62093e-05
0.00279345
3.5449e-06
0.00277278
3.88478e-05
0.00273962
6.36056e-05
0.00270084
7.50322e-05
0.00266336
7.29599e-05
0.0026335
5.84498e-05
0.00261688
3.29435e-05
0.00261796
-1.29465e-06
0.002639
-3.99958e-05
0.00267878
-7.65256e-05
0.00273213
-0.000103292
0.00279081
-0.000114331
0.00284558
-0.000107524
0.00288853
-8.52537e-05
0.00291486
-5.33682e-05
0.00292356
-1.91649e-05
0.00291702
1.06894e-05
0.0028999
3.16697e-05
0.00287772
4.19588e-05
0.00285558
4.23308e-05
0.00283733
3.51265e-05
0.00282509
2.3781e-05
0.00281962
1.09739e-05
0.00281977
4.21809e-07
0.0028244
-7.88313e-06
0.00282967
-8.86393e-06
0.00283569
-9.95017e-06
3.07531e-06
0.00250271
-8.17005e-06
0.00251076
-2.42769e-05
0.00252415
-4.02751e-05
0.00254284
-5.5962e-05
0.00256668
-7.09426e-05
0.0025952
-8.429e-05
0.00262746
-9.45132e-05
0.00266162
-9.92436e-05
0.00269487
-9.59256e-05
0.00272366
-8.29915e-05
0.00274423
-6.02585e-05
0.00275556
-3.48067e-05
0.00275867
-1.22435e-05
0.00275692
1.30369e-06
0.00275511
2.29268e-06
0.00275707
-6.61624e-06
0.00276401
-1.83178e-05
0.00277333
-2.28337e-05
0.00277898
-1.14083e-05
0.00277416
1.78639e-05
0.00275466
5.82597e-05
0.00272056
9.85677e-05
0.00267558
0.000128749
0.00262561
0.000142588
0.0025773
0.000137391
0.00253743
0.000112736
0.00251243
6.9739e-05
0.00250789
1.14992e-05
0.00252727
-5.52304e-05
0.0025695
-0.000117671
0.00262673
-0.000157806
0.00268478
-0.000159486
0.00272779
-0.000118555
0.00274458
-4.71999e-05
0.00273242
3.25129e-05
0.00269622
0.000100046
0.00264485
0.000143861
0.00258775
0.000161128
0.00253347
0.000153377
0.00248978
0.000122609
0.00246427
7.00427e-05
0.00246417
-2.06522e-06
0.00249434
-8.59907e-05
0.00255341
-0.000164481
0.00263069
-0.000213222
0.00270755
-0.000211766
0.0027638
-0.000156307
0.00278587
-6.37072e-05
0.00277122
3.72528e-05
0.00272716
0.000120075
0.00266589
0.000170421
0.00259965
0.000186569
0.00253841
0.000173416
0.00249008
0.000136129
0.00246174
7.74916e-05
0.00246004
7.10802e-09
0.00248953
-8.87145e-05
0.00254907
-0.000171783
0.0026289
-0.000225438
0.00271125
-0.000228885
0.00277545
-0.000176044
0.00280556
-8.0793e-05
0.00279602
2.86308e-05
0.00275253
0.000122343
0.00268814
0.000180779
0.0026175
0.000199044
0.00255276
0.000182819
0.00250268
0.000140552
0.00247405
7.80757e-05
0.00247272
-5.62357e-07
0.00250217
-8.73293e-05
0.00256005
-0.000165977
0.00263597
-0.00021516
0.00271315
-0.000217865
0.00277356
-0.000170392
0.00280373
-8.47538e-05
0.00279841
1.61893e-05
0.00276121
0.000107157
0.00270243
0.000168737
0.00263533
0.000192222
0.00257254
0.000179153
0.00252433
0.000136552
0.00249856
7.19972e-05
0.00250076
-6.99019e-06
0.00253255
-8.93679e-05
0.00258923
-0.000158593
0.00265927
-0.000196665
0.00272695
-0.000192031
0.00277721
-0.000145327
0.00279999
-6.90929e-05
0.00279234
1.75386e-05
0.00275802
9.52654e-05
0.00270551
0.000149474
0.00264557
0.00017245
0.00258913
0.000163072
0.00254603
0.00012483
0.00252432
6.38993e-05
0.00252913
-1.08102e-05
0.0025609
-8.62243e-05
0.00261379
-0.000145843
0.00267628
-0.000174493
0.00273418
-0.000164558
0.00277491
-0.000119344
0.00279085
-5.1456e-05
0.00278061
2.23927e-05
0.00274822
8.68257e-05
0.00270119
0.000131182
0.0026485
0.000150099
0.0025993
0.000142281
0.00256222
0.000109163
0.00254466
5.48048e-05
0.00255129
-1.28046e-05
0.00258212
-8.07954e-05
0.00263125
-0.00013339
0.00268786
-0.000157013
0.00273917
-0.000145697
0.00277419
-0.000103412
0.00278659
-4.21237e-05
0.00277565
2.29946e-05
0.00274544
7.85038e-05
0.00270289
0.00011571
0.00265601
0.000130852
0.00261277
0.000123335
0.00258073
9.40795e-05
0.00256655
4.56951e-05
0.00257467
-1.56241e-05
0.0026054
-7.8719e-05
0.00265365
-0.000129146
0.00270969
-0.000153894
0.00276169
-0.000146438
0.00279908
-0.000109208
0.00281525
-5.23768e-05
0.00280877
1.00261e-05
0.00278297
6.46448e-05
0.00274435
0.000102223
0.00270063
0.00011875
0.00265935
0.000114245
0.00262732
9.04761e-05
0.0026106
4.96607e-05
0.00261397
-4.65861e-06
0.00263956
-6.55876e-05
0.00268542
-0.000122381
0.00274508
-0.000162955
0.00280893
-0.000178185
0.00286672
-0.000165313
0.00291014
-0.00012867
0.00293457
-7.77995e-05
0.0029396
-2.41967e-05
0.00292841
2.1878e-05
0.00290645
5.36302e-05
0.0028799
6.85073e-05
0.00285431
6.79199e-05
0.00283382
5.56161e-05
0.00282072
3.68864e-05
0.0028158
1.58903e-05
0.00281789
-1.66467e-06
0.00282554
-1.55324e-05
0.00283427
-1.75924e-05
0.00284419
-1.98714e-05
2.2932e-06
0.00250267
-1.0844e-05
0.00251063
-3.22368e-05
0.00252394
-5.35829e-05
0.00254266
-7.46789e-05
0.00256678
-9.50684e-05
0.00259605
-0.000113557
0.00262968
-0.000128139
0.00266584
-0.000135404
0.00270151
-0.000131603
0.00273247
-0.000113952
0.00275399
-8.17775e-05
0.00276485
-4.56617e-05
0.00276612
-1.35115e-05
0.00276183
5.59124e-06
0.00275796
6.16428e-06
0.00275941
-8.06795e-06
0.00276793
-2.68399e-05
0.00278053
-3.5432e-05
0.00278975
-2.06275e-05
0.00278707
2.05457e-05
0.00276732
7.80098e-05
0.00273071
0.000135177
0.00268177
0.000177689
0.00262719
0.000197161
0.00257428
0.000190306
0.00253024
0.000156771
0.0025021
9.78844e-05
0.00249633
1.7267e-05
0.00251759
-7.64899e-05
0.00256558
-0.000165665
0.00263169
-0.000223911
0.0026991
-0.000226897
0.00274863
-0.000168086
0.00276706
-6.56338e-05
0.00275191
4.7671e-05
0.00270989
0.000142058
0.00265186
0.000201896
0.00258841
0.000224574
0.00252846
0.000213332
0.00247983
0.000171236
0.0024505
9.9371e-05
0.0024487
-2.59607e-07
0.00248064
-0.000117936
0.00254604
-0.000229874
0.0026339
-0.00030109
0.00272288
-0.000300738
0.00278833
-0.000221762
0.00281323
-8.86073e-05
0.00279482
5.56679e-05
0.00274294
0.000171955
0.00267295
0.000240406
0.00259908
0.000260444
0.00253165
0.000240838
0.002478
0.00018978
0.00244471
0.000110784
0.00243901
5.70918e-06
0.00246722
-0.000116923
0.00252994
-0.000234506
0.00261742
-0.000312917
0.00270982
-0.000321289
0.00278355
-0.000249768
0.00281993
-0.000117171
0.00281179
3.67642e-05
0.002765
0.000169139
0.00269431
0.000251466
0.00261653
0.000276823
0.0025452
0.000254151
0.00248957
0.000196181
0.00245693
0.000110718
0.00245435
2.0114e-06
0.00248661
-0.000119583
0.00255121
-0.000230581
0.00263571
-0.000299664
0.00272046
-0.000302613
0.00278535
-0.000235278
0.00281637
-0.000115771
0.00280893
2.36224e-05
0.00276773
0.000148362
0.00270403
0.000232438
0.00263178
0.000264467
0.00256418
0.000246757
0.00251216
0.000188568
0.00248472
9.94391e-05
0.00248862
-1.08879e-05
0.00252586
-0.000126607
0.00259056
-0.0002233
0.00266878
-0.000274881
0.00274229
-0.000265545
0.00279452
-0.000197552
0.00281532
-8.98946e-05
0.00280287
2.99905e-05
0.00276256
0.000135576
0.00270427
0.000207756
0.00263954
0.000237181
0.00257962
0.000222998
0.00253473
0.000169719
0.00251363
8.49998e-05
0.00252212
-1.93005e-05
0.00256039
-0.0001245
0.00262118
-0.000206628
0.0026908
-0.000244116
0.00275316
-0.000226922
0.00279464
-0.00016082
0.00280767
-6.449e-05
0.00279189
3.81757e-05
0.00275285
0.000125865
0.00269952
0.000184517
0.00264187
0.000207748
0.00258963
0.000194524
0.00255187
0.000146919
0.00253644
7.02343e-05
0.00254815
-2.45104e-05
0.00258626
-0.000118914
0.0026433
-0.000190428
0.00270649
-0.000220201
0.00276151
-0.000200718
0.00279667
-0.000138574
0.00280581
-5.12594e-05
0.00278909
3.97172e-05
0.00275188
0.000115712
0.0027025
0.000165087
0.00265007
0.000183285
0.00260336
0.000170046
0.00257056
0.000126878
0.00255878
5.74721e-05
0.00257242
-2.92616e-05
0.00261087
-0.000117164
0.00266737
-0.000185655
0.00273033
-0.000216852
0.00278649
-0.000202597
0.00282463
-0.000147346
0.00283824
-6.59873e-05
0.00282656
2.1707e-05
0.00279396
9.72475e-05
0.00274811
0.000148071
0.00269783
0.000169029
0.00265156
0.00016052
0.00261687
0.00012516
0.00260048
6.60501e-05
0.00260748
-1.16561e-05
0.00263958
-9.76875e-05
0.00269346
-0.000176262
0.00276078
-0.000230272
0.00283021
-0.000247619
0.00289055
-0.000225648
0.00293337
-0.000171495
0.00295459
-9.9013e-05
0.0029546
-2.42083e-05
0.0029375
3.89757e-05
0.00290962
8.15113e-05
0.00287788
0.00010025
0.00284837
9.74221e-05
0.00282562
7.83653e-05
0.00281218
5.03327e-05
0.00280891
1.91618e-05
0.00281449
-7.24921e-06
0.0028269
-2.7942e-05
0.00284069
-3.13782e-05
0.00285562
-3.48008e-05
-3.35731e-07
0.00250262
-1.34638e-05
0.00251043
-4.00478e-05
0.00252358
-6.67302e-05
0.00254227
-9.33678e-05
0.00256671
-0.000119512
0.00259691
-0.000143755
0.00263236
-0.000163586
0.00267129
-0.000174334
0.00271044
-0.000170757
0.00274456
-0.00014807
0.00276744
-0.000104662
0.00277758
-5.58002e-05
0.00277611
-1.20418e-05
0.00276805
1.3657e-05
0.00276111
1.30972e-05
0.00276178
-8.73455e-06
0.00277262
-3.76829e-05
0.00279009
-5.29042e-05
0.00280461
-3.51415e-05
0.00280507
2.00822e-05
0.00278494
9.81413e-05
0.00274473
0.000175383
0.00269021
0.000232216
0.00262926
0.000258107
0.00257
0.000249571
0.00252019
0.000206584
0.00248752
0.000130549
0.00247976
2.50237e-05
0.00250347
-0.0001002
0.00255973
-0.000221926
0.00263879
-0.000302963
0.0027197
-0.000307808
0.00277835
-0.000226741
0.00279874
-8.60263e-05
0.00277893
6.74836e-05
0.00272845
0.000192543
0.00266101
0.000269329
0.00258887
0.000296715
0.0025213
0.000280903
0.00246598
0.000226553
0.00243082
0.000134534
0.00242443
6.12869e-06
0.00245453
-0.000148033
0.00252351
-0.000298852
0.00262239
-0.000399969
0.00272808
-0.000406433
0.00280991
-0.000303587
0.00284388
-0.000122584
0.00282435
7.52054e-05
0.00276368
0.000232624
0.00268221
0.000321875
0.00259787
0.000344783
0.00252194
0.00031677
0.00246078
0.000250936
0.00242036
0.000151208
0.00240943
1.66384e-05
0.00243742
-0.000144915
0.00250657
-0.000303652
0.00260525
-0.000411602
0.00270971
-0.000425746
0.00279304
-0.000333097
0.00283497
-0.000159101
0.00282777
4.39641e-05
0.00277743
0.000219473
0.00269992
0.000328975
0.0026139
0.000362843
0.00253449
0.000333562
0.00247204
0.000258635
0.00243524
0.000147521
0.00243311
4.1326e-06
0.00247146
-0.000157933
0.00254639
-0.000305506
0.00264205
-0.000395327
0.00273533
-0.00039589
0.00280405
-0.000304001
0.00283403
-0.000145747
0.00282195
3.57025e-05
0.00277429
0.000196025
0.00270375
0.000302976
0.00262507
0.000343146
0.00255192
0.000319911
0.00249607
0.000244416
0.00246795
0.000127556
0.0024756
-1.85381e-05
0.00252079
-0.000171795
0.00259553
-0.00029804
0.00268293
-0.000362279
0.00276237
-0.000344987
0.00281604
-0.000251223
0.00283383
-0.00010768
0.00281502
4.87971e-05
0.00276684
0.000183753
0.00270096
0.000273636
0.00263005
0.000308092
0.00256597
0.000287082
0.00251954
0.000216144
0.00250032
0.000104221
0.00251446
-3.34401e-05
0.00256124
-0.000171273
0.00263122
-0.000276613
0.00270836
-0.000321252
0.00277486
-0.000293422
0.00281641
-0.000202377
0.00282569
-7.37712e-05
0.0028033
6.05681e-05
0.00275632
0.000172844
0.00269535
0.000245489
0.00263167
0.000271431
0.00257589
0.000250302
0.0025378
0.000185011
0.00252572
8.23156e-05
0.00254423
-4.30254e-05
0.00259125
-0.000165933
0.00265709
-0.000256269
0.00272689
-0.00029
0.00278505
-0.000258881
0.00281955
-0.000173069
0.00282459
-5.62959e-05
0.00280122
6.30815e-05
0.0027561
0.000160834
0.00269895
0.000222237
0.00264018
0.000242055
0.00258965
0.000220576
0.00255642
0.000160103
0.0025481
6.57918e-05
0.00256873
-4.98841e-05
0.0026162
-0.000164635
0.00268157
-0.000251028
0.00275122
-0.000286504
0.00281075
-0.000262124
0.0028487
-0.000185293
0.00285893
-7.62227e-05
0.0028414
3.92354e-05
0.00280143
0.000137222
0.00274779
0.000201713
0.00269042
0.0002264
0.00263882
0.000212115
0.0026016
0.000162377
0.0025863
8.13519e-05
0.00259822
-2.35707e-05
0.00263813
-0.000137601
0.0027007
-0.00023883
0.00277526
-0.000304837
0.00284888
-0.000321238
0.00290985
-0.000286612
0.00295019
-0.00021184
0.00296673
-0.000115553
0.00296085
-1.83261e-05
0.00293751
6.23115e-05
0.00290381
0.000115218
0.00286728
0.00013678
0.00283454
0.000130157
0.00281053
0.000102376
0.00279814
6.27253e-05
0.00279828
1.90234e-05
0.00280932
-1.82913e-05
0.00282816
-4.67871e-05
0.00284813
-5.13449e-05
0.00286805
-5.47195e-05
-3.93989e-06
0.00250254
-1.60016e-05
0.00251012
-4.76289e-05
0.00252299
-7.96011e-05
0.00254154
-0.000111916
0.00256626
-0.000144229
0.00259752
-0.000175019
0.00263523
-0.000201301
0.0026778
-0.000216894
0.00272172
-0.000214678
0.00276025
-0.000186604
0.00278506
-0.000129471
0.00279428
-6.50212e-05
0.00278903
-6.7964e-06
0.00277561
2.70784e-05
0.0027642
2.45136e-05
0.00276351
-8.04904e-06
0.00277744
-5.16133e-05
0.00280175
-7.72126e-05
0.0028238
-5.71892e-05
0.00282877
1.51103e-05
0.00280818
0.000118735
0.00276308
0.000220474
0.00270108
0.000294222
0.00263175
0.000327433
0.00256422
0.000317105
0.0025068
0.000264002
0.00246792
0.000169425
0.00245712
3.58296e-05
0.002484
-0.000127085
0.00255201
-0.000289934
0.00264961
-0.00040056
0.00274936
-0.000407557
0.00281987
-0.000297249
0.00284174
-0.000107901
0.00281459
9.46378e-05
0.00275218
0.000254952
0.00267221
0.000349299
0.00258894
0.00037998
0.00251188
0.000357966
0.00244787
0.000290566
0.00240354
0.000178862
0.00238731
2.23586e-05
0.00240997
-0.00017069
0.0024793
-0.000368189
0.0025893
-0.000509965
0.00271468
-0.000531808
0.0028185
-0.00040741
0.00286882
-0.000172901
0.00285415
8.98703e-05
0.00278709
0.000299687
0.00269325
0.000415709
0.00259612
0.000441911
0.00250921
0.000403688
0.00243834
0.0003218
0.00238968
0.000199868
0.00237501
3.13088e-05
0.00240716
-0.000177058
0.00248791
-0.000384411
0.00260117
-0.000524855
0.00271805
-0.000542625
0.00280878
-0.000423829
0.00285285
-0.000203169
0.0028436
5.32093e-05
0.00278809
0.00027498
0.00270316
0.000413914
0.00260848
0.000457515
0.00252041
0.000421634
0.00245089
0.000328158
0.00241093
0.000187477
0.00241171
3.35333e-06
0.0024589
-0.000205123
0.00254569
-0.000392293
0.00265242
-0.00050206
0.00275325
-0.000496718
0.00282476
-0.000375515
0.00285268
-0.000173667
0.0028347
5.3689e-05
0.00277911
0.000251613
0.00270042
0.00038166
0.00261447
0.000429103
0.00253556
0.000398822
0.00247649
0.000303478
0.0024492
0.000154851
0.00246248
-3.18183e-05
0.0025169
-0.000226212
0.00260165
-0.000382795
0.00269709
-0.000457718
0.00278103
-0.000428927
0.00283519
-0.000305387
0.00284963
-0.000122116
0.00282436
7.40654e-05
0.00276802
0.000240091
0.002694
0.000347661
0.00261638
0.000385709
0.00254804
0.000355418
0.00250074
0.00026345
0.00248475
0.000120208
0.00250602
-5.4711e-05
0.00256208
-0.000227333
0.00264091
-0.000355442
0.0027243
-0.000404643
0.00279348
-0.000362602
0.00283411
-0.000243001
0.00283926
-7.89295e-05
0.0028103
8.95271e-05
0.00275547
0.000227673
0.00268681
0.000314157
0.00261698
0.000341256
0.00255782
0.000309462
0.00252008
0.000222751
0.00251251
8.98875e-05
0.00253896
-6.94773e-05
0.00259531
-0.000222279
0.00266936
-0.000330318
0.00274441
-0.000365051
0.0028042
-0.000318669
0.00283691
-0.000205788
0.00283737
-5.67544e-05
0.0028074
9.3056e-05
0.00275461
0.000213618
0.00268994
0.000286912
0.00262506
0.000306935
0.0025711
0.000274537
0.0025382
0.000193005
0.00253438
6.96072e-05
0.00256289
-7.83899e-05
0.00261954
-0.00022129
0.00269293
-0.000324414
0.00276766
-0.000361242
0.00282879
-0.000323246
0.00286517
-0.000221681
0.00287137
-8.24153e-05
0.00284799
6.26123e-05
0.00280106
0.000184149
0.00274018
0.000262592
0.00267626
0.000290321
0.00261993
0.000268451
0.00258098
0.000201322
0.00256788
9.44576e-05
0.00258582
-4.15128e-05
0.002634
-0.000185784
0.00270448
-0.000309308
0.00278424
-0.000384594
0.00285922
-0.000396218
0.00291797
-0.00034536
0.00295359
-0.000247465
0.00296413
-0.000126095
0.00295199
-6.17787e-06
0.00292284
9.14537e-05
0.00288432
0.000153742
0.00284438
0.000176719
0.00281006
0.000164476
0.00278671
0.000125727
0.00277759
7.18443e-05
0.00278349
1.31227e-05
0.0028021
-3.69031e-05
0.0028286
-7.32833e-05
0.00285492
-7.76659e-05
0.00287828
-7.80803e-05
-6.60523e-06
0.00250242
-1.84194e-05
0.00250966
-5.48699e-05
0.00252209
-9.20276e-05
0.0025403
-0.000130135
0.00256516
-0.000169081
0.00259753
-0.000207391
0.00263793
-0.000241699
0.00268508
-0.000264049
0.00273538
-0.000264978
0.00277994
-0.00023116
0.00280732
-0.000156854
0.00281524
-7.29409e-05
0.00280473
3.71343e-06
0.00278383
4.79789e-05
0.00276616
4.21817e-05
0.00276357
-5.453e-06
0.00278177
-6.98118e-05
0.00281564
-0.000111089
0.00284822
-8.97723e-05
0.00285938
3.95739e-06
0.00283803
0.000140087
0.00278631
0.000272186
0.00271456
0.00036598
0.00263462
0.000407371
0.00255674
0.00039498
0.00248965
0.000331094
0.00244248
0.000216594
0.00242707
5.12388e-05
0.00245685
-0.000156859
0.00253828
-0.000371363
0.00265918
-0.000521466
0.00278517
-0.000533548
0.0028736
-0.000385674
0.0028981
-0.000132408
0.00286045
0.000132295
0.00278153
0.000333865
0.0026852
0.000445637
0.0025883
0.000476872
0.00249998
0.000446293
0.00242478
0.000365758
0.00236699
0.000236657
0.00233653
5.28156e-05
0.00235132
-0.000185482
0.00242534
-0.000442201
0.00255092
-0.000635546
0.00269635
-0.000677238
0.00281973
-0.000530796
0.00288574
-0.000238906
0.00287872
9.68897e-05
0.00280879
0.00036962
0.00270411
0.000520389
0.0025934
0.000552615
0.0024936
0.000503492
0.00241161
0.000403785
0.00235558
0.000255905
0.002341
4.58877e-05
0.00238212
-0.000218181
0.00247718
-0.000479471
0.00260452
-0.000652196
0.00273161
-0.000669711
0.00282733
-0.000519552
0.00287122
-0.000247059
0.00285772
6.6709e-05
0.00279547
0.000337232
0.00270249
0.000506887
0.00259919
0.00056082
0.00250276
0.000518059
0.00242705
0.000403872
0.00238575
0.000228782
0.00239149
-2.38946e-06
0.00244833
-0.000261963
0.00254568
-0.00048964
0.00266071
-0.000617097
0.0027664
-0.000602402
0.00283932
-0.000448438
0.00286527
-0.000199616
0.00284212
7.68386e-05
0.00277916
0.00031457
0.00269249
0.000468335
0.00259932
0.000522274
0.00251508
0.000483062
0.00245389
0.000364669
0.00242893
0.000179803
0.00244894
-5.18264e-05
0.00251232
-0.000289589
0.00260526
-0.000475734
0.00270606
-0.000558522
0.00279208
-0.000514945
0.00284545
-0.000358756
0.00285663
-0.000133295
0.00282593
0.000104764
0.00276265
0.00030337
0.00268139
0.000428926
0.00259766
0.000469435
0.00252572
0.000427358
0.00247853
0.000310637
0.00246695
0.000131792
0.00249599
-8.37521e-05
0.00256077
-0.000292116
0.00264665
-0.000441315
0.0027339
-0.000491897
0.00280366
-0.000432357
0.00284219
-0.000281531
0.00284321
-7.99541e-05
0.00280855
0.000124185
0.00274709
0.000289136
0.00267185
0.000389403
0.00259679
0.000416314
0.00253512
0.000371125
0.00249875
0.000259125
0.00249664
9.19971e-05
0.00253134
-0.000104178
0.00259619
-0.000287129
0.00267656
-0.000410688
0.00275453
-0.000443018
0.00281393
-0.00037807
0.00284372
-0.000235576
0.00283947
-5.25095e-05
0.0028036
0.000128926
0.00274432
0.0002729
0.00267335
0.000357882
0.00260349
0.000376791
0.0025472
0.000330831
0.00251574
0.000224462
0.00251735
6.79996e-05
0.00255391
-0.000114948
0.00261873
-0.000286112
0.00269803
-0.000403717
0.00277531
-0.000438516
0.00283578
-0.000383716
0.00286919
-0.000255097
0.00287095
-8.4176e-05
0.00284225
9.13136e-05
0.0027895
0.0002369
0.00272276
0.000329337
0.00265366
0.000359422
0.00259392
0.000328189
0.00255463
0.000240611
0.00254503
0.000104055
0.00256971
-6.61899e-05
0.00262556
-0.000241639
0.00270177
-0.000385517
0.0027834
-0.000466222
0.00285615
-0.000468973
0.00290965
-0.000398861
0.00293855
-0.000276361
0.00294223
-0.000129773
0.00292398
1.20685e-05
0.00289003
0.000125405
0.00284828
0.000195496
0.00280691
0.00021808
0.00277331
0.000198077
0.00275323
0.000145808
0.00275019
7.48901e-05
0.00276441
-1.10204e-06
0.00279226
-6.47539e-05
0.00282648
-0.000107503
0.00285778
-0.000108963
0.00288133
-0.000101632
-5.55205e-06
0.00250225
-2.06686e-05
0.00250901
-6.16268e-05
0.00252076
-0.000103779
0.00253836
-0.000147739
0.00256308
-0.000193797
0.00259647
-0.000240785
0.0026399
-0.000285126
0.00269274
-0.000316893
0.00275152
-0.00032376
0.00280428
-0.000283915
0.00283523
-0.000187804
0.00284166
-7.93682e-05
0.00282415
2.12211e-05
0.00279293
7.91999e-05
0.00276628
6.8833e-05
0.00276042
4.01718e-07
0.00278399
-9.33811e-05
0.00283091
-0.000158008
0.00287812
-0.000136988
0.00289792
-1.58418e-05
0.00287567
0.000162346
0.00281523
0.000332619
0.00273094
0.00045027
0.00263778
0.000500538
0.00254723
0.000485528
0.00246817
0.000410149
0.00241038
0.000274385
0.00238718
7.444e-05
0.00241319
-0.000182874
0.00249816
-0.000456329
0.00263718
-0.000660485
0.00279711
-0.000693475
0.00292035
-0.00050892
0.002961
-0.00017305
0.00291619
0.000177104
0.00281726
0.00043279
0.0027
0.000562901
0.0025866
0.000590272
0.00248513
0.000547758
0.00239607
0.00045482
0.00232195
0.000310778
0.00227875
9.60117e-05
0.00229401
-0.000200739
0.00238289
-0.000531078
0.00252891
-0.000781568
0.00269157
-0.000839899
0.0028265
-0.000665727
0.00289999
-0.000312391
0.00289678
0.000100098
0.00282485
0.000441551
0.00271164
0.000633603
0.00258838
0.000675875
0.00247533
0.000616535
0.00238241
0.000496712
0.00232145
0.000316858
0.00231082
5.65177e-05
0.00236294
-0.000270301
0.00247043
-0.000586955
0.00260726
-0.000789026
0.00274009
-0.000802546
0.00283857
-0.00061803
0.00288227
-0.000290759
0.00286533
8.36514e-05
0.002797
0.000405564
0.00269653
0.000607354
0.00258529
0.000672055
0.0024816
0.000621757
0.00240135
0.000484115
0.00236062
0.000269516
0.00237229
-1.40642e-05
0.00243764
-0.000327309
0.00254237
-0.000594373
0.00266172
-0.000736447
0.00276888
-0.000709561
0.0028415
-0.000521058
0.0028658
-0.000223909
0.00283927
0.00010336
0.00277111
0.000382738
0.00267816
0.000561285
0.002579
0.000621435
0.00249059
0.000571469
0.00242864
0.000426617
0.00240722
0.000201224
0.00243405
-7.86563e-05
0.00250481
-0.000360346
0.00260302
-0.000573944
0.00270591
-0.000661418
0.00279136
-0.000600395
0.00284258
-0.000409977
0.0028507
-0.000141406
0.00281604
0.000139416
0.0027479
0.000371512
0.00266138
0.000515452
0.00257314
0.000557674
0.00249895
0.000501543
0.00245313
0.000356459
0.00244675
0.000138173
0.00248326
-0.000120257
0.00255503
-0.000363889
0.0026452
-0.000531492
0.00273345
-0.000580142
0.00280158
-0.00050049
0.00283698
-0.000316929
0.00283411
-7.70815e-05
0.00279504
0.000163249
0.00272881
0.000355372
0.0026489
0.000469311
0.0025703
0.000494909
0.00250761
0.000433816
0.00247383
0.000292911
0.00247778
8.80476e-05
0.00252015
-0.00014655
0.00259159
-0.000358568
0.00267552
-0.000494623
0.00275366
-0.000521153
0.00281065
-0.000435058
0.00283658
-0.000261509
0.00282785
-4.3778e-05
0.00278724
0.00016954
0.00272316
0.000336977
0.00264776
0.000433284
0.0025747
0.000449844
0.0025177
0.000387834
0.00248902
0.00025314
0.00249666
6.03647e-05
0.0025406
-0.000158887
0.00261152
-0.000357035
0.00269382
-0.000486016
0.00277072
-0.000515419
0.00282836
-0.000441351
0.00285769
-0.000284428
0.002855
-8.14859e-05
0.00282188
0.000124432
0.00276484
0.000293935
0.00269407
0.000400113
0.00262167
0.000431823
0.00256037
0.000389485
0.00252247
0.00027851
0.00251763
0.000108901
0.00254906
-9.7626e-05
0.00261085
-0.000303423
0.0026895
-0.000464167