/*--------------------------------*- C++ -*----------------------------------*\
  =========                 |
  \\      /  F ield         | OpenFOAM: The Open Source CFD Toolbox
   \\    /   O peration     | Website:  https://openfoam.org
    \\  /    A nd           | Version:  11
     \\/     M anipulation  |
\*---------------------------------------------------------------------------*/
FoamFile
{
    format      ascii;
    class       volVectorField;
    location    "10.339362";
    object      U_0;
}
// * * * * * * * * * * * * * * * * * * * * * * * * * * * * * * * * * * * * * //

dimensions      [0 1 -1 0 0 0 0];

internalField   nonuniform List<vector> 
7132
(
(1.00012 -0.000242404 2.55054e-18)
(1.00188 -0.000737711 9.38162e-18)
(1.00591 -0.00127373 9.58524e-18)
(1.01211 -0.00186087 1.1933e-17)
(1.02077 -0.00249803 1.5439e-17)
(1.03208 -0.00315774 1.51854e-17)
(1.04605 -0.00379065 1.38234e-17)
(1.06245 -0.00430737 1.24956e-17)
(1.0806 -0.00461164 1.14013e-17)
(1.09947 -0.00460332 1.05529e-17)
(1.11758 -0.00422055 9.85559e-18)
(1.13343 -0.00352168 9.57764e-18)
(1.1459 -0.0025601 9.26763e-18)
(1.15404 -0.00139413 9.80885e-18)
(1.15716 -9.05923e-05 3.83714e-18)
(1.15485 0.00126082 -2.69944e-18)
(1.14712 0.0025053 -8.57102e-18)
(1.1348 0.00343251 -8.63107e-18)
(1.11959 0.00384812 -1.30263e-17)
(1.10389 0.0036457 -1.65004e-17)
(1.09028 0.00283187 -1.4734e-17)
(1.08112 0.00153065 -1.32112e-17)
(1.07801 -2.57159e-05 -1.31989e-17)
(1.08143 -0.00151413 -1.46674e-17)
(1.09039 -0.00255042 -1.81437e-17)
(1.10225 -0.00277788 -2.39836e-17)
(1.1131 -0.00202921 -2.83519e-17)
(1.11895 -0.000462896 -2.77084e-17)
(1.11715 0.00148436 -2.30276e-17)
(1.10721 0.00330785 -1.90559e-17)
(1.09062 0.00463334 -2.1646e-17)
(1.06993 0.0052763 -3.15009e-17)
(1.0481 0.00519424 3.89008e-18)
(1.02801 0.00441416 1.021e-16)
(1.01239 0.00298455 -2.58654e-16)
(1.00374 0.000974941 -2.09213e-15)
(1.00424 -0.00147821 -1.31575e-15)
(1.01537 -0.00408467 2.53971e-14)
(1.03699 -0.00633073 1.08083e-13)
(1.06639 -0.00754647 2.17748e-13)
(1.098 -0.00717503 2.60277e-13)
(1.12454 -0.00511844 1.9784e-13)
(1.13961 -0.00188889 9.79496e-14)
(1.14007 0.00161874 3.06296e-14)
(1.12675 0.00456493 2.23979e-15)
(1.10334 0.00648827 -5.06342e-15)
(1.07447 0.00731876 -7.12298e-15)
(1.04437 0.00719523 -3.93732e-15)
(1.01647 0.00627763 2.38907e-14)
(0.993673 0.00464823 6.86104e-14)
(0.978768 0.00231493 -6.15865e-15)
(0.974641 -0.000703752 -5.47429e-13)
(0.984016 -0.00422664 -2.00768e-12)
(1.00839 -0.00775342 -4.40662e-12)
(1.04644 -0.0104505 -7.01173e-12)
(1.09282 -0.011387 -8.76664e-12)
(1.13858 -0.00996458 -8.78274e-12)
(1.17353 -0.00631503 -6.91905e-12)
(1.18982 -0.00138103 -4.4305e-12)
(1.18487 0.0034555 -2.64991e-12)
(1.16198 0.00700085 -1.33151e-12)
(1.12829 0.00871426 -2.86641e-13)
(1.09156 0.00870956 2.47939e-13)
(1.05796 0.00742614 -2.36016e-13)
(1.03159 0.00527734 -1.69002e-12)
(1.01521 0.00247587 -1.39636e-12)
(1.01124 -0.00091947 7.91492e-12)
(1.02201 -0.00479583 3.70636e-11)
(1.04911 -0.0087747 9.53317e-11)
(1.09189 -0.0121652 1.83745e-10)
(1.14637 -0.0141563 2.92354e-10)
(1.20531 -0.0141447 4.03639e-10)
(1.25982 -0.0119909 4.98096e-10)
(1.30153 -0.00805889 5.57959e-10)
(1.32457 -0.00304242 5.70084e-10)
(1.32621 0.00226026 5.28683e-10)
(1.30691 0.00705688 4.34357e-10)
(1.2702 0.0105785 3.01592e-10)
(1.22261 0.0121833 1.62704e-10)
(1.1728 0.0116377 5.44469e-11)
(1.12932 0.00930109 -4.13053e-12)
(1.09808 0.00595416 -2.02135e-11)
(1.0814 0.00241261 -1.47815e-11)
(1.07861 -0.000741606 -5.48258e-12)
(1.08733 -0.00317875 6.78305e-14)
(1.10425 -0.00470918 1.48603e-12)
(1.12539 -0.00519961 8.56675e-13)
(1.14634 -0.00459428 -1.71466e-14)
(1.16266 -0.00300415 -3.71356e-13)
(1.1708 -0.000765253 -2.74683e-13)
(1.16904 0.00161884 -8.1865e-14)
(1.15791 0.00364184 3.17458e-14)
(1.13977 0.00496801 5.54832e-14)
(1.11791 0.00550682 3.6087e-14)
(1.09543 0.00537075 1.29123e-14)
(1.07469 0.00477253 4.32574e-16)
(1.05706 0.00392975 -3.11323e-15)
(1.04312 0.00301173 -3.29662e-15)
(1.03288 0.00212766 -3.42845e-15)
(1.02605 0.00133821 -4.19757e-15)
(1.02216 0.000673027 -5.16926e-15)
(1.02068 0.000144993 -5.82057e-15)
(1.02103 -0.000241245 -5.8149e-15)
(1.02265 -0.000485943 -4.9613e-15)
(1.02497 -0.000594513 -3.18912e-15)
(1.02746 -0.000579554 -6.01856e-16)
(1.02966 -0.000462539 2.46995e-15)
(1.03121 -0.000273379 5.48608e-15)
(1.03188 -4.72574e-05 7.81233e-15)
(1.03161 0.000180471 8.94853e-15)
(1.03045 0.000379678 8.73031e-15)
(1.02857 0.000529403 7.33601e-15)
(1.02619 0.000619372 5.18257e-15)
(1.02359 0.000649236 2.77026e-15)
(1.02097 0.000626317 5.56974e-16)
(1.01855 0.000562739 -1.12472e-15)
(1.01645 0.000472669 -2.08751e-15)
(1.01475 0.000370073 -2.26437e-15)
(1.01348 0.000267135 -1.67516e-15)
(1.01261 0.00017335 -3.85835e-16)
(1.01209 9.51789e-05 1.50785e-15)
(1.01185 3.61625e-05 3.88415e-15)
(1.01181 -2.68908e-06 6.59964e-15)
(1.01188 -2.23615e-05 9.4904e-15)
(1.01199 -2.52786e-05 1.23828e-14)
(1.01209 -1.47849e-05 1.51037e-14)
(1.01212 5.31085e-06 1.74984e-14)
(1.01205 3.11239e-05 1.94573e-14)
(1.01187 5.90241e-05 2.09303e-14)
(1.01158 8.58987e-05 2.19324e-14)
(1.01118 0.000109333 2.25346e-14)
(1.0107 0.000127706 2.28458e-14)
(1.01016 0.000140196 2.29977e-14)
(1.00958 0.000146712 2.31209e-14)
(1.00898 0.00014776 2.33313e-14)
(1.00839 0.000144278 2.37174e-14)
(1.00783 0.000137457 2.43327e-14)
(1.00729 0.000128567 2.52004e-14)
(1.0068 0.000118822 2.63139e-14)
(1.00634 0.000109264 2.76461e-14)
(1.00592 0.000100703 2.91548e-14)
(1.00553 9.36837e-05 3.07878e-14)
(1.00517 8.84944e-05 3.24933e-14)
(1.00482 8.51896e-05 3.42219e-14)
(1.00449 8.36411e-05 3.59336e-14)
(1.00416 8.35812e-05 3.75995e-14)
(1.00382 8.46709e-05 3.92022e-14)
(1.00348 8.65221e-05 4.07407e-14)
(1.00313 8.87857e-05 4.22274e-14)
(1.00277 9.10996e-05 4.36883e-14)
(1.0024 9.32549e-05 4.5158e-14)
(1.00202 9.49594e-05 4.66724e-14)
(1.00164 9.62506e-05 4.82661e-14)
(1.00124 9.68281e-05 4.99633e-14)
(1.00087 9.70612e-05 5.17741e-14)
(1.00046 9.65029e-05 5.36927e-14)
(1.00012 9.57813e-05 5.56774e-14)
(0.99965 9.45469e-05 5.774e-14)
(0.999425 9.27722e-05 5.95382e-14)
(0.998792 9.12711e-05 6.24256e-14)
(1.00012 -0.000724849 4.0794e-20)
(1.00186 -0.00220705 4.61549e-19)
(1.00586 -0.00381269 8.79507e-19)
(1.01202 -0.0055754 1.30519e-18)
(1.02067 -0.0074932 1.80756e-18)
(1.03199 -0.00948487 2.27547e-18)
(1.04605 -0.011403 2.57114e-18)
(1.06261 -0.0129758 3.01528e-18)
(1.08103 -0.0139103 4.06409e-18)
(1.10025 -0.0138955 4.41633e-18)
(1.11871 -0.0127407 4.05278e-18)
(1.13485 -0.0106335 7.06194e-18)
(1.14756 -0.0077376 6.29073e-18)
(1.15587 -0.00422908 6.75934e-18)
(1.15909 -0.000307263 7.84793e-18)
(1.15676 0.0037674 8.77506e-18)
(1.14883 0.00752918 9.33997e-18)
(1.13609 0.0103399 1.01403e-17)
(1.12032 0.011607 1.11424e-17)
(1.10399 0.0110042 1.1547e-17)
(1.08981 0.00854587 9.0778e-18)
(1.08025 0.00459952 3.88276e-19)
(1.07701 -0.000136936 -1.95394e-17)
(1.08066 -0.00468487 -7.53519e-17)
(1.09023 -0.00787107 -1.94027e-16)
(1.10298 -0.00859337 -2.95578e-16)
(1.11475 -0.00632483 -2.6519e-16)
(1.12124 -0.00154502 -1.48568e-16)
(1.11962 0.00440254 -6.2015e-17)
(1.10944 0.00996857 -2.76495e-17)
(1.09231 0.0140123 -3.78361e-17)
(1.07095 0.015982 -3.25451e-17)
(1.0484 0.0157605 1.01767e-16)
(1.02762 0.0134365 -1.00917e-16)
(1.01132 0.00915321 -1.70703e-15)
(1.00208 0.00310397 -1.57102e-16)
(1.00221 -0.00432593 2.36529e-14)
(1.01338 -0.0122778 6.5701e-14)
(1.03566 -0.0191871 3.06103e-14)
(1.06637 -0.0229817 -9.63052e-14)
(1.09963 -0.0219214 -1.47087e-13)
(1.12764 -0.015685 -9.66379e-14)
(1.1435 -0.00584517 -5.11494e-14)
(1.14392 0.00484551 -1.93251e-14)
(1.12992 0.0138109 -5.70098e-15)
(1.10555 0.0196469 -7.49639e-15)
(1.07571 0.0221612 -1.06706e-14)
(1.04473 0.0218003 1.82168e-14)
(1.01603 0.0190643 6.97645e-14)
(0.992447 0.0142 -1.18788e-13)
(0.976756 0.00720677 -8.76155e-13)
(0.971968 -0.00190481 -8.6794e-13)
(0.981042 -0.0126287 6.25895e-12)
(1.00572 -0.023448 3.09718e-11)
(1.04485 -0.0317787 7.40696e-11)
(1.0931 -0.0347179 1.14297e-10)
(1.14116 -0.0304094 1.2366e-10)
(1.17807 -0.019277 9.75565e-11)
(1.19523 -0.00423121 5.66179e-11)
(1.18984 0.0105091 2.2259e-11)
(1.16556 0.0212961 3.62157e-12)
(1.13017 0.0264811 -1.9631e-12)
(1.09194 0.02644 -1.81216e-12)
(1.05722 0.0225497 -2.15512e-12)
(1.03002 0.0160913 -4.32269e-12)
(1.01287 0.00770613 6.19776e-13)
(1.00805 -0.00246247 3.54463e-11)
(1.01805 -0.0141199 1.28997e-10)
(1.04484 -0.0261544 2.94642e-10)
(1.08815 -0.0364761 5.13643e-10)
(1.14396 -0.0425878 7.44245e-10)
(1.20448 -0.0426107 9.47178e-10)
(1.26004 -0.0361223 1.09905e-09)
(1.30186 -0.0242845 1.18324e-09)
(1.32421 -0.00924397 1.17806e-09)
(1.32502 0.00661059 1.06512e-09)
(1.30525 0.020963 8.48921e-10)
(1.26848 0.0315626 5.70434e-10)
(1.22099 0.0364846 2.98677e-10)
(1.17115 0.0349723 9.72865e-11)
(1.12746 0.0280415 -8.89455e-12)
(1.09596 0.0180094 -3.83998e-11)
(1.07916 0.0073328 -2.90572e-11)
(1.07657 -0.00222097 -1.15028e-11)
(1.08584 -0.00963871 5.09022e-13)
(1.10363 -0.0143246 5.57073e-12)
(1.12587 -0.0158537 6.73825e-12)
(1.14792 -0.0140413 6.67926e-12)
(1.16512 -0.00921953 6.38521e-12)
(1.17373 -0.00241238 5.67225e-12)
(1.17195 0.00484384 4.24563e-12)
(1.16037 0.0110009 2.55646e-12)
(1.14156 0.0150306 1.16733e-12)
(1.11899 0.0166586 3.19679e-13)
(1.09593 0.0162341 -4.88125e-14)
(1.07479 0.0144109 -1.28099e-13)
(1.05694 0.0118536 -9.18857e-14)
(1.0429 0.00907536 -4.10554e-14)
(1.03267 0.00640471 -1.10045e-14)
(1.0259 0.00402237 -1.57093e-15)
(1.0221 0.00201578 -2.15074e-15)
(1.02073 0.000422543 -3.96407e-15)
(1.02121 -0.000743739 -2.74149e-15)
(1.02297 -0.00148342 2.56435e-15)
(1.02543 -0.00181203 1.13413e-14)
(1.02804 -0.00176688 2.21819e-14)
(1.03034 -0.00141239 3.32243e-14)
(1.03196 -0.000838868 4.2412e-14)
(1.03266 -0.000152927 4.78987e-14)
(1.03238 0.000538125 4.86741e-14)
(1.03119 0.00114273 4.50327e-14)
(1.02925 0.00159719 3.8235e-14)
(1.02682 0.00187028 2.9954e-14)
(1.02415 0.00196102 2.17714e-14)
(1.02148 0.00189171 1.48776e-14)
(1.01902 0.00169919 9.97712e-15)
(1.01689 0.00142646 7.34609e-15)
(1.01518 0.00111589 6.96574e-15)
(1.0139 0.000804377 8.64244e-15)
(1.01304 0.000520667 1.20974e-14)
(1.01253 0.000284292 1.70036e-14)
(1.01231 0.000105927 2.2985e-14)
(1.01229 -1.14055e-05 2.96224e-14)
(1.01238 -7.07162e-05 3.64686e-14)
(1.01251 -7.93541e-05 4.30744e-14)
(1.01262 -4.74416e-05 4.90215e-14)
(1.01265 1.34965e-05 5.39622e-14)
(1.01259 9.17103e-05 5.76824e-14)
(1.01241 0.00017622 6.0129e-14)
(1.01212 0.000257606 6.14036e-14)
(1.01172 0.000328563 6.17327e-14)
(1.01123 0.000384185 6.14164e-14)
(1.01068 0.000421987 6.07843e-14)
(1.01009 0.000441696 6.0145e-14)
(1.00949 0.000444849 5.97534e-14)
(1.00889 0.000434292 5.97923e-14)
(1.00832 0.00041363 6.03618e-14)
(1.00778 0.000386718 6.1491e-14)
(1.00729 0.000357226 6.31454e-14)
(1.00683 0.000328312 6.52447e-14)
(1.00641 0.000302427 6.76821e-14)
(1.00602 0.000281219 7.0336e-14)
(1.00566 0.000265555 7.30911e-14)
(1.00532 0.0002556 7.58443e-14)
(1.00498 0.000250961 7.8515e-14)
(1.00465 0.000250827 8.10525e-14)
(1.00431 0.00025417 8.34338e-14)
(1.00397 0.000259815 8.56708e-14)
(1.00361 0.000266703 8.78015e-14)
(1.00325 0.000273745 8.98864e-14)
(1.00288 0.000280298 9.20006e-14)
(1.0025 0.000285496 9.42193e-14)
(1.00212 0.000289428 9.6612e-14)
(1.00172 0.00029123 9.92254e-14)
(1.00134 0.000291948 1.02075e-13)
(1.00092 0.000290355 1.05143e-13)
(1.00058 0.000288142 1.08353e-13)
(1.00011 0.000284604 1.11688e-13)
(0.999883 0.000279087 1.14626e-13)
(0.999244 0.000274769 1.19147e-13)
(1.00012 -0.00120071 4.01685e-22)
(1.00183 -0.00365782 6.07822e-21)
(1.00576 -0.00632658 7.60005e-21)
(1.01185 -0.009269 3.56645e-21)
(1.02045 -0.0124869 -1.02052e-19)
(1.0318 -0.0158493 9.88445e-20)
(1.04602 -0.0191124 -4.78948e-19)
(1.06293 -0.0218105 -1.3573e-18)
(1.08189 -0.0234419 2.51702e-18)
(1.10182 -0.0234495 3.14293e-18)
(1.12098 -0.0214975 -9.66305e-18)
(1.1377 -0.017941 -1.94981e-17)
(1.15087 -0.0130627 -7.23326e-18)
(1.15953 -0.00715279 1.80406e-17)
(1.16294 -0.000523199 3.28326e-17)
(1.16055 0.00640978 3.87562e-17)
(1.15221 0.0128569 3.98885e-17)
(1.13864 0.0177028 3.89721e-17)
(1.12172 0.0199067 3.40012e-17)
(1.10415 0.0188989 1.29214e-17)
(1.08886 0.0146995 -4.37909e-17)
(1.07854 0.00792893 -1.38257e-16)
(1.07512 -0.00023616 -2.7303e-16)
(1.07931 -0.00813212 -8.1929e-16)
(1.09019 -0.0137227 -2.53058e-15)
(1.10478 -0.0150525 -3.90184e-15)
(1.11839 -0.0111608 -2.76003e-15)
(1.12609 -0.0028837 -7.97905e-16)
(1.12468 0.00740301 6.50216e-17)
(1.11381 0.0169776 1.40336e-16)
(1.09542 0.023884 9.71547e-18)
(1.07259 0.0272251 3.57941e-16)
(1.0486 0.0268539 2.88407e-16)
(1.02645 0.0229512 -6.60153e-15)
(1.00893 0.0157526 -5.80927e-15)
(0.998683 0.0055369 1.05032e-13)
(0.998254 -0.00711606 2.44471e-13)
(1.00972 -0.0208021 -1.05138e-12)
(1.03357 -0.0328329 -6.25486e-12)
(1.06711 -0.0395506 -1.38536e-11)
(1.10379 -0.0378275 -1.71299e-11)
(1.13467 -0.0270498 -1.30548e-11)
(1.15188 -0.00999916 -6.31587e-12)
(1.15182 0.00844291 -1.82178e-12)
(1.13605 0.0237619 -6.99968e-14)
(1.10941 0.0335897 2.18511e-13)
(1.07744 0.0377193 1.34249e-13)
(1.04468 0.0370271 1.98637e-13)
(1.01447 0.0324159 3.64756e-14)
(0.989506 0.0242846 -1.95203e-12)
(0.972538 0.0125585 -4.5012e-12)
(0.966621 -0.00283116 9.51923e-12)
(0.974782 -0.0210802 8.34168e-11)
(0.998966 -0.0396437 2.59398e-10)
(1.03861 -0.054155 5.1451e-10)
(1.08917 -0.059583 7.3786e-10)
(1.14142 -0.0524808 7.99429e-10)
(1.18315 -0.0333352 6.60153e-10)
(1.2036 -0.00721736 4.10739e-10)
(1.19854 0.018335 1.8318e-10)
(1.17197 0.0368467 4.56966e-11)
(1.13315 0.0455097 -6.89272e-12)
(1.09178 0.0451643 -1.42134e-11)
(1.05481 0.0383776 -1.17111e-11)
(1.02606 0.0274531 -9.62543e-12)
(1.00757 0.0134655 1.68217e-11)
(1.0014 -0.00349754 1.19298e-10)
(1.01063 -0.0231717 3.36441e-10)
(1.0383 -0.0438109 6.47236e-10)
(1.08468 -0.0617336 9.76026e-10)
(1.14501 -0.072351 1.25005e-09)
(1.20982 -0.0722098 1.44547e-09)
(1.26779 -0.0606681 1.58362e-09)
(1.30925 -0.0400945 1.68943e-09)
(1.32879 -0.014557 1.74201e-09)
(1.32576 0.0118012 1.66772e-09)
(1.30272 0.0353524 1.41051e-09)
(1.26409 0.052699 1.00012e-09)
(1.21592 0.0608156 5.52333e-10)
(1.16593 0.0583718 1.96363e-10)
(1.12215 0.0468842 -4.16118e-12)
(1.09065 0.0301018 -6.85395e-11)
(1.07414 0.0121164 -5.74598e-11)
(1.0723 -0.00407181 -2.39527e-11)
(1.08287 -0.0167068 7.06401e-12)
(1.10243 -0.0247263 3.14639e-11)
(1.12675 -0.0273525 4.98861e-11)
(1.15091 -0.024226 5.98509e-11)
(1.16984 -0.0159026 5.85676e-11)
(1.17937 -0.0041634 4.74167e-11)
(1.17748 0.00831566 3.15389e-11)
(1.1649 0.0188456 1.68146e-11)
(1.1446 0.0256576 6.62508e-12)
(1.1205 0.0283148 1.26822e-12)
(1.09623 0.0274657 -6.81823e-13)
(1.07432 0.0242678 -8.99496e-13)
(1.05609 0.0198708 -5.54978e-13)
(1.04199 0.0151441 -2.12823e-13)
(1.03188 0.0106312 -2.79612e-14)
(1.02534 0.00662306 2.91344e-14)
(1.02184 0.00325648 2.80387e-14)
(1.02078 0.000588346 1.90448e-14)
(1.02159 -0.00136109 2.45187e-14)
(1.02367 -0.00259239 4.84366e-14)
(1.02642 -0.00313041 8.59302e-14)
(1.02929 -0.00303681 1.28861e-13)
(1.03178 -0.00242008 1.68436e-13)
(1.0335 -0.00143376 1.96783e-13)
(1.03424 -0.000259803 2.08449e-13)
(1.03391 0.0009186 2.02038e-13)
(1.03262 0.00194559 1.80903e-13)
(1.03055 0.0027135 1.51078e-13)
(1.02798 0.00317068 1.18946e-13)
(1.02517 0.00331708 8.96531e-14)
(1.0224 0.0031921 6.64515e-14)
(1.01986 0.00285941 5.0802e-14)
(1.01769 0.00239267 4.28578e-14)
(1.01596 0.00186395 4.20153e-14)
(1.0147 0.00133573 4.73279e-14)
(1.01386 0.000856368 5.77256e-14)
(1.0134 0.000458483 7.20725e-14)
(1.01322 0.000159631 8.91443e-14)
(1.01324 -3.55593e-05 1.0762e-13)
(1.01338 -0.000132575 1.26154e-13)
(1.01354 -0.000144141 1.43452e-13)
(1.01367 -8.75681e-05 1.58363e-13)
(1.01372 1.75491e-05 1.7001e-13)
(1.01367 0.000151297 1.77925e-13)
(1.01348 0.000295111 1.82124e-13)
(1.01318 0.000433109 1.8305e-13)
(1.01277 0.00055301 1.81454e-13)
(1.01226 0.000646616 1.7825e-13)
(1.0117 0.00070984 1.74371e-13)
(1.01109 0.000742335 1.70647e-13)
(1.01047 0.000746815 1.67732e-13)
(1.00987 0.000728181 1.66058e-13)
(1.00929 0.000692605 1.65838e-13)
(1.00874 0.000646646 1.67091e-13)
(1.00824 0.000596526 1.69676e-13)
(1.00778 0.000547582 1.7335e-13)
(1.00736 0.000503928 1.77805e-13)
(1.00698 0.000468318 1.82719e-13)
(1.00662 0.000442173 1.87793e-13)
(1.00627 0.000425729 1.92772e-13)
(1.00594 0.000418283 1.97473e-13)
(1.00561 0.000418434 2.01789e-13)
(1.00527 0.000424419 2.05698e-13)
(1.00492 0.000434242 2.09251e-13)
(1.00457 0.000446105 2.12565e-13)
(1.0042 0.000458171 2.15804e-13)
(1.00382 0.000469362 2.19157e-13)
(1.00343 0.000478226 2.22808e-13)
(1.00305 0.000484926 2.26917e-13)
(1.00264 0.000488013 2.31585e-13)
(1.00226 0.000489297 2.36841e-13)
(1.00183 0.000486639 2.4263e-13)
(1.00148 0.000483096 2.48783e-13)
(1.00101 0.000477091 2.55185e-13)
(1.00078 0.000468218 2.60885e-13)
(1.00012 0.000460648 2.69267e-13)
(1.00011 -0.0016653 -4.00381e-20)
(1.00177 -0.00507597 -5.94078e-19)
(1.0056 -0.00879629 -1.03139e-18)
(1.01157 -0.012924 -1.8039e-18)
(1.02008 -0.0174737 -2.23746e-18)
(1.03146 -0.0222715 -2.42151e-18)
(1.04591 -0.0269811 -9.2172e-18)
(1.06334 -0.0309243 5.56437e-18)
(1.08313 -0.0333695 1.2266e-17)
(1.10416 -0.0334492 -5.33742e-17)
(1.1244 -0.0306535 -8.8328e-17)
(1.14201 -0.025579 1.71414e-17)
(1.15588 -0.0186462 1.45533e-16)
(1.16507 -0.0102594 1.87212e-16)
(1.1688 -0.000822971 1.45332e-16)
(1.16637 0.00913603 6.39326e-17)
(1.15739 0.0184905 -2.97233e-17)
(1.14254 0.0255806 -1.31424e-16)
(1.12384 0.0288432 -2.68661e-16)
(1.10433 0.0274249 -5.12487e-16)
(1.08731 0.0213392 -9.12302e-16)
(1.07581 0.0114626 -1.34932e-15)
(1.07208 -0.000527113 -1.76408e-15)
(1.07709 -0.0122274 -2.965e-15)
(1.09 -0.0206201 -5.47904e-15)
(1.10752 -0.022713 -4.99915e-15)
(1.12405 -0.0169791 1.51057e-15)
(1.13363 -0.00467308 6.27299e-15)
(1.13251 0.0105649 5.13163e-15)
(1.12048 0.0246143 2.3742e-15)
(1.10008 0.0346209 1.10278e-15)
(1.07496 0.0393881 3.21573e-15)
(1.04874 0.0388262 -4.61067e-15)
(1.02455 0.0332672 -4.17733e-14)
(1.00519 0.0230402 6.42409e-14)
(0.993408 0.00844992 6.58816e-13)
(0.992091 -0.00983274 6.25094e-14)
(1.00403 -0.0299235 -8.7336e-12)
(1.03048 -0.0478855 -3.16307e-11)
(1.06876 -0.0581163 -6.0623e-11)
(1.11103 -0.0557243 -7.54846e-11)
(1.14633 -0.0397188 -6.31983e-11)
(1.16531 -0.0143832 -3.50222e-11)
(1.16417 0.0127983 -1.23935e-11)
(1.14534 0.0350302 -1.54922e-12)
(1.11502 0.0489454 1.24551e-12)
(1.07969 0.0545192 1.14306e-12)
(1.04421 0.0532807 9.20182e-13)
(1.01181 0.0466468 -1.21402e-12)
(0.984931 0.0351639 -8.85748e-12)
(0.966073 0.0186559 -5.70934e-12)
(0.95788 -0.00300631 7.86472e-11)
(0.96311 -0.0287722 3.51378e-10)
(0.98445 -0.0553458 8.44358e-10)
(1.02303 -0.0768931 1.43411e-09)
(1.07555 -0.0861632 1.91039e-09)
(1.13288 -0.077439 2.08209e-09)
(1.18173 -0.0503661 1.84762e-09)
(1.20891 -0.0118922 1.29022e-09)
(1.20726 0.0263579 6.70803e-10)
(1.17971 0.0539951 2.22208e-10)
(1.13699 0.0665568 8.27639e-12)
(1.09121 0.0655876 -4.54632e-11)
(1.05082 0.0553969 -3.9886e-11)
(1.01966 0.039713 -1.60411e-11)
(0.999131 0.0200461 6.6192e-11)
(0.991396 -0.00397494 2.75938e-10)
(1.00095 -0.0325464 6.1708e-10)
(1.03228 -0.0631707 9.93901e-10)
(1.08523 -0.0898459 1.29065e-09)
(1.15282 -0.105191 1.46314e-09)
(1.22325 -0.104032 1.5449e-09)
(1.2838 -0.0858353 1.60267e-09)
(1.32429 -0.0547431 1.69804e-09)
(1.33949 -0.0174369 1.83784e-09)
(1.32998 0.0197003 1.92314e-09)
(1.3005 0.0518205 1.80121e-09)
(1.25733 0.0749554 1.40889e-09)
(1.20699 0.0855371 8.56737e-10)
(1.15647 0.0818241 3.48196e-10)
(1.11291 0.0656639 2.57306e-11)
(1.08192 0.0420182 -9.84046e-11)
(1.06623 0.0165167 -9.46775e-11)
(1.06559 -0.00658022 -3.51924e-11)
(1.07765 -0.0247014 4.53833e-11)
(1.09891 -0.0362666 1.36032e-10)
(1.12524 -0.0401025 2.20134e-10)
(1.15191 -0.035595 2.69368e-10)
(1.17355 -0.0234452 2.63774e-10)
(1.18523 -0.00622272 2.10385e-10)
(1.18414 0.0120895 1.3711e-10)
(1.17081 0.027453 7.12871e-11)
(1.14866 0.0372299 2.69997e-11)
(1.12242 0.0408336 4.46047e-12)
(1.09634 0.0393216 -3.31978e-12)
(1.07326 0.034477 -3.90479e-12)
(1.05451 0.028013 -2.31572e-12)
(1.04035 0.0211808 -8.4788e-13)
(1.03049 0.0147311 -7.18192e-14)
(1.02436 0.00904643 1.69742e-13)
(1.02134 0.00429554 1.71149e-13)
(1.02081 0.00054373 1.37606e-13)
(1.02215 -0.00218692 1.58773e-13)
(1.02472 -0.00389776 2.48916e-13)
(1.02794 -0.00462168 3.85762e-13)
(1.03119 -0.0044441 5.34428e-13)
(1.03396 -0.0035195 6.60245e-13)
(1.03585 -0.00206958 7.36483e-13)
(1.03661 -0.000358484 7.49404e-13)
(1.03621 0.00134789 7.01402e-13)
(1.03475 0.00282463 6.09847e-13)
(1.03246 0.00391848 4.9802e-13)
(1.02966 0.00455854 3.87122e-13)
(1.02666 0.00474891 2.91974e-13)
(1.02372 0.00455008 2.20267e-13)
(1.02106 0.00405641 1.74008e-13)
(1.01883 0.00337533 1.51688e-13)
(1.01709 0.00261086 1.50181e-13)
(1.01585 0.00185236 1.65915e-13)
(1.01507 0.00116829 1.95347e-13)
(1.01467 0.000604192 2.34962e-13)
(1.01457 0.000183918 2.81113e-13)
(1.01466 -8.70945e-05 3.2999e-13)
(1.01485 -0.000217671 3.7783e-13)
(1.01507 -0.000226723 4.21117e-13)
(1.01523 -0.000139471 4.56873e-13)
(1.01531 1.58093e-05 4.82985e-13)
(1.01526 0.000210546 4.98543e-13)
(1.01507 0.00041822 5.03964e-13)
(1.01475 0.000616245 5.00773e-13)
(1.01431 0.000787263 4.91233e-13)
(1.01378 0.000919811 4.77916e-13)
(1.01319 0.00100834 4.63325e-13)
(1.01256 0.00105264 4.49596e-13)
(1.01192 0.00105688 4.38325e-13)
(1.0113 0.00102829 4.30502e-13)
(1.0107 0.000975861 4.26541e-13)
(1.01015 0.000909064 4.26363e-13)
(1.00965 0.000836828 4.29519e-13)
(1.00919 0.000766757 4.35311e-13)
(1.00877 0.000704663 4.42927e-13)
(1.00839 0.000654385 4.51541e-13)
(1.00803 0.000617846 4.60407e-13)
(1.00769 0.000595276 4.68924e-13)
(1.00735 0.000585579 4.76678e-13)
(1.00702 0.000586677 4.83463e-13)
(1.00668 0.000595997 4.8927e-13)
(1.00633 0.00061066 4.94275e-13)
(1.00597 0.000628086 4.98798e-13)
(1.00559 0.000645659 5.03254e-13)
(1.00521 0.000661862 5.08097e-13)
(1.00481 0.00067464 5.13762e-13)
(1.00441 0.0006843 5.20601e-13)
(1.004 0.000688708 5.28837e-13)
(1.00361 0.000690712 5.3851e-13)
(1.00317 0.00068681 5.49471e-13)
(1.00281 0.000682353 5.6133e-13)
(1.00233 0.000673288 5.73722e-13)
(1.00209 0.000662194 5.84874e-13)
(1.00142 0.000650075 6.00612e-13)
(1.00011 -0.00211279 -2.64379e-18)
(1.00169 -0.00644487 -9.58992e-18)
(1.00536 -0.0111977 -8.1575e-18)
(1.01115 -0.0165157 -1.06235e-17)
(1.01953 -0.0224391 -4.61144e-18)
(1.03091 -0.0287634 -2.41195e-17)
(1.04564 -0.0350666 -6.95064e-18)
(1.06375 -0.0404328 8.87252e-17)
(1.08469 -0.0438716 -1.89997e-16)
(1.10726 -0.0440959 -3.52158e-16)
(1.12899 -0.0403785 4.30833e-16)
(1.14778 -0.03368 1.21653e-15)
(1.1626 -0.0245826 4.92393e-16)
(1.1725 -0.0135961 -1.29698e-15)
(1.17668 -0.00115837 -2.35957e-15)
(1.17424 0.0121426 -2.89187e-15)
(1.16445 0.0248096 -3.17491e-15)
(1.14784 0.0345066 -3.44654e-15)
(1.12668 0.0390218 -3.87904e-15)
(1.10447 0.037168 -4.55137e-15)
(1.08502 0.0289565 -4.96301e-15)
(1.07183 0.0155408 -4.40045e-15)
(1.0676 -0.000877818 -4.83906e-15)
(1.07371 -0.0171026 2.68583e-14)
(1.08948 -0.028951 2.01111e-13)
(1.11117 -0.0320942 4.07063e-13)
(1.13193 -0.0242192 3.67287e-13)
(1.14421 -0.0070906 1.79223e-13)
(1.14344 0.0140079 5.6796e-14)
(1.12968 0.0332107 1.1437e-14)
(1.10639 0.0466432 5.16315e-15)
(1.07808 0.0528884 7.63533e-15)
(1.04882 0.052055 -4.49044e-14)
(1.02187 0.0447234 -4.51776e-14)
(1.00001 0.0313263 5.92156e-13)
(0.986043 0.012095 6.88488e-13)
(0.983383 -0.0124122 -6.17824e-12)
(0.995888 -0.0399812 -1.76833e-11)
(1.02584 -0.0652008 -4.81232e-12)
(1.07068 -0.0798464 3.71529e-11)
(1.1211 -0.0766298 5.21197e-11)
(1.1631 -0.0541762 1.85891e-11)
(1.18467 -0.0188739 -1.42564e-11)
(1.18165 0.0184736 -1.98507e-11)
(1.1581 0.0483569 -9.68058e-12)
(1.12237 0.0664108 -6.33438e-13)
(1.08236 0.0731086 2.74748e-12)
(1.04328 0.0709583 2.21766e-12)
(1.00809 0.0620523 -6.57935e-12)
(0.978787 0.047151 -2.07121e-11)
(0.957049 0.026092 2.61389e-11)
(0.94461 -0.0013277 2.87211e-10)
(0.944739 -0.0343379 8.67165e-10)
(0.962836 -0.0695893 1.63892e-09)
(1.00226 -0.0997247 2.3353e-09)
(1.05893 -0.114549 2.80908e-09)
(1.12151 -0.105589 3.04148e-09)
(1.17593 -0.0713179 2.93968e-09)
(1.20909 -0.0199226 2.37502e-09)
(1.21227 0.0329792 1.47859e-09)
(1.18588 0.0719809 6.32577e-10)
(1.14038 0.089731 1.143e-10)
(1.09 0.0882214 -7.69462e-11)
(1.04534 0.0741382 -9.05884e-11)
(1.01084 0.0532979 -2.13546e-11)
(0.98769 0.0276079 1.55667e-10)
(0.978983 -0.00439046 4.79426e-10)
(0.99114 -0.0435919 8.77522e-10)
(1.02905 -0.0859419 1.20075e-09)
(1.09022 -0.122025 1.36694e-09)
(1.16459 -0.141407 1.4108e-09)
(1.2387 -0.137752 1.41184e-09)
(1.29991 -0.111215 1.42874e-09)
(1.33858 -0.0679272 1.50475e-09)
(1.34963 -0.0173709 1.67291e-09)
(1.33374 0.0313274 1.88114e-09)
(1.29696 0.0716837 1.94238e-09)
(1.24773 0.0994397 1.68024e-09)
(1.19396 0.111218 1.12834e-09)
(1.14246 0.105384 5.19096e-10)
(1.09942 0.0841422 7.92363e-11)
(1.06962 0.0534417 -1.18539e-10)
(1.05532 0.0202957 -1.26557e-10)
(1.05581 -0.0097698 -1.62599e-11)
(1.06832 -0.0333622 1.71932e-10)
(1.08942 -0.0485297 4.03658e-10)
(1.11594 -0.0538667 6.20192e-10)
(1.14432 -0.0483952 7.48294e-10)
(1.16956 -0.0325706 7.39295e-10)
(1.18567 -0.00945564 6.03452e-10)
(1.188 0.0155336 4.05467e-10)
(1.17588 0.0365908 2.18481e-10)
(1.1528 0.0498466 8.66902e-11)
(1.12447 0.0544638 1.64954e-11)
(1.09625 0.0520386 -9.2124e-12)
(1.07164 0.0451824 -1.20663e-11)
(1.05217 0.0363218 -7.47296e-12)
(1.03796 0.0271515 -2.87179e-12)
(1.02846 0.0186272 -3.10248e-13)
(1.02293 0.011196 5.67298e-13)
(1.0206 0.00503125 6.45893e-13)
(1.0208 0.000188401 5.80126e-13)
(1.02285 -0.00331681 6.72499e-13)
(1.02612 -0.00548739 9.77875e-13)
(1.02995 -0.00636196 1.42156e-12)
(1.03373 -0.00604818 1.8813e-12)
(1.03688 -0.00474889 2.23912e-12)
(1.03898 -0.00276101 2.41403e-12)
(1.03978 -0.000441077 2.37831e-12)
(1.03926 0.00185225 2.15952e-12)
(1.03756 0.00381794 1.82641e-12)
(1.03498 0.00525475 1.45643e-12)
(1.03186 0.00607458 1.11196e-12)
(1.02857 0.00629059 8.30781e-13)
(1.02541 0.00599037 6.27789e-13)
(1.0226 0.0053047 5.02016e-13)
(1.02029 0.00437942 4.443e-13)
(1.01853 0.0033537 4.42873e-13)
(1.01733 0.00234556 4.86258e-13)
(1.01662 0.00144414 5.64005e-13)
(1.01632 0.000707583 6.66253e-13)
(1.01632 0.000165097 7.83071e-13)
(1.01651 -0.000178306 9.04352e-13)
(1.01679 -0.000336069 1.02033e-12)
(1.01707 -0.000334483 1.12212e-12)
(1.01728 -0.000207709 1.20251e-12)
(1.01738 6.42904e-06 1.25682e-12)
(1.01734 0.000270007 1.28355e-12)
(1.01714 0.000548034 1.28461e-12)
(1.0168 0.000810894 1.26458e-12)
(1.01633 0.00103602 1.22966e-12)
(1.01577 0.00120874 1.18654e-12)
(1.01514 0.00132226 1.1415e-12)
(1.01447 0.00137685 1.09965e-12)
(1.0138 0.00137849 1.06468e-12)
(1.01316 0.00133717 1.03869e-12)
(1.01255 0.00126506 1.02239e-12)
(1.01198 0.00117485 1.01532e-12)
(1.01147 0.00107838 1.01621e-12)
(1.01102 0.000985644 1.02323e-12)
(1.0106 0.000904192 1.03438e-12)
(1.01022 0.000838914 1.04766e-12)
(1.00987 0.000792153 1.06136e-12)
(1.00953 0.000764018 1.0741e-12)
(1.00919 0.000752893 1.08502e-12)
(1.00886 0.0007559 1.09374e-12)
(1.00851 0.000769551 1.10032e-12)
(1.00816 0.000789993 1.10527e-12)
(1.00779 0.000813807 1.10938e-12)
(1.0074 0.000837553 1.11361e-12)
(1.00701 0.000859278 1.119e-12)
(1.0066 0.000876299 1.12651e-12)
(1.00619 0.000889153 1.13687e-12)
(1.00576 0.000894924 1.15052e-12)
(1.00536 0.000897813 1.16751e-12)
(1.00491 0.00089244 1.18746e-12)
(1.00454 0.00088757 1.20949e-12)
(1.00404 0.000874691 1.23266e-12)
(1.00379 0.000862852 1.25372e-12)
(1.0031 0.000844382 1.28234e-12)
(1.0001 -0.00253641 3.01241e-18)
(1.00158 -0.00774471 9.85029e-18)
(1.00504 -0.0135008 7.3342e-18)
(1.01057 -0.0200109 1.14582e-17)
(1.01874 -0.0273579 2.72801e-17)
(1.03006 -0.0353262 -8.08296e-17)
(1.0451 -0.0434206 3.16579e-16)
(1.06404 -0.0504575 -3.05602e-16)
(1.08646 -0.0551502 -1.16032e-15)
(1.11109 -0.0556187 1.93876e-15)
(1.13478 -0.050857 4.90311e-15)
(1.15507 -0.0423882 2.31271e-15)
(1.17107 -0.0309997 -3.60353e-15)
(1.18191 -0.0173074 -9.12038e-15)
(1.18678 -0.00172103 -1.17366e-14)
(1.18445 0.0152391 -1.21005e-14)
(1.17366 0.0316924 -1.14895e-14)
(1.15472 0.0444627 -1.08339e-14)
(1.13027 0.0505143 -1.01392e-14)
(1.10444 0.0482446 -7.35784e-15)
(1.08171 0.0376474 3.09785e-15)
(1.06622 0.020161 2.001e-14)
(1.06122 -0.00146778 3.73414e-14)
(1.06867 -0.0231749 3.74596e-13)
(1.08825 -0.0393724 1.71318e-12)
(1.11568 -0.0439601 3.16853e-12)
(1.14227 -0.0334976 2.78258e-12)
(1.15825 -0.0103995 1.21281e-12)
(1.15787 0.0178676 2.72418e-13)
(1.14166 0.0431576 -8.1632e-16)
(1.11444 0.0604196 -8.26681e-15)
(1.08192 0.0681656 -3.00957e-14)
(1.04877 0.0669245 -1.19915e-13)
(1.01833 0.0576729 5.70515e-13)
(0.993233 0.040959 1.18093e-12)
(0.976383 0.016771 -8.13557e-12)
(0.971809 -0.0147364 -2.05493e-11)
(0.984023 -0.0511316 7.26255e-11)
(1.01562 -0.0852788 4.28964e-10)
(1.06529 -0.10577 9.51819e-10)
(1.12512 -0.101975 1.23123e-09)
(1.17857 -0.071509 1.01157e-09)
(1.20743 -0.0236139 5.26099e-10)
(1.20413 0.0261317 1.50404e-10)
(1.17471 0.0646859 -3.54877e-12)
(1.13156 0.0868053 -2.27248e-11)
(1.0853 0.0940505 -6.42888e-12)
(1.04173 0.0904053 -3.15694e-13)
(1.00331 0.0788892 -1.82303e-11)
(0.970984 0.0606867 -2.21886e-11)
(0.944938 0.0357529 1.4287e-10)
(0.92657 0.00316684 6.64163e-10)
(0.922198 -0.0378666 1.47713e-09)
(0.941389 -0.0841042 2.21442e-09)
(0.987381 -0.124971 2.60763e-09)
(1.05174 -0.145841 2.75664e-09)
(1.11922 -0.135969 2.91482e-09)
(1.17519 -0.0941246 3.09553e-09)
(1.20897 -0.0299812 2.95773e-09)
(1.21367 0.0380395 2.24067e-09)
(1.18833 0.0899458 1.20978e-09)
(1.14136 0.114462 3.64645e-10)
(1.08723 0.113075 -5.953e-11)
(1.03818 0.0949629 -1.44453e-10)
(0.999711 0.0685383 -2.12342e-11)
(0.973847 0.0359831 2.70678e-10)
(0.965487 -0.00567826 6.7968e-10)
(0.982407 -0.0575519 1.05516e-09)
(1.02787 -0.112705 1.26062e-09)
(1.09576 -0.157649 1.30242e-09)
(1.17351 -0.179497 1.28655e-09)
(1.24758 -0.171763 1.29823e-09)
(1.30664 -0.135814 1.35203e-09)
(1.34241 -0.0795987 1.43835e-09)
(1.35016 -0.0149783 1.58572e-09)
(1.32997 0.0460524 1.8065e-09)
(1.2878 0.0948067 1.96163e-09)
(1.23336 0.126428 1.82153e-09)
(1.17621 0.138139 1.32222e-09)
(1.1238 0.129059 6.67672e-10)
(1.08172 0.102067 1.37337e-10)
(1.05378 0.0640729 -1.26526e-10)