/*--------------------------------*- C++ -*----------------------------------*\
  =========                 |
  \\      /  F ield         | OpenFOAM: The Open Source CFD Toolbox
   \\    /   O peration     | Website:  https://openfoam.org
    \\  /    A nd           | Version:  11
     \\/     M anipulation  |
\*---------------------------------------------------------------------------*/
FoamFile
{
    format      ascii;
    class       volVectorField;
    location    "16.817463";
    object      vorticity;
}
// * * * * * * * * * * * * * * * * * * * * * * * * * * * * * * * * * * * * * //

dimensions      [0 0 -1 0 0 0 0];

internalField   nonuniform List<vector> 
7132
(
(-8.863e-17 -1.93485e-15 -0.00817044)
(-2.96845e-16 -1.8466e-15 -0.0083705)
(-2.83894e-16 -4.27967e-17 -0.00877028)
(-3.55892e-16 -1.83874e-15 -0.00932483)
(-4.63702e-16 -1.79298e-15 -0.00994428)
(-4.36221e-16 3.17727e-17 -0.0105244)
(-3.75675e-16 5.55869e-17 -0.0109734)
(-2.9606e-16 5.28556e-17 -0.0112266)
(-2.97212e-16 4.33124e-17 -0.0112633)
(-2.70182e-16 3.01463e-17 -0.0111024)
(-2.18807e-16 1.74531e-17 -0.0107996)
(-1.91975e-16 7.36511e-18 -0.0104494)
(-2.00334e-16 2.85512e-18 -0.0101467)
(-1.89515e-16 1.55465e-17 -0.00998441)
(-1.39085e-16 -1.70789e-15 -0.0100024)
(-8.42157e-17 -1.71936e-15 -0.010192)
(-5.31538e-17 -3.46905e-15 -0.0104908)
(-4.14764e-17 5.31354e-18 -0.010797)
(-1.89933e-17 -1.73362e-15 -0.0109944)
(-9.2706e-17 -1.73723e-15 -0.0109751)
(-1.49298e-16 1.27493e-17 -0.0106678)
(8.79777e-17 2.58532e-17 -0.010091)
(-6.40508e-16 1.22741e-16 -0.00940674)
(-8.45532e-15 2.79272e-16 -0.00879879)
(-1.9185e-14 1.86564e-15 -0.00839954)
(-1.72686e-14 -1.9017e-16 -0.00831853)
(-6.98746e-15 -2.04869e-16 -0.00867615)
(-7.84695e-16 -2.15451e-16 -0.0094964)
(1.52242e-15 -4.71975e-16 -0.0105794)
(2.89085e-16 2.84875e-15 -0.0116266)
(-7.66466e-15 7.87176e-15 -0.0123884)
(6.71975e-15 -3.01512e-15 -0.0126997)
(6.59242e-14 -7.58795e-14 -0.0124734)
(-1.3129e-13 -1.0884e-13 -0.0117103)
(-9.39947e-13 6.27695e-13 -0.0105538)
(3.69248e-13 3.47561e-12 -0.00936557)
(1.35609e-11 7.6698e-12 -0.00854099)
(4.09637e-11 8.28959e-12 -0.00818918)
(5.83276e-11 2.23077e-12 -0.00814148)
(4.79457e-11 -5.50606e-12 -0.00830385)
(2.54363e-11 -8.12782e-12 -0.00888348)
(8.53788e-12 -5.79467e-12 -0.0100863)
(8.4874e-13 -2.68666e-12 -0.0116857)
(-7.40562e-13 -6.90019e-13 -0.0131823)
(-1.14188e-12 9.17012e-13 -0.0141438)
(-3.25383e-13 2.75905e-12 -0.0143426)
(8.65934e-12 1.90134e-12 -0.013778)
(1.82841e-11 -1.24204e-11 -0.0126426)
(-5.12531e-11 -6.04954e-11 -0.0112678)
(-3.91672e-10 -1.51163e-10 -0.0100936)
(-1.22764e-09 -2.39348e-10 -0.00938172)
(-2.44481e-09 -2.32626e-10 -0.00909324)
(-3.3767e-09 -8.78908e-11 -0.00917683)
(-3.39722e-09 1.10478e-10 -0.00961569)
(-2.58432e-09 2.23959e-10 -0.0104384)
(-1.47775e-09 2.1267e-10 -0.0118038)
(-5.68435e-10 1.44732e-10 -0.0134966)
(-8.3305e-11 7.20302e-11 -0.0148951)
(8.46566e-11 4.38045e-12 -0.0156185)
(1.43948e-10 -1.80051e-11 -0.0155611)
(1.11327e-10 1.22977e-10 -0.0146296)
(-4.67533e-10 5.91329e-10 -0.0124401)
(-2.62226e-09 1.45541e-09 -0.00826338)
(-7.56547e-09 2.53084e-09 -0.00147715)
(-1.56437e-08 3.34206e-09 0.0077169)
(-2.52324e-08 3.31561e-09 0.0177922)
(-3.29028e-08 2.17737e-09 0.0260565)
(-3.52932e-08 2.2593e-10 0.0296622)
(-3.13646e-08 -1.81568e-09 0.0269471)
(-2.30632e-08 -3.21819e-09 0.018386)
(-1.37642e-08 -3.58346e-09 0.00660562)
(-6.18023e-09 -2.9893e-09 -0.004784)
(-1.46964e-09 -1.85426e-09 -0.0128701)
(5.78439e-10 -5.55883e-10 -0.0164433)
(6.57261e-10 8.41743e-10 -0.0158404)
(-8.81008e-10 2.48263e-09 -0.01213)
(-4.20159e-09 4.36861e-09 -0.00646004)
(-9.48493e-09 6.14466e-09 0.000120068)
(-1.62419e-08 7.20293e-09 0.00682169)
(-2.3149e-08 6.98821e-09 0.0134991)
(-2.85265e-08 5.28361e-09 0.0203825)
(-3.09649e-08 2.32254e-09 0.0270285)
(-2.97664e-08 -1.29252e-09 0.0315694)
(-2.52298e-08 -4.77789e-09 0.0314565)
(-1.86137e-08 -7.3336e-09 0.0254118)
(-1.16024e-08 -8.2641e-09 0.0146634)
(-5.68523e-09 -7.2469e-09 0.00244148)
(-1.7252e-09 -4.61617e-09 -0.00758949)
(7.82403e-11 -1.25327e-09 -0.0131352)
(-5.09563e-11 1.88424e-09 -0.0142182)
(-1.69711e-09 4.18605e-09 -0.0127052)
(-4.32275e-09 5.46826e-09 -0.0108669)
(-7.26344e-09 5.80211e-09 -0.00980192)
(-9.84145e-09 5.34e-09 -0.00873197)
(-1.15675e-08 4.2375e-09 -0.00591658)
(-1.22344e-08 2.63001e-09 -0.000367646)
(-1.18499e-08 6.25744e-10 0.00700415)
(-1.05485e-08 -1.66685e-09 0.0136558)
(-8.57214e-09 -4.02676e-09 0.0169356)
(-6.25436e-09 -5.96571e-09 0.0155319)
(-3.96875e-09 -6.81073e-09 0.00990524)
(-2.05073e-09 -6.13425e-09 0.00199237)
(-7.25896e-10 -4.15717e-09 -0.00589916)
(-7.09216e-11 -1.68403e-09 -0.012362)
(-1.40376e-11 4.10213e-10 -0.0173614)
(-3.70561e-10 1.65646e-09 -0.0216038)
(-9.04675e-10 2.06899e-09 -0.0252856)
(-1.40634e-09 1.91846e-09 -0.0274244)
(-1.74872e-09 1.48765e-09 -0.0265542)
(-1.8944e-09 9.57486e-10 -0.0219673)
(-1.86182e-09 4.00714e-10 -0.0144256)
(-1.69053e-09 -1.80233e-10 -0.0058951)
(-1.42497e-09 -7.95367e-10 0.00144597)
(-1.10919e-09 -1.3993e-09 0.00598222)
(-7.83511e-10 -1.86776e-09 0.00686966)
(-4.80485e-10 -2.06118e-09 0.00411136)
(-2.17773e-10 -1.93135e-09 -0.00167329)
(7.99929e-12 -1.57074e-09 -0.00966217)
(2.18174e-10 -1.15135e-09 -0.0190664)
(4.35944e-10 -8.13564e-10 -0.0290027)
(6.65269e-10 -6.04659e-10 -0.0380856)
(8.8147e-10 -4.96458e-10 -0.0443951)
(1.04107e-09 -4.37134e-10 -0.0462541)
(1.10483e-09 -3.86951e-10 -0.0431248)
(1.05883e-09 -3.22341e-10 -0.0359005)
(9.20977e-10 -2.21158e-10 -0.0264347)
(7.30347e-10 -5.39201e-11 -0.0166508)
(5.29429e-10 1.97947e-10 -0.0080767)
(3.51262e-10 5.03029e-10 -0.00193374)
(2.14905e-10 7.62079e-10 0.000792782)
(1.28642e-10 8.51379e-10 -0.000629094)
(9.51497e-11 7.06659e-10 -0.00651971)
(1.13494e-10 3.7219e-10 -0.0165243)
(1.77483e-10 -3.07863e-11 -0.0293887)
(2.73283e-10 -3.81031e-10 -0.0428562)
(3.80124e-10 -6.12011e-10 -0.0540615)
(4.75128e-10 -7.16572e-10 -0.0605369)
(5.3942e-10 -7.21154e-10 -0.0611608)
(5.62551e-10 -6.57577e-10 -0.0564438)
(5.44094e-10 -5.43898e-10 -0.0480615)
(4.91965e-10 -3.76201e-10 -0.0379215)
(4.18054e-10 -1.36913e-10 -0.0274906)
(3.34173e-10 1.77927e-10 -0.0178653)
(2.50069e-10 5.27479e-10 -0.010019)
(1.74111e-10 8.22401e-10 -0.00502671)
(1.14388e-10 9.66014e-10 -0.00405228)
(7.76852e-11 9.13089e-10 -0.00800949)
(6.69162e-11 6.96235e-10 -0.0170494)
(7.93513e-11 4.00038e-10 -0.0300572)
(1.06869e-10 1.10905e-10 -0.0445742)
(1.38711e-10 -1.17683e-10 -0.0574895)
(1.65043e-10 -2.70164e-10 -0.0661382)
(1.79594e-10 -3.55283e-10 -0.0691687)
(1.80628e-10 -3.9043e-10 -0.066718)
(1.70261e-10 -3.90861e-10 -0.0600523)
(1.52907e-10 -3.68212e-10 -0.050853)
(1.33251e-10 -3.18358e-10 -0.0407948)
(1.14614e-10 -2.62154e-10 -0.0300751)
(9.99965e-11 -1.32859e-10 -0.02309)
(8.07483e-11 -1.28101e-11 -0.00849475)
(-8.95964e-17 -8.44946e-18 -0.0244243)
(-3.10459e-16 -1.40312e-17 -0.0250246)
(-3.12895e-16 -1.41203e-17 -0.0262339)
(-3.95802e-16 -1.58091e-17 -0.0279299)
(-5.22556e-16 -1.63988e-17 -0.0298525)
(-5.12327e-16 -1.05471e-17 -0.0316897)
(-4.64224e-16 -1.44938e-17 -0.0331545)
(-4.33434e-16 1.36244e-17 -0.0340297)
(-3.48873e-16 1.7651e-15 -0.0342209)
(-2.24089e-16 -9.056e-18 -0.0337483)
(-2.80509e-16 -2.16502e-17 -0.0327376)
(-4.50404e-16 1.73285e-15 -0.0314371)
(-5.29554e-16 1.62466e-18 -0.0301003)
(-4.39985e-16 -1.42314e-17 -0.0289755)
(-2.88484e-16 -2.24275e-17 -0.028243)
(-1.47605e-16 -2.50643e-17 -0.0280102)
(-3.86367e-17 -2.43578e-17 -0.028284)
(1.29742e-17 -1.17667e-17 -0.0289765)
(-1.00093e-16 2.67195e-17 -0.0299315)
(-4.64951e-16 5.9253e-17 -0.0309521)
(-1.1993e-16 -7.75925e-17 -0.031843)
(-5.94171e-16 2.71458e-16 -0.0324831)
(-1.05554e-14 4.39439e-15 -0.0328867)
(-1.49626e-15 9.55489e-15 -0.0330121)
(2.83098e-14 4.53754e-15 -0.0326916)
(1.406e-14 -6.29231e-15 -0.0318309)
(-5.63576e-15 -8.4468e-15 -0.0306446)
(-2.66122e-15 -4.47039e-15 -0.0295276)
(3.85726e-15 -1.01225e-15 -0.028746)
(-2.64695e-14 5.70079e-15 -0.0283836)
(-3.16044e-14 4.65642e-15 -0.0283828)
(4.16465e-13 -4.32722e-14 -0.0286032)
(4.78474e-13 -8.6091e-15 -0.0289207)
(-6.40851e-12 3.92361e-13 -0.0293569)
(-1.76712e-11 3.73959e-13 -0.0301792)
(5.98074e-11 -3.77483e-12 -0.0319306)
(4.52441e-10 -1.26292e-11 -0.0350101)
(1.17373e-09 -1.40955e-11 -0.038674)
(1.68859e-09 -1.26193e-12 -0.0408394)
(1.50144e-09 1.09361e-11 -0.0400263)
(8.52643e-10 1.15761e-11 -0.0370701)
(2.96662e-10 6.49737e-12 -0.0339336)
(3.47063e-11 1.95083e-12 -0.031735)
(-3.14074e-11 3.03547e-13 -0.0305591)
(-2.93123e-11 7.04215e-13 -0.0300058)
(8.98956e-13 -2.14155e-12 -0.0296828)
(1.03159e-10 -7.40514e-12 -0.0295826)
(1.63263e-10 1.75341e-11 -0.0300185)
(-6.96731e-10 1.44481e-10 -0.0307658)
(-4.55029e-09 4.37028e-10 -0.0300629)
(-1.34153e-08 7.87218e-10 -0.0253933)
(-2.57015e-08 8.41902e-10 -0.017226)
(-3.49425e-08 3.88313e-10 -0.0107597)
(-3.50073e-08 -2.8571e-10 -0.0110996)
(-2.63089e-08 -7.35779e-10 -0.0177757)
(-1.47332e-08 -7.95274e-10 -0.0261075)
(-5.6663e-09 -5.52487e-10 -0.0319901)
(-8.83462e-10 -2.54517e-10 -0.0341029)
(7.08954e-10 -1.09246e-10 -0.033596)
(9.27329e-10 -3.13422e-11 -0.0321913)
(4.6558e-10 4.28716e-10 -0.0304072)
(-2.14569e-09 1.95812e-09 -0.0267642)
(-1.03421e-08 5.00437e-09 -0.0182657)
(-2.73933e-08 9.04159e-09 -0.00224883)
(-5.28991e-08 1.21755e-08 0.0211977)
(-8.10943e-08 1.19451e-08 0.0486421)
(-1.03011e-07 7.20777e-09 0.0742409)
(-1.10582e-07 -5.43145e-10 0.0904588)
(-1.00499e-07 -7.93068e-09 0.0901553)
(-7.64917e-08 -1.20184e-08 0.0712746)
(-4.75239e-08 -1.20249e-08 0.0396824)
(-2.24309e-08 -9.13657e-09 0.00617848)
(-6.01477e-09 -5.2336e-09 -0.0193648)
(1.49954e-09 -1.61933e-09 -0.0323233)
(2.06513e-09 1.57147e-09 -0.0336279)
(-2.82962e-09 4.91205e-09 -0.0274383)
(-1.27532e-08 8.67057e-09 -0.0186072)
(-2.69307e-08 1.21648e-08 -0.0107099)
(-4.2948e-08 1.40349e-08 -0.00419127)
(-5.74528e-08 1.31305e-08 0.00455348)
(-6.78556e-08 9.19161e-09 0.020303)
(-7.2793e-08 2.94249e-09 0.0435391)
(-7.13593e-08 -4.16008e-09 0.0675612)
(-6.30623e-08 -1.03542e-08 0.0815215)
(-4.89777e-08 -1.41473e-08 0.0775265)
(-3.22312e-08 -1.47283e-08 0.0559831)
(-1.67742e-08 -1.21855e-08 0.0250945)
(-5.69565e-09 -7.49791e-09 -0.00405526)
(-3.42266e-10 -2.09039e-09 -0.0239094)
(-4.64787e-10 2.77191e-09 -0.0341405)
(-4.7472e-09 6.32195e-09 -0.0400432)
(-1.12356e-08 8.25143e-09 -0.0469774)
(-1.77977e-08 8.56146e-09 -0.0551225)
(-2.28103e-08 7.49204e-09 -0.058885)
(-2.56646e-08 5.434e-09 -0.0516029)
(-2.65924e-08 2.77118e-09 -0.0310477)
(-2.59932e-08 -2.17205e-10 -0.00153331)
(-2.39605e-08 -3.3057e-09 0.0279113)
(-2.04463e-08 -6.17385e-09 0.0478383)
(-1.57172e-08 -8.2674e-09 0.0525737)
(-1.04816e-08 -8.91254e-09 0.0420289)
(-5.69622e-09 -7.75567e-09 0.0210629)
(-2.19434e-09 -5.14708e-09 -0.00388442)
(-3.7179e-10 -2.03995e-09 -0.0286489)
(-8.5811e-11 5.60035e-10 -0.0523778)
(-7.89214e-10 2.10178e-09 -0.0749834)
(-1.81976e-09 2.58688e-09 -0.0938245)
(-2.69262e-09 2.34048e-09 -0.103554)
(-3.22801e-09 1.73168e-09 -0.0995614)
(-3.47079e-09 1.01404e-09 -0.0813096)
(-3.51562e-09 2.98777e-10 -0.0528742)
(-3.39279e-09 -3.98658e-10 -0.0211457)
(-3.08226e-09 -1.08604e-09 0.00678411)
(-2.58316e-09 -1.72003e-09 0.0254472)
(-1.94279e-09 -2.18211e-09 0.0317021)
(-1.24743e-09 -2.34405e-09 0.0249447)
(-5.76844e-10 -2.17559e-09 0.00646802)
(4.23048e-11 -1.78871e-09 -0.0215142)
(6.41684e-10 -1.36532e-09 -0.0560224)
(1.26535e-09 -1.03711e-09 -0.0924424)
(1.91004e-09 -8.2742e-10 -0.123985)
(2.50422e-09 -6.84357e-10 -0.143314)
(2.93804e-09 -5.48815e-10 -0.145811)
(3.11649e-09 -3.95828e-10 -0.131662)
(3.00303e-09 -2.30411e-10 -0.105254)
(2.63557e-09 -5.69164e-11 -0.0728912)
(2.10851e-09 1.41856e-10 -0.0404888)
(1.53502e-09 3.8749e-10 -0.0127181)
(1.01216e-09 6.60293e-10 0.0066861)
(6.04291e-10 8.73391e-10 0.0145784)
(3.45795e-10 9.11259e-10 0.00845733)
(2.49137e-10 7.14235e-10 -0.0127935)
(3.06862e-10 3.31023e-10 -0.0475717)
(4.89099e-10 -1.10679e-10 -0.0904524)
(7.45345e-10 -4.82348e-10 -0.132539)
(1.01544e-09 -7.12931e-10 -0.164151)
(1.24525e-09 -7.96218e-10 -0.178652)
(1.39777e-09 -7.64865e-10 -0.17473)
(1.45587e-09 -6.59911e-10 -0.155826)
(1.41945e-09 -5.08603e-10 -0.127715)
(1.30135e-09 -3.13179e-10 -0.0959572)
(1.12279e-09 -5.80152e-11 -0.0646497)
(9.07309e-10 2.6192e-10 -0.0367698)
(6.78875e-10 6.07511e-10 -0.0150679)
(4.64242e-10 8.90244e-10 -0.00282829)
(2.93094e-10 1.01423e-09 -0.0037142)
(1.90506e-10 9.36827e-10 -0.0203283)
(1.66064e-10 6.95402e-10 -0.0520734)
(2.0881e-10 3.80063e-10 -0.0936849)
(2.91714e-10 8.12269e-11 -0.13602)
(3.82524e-10 -1.46768e-10 -0.169329)
(4.54292e-10 -2.90603e-10 -0.187001)
(4.91535e-10 -3.63076e-10 -0.187467)
(4.91485e-10 -3.85762e-10 -0.173438)
(4.61314e-10 -3.76999e-10 -0.149826)
(4.13456e-10 -3.49705e-10 -0.121508)
(3.60296e-10 -2.9921e-10 -0.0926626)
(3.10112e-10 -2.45527e-10 -0.0632854)
(2.70854e-10 -1.15925e-10 -0.0456015)
(2.14989e-10 -3.18254e-12 -0.00813796)
(-2.78939e-18 -1.00474e-19 -0.0404251)
(-3.28247e-17 -2.25685e-19 -0.0414296)
(-6.00756e-17 -1.25058e-19 -0.0434674)
(-9.4422e-17 8.11672e-19 -0.0463435)
(-1.311e-16 4.8361e-21 -0.049629)
(-1.60852e-16 2.60669e-18 -0.0528002)
(-3.04301e-16 1.61406e-17 -0.0553647)
(-1.82118e-16 -4.8201e-18 -0.0569349)
(3.99866e-16 -6.13603e-17 -0.0573234)
(-3.21927e-16 -4.03557e-18 -0.056525)
(-2.66327e-15 1.37387e-16 -0.0547088)
(-3.7321e-15 1.31888e-16 -0.0522661)
(-2.01844e-15 -9.13025e-18 -0.0495825)
(1.62249e-16 -1.04989e-16 -0.0470863)
(1.15195e-15 -1.19357e-16 -0.045119)
(1.32147e-15 -1.09564e-16 -0.0439679)
(1.14906e-15 -7.98895e-17 -0.0438292)
(5.32825e-16 3.60418e-17 -0.0447789)
(-1.30644e-15 2.40067e-16 -0.0467684)
(-1.41899e-15 7.40732e-18 -0.0496018)
(3.01215e-15 7.7359e-17 -0.0529551)
(-5.66973e-14 5.24361e-15 -0.056416)
(3.66701e-15 5.73786e-16 -0.0594999)
(1.48597e-12 -1.91534e-14 -0.0615413)
(3.76251e-12 -7.64719e-15 -0.0617716)
(3.57714e-12 1.67826e-14 -0.0596747)
(1.51977e-12 8.15572e-15 -0.0554793)
(2.49944e-13 -4.96196e-15 -0.0500971)
(-8.64783e-14 1.14321e-14 -0.0446538)
(-2.85203e-13 1.88313e-14 -0.0401886)
(2.05856e-13 -2.1533e-13 -0.037459)
(3.07284e-12 -2.59762e-13 -0.0368647)
(-1.76864e-12 3.33661e-12 -0.0385249)
(-4.41857e-11 8.96426e-12 -0.0424499)
(-5.38423e-11 -3.2482e-11 -0.048766)
(4.4363e-10 -2.31582e-10 -0.058026)
(2.14308e-09 -5.49292e-10 -0.0705301)
(4.81002e-09 -6.09786e-10 -0.0837434)
(6.83162e-09 -1.61626e-10 -0.0916636)
(6.5594e-09 4.12467e-10 -0.0893141)
(4.22981e-09 5.94257e-10 -0.077892)
(1.76107e-09 4.03172e-10 -0.063348)
(3.4926e-10 1.61348e-10 -0.0504415)
(-1.36145e-10 3.13175e-11 -0.0409954)
(-1.71577e-10 -1.52396e-11 -0.0353243)
(2.49154e-11 -6.34782e-11 -0.0334184)
(5.02712e-10 -7.92824e-11 -0.0355155)
(3.79229e-10 3.87524e-10 -0.0408298)
(-4.44557e-09 2.29628e-09 -0.044162)
(-2.15466e-08 6.2081e-09 -0.03475)
(-5.55665e-08 1.03363e-08 -0.00446707)
(-9.86916e-08 1.0531e-08 0.0397692)
(-1.30915e-07 4.56501e-09 0.0758634)
(-1.33705e-07 -4.20631e-09 0.082161)
(-1.05502e-07 -9.91312e-09 0.0554415)
(-6.32452e-08 -1.01086e-08 0.0135705)
(-2.69489e-08 -6.78012e-09 -0.0211889)
(-5.76179e-09 -3.11559e-09 -0.0383987)
(2.26874e-09 -9.01015e-10 -0.0411016)
(3.3804e-09 1.03682e-10 -0.0379522)
(1.21326e-09 1.65949e-09 -0.0344242)
(-6.0921e-09 5.99519e-09 -0.0296801)
(-2.3614e-08 1.40792e-08 -0.0196208)
(-5.34292e-08 2.38093e-08 -0.00193829)
(-9.00538e-08 3.01925e-08 0.0227106)
(-1.23893e-07 2.83717e-08 0.055048)
(-1.48079e-07 1.69214e-08 0.0963595)
(-1.58967e-07 -1.02999e-09 0.139251)
(-1.52531e-07 -1.8861e-08 0.164849)
(-1.26551e-07 -2.97059e-08 0.15585)
(-8.68105e-08 -3.06139e-08 0.11264)
(-4.59565e-08 -2.37439e-08 0.0538487)
(-1.53128e-08 -1.38195e-08 0.00230138)
(6.22502e-10 -4.59583e-09 -0.0284914)
(3.04363e-09 3.00633e-09 -0.038627)
(-5.0466e-09 9.89181e-09 -0.0381466)
(-2.03664e-08 1.64192e-08 -0.0398501)
(-3.84025e-08 2.1242e-08 -0.0508394)
(-5.37215e-08 2.2464e-08 -0.0657262)
(-6.29812e-08 1.9442e-08 -0.068294)
(-6.7062e-08 1.29537e-08 -0.0441516)
(-6.91859e-08 4.07439e-09 0.00659656)
(-7.0656e-08 -6.15791e-09 0.0677707)
(-6.88566e-08 -1.59687e-08 0.11577)
(-6.01696e-08 -2.27491e-08 0.13211)
(-4.45384e-08 -2.43659e-08 0.113057)
(-2.61526e-08 -2.05147e-08 0.0700852)
(-1.07216e-08 -1.28321e-08 0.0217204)
(-2.26979e-09 -3.8687e-09 -0.0186286)
(-1.6326e-09 4.08671e-09 -0.0500415)
(-6.72354e-09 9.57145e-09 -0.0802674)
(-1.38566e-08 1.19935e-08 -0.113759)
(-1.95928e-08 1.15895e-08 -0.142994)
(-2.23136e-08 9.27344e-09 -0.152669)
(-2.2545e-08 6.12856e-09 -0.132439)
(-2.19457e-08 2.79434e-09 -0.0847849)
(-2.17783e-08 -6.90205e-10 -0.0226224)
(-2.19115e-08 -4.44031e-09 0.0374202)
(-2.11173e-08 -8.14845e-09 0.0805529)
(-1.83417e-08 -1.0948e-08 0.0975869)
(-1.36445e-08 -1.18212e-08 0.087184)
(-8.24015e-09 -1.02779e-08 0.0553319)
(-3.70668e-09 -6.81939e-09 0.0107041)
(-1.04147e-09 -2.73829e-09 -0.0406051)
(-2.23377e-10 6.18927e-10 -0.0952714)
(-4.73022e-10 2.52343e-09 -0.147633)
(-9.08659e-10 3.0207e-09 -0.186331)
(-1.07096e-09 2.62258e-09 -0.198947)
(-1.00562e-09 1.87673e-09 -0.180498)
(-1.00659e-09 1.10129e-09 -0.136662)
(-1.28898e-09 3.61714e-10 -0.0795726)
(-1.80084e-09 -3.96908e-10 -0.021828)
(-2.27895e-09 -1.20018e-09 0.026642)
(-2.4526e-09 -1.96904e-09 0.0587211)
(-2.20276e-09 -2.53562e-09 0.069841)
(-1.59862e-09 -2.74415e-09 0.0580555)
(-8.00625e-10 -2.57622e-09 0.023827)
(6.99663e-11 -2.18e-09 -0.0300148)
(9.78686e-10 -1.76287e-09 -0.0968735)
(1.92054e-09 -1.44774e-09 -0.164561)
(2.84492e-09 -1.22409e-09 -0.216787)
(3.64789e-09 -1.01046e-09 -0.239815)
(4.21687e-09 -7.4327e-10 -0.229499)
(4.46744e-09 -4.1945e-10 -0.192354)
(4.35859e-09 -8.18786e-11 -0.140405)
(3.90725e-09 2.26102e-10 -0.0850163)
(3.19872e-09 4.96354e-10 -0.034018)
(2.37057e-09 7.46125e-10 0.00738563)
(1.57086e-09 9.68394e-10 0.0346474)
(9.22193e-10 1.09526e-09 0.0427209)
(5.05048e-10 1.02896e-09 0.0266769)
(3.51348e-10 7.26125e-10 -0.0156844)
(4.40213e-10 2.52209e-10 -0.0801253)
(7.02754e-10 -2.50028e-10 -0.153856)
(1.04373e-09 -6.442e-10 -0.218242)
(1.37315e-09 -8.61962e-10 -0.256595)
(1.63058e-09 -9.07734e-10 -0.261866)
(1.7907e-09 -8.26467e-10 -0.238378)
(1.85243e-09 -6.68417e-10 -0.197116)
(1.82279e-09 -4.66636e-10 -0.149169)
(1.70794e-09 -2.27872e-10 -0.101842)
(1.51447e-09 6.01089e-11 -0.0588326)
(1.25345e-09 3.99884e-10 -0.0223911)
(9.48467e-10 7.49013e-10 0.00424014)
(6.42381e-10 1.01529e-09 0.0155574)
(3.91805e-10 1.10288e-09 0.00495773)
(2.4545e-10 9.76604e-10 -0.0313816)
(2.20609e-10 6.87083e-10 -0.0897867)
(2.96268e-10 3.37213e-10 -0.157262)
(4.26113e-10 2.40501e-11 -0.215499)
(5.59683e-10 -1.98972e-10 -0.249079)
(6.58567e-10 -3.24669e-10 -0.252111)
(7.03424e-10 -3.7388e-10 -0.229041)
(6.93635e-10 -3.75319e-10 -0.190111)
(6.42205e-10 -3.51845e-10 -0.145794)
(5.6856e-10 -3.17703e-10 -0.102965)
(4.90794e-10 -2.66686e-10 -0.0654679)
(4.19713e-10 -2.17433e-10 -0.030084)
(3.65283e-10 -8.52981e-11 -0.0145067)
(2.83429e-10 1.5126e-11 0.0281806)
(-9.07301e-17 9.35757e-18 -0.0559896)
(-2.7736e-16 1.46119e-17 -0.0574042)
(-2.46234e-16 1.66784e-17 -0.0602876)
(-3.17784e-16 1.97033e-17 -0.0643635)
(-2.74245e-16 1.6816e-17 -0.0690231)
(-5.07034e-16 7.60534e-17 -0.0735237)
(-8.65972e-16 -3.86086e-18 -0.0771673)
(2.14216e-15 -3.38459e-16 -0.0794008)
(6.35258e-16 1.835e-15 -0.0799593)
(-1.28996e-14 1.52251e-15 -0.0788254)
(-1.83197e-14 -5.12868e-17 -0.076225)
(-8.11115e-15 1.41043e-15 -0.0727378)
(4.67027e-15 -1.94555e-15 -0.0689042)
(1.05442e-14 -1.59942e-15 -0.065257)
(8.47339e-15 -6.0204e-16 -0.0622816)
(3.97603e-15 -2.3623e-17 -0.0604398)
(-4.23454e-16 3.69967e-16 -0.0600702)
(-6.90369e-15 1.21599e-15 -0.0613395)
(-1.49179e-14 1.00263e-15 -0.0642399)
(2.43017e-15 -2.10004e-15 -0.0685244)
(-5.39417e-14 2.75616e-14 -0.0736888)
(-2.64452e-13 -5.59729e-17 -0.0790307)
(1.26104e-12 -7.66937e-13 -0.083795)
(4.50456e-12 -1.86987e-12 -0.0870294)
(7.40145e-12 -1.04105e-12 -0.0875972)
(9.94539e-12 1.11508e-12 -0.0846851)
(7.0541e-12 1.65515e-12 -0.0784899)
(2.18395e-12 7.98655e-13 -0.070193)
(-4.30384e-13 2.66561e-13 -0.06138)
(-1.1111e-12 -1.40467e-13 -0.0537148)
(2.7053e-12 -1.67436e-12 -0.0486747)
(6.15323e-12 9.43976e-13 -0.0472707)
(-3.02047e-11 2.36207e-11 -0.0499125)
(-7.39265e-11 2.64292e-11 -0.0567098)
(2.01775e-10 -2.43534e-10 -0.0679893)
(7.36957e-10 -1.10224e-09 -0.0833292)
(-6.41093e-10 -2.19583e-09 -0.0985732)
(-5.30188e-09 -2.35837e-09 -0.108584)
(-8.54348e-09 -8.75952e-10 -0.114157)
(-5.92034e-09 1.31184e-09 -0.116033)
(-1.02459e-09 2.41074e-09 -0.109224)
(1.3585e-09 1.94677e-09 -0.0927863)
(1.1589e-09 9.5056e-10 -0.0725381)
(2.17729e-10 2.60722e-10 -0.0547095)
(-2.35275e-10 -7.98261e-11 -0.0431503)
(2.34137e-10 -3.39286e-10 -0.0395951)
(1.33176e-09 -1.84562e-10 -0.0440447)
(-7.9655e-10 2.49167e-09 -0.0510226)
(-1.68631e-08 1.11074e-08 -0.0449859)
(-5.9223e-08 2.59975e-08 -0.00663936)
(-1.2673e-07 3.93597e-08 0.068049)
(-1.99609e-07 3.8516e-08 0.16123)
(-2.52437e-07 1.78948e-08 0.243381)
(-2.64844e-07 -1.29918e-08 0.280138)
(-2.27668e-07 -3.59655e-08 0.247007)
(-1.54309e-07 -4.0072e-08 0.156151)
(-7.72544e-08 -2.92942e-08 0.0540459)
(-2.3159e-08 -1.48633e-08 -0.0172826)
(2.17601e-09 -4.68034e-09 -0.0471168)
(7.77797e-09 4.96401e-10 -0.0496604)
(2.49339e-09 5.16497e-09 -0.0420254)
(-1.27959e-08 1.43717e-08 -0.0328015)
(-4.00401e-08 2.86729e-08 -0.0265219)
(-7.38878e-08 4.22615e-08 -0.0277434)
(-1.01466e-07 4.74075e-08 -0.0312886)
(-1.14947e-07 4.09576e-08 -0.0143352)
(-1.19779e-07 2.47448e-08 0.0444314)
(-1.26478e-07 1.68298e-09 0.136449)
(-1.35278e-07 -2.41385e-08 0.221295)
(-1.33082e-07 -4.48786e-08 0.253845)
(-1.09109e-07 -5.23224e-08 0.217342)
(-6.91298e-08 -4.48854e-08 0.134416)
(-2.96528e-08 -2.85231e-08 0.0465487)
(-4.44959e-09 -1.07976e-08 -0.0148541)
(1.9413e-09 4.40602e-09 -0.0445903)
(-7.3395e-09 1.66171e-08 -0.0610619)
(-2.45667e-08 2.53485e-08 -0.0889939)
(-4.01272e-08 2.88424e-08 -0.135955)
(-4.67705e-08 2.63243e-08 -0.179624)
(-4.36459e-08 1.98007e-08 -0.183174)
(-3.6177e-08 1.2294e-08 -0.127626)
(-3.19471e-08 4.73949e-09 -0.027292)
(-3.53092e-08 -4.32473e-09 0.0826707)
(-4.35723e-08 -1.55974e-08 0.166695)
(-4.8638e-08 -2.63064e-08 0.20163)
(-4.41707e-08 -3.17369e-08 0.183124)
(-3.09736e-08 -2.90939e-08 0.126007)
(-1.57741e-08 -1.94393e-08 0.0547019)
(-5.69527e-09 -6.63488e-09 -0.0133046)
(-3.6263e-09 4.99879e-09 -0.0773097)
(-7.35705e-09 1.24339e-08 -0.144906)
(-1.21129e-08 1.46861e-08 -0.212182)
(-1.41508e-08 1.279e-08 -0.255799)
(-1.2715e-08 8.96814e-09 -0.249787)
(-9.50117e-09 5.25006e-09 -0.188985)
(-7.00583e-09 2.38781e-09 -0.0934007)
(-7.04062e-09 -2.34308e-10 0.0073332)
(-9.67186e-09 -3.6362e-09 0.0900066)
(-1.30439e-08 -7.95872e-09 0.141946)
(-1.46272e-08 -1.20038e-08 0.157932)
(-1.31055e-08 -1.39633e-08 0.138847)
(-9.23018e-09 -1.27246e-08 0.0907796)
(-4.97748e-09 -8.74642e-09 0.0214549)
(-1.93821e-09 -3.78161e-09 -0.0629997)
(-3.91988e-10 2.75809e-10 -0.154621)
(3.60984e-10 2.44442e-09 -0.236244)
(1.06626e-09 2.88585e-09 -0.282747)
(1.95095e-09 2.38896e-09 -0.275837)
(2.78006e-09 1.6995e-09 -0.218085)
(3.15683e-09 1.15572e-09 -0.131213)
(2.78989e-09 6.95907e-10 -0.041412)
(1.69597e-09 9.63268e-11 0.0335847)
(2.55501e-10 -7.60161e-10 0.0865678)
(-9.75411e-10 -1.75813e-09 0.115363)
(-1.58469e-09 -2.60909e-09 0.118189)
(-1.48693e-09 -3.04512e-09 0.0923962)
(-8.52106e-10 -3.00988e-09 0.0360406)
(9.33647e-11 -2.67837e-09 -0.0484027)
(1.1823e-09 -2.29061e-09 -0.148882)
(2.2837e-09 -1.97022e-09 -0.241611)
(3.265e-09 -1.6911e-09 -0.298299)
(4.02472e-09 -1.37033e-09 -0.301367)
(4.5289e-09 -9.5859e-10 -0.254346)
(4.78054e-09 -4.66692e-10 -0.178067)
(4.76113e-09 4.96855e-11 -0.0968878)
(4.42801e-09 5.23022e-10 -0.0268731)
(3.77942e-09 9.10196e-10 0.0265373)
(2.90526e-09 1.20142e-09 0.0632123)
(1.97083e-09 1.38448e-09 0.0820383)
(1.16143e-09 1.40629e-09 0.0777011)
(6.23806e-10 1.19668e-09 0.04261)
(4.22997e-10 7.46652e-10 -0.0265249)
(5.26295e-10 1.5532e-10 -0.120905)
(8.25145e-10 -4.12436e-10 -0.217096)
(1.18638e-09 -8.17545e-10 -0.285114)
(1.5035e-09 -1.00636e-09 -0.304107)
(1.72198e-09 -1.00499e-09 -0.273489)
(1.83556e-09 -8.7579e-10 -0.210852)
(1.86549e-09 -6.75959e-10 -0.139706)
(1.83456e-09 -4.36357e-10 -0.0771605)
(1.74835e-09 -1.59017e-10 -0.0292198)
(1.59381e-09 1.69228e-10 0.00586312)
(1.35574e-09 5.44919e-10 0.0313113)
(1.04262e-09 9.13046e-10 0.0461522)
(7.04101e-10 1.16858e-09 0.0432684)
(4.20037e-10 1.21269e-09 0.0129323)
(2.61173e-10 1.02242e-09 -0.0488636)
(2.51517e-10 6.69993e-10 -0.132227)
(3.60999e-10 2.77311e-10 -0.212838)
(5.2764e-10 -5.04806e-11 -0.2626)
(6.88025e-10 -2.62994e-10 -0.264696)
(7.97612e-10 -3.62474e-10 -0.221536)
(8.37162e-10 -3.8061e-10 -0.150859)
(8.09836e-10 -3.55153e-10 -0.0747523)
(7.33997e-10 -3.14462e-10 -0.00991042)
(6.34789e-10 -2.74e-10 0.0369804)
(5.34932e-10 -2.24784e-10 0.0658833)
(4.47054e-10 -1.82771e-10 0.0874016)
(3.81162e-10 -4.77829e-11 0.0811392)
(2.81729e-10 3.77448e-11 0.104499)
(8.18805e-17 1.91867e-15 -0.0708951)
(3.33118e-16 1.81225e-15 -0.0727281)
(2.70611e-16 2.0087e-17 -0.0764853)
(4.37134e-16 1.74954e-15 -0.0818044)
(8.04085e-16 1.82935e-15 -0.0878864)
(-1.23725e-15 2.03319e-15 -0.0937606)
(4.23432e-15 -1.30846e-15 -0.0985145)
(8.72986e-15 -7.2833e-16 -0.101423)
(-4.51171e-14 7.4595e-15 -0.102148)
(-5.20804e-14 5.94981e-15 -0.100649)
(1.21362e-13 -2.22972e-15 -0.0971986)
(3.11502e-13 -1.1336e-14 -0.0925989)
(2.7832e-13 -9.36391e-15 -0.0874935)
(1.06275e-13 -2.00655e-15 -0.0826767)
(-1.69924e-14 3.16473e-15 -0.0787495)
(-6.97653e-14 6.07358e-15 -0.0762941)
(-8.61681e-14 7.09469e-15 -0.0757546)
(-1.02476e-13 7.28328e-15 -0.0773465)
(-5.66742e-14 -2.69214e-15 -0.0810779)
(-7.83357e-14 2.1254e-14 -0.0866473)
(-7.61526e-13 1.33518e-13 -0.0934497)
(4.07732e-12 -6.52249e-13 -0.100631)
(4.58953e-12 -2.38393e-12 -0.107091)
(-9.69893e-11 -3.08936e-12 -0.111314)
(-2.65042e-10 -2.72806e-12 -0.111889)
(-2.60066e-10 1.88727e-13 -0.108144)
(-1.1165e-10 3.88888e-12 -0.100361)
(-1.72408e-11 3.73728e-12 -0.0897058)
(2.96705e-12 1.65896e-12 -0.0780598)
(3.54481e-12 -1.54904e-12 -0.067647)
(9.72293e-12 -3.8492e-12 -0.0605853)
(-2.9225e-11 1.61936e-11 -0.0583619)
(-8.35633e-11 4.33765e-11 -0.061831)
(4.63073e-10 -1.07027e-10 -0.0723065)
(1.27109e-09 -4.37926e-10 -0.089355)
(-5.53336e-09 1.8985e-10 -0.0993677)
(-3.56292e-08 2.47012e-09 -0.0744657)
(-8.80989e-08 3.34141e-09 -0.0123556)
(-1.28009e-07 1.47606e-10 0.036451)
(-1.20039e-07 -3.34698e-09 0.0235715)
(-7.33422e-08 -3.04517e-09 -0.0331144)
(-2.70431e-08 -6.88573e-10 -0.0788447)
(-3.06942e-09 7.31733e-10 -0.0883284)
(2.58096e-09 7.28401e-10 -0.0733397)
(1.63235e-09 -2.34454e-11 -0.0556606)
(1.45153e-09 -8.47e-10 -0.0488425)
(1.89553e-09 4.3606e-10 -0.0531892)
(-7.04442e-09 9.48495e-09 -0.0541292)
(-4.18259e-08 3.15095e-08 -0.0295183)
(-1.06579e-07 6.11413e-08 0.028244)
(-1.7893e-07 8.05294e-08 0.105463)
(-2.3258e-07 7.33849e-08 0.197662)
(-2.66167e-07 3.71826e-08 0.312727)
(-2.87969e-07 -1.65911e-08 0.423648)
(-2.8408e-07 -6.51807e-08 0.460238)
(-2.32349e-07 -8.53153e-08 0.377783)
(-1.43929e-07 -7.23552e-08 0.215197)
(-5.90033e-08 -4.28308e-08 0.0590547)
(-6.68888e-09 -1.63695e-08 -0.0337143)
(1.08141e-08 -5.50076e-11 -0.0619999)
(3.69618e-09 1.19464e-08 -0.0552219)
(-2.00894e-08 2.72619e-08 -0.0469969)
(-5.2042e-08 4.46252e-08 -0.0665191)
(-7.65929e-08 5.45222e-08 -0.122857)
(-7.95048e-08 5.07224e-08 -0.179873)
(-6.20172e-08 3.75281e-08 -0.171031)
(-4.09476e-08 2.26867e-08 -0.0618636)
(-3.61937e-08 6.71964e-09 0.113605)
(-5.53421e-08 -1.55592e-08 0.279598)
(-8.38519e-08 -4.27904e-08 0.367149)
(-9.53989e-08 -6.25898e-08 0.347562)
(-7.79449e-08 -6.3472e-08 0.24434)
(-4.34148e-08 -4.61595e-08 0.11516)
(-1.35821e-08 -2.03929e-08 0.0118778)
(-2.44717e-09 4.45128e-09 -0.0522799)
(-9.68572e-09 2.31458e-08 -0.104464)
(-2.42971e-08 3.2813e-08 -0.178734)
(-3.33824e-08 3.2344e-08 -0.271053)
(-3.06371e-08 2.42234e-08 -0.328674)
(-1.85805e-08 1.41452e-08 -0.294857)
(-4.40562e-09 7.10428e-09 -0.162863)
(4.48174e-09 3.64049e-09 0.018351)
(2.84138e-09 -3.45265e-10 0.183446)
(-9.37331e-09 -9.30425e-09 0.288294)
(-2.4775e-08 -2.24499e-08 0.318169)
(-3.29529e-08 -3.31981e-08 0.279779)
(-2.94105e-08 -3.4713e-08 0.195283)
(-1.87634e-08 -2.54713e-08 0.0921278)
(-9.40343e-09 -9.94261e-09 -0.0131558)
(-6.02707e-09 4.9176e-09 -0.121964)
(-7.07749e-09 1.38148e-08 -0.23652)
(-8.0829e-09 1.53904e-08 -0.334163)
(-6.2751e-09 1.18905e-08 -0.369563)
(-2.03025e-09 6.94863e-09 -0.311369)
(2.67971e-09 3.27399e-09 -0.172962)
(5.88069e-09 1.56406e-09 -0.00496256)
(6.08364e-09 6.42808e-10 0.139077)
(2.7424e-09 -1.43869e-09 0.230117)
(-2.87883e-09 -5.6708e-09 0.2653)
(-7.90319e-09 -1.09172e-08 0.253689)
(-9.86307e-09 -1.45197e-08 0.205399)
(-8.50185e-09 -1.43419e-08 0.127516)
(-5.50066e-09 -1.04654e-08 0.0238086)
(-2.6508e-09 -5.03104e-09 -0.101295)
(-5.61352e-10 -5.3067e-10 -0.231918)
(1.07702e-09 1.79431e-09 -0.333136)
(2.60224e-09 2.22572e-09 -0.363783)
(4.01958e-09 1.76569e-09 -0.305428)
(5.15675e-09 1.27379e-09 -0.178578)
(5.79518e-09 1.09637e-09 -0.0300935)
(5.67567e-09 1.09214e-09 0.0952961)
(4.62943e-09 8.70287e-10 0.175461)
(2.85153e-09 1.35512e-10 0.210994)
(9.3988e-10 -1.04895e-09 0.211958)
(-4.47446e-10 -2.27986e-09 0.185233)
(-9.63928e-10 -3.11044e-09 0.129631)
(-6.58316e-10 -3.36637e-09 0.0402048)
(1.99979e-10 -3.19721e-09 -0.0809845)
(1.29852e-09 -2.85804e-09 -0.213619)
(2.35097e-09 -2.48909e-09 -0.318455)
(3.15274e-09 -2.0946e-09 -0.355188)
(3.65063e-09 -1.64241e-09 -0.308389)
(3.93273e-09 -1.12118e-09 -0.198119)
(4.11565e-09 -5.35565e-10 -0.0666082)
(4.21998e-09 9.43868e-11 0.0463683)
(4.1428e-09 7.16957e-10 0.120852)
(3.75886e-09 1.25773e-09 0.157559)
(3.04899e-09 1.65042e-09 0.166862)
(2.14736e-09 1.84031e-09 0.155887)
(1.28696e-09 1.76877e-09 0.121578)
(6.89594e-10 1.39818e-09 0.0543816)
(4.66361e-10 7.74881e-10 -0.0490084)
(5.81985e-10 5.11347e-11 -0.172216)
(8.97961e-10 -5.8007e-10 -0.277851)
(1.25563e-09 -9.8338e-10 -0.324995)
(1.54237e-09 -1.12976e-09 -0.294471)
(1.7117e-09 -1.07376e-09 -0.200489)
(1.7697e-09 -8.98222e-10 -0.0804956)
(1.75105e-09 -6.67917e-10 0.0265532)
(1.69338e-09 -4.0807e-10 0.0978059)
(1.6114e-09 -1.07496e-10 0.13103)
(1.48522e-09 2.56415e-10 0.137507)
(1.27908e-09 6.75479e-10 0.130251)
(9.83221e-10 1.07483e-09 0.113539)
(6.46863e-10 1.32659e-09 0.0798203)