/*--------------------------------*- C++ -*----------------------------------*\
  =========                 |
  \\      /  F ield         | OpenFOAM: The Open Source CFD Toolbox
   \\    /   O peration     | Website:  https://openfoam.org
    \\  /    A nd           | Version:  11
     \\/     M anipulation  |
\*---------------------------------------------------------------------------*/
FoamFile
{
    format      ascii;
    class       surfaceScalarField;
    location    "5.577142";
    object      phi_0;
}
// * * * * * * * * * * * * * * * * * * * * * * * * * * * * * * * * * * * * * //

dimensions      [0 3 -1 0 0 0 0];

internalField   nonuniform List<scalar> 
14638
(
0.00250288
-2.88408e-06
0.00251159
-8.70404e-06
0.00252647
-1.48852e-05
0.00254803
-2.15519e-05
0.00257677
-2.87408e-05
0.00261302
-3.62557e-05
0.00265673
-4.37074e-05
0.00270704
-5.03145e-05
0.00276228
-5.52396e-05
0.00281986
-5.75799e-05
0.00287669
-5.68299e-05
0.00293037
-5.36809e-05
0.00297913
-4.87561e-05
0.00302181
-4.26768e-05
0.00305779
-3.59855e-05
0.00308681
-2.90131e-05
0.00310875
-2.1941e-05
0.00312358
-1.48353e-05
0.00313129
-7.70671e-06
0.00313186
-5.70069e-07
0.00312535
6.50777e-06
0.00311197
1.3382e-05
0.00309213
1.98367e-05
0.00306651
2.5618e-05
0.00303603
3.04791e-05
0.00300181
3.42283e-05
0.00296504
3.67621e-05
0.00292697
3.80772e-05
0.00288871
3.82607e-05
0.00285124
3.74657e-05
0.00281536
3.58819e-05
0.00278165
3.37079e-05
0.00275052
3.11323e-05
0.0027222
2.83215e-05
0.00269678
2.5415e-05
0.00267426
2.25253e-05
0.00265452
1.97398e-05
0.00263739
1.71241e-05
0.00262267
1.47245e-05
0.0026101
1.25714e-05
0.00259942
1.06804e-05
0.00259036
9.05503e-06
0.00258267
7.68778e-06
0.00257611
6.56227e-06
0.00257046
5.65518e-06
0.00256552
4.9384e-06
0.00256114
4.38127e-06
0.00255718
3.95273e-06
0.00255356
3.62322e-06
0.00255019
3.3662e-06
0.00254704
3.15919e-06
0.00254405
2.98438e-06
0.00254122
2.82864e-06
0.00253854
2.68329e-06
0.002536
2.54342e-06
0.00253359
2.40717e-06
0.00253131
2.27482e-06
0.00252917
2.14803e-06
0.00252714
2.02904e-06
0.00252522
1.92013e-06
0.00252339
1.82315e-06
0.00252165
1.7392e-06
0.00251999
1.66854e-06
0.00251838
1.6106e-06
0.00251681
1.56405e-06
0.00251528
1.52704e-06
0.00251379
1.4974e-06
0.00251231
1.47293e-06
0.00251086
1.45161e-06
0.00250943
1.43174e-06
0.00250802
1.41202e-06
0.00250663
1.39163e-06
0.00250526
1.37011e-06
0.00250391
1.34733e-06
0.00250259
1.32336e-06
0.00250129
1.29839e-06
0.00250001
1.27265e-06
0.00249877
1.24635e-06
0.00249755
1.21961e-06
0.00249636
1.1924e-06
0.00249519
1.16454e-06
0.00249406
1.13558e-06
0.00249295
1.10486e-06
0.00249188
1.07155e-06
0.00249085
1.03482e-06
0.00248985
9.93984e-07
0.0024889
9.48516e-07
0.002488
8.97642e-07
0.00248717
8.39438e-07
0.0024864
7.6943e-07
0.00248572
6.79157e-07
0.00248516
5.55532e-07
0.00248478
3.81972e-07
0.00248464
1.42039e-07
0.00248481
-1.74529e-07
0.00248538
-5.6468e-07
0.00248638
-1.00617e-06
0.00248784
-1.45575e-06
0.00248969
-1.85356e-06
0.00249183
-2.13401e-06
0.00249407
-2.24115e-06
0.00249621
-2.14424e-06
0.00249806
-1.84858e-06
0.00249946
-1.3975e-06
0.00250032
-8.64159e-07
0.00250066
-3.35128e-07
0.00250055
1.09469e-07
0.00250013
4.13361e-07
0.00249958
5.54233e-07
0.00249904
5.44284e-07
0.00249861
4.22173e-07
0.00249837
2.39785e-07
0.00249833
4.82582e-08
0.00249844
-1.12877e-07
0.00249866
-2.21263e-07
0.00249893
-2.71795e-07
0.0024992
-2.72624e-07
0.00249944
-2.39225e-07
0.00249963
-1.88624e-07
0.00249977
-1.35182e-07
0.00249986
-8.84704e-08
0.00249991
-5.30422e-08
0.00249994
-2.94402e-08
0.00249995
-1.57337e-08
0.00249996
-8.98715e-09
0.00249997
-6.33633e-09
0.00249997
-5.57525e-09
0.00249998
-5.32628e-09
0.00249998
-4.93659e-09
0.00249999
-4.25023e-09
0.00249999
-3.36941e-09
0.00249999
-2.47021e-09
0.0025
-1.6947e-09
0.0025
-1.11133e-09
0.0025
-7.20931e-10
0.0025
-4.83517e-10
0.0025
-3.46653e-10
0.0025
-2.65055e-10
0.0025
-2.0886e-10
0.0025
-1.63198e-10
0.0025
-1.23352e-10
0.0025
-8.93775e-11
0.0025
-6.22542e-11
0.0025
-4.21241e-11
0.0025
-2.80514e-11
0.0025
-1.8538e-11
0.0025
-1.20892e-11
0.0025
-7.56942e-12
0.0025
-4.2587e-12
0.0025
-1.77201e-12
0.0025
9.7709e-14
0.0025
1.46568e-12
0.0025
2.44341e-12
0.0025
3.10127e-12
0.0025
3.5645e-12
0.0025
3.80975e-12
0.0025
4.07927e-12
0.0025
3.99363e-12
0.0025
4.46426e-12
3.78761e-12
0.00250286
-5.74161e-06
0.00251149
-1.73343e-05
0.00252627
-2.96648e-05
0.00254772
-4.30023e-05
0.00257641
-5.74323e-05
0.00261273
-7.25753e-05
0.00265668
-8.7658e-05
0.00270745
-0.000101081
0.00276333
-0.000111128
0.00282164
-0.000115882
0.00287909
-0.000114282
0.00293324
-0.000107836
0.00298232
-9.78325e-05
0.00302519
-8.55446e-05
0.00306128
-7.2073e-05
0.00309034
-5.80759e-05
0.0031123
-4.39068e-05
0.00312715
-2.9684e-05
0.00313486
-1.54152e-05
0.00313541
-1.11923e-06
0.00312884
1.30757e-05
0.00311535
2.68789e-05
0.00309533
3.98515e-05
0.00306947
5.14745e-05
0.00303871
6.12441e-05
0.00300417
6.87688e-05
0.00296709
7.38386e-05
0.00292872
7.64489e-05
0.0028902
7.67794e-05
0.00285252
7.51435e-05
0.00281648
7.19268e-05
0.00278265
6.75319e-05
0.00275145
6.23389e-05
0.00272309
5.66821e-05
0.00269766
5.08408e-05
0.00267515
4.50394e-05
0.00265544
3.9452e-05
0.00263835
3.42087e-05
0.00262367
2.94018e-05
0.00261115
2.50911e-05
0.00260053
2.13076e-05
0.00259152
1.80578e-05
0.00258389
1.53263e-05
0.00257737
1.308e-05
0.00257175
1.12717e-05
0.00256684
9.84474e-06
0.00256249
8.73735e-06
0.00255855
7.88697e-06
0.00255494
7.23411e-06
0.00255158
6.72542e-06
0.00254843
6.31579e-06
0.00254544
5.96949e-06
0.00254261
5.66035e-06
0.00253992
5.37106e-06
0.00253737
5.09199e-06
0.00253496
4.81957e-06
0.00253268
4.5546e-06
0.00253053
4.30052e-06
0.0025285
4.06201e-06
0.00252657
3.84372e-06
0.00252475
3.64943e-06
0.002523
3.48141e-06
0.00252133
3.34022e-06
0.00251972
3.22466e-06
0.00251815
3.13204e-06
0.00251662
3.05862e-06
0.00251512
3.00001e-06
0.00251364
2.95176e-06
0.00251218
2.90976e-06
0.00251074
2.87058e-06
0.00250932
2.83166e-06
0.00250792
2.79131e-06
0.00250654
2.74866e-06
0.00250519
2.70345e-06
0.00250385
2.65587e-06
0.00250255
2.60632e-06
0.00250126
2.55527e-06
0.00250001
2.50314e-06
0.00249878
2.4502e-06
0.00249757
2.39644e-06
0.0024964
2.34147e-06
0.00249525
2.28444e-06
0.00249413
2.22404e-06
0.00249304
2.1586e-06
0.00249199
2.08645e-06
0.00249098
2.00618e-06
0.00249001
1.91667e-06
0.00248909
1.81638e-06
0.00248823
1.70154e-06
0.00248743
1.56346e-06
0.00248673
1.38566e-06
0.00248614
1.14253e-06
0.00248572
8.01449e-07
0.00248553
3.29848e-07
0.00248565
-2.92974e-07
0.00248615
-1.06171e-06
0.00248708
-1.93325e-06
0.00248844
-2.82286e-06
0.0024902
-3.61253e-06
0.00249224
-4.17234e-06
0.00249439
-4.39079e-06
0.00249645
-4.20588e-06
0.00249823
-3.62685e-06
0.00249957
-2.73851e-06
0.00250039
-1.68533e-06
0.0025007
-6.39007e-07
0.00250056
2.40953e-07
0.00250014
8.42026e-07
0.00249957
1.11904e-06
0.00249902
1.09563e-06
0.00249859
8.48409e-07
0.00249835
4.80792e-07
0.00249831
9.5043e-08
0.00249842
-2.29508e-07
0.00249865
-4.47793e-07
0.00249893
-5.49365e-07
0.0024992
-5.50516e-07
0.00249945
-4.82432e-07
0.00249964
-3.79558e-07
0.00249977
-2.71035e-07
0.00249986
-1.76336e-07
0.00249991
-1.04728e-07
0.00249994
-5.72946e-08
0.00249996
-3.00455e-08
0.00249996
-1.69298e-08
0.00249997
-1.20492e-08
0.00249997
-1.08754e-08
0.00249998
-1.06019e-08
0.00249998
-9.92607e-09
0.00249999
-8.57027e-09
0.00249999
-6.78139e-09
0.00249999
-4.94607e-09
0.0025
-3.36813e-09
0.0025
-2.19033e-09
0.0025
-1.41136e-09
0.0025
-9.44978e-10
0.0025
-6.80662e-10
0.0025
-5.246e-10
0.0025
-4.16207e-10
0.0025
-3.26371e-10
0.0025
-2.46786e-10
0.0025
-1.78516e-10
0.0025
-1.24047e-10
0.0025
-8.38101e-11
0.0025
-5.58647e-11
0.0025
-3.709e-11
0.0025
-2.44042e-11
0.0025
-1.55029e-11
0.0025
-8.9528e-12
0.0025
-4.00899e-12
0.0025
-2.79102e-13
0.0025
2.45307e-12
0.0025
4.4061e-12
0.0025
5.72093e-12
0.0025
6.64643e-12
0.0025
7.14451e-12
0.0025
7.6768e-12
0.0025
7.53962e-12
0.0025
8.41878e-12
7.20253e-12
0.0025028
-8.54554e-06
0.00251128
-2.58098e-05
0.00252584
-4.42259e-05
0.00254708
-6.42368e-05
0.00257565
-8.60096e-05
0.00261208
-0.000109008
0.00265651
-0.000132087
0.00270819
-0.000152755
0.0027654
-0.00016834
0.00282518
-0.000175661
0.00288389
-0.000172994
0.002939
-0.000162941
0.00298871
-0.000147544
0.00303195
-0.000128784
0.00306823
-0.000108354
0.00309738
-8.72302e-05
0.00311939
-6.59181e-05
0.00313427
-4.45594e-05
0.00314199
-2.31305e-05
0.0031425
-1.63065e-06
0.00313581
1.97624e-05
0.00312208
4.06083e-05
0.0031017
6.02295e-05
0.00307536
7.782e-05
0.00304401
9.25961e-05
0.00300882
0.000103951
0.0029711
0.000111562
0.00293212
0.000115428
0.00289307
0.000115832
0.00285495
0.000113262
0.00281856
0.000108313
0.0027845
0.000101602
0.00275313
9.37056e-05
0.00272468
8.51297e-05
0.00269923
7.62937e-05
0.00267673
6.7533e-05
0.00265708
5.91071e-05
0.00264008
5.12095e-05
0.0026255
4.39771e-05
0.0026131
3.74982e-05
0.00260259
3.18183e-05
0.0025937
2.69459e-05
0.00258617
2.28568e-05
0.00257975
1.95002e-05
0.00257421
1.68039e-05
0.00256938
1.46816e-05
0.00256508
1.30391e-05
0.00256118
1.17815e-05
0.0025576
1.08185e-05
0.00255425
1.00694e-05
0.0025511
9.46604e-06
0.00254812
8.95486e-06
0.00254528
8.49666e-06
0.00254259
8.06587e-06
0.00254003
7.64851e-06
0.00253761
7.23976e-06
0.00253532
6.84131e-06
0.00253316
6.45882e-06
0.00253113
6.09968e-06
0.0025292
5.77119e-06
0.00252737
5.47918e-06
0.00252562
5.22718e-06
0.00252395
5.01601e-06
0.00252233
4.84381e-06
0.00252075
4.70644e-06
0.00251922
4.59809e-06
0.0025177
4.51206e-06
0.00251621
4.44152e-06
0.00251474
4.3802e-06
0.00251329
4.3229e-06
0.00251186
4.26576e-06
0.00251044
4.20628e-06
0.00250905
4.14321e-06
0.00250767
4.07624e-06
0.00250632
4.00571e-06
0.002505
3.93228e-06
0.0025037
3.85671e-06
0.00250242
3.77967e-06
0.00250117
3.7016e-06
0.00249994
3.62252e-06
0.00249874
3.5419e-06
0.00249757
3.45851e-06
0.00249642
3.37039e-06
0.00249531
3.27508e-06
0.00249422
3.16998e-06
0.00249318
3.05289e-06
0.00249217
2.92199e-06
0.00249121
2.77491e-06
0.00249031
2.60616e-06
0.00248947
2.40317e-06
0.00248871
2.14213e-06
0.00248807
1.78584e-06
0.00248758
1.28669e-06
0.00248732
5.96716e-07
0.00248734
-3.15087e-07
0.00248772
-1.44199e-06
0.00248851
-2.72193e-06
0.00248971
-4.03137e-06
0.0024913
-5.19716e-06
0.00249315
-6.02767e-06
0.00249512
-6.35753e-06
0.00249701
-6.09373e-06
0.00249863
-5.24829e-06
0.00249984
-3.94529e-06
0.00250055
-2.3977e-06
0.00250077
-8.59607e-07
0.00250058
4.32255e-07
0.00250011
1.31039e-06
0.00249952
1.70719e-06
0.00249896
1.65749e-06
0.00249853
1.2754e-06
0.0024983
7.15338e-07
0.00249826
1.30453e-07
0.00249839
-3.60214e-07
0.00249864
-6.88929e-07
0.00249893
-8.40092e-07
0.00249921
-8.38581e-07
0.00249946
-7.31977e-07
0.00249966
-5.72926e-07
0.00249979
-4.06044e-07
0.00249988
-2.61152e-07
0.00249992
-1.5236e-07
0.00249995
-8.11276e-08
0.00249996
-4.1062e-08
0.00249997
-2.26006e-08
0.00249997
-1.64804e-08
0.00249997
-1.56478e-08
0.00249998
-1.58013e-08
0.00249998
-1.50256e-08
0.00249999
-1.30115e-08
0.00249999
-1.02461e-08
0.0025
-7.39738e-09
0.0025
-4.96779e-09
0.0025
-3.18187e-09
0.0025
-2.02654e-09
0.0025
-1.35459e-09
0.0025
-9.85594e-10
0.0025
-7.71154e-10
0.0025
-6.19087e-10
0.0025
-4.88061e-10
0.0025
-3.68912e-10
0.0025
-2.658e-10
0.0025
-1.83768e-10
0.0025
-1.23742e-10
0.0025
-8.25682e-11
0.0025
-5.52117e-11
0.0025
-3.68246e-11
0.0025
-2.38797e-11
0.0025
-1.42704e-11
0.0025
-6.95205e-12
0.0025
-1.40364e-12
0.0025
2.66759e-12
0.0025
5.57248e-12
0.0025
7.5296e-12
0.0025
8.90254e-12
0.0025
9.66033e-12
0.0025
1.04367e-11
0.0025
1.03043e-11
0.0025
1.14821e-11
9.93068e-12
0.00250272
-1.1265e-05
0.00251095
-3.40406e-05
0.00252516
-5.84376e-05
0.00254604
-8.51161e-05
0.00257441
-0.000114377
0.00261097
-0.000145573
0.0026561
-0.000177214
0.00270915
-0.00020581
0.00276842
-0.000227607
0.00283049
-0.000237734
0.00289113
-0.000233632
0.00294767
-0.000219476
0.00299832
-0.000198192
0.00304209
-0.000172558
0.00307864
-0.000144903
0.00310791
-0.000116503
0.00312998
-8.79851e-05
0.00314489
-5.94688e-05
0.00315261
-3.0855e-05
0.00315307
-2.08857e-06
0.00314621
2.66214e-05
0.00313214
5.4681e-05
0.00311122
8.11504e-05
0.00308414
0.000104901
0.0030519
0.000124835
0.00301574
0.000140105
0.00297704
0.000150265
0.00293714
0.000155325
0.00289728
0.00015569
0.0028585
0.000152045
0.0028216
0.000145214
0.00278716
0.000136042
0.00275555
0.000125314
0.00272697
0.000113709
0.00270148
0.000101788
0.00267901
8.99966e-05
0.00265944
7.8677e-05
0.00264257
6.80843e-05
0.00262815
5.83984e-05
0.00261591
4.97346e-05
0.00260558
4.21518e-05
0.00259686
3.56593e-05
0.0025895
3.02229e-05
0.00258323
2.5772e-05
0.00257782
2.22081e-05
0.00257309
1.9413e-05
0.00256887
1.72588e-05
0.00256504
1.56164e-05
0.00256149
1.43634e-05
0.00255817
1.33908e-05
0.00255503
1.26072e-05
0.00255204
1.19409e-05
0.0025492
1.13399e-05
0.00254649
1.07709e-05
0.00254393
1.02163e-05
0.0025415
9.67062e-06
0.0025392
9.13713e-06
0.00253703
8.62432e-06
0.00253499
8.14278e-06
0.00253306
7.70278e-06
0.00253123
7.31246e-06
0.00252948
6.97666e-06
0.0025278
6.69647e-06
0.00252617
6.46926e-06
0.00252459
6.28923e-06
0.00252304
6.14833e-06
0.00252151
6.03732e-06
0.00252001
5.9468e-06
0.00251852
5.86825e-06
0.00251705
5.7946e-06
0.00251559
5.72071e-06
0.00251416
5.64331e-06
0.00251274
5.56085e-06
0.00251134
5.47306e-06
0.00250997
5.38052e-06
0.00250861
5.28423e-06
0.00250729
5.18529e-06
0.00250598
5.08468e-06
0.0025047
4.98302e-06
0.00250344
4.88044e-06
0.00250221
4.77631e-06
0.002501
4.66906e-06
0.00249981
4.55614e-06
0.00249865
4.43423e-06
0.00249752
4.29981e-06
0.00249642
4.14972e-06
0.00249537
3.98134e-06
0.00249435
3.79135e-06
0.00249338
3.57263e-06
0.00249248
3.30918e-06
0.00249165
2.9707e-06
0.00249092
2.50976e-06
0.00249035
1.8652e-06
0.00248997
9.74976e-07
0.00248985
-2.01774e-07
0.00249007
-1.65772e-06
0.00249066
-3.31413e-06
0.00249164
-5.01231e-06
0.00249297
-6.5283e-06
0.00249456
-7.6129e-06
0.00249625
-8.04983e-06
0.00249787
-7.71626e-06
0.00249925
-6.62613e-06
0.00250025
-4.94009e-06
0.00250078
-2.93577e-06
0.00250087
-9.45555e-07
0.00250058
7.20257e-07
0.00250005
1.84177e-06
0.00249943
2.33029e-06
0.00249885
2.23217e-06
0.00249843
1.69862e-06
0.00249821
9.34543e-07
0.0024982
1.43402e-07
0.00249835
-5.16444e-07
0.00249862
-9.5501e-07
0.00249893
-1.15216e-06
0.00249924
-1.14227e-06
0.00249949
-9.90501e-07
0.00249969
-7.68915e-07
0.00249982
-5.38605e-07
0.0024999
-3.40319e-07
0.00249994
-1.93089e-07
0.00249996
-9.84064e-08
0.00249997
-4.68805e-08
0.00249997
-2.48024e-08
0.00249997
-1.90375e-08
0.00249997
-1.97154e-08
0.00249998
-2.09642e-08
0.00249999
-2.03376e-08
0.00249999
-1.76495e-08
0.00249999
-1.37813e-08
0.0025
-9.79247e-09
0.0025
-6.43674e-09
0.0025
-4.02718e-09
0.0025
-2.52029e-09
0.0025
-1.68314e-09
0.0025
-1.24661e-09
0.0025
-9.9894e-10
0.0025
-8.15797e-10
0.0025
-6.47458e-10
0.0025
-4.88498e-10
0.0025
-3.49494e-10
0.0025
-2.39583e-10
0.0025
-1.60381e-10
0.0025
-1.07095e-10
0.0025
-7.22902e-11
0.0025
-4.90645e-11
0.0025
-3.26066e-11
0.0025
-2.02123e-11
0.0025
-1.06469e-11
0.0025
-3.34646e-12
0.0025
2.01562e-12
0.0025
5.82797e-12
0.0025
8.39342e-12
0.0025
1.01848e-11
0.0025
1.12013e-11
0.0025
1.21949e-11
0.0025
1.21291e-11
0.0025
1.34799e-11
1.18248e-11
0.0025026
-1.38642e-05
0.00251048
-4.19224e-05
0.00252419
-7.21423e-05
0.00254453
-0.000105462
0.00257254
-0.000142389
0.00260921
-0.00018224
0.00265523
-0.000223231
0.00271015
-0.000260731
0.00277229
-0.000289751
0.00283758
-0.000303024
0.00290086
-0.000296908
0.0029593
-0.000277922
0.00301117
-0.000250053
0.0030556
-0.000216993
0.00309246
-0.000181759
0.00312185
-0.000145899
0.00314398
-0.000110112
0.00315894
-7.4429e-05
0.0031667
-3.86132e-05
0.00316711
-2.50185e-06
0.00316004
3.36899e-05
0.00314552
6.92043e-05
0.00312387
0.000102803
0.00309578
0.000132985
0.00306233
0.000158287
0.00302485
0.000177585
0.00298482
0.000190302
0.00294367
0.000196466
0.00290273
0.000196633
0.00286306
0.000191716
0.00282548
0.000182796
0.00279055
0.000170968
0.00275863
0.000157234
0.00272989
0.000142454
0.00270435
0.000127329
0.00268193
0.000112412
0.00266248
9.81265e-05
0.00264578
8.47853e-05
0.00263157
7.26093e-05
0.00261957
6.17393e-05
0.00260947
5.22457e-05
0.00260099
4.41371e-05
0.00259385
3.73673e-05
0.00258778
3.18443e-05
0.00258254
2.74405e-05
0.00257795
2.40037e-05
0.00257384
2.13695e-05
0.00257009
1.93724e-05
0.00256659
1.78566e-05
0.0025633
1.66835e-05
0.00256017
1.57376e-05
0.00255718
1.49289e-05
0.00255433
1.41934e-05
0.00255161
1.34904e-05
0.00254903
1.27996e-05
0.00254658
1.21158e-05
0.00254427
1.14449e-05
0.0025421
1.07989e-05
0.00254005
1.01924e-05
0.00253811
9.63896e-06
0.00253628
9.14942e-06
0.00253452
8.73005e-06
0.00253284
8.38213e-06
0.0025312
8.10209e-06
0.00252961
7.88226e-06
0.00252805
7.71204e-06
0.00252651
7.57934e-06
0.00252498
7.47198e-06
0.00252347
7.37897e-06
0.00252197
7.29132e-06
0.00252049
7.20259e-06
0.00251903
7.10882e-06
0.00251758
7.00827e-06
0.00251615
6.90084e-06
0.00251474
6.78747e-06
0.00251336
6.6696e-06
0.00251199
6.54876e-06
0.00251065
6.42628e-06
0.00250933
6.30306e-06
0.00250803
6.17935e-06
0.00250676
6.05449e-06
0.0025055
5.92663e-06
0.00250426
5.79268e-06
0.00250305
5.64849e-06
0.00250186
5.4895e-06
0.0025007
5.31149e-06
0.00249957
5.1108e-06
0.00249847
4.88308e-06
0.00249743
4.61961e-06
0.00249644
4.30145e-06
0.00249551
3.8929e-06
0.00249469
3.33784e-06
0.00249399
2.56358e-06
0.00249347
1.49573e-06
0.00249318
8.4485e-08
0.00249318
-1.66289e-06
0.00249352
-3.65362e-06
0.00249421
-5.69836e-06
0.00249521
-7.52798e-06
0.00249644
-8.84144e-06
0.00249776
-9.37609e-06
0.00249903
-8.9815e-06
0.00250008
-7.67305e-06
0.00250078
-5.64483e-06
0.00250108
-3.23421e-06
0.00250098
-8.46141e-07
0.00250056
1.14071e-06
0.00249994
2.45803e-06
0.00249928
2.99835e-06
0.00249869
2.82029e-06
0.00249827
2.11194e-06
0.00249808
1.12792e-06
0.0024981
1.21255e-07
0.0024983
-7.1107e-07
0.0024986
-1.25758e-06
0.00249894
-1.49463e-06
0.00249927
-1.46756e-06
0.00249954
-1.26081e-06
0.00249974
-9.67592e-07
0.00249987
-6.66823e-07
0.00249994
-4.10901e-07
0.00249997
-2.23788e-07
0.00249997
-1.06434e-07
0.00249997
-4.556e-08
0.00249997
-2.23986e-08
0.00249997
-1.92429e-08
0.00249997
-2.30254e-08
0.00249998
-2.62327e-08
0.00249999
-2.60309e-08
0.00249999
-2.25911e-08
0.00249999
-1.74113e-08
0.0025
-1.20933e-08
0.0025
-7.70872e-09
0.0025
-4.66089e-09
0.0025
-2.84416e-09
0.0025
-1.90254e-09
0.0025
-1.45166e-09
0.0025
-1.20499e-09
0.0025
-1.00661e-09
0.0025
-8.04732e-10
0.0025
-6.04536e-10
0.0025
-4.27683e-10
0.0025
-2.8936e-10
0.0025
-1.91924e-10
0.0025
-1.28189e-10
0.0025
-8.75661e-11
0.0025
-6.06999e-11
0.0025
-4.14357e-11
0.0025
-2.66027e-11
0.0025
-1.49438e-11
0.0025
-5.97478e-12
0.0025
6.09295e-13
0.0025
5.2606e-12
0.0025
8.3778e-12
0.0025
1.05406e-11
0.0025
1.18023e-11
0.0025
1.29795e-11
0.0025
1.3033e-11
0.0025
1.44424e-11
1.28893e-11
0.00250244
-1.63011e-05
0.00250985
-4.93318e-05
0.00252285
-8.51474e-05
0.00254243
-0.000125044
0.00256987
-0.00016983
0.00260654
-0.00021891
0.00265359
-0.000270282
0.00271089
-0.000318029
0.00277687
-0.00035573
0.00284645
-0.000372608
0.00291314
-0.000363591
0.00297397
-0.000338758
0.00302729
-0.00030337
0.00307247
-0.00026217
0.00310963
-0.00021892
0.00313912
-0.000175385
0.00316128
-0.000132273
0.00317628
-8.94362e-05
0.00318409
-4.64176e-05
0.00318447
-2.88075e-06
0.00317717
4.099e-05
0.00316211
8.42648e-05
0.00313955
0.000125358
0.00311021
0.000162328
0.00307522
0.000193276
0.00303605
0.000216753
0.00299432
0.000232033
0.0029516
0.000239182
0.00290929
0.000238942
0.00286852
0.000232495
0.00283009
0.00022122
0.00279457
0.000206487
0.00276228
0.000189529
0.00273334
0.000171392
0.00270775
0.000152915
0.00268541
0.000134756
0.00266612
0.000117414
0.00264965
0.000101259
0.00263571
8.65487e-05
0.002624
7.34466e-05
0.00261421
6.20333e-05
0.00260604
5.23146e-05
0.00259917
4.42302e-05
0.00259335
3.76641e-05
0.00258834
3.24563e-05
0.00258392
2.84177e-05
0.00257995
2.53442e-05
0.00257629
2.30313e-05
0.00257286
2.12873e-05
0.0025696
1.99425e-05
0.00256648
1.88567e-05
0.00256349
1.79216e-05
0.00256062
1.70613e-05
0.00255788
1.62291e-05
0.00255528
1.54027e-05
0.00255282
1.45789e-05
0.00255049
1.37672e-05
0.00254831
1.29842e-05
0.00254625
1.22491e-05
0.00254431
1.15798e-05
0.00254247
1.09898e-05
0.00254071
1.04871e-05
0.00253902
1.00731e-05
0.00253738
9.74302e-06
0.00253578
9.48705e-06
0.0025342
9.29162e-06
0.00253264
9.14142e-06
0.00253109
9.02117e-06
0.00252955
8.91716e-06
0.00252802
8.81841e-06
0.00252651
8.71714e-06
0.00252501
8.60884e-06
0.00252352
8.49171e-06
0.00252206
8.366e-06
0.00252061
8.23317e-06
0.00251919
8.09523e-06
0.00251778
7.95423e-06
0.0025164
7.81193e-06
0.00251503
7.66956e-06
0.00251368
7.52759e-06
0.00251235
7.38538e-06
0.00251104
7.24091e-06
0.00250974
7.09056e-06
0.00250846
6.92936e-06
0.00250719
6.75166e-06
0.00250595
6.55201e-06
0.00250474
6.32552e-06
0.00250356
6.06659e-06
0.00250241
5.76499e-06
0.00250131
5.39932e-06
0.00250028
4.92959e-06
0.00249932
4.29292e-06
0.00249848
3.40739e-06
0.00249778
2.18858e-06
0.00249729
5.79129e-07
0.00249704
-1.41412e-06
0.00249707
-3.68712e-06
0.0024974
-6.02502e-06
0.00249799
-8.12054e-06
0.00249878
-9.62821e-06
0.00249965
-1.02452e-05
0.00250047
-9.79727e-06
0.00250109
-8.30115e-06
0.00250143
-5.98095e-06
0.00250142
-3.22761e-06
0.00250109
-5.11254e-07
0.0025005
1.72817e-06
0.00249978
3.17939e-06
0.00249906
3.71945e-06
0.00249846
3.4205e-06
0.00249806
2.50723e-06
0.00249791
1.28309e-06
0.00249798
4.96637e-08
0.00249823
-9.58431e-07
0.00249858
-1.6093e-06
0.00249896
-1.87728e-06
0.00249931
-1.82066e-06
0.0024996
-1.54554e-06
0.0024998
-1.16857e-06
0.00249992
-7.88227e-07
0.00249998
-4.69421e-07
0.0025
-2.40939e-07
0.00249999
-1.02319e-07
0.00249998
-3.51461e-08
0.00249997
-1.43664e-08
0.00249997
-1.67908e-08
0.00249997
-2.56948e-08
0.00249998
-3.18788e-08
0.00249999
-3.23508e-08
0.00249999
-2.79729e-08
0.0025
-2.11597e-08
0.0025
-1.42477e-08
0.0025
-8.70268e-09
0.0025
-5.00855e-09
0.0025
-2.94737e-09
0.0025
-1.98709e-09
0.0025
-1.59288e-09
0.0025
-1.39022e-09
0.0025
-1.19436e-09
0.0025
-9.61191e-10
0.0025
-7.1619e-10
0.0025
-4.98187e-10
0.0025
-3.30642e-10
0.0025
-2.16343e-10
0.0025
-1.44477e-10
0.0025
-1.00227e-10
0.0025
-7.12589e-11
0.0025
-5.00428e-11
0.0025
-3.31558e-11
0.0025
-1.95594e-11
0.0025
-9.0103e-12
0.0025
-1.29162e-12
0.0025
4.10399e-12
0.0025
7.69021e-12
0.0025
1.01573e-11
0.0025
1.16347e-11
0.0025
1.2957e-11
0.0025
1.31638e-11
0.0025
1.45467e-11
1.32407e-11
0.00250223
-1.85261e-05
0.00250901
-5.61217e-05
0.00252108
-9.72164e-05
0.0025396
-0.000143561
0.00256616
-0.000196389
0.00260263
-0.000255375
0.00265078
-0.000318434
0.00271098
-0.000378235
0.00278196
-0.000426701
0.00285713
-0.000447786
0.00292807
-0.000434525
0.00299175
-0.000402445
0.0030467
-0.000358319
0.00309263
-0.000308094
0.00313003
-0.000256322
0.00315954
-0.000204898
0.00318171
-0.000154444
0.00319679
-0.000104517
0.00320471
-5.4331e-05
0.00320511
-3.28008e-06
0.00319757
4.85244e-05
0.00318188
9.99569e-05
0.00315822
0.000149018
0.00312732
0.000193233
0.00309042
0.000230176
0.00304915
0.000258014
0.00300533
0.000275854
0.00296069
0.000283824
0.00291673
0.000282901
0.00287463
0.000274598
0.00283521
0.000260635
0.00279901
0.000242688
0.0027663
0.000222242
0.00273716
0.000200528
0.00271155
0.000178525
0.00268932
0.000156988
0.00267025
0.000136488
0.00265406
0.000117443
0.00264046
0.000100147
0.00262913
8.47841e-05
0.00261972
7.14423e-05
0.00261191
6.01225e-05
0.00260539
5.07479e-05
0.00259988
4.3175e-05
0.00259513
3.72083e-05
0.00259093
3.26173e-05
0.00258712
2.91547e-05
0.00258358
2.65737e-05
0.00258022
2.46437e-05
0.002577
2.31625e-05
0.00257389
2.19638e-05
0.00257089
2.09213e-05
0.00256801
1.99477e-05
0.00256524
1.89914e-05
0.00256262
1.803e-05
0.00256013
1.70634e-05
0.00255779
1.61062e-05
0.0025556
1.51811e-05
0.00255353
1.43129e-05
0.00255159
1.35243e-05
0.00254975
1.28323e-05
0.00254799
1.22465e-05
0.00254629
1.17684e-05
0.00254464
1.13919e-05
0.00254303
1.11043e-05
0.00254143
1.08887e-05
0.00253984
1.07262e-05
0.00253827
1.05979e-05
0.0025367
1.0487e-05
0.00253513
1.03806e-05
0.00253358
1.02696e-05
0.00253204
1.01488e-05
0.00253052
1.00168e-05
0.00252901
9.87435e-06
0.00252752
9.72359e-06
0.00252605
9.56728e-06
0.00252459
9.40811e-06
0.00252316
9.24835e-06
0.00252174
9.08964e-06
0.00252033
8.93275e-06
0.00251894
8.77716e-06
0.00251756
8.62074e-06
0.00251619
8.45942e-06
0.00251483
8.28743e-06
0.00251349
8.09796e-06
0.00251215
7.88416e-06
0.00251084
7.63969e-06
0.00250955
7.3575e-06
0.00250829
7.02585e-06
0.00250707
6.62136e-06
0.00250589
6.10096e-06
0.00250479
5.39699e-06
0.00250378
4.42102e-06
0.00250288
3.08138e-06
0.00250215
1.31513e-06
0.00250161
-8.71194e-07
0.00250128
-3.36494e-06
0.00250119
-5.93148e-06
0.0025013
-8.23355e-06
0.00250156
-9.89049e-06
0.00250189
-1.05677e-05
0.00250216
-1.0072e-05
0.00250228
-8.42275e-06
0.00250217
-5.8702e-06
0.0025018
-2.85137e-06
0.00250118
1.07784e-07
0.00250039
2.51514e-06
0.00249955
4.02363e-06
0.00249877
4.49914e-06
0.00249816
4.02895e-06
0.00249779
2.87411e-06
0.00249769
1.38573e-06
0.00249783
-8.73492e-08
0.00249814
-1.27408e-06
0.00249856
-2.02355e-06
0.00249899
-2.31005e-06
0.00249938
-2.20748e-06
0.00249968
-1.84664e-06
0.00249988
-1.37055e-06
0.00249999
-8.99448e-07
0.00250003
-5.11674e-07
0.00250003
-2.40555e-07
0.00250001
-8.29839e-08
0.00249999
-1.3731e-08
0.00249998
1.2744e-10
0.00249997
-1.16139e-08
0.00249997
-2.80544e-08
0.00249998
-3.83236e-08
0.00249999
-3.96199e-08
0.00249999
-3.39517e-08
0.0025
-2.50366e-08
0.0025
-1.61794e-08
0.0025
-9.31732e-09
0.0025
-4.98524e-09
0.0025
-2.77782e-09
0.0025
-1.9153e-09
0.0025
-1.66827e-09
0.0025
-1.56043e-09
0.0025
-1.38476e-09
0.0025
-1.11926e-09
0.0025
-8.22648e-10
0.0025
-5.58451e-10
0.0025
-3.60625e-10
0.0025
-2.31451e-10
0.0025
-1.54596e-10
0.0025
-1.09537e-10
0.0025
-8.03377e-11
0.0025
-5.8129e-11
0.0025
-3.95659e-11
0.0025
-2.41598e-11
0.0025
-1.21115e-11
0.0025
-3.36174e-12
0.0025
2.65536e-12
0.0025
6.59948e-12
0.0025
9.28306e-12
0.0025
1.09297e-11
0.0025
1.23555e-11
0.0025
1.27278e-11
0.0025
1.40336e-11
1.30488e-11
0.00250196
-2.04812e-05
0.00250795
-6.21191e-05
0.0025188
-0.000108061
0.00253586
-0.000160627
0.00256111
-0.00022163
0.00259702
-0.000291289
0.00264622
-0.000367634
0.00270988
-0.000441899
0.00278729
-0.00050411
0.00286967
-0.000530163
0.00294578
-0.000510632
0.00301275
-0.000469416
0.00306944
-0.000415009
0.00311603
-0.000354691
0.00315353
-0.000293816
0.00318292
-0.000234285
0.003205
-0.000176524
0.00322012
-0.000119641
0.00322817
-6.23852e-05
0.00322866
-3.76789e-06
0.00322094
5.62438e-05
0.00320459
0.000116311
0.00317967
0.000173933
0.00314693
0.000225973
0.00310775
0.000269357
0.00306398
0.000301787
0.00301766
0.000322177
0.00297072
0.000330755
0.00292482
0.000328803
0.00288118
0.000318236
0.00284064
0.000301178
0.00280368
0.000279651
0.00277052
0.000255405
0.00274118
0.000229861
0.00271558
0.000204131
0.0026935
0.00017906
0.00267471
0.000155284
0.00265889
0.000133265
0.00264571
0.000113326
0.00263482
9.56707e-05
0.00262587
8.03922e-05
0.00261851
6.74843e-05
0.00261241
5.68504e-05
0.00260727
4.8316e-05
0.00260283
4.16456e-05
0.00259888
3.65626e-05
0.00259527
3.27718e-05
0.00259186
2.998e-05
0.00258859
2.79148e-05
0.00258541
2.63387e-05
0.00258232
2.50589e-05
0.00257931
2.39307e-05
0.0025764
2.28566e-05
0.00257361
2.17815e-05
0.00257095
2.06846e-05
0.00256845
1.9571e-05
0.00256609
1.84623e-05
0.00256388
1.73885e-05
0.00256182
1.63816e-05
0.00255987
1.54698e-05
0.00255803
1.46739e-05
0.00255627
1.40055e-05
0.00255457
1.3466e-05
0.00255292
1.30474e-05
0.00255129
1.27338e-05
0.00254967
1.25044e-05
0.00254806
1.23358e-05
0.00254645
1.22051e-05
0.00254485
1.20925e-05
0.00254325
1.19825e-05
0.00254165
1.18648e-05
0.00254007
1.17341e-05
0.00253849
1.15891e-05
0.00253694
1.14315e-05
0.0025354
1.12645e-05
0.00253387
1.10917e-05
0.00253236
1.09166e-05
0.00253087
1.0742e-05
0.00252939
1.05702e-05
0.00252792
1.04022e-05
0.00252646
1.02378e-05
0.002525
1.00747e-05
0.00252356
9.90865e-06
0.00252211
9.73297e-06
0.00252067
9.53966e-06
0.00251923
9.32034e-06
0.0025178
9.06697e-06
0.00251639
8.77088e-06
0.002515
8.41879e-06
0.00251363
7.98573e-06
0.00251231
7.42672e-06
0.00251103
6.67143e-06
0.00250983
5.62783e-06
0.00250871
4.20028e-06
0.0025077
2.32288e-06
0.00250683
2.56155e-09
0.0025061
-2.64175e-06
0.00250553
-5.36166e-06
0.0025051
-7.79925e-06
0.00250476
-9.54978e-06
0.00250445
-1.02572e-05
0.00250409
-9.71704e-06
0.00250362
-7.95281e-06
0.00250299
-5.23709e-06
0.00250218
-2.04409e-06
0.00250123
1.05592e-06
0.00250022
3.53004e-06
0.00249924
5.00436e-06
0.0024984
5.33905e-06
0.00249779
4.63844e-06
0.00249746
3.19951e-06
0.00249743
1.41957e-06
0.00249765
-3.0692e-07
0.00249805
-1.67397e-06
0.00249854
-2.51343e-06
0.00249903
-2.80202e-06
0.00249946
-2.63259e-06
0.00249977
-2.16453e-06
0.00249997
-1.57081e-06
0.00250007
-9.95912e-07
0.00250009
-5.32635e-07
0.00250007
-2.18256e-07
0.00250003
-4.53177e-08
0.0025
2.03809e-08
0.00249998
2.1593e-08
0.00249997
-3.96452e-09
0.00249997
-3.06796e-08
0.00249998
-4.6132e-08
0.00249999
-4.82148e-08
0.00249999
-4.06782e-08
0.0025
-2.90195e-08
0.0025
-1.77777e-08
0.0025
-9.42862e-09
0.0025
-4.49769e-09
0.0025
-2.28586e-09
0.0025
-1.6731e-09
0.0025
-1.68355e-09
0.0025
-1.72685e-09
0.0025
-1.58623e-09
0.0025
-1.28202e-09
0.0025
-9.22755e-10
0.0025
-6.05384e-10
0.0025
-3.76192e-10
0.0025
-2.35034e-10
0.0025
-1.57332e-10
0.0025
-1.14965e-10
0.0025
-8.77018e-11
0.0025
-6.54984e-11
0.0025
-4.55751e-11
0.0025
-2.84283e-11
0.0025
-1.49425e-11
0.0025
-5.28121e-12
0.0025
1.20419e-12
0.0025
5.36547e-12
0.0025
8.15815e-12
0.0025
9.91232e-12
0.0025
1.13993e-11
0.0025
1.19295e-11
0.0025
1.31375e-11
1.24861e-11
0.00250162
-2.20996e-05
0.00250662
-6.71225e-05
0.0025159
-0.000117335
0.00253102
-0.000175756
0.00255435
-0.000244958
0.00258917
-0.000326101
0.00263917
-0.00041764
0.00270685
-0.000509578
0.00279255
-0.00058981
0.00288417
-0.000621781
0.00296646
-0.000592926
0.00303707
-0.000540028
0.00309545
-0.000473389
0.00314249
-0.000401726
0.00317981
-0.000331134
0.00320886
-0.000263336
0.00323075
-0.000198414
0.00324594
-0.000134833
0.00325426
-7.07093e-05
0.00325499
-4.49192e-06
0.00324716
6.40715e-05
0.0032301
0.000133375
0.00320373