/*--------------------------------*- C++ -*----------------------------------*\
  =========                 |
  \\      /  F ield         | OpenFOAM: The Open Source CFD Toolbox
   \\    /   O peration     | Website:  https://openfoam.org
    \\  /    A nd           | Version:  11
     \\/     M anipulation  |
\*---------------------------------------------------------------------------*/
FoamFile
{
    format      ascii;
    class       volVectorField;
    location    "5.577142";
    object      U;
}
// * * * * * * * * * * * * * * * * * * * * * * * * * * * * * * * * * * * * * //

dimensions      [0 1 -1 0 0 0 0];

internalField   nonuniform List<vector> 
7132
(
(1.00014 -0.000289052 1.6158e-18)
(1.00224 -0.000872183 7.19511e-18)
(1.00699 -0.00149113 7.49592e-18)
(1.01421 -0.00215776 9.00276e-18)
(1.02422 -0.00287541 1.13213e-17)
(1.0372 -0.00362421 1.17029e-17)
(1.05322 -0.00436505 1.10415e-17)
(1.07215 -0.00502068 1.02529e-17)
(1.09346 -0.00550829 9.67241e-18)
(1.11632 -0.00574018 9.35257e-18)
(1.1395 -0.0056673 9.05691e-18)
(1.16181 -0.00535599 8.98354e-18)
(1.18245 -0.00486733 7.85069e-18)
(1.20083 -0.0042627 8.1661e-18)
(1.21661 -0.00359588 -1.06585e-18)
(1.22962 -0.00289999 -7.60892e-18)
(1.23982 -0.00219344 -1.94699e-17)
(1.24719 -0.00148327 -1.36542e-17)
(1.2517 -0.000770984 -1.85798e-17)
(1.25336 -5.84961e-05 -3.21418e-17)
(1.25217 0.000647401 -3.56359e-17)
(1.24818 0.00133241 -4.02632e-17)
(1.24149 0.0019753 -4.67466e-17)
(1.23233 0.00255102 -5.84081e-17)
(1.22101 0.00303528 -5.75902e-17)
(1.20796 0.00340914 -6.88743e-17)
(1.19364 0.00366236 -8.22806e-17)
(1.17856 0.00379455 -9.50243e-17)
(1.16319 0.00381427 -1.06793e-16)
(1.14796 0.00373662 -1.07382e-16)
(1.13323 0.00358034 -1.03892e-16)
(1.11927 0.0033651 -9.76232e-17)
(1.10627 0.00310959 -9.55362e-17)
(1.09436 0.00283035 -8.63728e-17)
(1.08361 0.00254125 -7.4562e-17)
(1.07402 0.00225351 -5.87254e-17)
(1.06557 0.00197587 -3.93395e-17)
(1.05821 0.00171489 -1.89468e-17)
(1.05186 0.00147526 7.63171e-18)
(1.04642 0.00126003 3.74487e-17)
(1.04178 0.00107083 7.03389e-17)
(1.03786 0.000908044 1.05875e-16)
(1.03453 0.000770984 1.42485e-16)
(1.03169 0.000658053 1.82738e-16)
(1.02927 0.000566956 2.23655e-16)
(1.02716 0.000494912 2.64876e-16)
(1.02531 0.000438877 3.04516e-16)
(1.02366 0.000395758 3.41365e-16)
(1.02215 0.000362603 3.76937e-16)
(1.02076 0.000336758 4.08196e-16)
(1.01946 0.000315969 4.34e-16)
(1.01823 0.000298445 4.55566e-16)
(1.01707 0.000282863 4.73763e-16)
(1.01597 0.000268341 4.86515e-16)
(1.01492 0.000254379 4.93718e-16)
(1.01393 0.00024078 4.942e-16)
(1.013 0.000227568 4.87739e-16)
(1.01211 0.000214902 4.74679e-16)
(1.01128 0.000203004 4.52967e-16)
(1.01049 0.000192102 4.22711e-16)
(1.00974 0.000182382 3.83418e-16)
(1.00903 0.000173956 3.36405e-16)
(1.00835 0.000166855 2.82915e-16)
(1.00769 0.000161023 2.22284e-16)
(1.00706 0.000156332 1.57298e-16)
(1.00644 0.000152598 8.73113e-17)
(1.00583 0.000149607 1.22153e-17)
(1.00524 0.00014714 -6.7334e-17)
(1.00466 0.000144994 -1.52474e-16)
(1.00408 0.000142998 -2.40558e-16)
(1.00351 0.000141023 -3.31959e-16)
(1.00295 0.000138983 -4.25933e-16)
(1.0024 0.000136831 -5.2095e-16)
(1.00185 0.000134553 -6.17684e-16)
(1.00132 0.000132155 -7.13938e-16)
(1.00079 0.000129655 -8.11201e-16)
(1.00028 0.000127077 -9.0963e-16)
(0.999776 0.000124439 -1.0082e-15)
(0.999282 0.000121755 -1.1063e-15)
(0.998799 0.000119023 -1.19862e-15)
(0.998328 0.000116224 -1.28162e-15)
(0.997867 0.000113314 -1.34917e-15)
(0.997418 0.000110227 -1.39406e-15)
(0.996982 0.00010688 -1.41102e-15)
(0.99656 0.000103191 -1.39364e-15)
(0.996153 9.90925e-05 -1.34309e-15)
(0.995763 9.45315e-05 -1.26559e-15)
(0.995393 8.94333e-05 -1.17547e-15)
(0.995044 8.36097e-05 -1.09781e-15)
(0.994719 7.66196e-05 -1.0624e-15)
(0.994425 6.76242e-05 -1.10674e-15)
(0.994172 5.5319e-05 -1.26646e-15)
(0.993975 3.80424e-05 -1.57047e-15)
(0.993859 1.41346e-05 -2.04239e-15)
(0.993851 -1.74617e-05 -2.69276e-15)
(0.993985 -5.64858e-05 -3.52327e-15)
(0.994287 -0.000100762 -4.5219e-15)
(0.994772 -0.000146004 -5.65371e-15)
(0.995434 -0.000186237 -6.85526e-15)
(0.996241 -0.000214871 -8.02137e-15)
(0.997133 -0.000226237 -9.01636e-15)
(0.998033 -0.00021715 -9.6979e-15)
(0.998856 -0.000188021 -9.95951e-15)
(0.999527 -0.000143082 -9.78693e-15)
(0.999994 -8.96004e-05 -9.29113e-15)
(1.00024 -3.62479e-05 -8.71868e-15)
(1.00028 8.88517e-06 -8.40544e-15)
(1.00017 4.00534e-05 -8.68203e-15)
(0.99996 5.48965e-05 -9.75882e-15)
(0.999726 5.45254e-05 -1.1611e-14)
(0.999522 4.2739e-05 -1.39318e-14)
(0.999382 2.47085e-05 -1.61713e-14)
(0.999322 5.57348e-06 -1.7671e-14)
(0.999337 -1.06589e-05 -1.78653e-14)
(0.999407 -2.16893e-05 -1.6463e-14)
(0.99951 -2.69499e-05 -1.35584e-14)
(0.999624 -2.72137e-05 -9.61522e-15)
(0.999729 -2.40052e-05 -5.3346e-15)
(0.999817 -1.90212e-05 -1.46003e-15)
(0.999882 -1.37041e-05 1.42906e-15)
(0.999927 -9.02407e-06 3.04826e-15)
(0.999955 -5.45099e-06 3.43983e-15)
(0.999971 -3.05227e-06 2.90912e-15)
(0.999979 -1.64444e-06 1.89014e-15)
(0.999983 -9.39644e-07 8.05503e-16)
(0.999986 -6.53604e-07 -4.31149e-17)
(0.999989 -5.6525e-07 -5.22067e-16)
(0.999991 -5.34829e-07 -6.46502e-16)
(0.999993 -4.94557e-07 -5.27753e-16)
(0.999995 -4.26589e-07 -3.03698e-16)
(0.999996 -3.39558e-07 -8.80841e-17)
(0.999997 -2.50248e-07 5.42211e-17)
(0.999998 -1.72654e-07 1.10929e-16)
(0.999999 -1.13782e-07 1.02374e-16)
(0.999999 -7.40019e-08 6.28797e-17)
(0.999999 -4.95648e-08 2.17186e-17)
(1 -3.53605e-08 -6.37322e-18)
(1 -2.68869e-08 -1.74042e-17)
(1 -2.11122e-08 -1.65764e-17)
(1 -1.64851e-08 -9.85795e-18)
(1 -1.24769e-08 -2.29322e-18)
(1 -9.06261e-09 2.04422e-18)
(1 -6.32721e-09 3.44415e-18)
(1 -4.28783e-09 2.27878e-18)
(1 -2.85437e-09 8.19372e-19)
(1 -1.88272e-09 4.42446e-19)
(1 -1.22294e-09 8.0683e-20)
(1 -7.62328e-10 1.61941e-19)
(1 -4.25394e-10 -2.44853e-19)
(1 -1.73791e-10 -3.24785e-19)
(1 1.59721e-11 3.74888e-19)
(1 1.5413e-10 4.98249e-19)
(1 2.53771e-10 5.97787e-19)
(1 3.20145e-10 -5.12257e-22)
(1 3.67654e-10 -2.7738e-19)
(1 3.91996e-10 3.08118e-19)
(1 4.19833e-10 4.11232e-19)
(1 4.10064e-10 4.97812e-19)
(1 4.59376e-10 8.32608e-20)
(1 3.88077e-10 -8.90248e-19)
(1.00014 -0.000864292 2.73286e-20)
(1.00222 -0.00260924 3.46911e-19)
(1.00693 -0.00446287 6.97806e-19)
(1.01411 -0.0064633 1.07487e-18)
(1.02408 -0.00862158 1.48165e-18)
(1.03705 -0.0108792 1.8595e-18)
(1.05313 -0.0131194 2.22204e-18)
(1.07219 -0.0151065 2.05471e-18)
(1.09373 -0.0165884 5.61929e-18)
(1.11689 -0.0172911 7.07746e-18)
(1.14035 -0.0170627 4.19991e-18)
(1.16288 -0.0161145 4.33245e-18)
(1.18368 -0.0146336 -5.46198e-20)
(1.20216 -0.0128073 1.29344e-17)
(1.21799 -0.0107987 4.93061e-17)
(1.23103 -0.00870697 9.67698e-17)
(1.24124 -0.00658613 1.30717e-16)
(1.24861 -0.00445534 1.30217e-16)
(1.25313 -0.0023172 8.64978e-17)
(1.25479 -0.000175575 8.42232e-18)
(1.25359 0.00194962 -8.1763e-17)
(1.24956 0.00401458 -1.70656e-16)
(1.24281 0.005954 -2.49515e-16)
(1.23356 0.00769099 -3.13069e-16)
(1.22214 0.00915104 -3.57319e-16)
(1.20897 0.0102763 -3.81425e-16)
(1.19452 0.0110359 -3.85804e-16)
(1.17932 0.011429 -3.71664e-16)
(1.16384 0.0114824 -3.40535e-16)
(1.14852 0.0112424 -2.951e-16)
(1.13371 0.0107663 -2.29164e-16)
(1.11969 0.0101138 -1.64615e-16)
(1.10665 0.00934139 -9.1218e-17)
(1.09472 0.00849893 -5.80998e-18)
(1.08396 0.00762803 8.09261e-17)
(1.07437 0.00676218 1.80266e-16)
(1.06593 0.00592742 2.79759e-16)
(1.05859 0.00514325 3.79864e-16)
(1.05225 0.00442355 4.84223e-16)
(1.04683 0.00377737 5.88122e-16)
(1.04222 0.00320951 6.95424e-16)
(1.03831 0.00272105 7.97855e-16)
(1.035 0.00230988 8.94748e-16)
(1.03219 0.00197119 9.85572e-16)
(1.02978 0.0016981 1.06573e-15)
(1.02769 0.00148225 1.13503e-15)
(1.02585 0.00131449 1.18673e-15)
(1.0242 0.00118552 1.22107e-15)
(1.0227 0.00108647 1.2384e-15)
(1.02131 0.00100936 1.23616e-15)
(1.02002 0.000947388 1.21682e-15)
(1.01879 0.00089517 1.18037e-15)
(1.01763 0.00084872 1.12665e-15)
(1.01652 0.000805386 1.05722e-15)
(1.01548 0.000763666 9.70264e-16)
(1.01448 0.000722975 8.67332e-16)
(1.01355 0.000683387 7.46431e-16)
(1.01266 0.000645395 6.0643e-16)
(1.01182 0.000609681 4.48238e-16)
(1.01103 0.000576937 2.71547e-16)
(1.01028 0.000547732 8.07475e-17)
(1.00957 0.000522416 -1.22443e-16)
(1.00889 0.000501085 -3.34722e-16)
(1.00823 0.000483579 -5.53479e-16)
(1.00759 0.000469511 -7.75679e-16)
(1.00697 0.00045833 -9.9857e-16)
(1.00637 0.000449393 -1.22565e-15)
(1.00577 0.000442038 -1.45315e-15)
(1.00518 0.00043565 -1.681e-15)
(1.00461 0.000429715 -1.90649e-15)
(1.00403 0.000423839 -2.12615e-15)
(1.00347 0.000417766 -2.34185e-15)
(1.00291 0.000411356 -2.54899e-15)
(1.00237 0.000404564 -2.74846e-15)
(1.00183 0.000397412 -2.93978e-15)
(1.0013 0.000389957 -3.1226e-15)
(1.00078 0.000382267 -3.30017e-15)
(1.00027 0.000374406 -3.46591e-15)
(0.999776 0.000366411 -3.61427e-15)
(0.999288 0.000358282 -3.73358e-15)
(0.998812 0.000349961 -3.80948e-15)
(0.998346 0.000341323 -3.83053e-15)
(0.997892 0.00033217 -3.77839e-15)
(0.99745 0.000322257 -3.64254e-15)
(0.997021 0.000311332 -3.41681e-15)
(0.996608 0.000299189 -3.10733e-15)
(0.99621 0.000285665 -2.741e-15)
(0.995831 0.000270536 -2.35721e-15)
(0.995474 0.000253255 -2.01942e-15)
(0.99514 0.000232535 -1.8027e-15)
(0.994836 0.00020592 -1.7877e-15)
(0.994571 0.000169568 -2.05196e-15)
(0.994361 0.000118554 -2.6524e-15)
(0.994228 4.79179e-05 -3.63279e-15)
(0.994201 -4.55676e-05 -5.01824e-15)
(0.99431 -0.000161261 -6.81152e-15)
(0.994582 -0.00029285 -8.97977e-15)
(0.995034 -0.000427723 -1.14258e-14)
(0.995659 -0.000548167 -1.39691e-14)
(0.996427 -0.000634534 -1.63334e-14)
(0.997282 -0.000669786 -1.81839e-14)
(0.998146 -0.000644203 -1.92143e-14)
(0.998938 -0.000558733 -1.92655e-14)
(0.999583 -0.000425757 -1.84503e-14)
(1.00003 -0.000266801 -1.72098e-14)
(1.00026 -0.000107719 -1.62724e-14)
(1.00029 2.72383e-05 -1.64941e-14)
(1.00017 0.000120719 -1.85999e-14)
(0.999958 0.000165448 -2.29138e-14)
(0.999721 0.000164552 -2.91345e-14)
(0.999514 0.000129276 -3.62647e-14)
(0.999374 7.50641e-05 -4.27612e-14)
(0.999314 1.73591e-05 -4.69027e-14)
(0.999329 -3.17341e-05 -4.72993e-14)
(0.999401 -6.52105e-05 -4.33454e-14)
(0.999507 -8.12774e-05 -3.54459e-14)
(0.999622 -8.2207e-05 -2.49309e-14)
(0.99973 -7.2575e-05 -1.36837e-14)
(0.999819 -5.75101e-05 -3.62548e-15)
(0.999885 -4.13951e-05 3.78812e-15)
(0.99993 -2.71936e-05 7.88485e-15)
(0.999957 -1.6351e-05 8.82755e-15)
(0.999972 -9.08395e-06 7.43061e-15)
(0.99998 -4.83816e-06 4.81468e-15)
(0.999984 -2.7352e-06 2.04981e-15)
(0.999986 -1.90448e-06 -1.0675e-16)
(0.999989 -1.66825e-06 -1.32258e-15)
(0.999991 -1.59864e-06 -1.64013e-15)
(0.999993 -1.48964e-06 -1.34054e-15)
(0.999995 -1.28917e-06 -7.74601e-16)
(0.999996 -1.0264e-06 -2.29604e-16)
(0.999998 -7.54918e-07 1.3168e-16)
(0.999998 -5.18909e-07 2.77452e-16)
(0.999999 -3.40352e-07 2.59557e-16)
(0.999999 -2.2038e-07 1.61363e-16)
(0.999999 -1.47293e-07 5.65042e-17)
(1 -1.05242e-07 -1.58891e-17)
(1 -8.03487e-08 -4.49708e-17)
(1 -6.33585e-08 -4.20089e-17)
(1 -4.96086e-08 -2.47544e-17)
(1 -3.75867e-08 -6.40276e-18)
(1 -2.72933e-08 4.02868e-18)
(1 -1.90398e-08 7.35069e-18)
(1 -1.28953e-08 5.94238e-18)
(1 -8.59179e-09 2.7584e-18)
(1 -5.68389e-09 9.45825e-19)
(1 -3.71562e-09 -7.19948e-19)
(1 -2.34027e-09 -9.2429e-19)
(1 -1.33357e-09 -5.14174e-19)
(1 -5.78156e-10 -2.21691e-19)
(1 -8.56054e-12 7.2501e-19)
(1 4.0824e-10 3.32184e-19)
(1 7.07524e-10 2.07237e-19)
(1 9.08587e-10 1.48684e-19)
(1 1.05099e-09 -5.44058e-20)
(1 1.12636e-09 6.03786e-19)
(1 1.20883e-09 1.44911e-19)
(1 1.18461e-09 4.06993e-20)
(1 1.32501e-09 1.90738e-19)
(1 1.12813e-09 -5.99182e-19)
(1.00014 -0.00143157 2.93232e-22)
(1.00218 -0.00432376 4.94061e-21)
(1.00681 -0.00740271 6.95872e-21)
(1.01389 -0.0107379 2.02214e-20)
(1.02378 -0.0143524 -1.37405e-19)
(1.03674 -0.0181528 2.70643e-19)
(1.05293 -0.0219465 -8.11585e-19)
(1.07226 -0.0253282 -1.50367e-18)
(1.09425 -0.0278643 6.5115e-18)
(1.11801 -0.0290603 -1.23027e-18)
(1.14205 -0.0286458 -3.88446e-17)
(1.16503 -0.0270159 -3.03681e-17)
(1.18614 -0.0244964 1.11777e-16)
(1.20481 -0.0214091 3.53357e-16)
(1.22074 -0.0180311 5.28516e-16)
(1.23384 -0.0145265 4.58204e-16)
(1.24407 -0.0109826 7.23504e-17)
(1.25145 -0.00742718 -5.48777e-16)
(1.25598 -0.00386046 -1.23123e-15)
(1.25764 -0.000285735 -1.74862e-15)
(1.25641 0.00326605 -2.07295e-15)
(1.25231 0.00672236 -2.20778e-15)
(1.24545 0.00997259 -2.17111e-15)
(1.23603 0.0128855 -1.99116e-15)
(1.22439 0.0153334 -1.70095e-15)
(1.21096 0.0172174 -1.33341e-15)
(1.19626 0.0184848 -9.17897e-16)
(1.1808 0.0191348 -4.78401e-16)
(1.16508 0.0192134 -3.31429e-17)
(1.14956 0.0188 4.04281e-16)
(1.1346 0.0179919 8.26033e-16)
(1.12046 0.0168903 1.22553e-15)
(1.10735 0.0155903 1.59979e-15)
(1.09537 0.0141754 1.94907e-15)
(1.08459 0.0127151 2.27378e-15)
(1.075 0.011265 2.57596e-15)
(1.06658 0.00986838 2.85601e-15)
(1.05926 0.00855753 3.1131e-15)
(1.05296 0.00735543 3.34599e-15)
(1.04758 0.00627697 3.55169e-15)
(1.04302 0.00533005 3.72624e-15)
(1.03916 0.00451635 3.8632e-15)
(1.03589 0.00383223 3.95484e-15)
(1.03312 0.00326952 3.99347e-15)
(1.03075 0.00281656 3.97224e-15)
(1.02869 0.00245925 3.88692e-15)
(1.02687 0.00218216 3.73556e-15)
(1.02525 0.00196963 3.51915e-15)
(1.02376 0.00180674 3.24136e-15)
(1.02238 0.00168008 2.90724e-15)
(1.02109 0.00157829 2.52381e-15)
(1.01986 0.00149237 2.09703e-15)
(1.0187 0.00141569 1.63051e-15)
(1.01759 0.00134388 1.12913e-15)
(1.01654 0.0012745 5.93463e-16)
(1.01555 0.00120665 2.38822e-17)
(1.0146 0.00114053 -5.80446e-16)
(1.01371 0.001077 -1.21935e-15)
(1.01287 0.00101727 -1.88706e-15)
(1.01208 0.000962531 -2.57673e-15)
(1.01133 0.000913751 -3.27767e-15)
(1.01062 0.000871534 -3.97994e-15)
(1.00993 0.000836041 -4.67393e-15)
(1.00927 0.000806994 -5.35149e-15)
(1.00864 0.000783736 -6.00973e-15)
(1.00801 0.000765327 -6.64447e-15)
(1.0074 0.000750675 -7.25634e-15)
(1.0068 0.000738657 -7.84371e-15)
(1.00621 0.000728235 -8.40234e-15)
(1.00563 0.000718539 -8.92812e-15)
(1.00505 0.000708917 -9.41325e-15)
(1.00448 0.000698939 -9.8557e-15)
(1.00392 0.00068838 -1.02553e-14)
(1.00337 0.000677177 -1.06149e-14)
(1.00282 0.000665373 -1.09399e-14)
(1.00228 0.00065307 -1.12298e-14)
(1.00176 0.00064039 -1.14811e-14)
(1.00124 0.000627442 -1.16788e-14)
(1.00074 0.000614297 -1.17965e-14)
(1.00024 0.000600959 -1.18001e-14)
(0.999756 0.000587339 -1.1646e-14)
(0.99928 0.000573233 -1.12938e-14)
(0.998816 0.000558318 -1.07063e-14)
(0.998363 0.000542183 -9.85986e-15)
(0.997922 0.000524405 -8.75477e-15)
(0.997495 0.000504621 -7.42263e-15)
(0.997083 0.000482544 -5.94387e-15)
(0.996689 0.000457798 -4.44741e-15)
(0.996315 0.000429491 -3.10779e-15)
(0.995963 0.000395553 -2.12808e-15)
(0.99564 0.000352023 -1.70805e-15)
(0.995355 0.000292672 -2.01917e-15)
(0.995121 0.000209475 -3.18683e-15)
(0.99496 9.42787e-05 -5.29513e-15)
(0.994898 -5.83168e-05 -8.39682e-15)
(0.994965 -0.000247453 -1.24914e-14)
(0.995187 -0.000463009 -1.74676e-14)
(0.99558 -0.000684497 -2.30255e-14)
(0.996138 -0.000882944 -2.86102e-14)
(0.996834 -0.00102604 -3.34248e-14)
(0.997614 -0.00108558 -3.65833e-14)
(0.998406 -0.00104529 -3.74081e-14)
(0.999131 -0.00090641 -3.5796e-14)
(0.999717 -0.000689061 -3.25106e-14)
(1.00011 -0.000428554 -2.92473e-14)
(1.00031 -0.000167504 -2.8376e-14)
(1.00031 5.39745e-05 -3.23648e-14)
(1.00017 0.000207059 -4.30033e-14)
(0.999943 0.000279546 -6.0672e-14)
(0.999699 0.000276481 -8.38319e-14)
(0.99949 0.000216426 -1.08942e-13)
(0.999351 0.000125015 -1.31007e-13)
(0.999294 2.79595e-05 -1.44744e-13)
(0.999315 -5.4519e-05 -1.46098e-13)
(0.999393 -0.000110677 -1.33566e-13)
(0.999504 -0.000137486 -1.08773e-13)
(0.999625 -0.000138757 -7.60951e-14)
(0.999736 -0.000122206 -4.14641e-14)
(0.999826 -9.65077e-05 -1.07571e-14)
(0.999893 -6.90998e-05 1.16835e-14)
(0.999937 -4.50192e-05 2.39482e-14)
(0.999963 -2.67197e-05 2.666e-14)
(0.999976 -1.45543e-05 2.23542e-14)
(0.999982 -7.55252e-06 1.4439e-14)
(0.999985 -4.18843e-06 6.12687e-15)
(0.999987 -2.95449e-06 -3.3416e-16)
(0.999989 -2.68299e-06 -3.96397e-15)
(0.999991 -2.64486e-06 -4.90798e-15)
(0.999993 -2.49884e-06 -4.01098e-15)
(0.999995 -2.1705e-06 -2.31995e-15)
(0.999996 -1.72328e-06 -6.939e-16)
(0.999998 -1.25836e-06 3.88076e-16)
(0.999998 -8.56096e-07 8.26243e-16)
(0.999999 -5.55059e-07 7.75265e-16)
(0.999999 -3.5606e-07 4.83944e-16)
(0.999999 -2.37402e-07 1.69061e-16)
(1 -1.70729e-07 -4.63745e-17)
(1 -1.31804e-07 -1.33903e-16)
(1 -1.04925e-07 -1.25805e-16)
(1 -8.25554e-08 -7.41558e-17)
(1 -6.25783e-08 -2.12973e-17)
(1 -4.53283e-08 1.1449e-17)
(1 -3.15117e-08 2.17969e-17)
(1 -2.12916e-08 1.76511e-17)
(1 -1.42e-08 8.57603e-18)
(1 -9.44843e-09 1.13966e-18)
(1 -6.24808e-09 -2.48476e-18)
(1 -4.00707e-09 -2.89091e-18)
(1 -2.35752e-09 -1.7222e-18)
(1 -1.11e-09 -4.27833e-19)
(1 -1.66297e-10 4.19989e-19)
(1 5.26594e-10 6.51003e-19)
(1 1.02273e-09 5.20124e-19)
(1 1.35742e-09 3.07041e-19)
(1 1.59293e-09 1.24509e-19)
(1 1.72134e-09 1.12078e-19)
(1 1.85554e-09 1.2773e-19)
(1 1.82703e-09 1.34062e-19)
(1 2.03967e-09 1.70011e-19)
(1 1.75397e-09 7.03047e-20)
(1.00014 -0.00198535 -3.3461e-20)
(1.00211 -0.00599899 -4.64926e-19)
(1.00661 -0.010287 -7.54918e-19)
(1.01354 -0.0149571 -1.49857e-18)
(1.02331 -0.020053 -1.59775e-18)
(1.03623 -0.0254532 -1.52131e-18)
(1.05256 -0.0308926 -1.12247e-17)
(1.0723 -0.0357782 1.84907e-17)
(1.09499 -0.0394744 3.47214e-18)
(1.11968 -0.0412019 -1.43799e-16)
(1.14462 -0.0405451 -2.35807e-17)
(1.16826 -0.0381545 6.93312e-16)
(1.18984 -0.0345165 1.35714e-15)
(1.20879 -0.0301027 7.67204e-16)
(1.22487 -0.0253122 -1.76904e-15)
(1.23803 -0.0203714 -5.83143e-15)
(1.2483 -0.0153949 -1.01479e-14)
(1.25569 -0.0104108 -1.32898e-14)
(1.26023 -0.00540899 -1.43204e-14)
(1.26189 -0.000385304 -1.28992e-14)
(1.26062 0.00462015 -1.02249e-14)
(1.25642 0.00950324 -6.95968e-15)
(1.24938 0.0141028 -3.51085e-15)
(1.2397 0.018227 -1.58013e-16)
(1.22773 0.0216891 2.91495e-15)
(1.21393 0.0243453 5.60287e-15)
(1.19883 0.0261199 7.86481e-15)
(1.18298 0.0270138 9.7051e-15)
(1.16692 0.0270958 1.11567e-14)
(1.1511 0.0264823 1.22655e-14)
(1.1359 0.0253143 1.30915e-14)
(1.12159 0.023737 1.36649e-14)
(1.10836 0.0218859 1.40416e-14)
(1.09631 0.0198787 1.42661e-14)
(1.08549 0.0178126 1.43585e-14)
(1.0759 0.0157655 1.43499e-14)
(1.0675 0.0137973 1.42383e-14)
(1.06023 0.0119526 1.4026e-14)
(1.05398 0.0102632 1.37116e-14)
(1.04867 0.00874954 1.32804e-14)
(1.04418 0.0074223 1.2723e-14)
(1.04039 0.00628359 1.20153e-14)
(1.03719 0.00532794 1.11429e-14)
(1.03448 0.00454361 1.00961e-14)
(1.03217 0.00391388 8.87016e-15)
(1.03015 0.00341861 7.47605e-15)
(1.02838 0.00303583 5.92696e-15)
(1.02678 0.00274329 4.24984e-15)
(1.02531 0.0025198 2.4738e-15)
(1.02394 0.00234639 6.2447e-16)
(1.02266 0.00220703 -1.27106e-15)
(1.02143 0.00208909 -3.19464e-15)
(1.02027 0.00198333 -5.13539e-15)
(1.01916 0.00188372 -7.08756e-15)
(1.0181 0.00178698 -9.05337e-15)
(1.0171 0.00169198 -1.10317e-14)
(1.01616 0.00159915 -1.30208e-14)
(1.01526 0.00150985 -1.50105e-14)
(1.01442 0.00142587 -1.69796e-14)
(1.01363 0.00134895 -1.89019e-14)
(1.01287 0.00128051 -2.07451e-14)
(1.01216 0.00122142 -2.24836e-14)
(1.01147 0.00117192 -2.40993e-14)
(1.01081 0.00113158 -2.5585e-14)
(1.01017 0.00109946 -2.69417e-14)
(1.00955 0.0010742 -2.81745e-14)
(1.00893 0.00105422 -2.92924e-14)
(1.00833 0.00103791 -3.02909e-14)
(1.00773 0.00102379 -3.11621e-14)
(1.00714 0.00101063 -3.18926e-14)
(1.00655 0.000997508 -3.24719e-14)
(1.00597 0.000983831 -3.29043e-14)
(1.0054 0.000969301 -3.31992e-14)
(1.00484 0.000953849 -3.33785e-14)
(1.00428 0.000937554 -3.34593e-14)
(1.00374 0.000920578 -3.34434e-14)
(1.0032 0.000903104 -3.33105e-14)
(1.00267 0.000885296 -3.30009e-14)
(1.00216 0.000867262 -3.24298e-14)
(1.00165 0.000849019 -3.14896e-14)
(1.00115 0.000830456 -3.00663e-14)
(1.00066 0.000811299 -2.80592e-14)
(1.00018 0.000791104 -2.53842e-14)
(0.99971 0.000769297 -2.20037e-14)
(0.999252 0.000745268 -1.794e-14)
(0.998806 0.000718482 -1.33032e-14)
(0.998373 0.000688503 -8.31639e-15)
(0.997957 0.000654782 -3.31206e-15)
(0.997559 0.000616106 1.27643e-15)
(0.997182 0.000569695 4.97545e-15)
(0.996832 0.000510233 7.34479e-15)
(0.996516 0.00042933 8.04533e-15)
(0.996248 0.00031611 6.87389e-15)
(0.996047 0.000159434 3.71714e-15)
(0.995937 -4.82048e-05 -1.49462e-15)
(0.995945 -0.000305885 -8.72575e-15)
(0.996096 -0.000600087 -1.76371e-14)
(0.996403 -0.000903066 -2.73703e-14)
(0.996865 -0.00117532 -3.64169e-14)
(0.997456 -0.00137253 -4.27457e-14)
(0.998126 -0.00145583 -4.43463e-14)
(0.998808 -0.00140253 -4.01293e-14)
(0.99943 -0.00121397 -3.08936e-14)
(0.999923 -0.000917553 -1.99493e-14)
(1.00024 -0.000561724 -1.2994e-14)
(1.00037 -0.000205177 -1.71002e-14)
(1.00033 9.66839e-05 -3.89187e-14)
(1.00015 0.000303963 -8.24917e-14)
(0.99991 0.000399723 -1.47433e-13)
(0.999657 0.000390945 -2.27753e-13)
(0.999446 0.000303437 -3.11871e-13)
(0.999311 0.000172915 -3.84375e-13)
(0.999262 3.52784e-05 -4.29504e-13)
(0.999293 -8.11872e-05 -4.35583e-13)
(0.999382 -0.000160048 -3.98803e-13)
(0.999503 -0.000197122 -3.24743e-13)
(0.999631 -0.000197893 -2.27058e-13)
(0.999747 -0.000173394 -1.23776e-13)
(0.99984 -0.000136048 -3.24789e-14)
(0.999906 -9.65124e-05 3.40376e-14)
(0.999948 -6.20035e-05 7.02974e-14)
(0.999971 -3.60082e-05 7.83111e-14)
(0.999982 -1.89691e-05 6.56671e-14)
(0.999986 -9.40918e-06 4.24396e-14)
(0.999987 -5.05374e-06 1.80653e-14)
(0.999988 -3.67431e-06 -8.7775e-16)
(0.999989 -3.56246e-06 -1.15335e-14)
(0.999991 -3.67189e-06 -1.433e-14)
(0.999993 -3.53637e-06 -1.17358e-14)
(0.999995 -3.08261e-06 -6.8084e-15)
(0.999997 -2.43302e-06 -2.05745e-15)
(0.999998 -1.75468e-06 1.11166e-15)
(0.999999 -1.17355e-06 2.40333e-15)
(0.999999 -7.46644e-07 2.26412e-15)
(0.999999 -4.71929e-07 1.4183e-15)
(0.999999 -3.13883e-07 4.99895e-16)
(1 -2.28567e-07 -1.31717e-16)
(1 -1.79821e-07 -3.89955e-16)
(1 -1.4528e-07 -3.6813e-16)
(1 -1.15068e-07 -2.1807e-16)
(1 -8.71802e-08 -6.3056e-17)
(1 -6.2832e-08 3.25041e-17)
(1 -4.33974e-08 6.30546e-17)
(1 -2.91884e-08 5.11896e-17)
(1 -1.94799e-08 2.47147e-17)
(1 -1.30654e-08 3.51864e-18)
(1 -8.77442e-09 -7.64193e-18)
(1 -5.75791e-09 -8.95779e-18)
(1 -3.51308e-09 -5.54241e-18)
(1 -1.79635e-09 -1.77085e-18)
(1 -4.89636e-10 1.29681e-18)
(1 4.71507e-10 1.48316e-18)
(1 1.15815e-09 1.02949e-18)
(1 1.62135e-09 4.32525e-19)
(1 1.946e-09 -1.08208e-19)
(1 2.12782e-09 4.4121e-19)
(1 2.30937e-09 -6.17578e-21)
(1 2.28858e-09 -6.64094e-20)
(1 2.54895e-09 1.20813e-19)
(1 2.21949e-09 -5.92995e-19)
(1.00013 -0.00251883 -2.17026e-18)
(1.00202 -0.00761559 -7.1703e-18)
(1.00633 -0.0130871 -5.58819e-18)
(1.01304 -0.0190896 -8.37034e-18)
(1.02261 -0.0256997 1.23067e-18)
(1.03544 -0.0327799 -2.9987e-17)
(1.05195 -0.0399991 2.25646e-17)
(1.07222 -0.0465517 8.35619e-17)
(1.09587 -0.0515723 -4.49767e-16)
(1.12188 -0.053888 4.63522e-17)
(1.14807 -0.0528975 2.50218e-15)
(1.17261 -0.049627 2.5627e-15)
(1.1948 -0.0447532 -5.3474e-15)
(1.21411 -0.038917 -2.11373e-14)
(1.23036 -0.0326494 -3.82661e-14)
(1.2436 -0.0262355 -4.83377e-14)
(1.25389 -0.019811 -4.60064e-14)
(1.2613 -0.0133952 -3.11026e-14)
(1.26586 -0.00695763 -7.56242e-15)
(1.26752 -0.000479268 1.78226e-14)
(1.26621 0.0059974 4.06361e-14)
(1.26189 0.0123387 5.91322e-14)
(1.25462 0.0183288 7.27745e-14)
(1.24459 0.0237071 8.17298e-14)
(1.23217 0.0282192 8.65857e-14)
(1.21785 0.0316695 8.81066e-14)
(1.2022 0.0339566 8.71221e-14)
(1.18583 0.0350841 8.43534e-14)
(1.1693 0.0351473 8.04076e-14)
(1.15309 0.0343044 7.576e-14)
(1.13757 0.0327449 7.07525e-14)
(1.12303 0.0306614 6.563e-14)
(1.10964 0.0282315 6.05431e-14)
(1.09749 0.0256081 5.55543e-14)
(1.08664 0.0229168 5.06849e-14)
(1.07705 0.020257 4.59085e-14)
(1.06869 0.0177048 4.11678e-14)
(1.06147 0.0153171 3.63905e-14)
(1.05531 0.013134 3.14942e-14)
(1.05008 0.0111813 2.64091e-14)
(1.04569 0.00947226 2.10758e-14)
(1.04199 0.00800919 1.54547e-14)
(1.03889 0.00678452 9.53405e-15)
(1.03626 0.00578251 3.33431e-15)
(1.03402 0.00498098 -3.08241e-15)
(1.03207 0.00435332 -9.6261e-15)
(1.03035 0.00387054 -1.61903e-14)
(1.02879 0.00350341 -2.26702e-14)
(1.02734 0.00322417 -2.89775e-14)
(1.02599 0.00300806 -3.50437e-14)
(1.02471 0.00283429 -4.08295e-14)
(1.02349 0.00268656 -4.63272e-14)
(1.02232 0.00255311 -5.15533e-14)
(1.02121 0.00242639 -5.65346e-14)
(1.02015 0.00230241 -6.13038e-14)
(1.01914 0.00218001 -6.58744e-14)
(1.01819 0.00206001 -7.02364e-14)
(1.01729 0.0019444 -7.43478e-14)
(1.01645 0.00183567 -7.81365e-14)
(1.01565 0.00173621 -8.15249e-14)
(1.01489 0.00164794 -8.44414e-14)
(1.01418 0.00157201 -8.6848e-14)
(1.01349 0.00150871 -8.87433e-14)
(1.01283 0.00145747 -9.01606e-14)
(1.01218 0.00141699 -9.11573e-14)
(1.01155 0.00138545 -9.17853e-14)
(1.01093 0.00136073 -9.20826e-14)
(1.01032 0.00134069 -9.20515e-14)
(1.00971 0.00132338 -9.16687e-14)
(1.00911 0.00130717 -9.09065e-14)
(1.00852 0.0012909 -8.97508e-14)
(1.00793 0.0012738 -8.82317e-14)
(1.00734 0.00125554 -8.64117e-14)
(1.00677 0.00123605 -8.43702e-14)
(1.0062 0.00121548 -8.2166e-14)
(1.00564 0.00119406 -7.97907e-14)
(1.00509 0.00117205 -7.71541e-14)
(1.00455 0.00114968 -7.40699e-14)
(1.00402 0.00112712 -7.02848e-14)
(1.00349 0.00110439 -6.55166e-14)
(1.00298 0.00108137 -5.94907e-14)
(1.00247 0.00105774 -5.19869e-14)
(1.00197 0.00103294 -4.2856e-14)
(1.00148 0.00100621 -3.20523e-14)
(1.001 0.000976773 -1.96665e-14)
(1.00053 0.000943877 -5.96019e-15)
(1.00007 0.000906906 8.5848e-15)
(0.999624 0.000865117 2.32718e-14)
(0.999195 0.000816985 3.72368e-14)
(0.998785 0.000759113 4.95786e-14)
(0.998399 0.000685021 5.95412e-14)
(0.998045 0.000584449 6.66584e-14)
(0.997733 0.000444018 7.07894e-14)
(0.99748 0.00024991 7.19793e-14)
(0.997309 -7.34575e-06 7.02715e-14)
(0.997241 -0.000326905 6.58187e-14)
(0.997301 -0.000692337 5.9501e-14)
(0.997499 -0.00106945 5.34306e-14)
(0.997836 -0.00140919 5.11369e-14)
(0.998288 -0.00165627 5.6967e-14)
(0.998812 -0.00176186 7.44353e-14)
(0.999348 -0.00169723 1.03839e-13)
(0.999829 -0.00146372 1.40014e-13)
(1.0002 -0.0010954 1.71327e-13)
(1.00041 -0.000653006 1.80725e-13)
(1.00045 -0.000210338 1.48974e-13)
(1.00034 0.000162806 5.96424e-14)
(1.00013 0.000416114 -9.5325e-14)
(0.999856 0.00052829 -3.11359e-13)
(0.999591 0.00050837 -5.68599e-13)
(0.99938 0.000389353 -8.3229e-13)
(0.999252 0.000216908 -1.05781e-12)
(0.999216 3.69907e-05 -1.20044e-12)
(0.999262 -0.000114159 -1.22763e-12)
(0.999366 -0.000215534 -1.12956e-12)
(0.999501 -0.000261958 -9.23083e-13)
(0.99964 -0.000260816 -6.47921e-13)
(0.999763 -0.000226746 -3.55912e-13)
(0.999859 -0.000176209 -9.72894e-14)
(0.999925 -0.000123321 9.15429e-14)
(0.999964 -7.76136e-05 1.95036e-13)
(0.999983 -4.36239e-05 2.18826e-13)
(0.99999 -2.17992e-05 1.84246e-13)
(0.99999 -1.0012e-05 1.19606e-13)
(0.999989 -5.08498e-06 5.14348e-14)
(0.999988 -3.94651e-06 -1.74786e-15)
(0.999989 -4.27695e-06 -3.18302e-14)
(0.999991 -4.69481e-06 -3.99162e-14)
(0.999993 -4.62887e-06 -3.28494e-14)
(0.999995 -4.04463e-06 -1.91604e-14)
(0.999997 -3.16107e-06 -5.88709e-15)
(0.999998 -2.23787e-06 3.01232e-15)
(0.999999 -1.45939e-06 6.67423e-15)
(0.999999 -9.0271e-07 6.32471e-15)
(0.999999 -5.58301e-07 3.98147e-15)
(1 -3.70725e-07 1.41601e-15)
(1 -2.75838e-07 -3.54535e-16)
(1 -2.23393e-07 -1.08405e-15)
(1 -1.84231e-07 -1.02898e-15)
(1 -1.47082e-07 -6.11284e-16)
(1 -1.11184e-07 -1.79883e-16)
(1 -7.9452e-08 8.89391e-17)
(1 -5.43047e-08 1.75582e-16)
(1 -3.62484e-08 1.42913e-16)
(1 -2.41929e-08 6.99387e-17)
(1 -1.63913e-08 8.88624e-18)
(1 -1.122e-08 -2.16732e-17)
(1 -7.55671e-09 -2.52047e-17)
(1 -4.78267e-09 -1.58057e-17)
(1 -2.62694e-09 -4.41887e-18)
(1 -9.73119e-10 2.42459e-18)
(1 2.44567e-10 3.72222e-18)
(1 1.11046e-09 2.70515e-18)
(1 1.69333e-09 9.3619e-19)
(1 2.09944e-09 2.77411e-19)
(1 2.33343e-09 7.72703e-20)
(1 2.556e-09 -4.13464e-19)
(1 2.55513e-09 -2.87877e-19)
(1 2.83788e-09 -9.32098e-20)
(1 2.51105e-09 -1.1447e-19)
(1.00012 -0.00302438 1.97878e-18)
(1.00189 -0.00915112 8.07278e-18)
(1.00596 -0.0157685 5.67226e-18)
(1.01235 -0.0230954 1.00038e-17)
(1.02162 -0.0312581 2.25422e-17)
(1.0343 -0.0401216 -9.87068e-17)
(1.05097 -0.0493014 4.73027e-16)
(1.07189 -0.0577494 -1.00854e-15)
(1.09679 -0.0643339 -4.4657e-16)
(1.12459 -0.0673162 7.06087e-15)
(1.15242 -0.0658511 2.30398e-15)
(1.1781 -0.0615296 -3.20986e-14)
(1.20105 -0.0552587 -7.7079e-14)
(1.22077 -0.0478762 -8.90866e-14)
(1.2372 -0.0400571 -3.59777e-14)
(1.2505 -0.0321345 8.27074e-14)
(1.2608 -0.0242514 2.39538e-13)
(1.26823 -0.0164005 3.9469e-13)
(1.27281 -0.00851652 5.1375e-13)
(1.27448 -0.00055267 5.68273e-13)
(1.27313 0.00744765 5.81081e-13)
(1.26867 0.0153142 5.65378e-13)
(1.26111 0.0227662 5.30243e-13)
(1.25065 0.0294624 4.83213e-13)
(1.23765 0.0350702 4.30506e-13)
(1.22267 0.0393356 3.76754e-13)
(1.20633 0.04213 3.25065e-13)
(1.1893 0.0434634 2.772e-13)
(1.17217 0.0434647 2.33943e-13)
(1.15546 0.0423419 1.95443e-13)
(1.13956 0.0403392 1.61443e-13)
(1.12473 0.0377016 1.31463e-13)
(1.11115 0.0346513 1.04886e-13)
(1.0989 0.0313774 8.1046e-14)
(1.088 0.0280331 5.92582e-14)
(1.07842 0.0247387 3.88813e-14)
(1.07011 0.0215861 1.93488e-14)
(1.06297 0.0186434 1.95114e-16)
(1.05691 0.0159584 -1.89206e-14)
(1.0518 0.0135618 -3.82222e-14)
(1.04752 0.0114692 -5.78002e-14)
(1.04395 0.00968251 -7.76131e-14)
(1.04096 0.00819177 -9.74853e-14)
(1.03845 0.00697679 -1.17118e-13)
(1.0363 0.00600942 -1.36139e-13)
(1.03443 0.00525605 -1.54154e-13)
(1.03277 0.00468019 -1.70817e-13)
(1.03125 0.00424514 -1.85877e-13)
(1.02984 0.00391619 -1.99201e-13)
(1.02851 0.00366253 -2.10783e-13)
(1.02724 0.00345844 -2.20719e-13)
(1.02602 0.00328392 -2.29184e-13)
(1.02484 0.00312474 -2.36395e-13)
(1.02372 0.00297195 -2.42569e-13)
(1.02265 0.00282107 -2.47867e-13)
(1.02164 0.00267111 -2.52353e-13)
(1.02068 0.00252347 -2.55976e-13)
(1.01978 0.00238097 -2.58581e-13)
(1.01893 0.00224693 -2.5996e-13)
(1.01813 0.00212452 -2.59916e-13)
(1.01737 0.00201621 -2.58337e-13)
(1.01665 0.00192347 -2.55233e-13)
(1.01597 0.00184665 -2.5075e-13)
(1.0153 0.00178498 -2.4513e-13)
(1.01465 0.00173677 -2.38642e-13)
(1.01402 0.00169966 -2.31512e-13)
(1.01339 0.00167093 -2.23858e-13)
(1.01277 0.00164786 -2.15679e-13)
(1.01215 0.00162796 -2.06891e-13)
(1.01154 0.00160924 -1.974e-13)
(1.01093 0.00159023 -1.87189e-13)
(1.01033 0.00157006 -1.76363e-13)
(1.00973 0.00154835 -1.65133e-13)
(1.00914 0.00152509 -1.53741e-13)