/*--------------------------------*- C++ -*----------------------------------*\
  =========                 |
  \\      /  F ield         | OpenFOAM: The Open Source CFD Toolbox
   \\    /   O peration     | Website:  https://openfoam.org
    \\  /    A nd           | Version:  11
     \\/     M anipulation  |
\*---------------------------------------------------------------------------*/
FoamFile
{
    format      ascii;
    class       volVectorField;
    location    "14.636362";
    object      vorticity;
}
// * * * * * * * * * * * * * * * * * * * * * * * * * * * * * * * * * * * * * //

dimensions      [0 0 -1 0 0 0 0];

internalField   nonuniform List<vector> 
7132
(
(-5.81293e-17 -1.87091e-15 -0.00985144)
(-2.03599e-16 -1.82397e-15 -0.0093618)
(-2.1425e-16 -4.50119e-17 -0.00890589)
(-2.71335e-16 -1.81968e-15 -0.00860212)
(-3.57233e-16 -1.80229e-15 -0.00851237)
(-3.67693e-16 -1.43736e-17 -0.00865933)
(-3.51932e-16 1.14228e-17 -0.0090266)
(-3.0873e-16 2.59161e-17 -0.00955743)
(-2.75308e-16 3.74097e-17 -0.0101645)
(-2.62202e-16 4.42684e-17 -0.0107445)
(-2.12572e-16 4.21876e-17 -0.0111897)
(-9.2052e-17 3.48389e-17 -0.0114356)
(-8.58181e-17 3.03572e-17 -0.0114418)
(-1.64578e-16 5.58467e-17 -0.0112267)
(-2.16714e-16 -1.65957e-15 -0.0108576)
(-1.94104e-16 -1.68147e-15 -0.0104472)
(-1.04779e-16 -1.72077e-15 -0.0101365)
(-3.16413e-17 -1.15706e-18 -0.0100384)
(5.35296e-17 -1.7384e-15 -0.0101857)
(8.46906e-17 -1.75786e-15 -0.010524)
(7.37244e-17 -2.23275e-17 -0.01094)
(1.66897e-17 -8.07977e-18 -0.0112968)
(6.62097e-17 -4.38315e-17 -0.0114592)
(7.60721e-16 7.30487e-17 -0.0113137)
(-1.47109e-15 2.49966e-15 -0.0107997)
(-1.66832e-14 -8.30565e-16 -0.00998285)
(3.53513e-14 -1.29198e-14 -0.00910285)
(4.17723e-13 -2.79319e-14 -0.00839803)
(1.00524e-12 -1.84846e-14 -0.00798491)
(1.10594e-12 1.23703e-14 -0.00791332)
(6.36053e-13 2.63524e-14 -0.00828921)
(1.88133e-13 1.92504e-14 -0.00921456)
(3.66193e-15 8.32413e-15 -0.0105393)
(-4.31885e-14 3.0324e-15 -0.0118902)
(3.34036e-14 -1.66167e-14 -0.0129184)
(2.98631e-13 -4.32483e-15 -0.0134011)
(-1.68347e-13 2.07697e-13 -0.0132388)
(-4.11299e-12 4.04018e-13 -0.0124472)
(-7.94908e-12 -1.19972e-12 -0.0111984)
(2.7963e-11 -7.55822e-12 -0.00993987)
(1.9847e-10 -1.77436e-11 -0.00930654)
(5.42097e-10 -2.2431e-11 -0.009541)
(8.73652e-10 -1.28689e-11 -0.0101363)
(9.17744e-10 5.3295e-12 -0.0104042)
(6.5378e-10 1.82088e-11 -0.0104044)
(3.1764e-10 1.95575e-11 -0.0108302)
(9.54201e-11 1.30895e-11 -0.0119693)
(-2.34831e-14 5.61285e-12 -0.0133975)
(-2.09328e-11 9.86928e-13 -0.0145233)
(-8.87805e-12 -1.66355e-12 -0.0149461)
(2.29487e-11 -2.27304e-12 -0.014563)
(3.73248e-11 7.63135e-12 -0.0134807)
(-1.46055e-10 4.04786e-11 -0.0117959)
(-9.28406e-10 9.7126e-11 -0.00947834)
(-2.75841e-09 1.57336e-10 -0.00642531)
(-5.53936e-09 1.83578e-10 -0.00285772)
(-8.1611e-09 1.45893e-10 8.22889e-05)
(-9.13699e-09 4.80286e-11 0.000880643)
(-7.94199e-09 -7.86962e-11 -0.00105826)
(-5.40121e-09 -1.85002e-10 -0.00510914)
(-2.79124e-09 -2.10166e-10 -0.00991112)
(-9.53822e-10 -1.50143e-10 -0.0138766)
(-4.75861e-11 -6.94607e-11 -0.0161344)
(2.13358e-10 -1.36238e-11 -0.0166665)
(1.77032e-10 3.40319e-11 -0.0157469)
(-8.31404e-13 1.29919e-10 -0.0133202)
(-4.1316e-10 3.14589e-10 -0.00882386)
(-1.28689e-09 5.6687e-10 -0.00165557)
(-2.75327e-09 7.94092e-10 0.00808015)
(-4.61498e-09 8.66104e-10 0.0192244)
(-6.31199e-09 6.90207e-10 0.0296753)
(-7.18264e-09 2.83004e-10 0.0367967)
(-6.85999e-09 -2.26067e-10 0.0380945)
(-5.50566e-09 -6.63397e-10 0.0323396)
(-3.68101e-09 -8.90054e-10 0.02067)
(-1.97434e-09 -8.56931e-10 0.00646406)
(-7.52348e-10 -6.36928e-10 -0.00617094)
(-8.03363e-11 -4.04593e-10 -0.0142107)
(2.09682e-10 -3.40754e-10 -0.0167002)
(3.69661e-10 -5.16525e-10 -0.0145669)
(5.89515e-10 -8.54549e-10 -0.00974841)
(9.19777e-10 -1.19666e-09 -0.00429847)
(1.29296e-09 -1.40813e-09 0.000385839)
(1.62191e-09 -1.43479e-09 0.00437773)
(1.88331e-09 -1.28675e-09 0.00910747)
(2.1107e-09 -9.85733e-10 0.0158554)
(2.31762e-09 -5.31723e-10 0.0239537)
(2.43821e-09 8.59797e-11 0.0304157)
(2.36033e-09 8.38895e-10 0.0316881)
(2.02974e-09 1.58237e-09 0.0261797)
(1.49683e-09 2.03573e-09 0.0152454)
(8.98646e-10 1.92599e-09 0.00251188)
(4.05766e-10 1.21276e-09 -0.00813027)
(1.58067e-10 1.6261e-10 -0.0148166)
(2.17379e-10 -8.25739e-10 -0.0185721)
(5.5381e-10 -1.47319e-09 -0.0220693)
(1.06356e-09 -1.72325e-09 -0.0272679)
(1.60704e-09 -1.6714e-09 -0.0335063)
(2.05364e-09 -1.44878e-09 -0.0378017)
(2.31597e-09 -1.15387e-09 -0.0370466)
(2.36447e-09 -8.33369e-10 -0.030092)
(2.22141e-09 -4.77164e-10 -0.0184291)
(1.94041e-09 -1.83056e-11 -0.00543721)
(1.58372e-09 6.21097e-10 0.00531341)
(1.20439e-09 1.40668e-09 0.0112627)
(8.38972e-10 2.08888e-09 0.0112718)
(5.1839e-10 2.29408e-09 0.00589026)
(2.8018e-10 1.81416e-09 -0.0032511)
(1.64215e-10 8.21774e-10 -0.0147088)
(1.91997e-10 -2.41703e-10 -0.0279572)
(3.47376e-10 -9.89834e-10 -0.0428383)
(5.75659e-10 -1.29756e-09 -0.0581447)
(8.05724e-10 -1.26076e-09 -0.0708511)
(9.78928e-10 -1.04471e-09 -0.0774469)
(1.06473e-09 -7.79219e-10 -0.0760372)
(1.05923e-09 -5.33787e-10 -0.0672598)
(9.76295e-10 -3.29048e-10 -0.053657)
(8.404e-10 -1.4424e-10 -0.0383602)
(6.81181e-10 7.94236e-11 -0.0237971)
(5.25832e-10 4.06667e-10 -0.0112834)
(3.90552e-10 8.37795e-10 -0.0017397)
(2.80525e-10 1.25462e-09 0.00384359)
(1.97289e-10 1.46198e-09 0.00430393)
(1.44668e-10 1.32326e-09 -0.00144868)
(1.27257e-10 8.70022e-10 -0.0139052)
(1.44722e-10 2.79112e-10 -0.0323583)
(1.88731e-10 -2.50264e-10 -0.0544136)
(2.44903e-10 -6.01024e-10 -0.076052)
(2.98147e-10 -7.57552e-10 -0.0928456)
(3.37193e-10 -7.64982e-10 -0.101641)
(3.56186e-10 -6.82491e-10 -0.101581)
(3.54012e-10 -5.58236e-10 -0.0939945)
(3.33074e-10 -4.23774e-10 -0.0814722)
(2.98317e-10 -2.96512e-10 -0.0666029)
(2.56376e-10 -1.82838e-10 -0.0511682)
(2.14072e-10 -8.01027e-11 -0.036075)
(1.76801e-10 2.00243e-11 -0.0215268)
(1.47517e-10 1.25021e-10 -0.00746224)
(1.26812e-10 2.35098e-10 0.00598814)
(1.14328e-10 3.41982e-10 0.0181824)
(1.10634e-10 4.33696e-10 0.0279994)
(1.18006e-10 5.00838e-10 0.0342674)
(1.39167e-10 5.40101e-10 0.0363236)
(1.74452e-10 5.53767e-10 0.0343196)
(2.19246e-10 5.46692e-10 0.0290616)
(2.63742e-10 5.22644e-10 0.0214899)
(2.95727e-10 4.81267e-10 0.012216)
(3.05538e-10 4.1581e-10 0.00182642)
(2.89601e-10 3.12483e-10 -0.00881368)
(2.51154e-10 1.55693e-10 -0.0186833)
(1.98773e-10 -5.76157e-11 -0.026762)
(1.43482e-10 -3.00897e-10 -0.0322392)
(9.54272e-11 -5.1538e-10 -0.0347015)
(6.10528e-11 -6.33842e-10 -0.0342015)
(4.17461e-11 -6.16967e-10 -0.0310729)
(3.46586e-11 -4.76975e-10 -0.0258841)
(3.46523e-11 -2.54643e-10 -0.0188653)
(3.93631e-11 -5.06872e-11 -0.01092)
(4.16507e-11 2.60158e-10 -0.00358781)
(6.45133e-11 2.46865e-10 0.00920368)
(-5.85336e-17 -5.95755e-18 -0.0295083)
(-2.13661e-16 -1.0979e-17 -0.0280268)
(-2.36973e-16 -1.24146e-17 -0.026626)
(-3.03631e-16 -1.51548e-17 -0.0256602)
(-4.08285e-16 -1.76902e-17 -0.0253253)
(-4.42113e-16 -1.53303e-17 -0.0257085)
(-4.30601e-16 -1.80584e-17 -0.0267875)
(-4.33868e-16 -1.23957e-17 -0.0284196)
(-4.19927e-16 1.74887e-15 -0.0303677)
(-3.07647e-16 1.29005e-17 -0.0323358)
(-7.28903e-17 -4.28876e-17 -0.0339959)
(-1.18323e-16 1.70619e-15 -0.0351317)
(-7.65606e-16 6.66203e-17 -0.0355685)
(-1.71189e-15 1.20447e-16 -0.0352805)
(-2.1636e-15 8.94898e-17 -0.0343553)
(-1.66215e-15 -1.65636e-18 -0.0329827)
(-7.2146e-16 -6.6854e-17 -0.0314325)
(-5.241e-17 -7.7135e-17 -0.0299937)
(2.65641e-16 -5.84554e-17 -0.0288994)
(3.35342e-16 -3.66267e-17 -0.0282861)
(2.12863e-16 8.28487e-18 -0.0281849)
(-8.14594e-17 -4.32238e-18 -0.0285293)
(8.93166e-16 -4.15847e-16 -0.0291761)
(1.17421e-16 8.40003e-16 -0.029948)
(-1.40172e-14 9.48691e-15 -0.0307037)
(3.25123e-14 -1.92401e-14 -0.0314306)
(1.34643e-13 -2.30123e-13 -0.0322353)
(-7.47714e-13 -5.12876e-13 -0.0330347)
(-2.27781e-12 -3.62592e-13 -0.0334484)
(-1.83335e-12 1.9523e-13 -0.0331036)
(-3.58345e-13 4.85255e-13 -0.0320797)
(1.7509e-13 3.31975e-13 -0.0308877)
(5.69919e-14 1.2225e-13 -0.0299699)
(-1.25965e-13 -1.35765e-14 -0.0294781)
(3.56798e-13 -1.90999e-13 -0.0293433)
(1.51808e-12 9.65503e-14 -0.0293827)
(-2.52965e-12 2.41178e-12 -0.0294357)
(-2.22131e-11 4.29265e-12 -0.0295454)
(-2.4727e-11 -1.72394e-11 -0.0301511)
(1.77703e-10 -1.10771e-10 -0.0322182)
(8.99811e-10 -2.7481e-10 -0.0367545)
(2.15244e-09 -3.60024e-10 -0.0431972)
(3.3365e-09 -2.00694e-10 -0.0486208)
(3.61956e-09 1.15264e-10 -0.0497099)
(2.76619e-09 3.18257e-10 -0.0460029)
(1.46539e-09 2.98739e-10 -0.0403146)
(5.06802e-10 1.71918e-10 -0.0355912)
(3.62842e-11 6.37876e-11 -0.0327417)
(-9.54499e-11 5.41247e-12 -0.0313841)
(-4.26677e-11 -2.36078e-11 -0.0308031)
(1.22597e-10 -2.53762e-11 -0.0306144)
(1.50544e-10 9.21351e-11 -0.0306521)
(-9.83892e-10 5.23342e-10 -0.0298295)
(-5.36282e-09 1.4033e-09 -0.0251077)
(-1.49262e-08 2.46281e-09 -0.0129566)
(-2.86932e-08 2.88492e-09 0.00605138)
(-4.13783e-08 1.94471e-09 0.0244348)
(-4.63055e-08 -6.1528e-11 0.0321382)
(-4.0734e-08 -1.94658e-09 0.0247152)
(-2.81325e-08 -2.76038e-09 0.00668561)
(-1.48481e-08 -2.43387e-09 -0.0130015)
(-5.28439e-09 -1.52197e-09 -0.0273647)
(-4.34257e-10 -6.53053e-10 -0.0342666)
(1.03381e-09 -1.25931e-10 -0.0354344)
(8.86101e-10 1.41125e-10 -0.0332798)
(5.56292e-11 4.25016e-10 -0.0283637)
(-1.57892e-09 9.5762e-10 -0.0191967)
(-4.59857e-09 1.73692e-09 -0.00404692)
(-9.1312e-09 2.45814e-09 0.0170281)
(-1.43368e-08 2.64546e-09 0.0422742)
(-1.87351e-08 1.97404e-09 0.0691785)
(-2.09337e-08 5.57006e-10 0.0932119)
(-2.01675e-08 -1.06456e-09 0.106512)
(-1.66382e-08 -2.25288e-09 0.101293)
(-1.1541e-08 -2.65572e-09 0.07635)
(-6.45977e-09 -2.32126e-09 0.0393743)
(-2.60729e-09 -1.58392e-09 0.00279835)
(-3.65653e-10 -8.85609e-10 -0.0229055)
(6.49979e-10 -5.65751e-10 -0.0337897)
(1.13344e-09 -7.06443e-10 -0.0328527)
(1.59252e-09 -1.1296e-09 -0.0272424)
(2.13701e-09 -1.54838e-09 -0.0239414)
(2.63589e-09 -1.7592e-09 -0.025411)
(3.00648e-09 -1.72997e-09 -0.0271738)
(3.31738e-09 -1.53114e-09 -0.0206349)
(3.7019e-09 -1.20289e-09 -7.6503e-05)
(4.23049e-09 -6.95472e-10 0.0318539)
(4.79064e-09 6.46254e-11 0.0642296)
(5.06418e-09 1.04313e-09 0.0834796)
(4.74471e-09 2.01412e-09 0.0813268)
(3.77706e-09 2.60127e-09 0.0590121)
(2.43619e-09 2.47152e-09 0.0260788)
(1.20825e-09 1.58305e-09 -0.00592246)
(5.46753e-10 2.56806e-10 -0.0311445)
(6.62462e-10 -1.02361e-09 -0.0523287)
(1.46342e-09 -1.89628e-09 -0.0760359)
(2.64832e-09 -2.24986e-09 -0.104321)
(3.86709e-09 -2.16644e-09 -0.130436)
(4.84375e-09 -1.80324e-09 -0.143162)
(5.42084e-09 -1.30928e-09 -0.135029)
(5.55275e-09 -7.86089e-10 -0.10655)
(5.28205e-09 -2.6513e-10 -0.0647738)
(4.70433e-09 3.00541e-10 -0.019809)
(3.93083e-09 9.89107e-10 0.0183815)
(3.06077e-09 1.77906e-09 0.0419987)
(2.17426e-09 2.43188e-09 0.0468649)
(1.36435e-09 2.57348e-09 0.03348)
(7.56018e-10 1.99125e-09 0.0055207)
(4.68562e-10 8.65867e-10 -0.0335233)
(5.42298e-10 -3.33282e-10 -0.0816695)
(8.9813e-10 -1.18166e-09 -0.135607)
(1.37289e-09 -1.52674e-09 -0.186886)
(1.80471e-09 -1.46239e-09 -0.222893)
(2.09749e-09 -1.17422e-09 -0.233625)
(2.2278e-09 -8.19367e-10 -0.217618)
(2.21346e-09 -4.89567e-10 -0.181729)
(2.08183e-09 -2.19633e-10 -0.136205)
(1.85893e-09 3.31738e-12 -0.0898399)
(1.57583e-09 2.36709e-10 -0.0478666)
(1.27113e-09 5.51983e-10 -0.0128026)
(9.75789e-10 9.6045e-10 0.0133775)
(7.11092e-10 1.35125e-09 0.0278006)
(4.99836e-10 1.52991e-09 0.0264658)
(3.70187e-10 1.35828e-09 0.00537551)
(3.41e-10 8.69997e-10 -0.0370702)
(4.043e-10 2.48377e-10 -0.0973029)
(5.25096e-10 -3.00353e-10 -0.165269)
(6.58164e-10 -6.55732e-10 -0.226607)
(7.67176e-10 -8.03695e-10 -0.268191)
(8.33763e-10 -7.94e-10 -0.283291)
(8.55386e-10 -6.90897e-10 -0.272966)
(8.37594e-10 -5.46678e-10 -0.243709)
(7.87417e-10 -3.95926e-10 -0.203763)
(7.12225e-10 -2.58161e-10 -0.160011)
(6.21848e-10 -1.40713e-10 -0.116811)
(5.27786e-10 -4.03134e-11 -0.076015)
(4.40139e-10 5.3304e-11 -0.0376515)
(3.64498e-10 1.50016e-10 -0.00125586)
(3.02202e-10 2.51696e-10 0.0326682)
(2.54369e-10 3.50074e-10 0.0619541)
(2.27391e-10 4.31859e-10 0.0834199)
(2.34249e-10 4.86574e-10 0.0946962)
(2.88311e-10 5.11878e-10 0.0957395)
(3.9276e-10 5.13729e-10 0.0886808)
(5.33291e-10 5.02049e-10 0.0762694)
(6.79303e-10 4.84405e-10 0.0602824)
(7.93118e-10 4.60371e-10 0.0409605)
(8.44029e-10 4.18873e-10 0.0183508)
(8.18854e-10 3.39677e-10 -0.00638176)
(7.24829e-10 2.01111e-10 -0.0309986)
(5.86032e-10 -3.77816e-12 -0.0526835)
(4.34776e-10 -2.49222e-10 -0.0688373)
(3.01021e-10 -4.74165e-10 -0.0778394)
(2.03457e-10 -6.07e-10 -0.0793984)
(1.45627e-10 -6.03768e-10 -0.074111)
(1.18988e-10 -4.73426e-10 -0.0633158)
(1.09188e-10 -2.56993e-10 -0.0473906)
(1.10892e-10 -5.41864e-11 -0.0285107)
(1.06341e-10 2.47585e-10 -0.0109412)
(1.59708e-10 2.35436e-10 0.0231667)
(-1.67502e-18 -8.93721e-20 -0.0490229)
(-2.4586e-17 -3.11638e-20 -0.0465152)
(-4.97781e-17 -2.68935e-20 -0.0441223)
(-7.74881e-17 7.03402e-19 -0.0424422)
(-1.29739e-16 1.67766e-18 -0.0418143)
(-1.35724e-16 -3.2157e-18 -0.0424039)
(-1.77798e-16 7.30074e-18 -0.0441965)
(-4.15527e-16 3.41318e-17 -0.046975)
(-2.0566e-16 -2.57012e-17 -0.0503609)
(7.8816e-16 -1.42802e-16 -0.0538652)
(2.62901e-16 -4.5698e-17 -0.0569285)
(-3.39571e-15 3.81197e-16 -0.0591815)
(-6.44681e-15 8.20366e-16 -0.0602786)
(-3.4434e-15 7.54842e-16 -0.0601053)
(4.7356e-15 5.02808e-17 -0.058694)
(1.11826e-14 -6.67816e-16 -0.0562364)
(1.19891e-14 -7.90918e-16 -0.0530533)
(8.83956e-15 -4.94707e-16 -0.0495635)
(4.87799e-15 -1.97554e-16 -0.0462505)
(1.98451e-15 3.24777e-18 -0.043598)
(-4.88353e-16 1.86073e-16 -0.0420227)
(1.92656e-15 -3.48231e-16 -0.0418086)
(5.76484e-15 -1.43272e-16 -0.043055)
(-8.93174e-14 7.52823e-15 -0.0456733)
(6.67433e-14 -1.54325e-14 -0.0494331)
(1.99318e-12 -7.51606e-14 -0.0539872)
(-3.37411e-12 3.77193e-13 -0.058779)
(-4.69418e-11 1.17829e-12 -0.0628316)
(-1.14619e-10 5.24332e-13 -0.0649282)
(-1.26793e-10 -9.4909e-13 -0.0641661)
(-7.28292e-11 -9.79603e-13 -0.060489)
(-2.09132e-11 -1.90156e-13 -0.054743)
(-8.68421e-13 1.58853e-13 -0.0482641)
(2.11495e-12 -1.48595e-13 -0.0424421)
(2.8196e-12 -8.40388e-13 -0.0383261)
(1.03352e-12 1.43715e-12 -0.0364728)
(-1.6571e-11 1.20716e-11 -0.037067)
(-2.01335e-11 1.15027e-11 -0.0403225)
(1.07166e-10 -1.01159e-10 -0.0467772)
(2.20384e-10 -4.69829e-10 -0.056671)
(-8.47727e-10 -1.00512e-09 -0.068229)
(-4.20409e-09 -1.24078e-09 -0.0778244)
(-7.7411e-09 -7.46427e-10 -0.0837525)
(-7.76184e-09 2.90484e-10 -0.0859576)
(-4.48827e-09 1.09529e-09 -0.082611)
(-1.24723e-09 1.14925e-09 -0.0728667)
(2.53053e-10 7.27638e-10 -0.0598163)
(3.51348e-10 3.06739e-10 -0.0474359)
(6.02081e-11 4.04612e-11 -0.0386268)
(4.18124e-11 -1.10688e-10 -0.0345922)
(3.87103e-10 -9.88787e-11 -0.0353171)
(6.19373e-11 5.60879e-10 -0.0389023)
(-4.16782e-09 2.79716e-09 -0.0390721)
(-1.71648e-08 7.06828e-09 -0.0250155)
(-4.1223e-08 1.18225e-08 0.0110672)
(-7.16904e-08 1.34096e-08 0.0643642)
(-9.82235e-08 8.95204e-09 0.117276)
(-1.1003e-07 -2.74143e-10 0.147245)
(-1.01166e-07 -9.16522e-09 0.138466)
(-7.50131e-08 -1.31279e-08 0.0943653)
(-4.32901e-08 -1.16342e-08 0.0371017)
(-1.75756e-08 -7.35707e-09 -0.00962359)
(-2.88473e-09 -3.22856e-09 -0.0349584)
(2.41875e-09 -6.738e-10 -0.0421447)
(2.51485e-09 5.23125e-10 -0.039592)
(3.21007e-10 1.36243e-09 -0.0326554)
(-3.51078e-09 2.64169e-09 -0.0227337)
(-9.16763e-09 4.34301e-09 -0.0106749)
(-1.58597e-08 5.66319e-09 0.00285474)
(-2.17592e-08 5.66806e-09 0.0220508)
(-2.5542e-08 3.98868e-09 0.0552255)
(-2.71105e-08 9.99226e-10 0.103334)
(-2.65856e-08 -2.37382e-09 0.151083)
(-2.35585e-08 -4.97666e-09 0.173941)
(-1.80011e-08 -5.97927e-09 0.156716)
(-1.12202e-08 -5.32378e-09 0.105917)
(-5.16959e-09 -3.68398e-09 0.0440294)
(-1.11224e-09 -2.03323e-09 -0.00594318)
(9.56309e-10 -1.0903e-09 -0.0334409)
(1.79826e-09 -9.87795e-10 -0.0440106)
(2.09713e-09 -1.35633e-09 -0.0532033)
(2.14315e-09 -1.71835e-09 -0.0739004)
(2.10294e-09 -1.84286e-09 -0.104108)
(2.20949e-09 -1.77554e-09 -0.125592)
(2.57522e-09 -1.63445e-09 -0.11763)
(3.09093e-09 -1.44229e-09 -0.073208)
(3.65087e-09 -1.07609e-09 -0.00325684)
(4.28548e-09 -3.30863e-10 0.0700374)
(4.90953e-09 8.61866e-10 0.122728)
(5.13567e-09 2.22593e-09 0.138833)
(4.58308e-09 3.18999e-09 0.116978)
(3.3139e-09 3.2104e-09 0.0700964)
(1.8969e-09 2.15748e-09 0.0157458)
(1.02992e-09 4.35504e-10 -0.0370377)
(1.08136e-09 -1.28407e-09 -0.0918826)
(1.93116e-09 -2.46612e-09 -0.154583)
(3.16448e-09 -2.92508e-09 -0.218364)
(4.37553e-09 -2.76911e-09 -0.262259)
(5.32739e-09 -2.22565e-09 -0.26646)
(5.92955e-09 -1.50837e-09 -0.227748)
(6.15597e-09 -7.63975e-10 -0.15973)
(6.01089e-09 -5.29519e-11 -0.0813656)
(5.53577e-09 6.57305e-10 -0.00762486)
(4.8006e-09 1.44288e-09 0.0514801)
(3.87733e-09 2.28496e-09 0.0880722)
(2.84518e-09 2.93709e-09 0.0964665)
(1.84228e-09 3.00321e-09 0.0750981)
(1.07478e-09 2.26205e-09 0.0260619)
(7.1927e-10 9.28633e-10 -0.0475789)
(7.92856e-10 -4.56485e-10 -0.140881)
(1.13064e-09 -1.40513e-09 -0.240833)
(1.50271e-09 -1.75085e-09 -0.323421)
(1.75579e-09 -1.62306e-09 -0.36295)
(1.86088e-09 -1.25626e-09 -0.347772)
(1.86806e-09 -8.37205e-10 -0.287324)
(1.83714e-09 -4.60802e-10 -0.204805)
(1.79426e-09 -1.51779e-10 -0.123165)
(1.72616e-09 1.08762e-10 -0.0552611)
(1.605e-09 3.73324e-10 -0.00320359)
(1.41654e-09 7.0669e-10 0.0355778)
(1.16688e-09 1.11781e-09 0.0623702)
(8.87827e-10 1.4926e-09 0.0737049)
(6.40795e-10 1.63243e-09 0.0615649)
(4.97355e-10 1.40268e-09 0.0173003)
(4.96006e-10 8.52967e-10 -0.0616493)
(6.14168e-10 1.87064e-10 -0.165431)
(7.83767e-10 -3.77196e-10 -0.271215)
(9.32979e-10 -7.22064e-10 -0.351822)
(1.01887e-09 -8.45352e-10 -0.388734)
(1.03469e-09 -8.09086e-10 -0.379626)
(9.98374e-10 -6.84406e-10 -0.335849)
(9.34456e-10 -5.24251e-10 -0.273886)
(8.59534e-10 -3.6109e-10 -0.207537)
(7.78823e-10 -2.13727e-10 -0.1446)
(6.92353e-10 -9.06166e-11 -0.087822)
(6.00946e-10 1.07515e-11 -0.0365497)
(5.06463e-10 1.01669e-10 0.0112671)
(4.0873e-10 1.9399e-10 0.0567473)
(3.07344e-10 2.90162e-10 0.0978713)
(2.1016e-10 3.79391e-10 0.129752)
(1.41613e-10 4.43755e-10 0.148043)
(1.38307e-10 4.70378e-10 0.152973)
(2.29352e-10 4.60845e-10 0.149714)
(4.15799e-10 4.31277e-10 0.144223)
(6.65409e-10 4.03422e-10 0.138635)
(9.24182e-10 3.9273e-10 0.130375)
(1.13393e-09 3.98904e-10 0.114823)
(1.24829e-09 4.02942e-10 0.0890668)
(1.24463e-09 3.72083e-10 0.054045)
(1.12965e-09 2.72107e-10 0.0140908)
(9.3695e-10 8.74109e-11 -0.0247882)
(7.15722e-10 -1.58391e-10 -0.0569459)
(5.13692e-10 -3.99721e-10 -0.078663)
(3.61307e-10 -5.56145e-10 -0.0887557)
(2.64516e-10 -5.74731e-10 -0.0877443)
(2.09906e-10 -4.58755e-10 -0.0775788)
(1.75853e-10 -2.50594e-10 -0.0586517)
(1.56447e-10 -4.92639e-11 -0.0343031)
(1.29182e-10 2.3575e-10 -0.0111336)
(1.91182e-10 2.20183e-10 0.0403755)
(-6.25738e-17 7.17295e-18 -0.0682815)
(-2.16442e-16 1.30726e-17 -0.0647001)
(-1.94401e-16 1.40365e-17 -0.0612679)
(-2.58706e-16 2.48257e-17 -0.0588398)
(-2.75922e-16 1.14277e-17 -0.0579051)
(-1.67821e-16 8.69935e-18 -0.0587045)
(-7.96285e-16 1.21843e-16 -0.061222)
(-3.97981e-17 1.53527e-18 -0.0651495)
(2.12682e-15 1.14703e-15 -0.0699529)
(1.58977e-16 -2.2138e-16 -0.0749332)
(-7.86134e-15 3.14326e-16 -0.0792829)
(-1.24804e-14 5.06104e-15 -0.0825145)
(1.21848e-14 9.04622e-17 -0.0841199)
(8.80601e-14 -5.47076e-15 -0.083945)
(1.83296e-13 -7.2235e-15 -0.0820265)
(2.16339e-13 -3.62838e-15 -0.0785863)
(1.67858e-13 1.10466e-15 -0.0739955)
(9.59687e-14 3.4784e-15 -0.0688243)
(3.79939e-14 3.36907e-15 -0.0637843)
(3.09223e-15 2.64654e-15 -0.0596062)
(-1.21515e-14 3.72591e-17 -0.0569676)
(2.70392e-14 -3.13092e-15 -0.056406)
(-6.82074e-14 4.52061e-14 -0.0582003)
(-5.71347e-13 -2.96493e-14 -0.0622926)
(1.9384e-12 -1.03176e-12 -0.0683)
(6.7681e-12 1.70119e-12 -0.0755392)
(-2.90246e-11 2.42374e-11 -0.0829956)
(-1.39769e-10 5.51097e-11 -0.0892428)
(-2.82365e-10 3.95631e-11 -0.0925524)
(-3.70086e-10 -2.06998e-11 -0.0914935)
(-2.9267e-10 -5.24547e-11 -0.0860559)
(-1.26011e-10 -3.56484e-11 -0.0773871)
(-2.18814e-11 -1.13918e-11 -0.0670842)
(1.17242e-11 -1.85758e-12 -0.0571693)
(1.10668e-11 3.49716e-13 -0.049609)
(-2.16116e-11 9.79186e-12 -0.0458335)
(-2.62223e-11 1.29953e-11 -0.0467161)
(3.13832e-10 -5.7576e-11 -0.0531963)
(6.93163e-10 -1.37498e-10 -0.0652673)
(-3.00756e-09 3.66676e-10 -0.0763922)
(-1.9655e-08 1.93742e-09 -0.0708108)
(-5.19485e-08 3.08666e-09 -0.0405628)
(-8.36372e-08 1.57818e-09 -0.00659601)
(-9.04313e-08 -1.51115e-09 -0.00125393)
(-6.73477e-08 -2.93905e-09 -0.0279313)
(-3.38356e-08 -2.07192e-09 -0.0589568)
(-9.84852e-09 -6.2737e-10 -0.0713851)
(1.68554e-10 1.6021e-10 -0.0647357)
(1.76986e-09 1.6018e-10 -0.0512862)
(1.21503e-09 -1.87055e-10 -0.0425251)
(9.80332e-10 -3.54387e-11 -0.0424944)
(-1.33054e-09 2.3696e-09 -0.0456732)
(-1.21602e-08 9.13672e-09 -0.0378916)
(-3.67085e-08 1.99309e-08 -0.00517685)
(-7.13242e-08 2.97256e-08 0.0534133)
(-1.04908e-07 3.13852e-08 0.128365)
(-1.29655e-07 2.11145e-08 0.210496)
(-1.43694e-07 1.40961e-09 0.282173)
(-1.42869e-07 -1.94551e-08 0.308701)
(-1.20959e-07 -3.16982e-08 0.263981)
(-8.16555e-08 -3.11526e-08 0.163977)
(-4.03146e-08 -2.17246e-08 0.0570918)
(-1.09929e-08 -1.06502e-08 -0.0166349)
(2.58025e-09 -2.82572e-09 -0.0480111)
(4.73132e-09 1.19e-09 -0.0501132)
(8.90174e-10 3.43783e-09 -0.0408842)
(-5.89797e-09 5.70194e-09 -0.036057)
(-1.36714e-08 7.91138e-09 -0.0465525)
(-1.96936e-08 8.75393e-09 -0.0680088)
(-2.16248e-08 7.48663e-09 -0.0736324)
(-1.99494e-08 4.6497e-09 -0.0331819)
(-1.77579e-08 1.07878e-09 0.0565129)
(-1.75503e-08 -2.84056e-09 0.163632)
(-1.85114e-08 -6.54512e-09 0.240313)
(-1.76607e-08 -8.82491e-09 0.25152)
(-1.35965e-08 -8.73703e-09 0.196971)
(-7.73987e-09 -6.63788e-09 0.108393)
(-2.50717e-09 -3.94856e-09 0.0257371)
(7.40742e-10 -2.021e-09 -0.0292863)
(2.03637e-09 -1.27685e-09 -0.0644863)
(2.05147e-09 -1.30205e-09 -0.105424)
(1.60804e-09 -1.55129e-09 -0.167057)
(1.55108e-09 -1.79237e-09 -0.231726)
(2.37108e-09 -1.96611e-09 -0.258671)
(3.81771e-09 -1.97186e-09 -0.219605)
(5.09634e-09 -1.74071e-09 -0.122021)
(5.57383e-09 -1.29275e-09 0.000455518)
(5.34863e-09 -5.64705e-10 0.111774)
(5.01278e-09 6.18034e-10 0.186141)
(4.79892e-09 2.17734e-09 0.209647)
(4.37111e-09 3.51216e-09 0.182351)
(3.43261e-09 3.81461e-09 0.118775)
(2.24542e-09 2.72505e-09 0.0380926)
(1.43622e-09 6.64576e-10 -0.0508077)
(1.40793e-09 -1.47423e-09 -0.151185)
(2.05603e-09 -2.93784e-09 -0.260275)
(2.98298e-09 -3.47205e-09 -0.351987)
(3.85365e-09 -3.24789e-09 -0.386926)
(4.5457e-09 -2.58025e-09 -0.343679)
(5.06653e-09 -1.72358e-09 -0.237326)
(5.41037e-09 -8.26756e-10 -0.107858)
(5.51e-09 4.49744e-11 0.00711555)
(5.29958e-09 9.05685e-10 0.0901658)
(4.77399e-09 1.81832e-09 0.140935)
(3.97598e-09 2.75677e-09 0.162785)
(2.99093e-09 3.44941e-09 0.155373)
(1.99111e-09 3.45868e-09 0.115184)
(1.22688e-09 2.55275e-09 0.0385726)
(8.81992e-10 1.00683e-09 -0.0750215)
(9.22059e-10 -5.38965e-10 -0.21552)
(1.12622e-09 -1.53659e-09 -0.353203)
(1.27109e-09 -1.83931e-09 -0.443143)
(1.26897e-09 -1.64148e-09 -0.449164)
(1.16198e-09 -1.23036e-09 -0.367767)
(1.04004e-09 -8.07495e-10 -0.230221)
(9.74428e-10 -4.52666e-10 -0.0834555)
(9.90768e-10 -1.64141e-10 0.0340309)
(1.06627e-09 9.79489e-11 0.106646)
(1.14145e-09 3.91518e-10 0.140478)
(1.14658e-09 7.71046e-10 0.150862)
(1.04047e-09 1.22481e-09 0.149285)
(8.43157e-10 1.61429e-09 0.135185)
(6.42221e-10 1.72515e-09 0.0964348)
(5.4625e-10 1.43068e-09 0.0186351)
(6.08234e-10 8.1159e-10 -0.10038)
(7.89653e-10 1.04496e-10 -0.239758)
(9.95211e-10 -4.59759e-10 -0.359554)
(1.13688e-09 -7.73282e-10 -0.421298)
(1.17398e-09 -8.54549e-10 -0.409686)
(1.11465e-09 -7.83754e-10 -0.33812)
(9.95946e-10 -6.40784e-10 -0.236714)
(8.60798e-10 -4.77258e-10 -0.134868)
(7.40193e-10 -3.1811e-10 -0.0499139)
(6.44372e-10 -1.74569e-10 0.0141296)
(5.66524e-10 -5.1775e-11 0.061835)
(4.9261e-10 5.26333e-11 0.101118)
(4.06855e-10 1.49414e-10 0.138436)
(2.94431e-10 2.49575e-10 0.175034)
(1.51825e-10 3.50979e-10 0.205523)
(4.92326e-12 4.32939e-10 0.222459)
(-8.64683e-11 4.67785e-10 0.225292)
(-5.59997e-11 4.42706e-10 0.224224)
(1.26457e-10 3.73131e-10 0.233045)
(4.34237e-10 2.957e-10 0.257199)
(7.9963e-10 2.47858e-10 0.288468)
(1.14655e-09 2.50145e-10 0.310308)
(1.41436e-09 2.98316e-10 0.308156)
(1.56265e-09 3.63524e-10 0.276111)
(1.57161e-09 3.99e-10 0.218042)
(1.447e-09 3.54951e-10 0.145014)
(1.22295e-09 2.03185e-10 0.0705035)
(9.55095e-10 -3.75933e-11 0.00602036)
(7.02148e-10 -2.96958e-10 -0.0413593)
(5.04013e-10 -4.82412e-10 -0.0694415)
(3.69368e-10 -5.28067e-10 -0.0791018)
(2.81154e-10 -4.29095e-10 -0.0736824)
(2.12676e-10 -2.30262e-10 -0.0542551)
(1.60114e-10 -3.08509e-11 -0.0259536)
(1.01611e-10 2.30217e-10 0.00219354)
(1.65355e-10 2.04436e-10 0.0746564)
(6.64562e-17 1.87414e-15 -0.0871245)
(2.17617e-16 1.80061e-15 -0.0824018)
(2.74155e-16 2.11049e-17 -0.0778521)
(8.54392e-17 1.77619e-15 -0.0746045)
(1.13131e-15 1.69096e-15 -0.0733111)
(-6.93794e-16 1.99169e-15 -0.0742958)
(-4.25496e-16 -5.67109e-17 -0.0775412)
(5.90586e-15 -1.40032e-15 -0.0826405)
(5.34121e-15 -1.25089e-16 -0.0888965)
(-1.70087e-14 3.0759e-15 -0.0953831)
(-2.3199e-14 6.28756e-15 -0.101015)
(4.63162e-14 -9.62833e-15 -0.105231)
(1.56587e-13 -4.94635e-14 -0.107333)
(2.44733e-13 -8.48009e-14 -0.107146)
(3.07402e-13 -6.40893e-14 -0.104691)
(3.16214e-13 8.78602e-15 -0.100253)
(2.29119e-13 6.11291e-14 -0.0943099)
(1.27156e-13 6.44374e-14 -0.0875742)
(3.98497e-14 4.79754e-14 -0.0809674)
(-4.1087e-14 2.68107e-14 -0.0754412)
(-2.58933e-14 -1.17874e-14 -0.0718755)
(2.0692e-14 2.76797e-14 -0.0710029)
(-8.58175e-13 2.9905e-13 -0.0732412)
(1.757e-12 -9.95778e-13 -0.0785754)
(5.16357e-12 -3.68516e-12 -0.0865239)
(-5.95011e-11 1.54046e-11 -0.0960325)
(4.92054e-11 7.36459e-11 -0.106295)
(1.39399e-09 1.27849e-10 -0.117631)
(3.5891e-09 1.15682e-10 -0.126979)
(3.94038e-09 4.20326e-12 -0.126899)
(2.12062e-09 -1.23019e-10 -0.116211)
(4.83266e-10 -1.35586e-10 -0.101057)
(-5.83772e-11 -6.87087e-11 -0.085814)
(-5.75611e-11 -1.66244e-11 -0.0721383)
(-2.49378e-11 1.58257e-11 -0.0616059)
(-1.0221e-10 2.00799e-11 -0.0560458)
(2.08834e-10 -1.55652e-10 -0.057691)
(1.62999e-09 -3.4819e-10 -0.0688834)
(2.3568e-10 1.55953e-09 -0.0838601)
(-1.95076e-08 9.70425e-09 -0.0739526)
(-7.60285e-08 2.34654e-08 0.000505059)
(-1.63396e-07 3.07503e-08 0.138244)
(-2.43649e-07 1.8495e-08 0.273576)
(-2.71163e-07 -7.85426e-09 0.320676)
(-2.26161e-07 -2.72026e-08 0.245991)
(-1.36489e-07 -2.76003e-08 0.104499)
(-5.44539e-08 -1.62744e-08 -0.0142191)
(-8.63456e-09 -5.50245e-09 -0.0675182)
(5.51618e-09 -4.8278e-10 -0.0705123)
(5.54596e-09 2.84076e-10 -0.058688)
(2.43045e-09 1.17391e-09 -0.0523478)
(-5.33473e-09 7.13112e-09 -0.0470549)
(-2.49379e-08 2.04862e-08 -0.0292678)
(-5.53562e-08 3.66503e-08 -0.000157878)
(-8.18737e-08 4.59223e-08 0.0282219)
(-9.12062e-08 4.25748e-08 0.0689153)
(-8.85507e-08 2.83448e-08 0.158096)
(-9.14552e-08 6.33306e-09 0.296514)
(-1.06213e-07 -2.05327e-08 0.419878)
(-1.16091e-07 -4.37347e-08 0.445289)
(-1.01105e-07 -5.19563e-08 0.347778)
(-6.42429e-08 -4.26884e-08 0.184846)
(-2.5724e-08 -2.4676e-08 0.0399011)
(-1.56198e-09 -8.5359e-09 -0.0407517)
(5.66929e-09 1.36816e-09 -0.0623013)
(1.41855e-09 6.67708e-09 -0.0614359)
(-7.7609e-09 9.92247e-09 -0.081621)
(-1.60405e-08 1.12408e-08 -0.143952)
(-1.87414e-08 9.63991e-09 -0.218437)
(-1.44401e-08 5.79594e-09 -0.236037)
(-6.03048e-09 2.05521e-09 -0.150422)
(1.11906e-09 -2.00319e-10 0.0183421)
(2.50083e-09 -1.99708e-09 0.202824)
(-2.17372e-09 -4.92148e-09 0.334097)
(-8.36607e-09 -8.4367e-09 0.370662)
(-1.09518e-08 -1.02842e-08 0.311078)
(-8.69521e-09 -9.22863e-09 0.193535)
(-4.08525e-09 -6.27353e-09 0.0717199)
(-1.68509e-10 -3.36207e-09 -0.0226404)
(1.64688e-09 -1.64316e-09 -0.0998905)
(1.76295e-09 -1.14217e-09 -0.1919)
(1.58857e-09 -1.46815e-09 -0.30368)
(2.4091e-09 -2.22438e-09 -0.388264)
(4.49405e-09 -2.90885e-09 -0.381496)
(7.13359e-09 -2.99708e-09 -0.262212)
(9.24671e-09 -2.32035e-09 -0.0719862)
(9.92869e-09 -1.20224e-09 0.118782)
(8.97821e-09 -5.03356e-11 0.257005)
(7.1398e-09 1.13672e-09 0.323979)
(5.41503e-09 2.54676e-09 0.322925)
(4.14885e-09 3.87314e-09 0.266493)
(3.10061e-09 4.27325e-09 0.172425)
(2.16199e-09 3.15568e-09 0.0561728)
(1.59071e-09 8.54251e-10 -0.0785851)
(1.60381e-09 -1.59397e-09 -0.232815)
(2.07005e-09 -3.25364e-09 -0.385864)
(2.66228e-09 -3.82389e-09 -0.48429)
(3.15933e-09 -3.55047e-09 -0.473056)
(3.55328e-09 -2.83209e-09 -0.341145)
(3.93786e-09 -1.9407e-09 -0.133848)
(4.34467e-09 -9.8571e-10 0.0756205)
(4.66915e-09 2.44146e-12 0.227868)
(4.73683e-09 1.02531e-09 0.302674)
(4.43336e-09 2.10468e-09 0.314079)
(3.76259e-09 3.17649e-09 0.28658)
(2.84063e-09 3.92953e-09 0.23451)
(1.89548e-09 3.88524e-09 0.155953)
(1.20665e-09 2.81661e-09 0.0396437)
(9.27987e-10 1.08104e-09 -0.120426)
(9.63086e-10 -5.786e-10 -0.306115)
(1.06783e-09 -1.57964e-09 -0.46548)
(1.06031e-09 -1.82223e-09 -0.532221)
(9.16102e-10 -1.5685e-09 -0.467695)
(7.12681e-10 -1.14179e-09 -0.287476)
(5.36934e-10 -7.43429e-10 -0.0513245)
(4.40693e-10 -4.36166e-10 0.169121)
(4.42441e-10 -1.97697e-10 0.321131)
(5.34192e-10 3.34208e-11 0.387008)
(6.70934e-10 3.33164e-10 0.381787)
(7.71589e-10 7.57181e-10 0.33692)
(7.64428e-10 1.26953e-09 0.279176)
(6.50295e-10 1.69172e-09 0.214978)
(5.25182e-10 1.78089e-09 0.129822)
(5.1537e-10 1.41968e-09 0.00499408)
(6.72062e-10 7.31265e-10 -0.156925)
(9.32098e-10 -6.42232e-12 -0.317563)
(1.17429e-09 -5.50809e-10 -0.417656)
(1.3042e-09 -8.11449e-10 -0.414685)
(1.29452e-09 -8.34239e-10 -0.309918)
(1.17261e-09 -7.20069e-10 -0.143867)
(9.89019e-10 -5.57476e-10 0.0299791)
(7.93721e-10 -3.96375e-10 0.170741)
(6.23737e-10 -2.52877e-10 0.261662)
(4.95928e-10 -1.26893e-10 0.306928)
(4.05441e-10 -1.4736e-11 0.322754)
(3.29336e-10 9.0588e-11 0.327478)
(2.33184e-10 2.00758e-10 0.332659)
(8.65829e-11 3.21505e-10 0.338051)
(-1.05585e-10 4.34916e-10 0.334897)
(-2.7633e-10 4.98538e-10 0.319644)
(-3.19423e-10 4.74219e-10 0.306884)
(-1.60743e-10 3.63915e-10 0.323273)
(1.88317e-10 2.15727e-10 0.38561)
(6.4283e-10 9.46906e-11 0.484914)
(1.09743e-09 4.72682e-11 0.589652)
(1.47119e-09 8.53693e-11 0.662391)
(1.72267e-09 1.9085e-10 0.677227)
(1.83834e-09 3.24315e-10 0.627478)
(1.81716e-09 4.29911e-10 0.524365)
(1.66941e-09 4.46437e-10 0.391174)
(1.42397e-09 3.33364e-10 0.253932)
(1.13101e-09 1.02009e-10 0.133533)