/*--------------------------------*- C++ -*----------------------------------*\
  =========                 |
  \\      /  F ield         | OpenFOAM: The Open Source CFD Toolbox
   \\    /   O peration     | Website:  https://openfoam.org
    \\  /    A nd           | Version:  11
     \\/     M anipulation  |
\*---------------------------------------------------------------------------*/
FoamFile
{
    format      ascii;
    class       volVectorField;
    location    "9.289117";
    object      vorticity;
}
// * * * * * * * * * * * * * * * * * * * * * * * * * * * * * * * * * * * * * //

dimensions      [0 0 -1 0 0 0 0];

internalField   nonuniform List<vector> 
7132
(
(-3.30992e-17 -1.82617e-15 -0.0110604)
(-1.43933e-16 -1.7981e-15 -0.0111371)
(-1.45828e-16 -1.85593e-17 -0.0112036)
(-1.69138e-16 -1.77278e-15 -0.0112574)
(-2.09598e-16 -1.76555e-15 -0.011313)
(-2.09125e-16 -1.76305e-18 -0.0113881)
(-1.92105e-16 1.16264e-17 -0.0114991)
(-1.75009e-16 1.30624e-17 -0.0116531)
(-1.08657e-16 9.24835e-18 -0.01185)
(-8.49465e-17 6.91861e-18 -0.0120779)
(-1.04496e-16 3.97907e-18 -0.0123135)
(-2.97806e-17 6.01239e-18 -0.0125468)
(-6.72329e-17 2.38552e-18 -0.01275)
(-6.67118e-17 7.50634e-17 -0.0128996)
(1.8286e-16 -1.57259e-15 -0.0129754)
(4.95207e-16 -1.55785e-15 -0.0129595)
(8.44132e-16 -1.66271e-15 -0.0128414)
(9.40764e-16 1.53087e-17 -0.0126205)
(1.0387e-15 -1.66353e-15 -0.0123125)
(8.88971e-16 -1.71392e-15 -0.0119544)
(3.08382e-16 -6.85451e-18 -0.0116062)
(-4.96828e-16 3.8854e-17 -0.0113542)
(-1.30237e-15 7.87564e-17 -0.011275)
(-1.82005e-15 5.75693e-17 -0.0114295)
(-2.05271e-15 1.77767e-15 -0.011846)
(-1.96332e-15 5.55168e-17 -0.0124691)
(-1.75967e-15 3.94775e-17 -0.013172)
(-1.54887e-15 2.95599e-17 -0.0137944)
(-1.43741e-15 4.62668e-17 -0.0141832)
(-1.59248e-15 1.81811e-15 -0.0142195)
(-1.51761e-15 1.70317e-15 -0.0138274)
(1.34049e-15 1.75692e-15 -0.0129764)
(-9.15381e-16 2.69331e-15 -0.0117115)
(-5.36237e-14 7.47227e-15 -0.0102618)
(-3.80706e-14 -1.66971e-14 -0.0090206)
(8.8196e-13 -9.30007e-14 -0.00827455)
(3.40912e-12 -1.50869e-13 -0.00806605)
(5.81881e-12 -9.02121e-14 -0.00827014)
(5.53517e-12 4.50139e-14 -0.00882576)
(3.14355e-12 1.19438e-13 -0.00990651)
(1.08505e-12 1.06536e-13 -0.0116788)
(1.70454e-13 5.91863e-14 -0.0138355)
(-4.95224e-14 1.41276e-14 -0.0157998)
(-2.65918e-14 8.80816e-15 -0.0171157)
(-1.13978e-13 7.73362e-14 -0.0175385)
(-2.90668e-13 5.39687e-14 -0.016995)
(9.82175e-13 -7.14307e-13 -0.0155239)
(4.22433e-12 -1.99341e-12 -0.013303)
(-4.99477e-12 2.20888e-12 -0.0110095)
(-5.99189e-11 2.66376e-11 -0.0102884)
(-1.32373e-10 8.02321e-11 -0.0127425)
(-5.63101e-11 1.38835e-10 -0.0178768)
(2.57302e-10 1.46916e-10 -0.0235992)
(5.47292e-10 6.98622e-11 -0.0284459)
(5.05329e-10 -5.18853e-11 -0.0306897)
(2.3509e-10 -1.29839e-10 -0.0287946)
(5.96255e-12 -1.29725e-10 -0.0252046)
(-8.27204e-11 -9.00487e-11 -0.0228061)
(-6.45236e-11 -4.80806e-11 -0.0219482)
(-2.06336e-11 -1.74269e-11 -0.0220513)
(4.26049e-12 -1.48888e-12 -0.0221104)
(8.41372e-12 3.15816e-12 -0.0212985)
(4.49204e-12 2.49976e-12 -0.0194138)
(9.37291e-13 9.22718e-13 -0.0168094)
(-3.95895e-13 5.88657e-14 -0.014044)
(-6.12387e-13 -1.34288e-13 -0.0116601)
(-1.06458e-12 -7.17566e-14 -0.0100635)
(-2.39948e-12 3.51095e-14 -0.00935402)
(-4.18746e-12 1.27068e-13 -0.00938335)
(-5.30864e-12 1.74103e-13 -0.00993865)
(-5.06145e-12 1.25707e-13 -0.0108694)
(-3.75763e-12 5.06934e-15 -0.0120759)
(-2.23377e-12 -9.49372e-14 -0.0133837)
(-1.06464e-12 -1.33008e-13 -0.0145423)
(-3.89589e-13 -1.18338e-13 -0.0153413)
(-9.45338e-14 -8.16092e-14 -0.0156738)
(-9.65538e-15 -4.95686e-14 -0.0155433)
(-9.09715e-15 -2.3616e-14 -0.0150375)
(-2.83814e-14 -1.04478e-14 -0.0142882)
(-4.59038e-14 -1.43599e-15 -0.0134338)
(-6.00435e-14 6.66515e-15 -0.0125917)
(-7.45856e-14 1.03813e-14 -0.0118455)
(-9.18586e-14 1.69861e-14 -0.011244)
(-1.11245e-13 1.90047e-14 -0.010807)
(-1.29868e-13 2.08697e-14 -0.010535)
(-1.4344e-13 2.1999e-14 -0.0104135)
(-1.47693e-13 1.69927e-14 -0.0104153)
(-1.39774e-13 1.32816e-14 -0.010508)
(-1.19946e-13 5.08756e-15 -0.0106589)
(-9.22876e-14 -8.25071e-16 -0.0108378)
(-6.37796e-14 -3.0872e-15 -0.011018)
(-4.18085e-14 -6.44725e-15 -0.0111754)
(-3.02246e-14 -4.3815e-15 -0.0112905)
(-2.88643e-14 -2.94163e-15 -0.0113514)
(-3.49344e-14 -2.97831e-15 -0.0113549)
(-4.45603e-14 1.76231e-16 -0.0113061)
(-5.41424e-14 -6.74111e-16 -0.0112161)
(-6.09984e-14 1.38694e-15 -0.0110995)
(-6.34604e-14 1.19785e-15 -0.0109715)
(-6.06888e-14 -1.24302e-15 -0.0108457)
(-5.22835e-14 -7.23848e-16 -0.0107329)
(-3.81466e-14 -4.19138e-15 -0.0106399)
(-1.84188e-14 -4.61644e-15 -0.0105697)
(6.4008e-15 -7.01937e-15 -0.0105224)
(3.53e-14 -1.11467e-14 -0.0104954)
(6.68193e-14 -1.1464e-14 -0.0104847)
(9.91181e-14 -1.46505e-14 -0.0104854)
(1.30271e-13 -1.35907e-14 -0.0104927)
(1.58547e-13 -1.34742e-14 -0.0105019)
(1.82648e-13 -1.44552e-14 -0.0105094)
(2.01964e-13 -1.15538e-14 -0.010512)
(2.16564e-13 -1.20137e-14 -0.010508)
(2.27147e-13 -9.16172e-15 -0.0104965)
(2.34841e-13 -8.42251e-15 -0.0104774)
(2.40932e-13 -9.94675e-15 -0.0104515)
(2.4673e-13 -8.54738e-15 -0.0104201)
(2.53353e-13 -1.11315e-14 -0.0103847)
(2.6166e-13 -1.06471e-14 -0.0103469)
(2.72189e-13 -1.21752e-14 -0.0103082)
(2.8512e-13 -1.56171e-14 -0.0102699)
(3.00393e-13 -1.5624e-14 -0.0102327)
(3.17713e-13 -1.72929e-14 -0.0101971)
(3.36662e-13 -1.8807e-14 -0.0101632)
(3.56733e-13 -2.00956e-14 -0.0101307)
(3.77355e-13 -2.28489e-14 -0.0100993)
(3.98019e-13 -2.18037e-14 -0.0100683)
(4.18266e-13 -2.21574e-14 -0.010037)
(4.37789e-13 -2.22174e-14 -0.0100049)
(4.5642e-13 -2.20659e-14 -0.00997141)
(4.74124e-13 -2.35665e-14 -0.00993601)
(4.91069e-13 -2.16288e-14 -0.00989838)
(5.07552e-13 -2.15873e-14 -0.00985828)
(5.24006e-13 -2.18108e-14 -0.00981558)
(5.40893e-13 -2.23405e-14 -0.00977019)
(5.58597e-13 -2.48883e-14 -0.00972208)
(5.77413e-13 -2.41228e-14 -0.00967121)
(5.97427e-13 -2.50954e-14 -0.00961756)
(6.18524e-13 -2.59126e-14 -0.00956106)
(6.40342e-13 -2.64345e-14 -0.0095016)
(6.62277e-13 -2.83174e-14 -0.00943902)
(6.83612e-13 -2.63144e-14 -0.00937312)
(7.03551e-13 -2.56896e-14 -0.00930363)
(7.21379e-13 -2.48557e-14 -0.00923021)
(7.36534e-13 -2.40349e-14 -0.00915246)
(7.48727e-13 -2.52688e-14 -0.00906988)
(7.58142e-13 -2.37034e-14 -0.00898191)
(7.65537e-13 -2.49977e-14 -0.00888799)
(7.7243e-13 -2.79559e-14 -0.00878766)
(7.81165e-13 -3.31722e-14 -0.0086807)
(7.94943e-13 -4.30061e-14 -0.00856727)
(8.17863e-13 -5.2811e-14 -0.00844806)
(8.54742e-13 -6.82773e-14 -0.00832397)
(9.10974e-13 -8.80073e-14 -0.00819591)
(9.92178e-13 -1.1206e-13 -0.0080632)
(1.10377e-12 -1.42232e-13 -0.00792407)
(1.25113e-12 -1.71409e-13 -0.00776803)
(1.43548e-12 -2.10313e-13 -0.00760012)
(1.67226e-12 -2.25345e-13 -0.00732673)
(1.89664e-12 -3.51878e-13 -0.00727414)
(2.40151e-12 -2.45092e-13 -0.00614737)
(-3.32131e-17 -3.99099e-18 -0.0330884)
(-1.49564e-16 -6.80487e-18 -0.0333223)
(-1.59933e-16 -6.80378e-18 -0.033525)
(-1.86752e-16 -7.8704e-18 -0.0336865)
(-2.38588e-16 -9.13801e-18 -0.0338469)
(-2.45726e-16 -8.81515e-18 -0.0340574)
(-2.52349e-16 -5.43171e-18 -0.0343669)
(-2.47192e-16 -2.86619e-17 -0.0347987)
(-1.14498e-16 1.69894e-15 -0.0353567)
(-2.0233e-16 4.838e-18 -0.0360106)
(-5.7149e-16 -2.36038e-17 -0.0366923)
(-6.41535e-16 1.7221e-15 -0.0373792)
(9.83099e-17 2.08511e-17 -0.0379966)
(1.41945e-15 -5.04067e-17 -0.0384912)
(2.74314e-15 -1.18611e-16 -0.0388271)
(3.39067e-15 -1.52493e-16 -0.0389838)
(3.3345e-15 -1.50973e-16 -0.0389702)
(1.98215e-15 -8.19743e-17 -0.0388167)
(-7.63095e-16 9.79378e-17 -0.0385721)
(-5.19104e-15 3.85119e-16 -0.0382957)
(-1.08811e-14 6.85198e-16 -0.03805)
(-1.66044e-14 8.44231e-16 -0.0378985)
(-1.95917e-14 7.40367e-16 -0.0378539)
(-1.79534e-14 4.31891e-16 -0.037888)
(-1.42156e-14 1.1458e-16 -0.0379612)
(-1.05696e-14 -9.0153e-17 -0.038014)
(-7.8746e-15 -1.67748e-16 -0.0379874)
(-6.16472e-15 -1.31574e-16 -0.0378351)
(-5.42609e-15 6.12929e-17 -0.0375257)
(-5.66187e-15 1.20103e-16 -0.0370407)
(-1.95103e-15 2.40081e-16 -0.0363808)
(8.25426e-15 -2.01026e-15 -0.035594)
(-4.03372e-14 2.84445e-14 -0.0348509)
(-1.25274e-13 2.43185e-14 -0.0345399)
(8.92311e-13 -4.87952e-13 -0.0351037)
(4.58945e-12 -1.81659e-12 -0.0365384)
(9.47771e-12 -2.62104e-12 -0.038257)
(1.28623e-11 -1.15497e-12 -0.0395107)
(1.25059e-11 1.38091e-12 -0.0399193)
(7.73862e-12 2.34102e-12 -0.0396703)
(2.78062e-12 1.59308e-12 -0.0392743)
(3.81858e-13 6.24738e-13 -0.0390505)
(-2.13747e-13 1.10913e-13 -0.0390102)
(-2.33594e-13 3.75596e-14 -0.0389372)
(-7.83457e-13 2.05912e-13 -0.0385211)
(4.0855e-13 -4.94104e-13 -0.0375055)
(8.57705e-12 -2.97354e-12 -0.0358759)
(-4.07225e-13 9.9333e-13 -0.0344939)
(-1.04731e-10 3.42787e-11 -0.0361757)
(-2.06024e-10 9.03231e-11 -0.0436218)
(4.77967e-10 7.8426e-11 -0.0506176)
(3.10582e-09 -5.60012e-11 -0.0412417)
(7.52288e-09 -1.54887e-10 -0.0116355)
(1.12695e-08 -5.41512e-11 0.0139553)
(1.15007e-08 1.04212e-10 0.008773)
(8.15445e-09 1.19842e-10 -0.0206993)
(3.92922e-09 2.9182e-11 -0.0475776)
(1.06567e-09 -5.48091e-11 -0.0578253)
(-8.47915e-11 -7.9124e-11 -0.0548473)
(-2.36015e-10 -5.18224e-11 -0.0484579)
(-1.04598e-10 -1.60143e-11 -0.0441821)
(-7.82756e-12 3.04413e-12 -0.0418465)
(1.65933e-11 6.23624e-12 -0.0396427)
(1.05078e-11 3.36842e-12 -0.036954)
(2.57201e-12 8.31966e-13 -0.0344216)
(-2.22147e-12 2.03521e-13 -0.0329936)
(-1.00311e-11 8.23527e-13 -0.0331893)
(-2.5315e-11 1.59482e-12 -0.0347577)
(-4.20241e-11 1.58511e-12 -0.0368569)
(-4.82268e-11 6.07629e-13 -0.0385938)
(-3.99345e-11 -6.48061e-13 -0.0395464)
(-2.4751e-11 -1.40704e-12 -0.0398159)
(-1.19478e-11 -1.44316e-12 -0.0396581)
(-4.29723e-12 -1.05336e-12 -0.0392396)
(-8.48789e-13 -6.06864e-13 -0.0386162)
(2.02263e-13 -2.69841e-13 -0.0377857)
(2.55293e-13 -9.05522e-14 -0.0367517)
(5.90423e-14 -1.59878e-14 -0.0355676)
(-1.08662e-13 9.69361e-15 -0.0343421)
(-2.04078e-13 1.2657e-14 -0.0332119)
(-2.5872e-13 2.27382e-14 -0.0323006)
(-3.05129e-13 2.80236e-14 -0.031687)
(-3.55765e-13 3.35807e-14 -0.0313931)
(-4.04996e-13 3.9744e-14 -0.0313901)
(-4.38004e-13 3.5232e-14 -0.0316142)
(-4.36632e-13 3.26458e-14 -0.0319812)
(-3.86258e-13 1.68946e-14 -0.0324004)
(-2.83067e-13 -2.3265e-15 -0.0327917)
(-1.3902e-13 -1.69212e-14 -0.0330972)
(1.812e-14 -3.06426e-14 -0.0332854)
(1.5196e-13 -2.65917e-14 -0.0333479)
(2.31322e-13 -2.149e-14 -0.0332922)
(2.46926e-13 -1.08537e-14 -0.0331354)
(2.09835e-13 1.1484e-15 -0.0329014)
(1.41481e-13 6.60441e-15 -0.0326178)
(6.46353e-14 1.1515e-14 -0.0323131)
(-2.38522e-15 9.27969e-15 -0.0320145)
(-4.7833e-14 6.04552e-15 -0.0317448)
(-6.57184e-14 2.77796e-15 -0.0315211)
(-5.40397e-14 -5.09674e-15 -0.0313531)
(-1.29543e-14 -1.02602e-14 -0.0312432)
(5.62319e-14 -1.9389e-14 -0.0311868)
(1.51079e-13 -2.68904e-14 -0.0311741)
(2.67719e-13 -3.2144e-14 -0.0311921)
(4.00321e-13 -3.96212e-14 -0.0312266)
(5.41229e-13 -4.16383e-14 -0.0312641)
(6.81641e-13 -4.46417e-14 -0.0312929)
(8.12731e-13 -4.33051e-14 -0.0313046)
(9.27116e-13 -3.79277e-14 -0.0312938)
(1.01986e-12 -3.44292e-14 -0.0312583)
(1.08918e-12 -2.67771e-14 -0.0311989)
(1.13647e-12 -2.28705e-14 -0.0311185)
(1.1656e-12 -1.83004e-14 -0.0310214)
(1.1822e-12 -1.35798e-14 -0.0309129)
(1.19241e-12 -1.41567e-14 -0.0307982)
(1.20207e-12 -1.30232e-14 -0.0306822)
(1.21608e-12 -1.68615e-14 -0.0305689)
(1.23788e-12 -2.00653e-14 -0.030461)
(1.26952e-12 -2.21705e-14 -0.0303601)
(1.31156e-12 -2.79845e-14 -0.0302666)
(1.3634e-12 -3.01857e-14 -0.0301798)
(1.4236e-12 -3.36927e-14 -0.0300981)
(1.4901e-12 -3.83173e-14 -0.0300195)
(1.5606e-12 -3.87074e-14 -0.0299416)
(1.63275e-12 -4.17568e-14 -0.0298621)
(1.70439e-12 -4.05242e-14 -0.0297788)
(1.77385e-12 -4.03077e-14 -0.0296901)
(1.83994e-12 -4.12946e-14 -0.0295946)
(1.90215e-12 -3.84988e-14 -0.0294916)
(1.96064e-12 -3.9156e-14 -0.0293808)
(2.01624e-12 -3.6608e-14 -0.029262)
(2.07035e-12 -3.63213e-14 -0.0291355)
(2.1247e-12 -3.84816e-14 -0.0290018)
(2.18113e-12 -3.79013e-14 -0.0288611)
(2.24124e-12 -4.14138e-14 -0.0287137)
(2.30611e-12 -4.18031e-14 -0.0285597)
(2.37609e-12 -4.39159e-14 -0.028399)
(2.45056e-12 -4.73698e-14 -0.0282313)
(2.528e-12 -4.65761e-14 -0.028056)
(2.60602e-12 -4.82176e-14 -0.0278724)
(2.68164e-12 -4.52171e-14 -0.0276796)
(2.75169e-12 -4.28384e-14 -0.0274767)
(2.81312e-12 -4.13473e-14 -0.0272625)
(2.86356e-12 -3.59742e-14 -0.0270357)
(2.90181e-12 -3.4338e-14 -0.026795)
(2.92843e-12 -3.03738e-14 -0.0265386)
(2.94635e-12 -3.04067e-14 -0.0262652)
(2.96134e-12 -3.57698e-14 -0.0259734)
(2.98243e-12 -4.26944e-14 -0.0256629)
(3.02205e-12 -5.96206e-14 -0.0253344)
(3.09592e-12 -8.09758e-14 -0.0249903)
(3.22256e-12 -1.13098e-13 -0.0246339)
(3.42241e-12 -1.56725e-13 -0.024269)
(3.71664e-12 -2.06722e-13 -0.0238954)
(4.1256e-12 -2.69973e-13 -0.0235095)
(4.66909e-12 -3.35531e-13 -0.0230838)
(5.35168e-12 -4.19146e-13 -0.0226336)
(6.22929e-12 -4.55924e-13 -0.0218883)
(7.06294e-12 -7.14768e-13 -0.021799)
(8.93091e-12 -4.95794e-13 -0.0186006)
(-1.07991e-18 -5.99027e-20 -0.0548501)
(-1.66902e-17 -2.08902e-20 -0.0552416)
(-3.07493e-17 3.48678e-20 -0.0555795)
(-5.34342e-17 1.26634e-18 -0.0558447)
(-6.70507e-17 -1.33868e-18 -0.0561012)
(-8.37653e-17 5.11714e-18 -0.0564326)
(-2.29168e-16 1.23593e-17 -0.0569203)
(1.72117e-16 -4.23107e-17 -0.0576033)
(-4.22599e-17 -1.31825e-17 -0.0584921)
(-1.8446e-15 2.21862e-16 -0.0595373)
(-1.11473e-15 2.30358e-16 -0.0606251)
(5.19023e-15 -3.28888e-16 -0.0617375)
(1.24385e-14 -1.03489e-15 -0.0627526)
(1.42047e-14 -1.24735e-15 -0.063598)
(8.7414e-15 -8.23469e-16 -0.0642401)
(-1.51832e-15 -1.18808e-16 -0.0646854)
(-1.58697e-14 7.76277e-16 -0.0649845)
(-3.46704e-14 2.06411e-15 -0.0652112)
(-5.71646e-14 3.65779e-15 -0.0654417)
(-7.89066e-14 5.0798e-15 -0.0657215)
(-9.19441e-14 5.69984e-15 -0.0660443)
(-9.19087e-14 4.39414e-15 -0.0663442)
(-6.74128e-14 7.53242e-16 -0.0664393)
(-2.22699e-14 -2.63049e-15 -0.0660968)
(1.49665e-14 -3.64897e-15 -0.065153)
(3.07441e-14 -3.11496e-15 -0.0635822)
(3.05889e-14 -2.16295e-15 -0.0615308)
(2.33921e-14 -1.19469e-15 -0.0592955)
(1.43517e-14 -2.05156e-16 -0.0572582)
(1.44968e-14 -1.6677e-15 -0.0557991)
(4.03885e-14 -6.98284e-15 -0.0552333)
(-5.79047e-14 1.92322e-14 -0.0558116)
(-2.50494e-13 6.94508e-14 -0.05778)
(2.38229e-12 -4.60604e-13 -0.0613268)
(7.76428e-12 -2.37578e-12 -0.066293)
(-1.92308e-11 -4.38742e-12 -0.0719504)
(-1.22454e-10 -4.28906e-12 -0.0771216)
(-2.34807e-10 -1.60432e-12 -0.0800387)
(-2.33179e-10 2.60513e-12 -0.07941)
(-1.35225e-10 4.98035e-12 -0.0756464)
(-4.73222e-11 3.78319e-12 -0.06982)
(-7.48566e-12 1.55466e-12 -0.0630401)
(2.22531e-12 3.21853e-13 -0.0565894)
(1.02461e-12 2.90194e-13 -0.0515049)
(-1.02577e-12 -2.45484e-13 -0.0482729)
(1.02802e-11 -4.62805e-12 -0.0467529)
(1.90559e-11 -3.08133e-13 -0.0471247)
(-1.15232e-10 5.46604e-11 -0.052671)
(-3.83038e-10 1.05015e-10 -0.0683283)
(4.77268e-10 -2.64713e-10 -0.0828281)
(5.30619e-09 -1.57569e-09 -0.0519552)
(1.57577e-08 -3.38362e-09 0.0678921)
(2.93623e-08 -3.93491e-09 0.258057)
(4.04054e-08 -1.91905e-09 0.425082)
(4.29326e-08 1.50563e-09 0.458593)
(3.47056e-08 3.6559e-09 0.331165)
(2.05544e-08 3.41466e-09 0.137549)
(8.19383e-09 1.91696e-09 -0.00791195)
(1.39376e-09 6.02764e-10 -0.0672049)
(-7.14624e-10 -7.52339e-12 -0.0689111)
(-6.69947e-10 -1.15582e-10 -0.0544528)
(-2.37244e-10 -5.74325e-11 -0.0447472)
(-3.90228e-12 -6.66791e-12 -0.0421184)
(4.35867e-11 7.93857e-12 -0.0432924)
(2.57257e-11 6.42523e-12 -0.0463334)
(-1.77165e-12 6.16725e-12 -0.0511263)
(-4.2032e-11 1.14784e-11 -0.0579104)
(-1.01337e-10 1.60316e-11 -0.0659618)
(-1.5441e-10 1.15882e-11 -0.0730642)
(-1.6354e-10 -8.68946e-13 -0.0766768)
(-1.2238e-10 -1.16122e-11 -0.0759386)
(-6.45181e-11 -1.39848e-11 -0.0720421)
(-2.41852e-11 -1.03218e-11 -0.0667689)
(-4.64526e-12 -5.67903e-12 -0.0613366)
(1.83494e-12 -2.36636e-12 -0.0564649)
(2.42255e-12 -6.33671e-13 -0.0525172)
(1.30199e-12 2.55318e-14 -0.0495973)
(2.30998e-13 1.58361e-13 -0.0476558)
(-3.77727e-13 1.24582e-13 -0.0465886)
(-6.34853e-13 7.53245e-14 -0.0462906)
(-7.35235e-13 5.71771e-14 -0.0466602)
(-7.95487e-13 6.23783e-14 -0.047583)
(-8.35936e-13 6.69196e-14 -0.0489175)
(-8.17559e-13 6.35913e-14 -0.0504955)
(-6.84588e-13 3.84243e-14 -0.0521328)
(-3.88412e-13 -3.87336e-15 -0.0536467)
(8.66504e-14 -5.6324e-14 -0.0548791)
(7.0376e-13 -1.10337e-13 -0.0557185)
(1.37146e-12 -1.42036e-13 -0.0561137)
(1.9629e-12 -1.4458e-13 -0.0560757)
(2.35214e-12 -1.09686e-13 -0.0556679)
(2.46248e-12 -5.21958e-14 -0.0549888)
(2.31047e-12 6.36088e-15 -0.0541515)
(1.97954e-12 4.97812e-14 -0.0532659)
(1.57345e-12 7.13572e-14 -0.0524261)
(1.18272e-12 7.21092e-14 -0.0517027)
(8.68967e-13 5.72948e-14 -0.0511401)
(6.64274e-13 3.30518e-14 -0.0507575)
(5.78625e-13 4.30116e-15 -0.0505523)
(6.09122e-13 -2.58895e-14 -0.050505)
(7.46895e-13 -5.58596e-14 -0.050584)
(9.80331e-13 -8.44725e-14 -0.050751)
(1.29517e-12 -1.1036e-13 -0.0509658)
(1.67317e-12 -1.3164e-13 -0.0511902)
(2.09107e-12 -1.46167e-13 -0.0513914)
(2.52128e-12 -1.52124e-13 -0.051544)
(2.93441e-12 -1.48667e-13 -0.0516316)
(3.30314e-12 -1.36328e-13 -0.0516463)
(3.60627e-12 -1.17038e-13 -0.0515888)
(3.83186e-12 -9.37549e-14 -0.0514662)
(3.97839e-12 -6.98579e-14 -0.0512908)
(4.054e-12 -4.84882e-14 -0.0510775)
(4.07406e-12 -3.20295e-14 -0.0508424)
(4.05792e-12 -2.18237e-14 -0.0506004)
(4.02565e-12 -1.81476e-14 -0.0503643)
(3.99529e-12 -2.03824e-14 -0.0501437)
(3.9811e-12 -2.72997e-14 -0.0499448)
(3.99261e-12 -3.73678e-14 -0.0497699)
(4.03463e-12 -4.90141e-14 -0.0496186)
(4.10773e-12 -6.08229e-14 -0.0494875)
(4.20908e-12 -7.16449e-14 -0.0493717)
(4.33346e-12 -8.06456e-14 -0.049265)
(4.47424e-12 -8.73102e-14 -0.0491613)
(4.62432e-12 -9.14169e-14 -0.0490545)
(4.77691e-12 -9.30079e-14 -0.0489395)
(4.9262e-12 -9.2355e-14 -0.0488124)
(5.06784e-12 -8.99292e-14 -0.0486705)
(5.19923e-12 -8.63675e-14 -0.0485125)
(5.31972e-12 -8.24186e-14 -0.0483381)
(5.43055e-12 -7.88759e-14 -0.0481478)
(5.53461e-12 -7.64811e-14 -0.047943)
(5.63611e-12 -7.5817e-14 -0.0477251)
(5.73993e-12 -7.72036e-14 -0.0474957)
(5.851e-12 -8.06137e-14 -0.0472562)
(5.97348e-12 -8.56438e-14 -0.0470075)
(6.11003e-12 -9.15444e-14 -0.0467498)
(6.26124e-12 -9.73181e-14 -0.046483)
(6.42528e-12 -1.01869e-13 -0.0462065)
(6.5978e-12 -1.04165e-13 -0.0459191)
(6.77231e-12 -1.03406e-13 -0.0456192)
(6.9407e-12 -9.91518e-14 -0.0453052)
(7.0942e-12 -9.14268e-14 -0.0449753)
(7.22447e-12 -8.07885e-14 -0.0446273)
(7.32487e-12 -6.83788e-14 -0.0442592)
(7.39192e-12 -5.5968e-14 -0.0438687)
(7.42675e-12 -4.59757e-14 -0.0434534)
(7.43655e-12 -4.14535e-14 -0.0430108)
(7.4359e-12 -4.5994e-14 -0.0425393)
(7.44765e-12 -6.35266e-14 -0.0420383)
(7.50323e-12 -9.80181e-14 -0.0415093)
(7.64211e-12 -1.53071e-13 -0.0409565)
(7.91032e-12 -2.31523e-13 -0.0403862)
(8.35822e-12 -3.35047e-13 -0.0398057)
(9.03728e-12 -4.63654e-13 -0.039217)
(9.9963e-12 -6.1672e-13 -0.0386167)
(1.12815e-11 -7.84449e-13 -0.0379646)
(1.29032e-11 -9.90411e-13 -0.0372867)
(1.49888e-11 -1.08098e-12 -0.0361496)
(1.69762e-11 -1.70269e-12 -0.0360857)
(2.13938e-11 -1.17734e-12 -0.0310493)
(-4.46072e-17 4.89408e-18 -0.0761522)
(-1.44683e-16 8.02981e-18 -0.0767004)
(-1.21583e-16 1.15682e-17 -0.0771676)
(-1.87153e-16 1.02803e-17 -0.0775249)
(-3.58534e-17 6.0275e-18 -0.0778617)
(-5.2741e-16 7.22437e-17 -0.0782955)
(3.19054e-16 -1.33373e-16 -0.078942)
(1.1318e-15 -1.22116e-16 -0.0798557)
(-6.01473e-15 2.7073e-15 -0.0810567)
(-6.7688e-16 5.41074e-16 -0.0824702)
(2.75337e-14 -5.27574e-15 -0.0839266)
(3.817e-14 -5.0545e-15 -0.0854358)
(-7.04519e-15 -4.48638e-15 -0.0868123)
(-9.43724e-14 1.79813e-15 -0.087959)
(-1.78248e-13 7.74289e-15 -0.0888307)
(-2.36667e-13 1.2153e-14 -0.0894319)
(-2.8151e-13 1.64251e-14 -0.0898478)
(-3.10309e-13 2.05655e-14 -0.0901952)
(-3.05908e-13 2.2216e-14 -0.0905812)
(-2.34511e-13 1.77749e-14 -0.0910592)
(-5.53997e-14 7.18625e-15 -0.0916037)
(2.46818e-13 -1.14214e-14 -0.0921149)
(6.08034e-13 -3.4079e-14 -0.0923314)
(8.37129e-13 -4.07578e-14 -0.0918832)
(8.53522e-13 -2.63924e-14 -0.0904989)
(7.33045e-13 -7.90134e-15 -0.0881324)
(5.59833e-13 3.50824e-15 -0.0849799)
(3.93042e-13 7.98699e-15 -0.0814681)
(2.66325e-13 4.50895e-15 -0.0782194)
(2.5689e-13 -1.28983e-14 -0.0759204)
(2.33205e-13 3.64408e-14 -0.0751603)
(-6.22375e-13 1.43431e-13 -0.076375)
(1.1526e-12 -1.19166e-12 -0.0798772)
(1.66334e-11 -3.98307e-12 -0.0854919)
(-1.73658e-12 1.03186e-11 -0.0926618)
(-2.38608e-10 6.32926e-11 -0.102743)
(-7.86049e-10 1.05167e-10 -0.117125)
(-1.33503e-09 5.42075e-11 -0.128733)
(-1.39502e-09 -4.84105e-11 -0.127376)
(-9.2088e-10 -9.05874e-11 -0.114952)
(-3.85992e-10 -6.22764e-11 -0.100486)
(-8.79784e-11 -2.4149e-11 -0.0876437)
(9.52156e-12 -4.14422e-12 -0.0764917)
(1.46903e-11 1.6631e-12 -0.0674941)
(1.12076e-11 -4.42191e-12 -0.0614396)
(3.92479e-11 -1.05349e-11 -0.0584231)
(-4.48752e-11 5.97824e-11 -0.0609069)
(-4.81269e-10 2.0204e-10 -0.07713)
(-2.05261e-10 -2.61971e-10 -0.10135)
(4.602e-09 -2.75429e-09 -0.0759909)
(1.72554e-08 -7.56177e-09 0.0797974)
(3.49595e-08 -1.20841e-08 0.374987)
(5.11095e-08 -1.24788e-08 0.739085)
(6.257e-08 -6.83929e-09 1.08058)
(6.84746e-08 2.95414e-09 1.26566)
(6.42606e-08 1.13089e-08 1.14539)
(4.71386e-08 1.32851e-08 0.745403)
(2.47245e-08 9.52553e-09 0.298811)
(7.6779e-09 4.3751e-09 0.0101111)
(-1.95137e-10 9.80034e-10 -0.0905046)
(-1.71874e-09 -2.54706e-10 -0.0873953)
(-9.82613e-10 -3.29978e-10 -0.0624594)
(-2.23168e-10 -1.34179e-10 -0.0494034)
(7.22968e-11 -1.14456e-11 -0.0497168)
(8.67604e-11 2.35094e-11 -0.0571385)
(2.35473e-11 3.40807e-11 -0.0682343)
(-1.11701e-11 5.06063e-11 -0.0822663)
(4.02393e-11 5.77839e-11 -0.0976278)
(1.56571e-10 3.26865e-11 -0.110325)
(2.46492e-10 -1.54076e-11 -0.11606)
(2.56281e-10 -5.0159e-11 -0.113507)
(2.00911e-10 -5.05043e-11 -0.105318)
(1.18015e-10 -3.13796e-11 -0.0952807)
(5.27856e-11 -1.40634e-11 -0.0853265)
(1.77736e-11 -4.13902e-12 -0.0765078)
(3.7623e-12 -3.38277e-15 -0.069451)
(-5.54889e-13 1.00522e-12 -0.0644043)
(-1.5654e-12 8.23871e-13 -0.0613153)
(-1.70902e-12 4.42619e-13 -0.0599624)
(-1.69407e-12 1.91424e-13 -0.06006)
(-1.68389e-12 1.03048e-13 -0.0613082)
(-1.6492e-12 7.83744e-14 -0.0634044)
(-1.43912e-12 4.46227e-14 -0.066044)
(-8.44776e-13 -3.59302e-14 -0.0689253)
(3.14513e-13 -1.7934e-13 -0.0717556)
(2.12804e-12 -3.52972e-13 -0.0742661)
(4.50737e-12 -5.29192e-13 -0.0762395)
(7.15539e-12 -6.44734e-13 -0.0775332)
(9.62229e-12 -6.46489e-13 -0.0780935)
(1.14336e-11 -5.20983e-13 -0.0779564)
(1.22371e-11 -2.76383e-13 -0.0772342)
(1.1932e-11 -6.55872e-16 -0.0760907)
(1.07405e-11 2.30614e-13 -0.0747115)
(9.0588e-12 3.69658e-13 -0.0732764)
(7.28366e-12 4.05017e-13 -0.0719396)
(5.71227e-12 3.63758e-13 -0.0708151)
(4.51473e-12 2.68502e-13 -0.0699722)
(3.75425e-12 1.51216e-13 -0.0694358)
(3.42534e-12 3.03542e-14 -0.0691937)
(3.48903e-12 -8.92315e-14 -0.0692051)
(3.89481e-12 -1.95865e-13 -0.0694115)
(4.58908e-12 -2.93528e-13 -0.0697456)
(5.5139e-12 -3.73308e-13 -0.0701399)
(6.60243e-12 -4.30093e-13 -0.0705329)
(7.77644e-12 -4.63678e-13 -0.0708741)
(8.94917e-12 -4.6331e-13 -0.0711262)
(1.00345e-11 -4.35572e-13 -0.0712668)
(1.09571e-11 -3.79235e-13 -0.0712877)
(1.16626e-11 -3.02287e-13 -0.0711934)
(1.2127e-11 -2.20488e-13 -0.0709983)
(1.23569e-11 -1.37849e-13 -0.0707239)
(1.23851e-11 -7.07043e-14 -0.0703951)
(1.22629e-11 -2.02592e-14 -0.0700377)
(1.20494e-11 1.06267e-14 -0.0696751)
(1.18027e-11 1.7156e-14 -0.0693267)
(1.15725e-11 9.25063e-15 -0.0690067)
(1.1396e-11 -1.5519e-14 -0.0687234)
(1.12966e-11 -4.68317e-14 -0.0684795)
(1.12841e-11 -7.97313e-14 -0.0682726)
(1.13568e-11 -1.1521e-13 -0.0680968)
(1.15044e-11 -1.43051e-13 -0.0679435)
(1.17108e-11 -1.66271e-13 -0.0678029)
(1.19571e-11 -1.83745e-13 -0.0676651)
(1.22238e-11 -1.90043e-13 -0.067521)
(1.24932e-11 -1.92699e-13 -0.0673632)
(1.2751e-11 -1.85987e-13 -0.067186)
(1.29872e-11 -1.76822e-13 -0.0669861)
(1.3197e-11 -1.67238e-13 -0.066762)
(1.33805e-11 -1.54157e-13 -0.0665137)
(1.35426e-11 -1.466e-13 -0.0662428)
(1.36918e-11 -1.39388e-13 -0.0659515)
(1.38392e-11 -1.38982e-13 -0.0656426)
(1.39974e-11 -1.4593e-13 -0.0653184)
(1.41781e-11 -1.54674e-13 -0.0649812)
(1.43909e-11 -1.70926e-13 -0.0646323)
(1.46415e-11 -1.85685e-13 -0.0642722)
(1.49305e-11 -2.0154e-13 -0.0639006)
(1.52528e-11 -2.15651e-13 -0.0635164)
(1.55973e-11 -2.20093e-13 -0.0631178)
(1.59478e-11 -2.19666e-13 -0.0627029)
(1.62844e-11 -2.06162e-13 -0.062269)
(1.65854e-11 -1.8472e-13 -0.0618136)
(1.68305e-11 -1.56682e-13 -0.061334)
(1.70033e-11 -1.19704e-13 -0.0608274)
(1.70951e-11 -8.52786e-14 -0.0602906)
(1.7108e-11 -5.26883e-14 -0.0597206)
(1.70588e-11 -3.49818e-14 -0.0591142)
(1.69808e-11 -4.13196e-14 -0.0584689)
(1.69268e-11 -7.63575e-14 -0.0577841)
(1.69684e-11 -1.56848e-13 -0.0570616)
(1.7195e-11 -2.84521e-13 -0.056307)
(1.77095e-11 -4.71154e-13 -0.055529)
(1.86233e-11 -7.20208e-13 -0.0547376)
(2.00483e-11 -1.02576e-12 -0.0539371)
(2.20882e-11 -1.3921e-12 -0.0531245)
(2.48383e-11 -1.78897e-12 -0.0522479)
(2.83163e-11 -2.27275e-12 -0.0513446)
(3.27788e-11 -2.49243e-12 -0.0498288)
(3.70419e-11 -3.91727e-12 -0.0497757)
(4.64016e-11 -2.70459e-12 -0.0430262)
(4.93268e-17 1.82931e-15 -0.0967564)
(1.94128e-16 1.77319e-15 -0.0974611)
(1.36624e-16 2.12699e-17 -0.0980504)
(2.82778e-16 1.69312e-15 -0.0984844)
(4.50177e-16 1.90351e-15 -0.0988769)
(-1.27514e-15 1.56239e-15 -0.0993806)
(7.52162e-15 -8.17244e-16 -0.100147)
(-1.56158e-14 3.15169e-15 -0.101245)
(-8.12598e-15 8.91156e-16 -0.10271)
(9.69448e-14 -1.83413e-14 -0.104433)
(6.07743e-14 -1.91931e-14 -0.106176)
(-2.95982e-13 1.69876e-14 -0.108022)
(-7.79122e-13 6.52363e-14 -0.109692)
(-1.07639e-12 8.43543e-14 -0.111062)
(-1.06217e-12 7.03239e-14 -0.112083)
(-8.44012e-13 5.49815e-14 -0.112779)
(-4.97791e-13 3.93317e-14 -0.113264)
(1.93299e-14 1.4263e-14 -0.113676)
(8.00579e-13 -3.25065e-14 -0.114149)
(1.91796e-12 -1.1844e-13 -0.114753)
(3.46423e-12 -2.34965e-13 -0.115475)
(5.61946e-12 -3.27323e-13 -0.1162)
(7.43634e-12 -2.94402e-13 -0.116562)
(7.25152e-12 -1.25375e-13 -0.116043)
(5.57157e-12 4.83931e-14 -0.114281)
(4.02998e-12 1.41995e-13 -0.111274)
(2.88925e-12 1.67838e-13 -0.107284)
(2.03362e-12 1.45559e-13 -0.102805)
(1.47005e-12 6.78709e-14 -0.0986019)
(1.31964e-12 1.48651e-14 -0.0955699)
(3.45838e-13 4.29207e-13 -0.0945098)
(-4.6115e-13 -4.42159e-13 -0.0960944)
(1.51929e-11 -8.55844e-12 -0.100593)
(1.60087e-11 9.82212e-13 -0.107028)
(-2.0395e-10 1.25243e-10 -0.116878)
(-6.18477e-10 3.87767e-10 -0.138969)
(-6.42596e-10 5.43921e-10 -0.176084)
(-3.76978e-10 3.02883e-10 -0.210124)
(-5.64767e-10 -2.04472e-10 -0.213857)
(-8.53044e-10 -4.99537e-10 -0.182795)
(-7.05416e-10 -4.12671e-10 -0.143223)
(-3.36893e-10 -1.96206e-10 -0.114009)
(-6.30162e-11 -5.10125e-11 -0.0954462)
(2.85035e-11 -5.54608e-13 -0.0834189)
(5.90316e-11 -1.2526e-11 -0.0752148)
(5.91236e-11 2.34116e-11 -0.0709966)
(-3.34294e-10 2.59949e-10 -0.0795258)
(-8.18408e-10 1.34853e-10 -0.106889)
(2.18391e-09 -2.43662e-09 -0.104753)
(1.36444e-08 -8.99505e-09 0.0270004)
(3.10068e-08 -1.67544e-08 0.299697)
(4.33543e-08 -2.03107e-08 0.601495)
(4.49834e-08 -1.77401e-08 0.896866)
(4.30626e-08 -1.06016e-08 1.2784)
(4.80837e-08 6.60328e-10 1.71887)
(5.82895e-08 1.43239e-08 1.92329)
(5.84695e-08 2.31827e-08 1.61628)
(4.16938e-08 2.16473e-08 0.938183)
(1.91316e-08 1.30626e-08 0.300718)
(3.58685e-09 4.6908e-09 -0.0450386)
(-2.11834e-09 2.78155e-10 -0.130969)
(-2.15512e-09 -8.05219e-10 -0.104591)
(-8.49984e-10 -5.34123e-10 -0.0702378)
(-4.67105e-11 -1.47026e-10 -0.059532)
(1.47588e-10 3.08e-11 -0.0679267)
(2.23989e-10 5.51342e-11 -0.0847801)
(7.87322e-10 3.13416e-12 -0.0999817)
(2.10639e-09 -6.78389e-11 -0.10569)
(3.62101e-09 -9.15367e-11 -0.103787)
(4.31226e-09 -5.07241e-11 -0.103532)
(3.76436e-09 1.11802e-11 -0.10816)
(2.49646e-09 5.51503e-11 -0.112697)
(1.26558e-09 6.3741e-11 -0.112556)
(4.6471e-10 4.44432e-11 -0.106484)
(9.22723e-11 2.21453e-11 -0.097017)
(-2.23407e-11 8.5323e-12 -0.0875849)
(-3.26164e-11 2.69117e-12 -0.0803248)
(-1.90924e-11 7.35428e-13 -0.0758694)
(-8.45836e-12 1.90669e-13 -0.0740122)
(-3.88616e-12 6.27594e-14 -0.0742733)
(-2.6647e-12 3.64345e-14 -0.0761456)
(-2.22478e-12 -5.82682e-14 -0.0791499)
(-9.61534e-13 -3.35293e-13 -0.0828365)
(2.09066e-12 -8.11498e-13 -0.0867831)
(7.44601e-12 -1.44798e-12 -0.0905956)
(1.51073e-11 -2.09856e-12 -0.0939236)
(2.4343e-11 -2.56827e-12 -0.0964966)
(3.3717e-11 -2.6678e-12 -0.0981473)
(4.14684e-11 -2.27942e-12 -0.0988254)
(4.60869e-11 -1.45199e-12 -0.0985951)
(4.6798e-11 -3.57126e-13 -0.0976154)
(4.38095e-11 6.96101e-13 -0.096106)
(3.82699e-11 1.44294e-12 -0.0943057)
(3.16622e-11 1.77821e-12 -0.0924422)
(2.52662e-11 1.74462e-12 -0.0907108)
(1.99155e-11 1.45831e-12 -0.0892588)
(1.59945e-11 1.03631e-12 -0.0881765)
(1.35612e-11 5.77746e-13 -0.0874972)
(1.24939e-11 1.36911e-13 -0.0872042)
(1.2603e-11 -2.60623e-13 -0.0872422)
(1.36906e-11 -6.04149e-13 -0.0875314)
(1.55664e-11 -8.94018e-13 -0.0879806)
(1.80387e-11 -1.11704e-12 -0.0884993)
(2.08989e-11 -1.26291e-12 -0.0890064)
(2.39152e-11 -1.31954e-12 -0.0894365)
(2.68443e-11 -1.27943e-12 -0.0897436)
(2.94587e-11 -1.15261e-12 -0.0899014)
(3.15683e-11 -9.50387e-13 -0.0899029)
(3.30463e-11 -7.02035e-13 -0.089757)
(3.38526e-11 -4.40866e-13 -0.0894851)
(3.40302e-11 -1.9715e-13 -0.0891161)
(3.36882e-11 -1.49893e-15 -0.0886827)
(3.29767e-11 1.35821e-13 -0.0882174)
(3.20588e-11 2.08276e-13 -0.0877493)
(3.10874e-11 2.20312e-13 -0.0873023)
(3.01878e-11 1.84675e-13 -0.0868929)
(2.94495e-11 1.10622e-13 -0.0865304)
(2.8924e-11 1.86114e-14 -0.0862172)
(2.86281e-11 -7.90882e-14 -0.0859496)
(2.85507e-11 -1.70985e-13 -0.0857191)
(2.86601e-11 -2.46941e-13 -0.0855145)
(2.8912e-11 -3.06998e-13 -0.0853233)
(2.92568e-11 -3.43778e-13 -0.0851332)
(2.9646e-11 -3.59452e-13 -0.0849331)
(3.00371e-11 -3.56594e-13 -0.0847141)
(3.03975e-11 -3.3762e-13 -0.08447)
(3.07063e-11 -3.12948e-13 -0.0841971)
(3.09554e-11 -2.83039e-13 -0.0838942)
(3.11488e-11 -2.55216e-13 -0.083562)
(3.1301e-11 -2.34493e-13 -0.0832029)
(3.14343e-11 -2.23074e-13 -0.0828201)
(3.1576e-11 -2.28647e-13 -0.0824168)
(3.17546e-11 -2.46631e-13 -0.0819963)
(3.19962e-11 -2.77339e-13 -0.081561)
(3.2321e-11 -3.17322e-13 -0.0811122)
(3.27399e-11 -3.59616e-13 -0.0806503)
(3.32522e-11 -4.02989e-13 -0.0801746)
(3.38444e-11 -4.35288e-13 -0.0796835)
(3.449e-11 -4.51688e-13 -0.0791747)
(3.51515e-11 -4.4694e-13 -0.0786456)