/*--------------------------------*- C++ -*----------------------------------*\
  =========                 |
  \\      /  F ield         | OpenFOAM: The Open Source CFD Toolbox
   \\    /   O peration     | Website:  https://openfoam.org
    \\  /    A nd           | Version:  11
     \\/     M anipulation  |
\*---------------------------------------------------------------------------*/
FoamFile
{
    format      ascii;
    class       volVectorField;
    location    "12.289742";
    object      U;
}
// * * * * * * * * * * * * * * * * * * * * * * * * * * * * * * * * * * * * * //

dimensions      [0 1 -1 0 0 0 0];

internalField   nonuniform List<vector> 
7132
(
(1.00014 -0.000269183 2.07397e-18)
(1.00208 -0.000793586 8.30797e-18)
(1.00637 -0.00131192 9.07161e-18)
(1.01263 -0.00182268 1.11819e-17)
(1.02094 -0.0023192 1.49485e-17)
(1.0312 -0.00277619 1.65192e-17)
(1.04318 -0.00315068 1.67486e-17)
(1.05647 -0.00337254 1.64954e-17)
(1.07025 -0.00336731 1.60382e-17)
(1.08354 -0.00308953 1.5226e-17)
(1.09507 -0.00253309 1.39672e-17)
(1.10393 -0.00186803 1.27269e-17)
(1.11002 -0.00123565 1.1475e-17)
(1.11378 -0.000777516 1.05315e-17)
(1.11618 -0.000554574 5.41995e-18)
(1.11817 -0.000477851 1.63459e-19)
(1.12006 -0.00036024 -4.66508e-18)
(1.12123 2.61653e-05 -4.65496e-18)
(1.12012 0.000811529 -6.43392e-18)
(1.11501 0.00191784 -7.05349e-18)
(1.10498 0.00309143 -5.60234e-18)
(1.09036 0.00403667 -4.21726e-18)
(1.07264 0.00452623 -3.37754e-18)
(1.054 0.00443612 -2.1464e-18)
(1.03693 0.003733 -2.0236e-19)
(1.02389 0.00245531 -5.24777e-19)
(1.01705 0.000715687 -3.6285e-17)
(1.018 -0.00127295 -5.89946e-17)
(1.02723 -0.00315486 3.8072e-16)
(1.04345 -0.00444341 1.51944e-15)
(1.0632 -0.00467418 2.27208e-15)
(1.08138 -0.00366176 1.82036e-15)
(1.09301 -0.00166397 8.79885e-16)
(1.09505 0.000727277 2.43908e-16)
(1.08731 0.00288208 1.02927e-16)
(1.07188 0.00437943 6.57691e-17)
(1.052 0.00505411 -1.1017e-15)
(1.03109 0.00490521 -2.14714e-15)
(1.01235 0.00398867 9.09072e-15)
(0.998742 0.00236698 4.16771e-14)
(0.992989 0.000137694 1.12133e-14)
(0.997323 -0.00247191 -3.85387e-13)
(1.01268 -0.00499532 -1.51756e-12)
(1.03754 -0.00674327 -3.15542e-12)
(1.06719 -0.00704778 -4.23581e-12)
(1.09465 -0.00563483 -3.95481e-12)
(1.11297 -0.00284834 -2.67135e-12)
(1.11791 0.000486968 -1.30045e-12)
(1.10923 0.00347025 -3.89281e-13)
(1.08999 0.00550256 2.05281e-14)
(1.06484 0.00639882 1.22444e-13)
(1.03835 0.00625277 3.89988e-14)
(1.01434 0.0052341 -2.47995e-13)
(0.995988 0.00346102 -3.92274e-13)
(0.986162 0.00100635 1.1996e-12)
(0.987509 -0.00197839 7.50334e-12)
(1.00176 -0.00509963 2.13834e-11)
(1.0284 -0.00767065 4.20554e-11)
(1.06359 -0.00888682 6.26225e-11)
(1.10025 -0.00818374 7.35157e-11)
(1.12991 -0.00556831 6.96897e-11)
(1.14555 -0.00169677 5.34711e-11)
(1.14395 0.00237733 3.18685e-11)
(1.1266 0.00565271 1.32068e-11)
(1.09844 0.00755713 2.04727e-12)
(1.06564 0.00803251 -2.40362e-12)
(1.03362 0.00734655 -3.1852e-12)
(1.00634 0.0058151 -5.85078e-13)
(0.986575 0.00362357 1.06155e-11)
(0.976772 0.000842684 3.90411e-11)
(0.979236 -0.00239077 9.11158e-11)
(0.995392 -0.00568122 1.65774e-10)
(1.02441 -0.00835632 2.52489e-10)
(1.06228 -0.00967726 3.3379e-10)
(1.10219 -0.009155 3.9065e-10)
(1.13613 -0.00677642 4.08303e-10)
(1.15715 -0.00303246 3.80858e-10)
(1.16114 0.00123175 3.1327e-10)
(1.14788 0.00506528 2.19764e-10)
(1.12092 0.00769685 1.22053e-10)
(1.08628 0.00875785 4.3347e-11)
(1.05057 0.00833241 -7.09965e-13)
(1.01917 0.00677421 -5.73016e-12)
(0.995835 0.00441341 2.50992e-11)
(0.983315 0.00142085 8.56376e-11)
(0.984041 -0.0020388 1.67799e-10)
(0.999511 -0.00556017 2.60935e-10)
(1.02884 -0.0084615 3.53235e-10)
(1.0679 -0.010028 4.34934e-10)
(1.1099 -0.00984564 5.00466e-10)
(1.14734 -0.00798992 5.47948e-10)
(1.17414 -0.00497901 5.76725e-10)
(1.18709 -0.00155467 5.84561e-10)
(1.1862 0.00157013 5.65595e-10)
(1.17401 0.00388468 5.1095e-10)
(1.15461 0.00511364 4.16438e-10)
(1.1327 0.00515586 2.92342e-10)
(1.11309 0.0040346 1.64937e-10)
(1.10025 0.0018951 6.48684e-11)
(1.09786 -0.000974471 1.12185e-11)
(1.10815 -0.00413508 4.81488e-12)
(1.13132 -0.00703147 3.36207e-11)
(1.16512 -0.00908091 8.22441e-11)
(1.20499 -0.00981147 1.38183e-10)
(1.24477 -0.00899785 1.93494e-10)
(1.27803 -0.00673296 2.44013e-10)
(1.29939 -0.00341134 2.88146e-10)
(1.30567 0.000361908 3.26087e-10)
(1.29645 0.00390722 3.59081e-10)
(1.27401 0.00663382 3.89051e-10)
(1.2427 0.00817657 4.18291e-10)
(1.20776 0.00846471 4.4678e-10)
(1.17411 0.00770435 4.67826e-10)
(1.14533 0.00627074 4.67272e-10)
(1.12327 0.00454378 4.30679e-10)
(1.10846 0.00277086 3.54477e-10)
(1.10075 0.00104113 2.51343e-10)
(1.09993 -0.000627546 1.44845e-10)
(1.10572 -0.00217489 5.79618e-11)
(1.11739 -0.00344667 3.96575e-12)
(1.13342 -0.00422498 -1.58137e-11)
(1.15134 -0.00430569 -8.78019e-12)
(1.16801 -0.00357649 1.37769e-11)
(1.1801 -0.00207053 4.05206e-11)
(1.18474 1.13417e-05 6.22415e-11)
(1.1802 0.00231688 7.28786e-11)
(1.1664 0.0044108 7.01548e-11)
(1.14507 0.00589192 5.59947e-11)
(1.11934 0.00651867 3.59123e-11)
(1.0929 0.0062804 1.66916e-11)
(1.06901 0.00537421 3.26008e-12)
(1.0498 0.0041041 -3.11648e-12)
(1.03607 0.00276393 -4.21552e-12)
(1.02761 0.00156188 -2.83267e-12)
(1.02355 0.000604026 -1.10471e-12)
(1.0228 -8.23265e-05 1.66288e-14)
(1.02426 -0.000514393 4.51731e-13)
(1.02699 -0.000727111 4.73552e-13)
(1.03017 -0.000758927 3.56998e-13)
(1.03314 -0.000647911 2.54574e-13)
(1.03542 -0.000432984 2.08268e-13)
(1.03666 -0.000155451 2.02642e-13)
(1.0367 0.000142028 2.08764e-13)
(1.03555 0.00041935 2.06338e-13)
(1.03335 0.000644121 1.88545e-13)
(1.03037 0.000795596 1.58367e-13)
(1.02695 0.000866107 1.22998e-13)
(1.02341 0.00085978 8.95251e-14)
(1.02004 0.000789613 6.27365e-14)
(1.01706 0.000673652 4.47216e-14)
(1.01462 0.000531827 3.54633e-14)
(1.01278 0.000382673 3.37307e-14)
(1.01155 0.000242234 3.78362e-14)
(1.01084 0.000121415 4.60882e-14)
(1.01058 2.80217e-05 5.69849e-14)
(1.01062 -3.67178e-05 6.92379e-14)
(1.01089 -7.20251e-05 8.17624e-14)
(1.01121 -8.26614e-05 9.36573e-14)
(1.01156 -7.65743e-05 1.03702e-13)
(1.01183 -3.43662e-05 1.14883e-13)
(1.00014 -0.000806299 3.0298e-20)
(1.00207 -0.00237822 4.00854e-19)
(1.00635 -0.00393342 8.46934e-19)
(1.0126 -0.00546971 1.39642e-18)
(1.02092 -0.00696777 2.1002e-18)
(1.03124 -0.00835223 2.83034e-18)
(1.04334 -0.00949356 3.40221e-18)
(1.05683 -0.0101763 4.18095e-18)
(1.07089 -0.0101706 6.26489e-18)
(1.08448 -0.00932925 5.65451e-18)
(1.09623 -0.00762725 4.97712e-18)
(1.10514 -0.00559533 8.93399e-18)
(1.11114 -0.0036678 8.21059e-18)
(1.11469 -0.00228725 5.89672e-18)
(1.11689 -0.00164772 1.61049e-18)
(1.11881 -0.00147429 -2.90067e-18)
(1.12084 -0.00118602 -4.67265e-18)
(1.12233 -6.87325e-05 -2.86096e-18)
(1.12158 0.00229178 1.33924e-19)
(1.11668 0.0056571 2.55226e-18)
(1.10659 0.00924239 4.06418e-18)
(1.09166 0.0121387 4.83554e-18)
(1.07344 0.0136544 3.18114e-18)
(1.05421 0.0134165 2.80524e-18)
(1.03654 0.0113242 2.71976e-17)
(1.02295 0.00748716 -5.23691e-19)
(1.01571 0.0022326 -4.70874e-16)
(1.01654 -0.00381144 -3.68575e-16)
(1.02607 -0.00957174 7.52032e-15)
(1.04309 -0.0135526 2.7597e-14)
(1.06399 -0.0143076 4.29581e-14)
(1.0833 -0.0112468 3.58124e-14)
(1.09566 -0.00515679 1.6976e-14)
(1.09785 0.00214112 4.42497e-15)
(1.08975 0.00871285 5.28991e-16)
(1.07365 0.0132756 -5.92317e-16)
(1.05298 0.0153394 -7.39047e-15)
(1.03128 0.0149165 -1.0013e-14)
(1.01177 0.0121822 6.43006e-14)
(0.997439 0.00731452 2.59289e-13)
(0.991115 0.000579965 -2.88003e-14)
(0.995247 -0.00736486 -3.1065e-12)
(1.01104 -0.0151092 -1.18293e-11)
(1.03705 -0.0205248 -2.44259e-11)
(1.06833 -0.0215288 -3.26346e-11)
(1.09734 -0.0172571 -2.98206e-11)
(1.11661 -0.00876391 -1.90136e-11)
(1.12169 0.00141271 -8.48462e-12)
(1.11242 0.0105075 -2.24263e-12)
(1.09222 0.0166907 2.80585e-13)
(1.06603 0.0194145 7.5473e-13)
(1.03859 0.0189879 1.17434e-13)
(1.01373 0.0159417 -1.48137e-12)
(0.99459 0.0106295 -1.66792e-12)
(0.984045 0.00324187 9.68168e-12)
(0.984864 -0.00580408 5.26282e-11)
(0.998994 -0.0153357 1.46584e-10)
(1.02615 -0.0232509 2.84545e-10)
(1.06255 -0.027059 4.17801e-10)
(1.10095 -0.0249974 4.80115e-10)
(1.13237 -0.0170702 4.38501e-10)
(1.14916 -0.00528883 3.19301e-10)
(1.1478 0.0071298 1.81583e-10)
(1.1298 0.0171174 7.33782e-11)
(1.10051 0.0229168 1.24896e-11)
(1.06651 0.0243605 -9.99711e-12)
(1.03347 0.0222939 -1.21604e-11)
(1.00531 0.0177061 -3.11453e-12)
(0.984682 0.0111616 2.50136e-11)
(0.973955 0.00283864 9.08685e-11)
(0.975596 -0.00690221 2.07569e-10)
(0.991367 -0.0168954 3.67469e-10)
(1.02068 -0.0250968 5.41601e-10)
(1.05947 -0.0292328 6.9367e-10)
(1.10057 -0.0277864 7.92429e-10)
(1.13564 -0.0206987 8.14442e-10)
(1.15752 -0.00944486 7.47765e-10)
(1.16207 0.00343152 6.02152e-10)
(1.14903 0.0150605 4.11331e-10)
(1.12193 0.0230964 2.2238e-10)
(1.08684 0.0264002 7.75394e-11)
(1.05043 0.0252088 -1.10953e-12)
(1.01822 0.020586 -1.24095e-11)
(0.994042 0.013518 3.41929e-11)
(0.9809 0.00448768 1.26531e-10)
(0.98159 -0.0060419 2.49158e-10)
(0.997929 -0.0168304 3.81013e-10)
(1.02899 -0.0257388 5.00072e-10)
(1.07013 -0.0305184 5.92075e-10)
(1.11388 -0.0298873 6.54448e-10)
(1.15219 -0.0241207 6.92528e-10)
(1.17875 -0.0148713 7.11792e-10)
(1.19055 -0.00444794 7.11411e-10)
(1.18799 0.00498438 6.82739e-10)
(1.17411 0.011909 6.13852e-10)
(1.15333 0.0155341 4.99371e-10)
(1.13051 0.0155951 3.51246e-10)
(1.11044 0.0121829 1.99947e-10)
(1.09751 0.0057209 8.12747e-11)
(1.09545 -0.00296593 1.84646e-11)
(1.10665 -0.0125883 1.39424e-11)
(1.13145 -0.0214592 5.4104e-11)
(1.16748 -0.027766 1.19543e-10)
(1.20979 -0.0300234 1.92968e-10)
(1.25175 -0.0275213 2.62487e-10)
(1.28652 -0.0205576 3.21614e-10)
(1.3085 -0.010376 3.67922e-10)
(1.31452 0.00114955 4.01737e-10)
(1.30428 0.0119545 4.2549e-10)
(1.28032 0.0202532 4.43362e-10)
(1.24721 0.024943 4.60249e-10)
(1.21048 0.0258154 4.7837e-10)
(1.17521 0.0235014 4.92222e-10)
(1.14508 0.019142 4.87365e-10)
(1.122 0.0138888 4.479e-10)
(1.10649 0.008492 3.68738e-10)
(1.09842 0.00322481 2.62238e-10)
(1.09757 -0.00185362 1.53349e-10)
(1.10359 -0.00655442 6.75624e-11)
(1.11566 -0.0104064 2.03466e-11)
(1.13209 -0.012754 1.32779e-11)
(1.15033 -0.0129934 3.64465e-11)
(1.16721 -0.0108016 7.39338e-11)
(1.17943 -0.00628823 1.09555e-10)
(1.18418 -5.255e-05 1.31243e-10)
(1.17976 0.0068628 1.33166e-10)
(1.16607 0.0131615 1.15921e-10)
(1.14481 0.0176381 8.56036e-11)
(1.11908 0.0195576 5.14262e-11)
(1.09259 0.0188755 2.22346e-11)
(1.06861 0.0161745 3.23288e-12)
(1.04933 0.0123639 -5.25275e-12)
(1.03559 0.00832856 -6.38546e-12)
(1.02719 0.00469994 -4.19355e-12)
(1.02326 0.0018035 -1.60402e-12)
(1.02269 -0.000273861 9.4507e-14)
(1.02437 -0.0015815 7.93594e-13)
(1.0273 -0.00222418 8.72945e-13)
(1.03067 -0.0023185 7.26313e-13)
(1.0338 -0.00198022 5.81564e-13)
(1.03619 -0.0013274 5.07506e-13)
(1.03749 -0.000485048 4.85241e-13)
(1.03754 0.000417786 4.73059e-13)
(1.03635 0.0012596 4.42314e-13)
(1.03409 0.00194207 3.85897e-13)
(1.03104 0.00240218 3.1208e-13)
(1.02753 0.00261663 2.34882e-13)
(1.02391 0.00259796 1.66712e-13)
(1.02047 0.00238566 1.14982e-13)
(1.01744 0.00203452 8.196e-14)
(1.01498 0.00160501 6.62952e-14)
(1.01313 0.00115338 6.48403e-14)
(1.01191 0.000728258 7.40147e-14)
(1.01122 0.000362718 9.05007e-14)
(1.01099 8.03693e-05 1.11451e-13)
(1.01106 -0.000115137 1.34444e-13)
(1.01135 -0.000221481 1.57459e-13)
(1.01169 -0.00025321 1.78726e-13)
(1.01206 -0.000234609 1.96391e-13)
(1.01236 -0.000106203 2.14256e-13)
(1.00014 -0.0013401 1.82928e-22)
(1.00206 -0.00395387 5.21555e-21)
(1.00629 -0.00654573 1.08124e-21)
(1.01253 -0.00911763 1.41975e-20)
(1.02087 -0.0116417 -5.30386e-20)
(1.03129 -0.0139947 -1.02167e-19)
(1.04364 -0.0159595 -1.26383e-19)
(1.05754 -0.01716 -3.12868e-19)
(1.07215 -0.0171914 -7.83204e-19)
(1.08637 -0.0157681 -1.76383e-18)
(1.09858 -0.0128241 -6.21609e-19)
(1.10762 -0.00931198 2.35832e-18)
(1.11343 -0.0059847 -1.66893e-18)
(1.11657 -0.00363257 -1.41149e-17)
(1.11836 -0.00261484 -2.16208e-17)
(1.12015 -0.002455 -1.02074e-17)
(1.12247 -0.00212834 1.65957e-17)
(1.12461 -0.000351085 4.04352e-17)
(1.12458 0.00363573 4.71495e-17)
(1.12005 0.00942014 3.81727e-17)
(1.10975 0.0156118 2.51814e-17)
(1.09409 0.0206162 1.34139e-17)
(1.07481 0.0232458 -4.57241e-18)
(1.05438 0.0228802 2.36842e-17)
(1.03553 0.0193616 9.41906e-17)
(1.02092 0.0128695 -5.09601e-16)
(1.01299 0.00392512 -8.6527e-16)
(1.01371 -0.00644896 5.18588e-15)
(1.024 -0.0164339 8.17023e-16)
(1.04277 -0.0234108 -3.78633e-14)
(1.06605 -0.0247931 -4.18408e-14)
(1.08764 -0.0195015 9.95064e-15)
(1.10136 -0.00892448 3.3366e-14)
(1.10361 0.00370597 2.0545e-14)
(1.09449 0.0149969 6.64113e-15)
(1.07681 0.0227617 -5.47636e-15)
(1.05444 0.0262348 -3.14551e-14)
(1.03112 0.0255075 8.86993e-17)
(1.01015 0.0209048 2.90784e-13)
(0.994528 0.0126941 5.43462e-13)
(0.987278 0.00124146 -1.41295e-12)
(0.99127 -0.0124234 -8.87585e-12)
(1.00821 -0.025893 -2.01301e-11)
(1.03681 -0.0354002 -2.97901e-11)
(1.07155 -0.0372102 -3.71304e-11)
(1.10371 -0.0297785 -3.96977e-11)
(1.12471 -0.0150015 -3.19846e-11)
(1.12964 0.00261327 -1.87157e-11)
(1.11874 0.0182212 -7.3228e-12)
(1.09621 0.0286965 -4.4109e-13)
(1.06771 0.0332053 1.8283e-12)
(1.03832 0.0323931 -2.36278e-13)
(1.01186 0.0272292 -5.62367e-12)
(0.991333 0.0183055 -1.84589e-12)
(0.979495 0.00587774 5.1293e-11)
(0.979182 -0.00943723 2.1657e-10)
(0.992679 -0.0257277 5.2939e-10)
(1.02025 -0.039455 9.40187e-10)
(1.0585 -0.0463128 1.31849e-09)
(1.09999 -0.0431118 1.51273e-09)
(1.13492 -0.0296668 1.42662e-09)
(1.15445 -0.00938254 1.09069e-09)
(1.15406 0.012087 6.56916e-10)
(1.13516 0.0293063 2.87104e-10)
(1.10376 0.0391943 6.28619e-11)
(1.06739 0.0415385 -2.74372e-11)
(1.03232 0.0379381 -3.8937e-11)
(1.0025 0.0302051 -1.02899e-11)
(0.980352 0.0193022 6.18189e-11)
(0.968172 0.00539621 2.02473e-10)
(0.968896 -0.0110807 4.15997e-10)
(0.984989 -0.0282154 6.64075e-10)
(1.01611 -0.0424176 8.90742e-10)
(1.05757 -0.0496419 1.06238e-09)
(1.10117 -0.0472511 1.17407e-09)
(1.13779 -0.0352405 1.21978e-09)
(1.16014 -0.0162187 1.17026e-09)
(1.16445 0.00550772 9.97045e-10)
(1.15079 0.0251519 7.19609e-10)
(1.12282 0.0387906 4.10872e-10)
(1.08665 0.0444913 1.5622e-10)
(1.04898 0.0426276 9.49666e-12)
(1.01541 0.0349603 -1.90033e-11)
(0.990034 0.0230721 5.28403e-11)
(0.976389 0.00765725 1.94464e-10)
(0.977993 -0.0105386 3.67221e-10)
(0.996992 -0.0292508 5.29871e-10)
(1.03194 -0.0445687 6.52471e-10)
(1.07705 -0.052494 7.26572e-10)
(1.12372 -0.0508878 7.62429e-10)
(1.16316 -0.0404172 7.78412e-10)
(1.18888 -0.0241328 7.89439e-10)
(1.19813 -0.00614483 7.96625e-10)
(1.19199 0.00980656 7.83516e-10)
(1.17437 0.0212176 7.25462e-10)
(1.15045 0.0269049 6.06881e-10)
(1.1255 0.0265926 4.38197e-10)
(1.10435 0.0205266 2.57648e-10)
(1.09138 0.00938807 1.13023e-10)
(1.09039 -0.00553739 3.6962e-11)
(1.10402 -0.0221256 3.44063e-11)
(1.13252 -0.0374426 8.77512e-11)
(1.17298 -0.048261 1.7081e-10)
(1.21957 -0.0519612 2.60519e-10)
(1.26486 -0.0473647 3.41937e-10)
(1.30157 -0.0350913 4.07958e-10)
(1.32403 -0.0173794 4.56678e-10)
(1.32918 0.0025066 4.88637e-10)
(1.31694 0.0210338 5.06135e-10)
(1.29016 0.0351752 5.14002e-10)
(1.25384 0.0430842 5.18957e-10)
(1.21391 0.0444511 5.25813e-10)
(1.17578 0.0403922 5.31038e-10)
(1.14331 0.0328696 5.20143e-10)
(1.11849 0.0238379 4.75375e-10)
(1.10187 0.0145593 3.90098e-10)
(1.09334 0.00550051 2.77689e-10)
(1.09263 -0.00321049 1.66982e-10)
(1.09925 -0.0112145 8.81328e-11)
(1.11211 -0.0176944 5.89234e-11)
(1.12927 -0.0215657 7.897e-11)
(1.14799 -0.0218693 1.32552e-10)
(1.16508 -0.0181259 1.96094e-10)
(1.17735 -0.0105531 2.46259e-10)
(1.18213 -0.000147011 2.66624e-10)
(1.17781 0.011381 2.51507e-10)
(1.16426 0.0218936 2.06254e-10)
(1.14312 0.0293865 1.44466e-10)
(1.11747 0.0326217 8.24738e-11)
(1.09099 0.0315068 3.33781e-11)
(1.06702 0.0269997 3.14954e-12)
(1.04778 0.0206145 -9.63459e-12)
(1.0342 0.0138348 -1.08657e-11)
(1.02608 0.00772848 -7.03261e-12)
(1.02254 0.00285284 -2.65123e-12)
(1.02245 -0.000637527 2.98361e-13)
(1.02462 -0.00282233 1.62759e-12)
(1.02801 -0.00387914 1.90924e-12)
(1.03177 -0.00400778 1.76208e-12)
(1.0352 -0.00340658 1.5606e-12)
(1.03778 -0.00227691 1.42923e-12)
(1.03916 -0.000831282 1.34764e-12)
(1.0392 0.000711136 1.25598e-12)
(1.03791 0.00214411 1.11732e-12)
(1.03549 0.00330113 9.31997e-13)
(1.03225 0.00407631 7.25036e-13)
(1.02856 0.00443175 5.27737e-13)
(1.02477 0.00439066 3.64268e-13)
(1.02121 0.0040217 2.46507e-13)
(1.0181 0.00341909 1.75291e-13)
(1.0156 0.00268617 1.44557e-13)
(1.01376 0.00191859 1.45507e-13)
(1.01257 0.00119873 1.69336e-13)
(1.01195 0.000582187 2.08399e-13)
(1.01178 0.00010843 2.56321e-13)
(1.01192 -0.000217432 3.07709e-13)
(1.01228 -0.000391686 3.58098e-13)
(1.01267 -0.000440649 4.03363e-13)
(1.01308 -0.000404839 4.40272e-13)
(1.0134 -0.000183665 4.7364e-13)
(1.00014 -0.00186797 -2.88638e-20)
(1.00202 -0.00551248 -5.08883e-19)
(1.00621 -0.00913983 -1.03851e-18)
(1.0124 -0.0127629 -1.64633e-18)
(1.02075 -0.0163531 -2.74095e-18)
(1.03131 -0.0197442 -2.86402e-18)
(1.04402 -0.0226305 -5.51777e-18)
(1.05854 -0.0244498 -3.19876e-18)
(1.07402 -0.0245892 -4.90317e-18)
(1.08924 -0.0225555 -1.94735e-17)
(1.10217 -0.0182028 -6.77946e-18)
(1.11141 -0.0130181 4.03897e-17)
(1.11693 -0.00812186 5.26091e-17)
(1.11939 -0.00474259 7.31653e-17)
(1.12052 -0.00346003 2.48375e-16)
(1.12207 -0.003553 6.17668e-16)
(1.12483 -0.00345222 9.44376e-16)
(1.12804 -0.00114899 9.67758e-16)
(1.12916 0.00457224 7.49445e-16)
(1.12522 0.0130818 4.383e-16)
(1.11461 0.0222336 1.70041e-16)
(1.0978 0.0296195 -2.45982e-17)
(1.07684 0.0335118 -7.43041e-17)
(1.05455 0.0330557 2.64824e-16)
(1.03389 0.0280565 -1.37007e-15)
(1.01772 0.0187588 -4.39714e-15)
(1.00872 0.00584259 2.96396e-14)
(1.00924 -0.00931208 5.03744e-14)
(1.02069 -0.0241008 -5.30831e-13)
(1.04218 -0.0345876 -2.10187e-12)
(1.06926 -0.0367627 -3.28856e-12)
(1.09447 -0.0289007 -2.65298e-12)
(1.11029 -0.0131233 -1.14314e-12)
(1.11256 0.00559597 -2.11165e-13)
(1.10174 0.0221246 5.14418e-14)
(1.0815 0.0333009 1.38105e-14)
(1.05645 0.0381795 -2.29657e-14)
(1.03066 0.0370601 2.80782e-13)
(1.00749 0.0304785 3.06469e-13)
(0.989949 0.018751 -2.9681e-12)
(0.981295 0.00221902 -5.96511e-12)
(0.984942 -0.0178186 2.89742e-11)
(1.00324 -0.0378751 1.68193e-10)
(1.03525 -0.0522067 3.94599e-10)
(1.07509 -0.0549989 5.46008e-10)
(1.11251 -0.0438381 4.88396e-10)
(1.13679 -0.0217051 2.88719e-10)
(1.14187 0.00442851 1.05296e-10)
(1.12843 0.0272412 1.16841e-11)
(1.10212 0.042204 -1.04567e-11)
(1.06992 0.0483525 -6.36649e-12)
(1.03753 0.046904 -6.47744e-12)
(1.00873 0.0394309 -1.33571e-11)
(0.986124 0.0268161 1.61389e-11)
(0.972079 0.0093286 1.78053e-10)
(0.969496 -0.012377 5.59254e-10)
(0.981526 -0.0358534 1.12915e-09)
(1.00954 -0.0561658 1.74075e-09)
(1.05045 -0.0669559 2.25375e-09)
(1.09608 -0.0632305 2.57639e-09)
(1.1355 -0.0442922 2.59445e-09)
(1.15883 -0.0148305 2.20988e-09)
(1.1605 0.0167992 1.50987e-09)
(1.14128 0.0422739 7.67591e-10)
(1.10762 0.0567925 2.30689e-10)
(1.06817 0.0600695 -2.98308e-11)
(1.03021 0.0547276 -8.58197e-11)
(0.997943 0.0436841 -2.49217e-11)
(0.973623 0.0283305 1.23248e-10)
(0.959789 0.00857936 3.57897e-10)
(0.960312 -0.0152941 6.42476e-10)
(0.97848 -0.0404917 9.00341e-10)
(1.01361 -0.0613973 1.07509e-09)
(1.0596 -0.0717885 1.1714e-09)
(1.10666 -0.0679103 1.23543e-09)
(1.14474 -0.0501756 1.30027e-09)
(1.16654 -0.0227446 1.33546e-09)
(1.16903 0.00814473 1.25463e-09)
(1.1532 0.035892 1.00469e-09)
(1.12323 0.0551612 6.37265e-10)
(1.08529 0.0633038 2.79081e-10)
(1.04593 0.0608127 4.57837e-11)
(1.01072 0.0500508 -1.44152e-11)
(0.984131 0.0330293 7.94797e-11)
(0.970563 0.0105198 2.6703e-10)
(0.974356 -0.0163263 4.74002e-10)
(0.997593 -0.0437945 6.40413e-10)
(1.03765 -0.0657807 7.40686e-10)
(1.08722 -0.0764344 7.81831e-10)
(1.13662 -0.0729603 7.86365e-10)
(1.17669 -0.0566993 7.78506e-10)
(1.20099 -0.0323346 7.78212e-10)
(1.20704 -0.00597903 7.93184e-10)
(1.19643 0.016878 8.07613e-10)
(1.17392 0.0326806 7.84086e-10)
(1.14565 0.0399605 6.88139e-10)
(1.11757 0.0386324 5.19503e-10)
(1.09479 0.0292357 3.21286e-10)
(1.08185 0.0127011 1.56077e-10)
(1.0828 -0.00927658 6.92173e-11)
(1.10035 -0.0336418 6.8894e-11)
(1.13417 -0.0559442 1.3268e-10)
(1.18012 -0.0713082 2.27519e-10)
(1.23111 -0.0759832 3.25924e-10)
(1.27909 -0.068534 4.11768e-10)
(1.31682 -0.0501402 4.78667e-10)
(1.33901 -0.0241615 5.26067e-10)
(1.34289 0.0047196 5.5577e-10)
(1.32851 0.0314797 5.7031e-10)
(1.29884 0.0518002 5.73743e-10)
(1.25916 0.0630508 5.72572e-10)
(1.21573 0.0648275 5.72783e-10)
(1.17436 0.0587876 5.72279e-10)
(1.13916 0.0477816 5.5635e-10)
(1.11228 0.0346111 5.0546e-10)
(1.09437 0.0210708 4.12575e-10)
(1.08539 0.00784734 2.94689e-10)
(1.08499 -0.00480621 1.87055e-10)
(1.09245 -0.0162939 1.24386e-10)
(1.10635 -0.0254197 1.23288e-10)
(1.12436 -0.0306996 1.77168e-10)
(1.14352 -0.0309011 2.63139e-10)
(1.16064 -0.0254803 3.52354e-10)
(1.17273 -0.0148125 4.17483e-10)
(1.17739 -0.000274605 4.38031e-10)
(1.17318 0.0158082 4.05861e-10)
(1.15998 0.0305063 3.28715e-10)
(1.13929 0.0410296 2.27662e-10)
(1.11403 0.0456162 1.28386e-10)
(1.08786 0.0440938 5.09952e-11)
(1.06412 0.0377743 3.90947e-12)
(1.04514 0.0287721 -1.58525e-11)
(1.03192 0.0191819 -1.76884e-11)
(1.0243 0.0105276 -1.15705e-11)
(1.02141 0.00361875 -4.40425e-12)
(1.02205 -0.0013099 6.94897e-13)
(1.02497 -0.00436527 3.30355e-12)
(1.02906 -0.00580237 4.19151e-12)
(1.0334 -0.00591228 4.25765e-12)
(1.03728 -0.0049839 4.07311e-12)
(1.04014 -0.00330889 3.84922e-12)
(1.04164 -0.00119371 3.58491e-12)
(1.04163 0.00104599 3.22411e-12)
(1.04018 0.00311367 2.75066e-12)
(1.03751 0.00477109 2.20419e-12)
(1.03399 0.00586885 1.65385e-12)
(1.03001 0.00635676 1.16589e-12)
(1.02598 0.0062729 7.8303e-13)
(1.02223 0.00572016 5.19658e-13)
(1.01901 0.00483693 3.68086e-13)
(1.01647 0.00377333 3.08751e-13)
(1.01465 0.0026673 3.18977e-13)
(1.01353 0.00163666 3.78036e-13)
(1.013 0.000759917 4.68722e-13)
(1.01294 9.22293e-05 5.76965e-13)
(1.01319 -0.000361742 6.90872e-13)
(1.01364 -0.000597141 8.00593e-13)
(1.01411 -0.000655978 8.96715e-13)
(1.01457 -0.000593589 9.73694e-13)
(1.01493 -0.00026933 1.03575e-12)
(1.00013 -0.002386 -2.08871e-18)
(1.00198 -0.00704313 -7.96713e-18)
(1.00607 -0.0117013 -7.16057e-18)
(1.01217 -0.0163949 -9.70121e-18)
(1.02052 -0.0211063 -7.83824e-18)
(1.03125 -0.0256353 -1.27783e-17)
(1.04441 -0.0295881 -8.10758e-18)
(1.05978 -0.032181 -2.72435e-18)
(1.07647 -0.0325455 -8.84323e-17)
(1.09313 -0.0298629 4.66827e-17)
(1.10712 -0.0238435 4.52226e-16)
(1.11662 -0.0166857 6.58186e-16)
(1.12168 -0.00993324 4.88875e-16)
(1.12311 -0.00538257 3.44299e-16)
(1.1232 -0.00393635 8.09544e-16)
(1.12436 -0.0045982 2.08596e-15)
(1.12778 -0.00512014 3.46236e-15)
(1.13258 -0.00252426 3.78379e-15)
(1.13545 0.00504645 3.07544e-15)
(1.13241 0.0167058 1.89361e-15)
(1.12135 0.0293327 6.18644e-16)
(1.1029 0.0395 -4.47035e-16)
(1.07961 0.0448615 8.1383e-17)
(1.05474 0.0443501 -2.1849e-16)
(1.03158 0.0377772 -1.46388e-14)
(1.01323 0.0254561 1.15335e-14)
(1.00266 0.00816801 1.65553e-13)
(1.00279 -0.0124284 -1.34678e-13)
(1.01576 -0.0329014 -1.60038e-12)
(1.0411 -0.0477048 -3.72115e-12)
(1.07365 -0.0509553 -6.76008e-12)
(1.10408 -0.0400187 -8.51553e-12)
(1.12289 -0.0179487 -6.06772e-12)
(1.12508 0.00801022 -2.34088e-12)
(1.11172 0.0305409 -2.66315e-13)
(1.0878 0.0454055 1.74468e-13)
(1.05901 0.0516465 5.29519e-13)
(1.02987 0.0499826 1.25176e-12)
(1.00375 0.0412606 -4.31172e-12)
(0.983619 0.025792 -2.07335e-11)
(0.972833 0.0037568 1.56119e-11)
(0.975032 -0.0233742 3.05302e-10)
(0.993095 -0.0510357 1.03061e-09)
(1.02726 -0.0713415 2.01399e-09)
(1.07261 -0.0758673 2.70062e-09)
(1.11788 -0.0606414 2.60855e-09)
(1.14905 -0.0296657 1.81045e-09)
(1.15677 0.00682277 8.67016e-10)
(1.14122 0.0381145 2.35663e-10)
(1.11007 0.0579503 -1.70346e-11)
(1.07273 0.0654916 -5.42991e-11)
(1.03622 0.0629773 -3.99336e-11)
(1.00429 0.052926 -2.1589e-11)
(0.978756 0.0366347 8.65251e-11)
(0.96141 0.014203 4.20611e-10)
(0.955819 -0.0141432 9.8897e-10)
(0.966992 -0.0457391 1.5974e-09)
(0.997476 -0.0739297 2.05125e-09)
(1.04323 -0.0896067 2.36453e-09)
(1.09395 -0.0856526 2.67025e-09)
(1.13729 -0.061028 2.94848e-09)
(1.16318 -0.0218382 2.92655e-09)
(1.16618 0.0208991 2.37392e-09)
(1.1467 0.0557538 1.45309e-09)
(1.111 0.0757347 5.78975e-10)
(1.0684 0.0802268 4.35244e-11)
(1.02707 0.073042 -1.27684e-10)
(0.991725 0.0584919 -4.41621e-11)
(0.964854 0.0383804 1.95479e-10)
(0.949797 0.0120624 5.13677e-10)
(0.95161 -0.0204106 8.15229e-10)
(0.973808 -0.0548562 1.01657e-09)
(1.01438 -0.0829885 1.10107e-09)
(1.06535 -0.0961946 1.11416e-09)
(1.1157 -0.0898419 1.12105e-09)
(1.15487 -0.0651764 1.17289e-09)
(1.17556 -0.0283384 1.2658e-09)
(1.17525 0.012209 1.30609e-09)
(1.15599 0.048064 1.16908e-09)
(1.12288 0.0727398 8.32355e-10)
(1.08243 0.0831274 4.20316e-10)
(1.04104 0.0798974 1.09788e-10)
(1.00415 0.0658487 9.49344e-12)
(0.976688 0.043149 1.13115e-10)
(0.964032 0.0125573 3.29705e-10)
(0.971089 -0.0240358 5.49912e-10)
(0.999246 -0.0608917 7.037e-10)
(1.04424 -0.0893982 7.77995e-10)
(1.09729 -0.102006 7.95288e-10)
(1.1481 -0.0956437 7.83816e-10)
(1.18767 -0.0726059 7.64284e-10)
(1.20996 -0.039293 7.53229e-10)
(1.21276 -0.00384597 7.63957e-10)
(1.19788 0.0263728 7.90918e-10)
(1.17058 0.0466006 7.96069e-10)
(1.13779 0.055068 7.2962e-10)
(1.10626 0.0520105 5.75251e-10)
(1.08169 0.0383807 3.74378e-10)
(1.06911 0.0153863 2.01132e-10)
(1.07297 -0.014779 1.12332e-10)
(1.09559 -0.0478029 1.18532e-10)
(1.13521 -0.0773292 1.92346e-10)
(1.1859 -0.0967459 2.95244e-10)
(1.2395 -0.101473 3.9766e-10)
(1.28801 -0.0902454 4.84007e-10)
(1.32495 -0.0650621 5.48743e-10)
(1.34584 -0.0304046 5.91675e-10)
(1.34832 0.00777211 6.15426e-10)
(1.33244 0.0430602 6.23855e-10)
(1.30094 0.0698407 6.21758e-10)
(1.25899 0.0846183 6.15763e-10)
(1.21299 0.0868276 6.12047e-10)
(1.169 0.0786621 6.08421e-10)
(1.13146 0.0639 5.8862e-10)
(1.10277 0.0462289 5.31206e-10)
(1.08377 0.028008 4.30755e-10)
(1.07455 0.0101975 3.10914e-10)
(1.07472 -0.0067417 2.13985e-10)
(1.08331 -0.0218939 1.7519e-10)
(1.09845 -0.0336488 2.03691e-10)
(1.11742 -0.0401581 2.83534e-10)
(1.13697 -0.0400136 3.87587e-10)
(1.1539 -0.0327285 4.89149e-10)
(1.16546 -0.0189262 5.64249e-10)
(1.16967 -0.000366733 5.9074e-10)
(1.1654 0.0200969 5.53888e-10)
(1.15263 0.0388462 4.56584e-10)
(1.13271 0.0523572 3.22182e-10)
(1.10832 0.0583279 1.85162e-10)
(1.08292 0.0564534 7.5398e-11)
(1.05982 0.0483512 6.96415e-12)
(1.04141 0.0367155 -2.28042e-11)
(1.0288 0.024258 -2.64317e-11)
(1.0219 0.0129832 -1.78247e-11)
(1.01988 0.0039803 -6.91443e-12)
(1.02146 -0.00241475 1.54782e-12)
(1.02534 -0.00632871 6.59705e-12)
(1.03032 -0.0080984 9.03142e-12)
(1.03542 -0.00811614 9.94018e-12)
(1.03986 -0.00677181 1.00545e-11)
(1.04309 -0.00445647 9.68651e-12)
(1.04476 -0.00157925 8.91637e-12)
(1.04472 0.00143896 7.7876e-12)
(1.04307 0.00420313 6.41036e-12)
(1.04009 0.00639773 4.9542e-12)
(1.03619 0.00782862 3.5929e-12)
(1.03184 0.00843639 2.45563e-12)
(1.02749 0.00828015 1.60548e-12)
(1.02351 0.00750431 1.04514e-12)
(1.02015 0.00629846 7.37706e-13)
(1.01756 0.00486527 6.29524e-13)
(1.01577 0.00338902 6.66902e-13)
(1.01475 0.00202541 8.04076e-13)
(1.01435 0.000876303 1.00437e-12)
(1.01444 1.21203e-05 1.2381e-12)
(1.01483 -0.000565742 1.48007e-12)
(1.0154 -0.000851843 1.70934e-12)
(1.01597 -0.000909617 1.90544e-12)
(1.0165 -0.000806776 2.05958e-12)
(1.0169 -0.000365447 2.16911e-12)
(1.00013 -0.00288913 2.43435e-18)
(1.0019 -0.00853115 7.79945e-18)
(1.00586 -0.0142094 9.17448e-18)
(1.01183 -0.0199941 3.62637e-18)
(1.02012 -0.0258952 3.2057e-17)
(1.031 -0.031694 -3.92671e-17)
(1.0447 -0.0369138 1.60189e-16)
(1.06114 -0.0405049 -3.53365e-16)
(1.07946 -0.0412808 -7.03284e-17)
(1.09812 -0.0379075 2.54142e-15)
(1.11355 -0.0298566 2.38776e-15)
(1.1234 -0.0203159 -3.19858e-15)
(1.12782 -0.0113403 -1.03226e-14)
(1.12775 -0.00550286 -1.65414e-14)
(1.12631 -0.00414795 -2.47378e-14)
(1.12683 -0.00590118 -3.69676e-14)
(1.1311 -0.00762689 -4.58201e-14)
(1.13816 -0.00502689 -3.97705e-14)
(1.14355 0.004656 -2.45662e-14)
(1.14186 0.0201606 -1.05275e-14)
(1.13023 0.037021 -2.99807e-15)
(1.10957 0.0505081 -3.66074e-16)
(1.08315 0.0575947 3.11253e-15)
(1.0549 0.0570686 -1.82237e-14)
(1.02847 0.0488173 -1.23834e-14)
(1.00722 0.0332225 2.16055e-13)
(0.994468 0.0110691 -4.81539e-13)
(0.993851 -0.0158485 -1.83121e-12)
(1.00878 -0.0432516 1.24403e-11)
(1.03957 -0.0635443 5.42231e-11)
(1.07991 -0.0682724 8.41276e-11)
(1.11748 -0.0535187 6.22939e-11)
(1.14006 -0.0235928 1.99444e-11)
(1.14177 0.0112181 -1.46885e-12)
(1.1247 0.0407801 -3.84843e-12)
(1.09575 0.059653 -9.72868e-13)
(1.06205 0.0671361 2.50235e-12)
(1.02866 0.0646846 9.43063e-13)
(0.998887 0.0536046 -2.58227e-11)
(0.975444 0.0342122 -4.41708e-11)
(0.961165 0.00652986 1.96593e-10)
(0.959282 -0.027922 1.0964e-09)
(0.973814 -0.0639721 2.68294e-09)
(1.00776 -0.0919753 4.41224e-09)
(1.05813 -0.100345 5.63237e-09)
(1.11298 -0.0820826 5.81493e-09)
(1.15495 -0.041137 4.69999e-09)
(1.16987 0.00836817 2.78845e-09)
(1.15512 0.0506031 1.07706e-09)
(1.11963 0.0764386 1.35225e-10)
(1.07624 0.0852645 -1.45152e-10)
(1.03446 0.0811168 -1.34699e-10)
(0.998455 0.0681586 -3.19764e-11)
(0.969065 0.0482585 2.24939e-10)
(0.947811 0.0208069 7.17711e-10)
(0.940013 -0.0151531 1.28699e-09)
(0.952928 -0.0566738 1.64957e-09)
(0.988952 -0.0943001 1.74639e-09)
(1.04146 -0.115225 1.78402e-09)
(1.09751 -0.110282 2.00061e-09)
(1.14349 -0.0788955 2.4568e-09)
(1.16968 -0.0292365 2.88765e-09)
(1.17176 0.0250821 2.81991e-09)
(1.15078 0.0698752 2.08452e-09)
(1.11289 0.0959271 1.04848e-09)
(1.06732 0.102014 2.29364e-10)
(1.02262 0.0930505 -1.22586e-10)
(0.983986 0.0747857 -5.48199e-11)
(0.954687 0.049295 2.59319e-10)
(0.939362 0.0152141 6.32958e-10)
(0.943929 -0.0272811 9.18746e-10)
(0.971076 -0.0718667 1.05957e-09)
(1.01677 -0.107186 1.08944e-09)
(1.07148 -0.122486 1.07367e-09)
(1.1238 -0.112696 1.06214e-09)
(1.16342 -0.080106 1.09062e-09)
(1.18316 -0.0329212 1.17709e-09)
(1.18045 0.0179514 1.26894e-09)
(1.15776 0.0620861 1.22877e-09)
(1.12116 0.0919277 9.62108e-10)
(1.07781 0.104206 5.47001e-10)
(1.03419 0.0999399 1.88179e-10)
(0.995763 0.0822153 5.17412e-11)
(0.967979 0.0530867 1.53176e-10)
(0.957024 0.0133361 3.80175e-10)
(0.967861 -0.0339131 5.9829e-10)
(1.00063 -0.0803646 7.35025e-10)