/*--------------------------------*- C++ -*----------------------------------*\
  =========                 |
  \\      /  F ield         | OpenFOAM: The Open Source CFD Toolbox
   \\    /   O peration     | Website:  https://openfoam.org
    \\  /    A nd           | Version:  11
     \\/     M anipulation  |
\*---------------------------------------------------------------------------*/
FoamFile
{
    format      ascii;
    class       volVectorField;
    location    "12.289742";
    object      U_0;
}
// * * * * * * * * * * * * * * * * * * * * * * * * * * * * * * * * * * * * * //

dimensions      [0 1 -1 0 0 0 0];

internalField   nonuniform List<vector> 
7132
(
(1.00014 -0.000268849 2.08849e-18)
(1.00208 -0.000792271 8.35363e-18)
(1.00636 -0.00130949 9.09173e-18)
(1.01261 -0.00181933 1.12368e-17)
(1.0209 -0.00231543 1.50158e-17)
(1.03114 -0.00277275 1.65819e-17)
(1.04311 -0.00314861 1.67977e-17)
(1.0564 -0.00337299 1.6531e-17)
(1.07019 -0.00337152 1.60565e-17)
(1.0835 -0.00309855 1.52205e-17)
(1.09508 -0.00254766 1.39397e-17)
(1.10401 -0.00188808 1.26877e-17)
(1.11019 -0.00125977 1.1435e-17)
(1.11405 -0.000802738 1.04927e-17)
(1.11655 -0.000575151 5.39771e-18)
(1.11861 -0.00048648 1.42862e-19)
(1.12051 -0.000349966 -4.66176e-18)
(1.12159 5.91685e-05 -4.62368e-18)
(1.1203 0.000863793 -6.39269e-18)
(1.11495 0.00197821 -7.01692e-18)
(1.10468 0.00314583 -5.57629e-18)
(1.08986 0.00407331 -4.18319e-18)
(1.07204 0.00453798 -3.35931e-18)
(1.05341 0.00442022 -2.11995e-18)
(1.03646 0.00369009 -1.5618e-19)
(1.02363 0.00238917 -9.34563e-19)
(1.0171 0.000634046 -3.69494e-17)
(1.01841 -0.0013568 -5.35014e-17)
(1.02796 -0.00322094 3.89265e-16)
(1.0444 -0.00446904 1.47275e-15)
(1.06415 -0.00464434 2.13192e-15)
(1.08209 -0.00357996 1.66453e-15)
(1.0933 -0.00155303 7.8614e-16)
(1.09486 0.000836788 2.11673e-16)
(1.08671 0.00296588 1.0242e-16)
(1.07102 0.00442583 5.31964e-17)
(1.05103 0.00506139 -1.1539e-15)
(1.03016 0.004876 -2.03068e-15)
(1.01161 0.00392613 9.85763e-15)
(0.998314 0.00227462 4.21033e-14)
(0.99299 2.25223e-05 5.01808e-15)
(0.997826 -0.0025939 -4.08312e-13)
(1.01368 -0.00509619 -1.55039e-12)
(1.03886 -0.00678928 -3.15488e-12)
(1.06856 -0.00701562 -4.16046e-12)
(1.09572 -0.00552731 -3.82381e-12)
(1.11347 -0.00269642 -2.54468e-12)
(1.11776 0.000639366 -1.21712e-12)
(1.10849 0.0035868 -3.51148e-13)
(1.08889 0.00556662 3.01e-14)
(1.06359 0.006411 1.19955e-13)
(1.03715 0.00622128 3.03257e-14)
(1.01334 0.00516629 -2.58931e-13)
(0.995327 0.00336068 -3.74019e-13)
(0.985967 0.000877358 1.32225e-12)
(0.987886 -0.00212435 7.80884e-12)
(1.00274 -0.00523691 2.18475e-11)
(1.02989 -0.00776232 4.24201e-11)
(1.06532 -0.00889823 6.24647e-11)
(1.10184 -0.00810053 7.25782e-11)
(1.13099 -0.00540729 6.81175e-11)
(1.14584 -0.00150154 5.16827e-11)
(1.14344 0.00255467 3.03363e-11)
(1.12546 0.00577363 1.22455e-11)
(1.09694 0.00760837 1.64571e-12)
(1.06408 0.00802213 -2.47661e-12)
(1.03222 0.00729085 -3.11933e-12)
(1.00523 0.00572655 -3.17807e-13)
(0.985874 0.00350698 1.13965e-11)
(0.976592 0.000700917 4.06843e-11)
(0.979671 -0.00254646 9.37416e-11)
(0.996465 -0.00582536 1.69108e-10)
(1.02601 -0.00845406 2.55872e-10)
(1.06415 -0.00969796 3.36353e-10)
(1.10397 -0.00908582 3.91568e-10)
(1.13746 -0.00662848 4.07063e-10)
(1.15775 -0.00283789 3.7746e-10)
(1.1609 0.0014291 3.08265e-10)
(1.14689 0.00522257 2.14149e-10)
(1.11941 0.00778546 1.17092e-10)
(1.08457 0.00877133 4.00628e-11)
(1.04894 0.0082835 -1.93142e-12)
(1.01785 0.0066816 -5.06099e-12)
(0.994947 0.0042892 2.72806e-11)
(0.982983 0.00127096 8.89496e-11)
(0.984362 -0.00220286 1.71834e-10)
(1.00051 -0.00571303 2.65215e-10)
(1.03041 -0.00856916 3.57293e-10)
(1.06977 -0.0100628 4.38439e-10)
(1.11174 -0.00979922 5.03254e-10)
(1.14882 -0.00787655 5.49947e-10)
(1.17505 -0.00482858 5.77824e-10)
(1.18736 -0.00140108 5.84493e-10)
(1.18587 0.00169903 5.63893e-10)
(1.17325 0.00397157 5.07158e-10)
(1.1536 0.00514984 4.10645e-10)
(1.13165 0.00513824 2.85553e-10)
(1.11222 0.00396511 1.58783e-10)
(1.09976 0.00178217 6.07667e-11)
(1.0979 -0.00111463 9.70281e-12)
(1.10879 -0.00427915 5.53838e-12)
(1.13253 -0.00715206 3.58182e-11)
(1.16675 -0.00915213 8.51722e-11)
(1.20678 -0.00981587 1.41314e-10)
(1.24643 -0.00893151 1.96518e-10)
(1.27928 -0.00660683 2.46781e-10)
(1.30002 -0.00324871 2.90615e-10)
(1.3056 0.000530691 3.28292e-10)
(1.29572 0.00405177 3.61094e-10)
(1.27277 0.00673115 3.90989e-10)
(1.24118 0.00821618 4.20241e-10)
(1.2062 0.00845014 4.48599e-10)
(1.17271 0.00765039 4.68945e-10)
(1.1442 0.00619651 4.6685e-10)
(1.12247 0.00446456 4.28137e-10)
(1.10797 0.00269354 3.50004e-10)
(1.10057 0.000966159 2.4592e-10)
(1.10005 -0.000700256 1.39767e-10)
(1.10613 -0.00224111 5.42423e-11)
(1.11805 -0.00349722 2.01954e-12)
(1.13424 -0.00424866 -1.61409e-11)
(1.15219 -0.00429348 -7.98704e-12)
(1.16873 -0.00352505 1.50836e-11)
(1.18053 -0.00198447 4.17881e-11)
(1.18477 0.000118957 6.30572e-11)
(1.17978 0.00242629 7.30175e-11)
(1.16556 0.00450028 6.96141e-11)
(1.14392 0.00594446 5.49941e-11)
(1.11807 0.00652755 3.48085e-11)
(1.09168 0.00625066 1.58135e-11)
(1.06798 0.00531919 2.76368e-12)
(1.04902 0.00403939 -3.27107e-12)
(1.03556 0.00270215 -4.17331e-12)
(1.02733 0.0015105 -2.73338e-12)
(1.02345 0.000565792 -1.02672e-12)
(1.02282 -0.000107675 5.36101e-14)
(1.02437 -0.000528487 4.58647e-13)
(1.02713 -0.00073192 4.67432e-13)
(1.03031 -0.00075635 3.49368e-13)
(1.03326 -0.000639771 2.499e-13)
(1.0355 -0.000421147 2.06573e-13)
(1.03669 -0.000141868 2.02376e-13)
(1.03667 0.000155428 2.08522e-13)
(1.03546 0.000430884 2.05449e-13)
(1.03322 0.000652574 1.86981e-13)
(1.03022 0.000800348 1.56441e-13)
(1.02678 0.000867129 1.21089e-13)
(1.02324 0.000857527 8.79181e-14)
(1.01989 0.000784857 6.1574e-14)
(1.01693 0.000667309 4.4022e-14)
(1.01452 0.000524815 3.51683e-14)
(1.01271 0.000375799 3.37501e-14)
(1.01151 0.000236123 3.80771e-14)
(1.01082 0.000116477 4.64687e-14)
(1.01058 2.44558e-05 5.7437e-14)
(1.01063 -3.88986e-05 6.97061e-14)
(1.0109 -7.29534e-05 8.22017e-14)
(1.01122 -8.25346e-05 9.40274e-14)
(1.01157 -7.57244e-05 1.03992e-13)
(1.01184 -3.28085e-05 1.14988e-13)
(1.00014 -0.000805295 3.07313e-20)
(1.00207 -0.00237426 4.01529e-19)
(1.00633 -0.00392612 8.50017e-19)
(1.01258 -0.00545959 1.40353e-18)
(1.02088 -0.00695632 2.10916e-18)
(1.03118 -0.00834174 2.83895e-18)
(1.04328 -0.00948713 3.40912e-18)
(1.05676 -0.0101774 4.19248e-18)
(1.07083 -0.010183 6.23674e-18)
(1.08444 -0.00935611 5.62407e-18)
(1.09623 -0.00767094 4.95959e-18)
(1.10522 -0.00565575 8.91475e-18)
(1.11131 -0.00374084 8.16778e-18)
(1.11496 -0.0023641 5.79349e-18)
(1.11727 -0.00171092 1.43707e-18)
(1.11927 -0.00150155 -3.05994e-18)
(1.12131 -0.00115595 -4.71376e-18)
(1.12271 3.08725e-05 -2.82343e-18)
(1.12177 0.00245044 1.8727e-19)
(1.11662 0.00584063 2.59804e-18)
(1.10627 0.00940763 4.10579e-18)
(1.09114 0.01225 4.85362e-18)
(1.07281 0.0136905 3.13347e-18)
(1.05359 0.0133691 3.0669e-18)
(1.03604 0.0111951 2.79911e-17)
(1.02268 0.00728729 -6.2997e-18)
(1.01576 0.00198456 -4.91817e-16)
(1.01695 -0.00406791 -2.78396e-16)
(1.02684 -0.00977572 8.01445e-15)
(1.04409 -0.0136338 2.81168e-14)
(1.06499 -0.0142187 4.2415e-14)
(1.08406 -0.0109981 3.43429e-14)
(1.09597 -0.00481838 1.58034e-14)
(1.09766 0.0024752 3.96116e-15)
(1.08912 0.00896818 4.63506e-16)
(1.07274 0.013417 -6.76652e-16)
(1.05197 0.0153624 -7.7131e-15)
(1.03031 0.0148297 -9.22752e-15)
(1.01099 0.0119949 6.98028e-14)
(0.996981 0.00703635 2.64194e-13)
(0.991097 0.000230612 -7.66066e-14)
(0.995755 -0.00773791 -3.32699e-12)
(1.01207 -0.0154203 -1.22568e-11)
(1.03844 -0.0206691 -2.47889e-11)
(1.06977 -0.0214334 -3.25252e-11)
(1.09846 -0.01693 -2.92038e-11)
(1.11714 -0.00830047 -1.82941e-11)
(1.12151 0.00187755 -8.00584e-12)
(1.11165 0.0108624 -2.02383e-12)
(1.09107 0.0168853 3.37498e-13)
(1.06473 0.0194518 7.40416e-13)
(1.03735 0.0188938 6.35131e-14)
(1.0127 0.0157388 -1.54696e-12)
(0.993894 0.0103284 -1.53033e-12)
(0.98382 0.00285223 1.06183e-11)
(0.985227 -0.00624857 5.52034e-11)
(0.999993 -0.0157573 1.51043e-10)
(1.02769 -0.0235357 2.8943e-10)
(1.06437 -0.0270988 4.20138e-10)
(1.10265 -0.0247467 4.77499e-10)
(1.13352 -0.0165804 4.31279e-10)
(1.1495 -0.00469364 3.10347e-10)
(1.14728 0.00767126 1.73944e-10)
(1.12862 0.0174865 6.86181e-11)
(1.09896 0.0230728 1.04631e-11)
(1.0649 0.0243291 -1.03848e-11)
(1.03202 0.0221264 -1.18836e-11)
(1.00416 0.0174413 -2.33589e-12)
(0.98394 0.0108132 2.69431e-11)
(0.973733 0.00241308 9.48024e-11)
(0.976001 -0.00737302 2.13752e-10)
(0.992434 -0.0173349 3.75096e-10)
(1.02231 -0.0253983 5.49159e-10)
(1.06139 -0.0293019 6.99577e-10)
(1.1024 -0.0275833 7.953e-10)
(1.137 -0.0202563 8.13174e-10)
(1.15815 -0.00885938 7.42055e-10)
(1.16186 0.00402834 5.93075e-10)
(1.14805 0.0155391 4.01094e-10)
(1.12041 0.0233691 2.13505e-10)
(1.0851 0.0264461 7.17726e-11)
(1.04877 0.0250657 -3.30216e-12)
(1.01685 0.0203101 -1.1472e-11)
(0.993118 0.0131451 3.75712e-11)
(0.980547 0.00403397 1.31678e-10)
(0.981923 -0.00654237 2.55271e-10)
(0.99898 -0.0172987 3.87112e-10)
(1.03063 -0.026068 5.05318e-10)
(1.07208 -0.0306219 5.96092e-10)
(1.11577 -0.0297406 6.5733e-10)
(1.15367 -0.0237704 6.94541e-10)
(1.17962 -0.0144117 7.13004e-10)
(1.19073 -0.00398323 7.11472e-10)
(1.18758 0.00537068 6.80965e-10)
(1.17327 0.0121663 6.09622e-10)
(1.15226 0.0156385 4.9275e-10)
(1.12943 0.0155389 3.43386e-10)
(1.10956 0.0119724 1.92751e-10)
(1.09703 0.00537983 7.64477e-11)
(1.09552 -0.003391 1.67418e-11)
(1.10736 -0.0130278 1.50205e-11)
(1.13275 -0.0218291 5.70965e-11)
(1.16921 -0.0279853 1.23483e-10)
(1.21169 -0.0300369 1.9709e-10)
(1.2535 -0.0273169 2.66306e-10)
(1.28782 -0.0201701 3.24884e-10)
(1.30914 -0.00987829 3.70567e-10)
(1.31442 0.00166463 4.03806e-10)
(1.30349 0.012395 4.27138e-10)
(1.279 0.0205496 4.44828e-10)
(1.24561 0.0250637 4.61749e-10)
(1.20884 0.0257714 4.79854e-10)
(1.17373 0.0233376 4.93153e-10)
(1.14389 0.0189163 4.86855e-10)
(1.12115 0.0136475 4.45285e-10)
(1.10597 0.00825618 3.6415e-10)
(1.09823 0.00299605 2.56681e-10)
(1.0977 -0.00207514 1.48222e-10)
(1.10402 -0.00675553 6.40154e-11)
(1.11633 -0.0105592 1.88777e-11)
(1.13292 -0.0128252 1.36931e-11)
(1.15119 -0.0129566 3.80704e-11)
(1.16794 -0.0106475 7.59076e-11)
(1.17987 -0.0060307 1.1111e-10)
(1.18422 0.000269717 1.31887e-10)
(1.17935 0.00719126 1.32746e-10)
(1.16524 0.0134312 1.14619e-10)
(1.14367 0.0177977 8.38474e-11)
(1.11781 0.0195863 4.97253e-11)
(1.09136 0.0187878 2.09784e-11)
(1.06757 0.0160101 2.55835e-12)
(1.04854 0.0121695 -5.44742e-12)
(1.03507 0.0081423 -6.31377e-12)
(1.02691 0.00454466 -4.04699e-12)
(1.02316 0.00168778 -1.48854e-12)
(1.02272 -0.000350608 1.51569e-13)
(1.02448 -0.00162413 8.06646e-13)
(1.02745 -0.00223864 8.65655e-13)
(1.03082 -0.00231058 7.15477e-13)
(1.03392 -0.00195547 5.74219e-13)
(1.03627 -0.00129146 5.04111e-13)
(1.03751 -0.00044382 4.83689e-13)
(1.03751 0.000458463 4.71332e-13)
(1.03626 0.00129462 4.39506e-13)
(1.03396 0.00196775 3.82108e-13)
(1.03088 0.00241663 3.0793e-13)
(1.02736 0.00261976 2.3104e-13)
(1.02374 0.00259116 1.63639e-13)
(1.02032 0.00237126 1.12864e-13)
(1.01732 0.00201531 8.07642e-14)
(1.01488 0.00158378 6.58678e-14)
(1.01307 0.00113257 6.49896e-14)
(1.01187 0.000709764 7.45591e-14)
(1.0112 0.000347785 9.12867e-14)
(1.01099 6.95957e-05 1.12353e-13)
(1.01107 -0.000121714 1.35358e-13)
(1.01137 -0.000224267 1.58303e-13)
(1.01171 -0.000252803 1.79423e-13)
(1.01208 -0.000232018 1.96922e-13)
(1.01236 -0.000101483 2.14429e-13)
(1.00014 -0.00133842 1.74e-22)
(1.00205 -0.00394722 5.17454e-21)
(1.00628 -0.00653344 1.22363e-21)
(1.01251 -0.00910055 1.46815e-20)
(1.02083 -0.0116222 -5.34706e-20)
(1.03123 -0.0139767 -1.03646e-19)
(1.04357 -0.0159482 -1.15356e-19)
(1.05746 -0.0171611 -3.26421e-19)
(1.07208 -0.0172114 -8.53614e-19)
(1.08632 -0.0158124 -1.70091e-18)
(1.09857 -0.0128971 -3.41337e-19)
(1.10768 -0.00941377 2.43544e-18)
(1.1136 -0.006109 -2.2291e-18)
(1.11685 -0.00376522 -1.51384e-17)
(1.11876 -0.00272605 -2.2619e-17)
(1.12064 -0.00250598 -1.11002e-17)
(1.12298 -0.00208094 1.5486e-17)
(1.12504 -0.000182389 3.89099e-17)
(1.1248 0.00390844 4.53389e-17)
(1.11999 0.00973695 3.66046e-17)
(1.10941 0.0158971 2.4261e-17)
(1.09353 0.0208084 1.29067e-17)
(1.07413 0.023309 -4.8765e-18)
(1.05371 0.0228012 2.57324e-17)
(1.03498 0.0191436 9.41116e-17)
(1.02061 0.0125299 -5.37115e-16)
(1.01302 0.00350043 -8.96462e-16)
(1.01414 -0.0068925 5.27546e-15)
(1.02483 -0.0167909 2.16339e-15)
(1.04386 -0.0235564 -2.99111e-14)
(1.06717 -0.0246418 -2.63345e-14)
(1.08848 -0.0190704 2.19569e-14)
(1.10169 -0.00833819 3.67182e-14)
(1.10338 0.00428145 2.00851e-14)
(1.0938 0.0154327 5.89717e-15)
(1.07583 0.0230004 -6.28748e-15)
(1.05335 0.0262723 -3.23561e-14)
(1.03009 0.0253608 4.87038e-15)
(1.00931 0.0205894 3.08411e-13)
(0.99402 0.0122233 5.39328e-13)
(0.987234 0.000644086 -1.58758e-12)
(0.991802 -0.0130688 -9.41989e-12)
(1.00933 -0.0264367 -2.11481e-11)
(1.03835 -0.0356552 -3.1404e-11)
(1.07316 -0.0370455 -3.90787e-11)
(1.10495 -0.0292092 -4.10117e-11)
(1.12526 -0.0141975 -3.21896e-11)
(1.12941 0.00341398 -1.83562e-11)
(1.11786 0.0188258 -6.89034e-12)
(1.09494 0.0290221 -1.95697e-13)
(1.06632 0.0332628 1.85085e-12)
(1.03699 0.0322314 -4.18092e-13)
(1.01076 0.0268876 -5.81449e-12)
(0.990577 0.0177997 -1.02972e-12)
(0.979216 0.00521972 5.5423e-11)
(0.979507 -0.0101948 2.26526e-10)
(0.993679 -0.0264557 5.45093e-10)
(1.02185 -0.0399585 9.57414e-10)
(1.06045 -0.0464007 1.33027e-09)
(1.10187 -0.0426952 1.51241e-09)
(1.13625 -0.0288265 1.4121e-09)
(1.1549 -0.00835143 1.06727e-09)
(1.15356 0.0130261 6.33837e-10)
(1.13391 0.0299426 2.71031e-10)
(1.10211 0.0394578 5.51468e-11)
(1.06568 0.0414796 -2.93678e-11)
(1.03078 0.0376522 -3.81749e-11)
(1.00128 0.029762 -8.00331e-12)
(0.979542 0.0187222 6.64694e-11)
(0.96789 0.00468209 2.10555e-10)
(0.969277 -0.0118811 4.26935e-10)
(0.986095 -0.0289705 6.75629e-10)
(1.01782 -0.0429389 9.00796e-10)
(1.05959 -0.0497638 1.07017e-09)
(1.10307 -0.0469082 1.17941e-09)
(1.13918 -0.0344948 1.22143e-09)
(1.16077 -0.0152346 1.16604e-09)
(1.16421 0.00651151 9.86186e-10)
(1.14978 0.0259604 7.04613e-10)
(1.12127 0.0392563 3.96287e-10)
(1.08487 0.0445766 1.45971e-10)
(1.04726 0.0423943 5.1926e-12)
(1.01398 0.0345007 -1.7796e-11)
(0.989063 0.0224418 5.81912e-11)
(0.976036 0.00687896 2.02263e-10)
(0.9784 -0.0114046 3.75569e-10)
(0.998187 -0.0300593 5.3706e-10)
(1.03376 -0.0451266 6.57592e-10)
(1.07916 -0.0526512 7.29703e-10)
(1.12569 -0.0506087 7.64295e-10)
(1.16464 -0.0397918 7.79869e-10)
(1.18965 -0.0233317 7.90922e-10)
(1.19815 -0.00535172 7.97685e-10)
(1.19139 0.01045 7.82909e-10)
(1.17335 0.0216315 7.21884e-10)
(1.14925 0.0270575 5.9999e-10)
(1.12435 0.0264784 4.29258e-10)
(1.10345 0.0201581 2.49095e-10)
(1.09093 0.00880157 1.0718e-10)
(1.09055 -0.00626844 3.4938e-11)
(1.10486 -0.0228838 3.58988e-11)
(1.13401 -0.0380795 9.16041e-11)
(1.17493 -0.0486326 1.75724e-10)
(1.22166 -0.0519724 2.6549e-10)
(1.26674 -0.0469984 3.46378e-10)
(1.30293 -0.0344124 4.11618e-10)
(1.32467 -0.0165167 4.59501e-10)
(1.32902 0.0033931 4.90659e-10)
(1.31604 0.0217878 5.07519e-10)
(1.2887 0.0356793 5.15043e-10)
(1.25209 0.0432862 5.19989e-10)
(1.21213 0.0443717 5.26917e-10)
(1.17418 0.0401093 5.31731e-10)
(1.14203 0.0324817 5.19479e-10)
(1.11757 0.0234228 4.72577e-10)
(1.10131 0.0141525 3.85263e-10)
(1.09314 0.00510575 2.71943e-10)
(1.09277 -0.00359069 1.6196e-10)
(1.09971 -0.0115558 8.51969e-11)
(1.11282 -0.0179496 5.86142e-11)
(1.13013 -0.0216807 8.09184e-11)
(1.14887 -0.0218032 1.35746e-10)
(1.16581 -0.0178658 1.99284e-10)
(1.17779 -0.0101232 2.48348e-10)
(1.18218 0.00038948 2.66973e-10)
(1.1774 0.0119281 2.50064e-10)
(1.16343 0.0223442 2.03515e-10)
(1.14199 0.0296547 1.4125e-10)
(1.11621 0.0326717 7.95985e-11)
(1.08977 0.0313617 3.13673e-11)
(1.06598 0.0267252 2.11457e-12)
(1.04701 0.0202885 -9.91344e-12)
(1.03369 0.0135217 -1.07367e-11)
(1.02581 0.00746708 -6.79012e-12)
(1.02247 0.00265815 -2.45699e-12)
(1.0225 -0.000766179 4.00482e-13)
(1.02475 -0.00289305 1.65753e-12)
(1.02818 -0.00390212 1.90296e-12)
(1.03194 -0.00399294 1.74651e-12)
(1.03533 -0.0033634 1.54799e-12)
(1.03786 -0.00221503 1.42124e-12)
(1.03919 -0.000760707 1.34144e-12)
(1.03916 0.0007805 1.24874e-12)
(1.03781 0.0022036 1.10805e-12)
(1.03535 0.00334453 9.21366e-13)
(1.03208 0.00410048 7.14473e-13)
(1.02838 0.00443664 5.18581e-13)
(1.0246 0.00437869 3.57313e-13)
(1.02105 0.00399692 2.41949e-13)
(1.01797 0.00338626 1.72896e-13)
(1.0155 0.00265003 1.43886e-13)
(1.0137 0.0018833 1.46087e-13)
(1.01254 0.00116749 1.70751e-13)
(1.01193 0.000557075 2.10307e-13)
(1.01178 9.04248e-05 2.58448e-13)
(1.01193 -0.000228304 3.09827e-13)
(1.0123 -0.00039614 3.60019e-13)
(1.01269 -0.000439742 4.04922e-13)
(1.0131 -0.000400249 4.41428e-13)
(1.0134 -0.000175596 4.73974e-13)
(1.00014 -0.0018656 -2.9369e-20)
(1.00202 -0.00550307 -5.10117e-19)
(1.0062 -0.00912238 -1.04125e-18)
(1.01237 -0.0127385 -1.64792e-18)
(1.02071 -0.0163252 -2.75592e-18)
(1.03125 -0.0197181 -2.86046e-18)
(1.04394 -0.0226134 -5.52378e-18)
(1.05846 -0.0244499 -3.34324e-18)
(1.07394 -0.0246158 -4.86639e-18)
(1.08918 -0.0226165 -1.88695e-17)
(1.10216 -0.018305 -6.41954e-18)
(1.11147 -0.0131626 3.86672e-17)
(1.11709 -0.00830069 4.92131e-17)
(1.11968 -0.0049369 7.37137e-17)
(1.12094 -0.00362665 2.58807e-16)
(1.1226 -0.00363441 6.32256e-16)
(1.12541 -0.00339017 9.46869e-16)
(1.12853 -0.000906029 9.55069e-16)
(1.12942 0.00497212 7.30269e-16)
(1.12516 0.0135477 4.19916e-16)
(1.11423 0.0226516 1.57715e-16)
(1.09716 0.0298996 -3.09847e-17)
(1.07608 0.0336041 -7.10883e-17)
(1.05379 0.0329432 2.65295e-16)
(1.03326 0.0277439 -1.46771e-15)
(1.01735 0.018269 -4.18868e-15)
(1.00872 0.00522388 3.12347e-14)
(1.0097 -0.00996715 4.46088e-14)
(1.02161 -0.0246368 -5.62869e-13)
(1.04343 -0.0348131 -2.12294e-12)
(1.07055 -0.0365428 -3.21378e-12)
(1.09543 -0.0282594 -2.50859e-12)
(1.11065 -0.0122527 -1.03991e-12)
(1.11227 0.00644225 -1.75742e-13)
(1.10093 0.0227556 5.34314e-14)
(1.08039 0.0336389 8.18892e-15)
(1.05524 0.0382277 -2.14762e-14)
(1.02953 0.0368482 2.96297e-13)
(1.00656 0.0300289 2.7617e-13)
(0.989365 0.0180759 -3.12894e-12)
(0.981212 0.00135016 -5.75003e-12)
(0.985502 -0.0187734 3.13882e-11)
(1.00448 -0.0386919 1.7326e-10)
(1.03703 -0.0525955 3.96697e-10)
(1.07699 -0.0547535 5.37587e-10)
(1.11398 -0.0429825 4.70936e-10)
(1.13743 -0.0205055 2.71988e-10)
(1.14157 0.0056078 9.56827e-11)
(1.12739 0.028114 8.62656e-12)
(1.10067 0.0426582 -1.0405e-11)
(1.06837 0.0484183 -5.90057e-12)
(1.03608 0.0466633 -6.62087e-12)
(1.00753 0.0389444 -1.33671e-11)
(0.985275 0.0261035 1.94198e-11)
(0.971698 0.00839907 1.89405e-10)
(0.969731 -0.0134608 5.80869e-10)
(0.982497 -0.0369171 1.15719e-09)
(1.01122 -0.0569293 1.7687e-09)
(1.05256 -0.0671308 2.27663e-09)
(1.09815 -0.0626675 2.58844e-09)
(1.13704 -0.0430885 2.58747e-09)
(1.15944 -0.013318 2.18146e-09)
(1.16006 0.018193 1.47065e-09)
(1.13998 0.0432195 7.33406e-10)
(1.10584 0.0571783 2.10582e-10)
(1.06632 0.0599773 -3.67846e-11)
(1.02855 0.054313 -8.4986e-11)
(0.996618 0.0430576 -1.98204e-11)
(0.972719 0.0275138 1.32197e-10)
(0.959451 0.00755853 3.70375e-10)
(0.960721 -0.0164591 6.55909e-10)
(0.979712 -0.0415992 9.11385e-10)
(1.01551 -0.0621545 1.0825e-09)
(1.06178 -0.0719492 1.1766e-09)
(1.10865 -0.0673941 1.24063e-09)
(1.14612 -0.0490943 1.30558e-09)
(1.16708 -0.0213454 1.33727e-09)
(1.16869 0.00955765 1.24824e-09)
(1.15209 0.0370283 9.89674e-10)
(1.1216 0.05582 6.18703e-10)
(1.08343 0.0634318 2.63904e-10)
(1.04414 0.0604917 3.84311e-11)
(1.00922 0.0494024 -1.33505e-11)
(0.983124 0.0321201 8.67743e-11)
(0.97025 0.00937772 2.77112e-10)
(0.974906 -0.0176013 4.83515e-10)
(0.999002 -0.0449693 6.47271e-10)
(1.03969 -0.0665631 7.4451e-10)
(1.08948 -0.0766141 7.83389e-10)
(1.13866 -0.0725026 7.86792e-10)
(1.17814 -0.0557488 7.78909e-10)
(1.20165 -0.0311482 7.79404e-10)
(1.20688 -0.0048289 7.95074e-10)
(1.1956 0.0177849 8.08739e-10)
(1.17268 0.0332354 7.82256e-10)
(1.14428 0.0401321 6.82101e-10)
(1.11631 0.0384276 5.10271e-10)
(1.09386 0.0286764 3.11802e-10)
(1.08145 0.0118336 1.4943e-10)
(1.0831 -0.0103523 6.69752e-11)
(1.10143 -0.0347515 7.07181e-11)
(1.13593 -0.056862 1.37099e-10)
(1.1823 -0.0718213 2.32934e-10)
(1.23336 -0.0759623 3.31194e-10)
(1.28105 -0.0679688 4.16306e-10)
(1.3182 -0.0491344 4.82287e-10)
(1.33962 -0.0229026 5.28789e-10)
(1.34265 0.00600421 5.5768e-10)
(1.3275 0.0325676 5.71544e-10)
(1.29725 0.0525237 5.7456e-10)
(1.25724 0.0633363 5.73332e-10)
(1.21379 0.0647066 5.73646e-10)
(1.17261 0.0583738 5.72806e-10)
(1.13775 0.0472166 5.55524e-10)
(1.11127 0.0340053 5.02406e-10)
(1.09377 0.0204746 4.07446e-10)
(1.08518 0.00726912 2.88877e-10)
(1.08515 -0.00535797 1.82515e-10)
(1.09296 -0.0167805 1.22609e-10)
(1.1071 -0.0257743 1.24644e-10)
(1.12525 -0.0308503 1.80951e-10)
(1.1444 -0.0307977 2.68027e-10)
(1.16136 -0.0251106 3.56865e-10)
(1.17315 -0.0142117 4.20291e-10)
(1.17743 0.000471774 4.38266e-10)
(1.17279 0.0165704 4.03416e-10)
(1.15918 0.0311368 3.24322e-10)
(1.13819 0.0414077 2.22593e-10)
(1.11279 0.0456897 1.23905e-10)
(1.08666 0.0438928 4.7889e-11)
(1.0631 0.0373892 2.31503e-12)
(1.04438 0.0283124 -1.6287e-11)
(1.03144 0.0187388 -1.74923e-11)
(1.02407 0.0101572 -1.11874e-11)
(1.02137 0.0033432 -4.08281e-12)
(1.02214 -0.00149083 8.79876e-13)
(1.02514 -0.004463 3.37443e-12)
(1.02926 -0.00583167 4.19867e-12)
(1.03359 -0.00588764 4.2414e-12)
(1.03743 -0.00491912 4.05339e-12)
(1.04023 -0.00321787 3.83047e-12)
(1.04166 -0.00109089 3.56473e-12)
(1.04159 0.00114639 3.2001e-12)
(1.04008 0.00319922 2.72316e-12)
(1.03736 0.00483294 2.17576e-12)
(1.03381 0.00590266 1.62768e-12)
(1.02982 0.00636267 1.14446e-12)
(1.0258 0.00625461 7.67497e-13)
(1.02207 0.00568364 5.09942e-13)
(1.01888 0.00478914 3.63328e-13)
(1.01637 0.00372113 3.07798e-13)
(1.01459 0.00261665 3.20716e-13)
(1.0135 0.00159211 3.8153e-13)
(1.01299 0.000724384 4.73228e-13)
(1.01295 6.70292e-05 5.81882e-13)
(1.01321 -0.000376674 6.95699e-13)
(1.01367 -0.000602887 8.04915e-13)
(1.01413 -0.000654162 9.00168e-13)
(1.01459 -0.00058653 9.76193e-13)
(1.01494 -0.000257594 1.03639e-12)
(1.00013 -0.00238291 -2.1561e-18)
(1.00197 -0.00703086 -7.98709e-18)
(1.00606 -0.0116785 -7.17636e-18)
(1.01215 -0.0163628 -9.69855e-18)
(1.02048 -0.0210693 -7.83488e-18)
(1.03118 -0.0256001 -1.26292e-17)
(1.04433 -0.0295641 -8.92187e-18)
(1.05968 -0.0321787 -2.57949e-18)
(1.07638 -0.0325772 -8.41251e-17)
(1.09305 -0.0299396 4.64433e-17)
(1.10708 -0.0239748 4.40444e-16)
(1.11666 -0.0168749 6.46089e-16)
(1.12183 -0.010172 4.96576e-16)
(1.1234 -0.00564907 3.94595e-16)
(1.12365 -0.00417258 9.32064e-16)
(1.12496 -0.00472409 2.28417e-15)
(1.12844 -0.005051 3.66044e-15)
(1.13316 -0.00220122 3.89302e-15)
(1.13577 0.00559292 3.10239e-15)
(1.13235 0.0173463 1.86104e-15)
(1.12091 0.0299055 5.64531e-16)
(1.10217 0.0398816 -4.81624e-16)
(1.07873 0.044988 1.1382e-16)
(1.05387 0.0442026 -3.85095e-16)
(1.03085 0.037363 -1.51216e-14)
(1.01278 0.0248021 1.43978e-14)
(1.00263 0.00733094 1.71432e-13)
(1.00328 -0.0133311 -1.6114e-13)
(1.01681 -0.0336563 -1.7362e-12)
(1.04257 -0.0480347 -4.1046e-12)
(1.07519 -0.0506581 -7.28842e-12)
(1.10522 -0.0391247 -8.7236e-12)
(1.1233 -0.0167379 -5.91727e-12)
(1.12471 0.0091714 -2.16678e-12)
(1.11075 0.0313875 -1.99051e-13)
(1.08651 0.0458441 1.77801e-13)
(1.05764 0.0516981 5.52295e-13)
(1.02859 0.0496977 1.22403e-12)
(1.00269 0.0406684 -4.76515e-12)
(0.98293 0.024898 -2.10521e-11)
(0.972674 0.00258812 2.03321e-11)
(0.97557 -0.024685 3.2383e-10)
(0.994423 -0.0521874 1.06309e-09)
(1.02928 -0.0719211 2.04156e-09)
(1.07492 -0.0755543 2.6963e-09)
(1.11981 -0.0594448 2.56344e-09)
(1.14999 -0.027974 1.7475e-09)
(1.1565 0.00846513 8.17994e-10)
(1.14 0.0392953 2.11983e-10)
(1.10837 0.0585314 -2.25329e-11)
(1.07096 0.0655452 -5.32227e-11)
(1.03461 0.0626388 -3.88182e-11)
(1.00296 0.0522884 -1.96913e-11)
(0.977768 0.0357205 9.53336e-11)
(0.960875 0.0130031 4.41395e-10)
(0.955944 -0.0155768 1.01813e-09)
(0.967975 -0.0471877 1.62523e-09)
(0.99929 -0.075002 2.07365e-09)
(1.04553 -0.0898942 2.38629e-09)
(1.09619 -0.0849485 2.69464e-09)
(1.13893 -0.0594542 2.96554e-09)
(1.16387 -0.0198194 2.91833e-09)
(1.16578 0.0227949 2.33693e-09)
(1.14535 0.0570591 1.4056e-09)
(1.1091 0.0762725 5.42542e-10)
(1.06639 0.0801055 2.65834e-11)
(1.02526 0.0724913 -1.28823e-10)
(0.990267 0.0576726 -3.57415e-11)
(0.963851 0.0373075 2.09312e-10)
(0.949444 0.0106926 5.29153e-10)
(0.952129 -0.0219962 8.2797e-10)
(0.97525 -0.0563563 1.02405e-09)
(1.0165 -0.0839846 1.10408e-09)
(1.06771 -0.0963616 1.11546e-09)
(1.11778 -0.0891001 1.12369e-09)
(1.15624 -0.0637072 1.17856e-09)
(1.17599 -0.026491 1.27216e-09)
(1.17475 0.0140372 1.30651e-09)
(1.15472 0.0495164 1.15855e-09)
(1.12112 0.0735784 8.13456e-10)
(1.08049 0.0832913 4.01642e-10)
(1.03917 0.0794853 9.93107e-11)
(1.00259 0.0649984 9.89603e-12)
(0.975673 0.0419272 1.21678e-10)
(0.963809 0.0110014 3.41118e-10)
(0.971828 -0.0257624 5.59576e-10)
(1.00088 -0.0624445 7.09634e-10)
(1.04647 -0.0903825 7.80582e-10)
(1.09966 -0.102166 7.95843e-10)
(1.15016 -0.0949619 7.83498e-10)
(1.18907 -0.071289 7.63962e-10)
(1.21051 -0.0376846 7.53756e-10)
(1.21243 -0.00231003 7.65787e-10)
(1.19684 0.0275558 7.93007e-10)
(1.16912 0.0472872 7.95837e-10)
(1.13623 0.0552309 7.24876e-10)
(1.10488 0.0516758 5.66429e-10)
(1.08073 0.037584 3.64662e-10)
(1.06879 0.0141852 1.94251e-10)
(1.07347 -0.0162489 1.10222e-10)
(1.09693 -0.0492917 1.20763e-10)
(1.13724 -0.0785206 1.97153e-10)
(1.18826 -0.0973643 3.00843e-10)
(1.24183 -0.101374 4.029e-10)
(1.28997 -0.0894437 4.88365e-10)
(1.32628 -0.0637055 5.52078e-10)
(1.34639 -0.0287342 5.94041e-10)
(1.34803 0.00946836 6.16974e-10)
(1.33136 0.0444962 6.24772e-10)
(1.29926 0.0707959 6.22311e-10)
(1.25697 0.0849935 6.16312e-10)
(1.21092 0.0866638 6.12769e-10)
(1.16714 0.0781092 6.08842e-10)
(1.12995 0.0631441 5.87611e-10)
(1.10168 0.0454142 5.2784e-10)
(1.08313 0.027202 4.25383e-10)
(1.07434 0.00941628 3.05321e-10)
(1.07493 -0.00747846 2.10378e-10)
(1.08387 -0.0225295 1.74896e-10)
(1.09926 -0.0340965 2.06623e-10)
(1.11833 -0.0403325 2.8861e-10)
(1.13784 -0.0398609 3.93439e-10)
(1.15458 -0.0322437 4.94472e-10)
(1.16585 -0.0181582 5.67782e-10)
(1.16969 0.000579591 5.91355e-10)
(1.16501 0.0210636 5.51114e-10)
(1.15187 0.0396504 4.51037e-10)
(1.13166 0.0528447 3.15424e-10)
(1.10713 0.0584279 1.7897e-10)
(1.08176 0.0561997 7.09814e-11)
(1.05883 0.047857 4.62251e-12)
(1.04068 0.036121 -2.34976e-11)
(1.02834 0.0236821 -2.61905e-11)
(1.02171 0.0125004 -1.72703e-11)
(1.01988 0.00362175 -6.41113e-12)
(1.0216 -0.00264828 1.87366e-12)
(1.02556 -0.00645192 6.75834e-12)
(1.03056 -0.00813103 9.08686e-12)
(1.03564 -0.00807779 9.94097e-12)
(1.04004 -0.00668105 1.00286e-11)
(1.0432 -0.00433188 9.64378e-12)
(1.04478 -0.00144007 8.85924e-12)
(1.04467 0.00157374 7.71913e-12)
(1.04295 0.00431701 6.33684e-12)
(1.03992 0.00647907 4.88343e-12)
(1.03599 0.00787194 3.53164e-12)
(1.03164 0.00844225 2.40794e-12)
(1.0273 0.00825385 1.57238e-12)
(1.02334 0.0074541 1.02534e-12)
(1.02001 0.0062338 7.28687e-13)
(1.01746 0.00479536 6.28511e-13)
(1.01571 0.00332177 6.71427e-13)
(1.01472 0.0019668 8.12158e-13)
(1.01435 0.000830054 1.01446e-12)
(1.01446 -2.01787e-05 1.24892e-12)
(1.01486 -0.000584361 1.49056e-12)
(1.01543 -0.000858319 1.71863e-12)
(1.016 -0.000906297 1.91275e-12)
(1.01653 -0.000796575 2.06475e-12)
(1.01691 -0.000349604 2.17027e-12)
(1.00013 -0.00288531 2.43909e-18)
(1.0019 -0.0085159 7.7981e-18)
(1.00585 -0.0141809 9.21769e-18)
(1.0118 -0.0199538 3.50181e-18)
(1.02007 -0.0258482 3.24771e-17)
(1.03093 -0.0316484 -3.96241e-17)
(1.04461 -0.0368811 1.57797e-16)
(1.06103 -0.0404983 -3.45733e-16)
(1.07935 -0.0413156 -6.60437e-17)
(1.09802 -0.037998 2.51424e-15)
(1.11349 -0.0300164 2.34348e-15)
(1.12342 -0.0205512 -3.20226e-15)
(1.12794 -0.0116441 -1.02813e-14)
(1.12804 -0.00585229 -1.65833e-14)
(1.1268 -0.00446841 -2.49485e-14)
(1.12751 -0.00608603 -3.69858e-14)
(1.13189 -0.00755747 -4.48915e-14)
(1.13887 -0.00461266 -3.80599e-14)
(1.14396 0.00537807 -2.30482e-14)
(1.1418 0.0210097 -9.57379e-15)
(1.1297 0.0377743 -2.65829e-15)
(1.1087 0.0510043 -2.89931e-16)
(1.08212 0.0577582 3.01946e-15)
(1.05388 0.0568824 -1.93454e-14)
(1.02761 0.0482924 -9.80995e-15)
(1.00666 0.0323867 2.20337e-13)
(0.994368 0.00998172 -5.21173e-13)
(0.994372 -0.017049 -1.72859e-12)
(1.01001 -0.0442821 1.3124e-11)
(1.04136 -0.0640135 5.42962e-11)
(1.08179 -0.0678848 8.12409e-11)
(1.11884 -0.052312 5.76274e-11)
(1.1405 -0.0219643 1.69924e-11)
(1.14126 0.0127543 -2.18752e-12)
(1.1235 0.0418681 -3.6881e-12)
(1.09422 0.0601908 -7.60524e-13)
(1.06047 0.067179 2.63533e-12)
(1.02721 0.064315 5.16641e-13)
(0.99768 0.0528606 -2.73734e-11)
(0.974609 0.0330901 -4.22024e-11)
(0.960847 0.00504807 2.17128e-10)
(0.959663 -0.0296205 1.14846e-09)
(0.975083 -0.0655311 2.75629e-09)
(1.00993 -0.0928553 4.4804e-09)
(1.06084 -0.100055 5.66648e-09)
(1.11549 -0.0805398 5.78586e-09)
(1.15641 -0.0388373 4.60772e-09)
(1.16985 0.0106242 2.68152e-09)
(1.15383 0.0521903 1.00428e-09)
(1.11767 0.0771688 1.06576e-10)
(1.07419 0.0852826 -1.48189e-10)
(1.03265 0.0806546 -1.30593e-10)
(0.996957 0.0673647 -2.44587e-11)
(0.967897 0.0471497 2.41826e-10)
(0.947111 0.0193213 7.44361e-10)
(0.940094 -0.016996 1.31217e-09)
(0.954049 -0.058583 1.6638e-09)
(0.991018 -0.0957211 1.75343e-09)
(1.044 -0.115609 1.79525e-09)
(1.09988 -0.109392 2.02466e-09)
(1.14516 -0.0769176 2.48973e-09)
(1.17032 -0.0266997 2.90741e-09)
(1.1713 0.0274914 2.80434e-09)
(1.14937 0.0715653 2.03886e-09)
(1.11089 0.0966428 9.99865e-10)
(1.06518 0.101877 1.99878e-10)
(1.02067 0.0923627 -1.28577e-10)
(0.982388 0.0737585 -4.42046e-11)
(0.953607 0.0479267 2.77172e-10)
(0.939053 0.0134332 6.49783e-10)
(0.944622 -0.0293437 9.29507e-10)
(0.97275 -0.0737796 1.06391e-09)
(1.0191 -0.108403 1.09004e-09)
(1.07397 -0.122622 1.07334e-09)
(1.12593 -0.111686 1.06294e-09)
(1.16478 -0.0782039 1.09437e-09)
(1.18352 -0.0305857 1.18367e-09)
(1.17981 0.0202148 1.27318e-09)
(1.15634 0.0638495 1.22314e-09)
(1.11926 0.0929281 9.45323e-10)
(1.07575 0.10439 5.26951e-10)
(1.03224 0.0994239 1.75402e-10)
(0.994161 0.0811405 5.12623e-11)
(0.96699 0.0515103 1.62204e-10)
(0.956928 0.0113177 3.91991e-10)
(0.968799 -0.0361189 6.07542e-10)
(1.00246 -0.0822858 7.40054e-10)