/*--------------------------------*- C++ -*----------------------------------*\
  =========                 |
  \\      /  F ield         | OpenFOAM: The Open Source CFD Toolbox
   \\    /   O peration     | Website:  https://openfoam.org
    \\  /    A nd           | Version:  11
     \\/     M anipulation  |
\*---------------------------------------------------------------------------*/
FoamFile
{
    format      ascii;
    class       surfaceScalarField;
    location    "8.395044";
    object      phi_0;
}
// * * * * * * * * * * * * * * * * * * * * * * * * * * * * * * * * * * * * * //

dimensions      [0 3 -1 0 0 0 0];

internalField   nonuniform List<scalar> 
14638
(
0.00250282
-2.8157e-06
0.00251131
-8.49578e-06
0.00252582
-1.45096e-05
0.00254678
-2.09611e-05
0.00257465
-2.78641e-05
0.00260964
-3.49961e-05
0.00265158
-4.19356e-05
0.00269944
-4.7864e-05
0.00275134
-5.18973e-05
0.00280443
-5.30896e-05
0.00285532
-5.08918e-05
0.0029013
-4.59826e-05
0.00294031
-3.90107e-05
0.00297101
-3.06961e-05
0.00299284
-2.18285e-05
0.00300603
-1.31958e-05
0.00301169
-5.65568e-06
0.00301175
-5.66708e-08
0.00300876
2.9824e-06
0.00300541
3.35615e-06
0.00300371
1.69407e-06
0.00300434
-6.2382e-07
0.00300604
-1.70566e-06
0.00300568
3.63797e-07
0.00299888
6.80198e-06
0.00298148
1.74012e-05
0.00295121
3.02668e-05
0.00290879
4.24223e-05
0.0028579
5.0892e-05
0.00280438
5.35127e-05
0.00275518
4.92057e-05
0.00271733
3.78488e-05
0.00269725
2.00765e-05
0.0027
-2.74774e-06
0.00272834
-2.83433e-05
0.00278145
-5.31117e-05
0.0028534
-7.19499e-05
0.00293241
-7.90029e-05
0.00300246
-7.00558e-05
0.00304809
-4.56308e-05
0.00306
-1.19041e-05
0.00303781
2.21864e-05
0.00298863
4.91805e-05
0.00292313
6.55056e-05
0.00285201
7.11139e-05
0.00278412
6.78928e-05
0.00272584
5.82772e-05
0.00268132
4.45188e-05
0.0026528
2.85207e-05
0.00264083
1.19735e-05
0.00264427
-3.43769e-06
0.00266021
-1.59424e-05
0.00268409
-2.38838e-05
0.00271026
-2.61643e-05
0.00273297
-2.27145e-05
0.00274764
-1.46703e-05
0.00275171
-4.07114e-06
0.00274492
6.79498e-06
0.00272887
1.60464e-05
0.00270629
2.25778e-05
0.00268022
2.607e-05
0.00265345
2.67774e-05
0.00262818
2.52625e-05
0.002606
2.21822e-05
0.00258784
1.8159e-05
0.00257412
1.37237e-05
0.00256481
9.30462e-06
0.00255958
5.23582e-06
0.00255781
1.77034e-06
0.00255872
-9.12403e-07
0.00256143
-2.70759e-06
0.00256502
-3.59153e-06
0.00256865
-3.62605e-06
0.0025716
-2.95304e-06
0.00257337
-1.77553e-06
0.0025737
-3.27293e-07
0.00257254
1.16231e-06
0.00257004
2.49981e-06
0.00256649
3.54858e-06
0.00256225
4.23616e-06
0.00255771
4.54961e-06
0.00255318
4.52304e-06
0.00254896
4.22171e-06
0.00254523
3.72649e-06
0.00254211
3.1209e-06
0.00253963
2.48172e-06
0.00253776
1.87298e-06
0.00253642
1.3429e-06
0.00253549
9.22992e-07
0.00253486
6.28774e-07
0.0025344
4.61504e-07
0.00253399
4.10704e-07
0.00253353
4.57136e-07
0.00253296
5.76045e-07
0.00253222
7.4039e-07
0.00253129
9.23825e-07
0.00253019
1.10315e-06
0.00252893
1.26006e-06
0.00252755
1.38207e-06
0.00252609
1.46269e-06
0.00252459
1.50093e-06
0.00252308
1.50026e-06
0.00252162
1.46737e-06
0.00252021
1.41084e-06
0.00251887
1.33983e-06
0.0025176
1.26311e-06
0.00251642
1.18823e-06
0.00251529
1.12105e-06
0.00251423
1.06552e-06
0.00251321
1.02373e-06
0.00251221
9.96033e-07
0.00251123
9.81432e-07
0.00251025
9.77905e-07
0.00250927
9.8281e-07
0.00250827
9.93246e-07
0.00250727
1.00638e-06
0.00250625
1.01968e-06
0.00250522
1.03112e-06
0.00250418
1.03924e-06
0.00250313
1.04319e-06
0.00250209
1.04264e-06
0.00250105
1.03777e-06
0.00250002
1.02904e-06
0.00249901
1.01711e-06
0.002498
1.0027e-06
0.00249702
9.86452e-07
0.00249605
9.68836e-07
0.0024951
9.50121e-07
0.00249417
9.30329e-07
0.00249326
9.09256e-07
0.00249237
8.86506e-07
0.00249151
8.61549e-07
0.00249068
8.3376e-07
0.00248988
8.02392e-07
0.00248911
7.66455e-07
0.00248838
7.24422e-07
0.00248771
6.7381e-07
0.0024871
6.107e-07
0.00248657
5.2939e-07
0.00248615
4.22477e-07
0.00248587
2.81618e-07
0.00248577
9.91831e-08
0.0024859
-1.29291e-07
0.0024863
-4.02214e-07
0.00248701
-7.0937e-07
0.00248804
-1.03052e-06
0.00248938
-1.33616e-06
0.00249097
-1.59068e-06
0.00249272
-1.75814e-06
0.00249453
-1.80918e-06
0.00249626
-1.72823e-06
0.00249778
-1.51822e-06
0.00249898
-1.20217e-06
0.0024998
-8.20829e-07
0.00250023
-4.23517e-07
0.00250029
-6.57315e-08
0.00250007
2.18834e-07
0.00249969
3.79424e-07
0.00249922
4.71947e-07
3.31697e-07
0.00250279
-5.6068e-06
0.00251122
-1.69238e-05
0.00252563
-2.89245e-05
0.00254651
-4.18374e-05
0.00257435
-5.57027e-05
0.00260944
-7.00884e-05
0.00265166
-8.41571e-05
0.00270003
-9.62333e-05
0.00275264
-0.000104508
0.00280653
-0.000106975
0.00285812
-0.00010248
0.00290464
-9.25023e-05
0.002944
-7.83726e-05
0.00297485
-6.1545e-05
0.00299662
-4.36026e-05
0.00300954
-2.612e-05
0.00301472
-1.08348e-05
0.00301416
5.05548e-07
0.00301054
6.60008e-06
0.00300671
7.19189e-06
0.00300486
3.53886e-06
0.00300578
-1.54008e-06
0.00300822
-4.14144e-06
0.00300885
-2.70309e-07
0.00300299
1.26601e-05
0.00298611
3.42777e-05
0.00295571
6.06714e-05
0.00291246
8.5672e-05
0.0028602
0.000103149
0.00280502
0.000108697
0.00275406
0.000100165
0.00271457
7.73362e-05
0.00269318
4.14705e-05
0.0026952
-4.7665e-06
0.00272374
-5.68914e-05
0.00277833
-0.000107692
0.00285309
-0.000146713
0.00293579
-0.000161704
0.00300939
-0.000143661
0.00305728
-9.35179e-05
0.00306956
-2.41821e-05
0.00304608
4.56628e-05
0.00299468
0.000100581
0.00292678
0.000133412
0.00285356
0.000144335
0.00278403
0.000137418
0.0027246
0.000117705
0.00267937
8.97521e-05
0.00265054
5.73452e-05
0.00263869
2.38247e-05
0.00264271
-7.45065e-06
0.00265965
-3.28868e-05
0.00268483
-4.90621e-05
0.00271234
-5.36764e-05
0.00273618
-4.65547e-05
0.00275155
-3.00339e-05
0.0027558
-8.32882e-06
0.00274875
1.38449e-05
0.00273216
3.2637e-05
0.00270892
4.58208e-05
0.0026822
5.27921e-05
0.00265486
5.41124e-05
0.00262917
5.09531e-05
0.0026067
4.46587e-05
0.00258836
3.64895e-05
0.00257458
2.75131e-05
0.00256529
1.85859e-05
0.00256015
1.03757e-05
0.00255854
3.38836e-06
0.00255964
-2.01561e-06
0.00256256
-5.624e-06
0.00256635
-7.38766e-06
0.00257016
-7.43105e-06
0.00257325
-6.04218e-06
0.0025751
-3.63417e-06
0.00257546
-6.82835e-07
0.00257428
2.34537e-06
0.00257172
5.0579e-06
0.00256809
7.17879e-06
0.00256376
8.56314e-06
0.00255912
9.18723e-06
0.00255452
9.12247e-06
0.00255024
8.50283e-06
0.00254648
7.49318e-06
0.00254333
6.26309e-06
0.00254085
4.9679e-06
0.00253898
3.73677e-06
0.00253766
2.66671e-06
0.00253676
1.8209e-06
0.00253616
1.23016e-06
0.00253573
8.96551e-07
0.00253534
7.9847e-07
0.0025349
8.96681e-07
0.00253433
1.14086e-06
0.0025336
1.47613e-06
0.00253267
1.84913e-06
0.00253156
2.21293e-06
0.00253029
2.53057e-06
0.0025289
2.77697e-06
0.00252742
2.9392e-06
0.00252591
3.01542e-06
0.00252439
3.01288e-06
0.00252292
2.94527e-06
0.0025215
2.83006e-06
0.00252015
2.68589e-06
0.00251888
2.5305e-06
0.00251769
2.37916e-06
0.00251657
2.24368e-06
0.0025155
2.132e-06
0.00251448
2.04823e-06
0.00251348
1.99308e-06
0.0025125
1.96443e-06
0.00251152
1.95814e-06
0.00251053
1.96885e-06
0.00250954
1.99065e-06
0.00250852
2.01782e-06
0.0025075
2.04523e-06
0.00250646
2.0688e-06
0.00250541
2.0856e-06
0.00250436
2.09391e-06
0.00250331
2.09316e-06
0.00250227
2.08367e-06
0.00250123
2.06644e-06
0.0025002
2.04282e-06
0.00249919
2.01428e-06
0.0024982
1.98212e-06
0.00249722
1.94733e-06
0.00249626
1.91045e-06
0.00249532
1.87153e-06
0.0024944
1.83017e-06
0.0024935
1.78556e-06
0.00249262
1.73665e-06
0.00249177
1.68216e-06
0.00249096
1.62057e-06
0.00249017
1.54991e-06
0.00248943
1.46715e-06
0.00248874
1.36743e-06
0.0024881
1.24308e-06
0.00248755
1.08296e-06
0.0024871
8.72586e-07
0.00248679
5.95569e-07
0.00248665
2.36851e-07
0.00248673
-2.12505e-07
0.00248708
-7.49621e-07
0.00248772
-1.35469e-06
0.00248868
-1.98817e-06
0.00248994
-2.5921e-06
0.00249144
-3.09633e-06
0.00249311
-3.42982e-06
0.00249484
-3.53426e-06
0.00249649
-3.37839e-06
0.00249794
-2.96746e-06
0.00249908
-2.34658e-06
0.00249986
-1.59589e-06
0.00250025
-8.13036e-07
0.00250029
-1.07784e-07
0.00250006
4.52611e-07
0.00249967
7.67323e-07
0.00249919
9.48151e-07
6.62039e-07
0.00250274
-8.34808e-06
0.00251103
-2.52088e-05
0.00252524
-4.31424e-05
0.00254594
-6.25307e-05
0.00257371
-8.34743e-05
0.00260898
-0.000105358
0.00265176
-0.000126942
0.00270115
-0.000145619
0.00275521
-0.000158573
0.00281072
-0.000162484
0.00286373
-0.00015548
0.00291133
-0.000140108
0.0029514
-0.000118446
0.00298257
-9.27093e-05
0.00300425
-6.5281e-05
0.00301664
-3.85164e-05
0.00302088
-1.50769e-05
0.0030191
2.28884e-06
0.00301423
1.14688e-05
0.00300946
1.19599e-05
0.00300736
5.64703e-06
0.00300891
-3.09041e-06
0.00301286
-8.0899e-06
0.00301552
-2.93677e-06
0.00301154
1.66419e-05
0.00299563
5.01884e-05
0.0029648
9.1505e-05
0.0029197
0.000130763
0.00286456
0.000158297
0.00280594
0.000167312
0.0027515
0.000154612
0.00270887
0.000119964
0.00268508
6.52613e-05
0.00268594
-5.62715e-06
0.00271521
-8.61676e-05
0.00277305
-0.000165527
0.00285374
-0.000227408
0.00294408
-0.000252041
0.00302484
-0.000224418
0.00307697
-0.000145654
0.0030894
-3.66109e-05
0.00306257
7.2493e-05
0.003006
0.000157148
0.00293278
0.000206641
0.00285507
0.000222037
0.00278225
0.000210242
0.00272066
0.00017929
0.00267427
0.000136147
0.00264518
8.64295e-05
0.00263397
3.50441e-05
0.00263951
-1.29979e-05
0.0026588
-5.21702e-05
0.00268681
-7.70752e-05
0.00271714
-8.40076e-05
0.00274321
-7.26288e-05
0.00275981
-4.663e-05
0.00276418
-1.27033e-05
0.00275632
2.17051e-05
0.00273836
5.0599e-05
0.00271357
7.06141e-05
0.00268541
8.09543e-05
0.00265691
8.26139e-05
0.00263038
7.74791e-05
0.00260739
6.7649e-05
0.00258883
5.50533e-05
0.00257503
4.1305e-05
0.00256593
2.76874e-05
0.00256111
1.51973e-05
0.00255991
4.59131e-06
0.00256148
-3.58811e-06
0.00256487
-9.01875e-06
0.00256911
-1.16252e-05
0.00257328
-1.1599e-05
0.00257662
-9.38512e-06
0.00257861
-5.62294e-06
0.00257898
-1.0483e-06
0.0025777
3.61947e-06
0.00257498
7.77831e-06
0.00257115
1.10091e-05
0.00256662
1.30969e-05
0.00256179
1.40134e-05
0.00255704
1.38754e-05
0.00255265
1.28938e-05
0.00254882
1.13243e-05
0.00254565
9.42776e-06
0.00254318
7.4414e-06
0.00254135
5.56141e-06
0.00254009
3.93416e-06
0.00253925
2.6542e-06
0.00253872
1.76667e-06
0.00253834
1.273e-06
0.002538
1.13878e-06
0.00253759
1.3029e-06
0.00253705
1.68763e-06
0.00253632
2.20862e-06
0.00253538
2.78413e-06
0.00253425
3.34253e-06
0.00253295
3.82775e-06
0.00253153
4.20201e-06
0.00253002
4.44626e-06
0.00252848
4.5584e-06
0.00252694
4.55015e-06
0.00252544
4.443e-06
0.00252401
4.26398e-06
0.00252265
4.04182e-06
0.00252138
3.80368e-06
0.00252019
3.5728e-06
0.00251906
3.36708e-06
0.002518
3.19841e-06
0.00251697
3.07286e-06
0.00251597
2.99123e-06
0.00251499
2.95011e-06
0.002514
2.94301e-06
0.00251301
2.96161e-06
0.002512
2.99683e-06
0.00251098
3.03989e-06
0.00250994
3.08302e-06
0.00250889
3.11999e-06
0.00250783
3.14643e-06
0.00250677
3.1598e-06
0.0025057
3.15931e-06
0.00250464
3.14555e-06
0.00250359
3.12012e-06
0.00250254
3.08516e-06
0.00250151
3.04294e-06
0.0025005
2.99549e-06
0.0024995
2.94434e-06
0.00249852
2.89032e-06
0.00249756
2.83354e-06
0.00249662
2.77338e-06
0.0024957
2.70863e-06
0.00249479
2.63764e-06
0.00249392
2.55847e-06
0.00249307
2.46879e-06
0.00249225
2.36559e-06
0.00249148
2.24441e-06
0.00249075
2.09812e-06
0.00249007
1.91558e-06
0.00248948
1.68067e-06
0.00248898
1.37235e-06
0.00248861
9.66805e-07
0.0024884
4.42052e-07
0.0024884
-2.15121e-07
0.00248865
-1.0008e-06
0.00248919
-1.88643e-06
0.00249001
-2.81452e-06
0.00249112
-3.70053e-06
0.00249247
-4.44175e-06
0.00249397
-4.93382e-06
0.00249553
-5.09082e-06
0.00249701
-4.86636e-06
0.00249831
-4.26758e-06
0.00249933
-3.36052e-06
0.0025
-2.26274e-06
0.0025003
-1.11845e-06
0.00250028
-8.88978e-08
0.00250001
7.2565e-07
0.0024996
1.17698e-06
0.00249911
1.43227e-06
9.86452e-07
0.00250266
-1.10105e-05
0.00251072
-3.32667e-05
0.00252462
-5.70422e-05
0.00254501
-8.29174e-05
0.00257264
-0.000111106
0.00260814
-0.000140856
0.00265175
-0.000170553
0.00270267
-0.000196547
0.00275899
-0.00021489
0.00281702
-0.000220516
0.00287219
-0.000210645
0.00292144
-0.000189361
0.00296259
-0.000159594
0.00299423
-0.000124355
0.00301577
-8.68211e-05
0.00302737
-5.01109e-05
0.00303016
-1.78713e-05
0.00302647
5.98338e-06
0.00301962
1.83183e-05
0.00301335
1.82264e-05
0.00301079
8.20934e-06
0.00301331
-5.60943e-06
0.00301964
-1.44219e-05
0.00302555
-8.84436e-06
0.00302459
1.76042e-05
0.00301025
6.45236e-05
0.00297877
0.000122984
0.00293081
0.000178727
0.00287116
0.000217944
0.00280725
0.000231227
0.00274744
0.000214414
0.0027
0.000167407
0.0026725
9.27591e-05
0.0026715
-4.61969e-06
0.00270176
-0.000116428
0.0027645
-0.000228271
0.00285438
-0.000317289
0.00295674
-0.000354396
0.00304884
-0.000316526
0.00310769
-0.000204496
0.0031202
-4.91252e-05
0.00308784
0.000104851
0.00302295
0.000222044
0.00294129
0.000288301
0.00285662
0.000306707
0.00277877
0.000288092
0.00271398
0.000244082
0.00266592
0.000184201
0.00263655
0.000115801
0.0026264
4.51986e-05
0.00263439
-2.09894e-05
0.00265736
-7.51404e-05
0.00268983
-0.000109544
0.00272458
-0.000118757
0.00275413
-0.000102179
0.00277259
-6.5096e-05
0.00277706
-1.71688e-05
0.00276783
3.09365e-05
0.00274763
7.0795e-05
0.00272036
9.78882e-05
0.00268992
0.000111387
0.00265961
0.000112925
0.00263182
0.000105274
0.00260807
9.13932e-05
0.0025892
7.3929e-05
0.00257545
5.50512e-05
0.00256667
3.64651e-05
0.00256238
1.94876e-05
0.00256185
5.12124e-06
0.00256417
-5.9091e-06
0.00256832
-1.31676e-05
0.00257325
-1.65515e-05
0.00257798
-1.63264e-05
0.0025817
-1.31118e-05
0.00258388
-7.79886e-06
0.00258424
-1.41179e-06
0.00258281
5.05238e-06
0.00257982
1.0766e-05
0.00257567
1.51615e-05
0.00257081
1.79581e-05
0.00256569
1.91337e-05
0.0025607
1.88638e-05
0.00255615
1.74491e-05
0.00255222
1.52473e-05
0.00254903
1.26184e-05
0.00254659
9.88652e-06
0.00254483
7.31753e-06
0.00254366
5.10783e-06
0.00254293
3.38259e-06
0.0025425
2.19959e-06
0.00254221
1.55725e-06
0.00254194
1.40553e-06
0.00254159
1.65854e-06
0.00254107
2.20826e-06
0.00254034
2.93827e-06
0.00253939
3.73635e-06
0.00253822
4.50481e-06
0.00253688
5.16772e-06
0.00253541
5.67462e-06
0.00253386
6.00088e-06
0.00253227
6.14512e-06
0.0025307
6.1247e-06
0.00252917
5.97009e-06
0.00252771
5.71907e-06
0.00252634
5.41132e-06
0.00252506
5.0841e-06
0.00252387
4.76903e-06
0.00252274
4.49023e-06
0.00252168
4.26353e-06
0.00252066
4.09667e-06
0.00251966
3.99031e-06
0.00251867
3.93934e-06
0.00251768
3.93457e-06
0.00251667
3.96435e-06
0.00251565
4.01619e-06
0.00251461
4.07801e-06
0.00251356
4.13925e-06
0.00251249
4.19152e-06
0.0025114
4.22897e-06
0.00251032
4.24834e-06
0.00250923
4.24873e-06
0.00250814
4.23112e-06
0.00250706
4.19785e-06
0.002506
4.15198e-06
0.00250494
4.09668e-06
0.0025039
4.0348e-06
0.00250288
3.96845e-06
0.00250187
3.8988e-06
0.00250088
3.826e-06
0.0024999
3.74921e-06
0.00249894
3.6668e-06
0.00249801
3.5765e-06
0.00249709
3.4756e-06
0.0024962
3.36091e-06
0.00249533
3.22838e-06
0.00249451
3.07209e-06
0.00249372
2.88282e-06
0.00249299
2.64633e-06
0.00249233
2.34207e-06
0.00249176
1.94327e-06
0.00249131
1.41958e-06
0.002491
7.42874e-07
0.00249089
-1.03867e-07
0.00249101
-1.11586e-06
0.00249138
-2.25673e-06
0.00249202
-3.45292e-06
0.00249291
-4.5958e-06
0.00249402
-5.55308e-06
0.00249528
-6.18998e-06
0.00249658
-6.39519e-06
0.00249783
-6.10847e-06
0.0024989
-5.33871e-06
0.00249971
-4.17164e-06
0.00250021
-2.75942e-06
0.00250038
-1.29027e-06
0.00250026
2.73942e-08
0.00249993
1.06129e-06
0.00249948
1.62091e-06
0.00249899
1.92669e-06
1.29995e-06
0.00250255
-1.35599e-05
0.00251028
-4.09985e-05
0.00252372
-7.04762e-05
0.00254363
-0.000102834
0.002571
-0.000138473
0.00260673
-0.000176584
0.0026514
-0.000215221
0.00270441
-0.000249558
0.00276387
-0.000274349
0.00282542
-0.000282075
0.00288356
-0.000268779
0.00293504
-0.000240843
0.00297763
-0.000202182
0.00300991
-0.000156641
0.00303127
-0.000108174
0.00304177
-6.06097e-05
0.00304255
-1.86597e-05
0.00303617
1.23639e-05
0.0030265
2.79915e-05
0.00301806
2.66713e-05
0.00301478
1.14885e-05
0.00301861
-9.44613e-06
0.00302833
-2.41414e-05
0.00303893
-1.94379e-05
0.00304238
1.41455e-05
0.00303041
7.65027e-05
0.00299809
0.000155305
0.00294611
0.000230708
0.00288018
0.000283871
0.00280891
0.00030249
0.00274172
0.000281607
0.00268761
0.000221517
0.00265488
0.000125494
0.00265102
-7.61861e-07
0.00268225
-0.000147662
0.00275149
-0.000297509
0.0028542
-0.00042
0.00297376
-0.000473958
0.00308223
-0.000424989
0.00315063
-0.000272898
0.00316303
-6.15232e-05
0.00312249
0.000145386
0.00304561
0.000298923
0.0029521
0.000381813
0.00285787
0.00040094
0.00277328
0.000372685
0.00270426
0.000313094
0.00265406
0.000234407
0.00262434
0.000145516
0.00261565
5.38924e-05
0.002627
-3.23372e-05
0.00265508
-0.000103223
0.00269378
-0.000148241
0.00273473
-0.00015971
0.00276915
-0.000136596
0.00279018
-8.61324e-05
0.00279468
-2.16669e-05
0.00278342
4.21932e-05
0.00276003
9.41929e-05
0.00272926
0.000128656
0.00269568
0.000144968
0.0026629
0.000145707
0.0026334
0.000134772
0.00260867
0.000116125
0.00258941
9.31886e-05
0.00257576
6.86991e-05
0.00256745
4.47722e-05
0.00256391
2.30312e-05
0.00256431
4.71596e-06
0.00256767
-9.26519e-06
0.00257286
-1.83566e-05
0.00257873
-2.24256e-05
0.00258423
-2.18207e-05
0.00258847
-1.73598e-05
0.0025909
-1.02218e-05
0.00259124
-1.75948e-06
0.00258958
6.7174e-06
0.00258621
1.41332e-05
0.00258161
1.97655e-05
0.00257629
2.32742e-05
0.00257077
2.46588e-05
0.00256546
2.41728e-05
0.00256068
2.22251e-05
0.00255664
1.92901e-05
0.00255342
1.58378e-05
0.00255102
1.22863e-05
0.00254936
8.97422e-06
0.00254832
6.14861e-06
0.00254774
3.96412e-06
0.00254745
2.48866e-06
0.00254729
1.71432e-06
0.00254713
1.57157e-06
0.00254684
1.94566e-06
0.00254636
2.69429e-06
0.00254563
3.66544e-06
0.00254465
4.71359e-06
0.00254344
5.71306e-06
0.00254204
6.56716e-06
0.00254051
7.21281e-06
0.00253889
7.62059e-06
0.00253724
7.79124e-06
0.00253561
7.74941e-06
0.00253405
7.53627e-06
0.00253257
7.20184e-06
0.00253118
6.79805e-06
0.00252989
6.37312e-06
0.00252869
5.96761e-06
0.00252757
5.61202e-06
0.00252651
5.32599e-06
0.00252549
5.11868e-06
0.00252449
4.99011e-06
0.00252349
4.93298e-06
0.00252249
4.93487e-06
0.00252148
4.98039e-06
0.00252044
5.05318e-06
0.00251938
5.13763e-06
0.0025183
5.22018e-06
0.0025172
5.29021e-06
0.00251609
5.34045e-06
0.00251497
5.36699e-06
0.00251385
5.36897e-06
0.00251273
5.34797e-06
0.00251162
5.30726e-06
0.00251052
5.25095e-06
0.00250944
5.18331e-06
0.00250836
5.10808e-06
0.0025073
5.02801e-06
0.00250626
4.94466e-06
0.00250523
4.85822e-06
0.00250421
4.76763e-06
0.0025032
4.67079e-06
0.00250222
4.56474e-06
0.00250125
4.44598e-06
0.0025003
4.31035e-06
0.00249937
4.15267e-06
0.00249848
3.96561e-06
0.00249762
3.73803e-06
0.00249682
3.45299e-06
0.00249607
3.08622e-06
0.00249541
2.60622e-06
0.00249485
1.97725e-06
0.00249443
1.16617e-06
0.00249417
1.52867e-07
0.00249411
-1.05697e-06
0.00249428
-2.4202e-06
0.00249467
-3.84933e-06
0.00249529
-5.2149e-06
0.0024961
-6.35892e-06
0.00249703
-7.1202e-06
0.002498
-7.36537e-06
0.00249891
-7.02244e-06
0.00249968
-6.10224e-06
0.00250021
-4.70881e-06
0.00250048
-3.02535e-06
0.00250047
-1.28065e-06
0.00250022
2.75782e-07
0.0024998
1.48094e-06
0.00249931
2.10988e-06
0.00249881
2.43199e-06
1.59663e-06
0.0025024
-1.59559e-05
0.00250968
-4.82852e-05
0.00252247
-8.32603e-05
0.0025417
-0.000122064
0.0025686
-0.000165381
0.00260449
-0.000212467
0.0026504
-0.000261131
0.00270606
-0.000305216
0.00276969
-0.000337982
0.00283594
-0.000348328
0.00289792
-0.000330758
0.00295223
-0.000295153
0.00299663
-0.000246584
0.00302974
-0.000189749
0.00305088
-0.00012931
0.00305997
-6.97059e-05
0.00305812
-1.68021e-05
0.00304811
2.2365e-05
0.00303456
4.15432e-05
0.00302305
3.81833e-05
0.00301866
1.58831e-05
0.00302417
-1.49595e-05
0.00303848
-3.84537e-05
0.00305558
-3.65321e-05
0.00306526
4.45971e-06
0.00305668
8.5085e-05
0.00302334
0.000188643
0.00296603
0.000288022
0.00289179
0.000358112
0.00281088
0.000383391
0.00273406
0.000358429
0.00267123
0.000284349
0.00263147
0.000165257
0.00262339
7.31169e-06
0.00265518
-0.000179452
0.00273271
-0.000375031
0.00285339
-0.000540681
0.00299756
-0.00061813
0.00312869
-0.000556123
0.0032092
-0.000353408
0.00322006
-7.23773e-05
0.0031674
0.00019804
0.00307394
0.000392382
0.00296467
0.000491082
0.00285815
0.000507463
0.00276515
0.000465685
0.002691
0.000387247
0.0026382
0.000287203
0.00260808
0.000175634
0.00260123
6.07486e-05
0.00261688
-4.79881e-05
0.00265165
-0.000137995
0.00269862
-0.000195211
0.00274786
-0.000208951
0.00278874
-0.000177477
0.00281309
-0.000110478
0.00281745
-2.60262e-05
0.00280332
5.63215e-05
0.00277556
0.00012195
0.00274015
0.000164066
0.00270248
0.000182642
0.00266655
0.000181636
0.00263493
0.000166394
0.002609
0.000142053
0.00258931
0.000112878
0.00257583
8.21742e-05
0.00256816
5.2445e-05
0.0025656
2.55978e-05
0.00256721
3.09818e-06
0.00257191
-1.39595e-05
0.00257844
-2.48893e-05
0.00258554
-2.95228e-05
0.00259202
-2.83013e-05
0.00259693
-2.2272e-05
0.00259966
-1.29494e-05
0.00259997
-2.06899e-06
0.00259798
8.70056e-06
0.00259411
1.80065e-05
0.00258891
2.49634e-05
0.002583
2.91822e-05
0.00257696
3.07056e-05
0.00257124
2.98905e-05
0.00256619
2.72778e-05
0.002562
2.34784e-05
0.00255875
1.9086e-05
0.00255642
1.46206e-05
0.00255489
1.04972e-05
0.00255403
7.01443e-06
0.00255364
4.35442e-06
0.00255353
2.5919e-06
0.00255354
1.70821e-06
0.0025535
1.60938e-06
0.0025533
2.14652e-06
0.00255286
3.13799e-06
0.00255213
4.39159e-06
0.00255112
5.72493e-06
0.00254985
6.98192e-06
0.00254837
8.04404e-06
0.00254675
8.83569e-06
0.00254505
9.32384e-06
0.00254333
9.51312e-06
0.00254164
9.43767e-06
0.00254002
9.15156e-06
0.00253851
8.71902e-06
0.0025371
8.20582e-06
0.0025358
7.67228e-06
0.0025346
7.1685e-06
0.00253348
6.73157e-06
0.00253242
6.38479e-06
0.0025314
6.1383e-06
0.0025304
5.99089e-06
0.0025294
5.9324e-06
0.00252839
5.94654e-06
0.00252736
6.01355e-06
0.0025263
6.11276e-06
0.00252521
6.22465e-06
0.0025241
6.33246e-06
0.00252296
6.42326e-06
0.00252182
6.48837e-06
0.00252066
6.52341e-06
0.0025195
6.52777e-06
0.00251834
6.50384e-06
0.0025172
6.45604e-06
0.00251606
6.38981e-06
0.00251493
6.31063e-06
0.00251381
6.22327e-06
0.00251271
6.13124e-06
0.00251162
6.03647e-06
0.00251054
5.93924e-06
0.00250947
5.83824e-06
0.00250841
5.73084e-06
0.00250736
5.61339e-06
0.00250632
5.48145e-06
0.0025053
5.32984e-06
0.0025043
5.15216e-06
0.00250333
4.93969e-06
0.00250239
4.67955e-06
0.00250149
4.35254e-06
0.00250064
3.93144e-06
0.00249987
3.38117e-06
0.00249918
2.66201e-06
0.00249861
1.73718e-06
0.00249818
5.84529e-07
0.00249791
-7.89144e-07
0.00249783
-2.33488e-06
0.00249793
-3.95367e-06
0.00249822
-5.49907e-06
0.00249865
-6.79221e-06
0.00249918
-7.65062e-06
0.00249974
-7.92337e-06
0.00250025
-7.52969e-06
0.00250063
-6.48305e-06
0.00250082
-4.90431e-06
0.0025008
-3.00333e-06
0.00250056
-1.04509e-06
0.00250015
6.87618e-07
0.00249963
2.0028e-06
0.00249909
2.65193e-06
0.00249857
2.94606e-06
1.86947e-06
0.00250219
-1.81501e-05
0.00250889
-5.49842e-05
0.0025208
-9.51654e-05
0.00253905
-0.000140317
0.00256521
-0.000191537
0.00260107
-0.000248328
0.00264833
-0.000308389
0.00270722
-0.000364108
0.00277625
-0.000407019
0.0028486
-0.000420671
0.00291538
-0.000397539
0.00297313
-0.000352899
0.00301969
-0.000293149
0.00305378
-0.000223842
0.00307468
-0.000150202
0.00308206
-7.70916e-05
0.00307687
-1.16097e-05
0.00306218
3.70538e-05
0.00304349
6.02369e-05
0.00302779
5.38814e-05
0.00302171
2.19613e-05
0.00302925
-2.24953e-05
0.00304958
-5.87912e-05
0.00307545
-6.23994e-05
0.00309369
-1.37819e-05
0.00308989
8.88852e-05
0.00305538
0.000223155
0.00299116
0.000352244
0.00290621
0.000443064
0.00281305
0.000476546
0.00272411
0.000447373
0.00265027
0.000358189
0.00260135
0.000214178
0.00258713
2.1526e-05
0.0026188
-0.000211118
0.00270742
-0.000463651
0.00285363
-0.000686889
0.0030329
-0.000797398
0.00319541
-0.000718635
0.00329051
-0.000448508
0.00329601
-7.78813e-05
0.00322448
0.000269572
0.00310789
0.000508974
0.0029781
0.000620871
0.00285642
0.000629138
0.00275351
0.000568602
0.00267346
0.000467287
0.00261773
0.000342941
0.00258714
0.000206222
0.00258246
6.54257e-05
0.00260345
-6.89785e-05
0.00264686
-0.000181405
0.00270476
-0.000253107
0.00276493
-0.000269123
0.0028141
-0.000226646
0.00284235
-0.000138729
0.00284605
-2.97296e-05
0.00282783
7.45463e-05
0.00279424
0.000155534
0.00275285
0.000205465
0.00271004
0.000225452
0.00267026
0.000221407
0.00263613
0.000200532
0.00260884
0.000169344
0.00258871
0.000133003
0.00257552
9.53682e-05
0.00256867
5.92927e-05
0.00256733
2.69341e-05
0.00257046
-3.1719e-08
0.00257682
-2.03192e-05
0.00258503
-3.30946e-05
0.00259365
-3.81414e-05
0.00260135
-3.60037e-05
0.00260707
-2.7997e-05
0.00261016
-1.60344e-05
0.00261039
-2.30379e-06
0.00260799
1.1107e-05
0.00260346
2.25319e-05
0.00259751
3.09144e-05
0.00259086
3.58317e-05
0.00258417
3.73982e-05
0.00257795
3.61072e-05
0.00257257
3.26624e-05
0.00256821
2.78348e-05
0.00256494
2.23583e-05
0.00256269
1.68641e-05
0.00256134
1.18482e-05
0.0025607
7.66012e-06
0.00256055
4.50723e-06
0.00256067
2.46663e-06
0.00256088
1.50336e-06
0.00256099
1.49277e-06
0.00256089
2.24541e-06
0.0025605
3.53402e-06
0.00255977
5.12074e-06
0.00255871
6.78197e-06
0.00255736
8.32838e-06
0.00255579
9.61838e-06
0.00255406
1.05641e-05
0.00255226
1.11304e-05
0.00255044
1.13282e-05
0.00254867
1.12038e-05
0.002547
1.08268e-05
0.00254544
1.02782e-05
0.00254401
9.63937e-06
0.00254269
8.98417e-06
0.00254149
8.3729e-06
0.00254037
7.84945e-06
0.00253932
7.44049e-06
0.0025383
7.1566e-06
0.00253729
6.99458e-06
0.00253629
6.94063e-06
0.00253526
6.97375e-06
0.0025342
7.06914e-06
0.00253311
7.2012e-06
0.00253199
7.34612e-06
0.00253084
7.48372e-06
0.00252967
7.59864e-06
0.00252847
7.68093e-06
0.00252727
7.72585e-06
0.00252607
7.73331e-06
0.00252486
7.70681e-06
0.00252367
7.65221e-06
0.00252248
7.57649e-06
0.0025213
7.48657e-06
0.00252014
7.38838e-06
0.00251898
7.28628e-06
0.00251784
7.18262e-06
0.0025167
7.07776e-06
0.00251557
6.97014e-06
0.00251444
6.85657e-06
0.00251332
6.73261e-06
0.00251221
6.59284e-06
0.00251111
6.43096e-06
0.00251002
6.2393e-06
0.00250895
6.00773e-06
0.00250791
5.7218e-06
0.0025069
5.36049e-06
0.00250594
4.89452e-06
0.00250504
4.28642e-06
0.0025042
3.49407e-06
0.00250346
2.4787e-06
0.00250283
1.21745e-06
0.00250232
-2.8131e-07
0.00250195
-1.96367e-06
0.00250172
-3.72168e-06
0.00250162
-5.39621e-06
0.00250162
-6.79318e-06
0.00250168
-7.71508e-06
0.00250176
-7.99907e-06
0.00250179
-7.55958e-06
0.00250172
-6.41384e-06
0.00250151
-4.69801e-06
0.00250115
-2.64348e-06
0.00250065
-5.45979e-07
0.00250005
1.28799e-06
0.00249942
2.6396e-06
0.00249882
3.25074e-06
0.0024983
3.46316e-06
2.11028e-06
0.00250194
-2.00857e-05
0.00250788
-6.09256e-05
0.00251862
-0.00010591
0.00253552
-0.00015722
0.00256051
-0.00021652
0.00259602
-0.000283841
0.00264461
-0.000356978
0.00270733
-0.000426834
0.00278329
-0.000482979
0.00286344
-0.000500813
0.00293607
-0.000470175
0.00299787
-0.000414695
0.00304696
-0.00034224
0.00308224
-0.000259127
0.00310292
-0.000170874
0.00310827
-8.24405e-05
0.0030989
-2.2443e-06
0.00307817
5.77867e-05
0.00305269
8.5718e-05
0.00303129
7.52726e-05
0.00302269
3.05633e-05
0.00303258
-3.23845e-05
0.00306074
-8.6947e-05
0.00309836
-0.000100027
0.00312829
-4.37051e-05
0.00313112
8.60487e-05
0.00309526
0.000259023
0.00302218
0.000425323
0.00292365
0.00054159
0.00281525
0.000584944
0.00271144
0.000551183
0.00262407
0.000445559
0.0025634
0.000274855
0.00254071
4.42077e-05
0.00257198
-0.000242381
0.00267308
-0.000564757
0.00284495
-0.000858755
0.00306154
-0.00101399
0.00326571
-0.000922797
0.00338792
-0.000570719
0.00339194
-8.1905e-05
0.00329602
0.000365492
0.00314792
0.000657071
0.00299135
0.000777447
0.00285128
0.00076921
0.00273715
0.000682728
0.00265077
0.000553671
0.00259187
0.000401832
0.00256073
0.00023737
0.00255854
6.76125e-05
0.00258615
-9.65882e-05
0.00264081
-0.000236061
0.00271316
-0.000325457
0.00278761
-0.000343573
0.00284711
-0.000286151
0.00287957
-0.000171189
0.00288152
-3.16759e-05
0.00285737
9.86888e-05
0.00281604
0.000196867
0.00276704
0.000254468
0.00271795
0.00027454
0.00267364
0.000265714
0.00263664
0.000237535
0.00260788
0.000198106
0.00258736
0.000153516
0.0025746
0.000108129
0.00256881
6.50893e-05
0.00256898
2.67567e-05
0.00257395
-5.0027e-06
0.00258234
-2.87011e-05
0.00259257
-4.33291e-05
0.00260303
-4.86012e-05
0.0026122
-4.51741e-05
0.00261889
-3.46816e-05
0.00262237
-1.95159e-05
0.00262247
-2.40698e-06
0.00261951
1.40644e-05
0.00261417
2.78765e-05
0.00260729
3.77945e-05
0.00259974
4.33829e-05
0.00259227
4.48655e-05
0.00258546
4.29135e-05
0.0025797
3.84308e-05
0.00257515
3.23771e-05
0.00257187
2.56454e-05
0.00256974
1.89886e-05
0.0025686
1.29871e-05
0.00256822
8.04112e-06
0.00256835
4.37911e-06
0.00256874
2.07481e-06
0.00256917
1.07004e-06
0.00256947
1.20195e-06
0.00256948
2.23292e-06
0.00256913
3.88283e-06
0.00256839
5.86184e-06
0.00256727
7.90024e-06
0.00256583
9.77234e-06
0.00256413
1.13122e-05
0.00256228
1.24203e-05
0.00256035
1.30613e-05
0.00255842
1.3255e-05
0.00255656
1.30632e-05
0.00255481
1.25744e-05
0.0025532
1.18888e-05
0.00255173
1.11059e-05
0.0025504
1.03144e-05
0.00254919
9.58541e-06
0.00254807
8.96989e-06
0.00254701
8.49748e-06
0.00254599
8.17848e-06
0.00254498
8.00683e-06
0.00254396
7.96411e-06
0.00254291
8.02372e-06
0.00254182
8.15502e-06
0.00254069
8.32688e-06
0.00253953
8.51077e-06
0.00253833
8.68282e-06
0.0025371
8.82526e-06
0.00253586
8.92692e-06
0.0025346
8.98295e-06
0.00253334
8.99406e-06
0.00253208
8.96515e-06
0.00253083
8.90384e-06
0.00252959
8.81891e-06
0.00252836
8.71891e-06
0.00252713
8.61112e-06
0.00252592
8.50079e-06
0.00252471
8.39078e-06
0.00252351
8.28151e-06
0.00252231
8.17116e-06
0.00252111
8.05596e-06
0.00251991
7.93063e-06
0.00251871
7.78874e-06
0.00251752
7.62275e-06
0.00251634
7.42369e-06
0.00251516
7.18004e-06
0.00251401
6.87595e-06
0.00251288
6.48905e-06
0.00251179
5.9888e-06
0.00251074
5.33665e-06
0.00250974
4.48973e-06
0.00250881
3.40913e-06
0.00250796
2.07279e-06
0.00250718
4.91366e-07
0.0025065
-1.27706e-06
0.00250589
-3.11821e-06
0.00250536
-4.86496e-06
0.00250488
-6.31441e-06
0.00250443
-7.26117e-06
0.00250397
-7.53714e-06
0.00250346
-7.05679e-06
0.00250289
-5.84275e-06
0.00250224