/*--------------------------------*- C++ -*----------------------------------*\
  =========                 |
  \\      /  F ield         | OpenFOAM: The Open Source CFD Toolbox
   \\    /   O peration     | Website:  https://openfoam.org
    \\  /    A nd           | Version:  11
     \\/     M anipulation  |
\*---------------------------------------------------------------------------*/
FoamFile
{
    format      ascii;
    class       surfaceScalarField;
    location    "17.242547";
    object      phi;
}
// * * * * * * * * * * * * * * * * * * * * * * * * * * * * * * * * * * * * * //

dimensions      [0 3 -1 0 0 0 0];

internalField   nonuniform List<scalar> 
14638
(
0.00250273
-2.72897e-06
0.00251092
-8.19101e-06
0.0025246
-1.36769e-05
0.00254366
-1.90592e-05
0.00256779
-2.41348e-05
0.00259632
-2.85285e-05
0.00262801
-3.1694e-05
0.00266088
-3.28617e-05
0.0026921
-3.12298e-05
0.00271851
-2.64053e-05
0.00273695
-1.84426e-05
0.00274636
-9.41179e-06
0.00274759
-1.22625e-06
0.00274347
4.11795e-06
0.00273833
5.14402e-06
0.00273621
2.12204e-06
0.00273929
-3.085e-06
0.0027468
-7.51008e-06
0.00275474
-7.93994e-06
0.00275714
-2.39736e-06
0.00274859
8.54543e-06
0.00272659
2.20018e-05
0.00269223
3.43589e-05
0.0026495
4.27363e-05
0.00260403
4.54643e-05
0.00256215
4.1885e-05
0.00253013
3.20174e-05
0.00251366
1.64659e-05
0.002517
-3.33172e-06
0.00254155
-2.45514e-05
0.00258411
-4.25583e-05
0.00263588
-5.17754e-05
0.00268409
-4.82102e-05
0.00271619
-3.2097e-05
0.00272443
-8.24034e-06
0.00270795
1.64807e-05
0.00267164
3.63072e-05
0.0026234
4.82456e-05
0.00257174
5.16524e-05
0.00252476
4.69849e-05
0.00248991
3.48521e-05
0.00247401
1.58938e-05
0.0024825
-8.4893e-06
0.00251738
-3.48743e-05
0.00257457
-5.71896e-05
0.00264277
-6.82051e-05
0.00270579
-6.30157e-05
0.00274798
-4.21938e-05
0.00275996
-1.19817e-05
0.00274116
1.88001e-05
0.0026984
4.27583e-05
0.00264213
5.62692e-05
0.002583
5.91377e-05
0.00253021
5.27892e-05
0.00249157
3.86382e-05
0.00247391
1.76554e-05
0.00248262
-8.70438e-06
0.00251955
-3.69275e-05
0.00258036
-6.08133e-05
0.00265341
-7.30513e-05
0.00272198
-6.85654e-05
0.00276948
-4.75046e-05
0.00278519
-1.57083e-05
0.0027674
1.77912e-05
0.00272282
4.45784e-05
0.00266301
5.9804e-05
0.00260028
6.27395e-05
0.00254503
5.52466e-05
0.00250535
3.96817e-05
0.00248751
1.78327e-05
0.00249596
-8.44157e-06
0.00253164
-3.56823e-05
0.00258991
-5.82732e-05
0.00265982
-6.99054e-05
0.00272617
-6.63496e-05
0.00277386
-4.76962e-05
0.0027925
-1.86333e-05
0.00277922
1.32808e-05
0.0027389
4.03144e-05
0.00268187
5.70334e-05
0.0026204
6.14642e-05
0.00256579
5.46098e-05
0.0025269
3.88954e-05
0.00251001
1.6885e-05
0.00251869
-8.67333e-06
0.0025526
-3.39132e-05
0.00260627
-5.36658e-05
0.00266912
-6.28549e-05
0.00272779
-5.86712e-05
0.00276975
-4.19597e-05
0.0027867
-1.69448e-05
0.00277636
1.03318e-05
0.00274247
3.38987e-05
0.00269313
4.93348e-05
0.00263868
5.44534e-05
0.00258946
4.92151e-05
0.00255435
3.51163e-05
0.00253975
1.45991e-05
0.00254877
-9.02622e-06
0.0025802
-3.14227e-05
0.00262791
-4.77184e-05
0.00268183
-5.39179e-05
0.00273032
-4.8488e-05
0.00276335
-3.30299e-05
0.00277496
-1.16113e-05
0.00276422
1.07371e-05
0.00273471
2.95183e-05
0.00269305
4.16535e-05
0.00264743
4.56238e-05
0.00260622
4.12126e-05
0.00257697
2.92456e-05
0.0025654
1.15741e-05
0.00257416
-8.76296e-06
0.00260181
-2.76514e-05
0.00264255
-4.0735e-05
0.00268735
-4.48053e-05
0.00272637
-3.90172e-05
0.00275156
-2.51882e-05
0.00275858
-7.02687e-06
0.00274737
1.12178e-05
0.00272136
2.60019e-05
0.00268625
3.51158e-05
0.00264863
3.76172e-05
0.00261518
3.34475e-05
0.00259198
2.3204e-05
0.00258368
8.29512e-06
0.00259244
-8.75514e-06
0.00261684
-2.44045e-05
0.00265176
-3.49194e-05
0.00268941
-3.76443e-05
0.00272143
-3.20209e-05
0.0027412
-1.97739e-05
0.0027454
-4.19935e-06
0.00273438
1.10171e-05
0.0027115
2.2887e-05
0.00268183
2.96633e-05
0.00265109
3.07475e-05
0.00262482
2.62693e-05
0.00260801
1.68066e-05
0.0026045
3.51454e-06
0.00261603
-1.15355e-05
0.00264138
-2.53501e-05
0.00267605
-3.46713e-05
0.00271313
-3.7077e-05
0.00274505
-3.19221e-05
0.00276565
-2.06029e-05
0.00277169
-6.03757e-06
0.00276337
8.32595e-06
0.00274384
1.95306e-05
0.00271807
2.57677e-05
0.00269161
2.64603e-05
0.00266966
2.19485e-05
0.00265671
1.29501e-05
0.00265613
5.82811e-07
0.00267013
-1.40032e-05
0.00269835
-2.82197e-05
0.00273934
-4.09901e-05
0.0027864
-4.7065e-05
0.00283845
-5.20418e-05
-3.92608e-05
0.00250272
-5.44827e-06
0.00251089
-1.63603e-05
0.00252455
-2.73403e-05
0.00254365
-3.81524e-05
0.00256791
-4.84005e-05
0.00259672
-5.73405e-05
0.0026289
-6.3872e-05
0.00266244
-6.64009e-05
0.00269446
-6.32503e-05
0.00272156
-5.35097e-05
0.00274032
-3.7202e-05
0.00274958
-1.8669e-05
0.00275018
-1.82667e-06
0.00274513
9.17059e-06
0.00273909
1.11877e-05
0.00273646
4.74402e-06
0.00273971
-6.32879e-06
0.00274807
-1.58737e-05
0.00275728
-1.71522e-05
0.00276086
-5.97078e-06
0.00275291
1.64888e-05
0.00273074
4.41707e-05
0.00269555
6.95552e-05
0.00265154
8.67479e-05
0.00260458
9.24188e-05
0.00256116
8.5303e-05
0.00252773
6.54468e-05
0.00251021
3.3986e-05
0.00251321
-6.3258e-06
0.00253853
-4.98731e-05
0.00258311
-8.71334e-05
0.00263775
-0.000106417
0.00268879
-9.92491e-05
0.00272274
-6.6055e-05
0.00273141
-1.69102e-05
0.00271408
3.38193e-05
0.00267612
7.42595e-05
0.00262593
9.84402e-05
0.00257229
0.000105287
0.00252339
9.58911e-05
0.00248676
7.14756e-05
0.00246953
3.31321e-05
0.00247763
-1.65962e-05
0.00251365
-7.08939e-05
0.00257363
-0.000117164
0.00264559
-0.000140168
0.00271211
-0.000129534
0.00275641
-8.65001e-05
0.00276864
-2.42091e-05
0.00274849
3.8951e-05
0.00270349
8.77598e-05
0.00264477
0.000114991
0.00258334
0.000120566
0.00252849
0.00010764
0.00248799
7.91355e-05
0.00246881
3.68388e-05
0.00247671
-1.66106e-05
0.0025141
-7.43106e-05
0.00257692
-0.000123637
0.00265328
-0.00014941
0.00272556
-0.000140843
0.002776
-9.79491e-05
0.002793
-3.27038e-05
0.00277465
3.61352e-05
0.00272816
9.10752e-05
0.00266583
0.000122129
0.00260058
0.000127994
0.00254306
0.000112762
0.00250135
8.13894e-05
0.00248181
3.73784e-05
0.0024892
-1.58323e-05
0.00252497
-7.14532e-05
0.00258468
-0.000117986
0.00265707
-0.000142292
0.00272623
-0.000135506
0.00277629
-9.77606e-05
0.00279633
-3.86776e-05
0.00278333
2.62893e-05
0.00274226
8.13788e-05
0.00268376
0.000115538
0.00262044
0.000124784
0.00256387
0.000111178
0.00252317
7.95942e-05
0.00250499
3.50632e-05
0.00251333
-1.70164e-05
0.00254818
-6.87611e-05
0.00260389
-0.000109371
0.00266923
-0.000128198
0.00273002
-0.000119457
0.00277315
-8.50951e-05
0.00279023
-3.40207e-05
0.00277922
2.13365e-05
0.0027442
6.89235e-05
0.00269356
9.99715e-05
0.00263778
0.000110236
0.0025873
9.96895e-05
0.00255118
7.12402e-05
0.00253616
2.96159e-05
0.00254574
-1.85989e-05
0.00257879
-6.44791e-05
0.00262889
-9.78155e-05
0.00268521
-0.000110238
0.00273536
-9.86429e-05
0.00276889
-6.65524e-05
0.00277984
-2.25618e-05
0.00276765
2.29245e-05
0.00273637
6.07999e-05
0.00269303
8.49919e-05
0.00264602
9.26314e-05
0.00260384
8.33955e-05
0.00257416
5.89212e-05
0.0025629
2.28391e-05
0.00257288
-1.8742e-05
0.00260258
-5.73525e-05
0.00264577
-8.39243e-05
0.00269277
-9.18057e-05
0.00273311
-7.93546e-05
0.00275843
-5.05107e-05
0.00276448
-1.3076e-05
0.00275153
2.41693e-05
0.0027235
5.40328e-05
0.00268647
7.21458e-05
0.00264733
7.6749e-05
0.00261296
6.7822e-05
0.00258958
4.65857e-05
0.002582
1.58692e-05
0.00259242
-1.91703e-05
0.00261921
-5.11956e-05
0.00265674
-7.24491e-05
0.00269657
-7.74743e-05
0.00272981
-6.52568e-05
0.00274958
-3.95442e-05
0.00275265
-7.27171e-06
0.00273972
2.39427e-05
0.00271459
4.80237e-05
0.00268274
6.15054e-05
0.00265021
6.3281e-05
0.00262279
5.36856e-05
0.00260569
3.39083e-05
0.0026029
6.3029e-06
0.00261621
-2.4846e-05
0.00264415
-5.32869e-05
0.0026817
-7.22221e-05
0.00272129
-7.66665e-05
0.00275479
-6.54173e-05
0.00277572
-4.1539e-05
0.00278088
-1.11957e-05
0.00277074
1.84629e-05
0.00274888
4.13976e-05
0.00272066
5.39863e-05
0.00269197
5.51466e-05
0.00266828
4.56368e-05
0.0026543
2.69359e-05
0.00265359
1.28707e-06
0.00266851
-2.89207e-05
0.00269866
-5.83665e-05
0.00274224
-8.45759e-05
0.00279206
-9.6886e-05
0.00284672
-0.000106694
-7.94881e-05
0.0025027
-8.1473e-06
0.00251082
-2.44777e-05
0.00252444
-4.09657e-05
0.00254358
-5.72943e-05
0.00256809
-7.2904e-05
0.00259744
-8.66957e-05
0.00263057
-9.70046e-05
0.00266548
-0.000101303
0.00269912
-9.68916e-05
0.00272767
-8.20667e-05
0.00274711
-5.66376e-05
0.00275609
-2.76443e-05
0.00275544
-1.18514e-06
0.00274852
1.60915e-05
0.0027407
1.90085e-05
0.00273714
8.30294e-06
0.0027408
-9.98312e-06
0.00275096
-2.60409e-05
0.00276277
-2.89595e-05
0.00276864
-1.18339e-05
0.00276169
2.34323e-05
0.00273889
6.69732e-05
0.00270172
0.000106728
0.00265494
0.000133529
0.00260492
0.000142439
0.00255849
0.000131725
0.00252244
0.000101498
0.00250313
5.32976e-05
0.00250584
-9.03342e-06
0.00253311
-7.71491e-05
0.00258211
-0.000136129
0.00264276
-0.000167067
0.00269949
-0.000155982
0.00273688
-0.000103439
0.00274581
-2.58426e-05
0.00272604
5.35904e-05
0.00268418
0.000116122
0.0026297
0.000152912
0.00257201
0.000162982
0.00251943
0.000148474
0.00247964
0.000111261
0.00246025
5.2526e-05
0.00246817
-2.45149e-05
0.00250697
-0.0001097
0.0025729
-0.000183092
0.00265269
-0.000219958
0.00272637
-0.000203216
0.00277469
-0.000134816
0.00278673
-3.6251e-05
0.00276294
6.27387e-05
0.00271259
0.000138109
0.00264843
0.000179154
0.00258229
0.000186704
0.00252353
0.000166407
0.00247967
0.000122996
0.00245767
5.88401e-05
0.00246386
-2.28025e-05
0.00250164
-0.000112096
0.00256779
-0.000189788
0.00265019
-0.000231802
0.00272967
-0.000220326
0.0027862
-0.00015448
0.0028062
-5.27039e-05
0.00278711
5.52216e-05
0.00273694
0.000141244
0.00266961
0.000189467
0.00259937
0.000198228
0.00253752
0.00017461
0.0024922
0.000126716
0.00246995
5.96216e-05
0.00247631
-2.21853e-05
0.00251354
-0.000108686
0.00257726
-0.000181708
0.00265508
-0.000220113
0.00272939
-0.000209811
0.00278295
-0.000151317
0.00280427
-6.00005e-05
0.00279046
4.00971e-05
0.00274704
0.0001248
0.00268526
0.000177314
0.00261834
0.000191704
0.00255831
0.000171207
0.00251481
0.000123103
0.00249522
5.4654e-05
0.00250438
-2.61806e-05
0.0025426
-0.000106984
0.0026035
-0.000170273
0.00267424
-0.000198931
0.00273887
-0.000184089
0.0027833
-0.00012953
0.00279918
-4.9901e-05
0.00278531
3.52101e-05
0.00274677
0.000107469
0.00269272
0.000154015
0.00263402
0.000168939
0.00258129
0.000152418
0.0025439
0.000108635
0.00252917
4.4345e-05
0.00254111
-3.05404e-05
0.00257853
-0.000101895
0.00263399
-0.000153285
0.00269515
-0.000171396
0.00274819
-0.000151675
0.00278191
-0.000100279
0.00279059
-3.12387e-05
0.00277453
3.89872e-05
0.00273887
9.64532e-05
0.00269158
0.000132287
0.00264156
0.000142646
0.0025976
0.000127364
0.00256761
8.89108e-05
0.0025578
3.2641e-05
0.00257114
-3.20777e-05
0.00260566
-9.18713e-05
0.00265406
-0.000132328
0.00270532
-0.000143061
0.00274784
-0.000121879
0.00277282
-7.54866e-05
0.00277625
-1.6512e-05
0.00275922
4.12002e-05
0.00272664
8.66131e-05
0.00268547
0.000113315
0.00264323
0.000118992
0.00260718
0.000103872
0.00258388
6.98867e-05
0.00257836
2.13882e-05
0.0025927
-3.35151e-05
0.00262466
-8.31517e-05
0.00266746
-0.000115246
0.00271139
-0.000121403
0.00274659
-0.000100465
0.00276586
-5.88072e-05
0.00276622
-7.63766e-06
0.00274912
4.10411e-05
0.00271926
7.7889e-05
0.00268298
9.77887e-05
0.00264695
9.93095e-05
0.00261749
8.31462e-05
0.0026002
5.11909e-05
0.00259936
7.14714e-06
0.00261664
-4.21228e-05
0.00264991
-8.65631e-05
0.00269305
-0.000115361
0.00273722
-0.000120836
0.00277331
-0.000101502
0.0027944
-6.2634e-05
0.00279743
-1.42238e-05
0.00278346
3.24333e-05
0.00275686
6.79944e-05
0.00272382
8.70236e-05
0.0026909
8.80746e-05
0.00266406
7.24695e-05
0.00264846
4.25365e-05
0.00264805
1.69777e-06
0.0026653
-4.61686e-05
0.00269959
-9.26517e-05
0.00274827
-0.000133258
0.00280309
-0.000151712
0.00286201
-0.00016561
-0.000120842
0.00250266
-1.08111e-05
0.00251069
-3.25026e-05
0.00252423
-5.45091e-05
0.00254341
-7.64755e-05
0.00256824
-9.77265e-05
0.00259838
-0.000116837
0.00263294
-0.000131572
0.00266994
-0.000138303
0.00270614
-0.000133089
0.00273702
-0.000112946
0.00275755
-7.71682e-05
0.00276612
-3.62135e-05
0.00276354
1.39411e-06
0.00275366
2.59769e-05
0.00274297
2.96908e-05
0.00273785
1.34252e-05
0.00274209
-1.42211e-05
0.0027551
-3.90552e-05
0.00277106
-4.49179e-05
0.00278059
-2.13617e-05
0.00277522
2.88e-05
0.00275137
9.08237e-05
0.00271104
0.00014706
0.00265991
0.000184657
0.00260515
0.000197198
0.00255414
0.000182737
0.00251409
0.000141548
0.00249201
7.53794e-05
0.00249422
-1.12465e-05
0.00252451
-0.000107436
0.00258047
-0.000192094
0.00265067
-0.00023726
0.00271642
-0.000221735
0.00275911
-0.00014613
0.00276822
-3.49493e-05
0.00274432
7.74849e-05
0.0026961
0.000164342
0.00263488
0.000214137
0.00257096
0.000226902
0.00251287
0.000206561
0.00246838
0.00015575
0.00244557
7.53362e-05
0.00245242
-3.13604e-05
0.00249384
-0.000151127
0.00256703
-0.000256276
0.00265801
-0.000310943
0.00274361
-0.000288815
0.00280001
-0.000191217
0.00281339
-4.9627e-05
0.00278467
9.14551e-05
0.00272604
0.000196736
0.00265329
0.000251903
0.00257988
0.000260118
0.0025152
0.000231087
0.00246611
0.000172092
0.00243928
8.5667e-05
0.00244206
-2.55812e-05
0.00247981
-0.000149847
0.0025506
-0.000260582
0.00264156
-0.000322761
0.00273106
-0.000309824
0.00279617
-0.00021959
0.00282102
-7.75532e-05
0.00280198
7.42575e-05
0.00274765
0.000195578
0.00267377
0.000263343
0.00259657
0.000275431
0.00252843
0.000242752
0.00247793
0.000177211
0.00245237
8.51803e-05
0.00245863
-2.84398e-05
0.00249996
-0.00015002
0.00257125
-0.000252999
0.00265766
-0.000306523
0.00273879
-0.000290938
0.00279572
-0.00020825
0.00281685
-8.11335e-05
0.00280018
5.67713e-05
0.00275234
0.00017264
0.00268551
0.00024414
0.00261354
0.000263681
0.00254896
0.000235786
0.00250216
0.000169895
0.00248174
7.50781e-05
0.00249362
-3.80637e-05
0.00253812
-0.000151483
0.00260728
-0.000239435
0.00268574
-0.000277386
0.00275527
-0.000253622
0.00280063
-0.000174886
0.00281369
-6.29604e-05
0.00279454
5.43581e-05
0.0027499
0.000152109
0.00269022
0.000213692
0.00262701
0.000232149
0.00257123
0.000208206
0.00253268
0.00014718
0.00251943
5.75969e-05
0.00253591
-4.70229e-05
0.00258035
-0.000146335
0.00264363
-0.00021656
0.00271124
-0.000239006
0.00276767
-0.000208114
0.00280105
-0.000133652
0.00280596
-3.61551e-05
0.00278391
6.10369e-05
0.00274158
0.000138788
0.00268826
0.000185608
0.00263375
0.000197154
0.00258733
0.000173785
0.00255735
0.000118891
0.00255037
3.96214e-05
0.00256923
-5.09398e-05
0.00261101
-0.000133656
0.00266672
-0.000188031
0.00272349
-0.000199832
0.00276847
-0.000166858
0.00279243
-9.94531e-05
0.00279184
-1.59219e-05
0.00276884
6.42056e-05
0.00272967
0.000125781
0.00268253
0.000160453
0.00263587
0.000165656
0.00259761
0.000142133
0.0025748
9.26938e-05
0.00257271
2.34798e-05
0.00259305
-5.38586e-05
0.00263242
-0.000122518
0.00268233
-0.000165159
0.00273142
-0.000170495
0.00276876
-0.000137805
0.00278685
-7.68967e-05
0.0027832
-3.98218e-06
0.0027602
6.40418e-05
0.00272374
0.000114348
0.00268131
0.000140221
0.00264051
0.000140102
0.00260843
0.000115226
0.00259128
6.83451e-05
0.0025936
4.82688e-06
0.00261673
-6.52556e-05
0.00265742
-0.000127251
0.00270787
-0.000165811
0.00275764
-0.0001706
0.00279652
-0.000140387
0.00281727
-8.33816e-05
0.0028171
-1.40536e-05
0.00279784
5.16936e-05
0.00276486
0.000100969
0.00272538
0.000126504
0.00268684
0.000126618
0.00265597
0.000103338
0.00263857
5.99414e-05
0.0026391
1.16395e-06
0.00266007
-6.71381e-05
0.00270026
-0.000132847
0.00275557
-0.000188564
0.00281631
-0.000212454
0.00287936
-0.000228658
-0.000162414
0.00250261
-1.34189e-05
0.00251048
-4.03769e-05
0.00252387
-6.78962e-05
0.00254304
-9.56447e-05
0.00256821
-0.000122901
0.00259935
-0.00014797
0.00263582
-0.00016805
0.00267572
-0.000178202
0.00271557
-0.000172934
0.00274981
-0.000147188
0.00277192
-9.92767e-05
0.0027799
-4.41949e-05
0.00277451
6.78871e-06
0.00276027
4.02095e-05
0.00274539
4.45719e-05
0.00273798
2.08365e-05
0.00274307
-1.93124e-05
0.00276027
-5.62567e-05
0.00278236
-6.70018e-05
0.00279727
-3.62737e-05
0.00279416
3.19077e-05
0.00276874
0.000116249
0.00272387
0.000191931
0.00266664
0.000241887
0.00260533
0.000258501
0.00254801
0.000240065
0.00250237
0.000187183
0.00247625
0.000101504
0.00247751
-1.25091e-05
0.00251199
-0.000141915
0.00257815
-0.000258255
0.00266232
-0.000321434
0.00274099
-0.000300398
0.00279089
-0.00019603
0.00279972
-4.37875e-05
0.00276955
0.000107658
0.00271214
0.000221751
0.00264147
0.000284805
0.00256909
0.000299283
0.00250365
0.000272003
0.00245265
0.000206746
0.00242408
0.000103912
0.00242646
-3.37468e-05
0.00246673
-0.000191392
0.002545
-0.000334545
0.00264862
-0.000414566
0.0027515
-0.000391693
0.0028232
-0.000262917
0.00284358
-7.00069e-05
0.0028119
0.000123137
0.00274365
0.000264978
0.00265955
0.000336006
0.00257618
0.000343493
0.00250331
0.00030395
0.00244679
0.00022861
0.00241325
0.000119214
0.00241222
-2.45522e-05
0.00245201
-0.000189635
0.00253119
-0.000339766
0.00263404
-0.000425605
0.00273489
-0.000410683
0.0028081
-0.0002928
0.00283677
-0.000106217
0.00281709
9.39322e-05
0.00275814
0.000254528
0.00267702
0.000344467
0.00259166
0.000360792
0.00251581
0.000318606
0.00245916
0.000233854
0.00243066
0.000113686
0.00243902
-3.68032e-05
0.00248789
-0.000198892
0.00257004
-0.000335145
0.00266708
-0.000403561
0.0027555
-0.000379362
0.00281487
-0.000267613
0.0028338
-0.000100068
0.00281177
7.88017e-05
0.00275719
0.000227216
0.00268356
0.000317778
0.00260536
0.000341875
0.00253566
0.000305488
0.0024858
0.000219751
0.00246583
9.50477e-05
0.00248264
-5.48713e-05
0.00253578
-0.000204624
0.00261488
-0.000318531
0.00270171
-0.000364224
0.00277601
-0.000327914
0.00282163
-0.000220506
0.00283075
-7.20858e-05
0.00280477
8.03438e-05
0.00275222
0.000204654
0.00268522
0.000280689
0.0026163
0.000301073
0.002557
0.000267502
0.00251783
0.000186359
0.00250753
6.78879e-05
0.0025306
-7.00875e-05
0.00258392
-0.000199657
0.00265606
-0.0002887
0.00273027
-0.000313212
0.00278963
-0.00026748
0.00282188
-0.000165896
0.00282208
-3.6357e-05
0.00279289
9.02277e-05
0.00274257
0.00018911
0.00268196
0.000246215
0.00262204
0.000257077
0.00257289
0.000222928
0.00254352
0.000148263
0.00254079
4.23516e-05
0.00256702
-7.71664e-05
0.00261766
-0.000184297
0.00268151
-0.000251878
0.00274381
-0.000262135
0.00279068
-0.000213733
0.0028128
-0.000121573
0.00280723
-1.03447e-05
0.0027772
9.42321e-05
0.00273036
0.000172621
0.00267627
0.000214545
0.00262452
0.000217407
0.00258395
0.000182695
0.00256231
0.000114343
0.00256499
2.07943e-05
0.00259297
-8.18353e-05
0.00264109
-0.000170643
0.00269877
-0.000222834
0.00275292
-0.000224642
0.00279176
-0.000176648
0.0028078
-9.2942e-05
0.00279918
4.64079e-06
0.00276931
9.3908e-05
0.00272532
0.000158343
0.00267591
0.000189631
0.00262981
0.000186202
0.00259507
0.000149964
0.00257867
8.47437e-05
0.00258538
-1.88631e-06
0.00261583
-9.56983e-05
0.00266507
-0.000176495
0.00272328
-0.00022402
0.00277836
-0.000225677
0.00281928
-0.000181311
0.00283876
-0.000102856
0.0028345
-9.79201e-06
0.00280914
7.70498e-05
0.00276905
0.000141056
0.00272248
0.000173082
0.00267782
0.000171271
0.00264276
0.000138396
0.00262394
7.87672e-05
0.0026264
-1.29997e-06
0.00265241
-9.31468e-05
0.00269962
-0.000180053
0.00276177
-0.000250715
0.00282767
-0.000278352
0.00289278
-0.000293773
-0.000202189
0.00250252
-1.59421e-05
0.00251017
-4.80193e-05
0.00252328
-8.10117e-05
0.00254233
-0.000114692
0.00256782
-0.00014839
0.00260009
-0.000180237
0.00263894
-0.000206907
0.00268263
-0.000221889
0.00272746
-0.000217763
0.00276639
-0.00018612
0.00279074
-0.000123621
0.00279803
-5.14907e-05
0.00278883
1.59883e-05
0.00276856
6.04804e-05
0.00274772
6.54161e-05
0.00273688
3.16766e-05
0.00274291
-2.53456e-05
0.00276585
-7.9198e-05
0.00279655
-9.7699e-05
0.00281908
-5.88063e-05
0.00281918
3.18124e-05
0.0027916
0.000143827
0.00274057
0.000242955
0.00267523
0.00030723
0.00260537
0.00032836
0.00253983
0.000305611
0.00248677
0.000240234
0.00245498
0.000133296
0.00245461
-1.21414e-05
0.00249476
-0.000182058
0.00257533
-0.000338832
0.00267937
-0.000425472
0.00277594
-0.000396963
0.00283498
-0.000255074
0.00284225
-5.10606e-05
0.0028026
0.000147309
0.00273244
0.00029192
0.00264931
0.000367926
0.00256624
0.000382361
0.00249162
0.000346615
0.0024318
0.000266568
0.00239349
0.000142221
0.00238603
-2.62823e-05
0.00242069
-0.000226053
0.00250264
-0.000416496
0.00262022
-0.000532142
0.00274355
-0.000515027
0.00283573
-0.000355098
0.0028695
-0.000103773
0.00283978
0.00015285
0.00276353
0.000341229
0.0026669
0.000432642
0.00257125
0.000439141
0.0024878
0.000387398
0.00242193
0.000294481
0.00238134
0.000159801
0.00237906
-2.22645e-05
0.00242574
-0.000236323
0.00251801
-0.000432031
0.00263509
-0.000542691
0.00274685
-0.000522436
0.00282558
-0.000371536
0.0028547
-0.000135338
0.00283168
0.000116959
0.00276668
0.000319528
0.00267773
0.00043342
0.00258375
0.000454766
0.00249968
0.000402674
0.00243698
0.000296552
0.00240698
0.000143687
0.00242005
-4.987e-05
0.00247884
-0.00025768
0.00257276
-0.000429062
0.00267988
-0.000510683
0.0027745
-0.000473981
0.00283532
-0.000328433
0.00285113
-0.000115881
0.00282258
0.000107355
0.00275993
0.000289862
0.00267833
0.00039938
0.00259323
0.000426971
0.00251839
0.00038033
0.00246631
0.00027183
0.00244843
0.000112934
0.00247192
-7.83634e-05
0.00253462
-0.000267328
0.00262325
-0.000407155
0.00271712
-0.0004581
0.00279476
-0.000405557
0.00283982
-0.000265564
0.00284478
-7.70398e-05
0.00281187
0.000113248
0.00275113
0.000265392
0.00267632
0.000355502
0.00260128
0.00037611
0.00253858
0.000330206
0.00249963
0.000225314
0.00249375
7.37677e-05
0.00252477
-0.000101109
0.00258749
-0.000262383
0.00266788
-0.000369089
0.00274731
-0.000392639
0.00280819
-0.000328358
0.00283839
-0.000196102
0.00283357
-3.15328e-05
0.00279726
0.000126539
0.00273898
0.000247385
0.00267102
0.000314182
0.00260565
0.00032244
0.00255411
0.000274466
0.00252624
0.000176132
0.00252907
3.95286e-05
0.0025638
-0.000111896
0.00262365
-0.00024415
0.00269502
-0.000323244
0.00276159
-0.000328705
0.00280904
-0.00026119
0.0028284
-0.00014093
0.00281742
6.32955e-07
0.00278031
0.000131347
0.00272585
0.000227076
0.00266488
0.000275517
0.00260823
0.000274059
0.00256587
0.000225048
0.00254634
0.000133878
0.00255501
1.21192e-05
0.00259158
-0.000118401
0.00264865
-0.000227712
0.00271338
-0.000287564
0.0027713
-0.000282568
0.00281033
-0.000215669
0.00282335
-0.000105969
0.00280926
1.87339e-05
0.0027724
0.000130771
0.00272093
0.000209809
0.0026647
0.000245861
0.00261359
0.000237307
0.0025768
0.000186755
0.00256215
9.94008e-05
0.00257441
-1.41505e-05
0.00261299
-0.000134281
0.00267081
-0.000234313
0.00273587
-0.000289083
0.00279476
-0.000284567
0.00283617
-0.000222714
0.00285318
-0.000119872
0.00284419
-8.04587e-07
0.0028126
0.000108646
0.00276557
0.000188088
0.0027122
0.000226447
0.00266186
0.000221612
0.00262325
0.000177002
0.00260401
9.80132e-05
0.00260966
-6.95521e-06
0.00264173
-0.000125212
0.00269603
-0.000234356
0.00276368
-0.000318368
0.00283226
-0.000346933
0.00289583
-0.000357342
-0.000237454
0.0025024
-1.83428e-05
0.0025097
-5.53193e-05
0.00252238
-9.36877e-05
0.00254111
-0.00013343
0.00256678
-0.000174056
0.00260023
-0.000213691
0.0026419
-0.000248571
0.00269036
-0.000270355
0.00274184
-0.000269235
0.00278714
-0.000231424
0.00281448
-0.000150965
0.00282086
-5.78705e-05
0.00280651
3.03441e-05
0.00277797
8.90182e-05
0.00274894
9.4448e-05
0.00273338
4.72319e-05
0.00274068
-3.26467e-05
0.00277154
-0.000110057
0.0028142
-0.000140358
0.00284725
-9.18552e-05
0.00285158
2.74781e-05
0.00282088
0.00017453
0.00276158
0.000302261
0.00268574
0.000383066
0.00260513
0.000408973
0.00252931
0.000381429
0.00246675
0.000302794
0.00242728
0.000172763
0.00242378
-8.63855e-06
0.00246876
-0.000227034
0.00256454
-0.000434614
0.00269312
-0.000554051
0.0028157
-0.000519548
0.00289043
-0.000329806
0.00289721
-5.78333e-05
0.00284471
0.0001998
0.00275724
0.000379391
0.00265811
0.000467063
0.0025621
0.000478367
0.00247648
0.000432234
0.00240485
0.000338199
0.00235246
0.000194613
0.00233244
-6.25822e-06
0.00236384
-0.000257461
0.0024553
-0.000507957
0.00259064
-0.000667477
0.0027333
-0.000657693
0.00284261
-0.000464408
0.00288878
-0.000149939
0.00286335
0.000178282
0.00278192
0.000422662
0.00267371
0.000540844
0.00256478
0.000548071
0.00246899
0.000483197
0.00239296
0.00037051
0.00234714
0.000205621
0.00234788
-2.3012e-05
0.00240562
-0.000294061
0.00251234
-0.000538751
0.00264224
-0.000672594
0.00276248
-0.00064267
0.00284457
-0.000453627
0.00287218
-0.000162945
0.00284397
0.000145168
0.0027717
0.0003918
0.0026745
0.000530613
0.002572
0.000557268
0.00248016
0.000494515
0.00241255
0.000364157
0.00238301
0.000173231
0.00240255
-6.941e-05
0.00247141
-0.000326545
0.00257524
-0.000532885
0.00268953
-0.000624973
0.0027879
-0.000572355
0.0028492
-0.000389735
0.00286228
-0.000128955
0.00282805
0.000141586
0.00275789
0.000360014
0.00266851
0.000488764
0.00257667
0.000518808
0.00249728
0.000459727
0.00244419
0.000324919
0.00242985
0.000127274
0.0024608
-0.000109317
0.00253237
-0.000338895
0.0026284
-0.000503186
0.00272662
-0.000556319
0.00280541
-0.000484346
0.00284892
-0.000309075
0.00285003
-7.81468e-05
0.00281131
0.00015196
0.00274357
0.000333133
0.00266181
0.000437268
0.00258128
0.000456635
0.00251593
0.00039556
0.00247829
0.000262949
0.00247794
7.41242e-05
0.0025173
-0.00014047
0.00258853
-0.00033362
0.00267515
-0.000455708
0.0027574
-0.000474889
0.00281787
-0.00038882
0.00284512
-0.000223362
0.00283546
-2.18681e-05
0.00279297
0.000169033
0.00272791
0.000312437
0.00265365
0.00038845
0.00258376
0.000392331
0.0025308
0.000327424
0.00250556
0.000201368
0.00251491
3.01806e-05
0.00255834
-0.000155325
0.00262643
-0.000312243
0.0027034
-0.000400208
0.00277205
-0.000397363
0.00281838
-0.000307514
0.00283415
-0.000156703
0.00281788
1.69029e-05
0.00277444
0.000174786
0.00271341
0.000288106
0.00264661
0.000342319
0.00258608
0.00033459
0.00254304
0.000268089
0.0025268
0.000150121
0.00254236
-3.4469e-06
0.00258759
-0.000163625
0.00265255
-0.000292672
0.00272241
-0.000357431
0.00278199
-0.000342145
0.00281951
-0.000253188
0.00282866
-0.000115117
0.00280909
3.83082e-05
0.00276584
0.000174015
0.00270784
0.000267812
0.00264582
0.00030788
0.00259079
0.000292333
0.00255315
0.000224401
0.00254147
0.000111074
0.00256019
-3.2862e-05
0.0026069
-0.000180995
0.0026721
-0.000299511
0.00274191
-0.000358894
0.00280226
-0.000344917
0.00284221
-0.00026266
0.00285564
-0.000133306
0.00284169
1.31468e-05
0.00280433
0.000146003
0.00275127
0.000241153
0.00269221
0.000285499
0.00263738
0.000276449
0.00259656
0.000217815
0.00257839
0.000116189
0.00258852
-1.7089e-05
0.00262699
-0.000163681
0.00268714
-0.000294511
0.00275739
-0.000388617
0.00282486
-0.000414397
0.00288258
-0.000415067
-0.000265488
0.00250223
-2.05723e-05
0.00250904
-6.21325e-05
0.00252105
-0.000105693
0.00253919
-0.000151571
0.00256476
-0.000199632
0.00259932
-0.000248248
0.00264415
-0.000293395
0.00269851
-0.000324716
0.00275877
-0.000329495
0.0028127
-0.000285363
0.00284419
-0.000182454
0.00284968
-6.33575e-05
0.00282866
5.13668e-05
0.00278897
0.000128711
0.0027486
0.00013481
0.00272612
6.97163e-05
0.00273454
-4.1063e-05
0.00277587
-0.000151393
0.00283491
-0.000199393
0.00288245
-0.000139397
0.00289258
1.73423e-05
0.00285767
0.000209442
0.0027875
0.000372434
0.00269834
0.000472226
0.00260446
0.00050285
0.0025161
0.000469792
0.0024418
0.000377094
0.00239212
0.000222438
0.00238048
3.00724e-06
0.00242005
-0.000266609
0.0025189
-0.000533464
0.00266823
-0.000703379
0.00282783
-0.000679149
0.00293736
-0.000439336
0.00295755
-7.80214e-05
0.00289537
0.000261978
0.00278717
0.000487588
0.00266786
0.000586379
0.00255634
0.000589884
0.00245768
0.000530895
0.00237145
0.000424433
0.00230353
0.000262532
0.00227526
2.20107e-05
0.00231314
-0.000295346
0.00242265
-0.000617461
0.00257773
-0.000822553
0.0027351
-0.000815069
0.00285339
-0.000582697
0.0029047
-0.000201247
0.00288067
0.000202305
0.00279516
0.000508179
0.00267735
0.000658647
0.00255583
0.000669597
0.00244747
0.00059156
0.00236213
0.000455844
0.00231408
0.000253676
0.00232125
-3.01894e-05
0.00239072
-0.000363531
0.00250887
-0.000656894
0.00264672
-0.000810448
0.00277149
-0.000767435
0.00285544
-0.000537579
0.00288204
-0.000189545
0.0028497
0.00017751
0.00277095
0.000470552
0.00266615
0.000635411
0.00255591
0.00066751
0.00245751
0.000592913
0.00238677
0.000434892
0.00235943
0.000200576
0.00238585
-9.58357e-05
0.00246303
-0.00040372
0.00257328
-0.000643132
0.00269085
-0.000742546
0.00279
-0.000671506
0.00285059
-0.000450323
0.00286166
-0.000140026
0.00282372
0.000179527
0.00274818
0.000435554
0.00265264
0.000584305
0.00255526
0.000616182
0.00247253
0.000542466
0.00241979
0.000377656
0.00240995
0.000137108
0.00244805
-0.000147411
0.00252652
-0.000417368
0.00262691
-0.000603572
0.00272632
-0.000655732
0.0028039
-0.000561927
0.00284486
-0.000350035
0.0028426
-7.58887e-05
0.0027997
0.000194861
0.00272701
0.000405821
0.00264018
0.000524098
0.00255572
0.000541101
0.00248908
0.000462201
0.00245396
0.000298062
0.00245972
6.83703e-05
0.00250675
-0.000187504
0.00258444
-0.000411305
0.00267441
-0.000545684
0.0027567
-0.000557182
0.0028148
-0.00044692
0.00283839
-0.000246944
0.00282439
-7.87018e-06
0.00277716
0.000216266
0.0027072
0.00038239
0.00262849
0.000467159
0.00255574
0.000465082
0.00250286
0.000380304
0.00248147
0.000222756
0.0024978
1.38548e-05
0.0025491
-0.000206622
0.00262331
-0.000386458
0.0027031
-0.000479999
0.00277129
-0.000465551
0.0028148
-0.000351019
0.00282645
-0.000168353
0.00280543
3.79175e-05
0.002757
0.000223217
0.0026911
0.000354007
0.00262022
0.000413202
0.00255747
0.000397337
0.00251529
0.000310268
0.00250356
0.000161856
0.00252639
-2.62777e-05
0.00257934
-0.000216577
0.00265003
-0.000363359
0.00272229
-0.000429695
0.00278104
-0.000400897
0.00281545
-0.000287596
0.0028202
-0.000119868
0.00279562
6.28847e-05
0.00274719
0.000222446
0.00268421
0.000330791
0.00261807
0.000374021
0.0025608
0.000349611
0.00252391
0.000261291
0.00251649
0.000118491
0.00254202
-5.83926e-05
0.00259586
-0.000234838
0.00266616