/*--------------------------------*- C++ -*----------------------------------*\
  =========                 |
  \\      /  F ield         | OpenFOAM: The Open Source CFD Toolbox
   \\    /   O peration     | Website:  https://openfoam.org
    \\  /    A nd           | Version:  11
     \\/     M anipulation  |
\*---------------------------------------------------------------------------*/
FoamFile
{
    format      ascii;
    class       volScalarField;
    location    "6.987697";
    object      p;
}
// * * * * * * * * * * * * * * * * * * * * * * * * * * * * * * * * * * * * * //

dimensions      [0 2 -2 0 0 0 0];

internalField   nonuniform List<scalar> 
7132
(
0.0512304
0.0497836
0.0449016
0.0377516
0.0277272
0.0144964
-0.0020751
-0.0220628
-0.0450564
-0.0702408
-0.0963824
-0.121794
-0.145589
-0.166985
-0.185507
-0.201018
-0.213537
-0.223197
-0.230153
-0.234499
-0.236228
-0.235242
-0.231417
-0.22472
-0.215315
-0.203614
-0.190236
-0.175909
-0.161338
-0.147112
-0.13363
-0.121097
-0.109541
-0.0988778
-0.0889762
-0.0797249
-0.071066
-0.0629975
-0.0555541
-0.0487804
-0.0427092
-0.0373496
-0.0326855
-0.0286792
-0.0252781
-0.0224204
-0.02004
-0.0180689
-0.0164399
-0.0150878
-0.0139522
-0.0129792
-0.0121242
-0.0113523
-0.0106393
-0.00996992
-0.00933607
-0.00873491
-0.00816656
-0.00763254
-0.00713454
-0.00667374
-0.00625039
-0.00586374
-0.00551201
-0.00519262
-0.00490236
-0.00463764
-0.00439475
-0.0041701
-0.00396044
-0.00376297
-0.00357547
-0.00339626
-0.00322422
-0.00305866
-0.00289926
-0.00274592
-0.00259869
-0.00245767
-0.00232294
-0.00219453
-0.0020724
-0.00195643
-0.00184641
-0.00174206
-0.00164308
-0.00154913
-0.00145985
-0.00137492
-0.00129403
-0.00121689
-0.00114326
-0.00107293
-0.00100573
-0.000941505
-0.000880143
-0.000821541
-0.000765614
-0.00071229
-0.000661503
-0.000613193
-0.000567304
-0.000523782
-0.000482575
-0.000443634
-0.00040691
-0.000372359
-0.000339937
-0.000309601
-0.00028131
-0.00025502
-0.000230678
-0.000208216
-0.000187537
-0.000168505
-0.00015093
-0.000134573
-0.000119158
-0.000104417
-9.01505e-05
-7.62992e-05
-6.29905e-05
-5.05323e-05
-3.93345e-05
-2.97749e-05
-2.20638e-05
-1.61701e-05
-1.18467e-05
-8.73626e-06
-6.4961e-06
-4.87646e-06
-3.72511e-06
-2.94272e-06
-2.43469e-06
-2.09523e-06
-1.82452e-06
-1.55516e-06
-1.265e-06
-9.67889e-07
-6.92612e-07
-4.6322e-07
-2.90008e-07
-1.7003e-07
-9.3063e-08
-4.69257e-08
-2.11545e-08
-7.60658e-09
-1.04703e-09
2.29711e-09
3.62823e-09
4.47628e-09
4.01347e-09
2.78342e-09
1.65507e-10
-6.14371e-09
-1.03459e-08
-2.68837e-08
-3.54237e-08
-4.25317e-08
0.0518074
0.0503729
0.045534
0.0384301
0.0284448
0.015219
-0.00140562
-0.0215416
-0.0447764
-0.0702879
-0.0967666
-0.122405
-0.146352
-0.167822
-0.18635
-0.201829
-0.214295
-0.223904
-0.230825
-0.235163
-0.236909
-0.235949
-0.232135
-0.225409
-0.215921
-0.204085
-0.190541
-0.176042
-0.161323
-0.146987
-0.133444
-0.120894
-0.109353
-0.0987202
-0.0888491
-0.079619
-0.0709684
-0.0628973
-0.0554446
-0.0486596
-0.0425786
-0.0372131
-0.032548
-0.0285456
-0.0251526
-0.0223066
-0.0199402
-0.0179844
-0.0163709
-0.0150336
-0.0139113
-0.0129496
-0.0121033
-0.0113379
-0.0106291
-0.00996204
-0.00932919
-0.00872811
-0.00815936
-0.00762476
-0.00712625
-0.00666515
-0.00624178
-0.00585539
-0.00550419
-0.00518552
-0.00489611
-0.00463229
-0.00439029
-0.00416646
-0.00395751
-0.00376062
-0.00357355
-0.00339465
-0.00322279
-0.00305733
-0.00289796
-0.00274461
-0.00259735
-0.00245629
-0.00232153
-0.00219312
-0.00207101
-0.00195507
-0.0018451
-0.00174083
-0.00164193
-0.00154806
-0.00145887
-0.00137401
-0.00129319
-0.00121611
-0.00114254
-0.00107225
-0.00100508
-0.000940889
-0.000879549
-0.000820966
-0.000765054
-0.000711743
-0.000660967
-0.000612668
-0.000566788
-0.000523275
-0.000482076
-0.000443141
-0.000406424
-0.000371878
-0.00033946
-0.000309128
-0.000280841
-0.000254555
-0.00023022
-0.00020777
-0.000187109
-0.000168101
-0.000150559
-0.00013424
-0.000118866
-0.000104165
-8.99317e-05
-7.61035e-05
-6.28068e-05
-5.03522e-05
-3.91549e-05
-2.95994e-05
-2.1901e-05
-1.60299e-05
-1.17358e-05
-8.65506e-06
-6.4387e-06
-4.83303e-06
-3.6856e-06
-2.90035e-06
-2.38738e-06
-2.04508e-06
-1.77601e-06
-1.51314e-06
-1.23315e-06
-9.4794e-07
-6.84174e-07
-4.64177e-07
-2.97207e-07
-1.80093e-07
-1.03112e-07
-5.50487e-08
-2.65277e-08
-1.03095e-08
-1.72853e-09
2.76813e-09
4.62887e-09
5.4883e-09
4.82455e-09
3.24618e-09
6.86062e-10
-6.15042e-09
-8.95889e-09
-2.82679e-08
-2.99803e-08
-5.23759e-08
0.052956
0.0515475
0.0467967
0.0397897
0.029888
0.0166786
-4.69884e-05
-0.0204799
-0.0442036
-0.0703879
-0.0975581
-0.123652
-0.147901
-0.169513
-0.18805
-0.203457
-0.215813
-0.225314
-0.232166
-0.236492
-0.238278
-0.237378
-0.233593
-0.226811
-0.217155
-0.205045
-0.19116
-0.176311
-0.161285
-0.146727
-0.133062
-0.12048
-0.108973
-0.0984036
-0.0885964
-0.0794098
-0.0707762
-0.0626993
-0.0552272
-0.0484186
-0.0423174
-0.0369397
-0.0322722
-0.0282774
-0.0249009
-0.0220782
-0.0197399
-0.0178149
-0.0162326
-0.0149251
-0.0138296
-0.0128905
-0.012062
-0.0113095
-0.010609
-0.00994665
-0.00931572
-0.00871475
-0.00814511
-0.00760929
-0.00710971
-0.00664797
-0.00622453
-0.00583866
-0.0054885
-0.00517129
-0.00488358
-0.00462157
-0.00438135
-0.00415917
-0.00395165
-0.00375592
-0.00356973
-0.00339144
-0.00321996
-0.00305469
-0.00289538
-0.00274199
-0.00259466
-0.00245353
-0.00231872
-0.0021903
-0.00206822
-0.00195237
-0.00184251
-0.00173838
-0.00163964
-0.00154593
-0.00145691
-0.00137221
-0.00129153
-0.00121457
-0.0011411
-0.00107091
-0.00100381
-0.000939674
-0.000878381
-0.000819835
-0.000763955
-0.000710671
-0.000659919
-0.000611641
-0.000565782
-0.000522288
-0.000481107
-0.000442189
-0.000405486
-0.000370953
-0.000338546
-0.000308225
-0.000279949
-0.000253677
-0.000229362
-0.000206942
-0.000186327
-0.000167385
-0.000149928
-0.000133711
-0.00011845
-0.000103859
-8.97183e-05
-7.59522e-05
-6.26797e-05
-5.02133e-05
-3.89791e-05
-2.93787e-05
-2.1645e-05
-1.57603e-05
-1.14775e-05
-8.4277e-06
-6.2521e-06
-4.68749e-06
-3.57495e-06
-2.81626e-06
-2.32233e-06
-1.99346e-06
-1.73401e-06
-1.47834e-06
-1.20425e-06
-9.24628e-07
-6.66592e-07
-4.52398e-07
-2.90776e-07
-1.77914e-07
-1.03688e-07
-5.68872e-08
-2.84806e-08
-1.17199e-08
-2.3767e-09
2.79037e-09
5.15031e-09
6.24211e-09
5.74862e-09
4.03484e-09
1.95039e-09
-5.75621e-09
-5.81688e-09
-3.06479e-08
-1.86504e-08
-7.19563e-08
0.0546663
0.0532989
0.0486869
0.0418359
0.0320733
0.0189043
0.00204013
-0.018839
-0.0433141
-0.0705569
-0.0988097
-0.125587
-0.150286
-0.172102
-0.190637
-0.205925
-0.218101
-0.227429
-0.23417
-0.238476
-0.240327
-0.239528
-0.235798
-0.228943
-0.219034
-0.206503
-0.192092
-0.1767
-0.161204
-0.146307
-0.132458
-0.119836
-0.108388
-0.0979261
-0.0882222
-0.0791047
-0.0704967
-0.0624091
-0.0549049
-0.0480582
-0.0419246
-0.0365273
-0.0318558
-0.0278723
-0.0245207
-0.0217335
-0.0194381
-0.0175599
-0.0160253
-0.0147632
-0.0137085
-0.0128036
-0.0120019
-0.0112685
-0.0105804
-0.00992465
-0.00929622
-0.00869504
-0.00812378
-0.00758593
-0.0070846
-0.00662184
-0.00619829
-0.00581323
-0.00546469
-0.00514972
-0.00486465
-0.00460545
-0.00436798
-0.00414833
-0.00394298
-0.00374901
-0.00356414
-0.00338675
-0.00321582
-0.0030508
-0.00289154
-0.00273808
-0.00259063
-0.00244937
-0.00231448
-0.00218603
-0.002064
-0.00194826
-0.00183858
-0.00173467
-0.00163618
-0.00154273
-0.00145396
-0.0013695
-0.00128903
-0.00121227
-0.00113895
-0.00106889
-0.0010019
-0.000937846
-0.000876621
-0.00081813
-0.000762295
-0.000709049
-0.000658332
-0.000610085
-0.000564255
-0.000520789
-0.000479633
-0.000440738
-0.000404056
-0.000369541
-0.000337149
-0.00030684
-0.000278577
-0.00025232
-0.000228029
-0.000205646
-0.000185088
-0.000166228
-0.000148881
-0.000132798
-0.000117683
-0.000103235
-8.92155e-05
-7.553e-05
-6.22888e-05
-4.98073e-05
-3.85275e-05
-2.88748e-05
-2.11064e-05
-1.52212e-05
-1.09758e-05
-7.99343e-06
-5.90042e-06
-4.41882e-06
-3.37928e-06
-2.67906e-06
-2.22862e-06
-1.92998e-06
-1.68999e-06
-1.44578e-06
-1.17822e-06
-9.02944e-07
-6.48968e-07
-4.39257e-07
-2.82215e-07
-1.73254e-07
-1.01659e-07
-5.61194e-08
-2.79361e-08
-1.08678e-08
-1.10909e-09
4.33583e-09
6.76033e-09
7.71204e-09
7.17655e-09
5.14493e-09
3.71304e-09
-5.1729e-09
-1.21011e-09
-3.38888e-08
-1.56795e-09
-1.00635e-07
0.0569218
0.0556131
0.0511989
0.0445752
0.035025
0.0219407
0.00491826
-0.0165554
-0.0420654
-0.0708187
-0.100604
-0.128291
-0.153581
-0.175644
-0.194145
-0.209244
-0.221156
-0.230239
-0.236827
-0.241117
-0.243081
-0.242451
-0.238826
-0.231885
-0.221631
-0.208511
-0.193359
-0.177206
-0.161053
-0.145691
-0.131599
-0.118936
-0.107589
-0.0972886
-0.0877365
-0.0787173
-0.0701429
-0.0620363
-0.0544832
-0.0475801
-0.041399
-0.0359727
-0.0312942
-0.0273255
-0.0240074
-0.0212686
-0.0190319
-0.0172178
-0.0157483
-0.0145484
-0.0135492
-0.0126907
-0.011925
-0.0112171
-0.010545
-0.00989749
-0.00927168
-0.00866956
-0.00809555
-0.00755454
-0.00705059
-0.0065863
-0.00616256
-0.00577863
-0.00543239
-0.00512057
-0.00483918
-0.00458387
-0.0043502
-0.00413402
-0.00393164
-0.00374004
-0.00355693
-0.00338071
-0.00321045
-0.00304573
-0.00288648
-0.00273288
-0.00258521
-0.00244376
-0.00230874
-0.00218025
-0.00205829
-0.00194272
-0.0018333
-0.0017297
-0.00163155
-0.00153846
-0.00145003
-0.0013659
-0.00128573
-0.00120921
-0.00113611
-0.00106622
-0.000999366
-0.000935425
-0.000874287
-0.000815866
-0.000760089
-0.000706893
-0.00065622
-0.000608015
-0.000562225
-0.000518795
-0.000477674
-0.000438811
-0.000402157
-0.000367664
-0.000335291
-0.000304998
-0.000276749
-0.000250509
-0.000226243
-0.000203901
-0.000183408
-0.000164644
-0.000147427
-0.000131505
-0.00011657
-0.000102303
-8.84401e-05
-7.48663e-05
-6.16789e-05
-4.91948e-05
-3.78735e-05
-2.81686e-05
-2.03667e-05
-1.44876e-05
-1.02941e-05
-7.40128e-06
-5.4193e-06
-4.05258e-06
-3.11819e-06
-2.50554e-06
-2.12181e-06
-1.86883e-06
-1.65551e-06
-1.42297e-06
-1.15774e-06
-8.81048e-07
-6.26144e-07
-4.17937e-07
-2.64654e-07
-1.60396e-07
-9.31068e-08
-5.07364e-08
-2.45007e-08
-8.4593e-09
8.31288e-10
6.05687e-09
8.39332e-09
9.22303e-09
8.78144e-09
6.52268e-09
6.00438e-09
-4.22234e-09
4.80091e-09
-3.75595e-08
2.10262e-08
-1.37193e-07
0.0596995
0.0584704
0.0543233
0.0480154
0.0387744
0.0258489
0.00867483
-0.0135378
-0.040396
-0.0712146
-0.103068
-0.131882
-0.157893
-0.18023
-0.198646
-0.213467
-0.225006
-0.233742
-0.240113
-0.24438
-0.246506
-0.246132
-0.242687
-0.235672
-0.224986
-0.211095
-0.194963
-0.177804
-0.160787
-0.144822
-0.13043
-0.117739
-0.106552
-0.0964881
-0.0871505
-0.0782655
-0.0697325
-0.0615944
-0.0539699
-0.0469866
-0.0407391
-0.035272
-0.0305827
-0.026632
-0.0233568
-0.0206802
-0.018519
-0.0167877
-0.0154023
-0.0142824
-0.0133545
-0.0125553
-0.0118349
-0.0111585
-0.0105054
-0.00986707
-0.00924328
-0.00863881
-0.00806043
-0.00751476
-0.00700707
-0.00654064
-0.00611662
-0.00573423
-0.00539105
-0.00508343
-0.00480695
-0.00455678
-0.0043281
-0.00411643
-0.00391787
-0.00372929
-0.00354836
-0.00337357
-0.00320407
-0.00303961
-0.00288028
-0.00272641
-0.00257841
-0.00243665
-0.00230143
-0.00217289
-0.00205101
-0.00193567
-0.00182658
-0.00172339
-0.0016257
-0.00153309
-0.00144512
-0.00136142
-0.00128162
-0.00120542
-0.00113259
-0.00106291
-0.000996222
-0.000932411
-0.000871374
-0.000813033
-0.000757322
-0.000704184
-0.000653564
-0.00060541
-0.000559668
-0.000516284
-0.000475207
-0.000436382
-0.00039976
-0.000365295
-0.000332941
-0.000302662
-0.000274422
-0.000248193
-0.000223944
-0.000201633
-0.000181194
-0.000162516
-0.00014542
-0.000129654
-0.000114898
-0.000100817
-8.71249e-05
-7.3684e-05
-6.05784e-05
-4.81262e-05
-3.68026e-05
-2.7088e-05
-1.92972e-05
-1.34696e-05
-9.37351e-06
-6.61529e-06
-4.78797e-06
-3.57719e-06
-2.78591e-06
-2.2936e-06
-2.00202e-06
-1.81137e-06
-1.63252e-06
-1.4123e-06
-1.14588e-06
-8.63007e-07
-6.03272e-07
-3.94355e-07
-2.4409e-07
-1.4462e-07
-8.19799e-08
-4.31101e-08
-1.91047e-08
-4.37324e-09
4.14335e-09
8.8304e-09
1.07967e-08
1.12696e-08
1.07819e-08
8.20313e-09
8.66814e-09
-2.95364e-09
1.1851e-08
-4.12094e-08
4.84468e-08
-1.79576e-07
0.062968
0.0618432
0.0580452
0.0521628
0.0433597
0.030708
0.0134285
-0.0096554
-0.0382127
-0.0718043
-0.106386
-0.136517
-0.163356
-0.185952
-0.204181
-0.218597
-0.229629
-0.237912
-0.244012
-0.248279
-0.250671
-0.250689
-0.247536
-0.240467
-0.22924
-0.214351
-0.196943
-0.178477
-0.160353
-0.14363
-0.128885
-0.1162
-0.105259
-0.0955324
-0.0864881
-0.0777785
-0.0692917
-0.0611019
-0.0533747
-0.0462803
-0.0399417
-0.0344188
-0.0297131
-0.0257834
-0.0225609
-0.0199617
-0.017895
-0.0162671
-0.0149868
-0.0139667
-0.0131272
-0.012401
-0.0117357
-0.0110966
-0.0104651
-0.00983594
-0.00921269
-0.00860364
-0.00801853
-0.00746617
-0.0069533
-0.00648396
-0.00605957
-0.00567921
-0.00534005
-0.00503791
-0.00476774
-0.00452415
-0.00430179
-0.00409579
-0.00390198
-0.00371707
-0.00353875
-0.00336556
-0.00319685
-0.00303254
-0.00287297
-0.00271864
-0.00257013
-0.00242795
-0.00229245
-0.00216383
-0.00204207
-0.00192703
-0.00181838
-0.00171574
-0.00161865
-0.00152664
-0.00143925
-0.00135608
-0.00127674
-0.00120093
-0.00112841
-0.00105898
-0.000992487
-0.000928821
-0.000867896
-0.000809642
-0.000754005
-0.000700931
-0.000650372
-0.000602277
-0.000556594
-0.000513267
-0.000472242
-0.000433465
-0.000396882
-0.000362446
-0.000330113
-0.000299844
-0.000271609
-0.00024538
-0.000221134
-0.000198837
-0.000178432
-0.000159817
-0.000142819
-0.000127187
-0.000112597
-9.86988e-05
-8.51897e-05
-7.19116e-05
-5.89343e-05
-4.65726e-05
-3.53125e-05
-2.56546e-05
-1.79365e-05
-1.22141e-05
-8.26031e-06
-5.67481e-06
-4.03723e-06
-3.01631e-06
-2.40209e-06
-2.06157e-06
-1.88731e-06
-1.77461e-06
-1.63526e-06
-1.42369e-06
-1.14777e-06
-8.49775e-07
-5.78528e-07
-3.65422e-07
-2.17345e-07
-1.23341e-07
-6.65526e-08
-3.23725e-08
-1.15927e-08
1.04883e-09
8.22256e-09
1.19967e-08
1.34006e-08
1.34636e-08
1.29284e-08
1.00902e-08
1.15911e-08
-1.26903e-09
1.9581e-08
-4.41641e-08
7.95053e-08
-2.24633e-07
0.066686
0.0656947
0.0623423
0.0570203
0.0488223
0.0366144
0.0193313
-0.0047311
-0.0353858
-0.072687
-0.110823
-0.142403
-0.170151
-0.192967
-0.210884
-0.224732
-0.235068
-0.242726
-0.248445
-0.252703
-0.255451
-0.256056
-0.253378
-0.246333
-0.234475
-0.218339
-0.199312
-0.179188
-0.15967
-0.142017
-0.126869
-0.114247
-0.103676
-0.0944224
-0.0857758
-0.0772932
-0.0688547
-0.0605833
-0.0527111
-0.0454651
-0.0390047
-0.0334073
-0.0286783
-0.0247725
-0.0216134
-0.0191083
-0.0171567
-0.0156551
-0.0145029
-0.0136045
-0.0128724
-0.0122337
-0.0116333
-0.0110367
-0.0104283
-0.00980711
-0.00918163
-0.00856469
-0.00796966
-0.00740803
-0.00688819
-0.00641504
-0.00599021
-0.00561251
-0.00527854
-0.0049834
-0.00472125
-0.00448594
-0.00427147
-0.00407246
-0.0038844
-0.00370386
-0.00352852
-0.00335708
-0.00318909
-0.00302477
-0.00286469
-0.00270963
-0.00256037
-0.00241757
-0.00228168
-0.00215293
-0.00203133
-0.00191667
-0.00180859
-0.00170665
-0.00161032
-0.00151907
-0.00143242
-0.00134989
-0.00127112
-0.00119577
-0.00112362
-0.00105447
-0.000988183
-0.00092467
-0.000863858
-0.000805693
-0.000750129
-0.000697123
-0.000646631
-0.000598604
-0.000552988
-0.000509729
-0.000468767
-0.000430045
-0.000393508
-0.000359104
-0.000326789
-0.000296525
-0.000268281
-0.000242036
-0.00021777
-0.000195456
-0.000175048
-0.00015645
-0.0001395
-0.000123954
-0.000109486
-9.57442e-05
-8.24171e-05
-6.93318e-05
-5.6545e-05
-4.43641e-05
-3.32745e-05
-2.37829e-05
-1.62363e-05
-1.06987e-05
-6.94708e-06
-4.57903e-06
-3.16795e-06
-2.37245e-06
-1.97143e-06
-1.81723e-06
-1.78813e-06
-1.76999e-06
-1.67418e-06
-1.46525e-06
-1.16897e-06
-8.45169e-07
-5.55079e-07
-3.34386e-07
-1.87861e-07
-9.98464e-08
-4.95087e-08
-2.03356e-08
-2.90705e-09
7.53557e-09
1.32016e-08
1.58555e-08
1.65025e-08
1.59958e-08
1.53045e-08
1.21958e-08
1.46056e-08
8.37981e-10
2.73961e-08
-4.56927e-08
1.1221e-07
-2.67871e-07
0.0708009
0.069977
0.0671815
0.0625839
0.0552061
0.043686
0.0265813
0.00148589
-0.0317209
-0.0740049
-0.116759
-0.149816
-0.178481
-0.201369
-0.218754
-0.231829
-0.241271
-0.248151
-0.253417
-0.257715
-0.26101
-0.262457
-0.260493
-0.253557
-0.240934
-0.223215
-0.202123
-0.1799
-0.158642
-0.13986
-0.124272
-0.11181
-0.101782
-0.0931834
-0.0850647
-0.0768664
-0.0684693
-0.0600705
-0.0519949
-0.0445441
-0.0379225
-0.0322271
-0.0274654
-0.0235862
-0.0205028
-0.0181109
-0.0162982
-0.014949
-0.0139515
-0.0131994
-0.0125955
-0.0120602
-0.0115348
-0.0109854
-0.0104003
-0.00978444
-0.00915249
-0.00852298
-0.00791375
-0.00733946
-0.0068104
-0.00633237
-0.00590708
-0.00553289
-0.00520562
-0.00491936
-0.00466727
-0.00444221
-0.00423741
-0.00404686
-0.00386566
-0.0036902
-0.00351819
-0.00334853
-0.00318107
-0.00301638
-0.00285542
-0.00269926
-0.00254895
-0.00240531
-0.00226892
-0.00214003
-0.00201864
-0.0019045
-0.00179717
-0.00169611
-0.00160073
-0.00151044
-0.00142467
-0.00134293
-0.00126481
-0.00119
-0.00111825
-0.0010494
-0.000983337
-0.000919977
-0.000859275
-0.000801193
-0.000745702
-0.000692766
-0.000642347
-0.000594397
-0.000548863
-0.000505685
-0.000464799
-0.000426144
-0.00038966
-0.000355292
-0.000322993
-0.000292725
-0.00026446
-0.000238177
-0.00021386
-0.000191492
-0.00017103
-0.000152392
-0.000135427
-0.000119902
-0.000105504
-9.18854e-05
-7.87407e-05
-6.58942e-05
-5.33866e-05
-4.15076e-05
-3.07262e-05
-2.15351e-05
-1.42736e-05
-9.00418e-06
-5.50625e-06
-3.38585e-06
-2.22142e-06
-1.67585e-06
-1.51868e-06
-1.58405e-06
-1.72795e-06
-1.81965e-06
-1.76753e-06
-1.54951e-06
-1.21604e-06
-8.51135e-07
-5.32281e-07
-2.99785e-07
-1.54373e-07
-7.33767e-08
-3.05188e-08
-6.95263e-09
6.81077e-09
1.48093e-08
1.87162e-08
2.00239e-08
1.97597e-08
1.86157e-08
1.7714e-08
1.44139e-08
1.75177e-08
3.40717e-09
3.46011e-08
-4.49455e-08
1.43603e-07
-3.03363e-07
0.0752465
0.0746281
0.0725154
0.0688363
0.0625486
0.0520526
0.0354179
0.00932886
-0.0269549
-0.076009
-0.124732
-0.159073
-0.188648
-0.211475
-0.228076
-0.24007
-0.24827
-0.254066
-0.25868
-0.263009
-0.267068
-0.269745
-0.268889
-0.262273
-0.24879
-0.229111
-0.20542
-0.180561
-0.157143
-0.137
-0.12094
-0.108777
-0.0995322
-0.0918334
-0.0844148
-0.0765702
-0.0681974
-0.0596052
-0.0512476
-0.0435234
-0.0366918
-0.0308701
-0.0260655
-0.0222161
-0.0192217
-0.0169636
-0.015316
-0.0141482
-0.013335
-0.0127567
-0.0123048
-0.01189
-0.0114497
-0.010951
-0.0103876
-0.00977213
-0.00912741
-0.008479
-0.0078501
-0.007259
-0.00671808
-0.00623399
-0.00580834
-0.0054388
-0.00512008
-0.00484501
-0.00460546
-0.00439308
-0.00420008
-0.00401968
-0.00384652
-0.00367684
-0.00350843
-0.00334047
-0.00317323
-0.00300773
-0.00284537
-0.00268762
-0.00253584
-0.00239107
-0.002254
-0.00212492
-0.0020038
-0.00189032
-0.00178394
-0.00168401
-0.00158982
-0.0015007
-0.00141601
-0.00133521
-0.00125787
-0.00118367
-0.00111238
-0.00104385
-0.000977993
-0.000914774
-0.000854165
-0.000796154
-0.000740725
-0.000687857
-0.000637514
-0.000589652
-0.000544213
-0.000501132
-0.00046034
-0.000421766
-0.000385345
-0.000351017
-0.000318733
-0.000288452
-0.000260148
-0.0002338
-0.000209398
-0.000186926
-0.000166352
-0.000147603
-0.000130544
-0.000114962
-0.000100569
-8.70376e-05
-7.40813e-05
-6.15315e-05
-4.94147e-05
-3.7994e-05
-2.76963e-05
-1.89714e-05
-1.21249e-05
-7.20402e-06
-3.99968e-06
-2.13875e-06
-1.22675e-06
-9.45953e-07
-1.05993e-06
-1.37881e-06
-1.72499e-06
-1.94132e-06
-1.92989e-06
-1.68635e-06
-1.29417e-06
-8.69841e-07
-5.11276e-07
-2.63075e-07
-1.18991e-07
-4.63266e-08
-1.17214e-08
6.23217e-09
1.6651e-08
2.24609e-08
2.4651e-08
2.45287e-08
2.32402e-08
2.13832e-08
2.01581e-08
1.67221e-08
2.01345e-08
6.429e-09
4.0334e-08
-4.1104e-08
1.69584e-07
-3.23713e-07
0.0799418
0.0795709
0.0782786
0.075744
0.0708784
0.0618666
0.0461511
0.0192869
-0.0206782
-0.0790363
-0.135578
-0.170663
-0.200825
-0.223166
-0.238639
-0.249307
-0.256015
-0.260514
-0.264354
-0.268782
-0.273906
-0.278303
-0.279028
-0.272948
-0.258434
-0.23627
-0.209276
-0.181096
-0.155004
-0.133235
-0.116704
-0.105051
-0.096916
-0.0904385
-0.0839318
-0.0765127
-0.0681236
-0.0592392
-0.0504917
-0.0424052
-0.0353027
-0.0293204
-0.0244595
-0.0206432
-0.0177537
-0.0156549
-0.0142039
-0.0132516
-0.0126569
-0.0122846
-0.0120104
-0.0117348
-0.0113896
-0.0109435
-0.010398
-0.00977568
-0.0091095
-0.00843375
-0.00777808
-0.00716496
-0.00660899
-0.00611752
-0.00569183
-0.00532849
-0.00502075
-0.00475975
-0.0045357
-0.00433876
-0.00415995
-0.0039916
-0.00382783
-0.00366466
-0.00350003
-0.00333351
-0.00316592
-0.0029989
-0.00283443
-0.00267447
-0.00252074
-0.00237453
-0.00223663
-0.00210738
-0.00198667
-0.00187406
-0.0017689
-0.00167038
-0.00157767
-0.00148997
-0.00140656
-0.00132686
-0.0012504
-0.00117687
-0.00110605
-0.00103784
-0.000972186
-0.000909085
-0.000848547
-0.000790587
-0.000735212
-0.00068241
-0.000632153
-0.000584393
-0.000539068
-0.000496106
-0.000455427
-0.000416953
-0.000380609
-0.000346329
-0.00031406
-0.000283758
-0.000255397
-0.000228958
-0.000204432
-0.000181808
-0.000161061
-0.000142129
-0.0001249
-0.000109189
-9.47461e-05
-8.12864e-05
-6.85425e-05
-5.63716e-05
-4.4792e-05
-3.40046e-05
-2.43729e-05
-1.62736e-05
-9.95489e-06
-5.44481e-06
-2.54145e-06
-9.17743e-07
-2.39659e-07
-2.20561e-07
-6.23671e-07
-1.22618e-06
-1.80162e-06
-2.15383e-06
-2.17466e-06
-1.88311e-06
-1.40516e-06
-8.99774e-07
-4.89617e-07
-2.22406e-07
-8.09114e-08
-1.86686e-08
6.59422e-09
1.8907e-08
2.63568e-08
3.02507e-08
3.07537e-08
2.91155e-08
2.67137e-08
2.41144e-08
2.24845e-08
1.9018e-08
2.22469e-08
9.87188e-09
4.36838e-08
-3.34353e-08
1.85113e-07
-3.20758e-07
0.0847888
0.0847083
0.0843811
0.0832396
0.0801931
0.0732602
0.0591223
0.0319847
-0.0123925
-0.0837647
-0.150238
-0.185009
-0.215763
-0.237307
-0.251076
-0.259797
-0.264384
-0.267058
-0.26979
-0.274342
-0.280982
-0.287899
-0.291033
-0.285949
-0.270278
-0.244991
-0.213799
-0.18143
-0.152019
-0.128298
-0.111306
-0.10046
-0.0938917
-0.0890733
-0.0837556
-0.0768412
-0.0683635
-0.0590449
-0.0497619
-0.041198
-0.0337494
-0.0275666
-0.0226362
-0.018858
-0.0160907
-0.0141772
-0.0129566
-0.012258
-0.0119217
-0.0117925
-0.0117264
-0.01161
-0.0113694
-0.0109757
-0.0104409
-0.00980055
-0.00910101
-0.00838716
-0.00769609
-0.00705482
-0.00648023
-0.00598013
-0.00555503
-0.00519996
-0.00490618
-0.00466276
-0.00445785
-0.00427978
-0.00411801
-0.0039638
-0.00381069
-0.0036546
-0.00349375
-0.00332827
-0.00315968
-0.00299033
-0.00282291
-0.00265997
-0.00250367
-0.00235559
-0.00221666
-0.0020872
-0.00196701
-0.00185553
-0.00175189
-0.00165511
-0.0015642
-0.00147821
-0.00139634
-0.00131791
-0.00124246
-0.00116967
-0.00109936
-0.00103146
-0.00096598
-0.000902961
-0.00084246
-0.000784525
-0.000729186
-0.000676444
-0.000626277
-0.000578633
-0.000533443
-0.000490624
-0.000450084
-0.000411733
-0.000375484
-0.000341265
-0.000309014
-0.000278688
-0.000250256
-0.000223702
-0.000199019
-0.000176199
-0.000155224
-0.00013605
-0.000118588
-0.000102696
-8.81737e-05
-7.47893e-05
-6.23258e-05
-5.06379e-05
-3.97319e-05
-2.97663e-05
-2.09851e-05
-1.36567e-05
-7.95147e-06
-3.859e-06
-1.21649e-06
2.18788e-07
7.05956e-07
4.80833e-07
-2.22153e-07
-1.13481e-06
-1.96372e-06
-2.45963e-06
-2.50048e-06
-2.13527e-06
-1.54278e-06
-9.35158e-07
-4.63474e-07
-1.76275e-07
-4.0414e-08
8.45815e-09
2.31994e-08
3.01466e-08
3.53694e-08
3.78659e-08
3.68724e-08
3.37181e-08
3.01547e-08
2.67986e-08
2.46651e-08
2.12604e-08
2.36948e-08
1.36613e-08
4.37685e-08
-2.14763e-08
1.84513e-07
-2.86511e-07
0.0896722
0.0899254
0.0907048
0.0912267
0.0904558
0.0863923
0.0747869
0.0484507
-0.0011822
-0.0911552
-0.171108
-0.202666
-0.23263
-0.252813
-0.26483
-0.271552
-0.273758
-0.274279
-0.275633
-0.280342
-0.288968
-0.299267
-0.305719
-0.302109
-0.285022
-0.255701
-0.219101
-0.181414
-0.147886
-0.121857
-0.104495
-0.0948778
-0.0904823
-0.0878875
-0.0840945
-0.0777544
-0.0690636
-0.0591039
-0.0490874
-0.0398989
-0.0320125
-0.0255817
-0.0205651
-0.0168309
-0.0142095
-0.0125179
-0.0115719
-0.0111723
-0.0111387
-0.0112939
-0.0114687
-0.0115325
-0.0114045
-0.0110602
-0.0105256
-0.0098533
-0.00910542
-0.00833998
-0.00760294
-0.00692634
-0.00632918
-0.00581931
-0.00539591
-0.00505185
-0.00477579
-0.00455407
-0.00437224
-0.00421648
-0.0040746
-0.00393675
-0.00379579
-0.0036475
-0.00349039
-0.00332531
-0.00315469
-0.00298193
-0.00281054
-0.00264381
-0.00248437
-0.00233409
-0.002194
-0.00206441
-0.00194497
-0.00183491
-0.00173313
-0.00163844
-0.00154964
-0.00146564
-0.0013855
-0.0013085
-0.00123415
-0.00116214
-0.00109233
-0.00102473
-0.000959391
-0.000896421
-0.000835928
-0.000777997
-0.000722684
-0.000670005
-0.000619938
-0.00057243
-0.0005274
-0.000484751
-0.000444378
-0.000406175
-0.000370043
-0.0003359
-0.000303677
-0.000273326
-0.000244818
-0.000218136
-0.000193276
-0.000170234
-0.000149002
-0.000129556
-0.000111839
-9.57571e-05
-8.11715e-05
-6.79124e-05
-5.58106e-05
-4.47439e-05
-3.46735e-05
-2.56573e-05
-1.78344e-05
-1.13437e-05
-6.25327e-06
-2.53941e-06
-9.50962e-08
1.23056e-06
1.58898e-06
1.14846e-06
1.43439e-07
-1.09809e-06
-2.19743e-06
-2.83933e-06
-2.88502e-06
-2.42013e-06
-1.68763e-06
-9.6147e-07
-4.233e-07
-1.19147e-07
5.40912e-09
3.65243e-08
3.88682e-08
4.03647e-08
4.38905e-08
4.5331e-08
4.29231e-08
3.82087e-08
3.34354e-08
2.93277e-08
2.66105e-08
2.33692e-08
2.43566e-08
1.76817e-08
3.99268e-08
-5.15759e-09
1.62598e-07
-2.1488e-07
0.0944595
0.0950817
0.0970961
0.0995329
0.101548
0.101257
0.0935292
0.0697156
0.0136023
-0.10187
-0.198592
-0.225712
-0.255264
-0.272609
-0.28131
-0.284774
-0.283425
-0.280839
-0.280218
-0.285195
-0.296677
-0.311794
-0.323117
-0.321936
-0.303328
-0.268936
-0.225456
-0.181058
-0.142418
-0.113631
-0.0959863
-0.0881293
-0.0866314
-0.0869244
-0.0850645
-0.0793907
-0.0703432
-0.0594993
-0.0485124
-0.0385207
-0.0300875
-0.0233572
-0.0182423
-0.0145638
-0.0121131
-0.010678
-0.0100477
-0.0099954
-0.0103162
-0.010801
-0.01125
-0.0115128
-0.0115034
-0.0112044
-0.0106574
-0.00993598
-0.00912319
-0.00829198
-0.00749806
-0.00677886
-0.00615542
-0.0056351
-0.00521501
-0.00488503
-0.0046305
-0.0044345
-0.00427974
-0.00414987
-0.00403063
-0.00391088
-0.00378292
-0.00364262
-0.00348911
-0.00332406
-0.0031509
-0.00297402
-0.00279792
-0.00262668
-0.00246352
-0.00231064
-0.00216921
-0.00203946
-0.00192087
-0.00181242
-0.00171276
-0.00162042
-0.00153399
-0.0014522
-0.00137398
-0.00129855
-0.00122539
-0.00115422
-0.00108495
-0.00101765
-0.000952443
-0.000889507
-0.000829003
-0.000771061
-0.000715766
-0.000663147
-0.000613187
-0.000565825
-0.000520971
-0.000478513
-0.000438328
-0.000400295
-0.000364303
-0.000330254
-0.000298076
-0.000267715
-0.000239141
-0.000212339
-0.000187308
-0.000164052
-0.000142575
-0.000122875
-0.000104935
-8.87127e-05
-7.41317e-05
-6.10854e-05
-4.94473e-05
-3.90958e-05
-2.99465e-05
-2.1959e-05
-1.51254e-05
-9.44865e-06
-4.91612e-06
-1.49271e-06
8.60614e-07
2.16734e-06
2.4562e-06
1.82572e-06
5.17791e-07
-1.06539e-06
-2.44533e-06
-3.23248e-06
-3.27113e-06
-2.68946e-06
-1.80441e-06
-9.55965e-07
-3.56073e-07
-4.41343e-08
6.02012e-08
6.76256e-08
5.48871e-08
5.03007e-08
5.2273e-08
5.27771e-08
4.89384e-08
4.25979e-08
3.65676e-08
3.17098e-08
2.83247e-08
2.53148e-08
2.42127e-08
2.17848e-08
3.19005e-08
1.5046e-08
1.15939e-07
-1.037e-07
0.0990031
0.100022
0.103361
0.107955
0.113259
0.117955
0.115951
0.0986469
0.0340951
-0.125144
-0.239982
-0.249341
-0.277601
-0.293873
-0.300137
-0.300102
-0.294462
-0.287884
-0.284316
-0.288745
-0.302883
-0.323525
-0.341017
-0.343712
-0.324348
-0.28459
-0.233167
-0.180835
-0.13617
-0.104172
-0.0861993
-0.0802465
-0.0820925
-0.0857365
-0.0861978
-0.0814049
-0.0720119
-0.060146
-0.048008
-0.0370616
-0.0279831
-0.0209019
-0.015674
-0.0120668
-0.00982834
-0.00870332
-0.00843368
-0.0087644
-0.0094679
-0.010305
-0.0110469
-0.0115222
-0.0116379
-0.0113846
-0.0108214
-0.0100431
-0.00915414
-0.00824605
-0.00738663
-0.00661924
-0.00596694
-0.00543607
-0.0050208
-0.0047073
-0.00447692
-0.00430891
-0.00418261
-0.00407932
-0.00398332
-0.00388255
-0.00376864
-0.00363724
-0.00348779
-0.00332278
-0.00314683
-0.00296559
-0.00278462
-0.00260879
-0.00244189
-0.00228645
-0.00214374
-0.00201389
-0.00189622
-0.00178943
-0.0016919
-0.0016019
-0.0015178
-0.00143819
-0.00136187
-0.00128799
-0.00121602
-0.00114571
-0.001077
-0.00101004
-0.000945006
-0.000882145
-0.00082167
-0.000763751
-0.000708499
-0.00065596
-0.00060612
-0.000558915
-0.000514245
-0.000471984
-0.000431995
-0.000394142
-0.000358299
-0.00032436
-0.000292243
-0.000261894
-0.000233282
-0.000206394
-0.000181234
-0.000157815
-0.000136158
-0.000116287
-9.82204e-05
-8.19665e-05
-6.75055e-05
-5.478e-05
-4.3692e-05
-3.41102e-05
-2.58853e-05
-1.88673e-05
-1.29212e-05
-7.93136e-06
-3.8167e-06
-5.54785e-07
1.80413e-06
3.15445e-06
3.40519e-06
2.59313e-06
9.78949e-07
-9.50887e-07
-2.61266e-06
-3.5421e-06
-3.5705e-06
-2.87282e-06
-1.84401e-06
-8.88389e-07
-2.44577e-07
5.8709e-08
1.30446e-07
1.06464e-07
7.46106e-08
6.20783e-08
6.16019e-08
6.0679e-08
5.50876e-08
4.69359e-08
3.95608e-08
3.39332e-08
2.9803e-08
2.70589e-08
2.33361e-08
2.57932e-08
2.00266e-08
3.8069e-08
4.45746e-08
4.33013e-08
0.103144
0.104563
0.10927
0.116127
0.125227
0.135776
0.142246
0.134491
0.0622076
-0.135339
-0.307922
-0.295986
-0.31127
-0.3168
-0.316662
-0.311578
-0.301191
-0.290658
-0.28388
-0.287101
-0.3027
-0.32832
-0.352751
-0.361188
-0.343699
-0.300858
-0.242734
-0.182748
-0.131773
-0.0960614
-0.0770678
-0.0721031
-0.0762915
-0.0828225
-0.085691
-0.0822814
-0.0731044
-0.0606039
-0.0474704
-0.0355817
-0.0258306
-0.0183845
-0.0130567
-0.00954982
-0.0075496
-0.00674648
-0.00684934
-0.00754401
-0.00860057
-0.00975587
-0.0107684
-0.0114514
-0.0117049
-0.0115227
-0.0109632
-0.0101414
-0.00918628
-0.00820685
-0.00728401
-0.00646921
-0.0057886
-0.00524764
-0.00483731
-0.00453939
-0.00433086
-0.00418747
-0.00408624
-0.00400663
-0.00393119
-0.00384702
-0.00374562
-0.00362286
-0.00347854
-0.00331562
-0.00313924
-0.0029557
-0.0027714
-0.00259202
-0.00242204
-0.00226434
-0.00212037
-0.00199025
-0.00187316
-0.00176759
-0.00167171
-0.00158358
-0.00150139
-0.00142363
-0.00134898
-0.00127652
-0.0012057
-0.00113626
-0.00106821
-0.00100169
-0.000936954
-0.000874286
-0.000813941
-0.000756123
-0.000700968
-0.000648538
-0.000598827
-0.000551774
-0.000507272
-0.000465189
-0.000425378
-0.00038769
-0.000351991
-0.000318167
-0.000286131
-0.000255826
-0.000227221
-0.000200309