/*--------------------------------*- C++ -*----------------------------------*\
  =========                 |
  \\      /  F ield         | OpenFOAM: The Open Source CFD Toolbox
   \\    /   O peration     | Website:  https://openfoam.org
    \\  /    A nd           | Version:  11
     \\/     M anipulation  |
\*---------------------------------------------------------------------------*/
FoamFile
{
    format      ascii;
    class       volVectorField;
    location    "18.465208";
    object      U_0;
}
// * * * * * * * * * * * * * * * * * * * * * * * * * * * * * * * * * * * * * //

dimensions      [0 1 -1 0 0 0 0];

internalField   nonuniform List<vector> 
7132
(
(1.0001 -0.000203443 4.19607e-18)
(1.00157 -0.000614292 1.33274e-17)
(1.00493 -0.00106361 1.33183e-17)
(1.01011 -0.00156904 1.61572e-17)
(1.01745 -0.00213637 2.16636e-17)
(1.02719 -0.00274139 2.14961e-17)
(1.0394 -0.00333475 1.94026e-17)
(1.05391 -0.00382087 1.71316e-17)
(1.07006 -0.00409533 1.48184e-17)
(1.08681 -0.0040445 1.28417e-17)
(1.10259 -0.0035963 1.15029e-17)
(1.11579 -0.0027995 1.08493e-17)
(1.12515 -0.00170832 1.0685e-17)
(1.12961 -0.000393765 1.08824e-17)
(1.12845 0.00104859 8.88837e-18)
(1.12136 0.00246298 6.81489e-18)
(1.10885 0.00361822 5.48089e-18)
(1.09244 0.00429628 5.91641e-18)
(1.07442 0.00436266 4.44864e-18)
(1.05741 0.00378143 4.36113e-18)
(1.04401 0.00261429 4.25516e-18)
(1.03637 0.00101855 3.88963e-18)
(1.03582 -0.000750382 3.81843e-18)
(1.04248 -0.00232764 -1.04545e-17)
(1.05474 -0.003281 -4.99285e-17)
(1.06917 -0.00326226 -6.06535e-17)
(1.08133 -0.00221219 -3.08517e-17)
(1.0873 -0.000438815 -6.0874e-18)
(1.0851 0.00153441 1.03376e-17)
(1.07507 0.00321754 4.54443e-17)
(1.05923 0.00430646 -1.19576e-17)
(1.04036 0.0046794 -4.24599e-16)
(1.02145 0.00432202 -3.11109e-16)
(1.0054 0.00326364 4.04629e-15)
(0.99495 0.00156659 1.22904e-14)
(0.992519 -0.000627735 -1.50481e-14)
(0.999766 -0.00301073 -2.04622e-13)
(1.01666 -0.00505042 -6.4739e-13)
(1.04052 -0.00610206 -1.11524e-12)
(1.06605 -0.00570626 -1.19285e-12)
(1.08682 -0.00388485 -8.29685e-13)
(1.09766 -0.0011789 -3.77725e-13)
(1.09653 0.00162489 -9.8816e-14)
(1.08467 0.00385939 1.85802e-14)
(1.06543 0.00518386 4.45227e-14)
(1.04283 0.00554892 -8.09256e-15)
(1.02062 0.00504379 -1.63237e-13)
(1.00204 0.00376657 -2.95079e-13)
(0.990029 0.00179561 2.46764e-13)
(0.987267 -0.000730089 3.20318e-12)
(0.995642 -0.00347215 1.09831e-11)
(1.01513 -0.00582657 2.346e-11)
(1.04269 -0.00706473 3.52294e-11)
(1.07233 -0.00666628 3.87021e-11)
(1.09675 -0.00463462 3.16548e-11)
(1.11 -0.00155182 1.97024e-11)
(1.10948 0.00168661 9.71834e-12)
(1.09648 0.00427186 3.27902e-12)
(1.07501 0.0057629 2.36988e-13)
(1.04994 0.0061043 6.47591e-13)
(1.0257 0.00545776 2.41525e-12)
(1.0058 0.00401228 -3.7611e-12)
(0.993117 0.00190598 -3.72382e-11)
(0.990098 -0.000700628 -1.21156e-10)
(0.998386 -0.00347335 -2.67097e-10)
(1.01778 -0.00583893 -4.58232e-10)
(1.0453 -0.00712065 -6.44154e-10)
(1.07524 -0.00683154 -7.60233e-10)
(1.10062 -0.0049406 -7.6236e-10)
(1.11544 -0.00193412 -6.49903e-10)
(1.11661 0.00136892 -4.62617e-10)
(1.10473 0.0041378 -2.60926e-10)
(1.08343 0.00582074 -9.79379e-11)
(1.05783 0.00625646 -8.30248e-13)
(1.03292 0.00558489 2.36577e-11)
(1.01265 0.00405643 -3.17484e-11)
(0.999959 0.00189747 -1.85982e-10)
(0.997004 -0.000667388 -4.56981e-10)
(1.00496 -0.00329155 -8.37564e-10)
(1.02322 -0.00545607 -1.28055e-09)
(1.04876 -0.00659554 -1.70428e-09)
(1.07636 -0.00633687 -2.01578e-09)
(1.09995 -0.00468653 -2.13954e-09)
(1.11435 -0.00204856 -2.0397e-09)
(1.11675 0.000920284 -1.7293e-09)
(1.10724 0.0035294 -1.26864e-09)
(1.08857 0.00525557 -7.60398e-10)
(1.06507 0.00585149 -3.2749e-10)
(1.04148 0.00533805 -7.25353e-11)
(1.02199 0.00390572 -4.42715e-11)
(1.00982 0.00181135 -2.32109e-10)
(1.00715 -0.00064111 -5.85e-10)
(1.01476 -0.00305292 -1.03484e-09)
(1.03161 -0.0049349 -1.51147e-09)
(1.05451 -0.00582997 -1.95023e-09)
(1.07866 -0.00549448 -2.29606e-09)
(1.09888 -0.00401124 -2.50491e-09)
(1.11106 -0.00176078 -2.54294e-09)
(1.11313 0.000718622 -2.38679e-09)
(1.10534 0.00289874 -2.03188e-09)
(1.08985 0.00438564 -1.51773e-09)
(1.07007 0.00496775 -9.47213e-10)
(1.04988 0.00460675 -4.65136e-10)
(1.03297 0.00340124 -1.96099e-10)
(1.02243 0.00155716 -1.86364e-10)
(1.02034 -0.000614428 -3.95309e-10)
(1.02733 -0.00270004 -7.34105e-10)
(1.04213 -0.004245 -1.11267e-09)
(1.06164 -0.004882 -1.46559e-09)
(1.08159 -0.00446693 -1.75481e-09)
(1.09772 -0.00313633 -1.96026e-09)
(1.10688 -0.00125065 -2.06775e-09)
(1.10774 0.000737906 -2.05955e-09)
(1.10084 0.0024236 -1.9141e-09)
(1.08812 0.00353124 -1.62359e-09)
(1.07232 0.00392728 -1.22029e-09)
(1.05644 0.00359144 -7.85959e-10)
(1.04336 0.00259179 -4.25149e-10)
(1.03555 0.00108704 -2.16479e-10)
(1.03464 -0.000657197 -1.79596e-10)
(1.04094 -0.00228283 -2.79935e-10)
(1.05318 -0.0034156 -4.58625e-10)
(1.06864 -0.00378258 -6.61103e-10)
(1.08382 -0.00331191 -8.50166e-10)
(1.09542 -0.00215699 -1.00521e-09)
(1.1012 -0.000633267 -1.1149e-09)
(1.10043 0.000894584 -1.16918e-09)
(1.09384 0.00212131 -1.15509e-09)
(1.08316 0.00285881 -1.06105e-09)
(1.07064 0.0030338 -8.88349e-10)
(1.0586 0.00265574 -6.60904e-10)
(1.04917 0.0017942 -4.22437e-10)
(1.04413 0.000584511 -2.19669e-10)
(1.04452 -0.000756839 -8.31819e-11)
(1.05037 -0.00194837 -1.91901e-11)
(1.06043 -0.00270998 -1.47923e-11)
(1.07243 -0.00285553 -4.92107e-11)
(1.08364 -0.00236254 -1.02826e-10)
(1.09158 -0.00137945 -1.60966e-10)
(1.09476 -0.000168245 -2.13653e-10)
(1.09285 0.000985964 -2.53703e-10)
(1.08665 0.00185686 -2.75157e-10)
(1.07768 0.00231606 -2.73299e-10)
(1.06779 0.00232663 -2.4628e-10)
(1.05877 0.00191523 -1.96972e-10)
(1.05225 0.00115388 -1.33094e-10)
(1.04944 0.000163984 -6.48294e-11)
(1.05099 -0.00087392 -1.30142e-12)
(1.05663 -0.00173861 5.19143e-11)
(1.06525 -0.00222211 9.3123e-11)
(1.07478 -0.00220282 1.23284e-10)
(1.08327 -0.00169232 1.44464e-10)
(1.08848 -0.000834266 1.58758e-10)
(1.09016 0.000141496 1.67764e-10)
(1.08702 0.00101602 1.72322e-10)
(1.08221 0.00157491 1.7243e-10)
(1.07344 0.00182776 1.6749e-10)
(1.06831 0.00151674 1.56429e-10)
(1.05928 0.00129454 1.42261e-10)
(1.06025 -0.000397705 1.11252e-10)
(1.0001 -0.000608113 6.85103e-20)
(1.00156 -0.00183702 6.53097e-19)
(1.00488 -0.00318261 1.21938e-18)
(1.01003 -0.00470007 1.78025e-18)
(1.01735 -0.00640814 2.49714e-18)
(1.02711 -0.0082356 3.17626e-18)
(1.03941 -0.0100352 3.48347e-18)
(1.05409 -0.0115168 4.4587e-18)
(1.07052 -0.0123631 2.51266e-18)
(1.08762 -0.0122227 2.13274e-18)
(1.10376 -0.0108743 3.42453e-18)
(1.11726 -0.00847673 5.00014e-18)
(1.12687 -0.00519681 4.25611e-18)
(1.1315 -0.0012512 4.2765e-18)
(1.13038 0.00308225 5.09312e-18)
(1.12315 0.00734527 6.12351e-18)
(1.11028 0.010843 7.0577e-18)
(1.09335 0.0129141 7.92691e-18)
(1.07471 0.0131451 8.10144e-18)
(1.05709 0.011417 6.03785e-18)
(1.04317 0.00790491 2.21825e-18)
(1.0352 0.00307443 9.51186e-18)
(1.03463 -0.00230778 6.94935e-18)
(1.04166 -0.00713384 -3.05039e-16)
(1.05469 -0.0100742 -1.04307e-15)
(1.07012 -0.0100445 -1.30698e-15)
(1.08316 -0.00684996 -7.41797e-16)
(1.08963 -0.00143502 -1.76956e-16)
(1.08744 0.00459095 6.19716e-17)
(1.07702 0.0097265 1.02402e-16)
(1.06057 0.0130503 -3.10007e-16)
(1.041 0.0142041 -3.30498e-16)
(1.02138 0.013154 3.01787e-15)
(1.00463 0.00998795 5.11036e-16)
(0.993556 0.004879 -3.91963e-14)
(0.990722 -0.00177219 -4.67073e-14)
(0.997997 -0.00905021 4.48965e-13)
(1.01553 -0.0153297 1.98924e-12)
(1.0406 -0.0186109 3.65096e-12)
(1.06757 -0.0174548 3.72289e-12)
(1.08951 -0.0119159 2.3791e-12)
(1.1009 -0.00366061 9.99225e-13)
(1.09961 0.00489235 2.09963e-13)
(1.08708 0.0116992 -2.65725e-14)
(1.06697 0.0157291 -5.08304e-14)
(1.04348 0.0168506 -8.33934e-14)
(1.02043 0.0153504 9.64037e-14)
(1.00107 0.0115264 7.27057e-13)
(0.988372 0.00559334 -2.43356e-13)
(0.985156 -0.00206571 -9.84221e-12)
(0.993564 -0.0104478 -3.93846e-11)
(1.01376 -0.0176986 -9.28795e-11)
(1.04269 -0.0215513 -1.4836e-10)
(1.07397 -0.0203809 -1.70014e-10)
(1.09978 -0.0141944 -1.46163e-10)
(1.11369 -0.00478778 -9.58221e-11)
(1.11302 0.0050917 -4.43538e-11)
(1.09924 0.0129696 -1.12911e-11)
(1.0767 0.0175043 2.3129e-12)
(1.05057 0.0185455 7.84941e-12)
(1.02541 0.0166079 1.08549e-11)
(1.0047 0.0122752 -1.02421e-11)
(0.991266 0.00594896 -1.1804e-10)
(0.987625 -0.00192304 -4.01269e-10)
(0.995612 -0.0103596 -9.16652e-10)
(1.01525 -0.017621 -1.60696e-09)
(1.04363 -0.021622 -2.27028e-09)
(1.07486 -0.0208417 -2.64572e-09)
(1.10159 -0.0151577 -2.57221e-09)
(1.11743 -0.00604172 -2.0913e-09)
(1.11902 0.00401139 -1.40624e-09)
(1.10693 0.0124634 -7.46606e-10)
(1.08497 0.017621 -2.64036e-10)
(1.05848 0.0189888 -8.40702e-13)
(1.03264 0.017 6.77946e-11)
(1.01151 0.0124222 -3.84577e-11)
(0.99805 0.00593067 -3.42264e-10)
(0.994555 -0.00182328 -8.804e-10)
(1.00239 -0.00981001 -1.6386e-09)
(1.02108 -0.0164459 -2.50949e-09)
(1.0475 -0.0199845 -3.3126e-09)
(1.07617 -0.0192669 -3.85622e-09)
(1.10065 -0.0143068 -4.00018e-09)
(1.1156 -0.00633602 -3.70058e-09)
(1.11813 0.00265211 -3.02687e-09)
(1.10844 0.0105683 -2.13724e-09)
(1.08934 0.0158292 -1.23432e-09)
(1.06528 0.017685 -5.10745e-10)
(1.04106 0.0161934 -9.7989e-11)
(1.02093 0.0119178 -4.3907e-11)
(1.00824 0.00561396 -3.22525e-10)
(1.00532 -0.00181967 -8.57431e-10)
(1.01317 -0.00917611 -1.54082e-09)
(1.03076 -0.0149444 -2.25059e-09)
(1.05469 -0.0177022 -2.87334e-09)
(1.07981 -0.0166944 -3.32325e-09)
(1.10065 -0.0121852 -3.5453e-09)
(1.11296 -0.00535338 -3.509e-09)
(1.11473 0.00215698 -3.20617e-09)
(1.10638 0.00874942 -2.65875e-09)
(1.09027 0.0132431 -1.93991e-09)
(1.06991 0.0150106 -1.18649e-09)
(1.04921 0.0139408 -5.7103e-10)
(1.03192 0.0103221 -2.35111e-10)
(1.02118 0.00475674 -2.28571e-10)
(1.01922 -0.00183242 -4.99714e-10)
(1.02673 -0.0081902 -9.35616e-10)
(1.04241 -0.0129119 -1.41603e-09)
(1.06294 -0.0148552 -1.84983e-09)
(1.08375 -0.013575 -2.18487e-09)
(1.1003 -0.00950121 -2.3985e-09)
(1.10937 -0.00375143 -2.48118e-09)
(1.10973 0.00228959 -2.42307e-09)
(1.10208 0.00739188 -2.21162e-09)
(1.08856 0.0107297 -1.84803e-09)
(1.07206 0.0119107 -1.37347e-09)
(1.05566 0.0108815 -8.78335e-10)
(1.04231 0.00784667 -4.74551e-10)
(1.03451 0.00327691 -2.44799e-10)
(1.03395 -0.00203181 -2.07866e-10)
(1.04095 -0.00698868 -3.23538e-10)
(1.05415 -0.0104399 -5.24714e-10)
(1.07057 -0.0115415 -7.49132e-10)
(1.08646 -0.0100758 -9.54479e-10)
(1.09834 -0.00652419 -1.11785e-09)
(1.10393 -0.00186289 -1.22769e-09)
(1.10259 0.00279192 -1.275e-09)
(1.09521 0.00651338 -1.2485e-09)
(1.0837 0.00873599 -1.13851e-09)
(1.07045 0.00924528 -9.48178e-10)
(1.05788 0.00807561 -7.03328e-10)
(1.04819 0.00543833 -4.49336e-10)
(1.04322 0.00174058 -2.33875e-10)
(1.04404 -0.00236162 -8.75648e-11)
(1.05063 -0.00600534 -1.61199e-11)
(1.06163 -0.00832564 -6.21949e-12)
(1.07453 -0.00874834 -3.71299e-11)
(1.08636 -0.00720965 -8.95882e-11)
(1.09453 -0.00417532 -1.49087e-10)
(1.09749 -0.000456392 -2.05245e-10)
(1.09503 0.00307325 -2.49932e-10)
(1.08808 0.00572484 -2.76017e-10)
(1.07832 0.0071116 -2.77755e-10)
(1.06772 0.00712619 -2.52667e-10)
(1.05819 0.00585275 -2.03446e-10)
(1.05141 0.00351024 -1.37919e-10)
(1.04869 0.000466846 -6.64681e-11)
(1.05068 -0.00272567 1.5777e-12)
(1.05706 -0.00538422 6.02906e-11)
(1.06658 -0.00686367 1.07343e-10)
(1.07696 -0.00678738 1.42801e-10)
(1.08606 -0.00519586 1.67809e-10)
(1.09148 -0.002538 1.83832e-10)
(1.09299 0.000473254 1.92335e-10)
(1.08933 0.00316563 1.94507e-10)
(1.08381 0.00488441 1.90996e-10)
(1.07422 0.00565752 1.81907e-10)
(1.06845 0.00471049 1.66839e-10)
(1.05869 0.0040243 1.49236e-10)
(1.05955 -0.00116335 1.15206e-10)
(1.0001 -0.00100644 9.29236e-22)
(1.00152 -0.00304167 5.77984e-21)
(1.00478 -0.00527729 8.84617e-21)
(1.00986 -0.00781117 2.78183e-21)
(1.01714 -0.01068 -7.2028e-20)
(1.02693 -0.0137695 1.54986e-20)
(1.0394 -0.0168363 -1.83425e-19)
(1.05444 -0.0193842 -1.65616e-18)
(1.07143 -0.0208707 1.29439e-20)
(1.08927 -0.0206704 5.94022e-18)
(1.10613 -0.0183947 2.47199e-18)
(1.12023 -0.0143468 -1.0211e-17)
(1.1303 -0.00881155 -1.60034e-17)
(1.13523 -0.00213542 -1.0857e-17)
(1.13417 0.00523837 -3.11501e-18)
(1.12664 0.0125351 3.27559e-18)
(1.11304 0.0185369 8.42463e-18)
(1.09502 0.0220906 1.2062e-17)
(1.07514 0.0224924 8.77982e-18)
(1.05631 0.0195489 -7.33949e-18)
(1.04141 0.013557 3.93083e-18)
(1.03287 0.00528817 -1.46406e-17)
(1.03235 -0.00398242 -5.46664e-16)
(1.04025 -0.0123626 1.09918e-15)
(1.05493 -0.0175185 8.0649e-15)
(1.0724 -0.0175079 1.01237e-14)
(1.08719 -0.0119639 4.78157e-15)
(1.09452 -0.00256149 8.80429e-16)
(1.09213 0.00785105 1.36793e-16)
(1.08073 0.0166596 -8.28504e-16)
(1.06288 0.0223163 -2.90259e-15)
(1.04184 0.0242693 1.19034e-14)
(1.02078 0.0225047 4.24223e-14)
(1.00272 0.0171738 -1.60908e-13)
(0.990557 0.00852381 -8.94302e-13)
(0.98711 -0.00283951 5.6414e-13)
(0.99468 -0.015406 1.49654e-11)
(1.01376 -0.0263571 5.10143e-11)
(1.04151 -0.0321412 8.99717e-11)
(1.07148 -0.0301729 9.65675e-11)
(1.09567 -0.020538 6.64286e-11)
(1.10784 -0.00620318 2.91477e-11)
(1.10585 0.00855513 6.8267e-12)
(1.09163 0.0201853 -9.8818e-13)
(1.06951 0.0269777 -1.9855e-12)
(1.04413 0.0288095 -9.8338e-13)
(1.01943 0.0262445 2.85991e-12)
(0.998644 0.0197941 9.17171e-12)
(0.984753 0.00975604 -9.04719e-12)
(0.980759 -0.00331534 -1.37766e-10)
(0.989156 -0.017766 -5.00358e-10)
(1.01049 -0.0303896 -1.10888e-09)
(1.04181 -0.0371834 -1.71257e-09)
(1.07631 -0.0352262 -1.93629e-09)
(1.1051 -0.024489 -1.64127e-09)
(1.12065 -0.00814845 -1.04818e-09)
(1.11979 0.00893686 -4.84931e-10)
(1.10435 0.0224401 -1.31794e-10)
(1.0795 0.0300905 1.54621e-11)
(1.05114 0.0317419 5.11402e-11)
(1.02412 0.0283902 4.50139e-11)
(1.00189 0.0210797 -3.92065e-11)
(0.987123 0.0104461 -3.68247e-10)
(0.982407 -0.00286272 -1.16295e-09)
(0.989979 -0.0172774 -2.51262e-09)
(1.0103 -0.029848 -4.20514e-09)
(1.0405 -0.0369364 -5.75701e-09)
(1.07423 -0.0358262 -6.62838e-09)
(1.10339 -0.0262236 -6.4754e-09)
(1.12092 -0.0106305 -5.33903e-09)
(1.12309 0.00663893 -3.64987e-09)
(1.11046 0.0211746 -1.9746e-09)
(1.08713 0.0300417 -7.26012e-10)
(1.05891 0.0324082 -3.66523e-11)
(1.03133 0.0290647 1.58196e-10)
(1.00865 0.0213501 -5.73619e-11)
(0.99397 0.0103768 -6.74298e-10)
(0.989873 -0.00282839 -1.69845e-09)
(0.998093 -0.0165475 -3.02787e-09)
(1.01827 -0.0280172 -4.42487e-09)
(1.04691 -0.0341497 -5.61552e-09)
(1.07776 -0.0329186 -6.38555e-09)
(1.10372 -0.0243958 -6.58956e-09)
(1.11913 -0.0107694 -6.14564e-09)
(1.12123 0.00451938 -5.09169e-09)
(1.11053 0.0179323 -3.63885e-09)
(1.09019 0.026829 -2.12627e-09)
(1.06484 0.0299829 -8.97479e-10)
(1.0394 0.0275046 -1.85925e-10)
(1.01822 0.0203134 -7.18877e-11)
(1.00487 0.00961983 -5.00763e-10)
(1.00202 -0.00310109 -1.31949e-09)
(1.01092 -0.0157664 -2.31588e-09)
(1.03044 -0.0256962 -3.27616e-09)
(1.05667 -0.0303667 -4.04836e-09)
(1.08371 -0.0284801 -4.56317e-09)
(1.10552 -0.0205756 -4.7978e-09)
(1.11765 -0.0087839 -4.72799e-09)
(1.11832 0.00402236 -4.32275e-09)
(1.10838 0.0151361 -3.58874e-09)
(1.09063 0.0226191 -2.61867e-09)
(1.06888 0.0254874 -1.60182e-09)
(1.04715 0.0235951 -7.74511e-10)
(1.02923 0.017414 -3.26173e-10)
(1.01843 0.00790977 -3.19006e-10)
(1.01714 -0.00338354 -6.7459e-10)
(1.02614 -0.0142971 -1.22911e-09)
(1.04389 -0.0223563 -1.81444e-09)
(1.06656 -0.0255534 -2.31588e-09)
(1.08894 -0.0231432 -2.68336e-09)
(1.1061 -0.0159419 -2.90671e-09)
(1.11471 -0.00595552 -2.98275e-09)
(1.11374 0.00439422 -2.8974e-09)
(1.1043 0.0130114 -2.63214e-09)
(1.08896 0.0185379 -2.18896e-09)
(1.07094 0.0203703 -1.62006e-09)
(1.0535 0.0184625 -1.03468e-09)
(1.0397 0.0131679 -5.63593e-10)
(1.03214 0.00527019 -2.99433e-10)
(1.0326 -0.00387799 -2.58138e-10)
(1.04132 -0.0123828 -3.8744e-10)
(1.05659 -0.0182248 -6.0726e-10)
(1.07495 -0.0199416 -8.47917e-10)
(1.09215 -0.0171952 -1.06596e-09)
(1.10439 -0.0108829 -1.23986e-09)
(1.10937 -0.00274832 -1.35785e-09)
(1.10667 0.00526068 -1.40826e-09)
(1.09753 0.0115645 -1.37692e-09)
(1.08425 0.0152323 -1.25283e-09)
(1.0695 0.0159419 -1.04068e-09)
(1.05589 0.0137822 -7.70286e-10)
(1.0458 0.00912298 -4.91712e-10)
(1.04116 0.00266144 -2.55702e-10)
(1.04306 -0.0044648 -9.33209e-11)
(1.05135 -0.0107429 -9.07481e-12)
(1.06431 -0.0146566 1.13941e-11)
(1.07896 -0.0152186 -1.14184e-11)
(1.09193 -0.0123589 -5.95134e-11)
(1.10037 -0.00694075 -1.1955e-10)
(1.10274 -0.000413459 -1.8112e-10)
(1.09902 0.00569579 -2.34573e-10)
(1.09045 0.0102106 -2.70337e-10)
(1.07904 0.0124939 -2.80189e-10)
(1.06702 0.0123912 -2.59957e-10)
(1.05651 0.0100659 -2.11752e-10)
(1.04937 0.00589989 -1.43677e-10)
(1.04698 0.000532833 -6.67471e-11)
(1.05002 -0.00506502 8.99037e-12)
(1.05802 -0.00968332 7.67624e-11)
(1.06938 -0.0121835 1.3314e-10)
(1.0814 -0.0119173 1.769e-10)
(1.09156 -0.00898891 2.07962e-10)
(1.09726 -0.00422458 2.26924e-10)
(1.09824 0.00110478 2.34946e-10)
(1.09342 0.00581101 2.33522e-10)
(1.08643 0.00878925 2.24127e-10)
(1.07517 0.0100599 2.07908e-10)
(1.06817 0.00839888 1.85647e-10)
(1.05703 0.00708292 1.61669e-10)
(1.0579 -0.00194309 1.2203e-10)
(1.0001 -0.00139387 -3.22763e-20)
(1.00147 -0.00421467 -7.23236e-19)
(1.00462 -0.00732917 -1.3863e-18)
(1.00959 -0.0108857 -2.32579e-18)
(1.0168 -0.0149479 -3.18044e-18)
(1.02662 -0.0193657 -3.08458e-18)
(1.03933 -0.0238035 -1.02163e-17)
(1.05491 -0.0275404 -5.83344e-18)
(1.07276 -0.0297878 3.069e-17)
(1.09173 -0.0295801 2.58496e-18)
(1.10971 -0.0263318 -1.44861e-16)
(1.12474 -0.0205617 -2.56047e-16)
(1.13552 -0.0126904 -1.86828e-16)
(1.14093 -0.00319601 -3.37733e-17)
(1.14 0.00735941 5.28256e-17)
(1.13201 0.0179052 7.44956e-17)
(1.11724 0.0266396 6.90649e-17)
(1.09752 0.0318447 4.80675e-17)
(1.07571 0.0324847 -2.75591e-17)
(1.05502 0.0282741 -8.03864e-17)
(1.0386 0.0196232 2.32673e-16)
(1.02917 0.00760211 -1.84695e-15)
(1.02872 -0.00599717 -5.32278e-15)
(1.03795 -0.0184253 5.42541e-14)
(1.05523 -0.0261611 2.10866e-13)
(1.07595 -0.0261899 2.80791e-13)
(1.09352 -0.017907 1.7024e-13)
(1.10216 -0.00388908 4.6671e-14)
(1.09939 0.011502 3.79468e-16)
(1.08634 0.0243589 -1.3746e-14)
(1.06628 0.0324954 -8.88919e-15)
(1.04293 0.0352505 1.06339e-13)
(1.0197 0.0327091 1.21098e-13)
(0.99966 0.0251016 -1.31537e-12)
(0.985841 0.012689 -3.65751e-12)
(0.98146 -0.00382329 8.47608e-12)
(0.989525 -0.0223674 6.97563e-11)
(1.01114 -0.0387482 1.90006e-10)
(1.04323 -0.0474838 3.13798e-10)
(1.07802 -0.0445458 3.52987e-10)
(1.10572 -0.0300901 2.72656e-10)
(1.11895 -0.00872547 1.40207e-10)
(1.11559 0.0130204 4.35314e-11)
(1.09851 0.0298729 4.39332e-14)
(1.07313 0.0394757 -9.96015e-12)
(1.04479 0.041884 -4.619e-12)
(1.01762 0.0380894 1.58328e-11)
(0.994742 0.0288652 3.46891e-11)
(0.978975 0.0145419 -8.85533e-11)
(0.973363 -0.0042523 -7.01626e-10)
(0.980839 -0.0252987 -2.17269e-09)
(1.00276 -0.044026 -4.38673e-09)
(1.03679 -0.0544778 -6.48652e-09)
(1.07578 -0.0520435 -7.34846e-09)
(1.10948 -0.0363651 -6.46097e-09)
(1.12854 -0.0121129 -4.37312e-09)
(1.12854 0.0132649 -2.1948e-09)
(1.11138 0.033122 -6.96708e-10)
(1.08338 0.0441042 1.95361e-12)
(1.0517 0.0462247 1.88252e-10)
(1.02187 0.0412254 1.44429e-10)
(0.997307 0.0307734 -1.29372e-10)
(0.980504 0.0156971 -9.25596e-10)
(0.97428 -0.00333881 -2.54988e-09)
(0.981625 -0.0242961 -4.935e-09)
(1.00359 -0.0428858 -7.5543e-09)
(1.03699 -0.0536019 -9.74914e-09)
(1.07437 -0.0522969 -1.10141e-08)
(1.10651 -0.0384969 -1.09948e-08)
(1.12574 -0.0158741 -9.54052e-09)
(1.12821 0.00926262 -6.96572e-09)
(1.11461 0.0304542 -4.06418e-09)
(1.08939 0.0433908 -1.66942e-09)
(1.05884 0.0468763 -2.25061e-10)
(1.02889 0.0421247 2.4822e-10)
(1.0041 0.0311023 -1.0627e-10)
(0.987921 0.0153223 -1.16245e-09)
(0.983472 -0.00387492 -2.75199e-09)
(0.992992 -0.0240047 -4.55461e-09)
(1.01604 -0.04086 -6.18263e-09)
(1.04825 -0.0497391 -7.38901e-09)
(1.0822 -0.0476794 -8.12701e-09)
(1.1099 -0.0349844 -8.39377e-09)
(1.12537 -0.015073 -8.07474e-09)
(1.12618 0.00696734 -7.01966e-09)
(1.11344 0.0260971 -5.29222e-09)
(1.09089 0.038672 -3.27032e-09)
(1.0635 0.0430705 -1.48923e-09)
(1.03632 0.0394947 -3.91941e-10)
(1.01384 0.0291815 -1.71074e-10)
(0.999919 0.0137215 -7.46423e-10)
(0.997701 -0.00483822 -1.8308e-09)
(1.00865 -0.0233858 -3.0515e-09)
(1.03128 -0.0378232 -4.10148e-09)
(1.06079 -0.044347 -4.84255e-09)
(1.09035 -0.041125 -5.29158e-09)
(1.11323 -0.0291478 -5.51185e-09)
(1.12482 -0.0117402 -5.50081e-09)
(1.12363 0.00680515 -5.16799e-09)
(1.11114 0.0225983 -4.43041e-09)
(1.09079 0.0329912 -3.33459e-09)
(1.06685 0.0367466 -2.10339e-09)
(1.04357 0.0337581 -1.06199e-09)
(1.02488 0.0246796 -4.83233e-10)
(1.01427 0.0108083 -4.56338e-10)
(1.01433 -0.00568162 -8.66058e-10)
(1.0258 -0.0215679 -1.4843e-09)
(1.04666 -0.0331255 -2.09878e-09)
(1.07223 -0.0373848 -2.59192e-09)
(1.09659 -0.0333485 -2.94026e-09)
(1.11433 -0.022378 -3.16343e-09)
(1.12207 -0.0075583 -3.26853e-09)
(1.11908 0.00750324 -3.2248e-09)
(1.107 0.0197804 -2.98275e-09)
(1.089 0.0274057 -2.52078e-09)
(1.06875 0.0296371 -1.89102e-09)
(1.04982 0.0264996 -1.22578e-09)
(1.03547 0.018524 -6.85424e-10)
(1.02848 0.00682619 -3.79707e-10)
(1.03066 -0.00661708 -3.22041e-10)
(1.04203 -0.0189815 -4.46204e-10)
(1.0603 -0.0272572 -6.60249e-10)
(1.08128 -0.0293231 -8.92093e-10)
(1.10009 -0.0247936 -1.10387e-09)
(1.1126 -0.0151287 -1.28126e-09)
(1.11655 -0.00299536 -1.41478e-09)
(1.11183 0.00871473 -1.48745e-09)
(1.10016 0.0177236 -1.47502e-09)
(1.08434 0.0227525 -1.35743e-09)
(1.06745 0.0234209 -1.13632e-09)
(1.05244 0.0199185 -8.45417e-10)
(1.0419 0.0128057 -5.4218e-10)
(1.03791 0.00311204 -2.83233e-10)
(1.04156 -0.00745922 -1.01631e-10)
(1.05241 -0.0166282 -1.11024e-12)
(1.06815 -0.0221334 3.37637e-11)
(1.08517 -0.0225605 2.33256e-11)
(1.09954 -0.0179103 -1.59691e-11)
(1.10815 -0.00957482 -7.28925e-11)
(1.10952 0.000226785 -1.38343e-10)
(1.10393 0.00922261 -2.01941e-10)
(1.09304 0.015713 -2.51189e-10)
(1.0793 0.0188229 -2.73922e-10)
(1.06531 0.0183862 -2.62656e-10)
(1.0535 0.0146788 -2.17885e-10)
(1.04596 0.00827688 -1.478e-10)
(1.04422 0.000141396 -6.45317e-11)
(1.04893 -0.00825158 2.03543e-11)
(1.05933 -0.0150574 9.8461e-11)
(1.07327 -0.0185665 1.64844e-10)
(1.08747 -0.0178548 2.17091e-10)
(1.09892 -0.0131606 2.54342e-10)
(1.10479 -0.00580542 2.76681e-10)
(1.10489 0.00227468 2.84904e-10)
(1.09834 0.00928205 2.80413e-10)
(1.08925 0.0136591 2.65057e-10)
(1.07564 0.0153626 2.40824e-10)
(1.06698 0.0128559 2.0987e-10)
(1.05394 0.0105872 1.77788e-10)
(1.05508 -0.00279291 1.31018e-10)
(1.00009 -0.00176482 -2.82274e-18)
(1.00139 -0.00533999 -1.08584e-17)
(1.0044 -0.00931499 -1.06571e-17)
(1.00919 -0.0139002 -1.46211e-17)
(1.01627 -0.0191992 -1.22389e-17)
(1.0261 -0.0250385 -1.90613e-17)
(1.03912 -0.0309974 -4.93246e-17)
(1.0554 -0.036105 1.10525e-16)
(1.07443 -0.0392973 7.77333e-17)
(1.09499 -0.0391576 -6.99679e-16)
(1.11453 -0.0348566 -1.10287e-15)
(1.13079 -0.0272409 -5.02149e-16)
(1.14252 -0.0168861 2.71491e-16)
(1.1486 -0.0043518 6.22854e-16)
(1.14789 0.00973672 5.15338e-16)
(1.13932 0.023976 2.56778e-16)
(1.12299 0.0358212 3.07112e-17)
(1.10095 0.042872 -2.31949e-16)
(1.07647 0.0437483 -6.52423e-16)
(1.05319 0.038104 -7.2764e-17)
(1.03463 0.0264813 -1.41612e-15)
(1.02389 0.0102313 -1.10042e-14)
(1.02344 -0.008367 4.33479e-14)
(1.03448 -0.0256208 6.68942e-14)
(1.05545 -0.0365334 -2.30224e-13)
(1.08086 -0.0366661 -2.27739e-13)
(1.10243 -0.0250632 9.07564e-14)
(1.11292 -0.00547599 1.32775e-13)
(1.1095 0.0157795 2.73374e-14)
(1.09404 0.0332212 -5.2397e-14)
(1.07083 0.0440214 4.10733e-14)
(1.04429 0.0475542 3.37022e-13)
(1.01811 0.0441353 -6.16581e-13)
(0.995369 0.0341029 -3.50037e-12)
(0.979238 0.0176283 3.24364e-12)
(0.973437 -0.00466878 2.91247e-11)
(0.981836 -0.0302322 -6.90442e-12)
(1.00632 -0.0532083 -2.40747e-10)
(1.04393 -0.0655963 -5.3355e-10)
(1.08565 -0.0614323 -5.36513e-10)
(1.11903 -0.0409913 -2.5582e-10)
(1.13434 -0.0111067 -1.09353e-11)
(1.12919 0.0188004 6.28612e-11)
(1.10794 0.0414201 3.28523e-11)
(1.07786 0.0538313 -4.76371e-12)
(1.04542 0.056554 -2.57896e-12)
(1.01498 0.0512639 5.1968e-11)
(0.989277 0.0391183 5.32609e-11)
(0.970642 0.020453 -4.40777e-10)
(0.962061 -0.00423056 -2.18524e-09)
(0.967442 -0.0324513 -5.5823e-09)
(0.989711 -0.0583652 -9.94846e-09)
(1.02715 -0.0737091 -1.37725e-08)
(1.07169 -0.0715889 -1.55511e-08)
(1.11141 -0.0508644 -1.44091e-08)
(1.13524 -0.0176524 -1.06941e-08)
(1.13735 0.0175386 -6.06681e-09)
(1.11918 0.0450234 -2.33676e-09)
(1.0879 0.0599239 -2.78075e-10)
(1.0522 0.0624875 4.16498e-10)
(1.01867 0.055579 3.44411e-10)
(0.990944 0.041759 -3.18975e-10)
(0.971514 0.0219654 -1.84784e-09)
(0.963862 -0.00341189 -4.38135e-09)
(0.972039 -0.0319221 -7.43514e-09)
(0.997357 -0.0575336 -1.01819e-08)
(1.03554 -0.072345 -1.21342e-08)
(1.07743 -0.070602 -1.32844e-08)
(1.11248 -0.0519011 -1.35924e-08)
(1.13263 -0.0214539 -1.26488e-08)
(1.13435 0.0122317 -1.01471e-08)
(1.11889 0.0405934 -6.58778e-09)
(1.09116 0.0579201 -3.10965e-09)
(1.05783 0.0626439 -7.06815e-10)
(1.02514 0.0564232 2.26619e-10)
(0.997954 0.0418335 -2.24188e-10)
(0.980323 0.0206959 -1.73439e-09)
(0.97615 -0.0053547 -3.79863e-09)
(0.988084 -0.0328241 -5.80103e-09)
(1.01513 -0.05565 -7.27396e-09)
(1.05167 -0.0672471 -8.12332e-09)
(1.089 -0.0637548 -8.56256e-09)
(1.11833 -0.0459753 -8.80702e-09)
(1.13346 -0.0188933 -8.78058e-09)
(1.1323 0.0105023 -8.12502e-09)
(1.11666 0.0355879 -6.58881e-09)
(1.09105 0.0517978 -4.39649e-09)
(1.06097 0.0572557 -2.20776e-09)
(1.03167 0.0523258 -7.37089e-10)
(1.00781 0.0385105 -3.74252e-10)
(0.993663 0.0176919 -1.03661e-09)
(0.992809 -0.00746094 -2.27797e-09)
(1.00672 -0.0325532 -3.56029e-09)
(1.03317 -0.0517714 -4.52351e-09)
(1.06629 -0.0599102 -5.08966e-09)
(1.09832 -0.0547011 -5.38057e-09)
(1.12204 -0.0378041 -5.55125e-09)
(1.13278 -0.0139756 -5.63816e-09)
(1.12933 0.0108725 -5.50477e-09)
(1.11374 0.031562 -4.94883e-09)
(1.09018 0.0447597 -3.9072e-09)
(1.06352 0.0490877 -2.58687e-09)
(1.03836 0.0445721 -1.39355e-09)
(1.01887 0.0320647 -6.99427e-10)
(1.00882 0.0131888 -6.31979e-10)
(1.01096 -0.00914814 -1.04189e-09)
(1.02571 -0.0304588 -1.6468e-09)
(1.05024 -0.0455745 -2.21107e-09)
(1.07893 -0.0505271 -2.63226e-09)
(1.10514 -0.0441926 -2.92001e-09)
(1.12315 -0.028673 -3.12541e-09)
(1.12965 -0.00831886 -3.27119e-09)
(1.12423 0.0119337 -3.31417e-09)
(1.10907 0.0280504 -3.16467e-09)
(1.08794 0.0376619 -2.75682e-09)
(1.06506 0.0399552 -2.12425e-09)
(1.04442 0.0350962 -1.41552e-09)
(1.02959 0.0238348 -8.23346e-10)
(1.02357 0.00767598 -4.78823e-10)
(1.02815 -0.0106498 -3.95748e-10)
(1.04291 -0.0272033 -4.97592e-10)
(1.06472 -0.0378546 -6.85282e-10)
(1.08851 -0.0398366 -8.87896e-10)
(1.10879 -0.0328528 -1.07497e-09)
(1.12126 -0.0191089 -1.24184e-09)
(1.12378 -0.00235575 -1.38573e-09)
(1.1166 0.0134595 -1.48774e-09)
(1.10195 0.0253108 -1.51158e-09)
(1.08317 0.0315829 -1.42173e-09)
(1.06383 0.0318848 -1.21015e-09)
(1.04726 0.0265555 -9.11225e-10)
(1.03638 0.0163913 -5.90159e-10)
(1.03346 0.00283209 -3.11504e-10)
(1.03951 -0.0117143 -1.12286e-10)
(1.05358 -0.0240394 3.27586e-12)
(1.07261 -0.0310418 5.15035e-11)
(1.09217 -0.0309091 5.3444e-11)
(1.10782 -0.0238429 2.51712e-11)
(1.1163 -0.0119291 -2.4068e-11)
(1.11628 0.00170198 -8.80395e-11)
(1.10837 0.0139401 -1.57925e-10)
(1.09473 0.022525 -2.19676e-10)
(1.07826 0.0263546 -2.5688e-10)
(1.06202 0.0252854 -2.57255e-10)
(1.04881 0.0197425 -2.18152e-10)
(1.04101 0.010541 -1.47127e-10)
(1.04033 -0.00095333 -5.76622e-11)
(1.04732 -0.0126229 3.63199e-11)
(1.06072 -0.0218461 1.23962e-10)
(1.07768 -0.0262667 1.9852e-10)
(1.09421 -0.0247172 2.56865e-10)
(1.10684 -0.0176862 2.98296e-10)
(1.11259 -0.00713786 3.23215e-10)
(1.11142 0.00420841 3.32264e-10)
(1.1027 0.0138477 3.26252e-10)
(1.09109 0.019772 3.06541e-10)
(1.07472 0.021803 2.75268e-10)
(1.06417 0.0182627 2.35788e-10)
(1.04898 0.014578 1.95172e-10)
(1.05085 -0.00382084 1.41144e-10)
(1.00009 -0.0021128 3.69673e-18)
(1.00129 -0.00639859 1.34641e-17)
(1.00408 -0.0112062 1.08453e-17)
(1.00863 -0.0168231 1.40404e-17)
(1.01551 -0.0234107 3.90118e-17)
(1.02531 -0.030792 -8.0819e-17)
(1.03866 -0.0384735 1.76003e-16)
(1.05581 -0.045205 6.12224e-16)
(1.07637 -0.0496096 -2.38416e-15)
(1.09906 -0.0496452 -3.6806e-15)
(1.12064 -0.0441738 6.13008e-15)
(1.13848 -0.0345666 2.06413e-14)
(1.15146 -0.0215979 2.2814e-14)
(1.15848 -0.00591466 1.20463e-14)
(1.15818 0.0119437 2.26482e-15)
(1.14889 0.0303271 -2.48551e-15)
(1.13044 0.0457931 -3.95418e-15)
(1.10527 0.0550704 -4.80932e-15)
(1.07726 0.056342 -3.49497e-15)
(1.05056 0.0491829 -1.15256e-15)
(1.02917 0.0342669 -3.90562e-14)
(1.01662 0.013199 1.13998e-13)
(1.01603 -0.0112852 5.56065e-13)
(1.02938 -0.0344345 -3.53581e-12)
(1.05533 -0.0493682 -1.51065e-11)
(1.08721 -0.0496944 -2.08913e-11)
(1.11433 -0.0339265 -1.3098e-11)
(1.1273 -0.00739789 -3.68726e-12)
(1.12287 0.0209644 -1.21997e-13)
(1.10403 0.0437031 2.94131e-13)
(1.07657 0.0573686 4.97305e-13)
(1.04589 0.0616067 -3.60999e-13)
(1.01593 0.0571676 -4.37086e-12)
(0.989751 0.0445365 8.84359e-12)
(0.970574 0.0236607 6.17619e-11)
(0.962384 -0.00510385 -7.61402e-11)
(0.969442 -0.0387847 -1.14148e-09)
(0.994646 -0.0697887 -3.58911e-09)
(1.03676 -0.0871727 -6.23829e-09)
(1.0871 -0.0821268 -6.9466e-09)
(1.13018 -0.0544365 -5.12721e-09)
(1.15141 -0.0137776 -2.43422e-09)
(1.14606 0.0262487 -5.98025e-10)
(1.12005 0.0555411 7.32899e-11)
(1.08382 0.0707248 1.1975e-10)
(1.04601 0.0733159 7.37638e-11)
(1.01142 0.0661589 1.23065e-10)
(0.982053 0.0510342 -4.88517e-11)
(0.959383 0.028158 -1.36363e-09)
(0.946808 -0.00263612 -4.7489e-09)
(0.950359 -0.0391117 -9.91202e-09)
(0.974788 -0.0738856 -1.52428e-08)
(1.01772 -0.0954932 -1.92964e-08)
(1.06871 -0.0941912 -2.14587e-08)
(1.11389 -0.0681255 -2.10957e-08)
(1.14147 -0.025048 -1.75281e-08)
(1.14529 0.0213283 -1.15031e-08)
(1.12636 0.057854 -5.39611e-09)
(1.0921 0.0775796 -1.24814e-09)
(1.05225 0.0808236 5.40334e-10)
(1.01448 0.0718479 5.98754e-10)
(0.982959 0.0543513 -6.07685e-10)
(0.96075 0.0292435 -3.00399e-09)
(0.952472 -0.00358938 -6.22323e-09)
(0.963055 -0.0410354 -9.3117e-09)
(0.993187 -0.074644 -1.14166e-08)
(1.0368 -0.093656 -1.24816e-08)
(1.08306 -0.090784 -1.30703e-08)
(1.12052 -0.0660975 -1.35707e-08)
(1.14089 -0.0267909 -1.3546e-08)
(1.14098 0.0161566 -1.20408e-08)
(1.12278 0.0520565 -8.78313e-09)
(1.09192 0.0739101 -4.76469e-09)
(1.05547 0.0798753 -1.49965e-09)
(1.01987 0.0720538 -8.17398e-12)
(0.990332 0.0535073 -4.55604e-10)
(0.971671 0.02623 -2.31024e-09)