/*--------------------------------*- C++ -*----------------------------------*\
  =========                 |
  \\      /  F ield         | OpenFOAM: The Open Source CFD Toolbox
   \\    /   O peration     | Website:  https://openfoam.org
    \\  /    A nd           | Version:  11
     \\/     M anipulation  |
\*---------------------------------------------------------------------------*/
FoamFile
{
    format      ascii;
    class       surfaceScalarField;
    location    "16.657171";
    object      phi;
}
// * * * * * * * * * * * * * * * * * * * * * * * * * * * * * * * * * * * * * //

dimensions      [0 3 -1 0 0 0 0];

internalField   nonuniform List<scalar> 
14638
(
0.00250223
-2.22954e-06
0.0025092
-6.97089e-06
0.00252145
-1.22485e-05
0.0025395
-1.80466e-05
0.00256367
-2.41774e-05
0.00259383
-3.01569e-05
0.00262911
-3.52794e-05
0.00266756
-3.84529e-05
0.00270616
-3.85968e-05
0.00274083
-3.46709e-05
0.00276712
-2.6295e-05
0.00278163
-1.45096e-05
0.00278254
-9.05073e-07
0.00276979
1.27452e-05
0.00274582
2.39736e-05
0.0027155
3.03212e-05
0.00268514
3.03547e-05
0.00266117
2.39777e-05
0.00264866
1.25103e-05
0.00265015
-1.49202e-06
0.00266464
-1.44955e-05
0.00268712
-2.24786e-05
0.00270933
-2.22093e-05
0.00272237
-1.30362e-05
0.00271996
2.40752e-06
0.00270042
1.95446e-05
0.00266637
3.40485e-05
0.00262322
4.31449e-05
0.00257762
4.56041e-05
0.00253646
4.11625e-05
0.00250641
3.00414e-05
0.0024935
1.29148e-05
0.00250216
-8.65516e-06
0.00253357
-3.14114e-05
0.00258357
-5e-05
0.00264184
-5.8276e-05
0.00269417
-5.23302e-05
0.00272734
-3.31699e-05
0.00273393
-6.58984e-06
0.0027141
1.98335e-05
0.00267395
4.01526e-05
0.00262235
5.16005e-05
0.00256841
5.39316e-05
0.00252047
4.79411e-05
0.00248606
3.44089e-05
0.00247203
1.40386e-05
0.00248365
-1.16217e-05
0.00252243
-3.87835e-05
0.00258339
-6.09618e-05
0.0026542
-7.08085e-05
0.00271796
-6.37597e-05
0.00275896
-4.1003e-05
0.0027683
-9.33528e-06
0.00274618
2.21154e-05
0.00270028
4.59078e-05
0.00264171
5.857e-05
0.00258153
6.01788e-05
0.00252908
5.24491e-05
0.00249206
3.70191e-05
0.00247703
1.50333e-05
0.00248886
-1.18343e-05
0.00252867
-3.98067e-05
0.00259126
-6.25964e-05
0.00266445
-7.31875e-05
0.00273154
-6.70931e-05
0.00277654
-4.49943e-05
0.00278945
-1.29088e-05
0.00276917
2.02769e-05
0.00272279
4.63774e-05
0.00266211
6.06813e-05
0.00259959
6.25241e-05
0.00254573
5.38563e-05
0.00250854
3.71901e-05
0.00249399
1.45508e-05
0.00250586
-1.187e-05
0.00254416
-3.83022e-05
0.00260328
-5.91152e-05
0.00267175
-6.84728e-05
0.00273471
-6.29631e-05
0.00277812
-4.3403e-05
0.00279283
-1.47132e-05
0.00277696
1.58713e-05
0.00273573
4.1228e-05
0.0026793
5.64298e-05
0.00261962
5.96843e-05
0.0025677
5.19114e-05
0.00253227
3.54378e-05
0.00251931
1.2952e-05
0.00253173
-1.24197e-05
0.00256818
-3.64489e-05
0.00262217
-5.39912e-05
0.0026827
-6.05254e-05
0.0027368
-5.41046e-05
0.00277312
-3.63131e-05
0.00278477
-1.16473e-05
0.00277065
1.41124e-05
0.00273504
3.561e-05
0.00268597
4.90723e-05
0.00263326
5.27137e-05
0.00258669
4.65648e-05
0.00255469
3.20062e-05
0.00254326
1.14228e-05
0.00255502
-1.17605e-05
0.00258809
-3.30681e-05
0.0026358
-4.77075e-05
0.00268787
-5.20666e-05
0.00273301
-4.51477e-05
0.00276199
-2.89808e-05
0.00276977
-7.77334e-06
0.00275615
1.36133e-05
0.0027251
3.10566e-05
0.00268321
4.18842e-05
0.00263836
4.48545e-05
0.00259854
3.98171e-05
0.00257104
2.7497e-05
0.00256142
9.62316e-06
0.0025722
-1.07824e-05
0.00260173
-2.95214e-05
0.00264389
-4.21632e-05
0.00268942
-4.55355e-05
0.00272837
-3.89472e-05
0.00275279
-2.44191e-05
0.00275862
-5.83008e-06
0.00274613
1.24915e-05
0.00271909
2.70408e-05
0.00268335
3.57429e-05
0.00264554
3.78059e-05
0.00261232
3.32226e-05
0.00258983
2.24833e-05
0.00258304
6.79399e-06
0.00259449
-1.14548e-05
0.00262314
-2.86416e-05
0.00266385
-4.07151e-05
0.00270842
-4.45676e-05
0.00274765
-3.92289e-05
0.00277387
-2.62241e-05
0.00278283
-8.96159e-06
0.00277437
8.46712e-06
0.00275184
2.25265e-05
0.00272081
3.1032e-05
0.00268756
3.32474e-05
0.00265813
2.94255e-05
0.00263789
2.02416e-05
0.00263129
6.60725e-06
0.0026413
-1.00167e-05
0.00266855
-2.72486e-05
0.0027105
-4.19508e-05
0.00276155
-5.10525e-05
0.00281418
-5.26256e-05
0.00286075
-4.65669e-05
0.00289535
-3.46074e-05
0.00291499
-1.96311e-05
0.00291982
-4.8302e-06
0.0029126
7.21501e-06
0.00289765
1.49527e-05
0.00287968
1.79643e-05
0.00286242
1.72665e-05
0.00284947
1.29504e-05
0.00283977
9.69594e-06
2.36832e-07
0.00250221
-4.44027e-06
0.00250913
-1.38942e-05
0.00252133
-2.44424e-05
0.00253936
-3.60738e-05
0.0025636
-4.84267e-05
0.00259399
-6.05442e-05
0.00262973
-7.10173e-05
0.00266889
-7.7615e-05
0.00270842
-7.81216e-05
0.00274407
-7.03216e-05
0.00277115
-5.33766e-05
0.0027861
-2.94631e-05
0.002787
-1.80327e-06
0.00277369
2.60569e-05
0.00274861
4.90551e-05
0.00271684
6.20909e-05
0.002685
6.21958e-05
0.00265982
4.91531e-05
0.0026467
2.56291e-05
0.00264841
-3.20136e-06
0.00266404
-3.01213e-05
0.00268835
-4.67884e-05
0.00271254
-4.63984e-05
0.00272703
-2.75319e-05
0.00272514
4.30178e-06
0.00270515
3.95368e-05
0.00266996
6.92357e-05
0.0026253
8.78023e-05
0.00257804
9.28671e-05
0.00253521
8.39879e-05
0.00250365
6.16012e-05
0.00248963
2.69375e-05
0.00249801
-1.70391e-05
0.00253043
-6.3823e-05
0.00258279
-0.000102361
0.00264425
-0.000119741
0.00269957
-0.000107652
0.00273456
-6.81546e-05
0.00274137
-1.34061e-05
0.00272042
4.07836e-05
0.0026784
8.21772e-05
0.0026247
0.000105305
0.00256869
0.000109933
0.00251879
9.78472e-05
0.0024826
7.05955e-05
0.00246727
2.93658e-05
0.00247866
-2.30053e-05
0.0025188
-7.89217e-05
0.00258275
-0.000124917
0.00265746
-0.000145519
0.00272477
-0.000131065
0.00276781
-8.40519e-05
0.00277724
-1.8764e-05
0.00275358
4.5774e-05
0.00270525
9.42401e-05
0.0026441
0.00011972
0.00258157
0.000122709
0.00252705
0.000106975
0.00248815
7.59109e-05
0.00247155
3.16399e-05
0.00248249
-2.27805e-05
0.00252262
-7.99321e-05
0.00258704
-0.000127016
0.00266331
-0.000149456
0.00273391
-0.0001377
0.00278178
-9.28649e-05
0.00279611
-2.72321e-05
0.00277555
4.08369e-05
0.00272755
9.43779e-05
0.00266456
0.000123669
0.00259962
0.000127468
0.00254351
0.000109967
0.00250431
7.63858e-05
0.00248817
3.06898e-05
0.00249926
-2.29637e-05
0.00253801
-7.70479e-05
0.00259883
-0.000119935
0.00266979
-0.000139435
0.00273527
-0.00012844
0.00278056
-8.86947e-05
0.00279622
-3.03685e-05
0.00278032
3.17629e-05
0.00273829
8.32653e-05
0.0026805
0.000114212
0.00261916
0.000121027
0.00256551
0.000105568
0.00252851
7.24344e-05
0.00251459
2.68716e-05
0.00252708
-2.49139e-05
0.00256485
-7.4217e-05
0.0026211
-0.000110244
0.00268409
-0.000123512
0.00274005
-0.000110066
0.00277715
-7.34087e-05
0.00278851
-2.30123e-05
0.00277339
2.92393e-05
0.00273643
7.25633e-05
0.00268598
9.95262e-05
0.00263198
0.000106712
0.00258431
9.42393e-05
0.00255154
6.47756e-05
0.00254001
2.29457e-05
0.00255265
-2.43984e-05
0.0025876
-6.80199e-05
0.00263778
-9.78837e-05
0.00269216
-0.00010645
0.00273877
-9.17533e-05
0.00276799
-5.82029e-05
0.00277487
-1.46579e-05
0.00275964
2.88494e-05
0.00272671
6.39866e-05
0.00268309
8.55037e-05
0.00263686
9.10807e-05
0.00259617
8.05136e-05
0.00256843
5.52322e-05
0.00255941
1.86408e-05
0.00257177
-2.31421e-05
0.00260369
-6.14391e-05
0.00264856
-8.703e-05
0.00269639
-9.33701e-05
0.00273662
-7.9173e-05
0.00276102
-4.88166e-05
0.00276564
-1.04519e-05
0.00275114
2.69875e-05
0.00272179
5.63917e-05
0.00268387
7.36631e-05
0.00264434
7.73412e-05
0.00261005
6.75062e-05
0.00258737
4.51626e-05
0.00258143
1.27397e-05
0.00259482
-2.48525e-05
0.00262627
-6.00839e-05
0.00267008
-8.45268e-05
0.00271731
-9.18011e-05
0.00275815
-8.00667e-05
0.00278461
-5.26859e-05
0.0027925
-1.68466e-05
0.00278197
1.89896e-05
0.00275688
4.76227e-05
0.00272322
6.46907e-05
0.00268765
6.88123e-05
0.00265649
6.05895e-05
0.00263532
4.14152e-05
0.0026288
1.31202e-05
0.00264009
-2.13051e-05
0.00266973
-5.68818e-05
0.00271479
-8.70168e-05
0.00276905
-0.00010531
0.00282428
-0.000107856
0.00287234
-9.46248e-05
0.00290712
-6.93933e-05
0.00292574
-3.82457e-05
0.00292869
-7.78665e-06
0.00291916
1.6749e-05
0.00290184
3.22698e-05
0.00288174
3.80674e-05
0.00286282
3.61907e-05
0.00284869
2.70759e-05
0.00283843
1.99536e-05
2.08053e-07
0.00250217
-6.61291e-06
0.002509
-2.07173e-05
0.00252108
-3.65233e-05
0.00253906
-5.40544e-05
0.00256344
-7.28091e-05
0.00259428
-9.13811e-05
0.00263092
-0.000107663
0.0026715
-0.000118196
0.0027129
-0.000119517
0.00275052
-0.000107946
0.00277917
-8.20229e-05
0.00279498
-4.52753e-05
0.00279583
-2.65308e-06
0.00278135
4.05417e-05
0.00275402
7.63851e-05
0.00271935
9.67602e-05
0.00268458
9.6964e-05
0.00265711
7.66189e-05
0.00264294
3.98025e-05
0.00264528
-5.54513e-06
0.00266337
-4.82104e-05
0.0026915
-7.49141e-05
0.00271967
-7.45729e-05
0.00273692
-4.47767e-05
0.00273569
5.52498e-06
0.00271437
6.08657e-05
0.0026765
0.000107098
0.00262856
0.000135742
0.00257791
0.000143521
0.00253187
0.000130027
0.00249755
9.59224e-05
0.00248171
4.27779e-05
0.00249002
-2.53541e-05
0.00252494
-9.87426e-05
0.0025825
-0.000159919
0.00265065
-0.000187889
0.00271194
-0.000168939
0.00275014
-0.000106361
0.0027567
-1.99582e-05
0.0027327
6.47779e-05
0.00268626
0.000128616
0.00262796
0.000163603
0.00256776
0.000170141
0.00251414
0.000151465
0.00247483
0.00010991
0.0024574
4.67903e-05
0.00246858
-3.41852e-05
0.00251132
-0.000121661
0.00258096
-0.000194552
0.00266339
-0.000227957
0.00273809
-0.000205766
0.00278557
-0.000131527
0.00279512
-2.83127e-05
0.00276787
7.30273e-05
0.00271403
0.000148073
0.00264726
0.000186496
0.00257991
0.000190055
0.00252143
0.000165458
0.00247913
0.000118208
0.00245966
5.11108e-05
0.00246894
-3.20636e-05
0.00250967
-0.000120656
0.00257757
-0.000194919
0.00265968
-0.000231568
0.0027369
-0.000214914
0.00279017
-0.000146137
0.00280716
-4.4227e-05
0.00278604
6.1957e-05
0.00273488
0.000145541
0.0026674
0.000191153
0.0025978
0.000197067
0.0025375
0.000170262
0.00249487
0.00011902
0.00247649
4.90684e-05
0.00248736
-3.38306e-05
0.0025285
-0.000118189
0.00259396
-0.000185397
0.00267036
-0.000215838
0.00274034
-0.000198415
0.00278806
-0.000136414
0.00280389
-4.62047e-05
0.00278641
4.92441e-05
0.00274169
0.000127983
0.00268073
0.000175175
0.00261612
0.000185637
0.00255946
0.000162233
0.00252022
0.000111669
0.00250562
4.14746e-05
0.00251974
-3.90315e-05
0.00256151
-0.000115996
0.00262319
-0.000171921
0.00269131
-0.000191635
0.00275051
-0.000169262
0.00278815
-0.00011105
0.00279762
-3.24772e-05
0.00277909
4.77701e-05
0.0027383
0.000113348
0.00268436
0.000153472
0.00262756
0.00016351
0.00257794
0.000143854
0.0025444
9.83229e-05
0.00253377
3.35713e-05
0.00254935
-3.99824e-05
0.00258902
-0.000107687
0.00264459
-0.000153448
0.00270351
-0.000165373
0.00275252
-0.000140765
0.00278147
-8.71501e-05
0.00278571
-1.88952e-05
0.00276636
4.81904e-05
0.00272896
0.000101389
0.00268139
0.00013308
0.00263225
0.000140219
0.00258999
0.000122774
0.00256233
8.28914e-05
0.00255532
2.56477e-05
0.00257165
-3.94657e-05
0.00260889
-9.86878e-05
0.00265927
-0.000137407
0.00271141
-0.000145506
0.00275366
-0.00012143
0.00277743
-7.25837e-05
0.00277908
-1.21045e-05
0.00276011
4.59602e-05
0.00272579
9.07075e-05
0.00268333
0.000116125
0.00264034
0.000120331
0.00260416
0.000103687
0.00258153
6.7792e-05
0.00257785
1.64186e-05
0.00259564
-4.2637e-05
0.00263289
-9.73356e-05
0.0026827
-0.000134342
0.00273477
-0.000143863
0.00277821
-0.00012351
0.00280461
-7.90896e-05
0.00280997
-2.22046e-05
0.00279513
3.38337e-05
0.00276482
7.79252e-05
0.00272597
0.000103543
0.00268595
0.000108833
0.00265162
9.49244e-05
0.00262902
6.40114e-05
0.00262323
1.89058e-05
0.00263757
-3.56368e-05
0.00267222
-9.15316e-05
0.00272333
-0.000138127
0.00278335
-0.000165336
0.00284286
-0.000167364
0.00289296
-0.00014472
0.00292738
-0.000103818
0.00294358
-5.44424e-05
0.00294271
-6.92373e-06
0.0029287
3.07607e-05
0.00290698
5.39936e-05
0.00288301
6.20351e-05
0.00286126
5.79397e-05
0.00284526
4.30775e-05
0.0028345
3.071e-05
-7.00671e-07
0.00250211
-8.72442e-06
0.00250877
-2.73775e-05
0.00252066
-4.84122e-05
0.00253854
-7.19329e-05
0.00256308
-9.7352e-05
0.00259456
-0.000122856
0.00263255
-0.000145658
0.00267529
-0.000160933
0.00271959
-0.000163815
0.0027603
-0.000148655
0.00279139
-0.000113119
0.00280858
-6.24642e-05
0.00280942
-3.48799e-06
0.00279315
5.68065e-05
0.00276232
0.000107215
0.00272311
0.00013597
0.00268376
0.000136317
0.00265269
0.000107684
0.00263683
5.56694e-05
0.00264011
-8.82977e-06
0.00266205
-7.01537e-05
0.00269623
-0.000109089
0.00273074
-0.000109081
0.0027523
-6.63408e-05
0.00275203
5.79613e-06
0.00272846
8.44401e-05
0.0026863
0.000149257
0.00263321
0.000188825
0.00257735
0.000199384
0.00252644
0.000180941
0.00248792
0.000134439
0.00246928
6.14203e-05
0.0024775
-3.35805e-05
0.00251651
-0.000137753
0.00258256
-0.000225969
0.00266149
-0.000266816
0.00273212
-0.000239566
0.00277502
-0.000149267
0.00278066
-2.55943e-05
0.00275143
9.40011e-05
0.0026978
0.000182253
0.00263226
0.000229142
0.00256564
0.00023676
0.00250652
0.000210587
0.00246249
0.00015394
0.00244132
6.79519e-05
0.00245054
-4.34028e-05
0.00249455
-0.000165669
0.00257012
-0.000270119
0.00266301
-0.000320854
0.00274988
-0.000292636
0.00280667
-0.000188317
0.00281917
-4.08065e-05
0.00278823
0.000103967
0.00272667
0.000209628
0.00265136
0.000261808
0.00257661
0.00026481
0.00251207
0.000229996
0.00246448
0.000165795
0.00244048
7.51054e-05
0.00244734
-3.89229e-05
0.00248958
-0.000162888
0.00256342
-0.000268762
0.00265427
-0.00032242
0.0027403
-0.000300946
0.00280018
-0.00020601
0.00282027
-6.43156e-05
0.00279839
8.38358e-05
0.00274322
0.00020071
0.00266983
0.00026454
0.00259387
0.000273031
0.00252772
0.000236404
0.00248048
0.000166266
0.00245979
6.97574e-05
0.00247198
-4.60202e-05
0.00251855
-0.000164755
0.00259221
-0.00025906
0.00267691
-0.000300541
0.00275268
-0.000274179
0.00280235
-0.000186092
0.00281656
-6.04143e-05
0.00279508
7.07236e-05
0.00274534
0.000177728
0.00267926
0.000241251
0.00260995
0.000254947
0.00254939
0.000222793
0.00250779
0.000153269
0.00249348
5.57898e-05
0.00251138
-5.69388e-05
0.00256008
-0.000164696
0.00263001
-0.000241845
0.00270525
-0.000266874
0.00276841
-0.000232425
0.00280601
-0.000148646
0.00281185
-3.83243e-05
0.00278751
7.21136e-05
0.00274036
0.000160497
0.00268076
0.00021307
0.00261968
0.000224597
0.00256747
0.000196065
0.00253347
0.000132322
0.00252513
4.19031e-05
0.00254595
-6.07941e-05
0.00259294
-0.000154682
0.00265614
-0.00021665
0.00272099
-0.000230218
0.00277273
-0.00019251
0.00280072
-0.000115134
0.00280077
-1.89517e-05
0.00277524
7.37194e-05
0.00273114
0.000145493
0.00267764
0.000186577
0.00262423
0.000193634
0.00257988
0.00016712
0.00255279
0.000109987
0.00254929
2.91408e-05
0.00257181
-6.19805e-05
0.00261676
-0.000143644
0.00267456
-0.000195204
0.00273206
-0.000203001
0.00277646
-0.000165833
0.00279887
-9.4992e-05
0.00279615
-9.38687e-06
0.00277086
7.1254e-05
0.00272958
0.00013198
0.00268077
0.000164942
0.002633
0.000168101
0.00259436
0.000142328
0.00257217
8.99762e-05
0.00257212
1.64649e-05
0.00259635
-6.68578e-05
0.00264159
-0.000142581
0.00269916
-0.000191907
0.00275701
-0.000201718
0.0028032
-0.000169695
0.00282897
-0.000104867
0.00283069
-2.39207e-05
0.00281002
5.45075e-05
0.00277279
0.000115152
0.00272704
0.000149293
0.00268113
0.000154748
0.00264271
0.000133341
0.00261856
8.8165e-05
0.00261428
2.31766e-05
0.00263326
-5.46145e-05
0.00267491
-0.000133176
0.00273379
-0.000197009
0.00280055
-0.000232097
0.00286437
-0.000231183
0.00291576
-0.000196111
0.00294863
-0.000136686
0.00296106
-6.68723e-05
0.00295507
-9.32526e-07
0.00293542
5.0411e-05
0.00290836
8.10486e-05
0.00287988
9.05175e-05
0.00285508
8.27426e-05
0.00283728
6.0874e-05
0.00282683
4.11582e-05
-3.49171e-06
0.00250202
-1.07468e-05
0.00250844
-3.37972e-05
0.00252003
-6.00022e-05
0.00253771
-8.96126e-05
0.00256239
-0.00012203
0.00259464
-0.000155109
0.0026344
-0.000185417
0.00268007
-0.000206599
0.00272842
-0.000212164
0.00277347
-0.00019371
0.00280799
-0.000147637
0.00282711
-8.15836e-05
0.00282799
-4.36641e-06
0.00280929
7.55001e-05
0.0027736
0.000142911
0.00272803
0.000181533
0.00268223
0.000182122
0.00264605
0.00014386
0.00262772
7.40075e-05
0.00263225
-1.33617e-05
0.00265965
-9.75575e-05
0.00270254
-0.000151977
0.00274621
-0.000152753
0.00277396
-9.40916e-05
0.00277492
4.83672e-06
0.00274798
0.000111381
0.00269965
0.000197589
0.00263937
0.000249103
0.00257635
0.000262401
0.00251876
0.000238535
0.00247438
0.000178815
0.00245166
8.41458e-05
0.00245959
-4.15134e-05
0.0025044
-0.000182565
0.00258281
-0.000304371
0.00267755
-0.000361561
0.00276173
-0.000323746
0.00281101
-0.000198542
0.00281462
-2.92101e-05
0.00277732
0.000131306
0.00271318
0.000246387
0.00263753
0.000304799
0.00256228
0.000312011
0.00249582
0.000277047
0.00244498
0.000204776
0.00241704
9.5893e-05
0.00242045
-4.68184e-05
0.00246257
-0.000207782
0.00254318
-0.000350734
0.00264836
-0.000426032
0.00275148
-0.000395754
0.002823
-0.000259842
0.00284346
-6.12597e-05
0.00281154
0.000135884
0.00274214
0.000279024
0.00265636
0.000347591
0.00257176
0.000349408
0.00249887
0.000302889
0.00244404
0.000220624
0.00241458
0.000104568
0.00242015
-4.44933e-05
0.00246728
-0.000210016
0.00255127
-0.000352757
0.0026539
-0.000425048
0.0027495
-0.000396543
0.00281469
-0.000271205
0.00283577
-8.53877e-05
0.00281129
0.000108314
0.00275085
0.000261148
0.00267058
0.000344812
0.00258722
0.00035639
0.00251421
0.00030941
0.00246192
0.000218553
0.00243984
9.18428e-05
0.0024558
-6.19779e-05
0.00251096
-0.000219914
0.00259548
-0.000343588
0.00268992
-0.000394978
0.00277163
-0.000355893
0.00282234
-0.0002368
0.00283311
-7.11836e-05
0.00280531
9.85209e-05
0.00274827
0.000234775
0.00267528
0.000314236
0.00260012
0.000330107
0.00253524
0.000287671
0.00249178
0.000196738
0.00247928
6.82832e-05
0.00250322
-8.08737e-05
0.00256098
-0.000222459
0.00264048
-0.000321347
0.0027232
-0.000349592
0.00279002
-0.000299243
0.00282686
-0.000185487
0.00282801
-3.94753e-05
0.00279639
0.000103732
0.0027412
0.000215685
0.0026744
0.000279874
0.00260794
0.000291053
0.00255283
0.000251177
0.00251905
0.000166108
0.00251458
4.6371e-05
0.00254261
-8.88287e-05
0.00259862
-0.000210694
0.00267032
-0.000288345
0.00274108
-0.00030098
0.00279501
-0.000246441
0.00282125
-0.000141371
0.0028162
-1.38999e-05
0.00278339
0.000106532
0.00273136
0.000197516
0.00267079
0.000247145
0.0026123
0.000252125
0.00256573
0.000213694
0.0025399
0.000135817
0.00254137
2.76729e-05
0.00257179
-9.24039e-05
0.0026258
-0.000197652
0.00269157
-0.000260974
0.0027542
-0.000265627
0.00280005
-0.000211686
0.00282025
-0.000115189
0.00281228
-1.42363e-06
0.00277977
0.00010377
0.00273061
0.000181138
0.00267457
0.000220977
0.00262143
0.000221242
0.00258027
0.000183492
0.00255918
0.00011107
0.00256403
1.16079e-05
0.00259616
-9.8981e-05
0.00265047
-0.000196896
0.00271609
-0.000257525
0.0027793
-0.000264925
0.00282736
-0.000217762
0.0028516
-0.0001291
0.00284888
-2.12035e-05
0.00282171
8.1677e-05
0.00277695
0.000159916
0.00272371
0.000202525
0.00267143
0.000207029
0.00262878
0.000175993
0.00260347
0.000113479
0.00260174
2.49071e-05
0.00262674
-7.96175e-05
0.00267651
-0.000182943
0.00274343
-0.000263933
0.0028161
-0.00030477
0.00288256
-0.000297645
0.00293326
-0.000246809
0.00296277
-0.0001662
0.00297014
-7.42409e-05
0.00295832
1.08925e-05
0.00293285
7.58825e-05
0.00290069
0.000113208
0.00286821
0.000122995
0.00284121
0.000109748
0.00282264
7.94371e-05
0.00281425
4.95551e-05
-9.59461e-06
0.0025019
-1.26457e-05
0.00250798
-3.98786e-05
0.00251913
-7.11498e-05
0.00253646
-0.000106941
0.00256117
-0.000146747
0.00259427
-0.000188205
0.00263617
-0.000227316
0.00268558
-0.000256009
0.00273932
-0.000265905
0.00279022
-0.000244616
0.00282935
-0.000186759
0.00285117
-0.000103404
0.0028523
-5.50298e-06
0.0028305
9.7303e-05
0.00278828
0.000185132
0.00273413
0.000235688
0.0026796
0.000236651
0.00263645
0.000187003
0.0026146
9.58646e-05
0.00262058
-1.93448e-05
0.00265529
-0.000132268
0.00271017
-0.000206854
0.00276656
-0.000209149
0.00280282
-0.000130353
0.0028053
2.3588e-06
0.00277357
0.000143114
0.00271683
0.000254329
0.00264706
0.000318875
0.0025748
0.000334661
0.00250858
0.00030475
0.00245647
0.00023093
0.00242798
0.00011263
0.0024343
-4.7829e-05
0.00248411
-0.000232378
0.0025758
-0.000396061
0.00269077
-0.000476531
0.00279546
-0.000428433
0.00285656
-0.000259648
0.00285921
-3.18542e-05
0.00281117
0.000179347
0.00273266
0.000324892
0.00264361
0.000393853
0.00255746
0.000398158
0.00248173
0.000352776
0.00242137
0.000265144
0.0023829
0.00013436
0.00237761
-4.15277e-05
0.00241813
-0.000248305
0.00250688
-0.00043948
0.00262719
-0.000546351
0.00274745
-0.000516007
0.00283396
-0.000346358
0.00286392
-9.12145e-05
0.00283347
0.000166331
0.00275777
0.000354725
0.00266126
0.000444103
0.00256523
0.000445437
0.002482
0.000386118
0.00241867
0.000283954
0.00238453
0.000138708
0.00239214
-5.21056e-05
0.00244862
-0.000266498
0.00254609
-0.000450223
0.00266158
-0.000540536
0.00276589
-0.000500858
0.00283428
-0.000339595
0.00285355
-0.000104655
0.00282386
0.000138007
0.00275638
0.000328622
0.0026683
0.000432891
0.00257706
0.000447629
0.00249703
0.000389448
0.00244028
0.0002753
0.00241851
0.00011361
0.00244056
-8.40295e-05
0.00250598
-0.000285334
0.00260156
-0.000439162
0.00270475
-0.00049817
0.00279123
-0.000442375
0.00284217
-0.000287743
0.00284892
-7.79331e-05
0.00281403
0.000133414
0.00274865
0.000300158
0.00266776
0.000395127
0.00258615
0.000411716
0.00251706
0.000356763
0.0024727
0.000241091
0.00246369
7.72909e-05
0.00249524
-0.000112423
0.00256269
-0.000289908
0.00265112
-0.000409779
0.0027399
-0.000438366
0.00280901
-0.000368358
0.00284436
-0.000220832
0.00284065
-3.57649e-05
0.00280174
0.000142637
0.00273832
0.000279107
0.00266393
0.000354268
0.00259183
0.000363154
0.00253403
0.000308969
0.0025014
0.000198744
0.00250221
4.55568e-05
0.00253868
-0.000125299
0.00260402
-0.000276034
0.00268345
-0.000367775
0.00275874
-0.000376271
0.00281353
-0.000301227
0.00283722
-0.000165062
0.00282683
-3.50944e-06
0.0027868
0.000146559
0.00272693
0.000257384
0.00265928
0.000314801
0.00259577
0.000315637
0.00254737
0.000262086
0.00252373
0.000159459
0.00253137
2.00383e-05
0.0025706
-0.000131636
0.0026337
-0.000260755
0.00270654
-0.000333814
0.00277286
-0.000331948
0.00281879
-0.000257617
0.00283589
-0.000132287
0.00282236
1.21034e-05
0.0027827
0.000143435
0.00272587
0.000237965
0.00266284
0.000284007
0.00260463
0.000279458
0.0025615
0.000226614
0.00254244
0.000130137
0.00255328
7.62144e-07
0.002594
-0.000139703
0.0026572
-0.000260091
0.00272973
-0.000330054
0.0027966
-0.000331795
0.00284491
-0.000266079
0.00286649
-0.000150672
0.00285889
-1.36056e-05
0.00282533
0.000115237
0.00277343
0.000211812
0.0027132
0.000262754
0.00265507
0.000265163
0.00260884
0.000222219
0.00258334
0.000138977
0.00258537
2.28769e-05
0.00261738
-0.000111621
0.0026753
-0.000240867
0.00274895
-0.000337583
0.00282507
-0.000380886
0.00289121
-0.000363781
0.00293848
-0.000294084
0.00296267
-0.000190387
0.00296396
-7.55364e-05
0.00294621
2.86457e-05
0.00291556
0.000106531
0.00287946
0.000149314
0.00284447
0.000157978
0.00281705
0.000137171
0.00279964
9.68472e-05
0.0027959
5.32923e-05
-2.07218e-05
0.00250173
-1.43793e-05
0.00250735
-4.54996e-05
0.00251787
-8.16643e-05
0.00253462
-0.000123692
0.00255917
-0.000171302
0.00259307
-0.000222104
0.00263742
-0.000271658
0.00269142
-0.000310015
0.00275213
-0.000326611
0.00281068
-0.000303164
0.0028557
-0.000231785
0.00288099
-0.000128693
0.00288266
-7.16815e-06
0.00285707
0.000122892
0.00280655
0.000235645
0.00274133
0.000300917
0.00267544
0.000302537
0.00262308
0.000239362
0.00259634
0.000122609
0.00260388
-2.68905e-05
0.00264808
-0.00017647
0.00271906
-0.000277831
0.00279274
-0.000282828
0.00284043
-0.000178046
0.00284462
-1.82434e-06
0.00280611
0.00018162
0.00273815
0.000322289
0.00265622
0.000400806
0.00257246
0.000418425
0.0024956
0.000381604
0.00243376
0.000292774
0.00239678
0.000149605
0.00239611
-4.71509e-05
0.00244231
-0.00027858
0.00253956
-0.000493311
0.0026746
-0.000611574
0.00280971
-0.000563546
0.00289705
-0.000346987
0.00290881
-4.36141e-05
0.00285228
0.000235883
0.00275663
0.000420536
0.00265058
0.000499902
0.00255095
0.000497786
0.00246376
0.000439972
0.00239112
0.000337781
0.00234027
0.000185215
0.00232848
-2.97396e-05
0.00237407
-0.0002939
0.00247788
-0.000543284
0.00261606
-0.000684532
0.00275094
-0.000650885
0.00284703
-0.000442448
0.00288195
-0.000126132
0.00285156
0.000196718
0.00277039
0.000435894
0.00266403
0.000550462
0.00255633
0.00055314
0.00246191
0.000480535
0.00239021
0.00035565
0.0023537
0.000175222
0.00236694
-6.53461e-05
0.00243511
-0.000334672
0.0025456
-0.000560707
0.00267155
-0.000666488
0.00278219
-0.000611501
0.00285241
-0.000409808
0.0028691
-0.000121354
0.00283341
0.000173701
0.00275815
0.00040388
0.00266187
0.00052917
0.00256282
0.000546687
0.00247636
0.000475905
0.00241652
0.000335139
0.00239692
0.000133207
0.00242632
-0.000113422
0.00250154
-0.000360553
0.00260594
-0.00054357
0.00271499
-0.000607211
0.00280399
-0.000531382
0.00285441
-0.000338156
0.00285769
-8.12206e-05
0.00281675
0.00017436
0.00274381
0.000373097
0.00265537
0.000483561
0.00256761
0.000499483
0.00249498
0.000429391
0.00245097
0.000285098
0.00244677
8.1491e-05
0.00248643
-0.000152084
0.0025626
-0.000366076
0.00265774
-0.000504921
0.00274998
-0.000530599
0.0028194
-0.00043778
0.00285247
-0.000253908
0.00284435
-2.76412e-05
0.00279931
0.000187678
0.00272885
0.000349569
0.00264776
0.000435357
0.00257071
0.000440202
0.00251107
0.000368609
0.00248068
0.000229133
0.00248777
3.84738e-05
0.00253283
-0.000170366
0.00260641
-0.000349612
0.0026915
-0.000452861
0.00276901
-0.000453789
0.00282292
-0.000355133
0.00284335
-0.000185491
0.00282794
1.1904e-05
0.00278168
0.000192813
0.00271515
0.00032392
0.00264146
0.000388489
0.00257386
0.000383238
0.00252464
0.000311306
0.00250426
0.00017984
0.00251884
5.45201e-06
0.00256679
-0.000179585
0.00263774
-0.000331701
0.00271555
-0.000411625
0.00278333
-0.000399729
0.00282765
-0.000301941
0.0028409
-0.000145534
0.002822
3.10074e-05
0.00277604
0.000189395
0.00271268
0.000301321
0.00264381
0.000352877
0.00258163
0.000341638
0.0025377
0.000270545
0.0025218
0.000146038
0.00253937
-1.68118e-05
0.00258847
-0.000188799
0.0026591
-0.000330727
0.00273623
-0.000407182
0.0028043
-0.00039986
0.00285092
-0.000312705
0.00286881
-0.000168561
0.00285629
-1.07805e-06
0.00281706
0.000154464
0.0027592
0.000269674
0.00269328
0.000328673
0.0026306
0.000327845
0.00258215
0.000270662
0.00255791
0.000163222
0.00256491
1.58779e-05
0.0026042
-0.000150911
0.00266903
-0.000305695
0.00274662
-0.00041518
0.00282256
-0.000456823
0.00288483
-0.00042605
0.00292594
-0.000335193
0.00294318
-0.000207632
0.00293793
-7.0286e-05
0.00291476
5.18215e-05
0.00288019
0.000141099
0.00284191
0.000187598
0.00280655
0.000193334
0.00278113
0.000162587
0.0027675
0.000110482
0.00277154
4.92489e-05
-3.8491e-05
0.00250152
-1.58969e-05
0.00250653
-5.05104e-05
0.00251616
-9.13e-05
0.00253202
-0.000139546
0.00255608
-0.000195363
0.00259059
-0.000256614
0.00263756
-0.000318628
0.00269706
-0.000369518
0.00276668
-0.000396224
0.00283513
-0.000371614
0.00288774
-0.000284399
0.00291778
-0.000158731
0.00292056
-9.95051e-06
0.00289036
0.000153093
0.00282908
0.000296922
0.00274943
0.000380563
0.00266886
0.000383107
0.00260451
0.000303712
0.00257106
0.000156062
0.00258005
-3.5875e-05
0.00263635
-0.000232772
0.00272875
-0.000370231
0.00282569
-0.000379769
0.00288856
-0.000240921
0.00289456
-7.82303e-06
0.00284662
0.000229566
0.0027639
0.000405008
0.00266671
0.000497996
0.00256906
0.000516068
0.00247971
0.000470958
0.00240594
0.000366543
0.00235521
0.00020034
0.00233669
-2.86323e-05
0.00236599
-0.000307886
0.00245948
-0.000586795
0.00261206
-0.000764153
0.00278307
-0.000734561
0.00291074
-0.000474652
0.00294856
-8.14338e-05
0.00289445
0.000289991
0.00278405
0.000530939
0.00265875
0.000625196
0.00254277
0.000613766
0.00244168
0.000541066
0.00235539
0.000424064
0.00229433
0.000246282
0.0022829
-1.8311e-05
0.00234109
-0.000352093
0.00246297
-0.000665159
0.00261692
-0.000838485
0.00276191
-0.000795877
0.00286253
-0.000543065
0.00289774
-0.00016135
0.00286458
0.00022988
0.00277767
0.000522812
0.00266255
0.000665574
0.00254411
0.000671588
0.00243919
0.00058545
0.00236071
0.000434131
0.0023245
0.00021143
0.00234529
-8.61338e-05
0.00242423
-0.000413616
0.00254399
-0.000680462
0.00267573
-0.000798226
0.00278925
-0.000725026
0.00286026
-0.00048082
0.00287543
-0.000136516
0.00283544
0.000213686
0.00275375
0.000485568
0.00265018
0.000632744
0.00254417
0.000652692
0.00245256
0.000567515
0.00239133
0.000396368
0.0023753
0.000149243
0.00241194
-0.000150059
0.00249485
-0.000443469
0.00260463
-0.000653346
0.00271592
-0.000718501
0.00280483
-0.000620299
0.00285379
-0.000387111
0.00285446
-8.18916e-05
0.00280943
0.000219387
0.00273106
0.000451465
0.00263677
0.000577854
0.00254413
0.000592122
0.00246923
0.000504298
0.00242684
0.000327482
0.00242816
8.01737e-05
0.00247529
-0.000199214
0.00255801
-0.000448792
0.0026568
-0.000603714
0.00274952
-0.000623323
0.00281718
-0.000505441
0.00284727
-0.000284
0.00283542
-1.57855e-05
0.00278593
0.000237165
0.00271048
0.000425026
0.00262455
0.000521277
0.00254411
0.000520649
0.00248399
0.000428729
0.00245697
0.000256145
0.00247072
2.47325e-05
0.00252347
-0.000223117
0.00260307
-0.000429213
0.00269096
-0.000540752
0.00276809
-0.000530924
0.00281941
-0.000406453
0.00283609
-0.000202163
0.00281632
3.16688e-05
0.00276535
0.000243784
0.00269401
0.00039526
0.00261611
0.00046639
0.00254605
0.000453298
0.00249744
0.000359911
0.0024814
0.000195885
0.00250314
-1.62919e-05
0.00255869
-0.000235137
0.00263516
-0.000408169
0.00271512
-0.000491579
0.00278186
-0.000466474
0.002823
-0.00034308
0.00283195
-0.000154484
0.00280828
5.46811e-05
0.00275739
0.000240284
0.00268924
0.000369466
0.00261633
0.000425794
0.00255189
0.000406073
0.00250872
0.00031372
0.00249713
0.000157619
0.00252163
-4.13048e-05
0.00257788
-0.000245054
0.00265349
-0.000406337
0.00273223
-0.000485915
0.00279882
-0.000466453
0.00284199
-0.000355873
0.00285552
-0.0001821
0.00283843
1.60173e-05
0.00279469
0.000198203
0.00273249
0.000331876
0.00266268
0.000398482
0.00259728
0.000393242
0.00254845