/*--------------------------------*- C++ -*----------------------------------*\
  =========                 |
  \\      /  F ield         | OpenFOAM: The Open Source CFD Toolbox
   \\    /   O peration     | Website:  https://openfoam.org
    \\  /    A nd           | Version:  11
     \\/     M anipulation  |
\*---------------------------------------------------------------------------*/
FoamFile
{
    format      ascii;
    class       volVectorField;
    location    "16.657171";
    object      U_0;
}
// * * * * * * * * * * * * * * * * * * * * * * * * * * * * * * * * * * * * * //

dimensions      [0 1 -1 0 0 0 0];

internalField   nonuniform List<vector> 
7132
(
(1.0001 -0.000224208 4.57467e-18)
(1.00175 -0.00070052 1.42345e-17)
(1.0056 -0.00122974 1.3552e-17)
(1.01162 -0.00180935 1.65754e-17)
(1.02006 -0.00241984 2.15851e-17)
(1.03099 -0.00301229 2.12581e-17)
(1.0442 -0.00351596 1.9498e-17)
(1.05918 -0.0038229 1.81599e-17)
(1.07491 -0.00382663 1.72716e-17)
(1.08996 -0.003427 1.68172e-17)
(1.10252 -0.00258881 1.67229e-17)
(1.11087 -0.00141532 1.69055e-17)
(1.11398 -6.51997e-05 1.71661e-17)
(1.11145 0.0012829 1.71526e-17)
(1.10371 0.00238359 1.47439e-17)
(1.09229 0.00299561 1.25721e-17)
(1.07959 0.00298086 1.14487e-17)
(1.06829 0.00233499 1.00935e-17)
(1.06081 0.00119499 8.0124e-18)
(1.05874 -0.000181251 7.97159e-18)
(1.06243 -0.00144105 8.07572e-18)
(1.0706 -0.00218923 9.07194e-18)
(1.08039 -0.00211804 9.77661e-18)
(1.08803 -0.00117952 1.11583e-17)
(1.09023 0.000355777 8.18158e-18)
(1.08542 0.0020367 5.35698e-18)
(1.07398 0.00344362 1.11996e-17)
(1.05774 0.0043089 2.62098e-17)
(1.03926 0.00451373 -6.34413e-17)
(1.02131 0.00403288 -2.70282e-16)
(1.00663 0.00289057 8.52215e-16)
(0.997818 0.00116048 4.91914e-15)
(0.997046 -0.000990264 -2.3432e-15)
(1.0056 -0.00322543 -7.16473e-14)
(1.02296 -0.00501043 -2.29469e-13)
(1.04606 -0.00575017 -3.69035e-13)
(1.06953 -0.00508528 -3.55094e-13)
(1.08735 -0.00314204 -2.18402e-13)
(1.09514 -0.000504212 -8.50303e-14)
(1.0916 0.00208554 -1.4325e-14)
(1.07841 0.00405544 1.15598e-14)
(1.05891 0.0051439 2.13738e-14)
(1.0369 0.00532994 -6.24371e-15)
(1.01586 0.00469054 -1.48542e-13)
(0.998929 0.003303 -3.24858e-13)
(0.988989 0.0012449 2.79578e-13)
(0.988597 -0.00131363 3.84376e-12)
(0.999331 -0.00398021 1.29257e-11)
(1.0206 -0.00610952 2.65611e-11)
(1.0487 -0.00699174 3.78942e-11)
(1.07723 -0.00620607 3.93231e-11)
(1.09906 -0.0038983 3.0421e-11)
(1.10895 -0.000753976 1.77897e-11)
(1.10531 0.00232916 7.59258e-12)
(1.09022 0.00463337 1.54123e-12)
(1.06792 0.00583302 -7.07125e-13)
(1.04312 0.00594276 -2.88502e-14)
(1.01991 0.00513001 1.5259e-12)
(1.0016 0.00355378 -2.33689e-12)
(0.991008 0.00133264 -2.43209e-11)
(0.990525 -0.0013511 -7.92234e-11)
(1.00156 -0.00410454 -1.73266e-10)
(1.02338 -0.00629802 -2.92078e-10)
(1.05228 -0.00724989 -3.98888e-10)
(1.08198 -0.00654559 -4.5194e-10)
(1.10536 -0.00428443 -4.2952e-10)
(1.1169 -0.00108236 -3.409e-10)
(1.11443 0.00217937 -2.19148e-10)
(1.09955 0.00470577 -1.04938e-10)
(1.07657 0.00605366 -2.50406e-11)
(1.05071 0.00617323 1.39168e-11)
(1.02668 0.00526079 1.23468e-11)
(1.00811 0.00356201 -3.99512e-11)
(0.997682 0.00127974 -1.66142e-10)
(0.997417 -0.00135593 -3.85282e-10)
(1.00822 -0.00395654 -6.90379e-10)
(1.02899 -0.00596042 -1.03745e-09)
(1.0561 -0.00680173 -1.35339e-09)
(1.08383 -0.00616547 -1.55961e-09)
(1.10596 -0.00415579 -1.59972e-09)
(1.11761 -0.00127631 -1.45832e-09)
(1.1166 0.00174963 -1.1649e-09)
(1.10385 0.00422118 -7.86573e-10)
(1.08283 0.00566392 -4.1449e-10)
(1.05834 0.00591613 -1.35542e-10)
(1.03516 0.00508093 -2.42973e-12)
(1.01726 0.00339602 -2.29628e-11)
(1.00756 0.0011345 -1.71909e-10)
(1.00783 -0.0013849 -4.09882e-10)
(1.01846 -0.00373792 -6.94872e-10)
(1.03781 -0.00542037 -9.85725e-10)
(1.06212 -0.00599968 -1.24368e-09)
(1.08622 -0.0053004 -1.43468e-09)
(1.10493 -0.00349154 -1.53125e-09)
(1.11447 -0.00102404 -1.5135e-09)
(1.1133 0.00152788 -1.37115e-09)
(1.10228 0.00363549 -1.11139e-09)
(1.08413 0.0049294 -7.73671e-10)
(1.06267 0.0052388 -4.30697e-10)
(1.04198 0.0045747 -1.62587e-10)
(1.0258 0.0030838 -1.87853e-11)
(1.01705 0.00101389 1.23623e-12)
(1.01751 -0.00128557 -6.4725e-11)
(1.02733 -0.00336901 -1.69585e-10)
(1.04467 -0.0047706 -2.7715e-10)
(1.06587 -0.00514822 -3.67189e-10)
(1.08627 -0.00441763 -4.31355e-10)
(1.10154 -0.00278774 -4.67252e-10)
(1.10875 -0.00067662 -4.73976e-10)
(1.10696 0.00143619 -4.49866e-10)
(1.09713 0.00314628 -3.93331e-10)
(1.08157 0.00419224 -3.07267e-10)
(1.06334 0.00445313 -2.02708e-10)
(1.0457 0.0039169 -9.69939e-11)
(1.03179 0.00266162 -6.25039e-12)
(1.02426 0.000868434 6.19039e-11)
(1.02483 -0.0011537 1.09546e-10)
(1.03366 -0.00298686 1.43832e-10)
(1.04906 -0.00420014 1.71521e-10)
(1.06771 -0.0044926 1.96338e-10)
(1.08544 -0.00380768 2.19229e-10)
(1.09847 -0.00235152 2.39648e-10)
(1.10435 -0.000508712 2.56245e-10)
(1.10244 0.00129491 2.66445e-10)
(1.09374 0.00271718 2.65855e-10)
(1.08036 0.00355696 2.49481e-10)
(1.06492 0.00373771 2.15532e-10)
(1.05014 0.00325956 1.69385e-10)
(1.03861 0.00217385 1.23375e-10)
(1.03263 0.000606512 9.12297e-11)
(1.03381 -0.00119822 8.13076e-11)
(1.04248 -0.00287969 9.3818e-11)
(1.0573 -0.00404267 1.22947e-10)
(1.07537 -0.00439003 1.60917e-10)
(1.09293 -0.00383547 2.00998e-10)
(1.10641 -0.00253523 2.38582e-10)
(1.11335 -0.000827484 2.70858e-10)
(1.11294 0.000884486 2.95679e-10)
(1.10599 0.00225487 3.10194e-10)
(1.09448 0.00307272 3.10321e-10)
(1.08094 0.00326893 2.92155e-10)
(1.06789 0.00287002 2.55146e-10)
(1.05762 0.00194371 2.04675e-10)
(1.0521 0.000583008 1.5121e-10)
(1.05288 -0.00106254 1.06023e-10)
(1.06075 -0.00275414 7.65598e-11)
(1.07529 -0.00418369 6.45801e-11)
(1.09476 -0.00505462 6.74142e-11)
(1.11634 -0.00518473 8.04958e-11)
(1.13678 -0.00456966 9.93913e-11)
(1.15325 -0.00338241 1.20718e-10)
(1.16397 -0.00190648 1.42224e-10)
(1.16838 -0.000454744 1.62475e-10)
(1.16736 0.000720485 1.80437e-10)
(1.16216 0.00146869 1.95072e-10)
(1.15531 0.00175178 2.05025e-10)
(1.1475 0.00167339 2.0887e-10)
(1.142 0.00124269 2.04114e-10)
(1.1366 0.000924602 1.95009e-10)
(1.13558 5.68912e-06 1.59293e-10)
(1.0001 -0.000670575 6.98203e-20)
(1.00173 -0.00209668 6.7567e-19)
(1.00557 -0.00368337 1.21654e-18)
(1.01157 -0.00542562 1.75497e-18)
(1.02001 -0.00726625 2.45659e-18)
(1.03099 -0.0090597 3.16901e-18)
(1.04434 -0.0105939 3.58802e-18)
(1.05955 -0.0115403 4.8198e-18)
(1.07561 -0.011574 3.76488e-18)
(1.09107 -0.0103818 3.95997e-18)
(1.104 -0.00785096 5.02535e-18)
(1.11261 -0.00430143 6.79723e-18)
(1.11581 -0.000216762 7.01099e-18)
(1.11317 0.00386849 7.67332e-18)
(1.10508 0.00720704 8.58134e-18)
(1.09312 0.00906329 9.34274e-18)
(1.0798 0.00901628 8.91115e-18)
(1.06794 0.00704874 6.04233e-18)
(1.06008 0.0035708 1.24617e-18)
(1.05793 -0.000635993 3.26449e-19)
(1.0619 -0.00449795 1.89732e-17)
(1.07071 -0.00680426 5.8517e-17)
(1.08133 -0.00660233 7.90316e-17)
(1.08971 -0.00373749 6.4996e-17)
(1.09231 0.00095985 3.93208e-17)
(1.08747 0.00610149 1.62239e-17)
(1.07567 0.0104021 5.58037e-17)
(1.05887 0.0130518 1.12625e-16)
(1.03973 0.0137 -5.50187e-16)
(1.0211 0.012277 -1.62459e-15)
(1.00578 0.00885359 6.27631e-15)
(0.996413 0.00363704 3.29338e-14)
(0.995331 -0.00289126 -3.06384e-14)
(1.00402 -0.00972637 -5.95992e-13)
(1.0221 -0.01523 -1.89983e-12)
(1.04641 -0.0175532 -3.10888e-12)
(1.07123 -0.0155673 -3.02762e-12)
(1.09006 -0.00965144 -1.8196e-12)
(1.09823 -0.00160367 -6.54456e-13)
(1.09444 0.00629521 -8.83264e-14)
(1.08057 0.0122945 7.64039e-14)
(1.06024 0.0156083 8.03988e-14)
(1.03737 0.0161912 -2.89936e-14)
(1.01553 0.0142892 -2.98788e-13)
(0.99784 0.0101317 -4.4428e-13)
(0.987249 0.00392716 7.94792e-13)
(0.986505 -0.00384588 6.40916e-12)
(0.997454 -0.0120119 1.86382e-11)
(1.01966 -0.0185818 3.44345e-11)
(1.04927 -0.0213437 4.66755e-11)
(1.07942 -0.0189823 4.79491e-11)
(1.10242 -0.0119467 3.63603e-11)
(1.1127 -0.00235069 2.05143e-11)
(1.10868 0.00705212 9.38214e-12)
(1.09269 0.0140681 2.35983e-12)
(1.06933 0.017714 -5.9731e-13)
(1.04353 0.0180557 1.85141e-12)
(1.01945 0.0156214 6.37941e-12)
(1.00036 0.0108955 -8.48398e-12)
(0.989059 0.00421291 -9.52699e-11)
(0.988045 -0.00391328 -3.27194e-10)
(0.998939 -0.012315 -7.46966e-10)
(1.02121 -0.0190689 -1.2909e-09)
(1.05118 -0.0220657 -1.76934e-09)
(1.08231 -0.0200041 -1.96645e-09)
(1.10706 -0.0131667 -1.79213e-09)
(1.11949 -0.00342967 -1.34077e-09)
(1.1172 0.00651446 -8.07378e-10)
(1.10185 0.0142323 -3.61688e-10)
(1.078 0.0183631 -8.14466e-11)
(1.05114 0.0187592 4.19357e-11)
(1.02618 0.016033 4.49372e-11)
(1.00675 0.0109378 -6.78615e-11)
(0.995584 0.00407173 -3.37104e-10)
(0.994811 -0.00390235 -8.06758e-10)
(1.00554 -0.0118262 -1.46131e-09)
(1.02679 -0.017984 -2.19414e-09)
(1.05482 -0.0206273 -2.8343e-09)
(1.08363 -0.0187735 -3.20954e-09)
(1.10668 -0.0127297 -3.21006e-09)
(1.1189 -0.00402473 -2.83108e-09)
(1.11804 0.005149 -2.17559e-09)
(1.10509 0.0126665 -1.41097e-09)
(1.0836 0.0170858 -7.15051e-10)
(1.05848 0.0179113 -2.21998e-10)
(1.03459 0.0154487 8.23721e-12)
(1.01601 0.0104053 -1.6694e-11)
(1.00575 0.00358656 -2.49611e-10)
(1.00583 -0.00406144 -6.2658e-10)
(1.01677 -0.0112485 -1.07451e-09)
(1.03691 -0.0164147 -1.51653e-09)
(1.06225 -0.018215 -1.88403e-09)
(1.08728 -0.0161076 -2.1266e-09)
(1.10652 -0.0106214 -2.21287e-09)
(1.11611 -0.00314462 -2.1277e-09)
(1.11463 0.0045773 -1.87379e-09)
(1.10309 0.0109507 -1.4787e-09)
(1.08438 0.01487 -1.00575e-09)
(1.06238 0.0158283 -5.49061e-10)
(1.04121 0.0138572 -2.0271e-10)
(1.02463 0.00938409 -2.05648e-11)
(1.01568 0.00313388 2.28764e-12)
(1.01629 -0.00385174 -8.56315e-11)
(1.0267 -0.0102121 -2.23525e-10)
(1.04499 -0.0145026 -3.62533e-10)
(1.06722 -0.0156579 -4.743e-10)
(1.08842 -0.0134201 -5.47798e-10)
(1.10402 -0.0084438 -5.81695e-10)
(1.11105 -0.00202118 -5.77658e-10)
(1.1087 0.0043849 -5.36918e-10)
(1.09811 0.00955227 -4.607e-10)
(1.08181 0.012701 -3.54483e-10)
(1.06294 0.0134782 -2.31428e-10)
(1.04485 0.0118529 -1.10128e-10)
(1.03071 0.00805395 -6.71205e-12)
(1.02325 0.00261401 7.23908e-11)
(1.02427 -0.00354078 1.30825e-10)
(1.03395 -0.00913242 1.76484e-10)
(1.05045 -0.0128281 2.15293e-10)
(1.07015 -0.0136969 2.48875e-10)
(1.08863 -0.011571 2.75959e-10)
(1.10189 -0.00709834 2.94929e-10)
(1.10748 -0.00146819 3.05068e-10)
(1.10486 0.00401862 3.05726e-10)
(1.09524 0.00832547 2.94764e-10)
(1.08093 0.0108501 2.69006e-10)
(1.0647 0.011371 2.27729e-10)
(1.04934 0.00989515 1.76777e-10)
(1.03756 0.00657683 1.28666e-10)
(1.03172 0.0017908 9.71617e-11)
(1.03349 -0.00372529 9.04273e-11)
(1.04316 -0.00886441 1.0806e-10)
(1.05924 -0.0124044 1.43189e-10)
(1.07852 -0.0134295 1.86765e-10)
(1.09697 -0.0116841 2.30914e-10)
(1.11081 -0.00766555 2.70302e-10)
(1.11753 -0.00242433 3.0194e-10)
(1.11643 0.0028054 3.24029e-10)
(1.10849 0.00697464 3.34379e-10)
(1.09591 0.00944839 3.29638e-10)
(1.08135 0.0100245 3.06539e-10)
(1.06748 0.00878977 2.65064e-10)
(1.05666 0.00595041 2.11069e-10)
(1.05098 0.00178399 1.55404e-10)
(1.05205 -0.00325987 1.09497e-10)
(1.06069 -0.00844862 8.06384e-11)
(1.0764 -0.0128263 7.01417e-11)
(1.09721 -0.0154715 7.47434e-11)
(1.12 -0.0158247 8.93317e-11)
(1.14128 -0.0138848 1.0912e-10)
(1.15806 -0.0102013 1.30616e-10)
(1.16856 -0.00565821 1.51664e-10)
(1.17234 -0.00121728 1.7105e-10)
(1.17043 0.00235816 1.87986e-10)
(1.16425 0.00461812 2.01618e-10)
(1.1565 0.0054575 2.10681e-10)
(1.14788 0.00518839 2.13751e-10)
(1.14189 0.00385655 2.08311e-10)
(1.13602 0.00285361 1.98579e-10)
(1.13514 1.07347e-05 1.62319e-10)
(1.0001 -0.00111137 8.86742e-22)
(1.0017 -0.00347858 9.88815e-21)
(1.00549 -0.00612119 1.17114e-20)
(1.01145 -0.0090367 -9.14153e-21)
(1.0199 -0.012135 -7.60116e-20)
(1.03098 -0.0151769 5.72891e-20)
(1.04459 -0.0178096 -6.71261e-19)
(1.06026 -0.01947 -6.65959e-19)
(1.077 -0.0195982 1.44223e-18)
(1.09327 -0.0176262 1.90993e-19)
(1.10697 -0.0133398 -5.3605e-18)
(1.11607 -0.00730354 -8.58089e-18)
(1.11945 -0.00033375 -6.33707e-18)
(1.11657 0.00667501 -7.69629e-19)
(1.10776 0.0124322 6.14068e-18)
(1.09471 0.0156454 1.00023e-17)
(1.08016 0.0155781 4.14784e-18)
(1.0672 0.0121965 -1.34545e-17)
(1.05863 0.00619722 -2.67386e-17)
(1.05639 -0.00109616 6.0494e-18)
(1.06102 -0.00784257 1.40332e-17)
(1.07119 -0.0119188 -1.62523e-16)
(1.08352 -0.0116226 -1.41886e-16)
(1.09334 -0.00666302 7.71267e-17)
(1.09662 0.00148578 1.27629e-16)
(1.09157 0.0103693 1.02522e-16)
(1.07886 0.0177535 2.91979e-16)
(1.06079 0.022278 -1.17278e-16)
(1.04029 0.023391 -2.42702e-15)
(1.02032 0.0210055 2.80661e-15)
(1.00378 0.0152358 2.05238e-14)
(0.993448 0.00638839 -5.23459e-14)
(0.991927 -0.00478434 -2.29626e-13)
(1.00108 -0.0166032 7.97951e-13)
(1.0208 -0.026216 4.6649e-12)
(1.04772 -0.0303329 8.14226e-12)
(1.07529 -0.0269171 6.80073e-12)
(1.09606 -0.0166308 2.91577e-12)
(1.10474 -0.00267261 4.61422e-13)
(1.10011 0.0109326 -1.8837e-13)
(1.08457 0.0211616 -5.87314e-14)
(1.06235 0.0267374 -2.00275e-14)
(1.03771 0.0276764 -2.43797e-13)
(1.0143 0.0244531 5.37744e-13)
(0.995228 0.0174424 3.79465e-12)
(0.983542 0.00691737 3.74416e-14)
(0.982272 -0.00640427 -5.10732e-11)
(0.99368 -0.0205468 -2.15923e-10)
(1.01763 -0.0320234 -4.9592e-10)
(1.05015 -0.0368914 -7.4004e-10)
(1.08361 -0.0327902 -7.65526e-10)
(1.10914 -0.0205235 -5.67763e-10)
(1.12027 -0.00385825 -3.01462e-10)
(1.11533 0.0123523 -1.0196e-10)
(1.09728 0.0243127 -8.40489e-12)
(1.07155 0.0304089 1.54113e-11)
(1.04364 0.030875 2.07127e-11)
(1.01785 0.0267071 2.3131e-11)
(0.997333 0.0187474 -4.09289e-11)
(0.984754 0.00749811 -3.37795e-10)
(0.982753 -0.00627889 -1.07626e-09)
(0.99337 -0.0206785 -2.32972e-09)
(1.0165 -0.0324219 -3.86305e-09)
(1.0485 -0.0378152 -5.16707e-09)
(1.08234 -0.0344997 -5.71062e-09)
(1.10967 -0.0228656 -5.24663e-09)
(1.12377 -0.00612769 -3.9796e-09)
(1.12182 0.0110175 -2.4351e-09)
(1.10556 0.0243131 -1.11626e-09)
(1.08001 0.0314 -2.75552e-10)
(1.05123 0.0320717 9.8388e-11)
(1.02447 0.0274517 1.25302e-10)
(1.00351 0.0188578 -1.32672e-10)
(0.99116 0.00725485 -7.0923e-10)
(0.989836 -0.00632355 -1.63414e-09)
(1.00102 -0.0199411 -2.8121e-09)
(1.02382 -0.0306063 -4.01794e-09)
(1.05407 -0.035233 -5.00045e-09)
(1.08501 -0.0321026 -5.56257e-09)
(1.10947 -0.0217803 -5.57135e-09)
(1.12214 -0.00693524 -4.97981e-09)
(1.12091 0.00867318 -3.89018e-09)
(1.10701 0.0214453 -2.56289e-09)
(1.0843 0.0289629 -1.32302e-09)
(1.05785 0.030411 -4.2964e-10)
(1.03267 0.0263085 -1.12425e-13)
(1.01298 0.017814 -1.98914e-11)
(1.00208 0.00622684 -3.93673e-10)
(1.00233 -0.00688384 -9.85895e-10)
(1.01448 -0.0192738 -1.6455e-09)
(1.03669 -0.0281707 -2.23889e-09)
(1.06433 -0.0311933 -2.68366e-09)
(1.09112 -0.0274321 -2.95056e-09)
(1.11109 -0.0178948 -3.03122e-09)
(1.12029 -0.00506185 -2.90954e-09)
(1.11761 0.00804845 -2.57035e-09)
(1.10453 0.0187614 -2.03576e-09)
(1.08431 0.0252801 -1.38895e-09)
(1.06104 0.0268173 -7.61889e-10)
(1.03892 0.0234463 -2.85833e-10)
(1.02177 0.0158482 -3.45885e-11)
(1.01282 0.00518622 -4.81755e-14)
(1.01422 -0.00679332 -1.12711e-10)
(1.02627 -0.0177193 -2.85538e-10)
(1.04674 -0.025035 -4.51135e-10)
(1.0711 -0.0268697 -5.76058e-10)
(1.09375 -0.0228166 -6.53888e-10)
(1.10973 -0.0140918 -6.89155e-10)
(1.11606 -0.00300075 -6.84724e-10)
(1.11222 0.00791517 -6.38844e-10)
(1.09981 0.016594 -5.50137e-10)
(1.08175 0.0217737 -4.24284e-10)
(1.0615 0.0229246 -2.77532e-10)
(1.04252 0.0200279 -1.32359e-10)
(1.02807 0.0134587 -7.03925e-12)
(1.02105 0.00409152 9.24726e-11)
(1.02332 -0.00649628 1.71492e-10)
(1.03497 -0.0160753 2.384e-10)
(1.05379 -0.022308 2.97265e-10)
(1.07557 -0.0235866 3.46281e-10)
(1.09534 -0.0196742 3.80889e-10)
(1.10884 -0.0117682 3.97792e-10)
(1.11359 -0.00198347 3.96941e-10)
(1.10936 0.00741996 3.80462e-10)
(1.09774 0.0146844 3.49995e-10)
(1.08146 0.0188283 3.05878e-10)
(1.06359 0.0195269 2.49883e-10)
(1.04716 0.0168239 1.89288e-10)
(1.035 0.0109847 1.37214e-10)
(1.02965 0.00264402 1.07244e-10)
(1.03283 -0.00691759 1.06472e-10)
(1.04467 -0.0157546 1.32659e-10)
(1.06326 -0.021726 1.76831e-10)
(1.08482 -0.0232603 2.28182e-10)
(1.10479 -0.0199742 2.77757e-10)
(1.11909 -0.012805 3.19741e-10)
(1.1252 -0.00362722 3.51022e-10)
(1.12261 0.00540977 3.69912e-10)
(1.11266 0.0125165 3.74641e-10)
(1.09791 0.0166409 3.6253e-10)
(1.08137 0.0174801 3.31188e-10)
(1.06595 0.0152116 2.81706e-10)
(1.0542 0.010193 2.21197e-10)
(1.04838 0.00289098 1.61571e-10)
(1.05026 -0.00591586 1.14648e-10)
(1.06061 -0.0149285 8.72679e-11)
(1.07868 -0.0224471 7.96882e-11)
(1.10199 -0.0268571 8.74511e-11)
(1.12686 -0.0272186 1.04508e-10)
(1.14941 -0.0235969 1.25577e-10)
(1.16646 -0.0170139 1.47115e-10)
(1.17632 -0.00904594 1.67235e-10)
(1.17874 -0.00136617 1.85131e-10)
(1.17509 0.00473036 2.00398e-10)
(1.16706 0.00849837 2.12441e-10)
(1.15764 0.00980952 2.20082e-10)
(1.14762 0.00918758 2.21826e-10)
(1.14085 0.0068018 2.15105e-10)
(1.13421 0.00491084 2.04083e-10)
(1.13392 -9.04407e-05 1.66729e-10)
(1.0001 -0.00154257 -5.25459e-20)
(1.00165 -0.00483502 -7.37673e-19)
(1.00536 -0.0085301 -1.36635e-18)
(1.01125 -0.0126352 -2.47006e-18)
(1.01969 -0.0170359 -2.77129e-18)
(1.03091 -0.0214057 -4.56769e-18)
(1.0449 -0.0252528 -8.9598e-18)
(1.06127 -0.0277568 4.14476e-18)
(1.07904 -0.0280954 2.77658e-19)
(1.09659 -0.0253707 -4.12317e-17)
(1.11147 -0.0192272 -5.44144e-17)
(1.12136 -0.0105335 -1.51978e-17)
(1.12503 -0.000472618 2.66739e-17)
(1.12181 0.00971961 6.20255e-17)
(1.1119 0.0181387 7.43325e-17)
(1.09714 0.0228519 4.19264e-17)
(1.08065 0.0227602 -4.65509e-17)
(1.06597 0.0177987 -1.44831e-16)
(1.05629 0.00896276 -5.54029e-17)
(1.05388 -0.00183896 7.11892e-17)
(1.05952 -0.0119133 -2.87008e-15)
(1.07184 -0.018071 -9.98465e-15)
(1.08688 -0.0176859 -1.20603e-14)
(1.099 -0.0102848 -6.4963e-15)
(1.10333 0.00186136 -1.77441e-15)
(1.09787 0.0149981 3.51167e-16)
(1.08368 0.0257964 4.42902e-16)
(1.06361 0.0323375 -6.22669e-15)
(1.04099 0.0339318 6.75146e-15)
(1.01899 0.0305294 9.53725e-14)
(1.0006 0.0222917 -1.85892e-13)
(0.988795 0.00956834 -1.79746e-12)
(0.986582 -0.00669791 9.36498e-13)
(0.996493 -0.0241578 3.22041e-11)
(1.0189 -0.0385538 1.07041e-10)
(1.05004 -0.0448139 1.77202e-10)
(1.08201 -0.0397474 1.73019e-10)
(1.10572 -0.0243642 1.0381e-10)
(1.11501 -0.00360398 3.66671e-11)
(1.10885 0.0163974 4.41443e-12)
(1.09056 0.0311773 -3.3078e-12)
(1.06531 0.0390346 -3.03748e-12)
(1.03793 0.0402115 -1.19786e-12)
(1.01217 0.0355278 9.03947e-12)
(0.991073 0.0255096 2.57677e-11)
(0.97767 0.0104132 -4.10399e-11)
(0.975182 -0.00889955 -4.54178e-10)
(0.986345 -0.0296783 -1.5172e-09)
(1.01172 -0.0468225 -3.1166e-09)
(1.04776 -0.0543559 -4.4808e-09)
(1.08621 -0.0484938 -4.7244e-09)
(1.11646 -0.0302688 -3.70483e-09)
(1.13012 -0.005422 -2.13659e-09)
(1.12473 0.018568 -8.41296e-10)
(1.10396 0.0359647 -1.42803e-10)
(1.07467 0.0445302 8.574e-11)
(1.0435 0.0448968 1.10204e-10)
(1.0151 0.0387686 6.87191e-11)
(0.992389 0.0274442 -1.60552e-10)
(0.977792 0.0115114 -9.26829e-10)
(0.974235 -0.00820702 -2.54571e-09)
(0.98458 -0.0291791 -4.92952e-09)
(1.00935 -0.0466399 -7.51317e-09)
(1.0446 -0.0550019 -9.57681e-09)
(1.08223 -0.0505982 -1.05303e-08)
(1.11278 -0.0338711 -1.00064e-08)
(1.12884 -0.00948555 -8.05057e-09)
(1.12729 0.0156342 -5.2919e-09)
(1.1099 0.0351442 -2.65033e-09)
(1.08216 0.0455228 -7.9403e-10)
(1.0508 0.0465175 1.1587e-10)
(1.02153 0.0398875 2.42932e-10)
(0.998423 0.0275936 -2.42363e-10)
(0.984591 0.0109155 -1.26544e-09)
(0.983011 -0.0088219 -2.70659e-09)
(0.995658 -0.0288155 -4.28251e-09)
(1.02147 -0.0445155 -5.65803e-09)
(1.05532 -0.0512328 -6.64248e-09)
(1.08924 -0.0464805 -7.20514e-09)
(1.11523 -0.0312861 -7.30853e-09)
(1.1278 -0.00972169 -6.81447e-09)
(1.12526 0.0127316 -5.63341e-09)
(1.10942 0.0309755 -3.94457e-09)
(1.08462 0.0416627 -2.1795e-09)
(1.05618 0.0437138 -7.99204e-10)
(1.02925 0.0378731 -8.18844e-11)
(1.00823 0.0256999 -6.00026e-11)
(0.996841 0.00891766 -5.75115e-10)
(0.997931 -0.0102543 -1.36707e-09)
(1.0124 -0.0284253 -2.16809e-09)
(1.03791 -0.0413453 -2.79454e-09)
(1.06885 -0.0454412 -3.19248e-09)
(1.09795 -0.0394895 -3.40338e-09)
(1.11864 -0.0251954 -3.47702e-09)
(1.12694 -0.0063878 -3.40053e-09)
(1.12216 0.0124739 -3.10623e-09)
(1.10648 0.0276068 -2.5547e-09)
(1.08378 0.0366059 -1.80823e-09)
(1.05852 0.0385123 -1.03162e-09)
(1.03502 0.033488 -4.14704e-10)
(1.01724 0.0224353 -7.4761e-11)
(1.00864 0.00691318 -9.57567e-12)
(1.01163 -0.0105744 -1.24944e-10)
(1.02638 -0.0264722 -3.03476e-10)
(1.05006 -0.0369206 -4.62733e-10)
(1.07728 -0.039167 -5.73019e-10)
(1.1017 -0.032736 -6.40972e-10)
(1.11797 -0.0195909 -6.81652e-10)
(1.12311 -0.00325159 -6.98181e-10)
(1.11701 0.0125211 -6.78792e-10)
(1.10186 0.0247856 -6.09039e-10)
(1.0812 0.0318491 -4.86423e-10)
(1.05887 0.0330916 -3.27375e-10)
(1.03861 0.028562 -1.60108e-10)
(1.02387 0.0187877 -8.63829e-12)
(1.0177 0.00499587 1.1842e-10)
(1.02203 -0.0105012 2.25601e-10)
(1.03666 -0.0243685 3.1975e-10)
(1.05869 -0.0331303 4.02139e-10)
(1.08314 -0.0344783 4.68225e-10)
(1.10443 -0.0282034 5.11559e-10)
(1.118 -0.0162163 5.27611e-10)
(1.12147 -0.00171982 5.15984e-10)
(1.11493 0.0119522 4.80247e-10)
(1.10051 0.0222784 4.2559e-10)
(1.08146 0.0279237 3.56928e-10)
(1.06131 0.0285176 2.80251e-10)
(1.04341 0.0241858 2.05821e-10)
(1.03086 0.0153283 1.48084e-10)
(1.02638 0.00287945 1.20064e-10)
(1.03171 -0.0112345 1.26605e-10)
(1.04664 -0.0240797 1.62364e-10)
(1.06856 -0.0324803 2.15585e-10)
(1.09294 -0.0341989 2.73814e-10)
(1.11463 -0.0288192 3.27674e-10)
(1.12928 -0.0178645 3.71647e-10)
(1.13442 -0.00417394 4.02938e-10)
(1.12979 0.00908388 4.19799e-10)
(1.11715 0.0193268 4.20149e-10)
(1.09953 0.0250874 4.01167e-10)
(1.08037 0.026 3.60956e-10)
(1.06291 0.0223721 3.01994e-10)
(1.05001 0.0147324 2.33416e-10)
(1.0442 0.00375808 1.68916e-10)
(1.0474 -0.00937302 1.20982e-10)
(1.06026 -0.0226603 9.57725e-11)
(1.08148 -0.0335162 9.20216e-11)
(1.10785 -0.0395656 1.03669e-10)
(1.13498 -0.0395354 1.23512e-10)
(1.1586 -0.0336844 1.45739e-10)
(1.1755 -0.0236475 1.66845e-10)
(1.18417 -0.0117991 1.85381e-10)
(1.1847 -0.000582066 2.01141e-10)
(1.1788 0.00816494 2.14249e-10)
(1.1685 0.0134053 2.24408e-10)
(1.15712 0.0150479 2.30452e-10)
(1.14548 0.0138138 2.30699e-10)
(1.13798 0.0101456 2.22477e-10)
(1.13058 0.00701171 2.09842e-10)
(1.13162 -0.000454516 1.71385e-10)
(1.00009 -0.00195904 -3.70311e-18)
(1.00159 -0.00615216 -1.16705e-17)
(1.00517 -0.0108918 -1.04032e-17)
(1.01094 -0.0162065 -1.42866e-17)
(1.01935 -0.0219702 -1.00345e-17)
(1.03071 -0.02778 -3.22533e-17)
(1.04518 -0.0330098 1.11024e-17)
(1.06249 -0.0365509 2.69276e-17)
(1.08168 -0.0372801 -1.78014e-16)
(1.10103 -0.0338447 -1.36679e-16)
(1.11757 -0.0256841 2.95073e-16)
(1.12855 -0.0140646 6.64877e-16)
(1.13265 -0.000547 6.68369e-16)
(1.12899 0.0132923 5.05439e-16)
(1.11754 0.0248199 1.94149e-16)
(1.10039 0.0312917 -2.90473e-16)
(1.0812 0.0311751 -8.72933e-16)
(1.06409 0.0243821 -9.7977e-16)
(1.05281 0.0122436 1.24525e-16)
(1.05011 -0.0027115 -3.77237e-15)
(1.05716 -0.0168351 -8.10538e-15)
(1.07257 -0.0256176 2.12043e-14)
(1.09154 -0.0252124 2.77033e-14)
(1.10697 -0.0148794 -2.0234e-15)
(1.11277 0.00207046 -1.2211e-14)
(1.10666 0.0202102 -4.52357e-15)
(1.09031 0.0348885 -1.02171e-14)
(1.06741 0.0436248 -3.0759e-14)
(1.04185 0.0457008 1.5055e-13)
(1.01707 0.0411973 3.47694e-13)
(0.996146 0.0303324 -2.17282e-12)
(0.982239 0.0134023 -6.64875e-12)
(0.978964 -0.00862108 1.7728e-11)
(0.989897 -0.0327532 1.27923e-10)
(1.01618 -0.0529979 3.18885e-10)
(1.05353 -0.0619046 4.95716e-10)
(1.09195 -0.0547619 5.34011e-10)
(1.11982 -0.0331143 3.88825e-10)
(1.12972 -0.00420764 1.8069e-10)
(1.12107 0.0231824 4.36567e-11)
(1.09867 0.042935 -8.93486e-12)
(1.06912 0.0530457 -1.61507e-11)
(1.03799 0.0542413 -2.81219e-12)
(1.00913 0.0478777 4.19651e-11)
(0.985301 0.0346911 6.23029e-11)
(0.969194 0.0148729 -3.05131e-10)
(0.964002 -0.0107224 -1.78613e-09)
(0.973322 -0.0388022 -4.85355e-09)
(0.999248 -0.0627349 -8.86858e-09)
(1.03906 -0.0741555 -1.21636e-08)
(1.08378 -0.067157 -1.30553e-08)
(1.12082 -0.0424706 -1.09799e-08)
(1.13932 -0.00796801 -7.05468e-09)
(1.13513 0.025452 -3.24967e-09)
(1.11205 0.0493419 -8.26506e-10)
(1.0786 0.060629 1.67976e-10)
(1.04318 0.0606499 3.45704e-10)
(1.01121 0.0522555 1.71433e-10)
(0.985436 0.0374011 -4.48756e-10)
(0.968146 0.0165835 -1.96926e-09)
(0.963004 -0.00965948 -4.56337e-09)
(0.974096 -0.0382278 -7.69194e-09)
(1.00225 -0.0624394 -1.04911e-08)
(1.04236 -0.0742731 -1.2467e-08)
(1.08453 -0.0685994 -1.35232e-08)
(1.11806 -0.0461563 -1.34318e-08)
(1.13525 -0.0133522 -1.17654e-08)
(1.13323 0.020509 -8.59201e-09)
(1.11414 0.0468773 -4.86766e-09)
(1.08382 0.0609432 -1.79787e-09)
(1.04948 0.0623747 -5.79445e-11)
(1.01727 0.0536298 3.21131e-10)
(0.991647 0.0373279 -4.03858e-10)
(0.976384 0.014968 -1.9099e-09)
(0.975284 -0.011847 -3.7629e-09)
(0.990663 -0.0391676 -5.4445e-09)
(1.02076 -0.0604451 -6.60042e-09)
(1.05903 -0.0691325 -7.22554e-09)
(1.09621 -0.0620633 -7.55092e-09)
(1.12353 -0.0410515 -7.72529e-09)
(1.13542 -0.0119308 -7.57868e-09)
(1.13068 0.0178805 -6.75333e-09)
(1.11193 0.0417706 -5.13917e-09)
(1.08419 0.055579 -3.10838e-09)
(1.05319 0.0580825 -1.3113e-09)
(1.02419 0.0502724 -2.77591e-10)
(1.00185 0.034018 -1.66167e-10)
(0.990396 0.0113846 -7.67462e-10)
(0.993161 -0.0146576 -1.67361e-09)
(1.01092 -0.0392628 -2.49905e-09)
(1.04046 -0.0564013 -3.04063e-09)
(1.075 -0.0612235 -3.30099e-09)
(1.10637 -0.0523318 -3.40012e-09)
(1.12756 -0.0323799 -3.45107e-09)
(1.13459 -0.00680639 -3.46046e-09)
(1.1272 0.0182912 -3.31441e-09)
(1.10825 0.0379559 -2.88191e-09)
(1.08239 0.0492535 -2.15599e-09)
(1.05458 0.0511876 -1.3039e-09)
(1.02942 0.044081 -5.74511e-10)
(1.01108 0.0290354 -1.43975e-10)
(1.00334 0.00799412 -2.77998e-11)
(1.0087 -0.0156558 -1.13787e-10)
(1.02695 -0.0369336 -2.6257e-10)
(1.05436 -0.0504933 -3.85849e-10)
(1.08458 -0.0526996 -4.61766e-10)
(1.11062 -0.0431599 -5.08982e-10)
(1.12688 -0.0247889 -5.52768e-10)
(1.1305 -0.00251155 -5.99516e-10)
(1.12173 0.0185471 -6.28939e-10)
(1.10337 0.0345018 -6.08263e-10)
(1.07958 0.0432643 -5.17649e-10)
(1.05477 0.0442118 -3.665e-10)
(1.03303 0.037526 -1.86699e-10)
(1.01811 0.0239142 -1.01929e-11)
(1.01327 0.00501378 1.4755e-10)
(1.02037 -0.0159735 2.85769e-10)
(1.03864 -0.0344051 4.06657e-10)
(1.06427 -0.0455541 5.08619e-10)
(1.09142 -0.0464598 5.87208e-10)
(1.11398 -0.037101 6.37585e-10)
(1.12729 -0.0202819 6.55499e-10)
(1.12913 -0.000442 6.38602e-10)
(1.11994 0.0179039 5.88575e-10)
(1.10235 0.0314176 5.11615e-10)
(1.08016 0.0384213 4.16901e-10)
(1.05742 0.0385472 3.16264e-10)
(1.0379 0.0320485 2.25086e-10)
(1.02507 0.0194997 1.60375e-10)
(1.02189 0.00222149 1.34429e-10)
(1.02998 -0.0170435 1.48796e-10)
(1.04855 -0.0341791 1.94067e-10)
(1.07408 -0.0448791 2.55372e-10)
(1.10121 -0.0462981 3.18841e-10)
(1.12431 -0.0381448 3.75155e-10)
(1.13893 -0.022694 4.19664e-10)
(1.14275 -0.00387281 4.50457e-10)
(1.1358 0.0140488 4.65982e-10)
(1.12022 0.027646 4.63471e-10)
(1.09949 0.035027 4.39128e-10)
(1.07748 0.0357854 3.90845e-10)
(1.05784 0.0303851 3.22415e-10)
(1.04383 0.0195443 2.455e-10)
(1.03834 0.00419862 1.76174e-10)
(1.0434 -0.0139415 1.27805e-10)
(1.05932 -0.0319687 1.05664e-10)
(1.08402 -0.0462426 1.06592e-10)
(1.1133 -0.0536106 1.2264e-10)
(1.14214 -0.0526012 1.45348e-10)
(1.16604 -0.0438599 1.68426e-10)
(1.18199 -0.0297914 1.88528e-10)
(1.18884 -0.0136485 2.04769e-10)
(1.1871 0.00133601 2.17679e-10)
(1.17879 0.0127931 2.28032e-10)
(1.16625 0.0194061 2.35886e-10)
(1.15306 0.0211847 2.40062e-10)
(1.14006 0.0190064 2.38588e-10)
(1.13227 0.0137791 2.28669e-10)
(1.12449 0.00890426 2.14194e-10)
(1.12794 -0.00132892 1.74975e-10)
(1.00008 -0.00235467 3.87384e-18)
(1.00149 -0.00741283 1.41639e-17)
(1.0049 -0.0131821 8.78981e-18)
(1.01049 -0.019727 2.23204e-17)
(1.01881 -0.0269276 4.85464e-18)
(1.0303 -0.0343229 -1.68089e-17)
(1.04533 -0.0411625 3.01168e-16)
(1.06378 -0.0460132 -5.62728e-16)
(1.08483 -0.0474019 -7.34983e-16)
(1.10662 -0.043329 2.23181e-15)
(1.1254 -0.0329418 3.41908e-15)
(1.13784 -0.0180725 1.25658e-15)
(1.14259 -0.00071925 -8.25965e-16)
(1.13842 0.0172691 -2.70418e-15)
(1.12495 0.0324223 -4.4666e-15)
(1.10457 0.0409874 -6.12799e-15)
(1.08172 0.040886 -6.74119e-15)
(1.06131 0.0319733 -2.60082e-15)
(1.04782 0.0159327 -4.84048e-15)
(1.04465 -0.00402603 -2.67677e-14)
(1.05352 -0.0231537 2.74985e-13)
(1.07312 -0.0352788 1.11405e-12)
(1.09755 -0.0349031 1.44218e-12)
(1.11759 -0.020887 7.7128e-13)
(1.12535 0.00204967 1.39714e-13)
(1.11825 0.0262509 -5.07398e-14)
(1.0989 0.0454269 -1.03202e-13)
(1.07221 0.0565628 1.26373e-14)
(1.04285 0.059094 6.42885e-13)
(1.0145 0.0533801 -8.45969e-13)
(0.990273 0.0397102 -6.2806e-12)
(0.973529 0.0181663 9.15427e-12)
(0.968602 -0.0105099 5.29492e-11)
(0.980124 -0.0427513 -9.22824e-11)
(1.01016 -0.0703743 -6.7921e-10)
(1.05475 -0.0827162 -1.26832e-09)
(1.10227 -0.0729052 -1.13699e-09)
(1.13722 -0.0432319 -4.79813e-10)
(1.149 -0.00419149 -2.24702e-12)
(1.1372 0.031953 1.04931e-10)
(1.1091 0.0571569 3.99178e-11)
(1.07373 0.069364 -1.54746e-11)
(1.0378 0.0701994 7.19526e-12)
(1.00511 0.0618703 1.09724e-10)
(0.97772 0.045478 1.60436e-11)
(0.957516 0.0210745 -1.15443e-09)
(0.947989 -0.0109438 -4.46237e-09)
(0.954833 -0.047288 -9.81592e-09)
(0.982279 -0.0797021 -1.55942e-08)
(1.02738 -0.0966491 -1.99676e-08)
(1.07908 -0.0893833 -2.1662e-08)
(1.12285 -0.0580172 -1.97527e-08)
(1.14652 -0.0125419 -1.44437e-08)
(1.14455 0.0322283 -7.89143e-09)
(1.12012 0.0642268 -2.73015e-09)
(1.08272 0.078953 -5.15745e-11)
(1.04256 0.078582 6.89727e-10)
(1.00619 0.0676336 3.4317e-10)
(0.976593 0.0489748 -9.23095e-10)
(0.956419 0.022735 -3.33973e-09)
(0.950608 -0.011169 -6.6021e-09)
(0.964275 -0.048797 -9.68512e-09)
(0.997562 -0.0807818 -1.17473e-08)
(1.04337 -0.0961628 -1.28386e-08)
(1.09002 -0.0884669 -1.35372e-08)
(1.12587 -0.0592224 -1.3992e-08)
(1.14311 -0.017044 -1.34514e-08)
(1.13945 0.0262149 -1.10682e-08)
(1.11775 0.0598535 -7.17113e-09)
(1.08438 0.0778416 -3.19894e-09)
(1.04683 0.0797818 -5.39224e-10)
(1.01152 0.0687938 2.48462e-10)
(0.983417 0.0480333 -6.30324e-10)
(0.967199 0.0191049 -2.52769e-09)
(0.967517 -0.0159497 -4.60741e-09)
(0.986553 -0.0515477 -6.16054e-09)
(1.02129 -0.0787102 -6.91913e-09)
(1.06372 -0.08898 -7.08625e-09)
(1.10363 -0.0787424 -7.08482e-09)
(1.13188 -0.0508869 -7.2201e-09)
(1.14287 -0.0132797 -7.39224e-09)
(1.13567 0.0244932 -7.09603e-09)
(1.11362 0.054219 -5.88677e-09)
(1.08251 0.0710254 -3.90677e-09)