/*--------------------------------*- C++ -*----------------------------------*\
  =========                 |
  \\      /  F ield         | OpenFOAM: The Open Source CFD Toolbox
   \\    /   O peration     | Website:  https://openfoam.org
    \\  /    A nd           | Version:  11
     \\/     M anipulation  |
\*---------------------------------------------------------------------------*/
FoamFile
{
    format      ascii;
    class       volVectorField;
    location    "12.771148";
    object      vorticity;
}
// * * * * * * * * * * * * * * * * * * * * * * * * * * * * * * * * * * * * * //

dimensions      [0 0 -1 0 0 0 0];

internalField   nonuniform List<vector> 
7132
(
(-6.91777e-17 -1.88844e-15 -0.00843033)
(-2.26414e-16 -1.815e-15 -0.00861164)
(-2.09689e-16 -2.64268e-17 -0.00897555)
(-2.61992e-16 -1.81383e-15 -0.00947955)
(-3.51755e-16 -1.78095e-15 -0.0100433)
(-3.2689e-16 2.57687e-17 -0.0105752)
(-2.77685e-16 4.50881e-17 -0.0109957)
(-2.17086e-16 4.27076e-17 -0.0112492)
(-1.99833e-16 3.5458e-17 -0.0113177)
(-1.72091e-16 2.53308e-17 -0.0112172)
(-1.3539e-16 1.35202e-17 -0.0109934)
(-8.50866e-17 3.96913e-18 -0.0107288)
(-9.34636e-17 -3.13643e-18 -0.0105021)
(-9.58413e-17 3.00588e-17 -0.0103943)
(-1.42145e-17 -1.67332e-15 -0.0104419)
(5.63412e-17 -1.67718e-15 -0.0106333)
(1.28737e-16 -3.44084e-15 -0.0109087)
(1.29357e-16 2.08752e-17 -0.0111708)
(1.78487e-16 -1.70608e-15 -0.0113118)
(1.56487e-16 -1.73192e-15 -0.0112357)
(8.27106e-17 -3.70671e-18 -0.0108825)
(2.00171e-16 7.05584e-18 -0.0102709)
(-1.52649e-16 8.42339e-17 -0.00955903)
(-6.07242e-15 2.33031e-16 -0.00894289)
(-1.63765e-14 1.8999e-15 -0.00856661)
(-1.67997e-14 -1.17624e-16 -0.0085369)
(-7.82624e-15 -2.22334e-16 -0.00895981)
(-1.45087e-15 -1.47023e-16 -0.0098557)
(6.15341e-16 -1.41341e-16 -0.0110242)
(1.07974e-15 1.7728e-15 -0.0121507)
(-1.23068e-15 2.9793e-15 -0.0129644)
(-4.92607e-15 2.49266e-15 -0.0132869)
(9.8189e-15 -1.23814e-14 -0.0130285)
(4.17671e-14 -2.81989e-14 -0.012194)
(-3.61232e-14 7.65812e-14 -0.0109304)
(-3.08497e-13 5.78949e-13 -0.00959981)
(-9.8643e-14 1.42432e-12 -0.00861358)
(9.91887e-13 1.71115e-12 -0.00812951)
(8.00332e-13 6.7872e-13 -0.00804369)
(-1.33858e-12 -8.92219e-13 -0.00828225)
(-2.52353e-12 -1.59683e-12 -0.00901517)
(-1.95018e-12 -1.2427e-12 -0.0104149)
(-9.78335e-13 -5.66775e-13 -0.012236)
(-1.61796e-13 -1.27097e-13 -0.0139454)
(6.26003e-13 -2.1221e-13 -0.0150676)
(7.67539e-13 -6.92951e-13 -0.0153372)
(-3.83809e-12 -3.97986e-13 -0.0147327)
(-1.37876e-11 3.22879e-12 -0.0134658)
(6.56492e-12 1.39666e-11 -0.0119381)
(1.72976e-10 3.30814e-11 -0.0106877)
(6.55507e-10 5.20991e-11 -0.0100344)
(1.44793e-09 5.38561e-11 -0.00987237)
(2.15996e-09 2.71383e-11 -0.010063)
(2.30594e-09 -1.67061e-11 -0.010547)
(1.82651e-09 -4.70058e-11 -0.0112911)
(1.08558e-09 -4.77174e-11 -0.0125305)
(4.53358e-10 -3.5429e-11 -0.0142859)
(9.34701e-11 -2.3549e-11 -0.0159259)
(-3.60954e-11 -7.20069e-12 -0.0169565)
(-6.00871e-11 9.15539e-12 -0.0172039)
(-5.54826e-11 -9.19421e-12 -0.0166026)
(4.29863e-11 -1.2709e-10 -0.0147964)
(4.76064e-10 -4.01192e-10 -0.0108165)
(1.56879e-09 -8.18399e-10 -0.00333966)
(3.48616e-09 -1.25445e-09 0.00833984)
(5.99528e-09 -1.49721e-09 0.0233126)
(8.49743e-09 -1.35241e-09 0.0388025)
(1.02678e-08 -7.76445e-10 0.0508271)
(1.06915e-08 6.99634e-11 0.0553159)
(9.53131e-09 9.00534e-10 0.0498046)
(7.16623e-09 1.45114e-09 0.0352272)
(4.40962e-09 1.5794e-09 0.0159975)
(2.0514e-09 1.30629e-09 -0.00206151)
(5.24613e-10 8.02574e-10 -0.0144763)
(-1.6303e-10 2.68227e-10 -0.0197189)
(-2.30792e-10 -2.08327e-10 -0.018787)
(1.24018e-10 -6.576e-10 -0.013806)
(8.18366e-10 -1.11399e-09 -0.00710619)
(1.79304e-09 -1.52822e-09 -0.000992734)
(2.88664e-09 -1.79133e-09 0.00280452)
(3.85587e-09 -1.81703e-09 0.00466731)
(4.52715e-09 -1.5884e-09 0.00755454)
(4.88457e-09 -1.13978e-09 0.0149072)
(4.98967e-09 -5.17831e-10 0.0274335)
(4.84122e-09 2.31964e-10 0.0414685)
(4.35874e-09 1.05077e-09 0.0505039)
(3.51795e-09 1.82219e-09 0.049319)
(2.44723e-09 2.31985e-09 0.0372332)
(1.37785e-09 2.28415e-09 0.0184055)
(5.41813e-10 1.63205e-09 -0.000290806)
(8.78694e-11 5.73955e-10 -0.0134774)
(5.24626e-11 -5.05578e-10 -0.0207758)
(3.7029e-10 -1.29078e-09 -0.0266422)
(8.99153e-10 -1.67243e-09 -0.0366129)
(1.45463e-09 -1.71064e-09 -0.05277)
(1.86939e-09 -1.53033e-09 -0.0715527)
(2.05449e-09 -1.2494e-09 -0.0861168)
(2.01771e-09 -9.52657e-10 -0.0908891)
(1.83379e-09 -6.8738e-10 -0.0842829)
(1.59582e-09 -4.62604e-10 -0.068354)
(1.37446e-09 -2.45139e-10 -0.0470239)
(1.19943e-09 4.29246e-11 -0.0243668)
(1.06877e-09 4.87486e-10 -0.00343835)
(9.57054e-10 1.09313e-09 0.0132895)
(8.30712e-10 1.71426e-09 0.0237463)
(6.72735e-10 2.1021e-09 0.026774)
(4.97385e-10 2.06621e-09 0.0223968)
(3.44049e-10 1.61219e-09 0.0113079)
(2.56475e-10 9.26163e-10 -0.00583144)
(2.60634e-10 2.38667e-10 -0.027946)
(3.5294e-10 -2.97217e-10 -0.052491)
(5.03153e-10 -6.3647e-10 -0.0753889)
(6.68093e-10 -8.05517e-10 -0.0924702)
(8.07423e-10 -8.55323e-10 -0.101273)
(8.9292e-10 -8.34059e-10 -0.101906)
(9.09568e-10 -7.7707e-10 -0.0967611)
(8.56811e-10 -7.07104e-10 -0.0887189)
(7.49163e-10 -6.43326e-10 -0.0796726)
(6.10749e-10 -6.01415e-10 -0.0706162)
(4.69335e-10 -5.68085e-10 -0.0616282)
(3.49619e-10 -4.74946e-10 -0.0519548)
(2.65495e-10 -2.24658e-10 -0.0405464)
(2.14981e-10 2.23697e-10 -0.0270349)
(1.84134e-10 7.87377e-10 -0.01246)
(1.60398e-10 1.2874e-09 0.00101357)
(1.46024e-10 1.55175e-09 0.0112923)
(1.61176e-10 1.5072e-09 0.0175918)
(2.32738e-10 1.19895e-09 0.0209136)
(3.75756e-10 7.4623e-10 0.0234654)
(5.79262e-10 2.79913e-10 0.0274692)
(8.03907e-10 -1.00188e-10 0.0340125)
(9.92746e-10 -3.38468e-10 0.0424143)
(1.09157e-09 -4.16782e-10 0.0503283)
(1.06998e-09 -3.43484e-10 0.0546257)
(9.31655e-10 -1.51387e-10 0.0527404)
(7.13405e-10 9.66157e-11 0.0438365)
(4.70273e-10 3.13244e-10 0.0294109)
(2.53548e-10 4.19507e-10 0.0129086)
(9.45692e-11 3.88973e-10 -0.00165423)
(8.02176e-13 2.62744e-10 -0.0113858)
(-3.82658e-11 1.16628e-10 -0.0155506)
(-4.15537e-11 1.0572e-11 -0.0153936)
(-2.79295e-11 -3.71506e-11 -0.013074)
(-1.11137e-11 -4.11771e-11 -0.0105235)
(1.74001e-12 -2.60553e-11 -0.00883503)
(8.80287e-12 -9.85181e-12 -0.00824776)
(1.12336e-11 -1.9769e-14 -0.0084806)
(1.10568e-11 3.38763e-12 -0.00910826)
(9.90609e-12 3.12007e-12 -0.00979292)
(8.63636e-12 1.76938e-12 -0.0103545)
(7.47754e-12 7.47747e-13 -0.0107395)
(6.3756e-12 3.98273e-13 -0.0109576)
(5.25287e-12 5.15978e-13 -0.0110376)
(4.11079e-12 7.69827e-13 -0.0110059)
(3.0243e-12 9.26142e-13 -0.0108871)
(2.09066e-12 9.10329e-13 -0.0106947)
(1.37846e-12 7.40307e-13 -0.0104937)
(9.20723e-13 5.08638e-13 -0.0101051)
(6.64166e-13 2.32132e-13 -0.0106401)
(6.86318e-13 3.36478e-14 -0.00936502)
(-7.03428e-17 -6.34074e-18 -0.0252043)
(-2.36965e-16 -1.00215e-17 -0.0257477)
(-2.30709e-16 -9.90831e-18 -0.0268478)
(-2.89879e-16 -1.146e-17 -0.0283881)
(-3.90591e-16 -1.20795e-17 -0.0301365)
(-3.81136e-16 -7.87812e-18 -0.031819)
(-3.43424e-16 -9.8141e-18 -0.0331872)
(-3.22046e-16 3.78134e-18 -0.0340538)
(-2.03555e-16 1.74768e-15 -0.0343381)
(-1.19991e-16 -6.89037e-18 -0.034056)
(-2.26769e-16 -2.99819e-17 -0.0333076)
(-4.17361e-16 1.71773e-15 -0.0323088)
(-4.54627e-16 2.24094e-18 -0.0312675)
(-3.24418e-16 -8.71875e-18 -0.0303937)
(-1.05787e-16 -1.29936e-17 -0.0298348)
(6.61891e-17 -1.13938e-17 -0.0296699)
(2.14137e-16 -9.59951e-18 -0.0298959)
(2.67677e-16 -3.99995e-18 -0.0304277)
(2.48809e-16 1.84665e-17 -0.0311317)
(-1.94431e-17 4.72989e-17 -0.0318515)
(-2.22091e-17 -2.89365e-17 -0.0324417)
(-1.61305e-16 1.24736e-16 -0.0328224)
(-8.76394e-15 3.22053e-15 -0.0330508)
(-1.67658e-14 8.34837e-15 -0.0331544)
(-8.43926e-15 5.5288e-15 -0.033012)
(-1.37611e-14 -4.39616e-15 -0.032503)
(-1.42485e-14 -7.89673e-15 -0.0317511)
(-4.66931e-15 -4.36781e-15 -0.0310634)
(2.22478e-15 -1.41003e-15 -0.0306396)
(7.3589e-16 9.57699e-16 -0.0305116)
(-1.4147e-14 7.71693e-15 -0.0305898)
(2.87163e-14 -6.49819e-15 -0.030725)
(1.6313e-13 -3.74628e-14 -0.0308009)
(-5.29245e-13 -6.96255e-15 -0.0308553)
(-2.93733e-12 2.48248e-13 -0.0311706)
(4.14109e-12 6.10212e-13 -0.0322836)
(5.65128e-11 7.72392e-13 -0.0346409)
(1.65963e-10 1.25993e-12 -0.0377609)
(2.53456e-10 1.84222e-12 -0.0399087)
(2.30685e-10 7.66241e-13 -0.0396537)
(1.29142e-10 -1.29104e-12 -0.0375519)
(4.11197e-11 -2.01703e-12 -0.0352636)
(1.41214e-12 -1.46271e-12 -0.033763)
(-5.41829e-12 -9.32739e-13 -0.0330957)
(5.89316e-13 -6.80347e-13 -0.0328336)
(2.46957e-14 1.53909e-12 -0.0325318)
(-3.83909e-11 6.87785e-12 -0.0321651)
(-9.07036e-11 -1.97445e-12 -0.0322288)
(1.64467e-10 -7.94171e-11 -0.0328993)
(1.5731e-09 -2.91393e-10 -0.0325447)
(5.07053e-09 -5.85378e-10 -0.0277952)
(1.03041e-08 -6.98369e-10 -0.0178683)
(1.49132e-08 -4.0187e-10 -0.00841382)
(1.60786e-08 1.50018e-10 -0.00688968)
(1.31169e-08 5.63171e-10 -0.0142891)
(8.06887e-09 6.38858e-10 -0.0250099)
(3.5626e-09 4.60629e-10 -0.0333423)
(8.5876e-10 2.21174e-10 -0.0370238)
(-1.98104e-10 6.95779e-11 -0.0371724)
(-3.83175e-10 1.88472e-11 -0.0360296)
(-2.61826e-10 -6.07327e-11 -0.0346981)
(2.52393e-10 -3.92862e-10 -0.0318484)
(1.82974e-09 -1.1641e-09 -0.0237552)
(5.12006e-09 -2.32345e-09 -0.00631521)
(9.95813e-09 -3.4677e-09 0.0215311)
(1.52763e-08 -4.00284e-09 0.0568702)
(1.99602e-08 -3.48868e-09 0.0954649)
(2.34057e-08 -1.87348e-09 0.131915)
(2.50343e-08 4.38219e-10 0.156308)
(2.39074e-08 2.66316e-09 0.156113)
(1.95955e-08 4.01198e-09 0.126147)
(1.31851e-08 4.13682e-09 0.075236)
(6.76743e-09 3.24879e-09 0.0213768)
(2.08805e-09 1.90979e-09 -0.0189557)
(-2.65597e-10 6.45928e-10 -0.038533)
(-6.38335e-10 -3.51849e-10 -0.0397679)
(3.7798e-10 -1.18218e-09 -0.0308688)
(2.30311e-09 -1.9485e-09 -0.0221451)
(4.64983e-09 -2.56236e-09 -0.0225447)
(6.7917e-09 -2.82275e-09 -0.0344974)
(8.19433e-09 -2.63729e-09 -0.0494806)
(8.7514e-09 -2.10275e-09 -0.0518811)
(8.80631e-09 -1.37104e-09 -0.029923)
(8.81989e-09 -4.9615e-10 0.0160871)
(8.93032e-09 5.47427e-10 0.0729382)
(8.77003e-09 1.7124e-09 0.119587)
(7.82633e-09 2.77795e-09 0.137157)
(5.99294e-09 3.3899e-09 0.119037)
(3.69128e-09 3.23685e-09 0.0743393)
(1.62573e-09 2.27704e-09 0.0226776)
(3.99252e-10 8.18632e-10 -0.0192605)
(2.52736e-10 -6.46786e-10 -0.0497673)
(1.0135e-09 -1.71413e-09 -0.0816383)
(2.21562e-09 -2.2146e-09 -0.128472)
(3.32758e-09 -2.19576e-09 -0.189452)
(3.98843e-09 -1.83026e-09 -0.246786)
(4.11068e-09 -1.32356e-09 -0.278773)
(3.81679e-09 -8.42311e-10 -0.274742)
(3.31295e-09 -4.76433e-10 -0.238722)
(2.79822e-09 -2.32933e-10 -0.182606)
(2.41209e-09 -4.69426e-11 -0.118123)
(2.20038e-09 1.95773e-10 -0.0535704)
(2.12236e-09 6.08676e-10 0.00531848)
(2.07018e-09 1.21216e-09 0.0527892)
(1.92478e-09 1.85642e-09 0.0828181)
(1.63534e-09 2.26876e-09 0.0908537)
(1.25848e-09 2.23055e-09 0.0750559)
(9.24555e-10 1.73265e-09 0.0359287)
(7.60101e-10 9.67872e-10 -0.0237651)
(8.2119e-10 1.90436e-10 -0.0968027)
(1.07546e-09 -4.18475e-10 -0.170111)
(1.43035e-09 -7.94045e-10 -0.228444)
(1.78026e-09 -9.57652e-10 -0.261478)
(2.04529e-09 -9.67735e-10 -0.268167)
(2.18547e-09 -8.85129e-10 -0.255228)
(2.18992e-09 -7.59014e-10 -0.232283)
(2.06482e-09 -6.269e-10 -0.207031)
(1.83308e-09 -5.20295e-10 -0.183428)
(1.53272e-09 -4.61498e-10 -0.162402)
(1.21544e-09 -4.37518e-10 -0.142556)
(9.35546e-10 -3.73024e-10 -0.120749)
(7.27016e-10 -1.57337e-10 -0.0935391)
(5.85815e-10 2.64377e-10 -0.0597781)
(4.81265e-10 8.1467e-10 -0.0225556)
(3.95126e-10 1.30645e-09 0.0117436)
(3.54698e-10 1.55136e-09 0.0371405)
(4.28107e-10 1.46384e-09 0.0518048)
(6.81659e-10 1.09166e-09 0.0592261)
(1.13175e-09 5.72969e-10 0.066231)
(1.72392e-09 6.58394e-11 0.079331)
(2.34459e-09 -3.06928e-10 0.101384)
(2.85179e-09 -4.82296e-10 0.129903)
(3.11384e-09 -4.554e-10 0.157553)
(3.05091e-09 -2.63527e-10 0.174692)
(2.666e-09 2.69033e-11 0.17308)
(2.05199e-09 3.27308e-10 0.14954)
(1.35875e-09 5.43174e-10 0.107996)
(7.33707e-10 6.07359e-10 0.0584479)
(2.71717e-10 5.15348e-10 0.0129451)
(-1.58272e-12 3.29163e-10 -0.0194737)
(-1.1507e-10 1.37808e-10 -0.0359539)
(-1.23722e-10 5.40561e-12 -0.0394966)
(-8.26761e-11 -5.23707e-11 -0.035983)
(-3.18889e-11 -5.60101e-11 -0.0308795)
(7.78871e-12 -3.60119e-11 -0.0273999)
(3.07637e-11 -1.45969e-11 -0.0263894)
(3.99335e-11 -1.14498e-12 -0.0272181)
(4.07523e-11 4.05138e-12 -0.0288068)
(3.77711e-11 4.332e-12 -0.0302881)
(3.3548e-11 2.98539e-12 -0.0312292)
(2.90124e-11 1.87986e-12 -0.0315655)
(2.43337e-11 1.51235e-12 -0.0314241)
(1.95743e-11 1.64838e-12 -0.0309819)
(1.49348e-11 1.88584e-12 -0.0303893)
(1.0731e-11 1.93794e-12 -0.0297581)
(7.26706e-12 1.73499e-12 -0.0291403)
(4.71369e-12 1.32701e-12 -0.0286978)
(3.12342e-12 8.65785e-13 -0.0278697)
(2.26044e-12 3.51069e-13 -0.0298708)
(2.40466e-12 2.43067e-14 -0.0267296)
(-2.32959e-18 -5.92266e-20 -0.0417262)
(-2.58353e-17 -9.39763e-20 -0.042633)
(-4.56585e-17 3.0313e-20 -0.0444838)
(-7.23789e-17 8.36313e-19 -0.0470931)
(-9.8184e-17 -5.94087e-19 -0.050078)
(-1.10711e-16 2.18514e-18 -0.0529791)
(-2.44438e-16 1.55433e-17 -0.0553697)
(-1.18946e-16 -1.36744e-17 -0.0569157)
(4.47038e-16 -6.55699e-17 -0.0574566)
(-2.84482e-16 2.3385e-17 -0.0569852)
(-2.59739e-15 1.68982e-16 -0.0556323)
(-3.67271e-15 1.17898e-16 -0.0537388)
(-1.90927e-15 -5.63845e-17 -0.051614)
(4.99722e-16 -1.44362e-16 -0.0496162)
(1.61483e-15 -1.339e-16 -0.048024)
(1.7227e-15 -1.02421e-16 -0.0470558)
(1.41593e-15 -7.21417e-17 -0.0468676)
(8.06968e-16 3.53932e-18 -0.0475229)
(-7.55611e-16 1.72204e-16 -0.049003)
(-2.13046e-15 1.38308e-16 -0.0511869)
(1.02699e-15 6.72242e-17 -0.0538554)
(-3.78427e-14 4.37792e-15 -0.0567171)
(-7.03288e-14 8.38649e-15 -0.05942)
(9.17513e-13 7.06916e-17 -0.061432)
(2.92316e-12 -1.33717e-15 -0.0620629)
(3.17817e-12 2.78702e-15 -0.0607411)
(1.54321e-12 -4.76824e-15 -0.0575093)
(3.25581e-13 -8.38369e-15 -0.0530774)
(-2.69361e-14 -2.84394e-15 -0.0484041)
(-8.07397e-14 8.22397e-15 -0.0444068)
(-5.66437e-14 -1.27321e-14 -0.0417798)
(4.53953e-13 -8.78736e-14 -0.0409184)
(4.49797e-13 2.66586e-13 -0.0419785)
(-5.95015e-12 1.52029e-12 -0.0450178)
(-1.36325e-11 -2.26032e-12 -0.0501522)
(4.75227e-11 -2.91479e-11 -0.0579012)
(3.06623e-10 -7.94883e-11 -0.068971)
(7.70278e-10 -9.67603e-11 -0.0816949)
(1.18784e-09 -3.16842e-11 -0.0903129)
(1.21759e-09 6.12631e-11 -0.0892274)
(8.25056e-10 9.31841e-11 -0.0791429)
(3.53971e-10 6.26203e-11 -0.065906)
(7.05856e-11 2.27022e-11 -0.0541704)
(-2.10562e-11 2.80855e-13 -0.0455543)
(-1.36322e-11 -2.93545e-12 -0.0402154)
(-2.96897e-11 1.87954e-11 -0.0380629)
(-1.78025e-10 4.49645e-11 -0.039538)
(-1.98941e-10 -9.82002e-11 -0.0446759)
(1.23081e-09 -8.17939e-10 -0.0491136)
(6.41809e-09 -2.41995e-09 -0.0408148)
(1.6512e-08 -4.3134e-09 -0.00731129)
(2.93171e-08 -4.8675e-09 0.0477989)
(4.01691e-08 -2.8601e-09 0.0993782)
(4.42905e-08 8.81462e-10 0.116929)
(3.91378e-08 3.95785e-09 0.0897227)
(2.69527e-08 4.72944e-09 0.0366739)
(1.37494e-08 3.56963e-09 -0.0120061)
(4.35359e-09 1.8568e-09 -0.0391781)
(-1.05778e-10 6.13767e-10 -0.0461227)
(-1.21248e-09 4.10164e-11 -0.0436665)
(-7.6956e-10 -3.26978e-10 -0.0401405)
(7.55678e-10 -1.17287e-09 -0.0356866)
(3.86665e-09 -2.83503e-09 -0.025388)
(8.44401e-09 -4.88259e-09 -0.00722024)
(1.29074e-08 -6.33255e-09 0.0147699)
(1.55729e-08 -6.49823e-09 0.0396161)
(1.65566e-08 -5.41716e-09 0.0774256)
(1.76627e-08 -3.31351e-09 0.137371)
(2.0266e-08 -1.80842e-10 0.207665)
(2.32324e-08 3.61994e-09 0.254406)
(2.34261e-08 6.81228e-09 0.246135)
(1.90957e-08 7.99343e-09 0.181763)
(1.1797e-08 6.85481e-09 0.0912659)
(4.76639e-09 4.31909e-09 0.0122741)
(4.01303e-10 1.63142e-09 -0.0329194)
(-7.40113e-10 -5.30116e-10 -0.0452281)
(6.09283e-10 -2.12832e-09 -0.0436733)
(3.2023e-09 -3.24991e-09 -0.0541827)
(5.70004e-09 -3.77251e-09 -0.0937609)
(7.07847e-09 -3.56358e-09 -0.154437)
(7.0536e-09 -2.79688e-09 -0.202991)
(6.07408e-09 -1.89439e-09 -0.204715)
(4.93039e-09 -1.17403e-09 -0.148629)
(4.39799e-09 -5.7983e-10 -0.0501072)
(4.91112e-09 2.56894e-10 0.06262)
(6.14643e-09 1.60276e-09 0.158775)
(7.04513e-09 3.21074e-09 0.210937)
(6.63442e-09 4.38738e-09 0.204835)
(4.84783e-09 4.46776e-09 0.148967)
(2.57115e-09 3.27806e-09 0.0708857)
(9.51396e-10 1.26045e-09 -0.00381353)
(6.21692e-10 -8.127e-10 -0.0726029)
(1.39413e-09 -2.27222e-09 -0.153583)
(2.53599e-09 -2.82947e-09 -0.258283)
(3.33993e-09 -2.59704e-09 -0.367802)
(3.5215e-09 -1.92189e-09 -0.440864)
(3.19865e-09 -1.16358e-09 -0.446229)
(2.63429e-09 -5.53792e-10 -0.384806)
(2.04022e-09 -1.78098e-10 -0.283987)
(1.5518e-09 -1.21729e-11 -0.175857)
(1.27631e-09 5.37841e-11 -0.0795259)
(1.28144e-09 1.87792e-10 0.00159257)
(1.52322e-09 5.52585e-10 0.0700763)
(1.82381e-09 1.19192e-09 0.124964)
(1.96507e-09 1.93168e-09 0.159276)
(1.84256e-09 2.43525e-09 0.163173)
(1.5447e-09 2.4216e-09 0.12833)
(1.28189e-09 1.86138e-09 0.0517458)
(1.2361e-09 9.77846e-10 -0.0589516)
(1.45311e-09 8.09895e-11 -0.180735)
(1.84529e-09 -6.01795e-10 -0.280245)
(2.26879e-09 -9.88869e-10 -0.330395)
(2.60001e-09 -1.11299e-09 -0.325467)
(2.77301e-09 -1.05793e-09 -0.281969)
(2.78223e-09 -9.06374e-10 -0.226305)
(2.66268e-09 -7.16746e-10 -0.179748)
(2.45612e-09 -5.28683e-10 -0.151274)
(2.18916e-09 -3.77275e-10 -0.139477)
(1.87864e-09 -2.92592e-10 -0.136981)
(1.55184e-09 -2.69496e-10 -0.13475)
(1.25107e-09 -2.30735e-10 -0.124331)
(1.00668e-09 -4.97932e-11 -0.099648)
(8.1004e-10 3.46572e-10 -0.0598963)
(6.33084e-10 8.82722e-10 -0.0115424)
(4.87131e-10 1.35068e-09 0.0340457)
(4.54417e-10 1.53526e-09 0.0671119)
(6.46745e-10 1.34372e-09 0.0854955)
(1.12253e-09 8.47127e-10 0.0958012)
(1.83844e-09 2.251e-10 0.1094)
(2.67115e-09 -3.26503e-10 0.136195)
(3.47335e-09 -6.64124e-10 0.179505)
(4.1077e-09 -7.23093e-10 0.233884)
(4.44817e-09 -5.16343e-10 0.286258)
(4.39082e-09 -1.19564e-10 0.320001)
(3.90353e-09 3.48077e-10 0.320924)
(3.07008e-09 7.50241e-10 0.28336)
(2.07832e-09 9.72385e-10 0.213623)
(1.1462e-09 9.63022e-10 0.128371)
(4.34545e-10 7.56618e-10 0.0479437)
(2.21632e-12 4.56139e-10 -0.0119887)
(-1.82782e-10 1.77698e-10 -0.0457643)
(-2.00398e-10 -5.62503e-12 -0.0574087)
(-1.35125e-10 -8.30674e-11 -0.0559874)
(-4.97517e-11 -8.64095e-11 -0.0503107)
(2.15968e-11 -5.73799e-11 -0.0458535)
(6.78479e-11 -2.59242e-11 -0.0444072)
(9.1031e-11 -5.01407e-12 -0.0453751)
(9.7798e-11 4.46882e-12 -0.0473244)
(9.45263e-11 6.72225e-12 -0.0490301)
(8.56214e-11 6.15048e-12 -0.0498702)
(7.36913e-11 5.35488e-12 -0.0497742)
(6.03835e-11 5.1173e-12 -0.0489756)
(4.69786e-11 5.21544e-12 -0.0477956)
(3.45601e-11 5.19148e-12 -0.0465209)
(2.39717e-11 4.76172e-12 -0.0453684)
(1.57257e-11 3.919e-12 -0.044443)
(9.93919e-12 2.81213e-12 -0.0439945)
(6.50255e-12 1.73526e-12 -0.0430642)
(4.73111e-12 5.91512e-13 -0.046933)
(5.26141e-12 -3.67221e-14 -0.0424379)
(-6.80347e-17 7.74173e-18 -0.0578135)
(-2.38778e-16 1.1643e-17 -0.0590852)
(-2.00541e-16 1.33635e-17 -0.0616977)
(-2.52233e-16 1.48027e-17 -0.0653896)
(-1.86902e-16 7.08632e-18 -0.069617)
(-4.20582e-16 6.5249e-17 -0.0737286)
(-6.12461e-16 -5.69657e-18 -0.0771188)
(2.14315e-15 -3.41957e-16 -0.0793107)
(-5.72783e-16 1.83045e-15 -0.0800783)
(-1.21123e-14 1.51533e-15 -0.0794023)
(-1.23802e-14 -7.05904e-17 -0.0774551)
(-7.67542e-16 1.37367e-15 -0.0747459)
(6.89808e-15 -2.08398e-15 -0.0717098)
(8.49004e-15 -1.77077e-15 -0.0687946)
(5.14216e-15 -6.24481e-16 -0.066376)
(5.96691e-16 8.80557e-17 -0.0648097)
(-3.4781e-15 4.48265e-16 -0.0643772)
(-8.85284e-15 1.08177e-15 -0.0652209)
(-1.78888e-14 1.48718e-15 -0.0673711)
(-1.14259e-14 -8.44001e-16 -0.0706894)
(-3.35987e-14 1.78272e-14 -0.0748341)
(-2.74071e-13 3.58026e-14 -0.0792823)
(6.28042e-13 -4.74457e-13 -0.0834597)
(4.489e-12 -1.4884e-12 -0.0866226)
(9.32903e-12 -1.1248e-12 -0.0877563)
(1.23513e-11 6.8558e-13 -0.0859585)
(8.74851e-12 1.4184e-12 -0.0811731)
(2.93922e-12 7.80705e-13 -0.0743211)
(7.27254e-14 2.0175e-13 -0.0667405)
(-6.00263e-13 1.58115e-14 -0.0598709)
(4.83791e-14 -2.61364e-13 -0.0550424)
(1.58891e-12 -2.59719e-13 -0.0532416)
(-3.10615e-12 3.16459e-12 -0.0549324)
(-1.59806e-11 7.03418e-12 -0.0601969)
(1.51171e-11 -2.64882e-11 -0.0693458)
(1.17182e-10 -1.59518e-10 -0.0829834)
(-1.21945e-12 -3.60605e-10 -0.0994264)
(-5.81622e-10 -4.39351e-10 -0.113893)
(-9.47116e-10 -2.21812e-10 -0.1235)
(-4.11665e-10 1.8216e-10 -0.125828)
(3.71286e-10 4.30517e-10 -0.116789)
(5.8209e-10 3.75218e-10 -0.0984238)
(3.39424e-10 1.86051e-10 -0.0780107)
(7.69584e-11 4.11761e-11 -0.0609852)
(-2.56631e-11 3.6364e-12 -0.0499359)
(-1.66242e-10 8.37357e-11 -0.0459894)
(-4.59472e-10 9.15034e-11 -0.0499016)
(1.97198e-10 -7.06391e-10 -0.0579613)
(4.64726e-09 -3.38793e-09 -0.054392)
(1.48684e-08 -7.932e-09 -0.014565)
(2.80886e-08 -1.20349e-08 0.0722025)
(3.9308e-08 -1.25269e-08 0.188345)
(4.76475e-08 -7.88857e-09 0.299035)
(5.45262e-08 6.6568e-10 0.361534)
(5.65973e-08 9.23206e-09 0.338353)
(4.8185e-08 1.33331e-08 0.232877)
(3.09185e-08 1.17602e-08 0.0995893)
(1.33632e-08 7.14874e-09 -0.00188635)
(2.15641e-09 2.85262e-09 -0.0495425)
(-2.00585e-09 3.50738e-10 -0.0581558)
(-1.60775e-09 -1.04481e-09 -0.0507038)
(1.34772e-09 -2.71097e-09 -0.0391422)
(5.62764e-09 -5.00826e-09 -0.0298149)
(9.19717e-09 -6.84382e-09 -0.0348496)
(9.70758e-09 -7.03215e-09 -0.0610302)
(6.89578e-09 -5.82743e-09 -0.0843659)
(2.95948e-09 -4.53358e-09 -0.0587366)
(7.87385e-10 -3.72816e-09 0.0394552)
(2.61058e-09 -2.34662e-09 0.184611)
(8.62047e-09 1.08308e-09 0.314711)
(1.54186e-08 6.08031e-09 0.366229)
(1.79881e-08 9.95136e-09 0.315597)
(1.45257e-08 1.04135e-08 0.195706)
(7.78602e-09 7.60766e-09 0.0691412)
(2.04369e-09 3.39918e-09 -0.0157182)
(-2.14085e-10 -4.55839e-10 -0.0521483)
(8.13174e-10 -3.15338e-09 -0.0735269)
(3.22825e-09 -4.49388e-09 -0.125937)
(5.00136e-09 -4.50044e-09 -0.22648)
(5.18642e-09 -3.49953e-09 -0.337237)
(4.09335e-09 -2.13509e-09 -0.388827)
(2.53087e-09 -1.04114e-09 -0.337919)
(1.10095e-09 -5.32998e-10 -0.198941)
(1.92552e-10 -4.86517e-10 -0.0243407)
(2.80261e-10 -3.26796e-10 0.135647)
(1.66288e-09 6.45404e-10 0.252083)
(3.71471e-09 2.53395e-09 0.309118)
(5.01436e-09 4.48855e-09 0.297697)
(4.64544e-09 5.26849e-09 0.22578)
(3.05434e-09 4.22526e-09 0.120848)
(1.54619e-09 1.79336e-09 0.00876239)
(1.06552e-09 -8.68155e-10 -0.110625)
(1.52196e-09 -2.67128e-09 -0.254551)
(2.16343e-09 -3.18749e-09 -0.417135)
(2.38362e-09 -2.68852e-09 -0.548056)
(2.10648e-09 -1.75962e-09 -0.584344)
(1.59249e-09 -8.79956e-10 -0.501456)
(1.09607e-09 -2.63095e-10 -0.3303)
(7.06221e-10 6.48141e-11 -0.133241)
(4.03781e-10 1.49019e-10 0.0329663)
(2.10122e-10 8.82376e-11 0.142393)
(2.36262e-10 7.23184e-11 0.202076)
(5.40209e-10 3.3749e-10 0.233498)
(9.96057e-10 9.91231e-10 0.252252)
(1.35364e-09 1.84704e-09 0.257609)
(1.45672e-09 2.47895e-09 0.234677)
(1.38777e-09 2.51089e-09 0.164705)
(1.37959e-09 1.88695e-09 0.0403361)
(1.60476e-09 8.82265e-10 -0.117881)
(2.05236e-09 -1.14158e-10 -0.258873)
(2.57748e-09 -8.26312e-10 -0.326158)
(3.02298e-09 -1.1714e-09 -0.293738)
(3.29128e-09 -1.20976e-09 -0.180957)
(3.34728e-09 -1.05884e-09 -0.0378967)
(3.20233e-09 -8.29964e-10 0.0823666)
(2.91103e-09 -5.95962e-10 0.146731)
(2.55373e-09 -3.90141e-10 0.149225)
(2.19495e-09 -2.31551e-10 0.104968)
(1.86237e-09 -1.42838e-10 0.0397769)
(1.56245e-09 -1.23733e-10 -0.0208943)
(1.3019e-09 -1.00443e-10 -0.0581828)
(1.07713e-09 6.31751e-11 -0.0623236)
(8.5961e-10 4.51175e-10 -0.0345927)
(6.3461e-10 9.76125e-10 0.0125087)
(4.67227e-10 1.39579e-09 0.0606331)
(4.98177e-10 1.47156e-09 0.0956324)
(8.42201e-10 1.12979e-09 0.115483)
(1.48466e-09 4.95815e-10 0.130494)
(2.28302e-09 -2.01339e-10 0.156137)
(3.06538e-09 -7.51619e-10 0.203802)
(3.72587e-09 -1.0252e-09 0.274779)
(4.2327e-09 -9.69703e-10 0.359073)
(4.55408e-09 -5.96961e-10 0.437723)
(4.59716e-09 8.79388e-12 0.487679)
(4.25432e-09 6.87271e-10 0.489311)
(3.50752e-09 1.23991e-09 0.434719)
(2.4906e-09 1.50512e-09 0.332879)
(1.44135e-09 1.42925e-09 0.207582)
(5.825e-10 1.08734e-09 0.0880725)
(2.91288e-11 6.37827e-10 -0.00280772)
(-2.24975e-10 2.39115e-10 -0.0562063)
(-2.61485e-10 -1.84227e-11 -0.0769623)
(-1.79611e-10 -1.27694e-10 -0.0773025)
(-5.83474e-11 -1.34371e-10 -0.0695788)
(5.51541e-11 -9.48117e-11 -0.0619332)
(1.40357e-10 -4.9314e-11 -0.0576464)
(1.92811e-10 -1.612e-11 -0.0567094)
(2.15612e-10 2.30374e-12 -0.0577538)
(2.14646e-10 1.04203e-11 -0.0593753)
(1.96543e-10 1.34029e-11 -0.0606861)
(1.67835e-10 1.44988e-11 -0.0613476)
(1.34484e-10 1.48687e-11 -0.0613637)
(1.01379e-10 1.45601e-11 -0.0608983)
(7.19518e-11 1.33893e-11 -0.0601731)
(4.81154e-11 1.13552e-11 -0.0594218)
(3.04919e-11 8.75125e-12 -0.058797)
(1.87212e-11 5.93857e-12 -0.0586898)
(1.20832e-11 3.46982e-12 -0.0577778)
(8.86435e-12 9.71637e-13 -0.0636073)
(1.03695e-11 -2.40843e-13 -0.057373)
(6.88959e-17 1.88807e-15 -0.0732435)
(2.54784e-16 1.80088e-15 -0.0748822)
(1.9613e-16 6.7575e-18 -0.0782759)
(3.44209e-16 1.72874e-15 -0.0830834)
(7.453e-16 1.8183e-15 -0.0885917)
(-1.49359e-15 1.94969e-15 -0.0939481)
(4.60993e-15 -1.26632e-15 -0.098361)
(7.45025e-15 -6.4083e-18 -0.101205)
(-4.41009e-14 7.06213e-15 -0.102191)
(-4.27102e-14 2.40343e-15 -0.101281)
(1.29407e-13 -5.48982e-15 -0.098674)
(3.18171e-13 -9.49413e-15 -0.0950906)
(2.83414e-13 -4.69873e-15 -0.0910293)
(9.30524e-14 7.33598e-16 -0.0871539)
(-4.84307e-14 3.81278e-15 -0.0839555)
(-1.05751e-13 5.94243e-15 -0.0818665)
(-1.16277e-13 6.38735e-15 -0.0812539)
(-1.23697e-13 7.20889e-15 -0.0822948)
(-1.03456e-13 3.19344e-15 -0.0850377)
(-6.34402e-14 9.72797e-15 -0.0893188)
(-6.43692e-13 1.3139e-13 -0.0947373)
(1.96373e-12 -3.26443e-13 -0.100688)
(8.36858e-12 -2.37315e-12 -0.10636)
(-5.40095e-11 -4.35042e-12 -0.110525)
(-1.94213e-10 -3.9325e-12 -0.111848)
(-2.163e-10 2.91313e-13 -0.109493)
(-1.01996e-10 4.70129e-12 -0.103475)
(-1.80186e-11 4.32951e-12 -0.0947056)
(2.87795e-12 1.7669e-12 -0.0847519)
(1.81377e-12 2.037e-14 -0.0754952)
(1.84204e-12 -1.10903e-12 -0.0688087)
(-2.0408e-12 1.48771e-12 -0.0661277)
(-1.81395e-11 9.05131e-12 -0.0681827)
(4.36818e-11 -7.5931e-12 -0.0759834)
(2.23361e-10 -6.88431e-11 -0.0906066)
(-4.85209e-10 -2.09813e-11 -0.104142)
(-4.49196e-09 2.69912e-10 -0.0920995)
(-1.22947e-08 3.76188e-10 -0.0439815)
(-1.91027e-08 -1.16665e-10 8.81491e-05)
(-1.87485e-08 -5.9794e-10 -0.00787634)
(-1.16208e-08 -4.03695e-10 -0.0552325)
(-4.06454e-09 7.85494e-11 -0.0922762)
(-1.74212e-10 2.75268e-10 -0.096971)
(6.27358e-10 1.82823e-10 -0.0809151)
(2.61891e-10 1.18663e-10 -0.0635084)
(-3.74977e-10 2.35698e-10 -0.0566795)
(-5.85197e-10 -1.36758e-10 -0.0617992)
(2.13335e-09 -2.65157e-09 -0.0652905)
(1.0273e-08 -8.15354e-09 -0.0401863)
(2.01305e-08 -1.41406e-08 0.0289424)
(2.23938e-08 -1.65332e-08 0.125959)
(1.46225e-08 -1.46469e-08 0.235951)
(7.05746e-09 -1.04692e-08 0.369366)
(1.19792e-08 -3.59346e-09 0.510939)
(2.93119e-08 7.12848e-09 0.582676)
(4.38463e-08 1.75688e-08 0.510469)
(4.15841e-08 2.09805e-08 0.318325)
(2.56019e-08 1.62378e-08 0.112237)
(8.5996e-09 8.29829e-09 -0.0220357)
(-8.79794e-10 1.9231e-09 -0.0709251)
(-2.15149e-09 -2.00376e-09 -0.0669874)
(1.44591e-09 -4.79057e-09 -0.0505874)
(5.59675e-09 -6.75976e-09 -0.0620501)
(6.56143e-09 -6.92256e-09 -0.13245)
(3.5264e-09 -5.18185e-09 -0.242807)
(-9.74048e-10 -3.12418e-09 -0.308437)
(-4.2783e-09 -2.36296e-09 -0.247017)
(-5.83019e-09 -3.13905e-09 -0.0563156)
(-5.56839e-09 -4.09738e-09 0.190063)
(-2.10494e-09 -2.78405e-09 0.400122)
(4.9339e-09 2.12848e-09 0.502888)
(1.17006e-08 8.43989e-09 0.467927)
(1.33255e-08 1.19558e-08 0.324231)
(9.41075e-09 1.05601e-08 0.148854)
(3.93078e-09 5.63147e-09 0.0145585)
(8.68198e-10 8.5142e-11 -0.0622794)
(1.06395e-09 -3.84948e-09 -0.128974)
(2.65804e-09 -5.344e-09 -0.245284)
(3.56627e-09 -4.7516e-09 -0.409694)
(3.1856e-09 -3.10958e-09 -0.538787)
(2.14688e-09 -1.4691e-09 -0.534236)
(1.18673e-09 -3.9818e-10 -0.367564)
(4.97029e-10 -4.87172e-12 -0.0983059)
(-1.06979e-10 -1.69484e-10 0.174088)
(-5.41311e-10 -4.78271e-10 0.372519)
(-1.87786e-10 -1.14459e-10 0.472244)
(1.25814e-09 1.535e-09 0.483941)
(2.93459e-09 3.92202e-09 0.424322)
(3.57342e-09 5.44777e-09 0.311344)
(2.92226e-09 4.82769e-09 0.168321)
(1.90516e-09 2.25486e-09 0.0106525)
(1.44057e-09 -8.00586e-10 -0.16956)
(1.55009e-09 -2.82118e-09 -0.3809)
(1.68272e-09 -3.2603e-09 -0.585526)
(1.48208e-09 -2.56857e-09 -0.696935)
(1.03016e-09 -1.52632e-09 -0.643089)
(5.89757e-10 -6.58372e-10 -0.424954)
(3.2785e-10 -1.10659e-10 -0.1141)
(2.28618e-10 1.68045e-10 0.192317)
(1.63902e-10 2.35877e-10 0.417063)
(5.28329e-11 1.37545e-10 0.528706)
(-2.53868e-11 2.27488e-11 0.543188)
(7.42734e-11 1.72688e-10 0.502832)
(3.55507e-10 7.85203e-10 0.446597)
(6.46785e-10 1.70135e-09 0.386955)
(8.15823e-10 2.41818e-09 0.306589)
(9.46755e-10 2.46017e-09 0.17715)
(1.23876e-09 1.75289e-09 -0.00552982)
(1.77375e-09 6.41461e-10 -0.192764)
(2.43946e-09 -4.05369e-10 -0.298149)
(3.05412e-09 -1.0871e-09 -0.256246)
(3.50036e-09 -1.34577e-09 -0.0687765)
(3.74334e-09 -1.27514e-09 0.200709)
(3.77832e-09 -1.01345e-09 0.465599)
(3.60062e-09 -6.88249e-10 0.65306)
(3.22894e-09 -3.92441e-10 0.724228)
(2.73655e-09 -1.70639e-10 0.677913)
(2.2299e-09 -3.15956e-11 0.544313)
(1.79244e-09 2.3657e-11 0.371343)
(1.45582e-09 1.0737e-11 0.206808)
(1.20663e-09 1.19248e-11 0.0856447)
(9.94596e-10 1.71354e-10 0.0242728)
(7.5833e-10 5.67833e-10 0.0191058)
(5.01718e-10 1.07891e-09 0.0495297)
(3.48882e-10 1.4189e-09 0.0883447)
(4.7069e-10 1.34777e-09 0.116862)
(9.2868e-10 8.50475e-10 0.134782)
(1.6029e-09 1.26717e-10 0.157628)
(2.27678e-09 -5.65259e-10 0.204027)
(2.78623e-09 -1.04793e-09 0.282904)
(3.10759e-09 -1.24778e-09 0.388723)
(3.33233e-09 -1.1372e-09 0.504434)
(3.5495e-09 -6.98576e-10 0.606422)
(3.72263e-09 3.03142e-11 0.668507)
(3.68513e-09 8.92901e-10 0.667921)
(3.27765e-09 1.63211e-09 0.594744)
(2.50436e-09 2.00547e-09 0.459587)
(1.55546e-09 1.91707e-09 0.292502)
(6.86143e-10 1.46273e-09 0.131533)
(7.49923e-11 8.59877e-10 0.00717801)
(-2.32866e-10 3.23006e-10 -0.0678461)
(-2.93423e-10 -2.83073e-11 -0.0985593)
(-1.99893e-10 -1.84636e-10 -0.0998794)
(-3.63658e-11 -2.03792e-10 -0.0875502)
(1.38581e-10 -1.56732e-10 -0.0727021)
(2.89216e-10 -9.47511e-11 -0.0609336)
(3.95644e-10 -4.26415e-11 -0.0539214)
(4.49621e-10 -6.44832e-12 -0.0513272)
(4.52849e-10 1.6257e-11 -0.0520655)
(4.15145e-10 2.95559e-11 -0.0549057)
(3.51146e-10 3.63861e-11 -0.0587236)
(2.76215e-10 3.83451e-11 -0.0625985)
(2.03045e-10 3.64813e-11 -0.0659026)
(1.39917e-10 3.18234e-11 -0.0683589)