/*--------------------------------*- C++ -*----------------------------------*\
  =========                 |
  \\      /  F ield         | OpenFOAM: The Open Source CFD Toolbox
   \\    /   O peration     | Website:  https://openfoam.org
    \\  /    A nd           | Version:  11
     \\/     M anipulation  |
\*---------------------------------------------------------------------------*/
FoamFile
{
    format      ascii;
    class       volScalarField;
    location    "9.400586";
    object      p;
}
// * * * * * * * * * * * * * * * * * * * * * * * * * * * * * * * * * * * * * //

dimensions      [0 2 -2 0 0 0 0];

internalField   nonuniform List<scalar> 
7132
(
0.0593168
0.0579831
0.0534652
0.0468658
0.037629
0.0254786
0.010349
-0.00773762
-0.0282428
-0.0501854
-0.0721338
-0.092161
-0.109113
-0.121906
-0.129737
-0.132181
-0.129143
-0.12105
-0.108912
-0.094189
-0.0784906
-0.0633275
-0.0499151
-0.0390406
-0.0309207
-0.0250953
-0.0204834
-0.0158429
-0.010394
-0.00408069
0.00267577
0.0093769
0.0157005
0.0215698
0.0270602
0.0322094
0.0367992
0.040165
0.0412645
0.0393198
0.0347533
0.02956
0.0261959
0.0258783
0.0280675
0.0313426
0.0345056
0.0369952
0.0388036
0.0402346
0.0416309
0.0430825
0.0439638
0.0426121
0.0366696
0.024694
0.0083046
-0.00721789
-0.0158123
-0.0151178
-0.00783204
0.00113028
0.00835184
0.0128739
0.0151523
0.0159435
0.0157894
0.0149141
0.0132632
0.0106709
0.00709908
0.0028621
-0.00135153
-0.00474681
-0.00681865
-0.00754846
-0.00730437
-0.00656446
-0.0057041
-0.00493067
-0.00431602
-0.00385658
-0.00352197
-0.0032821
-0.00311692
-0.00301676
-0.00297838
-0.00299957
-0.00307387
-0.00318758
-0.00331987
-0.00344627
-0.00354387
-0.00359623
-0.00359588
-0.0035442
-0.00344892
-0.00332099
-0.0031719
-0.00301194
-0.00284951
-0.00269098
-0.00254086
-0.00240204
-0.00227605
-0.00216325
-0.00206301
-0.00197397
-0.00189427
-0.0018218
-0.00175444
-0.00169027
-0.00162771
-0.00156563
-0.00150338
-0.00144068
-0.0013776
-0.00131443
-0.00125162
-0.00118963
-0.00112892
-0.00106989
-0.00101287
-0.000958051
-0.000905567
-0.000855448
-0.000807652
-0.000762084
-0.000718613
-0.000677087
-0.000637352
-0.000599262
-0.000562689
-0.000527525
-0.000493684
-0.000461102
-0.000429736
-0.000399555
-0.000370541
-0.000342683
-0.000315977
-0.000290417
-0.000266001
-0.000242717
-0.000220567
-0.000199516
-0.000179578
-0.000160674
-0.000142855
-0.000125944
-0.0001101
-9.49249e-05
-8.08615e-05
-6.69571e-05
-5.46131e-05
-4.07405e-05
-3.16541e-05
-1.22774e-05
-1.86447e-05
3.69601e-05
0.0598504
0.0585276
0.054048
0.0474877
0.0382801
0.0261217
0.0109221
-0.00733376
-0.0281062
-0.0504077
-0.0727336
-0.0930387
-0.110207
-0.123152
-0.131067
-0.133521
-0.130387
-0.12207
-0.109596
-0.0944812
-0.0784008
-0.062929
-0.0493289
-0.038416
-0.0304099
-0.0248164
-0.0204724
-0.0160396
-0.0106872
-0.00437164
0.00244412
0.00922586
0.015632
0.0215791
0.0271429
0.0323604
0.0370113
0.0404126
0.0414795
0.0393857
0.0345526
0.0290629
0.025513
0.0251816
0.0274854
0.0309133
0.0342141
0.0368153
0.0387117
0.0402074
0.0416355
0.0430767
0.043883
0.0423626
0.0361319
0.0237447
0.0068567
-0.00912575
-0.0179166
-0.0170244
-0.00923063
0.000292793
0.00794631
0.0127428
0.0151837
0.0160696
0.0159649
0.0151028
0.0134291
0.0107758
0.00710627
0.00274785
-0.00158322
-0.00505698
-0.00715184
-0.00785067
-0.00754529
-0.00673829
-0.00581945
-0.00500086
-0.00435354
-0.00387142
-0.00352172
-0.00327258
-0.00310261
-0.00300101
-0.0029637
-0.00298787
-0.00306655
-0.00318543
-0.00332303
-0.00345413
-0.00355521
-0.00360945
-0.00360933
-0.00355651
-0.00345914
-0.00332863
-0.00317684
-0.00301439
-0.00284985
-0.0026897
-0.00253846
-0.00239902
-0.00227281
-0.00216012
-0.00206021
-0.00197165
-0.0018925
-0.00182057
-0.0017537
-0.00168992
-0.00162766
-0.00156578
-0.00150361
-0.00144091
-0.00137777
-0.00131451
-0.00125157
-0.00118945
-0.00112863
-0.00106951
-0.00101241
-0.000957553
-0.000905052
-0.000854935
-0.000807159
-0.000761623
-0.000718189
-0.000676703
-0.000637006
-0.000598951
-0.000562408
-0.000527267
-0.000493443
-0.000460873
-0.000429514
-0.000399336
-0.000370323
-0.000342465
-0.000315758
-0.000290196
-0.000265779
-0.000242494
-0.000220343
-0.000199295
-0.000179358
-0.000160461
-0.000142643
-0.000125753
-0.000109893
-9.47876e-05
-8.06259e-05
-6.69778e-05
-5.41614e-05
-4.13137e-05
-3.01611e-05
-1.49845e-05
-1.27687e-05
2.5525e-05
0.0609128
0.0596131
0.0552121
0.0487348
0.0395911
0.0274231
0.0120892
-0.00650539
-0.0278187
-0.0508566
-0.0739549
-0.0948167
-0.112417
-0.125663
-0.133746
-0.13622
-0.132892
-0.124121
-0.110966
-0.0950553
-0.0781986
-0.062099
-0.0481171
-0.0371279
-0.0293594
-0.0242495
-0.0204636
-0.016461
-0.011304
-0.00497933
0.0019604
0.00890583
0.0154762
0.0215759
0.0272841
0.0326383
0.0374142
0.0408905
0.0418928
0.039491
0.0341029
0.0279963
0.024063
0.0237131
0.0262677
0.0300193
0.0336038
0.0364284
0.038496
0.0401156
0.0416032
0.0430175
0.0436626
0.0417829
0.0349277
0.0216357
0.00367648
-0.0132545
-0.0224227
-0.0210702
-0.012181
-0.00146141
0.00709967
0.0124612
0.0152309
0.0163073
0.0163036
0.0154718
0.0137559
0.0109816
0.00711404
0.00250663
-0.00206668
-0.00570512
-0.00784322
-0.00847426
-0.00803997
-0.00709352
-0.00605438
-0.00514363
-0.00443006
-0.00390205
-0.00352183
-0.00325386
-0.00307403
-0.00296933
-0.002934
-0.00296405
-0.00305146
-0.00318081
-0.00332921
-0.00346993
-0.00357815
-0.00363628
-0.0036367
-0.0035816
-0.00348001
-0.00334425
-0.00318701
-0.00301949
-0.00285066
-0.0026872
-0.00253369
-0.00239294
-0.00226627
-0.00215377
-0.00205454
-0.00196694
-0.00188888
-0.00181804
-0.00175216
-0.00168921
-0.00162756
-0.00156607
-0.0015041
-0.00144142
-0.00137817
-0.0013147
-0.00125151
-0.00118914
-0.00112808
-0.00106876
-0.00101152
-0.000956568
-0.000904026
-0.000853914
-0.000806177
-0.000760702
-0.000717345
-0.000675939
-0.000636321
-0.000598337
-0.000561854
-0.000526761
-0.000492974
-0.000460429
-0.000429086
-0.000398917
-0.000369907
-0.000342049
-0.000315339
-0.000289775
-0.000265356
-0.000242071
-0.000219921
-0.000198879
-0.000178947
-0.000160067
-0.000142251
-0.000125406
-0.00010952
-9.45514e-05
-8.02085e-05
-6.70574e-05
-5.33459e-05
-4.24766e-05
-2.73688e-05
-2.02901e-05
-1.6404e-06
3.54376e-06
0.0624952
0.0612323
0.0569561
0.0506137
0.0415801
0.0294134
0.0138911
-0.00521225
-0.0273546
-0.0515465
-0.0758497
-0.0975499
-0.115801
-0.129503
-0.137854
-0.140383
-0.136777
-0.127313
-0.113098
-0.0959438
-0.0778755
-0.060798
-0.0462224
-0.0351186
-0.0277343
-0.0234048
-0.0205178
-0.017198
-0.0123349
-0.00597425
0.00117581
0.00838242
0.0152047
0.0215323
0.0274539
0.0330101
0.0379728
0.0415614
0.0424572
0.0395567
0.033268
0.0261625
0.0216308
0.0212963
0.0243
0.0285929
0.0326288
0.0357928
0.0381125
0.0399114
0.0414819
0.042837
0.0432088
0.0407503
0.0329115
0.018205
-0.00144525
-0.0199103
-0.0297389
-0.0276849
-0.0169956
-0.00430099
0.00573671
0.0119914
0.0152653
0.0166313
0.0167852
0.0160058
0.0142305
0.0112714
0.0070942
0.00209384
-0.00286254
-0.00675721
-0.00895384
-0.00946267
-0.00881366
-0.0076417
-0.00641245
-0.00535881
-0.00454393
-0.00394635
-0.00352007
-0.00322384
-0.00302939
-0.00292035
-0.00288845
-0.00292787
-0.00302907
-0.00317484
-0.00334011
-0.00349575
-0.00361489
-0.00367875
-0.00367959
-0.00362056
-0.00351208
-0.00336797
-0.00320215
-0.00302676
-0.00285134
-0.00268285
-0.00252593
-0.0023833
-0.00225605
-0.00214397
-0.00204587
-0.00195983
-0.00188349
-0.00181437
-0.00175002
-0.00168832
-0.00162759
-0.00156668
-0.00150496
-0.00144227
-0.00137881
-0.001315
-0.00125141
-0.00118863
-0.0011272
-0.00106758
-0.00101012
-0.000955038
-0.000902444
-0.000852347
-0.000804677
-0.000759305
-0.00071607
-0.000674792
-0.000635296
-0.000597421
-0.000561029
-0.000526008
-0.000492274
-0.000459765
-0.000428443
-0.000398284
-0.000369276
-0.000341414
-0.0003147
-0.00028913
-0.000264706
-0.00024142
-0.000219271
-0.000198236
-0.00017831
-0.000159453
-0.000141641
-0.000124857
-0.000108937
-9.41582e-05
-7.95653e-05
-6.71063e-05
-5.21463e-05
-4.40494e-05
-2.33641e-05
-2.77449e-05
1.42973e-05
-2.77974e-05
0.0645829
0.063373
0.0592759
0.0531332
0.0442733
0.0321399
0.0163934
-0.00338741
-0.0266678
-0.0524975
-0.0784969
-0.101315
-0.120429
-0.134732
-0.14344
-0.146057
-0.142089
-0.131678
-0.115996
-0.0971115
-0.0773583
-0.058922
-0.0435249
-0.032275
-0.0254605
-0.0222808
-0.0207126
-0.0183743
-0.0139026
-0.0074514
2.38752e-05
0.00760596
0.0147722
0.0213986
0.0275947
0.0334113
0.0386192
0.0423554
0.0430849
0.0394435
0.0318155
0.0232344
0.0178592
0.0176278
0.0213784
0.026512
0.0312078
0.0348382
0.0374875
0.0395115
0.0411626
0.0423782
0.0423229
0.039051
0.0298965
0.0134
-0.00833516
-0.028806
-0.039732
-0.0370381
-0.0239642
-0.00845035
0.00373745
0.0112726
0.015245
0.0170041
0.0173766
0.0166791
0.0148316
0.0116183
0.00700177
0.00143634
-0.00407023
-0.00832464
-0.0105835
-0.0108924
-0.00991319
-0.00840611
-0.00690244
-0.00564774
-0.0046932
-0.00400109
-0.0035128
-0.00317893
-0.00296545
-0.00285136
-0.00282496
-0.00287806
-0.00299904
-0.00316827
-0.0033575
-0.00353416
-0.00366841
-0.00373985
-0.00374064
-0.00367539
-0.00355666
-0.00340042
-0.00322236
-0.00303587
-0.00285128
-0.00267591
-0.00251444
-0.0023694
-0.00224155
-0.00213026
-0.0020339
-0.00195015
-0.00187632
-0.00180962
-0.00174743
-0.00168746
-0.00162798
-0.00156782
-0.00150639
-0.00144363
-0.00137981
-0.00131548
-0.0012513
-0.00118792
-0.00112597
-0.00106592
-0.00100816
-0.000952906
-0.000900253
-0.000850194
-0.000802634
-0.00075742
-0.000714365
-0.000673272
-0.00063395
-0.000596228
-0.000559961
-0.000525037
-0.00049137
-0.000458905
-0.000427607
-0.000397456
-0.000368446
-0.000340577
-0.000313852
-0.000288273
-0.000263842
-0.000240555
-0.000218407
-0.000197381
-0.000177464
-0.000158637
-0.000140833
-0.000124125
-0.000108168
-9.36188e-05
-7.87381e-05
-6.71074e-05
-5.06668e-05
-4.5907e-05
-1.84686e-05
-3.68412e-05
3.40797e-05
-6.68292e-05
0.0671549
0.0660176
0.0621646
0.0563035
0.0477053
0.0356668
0.0196872
-0.000935714
-0.0256928
-0.0537472
-0.0820234
-0.106231
-0.126421
-0.141487
-0.15069
-0.153494
-0.149113
-0.137473
-0.119829
-0.0986276
-0.0766256
-0.056381
-0.039896
-0.0284668
-0.0224599
-0.0209081
-0.0212041
-0.0202206
-0.0162307
-0.0095806
-0.0016102
0.00649576
0.0141095
0.0211009
0.0276201
0.0337394
0.0392408
0.0431389
0.0435863
0.0388588
0.0292935
0.018593
0.0121158
0.0122274
0.0172081
0.023612
0.0292344
0.0334724
0.0365251
0.0387947
0.0404539
0.0413781
0.0407206
0.0364111
0.025612
0.00688856
-0.0173571
-0.0400924
-0.0522509
-0.0489044
-0.0330752
-0.0140267
0.000987932
0.0102225
0.0151029
0.0173629
0.0180207
0.0174435
0.0155134
0.0119648
0.00675107
0.000408458
-0.00585543
-0.0105864
-0.0128878
-0.012875
-0.0114031
-0.00941615
-0.00753378
-0.00601066
-0.00487466
-0.00406201
-0.00349568
-0.00311517
-0.00287892
-0.00275982
-0.0027419
-0.002814
-0.00296203
-0.00316312
-0.00338474
-0.00358947
-0.00374343
-0.00382402
-0.00382348
-0.00374867
-0.00361523
-0.00344209
-0.00324735
-0.00304603
-0.0028494
-0.00266518
-0.00249806
-0.00235024
-0.00222199
-0.0021121
-0.00201834
-0.00193783
-0.00186745
-0.00180404
-0.0017447
-0.00168699
-0.00162908
-0.0015698
-0.00150866
-0.00144568
-0.00138129
-0.00131619
-0.00125115
-0.00118695
-0.00112428
-0.00106368
-0.00100553
-0.000950069
-0.000897369
-0.00084739
-0.000800003
-0.00075502
-0.000712221
-0.000671384
-0.000632297
-0.000594777
-0.000558671
-0.000523865
-0.000490279
-0.000457861
-0.000426583
-0.000396433
-0.000367412
-0.000339526
-0.000312783
-0.000287188
-0.000262746
-0.000239454
-0.000217307
-0.000196293
-0.000176386
-0.000157592
-0.0001398
-0.000123175
-0.000107186
-9.28829e-05
-7.77079e-05
-6.69629e-05
-4.89504e-05
-4.7796e-05
-1.29784e-05
-4.68067e-05
5.6603e-05
-0.000111261
0.0701826
0.0691414
0.0656104
0.0601344
0.0519177
0.0400776
0.023896
0.00227919
-0.0243303
-0.0553492
-0.0866061
-0.112446
-0.133894
-0.14984
-0.159648
-0.162748
-0.157933
-0.144781
-0.124637
-0.100461
-0.0755737
-0.0530144
-0.0351393
-0.0235026
-0.0186163
-0.0193269
-0.0221887
-0.0230356
-0.0195957
-0.0125588
-0.00385422
0.00495896
0.0131282
0.0205347
0.0273981
0.0338385
0.0396517
0.0436719
0.043625
0.0372656
0.0249229
0.0112703
0.0034188
0.00434846
0.0113395
0.0196568
0.0265659
0.0315776
0.0350958
0.0375733
0.0390845
0.0395534
0.0381997
0.0326954
0.0198567
-0.00179988
-0.0292758
-0.0545439
-0.0676723
-0.0631703
-0.0441511
-0.0210059
-0.00258349
0.00875027
0.0147495
0.0176193
0.0186329
0.0182141
0.0161906
0.0122251
0.006252
-0.0010987
-0.0083639
-0.0137265
-0.016049
-0.0155551
-0.0133717
-0.010713
-0.00831988
-0.00644838
-0.00508448
-0.00412386
-0.00346318
-0.0030273
-0.00276525
-0.00264221
-0.00263695
-0.0027348
-0.00291882
-0.00316205
-0.00342622
-0.00366737
-0.00384616
-0.00393717
-0.00393302
-0.00384393
-0.00368984
-0.00349376
-0.0032769
-0.00305631
-0.00284437
-0.0026492
-0.00247536
-0.00232458
-0.0021964
-0.00208882
-0.00199878
-0.00192275
-0.00185698
-0.00179788
-0.00174223
-0.00168735
-0.00163133
-0.00157304
-0.00151209
-0.00144866
-0.0013834
-0.00131718
-0.00125096
-0.00118564
-0.00112203
-0.00106071
-0.0010021
-0.000946417
-0.000893699
-0.000843867
-0.000796743
-0.00075209
-0.000709645
-0.000669152
-0.000630372
-0.000593108
-0.0005572
-0.000522536
-0.000489037
-0.000456663
-0.000425396
-0.000395234
-0.000366188
-0.000338272
-0.000311499
-0.000285881
-0.000261423
-0.000238124
-0.000215978
-0.000194977
-0.000175085
-0.000156328
-0.000138554
-0.000122015
-0.000106005
-9.19445e-05
-7.65096e-05
-6.6621e-05
-4.71224e-05
-4.9492e-05
-7.36787e-06
-5.67789e-05
8.02791e-05
-0.000158169
0.0736281
0.0727109
0.0695944
0.0646325
0.0569566
0.0454737
0.0291775
0.0064405
-0.0224443
-0.0573987
-0.0925128
-0.120171
-0.143053
-0.160042
-0.170672
-0.174308
-0.169087
-0.154063
-0.130712
-0.10272
-0.0741634
-0.048674
-0.0290455
-0.0171698
-0.0138165
-0.0176465
-0.0240765
-0.0273316
-0.024458
-0.0167129
-0.00691492
0.00285435
0.0117012
0.0195526
0.0267465
0.0334899
0.0395089
0.043464
0.0427674
0.0345593
0.0187545
0.000997626
-0.00907011
-0.00695788
0.0031568
0.014338
0.0230335
0.0290175
0.0330311
0.0356037
0.0367863
0.0367452
0.0347141
0.0278481
0.0124629
-0.0128383
-0.0441561
-0.0721892
-0.0859792
-0.0796971
-0.056917
-0.0292254
-0.00698311
0.00676331
0.0140684
0.0176499
0.019077
0.0188262
0.0166912
0.0122928
0.00555477
-0.00287944
-0.0113646
-0.0176363
-0.0201234
-0.0190447
-0.0159086
-0.0123419
-0.00927459
-0.0069606
-0.00531799
-0.00418122
-0.0034101
-0.00291084
-0.00262103
-0.00249623
-0.00250887
-0.00264059
-0.00287141
-0.0031693
-0.00348838
-0.00377586
-0.00398512
-0.00408716
-0.00407555
-0.00396545
-0.00378281
-0.00355606
-0.00331038
-0.00306528
-0.00283433
-0.00262599
-0.00244452
-0.00229087
-0.00216361
-0.00205964
-0.00197488
-0.00190487
-0.00184516
-0.0017916
-0.00174057
-0.00168914
-0.00163532
-0.00157805
-0.00151709
-0.00145288
-0.00138631
-0.00131851
-0.00125068
-0.0011839
-0.00111907
-0.00105687
-0.000997716
-0.000941799
-0.000889122
-0.000839537
-0.000792799
-0.000748605
-0.000706638
-0.000666594
-0.000628209
-0.000591263
-0.000555593
-0.000521087
-0.000487679
-0.000455339
-0.000424064
-0.000393868
-0.000364775
-0.00033681
-0.000309993
-0.00028434
-0.000259859
-0.000236552
-0.000214407
-0.000193421
-0.000173548
-0.00015483
-0.00013708
-0.000120623
-0.000104613
-9.07663e-05
-7.51461e-05
-6.59888e-05
-4.52795e-05
-5.06992e-05
-2.14404e-06
-6.56845e-05
0.000103137
-0.000203739
0.0774424
0.0766819
0.0740877
0.0697986
0.0628709
0.0519791
0.0357374
0.0118077
-0.0198308
-0.06003
-0.100118
-0.129657
-0.15403
-0.17208
-0.183697
-0.188207
-0.18276
-0.165561
-0.13822
-0.105444
-0.0723087
-0.043173
-0.0213639
-0.00921385
-0.00793232
-0.0160537
-0.0274208
-0.0338229
-0.0314065
-0.0224181
-0.0110098
3.19308e-05
0.00967683
0.0179653
0.0254303
0.0323119
0.038092
0.0414907
0.0400933
0.0306626
0.0121684
-0.0102901
-0.0244105
-0.0220685
-0.0079891
0.00724442
0.0184232
0.0256318
0.0301249
0.0326219
0.0333612
0.0329001
0.0302367
0.0218007
0.00344992
-0.0258286
-0.0611365
-0.0919591
-0.106241
-0.0978193
-0.0708682
-0.0383812
-0.0121418
0.00418091
0.0129222
0.0172867
0.0191212
0.0189779
0.016705
0.0119924
0.00477421
-0.00444739
-0.0141176
-0.0216455
-0.0247493
-0.0232543
-0.0190398
-0.0143369
-0.0104111
-0.00754661
-0.00557005
-0.00422829
-0.00333071
-0.00276049
-0.00244192
-0.00231902
-0.00235648
-0.00253217
-0.00282293
-0.00319064
-0.0035795
-0.00392499
-0.00417084
-0.00428356
-0.00425868
-0.00411839
-0.00389686
-0.00362966
-0.00334697
-0.00307114
-0.00281703
-0.00259324
-0.00240341
-0.00224738
-0.00212236
-0.0020238
-0.00194627
-0.00188422
-0.00183231
-0.00178572
-0.00174036
-0.00169305
-0.00164171
-0.0015854
-0.00152412
-0.00145863
-0.00139017
-0.00132022
-0.00125025
-0.00118158
-0.00111523
-0.00105196
-0.000992185
-0.000936063
-0.000883521
-0.000834324
-0.000788135
-0.000744565
-0.000703225
-0.000663759
-0.000625864
-0.000589304
-0.000553909
-0.000519575
-0.000486249
-0.000453923
-0.000422613
-0.000392354
-0.000363186
-0.000335147
-0.000308267
-0.000282569
-0.00025806
-0.000234742
-0.000212602
-0.000191636
-0.000171788
-0.000153111
-0.000135396
-0.000119012
-0.00010303
-8.93465e-05
-7.36576e-05
-6.50153e-05
-4.35724e-05
-5.11613e-05
2.04897e-06
-7.23849e-05
0.000122633
-0.000243241
0.0815636
0.0809968
0.0790476
0.0756203
0.0697041
0.0597305
0.0438228
0.0187224
-0.0162188
-0.0634926
-0.109969
-0.141237
-0.167179
-0.186435
-0.199388
-0.205291
-0.199854
-0.180027
-0.147628
-0.10881
-0.0699745
-0.0363331
-0.0118309
0.000632184
-0.000882125
-0.0148761
-0.0329901
-0.0435452
-0.041369
-0.0302764
-0.0164771
-0.00372456
0.00685427
0.0155484
0.0231354
0.0296157
0.0341873
0.0361984
0.0337682
0.0238758
0.00430617
-0.0219813
-0.0410959
-0.0401194
-0.0221817
-0.00194239
0.0125018
0.0212344
0.0261602
0.0284084
0.0286932
0.027964
0.0247006
0.0145429
-0.00687437
-0.039945
-0.0789088
-0.112277
-0.126942
-0.116316
-0.0851864
-0.0480172
-0.0179137
0.000947747
0.0111573
0.0162928
0.0184077
0.018216
0.0157434
0.0108532
0.00354644
-0.0059098
-0.0163581
-0.0251722
-0.029296
-0.0278108
-0.0226328
-0.0166733
-0.0117265
-0.00820182
-0.00583499
-0.00426049
-0.00322169
-0.0025743
-0.00222767
-0.00211142
-0.00218128
-0.00241198
-0.00277759
-0.00323262
-0.00370855
-0.00412556
-0.00441461
-0.00453658
-0.00449055
-0.00430814
-0.00403461
-0.00371488
-0.00338533
-0.00307158
-0.00278971
-0.00254819
-0.00234962
-0.00219222
-0.00207135
-0.00198056
-0.00191274
-0.00186098
-0.00181889
-0.00178088
-0.00174234
-0.00169982
-0.00165119
-0.00159568
-0.00153362
-0.00146621
-0.00139514
-0.00132233
-0.0012496
-0.00117853
-0.00111032
-0.00104578
-0.000985329
-0.000929054
-0.00087678
-0.000828152
-0.00078271
-0.000739961
-0.000699426
-0.000660682
-0.000623387
-0.000587283
-0.0005522
-0.000518045
-0.000484789
-0.000452448
-0.000421067
-0.000390707
-0.000361428
-0.000333286
-0.000306323
-0.000280565
-0.000256022
-0.000232694
-0.000210562
-0.000189621
-0.000169807
-0.000151174
-0.000133505
-0.000117181
-0.000101262
-8.76735e-05
-7.20691e-05
-6.36422e-05
-4.21341e-05
-5.06173e-05
4.53726e-06
-7.56555e-05
0.000135709
-0.000270924
0.085915
0.085583
0.0844136
0.08207
0.0774915
0.0688887
0.0537546
0.0276877
-0.0111821
-0.0681224
-0.122916
-0.155329
-0.182448
-0.202672
-0.217371
-0.225647
-0.220914
-0.198134
-0.159425
-0.113061
-0.0672099
-0.0280831
-0.000285468
0.0125633
0.00724698
-0.0148698
-0.0424031
-0.0582983
-0.0556478
-0.0409909
-0.0236535
-0.00862552
0.00302814
0.0120702
0.0194239
0.0245215
0.026698
0.0267978
0.0233887
0.0134532
-0.00686812
-0.03607
-0.0595213
-0.0602541
-0.0389936
-0.01328
0.0050905
0.0156343
0.0209367
0.0228018
0.0226918
0.0218221
0.0179944
0.00614376
-0.0180154
-0.054207
-0.0960939
-0.131503
-0.146402
-0.133732
-0.0988516
-0.0575616
-0.0240886
-0.00295906
0.00859937
0.0143557
0.0165258
0.0160797
0.0133455
0.00841734
0.0013906
-0.00780192
-0.0185165
-0.028264
-0.0334363
-0.0322946
-0.0264285
-0.0192488
-0.0131886
-0.00891301
-0.00610444
-0.00427217
-0.00307924
-0.00235004
-0.00197717
-0.00187506
-0.00198663
-0.00228398
-0.00273902
-0.00329854
-0.00387928
-0.00438261
-0.00472264
-0.0048527
-0.00477703
-0.00453889
-0.00419807
-0.00381168
-0.00342385
-0.00306405
-0.00274951
-0.00248814
-0.00228092
-0.0021238
-0.00200962
-0.00192949
-0.00187425
-0.00183539
-0.00180532
-0.0017776
-0.00174706
-0.00170997
-0.00166421
-0.00160926
-0.00154587
-0.00147578
-0.00140128
-0.00132481
-0.00124863
-0.00117462
-0.00110419
-0.0010382
-0.000977035
-0.000920693
-0.000868856
-0.00082101
-0.000776545
-0.000734833
-0.00069529
-0.000657419
-0.00062083
-0.000585248
-0.000550507
-0.000516532
-0.000483323
-0.000450932
-0.000419438
-0.000388935
-0.000359509
-0.000331235
-0.000304168
-0.000278338
-0.000253758
-0.000230423
-0.000208307
-0.000187399
-0.000167628
-0.000149044
-0.000131435
-0.000115157
-9.9341e-05
-8.57682e-05
-7.04315e-05
-6.18598e-05
-4.11208e-05
-4.88894e-05
4.60302e-06
-7.43648e-05
0.000138847
-0.000280278
0.0904037
0.0903487
0.0901013
0.0890863
0.0862378
0.0795939
0.0658839
0.0393392
-0.00421467
-0.0745935
-0.139934
-0.172456
-0.200744
-0.22187
-0.238698
-0.250447
-0.247283
-0.221091
-0.174398
-0.118558
-0.0641129
-0.0183469
0.0135449
0.0265861
0.015772
-0.0178391
-0.0583476
-0.0808562
-0.0763117
-0.0557115
-0.0330626
-0.0149497
-0.00201085
0.00727166
0.0137736
0.0163591
0.0155947
0.0140936
0.0103908
0.00036311
-0.021086
-0.0525974
-0.079343
-0.0815593
-0.0575895
-0.02649
-0.00385976
0.00867418
0.0142917
0.0156853
0.0152313
0.014295
0.00999956
-0.00324043
-0.0293976
-0.0676404
-0.111388
-0.148089
-0.162992
-0.148613
-0.110795
-0.0663943
-0.030412
-0.00753417
0.00506002
0.0111622
0.0131764
0.0124086
0.00952153
0.00480431
-0.00166
-0.0102573
-0.020748
-0.0309047
-0.0369282
-0.0362988
-0.0300882
-0.0218833
-0.0147269
-0.00965469
-0.00636743
-0.00425822
-0.00290269
-0.00209216
-0.00170087
-0.00162154
-0.0017817
-0.0021512
-0.0027022
-0.00337541
-0.00407376
-0.00467835
-0.00508158
-0.00522449
-0.00511527
-0.00481002
-0.00438697
-0.00391914
-0.00346081
-0.00304633
-0.00269415
-0.00241117
-0.00219599
-0.00204143
-0.00193699
-0.00187076
-0.00183114
-0.00180776
-0.00179176
-0.00177588
-0.00175437
-0.00172327
-0.00168055
-0.00162594
-0.00156072
-0.00148726
-0.00140853
-0.00132763
-0.00124732
-0.00116987
-0.00109687
-0.00102925
-0.000967363
-0.000911046
-0.000859811
-0.000812951
-0.000769676
-0.000729202
-0.000690824
-0.000653963
-0.000618181
-0.000583184
-0.000548814
-0.00051502
-0.000481841
-0.000449368
-0.000417725
-0.00038704
-0.000357433
-0.000329001
-0.00030181
-0.0002759
-0.000251279
-0.000227939
-0.000205846
-0.000184979
-0.000165264
-0.000146733
-0.0001292
-0.000112954
-9.72863e-05
-8.36464e-05
-6.87788e-05
-5.96725e-05
-4.06495e-05
-4.58692e-05
1.62518e-06
-6.7575e-05
0.000128429
-0.000264582
0.0949196
0.0951841
0.0959984
0.0965797
0.0959145
0.0920174
0.0806832
0.0547324
0.00563345
-0.0839372
-0.163461
-0.192886
-0.22054
-0.242165
-0.262647
-0.280449
-0.28062
-0.250582
-0.193695
-0.125963
-0.0611106
-0.00739389
0.0293404
0.0425652
0.0243682
-0.0250822
-0.083411
-0.114658
-0.106045
-0.0757893
-0.0452028
-0.0229032
-0.00841496
0.00086913
0.00568544
0.00485957
0.00150666
-0.000796372
-0.0040089
-0.0141709
-0.0366204
-0.0696789
-0.0988005
-0.102499
-0.0766788
-0.0409115
-0.014192
0.000292525
0.00612606
0.00696678
0.00614321
0.00517077
0.000626676
-0.0133904
-0.0404485
-0.0793676
-0.123644
-0.160675
-0.175276
-0.159657
-0.120039
-0.0739261
-0.0366142
-0.0127515
0.00039254
0.00653692
0.00832026
0.00744226
0.00472174
0.000511863
-0.00520654
-0.0129682
-0.022797
-0.0328409
-0.0394192
-0.0394111
-0.0332396
-0.0243412
-0.0162332
-0.0103862
-0.00660817
-0.00421064
-0.0026889
-0.00180381
-0.00140895
-0.00136616
-0.00158003
-0.00201448
-0.0026457
-0.0034178
-0.00423027
-0.00494824
-0.00543709
-0.00561453
-0.00548297
-0.00511045
-0.00459663
-0.00403549
-0.00349555
-0.00301819
-0.0026238
-0.00231798
-0.00209609
-0.00194679
-0.0018552
-0.00180579
-0.00178418
-0.00177808
-0.00177749
-0.00177441
-0.00176262
-0.00173803
-0.00169863
-0.00164439
-0.00157714
-0.00149995
-0.00141654
-0.00133069
-0.0012458
-0.00116453
-0.00108871
-0.00101935
-0.000956707
-0.000900477
-0.000849957
-0.000804222
-0.000762275
-0.000723164
-0.000686057
-0.000650287
-0.000615369
-0.000580994
-0.000547014
-0.000513408
-0.000480253
-0.000447686
-0.000415876
-0.000384993
-0.00035519
-0.000326587
-0.000299265
-0.00027327
-0.000248609
-0.000225269
-0.000203206
-0.000182387
-0.000162737
-0.000144263
-0.000126821
-0.000110598
-9.51232e-05
-8.13419e-05
-6.71475e-05
-5.71282e-05
-4.08037e-05
-4.15803e-05
-4.82952e-06
-5.47809e-05
0.000101326
-0.000218077
0.0993356
0.0999543
0.101958
0.104384
0.106411
0.106159
0.098547
0.0749061
0.0190032
-0.0967493
-0.194177
-0.219129
-0.246008
-0.266346
-0.290317
-0.316953
-0.323258
-0.289055
-0.218974
-0.136145
-0.0586195
0.00479745
0.0465094
0.0586868
0.0357491
-0.0273045
-0.105968
-0.15353
-0.144696
-0.102514
-0.0608226
-0.032742
-0.0163059
-0.00736101
-0.0050866
-0.00969237
-0.0150121
-0.0170682
-0.0191056
-0.0290556
-0.0517872
-0.0854288
-0.116108
-0.12132
-0.094742
-0.0556
-0.0255247
-0.009424
-0.00356762
-0.00342076
-0.00474621
-0.00573872
-0.0101462
-0.0240388
-0.0506441
-0.0886683
-0.131962
-0.168206
-0.182137
-0.16586
-0.125822
-0.0796737
-0.0424423
-0.0185444
-0.00541642
0.000535539
0.00220052
0.0015942
-0.000543042
-0.0039897
-0.00884315
-0.0155783
-0.0243938
-0.0338851
-0.0406909
-0.0413441
-0.0355644
-0.0263817
-0.0175795
-0.011057
-0.00681003
-0.0041249
-0.00244258
-0.00150369
-0.00113571
-0.00114798
-0.00140843
-0.00187658
-0.00253949
-0.00335844
-0.00425091
-0.00508176
-0.00568832
-0.00594617
-0.00583016
-0.00541251
-0.00481489
-0.00415769
-0.00352972
-0.00298364
-0.00254372
-0.00221453
-0.00198744
-0.00184577
-0.00176921
-0.00173803
-0.00173507
-0.00174618
-0.00176061
-0.00177007
-0.00176805
-0.00175026
-0.00171471
-0.00166155
-0.00159288
-0.00151238
-0.00142453
-0.00133386
-0.00124439
-0.00115925
-0.00108056
-0.00100939
-0.000945946
-0.000889756
-0.000839904
-0.000795245
-0.000754581
-0.000716796
-0.000680933
-0.000646242
-0.00061219
-0.000578453
-0.000544886
-0.000511495
-0.000478393
-0.000445759
-0.000413807
-0.000382744
-0.000352758
-0.000323993
-0.000296545
-0.000270468
-0.000245769
-0.000222427
-0.000200395
-0.000179625
-0.000160044
-0.000141628
-0.00012429
-0.000108082
-9.28445e-05
-7.88657e-05
-6.55319e-05
-5.42782e-05
-4.15649e-05
-3.61559e-05
-1.48065e-05
-3.6077e-05
5.5865e-05
-0.000137619
0.10351
0.10451
0.107791
0.112305
0.117525
0.122142
0.120102
0.102801
0.0381353
-0.122498
-0.238882
-0.245522
-0.269674
-0.291637
-0.324015
-0.364212
-0.379777
-0.340516
-0.252739
-0.150528
-0.0576996
0.0149396
0.0567604
0.0668018
0.0409267
-0.0265761
-0.115075
-0.182049
-0.183055
-0.133103
-0.0795468
-0.044469
-0.0257203
-0.017499
-0.0185147
-0.0268646
-0.0335828
-0.0343468
-0.0344547
-0.0433215
-0.0652369
-0.0983691
-0.129757
-0.136455
-0.110284
-0.0694658
-0.0372749
-0.0202144
-0.0146824
-0.0154937
-0.0175603
-0.018539
-0.0222444
-0.0348815
-0.0595368
-0.0950259
-0.135763
-0.170039
-0.182921
-0.166632
-0.127691
-0.0833176
-0.0476835
-0.0247771
-0.0122321
-0.00663475
-0.00487361
-0.00482154
-0.00600274
-0.00848685
-0.0123428
-0.0178655
-0.0253933
-0.0339844
-0.0407076
-0.0419829
-0.0368556
-0.0278064
-0.0186424
-0.0116149
-0.00695824
-0.00400107
-0.00217618
-0.00122132
-0.000923837
-0.00102247
-0.00133663
-0.00180695
-0.00243154
-0.00320731
-0.00409982
-0.00500283
-0.00573685
-0.00612428
-0.00608536
-0.0056714
-0.00502029
-0.00428094
-0.00356873
-0.00295358
-0.00246748
-0.00211528
-0.00188407
-0.00175085
-0.00168923
-0.00167469
-0.00168749
-0.00171244
-0.00173896
-0.00175872
-0.00176528
-0.00175429
-0.00172344
-0.00167258
-0.00160404
-0.00152186
-0.00143099
-0.00133661
-0.00124337
-0.0011549
-0.00107362
-0.00100074
-0.00093643
-0.000880109
-0.000830683
-0.000786818
-0.000747145
-0.000710409
-0.000675552
-0.000641756
-0.000608449
-0.000575287
-0.000542127
-0.000508984
-0.000475996
-0.000443371
-0.000411354
-0.000380185
-0.000350078
-0.000321199
-0.00029366
-0.000267521
-0.000242793
-0.000219453
-0.000197447
-0.00017672
-0.000157204
-0.000138841
-0.000121611
-0.000105414
-9.04449e-05
-7.62364e-05
-6.39083e-05
-5.1198e-05
-4.28143e-05
-2.98686e-05
-2.78394e-05
-1.23648e-05
-7.11058e-06
-2.46837e-05
0.107289
0.108674
0.113276
0.119982
0.128904
0.139247
0.145552
0.137644
0.0648228
-0.135545
-0.312344
-0.296083
-0.305237
-0.31466
-0.352085
-0.412736
-0.446648
-0.406076
-0.297763
-0.171557
-0.0610996
0.0160146
0.0463482
0.04634
0.0149567
-0.0381648
-0.120097
-0.199372
-0.214348
-0.163128
-0.0997646
-0.0576172
-0.0365212
-0.0294545
-0.0343133
-0.0463627
-0.0539876
-0.0524255
-0.049553
-0.0561154
-0.0759885
-0.107489
-0.138678
-0.146738
-0.12206
-0.0814395
-0.0487272
-0.0316536
-0.0269852
-0.0291762
-0.032309
-0.0331973
-0.0354748
-0.0455825
-0.0667702
-0.0981564
-0.134849
-0.166024
-0.177505
-0.161878
-0.125559
-0.0847317
-0.0521689
-0.0312452
-0.0198349
-0.0147495
-0.0127481
-0.0117602
-0.0116952
-0.0129842
-0.0156302
-0.0197416
-0.025766
-0.0331911
-0.0395547
-0.0413519
-0.0370349
-0.0284925
-0.0193284
-0.0120207
-0.00705258
-0.00386376
-0.00194022
-0.00103795
-0.000886275
-0.00113433
-0.00153344
-0.00200381
-0.00253617
-0.00315312
-0.00390223
-0.00476008
-0.005564
-0.00608661
-0.00617368
-0.0058283
-0.00517845
-0.00439405
-0.00361837
-0.00294431
-0.00241671
-0.00204361
-0.00180859
-0.00168219
-0.00163172
-0.00162842
-0.0016505
-0.00168244
-0.00171419
-0.00173898
-0.00175087
-0.00174501
-0.00171877
-0.00167188
-0.00160586
-0.00152455
-0.00143323
-0.00133749
-0.00124237
-0.00115195
-0.00106896
-0.000994808
-0.000929713
-0.000873043
-0.000823616
-0.00078
-0.000740737
-0.000704498
-0.000670171
-0.000636894
-0.000604066
-0.000571323
-0.000538507
-0.000505631
-0.000472831
-0.000440324
-0.000408366
-0.000377213
-0.000347093
-0.000318189
-0.000290624
-0.000264465
-0.000239729
-0.000216394
-0.000194409
-0.000173711
-0.000154246
-0.000135922
-0.000118793
-0.0001026
-8.79154e-05
-7.34706e-05
-6.2224e-05
-4.79675e-05
-4.43071e-05
-2.30959e-05
-4.28386e-05
1.45917e-05
-8.33159e-05
0.000113029
0.110515
0.112272
0.118137
0.127091
0.13995
0.157501
0.175647
0.191493
0.105037
-0.125653
-0.350555
-0.311964
-0.313101