/*--------------------------------*- C++ -*----------------------------------*\
  =========                 |
  \\      /  F ield         | OpenFOAM: The Open Source CFD Toolbox
   \\    /   O peration     | Website:  https://openfoam.org
    \\  /    A nd           | Version:  11
     \\/     M anipulation  |
\*---------------------------------------------------------------------------*/
FoamFile
{
    format      ascii;
    class       volVectorField;
    location    "10.448458";
    object      U_0;
}
// * * * * * * * * * * * * * * * * * * * * * * * * * * * * * * * * * * * * * //

dimensions      [0 1 -1 0 0 0 0];

internalField   nonuniform List<vector> 
7132
(
(1.00012 -0.000243379 2.48963e-18)
(1.00188 -0.000730932 9.5484e-18)
(1.00586 -0.00124794 9.97118e-18)
(1.01191 -0.00180732 1.25135e-17)
(1.02029 -0.00241223 1.61676e-17)
(1.03119 -0.00304045 1.65256e-17)
(1.04463 -0.00364818 1.53247e-17)
(1.06042 -0.00415234 1.36641e-17)
(1.07793 -0.00446326 1.21435e-17)
(1.09625 -0.00449052 1.09822e-17)
(1.11399 -0.00418248 1.00957e-17)
(1.12988 -0.00361137 9.63875e-18)
(1.143 -0.00283593 9.09129e-18)
(1.15267 -0.00190548 9.32681e-18)
(1.15834 -0.000842846 3.33345e-18)
(1.15951 0.000348298 -2.70737e-18)
(1.15565 0.00163083 -8.4486e-18)
(1.14654 0.00287835 -8.30739e-18)
(1.13265 0.00388325 -1.23093e-17)
(1.11542 0.00443404 -1.61105e-17)
(1.09705 0.00439195 -1.51937e-17)
(1.0801 0.00371896 -1.38163e-17)
(1.06711 0.00247787 -1.27628e-17)
(1.06014 0.000830583 -1.17474e-17)
(1.06043 -0.000967295 -1.40879e-17)
(1.06799 -0.00256288 -2.89511e-17)
(1.08122 -0.00353822 -5.74545e-17)
(1.09675 -0.00353355 -8.1602e-17)
(1.11001 -0.00244441 -7.83977e-17)
(1.11678 -0.000540088 -5.29129e-17)
(1.11465 0.00164707 -2.93994e-17)
(1.10369 0.0035779 -2.21293e-17)
(1.08591 0.00489945 -2.83152e-17)
(1.06424 0.0054705 -1.3728e-17)
(1.04181 0.00528567 6.06553e-17)
(1.02157 0.00439116 -5.4043e-17)
(1.00627 0.00283892 -9.33015e-16)
(0.998448 0.000696943 -1.59329e-15)
(1.00034 -0.00189022 6.93529e-15)
(1.01339 -0.00459988 4.87498e-14)
(1.03724 -0.00686576 1.38743e-13)
(1.06874 -0.00797692 2.35218e-13)
(1.10175 -0.00738513 2.55263e-13)
(1.12861 -0.00505939 1.77434e-13)
(1.1429 -0.00160133 7.70046e-14)
(1.14181 0.00203162 2.02472e-14)
(1.12669 0.00498843 -8.06232e-16)
(1.10166 0.00683771 -7.31363e-15)
(1.07159 0.00755276 -7.91195e-15)
(1.04079 0.00730582 6.84892e-15)
(1.01269 0.00627058 3.707e-14)
(0.990147 0.00452682 8.09161e-15)
(0.975955 0.00207586 -2.12456e-13)
(0.97303 -0.00105809 -6.22257e-13)
(0.984055 -0.00466325 -7.50262e-13)
(1.01029 -0.00819258 4.21279e-13)
(1.04999 -0.0107814 3.2864e-12)
(1.09734 -0.0115162 6.43588e-12)
(1.14314 -0.00986348 7.92467e-12)
(1.17724 -0.00602895 7.23415e-12)
(1.19211 -0.000999971 4.81544e-12)
(1.18555 0.00383357 1.7274e-12)
(1.16125 0.00729211 -1.76913e-13)
(1.12663 0.00885813 -4.96155e-13)
(1.08966 0.00867451 -2.8401e-13)
(1.05656 0.00721112 -9.07607e-13)
(1.0314 0.00490249 -2.11191e-12)
(1.01681 0.0019691 3.64528e-13)
(1.0151 -0.00151888 1.55384e-11)
(1.02842 -0.00541216 5.43789e-11)
(1.05797 -0.00927944 1.23743e-10)
(1.10247 -0.012401 2.20935e-10)
(1.1573 -0.0139994 3.33634e-10)
(1.21484 -0.0135673 4.4497e-10)
(1.26627 -0.0110897 5.38623e-10)
(1.30386 -0.00703992 6.00685e-10)
(1.32271 -0.00216465 6.20315e-10)
(1.32124 0.00277197 5.90052e-10)
(1.30067 0.00711456 5.04422e-10)
(1.26455 0.010279 3.70634e-10)
(1.21868 0.011742 2.17548e-10)
(1.17074 0.0112453 8.6495e-11)
(1.12866 0.00902413 6.44198e-12)
(1.09834 0.00575 -2.23897e-11)
(1.08242 0.00221333 -2.05049e-11)
(1.08048 -0.000963922 -9.60393e-12)
(1.09014 -0.00340145 -1.36295e-12)
(1.1079 -0.00488427 1.87981e-12)
(1.1296 -0.00528355 1.98643e-12)
(1.15067 -0.00456606 1.19393e-12)
(1.16665 -0.00286969 6.67613e-13)
(1.17405 -0.000552379 5.23509e-13)
(1.17132 0.00186987 4.67178e-13)
(1.15914 0.00388943 3.61183e-13)
(1.14006 0.00517827 2.16512e-13)
(1.11745 0.00565907 8.86686e-14)
(1.09449 0.0054587 1.14727e-14)
(1.07352 0.00480173 -1.70222e-14)
(1.05589 0.0039129 -1.76796e-14)
(1.04209 0.00296386 -1.03186e-14)
(1.0321 0.00206282 -5.00519e-15)
(1.02555 0.00126781 -3.5381e-15)
(1.02194 0.000605601 -4.18449e-15)
(1.02071 8.6583e-05 -4.99743e-15)
(1.02128 -0.000286555 -4.88606e-15)
(1.02305 -0.000515678 -3.49524e-15)
(1.02546 -0.000607694 -8.8936e-16)
(1.02797 -0.000576738 2.61623e-15)
(1.03013 -0.000445826 6.48843e-15)
(1.03159 -0.000246204 1.00292e-14)
(1.03213 -1.39226e-05 1.25153e-14)
(1.03172 0.000215457 1.34467e-14)
(1.03042 0.000412285 1.27421e-14)
(1.02841 0.000556575 1.07018e-14)
(1.02594 0.000639265 7.87156e-15)
(1.02327 0.000661208 4.85946e-15)
(1.02063 0.000630732 2.18972e-15)
(1.0182 0.00056069 2.26273e-16)
(1.01612 0.00046568 -8.44185e-16)
(1.01446 0.000359836 -9.72607e-16)
(1.01323 0.000255293 -2.02944e-16)
(1.01241 0.00016134 1.3656e-15)
(1.01194 8.41372e-05 3.60474e-15)
(1.01174 2.68766e-05 6.36078e-15)
(1.01173 -9.77489e-06 9.45913e-15)
(1.01182 -2.71112e-05 1.2709e-14)
(1.01195 -2.78085e-05 1.59098e-14)
(1.01205 -1.53963e-05 1.88695e-14)
(1.01208 6.19847e-06 2.14231e-14)
(1.01201 3.30377e-05 2.34605e-14)
(1.01182 6.14938e-05 2.49406e-14)
(1.01152 8.85005e-05 2.58913e-14)
(1.01111 0.000111721 2.64025e-14)
(1.01062 0.000129628 2.66044e-14)
(1.01007 0.0001415 2.66473e-14)
(1.00949 0.000147339 2.6678e-14)
(1.00889 0.000147732 2.68203e-14)
(1.0083 0.000143677 2.71673e-14)
(1.00774 0.000136405 2.77738e-14)
(1.00721 0.000127207 2.86602e-14)
(1.00672 0.000117297 2.98156e-14)
(1.00627 0.000107703 3.12038e-14)
(1.00586 9.92141e-05 3.27751e-14)
(1.00548 9.2346e-05 3.44713e-14)
(1.00512 8.73576e-05 3.62354e-14)
(1.00478 8.42736e-05 3.80155e-14)
(1.00444 8.29464e-05 3.97675e-14)
(1.00411 8.30823e-05 4.14624e-14)
(1.00378 8.43443e-05 4.30853e-14)
(1.00344 8.63139e-05 4.46388e-14)
(1.00309 8.86822e-05 4.61405e-14)
(1.00273 9.10218e-05 4.76183e-14)
(1.00236 9.32385e-05 4.91105e-14)
(1.00198 9.48784e-05 5.06566e-14)
(1.00161 9.62226e-05 5.22926e-14)
(1.00119 9.66687e-05 5.40466e-14)
(1.00085 9.68901e-05 5.59106e-14)
(1.00038 9.62976e-05 5.79447e-14)
(1.00015 9.52009e-05 5.97622e-14)
(0.999499 9.39857e-05 6.30195e-14)
(1.00012 -0.000727983 3.49604e-20)
(1.00187 -0.00218726 4.70043e-19)
(1.00581 -0.00373608 9.28064e-19)
(1.01183 -0.00541551 1.39893e-18)
(1.0202 -0.00723621 1.97053e-18)
(1.03111 -0.00913264 2.51513e-18)
(1.04463 -0.0109739 2.8422e-18)
(1.06058 -0.0125068 3.28942e-18)
(1.07835 -0.0134583 4.12229e-18)
(1.09698 -0.0135464 4.28231e-18)
(1.11503 -0.0126119 4.40484e-18)
(1.13115 -0.0108858 7.51037e-18)
(1.14445 -0.00855056 4.89117e-18)
(1.15426 -0.00575835 3.99481e-18)
(1.16006 -0.00257587 5.28322e-18)
(1.16134 0.000995394 7.17105e-18)
(1.15753 0.00485631 8.31782e-18)
(1.14829 0.00862993 8.73953e-18)
(1.13406 0.0116834 8.57143e-18)
(1.11631 0.0133693 8.18725e-18)
(1.09732 0.0132629 7.64881e-18)
(1.07975 0.0112455 4.84533e-18)
(1.06624 0.00750067 -3.86045e-18)
(1.05895 0.00250962 -1.27198e-17)
(1.05923 -0.00296099 -3.39028e-17)
(1.06717 -0.00784264 -3.66609e-16)
(1.08118 -0.0108533 -1.27683e-15)
(1.09774 -0.0108746 -1.80817e-15)
(1.11199 -0.00756991 -1.24535e-15)
(1.11935 -0.00176159 -4.28922e-16)
(1.11731 0.00491388 -4.85458e-17)
(1.10599 0.0108016 1.21672e-17)
(1.08758 0.0148284 7.71623e-18)
(1.06519 0.0165768 1.44323e-16)
(1.04202 0.0160438 -1.74214e-16)
(1.02107 0.0133761 -2.35767e-15)
(1.00508 0.00872497 9.79602e-16)
(0.996652 0.00227502 3.58586e-14)
(0.998181 -0.00556681 5.84537e-14)
(1.01134 -0.0138417 -3.1504e-13)
(1.03598 -0.0208205 -1.59812e-12)
(1.06892 -0.0243012 -3.23954e-12)
(1.10366 -0.0225681 -3.72854e-12)
(1.13198 -0.0155069 -2.7179e-12)
(1.14699 -0.00496724 -1.31783e-12)
(1.14575 0.00610524 -3.96254e-13)
(1.12985 0.0150999 -2.39343e-14)
(1.10379 0.0207075 4.2022e-14)
(1.07273 0.0228703 3.3267e-14)
(1.04105 0.0221368 6.73585e-14)
(1.01214 0.0190476 -5.53484e-15)
(0.988809 0.0138393 -6.48309e-13)
(0.973838 0.00648923 -1.37421e-12)
(0.97025 -0.0029749 2.72757e-12)
(0.980914 -0.0139474 2.42525e-11)
(1.0073 -0.0247651 7.67173e-11)
(1.04785 -0.0327599 1.53805e-10)
(1.09688 -0.0350948 2.19269e-10)
(1.14491 -0.0301051 2.32446e-10)
(1.18109 -0.0184267 1.87128e-10)
(1.19704 -0.00309753 1.14574e-10)
(1.19024 0.0116391 5.05348e-11)
(1.16467 0.0221732 1.22739e-11)
(1.12838 0.0269209 -2.24427e-12)
(1.0899 0.0263424 -4.3788e-12)
(1.05568 0.0219095 -4.52171e-12)
(1.02966 0.0149712 -4.70393e-12)
(1.01429 0.00618963 6.82282e-12)
(1.01177 -0.00426694 5.49102e-11)
(1.02449 -0.0160013 1.64451e-10)
(1.05408 -0.0277395 3.39179e-10)
(1.0996 -0.0372851 5.52874e-10)
(1.1562 -0.0422177 7.64863e-10)
(1.21556 -0.0409384 9.43713e-10)
(1.26807 -0.0334104 1.07537e-09)
(1.30558 -0.0211453 1.15172e-09)
(1.32339 -0.00647605 1.1573e-09)
(1.32056 0.0082892 1.07258e-09)
(1.29898 0.0212403 8.90445e-10)
(1.26244 0.0306998 6.34488e-10)
(1.21657 0.0351331 3.62206e-10)
(1.16871 0.0337382 1.4052e-10)
(1.1266 0.0271602 8.58832e-12)
(1.09617 0.0173698 -3.91124e-11)
(1.08022 0.00672731 -3.65337e-11)
(1.07849 -0.00288856 -1.77446e-11)
(1.08869 -0.010309 -1.46582e-12)
(1.10733 -0.0148547 7.74748e-12)
(1.13011 -0.0161099 1.17121e-11)
(1.15228 -0.0139579 1.28278e-11)
(1.16912 -0.00881368 1.22692e-11)
(1.17698 -0.0017693 1.03259e-11)
(1.17421 0.00560277 7.32546e-12)
(1.16157 0.0117497 4.23811e-12)
(1.1418 0.0156664 1.87031e-12)
(1.11848 0.0171187 4.78552e-13)
(1.09494 0.0164995 -1.11093e-13)
(1.07357 0.0144985 -2.29278e-13)
(1.05572 0.0118019 -1.60858e-13)
(1.04185 0.00892996 -6.99341e-14)
(1.03186 0.00620812 -1.49791e-14)
(1.02538 0.00380909 3.78338e-15)
(1.02188 0.00181154 4.06338e-15)
(1.02077 0.000245521 9.18565e-16)
(1.02148 -0.00088121 1.74573e-15)
(1.02339 -0.00157381 8.23791e-15)
(1.02593 -0.00185231 1.92162e-14)
(1.02857 -0.00175866 3.24236e-14)
(1.03082 -0.00136199 4.52864e-14)
(1.03234 -0.000756687 5.53068e-14)
(1.03292 -5.1998e-05 6.05055e-14)
(1.03249 0.000644123 6.00585e-14)
(1.03115 0.00124155 5.46354e-14)
(1.02909 0.00167953 4.58898e-14)
(1.02656 0.00193056 3.58121e-14)
(1.02382 0.00199728 2.61891e-14)
(1.02113 0.00190507 1.82984e-14)
(1.01866 0.00169296 1.28487e-14)
(1.01655 0.00140527 1.00672e-14)
(1.01488 0.00108487 9.86234e-15)
(1.01365 0.000768504 1.19679e-14)
(1.01284 0.000484298 1.60294e-14)
(1.01238 0.000250864 2.16476e-14)
(1.0122 7.78272e-05 2.83773e-14)
(1.01221 -3.28348e-05 3.57318e-14)
(1.01233 -8.50654e-05 4.32097e-14)
(1.01247 -8.69771e-05 5.03157e-14)
(1.01258 -4.92547e-05 5.66007e-14)
(1.01262 1.62222e-05 6.17075e-14)
(1.01255 9.75419e-05 6.5429e-14)
(1.01236 0.000183732 6.77401e-14)
(1.01206 0.000265514 6.87795e-14)
(1.01165 0.000335818 6.8817e-14)
(1.01115 0.000390025 6.81958e-14)
(1.01059 0.000425952 6.72779e-14)
(1.01 0.000443609 6.6398e-14)
(1.0094 0.000444777 6.58234e-14)
(1.0088 0.000432484 6.57416e-14)
(1.00823 0.000410457 6.62511e-14)
(1.0077 0.000382611 6.73697e-14)
(1.00721 0.000352619 6.90512e-14)
(1.00676 0.000323599 7.11993e-14)
(1.00635 0.000297933 7.3694e-14)
(1.00596 0.000277183 7.64036e-14)
(1.00561 0.000262129 7.9202e-14)
(1.00527 0.000252843 8.19821e-14)
(1.00493 0.000248874 8.46598e-14)
(1.0046 0.000249333 8.71866e-14)
(1.00427 0.000253196 8.95458e-14)
(1.00393 0.0002592 9.1754e-14)
(1.00357 0.000266403 9.38579e-14)
(1.00321 0.000273525 9.59236e-14)
(1.00284 0.000280256 9.80328e-14)
(1.00246 0.000285271 1.00267e-13)
(1.00208 0.000289343 1.02694e-13)
(1.00167 0.000290785 1.05365e-13)
(1.00132 0.000291407 1.0827e-13)
(1.00085 0.00028981 1.11489e-13)
(1.00061 0.000286307 1.14409e-13)
(0.999956 0.000282853 1.19615e-13)
(1.00012 -0.00120656 3.60977e-22)
(1.00183 -0.00362628 5.73868e-21)
(1.00572 -0.00620074 4.99856e-21)
(1.01166 -0.00900417 6.5768e-21)
(1.01999 -0.0120594 -1.03549e-19)
(1.03094 -0.0152611 7.76377e-20)
(1.04461 -0.0183927 -3.18629e-19)
(1.06089 -0.0210189 -1.51808e-18)
(1.07917 -0.02267 1.68433e-18)
(1.09846 -0.0228385 3.69367e-18)
(1.11713 -0.0212419 -6.88714e-18)
(1.13372 -0.0183154 -2.06493e-17)
(1.14737 -0.0143817 -2.20188e-17)
(1.15746 -0.00970475 -8.25132e-18)
(1.16351 -0.00438211 1.00692e-17)
(1.16501 0.00162063 2.19571e-17)
(1.16125 0.00816958 2.61115e-17)
(1.15173 0.0146263 2.44041e-17)
(1.1368 0.0198834 1.96783e-17)
(1.11799 0.0228078 1.29504e-17)
(1.09776 0.0226642 -2.00032e-18)
(1.07898 0.0192503 -4.19244e-17)
(1.06449 0.0128742 -1.20109e-16)
(1.05664 0.00433861 -1.83673e-16)
(1.05697 -0.00507597 -3.48338e-16)
(1.06577 -0.0135489 -2.93171e-15)
(1.08145 -0.0188393 -9.66479e-15)
(1.10015 -0.0189478 -1.29156e-14)
(1.11633 -0.0132461 -7.37095e-15)
(1.12479 -0.00318131 -1.0154e-15)
(1.12271 0.00834916 8.72722e-16)
(1.11044 0.0184502 5.86646e-16)
(1.09059 0.0252999 5.09177e-16)
(1.06664 0.028246 1.16332e-15)
(1.04198 0.0273416 -4.42142e-15)
(1.01965 0.0228621 -1.78344e-14)
(1.00242 0.0150474 5.13766e-14)
(0.992982 0.00415079 3.33709e-13)
(0.994002 -0.00922021 -6.89642e-14)
(1.00763 -0.0234881 -4.7788e-12)
(1.03415 -0.0356631 -1.69676e-11)
(1.07027 -0.041841 -3.14937e-11)
(1.10863 -0.0389356 -3.64944e-11)
(1.13975 -0.0267125 -2.77053e-11)
(1.15583 -0.00845118 -1.38548e-11)
(1.15382 0.0106337 -4.31521e-12)
(1.1359 0.0259795 -2.82075e-13)
(1.10744 0.0353954 5.64238e-13)
(1.0742 0.0389145 4.57307e-13)
(1.04074 0.0375893 3.56316e-13)
(1.01034 0.0323849 -6.56375e-13)
(0.985663 0.0236771 -4.01206e-12)
(0.969406 0.0113612 -2.65516e-12)
(0.964541 -0.00457891 3.45603e-11)
(0.973945 -0.0231642 1.61919e-10)
(0.999416 -0.041648 4.09928e-10)
(1.04017 -0.0555879 7.26688e-10)
(1.09128 -0.0600905 9.8291e-10)
(1.14331 -0.052 1.04698e-09)
(1.18424 -0.0320764 8.79104e-10)
(1.20375 -0.00552954 5.72094e-10)
(1.1978 0.0200611 2.75672e-10)
(1.17041 0.0382302 8.17028e-11)
(1.13098 0.0462246 -2.79662e-12)
(1.08946 0.0450062 -2.12131e-11)
(1.05299 0.0373173 -1.85491e-11)
(1.0254 0.0255933 -9.00071e-12)
(1.00868 0.010926 3.3866e-11)
(1.00502 -0.00659976 1.58014e-10)
(1.01757 -0.0265513 3.86601e-10)
(1.04897 -0.0468294 6.83586e-10)
(1.09843 -0.0634737 9.75137e-10)
(1.15998 -0.0720091 1.20432e-09)
(1.22364 -0.0695219 1.36117e-09)
(1.27832 -0.0560778 1.47141e-09)
(1.31514 -0.0346393 1.56146e-09)
(1.32974 -0.00958749 1.61796e-09)
(1.32249 0.0150261 1.57793e-09)
(1.2969 0.0361922 1.38131e-09)
(1.25782 0.0514723 1.03133e-09)
(1.21091 0.058579 6.14624e-10)
(1.1629 0.0562041 2.52793e-10)
(1.12094 0.0452801 2.55725e-11)
(1.09076 0.0289426 -6.44518e-11)
(1.07524 0.011066 -6.61287e-11)
(1.07433 -0.00519385 -3.23087e-11)
(1.08579 -0.0178198 7.05288e-12)
(1.1061 -0.0255995 4.23936e-11)
(1.13084 -0.0277654 6.99024e-11)
(1.15501 -0.0240715 8.41778e-11)
(1.17354 -0.0152125 8.1744e-11)
(1.18234 -0.00308038 6.55455e-11)
(1.17951 0.00959006 4.33442e-11)
(1.16592 0.0201017 2.30887e-11)
(1.14468 0.026723 9.1192e-12)
(1.11985 0.0290834 1.73837e-12)
(1.09511 0.0279051 -9.81812e-13)
(1.073 0.0244068 -1.29868e-12)
(1.0548 0.0197754 -8.1256e-13)
(1.04088 0.014892 -3.15801e-13)
(1.03105 0.0102943 -3.86483e-14)
(1.02482 0.00625973 5.22787e-14)
(1.02162 0.00290972 5.39099e-14)
(1.02085 0.000288483 3.94189e-14)
(1.02189 -0.0015935 4.24885e-14)
(1.02412 -0.00274474 6.94344e-14)
(1.02696 -0.0031976 1.13302e-13)
(1.02985 -0.00302161 1.62827e-13)
(1.03228 -0.00233326 2.06742e-13)
(1.03391 -0.00129309 2.35913e-13)
(1.0345 -8.75955e-05 2.44853e-13)
(1.03402 0.00109896 2.33206e-13)
(1.03257 0.00211323 2.05771e-13)
(1.03037 0.0028527 1.69821e-13)
(1.0277 0.00327207 1.32562e-13)
(1.02483 0.00337752 9.95105e-14)
(1.02202 0.00321364 7.39554e-14)
(1.01948 0.00284783 5.7194e-14)
(1.01734 0.00235591 4.91408e-14)
(1.01565 0.00181076 4.89495e-14)
(1.01444 0.00127457 5.54565e-14)
(1.01366 0.000794615 6.73983e-14)
(1.01325 0.000401927 8.3458e-14)
(1.01312 0.000112266 1.02238e-13)
(1.01317 -7.15088e-05 1.22265e-13)
(1.01333 -0.000156469 1.4207e-13)
(1.0135 -0.000156627 1.60266e-13)
(1.01364 -9.0235e-05 1.75652e-13)
(1.01369 2.25192e-05 1.87348e-13)
(1.01362 0.00016146 1.94937e-13)
(1.01343 0.000308045 1.9852e-13)
(1.01312 0.00044664 1.98646e-13)
(1.01269 0.000565368 1.96175e-13)
(1.01218 0.000656523 1.92114e-13)
(1.0116 0.000716531 1.87467e-13)
(1.011 0.000745527 1.83111e-13)
(1.01038 0.000746634 1.79716e-13)
(1.00977 0.000725064 1.77714e-13)
(1.00919 0.00068719 1.77299e-13)
(1.00866 0.000639668 1.7846e-13)
(1.00816 0.000588724 1.81026e-13)
(1.00771 0.000539623 1.84717e-13)
(1.0073 0.000496362 1.89198e-13)
(1.00692 0.000461544 1.94124e-13)
(1.00656 0.000436443 1.99177e-13)
(1.00622 0.000421139 2.04097e-13)
(1.00589 0.000414829 2.08699e-13)
(1.00556 0.000415982 2.12886e-13)
(1.00522 0.000422841 2.16645e-13)
(1.00488 0.000433265 2.20044e-13)
(1.00452 0.000445649 2.23216e-13)
(1.00415 0.000457844 2.26339e-13)
(1.00378 0.000469329 2.29613e-13)
(1.00339 0.000477875 2.33229e-13)
(1.00301 0.000484824 2.37345e-13)
(1.00259 0.000487277 2.42066e-13)
(1.00224 0.000488467 2.47375e-13)
(1.00175 0.000485705 2.53389e-13)
(1.00152 0.000480128 2.58947e-13)
(1.00085 0.000473952 2.68818e-13)
(1.00012 -0.00167477 -3.868e-20)
(1.00178 -0.00503478 -5.8476e-19)
(1.00557 -0.00862383 -1.08845e-18)
(1.0114 -0.0125567 -1.90302e-18)
(1.01965 -0.0168769 -2.6313e-18)
(1.03062 -0.0214463 -1.9263e-18)
(1.04453 -0.0259651 -9.8266e-18)
(1.0613 -0.0297966 1.29012e-18)
(1.08037 -0.0322521 2.04095e-17)
(1.10068 -0.0325339 -4.2542e-17)
(1.1203 -0.0302097 -1.11461e-16)
(1.1376 -0.026003 -4.04846e-18)
(1.15177 -0.0204085 1.98141e-16)
(1.16226 -0.0138227 2.58493e-16)
(1.1687 -0.00635753 1.53531e-16)
(1.17056 0.00211677 1.99174e-17)
(1.16693 0.0114925 -9.04721e-17)
(1.15702 0.0208617 -1.7087e-16)
(1.141 0.0285622 -2.33269e-16)
(1.12053 0.0328902 -3.02968e-16)
(1.09837 0.0327589 -4.34704e-16)
(1.07772 0.027874 -6.70208e-16)
(1.0617 0.0186687 -8.5172e-16)
(1.05297 0.0062666 -1.65371e-15)
(1.05338 -0.0075292 -5.14271e-15)
(1.06349 -0.0200888 1.2237e-14)
(1.08177 -0.0280551 8.92741e-14)
(1.10385 -0.0283311 1.50649e-13)
(1.12312 -0.0198878 1.18709e-13)
(1.13327 -0.00492701 5.40402e-14)
(1.13106 0.0121125 1.57027e-14)
(1.11721 0.0268702 2.25217e-15)
(1.09506 0.0367278 2.08659e-15)
(1.06867 0.0408781 1.51949e-15)
(1.04174 0.0395333 -3.05343e-14)
(1.01735 0.0331555 -2.33574e-14)
(0.998266 0.0220618 3.72752e-13)
(0.987285 0.00649172 7.06991e-13)
(0.987511 -0.0128751 -3.15641e-12)
(1.00192 -0.0339022 -1.63105e-11)
(1.03152 -0.0521477 -3.46895e-11)
(1.07287 -0.0615651 -5.03848e-11)
(1.11711 -0.0573272 -5.97662e-11)
(1.15261 -0.0390955 -5.51893e-11)
(1.17009 -0.0119618 -3.57792e-11)
(1.16647 0.0161087 -1.57751e-11)
(1.14507 0.0383016 -3.34617e-12)
(1.11268 0.0515536 1.27298e-12)
(1.076 0.0562119 1.9015e-12)
(1.03986 0.0540564 1.03409e-12)
(1.00734 0.0465806 -3.9165e-12)
(0.980783 0.0343072 -1.18769e-11)
(0.962482 0.017059 1.25973e-11)
(0.95491 -0.00522191 1.61345e-10)
(0.961038 -0.0313565 5.25216e-10)
(0.983977 -0.0578651 1.07653e-09)
(1.02455 -0.0787113 1.65649e-09)
(1.07826 -0.0867029 2.0892e-09)
(1.13502 -0.0766149 2.24253e-09)
(1.18195 -0.0486365 2.02704e-09)
(1.2072 -0.00983219 1.48043e-09)
(1.2045 0.0283405 8.24304e-10)
(1.17665 0.0555783 3.07394e-10)
(1.13394 0.0673765 3.28322e-11)
(1.08839 0.0653182 -5.28541e-11)
(1.0486 0.0539273 -5.209e-11)
(1.01856 0.0371247 -1.26375e-11)
(0.999893 0.0163916 9.73913e-11)
(0.995251 -0.0086929 3.27254e-10)
(1.00927 -0.0379594 6.56419e-10)
(1.04547 -0.0681598 9.8726e-10)
(1.102 -0.0928082 1.22867e-09)
(1.17058 -0.104859 1.36073e-09)
(1.2392 -0.10013 1.4215e-09)
(1.29584 -0.0791552 1.467e-09)
(1.33135 -0.0468149 1.54736e-09)
(1.34152 -0.0100952 1.67257e-09)
(1.32771 0.0247504 1.7675e-09)
(1.29533 0.0535905 1.69855e-09)
(1.25114 0.0736865 1.38627e-09)
(1.20157 0.0825685 8.98236e-10)
(1.15285 0.0786979 4.08907e-10)
(1.11123 0.0632178 6.75728e-11)
(1.08183 0.0402187 -8.639e-11)
(1.06734 0.0149521 -1.01041e-10)
(1.06766 -0.00815738 -4.06768e-11)
(1.08045 -0.0261934 5.61608e-11)
(1.10212 -0.0373808 1.68658e-10)
(1.12853 -0.0405763 2.70342e-10)
(1.15496 -0.0353198 3.27156e-10)
(1.17616 -0.0224776 3.18374e-10)
(1.18723 -0.00474297 2.53972e-10)
(1.18542 0.0138278 1.66533e-10)
(1.17129 0.0291748 8.75958e-11)
(1.14838 0.0386978 3.38076e-11)
(1.12151 0.0418934 5.89232e-12)
(1.09503 0.0399212 -4.06293e-12)
(1.07179 0.0346533 -4.9959e-12)
(1.05309 0.0278582 -3.04971e-12)
(1.03916 0.0208059 -1.15495e-12)
(1.02961 0.0142393 -1.10735e-13)
(1.02383 0.00852074 2.36749e-13)
(1.02115 0.00379676 2.52547e-13)
(1.02091 0.000114318 2.05965e-13)
(1.02249 -0.00251833 2.20514e-13)
(1.02523 -0.00411353 3.18505e-13)
(1.02853 -0.00471472 4.71999e-13)
(1.0318 -0.0044185 6.36783e-13)
(1.0345 -0.00339097 7.70918e-13)
(1.03627 -0.00186404 8.44591e-13)
(1.03688 -0.000108475 8.45079e-13)
(1.0363 0.00160837 7.78863e-13)
(1.03468 0.00306542 6.67927e-13)
(1.03225 0.0041171 5.38935e-13)
(1.02935 0.00470187 4.14848e-13)
(1.02628 0.00483291 3.10881e-13)
(1.02331 0.00457814 2.34272e-13)
(1.02066 0.00403717 1.8623e-13)
(1.01846 0.00332044 1.6443e-13)
(1.01677 0.00253302 1.65052e-13)
(1.01558 0.00176375 1.83974e-13)
(1.01486 0.00107944 2.17192e-13)
(1.01452 0.00052333 2.60774e-13)
(1.01446 0.000116646 3.10682e-13)
(1.01459 -0.000137728 3.62772e-13)
(1.01481 -0.000250883 4.13029e-13)
(1.01504 -0.000243559 4.57761e-13)
(1.01521 -0.000142305 4.93925e-13)
(1.01527 2.37832e-05 5.1947e-13)
(1.01521 0.000225784 5.33657e-13)
(1.01501 0.000437237 5.37148e-13)
(1.01468 0.000635929 5.31735e-13)
(1.01423 0.0008051 5.19929e-13)
(1.01369 0.000934002 5.04505e-13)
(1.01309 0.00101783 4.88098e-13)
(1.01246 0.00105706 4.72915e-13)
(1.01182 0.00105645 4.60561e-13)
(1.01119 0.00102367 4.51998e-13)
(1.01061 0.000967981 4.47579e-13)
(1.01006 0.000898997 4.4715e-13)
(1.00956 0.000825639 4.50181e-13)
(1.00911 0.000755401 4.55903e-13)
(1.0087 0.000693922 4.63441e-13)
(1.00832 0.000644819 4.71928e-13)
(1.00797 0.000609804 4.80591e-13)
(1.00763 0.000588882 4.88822e-13)
(1.0073 0.000580814 4.96214e-13)
(1.00697 0.000583339 5.0258e-13)
(1.00663 0.000593896 5.07946e-13)
(1.00628 0.000609398 5.12518e-13)
(1.00592 0.00062755 5.16649e-13)
(1.00554 0.00064528 5.2078e-13)
(1.00516 0.000661903 5.25384e-13)
(1.00476 0.000674178 5.30905e-13)
(1.00437 0.000684269 5.37688e-13)
(1.00394 0.000687625 5.45953e-13)
(1.00358 0.000689804 5.55654e-13)
(1.00308 0.000685267 5.6695e-13)
(1.00284 0.000678676 5.77598e-13)
(1.00216 0.000668371 5.96511e-13)
(1.00011 -0.00212709 -2.93175e-18)
(1.00171 -0.00639689 -9.2265e-18)
(1.00535 -0.0109822 -8.08971e-18)
(1.01101 -0.0160494 -1.12442e-17)
(1.01913 -0.0216753 -6.18438e-18)
(1.0301 -0.0277003 -2.05099e-17)
(1.04429 -0.0337475 -1.82127e-17)
(1.06172 -0.0389517 7.96942e-17)
(1.08188 -0.0423738 -1.28683e-16)
(1.10362 -0.0428173 -2.98103e-16)
(1.12458 -0.0396579 3.78721e-16)
(1.14281 -0.0340461 1.49669e-15)
(1.15765 -0.0266932 2.04559e-15)
(1.16864 -0.0181567 1.4407e-15)
(1.17559 -0.00852978 6.79983e-17)
(1.178 0.00250702 -1.15371e-15)
(1.17464 0.0149565 -1.99465e-15)
(1.16423 0.0276194 -2.45559e-15)
(1.14674 0.0381444 -2.6585e-15)
(1.12398 0.0441241 -2.82035e-15)
(1.09915 0.0440635 -3.19461e-15)
(1.07589 0.0375795 -3.34012e-15)
(1.05773 0.0252436 -1.42965e-15)
(1.04771 0.00850112 -9.46458e-15)
(1.04813 -0.0103343 -2.34878e-14)
(1.06001 -0.0277537 3.14857e-13)
(1.08195 -0.0390374 1.38176e-12)
(1.10889 -0.03964 2.18568e-12)
(1.13261 -0.0279479 1.66966e-12)
(1.14515 -0.00712137 6.6199e-13)
(1.14268 0.016407 1.2875e-13)
(1.1265 0.0364621 -1.31555e-14)
(1.10106 0.049568 -1.15101e-14)
(1.07129 0.0549001 -2.68344e-14)
(1.04128 0.0529952 -7.32404e-14)
(1.01413 0.0445962 3.03339e-13)
(0.992515 0.0300829 7.61041e-13)
(0.979363 0.00953683 -3.50982e-12)
(0.978382 -0.0165198 -1.1796e-11)
(0.99342 -0.0454794 1.98776e-11)
(1.02615 -0.0711428 1.55557e-10)
(1.07351 -0.0846581 3.43083e-10)
(1.12596 -0.0788272 4.09854e-10)
(1.16892 -0.053184 2.93561e-10)
(1.18963 -0.0153332 1.2277e-10)
(1.18415 0.0231884 1.81572e-11)
(1.15766 0.0528904 -1.09772e-11)
(1.11953 0.0699184 -6.65176e-12)
(1.07805 0.0753101 7.97828e-13)
(1.03836 0.0719129 5.86959e-13)
(1.00318 0.0619189 -1.2268e-11)
(0.974154 0.046106 -1.62318e-11)
(0.952584 0.0243072 8.79553e-11)
(0.940455 -0.00383527 4.47902e-10)
(0.942304 -0.0376733 1.08355e-09)
(0.964229 -0.073401 1.78766e-09)
(1.00805 -0.102759 2.32566e-09)
(1.06707 -0.115366 2.65631e-09)
(1.12853 -0.103856 2.84287e-09)
(1.179 -0.0681228 2.81309e-09)
(1.20764 -0.0167338 2.38335e-09)
(1.20793 0.0353856 1.58266e-09)
(1.18078 0.0735049 7.42131e-10)
(1.13579 0.090325 1.71683e-10)
(1.08626 0.0876532 -7.08578e-11)
(1.04251 0.0722215 -1.01403e-10)
(1.0092 0.0499454 -1.26933e-11)
(0.988262 0.0225888 1.95972e-10)
(0.983632 -0.0112678 5.24991e-10)
(1.0015 -0.0516403 8.83833e-10)
(1.04491 -0.093193 1.14782e-09)
(1.10932 -0.126057 1.27193e-09)
(1.18372 -0.140661 1.30319e-09)
(1.25507 -0.132199 1.30871e-09)
(1.3117 -0.102171 1.32901e-09)
(1.34515 -0.0574646 1.39392e-09)
(1.35129 -0.00773145 1.53499e-09)
(1.33141 0.0381459 1.72146e-09)
(1.29196 0.0744719 1.80211e-09)
(1.24163 0.0983332 1.6092e-09)
(1.18831 0.107697 1.1374e-09)
(1.13839 0.101348 5.71514e-10)
(1.0973 0.0807796 1.27189e-10)
(1.06928 0.0508874 -9.78988e-11)
(1.05634 0.0181601 -1.24433e-10)
(1.05772 -0.0117356 -8.40082e-12)
(1.0706 -0.0350453 2.0384e-10)
(1.09167 -0.0496453 4.61012e-10)
(1.11787 -0.0542012 6.92279e-10)
(1.14575 -0.0479049 8.23246e-10)
(1.17044 -0.0313563 8.09292e-10)
(1.18601 -0.00770687 6.63135e-10)
(1.18787 0.0175685 4.50379e-10)
(1.17532 0.0386252 2.46772e-10)
(1.15183 0.0516068 1.00439e-10)
(1.12313 0.0557487 2.04604e-11)
(1.09466 0.0527612 -1.00224e-11)
(1.06998 0.0453715 -1.4117e-11)
(1.05062 0.0360865 -9.07011e-12)
(1.03667 0.026633 -3.63594e-12)
(1.02753 0.0179607 -4.63873e-13)
(1.02238 0.0104907 6.98865e-13)
(1.02043 0.00436678 8.48618e-13)
(1.02095 -0.000380242 7.74738e-13)
(1.02326 -0.00375288 8.62106e-13)
(1.0267 -0.00576838 1.18999e-12)
(1.03062 -0.00647889 1.67244e-12)
(1.0344 -0.00600684 2.16462e-12)
(1.03747 -0.00457064 2.53103e-12)
(1.03943 -0.00248112 2.68512e-12)
(1.04005 -0.000103697 2.60499e-12)
(1.03933 0.00220116 2.33134e-12)
(1.03746 0.00413799 1.94551e-12)
(1.03472 0.00551629 1.53273e-12)
(1.0315 0.00626082 1.15821e-12)
(1.02815 0.006397 8.5904e-13)
(1.02496 0.00602229 6.47707e-13)
(1.02216 0.00527428 5.20543e-13)
(1.01989 0.00430258 4.66093e-13)
(1.0182 0.00324755 4.70891e-13)
(1.01706 0.00222634 5.22233e-13)
(1.01642 0.00132578 6.08697e-13)
(1.01618 0.000600804 7.19554e-13)
(1.01623 7.70942e-05 8.4406e-13)
(1.01645 -0.00024375 9.7147e-13)
(1.01675 -0.000378167 1.09153e-12)
(1.01704 -0.000354842 1.19508e-12)
(1.01726 -0.000209652 1.2749e-12)
(1.01735 1.85448e-05 1.32659e-12)
(1.01729 0.000291413 1.34916e-12)
(1.01708 0.000574084 1.34514e-12)
(1.01672 0.00083748 1.31972e-12)
(1.01624 0.00105985 1.27961e-12)
(1.01567 0.0012275 1.2319e-12)
(1.01503 0.00133462 1.18305e-12)
(1.01436 0.0013824 1.13829e-12)
(1.01369 0.00137759 1.10122e-12)
(1.01305 0.00133074 1.07385e-12)
(1.01244 0.00125439 1.05671e-12)
(1.01189 0.00116138 1.04917e-12)
(1.01138 0.00106353 1.04977e-12)
(1.01093 0.000970686 1.05656e-12)
(1.01052 0.000890143 1.06741e-12)
(1.01015 0.000826497 1.08025e-12)
(1.0098 0.000781803 1.09333e-12)
(1.00946 0.000755876 1.1053e-12)
(1.00913 0.00074691 1.1153e-12)
(1.0088 0.000751791 1.12302e-12)
(1.00846 0.000767048 1.12859e-12)
(1.0081 0.000788561 1.13258e-12)
(1.00773 0.000813297 1.13583e-12)
(1.00735 0.000837201 1.13937e-12)
(1.00695 0.000859474 1.14424e-12)
(1.00654 0.000875747 1.15142e-12)
(1.00614 0.0008893 1.16161e-12)
(1.0057 0.000893424 1.17523e-12)
(1.00532 0.000897098 1.19218e-12)
(1.00481 0.000890011 1.2126e-12)
(1.00456 0.000883762 1.23227e-12)
(1.00386 0.000867376 1.26731e-12)
(1.00011 -0.00255709 2.70766e-18)
(1.00161 -0.00769353 9.45509e-18)
(1.00504 -0.0132471 8.23452e-18)
(1.01045 -0.0194503 8.275e-18)
(1.01837 -0.0264306 3.67462e-17)
(1.0293 -0.0340254 -9.99041e-17)
(1.04378 -0.0417917 3.22291e-16)
(1.06203 -0.0486034 -2.32735e-16)
(1.08361 -0.0532302 -1.24857e-15)
(1.1073 -0.0539014 2.34673e-15)
(1.13 -0.0497397 5.58632e-15)
(1.1494 -0.0425412 -5.76104e-18)
(1.16502 -0.0333032 -9.05728e-15)
(1.17661 -0.0227985 -9.26173e-15)
(1.18424 -0.0110613 -2.25026e-15)
(1.18745 0.00257113 2.40366e-15)
(1.18457 0.0183719 2.99646e-15)
(1.17362 0.0348284 1.21953e-15)
(1.1542 0.0486998 -1.02584e-15)
(1.12841 0.056682 -2.76396e-15)
(1.10002 0.0567979 -3.24962e-15)
(1.07329 0.0485813 2.54288e-15)
(1.05226 0.032754 1.21403e-14)
(1.04045 0.0110689 9.25805e-16)
(1.04073 -0.0136735 2.54059e-13)
(1.05483 -0.0370096 1.17675e-12)
(1.08167 -0.0525182 1.7528e-12)
(1.11527 -0.0536805 1.93456e-12)
(1.14515 -0.0380107 1.82691e-12)
(1.16096 -0.00992694 8.85546e-13)
(1.15801 0.0214737 1.76146e-13)
(1.13854 0.0476932 -6.45638e-14)
(1.10864 0.0643288 -7.7269e-14)
(1.07446 0.0707617 -1.48652e-13)
(1.04053 0.0681097 2.01376e-13)
(1.00989 0.0575376 1.50379e-12)
(0.985051 0.0394496 -3.4298e-12)
(0.969097 0.0135686 -2.24101e-11)
(0.965997 -0.0198806 1.52875e-11)
(0.979281 -0.0577623 3.25093e-10)
(1.01093 -0.0921895 1.03883e-09)
(1.06066 -0.111506 1.87082e-09)
(1.12186 -0.105095 2.24913e-09)
(1.17788 -0.0709565 1.87278e-09)
(1.20875 -0.0195519 1.05943e-09)
(1.20526 0.0321312 3.69729e-10)
(1.17377 0.0706219 3.49638e-11)
(1.1282 0.0913447 -3.99804e-11)
(1.08029 0.096784 -2.22179e-11)
(1.03613 0.0914866 -9.97131e-12)
(0.997815 0.0786811 -2.45673e-11)
(0.965569 0.0596055 7.89283e-12)
(0.939348 0.0339162 2.65638e-10)
(0.921986 -6.48596e-05 8.62208e-10)
(0.921869 -0.0432271 1.61087e-09)
(0.947889 -0.0907405 2.14929e-09)
(0.999786 -0.130164 2.33958e-09)
(1.0663 -0.146989 2.36798e-09)
(1.13166 -0.132608 2.48929e-09)
(1.18226 -0.0881713 2.71712e-09)
(1.20947 -0.0242285 2.72139e-09)
(1.209 0.0418366 2.18607e-09)
(1.18148 0.0916504 1.27017e-09)
(1.13487 0.114605 4.35229e-10)
(1.08212 0.111929 -3.1233e-11)
(1.03445 0.0924453 -1.41645e-10)
(0.997509 0.0642491 -3.77677e-12)
(0.974534 0.0291882 3.09954e-10)
(0.971378 -0.0152863 7.02869e-10)
(0.994825 -0.0685759 1.02515e-09)
(1.0456 -0.122071 1.18303e-09)
(1.11571 -0.162253 1.21147e-09)
(1.19237 -0.1778 1.20808e-09)
(1.26289 -0.164182 1.23544e-09)
(1.31703 -0.124228 1.29326e-09)
(1.34754 -0.0665989 1.3667e-09)
(1.35055 -0.00319871 1.48352e-09)
(1.32675 0.0544195 1.66736e-09)
(1.28237 0.0984601 1.81394e-09)
(1.2271 0.125482 1.72042e-09)
(1.1704 0.134156 1.29999e-09)
(1.11941 0.124175 7.03595e-10)
(1.07926 0.0977595 1.83949e-10)
(1.05317 0.0607017 -9.7596e-11)