/*--------------------------------*- C++ -*----------------------------------*\
  =========                 |
  \\      /  F ield         | OpenFOAM: The Open Source CFD Toolbox
   \\    /   O peration     | Website:  https://openfoam.org
    \\  /    A nd           | Version:  11
     \\/     M anipulation  |
\*---------------------------------------------------------------------------*/
FoamFile
{
    format      ascii;
    class       surfaceScalarField;
    location    "13.357126";
    object      phi;
}
// * * * * * * * * * * * * * * * * * * * * * * * * * * * * * * * * * * * * * //

dimensions      [0 3 -1 0 0 0 0];

internalField   nonuniform List<scalar> 
14638
(
0.00250241
-2.40506e-06
0.00250988
-7.47413e-06
0.00252287
-1.29874e-05
0.00254174
-1.88686e-05
0.00256662
-2.48848e-05
0.00259716
-3.05406e-05
0.0026323
-3.51426e-05
0.00266996
-3.76617e-05
0.00270705
-3.70848e-05
0.00273958
-3.25256e-05
0.00276332
-2.37431e-05
0.00277536
-1.2041e-05
0.00277459
7.72863e-07
0.00276181
1.27727e-05
0.00274041
2.14061e-05
0.0027158
2.46039e-05
0.00269419
2.16149e-05
0.00268098
1.32075e-05
0.00267938
1.60424e-06
0.00268927
-9.89024e-06
0.0027067
-1.74302e-05
0.00272443
-1.77358e-05
0.00273422
-9.79064e-06
0.00272994
4.28522e-06
0.00270964
2.02972e-05
0.00267559
3.40481e-05
0.00263289
4.27036e-05
0.00258797
4.49192e-05
0.00254761
4.03594e-05
0.00251836
2.92484e-05
0.00250605
1.23145e-05
0.00251488
-8.8327e-06
0.00254586
-3.09746e-05
0.00259476
-4.89062e-05
0.00265143
-5.6671e-05
0.00270192
-5.04878e-05
0.00273332
-3.13964e-05
0.00273846
-5.14577e-06
0.00271768
2.07804e-05
0.00267714
4.05432e-05
0.00262569
5.14448e-05
0.00257244
5.32549e-05
0.00252567
4.67679e-05
0.00249288
3.27964e-05
0.00248075
1.21255e-05
0.00249435
-1.35974e-05
0.00253486
-4.05114e-05
0.00259697
-6.21101e-05
0.00266805
-7.10826e-05
0.00273103
-6.2983e-05
0.00277025
-3.92147e-05
0.00277707
-6.82464e-06
0.00275217
2.49029e-05
0.00270361
4.85595e-05
0.00264277
6.08367e-05
0.00258081
6.1963e-05
0.0025271
5.37093e-05
0.00248943
3.76753e-05
0.00247453
1.48973e-05
0.00248763
-1.30987e-05
0.00253025
-4.26237e-05
0.00259749
-6.72336e-05
0.00267688
-7.93912e-05
0.00275073
-7.38545e-05
0.00280144
-5.07091e-05
0.00281739
-1.59511e-05
0.00279651
2.08779e-05
0.00274594
5.05781e-05
0.00267833
6.76097e-05
0.00260728
7.10418e-05
0.00254421
6.3072e-05
0.00249767
4.65463e-05
0.00247428
2.33818e-05
0.00247927
-4.98877e-06
0.00251502
-3.57464e-05
0.00257851
-6.34943e-05
0.0026598
-8.12845e-05
0.00274323
-8.3431e-05
0.00281142
-6.81905e-05
0.00285008
-3.86586e-05
0.00285173
-1.65013e-06
0.00281723
3.44995e-05
0.00275489
6.23402e-05
0.00267765
7.72424e-05
0.0025994
7.82442e-05
0.0025321
6.72997e-05
0.00248482
4.72784e-05
0.00246437
2.04492e-05
0.0024754
-1.10303e-05
0.00251878
-4.3371e-05
0.00258934
-7.05686e-05
0.00267544
-8.60928e-05
0.00276114
-8.57032e-05
0.0028305
-6.93602e-05
0.00287165
-4.11464e-05
0.00287919
-7.53979e-06
0.00285444
2.47492e-05
0.00280407
5.03705e-05
0.00273812
6.59516e-05
0.00266811
7.00042e-05
0.00260554
6.25689e-05
0.00256079
4.47529e-05
0.00254228
1.85076e-05
0.0025552
-1.29205e-05
0.0025996
-4.43984e-05
0.00266908
-6.94772e-05
0.0027515
-8.24182e-05
0.00283198
-8.04833e-05
0.00289698
-6.49968e-05
0.00293769
-4.07131e-05
0.00295174
-1.40548e-05
0.00294286
8.88779e-06
0.00291895
2.39059e-05
0.00288962
2.93352e-05
0.00286389
2.57203e-05
0.00284905
1.4842e-05
0.00285027
-1.21942e-06
0.00287066
-2.0383e-05
0.00291091
-4.02523e-05
0.00296867
-5.77644e-05
0.00303805
-6.93752e-05
0.00310994
-7.18919e-05
0.00317348
-6.35443e-05
0.00321821
-4.47277e-05
0.0032363
-1.80865e-05
0.00322422
1.20826e-05
0.00318338
4.08311e-05
0.00311966
6.37264e-05
0.00304187
7.7786e-05
0.00295998
8.18876e-05
0.00288334
7.66457e-05
0.00281937
6.39726e-05
0.00277283
4.65362e-05
0.00274565
2.71806e-05
0.00273727
8.37862e-06
0.00274537
-8.09885e-06
0.00276654
-2.11678e-05
0.00279673
-3.01961e-05
0.00283151
-3.47735e-05
0.00286616
-3.46521e-05
0.00289599
-2.98355e-05
0.00291669
-2.06935e-05
0.00292469
-8.00581e-06
0.00291764
7.05351e-06
0.00289471
2.29305e-05
0.00285699
3.77188e-05
0.00280768
4.93069e-05
0.00275191
5.57734e-05
0.00269592
5.59926e-05
0.0026458
5.01221e-05
0.00260613
3.96673e-05
0.00257918
2.69499e-05
0.00256476
1.44165e-05
0.00256091
3.85675e-06
0.00256453
-3.62787e-06
0.00257256
-8.02768e-06
0.00258195
-9.39058e-06
0.00259073
-8.77549e-06
0.00259734
-6.61297e-06
-2.03449e-06
0.00250239
-4.79352e-06
0.00250982
-1.49075e-05
0.00252277
-2.59322e-05
0.00254163
-3.77349e-05
0.00256661
-4.98636e-05
0.00259741
-6.13369e-05
0.00263303
-7.07673e-05
0.00267142
-7.60474e-05
0.00270942
-7.50905e-05
0.00274289
-6.59884e-05
0.00276732
-4.81772e-05
0.00277966
-2.43749e-05
0.00277868
1.74682e-06
0.00276514
2.63128e-05
0.0027425
4.40432e-05
0.00271648
5.06273e-05
0.00269361
4.44889e-05
0.00267964
2.71737e-05
0.00267804
3.20324e-06
0.00268881
-2.06638e-05
0.00270785
-3.64609e-05
0.00272741
-3.72988e-05
0.00273861
-2.09945e-05
0.00273488
8.01871e-06
0.00271421
4.09675e-05
0.00267909
6.91652e-05
0.00263492
8.68708e-05
0.00258838
9.14632e-05
0.00254639
8.2348e-05
0.00251567
5.99722e-05
0.00250229
2.56885e-05
0.00251089
-1.74304e-05
0.00254287
-6.29532e-05
0.0025941
-0.00010014
0.00265391
-0.000116473
0.00270732
-0.000103905
0.00274049
-6.45588e-05
0.00274583
-1.04903e-05
0.00272392
4.26853e-05
0.00268151
8.2955e-05
0.00262797
0.000104989
0.00257265
0.000108577
0.00252392
9.54943e-05
0.00248937
6.73501e-05
0.002476
2.54949e-05
0.00248943
-2.70344e-05
0.00253141
-8.24865e-05
0.00259662
-0.000127324
0.00267167
-0.000146126
0.00273817
-0.000129484
0.00277933
-8.03798e-05
0.00278614
-1.36276e-05
0.0027596
5.14397e-05
0.00270857
9.95902e-05
0.00264514
0.000124269
0.00258081
0.000126285
0.00252501
0.000109514
0.00248542
7.72632e-05
0.00246887
3.14481e-05
0.00248094
-2.5171e-05
0.00252371
-8.53893e-05
0.00259264
-0.000136164
0.00267516
-0.000161911
0.00275281
-0.000151502
0.00280682
-0.000104718
0.00282457
-3.37054e-05
0.00280361
4.18363e-05
0.0027514
0.000102792
0.00268134
0.000137668
0.00260772
0.000144665
0.00254224
0.00012855
0.00249346
9.53254e-05
0.00246807
4.87728e-05
0.00247167
-8.58694e-06
0.00250724
-7.13208e-05
0.00257208
-0.000128333
0.00265586
-0.000165064
0.00274208
-0.000169647
0.00281253
-0.000138642
0.00285255
-7.8676e-05
0.00285467
-3.7771e-06
0.00281993
6.92371e-05
0.0027568
0.000125478
0.00267831
0.000155728
0.00259847
0.000158083
0.00252936
0.000136409
0.00248037
9.6276e-05
0.00245887
4.19452e-05
0.00247024
-2.24019e-05
0.00251572
-8.88533e-05
0.0025898
-0.000144646
0.00267973
-0.000176026
0.00276836
-0.000174332
0.00283889
-0.00013989
0.00287934
-8.15901e-05
0.00288483
-1.30363e-05
0.00285751
5.20694e-05
0.00280475
0.00010313
0.00273696
0.000133741
0.00266569
0.000141276
0.00260234
0.000125924
0.0025574
8.96858e-05
0.00253978
3.61336e-05
0.00255515
-2.82901e-05
0.00260359
-9.28437e-05
0.00267799
-0.000143872
0.00276497
-0.000169399
0.0028485
-0.000164013
0.00291436
-0.000130858
0.00295372
-8.00683e-05
0.00296464
-2.49837e-05
0.00295156
2.19688e-05
0.00292312
5.23466e-05
0.00288952
6.29338e-05
0.00286024
5.49997e-05
0.00284283
3.22553e-05
0.0028427
-1.09246e-06
0.00286322
-4.09026e-05
0.0029053
-8.23261e-05
0.00296652
-0.00011899
0.00304055
-0.000143404
0.00311748
-0.000148824
0.00318552
-0.000131578
0.00323341
-9.26181e-05
0.00325292
-3.76033e-05
0.00324053
2.44808e-05
0.00319792
8.34404e-05
0.00313143
0.000130211
0.00305047
0.000158752
0.00296547
0.000166888
0.00288609
0.000156019
0.0028199
0.000130165
0.00277163
9.48068e-05
0.00274313
5.56858e-05
0.00273379
1.77151e-05
0.00274131
-1.56234e-05
0.00276233
-4.21796e-05
0.00279277
-6.06372e-05
0.00282807
-7.00814e-05
0.00286336
-6.99369e-05
0.00289372
-6.01971e-05
0.00291469
-4.16673e-05
0.00292271
-1.6023e-05
0.00291548
1.42822e-05
0.00289233
4.60862e-05
0.00285446
7.55848e-05
0.00280516
9.86119e-05
0.00274953
0.000111396
0.00269379
0.000111736
0.00264396
9.99549e-05
0.00260459
7.90356e-05
0.00257796
5.35819e-05
0.00256391
2.84642e-05
0.0025605
7.26982e-06
0.00256463
-7.76519e-06
0.0025732
-1.65964e-05
0.00258309
-1.92801e-05
0.0025923
-1.79878e-05
0.0025992
-1.35071e-05
-4.22496e-06
0.00250235
-7.1483e-06
0.0025097
-2.22537e-05
0.00252255
-3.87861e-05
0.00254141
-5.65863e-05
0.00256656
-7.50157e-05
0.00259785
-9.26281e-05
0.00263443
-0.000107343
0.00267426
-0.000115879
0.00271412
-0.000114955
0.00274948
-0.000101347
0.0027753
-7.39973e-05
0.00278821
-3.72843e-05
0.00278682
3.13908e-06
0.00277172
4.14083e-05
0.00274661
6.91539e-05
0.00271777
7.94695e-05
0.00269245
6.98124e-05
0.00267708
4.25341e-05
0.00267566
4.62476e-06
0.00268838
-3.33809e-05
0.00271075
-5.88349e-05
0.00273401
-6.05524e-05
0.0027479
-3.48892e-05
0.00274496
1.09587e-05
0.00272315
6.27846e-05
0.00268552
0.000106791
0.00263818
0.000134211
0.00258831
0.000141331
0.00254317
0.000127493
0.00250975
9.33895e-05
0.00249463
4.08073e-05
0.0025032
-2.59981e-05
0.00253765
-9.74001e-05
0.00259396
-0.000156451
0.0026603
-0.000182814
0.00271957
-0.000163176
0.00275589
-0.000100879
0.00276095
-1.55528e-05
0.00273602
6.76158e-05
0.00268923
0.000129745
0.00263113
0.000163096
0.00257161
0.000168088
0.00251919
0.000147916
0.00248156
0.000104983
0.00246623
4.08236e-05
0.00247976
-4.05636e-05
0.00252479
-0.000127522
0.00259618
-0.000198707
0.00267923
-0.00022918
0.00275303
-0.000203283
0.00279818
-0.000125534
0.00280457
-2.00096e-05
0.00277402
8.19901e-05
0.00271727
0.000156333
0.00264816
0.000193378
0.00257904
0.000195408
0.00251929
0.000169268
0.00247623
0.000120322
0.00245658
5.10934e-05
0.00246653
-3.51134e-05
0.00250926
-0.000128124
0.00258114
-0.000208047
0.00266938
-0.000250151
0.00275408
-0.000236202
0.0028144
-0.000165038
0.00283584
-5.51377e-05
0.00281501
6.26574e-05
0.00275985
0.00015796
0.00268513
0.000212388
0.00260655
0.000223246
0.00253656
0.00019854
0.00248388
0.000148002
0.00245553
7.71221e-05
0.00245807
-1.1125e-05
0.00249554
-0.000108796
0.00256527
-0.000198059
0.00265543
-0.000255223
0.00274728
-0.000261496
0.00282093
-0.0002123
0.00286138
-0.000119125
0.0028619
-4.2976e-06
0.00282454
0.000106604
0.00275845
0.000191565
0.00267696
0.000237216
0.00259409
0.00024095
0.00252206
0.00020844
0.00247085
0.000147486
0.00244902
6.37837e-05
0.00246306
-3.645e-05
0.00251439
-0.000140184
0.00259619
-0.000226439
0.00269351
-0.000273345
0.00278712
-0.000267941
0.00285899
-0.000211767
0.00289705
-0.000119653
0.00289741
-1.3388e-05
0.00286378
8.56986e-05
0.00280512
0.000161785
0.00273281
0.000206048
0.00265863
0.000215457
0.00259392
0.00019064
0.00254944
0.000134169
0.00253479
5.0784e-05
0.00255616
-4.96666e-05
0.00261306
-0.000149739
0.00269653
-0.000227349
0.002791
-0.00026387
0.00287876
-0.00025177
0.00294493
-0.000197029
0.00298093
-0.000116063
0.00298565
-2.97116e-05
0.00296466
4.29585e-05
0.00292782
8.91909e-05
0.0028864
0.000104354
0.00285069
9.07064e-05
0.00282885
5.41034e-05
0.00282683
9.2419e-07
0.00284854
-6.26169e-05
0.00289515
-0.00012893
0.0029638
-0.000187637
0.00304687
-0.000226482
0.00313275
-0.000234705
0.00320805
-0.000206873
0.00326049
-0.000145062
0.00328149
-5.85962e-05
0.00326764
3.83227e-05
0.00322122
0.000129862
0.00314939
0.000202039
0.00306251
0.000245638
0.00297187
0.000257528
0.00288771
0.000240182
0.00281779
0.000200083
0.00276679
0.000145802
0.00273639
8.6085e-05
0.00272588
2.82318e-05
0.00273293
-2.26722e-05
0.00275419
-6.34396e-05
0.00278551
-9.19665e-05
0.00282209
-0.000106656
0.00285862
-0.00010647
0.00288982
-9.13975e-05
0.00291099
-6.28335e-05
0.00291856
-2.35889e-05
0.00291045
2.23849e-05
0.00288634
7.02013e-05
0.00284775
0.000114174
0.00279816
0.000148203
0.00274273
0.000166825
0.00268757
0.000166889
0.00263859
0.000148937
0.00260022
0.000117407
0.00257467
7.91299e-05
0.00256178
4.13563e-05
0.00255958
9.46704e-06
0.00256495
-1.313e-05
0.00257469
-2.63413e-05
0.00258558
-3.01663e-05
0.00259561
-2.80214e-05
0.00260295
-2.08432e-05
-6.65023e-06
0.0025023
-9.44833e-06
0.0025095
-2.94559e-05
0.0025222
-5.14804e-05
0.00254099
-7.5382e-05
0.00256636
-0.000100388
0.00259836
-0.000124626
0.00263635
-0.000145336
0.00267839
-0.000157915
0.00272115
-0.000157712
0.00275948
-0.000139682
0.00278749
-0.000102001
0.00280134
-5.11375e-05
0.00279936
5.11796e-06
0.00278188
5.88921e-05
0.0027529
9.81311e-05
0.00271962
0.000112744
0.00269043
9.90063e-05
0.00267283
6.01336e-05
0.00267162
5.83544e-06
0.00268737
-4.91253e-05
0.00271504
-8.65074e-05
0.00274417
-8.96822e-05
0.00276231
-5.30348e-05
0.00276055
1.27208e-05
0.00273682
8.65173e-05
0.00269518
0.000148434
0.00264287
0.000186518
0.00258789
0.000196311
0.00253794
0.000177441
0.00250042
0.00013091
0.0024826
5.86317e-05
0.00249109
-3.44919e-05
0.00252947
-0.000135778
0.00259396
-0.000220946
0.00267078
-0.000259637
0.00273925
-0.000231641
0.00278028
-0.000141911
0.00278452
-1.97864e-05
0.00275446
9.76714e-05
0.00270056
0.000183641
0.00263528
0.000228382
0.00256938
0.000233989
0.00251147
0.000205827
0.00246923
0.000147223
0.00245051
5.95443e-05
0.00246271
-5.27669e-05
0.00250982
-0.000174628
0.00258791
-0.0002768
0.002682
-0.000323273
0.00276811
-0.000289388
0.00282206
-0.000179484
0.00283036
-2.8315e-05
0.00279508
0.000117272
0.00272994
0.000221475
0.00265205
0.000271269
0.00257553
0.000271928
0.00250977
0.000235028
0.00246128
0.00016881
0.00243658
7.57922e-05
0.00244317
-4.17032e-05
0.0024864
-0.00017135
0.00256354
-0.000285191
0.00266041
-0.000347018
0.00275439
-0.000330189
0.0028223
-0.000232944
0.00284813
-8.09627e-05
0.00282773
8.30502e-05
0.00276923
0.000216463
0.00268869
0.000292924
0.00260348
0.000308461
0.0025272
0.000274822
0.00246926
0.000205939
0.00243775
0.000108631
0.00244092
-1.42971e-05
0.00248387
-0.000151748
0.00256287
-0.000277059
0.00266316
-0.000355508
0.00276272
-0.000361059
0.00283961
-0.000289194
0.00287863
-0.000158143
0.00287447
-1.34319e-07
0.00283116
0.000149916
0.00275936
0.000263367
0.00267293
0.000323646
0.00258581
0.000328067
0.00251027
0.000283975
0.00245716
0.000200599
0.00243655
8.43931e-05
0.00245602
-5.59156e-05
0.00251628
-0.000200449
0.0026082
-0.000318353
0.00271412
-0.000379272
0.00281292
-0.000366738
0.00288572
-0.000284564
0.00292043
-0.00015437
0.00291398
-6.93316e-06
0.0028717
0.000127974
0.00280455
0.000228942
0.00272543
0.000285168
0.00264682
0.000294065
0.0025803
0.000257153
0.00253714
0.000177329
0.00252766
6.02672e-05
0.00255804
-8.00445e-05
0.00262615
-0.000217853
0.00272027
-0.000321465
0.00282219
-0.000365795
0.00291288
-0.000342451
0.00297743
-0.000261586
0.00300806
-0.000146688
0.0030047
-2.63542e-05
0.00297402
7.36414e-05
0.00292704
0.000136169
0.00287618
0.000155218
0.00283272
0.000134163
0.00280576
8.10647e-05
0.00280226
4.42085e-06
0.00282695
-8.73099e-05
0.00288099
-0.000182964
0.00296017
-0.000266825
0.00305457
-0.00032088
0.00315025
-0.000330383
0.00323241
-0.000289035
0.00328841
-0.00020106
0.00330987
-8.00543e-05
0.0032938
5.43896e-05
0.00324295
0.00018071
0.00316516
0.000279827
0.00307165
0.000339152
0.00297461
0.000354567
0.00288496
0.000329829
0.00281079
0.000274258
0.00275674
0.000199853
0.00272432
0.000118503
0.00271272
3.98277e-05
0.00271965
-2.96045e-05
0.00274176
-8.5551e-05
0.00277472
-0.000124919
0.00281323
-0.000145172
0.00285144
-0.000144676
0.00288353
-0.000123492
0.00290458
-8.38775e-05
0.00291111
-3.01201e-05
0.00290144
3.20506e-05
0.00287575
9.58922e-05
0.00283604
0.000153881
0.00278608
0.000198167
0.00273108
0.000221827
0.00267702
0.000220949
0.00262957
0.000196383
0.00259298
0.000154004
0.00256931
0.000102793
0.00255835
5.23177e-05
0.00255809
9.73164e-06
0.00256531
-2.03564e-05
0.00257677
-3.78007e-05
0.00258908
-4.24693e-05
0.00260026
-3.92106e-05
0.0026082
-2.87789e-05
-9.42526e-06
0.00250222
-1.16673e-05
0.0025092
-3.64414e-05
0.00252164
-6.39173e-05
0.0025403
-9.40392e-05
0.00256589
-0.000125975
0.00259876
-0.000157496
0.00263861
-0.000185189
0.00268365
-0.000202953
0.00273046
-0.000204525
0.00277301
-0.000182234
0.00280409
-0.000133081
0.00281929
-6.63352e-05
0.00281654
7.87079e-06
0.00279573
7.97019e-05
0.00276131
0.000132552
0.00272176
0.000152291
0.00268706
0.000133708
0.00266624
8.09579e-05
0.00266528
6.79202e-06
0.00268534
-6.91819e-05
0.00272066
-0.000121836
0.00275832
-0.000127341
0.00278259
-7.73009e-05
0.00278241
1.28961e-05
0.0027558
0.000113129
0.00270838
0.000195855
0.00264911
0.000245789
0.00258709
0.000258331
0.00253055
0.00023398
0.00248729
0.000174174
0.00246549
8.04271e-05
0.00247371
-4.27148e-05
0.00251782
-0.000179886
0.00259451
-0.000297637
0.00268683
-0.000351954
0.00276843
-0.000313238
0.00281557
-0.000189057
0.00281781
-2.20239e-05
0.00277986
0.000135619
0.00271567
0.000247832
0.00264038
0.000303675
0.00256586
0.000308503
0.00250065
0.000271044
0.00245184
0.000196032
0.00242682
8.45645e-05
0.0024336
-5.95488e-05
0.00247871
-0.000219739
0.00256152
-0.00035961
0.0026681
-0.000429848
0.00277142
-0.000392709
0.00284103
-0.000249102
0.00285726
-4.4542e-05
0.00282003
0.000154502
0.00274592
0.000295584
0.0026569
0.000360295
0.00257039
0.000358438
0.00249628
0.000309131
0.00244026
0.000224834
0.00240927
0.000106782
0.00241351
-4.59403e-05
0.00246094
-0.00021878
0.00254823
-0.00037248
0.00265731
-0.000456103
0.00276136
-0.000434234
0.00283506
-0.000306647
0.00286255
-0.000108449
0.00284046
0.000105131
0.0027775
0.000279426
0.00269046
0.000379963
0.00259777
0.000401154
0.00251417
0.000358417
0.00245044
0.000269671
0.00241669
0.00014238
0.0024232
-2.08016e-05
0.00247513
-0.00020368
0.00256615
-0.000368076
0.00267776
-0.000467116
0.00278503
-0.000468334
0.00286457
-0.000368731
0.00290103
-0.000194605
0.00289029
1.06026e-05
0.00283858
0.000201626
0.0027587
0.000343252
0.00266559
0.000416751
0.00257331
0.000420355
0.00249422
0.000363064
0.00244016
0.000254655
0.00242267
0.000101883
0.00244965
-8.28947e-05
0.00252006
-0.000270861
0.00262181
-0.000420102
0.00273488
-0.00049234
0.00283715
-0.000469008
0.00290977
-0.000357187
0.00294093
-0.000185531
0.0029279
6.10114e-06
0.00287696
0.000178912
0.00280071
0.00030519
0.00271382
0.000372057
0.00263
0.000377892
0.00256163
0.000325519
0.00252081
0.000218153
0.00251836
6.27092e-05
0.00255958
-0.000121264
0.00263959
-0.000297863
0.00274327
-0.000425143
0.00285012
-0.000472638
0.00294058
-0.000432912
0.00300066
-0.000321673
0.00302392
-0.000169944
0.00301146
-1.38973e-05
0.00297085
0.000114255
0.00291392
0.000193099
0.00285393
0.000215205
0.00280317
0.000184923
0.00277199
0.000112244
0.00276878
7.63776e-06
0.00279901
-0.000117549
0.00286292
-0.000246867
0.00295359
-0.000357502
0.00305801
-0.000425299
0.00316036
-0.000432731
0.00324567
-0.000374347
0.00330221
-0.000257601
0.00332259
-0.000100434
0.00330433
7.26559e-05
0.00325025
0.000234786
0.00316826
0.000361818
0.00306988
0.00043753
0.00296791
0.000456543
0.00287386
0.000423874
0.00279621
0.000351915
0.00273967
0.000256385
0.00270575
0.00015243
0.00269366
5.19158e-05
0.00270122
-3.71642e-05
0.00272502
-0.000109351
0.00276033
-0.000160226
0.0028012
-0.000186043
0.00284107
-0.000184551
0.0028737
-0.000156119
0.00289404
-0.00010422
0.0028989
-3.49729e-05
0.00288709
4.38534e-05
0.00285944
0.000123547
0.0028185
0.000194823
0.00276835
0.00024831
0.00271426
0.000275922
0.00266198
0.000273222
0.00261689
0.000241478
0.00258291
0.000187981
0.00256193
0.00012377
0.00255361
6.0642e-05
0.00255585
7.48599e-06
0.00256538
-2.98848e-05
0.00257888
-5.12946e-05
0.00259284
-5.64279e-05
0.00260539
-5.17695e-05
0.00261408
-3.7461e-05
-1.27322e-05
0.0025021
-1.37723e-05
0.00250878
-4.31165e-05
0.00252082
-7.59607e-05
0.0025392
-0.000112417
0.00256492
-0.000151698
0.00259876
-0.00019133
0.00264088
-0.000227315
0.00268978
-0.000251848
0.00274202
-0.000256763
0.00279029
-0.000230506
0.00282555
-0.000168341
0.00284269
-8.34768e-05
0.0028391
1.14564e-05
0.00281393
0.000104878
0.00277214
0.000174338
0.00272404
0.00020039
0.00268178
0.000175973
0.0026564
0.000106336
0.00265555
7.63992e-06
0.00268135
-9.49815e-05
0.00272722
-0.000167708
0.00277676
-0.000176877
0.0028095
-0.000110045
0.0028114
1.09994e-05
0.0027807
0.000143824
0.00272542
0.000251139
0.00265694
0.000314264
0.0025858
0.000329473
0.00252072
0.00029906
0.00246982
0.000225074
0.00244245
0.000107803
0.00244966
-4.99256e-05
0.00250023
-0.00023046
0.00259204
-0.000389443
0.00270527
-0.000465191
0.0028061
-0.000414062
0.00286279
-0.000245745
0.00286236
-2.15936e-05
0.00281312
0.000184858
0.00273467
0.000326275
0.00264619
0.000392158
0.00256086
0.000393836
0.00248649
0.000345414
0.00242843
0.000254092
0.00239286
0.000120131
0.00238978
-5.64685e-05
0.00243099
-0.000260951
0.00251974
-0.000448359
0.00264088
-0.000550992
0.00276296
-0.000514787
0.00285055
-0.000336687
0.00287877
-7.27664e-05
0.00284377
0.000189507
0.0027627
0.000376645
0.00266204
0.000460961
0.00256361
0.000456869
0.00247893
0.000393809
0.0024139
0.000289861
0.00237738
0.000143301
0.00238304
-5.15989e-05
0.00244
-0.000275736
0.0025416
-0.000474085
0.00266446
-0.000578963
0.00277772
-0.000547493
0.00285461
-0.000383539
0.00288013
-0.000133961
0.00285293
0.000132332
0.00278334
0.000349012
0.00268891
0.000474392
0.00258844
0.000501626
0.00249745
0.00044941
0.00242849
0.000338624
0.00239428
0.000176595
0.00240656
-3.30872e-05
0.00246904
-0.000266159
0.00257164
-0.000470674
0.0026925
-0.000587975
0.00280522
-0.00058105
0.00288622
-0.000449735
0.00292024
-0.000228622
0.00290345
2.73929e-05
0.00284335
0.000261717
0.00275477
0.000431833
0.00265423
0.000517293
0.00255642
0.000518167
0.0024742
0.000445283
0.00242046
0.000308393
0.00240766
0.000114684
0.00244298
-0.000118214
0.00252277
-0.000350655
0.00263205
-0.000529376
0.00274923
-0.000609523
0.00285227
-0.00057205
0.00292318
-0.000428091
0.00295076
-0.000213113
0.00293238
2.44856e-05
0.00287446
0.00023683
0.00279044
0.000389209
0.00269644
0.00046606
0.00260768
0.000466642
0.00253799
0.000395216
0.00250059
0.000255555
0.00250645
5.68511e-05
0.00255891
-0.000173724
0.00264947
-0.000388425
0.00275962
-0.000535298
0.00286737
-0.000580388
0.00295373
-0.000519271
0.00300637
-0.000374312
0.00302055
-0.000184126
0.00299859
8.06595e-06
0.00294871
0.000164133
0.00288317
0.000258645
0.0028157
0.000282675
0.00275951
0.000241113
0.00272647
0.000145285
0.00272644
7.662e-06
0.00276483
-0.000155941
0.00283924
-0.000321275
0.00293891
-0.000457172
0.00304815
-0.000534539
0.00315097
-0.000535549
0.00323405
-0.000457431
0.00328772
-0.000311268
0.00330594
-0.000118653
0.00328655
9.2051e-05
0.00323192
0.000289411
0.00314928
0.000444458
0.00304975
0.000537064
0.00294617
0.00056012
0.00285043
0.000519612
0.00277134
0.000431011
0.00271384
0.000313878
0.00267963
0.000186639
0.0026682
6.33478e-05
0.0026775
-4.64619e-05
0.00270387
-0.000135717
0.00274189
-0.000198255
0.00278487
-0.000229015
0.0028257
-0.000225388
0.00285803
-0.000188446
0.002877
-0.00012319
0.00287979
-3.7758e-05
0.00286573
5.791e-05
0.00283622
0.000153053
0.00279437
0.000236674
0.00274458
0.0002981
0.00269212
0.000328388
0.00264248
0.000322856
0.00260064
0.000283323
0.00257014
0.000218479
0.00255259
0.000141324
0.00254744
6.57888e-05
0.00255249
2.43772e-06
0.00256438
-4.1775e-05
0.00257981
-6.67298e-05
0.00259534
-7.19504e-05
0.00260928
-6.571e-05
0.00261888
-4.70605e-05
-1.68907e-05
0.00250195
-1.57221e-05
0.00250819
-4.93615e-05
0.00251966
-8.74252e-05
0.00253754
-0.0001303
0.00256322
-0.000177375
0.002598
-0.000226115
0.00264275
-0.000272057
0.0026964
-0.000305504
0.00275569
-0.000316051
0.00281149
-0.000286309
0.00285217
-0.00020902
0.00287187
-0.000103174
0.00286737
1.59542e-05
0.00283667
0.000135582
0.00278534
0.000225665
0.00272605
0.000259686
0.00267377
0.000228254
0.00264221
0.000137897
0.00264126
8.58602e-06
0.00267456
-0.000128284
0.00273465
-0.000227795
0.00280037
-0.000242596
0.00284455
-0.000154224
0.00284895
6.59372e-06
0.00281246
0.000180316
0.00274666
0.000316944
0.00266635
0.000394571
0.0025838
0.000412022
0.00250809
0.000374765
0.00244751
0.000285656
0.00241232
0.000143
0.00241487
-5.24839e-05
0.00246584
-0.00028143
0.00256727
-0.000490868
0.00270284
-0.000600765
0.00283316
-0.00054438
0.00291193
-0.000324516
0.0029156
-2.52615e-05
0.00285459
0.000245865
0.00275796
0.000422904
0.00265257
0.000497547
0.00255405
0.000492364
0.00246847
0.000430992
0.00239806
0.0003245
0.00234879
0.000169407
0.00233633
-4.40104e-05
0.00237952
-0.000304142
0.00248166
-0.000550504
0.00262075
-0.000690076
0.00275888
-0.000652923
0.00285869
-0.000436496
0.00289512
-0.000109193
0.00286252
0.000222111
0.00277658
0.000462581
0.00266551
0.000572033
0.00255468
0.0005677
0.0024582
0.000490284
0.00238413
0.000363938
0.00234466
0.000182771
0.00235601
-6.29509e-05
0.00242546
-0.000345185
0.00254109
-0.000589719
0.00267513
-0.000713003
0.002795
-0.000667366
0.00287362
-0.000462159
0.0028962
-0.000156541
0.00286266
0.000165874
0.00278527
0.000426404
0.00268289
0.000576775
0.00257475
0.000609764
0.00247706
0.000547104
0.00240431
0.000411374
0.00237155
0.000209355
0.00239085
-5.23932e-05
0.00246312
-0.000338432
0.00257442
-0.000581974
0.00270065
-0.000714197
0.00281541
-0.000695817
0.00289618
-0.000530503
0.00292818
-0.000260618
0.00290728
4.82941e-05
0.00284098
0.000328015
0.00274516
0.000527655
0.00263788
0.000624573
0.00253505
0.000620999
0.00245057
0.000529763
0.00239839
0.000360569
0.00239117
0.000121906
0.00243438
-0.000161431
0.00252144
-0.000437712
0.00263502
-0.000642953
0.00275296
-0.000727464
0.00285408
-0.000673168
0.00292171
-0.000495728
0.00294559
-0.000236991
0.00292314
4.69318e-05
0.00286046
0.000299515
0.002771
0.000478672
0.00267171
0.000565348
0.00257932
0.000559026
0.00250942
0.000465125
0.00247652
0.000288445
0.00249117
4.22012e-05
0.00255382
-0.000236373
0.00265195
-0.000486554
0.00276428
-0.000647625
0.00286847
-0.000684575
0.00294705
-0.000597851
0.00298982
-0.000417091
0.00299385
-0.000188152
0.00296252
3.94015e-05
0.00290451
0.000222141
0.00283219
0.000330963
0.00275955
0.000355314
0.00270073
0.00029993
0.00266921
0.000176811
0.00267565
1.22092e-06
0.00272352
-0.000203813
0.00280606
-0.000403815
0.00290876
-0.000559876
0.00301531
-0.000641084
0.00311188
-0.000632119
0.00318817
-0.000533718
0.00323677
-0.000359869
0.00325273
-0.000134616
0.00323388
0.000110905
0.00318179
0.000341496
0.00310255
0.000523701
0.00300629
0.000633317
0.00290538
0.000661033
0.00281164
0.000613358
0.00273404
0.000508605
0.00267787
0.000370049
0.00264525
0.000219264
0.00263608
7.2518e-05
0.00264832
-5.8705e-05
0.00267771
-0.000165113
0.00271798
-0.000238522
0.00276182
-0.000272858
0.00280218
-0.000265742
0.0028331
-0.000219367
0.00285024
-0.000140335
0.00285116
-3.86763e-05
0.0028355
7.35708e-05
0.00280501
0.000183549
0.00276317
0.000278513
0.00271467
0.0003466
0.00266478
0.000378275
0.00261874
0.000368896
0.00258106
0.000321004
0.00255483
0.000244704
0.00254126
0.000154901
0.00253948
6.75651e-05
0.00254709
-5.17168e-06
0.00256074
-5.54255e-05
0.00257736
-8.33474e-05
0.00259387
-8.84577e-05
0.00260894
-8.07888e-05
0.00261977
-5.78846e-05
-2.24749e-05
0.00250174
-1.74663e-05
0.00250741
-5.50273e-05
0.00251805
-9.80675e-05
0.00253513
-0.000147376
0.00256044
-0.000202689
0.00259602
-0.000261688
0.00264361
-0.000319648
0.00270299
-0.000364892
0.00277136
-0.000384413
0.002837
-0.000351957
0.00288474
-0.000256756
0.00290806
-0.000126495
0.00290287
2.11464e-05
0.0028652
0.000173255
0.00280137
0.000289489
0.00272736
0.000333695
0.00266188
0.000293734
0.00262192
0.000177863
0.00262031
1.01917e-05
0.00266309
-0.000171068
0.00274205
-0.000306755
0.00282964
-0.000330181
0.0028892
-0.000213786
0.00289665
-8.5693e-07
0.00285208
0.00022489
0.00277242
0.000396603
0.00267723
0.000489763
0.00258082
0.000508433
0.00249243
0.00046315
0.00242011
0.000357978
0.00237296
0.000190147
0.00236094
-4.0466e-05
0.00239687
-0.000317356
0.00249395
-0.000587947
0.00264733
-0.000754145
0.00281626
-0.000713314
0.00293679
-0.000445046
0.00296364
-5.21105e-05
0.00290018
0.00030933
0.00278547
0.000537616
0.00265987
0.000623142
0.00254527
0.000606965
0.00244609
0.000530173
0.00236122
0.000409365
0.00229927
0.000231364
0.00228431
-2.90528e-05
0.00233902
-0.00035885
0.00246034
-0.000671831
0.00261697
-0.000846699
0.00276627
-0.000802228
0.00287116
-0.000541378
0.00290897
-0.000147004
0.00287522
0.000255854
0.00278464
0.000553165
0.00266484
0.000691829
0.00254262
0.000689923
0.0024348
0.000598101
0.0023532
0.000445539
0.00231382
0.000222154
0.00233325
-8.23783e-05
0.00241435
-0.000426284
0.00253986
-0.000715233
0.00267982
-0.000852964
0.00280247
-0.000790016
0.00288179
-0.000541474
0.00290272
-0.000177472
0.00286472
0.000203875
0.00278082
0.000510296
0.00267129
0.000686312
0.00255633
0.000724725
0.00245324
0.000650187
0.00237849
0.000486131
0.00234867
0.000239173
0.00237488
-7.86077e-05
0.00245462
-0.000418168
0.00257075
-0.000698108
0.00269823
-0.000841677
0.00281175
-0.000809334
0.00289046
-0.000609213
0.00292052
-0.000290683
0.00289745
7.13677e-05
0.00282788
0.000397589
0.00272758
0.000627949
0.00261556
0.000736591
0.00250914
0.000727426
0.00242368
0.000615222
0.00237414
0.000410106
0.00237266
0.000123386
0.00242238
-0.00021115
0.0025139
-0.000529229
0.00262841
-0.00075747
0.00274408
-0.000843135
0.00284108
-0.000770159
0.00290422
-0.000558872
0.00292424
-0.000257009
0.00289874
7.24347e-05
0.0028333
0.000364949
0.0027409
0.000571076
0.00263869
0.00066756
0.0025446
0.000653109
0.00247602
0.000533707
0.0024486
0.000315867
0.00247169
1.91118e-05
0.00254218
-0.000306867
0.00264379
-0.000588162
0.00275359
-0.000757422
0.00285009
-0.000781081
0.00291803
-0.000665788
0.00294944
-0.000448505
0.00294298
-0.000181689
0.00290289
7.94905e-05
0.00283814
0.00028689
0.00276106
0.000408045
0.00268587
0.000430502
0.0026278
0.000358003
0.00260156
0.000203056
0.00261692
-1.41449e-05
0.00267311
-0.000259998
0.00275836
-0.000489071
0.00285644
-0.000657951
0.00295329
-0.000737941
0.00303903
-0.000717856
0.00310641
-0.000601096
0.00314952
-0.000402976
0.0031638
-0.0001489
0.00314688
0.000127826
0.00309964
0.000388739
0.00302704
0.000596298
0.00293801
0.000722345
0.00284393
0.000755119
0.00275606
0.000701228
0.00268328
0.000581386
0.00263116
0.000422163
0.0026024
0.000248024
0.00259724
7.76826e-05
0.00261325
-7.47181e-05
0.00264525
-0.000197109
0.00268622
-0.000279494
0.00272894
-0.000315578
0.00276711
-0.000303916
0.00279573