/*--------------------------------*- C++ -*----------------------------------*\
  =========                 |
  \\      /  F ield         | OpenFOAM: The Open Source CFD Toolbox
   \\    /   O peration     | Website:  https://openfoam.org
    \\  /    A nd           | Version:  11
     \\/     M anipulation  |
\*---------------------------------------------------------------------------*/
FoamFile
{
    format      ascii;
    class       surfaceScalarField;
    location    "13.357126";
    object      phi_0;
}
// * * * * * * * * * * * * * * * * * * * * * * * * * * * * * * * * * * * * * //

dimensions      [0 3 -1 0 0 0 0];

internalField   nonuniform List<scalar> 
14638
(
0.00250241
-2.41233e-06
0.00250991
-7.49391e-06
0.00252292
-1.30148e-05
0.00254182
-1.88959e-05
0.00256672
-2.49028e-05
0.00259726
-3.05397e-05
0.00263237
-3.51138e-05
0.00266997
-3.75997e-05
0.00270696
-3.69868e-05
0.00273936
-3.23975e-05
0.00276295
-2.35969e-05
0.00277486
-1.19034e-05
0.00277399
8.6532e-07
0.00276122
1.27756e-05
0.00273994
2.12738e-05
0.00271563
2.43158e-05
0.00269444
2.11888e-05
0.00268173
1.27074e-05
0.00268059
1.13589e-06
0.00269079
-1.01912e-05
0.00270822
-1.74314e-05
0.00272559
-1.73693e-05
0.0027347
-9.11459e-06
0.0027296
5.09922e-06
0.00270855
2.10476e-05
0.00267397
3.45841e-05
0.00263102
4.29475e-05
0.00258617
4.4848e-05
0.00254619
3.99802e-05
0.00251761
2.85873e-05
0.00250618
1.14272e-05
0.00251601
-9.83423e-06
0.0025479
-3.18899e-05
0.00259737
-4.94636e-05
0.002654
-5.66338e-05
0.0027038
-4.98e-05
0.00273405
-3.02465e-05
0.00273792
-3.87419e-06
0.00271607
2.18495e-05
0.00267485
4.12238e-05
0.00262316
5.16922e-05
0.00257006
5.31008e-05
0.0025238
4.62575e-05
0.00249183
3.19643e-05
0.00248081
1.10203e-05
0.00249567
-1.48544e-05
0.00253734
-4.16726e-05
0.00260017
-6.28327e-05
0.00267124
-7.1071e-05
0.00273341
-6.21654e-05
0.00277123
-3.78154e-05
0.00277649
-5.26237e-06
0.00275027
2.62138e-05
0.0027009
4.93733e-05
0.0026398
6.11047e-05
0.00257804
6.17559e-05
0.00252492
5.31169e-05
0.00248817
3.6755e-05
0.00247447
1.36942e-05
0.00248895
-1.44757e-05
0.00253289
-4.39353e-05
0.00260102
-6.8133e-05
0.00268057
-7.95536e-05
0.00275372
-7.31452e-05
0.002803
-4.92801e-05
0.00281719
-1.41955e-05
0.0027947
2.24885e-05
0.00274302
5.16814e-05
0.00267496
6.80619e-05
0.00260406
7.08973e-05
0.00254159
6.24716e-05
0.00249598
4.56074e-05
0.00247381
2.217e-05
0.00248021
-6.39177e-06
0.00251736
-3.71533e-05
0.00258196
-6.46044e-05
0.00266375
-8.17834e-05
0.00274688
-8.31315e-05
0.002814
-6.71219e-05
0.00285106
-3.70586e-05
0.00285094
1.15855e-07
0.0028149
3.60467e-05
0.00275153
6.33705e-05
0.00267391
7.76181e-05
0.00259591
7.79978e-05
0.00252935
6.65624e-05
0.00248317
4.6179e-05
0.00246409
1.90823e-05
0.00247663
-1.25383e-05
0.00252142
-4.47916e-05
0.00259301
-7.15967e-05
0.00267948
-8.64633e-05
0.00276479
-8.53113e-05
0.00283309
-6.83048e-05
0.00287277
-3.96812e-05
0.00287875
-5.97618e-06
0.00285262
2.61309e-05
0.00280125
5.13692e-05
0.0027348
6.64519e-05
0.00266483
6.99665e-05
0.00260282
6.20146e-05
0.00255907
4.37476e-05
0.00254191
1.71643e-05
0.00255632
-1.4411e-05
0.00260208
-4.57608e-05
0.00267249
-7.04136e-05
0.00275521
-8.27184e-05
0.00283532
-8.01085e-05
0.00289941
-6.40889e-05
0.00293894
-3.95358e-05
0.00295184
-1.29029e-05
0.00294207
9.7728e-06
0.00291768
2.4389e-05
0.00288829
2.93953e-05
0.00286287
2.54161e-05
0.00284861
1.42618e-05
0.0028506
-1.98899e-06
0.00287185
-2.12526e-05
0.00291296
-4.11069e-05
0.00297141
-5.84544e-05
0.00304115
-6.97393e-05
0.00311296
-7.18054e-05
0.00317592
-6.29651e-05
0.00321964
-4.37191e-05
0.00323645
-1.68054e-05
0.00322302
1.34227e-05
0.00318101
4.20109e-05
0.00311644
6.45717e-05
0.00303824
7.81998e-05
0.00295639
8.18562e-05
0.00288016
7.62255e-05
0.00281689
6.32688e-05
0.00277121
4.56787e-05
0.00274492
2.62963e-05
0.00273735
7.56753e-06
0.00274612
-8.77236e-06
0.00276779
-2.16685e-05
0.00279829
-3.05044e-05
0.00283317
-3.48764e-05
0.00286771
-3.45435e-05
0.00289724
-2.95211e-05
0.00291743
-2.01949e-05
0.00292479
-7.36224e-06
0.00291701
7.78437e-06
0.00289334
2.36706e-05
0.00285497
3.83707e-05
0.0028052
4.97663e-05
0.00274924
5.59563e-05
0.00269338
5.58677e-05
0.00264365
4.9728e-05
0.00260455
3.91018e-05
0.00257821
2.63352e-05
0.00256435
1.38606e-05
0.00256092
3.42983e-06
0.00256482
-3.89978e-06
0.00257297
-8.15076e-06
0.00258237
-9.39424e-06
0.00259106
-8.68912e-06
0.00259753
-6.4781e-06
-1.86639e-06
0.0025024
-4.80819e-06
0.00250985
-1.49474e-05
0.00252282
-2.59875e-05
0.00254172
-3.77905e-05
0.00256671
-4.99006e-05
0.00259751
-6.13362e-05
0.00263311
-7.07109e-05
0.00267143
-7.59238e-05
0.00270934
-7.48939e-05
0.00274267
-6.57295e-05
0.00276695
-4.78793e-05
0.00277914
-2.40916e-05
0.00277807
1.94181e-06
0.00276451
2.63281e-05
0.002742
4.3783e-05
0.00271627
5.00467e-05
0.00269384
4.36219e-05
0.0026804
2.61489e-05
0.0026793
2.23529e-06
0.0026904
-2.12949e-05
0.00270945
-3.64771e-05
0.00272863
-3.65536e-05
0.00273913
-1.9607e-05
0.00273453
9.69023e-06
0.00271308
4.25042e-05
0.0026774
7.02588e-05
0.00263298
8.73679e-05
0.00258651
9.13222e-05
0.0025449
8.15848e-05
0.00251485
5.86362e-05
0.0025024
2.38845e-05
0.00251205
-1.94831e-05
0.002545
-6.4846e-05
0.00259684
-0.000101305
0.00265662
-0.00011641
0.00270931
-0.000102492
0.00274125
-6.2189e-05
0.00274526
-7.87698e-06
0.00272224
4.48696e-05
0.00267913
8.43345e-05
0.00262533
0.000105484
0.00257017
0.000108264
0.00252196
9.44667e-05
0.00248826
6.5671e-05
0.00247603
2.32482e-05
0.00249079
-2.96136e-05
0.002534
-8.48901e-05
0.0026
-0.000128832
0.00267504
-0.000146111
0.00274067
-0.000127795
0.00278035
-7.74907e-05
0.0027855
-1.04149e-05
0.0027576
5.4118e-05
0.00270573
0.000101236
0.00264204
0.000124797
0.00257794
0.000125856
0.00252274
0.000108319
0.00248408
7.54136e-05
0.00246875
2.90215e-05
0.00248225
-2.79699e-05
0.0025264
-8.8083e-05
0.00259631
-0.000138042
0.00267904
-0.000162293
0.00275599
-0.00015009
0.00280852
-0.000101809
0.00282443
-3.01054e-05
0.00280177
4.51484e-05
0.00274839
0.00010506
0.00267786
0.000138596
0.00260438
0.000144373
0.00253951
0.00012734
0.00249168
9.344e-05
0.00246752
4.63333e-05
0.00247256
-1.14327e-05
0.0025096
-7.4197e-05
0.00257561
-0.000130615
0.00265992
-0.000166093
0.00274583
-0.000169041
0.00281518
-0.000136473
0.00285356
-7.54403e-05
0.00285389
-2.15708e-07
0.00281758
7.23558e-05
0.00275339
0.00012756
0.00267451
0.0001565
0.0025949
0.000157607
0.00252652
0.000134942
0.00247864
9.40645e-05
0.00245855
3.91669e-05
0.00247151
-2.54909e-05
0.00251848
-9.17691e-05
0.00259363
-0.000146741
0.00268392
-0.00017675
0.00277209
-0.000173482
0.00284147
-0.000137691
0.00288038
-7.85849e-05
0.00288427
-9.86998e-06
0.00285557
5.48331e-05
0.00280183
0.000105102
0.00273358
0.000134709
0.00266237
0.000141175
0.00259959
0.000124794
0.00255569
8.76416e-05
0.00253947
3.33885e-05
0.00255641
-3.13463e-05
0.00260627
-9.56287e-05
0.00268162
-0.000145758
0.00276886
-0.000169955
0.00285192
-0.000163175
0.00291677
-0.000128939
0.00295486
-7.762e-05
0.00296457
-2.26135e-05
0.00295057
2.37718e-05
0.00292164
5.33144e-05
0.00288801
6.30309e-05
0.00285907
5.43511e-05
0.00284229
3.10422e-05
0.002843
-2.69724e-06
0.00286447
-4.27202e-05
0.00290748
-8.41198e-05
0.00296947
-0.000120443
0.00304391
-0.000144176
0.00312075
-0.00014865
0.00318816
-0.000130375
0.00323497
-9.05265e-05
0.00325312
-3.49561e-05
0.0032393
2.724e-05
0.00319545
8.58609e-05
0.00312809
0.000131937
0.0030467
0.00015959
0.00296174
0.000166816
0.0028828
0.000155159
0.00281734
0.000128736
0.00276994
9.30731e-05
0.00274234
5.39011e-05
0.00273383
1.60769e-05
0.00274204
-1.6989e-05
0.00276358
-4.32012e-05
0.00279434
-6.12715e-05
0.00282977
-7.02977e-05
0.00286494
-6.97201e-05
0.00289498
-5.95596e-05
0.00291544
-4.06572e-05
0.00292281
-1.47246e-05
0.00291484
1.57493e-05
0.00289095
4.75645e-05
0.00285244
7.68816e-05
0.00280268
9.95223e-05
0.00274688
0.000111756
0.00269126
0.000111483
0.00264183
9.91664e-05
0.00260302
7.79049e-05
0.00257701
5.23514e-05
0.00256352
2.73497e-05
0.00256054
6.4125e-06
0.00256495
-8.31143e-06
0.00257364
-1.68426e-05
0.00258353
-1.92846e-05
0.00259265
-1.78101e-05
0.0025994
-1.32306e-05
-3.88279e-06
0.00250236
-7.17059e-06
0.00250973
-2.23144e-05
0.00252261
-3.88706e-05
0.00254149
-5.66718e-05
0.00256667
-7.50739e-05
0.00259796
-9.26299e-05
0.00263451
-0.000107261
0.00267428
-0.000115695
0.00271405
-0.000114658
0.00274927
-0.000100952
0.00277493
-7.35374e-05
0.00278768
-3.68396e-05
0.00278616
3.45602e-06
0.00277103
4.14545e-05
0.00274604
6.87739e-05
0.0027175
7.85868e-05
0.00269265
6.84738e-05
0.00267787
4.09343e-05
0.00267701
3.09471e-06
0.00269011
-3.43989e-05
0.00271252
-5.88901e-05
0.00273537
-5.93978e-05
0.00274847
-3.27116e-05
0.00274458
1.35798e-05
0.00272191
6.51789e-05
0.00268369
0.00010848
0.00263608
0.000134972
0.00258629
0.000141115
0.00254155
0.000126329
0.00250884
9.13451e-05
0.0024947
3.80243e-05
0.00250442
-2.92019e-05
0.00253996
-0.000100393
0.00259698
-0.000158322
0.00266331
-0.000182738
0.00272176
-0.000160945
0.00275671
-9.71336e-05
0.00276028
-1.14491e-05
0.00273414
7.10051e-05
0.00268663
0.000131849
0.00262829
0.000163826
0.00256896
0.000167592
0.00251708
0.000146346
0.00248033
0.00010242
0.00246622
3.7362e-05
0.00248119
-4.45894e-05
0.00252763
-0.000131325
0.00259993
-0.000201134
0.00268301
-0.000229194
0.00275583
-0.000200614
0.00279929
-0.000120948
0.00280381
-1.49392e-05
0.00277177
8.61637e-05
0.00271416
0.000158841
0.00264483
0.000194134
0.00257597
0.000194711
0.00251685
0.000167438
0.00247474
0.000117526
0.00245635
4.74156e-05
0.00246778
-3.94055e-05
0.00251202
-0.000132324
0.00258503
-0.000211046
0.00267359
-0.000250858
0.00275761
-0.00023411
0.00281638
-0.000160574
0.00283581
-4.95417e-05
0.00281312
6.78404e-05
0.00275666
0.000161518
0.00268142
0.000213843
0.00260299
0.000222801
0.00253363
0.000196694
0.00248194
0.000145139
0.00245487
7.33978e-05
0.00245896
-1.5521e-05
0.00249804
-0.000113279
0.00256904
-0.000201613
0.00265974
-0.000256792
0.0027512
-0.0002605
0.00282363
-0.000208907
0.00286234
-0.00011415
0.00286101
1.11397e-06
0.00282206
0.000111309
0.00275492
0.000194699
0.00267303
0.000238385
0.00259039
0.000240248
0.0025191
0.000206235
0.00246905
0.000144112
0.00244874
5.94841e-05
0.00246451
-4.12669e-05
0.00251746
-0.000144715
0.00260035
-0.000229638
0.00269796
-0.000274355
0.00279096
-0.000266485
0.00286152
-0.000208248
0.00289789
-0.000114954
0.00289655
-8.52973e-06
0.00286153
8.98529e-05
0.00280195
0.000164676
0.00272926
0.000207405
0.00265522
0.000215217
0.00259115
0.000188861
0.0025478
0.000130992
0.00253468
4.6509e-05
0.00255775
-5.44199e-05
0.00261615
-0.000154021
0.00270055
-0.000230161
0.00279516
-0.000264565
0.00288228
-0.0002503
0.00294727
-0.000193921
0.00298184
-0.000112192
0.00298524
-2.6017e-05
0.00296328
4.5732e-05
0.00292595
9.06426e-05
0.00288454
0.000104443
0.00284926
8.9635e-05
0.00282815
5.21507e-05
0.0028271
-1.6516e-06
0.00284993
-6.55423e-05
0.00289763
-0.000131822
0.00296716
-0.000189973
0.00305069
-0.000227704
0.00313644
-0.000234403
0.00321101
-0.000204942
0.00326223
-0.000141748
0.00328171
-5.44375e-05
0.00326632
4.26304e-05
0.00321856
0.00013362
0.0031458
0.000204701
0.00305848
0.00024691
0.0029679
0.00025739
0.00288422
0.000238839
0.00281507
0.000197883
0.00276499
0.000143153
0.00273553
8.3368e-05
0.00272587
2.57361e-05
0.00273364
-2.47628e-05
0.00275546
-6.50158e-05
0.00278714
-9.29535e-05
0.00282384
-0.000106996
0.00286025
-0.000106136
0.0028911
-9.0411e-05
0.00291173
-6.12798e-05
0.00291861
-2.16094e-05
0.00290976
2.45998e-05
0.00288491
7.24123e-05
0.0028457
0.000116097
0.00279568
0.00014954
0.0027401
0.000167339
0.00268509
0.000166492
0.00263651
0.000147745
0.00259871
0.000115707
0.00257378
7.72812e-05
0.00256145
3.96808e-05
0.00255968
8.17771e-06
0.00256532
-1.39495e-05
0.00257518
-2.67058e-05
0.00258606
-3.01624e-05
0.00259599
-2.77407e-05
0.00260317
-2.04102e-05
-6.12233e-06
0.00250231
-9.4786e-06
0.00250953
-2.95385e-05
0.00252226
-5.15957e-05
0.00254109
-7.54998e-05
0.00256648
-0.00010047
0.00259849
-0.000124634
0.00263646
-0.000145231
0.00267843
-0.000157672
0.00272109
-0.000157314
0.00275928
-0.000139144
0.00278711
-0.000101364
0.00280077
-5.05077e-05
0.00279864
5.58734e-06
0.0027811
5.8999e-05
0.00275223
9.76449e-05
0.00271927
0.000111546
0.00269059
9.71496e-05
0.00267365
5.78813e-05
0.00267309
3.64627e-06
0.00268932
-5.06226e-05
0.00271707
-8.66419e-05
0.00274574
-8.80693e-05
0.00276297
-4.99406e-05
0.00276011
1.64384e-05
0.00273541
8.98803e-05
0.00269312
0.000150775
0.00264053
0.000187556
0.00258564
0.000196008
0.00253612
0.000175849
0.00249936
0.000128109
0.0024826
5.4777e-05
0.0024924
-3.90031e-05
0.00253208
-0.000140068
0.00259743
-0.000223674
0.00267425
-0.00025956
0.00274175
-0.000228438
0.00278115
-0.000136539
0.00278366
-1.39594e-05
0.00275227
0.000102401
0.00269762
0.000186497
0.00263213
0.000229316
0.00256646
0.000233264
0.00250913
0.000203675
0.00246782
0.000143729
0.00245039
5.47881e-05
0.00246418
-5.83812e-05
0.00251291
-0.000180049
0.00259217
-0.000280395
0.00268645
-0.000323479
0.00277152
-0.000285678
0.00282348
-0.000172909
0.00282955
-2.10137e-05
0.0027925
0.000123213
0.00272641
0.000224938
0.00264833
0.000272213
0.00257216
0.000270882
0.00250708
0.000232515
0.00245955
0.000165055
0.00243614
7.08296e-05
0.00244434
-4.76079e-05
0.00248927
-0.000177255
0.00256772
-0.0002895
0.00266501
-0.000348142
0.0027583
-0.0003274
0.00282455
-0.00022683
0.00284823
-7.32221e-05
0.00282579
9.02819e-05
0.00276584
0.000221465
0.0026847
0.000294989
0.00259962
0.000307877
0.002524
0.000272313
0.0024671
0.000202037
0.00243701
0.000103496
0.00244193
-2.04423e-05
0.00248669
-0.000158042
0.00256707
-0.000281994
0.00266785
-0.000357574
0.00276686
-0.000359503
0.00284231
-0.000284357
0.00287941
-0.000151249
0.0028733
7.21715e-06
0.0028284
0.000156211
0.00275559
0.000267514
0.0026688
0.000325174
0.00258193
0.000327115
0.00250718
0.000280991
0.00245532
0.000195963
0.00243641
7.84017e-05
0.00245779
-6.26471e-05
0.00251978
-0.000206711
0.00261279
-0.000322646
0.00271889
-0.000380451
0.0028169
-0.000364499
0.00288818
-0.000279524
0.00292102
-0.000147793
0.00291274
-2.55629e-07
0.00286904
0.000133555
0.00280102
0.000232699
0.00272161
0.000286809
0.00264326
0.000293568
0.00257753
0.000254597
0.00253566
0.000172862
0.00252788
5.42812e-05
0.0025601
-8.66411e-05
0.00262975
-0.000223671
0.0027247
-0.00032511
0.00282658
-0.000366444
0.00291642
-0.000340137
0.0029796
-0.0002571
0.00300865
-0.00014125
0.00300387
-2.12363e-05
0.00297217
7.74344e-05
0.00292471
0.000138102
0.00287391
0.000155246
0.00283097
0.000132571
0.0028049
7.82262e-05
0.00280257
6.78095e-07
0.00282859
-9.15665e-05
0.00288392
-0.000187149
0.00296409
-0.000270146
0.00305892
-0.000322536
0.00315436
-0.000329845
0.00323564
-0.000286222
0.00329027
-0.000196369
0.00331007
-7.42451e-05
0.00329234
6.03649e-05
0.00324006
0.000185898
0.00316128
0.00028348
0.00306732
0.000340872
0.00297037
0.00035434
0.00288125
0.000327955
0.0028079
0.000271234
0.00275481
0.000196241
0.00272337
0.000114813
0.00271267
3.64334e-05
0.00272037
-3.24652e-05
0.00274308
-8.77252e-05
0.00277642
-0.000126288
0.00281506
-0.00014564
0.00285312
-0.000144199
0.00288482
-0.000122112
0.00290528
-8.1732e-05
0.00291109
-2.74239e-05
0.00290067
3.50254e-05
0.00287426
9.88221e-05
0.00283396
0.000156397
0.00278361
0.000199889
0.00272849
0.000222456
0.0026746
0.000220381
0.00262757
0.000194773
0.00259155
0.000151728
0.00256851
0.000100324
0.00255811
5.00812e-05
0.00255827
8.01224e-06
0.00256577
-2.14438e-05
0.00257734
-3.82741e-05
0.00258962
-4.2443e-05
0.00260069
-3.88105e-05
0.00260845
-2.81685e-05
-8.69539e-06
0.00250223
-1.1706e-05
0.00250924
-3.6547e-05
0.00252171
-6.40657e-05
0.0025404
-9.41923e-05
0.00256601
-0.000126085
0.00259889
-0.000157514
0.00263873
-0.000185067
0.00268371
-0.000202655
0.00273042
-0.000204025
0.00277283
-0.000181546
0.00280371
-0.000132246
0.00281869
-6.54875e-05
0.00281574
8.5361e-06
0.00279482
7.9914e-05
0.00276049
0.000131982
0.00272127
0.00015076
0.00268715
0.00013127
0.00266709
7.79442e-05
0.00266693
3.80192e-06
0.00268761
-7.12952e-05
0.00272308
-0.000122113
0.00276021
-0.0001252
0.00278337
-7.31037e-05
0.00278188
1.79243e-05
0.00275415
0.000117617
0.002706
0.00019892
0.00264644
0.000247114
0.00258453
0.000257922
0.00252845
0.000231927
0.00248601
0.000170556
0.00246541
7.5377e-05
0.00247516
-4.87606e-05
0.00252087
-0.000185774
0.00259865
-0.000301454
0.00269097
-0.000351877
0.00277133
-0.000308806
0.00281647
-0.000181678
0.00281666
-1.4146e-05
0.0027772
0.000141859
0.00271224
0.000251462
0.0026368
0.000304751
0.00256259
0.000307478
0.002498
0.00026826
0.00245015
0.000191583
0.00242645
7.84849e-05
0.00243493
-6.68592e-05
0.00248192
-0.000227036
0.00256627
-0.000364748
0.00267337
-0.000430578
0.00277575
-0.000388058
0.00284314
-0.000240298
0.00285665
-3.45312e-05
0.0028172
0.000162667
0.0027419
0.000300238
0.00265268
0.000361437
0.0025666
0.000356959
0.00249324
0.000305875
0.0024382
0.000220093
0.00240859
0.000100441
0.00241467
-5.36894e-05
0.0024641
-0.000226679
0.00255287
-0.000378279
0.00266236
-0.000457627
0.00276555
-0.000430594
0.00283743
-0.000298707
0.00286263
-9.84261e-05
0.00283839
0.000114525
0.00277388
0.000285976
0.00268615
0.000382714
0.00259357
0.000400457
0.00251067
0.000355219
0.00244808
0.000264628
0.00241595
0.000135627
0.00242447
-2.89644e-05
0.00247842
-0.000211994
0.00257087
-0.000374446
0.00268288
-0.000469576
0.00278939
-0.000466016
0.00286724
-0.00036221
0.00290157
-0.000185573
0.00288876
2.0028e-05
0.00283543
0.000209532
0.00275459
0.000348353
0.00266121
0.000418562
0.00256923
0.000419087
0.00249101
0.000359218
0.00243836
0.00024861
0.00242276
9.39981e-05
0.00245183
-9.17133e-05
0.00252403
-0.000278909
0.0026268
-0.000425414
0.00273988
-0.000493536
0.0028412
-0.000465818
0.00291215
-0.00035047
0.00294128
-0.000176927
0.0029263
1.47229e-05
0.00287388
0.000185983
0.00279679
0.000309789
0.00270971
0.000373885
0.00262628
0.000376996
0.00255886
0.000322013
0.00251954
0.000212188
0.00251901
5.4808e-05
0.00256219
-0.00012982
0.0026437
-0.000305181
0.00274804
-0.000429446
0.0028546
-0.000473004
0.002944
-0.000429536
0.00300255
-0.000315649
0.00302413
-0.000162838
0.0030102
-7.30115e-06
0.00296855
0.000119087
0.00291115
0.000195497
0.00285128
0.000215117
0.00280115
0.000182701
0.00277103
0.000108343
0.00276922
2.48807e-06
0.00280104
-0.000123381
0.00286639
-0.000252499
0.00295806
-0.000361814
0.00306279
-0.000427268
0.00316473
-0.000431784
0.00324901
-0.000370503
0.00330407
-0.000251431
0.00332274
-9.29087e-05
0.00330275
8.03516e-05
0.00324719
0.000241455
0.00316417
0.000366504
0.00306532
0.000439717
0.00296345
0.000456215
0.00286997
0.000421435
0.00279318
0.000348023
0.00273765
0.000251768
0.00270474
0.000147724
0.0026936
4.75753e-05
0.00270198
-4.08475e-05
0.00272642
-0.000112167
0.00276213
-0.000161996
0.00280311
-0.000186623
0.0028428
-0.000183888
0.00287498
-0.000154287
0.00289467
-0.000101428
0.00289877
-3.1524e-05
0.0028862
4.75944e-05
0.00285786
0.000127171
0.00281637
0.000197883
0.0027659
0.00025036
0.00271174
0.000276615
0.00265967
0.000272447
0.00261502
0.000239431
0.00258162
0.000185124
0.00256126
0.000120683
0.00255349
5.78505e-05
0.00255616
5.34494e-06
0.00256594
-3.12287e-05
0.00257953
-5.18632e-05
0.00259345
-5.63628e-05
0.00260587
-5.12334e-05
0.00261436
-3.66513e-05
-1.17824e-05
0.00250211
-1.38199e-05
0.00250881
-4.32467e-05
0.00252089
-7.61446e-05
0.00253931
-0.00011261
0.00256507
-0.000151842
0.00259892
-0.000191365
0.00264103
-0.000227181
0.00268988
-0.000251499
0.00274201
-0.00025616
0.00279012
-0.000229657
0.00282516
-0.000167281
0.00284204
-8.23685e-05
0.0028382
1.2377e-05
0.00281285
0.000105259
0.00277112
0.000173718
0.00272337
0.000198509
0.00268176
0.000172874
0.00265729
0.000102419
0.00265744
3.65584e-06
0.00268405
-9.79065e-05
0.00273016
-0.000168224
0.00277907
-0.000174114
0.00281045
-0.000104482
0.00281074
1.76354e-05
0.00277871
0.000149646
0.00272262
0.000255014
0.00265385
0.00031588
0.00258284
0.000328929
0.00251826
0.000296508
0.00246824
0.000220575
0.00244221
0.000101408
0.00245125
-5.78024e-05
0.00250385
-0.000238371
0.00259715
-0.000394757
0.00271051
-0.000465233
0.00280976
-0.000408059
0.00286382
-0.000235737
0.0028608
-1.11259e-05
0.0028098
0.000192865
0.00273058
0.000330679
0.00264207
0.000393264
0.00255714
0.000392402
0.00248344
0.000341958
0.0024263
0.000248727
0.00239202
0.000112765
0.00239077
-6.56062e-05
0.00243421
-0.00027048
0.00252492
-0.00045546
0.00264689
-0.000552545
0.00276815
-0.000509321
0.00285342
-0.000325562
0.00287858
-5.96924e-05
0.00284086
0.000200384
0.00275824
0.000382856
0.00265726
0.00046242
0.0025593
0.000454916
0.00247543
0.000389746
0.00241148
0.000284046
0.00237656
0.000135363
0.00238441
-6.15436e-05
0.00244367
-0.000285935
0.00254686
-0.000481468
0.00266999
-0.000580763
0.00278215
-0.000542753
0.00285696
-0.000373517
0.00288002
-0.000121485
0.00285058
0.000143966
0.00277941
0.000357142
0.00268427
0.000477853
0.0025839
0.000500831
0.00249363
0.000445486
0.00242597
0.000332293
0.00239363
0.000167965
0.00240821
-4.35387e-05
0.00247285
-0.000276635
0.00257684
-0.000478444
0.00269795
-0.000590684
0.00280973
-0.000577797
0.00288888
-0.000441355
0.00292058
-0.000217273
0.00290157
3.90394e-05
0.0028398
0.000271296
0.0027503
0.000437858
0.00264955
0.000519307
0.00255215
0.000516488
0.00247092
0.000440449
0.00241877
0.000300758
0.00240806
0.000104709
0.00244558
-0.000129235
0.00252714
-0.000360465
0.0026373
-0.000535577
0.00275434
-0.000610578
0.0028563
-0.00056778
0.00292544
-0.000419608
0.00295092
-0.000202405
0.00293051
3.51335e-05
0.00287104
0.000245455
0.00278617
0.000394657
0.00269205
0.000468008
0.00260383
0.000465215
0.00253527
0.000390566
0.0024996
0.000247862
0.00250756
4.68449e-05
0.00256203
-0.000184291
0.00265397
-0.000397118
0.00276454
-0.00054002
0.00287176
-0.000580221
0.00295687
-0.000514644
0.00300787
-0.000366647
0.00302034
-0.000175316
0.0029969
1.61383e-05
0.00294601
0.000169982
0.00288004
0.00026147
0.00281275
0.000282402
0.00275732
0.000238136
0.00272554
0.000140115
0.00272718
8.52318e-07
0.00276734
-0.000163541
0.00284322
-0.000328379
0.00294373
-0.000462328
0.00305307
-0.000536605
0.0031553
-0.000534017
0.00323727
-0.000452473
0.00328946
-0.00030362
0.003306
-0.000109452
0.00328492
0.000101432
0.00322883
0.000297553
0.00314513
0.000450196
0.00304511
0.000539743
0.00294162
0.000559704
0.00284645
0.000516603
0.00276824
0.000426235
0.00271178
0.000308232
0.00267862
0.000180884
0.00266818
5.80133e-05
0.00267835
-5.10163e-05
0.00270538
-0.000139203
0.0027438
-0.000200417
0.00278685
-0.000229666
0.00282744
-0.000224481
0.00285926
-0.000186106
0.00287754
-0.000119707
0.00287955
-3.35335e-05
0.00286473
6.24128e-05
0.00283456
0.000157337
0.00279223
0.000240221
0.00274218
0.00030041
0.00268971
0.000329085
0.00264032
0.000321832
0.00259893
0.000280819
0.00256902
0.000215038
0.00255207
0.000137629
0.00254747
6.24585e-05
0.00255292
-1.05081e-07
0.00256504
-4.33552e-05
0.00258056
-6.73774e-05
0.00259603
-7.1834e-05
0.00260982
-6.50296e-05
0.00261921
-4.60374e-05
-1.57063e-05
0.00250196
-1.57792e-05
0.00250823
-4.9518e-05
0.00251973
-8.76477e-05
0.00253766
-0.000130536
0.00256338
-0.000177558
0.00259819
-0.000226175
0.00264293
-0.00027192
0.00269654
-0.000305113
0.00275573
-0.000315349
0.00281136
-0.000285291
0.00285179
-0.000207707
0.00287117
-0.000101753
0.00286634
1.7208e-05
0.00283538
0.00013622
0.00278405
0.000225048
0.00272512
0.000257439
0.0026736
0.000224395
0.00264312
0.000132893
0.00264343
3.34766e-06
0.00267782
-0.000132297
0.0027383
-0.000228696
0.00280327
-0.000239086
0.00284572
-0.000146931
0.00284811
1.52446e-05
0.00281001
0.000187741
0.0027433
0.000321725
0.00266272
0.000396466
0.00258035
0.000411299
0.00250518
0.000371673
0.00244554
0.000280213
0.00241183
0.000135125
0.00241646
-6.24411e-05
0.00246991
-0.000291816
0.00257353
-0.000498373
0.00270983
-0.000601542
0.00283852
-0.000536749
0.00291382
-0.000311028
0.00291386
-1.11735e-05
0.00285049
0.000256234
0.00275301
0.000428162
0.00264776
0.00049851
0.00254981
0.000490357
0.00246492
0.000426844
0.00239533
0.000318317
0.00234735
0.00016075
0.00233704
-5.52994e-05
0.00238297
-0.000316413
0.00248742
-0.000559903
0.00262735
-0.000692482
0.00276457
-0.000646534
0.00286197
-0.000422968
0.00289521
-9.29289e-05
0.00285961
0.000235979
0.00277179
0.000470676
0.00266021
0.000574007
0.00254981
0.000565313
0.0024542
0.000485353
0.00238138
0.000356869
0.00234385
0.000172895
0.00235777
-7.54681e-05
0.00242972
-0.000357885
0.00254691
-0.000598653
0.00268106
-0.000714913
0.00279963
-0.000661321
0.00287595
-0.000449837
0.00289588
-0.000141417
0.00285999
0.000179854
0.002781
0.000436136
0.00267791
0.000580937
0.00256989
0.000608855
0.00247299
0.000542384
0.00240171
0.000403574
0.00237109
0.000198584
0.00239289
-6.53414e-05
0.00246736
-0.000351108
0.00257995
-0.000591031
0.00270627
-0.000716999
0.00281998
-0.000691507
0.00289881
-0.000520184
0.0029284
-0.000246869
0.00290517
6.22677e-05
0.00283712
0.00033935
0.00274036
0.000534616
0.00263293
0.000626735
0.00253061
0.000618808
0.00244727
0.000523793
0.00239687
0.000351158
0.00239189
0.000109687
0.00243735
-0.000174692
0.00252608
-0.000449192
0.00264038
-0.000649883
0.00275804
-0.000728233
0.00285799
-0.000667732
0.00292383
-0.000485447
0.00294559
-0.00022417
0.0029211
5.96279e-05
0.00285682
0.000309732
0.00276649
0.000484988
0.00266712
0.000567381
0.00257538
0.000556952
0.00250681
0.000459138
0.00247586
0.000278806
0.00249276
2.9951e-05
0.00255738
-0.000248913
0.00265668
-0.000496417
0.00276915
-0.000652495
0.00287258
-0.000683643
0.00294977
-0.000591834
0.00299086
-0.000407741
0.0029932
-0.000177659
0.00296045
4.88968e-05
0.00290148
0.000228945
0.0028288
0.000334151
0.00275643
0.00035477
0.00269852
0.000296047
0.00266849
0.000170147
0.0026768
-7.45845e-06
0.00272649
-0.000213229
0.00281034
-0.000412226
0.00291361
-0.0005656
0.00302002
-0.000643016
0.00311591
-0.000629903
0.00319111
-0.000527672
0.00323833
-0.000350846
0.00325275
-0.000123865
0.00323231
0.000121863
0.00317882
0.000351049
0.00309854
0.000530476
0.00300177
0.000636506
0.00290092
0.00066056
0.00280772
0.000609806
0.00273099
0.000502961
0.00267585
0.000363373
0.0026443
0.000212435
0.00263616
6.61529e-05
0.0026493
-6.41545e-05
0.00267935
-0.000169255
0.00271996
-0.000241026
0.00276381
-0.000273517
0.00280386
-0.000264539
0.00283425
-0.000216488
0.00285069
-0.00013615
0.00285083
-3.36791e-05
0.00283443
7.88166e-05
0.00280331
0.000188453
0.00276105
0.000282488
0.00271235
0.000349104
0.00266252
0.000378918
0.00261677
0.000367583
0.00257956
0.000318026
0.00255391
0.000240686
0.00254092
0.00015062
0.00253965
6.37313e-05
0.00254762
-8.07734e-06
0.00256148
-5.72099e-05
0.00257816
-8.40594e-05
0.00259462
-8.82922e-05
0.00260957
-7.99782e-05
0.00262018
-5.66553e-05
-2.10518e-05
0.00250175
-1.75335e-05
0.00250745
-5.52118e-05
0.00251813
-9.83318e-05
0.00253526
-0.000147661
0.00256062
-0.000202918
0.00259622
-0.000261781
0.00264382
-0.00031952
0.00270318
-0.00036447
0.00277145
-0.000383618
0.00283692
-0.000350764
0.00288437
-0.000255155
0.00290731
-0.000124696
0.00290169
2.28362e-05
0.00286363
0.000174273
0.00279973
0.00028895
0.0027261
0.00033107
0.00266149
0.000289003
0.00262284
0.000171547
0.00262283
3.35961e-06
0.00266708
-0.000176555
0.00274665
-0.000308261
0.00283333
-0.000325767
0.00289066
-0.00020426
0.00289554
1.03618e-05
0.00284902
0.000234263
0.00276836
0.000402382
0.00267294
0.000491891
0.00257677
0.000507465
0.00248897
0.00045947
0.00241763
0.000351557
0.00237195
0.000180805
0.002362
-5.24965e-05
0.00240073
-0.000330541
0.0025009
-0.000598542
0.00265619
-0.000756836
0.00282418
-0.000704739
0.00294074
-0.000427586
0.0029626
-3.30339e-05
0.00289557
0.00032327
0.00277955
0.000544182
0.00265421
0.000623846
0.00254039
0.000604175
0.00244193
0.00052531
0.00235782
0.000402422
0.00229736
0.00022121
0.00228511
-4.30461e-05
0.00234306
-0.000374368
0.00246681
-0.00068365
0.00262409
-0.000849764
0.0027722
-0.000794643
0.0028745
-0.000525266
0.00290906
-0.000127485
0.00287224
0.000272794
0.0027796
0.00056332
0.0026591
0.000694501
0.00253722
0.000687193
0.00243033
0.000592243
0.00235024
0.00043696
0.00231318
0.000209958
0.00233547
-9.77582e-05
0.00241911
-0.000441525
0.00254603
-0.000725576
0.00268595
-0.000854831
0.0028072
-0.000782569
0.00288413
-0.000526766
0.00290228
-0.000159574
0.00286181
0.000220329
0.00277625
0.000521694
0.00266601
0.000691183
0.00255119
0.000723671
0.002449
0.000644577
0.0023759
0.000476669
0.00234845
0.000226039
0.00237727
-9.4165e-05
0.00245915
-0.000432986
0.00257642
-0.000708298
0.00270385
-0.000844427
0.00281624
-0.000803901
0.00289301
-0.000596955
0.00292069
-0.000274545
0.00289525
8.7701e-05
0.00282386
0.000410745
0.00272258
0.000635892
0.00261043
0.000738887
0.0025046
0.00072464
0.00242042
0.000607969
0.00237283
0.000398754
0.00237369
0.000108825
0.00242561
-0.000226617
0.00251866
-0.000542236
0.00263374
-0.000764967
0.00274901
-0.000843501
0.00284479
-0.000763512
0.00290615
-0.000546811
0.0029241
-0.00024212
0.00289659
8.71466e-05
0.00282956
0.000376755
0.00273628
0.000578272
0.002634
0.000669657
0.00254066
0.000650294
0.00247359
0.00052621
0.00244829
0.000304105
0.00247368
4.56007e-06
0.00254602
-0.00032125
0.00264854
-0.000598935
0.00275821
-0.000762173
0.00285377
-0.000779202
0.00292025
-0.00065831
0.00294999
-0.000437485
0.00294191
-0.000169581
0.00290049
9.03175e-05
0.00283488
0.000294556
0.00275753
0.000411505
0.00268273
0.000429567
0.00262575
0.000353027
0.00260121
0.000194686
0.00261854
-2.47845e-05
0.00267639
-0.000271077
0.00276262
-0.00049846
0.00286096
-0.000663936
0.00295753
-0.000739592
0.00304261
-0.000714976
0.00310902
-0.000594086
0.00315091
-0.00039274
0.00316381
-0.000136766
0.00314546
0.000140215
0.00309691
0.000399596
0.00302333
0.000604059
0.0029338
0.000726042
0.00283974
0.00075462
0.00275236
0.00069718
0.00268041
0.000574918
0.0026293
0.000414479
0.00260162
0.000240118
0.00259749
7.02802e-05
0.00261437
-8.10359e-05
0.00264695
-0.000201836
0.00268818
-0.00028225
0.00273084
-0.000316177
0.00276869
-0.00030239
0.00279678
-0.000244583
0.00281149
-0.000150853
0.00281065