/*--------------------------------*- C++ -*----------------------------------*\
  =========                 |
  \\      /  F ield         | OpenFOAM: The Open Source CFD Toolbox
   \\    /   O peration     | Website:  https://openfoam.org
    \\  /    A nd           | Version:  11
     \\/     M anipulation  |
\*---------------------------------------------------------------------------*/
FoamFile
{
    format      ascii;
    class       volVectorField;
    location    "9.233376";
    object      vorticity;
}
// * * * * * * * * * * * * * * * * * * * * * * * * * * * * * * * * * * * * * //

dimensions      [0 0 -1 0 0 0 0];

internalField   nonuniform List<vector> 
7132
(
(-4.26964e-17 -1.83328e-15 -0.0111307)
(-1.47362e-16 -1.78904e-15 -0.0111635)
(-1.37977e-16 -1.46448e-17 -0.0111882)
(-1.65777e-16 -1.77872e-15 -0.0112137)
(-2.1557e-16 -1.76904e-15 -0.011258)
(-2.12139e-16 -9.25778e-19 -0.0113386)
(-1.93164e-16 1.26855e-17 -0.0114681)
(-1.76642e-16 1.21822e-17 -0.0116478)
(-1.08952e-16 8.06765e-18 -0.0118711)
(-8.39584e-17 7.39448e-18 -0.0121202)
(-1.05162e-16 5.93936e-18 -0.012367)
(-2.39812e-17 8.87938e-18 -0.0125987)
(-7.92496e-17 4.98499e-18 -0.0127868)
(-8.14669e-17 8.18507e-17 -0.0129093)
(2.03309e-16 -1.56818e-15 -0.0129503)
(5.7051e-16 -1.56982e-15 -0.0128991)
(9.58759e-16 -1.67781e-15 -0.012755)
(1.07823e-15 1.51656e-18 -0.0125297)
(1.12471e-15 -1.66539e-15 -0.0122511)
(8.91543e-16 -1.68935e-15 -0.0119659)
(2.66306e-16 1.75821e-17 -0.0117391)
(-4.93539e-16 4.43045e-17 -0.0116411)
(-1.13197e-15 6.87278e-17 -0.0117331)
(-1.49307e-15 3.6189e-17 -0.0120449)
(-1.6686e-15 1.7581e-15 -0.0125421)
(-1.60395e-15 4.59304e-17 -0.0131272)
(-1.49399e-15 4.05399e-17 -0.0136629)
(-1.4156e-15 5.10768e-17 -0.0140078)
(-1.50999e-15 7.84445e-17 -0.0140454)
(-1.70357e-15 1.8001e-15 -0.0136978)
(-4.66084e-16 1.7779e-15 -0.0129273)
(8.93842e-16 2.54832e-15 -0.01176)
(-2.40244e-14 2.96417e-15 -0.0103838)
(-5.53938e-14 1.98166e-15 -0.00916143)
(3.40787e-13 -1.63238e-14 -0.00838427)
(1.71559e-12 -3.85552e-14 -0.00813149)
(3.20578e-12 -3.49818e-14 -0.00830646)
(3.1907e-12 -6.1724e-15 -0.00884159)
(1.88134e-12 2.69326e-14 -0.00988194)
(6.89294e-13 3.45711e-14 -0.0115807)
(1.34739e-13 2.61639e-14 -0.0136558)
(-1.38834e-14 9.39977e-15 -0.0155615)
(2.71283e-15 -1.64463e-15 -0.0168594)
(-3.3759e-14 4.81071e-14 -0.0173081)
(-2.89808e-13 9.40933e-14 -0.0168295)
(2.17525e-13 -3.65278e-13 -0.0154571)
(3.59942e-12 -1.70342e-12 -0.0133332)
(2.59971e-12 -2.25031e-13 -0.0109645)
(-3.71963e-11 1.67476e-11 -0.00977345)
(-1.38426e-10 6.12771e-11 -0.0117415)
(-2.22196e-10 1.16155e-10 -0.0175349)
(-1.96858e-10 1.28001e-10 -0.0253609)
(-1.51219e-10 6.03813e-11 -0.0319116)
(-1.97435e-10 -4.71527e-11 -0.0335691)
(-2.43934e-10 -1.12488e-10 -0.0295718)
(-2.11553e-10 -1.08404e-10 -0.0243404)
(-1.33301e-10 -7.13568e-11 -0.0214727)
(-5.27457e-11 -3.49455e-11 -0.0209488)
(-4.23731e-12 -1.07964e-11 -0.0215365)
(1.05871e-11 1.96453e-13 -0.0218846)
(8.30329e-12 2.58998e-12 -0.02118)
(3.05832e-12 1.64916e-12 -0.0193496)
(1.66256e-13 4.93243e-13 -0.0168143)
(-5.17241e-13 -2.71884e-14 -0.0141238)
(-4.43168e-13 -1.06708e-13 -0.0117839)
(-6.30149e-13 -5.58801e-14 -0.0101827)
(-1.46657e-12 3.74385e-15 -0.00943293)
(-2.6944e-12 7.86613e-14 -0.00940841)
(-3.60172e-12 1.35929e-13 -0.00991301)
(-3.63507e-12 1.22354e-13 -0.0108006)
(-2.86223e-12 4.28022e-14 -0.0119702)
(-1.80499e-12 -4.86489e-14 -0.0132518)
(-9.24115e-13 -8.82902e-14 -0.0143997)
(-3.80322e-13 -9.21175e-14 -0.0152052)
(-1.22577e-13 -6.92897e-14 -0.01556)
(-3.49181e-14 -4.27765e-14 -0.0154629)
(-2.23611e-14 -2.4676e-14 -0.0149951)
(-3.23716e-14 -9.5421e-15 -0.0142819)
(-4.50665e-14 -2.50897e-15 -0.0134564)
(-5.73899e-14 2.1728e-15 -0.0126336)
(-7.14009e-14 1.11521e-14 -0.0118969)
(-8.88018e-14 1.43268e-14 -0.0112965)
(-1.08894e-13 1.99467e-14 -0.0108544)
(-1.28962e-13 2.03668e-14 -0.0105734)
(-1.45033e-13 2.01963e-14 -0.010441)
(-1.52749e-13 1.92277e-14 -0.0104325)
(-1.49102e-13 1.25996e-14 -0.0105162)
(-1.33711e-13 8.27974e-15 -0.0106602)
(-1.09812e-13 7.51851e-16 -0.0108347)
(-8.37121e-14 -3.47661e-15 -0.0110127)
(-6.23065e-14 -3.8052e-15 -0.0111701)
(-4.97314e-14 -5.73652e-15 -0.0112873)
(-4.6346e-14 -3.02719e-15 -0.0113517)
(-4.99159e-14 -1.61049e-15 -0.0113596)
(-5.71337e-14 -2.03722e-15 -0.0113154)
(-6.47584e-14 6.50815e-16 -0.0112296)
(-7.03313e-14 -5.74106e-16 -0.0111164)
(-7.22663e-14 1.23265e-15 -0.0109907)
(-6.96587e-14 8.50996e-16 -0.0108662)
(-6.20756e-14 -1.7834e-15 -0.0107536)
(-4.92992e-14 -1.46725e-15 -0.0106599)
(-3.13678e-14 -5.09589e-15 -0.0105885)
(-8.63586e-15 -5.55652e-15 -0.0105396)
(1.80936e-14 -7.79692e-15 -0.0105109)
(4.74963e-14 -1.15423e-14 -0.0104986)
(7.79121e-14 -1.13029e-14 -0.0104981)
(1.0752e-13 -1.3858e-14 -0.0105044)
(1.34673e-13 -1.22194e-14 -0.010513)
(1.58139e-13 -1.16942e-14 -0.0105202)
(1.77247e-13 -1.25136e-14 -0.0105228)
(1.92008e-13 -9.71719e-15 -0.0105191)
(2.02997e-13 -1.05132e-14 -0.0105079)
(2.11228e-13 -8.15458e-15 -0.0104892)
(2.17922e-13 -7.97342e-15 -0.0104638)
(2.24269e-13 -1.0032e-14 -0.0104327)
(2.31341e-13 -9.076e-15 -0.0103976)
(2.39937e-13 -1.19743e-14 -0.01036)
(2.50588e-13 -1.16667e-14 -0.0103215)
(2.63522e-13 -1.32454e-14 -0.0102831)
(2.78673e-13 -1.66322e-14 -0.0102458)
(2.958e-13 -1.65019e-14 -0.0102101)
(3.14498e-13 -1.79724e-14 -0.010176)
(3.34301e-13 -1.92428e-14 -0.0101434)
(3.5471e-13 -2.02568e-14 -0.0101118)
(3.75202e-13 -2.27215e-14 -0.0100806)
(3.95353e-13 -2.13977e-14 -0.0100493)
(4.14824e-13 -2.15142e-14 -0.0100171)
(4.33447e-13 -2.14123e-14 -0.0099836)
(4.51203e-13 -2.12037e-14 -0.00994821)
(4.68206e-13 -2.27674e-14 -0.00991062)
(4.84749e-13 -2.10046e-14 -0.00987059)
(5.01212e-13 -2.12151e-14 -0.00982795)
(5.18047e-13 -2.17107e-14 -0.00978264)
(5.35665e-13 -2.24658e-14 -0.0097346)
(5.54324e-13 -2.51317e-14 -0.00968381)
(5.74136e-13 -2.43386e-14 -0.00963022)
(5.94971e-13 -2.51329e-14 -0.00957378)
(6.16499e-13 -2.56508e-14 -0.00951438)
(6.3818e-13 -2.58117e-14 -0.00945186)
(6.59298e-13 -2.73477e-14 -0.00938603)
(6.7911e-13 -2.50912e-14 -0.0093166)
(6.96897e-13 -2.43802e-14 -0.00924326)
(7.12128e-13 -2.36915e-14 -0.00916559)
(7.24548e-13 -2.3304e-14 -0.0090831)
(7.34289e-13 -2.53113e-14 -0.00899524)
(7.4208e-13 -2.49075e-14 -0.00890144)
(7.49329e-13 -2.77895e-14 -0.00880121)
(7.58285e-13 -3.27793e-14 -0.00869432)
(7.72049e-13 -4.04548e-14 -0.00858093)
(7.94532e-13 -5.31125e-14 -0.00846165)
(8.30413e-13 -6.59892e-14 -0.0083375)
(8.84881e-13 -8.46083e-14 -0.00820926)
(9.63426e-13 -1.07348e-13 -0.00807681)
(1.07141e-12 -1.34022e-13 -0.00793729)
(1.21365e-12 -1.66048e-13 -0.00778499)
(1.39423e-12 -1.96228e-13 -0.00760537)
(1.61323e-12 -2.34203e-13 -0.00739571)
(1.88208e-12 -2.47848e-13 -0.00706453)
(2.13752e-12 -3.68999e-13 -0.00692822)
(2.66261e-12 -2.51024e-13 -0.00563415)
(-4.28319e-17 -3.73692e-18 -0.0333013)
(-1.54192e-16 -6.4631e-18 -0.0334023)
(-1.51447e-16 -7.13176e-18 -0.0334773)
(-1.83486e-16 -8.59275e-18 -0.0335493)
(-2.41994e-16 -9.43731e-18 -0.0336704)
(-2.49297e-16 -8.74089e-18 -0.0338919)
(-2.53815e-16 -5.06296e-18 -0.0342537)
(-2.51022e-16 -2.99237e-17 -0.0347637)
(-1.15231e-16 3.43117e-15 -0.0354079)
(-1.95073e-16 5.4994e-18 -0.03614)
(-5.95813e-16 -2.40492e-17 -0.0368791)
(-7.17787e-16 1.73065e-15 -0.0375959)
(8.65129e-17 3.37278e-17 -0.0382148)
(1.66698e-15 -6.02754e-17 -0.0386881)
(3.35521e-15 -1.59493e-16 -0.0389909)
(4.15853e-15 -2.11553e-16 -0.0391174)
(3.85736e-15 -1.96889e-16 -0.0390897)
(1.82142e-15 -8.14577e-17 -0.0389479)
(-1.94167e-15 1.62887e-16 -0.0387444)
(-7.2511e-15 4.74146e-16 -0.0385351)
(-1.29941e-14 7.09911e-16 -0.0383726)
(-1.68719e-14 7.43441e-16 -0.0382844)
(-1.73291e-14 5.68494e-16 -0.0382659)
(-1.53627e-14 3.02812e-16 -0.0382855)
(-1.25244e-14 7.88108e-17 -0.038287)
(-9.83109e-15 -3.96788e-17 -0.0382155)
(-7.86214e-15 -5.36347e-17 -0.0380277)
(-6.68052e-15 5.90758e-17 -0.0376955)
(-6.53225e-15 2.15653e-16 -0.0372057)
(-5.51926e-15 -4.59967e-16 -0.0365635)
(4.57393e-15 4.84275e-16 -0.0358075)
(-3.52689e-15 1.08614e-14 -0.035068)
(-1.35601e-13 2.93767e-14 -0.0346679)
(1.55927e-13 -1.82152e-13 -0.0350294)
(3.19232e-12 -9.05285e-13 -0.0362335)
(1.01628e-11 -1.47105e-12 -0.0378241)
(1.68507e-11 -7.74275e-13 -0.0390881)
(1.67247e-11 6.54313e-13 -0.0395729)
(9.96466e-12 1.27417e-12 -0.0394031)
(3.48007e-12 9.04393e-13 -0.0390844)
(5.13691e-13 3.77746e-13 -0.0389238)
(-1.95182e-13 7.36815e-14 -0.0389146)
(-1.14356e-13 6.55845e-15 -0.0388511)
(-4.84251e-13 1.90891e-13 -0.0384532)
(-5.87331e-13 -3.50148e-14 -0.0375102)
(5.41022e-12 -2.30989e-12 -0.0360156)
(8.9782e-12 -2.89624e-12 -0.0345192)
(-5.77049e-11 2.01711e-11 -0.0351841)
(-2.08546e-10 8.7259e-11 -0.0414963)
(4.69685e-11 1.53774e-10 -0.0515966)
(1.6856e-09 1.45369e-10 -0.054001)
(4.79558e-09 9.25144e-11 -0.0427165)
(7.48143e-09 6.06682e-11 -0.0324938)
(7.4921e-09 -7.94969e-13 -0.0394761)
(4.97801e-09 -1.0543e-10 -0.0554507)
(2.10855e-09 -1.63724e-10 -0.0637764)
(3.78039e-10 -1.50759e-10 -0.060868)
(-1.74655e-10 -9.94807e-11 -0.0527597)
(-1.56e-10 -4.24628e-11 -0.046296)
(-4.14622e-11 -6.07558e-12 -0.0432644)
(1.16098e-11 6.35263e-12 -0.0417232)
(1.49749e-11 5.71942e-12 -0.0397612)
(5.84026e-12 2.27929e-12 -0.03711)
(3.25916e-13 2.79258e-13 -0.0345878)
(-1.98649e-12 -5.19899e-14 -0.0331299)
(-7.04201e-12 4.57551e-13 -0.0332066)
(-1.85439e-11 1.0376e-12 -0.0345777)
(-3.20086e-11 1.14451e-12 -0.0364865)
(-3.78826e-11 6.07999e-13 -0.0381354)
(-3.232e-11 -2.49123e-13 -0.0391208)
(-2.07078e-11 -8.70499e-13 -0.0394864)
(-1.03996e-11 -1.01424e-12 -0.0394279)
(-4.0021e-12 -8.02357e-13 -0.0390883)
(-9.91761e-13 -4.89414e-13 -0.0385245)
(7.93747e-15 -2.4373e-13 -0.0377437)
(1.30071e-13 -9.11497e-14 -0.036757)
(5.17528e-15 -2.42145e-14 -0.0356183)
(-1.20487e-13 7.4201e-17 -0.0344318)
(-1.98583e-13 1.17349e-14 -0.0333282)
(-2.48861e-13 1.53383e-14 -0.0324277)
(-2.96112e-13 2.85931e-14 -0.0318092)
(-3.50053e-13 3.48082e-14 -0.0314982)
(-4.05529e-13 3.82918e-14 -0.0314709)
(-4.48777e-13 4.01707e-14 -0.0316687)
(-4.62545e-13 3.03549e-14 -0.0320118)
(-4.31506e-13 2.29964e-14 -0.032413)
(-3.49646e-13 4.81519e-15 -0.0327934)
(-2.25483e-13 -1.30997e-14 -0.0330951)
(-8.283e-14 -2.25128e-14 -0.0332855)
(4.46649e-14 -2.89637e-14 -0.0333544)
(1.2648e-13 -1.90605e-14 -0.0333077)
(1.51327e-13 -1.19821e-14 -0.0331612)
(1.27138e-13 -2.93517e-15 -0.0329374)
(7.24299e-14 5.51853e-15 -0.0326629)
(7.71941e-15 7.1188e-15 -0.0323654)
(-5.00471e-14 8.98431e-15 -0.0320715)
(-8.96242e-14 4.91457e-15 -0.031804)
(-1.05116e-13 8.95971e-16 -0.0315801)
(-9.41757e-14 -2.50942e-15 -0.03141)
(-5.65241e-14 -1.02285e-14 -0.0312964)
(7.02832e-15 -1.50866e-14 -0.0312355)
(9.46854e-14 -2.36928e-14 -0.0312181)
(2.03167e-13 -3.02873e-14 -0.0312318)
(3.27417e-13 -3.41282e-14 -0.0312627)
(4.60464e-13 -3.97168e-14 -0.0312975)
(5.9412e-13 -3.95799e-14 -0.0313247)
(7.20074e-13 -4.05035e-14 -0.0313358)
(8.31139e-13 -3.75291e-14 -0.0313252)
(9.22475e-13 -3.12465e-14 -0.0312906)
(9.92096e-13 -2.77135e-14 -0.0312324)
(1.04101e-12 -2.08577e-14 -0.0311534)
(1.0727e-12 -1.83882e-14 -0.0310577)
(1.09226e-12 -1.56173e-14 -0.0309504)
(1.10549e-12 -1.27592e-14 -0.0308367)
(1.11788e-12 -1.50066e-14 -0.0307213)
(1.13409e-12 -1.51755e-14 -0.0306082)
(1.15752e-12 -1.9863e-14 -0.0305003)
(1.1901e-12 -2.34592e-14 -0.0303992)
(1.23255e-12 -2.55532e-14 -0.0303052)
(1.28437e-12 -3.10366e-14 -0.0302179)
(1.34423e-12 -3.26799e-14 -0.0301356)
(1.41025e-12 -3.54882e-14 -0.0300565)
(1.48026e-12 -3.93486e-14 -0.0299782)
(1.55204e-12 -3.89722e-14 -0.0298984)
(1.62352e-12 -4.13084e-14 -0.029815)
(1.69302e-12 -3.94743e-14 -0.0297262)
(1.75937e-12 -3.88265e-14 -0.0296308)
(1.82201e-12 -3.96019e-14 -0.029528)
(1.88105e-12 -3.68487e-14 -0.0294174)
(1.93722e-12 -3.78054e-14 -0.0292989)
(1.9918e-12 -3.57727e-14 -0.0291727)
(2.04649e-12 -3.61297e-14 -0.0290392)
(2.10304e-12 -3.89376e-14 -0.0288988)
(2.16305e-12 -3.88694e-14 -0.0287516)
(2.22759e-12 -4.26325e-14 -0.0285978)
(2.29699e-12 -4.29272e-14 -0.0284373)
(2.37075e-12 -4.45794e-14 -0.0282698)
(2.4474e-12 -4.72555e-14 -0.0280946)
(2.5247e-12 -4.54764e-14 -0.0279112)
(2.59977e-12 -4.60777e-14 -0.0277186)
(2.66951e-12 -4.21559e-14 -0.0275159)
(2.731e-12 -3.91546e-14 -0.0273019)
(2.78193e-12 -3.75174e-14 -0.0270754)
(2.8211e-12 -3.26499e-14 -0.0268348)
(2.84898e-12 -3.23424e-14 -0.0265788)
(2.8683e-12 -3.06925e-14 -0.0263057)
(2.88457e-12 -3.41571e-14 -0.0260142)
(2.90642e-12 -4.41394e-14 -0.0257039)
(2.94587e-12 -5.68435e-14 -0.0253754)
(3.01811e-12 -8.05596e-14 -0.025031)
(3.14111e-12 -1.09429e-13 -0.0246744)
(3.33477e-12 -1.4938e-13 -0.0243088)
(3.61984e-12 -2.00613e-13 -0.0239355)
(4.01644e-12 -2.574e-13 -0.0235484)
(4.54256e-12 -3.25725e-13 -0.0231327)
(5.21305e-12 -3.94281e-13 -0.0226486)
(6.02809e-12 -4.76391e-13 -0.0220884)
(7.02828e-12 -5.09995e-13 -0.0211844)
(7.98029e-12 -7.57531e-13 -0.0208613)
(9.9251e-12 -5.11835e-13 -0.0171674)
(-9.89963e-19 -4.2767e-20 -0.0552097)
(-1.62323e-17 -7.47949e-21 -0.0553786)
(-3.0345e-17 2.5034e-21 -0.0555004)
(-5.37113e-17 1.27224e-18 -0.0556111)
(-6.83365e-17 -1.40751e-18 -0.0557958)
(-8.32927e-17 4.98453e-18 -0.0561398)
(-2.31072e-16 1.35483e-17 -0.0567112)
(1.70645e-16 -4.3557e-17 -0.057525)
(-3.97796e-17 -1.99069e-17 -0.0585638)
(-1.8829e-15 2.34133e-16 -0.0597527)
(-1.19558e-15 2.74072e-16 -0.0609579)
(5.40223e-15 -3.32283e-16 -0.0621516)
(1.366e-14 -1.19418e-15 -0.0632119)
(1.64951e-14 -1.5525e-15 -0.064076)
(1.04855e-14 -1.07923e-15 -0.0647269)
(-3.23239e-15 -8.61745e-17 -0.0651878)
(-2.34166e-14 1.22547e-15 -0.065516)
(-4.89577e-14 2.90103e-15 -0.0657778)
(-7.65377e-14 4.60559e-15 -0.0660246)
(-9.85861e-14 5.57159e-15 -0.0662679)
(-1.07005e-13 4.828e-15 -0.0664681)
(-9.22269e-14 2.2118e-15 -0.0665044)
(-5.63077e-14 -6.85867e-16 -0.0662006)
(-2.10705e-14 -2.36619e-15 -0.0654051)
(1.1968e-15 -2.74246e-15 -0.0640519)
(9.98516e-15 -2.28518e-15 -0.0622325)
(1.03805e-14 -1.53475e-15 -0.0601889)
(7.23994e-15 -6.13866e-16 -0.0582612)
(5.43184e-15 -5.02183e-16 -0.0568127)
(2.26945e-14 -5.49449e-15 -0.0561606)
(2.29505e-14 -9.49624e-16 -0.0565509)
(-1.50362e-13 7.09068e-14 -0.0581959)
(6.02176e-13 -7.67662e-14 -0.0612709)
(4.93633e-12 -1.66373e-12 -0.0657069)
(7.99173e-13 -5.02145e-12 -0.0707948)
(-3.86398e-11 -6.86947e-12 -0.0752701)
(-9.03259e-11 -3.31774e-12 -0.0777728)
(-9.3463e-11 3.43685e-12 -0.0775114)
(-5.3703e-11 6.64581e-12 -0.0745602)
(-1.85085e-11 4.75831e-12 -0.0694697)
(-3.07897e-12 1.86205e-12 -0.0632221)
(6.26169e-13 3.21716e-13 -0.0571157)
(2.03025e-13 1.4289e-13 -0.0521926)
(-1.66536e-12 2.81125e-13 -0.0489941)
(4.74474e-12 -2.85489e-12 -0.0475315)
(2.20822e-11 -5.14979e-12 -0.0477752)
(-5.2348e-11 2.98524e-11 -0.0518825)
(-3.30192e-10 1.08537e-10 -0.0652722)
(-1.70545e-11 -3.55908e-11 -0.0838488)
(3.39568e-09 -8.85799e-10 -0.0722733)
(1.20804e-08 -2.25815e-09 0.0161292)
(2.438e-08 -2.76991e-09 0.17363)
(3.45825e-08 -1.28788e-09 0.311534)
(3.64101e-08 1.20456e-09 0.32618)
(2.82299e-08 2.57929e-09 0.20726)
(1.5593e-08 2.19158e-09 0.0524213)
(5.52489e-09 1.07025e-09 -0.0467999)
(5.63199e-10 2.32074e-10 -0.0749193)
(-6.774e-10 -7.73927e-11 -0.0652417)
(-4.68608e-10 -8.36082e-11 -0.050804)
(-1.25294e-10 -2.56286e-11 -0.0436914)
(1.93931e-11 4.53741e-12 -0.042531)
(3.37436e-11 7.81772e-12 -0.0439464)
(1.52484e-11 3.88964e-12 -0.046736)
(-3.88906e-12 3.579e-12 -0.0511428)
(-3.55438e-11 8.22283e-12 -0.0574032)
(-8.95168e-11 1.24905e-11 -0.0648173)
(-1.42799e-10 9.748e-12 -0.0714216)
(-1.56714e-10 2.95107e-13 -0.0749569)
(-1.21459e-10 -8.46157e-12 -0.0745793)
(-6.70326e-11 -1.09174e-11 -0.0712291)
(-2.68708e-11 -8.39629e-12 -0.0664387)
(-6.40844e-12 -4.79222e-12 -0.0613488)
(9.05992e-13 -2.09192e-12 -0.056682)
(1.99771e-12 -6.28485e-13 -0.0528343)
(1.13755e-12 -4.14158e-14 -0.0499477)
(1.88366e-13 1.04093e-13 -0.0480023)
(-3.72106e-13 9.23369e-14 -0.0469103)
(-6.17122e-13 6.51472e-14 -0.0465732)
(-7.20361e-13 5.44037e-14 -0.0468931)
(-7.90453e-13 6.17417e-14 -0.0477588)
(-8.48725e-13 7.25082e-14 -0.0490341)
(-8.60657e-13 6.93087e-14 -0.0505568)
(-7.7424e-13 5.23412e-14 -0.0521486)
(-5.41058e-13 1.32971e-14 -0.0536311)
(-1.39593e-13 -3.72191e-14 -0.054848)
(4.04647e-13 -8.69452e-14 -0.0556878)
(1.014e-12 -1.25128e-13 -0.0560963)
(1.57353e-12 -1.30852e-13 -0.0560807)
(1.96318e-12 -1.06397e-13 -0.0556997)
(2.103e-12 -5.71356e-14 -0.0550475)
(1.99856e-12 -4.33058e-15 -0.0542338)
(1.72135e-12 3.64203e-14 -0.0533664)
(1.36558e-12 5.80987e-14 -0.0525383)
(1.01586e-12 6.09352e-14 -0.0518199)
(7.31357e-13 4.93226e-14 -0.0512563)
(5.43995e-13 2.86968e-14 -0.0508678)
(4.64896e-13 3.50756e-15 -0.0506534)
(4.92801e-13 -2.3445e-14 -0.0505949)
(6.20615e-13 -5.06507e-14 -0.0506623)
(8.38529e-13 -7.7072e-14 -0.0508184)
(1.13416e-12 -1.0143e-13 -0.051024)
(1.49123e-12 -1.21922e-13 -0.0512415)
(1.8885e-12 -1.36445e-13 -0.0514383)
(2.30027e-12 -1.43159e-13 -0.051589)
(2.69873e-12 -1.41108e-13 -0.0516767)
(3.0576e-12 -1.30633e-13 -0.0516934)
(3.35613e-12 -1.1342e-13 -0.051639)
(3.58215e-12 -9.21728e-14 -0.0515201)
(3.73339e-12 -7.00452e-14 -0.0513484)
(3.81684e-12 -5.00202e-14 -0.0511386)
(3.84659e-12 -3.44051e-14 -0.0509063)
(3.84077e-12 -2.45463e-14 -0.0506664)
(3.81841e-12 -2.07832e-14 -0.0504315)
(3.79684e-12 -2.2602e-14 -0.0502113)
(3.78984e-12 -2.88934e-14 -0.0500121)
(3.8068e-12 -3.82435e-14 -0.0498366)
(3.8526e-12 -4.91853e-14 -0.0496842)
(3.92805e-12 -6.03805e-14 -0.0495519)
(4.03068e-12 -7.07351e-14 -0.0494349)
(4.15566e-12 -7.94424e-14 -0.0493273)
(4.29674e-12 -8.59883e-14 -0.0492228)
(4.44717e-12 -9.01346e-14 -0.0491155)
(4.6004e-12 -9.18881e-14 -0.0490004)
(4.75079e-12 -9.14766e-14 -0.0488735)
(4.89401e-12 -8.93218e-14 -0.048732)
(5.02743e-12 -8.601e-14 -0.0485746)
(5.15027e-12 -8.22511e-14 -0.0484008)
(5.26356e-12 -7.88081e-14 -0.0482113)
(5.37001e-12 -7.64103e-14 -0.0480071)
(5.47361e-12 -7.56417e-14 -0.0477899)
(5.57909e-12 -7.68348e-14 -0.0475612)
(5.69125e-12 -7.99903e-14 -0.0473222)
(5.81421e-12 -8.47376e-14 -0.0470738)
(5.95066e-12 -9.03672e-14 -0.0468165)
(6.10129e-12 -9.59216e-14 -0.04655)
(6.2644e-12 -1.0034e-13 -0.0462738)
(6.43588e-12 -1.02623e-13 -0.0459866)
(6.60945e-12 -1.01993e-13 -0.045687)
(6.77727e-12 -9.80178e-14 -0.0453733)
(6.93079e-12 -9.07102e-14 -0.0450437)
(7.06185e-12 -8.059e-14 -0.044696)
(7.1639e-12 -6.87376e-14 -0.0443284)
(7.23338e-12 -5.68317e-14 -0.0439383)
(7.27119e-12 -4.7179e-14 -0.0435234)
(7.2841e-12 -4.27005e-14 -0.0430814)
(7.28606e-12 -4.68495e-14 -0.0426103)
(7.29911e-12 -6.34303e-14 -0.0421095)
(7.35375e-12 -9.62992e-14 -0.0415804)
(7.48844e-12 -1.48996e-13 -0.0410271)
(7.74825e-12 -2.2432e-13 -0.0404561)
(8.18253e-12 -3.23974e-13 -0.0398743)
(8.8421e-12 -4.48182e-13 -0.0392856)
(9.77545e-12 -5.95382e-13 -0.0386831)
(1.10252e-11 -7.6262e-13 -0.0380461)
(1.26251e-11 -9.38995e-13 -0.0373137)
(1.45743e-11 -1.14182e-12 -0.0364744)
(1.69623e-11 -1.22394e-12 -0.0350945)
(1.92397e-11 -1.81741e-12 -0.0346671)
(2.38433e-11 -1.2217e-12 -0.0288188)
(-3.9826e-17 4.87421e-18 -0.0766654)
(-1.43892e-16 8.21443e-18 -0.0769005)
(-1.23194e-16 1.16077e-17 -0.0770617)
(-1.82407e-16 1.0403e-17 -0.0771986)
(-3.07389e-17 5.35339e-18 -0.0774301)
(-5.29625e-16 7.26269e-17 -0.0778772)
(3.17412e-16 -1.32032e-16 -0.0786374)
(1.22278e-15 -1.2557e-16 -0.0797322)
(-6.18151e-15 2.72322e-15 -0.0811423)
(-1.11189e-15 5.83399e-16 -0.0827572)
(2.91973e-14 -5.40134e-15 -0.0843794)
(4.38669e-14 -5.69713e-15 -0.0860046)
(-1.92239e-15 -5.51272e-15 -0.0874469)
(-1.00099e-13 1.52696e-15 -0.0886218)
(-2.06835e-13 9.70426e-15 -0.0895097)
(-2.87314e-13 1.67395e-14 -0.09014)
(-3.51128e-13 2.26658e-14 -0.0906059)
(-3.84773e-13 2.64791e-14 -0.0910058)
(-3.59998e-13 2.49771e-14 -0.0914085)
(-2.38767e-13 1.5708e-14 -0.0918202)
(-8.0257e-15 -2.46969e-15 -0.0921776)
(2.94073e-13 -2.46054e-14 -0.0922993)
(5.44712e-13 -3.50097e-14 -0.0919069)
(6.48905e-13 -2.84494e-14 -0.090756)
(6.14651e-13 -1.5449e-14 -0.0887412)
(5.01847e-13 -4.63153e-15 -0.0859792)
(3.73017e-13 1.31898e-15 -0.0828157)
(2.64733e-13 2.53341e-15 -0.0797914)
(2.24306e-13 -7.51162e-15 -0.0775409)
(2.79995e-13 -9.2193e-15 -0.0766396)
(-1.10605e-13 8.70124e-14 -0.0775061)
(-2.18117e-13 -2.78751e-13 -0.0804361)
(9.12262e-12 -2.51397e-12 -0.0854394)
(1.49491e-11 -2.80651e-13 -0.0919317)
(-1.09832e-10 2.08811e-11 -0.0997316)
(-4.92715e-10 4.40915e-11 -0.109228)
(-9.28073e-10 2.66373e-11 -0.116627)
(-9.92881e-10 -1.76571e-11 -0.116025)
(-6.44567e-10 -3.62031e-11 -0.108345)
(-2.59705e-10 -2.44076e-11 -0.0982854)
(-5.58402e-11 -9.1896e-12 -0.0877955)
(6.66918e-12 -1.56732e-12 -0.0775895)
(8.45069e-12 1.15233e-12 -0.0688913)
(3.25582e-12 -2.07997e-12 -0.0629737)
(2.98059e-11 -1.19088e-11 -0.0600619)
(6.21721e-12 2.62365e-11 -0.061332)
(-3.53718e-10 1.73241e-10 -0.0741879)
(-5.08875e-10 2.52435e-12 -0.100746)
(2.81596e-09 -1.77568e-09 -0.096577)
(1.38089e-08 -5.89496e-09 0.0277957)
(3.15645e-08 -1.03468e-08 0.311431)
(4.98374e-08 -1.11585e-08 0.68883)
(6.34777e-08 -5.95441e-09 1.03192)
(6.91302e-08 3.17548e-09 1.17564)
(6.20664e-08 1.03031e-08 0.997454)
(4.25013e-08 1.11888e-08 0.585139)
(2.03468e-08 7.36412e-09 0.186103)
(5.30712e-09 3.00167e-09 -0.0377581)
(-7.61933e-10 4.73441e-10 -0.0963259)
(-1.50517e-09 -2.82129e-10 -0.0802871)
(-7.13857e-10 -2.37648e-10 -0.0574089)
(-1.09234e-10 -7.37994e-11 -0.0485811)
(7.94655e-11 4.35169e-12 -0.0507856)
(6.60586e-11 1.90956e-11 -0.0581157)
(6.52926e-12 2.53441e-11 -0.0682998)
(-4.44282e-11 4.32714e-11 -0.0813598)
(-5.30138e-11 5.46651e-11 -0.0962211)
(-1.12799e-11 3.47416e-11 -0.109002)
(4.5057e-11 -1.0062e-11 -0.115062)
(8.26285e-11 -4.50883e-11 -0.112817)
(8.89201e-11 -4.81644e-11 -0.104884)
(6.37966e-11 -3.13263e-11 -0.0950996)
(3.42785e-11 -1.46908e-11 -0.0854549)
(1.48881e-11 -4.69249e-12 -0.076926)
(5.17278e-12 -3.59481e-13 -0.0700579)
(9.01432e-13 8.13509e-13 -0.06508)
(-8.55171e-13 7.30613e-13 -0.0619681)
(-1.50047e-12 4.02819e-13 -0.0605383)
(-1.68641e-12 1.85862e-13 -0.0605327)
(-1.72805e-12 1.02017e-13 -0.0616676)
(-1.71446e-12 9.27715e-14 -0.0636509)
(-1.55543e-12 6.99103e-14 -0.0661863)
(-1.06779e-12 1.05378e-15 -0.0689787)
(-7.71455e-14 -1.19629e-13 -0.0717418)
(1.51682e-12 -2.8697e-13 -0.0742105)
(3.65729e-12 -4.49855e-13 -0.0761684)
(6.09244e-12 -5.7198e-13 -0.0774706)
(8.41799e-12 -5.97541e-13 -0.0780585)
(1.01893e-11 -4.97104e-13 -0.0779616)
(1.10579e-11 -2.93699e-13 -0.0772847)
(1.08976e-11 -3.67513e-14 -0.0761848)
(9.88777e-12 1.7884e-13 -0.0748425)
(8.38652e-12 3.13559e-13 -0.0734346)
(6.76551e-12 3.58263e-13 -0.0721135)
(5.31044e-12 3.24228e-13 -0.0709937)
(4.18995e-12 2.44918e-13 -0.0701458)
(3.47138e-12 1.38145e-13 -0.069597)
(3.15543e-12 2.64929e-14 -0.0693378)
(3.20928e-12 -8.03689e-14 -0.0693301)
(3.58808e-12 -1.83092e-13 -0.0695176)
(4.24334e-12 -2.71859e-13 -0.0698349)
(5.12211e-12 -3.50041e-13 -0.0702159)
(6.16265e-12 -4.07456e-13 -0.0705998)
(7.29172e-12 -4.38651e-13 -0.070936)
(8.42715e-12 -4.44831e-13 -0.0711871)
(9.48579e-12 -4.18242e-13 -0.07133)
(1.03941e-11 -3.69204e-13 -0.0713555)
(1.10985e-11 -2.99807e-13 -0.0712673)
(1.15734e-11 -2.19877e-13 -0.0710788)
(1.18231e-11 -1.45056e-13 -0.0708107)
(1.18772e-11 -7.74568e-14 -0.0704874)
(1.17838e-11 -3.03533e-14 -0.0701342)
(1.15992e-11 -1.53093e-15 -0.0697745)
(1.13792e-11 9.20501e-15 -0.0694277)
(1.11721e-11 -7.1804e-16 -0.0691081)
(1.10145e-11 -2.01549e-14 -0.0688242)
(1.09297e-11 -5.12448e-14 -0.068579)
(1.09278e-11 -8.40873e-14 -0.0683705)
(1.1008e-11 -1.14595e-13 -0.068193)
(1.11609e-11 -1.4484e-13 -0.0680383)
(1.13713e-11 -1.65709e-13 -0.0678965)
(1.16211e-11 -1.81241e-13 -0.0677581)
(1.18914e-11 -1.91178e-13 -0.0676139)
(1.21652e-11 -1.90782e-13 -0.0674564)
(1.24283e-11 -1.88112e-13 -0.06728)
(1.26707e-11 -1.77799e-13 -0.0670812)
(1.28875e-11 -1.66958e-13 -0.0668583)
(1.30783e-11 -1.57665e-13 -0.0666114)
(1.32477e-11 -1.46719e-13 -0.0663418)
(1.34037e-11 -1.42829e-13 -0.0660518)
(1.35572e-11 -1.40311e-13 -0.0657439)
(1.37203e-11 -1.4495e-13 -0.0654208)
(1.39046e-11 -1.56497e-13 -0.0650844)
(1.41196e-11 -1.68575e-13 -0.0647361)
(1.43713e-11 -1.86173e-13 -0.0643765)
(1.46604e-11 -1.99799e-13 -0.0640053)
(1.49823e-11 -2.11877e-13 -0.0636214)
(1.53262e-11 -2.19781e-13 -0.0632233)
(1.56764e-11 -2.1617e-13 -0.0628087)
(1.60134e-11 -2.06748e-13 -0.0623752)
(1.6316e-11 -1.84445e-13 -0.0619203)
(1.6564e-11 -1.55706e-13 -0.0614412)
(1.67411e-11 -1.23283e-13 -0.060935)
(1.68383e-11 -8.62977e-14 -0.0603988)
(1.68572e-11 -5.77039e-14 -0.0598294)
(1.68134e-11 -3.81264e-14 -0.0592235)
(1.67394e-11 -4.16606e-14 -0.0585788)
(1.66862e-11 -7.79847e-14 -0.0578941)
(1.67238e-11 -1.51509e-13 -0.0571714)
(1.69401e-11 -2.7781e-13 -0.056416)
(1.74366e-11 -4.56472e-13 -0.0556366)
(1.83232e-11 -6.96306e-13 -0.0548433)
(1.97114e-11 -9.97076e-13 -0.0540424)
(2.17048e-11 -1.34893e-12 -0.0532265)
(2.43921e-11 -1.75054e-12 -0.0523697)
(2.78398e-11 -2.16883e-12 -0.0513922)
(3.20402e-11 -2.64498e-12 -0.0502796)
(3.71653e-11 -2.84271e-12 -0.0484429)
(4.20574e-11 -4.19805e-12 -0.0479061)
(5.18053e-11 -2.81365e-12 -0.0400425)
(4.89216e-17 1.82654e-15 -0.0974326)
(1.92538e-16 1.7764e-15 -0.097732)
(1.36165e-16 1.92596e-17 -0.0979228)
(2.80212e-16 1.68977e-15 -0.0980665)
(4.46096e-16 1.90693e-15 -0.0983163)
(-1.31258e-15 1.56563e-15 -0.0988301)
(7.51085e-15 -8.62652e-16 -0.0997365)
(-1.57101e-14 3.23301e-15 -0.101063)
(-7.0302e-15 1.14743e-15 -0.102794)
(9.92712e-14 -1.92442e-14 -0.104775)
(6.31011e-14 -2.21882e-14 -0.106731)
(-3.04535e-13 1.52547e-14 -0.108725)
(-8.32711e-13 7.07618e-14 -0.110479)
(-1.20477e-12 1.00904e-13 -0.111884)
(-1.24521e-12 9.25283e-14 -0.112923)
(-9.81923e-13 7.55295e-14 -0.113658)
(-4.91794e-13 5.16895e-14 -0.11421)
(2.64603e-13 7.33618e-15 -0.114694)
(1.35252e-12 -6.49279e-14 -0.115199)
(2.81153e-12 -1.66945e-13 -0.115736)
(4.64539e-12 -2.61592e-13 -0.116244)
(6.2062e-12 -2.74157e-13 -0.116474)
(6.38559e-12 -1.78102e-13 -0.116026)
(5.41738e-12 -3.73357e-14 -0.114578)
(4.22456e-12 7.07866e-14 -0.112025)
(3.13996e-12 1.16797e-13 -0.108531)
(2.25576e-12 1.17022e-13 -0.104504)
(1.61371e-12 7.37419e-14 -0.100607)
(1.37843e-12 -8.13304e-15 -0.0976591)
(1.07634e-12 1.61934e-13 -0.0964229)
(-5.4499e-13 2.46385e-13 -0.0975089)
(6.37218e-12 -4.54741e-12 -0.101348)
(2.75173e-11 -7.66041e-12 -0.107304)
(-7.72605e-11 5.7812e-11 -0.114891)
(-5.18567e-10 2.48809e-10 -0.130173)
(-1.10664e-09 4.02249e-10 -0.159416)
(-1.55466e-09 2.46764e-10 -0.188713)
(-1.76615e-09 -1.38316e-10 -0.191718)
(-1.46727e-09 -3.59944e-10 -0.165963)
(-8.19184e-10 -2.89609e-10 -0.134963)
(-2.88668e-10 -1.31327e-10 -0.112382)
(-2.8284e-11 -3.18254e-11 -0.0969292)
(2.91562e-11 1.84957e-12 -0.0857067)
(3.83823e-11 -1.03982e-11 -0.0777413)
(6.9701e-11 -4.33735e-12 -0.073023)
(-1.91958e-10 1.8661e-10 -0.0781008)
(-8.41934e-10 2.87397e-10 -0.104307)
(9.22477e-10 -1.4763e-09 -0.119969)
(1.07524e-08 -7.19448e-09 -0.0183098)
(2.87611e-08 -1.52601e-08 0.262631)
(4.51516e-08 -2.02724e-08 0.637066)
(5.20166e-08 -1.87265e-08 1.02284)
(5.40047e-08 -1.09343e-08 1.44764)
(6.01111e-08 1.91021e-09 1.84551)
(6.71767e-08 1.58937e-08 1.92614)
(6.11133e-08 2.30514e-08 1.49328)
(3.95569e-08 1.96673e-08 0.778712)
(1.60894e-08 1.07864e-08 0.191997)
(1.96347e-09 3.32875e-09 -0.0836921)
(-2.34249e-09 -1.07646e-10 -0.129272)
(-1.85883e-09 -7.23595e-10 -0.0945108)
(-6.06096e-10 -3.92122e-10 -0.0652459)
(3.30796e-11 -7.98285e-11 -0.0595022)
(1.34573e-10 4.03612e-11 -0.0691584)
(1.31106e-10 5.88224e-11 -0.0855906)
(4.91759e-10 3.79961e-11 -0.102462)
(1.46562e-09 -4.08023e-12 -0.113723)
(2.65726e-09 -3.92874e-11 -0.118355)
(3.25071e-09 -4.66573e-11 -0.120677)
(2.87875e-09 -3.03931e-11 -0.122395)
(1.92841e-09 -1.49964e-12 -0.121332)
(9.87328e-10 1.89263e-11 -0.116401)
(3.70107e-10 1.9662e-11 -0.107766)
(8.07933e-11 1.24627e-11 -0.0975384)
(-1.0819e-11 6.36484e-12 -0.0881742)
(-2.20243e-11 2.97424e-12 -0.0811183)
(-1.39956e-11 1.30682e-12 -0.0767394)
(-7.06346e-12 5.07957e-13 -0.0748181)
(-3.98191e-12 1.80689e-13 -0.0749349)
(-3.08356e-12 6.84196e-14 -0.0766357)
(-2.6442e-12 -2.28641e-14 -0.0794722)
(-1.46685e-12 -2.49085e-13 -0.0830102)
(1.28453e-12 -6.69832e-13 -0.0868364)
(6.12089e-12 -1.23823e-12 -0.090563)
(1.31177e-11 -1.85392e-12 -0.0938425)
(2.16734e-11 -2.32329e-12 -0.0964037)
(3.05071e-11 -2.46557e-12 -0.0980746)
(3.79861e-11 -2.17357e-12 -0.0987966)
(4.2656e-11 -1.44907e-12 -0.0986238)
(4.37097e-11 -4.60538e-13 -0.0977049)
(4.1245e-11 5.29671e-13 -0.0962511)
(3.62747e-11 1.25121e-12 -0.0944957)
(3.01804e-11 1.59755e-12 -0.0926635)
(2.41884e-11 1.59614e-12 -0.0909488)
(1.91193e-11 1.34871e-12 -0.0894993)
(1.53688e-11 9.72324e-13 -0.0884076)
(1.30167e-11 5.4596e-13 -0.0877099)
(1.19631e-11 1.34555e-13 -0.0873931)
(1.20367e-11 -2.39768e-13 -0.0874054)
(1.30543e-11 -5.67677e-13 -0.0876702)
(1.48382e-11 -8.42352e-13 -0.0880988)
(1.72084e-11 -1.06109e-12 -0.0886022)
(1.99678e-11 -1.20673e-12 -0.0891)
(2.28959e-11 -1.2687e-12 -0.0895267)
(2.57579e-11 -1.24019e-12 -0.0898355)
(2.83319e-11 -1.12283e-12 -0.0899991)
(3.04301e-11 -9.36969e-13 -0.0900089)
(3.19255e-11 -7.03099e-13 -0.0898727)
(3.27735e-11 -4.54474e-13 -0.0896103)
(3.30102e-11 -2.21953e-13 -0.0892499)
(3.27373e-11 -2.86655e-14 -0.0888236)
(3.20973e-11 1.0462e-13 -0.0883634)
(3.12478e-11 1.77783e-13 -0.0878985)
(3.03374e-11 1.92768e-13 -0.0874528)
(2.94894e-11 1.59714e-13 -0.0870433)
(2.87926e-11 9.40496e-14 -0.0866798)
(2.8299e-11 5.12696e-15 -0.0863649)
(2.8027e-11 -8.83526e-14 -0.0860953)
(2.79674e-11 -1.76943e-13 -0.0858631)
(2.80905e-11 -2.52397e-13 -0.0856572)
(2.83539e-11 -3.07785e-13 -0.0854654)
(2.87097e-11 -3.46039e-13 -0.0852754)
(2.91106e-11 -3.62196e-13 -0.085076)
(2.95148e-11 -3.603e-13 -0.0848585)
(2.989e-11 -3.44236e-13 -0.0846162)
(3.0215e-11 -3.17185e-13 -0.0843454)
(3.04813e-11 -2.89817e-13 -0.0840446)
(3.06921e-11 -2.6237e-13 -0.0837146)
(3.08611e-11 -2.41508e-13 -0.0833575)
(3.10098e-11 -2.31186e-13 -0.0829764)
(3.11648e-11 -2.32188e-13 -0.0825746)
(3.13543e-11 -2.50491e-13 -0.0821553)
(3.16042e-11 -2.79638e-13 -0.0817208)
(3.19348e-11 -3.18088e-13 -0.0812727)
(3.23574e-11 -3.60795e-13 -0.0808113)
(3.28721e-11 -3.9971e-13 -0.080336)
(3.3466e-11 -4.33233e-13 -0.0798453)
(3.41133e-11 -4.49691e-13 -0.0793368)
(3.47773e-11 -4.45599e-13 -0.078808)