/*--------------------------------*- C++ -*----------------------------------*\
  =========                 |
  \\      /  F ield         | OpenFOAM: The Open Source CFD Toolbox
   \\    /   O peration     | Website:  https://openfoam.org
    \\  /    A nd           | Version:  11
     \\/     M anipulation  |
\*---------------------------------------------------------------------------*/
FoamFile
{
    format      ascii;
    class       volVectorField;
    location    "15.169246";
    object      U;
}
// * * * * * * * * * * * * * * * * * * * * * * * * * * * * * * * * * * * * * //

dimensions      [0 1 -1 0 0 0 0];

internalField   nonuniform List<vector> 
7132
(
(1.0001 -0.000203381 4.30452e-18)
(1.00157 -0.000622982 1.541e-17)
(1.00499 -0.00109039 1.58812e-17)
(1.01033 -0.00161976 1.98421e-17)
(1.01793 -0.00221106 2.56359e-17)
(1.02801 -0.00283283 2.43095e-17)
(1.04061 -0.00342848 2.1524e-17)
(1.05548 -0.00389528 1.89008e-17)
(1.07188 -0.00412418 1.65149e-17)
(1.08862 -0.00399733 1.46512e-17)
(1.10404 -0.00344537 1.33828e-17)
(1.1164 -0.00252093 1.25464e-17)
(1.12438 -0.00129883 1.21265e-17)
(1.12694 0.00012035 1.17169e-17)
(1.12354 0.00159158 1.04228e-17)
(1.1143 0.00290367 9.41025e-18)
(1.10034 0.00381369 9.38178e-18)
(1.08373 0.00414238 9.20849e-18)
(1.06707 0.00381493 8.22861e-18)
(1.05306 0.00286445 8.94579e-18)
(1.04403 0.00143109 7.90065e-18)
(1.04156 -0.000245166 6.59754e-18)
(1.04608 -0.0018216 5.08691e-18)
(1.0564 -0.00288072 3.03938e-18)
(1.06955 -0.00305406 -8.77184e-19)
(1.08133 -0.00221861 1.94434e-18)
(1.08774 -0.000609125 2.96728e-18)
(1.08649 0.00129143 1.88534e-18)
(1.0775 0.00298733 2.5231e-17)
(1.06249 0.00414522 3.38905e-17)
(1.0441 0.00461435 -2.33725e-16)
(1.02525 0.00436272 -5.75723e-16)
(1.00883 0.00341211 1.96894e-15)
(0.997568 0.001819 1.03985e-14)
(0.993921 -0.000289713 2.96622e-16)
(0.999658 -0.00263726 -1.32166e-13)
(1.01503 -0.00473001 -4.96456e-13)
(1.0378 -0.00593529 -9.36715e-13)
(1.06306 -0.00575394 -1.06878e-12)
(1.08447 -0.00412989 -7.855e-13)
(1.09665 -0.00153583 -3.77624e-13)
(1.09708 0.00126264 -1.07452e-13)
(1.08659 0.00357254 9.24649e-15)
(1.0683 0.00500949 3.98688e-14)
(1.04617 0.00549043 8.19237e-15)
(1.02396 0.00509054 -1.20136e-13)
(1.005 0.00390822 -2.8226e-13)
(0.992242 0.00202294 5.04978e-14)
(0.988401 -0.000438336 2.40237e-12)
(0.995494 -0.00316707 9.09218e-12)
(1.01378 -0.00558923 2.05249e-11)
(1.0406 -0.00697678 3.22543e-11)
(1.07026 -0.00676611 3.7033e-11)
(1.09547 -0.0048925 3.17545e-11)
(1.11001 -0.0018846 2.07523e-11)
(1.11089 0.00137338 1.06599e-11)
(1.09904 0.00404385 3.82993e-12)
(1.07827 0.00564187 3.00321e-13)
(1.05347 0.00607841 -1.81965e-13)
(1.02916 0.00550246 1.06421e-12)
(1.00897 0.0041074 -9.7224e-13)
(0.995822 0.00203959 -1.70485e-11)
(0.992202 -0.000542284 -6.09871e-11)
(0.999824 -0.00331928 -1.41299e-10)
(1.01865 -0.00573346 -2.50813e-10)
(1.04589 -0.00710464 -3.61893e-10)
(1.07597 -0.00691689 -4.36159e-10)
(1.10189 -0.00509873 -4.45101e-10)
(1.11745 -0.00210812 -3.85372e-10)
(1.11929 0.00123705 -2.78551e-10)
(1.10779 0.00408249 -1.60352e-10)
(1.08654 0.00584424 -6.39592e-11)
(1.0607 0.00633737 -6.14068e-12)
(1.03538 0.00569506 1.4461e-11)
(1.01463 0.00417524 7.61402e-12)
(1.00146 0.00201462 -1.94771e-11)
(0.998039 -0.000561321 -6.50678e-11)
(1.00559 -0.0032156 -1.28107e-10)
(1.02361 -0.00543678 -2.02398e-10)
(1.04919 -0.00665119 -2.74873e-10)
(1.07717 -0.00645978 -3.28979e-10)
(1.10136 -0.00483752 -3.50688e-10)
(1.11639 -0.0021681 -3.33562e-10)
(1.11916 0.000890209 -2.80812e-10)
(1.10957 0.00362321 -2.04368e-10)
(1.09027 0.00547303 -1.22295e-10)
(1.06567 0.00616356 -5.2084e-11)
(1.04068 0.0057033 -1.62529e-12)
(1.01966 0.00428144 3.42622e-11)
(1.006 0.0021484 6.78415e-11)
(1.00208 -0.000409713 1.08728e-10)
(1.00904 -0.00300577 1.58858e-10)
(1.02615 -0.00513034 2.1419e-10)
(1.05036 -0.00626832 2.69073e-10)
(1.07673 -0.00610197 3.18943e-10)
(1.09963 -0.00465725 3.60242e-10)
(1.11434 -0.00229668 3.8859e-10)
(1.11819 0.000420703 3.9686e-10)
(1.11101 0.00292044 3.75467e-10)
(1.09474 0.00475294 3.18022e-10)
(1.07282 0.00565157 2.31038e-10)
(1.04931 0.00552749 1.38342e-10)
(1.02834 0.00443132 7.17227e-11)
(1.0136 0.00251732 5.29837e-11)
(1.00801 4.85908e-05 8.30967e-11)
(1.01318 -0.00256873 1.46457e-10)
(1.02878 -0.00480532 2.22987e-10)
(1.05209 -0.00613415 2.97193e-10)
(1.07843 -0.00621749 3.60566e-10)
(1.10236 -0.00504273 4.0999e-10)
(1.11912 -0.0029254 4.45167e-10)
(1.12586 -0.00038436 4.65836e-10)
(1.12205 0.00203822 4.687e-10)
(1.10923 0.00392955 4.46098e-10)
(1.09022 0.0050629 3.90381e-10)
(1.06833 0.00535952 3.0354e-10)
(1.04699 0.00481553 2.03897e-10)
(1.02954 0.00346325 1.20218e-10)
(1.01914 0.00140366 7.56321e-11)
(1.01833 -0.00111635 7.54948e-11)
(1.02832 -0.00366839 1.08733e-10)
(1.04818 -0.00571879 1.58112e-10)
(1.07473 -0.00679691 2.09298e-10)
(1.10322 -0.00666643 2.54069e-10)
(1.12857 -0.00540574 2.89323e-10)
(1.14671 -0.00336766 3.14957e-10)
(1.15546 -0.0010528 3.32071e-10)
(1.15484 0.00104362 3.41465e-10)
(1.14665 0.00256163 3.42138e-10)
(1.1338 0.00333971 3.30737e-10)
(1.1194 0.00339665 3.03189e-10)
(1.10617 0.00285956 2.58509e-10)
(1.0962 0.00188915 2.02037e-10)
(1.09092 0.000649567 1.44788e-10)
(1.09108 -0.000674997 9.88275e-11)
(1.09664 -0.00186357 7.21244e-11)
(1.10652 -0.0026845 6.63333e-11)
(1.11877 -0.00296446 7.79973e-11)
(1.13088 -0.00266032 1.01289e-10)
(1.14054 -0.00188699 1.30351e-10)
(1.14623 -0.000883973 1.60476e-10)
(1.14758 5.9182e-05 1.88373e-10)
(1.14547 0.000684848 2.11997e-10)
(1.14164 0.000825655 2.30302e-10)
(1.1383 0.000424821 2.4303e-10)
(1.13765 -0.00047325 2.50474e-10)
(1.14152 -0.00174606 2.53207e-10)
(1.15111 -0.00321614 2.51843e-10)
(1.16685 -0.0046676 2.46929e-10)
(1.18817 -0.00586348 2.38936e-10)
(1.21366 -0.00656528 2.28291e-10)
(1.24068 -0.0065786 2.15395e-10)
(1.26656 -0.00578576 2.00595e-10)
(1.28709 -0.00421468 1.84144e-10)
(1.30101 -0.00199911 1.66153e-10)
(1.30275 0.000535637 1.46668e-10)
(1.29848 0.00311711 1.25518e-10)
(1.27526 0.00524314 1.03304e-10)
(1.26213 0.00690314 8.05896e-11)
(1.21037 0.00752284 5.52909e-11)
(1.0001 -0.000607848 6.61472e-20)
(1.00156 -0.00186296 7.62887e-19)
(1.00494 -0.00326293 1.43436e-18)
(1.01025 -0.00485257 2.10283e-18)
(1.01783 -0.00663319 2.89191e-18)
(1.02793 -0.00851188 3.5931e-18)
(1.04064 -0.0103197 3.81835e-18)
(1.05569 -0.0117447 5.02258e-18)
(1.07238 -0.0124558 1.90579e-18)
(1.08951 -0.012088 1.66006e-18)
(1.1053 -0.0104278 2.99795e-18)
(1.11799 -0.00764377 3.26228e-18)
(1.1262 -0.00396458 2.94292e-18)
(1.12889 0.000306412 3.60781e-18)
(1.12543 0.0047401 4.68355e-18)
(1.11592 0.00870561 5.9067e-18)
(1.10149 0.0114687 7.17509e-18)
(1.08427 0.0124831 8.07794e-18)
(1.06698 0.0115146 7.41024e-18)
(1.05241 0.00865322 4.00582e-18)
(1.043 0.00431307 2.32213e-18)
(1.04043 -0.000785605 1.25622e-17)
(1.04523 -0.00560411 -7.32225e-17)
(1.05622 -0.00886261 -4.30071e-16)
(1.0703 -0.00941798 -6.40195e-16)
(1.08297 -0.00687892 -3.84957e-16)
(1.08995 -0.00196255 -9.14142e-17)
(1.08879 0.00384396 2.78992e-17)
(1.07948 0.00902115 1.12981e-16)
(1.0639 0.0125561 -1.96669e-17)
(1.04484 0.0140016 -7.55057e-16)
(1.02529 0.0132705 3.32563e-17)
(1.00817 0.0104298 5.93565e-15)
(0.996278 0.00563757 4.92166e-15)
(0.992193 -0.000747603 -4.31887e-14)
(0.997884 -0.00790922 -1.43255e-13)
(1.01379 -0.014344 -1.44684e-13)
(1.03769 -0.0180932 -9.40526e-14)
(1.06436 -0.0175956 -2.35201e-13)
(1.087 -0.0126632 -3.43168e-13)
(1.09981 -0.00475095 -2.22523e-13)
(1.10018 0.00378704 -9.05457e-14)
(1.08909 0.010826 5.09834e-15)
(1.06995 0.0151993 3.80607e-14)
(1.04693 0.0166719 -3.00341e-14)
(1.02388 0.0154887 -5.32225e-14)
(1.00413 0.011951 3.05438e-13)
(0.99067 0.00627966 4.25392e-13)
(0.986342 -0.00117768 -3.22494e-12)
(0.993415 -0.00951238 -1.77347e-11)
(1.01236 -0.0169668 -4.81199e-11)
(1.04051 -0.0212773 -8.31448e-11)
(1.07182 -0.0206838 -9.93789e-11)
(1.09846 -0.0149813 -8.72799e-11)
(1.11373 -0.00580241 -5.79734e-11)
(1.1145 0.00413811 -2.6611e-11)
(1.10189 0.0122771 -6.20155e-12)
(1.08006 0.0171384 1.55489e-12)
(1.05419 0.0184681 4.02447e-12)
(1.02894 0.0167423 6.13076e-12)
(1.00793 0.0125591 -2.32278e-12)
(0.994044 0.00634766 -5.56975e-11)
(0.989804 -0.00144813 -2.06355e-10)
(0.997108 -0.00989427 -4.93148e-10)
(1.01614 -0.0173 -8.92392e-10)
(1.04419 -0.0215713 -1.29312e-09)
(1.07556 -0.0210993 -1.53989e-09)
(1.10286 -0.0156368 -1.52602e-09)
(1.11949 -0.00656884 -1.26279e-09)
(1.1218 0.00361334 -8.64555e-10)
(1.11011 0.0122993 -4.69955e-10)
(1.08818 0.0176964 -1.7631e-10)
(1.06142 0.0192366 -1.35e-11)
(1.03514 0.0173336 4.12251e-11)
(1.01352 0.0127807 2.6058e-11)
(0.999562 0.00628718 -3.49497e-11)
(0.995557 -0.00149313 -1.36218e-10)
(1.00291 -0.00956331 -2.74992e-10)
(1.02127 -0.0163676 -4.3473e-10)
(1.04767 -0.0201374 -5.82822e-10)
(1.07669 -0.019634 -6.82057e-10)
(1.10182 -0.0147712 -7.0533e-10)
(1.11746 -0.00671506 -6.45988e-10)
(1.12046 0.00253902 -5.20508e-10)
(1.11076 0.0108306 -3.61307e-10)
(1.0911 0.0164703 -2.05711e-10)
(1.06597 0.0186186 -8.27244e-11)
(1.04034 0.0172948 -1.54171e-12)
(1.01863 0.0130584 4.92956e-11)
(1.00438 0.00664476 9.05116e-11)
(1.00015 -0.00110443 1.37812e-10)
(1.00731 -0.00902107 1.95409e-10)
(1.02517 -0.015532 2.58993e-10)
(1.05051 -0.019033 3.21787e-10)
(1.07798 -0.0185386 3.78136e-10)
(1.10161 -0.0141407 4.23735e-10)
(1.11648 -0.00697019 4.53649e-10)
(1.12002 0.00125977 4.60024e-10)
(1.11223 0.00881214 4.32696e-10)
(1.09529 0.0143409 3.65328e-10)
(1.07274 0.0170573 2.65578e-10)
(1.04871 0.0167023 1.59947e-10)
(1.02732 0.0134203 8.40458e-11)
(1.01233 0.00765244 6.32786e-11)
(1.00681 0.000167085 1.00354e-10)
(1.01257 -0.00781151 1.78587e-10)
(1.02925 -0.0146486 2.74262e-10)
(1.05395 -0.0187028 3.67048e-10)
(1.08159 -0.0189272 4.43996e-10)
(1.10635 -0.0152979 4.9914e-10)
(1.12328 -0.00880893 5.31495e-10)
(1.12954 -0.00106432 5.4223e-10)
(1.1248 0.00628437 5.30885e-10)
(1.11086 0.0119916 4.92869e-10)
(1.09076 0.0153851 4.22843e-10)
(1.06801 0.0162455 3.24156e-10)
(1.04607 0.0145734 2.15939e-10)
(1.02833 0.0104635 1.27572e-10)
(1.01802 0.00420473 8.24827e-11)
(1.01781 -0.00347019 8.5634e-11)
(1.02891 -0.0112532 1.24701e-10)
(1.05025 -0.0174923 1.80669e-10)
(1.07834 -0.0207322 2.37547e-10)
(1.10803 -0.0202565 2.86036e-10)
(1.13399 -0.0163311 3.22613e-10)
(1.15204 -0.0100635 3.47226e-10)
(1.16011 -0.00299536 3.61359e-10)
(1.15837 0.00337232 3.66463e-10)
(1.1489 0.00795879 3.62332e-10)
(1.13478 0.0102837 3.46298e-10)
(1.11932 0.0104119 3.14715e-10)
(1.10533 0.00873284 2.66834e-10)
(1.09501 0.00573328 2.08181e-10)
(1.08983 0.00190793 1.4993e-10)
(1.09062 -0.00218314 1.04138e-10)
(1.09728 -0.00585529 7.85078e-11)
(1.10859 -0.00838121 7.42128e-11)
(1.12229 -0.00921521 8.72802e-11)
(1.13558 -0.00822504 1.11525e-10)
(1.14589 -0.00577767 1.40962e-10)
(1.15159 -0.00262772 1.7095e-10)
(1.1524 0.00032432 1.98353e-10)
(1.14933 0.00228855 2.21277e-10)
(1.14432 0.00275891 2.38792e-10)
(1.13976 0.00156948 2.50716e-10)
(1.13796 -0.00113822 2.57392e-10)
(1.14084 -0.00498968 2.59409e-10)
(1.14967 -0.00944927 2.57365e-10)
(1.16489 -0.0138683 2.51773e-10)
(1.186 -0.0175331 2.43105e-10)
(1.21161 -0.0197211 2.31875e-10)
(1.23905 -0.019836 2.18657e-10)
(1.26555 -0.0175125 2.03991e-10)
(1.28678 -0.0128233 1.88222e-10)
(1.30131 -0.00617457 1.71363e-10)
(1.3035 0.00146053 1.53166e-10)
(1.29945 0.0092443 1.33107e-10)
(1.27624 0.0156794 1.11446e-10)
(1.26297 0.0206968 8.88213e-11)
(1.21085 0.0225916 6.20471e-11)
(1.0001 -0.00100579 3.34196e-24)
(1.00152 -0.00308486 7.07205e-21)
(1.00484 -0.00541184 1.58475e-20)
(1.01008 -0.00806738 1.04033e-20)
(1.01763 -0.0110591 -6.37891e-20)
(1.02778 -0.0142365 4.30306e-20)
(1.04067 -0.0173201 -4.09387e-19)
(1.05611 -0.0197771 -1.44649e-18)
(1.0734 -0.0210413 5.54435e-19)
(1.09129 -0.0204631 3.45028e-18)
(1.10786 -0.0176647 -1.27024e-18)
(1.12117 -0.0129602 -8.93805e-18)
(1.12983 -0.00673471 -1.05819e-17)
(1.13273 0.000521204 -6.48869e-18)
(1.12915 0.00809682 -8.52534e-19)
(1.11907 0.0149025 4.95347e-18)
(1.10366 0.0196506 1.0052e-17)
(1.08523 0.0213963 1.11492e-17)
(1.06669 0.0197459 9.47287e-19)
(1.05104 0.0148558 -1.63832e-17)
(1.04092 0.00741968 1.28739e-17)
(1.03825 -0.00136131 -2.42829e-17)
(1.0437 -0.00972224 -8.78112e-16)
(1.05615 -0.0154284 -2.44845e-15)
(1.07216 -0.0164412 -3.48884e-15)
(1.08662 -0.0120437 -2.67226e-15)
(1.09462 -0.00350406 -9.60851e-16)
(1.09345 0.00654168 7.81297e-17)
(1.08329 0.0154381 1.74624e-16)
(1.06641 0.0214677 -1.85544e-15)
(1.04589 0.0239209 1.31373e-15)
(1.02491 0.0226954 2.77231e-14)
(1.00648 0.0179142 -2.57209e-14)
(0.993469 0.00980785 -4.89011e-13)
(0.988692 -0.00108477 -3.8274e-13)
(0.994511 -0.0134296 6.88418e-12)
(1.01175 -0.0246354 2.98212e-11)
(1.03813 -0.0312341 5.87905e-11)
(1.06776 -0.0304231 6.71135e-11)
(1.09279 -0.02185 4.77097e-11)
(1.10663 -0.00810279 2.12654e-11)
(1.10651 0.00664731 5.05374e-12)
(1.09386 0.0186952 -5.67234e-13)
(1.07275 0.0260858 -1.25366e-12)
(1.04782 0.0285158 -7.97523e-13)
(1.0231 0.0264828 1.32397e-12)
(1.00189 0.0205128 6.59307e-12)
(0.987209 0.0109209 4.10021e-13)
(0.982072 -0.0018005 -7.58912e-11)
(0.989095 -0.0161659 -3.21654e-10)
(1.00913 -0.0291386 -7.72339e-10)
(1.03964 -0.0367198 -1.25817e-09)
(1.07416 -0.035753 -1.47673e-09)
(1.10385 -0.0258429 -1.2848e-09)
(1.12085 -0.00988451 -8.3581e-10)
(1.12151 0.00731646 -3.92693e-10)
(1.10726 0.0212767 -1.09525e-10)
(1.08309 0.029489 9.0611e-12)
(1.05493 0.0316277 3.55072e-11)
(1.02779 0.0286239 3.10757e-11)
(1.00525 0.021553 -1.07009e-11)
(0.990031 0.0111077 -1.80172e-10)
(0.984691 -0.00206361 -6.09577e-10)
(0.991476 -0.0164753 -1.36589e-09)
(1.01102 -0.0292765 -2.34497e-09)
(1.04075 -0.0368291 -3.27755e-09)
(1.07458 -0.0362657 -3.84658e-09)
(1.1044 -0.027062 -3.83063e-09)
(1.12289 -0.0115549 -3.22168e-09)
(1.12595 0.00594782 -2.25018e-09)
(1.11381 0.0209009 -1.25132e-09)
(1.09052 0.0301869 -4.87846e-10)
(1.06198 0.0328448 -5.45114e-11)
(1.03391 0.029638 9.83738e-11)
(1.01069 0.0219624 7.01016e-11)
(0.995452 0.010998 -6.79951e-11)
(0.990729 -0.00222684 -2.84662e-10)
(0.998304 -0.0160667 -5.54289e-10)
(1.01801 -0.0278221 -8.30469e-10)
(1.04654 -0.0343703 -1.05716e-09)
(1.07776 -0.0335388 -1.19231e-09)
(1.10445 -0.0252165 -1.21331e-09)
(1.12069 -0.0114704 -1.1128e-09)
(1.1234 0.00425908 -9.05321e-10)
(1.11284 0.0183126 -6.34946e-10)
(1.09202 0.0278657 -3.64491e-10)
(1.06564 0.0315348 -1.4812e-10)
(1.03877 0.029362 -6.62234e-12)
(1.01594 0.0222574 7.53672e-11)
(1.00091 0.0113915 1.30204e-10)
(0.996657 -0.00186813 1.84485e-10)
(1.00485 -0.0155091 2.49403e-10)
(1.02476 -0.0267338 3.23841e-10)
(1.05263 -0.0326849 4.00087e-10)
(1.08231 -0.0316565 4.68273e-10)
(1.10712 -0.0238996 5.20262e-10)
(1.12192 -0.0114873 5.50636e-10)
(1.12429 0.00256316 5.53052e-10)
(1.11475 0.0152946 5.17811e-10)
(1.096 0.0244968 4.37675e-10)
(1.0719 0.0289343 3.20433e-10)
(1.04671 0.0282314 1.96109e-10)
(1.02459 0.0226189 1.06749e-10)
(1.00942 0.012772 8.36968e-11)
(1.00453 -6.46468e-05 1.31518e-10)
(1.01191 -0.0137837 2.30362e-10)
(1.03107 -0.025497 3.5052e-10)
(1.05853 -0.0323091 4.65908e-10)
(1.08852 -0.0324242 5.5966e-10)
(1.11461 -0.025883 6.23576e-10)
(1.13158 -0.0145052 6.55527e-10)
(1.13665 -0.00112934 6.56701e-10)
(1.12986 0.0113878 6.28309e-10)
(1.11351 0.0209489 5.6893e-10)
(1.09114 0.026482 4.76747e-10)
(1.06659 0.0276983 3.58327e-10)
(1.04349 0.0246485 2.35563e-10)
(1.02533 0.0174865 1.39706e-10)
(1.01549 0.00666988 9.43338e-11)
(1.01677 -0.00655285 1.02488e-10)
(1.0303 -0.0198881 1.48704e-10)
(1.05455 -0.0304368 2.11168e-10)
(1.08536 -0.0356928 2.72466e-10)
(1.11699 -0.0344952 3.23233e-10)
(1.14374 -0.0274062 3.60516e-10)
(1.16137 -0.0164143 3.84707e-10)
(1.16798 -0.00420543 3.97268e-10)
(1.16408 0.00665554 3.99408e-10)
(1.15213 0.014357 3.90985e-10)
(1.13563 0.0181258 3.69724e-10)
(1.11818 0.0181148 3.32586e-10)
(1.10286 0.0150097 2.79635e-10)
(1.092 0.00963858 2.1737e-10)
(1.08727 0.00284201 1.57753e-10)
(1.08953 -0.00439826 1.1297e-10)
(1.09856 -0.0108483 9.00222e-11)
(1.1127 -0.015191 8.88853e-11)
(1.12911 -0.0164577 1.04478e-10)
(1.14438 -0.0144519 1.30012e-10)
(1.15556 -0.00988219 1.59479e-10)
(1.16096 -0.00413202 1.88597e-10)
(1.16045 0.00119361 2.1467e-10)
(1.15537 0.00472366 2.36137e-10)
(1.14804 0.00560982 2.52235e-10)
(1.14113 0.00360392 2.62823e-10)
(1.1372 -0.00101906 2.68201e-10)
(1.13831 -0.00760315 2.68865e-10)
(1.14581 -0.0152398 2.65286e-10)
(1.16027 -0.0228433 2.57893e-10)
(1.18125 -0.029214 2.4727e-10)
(1.20739 -0.0331175 2.34327e-10)
(1.23592 -0.033512 2.20216e-10)
(1.26381 -0.0297427 2.05939e-10)
(1.28644 -0.0219093 1.91929e-10)
(1.30208 -0.0107074 1.77846e-10)
(1.30495 0.0021976 1.62763e-10)
(1.30103 0.0153671 1.45414e-10)
(1.27755 0.0262333 1.25395e-10)
(1.26374 0.034747 1.03401e-10)
(1.21068 0.0378224 7.45467e-11)
(1.00009 -0.00139256 -8.29738e-20)
(1.00147 -0.00427507 -9.05753e-19)
(1.00469 -0.00751908 -1.55572e-18)
(1.00981 -0.0112488 -2.61783e-18)
(1.0173 -0.0154869 -3.38535e-18)
(1.0275 -0.0200329 -4.3111e-18)
(1.04066 -0.0245005 -1.04241e-17)
(1.05668 -0.028117 -1.04884e-18)
(1.07487 -0.0300598 1.48984e-17)
(1.09397 -0.0293258 -2.55432e-17)
(1.11172 -0.0253412 -1.03881e-16)
(1.12599 -0.0186275 -1.07562e-16)
(1.13536 -0.00974314 -2.60752e-17)
(1.13861 0.000640634 4.20884e-17)
(1.13486 0.0115583 6.9453e-17)
(1.12391 0.0214403 7.36964e-17)
(1.10697 0.0283723 6.29633e-17)
(1.08663 0.0309523 1.83153e-17)
(1.06614 0.0285999 -8.61842e-17)
(1.04883 0.0215266 -4.08513e-17)
(1.03763 0.0107041 -5.71087e-17)
(1.03476 -0.00217416 -3.30747e-15)
(1.04122 -0.0145586 7.92049e-15)
(1.05595 -0.023105 7.26932e-14)
(1.07504 -0.024669 1.17658e-13)
(1.09233 -0.0181059 7.43678e-14)
(1.1019 -0.00536002 1.94144e-14)
(1.10065 0.00952285 5.35035e-16)
(1.08909 0.0225492 -5.04942e-15)
(1.07011 0.0312574 -1.32705e-14)
(1.04733 0.0347452 4.48399e-14)
(1.02418 0.0329751 1.72964e-13)
(1.00375 0.0261521 -5.61964e-13)
(0.989049 0.0145333 -3.15711e-12)
(0.983206 -0.0012584 1.67541e-12)
(0.989253 -0.0194265 4.66876e-11)
(1.00868 -0.0361545 1.56496e-10)
(1.03914 -0.0461166 2.86445e-10)
(1.07356 -0.0449436 3.38295e-10)
(1.10232 -0.0320922 2.66181e-10)
(1.11756 -0.0115829 1.36916e-10)
(1.11641 0.0101982 4.1932e-11)
(1.10109 0.0277128 5.41666e-13)
(1.07678 0.0382153 -8.41266e-12)
(1.04886 0.0414915 -4.99557e-12)
(1.02161 0.0384482 9.08057e-12)
(0.99827 0.0298944 2.96906e-11)
(0.981717 0.0161946 -3.17333e-11)
(0.974996 -0.00210676 -4.36661e-10)
(0.981082 -0.0230263 -1.51596e-09)
(1.00156 -0.0422379 -3.26632e-09)
(1.03458 -0.0538103 -5.05353e-09)
(1.07351 -0.0528063 -5.92339e-09)
(1.10822 -0.038326 -5.34895e-09)
(1.12895 -0.0146147 -3.70054e-09)
(1.13065 0.0109557 -1.89701e-09)
(1.11474 0.0314968 -6.24028e-10)
(1.08735 0.0432973 -1.93022e-11)
(1.05577 0.0461057 1.42328e-10)
(1.02575 0.041576 1.14909e-10)
(1.00085 0.0314392 -3.89763e-11)
(0.983571 0.0166343 -4.68115e-10)
(0.976587 -0.00215802 -1.36199e-09)
(0.982853 -0.0230465 -2.70623e-09)
(1.00369 -0.0419405 -4.20985e-09)
(1.0364 -0.0533664 -5.49676e-09)
(1.07386 -0.0529362 -6.28747e-09)
(1.10685 -0.0397913 -6.38292e-09)
(1.12733 -0.0173231 -5.66074e-09)
(1.13098 0.00817559 -4.24139e-09)
(1.11809 0.0300231 -2.55595e-09)
(1.09299 0.043609 -1.11235e-09)
(1.06209 0.0475301 -2.05905e-10)
(1.03159 0.0429706 1.59077e-10)
(1.00617 0.0320081 1.36959e-10)
(0.989288 0.0162725 -1.16558e-10)
(0.984008 -0.00290909 -4.93184e-10)
(0.99267 -0.0231947 -8.97865e-10)
(1.01511 -0.0404904 -1.2351e-09)
(1.04724 -0.0500263 -1.44746e-09)
(1.0817 -0.0485973 -1.53873e-09)
(1.11029 -0.0362297 -1.5372e-09)
(1.12673 -0.0161725 -1.44415e-09)
(1.12827 0.00648418 -1.23692e-09)
(1.11576 0.0265316 -9.22904e-10)
(1.09281 0.0400647 -5.65301e-10)
(1.06444 0.0452337 -2.49229e-10)
(1.03581 0.0421351 -2.76786e-11)
(1.01158 0.0319832 1.01547e-10)
(0.995852 0.0162925 1.76702e-10)
(0.992129 -0.00306264 2.39519e-10)
(1.0024 -0.0230697 3.16169e-10)
(1.0256 -0.0394286 4.12861e-10)
(1.05707 -0.0478157 5.18037e-10)
(1.0896 -0.0457906 6.10264e-10)
(1.11579 -0.0339391 6.70773e-10)
(1.13019 -0.0155403 6.92352e-10)
(1.13068 0.00485627 6.75991e-10)
(1.11838 0.0229695 6.20046e-10)
(1.09673 0.035767 5.19845e-10)
(1.07018 0.041691 3.82295e-10)
(1.04323 0.0403497 2.38691e-10)
(1.02013 0.0320641 1.36363e-10)
(1.00497 0.0176835 1.11963e-10)
(1.00138 -0.00107362 1.70514e-10)
(1.01138 -0.0210759 2.8738e-10)
(1.03406 -0.0379604 4.26648e-10)
(1.06507 -0.0474357 5.58349e-10)
(1.0978 -0.0469758 6.64648e-10)
(1.12527 -0.036827 7.37362e-10)
(1.14205 -0.0198173 7.73425e-10)
(1.14548 -0.000190055 7.72006e-10)
(1.13597 0.0178657 7.32888e-10)
(1.11638 0.0313518 6.55365e-10)
(1.09091 0.0388404 5.40629e-10)
(1.06385 0.0400665 3.99856e-10)
(1.03915 0.0351986 2.59884e-10)
(1.02052 0.0244606 1.5525e-10)
(1.01156 0.00848698 1.09365e-10)
(1.01512 -0.0108666 1.21905e-10)
(1.03201 -0.0301401 1.73181e-10)
(1.05995 -0.0450313 2.38675e-10)
(1.09387 -0.0519638 3.00475e-10)
(1.12741 -0.0494504 3.50181e-10)
(1.15462 -0.0385169 3.86214e-10)
(1.17138 -0.0221731 4.09933e-10)
(1.17603 -0.00433916 4.22876e-10)
(1.16944 0.0113018 4.25441e-10)
(1.15447 0.022183 4.16355e-10)
(1.13505 0.0272531 3.92595e-10)
(1.11518 0.0267922 3.51248e-10)
(1.09827 0.0218186 2.93525e-10)
(1.08696 0.0135257 2.27732e-10)
(1.08316 0.00314172 1.67343e-10)
(1.08779 -0.00782742 1.24827e-10)
(1.10028 -0.017442 1.06084e-10)
(1.11825 -0.0236582 1.09303e-10)
(1.13796 -0.0250507 1.27881e-10)
(1.15529 -0.0214475 1.54332e-10)
(1.16697 -0.0140611 1.82811e-10)
(1.17134 -0.00506518 2.09732e-10)
(1.16863 0.00312043 2.33208e-10)
(1.1606 0.00849671 2.52249e-10)
(1.15003 0.0098808 2.66313e-10)
(1.13995 0.00698625 2.75195e-10)
(1.13318 0.000272133 2.78939e-10)
(1.13196 -0.00929315 2.77672e-10)
(1.1378 -0.0204226 2.71521e-10)
(1.15147 -0.0315925 2.60877e-10)
(1.17267 -0.0410862 2.46875e-10)
(1.19999 -0.047084 2.31498e-10)
(1.23034 -0.0480104 2.1693e-10)
(1.2603 -0.0428648 2.04556e-10)
(1.28483 -0.0317758 1.94373e-10)
(1.30189 -0.0157723 1.85107e-10)
(1.30561 0.00270204 1.74846e-10)
(1.30182 0.0215747 1.61503e-10)
(1.27797 0.0370494 1.43969e-10)
(1.26337 0.049313 1.23071e-10)
(1.20906 0.0533349 9.18406e-11)
(1.00009 -0.00176245 -4.90562e-18)
(1.00139 -0.00541755 -1.50272e-17)
(1.00446 -0.00956177 -1.26507e-17)
(1.00942 -0.0143743 -1.60006e-17)
(1.01679 -0.0199061 -1.35729e-17)
(1.02702 -0.0259189 -2.75827e-17)
(1.04053 -0.0319267 -3.08954e-17)
(1.0573 -0.0368915 9.85968e-17)
(1.07675 -0.0397042 -3.44705e-17)
(1.09751 -0.038894 -5.62416e-16)
(1.11692 -0.0336392 -6.34231e-16)
(1.1325 -0.0247688 -1.56145e-16)
(1.14281 -0.0130227 3.47895e-16)
(1.14658 0.00080151 5.06692e-16)
(1.14263 0.0154969 3.7168e-16)
(1.13052 0.0289059 1.60092e-16)
(1.11149 0.0383226 -7.84933e-17)
(1.08852 0.0418218 -4.85423e-16)
(1.06532 0.0386527 -8.04266e-16)
(1.04566 0.0291111 2.48613e-16)
(1.0329 0.0144531 -5.3288e-15)
(1.02969 -0.00315354 -1.35163e-14)
(1.0375 -0.0203196 1.2578e-13)
(1.05545 -0.0323499 4.84236e-13)
(1.07897 -0.0346498 7.71589e-13)
(1.10037 -0.0254744 6.21541e-13)
(1.11217 -0.00764298 2.36715e-13)
(1.11072 0.0129699 2.44371e-14)
(1.09707 0.0307182 -4.71575e-14)
(1.0751 0.0423464 -2.59856e-14)
(1.04918 0.0468808 2.67302e-13)
(1.02306 0.0444804 8.88878e-14)
(0.999923 0.0354792 -2.90964e-12)
(0.982851 0.0200841 -3.20047e-12)
(0.975438 -0.00117569 2.14424e-11)
(0.981607 -0.0261517 5.75645e-11)
(1.00373 -0.0495778 9.10318e-12)
(1.0396 -0.0636911 -1.04717e-10)
(1.0809 -0.0620267 -9.24095e-11)
(1.11541 -0.0438414 4.82442e-11)
(1.13298 -0.0151172 1.25077e-10)
(1.13032 0.0149095 9.47819e-11)
(1.11105 0.0385162 3.00583e-11)
(1.08209 0.0521984 -9.83912e-12)
(1.05001 0.0560933 -9.90058e-12)
(1.01939 0.0517725 3.3657e-11)
(0.993212 0.0404589 6.28642e-11)
(0.973869 0.0225639 -2.32868e-10)
(0.964211 -0.00146673 -1.47142e-09)
(0.967933 -0.0294325 -4.09647e-09)
(0.988163 -0.055885 -7.68763e-09)
(1.02403 -0.0727105 -1.10314e-08)
(1.06836 -0.0725922 -1.28087e-08)
(1.10939 -0.0535619 -1.21627e-08)
(1.13546 -0.0210767 -9.23929e-09)
(1.13977 0.0144476 -5.37093e-09)
(1.12308 0.0429312 -2.14503e-09)
(1.09241 0.0589615 -3.17593e-10)
(1.05668 0.0624191 3.16706e-10)
(1.02284 0.0560771 3.00428e-10)
(0.994709 0.0426384 -9.31428e-11)
(0.974673 0.0232462 -9.5655e-10)
(0.965942 -0.00169278 -2.38404e-09)
(0.972585 -0.0300167 -4.11672e-09)
(0.996425 -0.0560514 -5.66268e-09)
(1.03384 -0.0719325 -6.72864e-09)
(1.07596 -0.0715058 -7.357e-09)
(1.11211 -0.0537898 -7.60499e-09)
(1.13379 -0.0235957 -7.2483e-09)
(1.13696 0.0105957 -6.0091e-09)
(1.12243 0.0399072 -4.06001e-09)
(1.09494 0.0581809 -2.03429e-09)
(1.06128 0.0635342 -5.50013e-10)
(1.02795 0.0575893 1.55369e-10)
(1 0.0431074 1.96807e-10)
(0.981457 0.0220821 -1.75786e-10)
(0.976197 -0.00390796 -7.14797e-10)
(0.987096 -0.0316119 -1.20641e-09)
(1.01355 -0.0551141 -1.50627e-09)
(1.05019 -0.0676789 -1.59066e-09)
(1.08829 -0.065071 -1.5466e-09)
(1.11873 -0.0477259 -1.484e-09)
(1.13495 -0.0204416 -1.43482e-09)
(1.13454 0.00976288 -1.33158e-09)
(1.11914 0.0360476 -1.09793e-09)
(1.09314 0.0535243 -7.45239e-10)
(1.06207 0.0600289 -3.69895e-10)
(1.03128 0.0557811 -7.1244e-11)
(1.00557 0.0422295 1.15711e-10)
(0.989474 0.0211202 2.21909e-10)
(0.987031 -0.00513097 3.04551e-10)
(1.0003 -0.0322414 4.07895e-10)
(1.02753 -0.0540757 5.43371e-10)
(1.06288 -0.0646972 6.91556e-10)
(1.09819 -0.0610234 8.17989e-10)
(1.1255 -0.04419 8.91734e-10)
(1.13927 -0.0189203 8.99677e-10)
(1.13754 0.00848484 8.48444e-10)
(1.12201 0.0322744 7.50333e-10)
(1.09688 0.0485914 6.12247e-10)
(1.06728 0.0556776 4.45013e-10)
(1.03813 0.0532486 2.80397e-10)
(1.01396 0.0417412 1.6744e-10)
(0.999116 0.0221509 1.44178e-10)
(0.997454 -0.00326231 2.13054e-10)
(1.01082 -0.0301184 3.43481e-10)
(1.03747 -0.0523441 4.94386e-10)
(1.07206 -0.0641906 6.34309e-10)
(1.10719 -0.0625309 7.46947e-10)
(1.13558 -0.0480067 8.26038e-10)
(1.15183 -0.0246024 8.68452e-10)
(1.15344 0.00192381 8.70629e-10)
(1.14109 0.0259425 8.28507e-10)
(1.11811 0.043476 7.39151e-10)
(1.08926 0.0527423 6.05143e-10)
(1.05941 0.053568 4.42748e-10)
(1.03295 0.0463055 2.8543e-10)
(1.01395 0.0312821 1.72136e-10)
(1.00626 0.00937568 1.25861e-10)
(1.01269 -0.016772 1.42085e-10)
(1.0334 -0.0422979 1.96669e-10)
(1.06508 -0.0613731 2.62879e-10)
(1.10171 -0.0694332 3.22884e-10)
(1.13644 -0.0648758 3.69489e-10)
(1.16338 -0.0493894 4.02497e-10)
(1.17869 -0.0271121 4.24416e-10)
(1.18108 -0.00322996 4.37387e-10)
(1.1717 0.0174385 4.41438e-10)
(1.15374 0.0315498 4.33875e-10)
(1.13147 0.0377647 4.10054e-10)
(1.10927 0.0364978 3.66417e-10)
(1.09097 0.0291116 3.05227e-10)
(1.07964 0.0171875 2.37073e-10)
(1.0775 0.00242657 1.77398e-10)
(1.08541 -0.0129545 1.38917e-10)
(1.10218 -0.0260781 1.25972e-10)
(1.12437 -0.0340326 1.3451e-10)
(1.14715 -0.0349764 1.56235e-10)
(1.16578 -0.0289517 1.83065e-10)
(1.1769 -0.0179009 2.09521e-10)
(1.17918 -0.00495609 2.32941e-10)
(1.17332 0.0065659 2.52483e-10)
(1.16159 0.0140243 2.67943e-10)
(1.1472 0.0159336 2.7913e-10)
(1.13353 0.0120235 2.85714e-10)
(1.1236 0.00298104 2.87224e-10)
(1.11986 -0.00990674 2.83063e-10)
(1.12412 -0.0249898 2.72886e-10)
(1.13742 -0.0402861 2.57522e-10)
(1.15949 -0.0534651 2.39651e-10)
(1.18859 -0.061982 2.23086e-10)
(1.22113 -0.0636343 2.10898e-10)
(1.25317 -0.0570762 2.03868e-10)
(1.27946 -0.0425329 2.0041e-10)
(1.29782 -0.0214354 1.97634e-10)
(1.30245 0.00292968 1.92648e-10)
(1.29895 0.0278456 1.83008e-10)
(1.27505 0.0481307 1.67389e-10)
(1.25984 0.0644514 1.47105e-10)
(1.20461 0.0691354 1.1287e-10)
(1.00008 -0.0021089 4.406e-18)
(1.00128 -0.00649323 1.51944e-17)
(1.00415 -0.0115116 1.08449e-17)
(1.00886 -0.0174133 2.02001e-17)
(1.01605 -0.0242954 2.94702e-17)
(1.02627 -0.0319014 -5.72473e-17)
(1.04015 -0.0396589 2.20018e-16)
(1.05786 -0.0462348 2.26302e-16)
(1.07892 -0.0501958 -1.91484e-15)
(1.10193 -0.0494247 -1.48643e-15)
(1.12351 -0.0427845 5.00677e-15)
(1.14079 -0.0315869 9.551e-15)
(1.15239 -0.0167943 6.19568e-15)
(1.15692 0.00069499 6.65231e-16)
(1.15282 0.0195454 -2.69973e-15)
(1.13916 0.0369861 -4.02572e-15)
(1.1173 0.0493362 -4.65933e-15)
(1.0908 0.054002 -5.47438e-15)
(1.06402 0.0500079 -2.32301e-15)
(1.04125 0.0377256 -8.0559e-15)
(1.02636 0.0186901 -2.7147e-14)
(1.02257 -0.00446961 2.68485e-13)
(1.03208 -0.0274453 -2.25821e-13)
(1.05436 -0.043856 -4.60584e-12)
(1.08399 -0.0471446 -7.91915e-12)
(1.11107 -0.034699 -4.94646e-12)
(1.1259 -0.0105076 -1.14198e-12)
(1.12406 0.0171006 4.83117e-14)
(1.10746 0.0403703 5.29823e-15)
(1.08143 0.0552026 1.91532e-13)
(1.0514 0.0607563 3.98412e-13)
(1.0215 0.0575983 -2.78623e-12)
(0.994884 0.04626 -1.55926e-12)
(0.974711 0.0267801 3.77342e-11)
(0.964935 -0.000620722 2.54483e-11)
(0.970022 -0.0335491 -5.60499e-10)
(0.99317 -0.065144 -2.28486e-09)
(1.03356 -0.0847223 -4.45968e-09)
(1.08325 -0.0828766 -5.27062e-09)
(1.12726 -0.0581311 -3.98102e-09)
(1.1507 -0.0190117 -1.87341e-09)
(1.14791 0.0211917 -4.2939e-10)
(1.12393 0.0518384 7.49546e-11)
(1.08879 0.0687287 8.83378e-11)
(1.05122 0.0728312 4.03026e-11)
(1.01637 0.0668418 8.98636e-11)
(0.986555 0.0526572 3.12684e-11)
(0.963254 0.0307021 -8.454e-10)
(0.949345 0.000877472 -3.38847e-09)
(0.95039 -0.0349881 -7.54792e-09)
(0.97173 -0.07029 -1.20588e-08)
(1.01248 -0.0939303 -1.56263e-08)
(1.06331 -0.0955061 -1.7692e-08)
(1.11034 -0.0718653 -1.77472e-08)
(1.14093 -0.0297681 -1.51129e-08)
(1.1477 0.0171776 -1.02039e-08)
(1.13075 0.0551864 -4.97068e-09)
(1.09722 0.0764868 -1.28515e-09)
(1.05724 0.0808758 3.70757e-10)
(1.019 0.0725532 5.55142e-10)
(0.986922 0.0555192 -1.62118e-10)
(0.96382 0.0310226 -1.5751e-09)
(0.954 -0.00110196 -3.44772e-09)
(0.962627 -0.0382791 -5.22034e-09)
(0.991169 -0.0725714 -6.35251e-09)
(1.03422 -0.0931518 -6.79028e-09)
(1.08107 -0.092093 -6.93646e-09)
(1.11993 -0.0687077 -7.17043e-09)
(1.14198 -0.029728 -7.34293e-09)
(1.14361 0.0138808 -6.82211e-09)
(1.12641 0.051042 -5.24313e-09)
(1.09585 0.0741776 -3.03897e-09)
(1.05907 0.0810123 -1.07842e-09)
(1.02276 0.0735969 2.67283e-11)
(0.992291 0.0552521 2.0352e-10)
(0.972454 0.0281814 -2.44598e-10)
(0.968053 -0.00571722 -8.97447e-10)
(0.982129 -0.041864 -1.40257e-09)
(1.01308 -0.0720463 -1.59065e-09)
(1.05407 -0.0874136 -1.49819e-09)
(1.09527 -0.0828793 -1.28941e-09)
(1.12711 -0.0595615 -1.13888e-09)
(1.14292 -0.0240672 -1.12171e-09)
(1.14042 0.0144082 -1.15944e-09)
(1.12183 0.0472373 -1.09444e-09)