/*--------------------------------*- C++ -*----------------------------------*\
  =========                 |
  \\      /  F ield         | OpenFOAM: The Open Source CFD Toolbox
   \\    /   O peration     | Website:  https://openfoam.org
    \\  /    A nd           | Version:  11
     \\/     M anipulation  |
\*---------------------------------------------------------------------------*/
FoamFile
{
    format      ascii;
    class       volVectorField;
    location    "17.667592";
    object      vorticity;
}
// * * * * * * * * * * * * * * * * * * * * * * * * * * * * * * * * * * * * * //

dimensions      [0 0 -1 0 0 0 0];

internalField   nonuniform List<vector> 
7132
(
(-8.46091e-17 -1.91354e-15 -0.00818606)
(-2.60053e-16 -1.82043e-15 -0.00824006)
(-2.32845e-16 -3.2599e-17 -0.00850123)
(-3.04137e-16 -1.83672e-15 -0.00896259)
(-4.11446e-16 -1.80001e-15 -0.00955563)
(-3.99107e-16 1.62831e-17 -0.0101822)
(-3.51908e-16 4.37166e-17 -0.0107407)
(-2.81768e-16 4.88811e-17 -0.0111439)
(-2.75257e-16 4.66692e-17 -0.0113395)
(-2.41945e-16 3.69685e-17 -0.0113142)
(-1.82526e-16 2.30935e-17 -0.0110956)
(-1.32873e-16 1.07196e-17 -0.0107635)
(-1.46313e-16 3.00334e-18 -0.0104095)
(-1.52899e-16 2.1188e-17 -0.0101428)
(-9.69026e-17 -1.69838e-15 -0.0100412)
(-4.27265e-17 -1.71043e-15 -0.0101285)
(2.45007e-18 -1.73202e-15 -0.0103722)
(7.1718e-18 4.42609e-18 -0.0106869)
(4.72491e-17 -1.72655e-15 -0.0109589)
(1.26359e-17 -1.73583e-15 -0.0110697)
(-6.8112e-17 7.49905e-18 -0.01092)
(2.36607e-17 2.24233e-19 -0.010465)
(1.72386e-16 1.27587e-16 -0.00978813)
(-3.8619e-15 6.96949e-16 -0.00908875)
(-1.67657e-14 2.66439e-15 -0.00853684)
(-2.63728e-14 2.75361e-17 -0.00824249)
(-1.901e-14 -8.05423e-16 -0.00831403)
(-6.23154e-15 -7.24005e-16 -0.00886225)
(2.21079e-16 -6.00626e-16 -0.00984102)
(1.48729e-15 1.56735e-15 -0.0109855)
(-4.91237e-15 5.2752e-15 -0.0119911)
(-1.84921e-15 7.07882e-15 -0.0126293)
(6.45621e-14 -2.73841e-14 -0.0127618)
(-6.97315e-15 -1.08805e-13 -0.0123328)
(-9.85457e-13 2.38037e-14 -0.0113904)
(-1.48402e-12 1.41618e-12 -0.0101597)
(1.04927e-11 5.10649e-12 -0.00907548)
(5.49199e-11 8.83306e-12 -0.00847843)
(1.17211e-10 7.1939e-12 -0.00833589)
(1.40169e-10 -5.20566e-13 -0.00839236)
(1.04787e-10 -7.35502e-12 -0.00862261)
(5.15658e-11 -8.03203e-12 -0.00933021)
(1.51333e-11 -4.90629e-12 -0.0106549)
(2.98381e-13 -2.02765e-12 -0.0122527)
(-2.64766e-12 -1.73186e-13 -0.0136074)
(-2.40132e-12 1.56256e-12 -0.0143326)
(2.8907e-12 2.84109e-12 -0.0142713)
(1.93379e-11 -8.45398e-13 -0.0134945)
(1.00292e-11 -2.17233e-11 -0.0122338)
(-1.832e-10 -7.83674e-11 -0.0108107)
(-8.50561e-10 -1.66879e-10 -0.00956843)
(-2.18832e-09 -2.27224e-10 -0.00861548)
(-3.78982e-09 -1.77965e-10 -0.00800648)
(-4.69362e-09 -1.54792e-11 -0.00795779)
(-4.32638e-09 1.51054e-10 -0.00860338)
(-3.04414e-09 2.09004e-10 -0.00994166)
(-1.59004e-09 1.68616e-10 -0.0118864)
(-5.35e-10 1.04075e-10 -0.0138642)
(-2.62084e-11 4.03265e-11 -0.0152378)
(1.38149e-10 -1.51585e-11 -0.0157579)
(1.84447e-10 9.0578e-12 -0.0154113)
(1.81536e-11 2.75032e-10 -0.0140653)
(-1.04451e-09 9.50862e-10 -0.011206)
(-4.23287e-09 2.03066e-09 -0.00606991)
(-1.06575e-08 3.19579e-09 0.00173424)
(-2.00711e-08 3.85265e-09 0.0115709)
(-3.00351e-08 3.43319e-09 0.02151)
(-3.67202e-08 1.82551e-09 0.0287652)
(-3.71673e-08 -4.62346e-10 0.0307532)
(-3.12786e-08 -2.59086e-09 0.0262997)
(-2.17768e-08 -3.84106e-09 0.0164319)
(-1.21717e-08 -3.92181e-09 0.00417044)
(-4.89749e-09 -3.0456e-09 -0.0068529)
(-7.16101e-10 -1.68806e-09 -0.014028)
(8.1587e-10 -1.70754e-10 -0.0165328)
(3.49126e-10 1.52648e-09 -0.0149878)
(-1.96683e-09 3.53572e-09 -0.0106254)
(-6.41719e-09 5.72423e-09 -0.00470864)
(-1.30306e-08 7.56716e-09 0.00166748)
(-2.09319e-08 8.35981e-09 0.00791279)
(-2.84182e-08 7.57583e-09 0.0142056)
(-3.3618e-08 5.13349e-09 0.020866)
(-3.51467e-08 1.44445e-09 0.0271656)
(-3.25428e-08 -2.72889e-09 0.0308949)
(-2.65089e-08 -6.48987e-09 0.0295733)
(-1.86845e-08 -8.95135e-09 0.0224551)
(-1.09683e-08 -9.38787e-09 0.0113067)
(-4.86334e-09 -7.57963e-09 -0.000425244)
(-1.1308e-09 -4.05965e-09 -0.00932269)
(1.18475e-10 1.08863e-10 -0.0136828)
(-8.60192e-10 3.86675e-09 -0.0141137)
(-3.61064e-09 6.55802e-09 -0.0127181)
(-7.45617e-09 7.96557e-09 -0.0115217)
(-1.15038e-08 8.13852e-09 -0.0110151)
(-1.48705e-08 7.23839e-09 -0.00992924)
(-1.69612e-08 5.45975e-09 -0.00653643)
(-1.75452e-08 2.98627e-09 -0.000321892)
(-1.66535e-08 -2.55496e-11 0.00725675)
(-1.44997e-08 -3.38782e-09 0.0134591)
(-1.14701e-08 -6.6806e-09 0.0159107)
(-8.08171e-09 -9.07295e-09 0.013733)
(-4.88814e-09 -9.58096e-09 0.00775118)
(-2.36927e-09 -7.7555e-09 -8.57857e-06)
(-8.43563e-10 -4.16748e-09 -0.00748571)
(-4.16062e-10 -1.41653e-10 -0.0136516)
(-9.60782e-10 3.05386e-09 -0.0186712)
(-2.14784e-09 4.82199e-09 -0.0230929)
(-3.53719e-09 5.25342e-09 -0.0266992)
(-4.72792e-09 4.7703e-09 -0.0282632)
(-5.47546e-09 3.78753e-09 -0.02648)
(-5.70998e-09 2.55367e-09 -0.021074)
(-5.4807e-09 1.13205e-09 -0.0131954)
(-4.89391e-09 -5.31724e-10 -0.00489954)
(-4.07384e-09 -2.44117e-09 0.00184802)
(-3.1414e-09 -4.33956e-09 0.00568724)
(-2.20694e-09 -5.67976e-09 0.00602217)
(-1.36972e-09 -5.90902e-09 0.00303576)
(-7.09628e-10 -4.88367e-09 -0.00257092)
(-2.69407e-10 -3.02467e-09 -0.00994765)
(-4.21665e-11 -1.04792e-09 -0.0182776)
(2.0796e-11 4.67375e-10 -0.026634)
(-1.57116e-11 1.3076e-09 -0.0336557)
(-9.83192e-11 1.56334e-09 -0.0377168)
(-1.96285e-10 1.44276e-09 -0.0376617)
(-2.93605e-10 1.12774e-09 -0.0334489)
(-3.76699e-10 7.20084e-10 -0.0262057)
(-4.3109e-10 2.50278e-10 -0.0176689)
(-4.46111e-10 -2.7832e-10 -0.00946074)
(-4.18807e-10 -8.34375e-10 -0.0028812)
(-3.54258e-10 -1.33025e-09 0.00107771)
(-2.62188e-10 -1.64963e-09 0.00173493)
(-1.5067e-10 -1.7172e-09 -0.00123958)
(-2.10118e-11 -1.55122e-09 -0.00771656)
(1.30796e-10 -1.25015e-09 -0.0169721)
(3.04834e-10 -9.29047e-10 -0.0275938)
(4.87952e-10 -6.6276e-10 -0.037528)
(6.53001e-10 -4.72163e-10 -0.0445888)
(7.6812e-10 -3.4366e-10 -0.0472561)
(8.10376e-10 -2.53294e-10 -0.0452233)
(7.75438e-10 -1.77831e-10 -0.0393634)
(6.78051e-10 -9.4101e-11 -0.0311681)
(5.43974e-10 2.05211e-11 -0.0221109)
(4.00566e-10 1.76919e-10 -0.0134944)
(2.6989e-10 3.57312e-10 -0.00650043)
(1.66362e-10 5.10964e-10 -0.00223979)
(9.78852e-11 5.76497e-10 -0.00167506)
(6.74811e-11 5.19051e-10 -0.00536313)
(7.36413e-11 3.52142e-10 -0.0131312)
(1.09783e-10 1.27143e-10 -0.0238257)
(1.64161e-10 -9.70893e-11 -0.035349)
(2.21932e-10 -2.79479e-10 -0.0452412)
(2.69004e-10 -4.03972e-10 -0.0514889)
(2.95889e-10 -4.72309e-10 -0.0532137)
(2.99796e-10 -4.91761e-10 -0.0506429)
(2.84156e-10 -4.63832e-10 -0.0449203)
(2.55753e-10 -3.83095e-10 -0.0370367)
(2.21113e-10 -2.27655e-10 -0.0286199)
(1.84658e-10 -5.43208e-11 -0.0185319)
(1.50695e-10 3.48424e-10 -0.0167227)
(1.02831e-10 3.39417e-10 -0.00278614)
(-8.5552e-17 -7.11737e-18 -0.0244741)
(-2.71969e-16 -1.1374e-17 -0.0246321)
(-2.56858e-16 -1.18276e-17 -0.0254164)
(-3.37249e-16 -1.4389e-17 -0.0268186)
(-4.62386e-16 -1.61125e-17 -0.0286462)
(-4.67551e-16 -1.17919e-17 -0.0306117)
(-4.30748e-16 -1.4953e-17 -0.0324065)
(-4.1511e-16 1.05555e-17 -0.0337522)
(-3.08261e-16 1.76148e-15 -0.0344652)
(-1.52624e-16 -9.39674e-18 -0.0344687)
(-1.83093e-16 -3.14426e-17 -0.0338004)
(-4.66172e-16 1.72734e-15 -0.0326555)
(-6.46652e-16 1.30162e-17 -0.0312651)
(-5.31439e-16 -2.66999e-18 -0.0299031)
(-2.96521e-16 -1.70512e-17 -0.0288079)
(-1.1651e-16 -2.28412e-17 -0.0281528)
(8.82787e-18 -2.39432e-17 -0.0280215)
(7.6941e-17 -1.79734e-17 -0.0283874)
(7.08144e-17 8.83136e-18 -0.0291387)
(-2.2843e-16 5.3188e-17 -0.0301013)
(-6.10425e-17 -1.40149e-18 -0.0310749)
(-5.59809e-17 -1.20025e-16 -0.0318859)
(-1.24646e-14 2.07037e-15 -0.0324818)
(2.03144e-14 9.16936e-15 -0.0328849)
(2.47821e-13 1.21851e-14 -0.0329767)
(4.15627e-13 1.1463e-15 -0.0325398)
(2.69504e-13 -1.0876e-14 -0.03155)
(7.65975e-14 -1.03395e-14 -0.0303328)
(7.77767e-15 -4.46174e-15 -0.0292889)
(-1.41418e-14 2.39597e-15 -0.0286309)
(-6.41881e-14 6.94176e-15 -0.028388)
(1.37028e-13 -3.11245e-14 -0.0284608)
(8.97111e-13 -2.65568e-14 -0.0286972)
(-1.55241e-12 4.14468e-13 -0.0290126)
(-1.58758e-11 7.58861e-13 -0.0295214)
(-9.17564e-12 -4.32289e-12 -0.0306381)
(2.09037e-10 -2.30972e-11 -0.033045)
(8.93314e-10 -4.45278e-11 -0.0369339)
(1.82378e-09 -3.54324e-11 -0.0408851)
(2.22976e-09 5.68786e-12 -0.0423964)
(1.74536e-09 3.69466e-11 -0.0405071)
(8.84386e-10 3.67932e-11 -0.0368402)
(2.67114e-10 2.07257e-11 -0.0335271)
(7.72442e-12 6.86111e-12 -0.0314237)
(-4.65239e-11 1.1732e-12 -0.0303763)
(-3.25615e-11 -1.20662e-12 -0.0298803)
(3.29294e-11 -8.03026e-12 -0.0296063)
(1.74661e-10 -4.41637e-12 -0.0296721)
(2.68944e-11 7.95437e-11 -0.0302361)
(-1.88579e-09 3.51924e-10 -0.0303662)
(-8.14744e-09 8.35681e-10 -0.0275029)
(-2.00403e-08 1.24241e-09 -0.0196316)
(-3.37915e-08 1.07468e-09 -0.00940103)
(-4.14889e-08 2.52803e-10 -0.00355848)
(-3.81426e-08 -6.73689e-10 -0.00638821)
(-2.65355e-08 -1.15917e-09 -0.0155638)
(-1.36987e-08 -1.08595e-09 -0.0254295)
(-4.63624e-09 -6.7784e-10 -0.0318427)
(-2.91209e-10 -2.96248e-10 -0.0339761)
(9.82859e-10 -1.2049e-10 -0.0334005)
(1.01599e-09 6.90537e-11 -0.031847)
(-1.9662e-11 8.89512e-10 -0.0294388)
(-4.39664e-09 3.07637e-09 -0.0242388)
(-1.59549e-08 6.83716e-09 -0.0133011)
(-3.71581e-08 1.11149e-08 0.0051134)
(-6.56739e-08 1.35415e-08 0.0297453)
(-9.40421e-08 1.17577e-08 0.0567151)
(-1.12919e-07 5.39161e-09 0.0802404)
(-1.15229e-07 -3.18314e-09 0.0928752)
(-9.9647e-08 -1.02861e-08 0.0881405)
(-7.19773e-08 -1.33945e-08 0.0655425)
(-4.19661e-08 -1.23614e-08 0.0323732)
(-1.78747e-08 -8.77338e-09 -0.000229392)
(-3.30492e-09 -4.54474e-09 -0.0232198)
(2.34799e-09 -7.03369e-10 -0.0332436)
(1.03283e-09 2.91784e-09 -0.0322959)
(-6.20995e-09 6.91887e-09 -0.0252148)
(-1.90591e-08 1.12561e-08 -0.0170438)
(-3.61359e-08 1.48245e-08 -0.0107784)
(-5.41851e-08 1.60536e-08 -0.00539447)
(-6.94883e-08 1.39188e-08 0.00396193)
(-7.95454e-08 8.49773e-09 0.0216553)
(-8.30331e-08 9.06852e-10 0.0462316)
(-7.89981e-08 -7.04776e-09 0.0692211)
(-6.73097e-08 -1.3419e-08 0.0797427)
(-4.99541e-08 -1.67217e-08 0.0717199)
(-3.09474e-08 -1.62985e-08 0.0476851)
(-1.46419e-08 -1.24984e-08 0.0169619)
(-4.04901e-09 -6.55055e-09 -0.00991109)
(-2.60417e-10 -2.64448e-11 -0.0272364)
(-2.76367e-09 5.73131e-09 -0.0365409)
(-9.87886e-09 9.85601e-09 -0.0435658)
(-1.91048e-08 1.19121e-08 -0.0523251)
(-2.77806e-08 1.18457e-08 -0.0608745)
(-3.40728e-08 9.96707e-09 -0.0625782)
(-3.74842e-08 6.79715e-09 -0.0516468)
(-3.83862e-08 2.83244e-09 -0.0278255)
(-3.7122e-08 -1.5483e-09 0.00287976)
(-3.36399e-08 -5.97951e-09 0.0309479)
(-2.79588e-08 -9.88962e-09 0.0478125)
(-2.07068e-08 -1.23639e-08 0.0492529)
(-1.31317e-08 -1.24372e-08 0.036485)
(-6.7215e-09 -9.77779e-09 0.0147938)
(-2.66624e-09 -5.14408e-09 -0.010025)
(-1.43793e-09 -8.30421e-11 -0.034787)
(-2.65446e-09 3.91976e-09 -0.0588794)
(-5.28624e-09 6.1102e-09 -0.0813761)
(-8.14169e-09 6.54345e-09 -0.098541)
(-1.03706e-08 5.73943e-09 -0.104941)
(-1.16682e-08 4.27856e-09 -0.0970889)
(-1.21155e-08 2.55629e-09 -0.0759181)
(-1.18794e-08 7.24014e-10 -0.0464502)
(-1.10409e-08 -1.23515e-09 -0.0156583)
(-9.64283e-09 -3.31742e-09 0.00999757)
(-7.78762e-09 -5.27301e-09 0.0258588)
(-5.68338e-09 -6.5656e-09 0.0295967)
(-3.63055e-09 -6.65767e-09 0.0212276)
(-1.92887e-09 -5.43382e-09 0.00240954)
(-7.55792e-10 -3.35839e-09 -0.0243512)
(-1.04268e-10 -1.19302e-09 -0.0557094)
(1.7185e-10 4.54149e-10 -0.086843)
(2.43638e-10 1.36716e-09 -0.111456)
(2.13587e-10 1.65363e-09 -0.123667)
(1.02047e-10 1.5404e-09 -0.120635)
(-1.00153e-10 1.21795e-09 -0.103725)
(-3.72113e-10 7.88828e-10 -0.0775518)
(-6.47179e-10 2.84986e-10 -0.0479349)
(-8.46917e-10 -2.84461e-10 -0.0200957)
(-9.16679e-10 -8.803e-10 0.00181114)
(-8.43066e-10 -1.40856e-09 0.0146063)
(-6.482e-10 -1.75142e-09 0.0160078)
(-3.64788e-10 -1.83779e-09 0.00481713)
(-1.20801e-11 -1.69195e-09 -0.0184671)
(4.05722e-10 -1.41307e-09 -0.0508249)
(8.77213e-10 -1.10762e-09 -0.0863993)
(1.36202e-09 -8.36841e-10 -0.117511)
(1.79167e-09 -6.12246e-10 -0.137182)
(2.09183e-09 -4.22348e-10 -0.141701)
(2.20939e-09 -2.56951e-10 -0.131541)
(2.13076e-09 -1.11667e-10 -0.110361)
(1.88478e-09 2.16329e-11 -0.0830722)
(1.53047e-09 1.59265e-10 -0.0542592)
(1.13732e-09 3.13962e-10 -0.0278534)
(7.67583e-10 4.74415e-10 -0.00738984)
(4.67617e-10 5.96967e-10 0.00374456)
(2.66929e-10 6.2594e-10 0.00260476)
(1.78659e-10 5.31175e-10 -0.0122628)
(1.98302e-10 3.30991e-10 -0.0394698)
(3.0307e-10 8.18852e-11 -0.0740943)
(4.55544e-10 -1.53162e-10 -0.108593)
(6.12943e-10 -3.319e-10 -0.13538)
(7.38434e-10 -4.40949e-10 -0.14944)
(8.09598e-10 -4.87705e-10 -0.149699)
(8.21131e-10 -4.85892e-10 -0.138074)
(7.81878e-10 -4.41808e-10 -0.11842)
(7.08171e-10 -3.51571e-10 -0.0938289)
(6.15274e-10 -1.92106e-10 -0.0688891)
(5.13309e-10 -1.91118e-11 -0.0401807)
(4.14075e-10 3.8934e-10 -0.0369865)
(2.70528e-10 3.63351e-10 -0.000681437)
(-2.56437e-18 -5.27365e-20 -0.0405146)
(-2.90099e-17 -5.08808e-20 -0.0407702)
(-5.32939e-17 4.07658e-20 -0.0420843)
(-8.43802e-17 7.68497e-19 -0.044454)
(-1.20791e-16 -1.40224e-19 -0.0475667)
(-1.28031e-16 4.64526e-19 -0.0509447)
(-2.8311e-16 1.74962e-17 -0.054066)
(-2.63801e-16 1.18978e-18 -0.0564464)
(6.09619e-16 -8.45737e-17 -0.0577526)
(2.15102e-16 -3.91676e-17 -0.0578181)
(-3.08051e-15 1.86644e-16 -0.0566607)
(-6.23582e-15 2.42499e-16 -0.0545759)
(-5.35752e-15 2.88604e-17 -0.0518952)
(-1.75303e-15 -1.53878e-16 -0.0490608)
(6.54027e-16 -1.71123e-16 -0.0464825)
(1.3621e-15 -1.2838e-16 -0.0445161)
(1.27721e-15 -9.40256e-17 -0.0434615)
(9.04697e-16 -2.65672e-17 -0.0435032)
(-3.75498e-16 1.60861e-16 -0.0447055)
(-1.8667e-15 6.48241e-17 -0.0469845)
(4.44661e-15 -7.87254e-17 -0.0501034)
(-2.25111e-14 6.20202e-15 -0.0537029)
(-1.38874e-13 -1.00576e-14 -0.0573389)
(7.2127e-13 -1.29446e-13 -0.0604372)
(3.97124e-12 -1.96726e-13 -0.0622098)
(6.65e-12 -1.08137e-14 -0.0618361)
(5.09275e-12 1.68709e-13 -0.0589758)
(1.8523e-12 1.30139e-13 -0.0541521)
(2.17307e-13 4.4769e-14 -0.0484468)
(-2.57473e-13 3.5802e-14 -0.0430368)
(-3.29499e-13 -7.2031e-14 -0.0389217)
(1.44162e-12 -4.75292e-13 -0.0367609)
(3.53873e-12 8.17322e-13 -0.0368476)
(-1.60722e-11 8.27591e-12 -0.0392472)
(-6.84253e-11 3.83368e-12 -0.044022)
(5.41485e-11 -1.11042e-10 -0.0515168)
(9.63171e-10 -4.4614e-10 -0.0624292)
(3.02625e-09 -7.98536e-10 -0.0761748)
(5.50886e-09 -6.61032e-10 -0.0887336)
(6.87469e-09 3.86831e-11 -0.0939304)
(6.00452e-09 6.65329e-10 -0.0883674)
(3.55887e-09 7.31092e-10 -0.0749586)
(1.359e-09 4.33425e-10 -0.0599584)
(1.85593e-10 1.54789e-10 -0.0474203)
(-1.83794e-10 1.9968e-11 -0.0387578)
(-1.51975e-10 -3.81658e-11 -0.0341078)
(1.82094e-10 -1.00772e-10 -0.0334779)
(6.85602e-10 2.17208e-12 -0.0368667)
(-5.99913e-10 1.0085e-09 -0.0420493)
(-9.56325e-09 4.0088e-09 -0.0413016)
(-3.4063e-08 8.91038e-09 -0.0233142)
(-7.50618e-08 1.25948e-08 0.0155719)
(-1.19335e-07 1.05463e-08 0.0622396)
(-1.45008e-07 2.16008e-09 0.0926428)
(-1.37282e-07 -7.32564e-09 0.0889505)
(-1.00861e-07 -1.20129e-08 0.0541872)
(-5.60665e-08 -1.0781e-08 0.00960735)
(-2.13575e-08 -6.59969e-09 -0.0239034)
(-2.88587e-09 -2.76922e-09 -0.0388947)
(3.25903e-09 -6.68758e-10 -0.0404394)
(3.34955e-09 5.10318e-10 -0.0371125)
(-3.64597e-10 2.98135e-09 -0.0330561)
(-1.11834e-08 8.91846e-09 -0.0266782)
(-3.392e-08 1.84114e-08 -0.0148211)
(-6.81496e-08 2.80553e-08 0.00321113)
(-1.0594e-07 3.22947e-08 0.0272206)
(-1.37837e-07 2.70558e-08 0.0600777)
(-1.58502e-07 1.2419e-08 0.102675)
(-1.64672e-07 -7.0984e-09 0.144123)
(-1.52185e-07 -2.42168e-08 0.163649)
(-1.20425e-07 -3.26815e-08 0.146755)
(-7.77276e-08 -3.09731e-08 0.0987084)
(-3.75105e-08 -2.23762e-08 0.0404133)
(-9.80616e-09 -1.17994e-08 -0.00662182)
(2.50792e-09 -2.33963e-09 -0.0320214)
(1.23233e-09 5.80545e-09 -0.03891)
(-1.06509e-08 1.35817e-08 -0.0391226)
(-2.93926e-08 2.06872e-08 -0.0449653)
(-4.9456e-08 2.51301e-08 -0.0601437)
(-6.50367e-08 2.5036e-08 -0.0747025)
(-7.37175e-08 2.0256e-08 -0.0709834)
(-7.76013e-08 1.19059e-08 -0.0381372)
(-7.99792e-08 1.17083e-09 0.0182534)
(-8.08785e-08 -1.05906e-08 0.0786693)
(-7.65128e-08 -2.10119e-08 0.119993)
(-6.37672e-08 -2.71325e-08 0.127483)
(-4.42756e-08 -2.7044e-08 0.101739)
(-2.37535e-08 -2.10288e-08 0.0567347)
(-8.48997e-09 -1.12504e-08 0.010216)
(-2.21484e-09 -5.33805e-10 -0.0278019)
(-4.93534e-09 8.67597e-09 -0.05952)
(-1.34483e-08 1.47286e-08 -0.092508)
(-2.30294e-08 1.69164e-08 -0.127569)
(-2.98231e-08 1.56225e-08 -0.153511)
(-3.26099e-08 1.20902e-08 -0.155151)
(-3.27249e-08 7.61646e-09 -0.125868)
(-3.23689e-08 2.80516e-09 -0.0721496)
(-3.26296e-08 -2.39873e-09 -0.00881117)
(-3.26228e-08 -7.96941e-09 0.0478074)
(-3.05049e-08 -1.31471e-08 0.0846652)
(-2.52749e-08 -1.64865e-08 0.0948813)
(-1.77384e-08 -1.65736e-08 0.0791765)
(-1.01313e-08 -1.29883e-08 0.0442579)
(-4.78215e-09 -6.80926e-09 -0.00206165)
(-2.81199e-09 -1.47539e-10 -0.0547304)
(-3.69163e-09 4.97802e-09 -0.10988)
(-5.83884e-09 7.56561e-09 -0.159865)
(-7.73877e-09 7.79561e-09 -0.192286)
(-8.7309e-09 6.53353e-09 -0.196434)
(-9.02602e-09 4.65997e-09 -0.170616)
(-9.18541e-09 2.6593e-09 -0.122851)
(-9.53875e-09 5.94735e-10 -0.0656208)
(-9.914e-09 -1.65003e-09 -0.0106154)
(-9.83587e-09 -4.06779e-09 0.0333923)
(-8.91447e-09 -6.31928e-09 0.0603003)
(-7.13881e-09 -7.7583e-09 0.0665088)
(-4.91233e-09 -7.78627e-09 0.0509757)
(-2.80285e-09 -6.32105e-09 0.0150222)
(-1.20362e-09 -3.93697e-09 -0.0374712)
(-1.68334e-10 -1.51174e-09 -0.098772)
(4.86819e-10 2.93422e-10 -0.156491)
(9.58023e-10 1.28673e-09 -0.196301)
(1.30932e-09 1.63414e-09 -0.208191)
(1.47736e-09 1.59963e-09 -0.191213)
(1.36684e-09 1.36483e-09 -0.152675)
(9.56932e-10 9.93597e-10 -0.103292)
(3.5172e-10 4.87679e-10 -0.0527233)
(-2.62271e-10 -1.4357e-10 -0.00800126)
(-7.03399e-10 -8.36301e-10 0.0256123)
(-8.70358e-10 -1.46449e-09 0.0435592)
(-7.60957e-10 -1.88876e-09 0.0417478)
(-4.32147e-10 -2.03526e-09 0.01759)
(5.36741e-11 -1.93647e-09 -0.0277857)
(6.47785e-10 -1.6948e-09 -0.0872989)
(1.29735e-09 -1.40719e-09 -0.147919)
(1.93053e-09 -1.11999e-09 -0.194596)
(2.46752e-09 -8.37068e-10 -0.216573)
(2.8413e-09 -5.52521e-10 -0.211512)
(3.00744e-09 -2.72759e-10 -0.184655)
(2.94637e-09 -1.55262e-11 -0.144627)
(2.66949e-09 2.06043e-10 -0.0994754)
(2.22545e-09 3.94254e-10 -0.05523)
(1.69209e-09 5.58363e-10 -0.0166727)
(1.15805e-09 6.92163e-10 0.0113633)
(7.05192e-10 7.61292e-10 0.023411)
(3.95278e-10 7.20976e-10 0.0144522)
(2.5933e-10 5.53364e-10 -0.0172957)
(2.90721e-10 2.89936e-10 -0.0674024)
(4.4751e-10 -1.47791e-12 -0.124644)
(6.66232e-10 -2.52024e-10 -0.174553)
(8.82156e-10 -4.20924e-10 -0.205575)
(1.04667e-09 -5.023e-10 -0.213378)
(1.13554e-09 -5.13657e-10 -0.200998)
(1.14743e-09 -4.77901e-10 -0.17483)
(1.09605e-09 -4.0735e-10 -0.141627)
(1.00089e-09 -2.99793e-10 -0.105137)
(8.77502e-10 -1.30224e-10 -0.0708122)
(7.34599e-10 4.62784e-11 -0.0311413)
(5.87092e-10 4.69815e-10 -0.0351629)
(3.65719e-10 4.11192e-10 0.0137119)
(-8.07487e-17 8.66978e-18 -0.0561275)
(-2.67494e-16 1.39908e-17 -0.0564726)
(-2.29443e-16 1.58575e-17 -0.0583225)
(-3.01105e-16 1.93594e-17 -0.0616751)
(-2.78353e-16 5.71306e-18 -0.0660864)
(-3.57183e-16 6.93678e-17 -0.0708787)
(-1.09584e-15 5.29317e-17 -0.0753117)
(2.26306e-15 -4.35809e-16 -0.0786966)
(2.25084e-15 3.25675e-15 -0.0805621)
(-1.49666e-14 1.83567e-15 -0.080663)
(-2.47573e-14 1.4593e-15 -0.079011)
(-9.35835e-15 4.60057e-15 -0.0760478)
(9.71272e-15 -2.22838e-15 -0.072239)
(1.66904e-14 -3.00845e-15 -0.0681552)
(1.30495e-14 -1.57462e-15 -0.0643313)
(6.34863e-15 -3.34431e-16 -0.0613103)
(1.01189e-15 2.04759e-16 -0.0595839)
(-3.84501e-15 8.08378e-16 -0.0594725)
(-1.1915e-14 1.39453e-15 -0.0611395)
(-3.5764e-15 -2.35787e-15 -0.0645291)
(-1.758e-14 1.03208e-14 -0.0693132)
(-2.02592e-13 7.15403e-14 -0.074896)
(8.02404e-13 -3.6982e-13 -0.0805244)
(6.31766e-13 -2.04589e-12 -0.0853241)
(-1.28838e-11 -2.95218e-12 -0.0881287)
(-2.25949e-11 -5.59609e-13 -0.0877613)
(-1.11805e-11 2.38798e-12 -0.0836971)
(-4.03506e-13 2.42738e-12 -0.0765099)
(1.04666e-12 1.05042e-12 -0.0675912)
(-5.52282e-13 2.75799e-13 -0.0586545)
(5.98179e-14 -8.42604e-13 -0.0514109)
(5.66269e-12 -1.96524e-12 -0.0472718)
(-5.20251e-12 8.73033e-12 -0.047068)
(-5.66913e-11 3.63965e-11 -0.0511004)
(3.01891e-11 -3.43515e-11 -0.0596719)
(4.75968e-10 -5.20121e-10 -0.0729531)
(-1.96455e-10 -1.50915e-09 -0.0882175)
(-5.5925e-09 -2.31737e-09 -0.0984108)
(-1.43777e-08 -1.95965e-09 -0.101366)
(-1.76859e-08 -2.42142e-10 -0.103679)
(-1.1847e-08 1.69485e-09 -0.106234)
(-3.80829e-09 2.35955e-09 -0.101093)
(4.07192e-10 1.70737e-09 -0.0861659)
(9.20926e-10 7.78259e-10 -0.0670421)
(1.92168e-10 1.69957e-10 -0.0505305)
(-9.40893e-11 -1.8415e-10 -0.0409223)
(6.76955e-10 -4.26819e-10 -0.0399253)
(1.31126e-09 3.86587e-10 -0.0459718)
(-4.67713e-09 5.20397e-09 -0.0498505)
(-2.99945e-08 1.70835e-08 -0.0335221)
(-8.3502e-08 3.3585e-08 0.0177157)
(-1.56167e-07 4.38785e-08 0.0991661)
(-2.24653e-07 3.6048e-08 0.190059)
(-2.66175e-07 9.22615e-09 0.262392)
(-2.64183e-07 -2.27475e-08 0.283329)
(-2.14422e-07 -4.17669e-08 0.234128)
(-1.36006e-07 -4.08376e-08 0.135865)
(-6.20207e-08 -2.72682e-08 0.0371992)
(-1.45579e-08 -1.26045e-08 -0.0256595)
(5.26067e-09 -3.2382e-09 -0.0486793)
(7.46027e-09 1.88087e-09 -0.0479882)
(-1.20143e-09 8.15596e-09 -0.0392217)
(-2.13756e-08 1.98541e-08 -0.0307782)
(-5.30671e-08 3.53203e-08 -0.0289339)
(-8.72276e-08 4.7125e-08 -0.0365828)
(-1.10747e-07 4.8385e-08 -0.0408537)
(-1.20036e-07 3.80387e-08 -0.0143562)
(-1.24151e-07 1.88092e-08 0.0574654)
(-1.32227e-07 -6.34143e-09 0.154341)
(-1.39788e-07 -3.24093e-08 0.230673)
(-1.31849e-07 -5.06234e-08 0.246687)
(-1.01493e-07 -5.38189e-08 0.196693)
(-5.88934e-08 -4.27341e-08 0.110371)
(-2.14415e-08 -2.45539e-08 0.02837)
(-1.06884e-09 -6.22261e-09 -0.0242679)
(-2.5841e-10 9.49723e-09 -0.049621)
(-1.43012e-08 2.22313e-08 -0.0698937)
(-3.39977e-08 3.06587e-08 -0.106621)
(-4.89898e-08 3.26466e-08 -0.157838)
(-5.3077e-08 2.81843e-08 -0.193276)
(-4.77086e-08 2.02012e-08 -0.178571)
(-4.01928e-08 1.16286e-08 -0.10558)
(-3.83113e-08 2.54542e-09 0.00218304)
(-4.45436e-08 -8.78097e-09 0.10763)
(-5.34028e-08 -2.19746e-08 0.178788)
(-5.56546e-08 -3.28403e-08 0.198447)
(-4.6559e-08 -3.63053e-08 0.168155)
(-2.97291e-08 -3.03912e-08 0.106113)
(-1.37668e-08 -1.73199e-08 0.0353957)
(-5.79862e-09 -1.80376e-09 -0.0315499)
(-7.20963e-09 1.1348e-08 -0.0977597)
(-1.3821e-08 1.89031e-08 -0.168511)
(-1.96095e-08 2.00996e-08 -0.233087)
(-2.09229e-08 1.66359e-08 -0.264492)
(-1.80516e-08 1.14179e-08 -0.241173)
(-1.38908e-08 6.67663e-09 -0.166462)
(-1.17027e-08 2.78481e-09 -0.0656733)
(-1.32434e-08 -1.42135e-09 0.031918)
(-1.75924e-08 -7.04185e-09 0.106353)
(-2.15627e-08 -1.35636e-08 0.148038)
(-2.19779e-08 -1.87472e-08 0.154133)
(-1.80933e-08 -2.0009e-08 0.127205)
(-1.20066e-08 -1.62559e-08 0.0736784)
(-6.81986e-09 -8.80371e-09 0.000350369)
(-4.30476e-09 -6.28299e-10 -0.0868023)
(-4.03736e-09 5.43318e-09 -0.177376)
(-4.39753e-09 8.13377e-09 -0.251048)
(-4.1385e-09 7.98948e-09 -0.283353)
(-3.10568e-09 6.38306e-09 -0.261654)
(-1.95099e-09 4.50582e-09 -0.194859)
(-1.51266e-09 2.81266e-09 -0.106928)
(-2.27776e-09 1.08831e-09 -0.0217943)
(-4.0378e-09 -1.08659e-09 0.046382)
(-5.93112e-09 -3.81718e-09 0.0924577)
(-6.95268e-09 -6.62154e-09 0.114772)
(-6.59952e-09 -8.56668e-09 0.111575)
(-5.13115e-09 -8.82565e-09 0.0806933)
(-3.25718e-09 -7.28818e-09 0.0215863)
(-1.57728e-09 -4.67565e-09 -0.0608524)
(-2.81556e-10 -2.03824e-09 -0.15221)
(7.30055e-10 -1.0903e-10 -0.228961)
(1.58451e-09 9.55911e-10 -0.26759)
(2.30105e-09 1.39396e-09 -0.257674)
(2.79642e-09 1.51164e-09 -0.207312)
(2.93733e-09 1.47816e-09 -0.136335)
(2.62206e-09 1.29639e-09 -0.0642404)
(1.88312e-09 8.94587e-10 -0.00264376)
(9.3031e-10 2.43098e-10 0.0441359)
(6.31127e-11 -5.76256e-10 0.0743358)
(-4.77969e-10 -1.37978e-09 0.0847797)
(-6.02417e-10 -1.97052e-09 0.0701507)
(-3.54375e-10 -2.2451e-09 0.0261152)
(1.58927e-10 -2.23192e-09 -0.0450662)
(8.17362e-10 -2.03491e-09 -0.130111)
(1.50133e-09 -1.749e-09 -0.206392)
(2.10806e-09 -1.42193e-09 -0.251514)
(2.57749e-09 -1.06763e-09 -0.254867)
(2.89586e-09 -6.92305e-10 -0.221815)
(3.06532e-09 -3.09487e-10 -0.167902)
(3.07153e-09 5.73087e-11 -0.108943)
(2.88736e-09 3.82092e-10 -0.0546379)
(2.50874e-09 6.47964e-10 -0.00874469)
(1.98015e-09 8.47661e-10 0.0270527)
(1.3931e-09 9.67864e-10 0.0492245)
(8.61517e-10 9.78356e-10 0.0511504)
(4.86565e-10 8.48871e-10 0.0259558)
(3.24093e-10 5.83453e-10 -0.027505)
(3.68308e-10 2.36901e-10 -0.099458)
(5.59922e-10 -1.05871e-10 -0.169994)
(8.13606e-10 -3.70485e-10 -0.217695)
(1.04979e-09 -5.22116e-10 -0.230685)
(1.21605e-09 -5.67643e-10 -0.211406)
(1.29318e-09 -5.38086e-10 -0.172656)
(1.28868e-09 -4.66144e-10 -0.128255)
(1.22367e-09 -3.6854e-10 -0.0873087)
(1.11925e-09 -2.42298e-10 -0.0512888)
(9.86501e-10 -5.89598e-11 -0.0228054)
(8.27238e-10 1.26093e-10 0.0135642)
(6.53413e-10 5.7378e-10 -0.0127448)
(3.85507e-10 4.74037e-10 0.0379193)
(8.13084e-17 1.90879e-15 -0.0710934)
(2.97329e-16 1.80902e-15 -0.0715158)
(2.5977e-16 1.68462e-17 -0.0739108)
(3.47701e-16 1.75995e-15 -0.078277)
(9.63842e-16 1.76262e-15 -0.0840307)
(-1.61438e-15 2.14393e-15 -0.0902842)
(3.32603e-15 -1.29263e-15 -0.0960691)
(1.46675e-14 -1.64505e-15 -0.100484)
(-4.82239e-14 8.53025e-15 -0.102919)
(-8.69423e-14 1.1676e-14 -0.103042)
(1.18268e-13 -2.60392e-15 -0.100842)
(4.78372e-13 -1.69654e-14 -0.0969505)
(6.01315e-13 -1.30091e-14 -0.091904)
(3.71885e-13 -1.82226e-15 -0.0865103)
(1.11826e-13 4.99974e-15 -0.0814907)
(-2.82776e-14 7.62514e-15 -0.0775091)
(-7.52739e-14 6.73752e-15 -0.0752034)
(-9.38801e-14 6.43687e-15 -0.0749878)
(-7.80273e-14 1.76128e-15 -0.0770901)
(4.69637e-15 4.63206e-15 -0.0814615)
(-7.12088e-13 9.94292e-14 -0.0877068)
(1.07875e-12 -4.0379e-13 -0.0951203)
(1.30808e-11 -4.27236e-13 -0.102713)
(-4.71984e-11 6.71365e-12 -0.109105)
(-2.96488e-10 1.14166e-11 -0.112613)
(-5.14776e-10 -8.64194e-13 -0.111952)
(-4.08277e-10 -1.0927e-11 -0.106801)
(-1.54606e-10 -5.98344e-12 -0.0978013)
(-2.02529e-11 1.19157e-13 -0.08631)
(7.91206e-12 5.29195e-13 -0.074416)
(1.11673e-11 -3.18122e-12 -0.0644736)
(5.50312e-13 2.15422e-12 -0.0585492)
(-7.90876e-11 3.19943e-11 -0.057937)
(7.0873e-11 -9.42166e-12 -0.063796)
(1.14107e-09 -2.62498e-10 -0.0776118)
(-7.79916e-12 2.27831e-12 -0.09415)
(-1.72746e-08 2.58809e-09 -0.0890126)
(-6.50408e-08 6.29209e-09 -0.0354297)
(-1.27761e-07 5.38569e-09 0.0454387)
(-1.59744e-07 -1.22669e-09 0.0859853)
(-1.33691e-07 -6.2735e-09 0.0497643)
(-7.40542e-08 -5.39599e-09 -0.0238571)
(-2.42826e-08 -1.93118e-09 -0.0745374)
(-1.29064e-09 2.62299e-10 -0.0834376)
(3.11031e-09 5.27474e-10 -0.0682181)
(1.99303e-09 -2.80561e-10 -0.0527361)
(2.07801e-09 -8.03447e-10 -0.0491865)
(4.02187e-10 2.67921e-09 -0.0534526)
(-1.66144e-08 1.66614e-08 -0.0470493)
(-6.33374e-08 4.34212e-08 -0.0123963)
(-1.33446e-07 7.19965e-08 0.0469829)
(-1.98317e-07 8.31702e-08 0.118343)
(-2.39807e-07 6.55505e-08 0.210273)
(-2.66378e-07 2.19253e-08 0.329562)
(-2.83682e-07 -3.32021e-08 0.432953)
(-2.70845e-07 -7.61016e-08 0.44591)
(-2.0935e-07 -8.69817e-08 0.341004)
(-1.19591e-07 -6.73237e-08 0.174804)
(-4.19821e-08 -3.64099e-08 0.0318916)
(8.01727e-10 -1.16778e-08 -0.0440192)
(1.07145e-08 3.74136e-09 -0.0612457)
(-2.53264e-09 1.73993e-08 -0.0522588)
(-3.11832e-08 3.48513e-08 -0.0524046)
(-6.37138e-08 5.13374e-08 -0.0885632)
(-8.27258e-08 5.68954e-08 -0.155773)
(-7.78534e-08 4.86987e-08 -0.200898)
(-5.64546e-08 3.37577e-08 -0.160053)
(-3.82013e-08 1.85148e-08 -0.0214843)
(-4.08668e-08 7.19808e-10 0.161219)
(-6.56876e-08 -2.4406e-08 0.310226)
(-9.21941e-08 -5.1829e-08 0.367999)
(-9.5427e-08 -6.74508e-08 0.322065)
(-7.04715e-08 -6.24017e-08 0.207856)
(-3.4428e-08 -4.07117e-08 0.0838419)
(-8.8759e-09 -1.29312e-08 -0.00799397)
(-4.32543e-09 1.24217e-08 -0.0675056)
(-1.65165e-08 3.04514e-08 -0.127441)
(-3.19985e-08 3.80315e-08 -0.212797)
(-3.81928e-08 3.46698e-08 -0.301956)
(-3.13655e-08 2.43954e-08 -0.334551)
(-1.66064e-08 1.38139e-08 -0.266218)
(-2.38282e-09 7.20725e-09 -0.110645)
(3.68297e-09 3.34624e-09 0.0726172)
(-2.59533e-09 -3.04484e-09 0.222074)
(-1.84753e-08 -1.54564e-08 0.303708)
(-3.37373e-08 -3.05544e-08 0.311257)
(-3.81218e-08 -4.00067e-08 0.257174)
(-3.02373e-08 -3.74249e-08 0.165912)
(-1.78229e-08 -2.32156e-08 0.0620566)
(-9.91021e-09 -3.8124e-09 -0.0441491)
(-9.32481e-09 1.26872e-08 -0.156709)
(-1.20896e-08 2.09285e-08 -0.271504)
(-1.27145e-08 2.04674e-08 -0.356368)
(-9.09329e-09 1.48436e-08 -0.36565)
(-2.84589e-09 8.57414e-09 -0.279751)
(3.10195e-09 4.44202e-09 -0.125654)
(6.18669e-09 2.4815e-09 0.0411919)
(4.72177e-09 5.46084e-10 0.172229)
(-1.23532e-09 -3.80978e-09 0.246618)
(-8.96072e-09 -1.09544e-08 0.266731)
(-1.43314e-08 -1.82212e-08 0.243402)
(-1.49594e-08 -2.15592e-08 0.186457)
(-1.18815e-08 -1.8625e-08 0.101737)
(-8.05476e-09 -1.06602e-08 -0.00786281)
(-5.48735e-09 -1.53879e-09 -0.135858)
(-4.0605e-09 5.02441e-09 -0.260876)
(-2.66786e-09 7.61619e-09 -0.34436)
(-7.14293e-10 7.14969e-09 -0.349872)
(1.55376e-09 5.43978e-09 -0.270426)
(3.50808e-09 3.86345e-09 -0.135898)
(4.49019e-09 2.82269e-09 0.00605861)
(3.97338e-09 1.85731e-09 0.117305)
(1.88397e-09 1.76654e-10 0.183434)
(-1.05139e-09 -2.61035e-09 0.208789)
(-3.57351e-09 -5.98508e-09 0.203063)
(-4.70652e-09 -8.66906e-09 0.171027)
(-4.35149e-09 -9.45744e-09 0.110514)
(-3.12029e-09 -8.09798e-09 0.018423)
(-1.69455e-09 -5.42478e-09 -0.0986928)
(-4.14232e-10 -2.6654e-09 -0.216445)
(6.63515e-10 -6.39611e-10 -0.297057)
(1.56772e-09 5.01233e-10 -0.309388)
(2.32903e-09 1.02819e-09 -0.24956)
(2.9516e-09 1.28149e-09 -0.143275)
(3.3587e-09 1.45201e-09 -0.0288698)
(3.38381e-09 1.52071e-09 0.0637222)
(2.89747e-09 1.33355e-09 0.123141)
(1.98331e-09 7.66433e-10 0.152448)
(9.44648e-10 -1.32161e-10 0.158573)
(1.36583e-10 -1.13173e-09 0.143327)
(-2.20503e-10 -1.95056e-09 0.101527)
(-1.0611e-10 -2.41593e-09 0.0275042)
(3.53807e-10 -2.52234e-09 -0.073853)
(9.70233e-10 -2.366e-09 -0.180053)
(1.55867e-09 -2.05254e-09 -0.256839)
(2.00082e-09 -1.65806e-09 -0.276639)
(2.27796e-09 -1.23097e-09 -0.235419)
(2.4461e-09 -7.96439e-10 -0.153689)
(2.56597e-09 -3.60596e-10 -0.0623414)
(2.63998e-09 7.34518e-11 0.0143035)
(2.60613e-09 4.87441e-10 0.0667437)
(2.39198e-09 8.47864e-10 0.0972872)
(1.98054e-09 1.11618e-09 0.111549)