/*--------------------------------*- C++ -*----------------------------------*\
  =========                 |
  \\      /  F ield         | OpenFOAM: The Open Source CFD Toolbox
   \\    /   O peration     | Website:  https://openfoam.org
    \\  /    A nd           | Version:  11
     \\/     M anipulation  |
\*---------------------------------------------------------------------------*/
FoamFile
{
    format      ascii;
    class       volVectorField;
    location    "14.849033";
    object      U;
}
// * * * * * * * * * * * * * * * * * * * * * * * * * * * * * * * * * * * * * //

dimensions      [0 1 -1 0 0 0 0];

internalField   nonuniform List<vector> 
7132
(
(1.00013 -0.00026906 2.93981e-18)
(1.00209 -0.000815423 9.96292e-18)
(1.00653 -0.00137422 1.03638e-17)
(1.01314 -0.00193047 1.33564e-17)
(1.02197 -0.0024599 1.81028e-17)
(1.03284 -0.00291994 1.84212e-17)
(1.04537 -0.0032511 1.77128e-17)
(1.05893 -0.00337156 1.73172e-17)
(1.07246 -0.00319781 1.72198e-17)
(1.08468 -0.00268475 1.71354e-17)
(1.09408 -0.00183629 1.67635e-17)
(1.09951 -0.000845742 1.61223e-17)
(1.10086 9.08422e-05 1.51426e-17)
(1.09872 0.000765453 1.38302e-17)
(1.09462 0.000993281 9.89787e-18)
(1.09064 0.000740111 6.14075e-18)
(1.08864 0.000139113 3.32262e-18)
(1.08962 -0.000545271 1.07501e-18)
(1.09325 -0.000974619 -1.06841e-18)
(1.09778 -0.0008524 -6.51466e-19)
(1.10048 -7.90851e-05 2.82996e-19)
(1.09878 0.00117319 1.13775e-18)
(1.09132 0.00255243 1.81379e-18)
(1.07841 0.00370254 3.23774e-18)
(1.0616 0.00437458 1.25473e-18)
(1.0432 0.0044416 5.15249e-18)
(1.02579 0.00386664 5.8292e-18)
(1.01195 0.00267322 -2.80322e-17)
(1.00409 0.000948558 -7.54529e-17)
(1.00412 -0.00112061 2.07902e-16)
(1.01297 -0.00318849 2.77976e-15)
(1.02978 -0.00474152 9.38162e-15)
(1.0513 -0.00524594 1.53717e-14)
(1.07231 -0.00442636 1.35258e-14)
(1.08727 -0.00247315 6.42555e-15)
(1.0925 2.73283e-05 1.37198e-15)
(1.08722 0.00239168 -7.08346e-16)
(1.07329 0.00412744 2.67907e-16)
(1.05395 0.0050235 6.46776e-15)
(1.03275 0.00506698 2.59072e-15)
(1.013 0.00431923 -6.41164e-14)
(0.997757 0.00284536 -1.80794e-13)
(0.989812 0.000732427 1.02817e-13)
(0.991559 -0.00181609 2.06707e-12)
(1.00422 -0.0043643 7.10573e-12)
(1.02668 -0.00624617 1.42757e-11)
(1.05472 -0.00679045 1.93712e-11)
(1.0817 -0.00567977 1.87606e-11)
(1.10083 -0.00318231 1.33404e-11)
(1.10763 -5.10762e-05 6.96446e-12)
(1.1014 0.00284233 2.37263e-12)
(1.08476 0.00487559 7.15785e-14)
(1.06205 0.00581669 -5.14666e-13)
(1.03778 0.0057234 -5.64659e-14)
(1.0158 0.00475542 6.52024e-13)
(0.999272 0.0030469 -6.80902e-13)
(0.99097 0.000712566 -8.93091e-12)
(0.993203 -0.00202915 -2.97408e-11)
(1.00704 -0.00472276 -6.51029e-11)
(1.03114 -0.00669143 -1.08251e-10)
(1.06105 -0.00726791 -1.43858e-10)
(1.08997 -0.0061309 -1.56662e-10)
(1.11082 -0.00352097 -1.41142e-10)
(1.11871 -0.000174321 -1.03597e-10)
(1.11249 0.00299086 -5.88193e-11)
(1.09472 0.00524579 -2.24736e-11)
(1.07019 0.00626503 -1.62359e-12)
(1.04412 0.00609487 5.62738e-12)
(1.02092 0.00496404 3.8932e-12)
(1.0039 0.00310091 -5.80022e-12)
(0.995615 0.000688934 -2.71025e-11)
(0.997951 -0.00202639 -6.42044e-11)
(1.01154 -0.00461033 -1.16491e-10)
(1.0348 -0.00645991 -1.75456e-10)
(1.06346 -0.00700932 -2.26224e-10)
(1.09135 -0.0059972 -2.53483e-10)
(1.11205 -0.003619 -2.4835e-10)
(1.12089 -0.00047512 -2.11991e-10)
(1.11629 0.00264335 -1.54802e-10)
(1.09995 0.00502526 -9.26886e-11)
(1.07603 0.00624784 -4.08239e-11)
(1.04969 0.00623546 -5.80018e-12)
(1.02573 0.00516138 1.7981e-11)
(1.00792 0.00328091 4.35487e-11)
(0.999 0.000842218 8.18653e-11)
(1.00079 -0.0018573 1.3559e-10)
(1.01367 -0.00437557 1.99657e-10)
(1.03587 -0.00615643 2.65966e-10)
(1.06324 -0.00671584 3.27299e-10)
(1.09005 -0.00585937 3.78078e-10)
(1.11056 -0.00377858 4.12732e-10)
(1.12062 -0.000976866 4.2387e-10)
(1.11859 0.00190754 4.02412e-10)
(1.10544 0.00428702 3.42071e-10)
(1.08424 0.00575137 2.4864e-10)
(1.05927 0.00611522 1.45613e-10)
(1.03507 0.00539569 6.66531e-11)
(1.01579 0.00374313 3.74988e-11)
(1.00481 0.0013889 6.25925e-11)
(1.00447 -0.00133549 1.27204e-10)
(1.01551 -0.00395809 2.09779e-10)
(1.03644 -0.00591669 2.92579e-10)
(1.06337 -0.00672662 3.6526e-10)
(1.09084 -0.00617377 4.23562e-10)
(1.11324 -0.00440604 4.66613e-10)
(1.12634 -0.00187078 4.94139e-10)
(1.1282 0.000854446 5.03345e-10)
(1.1193 0.00324594 4.86534e-10)
(1.10191 0.00494907 4.33946e-10)
(1.07935 0.00578667 3.4381e-10)
(1.05529 0.0057037 2.32531e-10)
(1.03343 0.00471186 1.32301e-10)
(1.01737 0.00288238 7.36385e-11)
(1.01027 0.000397892 6.77141e-11)
(1.01427 -0.00238197 1.03988e-10)
(1.02967 -0.0049322 1.61687e-10)
(1.05431 -0.0066903 2.22318e-10)
(1.08388 -0.00724938 2.75043e-10)
(1.11293 -0.00650763 3.15875e-10)
(1.13635 -0.004697 3.44877e-10)
(1.15062 -0.00229082 3.63782e-10)
(1.1545 0.000155194 3.74165e-10)
(1.14899 0.00216491 3.75547e-10)
(1.13666 0.00345277 3.64183e-10)
(1.12081 0.00394204 3.34539e-10)
(1.10462 0.0037037 2.84114e-10)
(1.0908 0.00286862 2.18509e-10)
(1.08146 0.0015787 1.51547e-10)
(1.07816 3.9885e-06 9.91031e-11)
(1.08167 -0.00161642 7.14563e-11)
(1.09159 -0.0029796 6.98807e-11)
(1.10618 -0.00379275 8.86539e-11)
(1.12266 -0.00388055 1.19399e-10)
(1.13786 -0.00325974 1.54516e-10)
(1.14914 -0.0021379 1.88615e-10)
(1.15505 -0.000842128 2.18513e-10)
(1.15566 0.000282172 2.42695e-10)
(1.15235 0.000962228 2.60743e-10)
(1.14738 0.00104966 2.72897e-10)
(1.14332 0.000527126 2.79684e-10)
(1.14254 -0.000514448 2.81585e-10)
(1.14686 -0.00190934 2.78858e-10)
(1.15733 -0.00344526 2.71607e-10)
(1.17406 -0.00488255 2.60018e-10)
(1.19618 -0.00597008 2.4453e-10)
(1.22179 -0.00647164 2.2584e-10)
(1.24811 -0.00620872 2.04774e-10)
(1.27178 -0.00510953 1.82116e-10)
(1.28941 -0.00324389 1.58501e-10)
(1.29821 -0.000827062 1.34421e-10)
(1.29645 0.00181244 1.1035e-10)
(1.28409 0.0042976 8.70058e-11)
(1.26224 0.00628418 6.58128e-11)
(1.23396 0.00753193 4.93749e-11)
(1.20178 0.00794256 4.14117e-11)
(1.1705 0.00755389 4.54224e-11)
(1.14075 0.00653081 6.25687e-11)
(1.11862 0.00500954 8.97195e-11)
(1.09959 0.00350758 1.19875e-10)
(1.09164 0.000834318 1.54956e-10)
(1.00013 -0.0008059 4.55608e-20)
(1.00208 -0.00244387 4.90284e-19)
(1.00651 -0.00412112 9.54355e-19)
(1.01312 -0.00579514 1.48252e-18)
(1.02197 -0.00739395 2.18844e-18)
(1.03292 -0.00879027 2.93072e-18)
(1.04561 -0.00980468 3.47802e-18)
(1.05941 -0.0101862 4.51813e-18)
(1.07326 -0.00967705 5.37023e-18)
(1.08583 -0.00812989 5.51507e-18)
(1.09548 -0.0055487 5.35245e-18)
(1.10098 -0.00253177 7.71177e-18)
(1.10219 0.00032014 8.09177e-18)
(1.09971 0.00237129 8.4581e-18)
(1.09515 0.00304705 7.34139e-18)
(1.09076 0.00223917 3.63683e-18)
(1.08853 0.000358783 -1.44792e-18)
(1.08957 -0.00177411 -4.7695e-18)
(1.09358 -0.00312439 -3.48845e-18)
(1.0987 -0.00277616 2.08681e-18)
(1.10197 -0.000417755 7.58996e-18)
(1.10058 0.0034179 9.75903e-18)
(1.0931 0.007643 8.20008e-18)
(1.07986 0.0111646 4.51655e-18)
(1.06254 0.0132298 2.18283e-17)
(1.04354 0.0134623 1.87887e-17)
(1.02549 0.0117551 -3.15619e-16)
(1.01106 0.00817503 2.5298e-17)
(1.00272 0.00297062 6.242e-15)
(1.00253 -0.00331383 4.31209e-15)
(1.01159 -0.0096401 -1.07932e-13)
(1.02916 -0.0144321 -4.02611e-13)
(1.05185 -0.0160295 -6.30911e-13)
(1.07409 -0.0135637 -5.30523e-13)
(1.08993 -0.00761321 -2.58336e-13)
(1.09542 1.64205e-05 -6.8257e-14)
(1.08983 0.00722599 -4.58987e-16)
(1.07524 0.0125121 1.46164e-14)
(1.0551 0.0152442 3.13706e-14)
(1.03309 0.0153995 5.94598e-16)
(1.01256 0.0131725 -2.71665e-13)
(0.996578 0.00875199 -7.05412e-13)
(0.988029 0.00237377 6.0729e-13)
(0.989515 -0.00537934 9.54766e-12)
(1.00253 -0.0131926 3.26421e-11)
(1.02605 -0.0190098 6.5568e-11)
(1.05563 -0.0207382 8.90634e-11)
(1.08415 -0.0173825 8.54812e-11)
(1.10426 -0.00976745 5.86783e-11)
(1.11127 -0.000211765 2.89194e-11)
(1.10452 0.00861142 9.3286e-12)
(1.08696 0.0148011 1.14429e-13)
(1.06323 0.0176634 -2.0682e-12)
(1.03801 0.0173953 2.68315e-14)
(1.01519 0.0144969 3.24894e-12)
(0.997901 0.00936916 -3.37029e-12)
(0.988949 0.00232966 -4.7108e-11)
(0.990788 -0.00599721 -1.66904e-10)
(1.00471 -0.0142416 -3.83556e-10)
(1.02952 -0.0203223 -6.54253e-10)
(1.06073 -0.0221656 -8.67829e-10)
(1.0912 -0.0187599 -9.1581e-10)
(1.11334 -0.0108322 -7.78245e-10)
(1.12187 -0.000635523 -5.31573e-10)
(1.11551 0.00902254 -2.81581e-10)
(1.09699 0.0159081 -1.00628e-10)
(1.07143 0.0190265 -6.05548e-12)
(1.04432 0.0185326 2.38647e-11)
(1.02019 0.0151419 1.82745e-11)
(1.00235 0.00955156 -9.66159e-12)
(0.993346 0.00229313 -6.63061e-11)
(0.995191 -0.00592705 -1.63946e-10)
(1.00873 -0.013809 -3.01615e-10)
(1.03249 -0.01951 -4.54015e-10)
(1.06212 -0.0212806 -5.77751e-10)
(1.09114 -0.0182982 -6.31293e-10)
(1.11284 -0.0111416 -5.95915e-10)
(1.12233 -0.00162804 -4.84978e-10)
(1.11792 0.00784326 -3.3539e-10)
(1.10135 0.0151083 -1.89048e-10)
(1.07688 0.0188741 -7.7023e-11)
(1.04981 0.0189042 -8.19591e-12)
(1.02505 0.0157204 3.10395e-11)
(1.00646 0.0100861 6.49015e-11)
(0.996932 0.00273018 1.12215e-10)
(0.998495 -0.00546854 1.77583e-10)
(1.01172 -0.0131649 2.53886e-10)
(1.0348 -0.0186375 3.30848e-10)
(1.06331 -0.0203824 4.00996e-10)
(1.0911 -0.0178021 4.59606e-10)
(1.11215 -0.0114982 5.00914e-10)
(1.12226 -0.0030192 5.15015e-10)
(1.1199 0.0056991 4.89404e-10)
(1.10625 0.0128896 4.1642e-10)
(1.08451 0.0173267 3.03599e-10)
(1.05901 0.0184595 1.79151e-10)
(1.03431 0.0163348 8.30085e-11)
(1.01457 0.0113847 4.64282e-11)
(1.00334 0.00427727 7.64935e-11)
(1.00317 -0.00400574 1.57307e-10)
(1.01496 -0.0120206 2.62853e-10)
(1.03713 -0.0180173 3.69312e-10)
(1.06548 -0.0204837 4.60643e-10)
(1.09411 -0.0187631 5.28786e-10)
(1.11707 -0.0133344 5.71665e-10)
(1.13004 -0.00559591 5.90255e-10)
(1.13119 0.00267978 5.84651e-10)
(1.12126 0.00990688 5.50493e-10)
(1.10281 0.0150252 4.80688e-10)
(1.07933 0.0175206 3.75118e-10)
(1.05459 0.0172461 2.51349e-10)
(1.03231 0.0142402 1.42795e-10)
(1.01612 0.00870168 8.11197e-11)
(1.00928 0.00115822 7.7816e-11)
(1.01407 -0.00731034 1.21245e-10)
(1.03076 -0.0150869 1.88267e-10)
(1.05698 -0.0204252 2.57708e-10)
(1.088 -0.0220703 3.16718e-10)
(1.11804 -0.0197272 3.60358e-10)
(1.14176 -0.0141365 3.88631e-10)
(1.15564 -0.00676959 4.03809e-10)
(1.15858 0.000675404 4.08416e-10)
(1.1518 0.00676241 4.03161e-10)
(1.13813 0.0106356 3.85374e-10)
(1.12106 0.0120723 3.50166e-10)
(1.10395 0.0112965 2.9529e-10)
(1.08958 0.00870864 2.26481e-10)
(1.08017 0.00473651 1.57723e-10)
(1.07733 -0.000108015 1.04984e-10)
(1.08185 -0.00509388 7.83716e-11)
(1.09323 -0.00927903 7.86908e-11)
(1.10948 -0.0117478 9.95973e-11)
(1.12743 -0.0119566 1.32163e-10)
(1.1436 -0.00996939 1.68451e-10)
(1.15516 -0.00644665 2.02957e-10)
(1.16069 -0.00241189 2.32544e-10)
(1.16039 0.00107181 2.55836e-10)
(1.15585 0.00317833 2.72597e-10)
(1.14954 0.00346628 2.83276e-10)
(1.14417 0.0018929 2.88595e-10)
(1.14224 -0.00125946 2.8918e-10)
(1.14563 -0.00548848 2.8536e-10)
(1.15542 -0.010157 2.77249e-10)
(1.17178 -0.0145469 2.65027e-10)
(1.19388 -0.0179009 2.4919e-10)
(1.21985 -0.0194996 2.3058e-10)
(1.24683 -0.0187906 2.1018e-10)
(1.27135 -0.0155427 1.88825e-10)
(1.28983 -0.00995796 1.66976e-10)
(1.29935 -0.002686 1.44722e-10)
(1.29805 0.00528073 1.22025e-10)
(1.28588 0.0127996 9.92065e-11)
(1.26395 0.0188253 7.75178e-11)
(1.23541 0.0226244 5.96543e-11)
(1.20285 0.0238981 4.9644e-11)
(1.17118 0.0227554 5.14193e-11)
(1.14105 0.019701 6.65655e-11)
(1.1186 0.0151318 9.22682e-11)
(1.0993 0.0106432 1.2157e-10)
(1.09113 0.00257475 1.56413e-10)
(1.00012 -0.00133948 2.66607e-22)
(1.00206 -0.00406458 8.41614e-21)
(1.00647 -0.00686261 5.74132e-21)
(1.01307 -0.00966835 -3.86845e-21)
(1.02197 -0.012366 -5.98601e-20)
(1.03306 -0.0147456 -5.55049e-20)
(1.04605 -0.016506 -5.33597e-19)
(1.06034 -0.0172106 -2.78655e-19)
(1.07482 -0.0164059 9.68627e-19)
(1.0881 -0.0138024 -1.51197e-18)
(1.09829 -0.00937679 -5.93346e-18)
(1.10393 -0.00418615 -3.34296e-18)
(1.10487 0.000744925 5.11326e-18)
(1.10172 0.00431046 8.65659e-18)
(1.09625 0.00548307 -2.73011e-18)
(1.09102 0.00405674 -2.2588e-17)
(1.08837 0.000731565 -2.01584e-17)
(1.08959 -0.00307724 4.18548e-17)
(1.09441 -0.00555027 1.47118e-16)
(1.10073 -0.00505179 2.05292e-16)
(1.10511 -0.00101425 1.83374e-16)
(1.10428 0.00561746 1.28964e-16)
(1.09662 0.0129187 5.79358e-17)
(1.08261 0.0189841 1.81917e-17)
(1.06416 0.0225362 2.24255e-16)
(1.04389 0.0229624 -1.44414e-16)
(1.0246 0.0201014 -3.65929e-15)
(1.00905 0.0140596 3.93056e-15)
(0.999872 0.00521916 6.5689e-14)
(0.999392 -0.00554992 -1.5067e-14)
(1.00905 -0.0164998 -1.19443e-12)
(1.02829 -0.0248786 -3.98248e-12)
(1.05346 -0.0277259 -6.31693e-12)
(1.07821 -0.0234688 -5.68292e-12)
(1.0957 -0.0131261 -2.99005e-12)
(1.10149 9.30094e-05 -8.53576e-13)
(1.09499 0.0124949 -1.0218e-14)
(1.07879 0.0214982 1.52496e-13)
(1.05688 0.026095 1.21186e-13)
(1.03319 0.0263286 -1.24805e-13)
(1.01116 0.0225698 -6.14921e-13)
(0.993845 0.0151122 -7.73165e-14)
(0.9843 0.00427054 3.46851e-12)
(0.985496 -0.00905393 6.05856e-12)
(0.999386 -0.0226251 -1.04114e-11)
(1.02515 -0.0328092 -5.19283e-11)
(1.05795 -0.0358595 -8.12229e-11)
(1.08963 -0.0299994 -6.57967e-11)
(1.1117 -0.016722 -2.7702e-11)
(1.11887 -0.000154666 3.30406e-13)
(1.11074 0.0150142 9.33523e-12)
(1.09096 0.0255256 4.80862e-12)
(1.06494 0.0302823 3.45772e-14)
(1.03775 0.0297355 4.02022e-12)
(1.01333 0.0248058 1.11654e-11)
(0.994678 0.016166 -2.14343e-11)
(0.984549 0.00427719 -1.95574e-10)
(0.985572 -0.00989767 -6.4031e-10)
(0.999458 -0.0240846 -1.39527e-09)
(1.02541 -0.034711 -2.29233e-09)
(1.05894 -0.0381227 -2.98601e-09)
(1.09236 -0.0324438 -3.15075e-09)
(1.11715 -0.018844 -2.70489e-09)
(1.12714 -0.00123498 -1.87317e-09)
(1.12067 0.0154489 -1.01118e-09)
(1.10074 0.0272902 -3.75083e-10)
(1.07314 0.0325909 -3.56477e-11)
(1.04398 0.0317027 7.61292e-11)
(1.01808 0.0259432 6.30068e-11)
(0.998749 0.0165246 -1.7083e-11)
(0.988575 0.00427698 -1.62775e-10)
(0.989853 -0.00970701 -3.88324e-10)
(1.00382 -0.0232552 -6.75406e-10)
(1.02912 -0.0331641 -9.63252e-10)
(1.06095 -0.0363504 -1.17794e-09)
(1.09211 -0.0313611 -1.26258e-09)
(1.11529 -0.0191985 -1.19104e-09)
(1.12539 -0.00299314 -9.7862e-10)
(1.12076 0.013151 -6.84655e-10)
(1.10333 0.0255481 -3.89796e-10)
(1.07762 0.0320073 -1.6014e-10)
(1.04913 0.0321395 -1.87248e-11)
(1.02294 0.0268311 5.58781e-11)
(1.00311 0.0173397 1.05074e-10)
(0.992864 0.00483021 1.60678e-10)
(0.994639 -0.009243 2.32091e-10)
(1.00925 -0.0225282 3.1367e-10)
(1.03464 -0.0319574 3.96905e-10)
(1.06565 -0.0348718 4.75193e-10)
(1.0953 -0.0302825 5.43356e-10)
(1.11705 -0.019347 5.95399e-10)
(1.12664 -0.00483279 6.20142e-10)
(1.12296 0.0099271 6.00066e-10)
(1.10768 0.0219863 5.21162e-10)
(1.08442 0.029365 3.88631e-10)
(1.05766 0.0312094 2.35974e-10)
(1.03196 0.0276075 1.14346e-10)
(1.01159 0.0192231 6.60442e-11)
(1.00032 0.00709582 1.03033e-10)
(1.00106 -0.00713574 2.06351e-10)
(1.01484 -0.0209344 3.41927e-10)
(1.03972 -0.0311837 4.77587e-10)
(1.07083 -0.0352253 5.91488e-10)
(1.10148 -0.0319717 6.72561e-10)
(1.12524 -0.0223601 7.17662e-10)
(1.13764 -0.00891379 7.28187e-10)
(1.1371 0.0052577 7.06023e-10)
(1.12485 0.0174466 6.49762e-10)
(1.10403 0.0259135 5.55502e-10)
(1.07856 0.0298878 4.26084e-10)
(1.05241 0.0292034 2.82189e-10)
(1.02936 0.0239436 1.6046e-10)
(1.01314 0.0144005 9.45942e-11)
(1.00721 0.00142633 9.53956e-11)
(1.01393 -0.0131167 1.47797e-10)
(1.03334 -0.0263824 2.2439e-10)
(1.0625 -0.0353173 3.01073e-10)
(1.09601 -0.0377904 3.64169e-10)
(1.12753 -0.0333878 4.09298e-10)
(1.15149 -0.0234869 4.3723e-10)
(1.16441 -0.0106838 4.50483e-10)
(1.16545 0.00208971 4.5139e-10)
(1.1562 0.012396 4.40708e-10)
(1.13995 0.0188163 4.16304e-10)
(1.12059 0.0210225 3.74036e-10)
(1.10175 0.0194372 3.12537e-10)
(1.08645 0.014757 2.38609e-10)
(1.07708 0.0077054 1.67252e-10)
(1.07539 -0.000835964 1.14814e-10)
(1.08215 -0.00956687 9.07973e-11)
(1.09652 -0.0167943 9.47033e-11)
(1.1159 -0.0208916 1.18854e-10)
(1.13642 -0.0209371 1.53497e-10)
(1.15407 -0.0171194 1.90514e-10)
(1.16579 -0.0106768 2.24661e-10)
(1.17028 -0.0034492 2.53185e-10)
(1.16803 0.0027066 2.7498e-10)
(1.16104 0.00638951 2.89967e-10)
(1.15215 0.00688604 2.98708e-10)
(1.14437 0.00417012 3.02034e-10)
(1.14037 -0.00124491 3.00648e-10)
(1.14213 -0.00849746 2.94889e-10)
(1.15084 -0.0165209 2.84847e-10)
(1.16679 -0.0241184 2.70787e-10)
(1.18922 -0.0300108 2.53538e-10)
(1.21623 -0.032953 2.34502e-10)
(1.24476 -0.0319637 2.15181e-10)
(1.27102 -0.0266115 1.96537e-10)
(1.29108 -0.0172265 1.78605e-10)
(1.30174 -0.00492613 1.60582e-10)
(1.30103 0.00858213 1.41375e-10)
(1.28885 0.0213406 1.2045e-10)
(1.26646 0.0315639 9.86526e-11)
(1.23716 0.0380058 7.87963e-11)
(1.20373 0.0401692 6.54868e-11)
(1.17124 0.0382505 6.34915e-11)
(1.14041 0.0331145 7.51974e-11)
(1.1175 0.0254326 9.83288e-11)
(1.09782 0.0179142 1.26049e-10)
(1.0896 0.00433967 1.59886e-10)
(1.00012 -0.00186726 -4.1348e-20)
(1.00203 -0.00567033 -6.39914e-19)
(1.00639 -0.00959208 -1.18489e-18)
(1.01297 -0.0135513 -1.97213e-18)
(1.02192 -0.0173963 -2.75031e-18)
(1.03322 -0.0208383 -4.31747e-18)
(1.04664 -0.0234528 -6.30647e-18)
(1.06166 -0.0245906 2.50503e-18)
(1.07715 -0.0235663 -8.91396e-18)
(1.09156 -0.0198747 -3.85882e-17)
(1.10259 -0.0134189 -2.45593e-17)
(1.10847 -0.00581727 4.02921e-17)
(1.10901 0.00143556 7.30494e-17)
(1.10481 0.00669597 3.43024e-17)
(1.09789 0.0083802 -6.56765e-17)
(1.09134 0.00615317 -1.10414e-16)
(1.08798 0.00104817 1.01678e-16)
(1.08945 -0.00482439 7.50975e-16)
(1.09555 -0.00872576 1.60006e-15)
(1.1038 -0.00814325 1.86676e-15)
(1.10995 -0.00218755 1.39042e-15)
(1.10999 0.00767735 8.15528e-16)
(1.10203 0.0184928 2.81449e-16)
(1.08676 0.0274056 2.48511e-16)
(1.06653 0.0325907 9.37661e-16)
(1.04431 0.0332401 -3.72121e-15)
(1.02312 0.0291756 -7.7031e-15)
(1.00587 0.0205411 4.87752e-14)
(0.995404 0.00780504 3.05319e-14)
(0.994454 -0.00789557 -5.35383e-13)
(1.00503 -0.0240848 1.66961e-13)
(1.0269 -0.0366456 5.23915e-12)
(1.05602 -0.0410082 8.80468e-12)
(1.08476 -0.0346888 4.87447e-12)
(1.10481 -0.0192378 -1.52988e-13)
(1.11097 0.000393163 -1.33334e-12)
(1.1029 0.0185881 -5.43331e-13)
(1.08409 0.0315704 1.81989e-13)
(1.05935 0.0380407 1.40688e-14)
(1.03309 0.0382547 -7.74225e-13)
(1.00879 0.0328438 2.02946e-12)
(0.98952 0.0221822 1.29859e-11)
(0.978445 0.00655668 -3.16164e-12)
(0.97892 -0.0129082 -1.8794e-10)
(0.993443 -0.0330122 -7.31864e-10)
(1.02171 -0.0483007 -1.55871e-09)
(1.05888 -0.0529953 -2.16632e-09)
(1.09569 -0.0442645 -2.08291e-09)
(1.12165 -0.0243734 -1.41069e-09)
(1.12993 0.00029425 -6.546e-10)
(1.12006 0.0225852 -1.69045e-10)
(1.0969 0.0377032 1.68058e-11)
(1.06726 0.0442595 4.24448e-11)
(1.03702 0.043194 3.65663e-11)
(1.01018 0.0360306 2.66239e-11)
(0.989447 0.0237595 -1.02688e-10)
(0.977332 0.00689287 -5.9315e-10)
(0.976782 -0.0134369 -1.65448e-09)
(0.990354 -0.0341522 -3.21742e-09)
(1.01793 -0.0500728 -4.88151e-09)
(1.0548 -0.055659 -6.12583e-09)
(1.09228 -0.0478739 -6.51758e-09)
(1.12069 -0.0282112 -5.85444e-09)
(1.1329 -0.00237399 -4.33628e-09)
(1.12673 0.022237 -2.53962e-09)
(1.10527 0.0396757 -1.05896e-09)
(1.07506 0.0473993 -1.80742e-10)
(1.04305 0.0460545 1.54173e-10)
(1.01457 0.0377523 1.53597e-10)
(0.993087 0.024304 -2.54338e-11)
(0.981404 0.00675058 -3.28191e-10)
(0.982405 -0.0135406 -7.2755e-10)
(0.997867 -0.0334382 -1.14963e-09)
(1.02622 -0.0480819 -1.49465e-09)
(1.06166 -0.0527913 -1.70474e-09)
(1.09573 -0.0454742 -1.77401e-09)
(1.12038 -0.0277668 -1.69958e-09)
(1.13044 -0.00433914 -1.4657e-09)
(1.1247 0.0188874 -1.09252e-09)
(1.10555 0.0366821 -6.66875e-10)
(1.07787 0.04597 -2.9841e-10)
(1.04737 0.0462329 -5.12905e-11)
(1.01931 0.0387203 8.2629e-11)
(0.998018 0.025125 1.54336e-10)
(0.987239 0.00697569 2.11927e-10)
(0.990005 -0.0136527 2.80367e-10)
(1.00725 -0.0331655 3.67339e-10)
(1.0363 -0.0468457 4.69504e-10)
(1.07085 -0.0507232 5.7278e-10)
(1.10289 -0.0435022 6.5849e-10)
(1.12527 -0.0271555 7.14338e-10)
(1.13375 -0.00595601 7.34997e-10)
(1.12774 0.0151935 7.10715e-10)
(1.10968 0.0321627 6.25807e-10)
(1.08385 0.042334 4.78698e-10)
(1.05506 0.0446776 3.02037e-10)
(1.02796 0.0393585 1.56161e-10)
(1.0069 0.027203 9.57115e-11)
(0.996014 0.00954787 1.38317e-10)
(0.998532 -0.0112527 2.61001e-10)
(1.0154 -0.0313481 4.20923e-10)
(1.04401 -0.0460199 5.78891e-10)
(1.07851 -0.0513739 7.10212e-10)
(1.11145 -0.0459763 8.03343e-10)
(1.13593 -0.0314044 8.54486e-10)
(1.14743 -0.0115098 8.63609e-10)
(1.14461 0.00908566 8.31655e-10)
(1.12923 0.0264492 7.5785e-10)
(1.10512 0.0381713 6.40449e-10)
(1.07681 0.0433253 4.85794e-10)
(1.04864 0.0418352 3.19421e-10)
(1.02457 0.0338659 1.82961e-10)
(1.00851 0.0197808 1.12436e-10)
(1.0041 0.00077459 1.16508e-10)
(1.01367 -0.0203695 1.75029e-10)
(1.03673 -0.0393758 2.56134e-10)
(1.06946 -0.0517705 3.34108e-10)
(1.10562 -0.0545946 3.96171e-10)
(1.13843 -0.0474701 4.39777e-10)
(1.16225 -0.0325712 4.67112e-10)
(1.17376 -0.0137363 4.80979e-10)
(1.1724 0.00479003 4.82821e-10)
(1.16015 0.0195148 4.71978e-10)
(1.14072 0.0284418 4.45254e-10)
(1.1185 0.0311671 3.98397e-10)
(1.09752 0.0283589 3.31122e-10)
(1.08116 0.0210422 2.52269e-10)
(1.07211 0.0102646 1.7884e-10)
(1.07234 -0.00264518 1.27898e-10)
(1.08244 -0.0156605 1.07943e-10)
(1.10093 -0.0261562 1.16483e-10)
(1.12425 -0.031698 1.44022e-10)
(1.14762 -0.0310372 1.79918e-10)
(1.16647 -0.0246503 2.16148e-10)
(1.17771 -0.0145445 2.48199e-10)
(1.18027 -0.00352098 2.74176e-10)
(1.17514 0.00569583 2.93563e-10)
(1.16479 0.0111188 3.06462e-10)
(1.15249 0.0117975 3.13337e-10)
(1.14158 0.0077806 3.14816e-10)
(1.13492 -0.000138898 3.11365e-10)
(1.13467 -0.0107234 3.03072e-10)
(1.14219 -0.0224834 2.89941e-10)
(1.15799 -0.0337365 2.72626e-10)
(1.18139 -0.0426247 2.52963e-10)
(1.21029 -0.0472777 2.33583e-10)
(1.2412 -0.0461937 2.16712e-10)
(1.26983 -0.0387066 2.03063e-10)
(1.29185 -0.0253057 1.91596e-10)
(1.30384 -0.00765071 1.80122e-10)
(1.30372 0.0117551 1.6626e-10)
(1.29143 0.0300696 1.48498e-10)
(1.26834 0.0447155 1.27175e-10)
(1.238 0.0539117 1.05195e-10)
(1.2034 0.0569692 8.78496e-11)
(1.16985 0.0542065 8.09974e-11)
(1.13816 0.0468732 8.81283e-11)
(1.11474 0.0359634 1.077e-10)
(1.09465 0.0252983 1.33134e-10)
(1.0866 0.00607969 1.64905e-10)
(1.00012 -0.00238536 -3.26308e-18)
(1.00199 -0.007251 -1.04869e-17)
(1.00626 -0.0122975 -8.74784e-18)
(1.01278 -0.0174381 -1.13114e-17)
(1.02178 -0.0224968 -9.29614e-18)
(1.03332 -0.0271145 -2.54556e-17)
(1.04731 -0.0307429 1.24695e-17)
(1.06332 -0.0324822 1.08724e-17)
(1.0802 -0.0313634 -1.88721e-16)
(1.09625 -0.0265409 -6.18945e-17)
(1.10851 -0.0177682 4.74573e-16)
(1.11472 -0.00738218 7.19164e-16)
(1.1147 0.00261241 3.55578e-16)
(1.10898 0.0099291 -3.04748e-16)
(1.09996 0.0122427 -7.76112e-16)
(1.09149 0.00902779 -5.66842e-16)
(1.0871 0.0016897 1.1777e-16)
(1.08893 -0.00686114 -6.97689e-16)
(1.0969 -0.0127351 -4.05361e-15)
(1.10797 -0.0122604 -5.07047e-15)
(1.11673 -0.0041025 -2.88063e-15)
(1.11801 0.00959568 -1.1567e-15)
(1.10957 0.0245445 -3.25232e-16)
(1.09248 0.0367343 1.83167e-15)
(1.06974 0.0437549 -4.35493e-15)
(1.04483 0.0446619 -1.77325e-14)
(1.02103 0.0393219 1.2154e-13)
(1.00141 0.0279183 2.79118e-14)
(0.989095 0.0109309 -2.58576e-12)
(0.987368 -0.0103501 -4.76664e-13)
(0.999175 -0.032717 4.8475e-11)
(1.02494 -0.0503865 1.69543e-10)
(1.05992 -0.0566744 2.72054e-10)
(1.09441 -0.0478675 2.44246e-10)
(1.11794 -0.0262098 1.26761e-10)
(1.12436 0.00107718 3.42162e-11)
(1.11385 0.0259538 -6.5091e-13)
(1.09122 0.0432725 -4.79923e-12)
(1.06253 0.0515869 -3.65017e-12)
(1.03276 0.0516024 -1.30146e-12)
(1.00545 0.0443527 2.2069e-11)
(0.983531 0.0302887 5.336e-11)
(0.970049 0.00958091 -1.3654e-10)
(0.968438 -0.0165342 -1.106e-09)
(0.98189 -0.0440066 -3.29866e-09)
(1.01146 -0.065534 -6.21871e-09)
(1.05323 -0.0728709 -8.38381e-09)
(1.0971 -0.0614027 -8.41672e-09)
(1.12998 -0.0338337 -6.29415e-09)
(1.14203 0.000664371 -3.40141e-09)
(1.13158 0.0315429 -1.18043e-09)
(1.10467 0.051925 -9.50399e-11)
(1.07029 0.0602157 1.88056e-10)
(1.03587 0.058267 1.66798e-10)
(1.0057 0.0485879 5.45935e-11)
(0.982005 0.0325927 -3.28358e-10)
(0.967058 0.0106201 -1.34769e-09)
(0.964635 -0.0163952 -3.1177e-09)
(0.978685 -0.044652 -5.23836e-09)
(1.00951 -0.0669461 -7.10786e-09)
(1.05125 -0.0753175 -8.38827e-09)
(1.09341 -0.065391 -8.95512e-09)
(1.12515 -0.0391338 -8.56846e-09)
(1.13901 -0.00422352 -7.01861e-09)
(1.13277 0.0292821 -4.63592e-09)
(1.10963 0.0531231 -2.2549e-09)
(1.07658 0.063689 -5.87949e-10)
(1.0413 0.0619331 1.81221e-10)
(1.00967 0.0509195 2.71385e-10)
(0.985547 0.0331099 -3.32682e-11)
(0.972393 0.00962659 -5.44171e-10)
(0.973973 -0.0179289 -1.11387e-09)
(0.9924 -0.0451607 -1.57908e-09)
(1.02528 -0.0650693 -1.82797e-09)
(1.06528 -0.0711221 -1.87983e-09)
(1.10256 -0.0607266 -1.84347e-09)
(1.12833 -0.0365392 -1.78529e-09)
(1.13752 -0.00513103 -1.65465e-09)
(1.12956 0.0256124 -1.3654e-09)
(1.10767 0.0489659 -9.30975e-10)
(1.07725 0.0610887 -4.72855e-10)
(1.04427 0.0614072 -1.16716e-10)
(1.01408 0.0515019 9.48838e-11)
(0.991376 0.0333761 1.99298e-10)
(0.980578 0.00884411 2.61131e-10)
(0.985266 -0.0192424 3.34193e-10)
(1.00615 -0.0456727 4.47142e-10)
(1.03949 -0.063763 5.9673e-10)
(1.07777 -0.06818 7.51279e-10)
(1.11209 -0.0574966 8.69366e-10)
(1.13489 -0.0347689 9.24413e-10)
(1.14195 -0.00605036 9.15847e-10)
(1.13311 0.0219739 8.53495e-10)
(1.11159 0.0439284 7.36678e-10)
(1.08246 0.0566674 5.64502e-10)
(1.05106 0.0591479 3.64897e-10)
(1.02224 0.0516793 1.99866e-10)
(1.00061 0.0351933 1.30969e-10)
(0.99062 0.0112885 1.78785e-10)
(0.995699 -0.0168174 3.15652e-10)
(1.01634 -0.0436707 4.91215e-10)
(1.04895 -0.0627506 6.61939e-10)
(1.08666 -0.068957 8.03283e-10)
(1.12143 -0.0606886 9.05559e-10)
(1.14623 -0.0403446 9.65166e-10)
(1.1566 -0.0132391 9.79464e-10)
(1.1514 0.0143671 9.45708e-10)
(1.13276 0.0371943 8.60992e-10)
(1.1051 0.0521186 7.24322e-10)
(1.0736 0.0581204 5.45889e-10)
(1.04311 0.0553152 3.5753e-10)
(1.01794 0.0440024 2.0699e-10)
(1.00229 0.0246364 1.32297e-10)
(0.999959 -0.00114811 1.38722e-10)
(1.01297 -0.0294245 2.00533e-10)
(1.03997 -0.0542737 2.82233e-10)
(1.07606 -0.0697696 3.57738e-10)
(1.11428 -0.0722877 4.15842e-10)
(1.14763 -0.0617065 4.55862e-10)
(1.17065 -0.0411493 4.81347e-10)
(1.18036 -0.0157536 4.95714e-10)
(1.17647 0.00890256 5.00016e-10)
(1.16123 0.0282357 4.92027e-10)
(1.13869 0.0396365 4.66495e-10)
(1.11365 0.0426166 4.17975e-10)
(1.0906 0.0381004 3.46898e-10)
(1.07341 0.0274578 2.64613e-10)
(1.06523 0.0121141 1.90769e-10)
(1.0682 -0.00599702 1.43267e-10)
(1.08254 -0.0238643 1.29142e-10)
(1.10574 -0.0377041 1.43328e-10)
(1.13295 -0.0442343 1.74259e-10)
(1.15849 -0.0420449 2.10519e-10)
(1.17749 -0.0321595 2.4449e-10)
(1.18709 -0.0175717 2.72706e-10)
(1.18674 -0.00216066 2.9445e-10)
(1.17794 0.0104511 3.10094e-10)
(1.16369 0.0177117 3.20102e-10)
(1.14762 0.0184853 3.24799e-10)
(1.13333 0.0129523 3.2433e-10)
(1.12387 0.00221411 3.18479e-10)
(1.12165 -0.0121299 3.06734e-10)
(1.12835 -0.0281822 2.8915e-10)
(1.14469 -0.0437192 2.67603e-10)
(1.16985 -0.0561616 2.45993e-10)
(1.20122 -0.062863 2.28567e-10)
(1.23468 -0.0617417 2.17612e-10)
(1.26549 -0.0519474 2.12376e-10)
(1.28918 -0.0342254 2.0977e-10)
(1.30229 -0.0108553 2.05941e-10)
(1.30275 0.0148147 1.97594e-10)
(1.29051 0.0390122 1.82756e-10)
(1.26697 0.0583217 1.61576e-10)
(1.23581 0.070396 1.37091e-10)
(1.20024 0.0743506 1.15202e-10)
(1.16579 0.0706587 1.02836e-10)
(1.13336 0.0609825 1.04665e-10)
(1.10961 0.046703 1.19945e-10)
(1.0892 0.032733 1.4248e-10)
(1.08168 0.00771422 1.70839e-10)
(1.00012 -0.00288885 3.67353e-18)
(1.00192 -0.00879261 1.09412e-17)
(1.00607 -0.01496 9.94551e-18)
(1.01248 -0.0213132 1.28955e-17)
(1.02148 -0.0276685 1.5722e-17)
(1.03327 -0.0336112 -1.86924e-17)
(1.04794 -0.0384737 2.37669e-16)
(1.06521 -0.0410586 -5.8382e-16)
(1.08394 -0.0400465 -2.44578e-16)
(1.10225 -0.034054 2.59769e-15)
(1.11621 -0.022576 3.45464e-15)
(1.12292 -0.00892819 1.56138e-16)
(1.12219 0.00430717 -4.57275e-15)
(1.11443 0.0140772 -8.22752e-15)
(1.1025 0.0170828 -8.53024e-15)
(1.09133 0.0125326 -5.79017e-15)
(1.08542 0.00228105 -8.84636e-15)
(1.08764 -0.00976721 -4.5565e-14)
(1.09816 -0.0182885 -1.20126e-13)
(1.11319 -0.0180828 -1.53727e-13)
(1.12561 -0.00720007 -1.09893e-13)
(1.12864 0.0112838 -5.79909e-14)
(1.11951 0.0312815 -1.96101e-14)
(1.09993 0.0473302 -1.6406e-15)
(1.07385 0.05642 -5.73611e-14)
(1.04541 0.0575982 7.93853e-14)
(1.01823 0.0508847 7.6979e-13)
(0.995512 0.0365101 -2.21761e-12)
(0.980624 0.0148354 -1.14097e-11)
(0.977681 -0.0129216 2.26454e-11)
(0.991071 -0.0428626 1.95512e-10)
(1.0222 -0.0670268 4.87728e-10)
(1.06544 -0.0757606 7.46209e-10)
(1.10804 -0.0637035 7.77765e-10)
(1.13622 -0.0341879 5.25324e-10)
(1.14254 0.00247826 2.13036e-10)
(1.12826 0.0351827 3.31866e-11)
(1.10027 0.0572298 -2.05347e-11)
(1.06632 0.0672649 -2.14374e-11)
(1.0321 0.0667873 3.66038e-12)
(1.0011 0.0574548 8.31335e-11)
(0.975724 0.0398873 6.96325e-11)
(0.958365 0.0141174 -7.36323e-10)
(0.952446 -0.0188057 -3.36945e-09)
(0.962919 -0.0545098 -7.97899e-09)
(0.993279 -0.0839779 -1.3169e-08)
(1.04021 -0.0958399 -1.69322e-08)
(1.09215 -0.0826543 -1.76261e-08)
(1.13358 -0.0468189 -1.46257e-08)
(1.15186 -0.000478088 -9.22204e-09)
(1.14306 0.0412768 -4.03266e-09)
(1.11333 0.0683442 -8.33785e-10)
(1.07386 0.0786512 3.59943e-10)
(1.03434 0.0754781 4.62433e-10)
(0.999868 0.0629575 1.16209e-10)
(0.972335 0.0430835 -7.39389e-10)
(0.954236 0.0155879 -2.3929e-09)
(0.950848 -0.0192379 -4.62536e-09)
(0.967439 -0.0565886 -6.66866e-09)
(1.00363 -0.0863688 -7.95485e-09)
(1.05137 -0.0976296 -8.60838e-09)
(1.09814 -0.0848342 -9.05709e-09)
(1.13218 -0.0509943 -9.25611e-09)
(1.14619 -0.00615263 -8.53814e-09)
(1.1386 0.0369492 -6.49506e-09)
(1.1131 0.0677692 -3.7211e-09)
(1.077 0.0815525 -1.31076e-09)
(1.0383 0.0794998 4.90466e-11)
(1.00329 0.0656219 3.5191e-10)
(0.976493 0.0429406 -5.07013e-11)
(0.962398 0.0125468 -7.68419e-10)
(0.965674 -0.0235332 -1.45859e-09)
(0.988171 -0.0590914 -1.86519e-09)
(1.02606 -0.0845346 -1.9106e-09)
(1.07041 -0.091448 -1.7184e-09)
(1.11045 -0.077009 -1.50904e-09)
(1.13699 -0.0452383 -1.43383e-09)
(1.14497 -0.00493679 -1.45099e-09)
(1.1343 0.033827 -1.37437e-09)
(1.10904 0.0628373 -1.08089e-09)
(1.07535 0.0776594 -6.35481e-10)
(1.03956 0.0778066 -2.08432e-10)
(1.0072 0.0651576 8.1249e-11)
(0.983409 0.0418753 2.30293e-10)
(0.973272 0.0100401 3.12964e-10)
(0.980638 -0.0264283 4.13078e-10)