/*--------------------------------*- C++ -*----------------------------------*\
  =========                 |
  \\      /  F ield         | OpenFOAM: The Open Source CFD Toolbox
   \\    /   O peration     | Website:  https://openfoam.org
    \\  /    A nd           | Version:  11
     \\/     M anipulation  |
\*---------------------------------------------------------------------------*/
FoamFile
{
    format      ascii;
    class       volVectorField;
    location    "2.866996";
    object      vorticity;
}
// * * * * * * * * * * * * * * * * * * * * * * * * * * * * * * * * * * * * * //

dimensions      [0 0 -1 0 0 0 0];

internalField   nonuniform List<vector> 
7132
(
(-3.47251e-17 -1.82172e-15 -0.0115443)
(-1.34614e-16 -1.79224e-15 -0.01156)
(-1.3557e-16 -1.73373e-17 -0.0116002)
(-1.57252e-16 -1.76896e-15 -0.0116689)
(-1.93479e-16 -1.75951e-15 -0.0117694)
(-1.88971e-16 2.46105e-18 -0.0119029)
(-1.70426e-16 1.14783e-17 -0.0120699)
(-1.58711e-16 9.84781e-18 -0.0122652)
(-8.58295e-17 6.19385e-18 -0.0124822)
(-5.37291e-17 5.80577e-18 -0.0127085)
(-9.60923e-17 5.01688e-18 -0.0129259)
(-5.91654e-17 1.09495e-17 -0.0131343)
(-1.05905e-16 1.64951e-18 -0.0133182)
(2.49956e-17 8.01232e-17 -0.0134685)
(5.3638e-16 -1.53284e-15 -0.0135795)
(1.06163e-15 -3.23044e-15 -0.0136467)
(1.37247e-15 -1.64202e-15 -0.01367)
(1.20384e-15 4.06303e-17 -0.0136491)
(1.13298e-15 -1.56662e-15 -0.0135869)
(1.03462e-15 -1.65063e-15 -0.0134888)
(6.96466e-16 -2.74189e-17 -0.0133612)
(3.7176e-16 -2.89626e-17 -0.0132112)
(9.2353e-17 -1.16568e-17 -0.0130453)
(-1.14652e-16 -6.56537e-17 -0.0128694)
(-4.04925e-16 1.65397e-15 -0.0126878)
(-5.28142e-16 -1.61806e-17 -0.0125037)
(-5.9536e-16 3.33622e-19 -0.0123191)
(-6.2065e-16 3.46119e-18 -0.0121353)
(-6.16513e-16 -2.43945e-17 -0.0119533)
(-6.24901e-16 1.68274e-15 -0.0117735)
(-5.52305e-16 1.68778e-15 -0.011596)
(-5.07918e-16 1.70554e-15 -0.0114208)
(-3.81531e-16 -3.63273e-17 -0.0112475)
(-2.43231e-16 1.68131e-15 -0.0110757)
(-8.24906e-17 1.68056e-15 -0.0109046)
(1.18002e-16 1.6818e-15 -0.0107337)
(2.6953e-16 1.68765e-15 -0.0105619)
(4.0226e-16 -5.53846e-17 -0.0103882)
(4.8547e-16 1.67649e-15 -0.0102107)
(5.40686e-16 1.68746e-15 -0.0100262)
(5.72794e-16 1.70477e-15 -0.00983037)
(5.37283e-16 1.72571e-15 -0.00961939)
(4.92747e-16 -7.19947e-18 -0.00939472)
(4.5604e-16 1.72238e-15 -0.0091679)
(5.14023e-16 1.70573e-15 -0.00896099)
(6.82547e-16 1.67822e-15 -0.00879699)
(8.66338e-16 1.66183e-15 -0.00867961)
(9.59878e-16 -6.65006e-17 -0.00857038)
(8.01744e-16 1.73033e-15 -0.0083785)
(4.03027e-16 1.82344e-15 -0.00797755)
(2.17409e-17 1.15397e-16 -0.007251)
(-5.07597e-17 -1.70688e-15 -0.00615012)
(4.65345e-16 -1.33206e-16 -0.00473633)
(1.57098e-15 -3.05488e-16 -0.00318229)
(2.85667e-15 -4.13023e-16 -0.0017243)
(3.86589e-15 -4.15924e-16 -0.000583762)
(4.25659e-15 -2.0795e-15 0.000107982)
(4.14973e-15 -2.34695e-16 0.000347847)
(3.99286e-15 -1.26348e-16 0.000247452)
(4.09779e-15 -1.45011e-17 -2.17064e-05)
(4.47371e-15 1.40412e-16 -0.000295678)
(4.61224e-15 -1.37559e-15 -0.000468021)
(3.9479e-15 6.23655e-16 -0.000506148)
(2.20906e-15 -9.26441e-16 -0.000436239)
(-3.24299e-16 -9.28548e-16 -0.000311951)
(-2.84213e-15 5.95727e-16 -0.00018456)
(-4.55327e-15 -1.5124e-15 -8.57892e-05)
(-4.88307e-15 -1.65222e-16 -2.51381e-05)
(-3.90815e-15 -2.17606e-15 3.29626e-06)
(-2.19635e-15 -2.26011e-15 1.14359e-05)
(-4.39379e-16 -4.15647e-16 1.02208e-05)
(7.2897e-16 -1.94982e-15 6.5974e-06)
(1.17107e-15 -1.32967e-17 3.62193e-06)
(1.01746e-15 -1.63039e-15 1.92793e-06)
(5.67883e-16 -1.60863e-15 1.17782e-06)
(1.55017e-16 9.72805e-17 9.15246e-07)
(-1.31565e-16 -1.6928e-15 8.52178e-07)
(-2.1034e-16 4.11856e-18 8.58183e-07)
(-1.58261e-16 -1.75461e-15 8.80558e-07)
(-7.38716e-17 -1.76395e-15 8.9391e-07)
(2.10247e-17 -1.52751e-17 8.86268e-07)
(3.15743e-17 -1.73976e-15 8.57741e-07)
(2.66275e-17 8.06183e-18 8.17186e-07)
(1.47413e-17 -1.72819e-15 7.75233e-07)
(-2.46864e-18 -1.73832e-15 7.38921e-07)
(1.72708e-17 -1.00895e-18 7.1008e-07)
(-2.72839e-18 -1.73666e-15 6.87144e-07)
(-5.28482e-18 5.08584e-18 6.67539e-07)
(-2.13432e-18 -1.73225e-15 6.49391e-07)
(-5.33919e-18 -1.74106e-15 6.31826e-07)
(1.83052e-17 -9.02877e-19 6.14716e-07)
(9.70941e-18 -1.74117e-15 5.98145e-07)
(3.5867e-18 -3.12921e-18 5.82193e-07)
(1.25404e-17 5.0287e-18 5.66826e-07)
(1.21053e-17 -1.73459e-15 5.51972e-07)
(1.22104e-17 7.00666e-19 5.37541e-07)
(1.37993e-19 -1.74071e-15 5.23481e-07)
(-5.02863e-18 -3.01077e-18 5.09755e-07)
(5.47867e-18 5.02994e-18 4.96343e-07)
(6.38551e-18 -1.73458e-15 4.83234e-07)
(7.55532e-18 8.3407e-19 4.70414e-07)
(-3.65597e-18 -1.74039e-15 4.57882e-07)
(-8.09958e-18 -2.49079e-18 4.45623e-07)
(3.02996e-18 5.69501e-18 4.33643e-07)
(4.47464e-18 -1.73387e-15 4.21927e-07)
(6.10207e-18 1.48003e-18 4.10485e-07)
(-4.73338e-18 -1.7399e-15 3.99302e-07)
(-8.88505e-18 -2.19929e-18 3.88391e-07)
(2.45422e-18 5.79561e-18 3.77731e-07)
(4.035e-18 -1.7339e-15 3.67342e-07)
(5.7404e-18 1.38086e-18 3.57199e-07)
(-5.05485e-18 -1.73998e-15 3.47322e-07)
(-9.1828e-18 -2.21354e-18 3.37683e-07)
(2.18146e-18 5.86851e-18 3.28306e-07)
(3.79939e-18 -1.73376e-15 3.19158e-07)
(5.55829e-18 1.5336e-18 3.10265e-07)
(-5.17575e-18 -1.73981e-15 3.01592e-07)
(-9.22439e-18 -2.36394e-18 2.93168e-07)
(2.15477e-18 6.79696e-18 2.84952e-07)
(3.96772e-18 -1.73832e-15 2.76976e-07)
(5.43745e-18 -6.83909e-18 2.69199e-07)
(-5.94528e-18 -1.98928e-18 2.61652e-07)
(-1.00553e-17 4.69322e-18 2.54293e-07)
(1.50878e-18 8.44348e-18 2.47156e-07)
(3.54516e-18 -1.73793e-15 2.40194e-07)
(5.20788e-18 -6.73616e-18 2.33445e-07)
(-6.02472e-18 -1.95985e-18 2.2686e-07)
(-1.00232e-17 4.69417e-18 2.20479e-07)
(1.62125e-18 8.42599e-18 2.14251e-07)
(3.71328e-18 -1.73796e-15 2.08218e-07)
(5.41235e-18 -6.77607e-18 2.02328e-07)
(-5.79878e-18 -2.0064e-18 1.96623e-07)
(-9.78693e-18 4.64107e-18 1.91051e-07)
(1.86009e-18 8.36622e-18 1.85657e-07)
(3.95083e-18 -1.73802e-15 1.80385e-07)
(5.64893e-18 -6.82516e-18 1.75284e-07)
(-5.5586e-18 -2.01501e-18 1.70297e-07)
(-9.53525e-18 4.70907e-18 1.65472e-07)
(2.1319e-18 8.54224e-18 1.60753e-07)
(4.24854e-18 -1.73773e-15 1.5619e-07)
(5.97164e-18 -6.44803e-18 1.51725e-07)
(-5.22071e-18 -1.62629e-18 1.47409e-07)
(-9.2002e-18 5.00928e-18 1.43185e-07)
(2.44183e-18 8.65861e-18 1.39104e-07)
(4.5128e-18 -1.73785e-15 1.35107e-07)
(6.17728e-18 -6.80061e-18 1.31249e-07)
(-5.07558e-18 -2.1362e-18 1.27468e-07)
(-9.10671e-18 4.45417e-18 1.23821e-07)
(2.4996e-18 8.17125e-18 1.20246e-07)
(4.55245e-18 -1.73819e-15 1.16799e-07)
(6.21318e-18 -6.97219e-18 1.13419e-07)
(-5.03511e-18 -2.16403e-18 1.10162e-07)
(-9.05957e-18 4.51498e-18 1.06966e-07)
(2.55154e-18 8.25721e-18 1.03891e-07)
(4.60395e-18 -1.73811e-15 1.00876e-07)
(6.26717e-18 -6.98872e-18 9.79769e-08)
(-5.00853e-18 -1.90012e-18 9.51496e-08)
(-8.93942e-18 3.29602e-18 9.23644e-08)
(2.26073e-18 1.3851e-17 8.9965e-08)
(5.895e-18 -1.72502e-15 8.56081e-08)
(-3.42858e-17 -3.59975e-18 -0.034527)
(-1.39588e-16 -6.67379e-18 -0.0345757)
(-1.49258e-16 -6.86497e-18 -0.0346953)
(-1.74291e-16 -6.98012e-18 -0.0348975)
(-2.21074e-16 -7.23446e-18 -0.0351914)
(-2.20086e-16 -7.3714e-18 -0.035581)
(-2.28869e-16 -3.65206e-18 -0.0360682)
(-2.3004e-16 -3.24505e-17 -0.0366386)
(-5.1141e-17 1.68843e-15 -0.0372745)
(-2.06396e-16 1.09371e-17 -0.0379387)
(-8.32583e-16 7.73506e-18 -0.0385732)
(-6.7802e-16 1.75058e-15 -0.039176)
(1.33613e-15 -4.0431e-17 -0.0396955)
(4.33812e-15 -2.42713e-16 -0.0401011)
(6.24774e-15 -3.1728e-16 -0.0403725)
(5.57165e-15 -1.77128e-16 -0.0404922)
(3.10485e-15 2.24492e-17 -0.0404553)
(9.01146e-17 1.61858e-16 -0.0402613)
(-2.30931e-15 2.56095e-16 -0.0399215)
(-4.02505e-15 3.00652e-16 -0.0394567)
(-5.28913e-15 3.00625e-16 -0.038895)
(-5.9799e-15 2.73094e-16 -0.0382682)
(-6.19997e-15 2.31549e-16 -0.0376074)
(-6.05329e-15 1.79597e-16 -0.0369395)
(-5.80862e-15 1.25988e-16 -0.0362845)
(-5.30682e-15 8.2425e-17 -0.0356552)
(-4.68203e-15 4.65877e-17 -0.0350581)
(-3.97615e-15 1.40379e-17 -0.034495)
(-3.20482e-15 -2.3963e-17 -0.0339643)
(-2.41379e-15 -8.57853e-17 -0.0334625)
(-1.55158e-15 1.63014e-15 -0.0329848)
(-5.99234e-16 -1.8476e-15 -0.032526)
(3.93232e-16 -1.90339e-15 -0.032081)
(1.33131e-15 -2.03776e-16 -0.0316446)
(2.21967e-15 -1.96908e-15 -0.0312123)
(2.96067e-15 1.50621e-15 -0.0307795)
(3.53258e-15 -1.88781e-16 -0.0303424)
(3.87502e-15 -1.89765e-15 -0.0298968)
(3.94331e-15 -1.27874e-16 -0.0294371)
(3.79689e-15 -1.82586e-15 -0.028954)
(3.45271e-15 1.70668e-15 -0.0284344)
(3.00357e-15 3.12186e-17 -0.0278667)
(2.5737e-15 -1.7013e-15 -0.0272541)
(2.37842e-15 -2.31925e-17 -0.0266303)
(2.67718e-15 -1.87687e-15 -0.0260631)
(3.45104e-15 1.50217e-15 -0.0256293)
(4.27922e-15 -2.11455e-16 -0.0253554)
(4.35927e-15 -1.76885e-15 -0.0251462)
(3.07781e-15 2.74061e-16 -0.0247461)
(7.48032e-16 -1.25598e-15 -0.0237773)
(-1.23477e-15 -1.39267e-15 -0.0218678)
(-1.10284e-15 -1.93962e-16 -0.0188252)
(2.12198e-15 -2.67859e-15 -0.0147764)
(7.63626e-15 -1.50115e-15 -0.0101902)
(1.28994e-14 -3.2952e-15 -0.00575362)
(1.53819e-14 -2.85071e-15 -0.00214643)
(1.43486e-14 -4.86699e-16 0.000188722)
(1.1643e-14 -1.83745e-15 0.00117715)
(1.04318e-14 -1.00375e-16 0.001093)
(1.2617e-14 -1.98965e-15 0.000412782)
(1.73493e-14 -1.85149e-15 -0.000379474)
(2.11013e-14 6.22035e-16 -0.000946665)
(1.98082e-14 9.04951e-17 -0.00115952)
(1.14768e-14 2.94439e-15 -0.00106408)
(-2.32528e-15 -1.37702e-16 -0.000796614)
(-1.68399e-14 4.44492e-15 -0.000497226)
(-2.67722e-14 1.24279e-15 -0.000257138)
(-2.88563e-14 -2.22252e-15 -0.000107321)
(-2.32759e-14 -1.78472e-15 -3.55668e-05)
(-1.32629e-14 -5.72919e-15 -1.22216e-05)
(-3.011e-15 -1.43568e-16 -9.88796e-06)
(4.11925e-15 -1.02033e-15 -1.19206e-05)
(6.89538e-15 -1.89226e-15 -1.19855e-05)
(6.10459e-15 4.05921e-16 -9.7437e-06)
(3.49566e-15 -2.91213e-15 -6.73414e-06)
(8.92253e-16 2.18173e-15 -4.15367e-06)
(-7.35981e-16 2.24597e-16 -2.3575e-06)
(-1.22879e-15 -1.71726e-15 -1.18646e-06)
(-9.41685e-16 -8.81239e-17 -3.80137e-07)
(-4.42577e-16 -3.58832e-15 2.23833e-07)
(-1.63074e-17 1.66673e-15 6.83201e-07)
(1.75539e-16 -7.83694e-18 1.01286e-06)
(1.77253e-16 -1.71825e-15 1.23002e-06)
(1.16554e-16 2.1078e-17 1.36317e-06)
(1.72454e-17 -3.47431e-15 1.44235e-06)
(-1.43483e-17 1.73384e-15 1.4895e-06)
(-1.85584e-17 9.33812e-18 1.51657e-06)
(-1.22067e-17 -1.72993e-15 1.52874e-06)
(1.39709e-17 2.50208e-18 1.52859e-06)
(-1.65581e-18 -3.486e-15 1.51834e-06)
(-4.23323e-18 1.7263e-15 1.50047e-06)
(-2.16844e-18 9.09305e-19 1.47727e-06)
(-1.60238e-17 -4.54467e-18 1.45057e-06)
(-5.75432e-18 1.73549e-15 1.42162e-06)
(-2.42691e-18 2.96484e-19 1.39122e-06)
(-1.32218e-18 1.74141e-15 1.35992e-06)
(1.80052e-18 2.63371e-18 1.32811e-06)
(-1.18821e-17 -5.6811e-18 1.29608e-06)
(-2.20284e-18 1.73405e-15 1.26407e-06)
(8.87956e-20 -8.92499e-19 1.23225e-06)
(1.3812e-19 1.74058e-15 1.20074e-06)
(2.46569e-18 2.16321e-18 1.16964e-06)
(-1.16746e-17 -5.83375e-18 1.13902e-06)
(-2.16757e-18 1.73413e-15 1.10893e-06)
(1.41285e-19 -6.78952e-19 1.07939e-06)
(3.04712e-19 1.74081e-15 1.05045e-06)
(2.76822e-18 2.32018e-18 1.02212e-06)
(-1.12694e-17 -5.79309e-18 9.9441e-07)
(-1.72637e-18 1.73406e-15 9.67322e-07)
(5.42668e-19 -8.2369e-19 9.40878e-07)
(6.04568e-19 1.74065e-15 9.15057e-07)
(2.93588e-18 2.20425e-18 8.8988e-07)
(-1.12269e-17 -5.8317e-18 8.65318e-07)
(-1.76869e-18 1.7341e-15 8.41392e-07)
(4.74024e-19 -7.25792e-19 8.18066e-07)
(5.74858e-19 1.74074e-15 7.95362e-07)
(2.97128e-18 2.3075e-18 7.73237e-07)
(-1.10025e-17 -6.0292e-18 7.51716e-07)
(-1.8683e-18 1.73492e-15 7.30752e-07)
(2.57715e-18 -5.23701e-18 7.10369e-07)
(-7.99631e-18 1.73284e-15 6.90519e-07)
(-9.26433e-18 1.74048e-15 6.71226e-07)
(-1.14038e-17 9.6619e-19 6.52439e-07)
(2.00694e-19 1.73637e-15 6.34186e-07)
(4.9081e-18 -5.05275e-18 6.16413e-07)
(-5.87492e-18 1.73277e-15 5.99148e-07)
(-7.41171e-18 1.74038e-15 5.82335e-07)
(-9.79027e-18 8.71187e-19 5.66006e-07)
(1.6158e-18 1.73628e-15 5.50104e-07)
(6.15947e-18 -5.1296e-18 5.34662e-07)
(-4.76074e-18 1.7327e-15 5.1962e-07)
(-6.41487e-18 1.74032e-15 5.05016e-07)
(-8.89533e-18 8.11633e-19 4.90788e-07)
(2.42255e-18 1.73622e-15 4.76974e-07)
(6.89304e-18 -5.19033e-18 4.63515e-07)
(-4.08098e-18 1.73265e-15 4.50449e-07)
(-5.76359e-18 1.7403e-15 4.37716e-07)
(-8.24238e-18 8.6382e-19 4.25358e-07)
(3.10705e-18 1.73637e-15 4.13312e-07)
(7.63036e-18 -4.92365e-18 4.01622e-07)
(-3.28702e-18 1.73301e-15 3.90226e-07)
(-4.93222e-18 1.74068e-15 3.79169e-07)
(-7.41455e-18 1.17801e-18 3.68389e-07)
(3.87783e-18 1.73653e-15 3.57932e-07)
(8.29251e-18 -4.99403e-18 3.47736e-07)
(-2.76828e-18 1.73272e-15 3.3785e-07)
(-4.56549e-18 1.74023e-15 3.28209e-07)
(-7.18154e-18 6.6658e-19 3.18863e-07)
(4.01436e-18 1.73607e-15 3.09749e-07)
(8.37608e-18 -5.3247e-18 3.00918e-07)
(-2.70022e-18 1.73255e-15 2.92305e-07)
(-4.48923e-18 1.7402e-15 2.83963e-07)
(-7.08884e-18 7.21648e-19 2.75828e-07)
(4.12144e-18 1.73615e-15 2.67952e-07)
(8.48406e-18 -5.24064e-18 2.60277e-07)
(-2.57508e-18 1.73254e-15 2.52845e-07)
(-4.47569e-18 1.74043e-15 2.4564e-07)
(-6.57063e-18 -3.3861e-19 2.38497e-07)
(2.04924e-18 1.74116e-15 2.32376e-07)
(1.93693e-17 7.88179e-18 2.21253e-07)
(-9.83374e-19 -6.18283e-20 -0.0572033)
(-1.57248e-17 -3.391e-20 -0.0572811)
(-2.97101e-17 1.41221e-20 -0.0574742)
(-5.28371e-17 1.6677e-18 -0.0578017)
(-6.43788e-17 -1.89007e-18 -0.0582787)
(-7.04844e-17 6.35857e-18 -0.0589121)
(-2.60255e-16 1.64551e-17 -0.0597054)
(2.85176e-16 -6.54638e-17 -0.0606339)
(-3.60366e-17 -5.62841e-18 -0.0616695)
(-2.68329e-15 3.82974e-16 -0.0627472)
(-6.38993e-16 2.54382e-16 -0.0637652)
(1.10213e-14 -1.07341e-15 -0.0647313)
(2.14007e-14 -2.51997e-15 -0.0655508)
(1.47486e-14 -2.37568e-15 -0.0661707)
(-1.1195e-14 -4.14882e-16 -0.066555)
(-4.12632e-14 1.81046e-15 -0.0666699)
(-5.91096e-14 2.83347e-15 -0.066502)
(-6.69497e-14 2.74771e-15 -0.066051)
(-6.70549e-14 2.22568e-15 -0.0653374)
(-6.20405e-14 1.574e-15 -0.0643992)
(-5.42667e-14 9.50004e-16 -0.0632889)
(-4.54403e-14 4.26457e-16 -0.0620674)
(-3.6617e-14 2.50391e-17 -0.0607959)
(-2.8357e-14 -2.61328e-16 -0.059528)
(-2.08986e-14 -4.53995e-16 -0.0583043)
(-1.42547e-14 -5.79474e-16 -0.0571512)
(-8.31063e-15 -6.65001e-16 -0.0560818)
(-2.91743e-15 -7.35143e-16 -0.055099)
(2.05142e-15 -8.05573e-16 -0.054198)
(6.66408e-15 -8.81994e-16 -0.0533695)
(1.09012e-14 -9.5083e-16 -0.0526018)
(1.47169e-14 -9.94816e-16 -0.051882)
(1.79817e-14 -1.00498e-15 -0.0511976)
(2.05262e-14 -9.66628e-16 -0.0505367)
(2.21806e-14 -8.70541e-16 -0.0498885)
(2.28066e-14 -7.12769e-16 -0.0492433)
(2.23366e-14 -5.00868e-16 -0.0485928)
(2.08069e-14 -2.60752e-16 -0.047929)
(1.83599e-14 -2.00163e-17 -0.0472421)
(1.5245e-14 1.9719e-16 -0.0465167)
(1.17958e-14 3.65856e-16 -0.045731)
(8.48326e-15 4.31756e-16 -0.0448646)
(5.98387e-15 3.05377e-16 -0.0439207)
(5.09254e-15 -6.40832e-17 -0.0429529)
(6.25001e-15 -5.6573e-16 -0.0420753)
(8.77328e-15 -8.57945e-16 -0.0414241)
(1.045e-14 -5.26375e-16 -0.0410627)
(8.36123e-15 5.34202e-16 -0.0408594)
(1.11068e-15 1.80101e-15 -0.0404115)
(-8.91711e-15 2.2448e-15 -0.0390938)
(-1.58392e-14 1.04083e-15 -0.0362589)
(-1.38689e-14 8.35518e-17 -0.031528)
(-2.20051e-15 -4.50276e-15 -0.0250383)
(1.25669e-14 -5.69417e-15 -0.0175064)
(1.95923e-14 -4.28625e-15 -0.0100479)
(1.15934e-14 -1.13969e-15 -0.00381348)
(-8.33975e-15 3.2597e-15 0.000398328)
(-2.68702e-14 1.72372e-15 0.00237981)
(-2.87072e-14 -6.13025e-16 0.00250947)
(-7.65071e-15 -3.47304e-15 0.0015308)
(2.81506e-14 -4.10198e-15 0.000237811)
(5.92131e-14 8.64406e-16 -0.000787043)
(6.49946e-14 5.43592e-15 -0.00128865)
(3.59085e-14 1.36096e-14 -0.00130109)
(-2.02313e-14 1.49646e-14 -0.00101754)
(-8.16218e-14 1.28192e-14 -0.000651349)
(-1.23805e-13 7.96516e-15 -0.000347345)
(-1.3177e-13 -1.91337e-15 -0.000159092)
(-1.06097e-13 -6.50334e-15 -7.29895e-05)
(-6.0656e-14 -1.06578e-14 -4.7796e-05)
(-1.42794e-14 -9.10663e-15 -4.5447e-05)
(1.82352e-14 -3.43364e-15 -4.42525e-05)
(3.12532e-14 -1.00597e-15 -3.78684e-05)
(2.80047e-14 3.53891e-15 -2.81947e-05)
(1.64726e-14 2.73226e-15 -1.88399e-05)
(4.54716e-15 2.21313e-15 -1.18773e-05)
(-3.10156e-15 2.83715e-15 -7.48373e-06)
(-5.5856e-15 1.0697e-16 -4.86429e-06)
(-4.51e-15 1.32173e-15 -3.16669e-06)
(-2.16188e-15 -4.91917e-16 -1.8857e-06)
(-2.0328e-16 -3.24327e-16 -8.44431e-07)
(7.35835e-16 1.6329e-15 -2.19852e-08)
(8.10223e-16 3.75545e-17 5.82571e-07)
(4.78793e-16 1.82126e-15 9.98454e-07)
(1.26202e-16 6.18505e-17 1.27443e-06)
(-6.96901e-17 1.68942e-17 1.45702e-06)
(-1.10012e-16 1.73171e-15 1.57879e-06)
(-7.00468e-17 -1.11788e-17 1.6586e-06)
(-1.7813e-17 1.73192e-15 1.70704e-06)
(1.19161e-17 2.7705e-18 1.73118e-06)
(1.81441e-17 -6.46355e-19 1.73682e-06)
(1.20591e-17 -5.54763e-19 1.72891e-06)
(3.58034e-18 -1.33624e-18 1.71141e-06)
(-1.56704e-18 -1.76975e-18 1.68726e-06)
(-2.75799e-18 -2.08462e-18 1.6585e-06)
(-1.9892e-18 -1.41305e-18 1.62657e-06)
(-1.32007e-18 -7.05814e-19 1.59249e-06)
(-1.95519e-18 -1.00909e-18 1.55704e-06)
(-2.77948e-18 -9.5553e-19 1.52077e-06)
(-2.97963e-18 -1.02465e-18 1.48412e-06)
(-2.72698e-18 -3.54376e-19 1.44741e-06)
(-2.64e-18 2.4213e-19 1.41085e-06)
(-3.38351e-18 -1.74156e-19 1.37463e-06)
(-3.90194e-18 -2.12944e-19 1.33887e-06)
(-3.61928e-18 -3.79042e-19 1.30365e-06)
(-2.89102e-18 1.66563e-19 1.26905e-06)
(-2.42361e-18 6.13697e-19 1.2351e-06)
(-2.90925e-18 4.7999e-20 1.20185e-06)
(-3.29442e-18 -1.10448e-19 1.16932e-06)
(-2.99165e-18 -3.4607e-19 1.13753e-06)
(-2.33118e-18 1.84261e-19 1.10647e-06)
(-1.98123e-18 6.58383e-19 1.07616e-06)
(-2.59036e-18 1.38744e-19 1.04659e-06)
(-3.0666e-18 1.80512e-20 1.01777e-06)
(-2.7994e-18 -2.09152e-19 9.89671e-07)
(-2.11386e-18 2.84977e-19 9.623e-07)
(-1.69716e-18 7.04838e-19 9.35641e-07)
(-2.20194e-18 5.58438e-20 9.09686e-07)
(-2.64148e-18 7.13352e-21 8.84418e-07)
(-2.16059e-18 -5.31664e-19 8.59827e-07)
(-1.77297e-18 -9.18346e-19 8.35896e-07)
(-2.06707e-18 -2.85549e-19 8.12614e-07)
(-2.71591e-18 -3.92915e-20 7.89961e-07)
(-3.04664e-18 2.87542e-19 7.67927e-07)
(-2.39997e-18 -1.65393e-19 7.46493e-07)
(-1.8563e-18 -5.76255e-19 7.25646e-07)
(-2.0193e-18 -2.17643e-21 7.05368e-07)
(-2.56252e-18 1.80415e-19 6.85648e-07)
(-2.81102e-18 4.5112e-19 6.66466e-07)
(-2.10328e-18 -4.57866e-20 6.47811e-07)
(-1.51755e-18 -4.88901e-19 6.29666e-07)
(-1.6551e-18 6.08978e-20 6.12021e-07)
(-2.18646e-18 2.22358e-19 5.94856e-07)
(-2.43222e-18 4.72034e-19 5.78163e-07)
(-1.7242e-18 -4.41459e-20 5.61926e-07)
(-1.13153e-18 -4.96842e-19 5.46134e-07)
(-1.24496e-18 6.56897e-20 5.30773e-07)
(-1.72617e-18 2.73751e-19 5.15834e-07)
(-1.89292e-18 6.05871e-19 5.01303e-07)
(-1.08426e-18 1.93249e-19 4.87171e-07)
(-3.87665e-19 -1.6674e-19 4.73424e-07)
(-4.20063e-19 4.37471e-19 4.60057e-07)
(-8.69566e-19 6.04255e-19 4.47055e-07)
(-1.07124e-18 8.05082e-19 4.34412e-07)
(-3.65102e-19 1.96749e-19 4.22116e-07)
(1.78403e-19 -3.7161e-19 4.10162e-07)
(-2.7657e-20 7.0434e-20 3.98537e-07)
(-6.38189e-19 1.64246e-19 3.87238e-07)
(-9.62292e-19 3.92444e-19 3.76251e-07)
(-3.28125e-19 -1.10621e-19 3.65574e-07)
(1.90494e-19 -5.39536e-19 3.55196e-07)
(-7.55528e-21 3.02847e-20 3.45113e-07)
(-5.95167e-19 2.09642e-19 3.35314e-07)
(-8.96474e-19 4.70761e-19 3.25795e-07)
(-2.48662e-19 -3.45689e-20 3.1655e-07)
(2.74568e-19 -5.08839e-19 3.07565e-07)
(6.63578e-20 9.76609e-20 2.98882e-07)
(-5.04649e-19 3.3551e-20 2.90246e-07)
(-9.17714e-19 8.81033e-19 2.82844e-07)
(1.50208e-19 1.0389e-18 2.69353e-07)
(-4.56282e-17 4.75432e-18 -0.0793545)
(-1.4288e-16 7.68958e-18 -0.0794553)
(-1.15645e-16 1.16912e-17 -0.0797111)
(-1.79967e-16 1.03542e-17 -0.0801492)
(7.40796e-18 1.58919e-18 -0.0807912)
(-5.81099e-16 9.05668e-17 -0.0816479)
(3.99044e-16 -1.81483e-16 -0.0827252)
(1.6119e-15 -1.4456e-16 -0.083988)
(-8.27829e-15 3.17266e-15 -0.085401)
(5.46034e-16 3.12415e-16 -0.0868662)
(4.45795e-14 -8.57929e-15 -0.088232)
(4.68e-14 -9.26929e-15 -0.089542)
(-7.54224e-14 -1.90406e-15 -0.0906482)
(-2.92234e-13 1.60552e-14 -0.0914807)
(-4.83833e-13 2.76886e-14 -0.091992)
(-5.43212e-13 2.37802e-14 -0.092132)
(-4.67348e-13 1.28657e-14 -0.0918838)
(-3.5252e-13 4.13447e-15 -0.0912452)
(-2.36971e-13 -2.19852e-15 -0.090243)
(-1.37694e-13 -6.09343e-15 -0.0889274)
(-6.0342e-14 -7.99947e-15 -0.087368)
(-3.69027e-15 -8.55175e-15 -0.0856472)
(3.61866e-14 -8.31009e-15 -0.0838498)
(6.37407e-14 -7.67959e-15 -0.0820514)
(8.28892e-14 -6.92513e-15 -0.0803107)
(9.6586e-14 -6.21158e-15 -0.0786663)
(1.07214e-13 -5.62207e-15 -0.077139)
(1.16018e-13 -5.16699e-15 -0.0757346)
(1.23495e-13 -4.81472e-15 -0.0744481)
(1.29526e-13 -4.51067e-15 -0.0732677)
(1.33592e-13 -2.39628e-15 -0.0721774)
(1.35292e-13 -5.38784e-15 -0.0711597)
(1.33932e-13 -4.80802e-15 -0.0701969)
(1.29047e-13 -2.30324e-15 -0.0692722)
(1.20392e-13 -3.10929e-15 -0.0683702)
(1.07864e-13 1.4282e-15 -0.067477)
(9.18883e-14 8.11075e-16 -0.0665806)
(7.31867e-14 9.07141e-17 -0.0656697)
(5.28775e-14 2.65305e-15 -0.0647305)
(3.23959e-14 1.4562e-15 -0.063742)
(1.33307e-14 5.08755e-15 -0.0626735)
(-2.38933e-15 2.93716e-15 -0.061496)
(-1.26529e-14 -5.94034e-18 -0.0602112)
(-1.58364e-14 -1.56262e-16 -0.05889)
(-1.25211e-14 -3.71724e-15 -0.057688)
(-7.57007e-15 -5.9785e-16 -0.0567976)
(-9.8598e-15 -5.43262e-18 -0.0563177)
(-2.81075e-14 2.90084e-15 -0.0560831)
(-6.3235e-14 8.91323e-15 -0.0555515)
(-1.03133e-13 7.21897e-15 -0.0538591)
(-1.27973e-13 1.08409e-15 -0.0500904)
(-1.25726e-13 -7.01331e-15 -0.0436823)
(-1.06323e-13 -1.58974e-14 -0.0347789)
(-1.0202e-13 -1.23976e-14 -0.0243383)
(-1.47397e-13 -2.80841e-15 -0.013897)
(-2.49573e-13 1.11157e-14 -0.00507074)
(-3.7199e-13 1.87451e-14 0.00098913)
(-4.47976e-13 8.34584e-15 0.00394227)
(-4.20366e-13 -9.71014e-15 0.00426949)
(-2.80973e-13 -3.04185e-14 0.00297773)
(-8.15845e-14 -3.52838e-14 0.00116703)
(8.65745e-14 -1.78e-14 -0.000337888)
(1.37856e-13 1.1743e-14 -0.00115715)
(3.84369e-14 4.55574e-14 -0.00131174)
(-1.73e-13 5.86276e-14 -0.00104902)
(-4.03839e-13 5.62317e-14 -0.000652262)
(-5.55089e-13 2.63168e-14 -0.000317169)
(-5.68421e-13 -1.10762e-14 -0.000118307)
(-4.4864e-13 -3.73416e-14 -4.03064e-05)
(-2.52935e-13 -5.16383e-14 -3.08141e-05)
(-5.73192e-14 -3.95891e-14 -4.19465e-05)
(7.89619e-14 -2.37866e-14 -4.78269e-05)
(1.33698e-13 -6.77703e-15 -4.28053e-05)
(1.2038e-13 7.79625e-15 -3.15558e-05)
(7.19059e-14 8.81663e-15 -2.01749e-05)
(2.1093e-14 1.19688e-14 -1.19616e-05)
(-1.22271e-14 5.29098e-15 -7.21448e-06)
(-2.37438e-14 -1.01303e-15 -4.75282e-06)
(-1.97962e-14 -1.79998e-15 -3.32499e-06)
(-9.92784e-15 -5.74169e-15 -2.21927e-06)
(-1.345e-15 2.17869e-16 -1.22941e-06)
(2.97198e-15 -5.14588e-16 -3.86163e-07)
(3.51434e-15 -1.58972e-15 2.56605e-07)
(2.16689e-15 3.63088e-16 7.00423e-07)
(6.2407e-16 -3.20007e-15 9.9019e-07)
(-2.70356e-16 1.85195e-15 1.17862e-06)
(-5.01049e-16 9.51648e-18 1.30444e-06)
(-3.4458e-16 -1.77603e-15 1.38932e-06)
(-1.15867e-16 -3.84794e-17 1.44406e-06)
(2.64403e-17 -3.50398e-15 1.47499e-06)
(6.61047e-17 1.72622e-15 1.48734e-06)
(3.48316e-17 8.19121e-18 1.48585e-06)
(3.66423e-18 2.26841e-18 1.47451e-06)
(-1.61557e-17 1.73866e-15 1.45634e-06)
(-8.98987e-18 5.07563e-19 1.43343e-06)
(-2.0706e-18 1.74069e-15 1.40724e-06)
(-9.52448e-18 2.61671e-18 1.3788e-06)
(-8.53559e-18 -4.9514e-18 1.34887e-06)
(-1.0149e-17 1.73456e-15 1.31802e-06)
(6.42219e-19 -9.18749e-19 1.28668e-06)
(4.19848e-18 1.74041e-15 1.25516e-06)
(-7.18453e-18 2.49147e-18 1.2237e-06)
(-8.17945e-18 -5.20278e-18 1.19246e-06)
(-1.00433e-17 1.73425e-15 1.16158e-06)
(1.21404e-18 -1.18441e-18 1.13113e-06)
(5.22801e-18 1.74021e-15 1.10119e-06)
(-5.94075e-18 2.32929e-18 1.07181e-06)
(-6.92276e-18 -5.35768e-18 1.04302e-06)
(-8.87641e-18 1.7341e-15 1.01484e-06)
(2.24992e-18 -1.30531e-18 9.8729e-07)
(6.11598e-18 1.74014e-15 9.60375e-07)
(-5.20383e-18 2.33384e-18 9.34105e-07)
(-6.32332e-18 -5.28901e-18 9.08473e-07)
(-8.38296e-18 1.73421e-15 8.83483e-07)
(2.68004e-18 -1.20216e-18 8.59124e-07)
(6.52482e-18 1.74019e-15 8.35393e-07)
(-4.78582e-18 2.35154e-18 8.12277e-07)
(-5.8831e-18 -5.55705e-18 7.89771e-07)
(-7.92477e-18 1.7349e-15 7.67859e-07)
(3.14103e-18 -5.67126e-18 7.46535e-07)
(6.96976e-18 1.73279e-15 7.2578e-07)
(-4.37431e-18 1.74095e-15 7.05589e-07)
(-5.51593e-18 1.45598e-18 6.85941e-07)
(-7.60446e-18 1.73621e-15 6.66831e-07)
(3.41888e-18 -5.64792e-18 6.48238e-07)
(7.21329e-18 1.73258e-15 6.30157e-07)
(-4.15631e-18 1.74073e-15 6.12566e-07)
(-5.31624e-18 1.26705e-18 5.95461e-07)
(-7.41831e-18 1.73605e-15 5.78819e-07)
(3.59387e-18 -5.77634e-18 5.62637e-07)
(7.37754e-18 1.73248e-15 5.46894e-07)
(-4.00359e-18 1.74065e-15 5.31586e-07)
(-5.17618e-18 1.20019e-18 5.16692e-07)
(-7.29086e-18 1.73599e-15 5.02211e-07)
(3.71224e-18 -5.84067e-18 4.8812e-07)
(7.49656e-18 1.73241e-15 4.7442e-07)
(-3.86592e-18 1.7406e-15 4.61089e-07)
(-4.99396e-18 1.1878e-18 4.48127e-07)
(-7.03435e-18 1.73605e-15 4.35516e-07)
(4.06846e-18 -5.67628e-18 4.23254e-07)
(7.96341e-18 1.73268e-15 4.11323e-07)
(-3.30052e-18 1.74092e-15 3.99724e-07)
(-4.3678e-18 1.5036e-18 3.88439e-07)
(-6.40529e-18 1.73627e-15 3.77469e-07)
(4.6358e-18 -5.61885e-18 3.66796e-07)
(8.41429e-18 1.73255e-15 3.56423e-07)
(-2.99671e-18 1.74064e-15 3.46333e-07)
(-4.2112e-18 1.1339e-18 3.36528e-07)
(-6.36886e-18 1.73591e-15 3.26991e-07)
(4.59513e-18 -5.90109e-18 3.17727e-07)
(8.34158e-18 1.73238e-15 3.08718e-07)
(-3.06623e-18 1.74059e-15 2.99968e-07)
(-4.25788e-18 1.16611e-18 2.91462e-07)
(-6.38921e-18 1.73598e-15 2.83203e-07)
(4.59918e-18 -5.82616e-18 2.75178e-07)
(8.34017e-18 1.73238e-15 2.67382e-07)
(-2.981e-18 1.74082e-15 2.59845e-07)
(-4.59595e-18 1.53426e-19 2.52362e-07)
(-4.61322e-18 1.74083e-15 2.45892e-07)
(-4.28547e-18 7.34783e-18 2.34018e-07)
(4.71706e-17 1.82892e-15 -0.100717)
(1.85462e-16 1.7697e-15 -0.100833)
(1.29404e-16 1.85579e-17 -0.101136)
(2.53107e-16 1.67486e-15 -0.101663)
(5.52934e-16 1.9334e-15 -0.102442)
(-1.81759e-15 1.54526e-15 -0.103489)
(9.18912e-15 -1.08004e-15 -0.104812)
(-1.90539e-14 4.32741e-15 -0.106365)
(-9.24969e-15 5.27303e-16 -0.10811)
(1.32263e-13 -2.95967e-14 -0.109908)
(4.7767e-14 -2.28455e-14 -0.111547)
(-5.58184e-13 5.89547e-14 -0.11315)
(-1.31023e-12 1.6697e-13 -0.114493)
(-1.53026e-12 2.0183e-13 -0.115495)
(-9.38821e-13 1.25074e-13 -0.116104)
(1.07009e-13 -2.96264e-15 -0.11626)
(1.01974e-12 -9.07776e-14 -0.115939)
(1.64355e-12 -1.12441e-13 -0.115141)
(1.96907e-12 -1.01718e-13 -0.1139)
(2.05771e-12 -8.50056e-14 -0.112276)
(1.99012e-12 -6.60519e-14 -0.110352)
(1.83703e-12 -4.78378e-14 -0.108225)
(1.65025e-12 -3.36905e-14 -0.105998)
(1.46253e-12 -2.36127e-14 -0.103764)
(1.29191e-12 -1.68766e-14 -0.101595)
(1.14596e-12 -1.44767e-14 -0.0995421)
(1.02575e-12 -1.03811e-14 -0.09763)
(9.28166e-13 -8.87558e-15 -0.0958674)
(8.47161e-13 -7.55946e-15 -0.0942489)
(7.75823e-13 -5.94401e-15 -0.0927601)
(7.07782e-13 -5.5548e-15 -0.091382)
(6.3823e-13 -2.87929e-15 -0.090093)
(5.63786e-13 2.10359e-15 -0.0888718)
(4.82685e-13 4.06895e-15 -0.0876977)
(3.94305e-13 7.98295e-15 -0.0865518)
(2.99506e-13 1.17974e-14 -0.0854172)
(2.00814e-13 1.51065e-14 -0.0842788)
(1.01963e-13 1.92446e-14 -0.083123)
(7.7453e-15 1.86424e-14 -0.0819329)
(-7.68144e-14 1.82342e-14 -0.0806825)
(-1.46674e-13 1.6022e-14 -0.0793338)
(-1.97112e-13 1.16922e-14 -0.0778492)
(-2.24794e-13 7.0289e-15 -0.0762281)
(-2.30816e-13 -1.86472e-15 -0.0745551)
(-2.25778e-13 -6.43531e-15 -0.0730229)
(-2.32364e-13 -3.925e-15 -0.0718746)
(-2.79615e-13 8.00976e-15 -0.0712435)
(-3.863e-13 2.72218e-14 -0.0709361)
(-5.41047e-13 3.75786e-14 -0.070282)
(-6.98063e-13 3.28788e-14 -0.0681934)
(-8.06278e-13 1.23374e-14 -0.0634978)
(-8.62697e-13 -9.00756e-15 -0.0554502)
(-9.39802e-13 -1.63557e-14 -0.0441951)
(-1.15329e-12 1.65771e-14 -0.0309185)
(-1.57359e-12 6.94892e-14 -0.0175631)
(-2.13934e-12 1.11158e-13 -0.00619893)
(-2.64645e-12 1.04197e-13 0.00167511)
(-2.83994e-12 2.59116e-14 0.00558525)
(-2.5623e-12 -8.23794e-14 0.00610972)
(-1.86166e-12 -1.72863e-13 0.00451203)
(-9.93002e-13 -1.87876e-13 0.00219147)
(-3.14638e-13 -1.07121e-13 0.000210027)
(-1.19777e-13 2.95048e-14 -0.000929977)
(-4.86125e-13 1.70772e-13 -0.00123598)
(-1.22926e-12 2.36103e-13 -0.00100711)
(-1.99267e-12 2.05598e-13 -0.000593685)
(-2.42511e-12 9.19905e-14 -0.00024)
(-2.33986e-12 -5.51379e-14 -4.05889e-05)
(-1.78017e-12 -1.62512e-13 2.1622e-05)
(-9.70694e-13 -2.06318e-13 9.46818e-06)
(-1.93947e-13 -1.7332e-13 -2.00076e-05)
(3.3642e-13 -9.72078e-14 -3.71403e-05)
(5.44973e-13 -2.1715e-14 -3.70844e-05)
(4.88178e-13 3.61698e-14 -2.72454e-05)
(2.93992e-13 5.23758e-14 -1.61591e-05)
(8.96966e-14 4.60144e-14 -8.37793e-06)
(-4.6258e-14 2.69902e-14 -4.43058e-06)
(-9.55487e-14 3.8915e-15 -2.89584e-06)
(-8.18168e-14 -3.85152e-15 -2.25892e-06)
(-4.25507e-14 -9.71749e-15 -1.70069e-06)
(-7.21633e-15 -5.0395e-15 -1.04368e-06)
(1.1465e-14 9.37948e-16 -3.98429e-07)
(1.45229e-14 4.401e-16 1.13855e-07)
(9.34263e-15 5.00112e-15 4.5948e-07)
(2.96489e-15 1.28048e-15 6.72096e-07)
(-1.00625e-15 2.31418e-15 8.02693e-07)
(-2.07578e-15 3.50355e-15 8.88758e-07)
(-1.49116e-15 -2.0377e-16 9.48793e-07)
(-5.38914e-16 3.28114e-15 9.89534e-07)
(8.97053e-17 -8.8215e-17 1.01381e-06)
(2.51945e-16 1.72988e-15 1.02442e-06)
(1.88815e-16 3.06653e-17 1.02463e-06)
(6.6976e-17 2.41575e-17 1.01751e-06)
(-2.26846e-17 4.5573e-18 1.00543e-06)
(-4.34952e-17 -9.12723e-18 9.89959e-07)
(-3.30626e-17 1.73358e-15 9.72154e-07)
(-5.60029e-18 2.52663e-18 9.52725e-07)
(7.93661e-18 -6.96795e-19 9.32202e-07)
(-1.30227e-18 -5.54444e-18 9.10992e-07)
(-4.07554e-18 -8.19841e-18 8.89407e-07)
(-7.17213e-18 1.73828e-15 8.67675e-07)
(3.08475e-18 6.43109e-18 8.45966e-07)
(7.33262e-18 1.25525e-18 8.24401e-07)
(-3.7194e-18 -4.90969e-18 8.03071e-07)
(-5.10149e-18 -8.01472e-18 7.82037e-07)
(-6.74694e-18 1.73847e-15 7.61352e-07)
(4.0235e-18 6.68909e-18 7.41046e-07)
(8.10052e-18 1.51583e-18 7.21148e-07)
(-3.31302e-18 -4.69679e-18 7.0167e-07)
(-4.97083e-18 -7.84227e-18 6.82628e-07)
(-6.75842e-18 1.73863e-15 6.64024e-07)
(3.95576e-18 6.87804e-18 6.45865e-07)
(8.01569e-18 1.72831e-18 6.28147e-07)
(-3.39593e-18 -4.48363e-18 6.10873e-07)
(-5.03773e-18 -7.66304e-18 5.94034e-07)
(-6.80082e-18 1.73874e-15 5.77631e-07)
(3.94236e-18 6.9088e-18 5.61651e-07)
(8.00765e-18 1.62532e-18 5.46095e-07)
(-3.35513e-18 -4.50493e-18 5.30947e-07)
(-5.15545e-18 -7.97893e-18 5.16208e-07)
(-6.61784e-18 1.73756e-15 5.0186e-07)
(4.76731e-18 5.95729e-18 4.87904e-07)
(8.8787e-18 1.57578e-18 4.74321e-07)
(-2.68389e-18 -4.17986e-18 4.61112e-07)