/*--------------------------------*- C++ -*----------------------------------*\
  =========                 |
  \\      /  F ield         | OpenFOAM: The Open Source CFD Toolbox
   \\    /   O peration     | Website:  https://openfoam.org
    \\  /    A nd           | Version:  11
     \\/     M anipulation  |
\*---------------------------------------------------------------------------*/
FoamFile
{
    format      ascii;
    class       surfaceScalarField;
    location    "17.082967";
    object      phi;
}
// * * * * * * * * * * * * * * * * * * * * * * * * * * * * * * * * * * * * * //

dimensions      [0 3 -1 0 0 0 0];

internalField   nonuniform List<scalar> 
14638
(
0.00250255
-2.55128e-06
0.00250998
-7.42523e-06
0.00252216
-1.21851e-05
0.00253905
-1.6885e-05
0.00256058
-2.15339e-05
0.00258653
-2.59496e-05
0.00261631
-2.97794e-05
0.00264867
-3.2361e-05
0.00268167
-3.29951e-05
0.00271285
-3.11801e-05
0.00273966
-2.68169e-05
0.00276112
-2.14577e-05
0.00277735
-1.6233e-05
0.00278945
-1.2097e-05
0.00279827
-8.82182e-06
0.00280333
-5.05797e-06
0.00280232
1.00642e-06
0.00279193
1.03974e-05
0.00276975
2.21734e-05
0.0027359
3.38527e-05
0.00269318
4.27196e-05
0.00264641
4.67662e-05
0.00260148
4.49387e-05
0.00256448
3.70002e-05
0.00254108
2.34004e-05
0.0025357
5.37251e-06
0.00255045
-1.47486e-05
0.00258355
-3.31011e-05
0.0026282
-4.46492e-05
0.00267325
-4.50512e-05
0.00270651
-3.32568e-05
0.00271914
-1.26348e-05
0.00270845
1.06959e-05
0.00267758
3.08652e-05
0.0026333
4.42855e-05
0.00258359
4.97104e-05
0.00253636
4.72244e-05
0.00249907
3.72949e-05
0.00247859
2.04808e-05
0.00248068
-2.09162e-06
0.00250833
-2.76543e-05
0.00255924
-5.09024e-05
0.00262406
-6.48291e-05
0.00268782
-6.37602e-05
0.00273463
-4.6805e-05
0.00275354
-1.89064e-05
0.00274194
1.15958e-05
0.002705
3.69421e-05
0.00265226
5.27428e-05
0.00259413
5.81291e-05
0.00253996
5.41673e-05
0.00249778
4.218e-05
0.0024747
2.30782e-05
0.00247669
-1.99122e-06
0.00250683
-3.01405e-05
0.00256255
-5.57165e-05
0.00263386
-7.13114e-05
0.00270476
-7.09014e-05
0.00275802
-5.32626e-05
0.0027812
-2.31736e-05
0.00277058
1.06147e-05
0.00273134
3.92395e-05
0.00267428
5.7067e-05
0.0026116
6.26794e-05
0.00255404
5.75609e-05
0.00251006
4.39749e-05
0.0024864
2.36641e-05
0.0024882
-1.80087e-06
0.00251771
-2.95083e-05
0.00257193
-5.42247e-05
0.0026413
-6.9369e-05
0.002711
-6.97022e-05
0.00276503
-5.40308e-05
0.00279118
-2.61479e-05
0.00278465
6.52823e-06
0.00274892
3.57346e-05
0.0026937
5.52134e-05
0.00263141
6.22978e-05
0.00257376
5.76508e-05
0.0025301
4.36573e-05
0.00250724
2.28555e-05
0.00250954
-2.29652e-06
0.00253795
-2.84143e-05
0.00258851
-5.05551e-05
0.00265174
-6.32273e-05
0.00271435
-6.26163e-05
0.0027628
-4.84442e-05
0.00278702
-2.42254e-05
0.00278297
4.05226e-06
0.00275306
2.99064e-05
0.00270491
4.81504e-05
0.00264899
5.59263e-05
0.00259617
5.28207e-05
0.00255594
4.02256e-05
0.00253543
2.0515e-05
0.00253866
-3.23386e-06
0.00256563
-2.69713e-05
0.00261145
-4.58152e-05
0.00266669
-5.52398e-05
0.00271949
-5.2805e-05
0.00275873
-3.92425e-05
0.00277689
-1.81609e-05
0.00277155
5.34164e-06
0.00274526
2.62955e-05
0.00270426
4.1001e-05
0.00265685
4.7408e-05
0.00261188
4.49653e-05
0.00257756
3.43204e-05
0.00256039
1.71675e-05
0.00256405
-3.6583e-06
0.00258821
-2.41586e-05
0.00262799
-3.97794e-05
0.00267472
-4.67271e-05
0.00271809
-4.33714e-05
0.00274897
-3.08782e-05
0.00276166
-1.26889e-05
0.00275487
6.78992e-06
0.0027313
2.35695e-05
0.00269636
3.49328e-05
0.00265683
3.9539e-05
0.00261975
3.70779e-05
0.00259178
2.79673e-05
0.00257837
1.34139e-05
0.00258263
-4.2673e-06
0.00260422
-2.15873e-05
0.00263876
-3.45429e-05
0.00267865
-3.98867e-05
0.002715
-3.63516e-05
0.00274012
-2.51227e-05
0.00274944
-9.3168e-06
0.00274226
7.18639e-06
0.00272129
2.09686e-05
0.00269146
2.98251e-05
0.00265864
3.28221e-05
0.00262874
2.98961e-05
0.00260726
2.14787e-05
0.00259874
8.52818e-06
0.00260584
-7.10487e-06
0.00262834
-2.25014e-05
0.00266251
-3.41711e-05
0.00270166
-3.91485e-05
0.00273778
-3.61169e-05
0.00276371
-2.59297e-05
0.00277499
-1.12783e-05
0.00277072
4.26235e-06
0.00275338
1.73488e-05
0.00272767
2.57039e-05
0.0026993
2.83761e-05
0.00267382
2.54752e-05
0.00265616
1.76625e-05
0.00265028
5.87764e-06
0.00265889
-8.60792e-06
0.00268272
-2.38325e-05
0.00272003
-3.73048e-05
0.00276641
-4.6382e-05
0.00281561
-4.92058e-05
0.00286133
-4.57148e-05
0.00289709
-3.57651e-05
0.00292327
-2.61759e-05
-4.54961e-06
0.00250254
-5.09203e-06
0.00250994
-1.48215e-05
0.00252209
-2.4337e-05
0.00253897
-3.37657e-05
0.00256057
-4.31364e-05
0.00258672
-5.20926e-05
0.00261686
-5.99262e-05
0.00264976
-6.52629e-05
0.00268341
-6.6645e-05
0.00271519
-6.29566e-05
0.00274232
-5.3943e-05
0.00276378
-4.29244e-05
0.00277982
-3.22677e-05
0.00279175
-2.40312e-05
0.00280069
-1.77561e-05
0.00280622
-1.05896e-05
0.00280587
1.3511e-06
0.00279595
2.03199e-05
0.00277375
4.43761e-05
0.00273928
6.83237e-05
0.00269547
8.65305e-05
0.00264733
9.49028e-05
0.00260093
9.13399e-05
0.00256255
7.53807e-05
0.00253806
4.78912e-05
0.00253218
1.12525e-05
0.00254735
-2.9924e-05
0.00258203
-6.77748e-05
0.00262918
-9.18066e-05
0.00267697
-9.28366e-05
0.00271229
-6.85764e-05
0.00272573
-2.6074e-05
0.00271455
2.18691e-05
0.00268232
6.30969e-05
0.00263625
9.03599e-05
0.00258464
0.000101324
0.00253553
9.63333e-05
0.00249645
7.63691e-05
0.00247451
4.24195e-05
0.00247592
-3.50065e-06
0.00250424
-5.59724e-05
0.00255742
-0.000104087
0.00262572
-0.000133127
0.00269305
-0.00013109
0.00274234
-9.60933e-05
0.00276198
-3.85464e-05
0.00274946
2.41207e-05
0.00271053
7.58651e-05
0.00265545
0.00010783
0.00259504
0.000118537
0.00253878
0.000110422
0.00249471
8.62567e-05
0.00247004
4.77418e-05
0.00247114
-3.09061e-06
0.00250162
-6.06202e-05
0.00255926
-0.000113356
0.00263389
-0.000145935
0.00270862
-0.000145636
0.00276501
-0.000109651
0.00278963
-4.77981e-05
0.00277855
2.17017e-05
0.00273738
8.04082e-05
0.00267773
0.00011672
0.00261247
0.000127938
0.00255261
0.000117421
0.00250659
8.99958e-05
0.00248112
4.9134e-05
0.00248161
-2.29994e-06
0.00251082
-5.87123e-05
0.0025661
-0.00010951
0.00263779
-0.000141059
0.00271046
-0.000142372
0.00276727
-0.000110838
0.0027953
-5.41754e-05
0.00278939
1.24345e-05
0.00275306
7.20722e-05
0.00269634
0.000111927
0.00263207
0.000126567
0.00257233
0.000117398
0.00252669
8.92918e-05
0.00250226
4.72886e-05
0.00250379
-3.8315e-06
0.00253265
-5.72746e-05
0.00258489
-0.000102789
0.00265053
-0.000128867
0.00271549
-0.000127576
0.00276553
-9.84886e-05
0.00279035
-4.90474e-05
0.00278601
8.3925e-06
0.00275522
6.06958e-05
0.00270587
9.75056e-05
0.00264859
0.000113205
0.00259438
0.000107026
0.00255292
8.16947e-05
0.00253163
4.18033e-05
0.00253498
-6.5857e-06
0.00256321
-5.52017e-05
0.00261123
-9.38334e-05
0.00266896
-0.000112972
0.00272374
-0.000107583
0.00276387
-7.93722e-05
0.00278173
-3.60196e-05
0.00277519
1.18803e-05
0.00274726
5.4219e-05
0.00270461
8.36502e-05
0.00265578
9.6241e-05
0.00260973
9.10219e-05
0.00257476
6.92887e-05
0.00255759
3.43365e-05
0.00256212
-8.19356e-06
0.00258808
-5.0117e-05
0.00263026
-8.19586e-05
0.00267935
-9.58162e-05
0.00272436
-8.83838e-05
0.00275573
-6.22477e-05
0.00276773
-2.46906e-05
0.00275938
1.51399e-05
0.00273384
4.91111e-05
0.00269696
7.1812e-05
0.00265581
8.06875e-05
0.00261766
7.52354e-05
0.00258929
5.63295e-05
0.00257633
2.63748e-05
0.002582
-9.93763e-06
0.00260583
-4.54103e-05
0.00264301
-7.17244e-05
0.00268529
-8.21698e-05
0.00272318
-7.42412e-05
0.00274863
-5.05737e-05
0.00275708
-1.77614e-05
0.00274812
1.61452e-05
0.00272492
4.41679e-05
0.00269284
6.18995e-05
0.0026581
6.7562e-05
0.00262688
6.11196e-05
0.00260488
4.34791e-05
0.00259683
1.65837e-05
0.00260548
-1.57606e-05
0.00263045
-4.74753e-05
0.00266756
-7.12754e-05
0.00270944
-8.10293e-05
0.00274745
-7.41295e-05
0.00277405
-5.25246e-05
0.00278471
-2.1938e-05
0.00277878
1.0189e-05
0.00275912
3.70055e-05
0.0027309
5.39247e-05
0.00270017
5.91057e-05
0.00267279
5.2856e-05
0.0026539
3.65523e-05
0.00264769
1.20882e-05
0.00265703
-1.79478e-05
0.00268267
-4.94748e-05
0.00272262
-7.72473e-05
0.00277195
-9.571e-05
0.00282381
-0.000101074
0.00287129
-9.31928e-05
0.00290783
-7.23026e-05
0.00293339
-5.17351e-05
-7.87869e-06
0.00250252
-7.61035e-06
0.00250985
-2.21504e-05
0.00252192
-3.64105e-05
0.00253877
-5.06189e-05
0.00256049
-6.48555e-05
0.00258701
-7.8608e-05
0.00261789
-9.08087e-05
0.0026519
-9.92738e-05
0.00268692
-0.000101664
0.00271996
-9.59977e-05
0.00274776
-8.17396e-05
0.00276927
-6.44331e-05
0.0027849
-4.78986e-05
0.00279648
-3.56182e-05
0.00280563
-2.68982e-05
0.0028121
-1.70619e-05
0.00281306
3.92987e-07
0.00280401
2.9371e-05
0.0027816
6.67869e-05
0.0027457
0.000104219
0.00269954
0.00013269
0.00264857
0.000145874
0.00259925
0.000140655
0.00255824
0.000116395
0.0025318
7.43276e-05
0.00252523
1.78311e-05
0.00254161
-4.63113e-05
0.00257979
-0.00010595
0.00263224
-0.000144264
0.0026856
-0.000146189
0.00272485
-0.00010783
0.00273942
-4.06383e-05
0.00272665
3.46392e-05
0.00269108
9.8664e-05
0.00264102
0.000140423
0.00258544
0.000156899
0.00253266
0.000149118
0.00249033
0.000118697
0.00246595
6.67986e-05
0.0024666
-4.15245e-06
0.00249694
-8.63095e-05
0.00255538
-0.000162525
0.00263115
-0.0002089
0.00270578
-0.000205727
0.00275968
-0.00014999
0.00277996
-5.8822e-05
0.00276453
3.95431e-05
0.00272072
0.000119681
0.00266034
0.000168209
0.00259517
0.000183704
0.00253489
0.000170702
0.00248738
0.000133766
0.00245987
7.52532e-05
0.00245916
-2.37343e-06
0.00248975
-9.12158e-05
0.00255033
-0.00017394
0.00263082
-0.000226416
0.00271302
-0.000227838
0.00277609
-0.00017272
0.0028043
-7.60077e-05
0.00279275
3.32502e-05
0.00274784
0.000125311
0.00268292
0.00018164
0.00261243
0.000198432
0.00254807
0.000181776
0.00249829
0.000139783
0.00246975
7.76702e-05
0.00246843
-9.79216e-07
0.00249802
-8.83004e-05
0.00255639
-0.000167884
0.00263323
-0.000217894
0.00271154
-0.000220683
0.00277288
-0.000172181
0.00280335
-8.46469e-05
0.00279755
1.82411e-05
0.00275929
0.000110329
0.00269932
0.000171896
0.00263122
0.000194673
0.00256766
0.000180954
0.00251874
0.000138213
0.00249218
7.38479e-05
0.00249359
-5.24631e-06
0.00252492
-8.86023e-05
0.00258186
-0.000159723
0.00265301
-0.000200022
0.00272249
-0.000197053
0.00277477
-0.000150767
0.00279929
-7.35677e-05
0.00279273
1.49443e-05
0.00275878
9.46511e-05
0.0027061
0.000150188
0.00264576
0.000173539
0.00258898
0.000163811
0.0025457
0.000124974
0.00252395
6.35493e-05
0.00252887
-1.14995e-05
0.00256086
-8.71998e-05
0.00261412
-0.000147093
0.00267708
-0.000175928
0.00273547
-0.000165978
0.00277663
-0.000120529
0.00279288
-5.22735e-05
0.00278287
2.18973e-05
0.0027507
8.63858e-05
0.00270403
0.000130326
0.00265198
0.000148289
0.0026038
0.000139204
0.00256802
0.000105067
0.00255169
5.0666e-05
0.00255898
-1.54849e-05
0.0025894
-8.05402e-05
0.00263685
-0.000129408
0.00269066
-0.00014962
0.00273856
-0.000136284
0.00277029
-9.39848e-05
0.00278022
-3.46173e-05
0.00276806
2.72973e-05
0.00273799
7.91845e-05
0.0026968
0.000112997
0.00265226
0.000125234
0.00261204
0.000115454
0.00258327
8.50943e-05
0.00257184
3.78119e-05
0.00258099
-1.90947e-05
0.0026098
-7.42144e-05
0.00265242
-0.000114347
0.0026993
-0.000129047
0.00273983
-0.000114769
0.00276541
-7.61611e-05
0.00277162
-2.39676e-05
0.0027587
2.90591e-05
0.00273075
7.21199e-05
0.00269403
9.86216e-05
0.00265547
0.000106125
0.00262178
9.48055e-05
0.00259911
6.61495e-05
0.0025925
2.31971e-05
0.00260473
-2.79926e-05
0.00263491
-7.76536e-05
0.0026778
-0.000114164
0.00272474
-0.000127976
0.00276599
-0.000115373
0.00279337
-7.99087e-05
0.00280238
-3.09476e-05
0.00279287
1.96967e-05
0.0027685
6.13747e-05
0.00273529
8.71359e-05
0.00270003
9.43716e-05
0.00266913
8.37536e-05
0.0026482
5.74759e-05
0.00264185
1.84426e-05
0.00265318
-2.92798e-05
0.0026828
-7.90925e-05
0.00272802
-0.000122471
0.00278281
-0.000150494
0.00283922
-0.000157484
0.00288928
-0.000143259
0.00292655
-0.000109565
0.00295022
-7.54054e-05
-8.59551e-06
0.00250248
-1.00903e-05
0.00250969
-2.93642e-05
0.00252163
-4.83431e-05
0.00253841
-6.74001e-05
0.00256027
-8.67155e-05
0.00258732
-0.000105656
0.0026193
-0.000122797
0.00265503
-0.000134996
0.00269221
-0.000138845
0.00272726
-0.000131046
0.00275609
-0.000110573
0.00277761
-8.59584e-05
0.00279253
-6.28136e-05
0.00280349
-4.65813e-05
0.00281293
-3.63342e-05
0.00282092
-2.50502e-05
0.002824
-2.69452e-06
0.00281638
3.69945e-05
0.00279364
8.95303e-05
0.00275546
0.000142393
0.00270559
0.000182559
0.00265022
0.000201252
0.00259643
0.000194443
0.00255139
0.000161431
0.00252196
0.000103756
0.00251427
2.55277e-05
0.00253249
-6.45306e-05
0.00257613
-0.00014959
0.00263696
-0.000205102
0.00269915
-0.000208378
0.00274459
-0.000153266
0.00276076
-5.68078e-05
0.00274522
5.01774e-05
0.0027042
0.000139687
0.00264781
0.000196815
0.00258611
0.000218592
0.00252777
0.000207456
0.00248058
0.000165892
0.00245252
9.48633e-05
0.00245183
-3.4695e-06
0.0024847
-0.000119181
0.00255045
-0.000228267
0.0026374
-0.000295858
0.00272386
-0.00029218
0.00278583
-0.000211965
0.00280768
-8.06726e-05
0.00278774
5.94899e-05
0.00273597
0.000171449
0.00266709
0.000237085
0.00259454
0.000256255
0.00252823
0.000237012
0.0024755
0.000186499
0.00244312
0.000107626
0.00243842
2.32758e-06
0.00246762
-0.000120416
0.00253124
-0.00023756
0.00261947
-0.000314644
0.00271225
-0.000320611
0.00278551
-0.000245983
0.00282034
-0.000110843
0.00280999
4.36004e-05
0.0027612
0.000174105
0.00268942
0.000253421
0.00261148
0.000276369
0.00254046
0.000252798
0.00248507
0.000195172
0.00245231
0.000110435
0.0024493
2.02452e-06
0.00248118
-0.000120181
0.00254592
-0.000232624
0.00263129
-0.000303266
0.00271746
-0.000306848
0.00278381
-0.000238533
0.00281578
-0.000116616
0.00280843
2.55934e-05
0.00276648
0.000152276
0.0027016
0.000236774
0.00262817
0.000268109
0.00255951
0.000249607
0.00250647
0.00019126
0.00247787
0.000102446
0.00248062
-7.99391e-06
0.00251714
-0.000125128
0.00258203
-0.000224607
0.00266146
-0.000279459
0.00273699
-0.000272584
0.00279151
-0.000205286
0.00281434
-9.63925e-05
0.00280325
2.60336e-05
0.00276352
0.000134383
0.00270518
0.000208529
0.00264005
0.000238669
0.00257966
0.0002242
0.00253439
0.000170245
0.00251303
8.49034e-05
0.00252144
-1.9903e-05
0.00255984
-0.000125608
0.00262099
-0.000208241
0.00269113
-0.000246069
0.00275404
-0.000228883
0.00279596
-0.000162455
0.00280932
-6.56295e-05
0.00279378
3.74412e-05
0.00275499
0.000125167
0.00270207
0.000183249
0.00264512
0.000205242
0.0025939
0.000190422
0.00255736
0.000141609
0.00254297
6.5057e-05
0.00255504
-2.75524e-05
0.0025924
-0.000117906
0.0026474
-0.000184408
0.00270746
-0.00020968
0.0027588
-0.000187624
0.00279048
-0.000125663
0.00279708
-4.12149e-05
0.00277928
4.50974e-05
0.00274259
0.000115872
0.00269514
0.000160447
0.00264569
0.000174679
0.00260264
0.000158505
0.00257364
0.000114102
0.00256488
4.65682e-05
0.00257949
-3.37042e-05
0.00261557
-0.000110296
0.00266566
-0.00016444
0.00271844
-0.000181821
0.00276199
-0.000158326
0.00278724
-0.000101411
0.00279003
-2.67538e-05
0.00277149
4.7599e-05
0.0027369
0.000106714
0.00269372
0.0001418
0.0026499
0.000149944
0.00261296
0.000131744
0.00258969
8.94175e-05
0.00258554
2.73503e-05
0.00260314
-4.55924e-05
0.00264064
-0.000115152
0.00269119
-0.000164716
0.00274442
-0.00018121
0.00278931
-0.000160256
0.00281713
-0.000107738
0.00282355
-3.73606e-05
0.00280908
3.41693e-05
0.00277836
9.20919e-05
0.00273848
0.000127012
0.0026972
0.000135657
0.00266173
0.000119221
0.00263839
8.08192e-05
0.00263235
2.44821e-05
0.00264696
-4.38927e-05
0.00268235
-0.000114489
0.00273462
-0.000174741
0.00279604
-0.000211909
0.00285731
-0.00021875
0.00290941
-0.000195363
0.00294635
-0.000146509
0.00296661
-9.56661e-05
-5.54009e-06
0.00250242
-1.25102e-05
0.00250945
-3.63989e-05
0.00252116
-6.00442e-05
0.00253778
-8.4026e-05
0.00255976
-0.000108696
0.00258747
-0.000133361
0.00262093
-0.000156257
0.00265902
-0.000173088
0.00269929
-0.000179115
0.00273723
-0.000168982
0.00276748
-0.000140831
0.0027889
-0.000107377
0.00280259
-7.64958e-05
0.00281245
-5.64425e-05
0.00282219
-4.6078e-05
0.0028324
-3.52622e-05
0.00283873
-9.02521e-06
0.00283336
4.23698e-05
0.00281028
0.000112607
0.00276896
0.000183716
0.00271393
0.000237586
0.00265245
0.000262733
0.00259248
0.000254417
0.00254183
0.000212081
0.00250809
0.00013749
0.00249857
3.50465e-05
0.0025191
-8.50614e-05
0.00257038
-0.000200862
0.00264323
-0.000277957
0.00271817
-0.000283317
0.00277244
-0.000207536
0.00279072
-7.50845e-05
0.00277097
6.99276e-05
0.00272202
0.000188628
0.00265672
0.000262124
0.00258663
0.000288678
0.0025208
0.000273285
0.002467
0.000219689
0.00243348
0.000128386
0.00242926
7.47993e-07
0.00246202
-0.000151936
0.00253326
-0.000299514
0.00263267
-0.000395266
0.00273613
-0.000395636
0.00281315
-0.000288989
0.00284163
-0.000109153
0.00281826
8.28601e-05
0.00275647
0.00023324
0.00267591
0.000317641
0.00259317
0.000338997
0.00251864
0.000311545
0.00245852
0.00024662
0.00241883
0.000147315
0.00240825
1.29054e-05
0.00243622
-0.000148387
0.00250538
-0.000306715
0.00260458
-0.000413844
0.00271004
-0.00042607
0.0027942
-0.000330142
0.00283594
-0.000152588
0.00282729
5.22521e-05
0.00277492
0.000226471
0.00269583
0.000332517
0.00260916
0.000363033
0.00252976
0.000332203
0.00246728
0.000257653
0.00242992
0.000147792
0.0024268
5.1461e-06
0.00246431
-0.000157691
0.00253922
-0.000307537
0.00263593
-0.000399976
0.002731
-0.000401922
0.00280167
-0.000309198
0.00283313
-0.000148074
0.00282166
3.70618e-05
0.00277365
0.000200281
0.00270209
0.000308337
0.00262211
0.000348087
0.00254761
0.000324114
0.0024903
0.000248567
0.00246056
0.000132186
0.00246667
-1.41064e-05
0.00251096
-0.000169415
0.00258592
-0.00029957
0.00267475
-0.000368291
0.00275649
-0.000354323
0.00281273
-0.000261522
0.00283277
-0.000116431
0.00281551
4.32879e-05
0.00276806
0.000181831
0.00270221
0.000274381
0.00263089
0.000309988
0.00256623
0.000288868
0.00251921
0.000217259
0.00249951
0.000104604
0.0025134
-3.37944e-05
0.00256026
-0.000172464
0.00263066
-0.000278637
0.00270839
-0.000323807
0.00277549
-0.000295983
0.0028175
-0.000204463
0.00282706
-7.51857e-05
0.00280485
5.96516e-05
0.0027581
0.000171915
0.00269755
0.000243795
0.0026346
0.000268201
0.00257984
0.000245177
0.00254289
0.000178559
0.00253169
7.62519e-05
0.00255037
-4.62238e-05
0.00259642
-0.000163963
0.00266005
-0.000248036
0.00272658
-0.000276209
0.00278092
-0.00024196
0.00281176
-0.000156505
0.00281411
-4.35636e-05
0.00278964
6.95637e-05
0.00274524
0.000160274
0.00269046
0.000215226
0.0026353
0.000229836
0.00258913
0.000204678
0.00256033
0.000142899
0.00255546
5.14358e-05
0.00257716
-5.54e-05
0.002622
-0.000155139
0.0026804
-0.000222841
0.00273912
-0.000240541
0.00278517
-0.00020437
0.00280925
-0.000125491
0.0028077
-2.52004e-05
0.00278259
7.27071e-05
0.00274041
0.000148893
0.0026899
0.000192311
0.00264017
0.000199673
0.00259978
0.000172139
0.00257635
0.000112841
0.00257576
2.7944e-05
0.00260018
-7.00104e-05
0.00264626
-0.000161237
0.0027051
-0.000223556
0.00276448
-0.000240589
0.0028123
-0.000208081
0.00283966
-0.000135097
0.00284259
-4.02834e-05
0.00282235
5.44012e-05
0.00278457
0.000129873
0.00273738
0.000174208
0.00268953
0.000183501
0.00264923
0.000159522
0.0026237
0.000106352
0.00261883
2.93546e-05
0.00263803
-6.30995e-05
0.00268047
-0.000156927
0.00274037
-0.000234641
0.00280795
-0.000279489
0.00287264
-0.000283434
0.0029248
-0.000247526
0.00295945
-0.000181159
0.00297458
-0.000110793
2.15625e-06
0.00250233
-1.4841e-05
0.0025091
-4.31685e-05
0.00252044
-7.13853e-05
0.00253678
-0.00010036
0.00255879
-0.000130711
0.00258722
-0.000161793
0.00262251
-0.000191543
0.0026637
-0.000214285
0.0027082
-0.000223614
0.00275013
-0.000210907
0.00278226
-0.000172967
0.00280338
-0.00012849
0.0028151
-8.82211e-05
0.00282317
-6.45109e-05
0.00283317
-5.60805e-05
0.00284651
-4.85976e-05
0.00285756
-2.00731e-05
0.00285553
4.43934e-05
0.00283213
0.000136006
0.00278656
0.000229286
0.00272462
0.000299525
0.00265509
0.000332263
0.00258704
0.00032247
0.00252901
0.000270115
0.00248939
0.000177107
0.00247704
4.73954e-05
0.00250039
-0.000108407
0.00256225
-0.000262721
0.00265207
-0.000367782
0.00274465
-0.000375891
0.00281053
-0.000273421
0.00283091
-9.5462e-05
0.00280479
9.60453e-05
0.00274486
0.000248558
0.00266769
0.000339291
0.00258683
0.000369545
0.0025116
0.00034851
0.0024493
0.000281986
0.00240737
0.000170324
0.0023945
1.3612e-05
0.00242062
-0.000178051
0.00249231
-0.00037121
0.0026032
-0.000506153
0.00272771
-0.000520146
0.00282802
-0.000389297
0.00287231
-0.000153441
0.00285152
0.000103645
0.00278097
0.000303791
0.00268683
0.000411778
0.00259119
0.000434645
0.00250595
0.000396784
0.00243613
0.000316435
0.00238754
0.00019591
0.0023719
2.85415e-05
0.00240268
-0.000179166
0.00248279
-0.00038682
0.00259675
-0.000527808
0.00271542
-0.000544742
0.00280814
-0.000422858
0.00285338
-0.000197829
0.00284386
6.17696e-05
0.00278687
0.000283465
0.0027002
0.000419181
0.00260441
0.000458827
0.00251583
0.000420786
0.00244575
0.000327731
0.00240467
0.000188872
0.00240397
5.84201e-06
0.00245016
-0.000203883
0.00253715
-0.000394521
0.00264536
-0.00050819
0.00274846
-0.000505018
0.0028223
-0.000383044
0.00285201
-0.000177777
0.0028349
5.41695e-05
0.00277921
0.000255973
0.00269962
0.000387919
0.00261229
0.00043542
0.00253173
0.00040468
0.00247074
0.000309553
0.00244133
0.000161598
0.00245272
-2.54992e-05
0.00250613
-0.000222826
0.00259123
-0.000384665
0.00268835
-0.00046541
0.00277486
-0.000440841
0.00283185
-0.000318508
0.00284874
-0.000133319
0.00282516
6.68713e-05
0.00276962
0.000237366
0.00269565
0.000348353
0.00261758
0.000388054
0.00254853
0.000357916
0.00250044
0.000265349
0.00248378
0.000121264
0.00250469
-5.4705e-05
0.00256083
-0.000228606
0.00264015
-0.000357948
0.00272422
-0.00040788
0.00279403
-0.000365798
0.00283508
-0.000245508
0.00284043
-8.05346e-05
0.00281155
8.8534e-05
0.00275686
0.000226596
0.00268859
0.000312073
0.00261949
0.000337299
0.00256135
0.000303314
0.00252472
0.000215189
0.00251798
8.29987e-05
0.00254452
-7.27687e-05
0.00259987
-0.000219316
0.00267172
-0.000319886
0.00274354
-0.000348023
0.0027995
-0.000297921
0.00282847
-0.000185479
0.00282608
-4.11658e-05
0.00279485
0.000100788
0.0027428
0.000212328
0.00268075
0.000277272
0.00262
0.000290592
0.00257107
0.000253601
0.00254331
0.000170664
0.0025435
5.12389e-05
0.00257335
-8.52515e-05
0.00262735
-0.000209137
0.00269353
-0.000289017
0.00275697
-0.000303986
0.00280412
-0.000251516
0.00282595
-0.000147321
0.00281947
-1.87221e-05
0.00278764
0.000104543
0.00273795
0.000198582
0.00268027
0.000249989
0.00262489
0.000255051
0.00258154
0.000215488
0.00255884
0.000135543
0.00256294
2.38432e-05
0.00259512
-0.000102192
0.00265001
-0.000216126
0.0027164
-0.000289946
0.00278047
-0.000304661
0.00282961
-0.000257217
0.00285518
-0.000160673
0.00285387
-3.89695e-05
0.00282768
8.0591e-05
0.002783
0.000174549
0.00272882
0.000228388
0.00267484
0.000237484
0.00263029
0.000204073
0.00260347
0.00013317
0.002601
3.18327e-05
0.00262596
-8.8066e-05
0.00267586
-0.000206829
0.00274252
-0.000301297
0.00281409
-0.000351063
0.00287925
-0.000348591
0.00292853
-0.000296803
0.00295848
-0.000211115
0.00296694
-0.000119246
1.49009e-05
0.0025022
-1.70443e-05
0.00250859
-4.95596e-05
0.0025194
-8.21892e-05
0.00253523
-0.000116192
0.0025571
-0.000152584
0.00258624
-0.000190933
0.00262368
-0.000228973
0.00266881
-0.000259416
0.00271897
-0.000273776
0.00276629
-0.000258231
0.0028008
-0.000207477
0.00282118
-0.00014887
0.00282976
-9.67994e-05
0.00283492
-6.96715e-05
0.00284503
-6.61906e-05
0.00286274
-6.6311e-05
0.00288062
-3.79526e-05
0.00288355
4.14654e-05
0.00285997
0.000159588
0.0028089
0.000280354
0.00273805
0.000370373
0.00265831
0.000412012
0.00258007
0.000400704
0.0025126
0.000337591
0.00246505
0.000224648
0.0024484
6.4052e-05
0.00247511
-0.000135119
0.00255146
-0.000339071
0.002665
-0.000481319
0.00278192
-0.000492811
0.00286274
-0.000354247
0.00288426
-0.000116982
0.00284814
0.000132165
0.00277301
0.000323693
0.0026805
0.000431802
0.00258642
0.000463619
0.00250004
0.000434895
0.00242693
0.000355099
0.00237209
0.000225161
0.00234441
4.12864e-05
0.00235988
-0.000193512
0.00243265
-0.000443981
0.00255754
-0.000631045
0.00270412
-0.000666729
0.00282858
-0.000513758
0.0028926
-0.000217456
0.00288046
0.000115785
0.0028055
0.000378753
0.00269862
0.00051865
0.0025885
0.000544768
0.00249024
0.000495043
0.002409
0.000397672
0.00235202
0.000252892
0.00233518
4.5383e-05
0.00237428
-0.000218264
0.00246905
-0.000481593
0.00259809
-0.000656848
0.00272796
-0.00067461
0.00282636
-0.000521262
0.00287197
-0.000243438
0.00285878
7.49642e-05
0.00279549
0.000346755
0.00270084
0.000513832
0.00259604
0.000563622
0.0024985
0.000518328
0.00242156
0.000404676
0.00237855
0.000231876
0.00238256
1.83808e-06
0.00243852
-0.000259852
0.00253646
-0.000492458
0.00265346
-0.00062519
0.00276187
-0.00061343
0.0028375
-0.000458673
0.00286547
-0.000205748
0.00284332
7.63259e-05
0.00278031
0.000318984
0.00269273
0.000475496
0.00259806
0.00053009
0.00251186
0.00049088
0.00244829
0.000373122
0.00242077
0.00018912
0.0024386
-4.33339e-05
0.00250092
-0.000285145
0.00259432
-0.000478068
0.00269702
-0.000568102
0.00278584
-0.000529668
0.00284226
-0.000374923
0.00285607
-0.000147137
0.00282718
9.57645e-05
0.00276475
0.000299794
0.00268352
0.000429584
0.00259927
0.000472309
0.00252647
0.00043071
0.00247832
0.000313501
0.00246591
0.000133672
0.00249453
-8.33219e-05
0.00255942
-0.000293495
0.00264583
-0.000444362
0.0027338
-0.000495851
0.00280418
-0.000436172
0.00284306
-0.000284392
0.00284417
-8.16404e-05
0.00280946
0.000123239
0.00274804
0.000288015
0.00267313
0.000386986
0.00259878
0.000411645
0.00253816
0.00036394
0.00250292
0.000250423
0.00250169
8.42357e-05
0.00253656
-0.00010764
0.00260053
-0.000283287
0.00267884
-0.000398202
0.00275372
-0.000422901
0.0028094
-0.000353593
0.00283544
-0.000211522
0.00282821
-3.39416e-05
0.00279092
0.000138087
0.00273226
0.000270982
0.00266403
0.000345504
0.00259868
0.000355938
0.00254806
0.000304228
0.00252247
0.000196252
0.00252873
4.49813e-05
0.00256703
-0.000123559
0.00262938
-0.000271484
0.00270154
-0.000361175
0.00276753
-0.000369973
0.00281391
-0.0002979
0.00283241
-0.000165821
0.00282083
-7.13907e-06
0.0027828
0.000142566
0.00272654
0.000254841
0.00266276
0.000313772
0.00260282
0.000314995
0.00255767
0.000260632
0.00253693
0.000156288
0.00254673
1.40378e-05
0.00258691
-0.000142367
0.00264966
-0.000278877
0.00272162
-0.000361906
0.00278798
-0.000371022
0.00283631
-0.000305545
0.00285876
-0.000183117
0.00285278
-3.29929e-05
0.002821
0.000112366
0.00277033
0.000225226
0.00271029
0.000288421
0.00265138
0.000296396
0.00260389
0.000251567
0.00257725
0.00015981
0.00257856
3.05175e-05
0.00260998
-0.00011948
0.00266659
-0.00026344
0.00273758
-0.000372289
0.00280959
-0.000423073
0.00287142
-0.000410418
0.00291465
-0.000340038
0.00293776
-0.000234225
0.00293863
-0.000120117
3.25009e-05
0.00250203
-1.90714e-05
0.00250789
-5.54272e-05
0.00251793
-9.22209e-05
0.00253296
-0.000131227
0.00255439
-0.000174019
0.0025841
-0.00022064
0.00262393
-0.000268796
0.00267393
-0.000309421
0.00273163
-0.000331476
0.00278623
-0.000312836
0.00282377
-0.000245016
0.0028429
-0.000168001
0.00284673
-0.000100626
0.00284731
-7.02515e-05
0.00285704
-7.59202e-05
0.00288063
-8.9901e-05
0.00290821
-6.55307e-05
0.00291838
3.12926e-05
0.00289489
0.000183076
0.00283668
0.00033857
0.00275436
0.00045269
0.0026618
0.000504571
0.00257104
0.000491464
0.00249181
0.000416817
0.00243395
0.000282512
0.00241093
8.70729e-05
0.00243927
-0.000163459
0.00252876
-0.000428559
0.00266843
-0.000620988
0.00281869
-0.000643071
0.00292486
-0.000460422
0.00295168
-0.000143805
0.00290275
0.000181095
0.00280703
0.000419415
0.0026948
0.000544038
0.00258502
0.000573397
0.00248581
0.000534103
0.00239905
0.000441854
0.00232704
0.000297179
0.00228314
8.51824e-05
0.00229401
-0.000204387
0.00237826
-0.000528227
0.00252339
-0.000776177
0.00268955
-0.00083288
0.00282973
-0.000653944
0.00290625
-0.00029397
0.00290148
0.000120551
0.00282509
0.000455137
0.00270831
0.00063544
0.00258419
0.00066888
0.00247188
0.000607361
0.00237895
0.0004906
0.00231607
0.000315773
0.00230253
5.89193e-05
0.0023529
-0.000268637
0.00246111
-0.000589801
0.00260081
-0.000796547
0.00273737
-0.000811169
0.00283907
-0.00062296
0.00288462
-0.000288991
0.00286794
9.16406e-05
0.00279855
0.000416147
0.00269631
0.000616077
0.00258323
0.000676695
0.00247781
0.000623747
0.00239566
0.000486829
0.00235276
0.000274781
0.00236261
-8.01547e-06
0.00242733
-0.00032457
0.00253302
-0.000598148
0.00265469
-0.000746862
0.00276493
-0.000723667
0.00284061
-0.00053435
0.00286721
-0.000232356
0.00284184
0.000101702
0.00277362
0.000387199
0.00267968
0.000569439
0.00257883
0.000630942
0.00248813
0.000581575
0.00242338
0.000437872
0.002399
0.000213499
0.00242344
-6.77721e-05
0.00249312
-0.000354823
0.0025919
-0.000576851
0.00269684
-0.000673041
0.00278526
-0.000618084
0.00283968
-0.000429343
0.00285058
-0.000158034
0.00281784
0.000128503
0.00275059
0.000367046
0.00266406
0.000516109
0.00257519
0.000561178
0.0025
0.000505902
0.00245305
0.000360449
0.00244573
0.00014099
0.00248178
-0.000119373
0.00255369
-0.0003654
0.00264443
-0.000535103
0.00273337
-0.000584791
0.00280205
-0.000504847
0.00283768
-0.000320029
0.00283476
-7.87183e-05
0.00279552
0.000162479
0.00272923
0.000354311
0.00264959
0.000466622
0.0025717
0.000489533
0.0025101
0.000425547
0.00247755
0.00028297
0.00248251
7.92692e-05
0.00252523
-0.00015036
0.00259599
-0.000354041
0.00267807
-0.000480281
0.0027533
-0.000498136
0.00280672
-0.000407007
0.00282898
-0.000233783
0.00281723
-2.2191e-05
0.00277505
0.000180259
0.00271149
0.000334551
0.00263886
0.000418134
0.00257061
0.000424181
0.00251985
0.000354992
0.00249775
0.00021835
0.00251068
3.20476e-05
0.00255684
-0.000169715
0.00262561
-0.000340255
0.00270105
-0.000436611
0.00276694
-0.000435869
0.00281069
-0.000341643
0.00282506
-0.000180193
0.00280863
9.28798e-06
0.0027655
0.000185697
0.00270421
0.000316127
0.00263602
0.000381966
0.0025732
0.000377811
0.0025279
0.000305931
0.0025105
0.00017369
0.00252665
-2.10833e-06
0.00257415
-0.000189872
0.00264272
-0.000347448
0.0027174
-0.000436585
0.00278324
-0.000436864
0.00282868
-0.000350987