/*--------------------------------*- C++ -*----------------------------------*\
  =========                 |
  \\      /  F ield         | OpenFOAM: The Open Source CFD Toolbox
   \\    /   O peration     | Website:  https://openfoam.org
    \\  /    A nd           | Version:  11
     \\/     M anipulation  |
\*---------------------------------------------------------------------------*/
FoamFile
{
    format      ascii;
    class       surfaceScalarField;
    location    "1.292902";
    object      phi;
}
// * * * * * * * * * * * * * * * * * * * * * * * * * * * * * * * * * * * * * //

dimensions      [0 3 -1 0 0 0 0];

internalField   nonuniform List<scalar> 
14638
(
0.00250269
-2.69282e-06
0.00251079
-8.09435e-06
0.00252455
-1.37595e-05
0.00254431
-1.97583e-05
0.00257036
-2.60567e-05
0.00260273
-3.23683e-05
0.00264092
-3.81876e-05
0.00268351
-4.25951e-05
0.0027281
-4.45878e-05
0.00277121
-4.31056e-05
0.00280873
-3.75198e-05
0.00283723
-2.84998e-05
0.00285413
-1.69073e-05
0.00285794
-3.80472e-06
0.00284869
9.25036e-06
0.00282796
2.07285e-05
0.0027985
2.94615e-05
0.00276357
3.49283e-05
0.00272635
3.72211e-05
0.00268953
3.68156e-05
0.00265521
3.43219e-05
0.00262486
3.03493e-05
0.00259936
2.5497e-05
0.00257897
2.03918e-05
0.00256331
1.56653e-05
0.00255148
1.18295e-05
0.00254235
9.1252e-06
0.00253489
7.46181e-06
0.00252839
6.50498e-06
0.00252253
5.86009e-06
0.00251729
5.23815e-06
0.00251277
4.52193e-06
0.00250903
3.73041e-06
0.0025061
2.93879e-06
0.00250388
2.21441e-06
0.00250229
1.59304e-06
0.0025012
1.08494e-06
0.00250052
6.88217e-07
0.00250012
3.9604e-07
0.00249992
1.9717e-07
0.00249985
7.5179e-08
0.00249984
1.00148e-08
0.00249986
-1.83416e-08
0.00249988
-2.63449e-08
0.00249991
-2.51872e-08
0.00249993
-2.11084e-08
0.00249994
-1.68488e-08
0.00249996
-1.32371e-08
0.00249997
-1.03289e-08
0.00249998
-7.99462e-09
0.00249998
-6.12136e-09
0.00249999
-4.63507e-09
0.00249999
-3.47775e-09
0.00249999
-2.59307e-09
0.0025
-1.92576e-09
0.0025
-1.42621e-09
0.0025
-1.05354e-09
0.0025
-7.7606e-10
0.0025
-5.6979e-10
0.0025
-4.1675e-10
0.0025
-3.03408e-10
0.0025
-2.19614e-10
0.0025
-1.57743e-10
0.0025
-1.12128e-10
0.0025
-7.85318e-11
0.0025
-5.38348e-11
0.0025
-3.57006e-11
0.0025
-2.2426e-11
0.0025
-1.27236e-11
0.0025
-5.66993e-12
0.0025
-5.5429e-13
0.0025
3.11928e-12
0.0025
5.74572e-12
0.0025
7.5872e-12
0.0025
8.86645e-12
0.0025
9.71813e-12
0.0025
1.02711e-11
0.0025
1.05907e-11
0.0025
1.07544e-11
0.0025
1.07903e-11
0.0025
1.07479e-11
0.0025
1.06351e-11
0.0025
1.04861e-11
0.0025
1.02981e-11
0.0025
1.00967e-11
0.0025
9.8736e-12
0.0025
9.64919e-12
0.0025
9.41264e-12
0.0025
9.18118e-12
0.0025
8.94293e-12
0.0025
8.71307e-12
0.0025
8.4795e-12
0.0025
8.25586e-12
0.0025
8.03036e-12
0.0025
7.81536e-12
0.0025
7.59963e-12
0.0025
7.39441e-12
0.0025
7.18918e-12
0.0025
6.99418e-12
0.0025
6.79967e-12
0.0025
6.61489e-12
0.0025
6.43094e-12
0.0025
6.2561e-12
0.0025
6.08234e-12
0.0025
5.91702e-12
0.0025
5.75296e-12
0.0025
5.59662e-12
0.0025
5.44171e-12
0.0025
5.2938e-12
0.0025
5.14747e-12
0.0025
5.00743e-12
0.0025
4.86911e-12
0.0025
4.73638e-12
0.0025
4.60551e-12
0.0025
4.47957e-12
0.0025
4.35563e-12
0.0025
4.23598e-12
0.0025
4.11847e-12
0.0025
4.00465e-12
0.0025
3.89311e-12
0.0025
3.7847e-12
0.0025
3.67872e-12
0.0025
3.57533e-12
0.0025
3.47452e-12
0.0025
3.37581e-12
0.0025
3.27983e-12
0.0025
3.18548e-12
0.0025
3.09401e-12
0.0025
3.00374e-12
0.0025
2.9165e-12
0.0025
2.83007e-12
0.0025
2.7468e-12
0.0025
2.66396e-12
0.0025
2.58443e-12
0.0025
2.50498e-12
0.0025
2.42897e-12
0.0025
2.35273e-12
0.0025
2.28004e-12
0.0025
2.20683e-12
0.0025
2.13727e-12
0.0025
2.06694e-12
0.0025
2.00034e-12
0.0025
1.93274e-12
0.0025
1.86895e-12
0.0025
1.80394e-12
0.0025
1.74282e-12
0.0025
1.68029e-12
0.0025
1.62174e-12
0.0025
1.56165e-12
0.0025
1.50556e-12
0.0025
1.44784e-12
0.0025
1.39391e-12
0.0025
1.3387e-12
0.0025
1.28613e-12
0.0025
1.23597e-12
0.0025
1.17972e-12
0.0025
1.15147e-12
0.0025
1.05572e-12
0.0025
1.1495e-12
8.54468e-13
0.00250267
-5.3641e-06
0.00251071
-1.61306e-05
0.00252439
-2.74425e-05
0.00254409
-3.94609e-05
0.00257017
-5.21316e-05
0.00260269
-6.48953e-05
0.00264125
-7.67462e-05
0.00268447
-8.58067e-05
0.0027299
-9.00243e-05
0.00277395
-8.71576e-05
0.00281231
-7.58774e-05
0.00284144
-5.76291e-05
0.00285869
-3.4157e-05
0.00286247
-7.58924e-06
0.00285284
1.88834e-05
0.00283145
4.212e-05
0.00280119
5.97233e-05
0.00276547
7.06478e-05
0.00272757
7.51193e-05
0.00269024
7.41468e-05
0.00265556
6.90001e-05
0.00262498
6.09275e-05
0.00259935
5.11346e-05
0.00257887
4.08674e-05
0.00256316
3.13756e-05
0.00255132
2.36734e-05
0.0025422
1.82394e-05
0.00253477
1.48942e-05
0.0025283
1.2972e-05
0.00252248
1.16838e-05
0.00251727
1.04489e-05
0.00251276
9.02841e-06
0.00250904
7.4561e-06
0.00250609
5.87979e-06
0.00250388
4.43341e-06
0.00250228
3.18937e-06
0.00250119
2.16995e-06
0.00250051
1.37325e-06
0.00250012
7.86953e-07
0.00249993
3.89052e-07
0.00249985
1.46342e-07
0.00249985
1.79426e-08
0.00249987
-3.69455e-08
0.00249989
-5.16898e-08
0.00249991
-4.87748e-08
0.00249993
-4.05347e-08
0.00249995
-3.22214e-08
0.00249996
-2.52987e-08
0.00249997
-1.97656e-08
0.00249998
-1.53226e-08
0.00249998
-1.17442e-08
0.00249999
-8.89582e-09
0.00249999
-6.67472e-09
0.00249999
-4.97684e-09
0.0025
-3.69689e-09
0.0025
-2.73917e-09
0.0025
-2.02481e-09
0.0025
-1.49284e-09
0.0025
-1.09729e-09
0.0025
-8.03755e-10
0.0025
-5.86327e-10
0.0025
-4.25551e-10
0.0025
-3.06821e-10
0.0025
-2.19256e-10
0.0025
-1.54748e-10
0.0025
-1.07299e-10
0.0025
-7.24471e-11
0.0025
-4.69074e-11
0.0025
-2.82316e-11
0.0025
-1.46263e-11
0.0025
-4.75056e-12
0.0025
2.37001e-12
0.0025
7.46987e-12
0.0025
1.1076e-11
0.0025
1.35915e-11
0.0025
1.52993e-11
0.0025
1.64219e-11
0.0025
1.71095e-11
0.0025
1.7486e-11
0.0025
1.76299e-11
0.0025
1.76113e-11
0.0025
1.74699e-11
0.0025
1.72467e-11
0.0025
1.69606e-11
0.0025
1.66362e-11
0.0025
1.62814e-11
0.0025
1.5912e-11
0.0025
1.55296e-11
0.0025
1.51452e-11
0.0025
1.47574e-11
0.0025
1.43743e-11
0.0025
1.3993e-11
0.0025
1.36198e-11
0.0025
1.32512e-11
0.0025
1.28924e-11
0.0025
1.25397e-11
0.0025
1.21973e-11
0.0025
1.18617e-11
0.0025
1.15366e-11
0.0025
1.12186e-11
0.0025
1.09107e-11
0.0025
1.06099e-11
0.0025
1.03188e-11
0.0025
1.00346e-11
0.0025
9.75958e-12
0.0025
9.49118e-12
0.0025
9.23132e-12
0.0025
8.97778e-12
0.0025
8.73214e-12
0.0025
8.49249e-12
0.0025
8.26014e-12
0.0025
8.03345e-12
0.0025
7.81344e-12
0.0025
7.59878e-12
0.0025
7.39023e-12
0.0025
7.18673e-12
0.0025
6.9888e-12
0.0025
6.79565e-12
0.0025
6.60757e-12
0.0025
6.42402e-12
0.0025
6.24508e-12
0.0025
6.07045e-12
0.0025
5.9e-12
0.0025
5.73366e-12
0.0025
5.57113e-12
0.0025
5.41252e-12
0.0025
5.25736e-12
0.0025
5.10597e-12
0.0025
4.95772e-12
0.0025
4.81311e-12
0.0025
4.67133e-12
0.0025
4.53307e-12
0.0025
4.39738e-12
0.0025
4.26509e-12
0.0025
4.13513e-12
0.0025
4.00848e-12
0.0025
3.88393e-12
0.0025
3.7626e-12
0.0025
3.64317e-12
0.0025
3.52688e-12
0.0025
3.4123e-12
0.0025
3.30078e-12
0.0025
3.19081e-12
0.0025
3.08383e-12
0.0025
2.97823e-12
0.0025
2.87555e-12
0.0025
2.77416e-12
0.0025
2.67562e-12
0.0025
2.57829e-12
0.0025
2.48368e-12
0.0025
2.3904e-12
0.0025
2.29928e-12
0.0025
2.21064e-12
0.0025
2.12155e-12
0.0025
2.04206e-12
0.0025
1.94609e-12
0.0025
1.90217e-12
0.0025
1.74408e-12
0.0025
1.88472e-12
1.43697e-12
0.00250263
-7.99151e-06
0.00251054
-2.40429e-05
0.00252406
-4.09639e-05
0.00254364
-5.90372e-05
0.00256973
-7.82243e-05
0.00260256
-9.7721e-05
0.00264184
-0.000116035
0.00268629
-0.000130253
0.00273345
-0.00013718
0.00277942
-0.000133131
0.00281947
-0.000115925
0.00284986
-8.80184e-05
0.00286778
-5.20761e-05
0.00287148
-1.12953e-05
0.00286103
2.93384e-05
0.00283825
6.49e-05
0.00280633
9.16408e-05
0.00276899
0.00010799
0.00272971
0.000114394
0.00269134
0.000112514
0.00265597
0.000104379
0.00262496
9.1934e-05
0.00259908
7.70123e-05
0.00257848
6.14681e-05
0.00256271
4.7146e-05
0.00255085
3.55386e-05
0.00254174
2.73474e-05
0.00253433
2.22987e-05
0.00252791
1.93956e-05
0.00252214
1.74571e-05
0.00251697
1.5611e-05
0.00251251
1.3494e-05
0.00250881
1.11504e-05
0.0025059
8.79627e-06
0.0025037
6.6298e-06
0.00250213
4.76059e-06
0.00250107
3.22561e-06
0.00250042
2.02619e-06
0.00250006
1.14663e-06
0.0024999
5.54352e-07
0.00249985
1.98005e-07
0.00249985
1.38758e-08
0.00249987
-6.12733e-08
0.0024999
-7.85132e-08
0.00249992
-7.15712e-08
0.00249994
-5.83367e-08
0.00249995
-4.59357e-08
0.00249997
-3.59794e-08
0.00249997
-2.81401e-08
0.00249998
-2.18484e-08
0.00249999
-1.67565e-08
0.00249999
-1.26884e-08
0.00249999
-9.51347e-09
0.00249999
-7.08959e-09
0.0025
-5.26577e-09
0.0025
-3.90294e-09
0.0025
-2.88698e-09
0.0025
-2.13041e-09
0.0025
-1.56777e-09
0.0025
-1.15018e-09
0.0025
-8.4085e-10
0.0025
-6.121e-10
0.0025
-4.43152e-10
0.0025
-3.18519e-10
0.0025
-2.26673e-10
0.0025
-1.59082e-10
0.0025
-1.09409e-10
0.0025
-7.29771e-11
0.0025
-4.63086e-11
0.0025
-2.68498e-11
0.0025
-1.26972e-11
0.0025
-2.46104e-12
0.0025
4.89966e-12
0.0025
1.01382e-11
0.0025
1.38242e-11
0.0025
1.63638e-11
0.0025
1.807e-11
0.0025
1.91597e-11
0.0025
1.98058e-11
0.0025
2.01228e-11
0.0025
2.02074e-11
0.0025
2.01187e-11
0.0025
1.99119e-11
0.0025
1.96163e-11
0.0025
1.92643e-11
0.0025
1.88692e-11
0.0025
1.84508e-11
0.0025
1.80138e-11
0.0025
1.75712e-11
0.0025
1.71233e-11
0.0025
1.66792e-11
0.0025
1.62368e-11
0.0025
1.58029e-11
0.0025
1.53745e-11
0.0025
1.4957e-11
0.0025
1.45468e-11
0.0025
1.41484e-11
0.0025
1.37582e-11
0.0025
1.338e-11
0.0025
1.30103e-11
0.0025
1.26524e-11
0.0025
1.23028e-11
0.0025
1.19646e-11
0.0025
1.16345e-11
0.0025
1.13151e-11
0.0025
1.10034e-11
0.0025
1.07017e-11
0.0025
1.04074e-11
0.0025
1.01224e-11
0.0025
9.84419e-12
0.0025
9.57468e-12
0.0025
9.31158e-12
0.0025
9.05646e-12
0.0025
8.80735e-12
0.0025
8.56561e-12
0.0025
8.32946e-12
0.0025
8.10008e-12
0.0025
7.87595e-12
0.0025
7.65805e-12
0.0025
7.44505e-12
0.0025
7.23779e-12
0.0025
7.03514e-12
0.0025
6.83776e-12
0.0025
6.64473e-12
0.0025
6.45655e-12
0.0025
6.27247e-12
0.0025
6.09287e-12
0.0025
5.91717e-12
0.0025
5.7456e-12
0.0025
5.57774e-12
0.0025
5.41369e-12
0.0025
5.25319e-12
0.0025
5.09622e-12
0.0025
4.94264e-12
0.0025
4.79233e-12
0.0025
4.64527e-12
0.0025
4.50126e-12
0.0025
4.36037e-12
0.0025
4.22231e-12
0.0025
4.08726e-12
0.0025
3.95484e-12
0.0025
3.82534e-12
0.0025
3.69829e-12
0.0025
3.57406e-12
0.0025
3.45211e-12
0.0025
3.33289e-12
0.0025
3.21586e-12
0.0025
3.10144e-12
0.0025
2.98918e-12
0.0025
2.87936e-12
0.0025
2.77193e-12
0.0025
2.66619e-12
0.0025
2.5645e-12
0.0025
2.46098e-12
0.0025
2.37053e-12
0.0025
2.25885e-12
0.0025
2.20792e-12
0.0025
2.03126e-12
0.0025
2.16138e-12
1.70071e-12
0.00250256
-1.05488e-05
0.00251027
-3.17561e-05
0.00252353
-5.42194e-05
0.00254288
-7.83908e-05
0.00256896
-0.000104303
0.00260219
-0.000130956
0.00264256
-0.000156398
0.00268887
-0.000176569
0.00273869
-0.000186996
0.00278765
-0.000182089
0.0028303
-0.000158584
0.00286264
-0.000120358
0.00288162
-7.10498e-05
0.00288522
-1.48973e-05
0.00287349
4.10676e-05
0.00284854
8.98537e-05
0.00281402
0.000126153
0.00277415
0.000147866
0.00273274
0.000155804
0.00269278
0.00015247
0.00265635
0.00014081
0.00262472
0.000123564
0.00259852
0.00010322
0.00257776
8.22258e-05
0.00256192
6.29839e-05
0.00255003
4.74266e-05
0.00254093
3.64503e-05
0.00253355
2.96744e-05
0.00252718
2.57699e-05
0.00252147
2.31675e-05
0.00251637
2.07063e-05
0.00251197
1.78974e-05
0.00250833
1.47899e-05
0.00250546
1.16625e-05
0.00250332
8.77458e-06
0.00250181
6.27398e-06
0.00250082
4.21653e-06
0.00250023
2.61157e-06
0.00249993
1.44282e-06
0.00249982
6.66748e-07
0.00249981
2.10989e-07
0.00249984
-1.46028e-08
0.00249987
-9.84342e-08
0.00249991
-1.10414e-07
0.00249993
-9.52199e-08
0.00249995
-7.52522e-08
0.00249996
-5.83834e-08
0.00249997
-4.55499e-08
0.00249998
-3.56616e-08
0.00249998
-2.7727e-08
0.00249999
-2.12633e-08
0.00249999
-1.60785e-08
0.00249999
-1.20341e-08
0.00249999
-8.95624e-09
0.0025
-6.64857e-09
0.0025
-4.92829e-09
0.0025
-3.64712e-09
0.0025
-2.69316e-09
0.0025
-1.98366e-09
0.0025
-1.45707e-09
0.0025
-1.06705e-09
0.0025
-7.78655e-10
0.0025
-5.65661e-10
0.0025
-4.08516e-10
0.0025
-2.92685e-10
0.0025
-2.07415e-10
0.0025
-1.4472e-10
0.0025
-9.87068e-11
0.0025
-6.49968e-11
0.0025
-4.03686e-11
0.0025
-2.24266e-11
0.0025
-9.41692e-12
0.0025
-3.02904e-14
0.0025
6.68493e-12
0.0025
1.14439e-11
0.0025
1.4761e-11
0.0025
1.70279e-11
0.0025
1.85202e-11
0.0025
1.94532e-11
0.0025
1.99734e-11
0.0025
2.01999e-11
0.0025
2.02093e-11
0.0025
2.00686e-11
0.0025
1.98165e-11
0.0025
1.94916e-11
0.0025
1.91123e-11
0.0025
1.87015e-11
0.0025
1.82667e-11
0.0025
1.78224e-11
0.0025
1.73705e-11
0.0025
1.69206e-11
0.0025
1.64716e-11
0.0025
1.60305e-11
0.0025
1.55947e-11
0.0025
1.51697e-11
0.0025
1.47523e-11
0.0025
1.43468e-11
0.0025
1.39498e-11
0.0025
1.3565e-11
0.0025
1.3189e-11
0.0025
1.28251e-11
0.0025
1.24698e-11
0.0025
1.21261e-11
0.0025
1.17907e-11
0.0025
1.14664e-11
0.0025
1.11499e-11
0.0025
1.08437e-11
0.0025
1.05449e-11
0.0025
1.02557e-11
0.0025
9.97347e-12
0.0025
9.70014e-12
0.0025
9.43324e-12
0.0025
9.1746e-12
0.0025
8.92195e-12
0.0025
8.67693e-12
0.0025
8.43747e-12
0.0025
8.20506e-12
0.0025
7.9778e-12
0.0025
7.75707e-12
0.0025
7.54113e-12
0.0025
7.33122e-12
0.0025
7.12577e-12
0.0025
6.92591e-12
0.0025
6.73023e-12
0.0025
6.53971e-12
0.0025
6.35312e-12
0.0025
6.17132e-12
0.0025
5.99322e-12
0.0025
5.81956e-12
0.0025
5.64941e-12
0.0025
5.4834e-12
0.0025
5.32071e-12
0.0025
5.16188e-12
0.0025
5.0062e-12
0.0025
4.85414e-12
0.0025
4.70508e-12
0.0025
4.55942e-12
0.0025
4.41661e-12
0.0025
4.27699e-12
0.0025
4.14012e-12
0.0025
4.00624e-12
0.0025
3.875e-12
0.0025
3.7466e-12
0.0025
3.62072e-12
0.0025
3.49752e-12
0.0025
3.37676e-12
0.0025
3.25858e-12
0.0025
3.14274e-12
0.0025
3.02949e-12
0.0025
2.91835e-12
0.0025
2.81017e-12
0.0025
2.70323e-12
0.0025
2.60119e-12
0.0025
2.49645e-12
0.0025
2.40625e-12
0.0025
2.29368e-12
0.0025
2.24063e-12
0.0025
2.0715e-12
0.0025
2.16548e-12
1.76234e-12
0.00250246
-1.30043e-05
0.00250988
-3.91792e-05
0.00252274
-6.70767e-05
0.00254173
-9.73838e-05
0.00256771
-0.000130282
0.00260141
-0.000164659
0.00264317
-0.000198152
0.00269201
-0.000225415
0.00274553
-0.000240513
0.00279866
-0.000235225
0.00284494
-0.000204855
0.00287997
-0.000155392
0.0029004
-9.14778e-05
0.00290383
-1.83274e-05
0.00289029
5.46045e-05
0.00286229
0.000117851
0.00282419
0.000164255
0.00278086
0.000191201
0.00273657
0.000200086
0.00269452
0.000194528
0.00265672
0.000178607
0.0026243
0.000155979
0.0025977
0.000129826
0.00257676
0.000103164
0.00256084
7.88986e-05
0.00254892
5.93461e-05
0.00253982
4.55577e-05
0.00253246
3.70276e-05
0.00252614
3.20937e-05
0.0025205
2.88057e-05
0.00251549
2.57194e-05
0.00251117
2.22195e-05
0.0025076
1.83539e-05
0.00250481
1.44559e-05
0.00250274
1.08418e-05
0.00250132
7.6991e-06
0.00250042
5.10869e-06
0.00249994
3.09469e-06
0.00249974
1.64383e-06
0.00249971
7.00618e-07
0.00249975
1.67105e-07
0.00249981
-7.87047e-08
0.00249987
-1.54326e-07
0.00249991
-1.4997e-07
0.00249994
-1.20638e-07
0.00249995
-9.15807e-08
0.00249996
-6.97313e-08
0.00249997
-5.41818e-08
0.00249998
-4.24986e-08
0.00249998
-3.30926e-08
0.00249999
-2.53537e-08
0.00249999
-1.91182e-08
0.00249999
-1.42652e-08
0.0025
-1.05933e-08
0.0025
-7.85571e-09
0.0025
-5.82211e-09
0.0025
-4.30959e-09
0.0025
-3.18351e-09
0.0025
-2.34596e-09
0.0025
-1.72444e-09
0.0025
-1.26428e-09
0.0025
-9.24146e-10
0.0025
-6.72988e-10
0.0025
-4.8769e-10
0.0025
-3.51097e-10
0.0025
-2.50523e-10
0.0025
-1.76559e-10
0.0025
-1.22253e-10
0.0025
-8.24454e-11
0.0025
-5.33381e-11
0.0025
-3.21085e-11
0.0025
-1.66882e-11
0.0025
-5.53557e-12
0.0025
2.47219e-12
0.0025
8.17601e-12
0.0025
1.21833e-11
0.0025
1.49544e-11
0.0025
1.6815e-11
0.0025
1.80174e-11
0.0025
1.87348e-11
0.0025
1.91067e-11
0.0025
1.92235e-11
0.0025
1.91633e-11
0.0025
1.8972e-11
0.0025
1.86942e-11
0.0025
1.83518e-11
0.0025
1.79711e-11
0.0025
1.75614e-11
0.0025
1.71389e-11
0.0025
1.67062e-11
0.0025
1.6274e-11
0.0025
1.58413e-11
0.0025
1.54159e-11
0.0025
1.49951e-11
0.0025
1.45848e-11
0.0025
1.41815e-11
0.0025
1.37901e-11
0.0025
1.34067e-11
0.0025
1.30355e-11
0.0025
1.26727e-11
0.0025
1.23218e-11
0.0025
1.19793e-11
0.0025
1.16482e-11
0.0025
1.13251e-11
0.0025
1.10128e-11
0.0025
1.0708e-11
0.0025
1.04135e-11
0.0025
1.01259e-11
0.0025
9.8479e-12
0.0025
9.57637e-12
0.0025
9.31367e-12
0.0025
9.05702e-12
0.0025
8.80853e-12
0.0025
8.56565e-12
0.0025
8.3303e-12
0.0025
8.10016e-12
0.0025
7.87698e-12
0.0025
7.65861e-12
0.0025
7.44669e-12
0.0025
7.23924e-12
0.0025
7.03773e-12
0.0025
6.84039e-12
0.0025
6.64855e-12
0.0025
6.46062e-12
0.0025
6.27777e-12
0.0025
6.09858e-12
0.0025
5.92411e-12
0.0025
5.75309e-12
0.0025
5.58646e-12
0.0025
5.42308e-12
0.0025
5.2638e-12
0.0025
5.1076e-12
0.0025
4.95522e-12
0.0025
4.80577e-12
0.0025
4.6599e-12
0.0025
4.51682e-12
0.0025
4.37708e-12
0.0025
4.24003e-12
0.0025
4.10612e-12
0.0025
3.97477e-12
0.0025
3.84639e-12
0.0025
3.72048e-12
0.0025
3.59739e-12
0.0025
3.47666e-12
0.0025
3.35861e-12
0.0025
3.24284e-12
0.0025
3.12966e-12
0.0025
3.01868e-12
0.0025
2.91032e-12
0.0025
2.80394e-12
0.0025
2.70062e-12
0.0025
2.59835e-12
0.0025
2.50118e-12
0.0025
2.40111e-12
0.0025
2.31547e-12
0.0025
2.20878e-12
0.0025
2.1553e-12
0.0025
2.00365e-12
0.0025
2.05975e-12
1.72979e-12
0.00250232
-1.53199e-05
0.00250934
-4.62009e-05
0.00252163
-7.93659e-05
0.00254006
-0.000115822
0.00256579
-0.000156004
0.00259994
-0.000198812
0.00264335
-0.000241563
0.00269541
-0.000277472
0.00275382
-0.000298929
0.00281252
-0.000293927
0.00286354
-0.000255873
0.00290213
-0.000193985
0.00292455
-0.000113893
0.00292781
-2.15862e-05
0.00291187
7.05445e-05
0.00287977
0.000149948
0.00283686
0.000207171
0.00278894
0.000239118
0.00274093
0.000248099
0.00269621
0.000239247
0.00265675
0.000218066
0.00262343
0.000189293
0.00259642
0.000156838
0.00257534
0.000124246
0.00255939
9.48468e-05
0.00254747
7.12632e-05
0.00253838
5.46467e-05
0.00253107
4.43408e-05
0.00252482
3.83497e-05
0.00251927
3.43524e-05
0.00251436
3.06305e-05
0.00251014
2.64422e-05
0.00250666
2.18259e-05
0.00250396
1.71595e-05
0.00250199
1.28107e-05
0.00250068
9.00939e-06
0.00249992
5.8703e-06
0.00249957
3.44186e-06
0.0024995
1.71877e-06
0.00249957
6.31651e-07
0.00249968
5.02291e-08
0.00249979
-1.8708e-07
0.00249987
-2.32267e-07
0.00249992
-1.97582e-07
0.00249994
-1.47161e-07
0.00249996
-1.06615e-07
0.00249997
-7.95695e-08
0.00249998
-6.17309e-08
0.00249998
-4.86373e-08
0.00249999
-3.79592e-08
0.00249999
-2.90277e-08
0.00249999
-2.17922e-08
0.00249999
-1.61867e-08
0.0025
-1.19832e-08
0.0025
-8.87449e-09
0.0025
-6.57566e-09
0.0025
-4.86811e-09
0.0025
-3.5966e-09
0.0025
-2.65071e-09
0.0025
-1.94902e-09
0.0025
-1.42982e-09
0.0025
-1.04627e-09
0.0025
-7.63156e-10
0.0025
-5.54308e-10
0.0025
-4.00359e-10
0.0025
-2.87002e-10
0.0025
-2.0363e-10
0.0025
-1.42406e-10
0.0025
-9.75152e-11
0.0025
-6.46748e-11
0.0025
-4.07064e-11
0.0025
-2.32776e-11
0.0025
-1.06539e-11
0.0025
-1.56752e-12
0.0025
4.925e-12
0.0025
9.51074e-12
0.0025
1.27058e-11
0.0025
1.48785e-11
0.0025
1.6311e-11
0.0025
1.71998e-11
0.0025
1.76999e-11
0.0025
1.79145e-11
0.0025
1.79296e-11
0.0025
1.77982e-11
0.0025
1.75686e-11
0.0025
1.72668e-11
0.0025
1.69208e-11
0.0025
1.6542e-11
0.0025
1.61474e-11
0.0025
1.57408e-11
0.0025
1.53331e-11
0.0025
1.49242e-11
0.0025
1.45215e-11
0.0025
1.41231e-11
0.0025
1.37344e-11
0.0025
1.33525e-11
0.0025
1.29819e-11
0.0025
1.26191e-11
0.0025
1.2268e-11
0.0025
1.1925e-11
0.0025
1.15934e-11
0.0025
1.12699e-11
0.0025
1.09573e-11
0.0025
1.06524e-11
0.0025
1.03579e-11
0.0025
1.00705e-11
0.0025
9.79286e-12
0.0025
9.5219e-12
0.0025
9.25997e-12
0.0025
9.00425e-12
0.0025
8.75689e-12
0.0025
8.51528e-12
0.0025
8.2814e-12
0.0025
8.05282e-12
0.0025
7.8314e-12
0.0025
7.61487e-12
0.0025
7.40494e-12
0.0025
7.19954e-12
0.0025
7.00025e-12
0.0025
6.80515e-12
0.0025
6.61569e-12
0.0025
6.43011e-12
0.0025
6.24978e-12
0.0025
6.07306e-12
0.0025
5.9012e-12
0.0025
5.73272e-12
0.0025
5.56876e-12
0.0025
5.40797e-12
0.0025
5.2514e-12
0.0025
5.0978e-12
0.0025
4.94813e-12
0.0025
4.80129e-12
0.0025
4.65813e-12
0.0025
4.51764e-12
0.0025
4.38061e-12
0.0025
4.24611e-12
0.0025
4.11487e-12
0.0025
3.98605e-12
0.0025
3.8603e-12
0.0025
3.73687e-12
0.0025
3.61634e-12
0.0025
3.49805e-12
0.0025
3.38252e-12
0.0025
3.26913e-12
0.0025
3.15839e-12
0.0025
3.04972e-12
0.0025
2.94362e-12
0.0025
2.83951e-12
0.0025
2.73805e-12
0.0025
2.63837e-12
0.0025
2.5418e-12
0.0025
2.44608e-12
0.0025
2.35549e-12
0.0025
2.26201e-12
0.0025
2.18216e-12
0.0025
2.08368e-12
0.0025
2.03055e-12
0.0025
1.89809e-12
0.0025
1.92428e-12
1.65943e-12
0.00250213
-1.74491e-05
0.00250861
-5.26845e-05
0.00252012
-9.08697e-05
0.00253773
-0.000133436
0.00256293
-0.000181207
0.00259741
-0.000233287
0.00264266
-0.000286816
0.00269864
-0.000333447
0.00276336
-0.000363652
0.00282927
-0.000359841
0.0028863
-0.000312903
0.00292939
-0.000237071
0.00295432
-0.000138826
0.00295732
-2.45788e-05
0.00293824
8.96175e-05
0.00290087
0.000187319
0.00285185
0.000256195
0.00279821
0.000292751
0.00274564
0.000300673
0.00269776
0.000287131
0.00265639
0.000259431
0.00262211
0.000223574
0.00259472
0.000184234
0.00257354
0.00014542
0.00255761
0.000110784
0.00254572
8.31527e-05
0.00253666
6.37065e-05
0.00252939
5.1607e-05
0.00252321
4.45266e-05
0.00251778
3.97902e-05
0.00251299
3.54191e-05
0.00250888
3.0546e-05
0.00250552
2.51892e-05
0.00250292
1.97572e-05
0.00250107
1.46618e-05
0.0024999
1.01788e-05
0.0024993
6.4689e-06
0.00249913
3.61812e-06
0.00249921
1.63565e-06
0.00249941
4.35367e-07
0.00249961
-1.54802e-07
0.00249977
-3.46628e-07
0.00249987
-3.33617e-07
0.00249993
-2.51981e-07
0.00249995
-1.72992e-07
0.00249996
-1.19035e-07
0.00249997
-8.72341e-08
0.00249998
-6.79842e-08
0.00249998
-5.4057e-08
0.00249999
-4.23373e-08
0.00249999
-3.22731e-08
0.00249999
-2.4068e-08
0.0025
-1.77629e-08
0.0025
-1.30975e-08
0.0025
-9.68532e-09
0.0025
-7.17594e-09
0.0025
-5.31355e-09
0.0025
-3.92552e-09
0.0025
-2.8925e-09
0.0025
-2.12656e-09
0.0025
-1.56039e-09
0.0025
-1.14251e-09
0.0025
-8.34205e-10
0.0025
-6.06825e-10
0.0025
-4.39233e-10
0.0025
-3.15838e-10
0.0025
-2.25092e-10
0.0025
-1.58453e-10
0.0025
-1.09591e-10
0.0025
-7.38376e-11
0.0025
-4.77355e-11
0.0025
-2.8744e-11
0.0025
-1.49769e-11
0.0025
-5.05444e-12
0.0025
2.05095e-12
0.0025
7.08489e-12
0.0025
1.06092e-11
0.0025
1.30248e-11
0.0025
1.46374e-11
0.0025
1.56613e-11
0.0025
1.62638e-11
0.0025
1.65578e-11
0.0025
1.66356e-11
0.0025
1.65552e-11
0.0025
1.63683e-11
0.0025
1.61035e-11
0.0025
1.57902e-11
0.0025
1.54416e-11
0.0025
1.50749e-11
0.0025
1.46951e-11
0.0025
1.4313e-11
0.0025
1.3929e-11
0.0025
1.35507e-11
0.0025
1.31761e-11
0.0025
1.28109e-11
0.0025
1.24521e-11
0.0025
1.21042e-11
0.0025
1.17638e-11
0.0025
1.14345e-11
0.0025
1.11131e-11
0.0025
1.08026e-11
0.0025
1.04998e-11
0.0025
1.02074e-11
0.0025
9.92231e-12
0.0025
9.64709e-12
0.0025
9.37866e-12
0.0025
9.11945e-12
0.0025
8.86653e-12
0.0025
8.62217e-12
0.0025
8.38361e-12
0.0025
8.15297e-12
0.0025
7.92769e-12
0.0025
7.70973e-12
0.0025
7.49669e-12
0.0025
7.2904e-12
0.0025
7.08865e-12
0.0025
6.89313e-12
0.0025
6.7018e-12
0.0025
6.51623e-12
0.0025
6.33453e-12
0.0025
6.15815e-12
0.0025
5.98536e-12
0.0025
5.81749e-12
0.0025
5.65296e-12
0.0025
5.493e-12
0.0025
5.33616e-12
0.0025
5.18357e-12
0.0025
5.0339e-12
0.0025
4.88819e-12
0.0025
4.74522e-12
0.0025
4.60596e-12
0.0025
4.46929e-12
0.0025
4.33609e-12
0.0025
4.20534e-12
0.0025
4.07785e-12
0.0025
3.95269e-12
0.0025
3.83061e-12
0.0025
3.71075e-12
0.0025
3.5938e-12
0.0025
3.47897e-12
0.0025
3.36691e-12
0.0025
3.25689e-12
0.0025
3.1495e-12
0.0025
3.04409e-12
0.0025
2.94121e-12
0.0025
2.84024e-12
0.0025
2.74175e-12
0.0025
2.6451e-12
0.0025
2.55103e-12
0.0025
2.4586e-12
0.0025
2.36923e-12
0.0025
2.28063e-12
0.0025
2.19695e-12
0.0025
2.11067e-12
0.0025
2.03674e-12
0.0025
1.9471e-12
0.0025
1.89494e-12
0.0025
1.78046e-12
0.0025
1.78572e-12
1.57315e-12
0.00250189
-1.93365e-05
0.00250767
-5.8465e-05
0.00251811
-0.000101316
0.00253455
-0.000149869
0.00255884
-0.000205498
0.00259335
-0.000267804
0.00264051
-0.00033397
0.00270112
-0.000394063
0.00277387
-0.000436394
0.002849
-0.000434973
0.0029135
-0.000377407
0.00296224
-0.000285809
0.00299053
-0.000167118
0.00299332
-2.73637e-05
0.0029702
0.000112732
0.00292594
0.000231583
0.00286903
0.000313104
0.0028082
0.000353583
0.00275008
0.000358796
0.00269851
0.000338694
0.00265508
0.000302861
0.00261989
0.000258768
0.00259226
0.000211865
0.00257115
0.000166525
0.00255535
0.00012658
0.00254358
9.49264e-05
0.0025346
7.26833e-05
0.00252742
5.87922e-05
0.00252135
5.05976e-05
0.00251604
4.50944e-05
0.0025114
4.00634e-05
0.00250743
3.45146e-05
0.00250419
2.84328e-05
0.00250171
2.22391e-05
0.00249999
1.63797e-05
0.00249898
1.11819e-05
0.00249858
6.86961e-06
0.00249862
3.58457e-06
0.00249889
1.35921e-06
0.00249924
8.61991e-08
0.00249955
-4.61866e-07
0.00249976
-5.61379e-07
0.00249989
-4.56451e-07
0.00249994
-3.09137e-07
0.00249997
-1.94494e-07
0.00249997
-1.26548e-07
0.00249998
-9.16726e-08
0.00249998
-7.26217e-08
0.00249999
-5.87162e-08
0.00249999
-4.62205e-08
0.00249999
-3.50489e-08
0.0025
-2.58836e-08
0.0025
-1.89359e-08
0.0025
-1.38949e-08
0.0025
-1.02627e-08
0.0025
-7.6075e-09
0.0025
-5.63573e-09
0.0025
-4.16285e-09
0.0025
-3.06568e-09
0.0025
-2.25282e-09
0.0025
-1.65285e-09
0.0025
-1.21055e-09
0.0025
-8.84428e-10
0.0025
-6.43965e-10
0.0025
-4.66752e-10
0.0025
-3.36295e-10
0.0025
-2.40375e-10
0.0025
-1.6995e-10
0.0025
-1.18319e-10
0.0025
-8.05417e-11
0.0025
-5.29616e-11
0.0025
-3.28911e-11
0.0025
-1.83374e-11
0.0025
-7.84117e-12
0.0025
-3.16551e-13
0.0025
5.02338e-12
0.0025
8.77229e-12
0.0025
1.13543e-11
0.0025
1.30907e-11
0.0025
1.42087e-11
0.0025
1.48836e-11
0.0025
1.52353e-11
0.0025
1.53598e-11
0.0025
1.53192e-11
0.0025
1.51666e-11
0.0025
1.49331e-11
0.0025
1.46485e-11
0.0025
1.43272e-11
0.0025
1.39865e-11
0.0025
1.36323e-11
0.0025
1.3275e-11
0.0025
1.29157e-11
0.0025
1.25615e-11
0.0025
1.22111e-11
0.0025
1.18693e-11
0.0025
1.15341e-11
0.0025
1.1209e-11
0.0025
1.08914e-11
0.0025
1.05844e-11
0.0025
1.0285e-11
0.0025
9.99595e-12
0.0025
9.71432e-12
0.0025
9.44252e-12
0.0025
9.17774e-12
0.0025
8.92218e-12
0.0025
8.67314e-12
0.0025
8.43269e-12
0.0025
8.19826e-12
0.0025
7.97177e-12
0.0025
7.75081e-12
0.0025
7.53718e-12
0.0025
7.32863e-12
0.0025
7.12685e-12
0.0025
6.92972e-12
0.0025
6.73884e-12
0.0025
6.55223e-12
0.0025
6.37137e-12
0.0025
6.19444e-12
0.0025
6.02283e-12
0.0025
5.85483e-12
0.0025
5.69177e-12
0.0025
5.53203e-12
0.0025
5.37686e-12
0.0025
5.22477e-12
0.0025
5.07693e-12
0.0025
4.93197e-12
0.0025
4.79097e-12
0.0025
4.65263e-12
0.0025
4.51799e-12
0.0025
4.38586e-12
0.0025
4.25719e-12
0.0025
4.13089e-12
0.0025
4.00783e-12
0.0025
3.88701e-12
0.0025
3.76924e-12
0.0025
3.65359e-12
0.0025
3.54084e-12
0.0025
3.4301e-12
0.0025
3.32211e-12
0.0025
3.21604e-12
0.0025
3.11259e-12
0.0025
3.011e-12
0.0025
2.91191e-12
0.0025
2.81461e-12
0.0025
2.71973e-12
0.0025
2.62659e-12
0.0025
2.53585e-12
0.0025
2.44678e-12
0.0025
2.36022e-12
0.0025
2.27515e-12
0.0025
2.19308e-12
0.0025
2.11171e-12
0.0025
2.03499e-12
0.0025
1.95605e-12
0.0025
1.88806e-12
0.0025
1.80723e-12
0.0025
1.75688e-12
0.0025
1.65843e-12
0.0025
1.65029e-12
1.47875e-12
0.00250158
-2.09169e-05
0.00250646
-6.33466e-05
0.00251551
-0.000110368
0.0025303
-0.000164649
0.00255311
-0.000228313
0.00258718
-0.000301869
0.00263608
-0.000382875
0.00270205
-0.000460037
0.00278495
-0.000519289
0.00287178
-0.000521801
0.00294537
-0.000450996
0.00300095
-0.00034139
0.00303336
-0.000199531
0.00303585
-2.98543e-05
0.00300769
0.000140897
0.00295485
0.000284424
0.00288824
0.000379713
0.00281871
0.000423108
0.00275407
0.000423437
0.00269835
0.000394409
0.00265275
0.000348464
0.00261674
0.000294777
0.00258905
0.000239554
0.00256819
0.000187389
0.00255266
0.000142106
0.00254108
0.000106509
0.00253223
8.15391e-05
0.00252514
6.58746e-05
0.0025192
5.65419e-05
0.00251405
5.02406e-05
0.00250958
4.45392e-05
0.00250576
3.83294e-05
0.00250265
3.15449e-05
0.00250029
2.45953e-05
0.00249873
1.79484e-05
0.00249792
1.19905e-05
0.00249775
7.03235e-06
0.00249804
3.29621e-06
0.00249855
8.4926e-07
0.00249908
-4.43836e-07
0.00249951
-8.84505e-07
0.00249978
-8.33204e-07
0.00249992
-5.96188e-07
0.00249997
-3.62866e-07
0.00249998
-2.06791e-07
0.00249998
-1.26431e-07
0.00249998
-9.18736e-08
0.00249999
-7.55233e-08
0.00249999
-6.27499e-08
0.00249999
-4.97007e-08
0.0025
-3.73519e-08
0.0025
-2.71863e-08
0.0025
-1.96518e-08
0.0025
-1.43395e-08
0.0025
-1.05877e-08
0.0025
-7.86076e-09
0.0025
-5.8287e-09
0.0025
-4.30386e-09
0.0025
-3.16631e-09
0.0025
-2.32468e-09
0.0025
-1.70489e-09
0.0025
-1.24872e-09
0.0025
-9.12628e-10
0.0025
-6.64847e-10
0.0025
-4.8226e-10
0.0025
-3.47879e-10
0.0025
-2.49109e-10
0.0025
-1.76618e-10
0.0025
-1.2349e-10
0.0025
-8.46276e-11
0.0025
-5.62621e-11
0.0025
-3.56235e-11
0.0025
-2.06599e-11
0.0025
-9.86752e-12
0.0025
-2.12812e-12
0.0025
3.36728e-12
0.0025
7.23016e-12
0.0025
9.89714e-12
0.0025
1.16977e-11
0.0025
1.28661e-11
0.0025
1.35814e-11
0.0025
1.39673e-11
0.0025
1.41215e-11
0.0025
1.41083e-11
0.0025
1.39812e-11
0.0025
1.37724e-11
0.0025
1.35117e-11
0.0025
1.32144e-11
0.0025
1.28974e-11
0.0025
1.25671e-11
0.0025
1.22335e-11
0.0025
1.18981e-11
0.0025
1.15675e-11
0.0025
1.12408e-11
0.0025
1.09225e-11
0.0025
1.06107e-11
0.0025
1.03086e-11
0.0025
1.00138e-11
0.0025
9.72909e-12
0.0025
9.45181e-12
0.0025
9.18432e-12
0.0025
8.92398e-12
0.0025
8.67291e-12
0.0025
8.42855e-12
0.0025
8.19283e-12
0.0025
7.9633e-12
0.0025
7.74177e-12
0.0025
7.52592e-12
0.0025
7.31747e-12
0.0025
7.11421e-12
0.0025
6.91775e-12
0.0025
6.72603e-12
0.0025
6.54058e-12
0.0025
6.35945e-12
0.0025
6.1841e-12
0.0025
6.01271e-12
0.0025
5.84664e-12
0.0025
5.68418e-12
0.0025
5.52663e-12
0.0025
5.37242e-12
0.0025
5.22276e-12
0.0025
5.07616e-12
0.0025
4.93376e-12
0.0025
4.7942e-12
0.0025
4.65856e-12
0.0025
4.52555e-12
0.0025
4.39618e-12
0.0025
4.26926e-12
0.0025
4.14575e-12
0.0025
4.02453e-12
0.0025
3.90651e-12
0.0025
3.79064e-12
0.0025
3.67777e-12
0.0025
3.56694e-12
0.0025
3.45894e-12
0.0025
3.35286e-12
0.0025
3.24948e-12
0.0025
3.14792e-12
0.0025
3.04891e-12
0.0025
2.95166e-12
0.0025
2.85685e-12
0.0025
2.76374e-12
0.0025
2.67296e-12
0.0025
2.58383e-12
0.0025
2.49698e-12
0.0025
2.41172e-12
0.0025
2.32872e-12
0.0025
2.24728e-12
0.0025
2.16822e-12
0.0025
2.09058e-12
0.0025
2.01576e-12
0.0025
1.94167e-12
0.0025
1.87188e-12
0.0025