/*--------------------------------*- C++ -*----------------------------------*\
  =========                 |
  \\      /  F ield         | OpenFOAM: The Open Source CFD Toolbox
   \\    /   O peration     | Website:  https://openfoam.org
    \\  /    A nd           | Version:  11
     \\/     M anipulation  |
\*---------------------------------------------------------------------------*/
FoamFile
{
    format      ascii;
    class       volVectorField;
    location    "1.292902";
    object      vorticity;
}
// * * * * * * * * * * * * * * * * * * * * * * * * * * * * * * * * * * * * * //

dimensions      [0 0 -1 0 0 0 0];

internalField   nonuniform List<vector> 
7132
(
(-4.27158e-17 -1.83438e-15 -0.01079)
(-1.50443e-16 -1.79582e-15 -0.0107535)
(-1.49764e-16 -2.03827e-17 -0.0107291)
(-1.7729e-16 -1.77754e-15 -0.010724)
(-2.21799e-16 -1.76678e-15 -0.0107413)
(-2.19576e-16 -7.84356e-19 -0.0107815)
(-2.02318e-16 9.90556e-18 -0.0108439)
(-1.8298e-16 9.9781e-18 -0.010922)
(-1.29206e-16 8.93456e-18 -0.011008)
(-1.19548e-16 1.03046e-17 -0.0110881)
(-1.14777e-16 8.66868e-18 -0.011144)
(3.67744e-18 6.39847e-18 -0.0111746)
(-5.18067e-18 -3.36702e-18 -0.0111685)
(-5.39143e-17 6.45991e-17 -0.0111204)
(5.74345e-17 -3.33559e-15 -0.0110226)
(1.88072e-16 -1.61495e-15 -0.0108635)
(3.39957e-16 -1.67894e-15 -0.0106462)
(3.54366e-16 4.21914e-17 -0.0104108)
(3.98658e-16 -1.65499e-15 -0.0102435)
(3.60732e-16 -1.72081e-15 -0.0102356)
(2.20148e-16 -4.8714e-17 -0.0103865)
(1.61183e-16 -4.81341e-17 -0.0105104)
(1.95378e-16 -4.1624e-17 -0.0102551)
(2.49048e-16 -5.67426e-17 -0.00928148)
(2.15128e-16 1.68162e-15 -0.00751112)
(1.50724e-16 -3.15641e-17 -0.00525043)
(4.46034e-17 -1.81729e-17 -0.00306926)
(-2.60955e-17 2.53653e-18 -0.00150189)
(-4.36382e-17 1.48896e-17 -0.000779222)
(-1.51609e-17 1.75798e-15 -0.000765039)
(1.21476e-17 1.76411e-15 -0.00110372)
(-4.24857e-18 1.75306e-15 -0.00144436)
(-1.16826e-17 -1.26692e-17 -0.00159112)
(-4.62471e-17 1.70246e-15 -0.00152117)
(-5.19328e-17 1.6999e-15 -0.001312)
(-3.19669e-17 1.70792e-15 -0.00105648)
(-3.04844e-17 1.71981e-15 -0.000815738)
(-2.04957e-17 -1.62063e-17 -0.000614021)
(-2.97233e-17 1.72434e-15 -0.000453644)
(-2.27374e-17 1.73554e-15 -0.000329574)
(-7.70538e-18 1.74652e-15 -0.000236125)
(-1.55437e-17 1.75253e-15 -0.000167961)
(-1.13675e-17 6.13591e-18 -0.000119661)
(-2.04197e-17 1.73558e-15 -8.59106e-05)
(-1.02765e-17 1.73704e-15 -6.21667e-05)
(6.43371e-18 1.74132e-15 -4.51135e-05)
(-2.22115e-18 1.74429e-15 -3.26154e-05)
(-1.50218e-18 -3.08557e-18 -2.33681e-05)
(-1.12541e-17 1.7315e-15 -1.6535e-05)
(-1.82716e-17 1.75046e-15 -1.15166e-05)
(1.66013e-17 1.65481e-17 -7.85087e-06)
(2.56651e-17 -1.73672e-15 -5.17962e-06)
(1.34628e-17 -7.27295e-18 -3.23391e-06)
(1.28846e-17 -3.12111e-18 -1.81724e-06)
(-3.70359e-18 3.50871e-18 -7.87934e-07)
(1.61453e-17 6.88599e-18 -4.3174e-08)
(2.17537e-17 -1.73918e-15 4.92124e-07)
(8.76731e-18 -7.74645e-18 8.7343e-07)
(8.07211e-18 -2.94661e-18 1.14152e-06)
(-8.48392e-18 4.06349e-18 1.32662e-06)
(1.21762e-17 6.57533e-18 1.4508e-06)
(1.58798e-17 -1.73556e-15 1.53047e-06)
(1.50388e-17 4.62714e-18 1.57754e-06)
(1.54868e-17 -1.73321e-15 1.60092e-06)
(8.93911e-18 -1.74201e-15 1.60702e-06)
(3.31929e-17 -2.82628e-18 1.60068e-06)
(1.24963e-17 -1.73734e-15 1.58535e-06)
(6.91891e-18 4.56429e-18 1.56365e-06)
(7.23268e-18 -1.73331e-15 1.53743e-06)
(1.40292e-18 -1.74266e-15 1.50812e-06)
(2.62935e-17 -4.02468e-18 1.47669e-06)
(5.97198e-18 -1.73871e-15 1.44396e-06)
(5.82549e-19 3.58479e-18 1.41041e-06)
(1.0741e-18 -1.73342e-15 1.37651e-06)
(-4.40646e-18 -1.74172e-15 1.34251e-06)
(2.11066e-17 -2.21814e-18 1.30867e-06)
(1.66029e-18 -1.73648e-15 1.27511e-06)
(-2.72797e-18 5.74738e-18 1.24199e-06)
(-1.28038e-18 -1.73169e-15 1.20937e-06)
(-5.99805e-18 -1.74061e-15 1.17733e-06)
(1.99996e-17 -1.75806e-18 1.14589e-06)
(7.42302e-19 -1.73658e-15 1.11512e-06)
(-3.71503e-18 5.25345e-18 1.08501e-06)
(-2.51308e-18 -1.73232e-15 1.05559e-06)
(-7.53566e-18 -1.74106e-15 1.02685e-06)
(1.82352e-17 -1.76869e-18 9.98814e-07)
(-1.06596e-18 -1.73609e-15 9.71458e-07)
(-5.29444e-18 6.09192e-18 9.44795e-07)
(-3.82353e-18 -1.73142e-15 9.18804e-07)
(-7.78872e-18 -1.74058e-15 8.93487e-07)
(1.58929e-17 -6.75104e-19 8.68827e-07)
(7.66868e-18 -1.74103e-15 8.44817e-07)
(1.89934e-18 -2.95894e-18 8.21442e-07)
(1.10661e-17 5.26045e-18 7.9869e-07)
(1.07365e-17 -1.73428e-15 7.76548e-07)
(1.09134e-17 1.13054e-18 7.55e-07)
(-1.07058e-18 -1.74015e-15 7.34037e-07)
(-6.11731e-18 -2.34267e-18 7.13637e-07)
(4.53328e-18 5.73009e-18 6.93795e-07)
(5.59282e-18 -1.73392e-15 6.74486e-07)
(6.90998e-18 1.40144e-18 6.55709e-07)
(-4.17219e-18 -1.73994e-15 6.37434e-07)
(-8.51391e-18 -2.19806e-18 6.19666e-07)
(2.68622e-18 5.83027e-18 6.0237e-07)
(4.17344e-18 -1.73385e-15 5.85557e-07)
(5.82172e-18 1.44432e-18 5.69187e-07)
(-5.00693e-18 -1.73993e-15 5.53276e-07)
(-9.15513e-18 -2.22739e-18 5.37783e-07)
(2.20074e-18 5.76135e-18 5.22727e-07)
(3.8357e-18 -1.73389e-15 5.08062e-07)
(5.65483e-18 1.57763e-18 4.93815e-07)
(-4.96351e-18 -1.73943e-15 4.79936e-07)
(-8.87719e-18 -1.26697e-18 4.66454e-07)
(2.68784e-18 7.06088e-18 4.53319e-07)
(4.44251e-18 -1.73262e-15 4.40564e-07)
(6.25029e-18 2.32289e-18 4.28135e-07)
(-4.50852e-18 -1.73949e-15 4.16068e-07)
(-8.61666e-18 -2.45081e-18 4.0431e-07)
(2.7045e-18 6.50125e-18 3.92898e-07)
(4.47793e-18 -1.73864e-15 3.81777e-07)
(5.92436e-18 -7.08309e-18 3.70989e-07)
(-5.47366e-18 -2.14561e-18 3.60475e-07)
(-9.59547e-18 4.59324e-18 3.5028e-07)
(1.95841e-18 8.36375e-18 3.40343e-07)
(3.98385e-18 -1.73801e-15 3.30714e-07)
(5.63196e-18 -6.83528e-18 3.2133e-07)
(-5.61882e-18 -2.07189e-18 3.12241e-07)
(-9.63489e-18 4.58089e-18 3.03383e-07)
(1.9953e-18 8.32243e-18 2.9481e-07)
(4.07538e-18 -1.73805e-15 2.86456e-07)
(5.76142e-18 -6.86301e-18 2.78376e-07)
(-5.46441e-18 -2.09043e-18 2.70504e-07)
(-9.46568e-18 4.56638e-18 2.62896e-07)
(2.17142e-18 8.3054e-18 2.55485e-07)
(4.25161e-18 -1.73808e-15 2.48329e-07)
(5.93111e-18 -6.91485e-18 2.4136e-07)
(-5.3068e-18 -2.15539e-18 2.34638e-07)
(-9.32073e-18 4.53956e-18 2.28092e-07)
(2.31361e-18 8.41265e-18 2.21786e-07)
(4.41386e-18 -1.73774e-15 2.15647e-07)
(6.14289e-18 -6.325e-18 2.09739e-07)
(-5.02462e-18 -1.43441e-18 2.0399e-07)
(-8.97257e-18 5.1485e-18 1.98464e-07)
(2.69174e-18 8.65164e-18 1.9309e-07)
(4.76522e-18 -1.738e-15 1.87933e-07)
(6.41375e-18 -7.01652e-18 1.82919e-07)
(-4.86218e-18 -2.31342e-18 1.78114e-07)
(-8.91182e-18 4.36272e-18 1.73447e-07)
(2.68357e-18 8.14617e-18 1.68982e-07)
(4.72826e-18 -1.7382e-15 1.64648e-07)
(6.37855e-18 -6.986e-18 1.60511e-07)
(-4.88185e-18 -2.1927e-18 1.56498e-07)
(-8.91635e-18 4.47263e-18 1.52677e-07)
(2.68756e-18 8.19947e-18 1.48973e-07)
(4.73256e-18 -1.73818e-15 1.45456e-07)
(6.38589e-18 -7.05622e-18 1.42046e-07)
(-4.90004e-18 -1.95176e-18 1.38827e-07)
(-8.83803e-18 3.26109e-18 1.35646e-07)
(2.35928e-18 1.38029e-17 1.32979e-07)
(5.98558e-18 -1.72506e-15 1.28428e-07)
(-4.2951e-17 -4.1353e-18 -0.0322836)
(-1.56249e-16 -7.35743e-18 -0.032176)
(-1.65087e-16 -7.80662e-18 -0.0321014)
(-1.96971e-16 -8.4889e-18 -0.0320793)
(-2.52521e-16 -9.21698e-18 -0.0321172)
(-2.62281e-16 -8.83056e-18 -0.0322152)
(-2.57101e-16 -8.39247e-18 -0.0323701)
(-2.52917e-16 -2.65781e-17 -0.0325621)
(-1.97176e-16 1.71194e-15 -0.0327663)
(-2.37057e-16 3.09021e-18 -0.0329409)
(-2.73462e-16 -5.2944e-17 -0.0330233)
(-1.92606e-16 1.68632e-15 -0.0330046)
(-1.61545e-16 2.54289e-17 -0.032845)
(-3.33577e-16 3.41386e-17 -0.032515)
(-3.74732e-16 1.45546e-17 -0.0319935)
(-1.20225e-16 -2.06394e-17 -0.0312585)
(5.14269e-16 -2.90547e-17 -0.0303348)
(9.93019e-16 1.45346e-17 -0.0293574)
(9.5018e-16 7.99339e-17 -0.0286037)
(2.0906e-16 9.97842e-17 -0.0283816)
(-6.64938e-16 4.76724e-17 -0.0287411)
(-7.0749e-16 -3.57487e-17 -0.02918)
(3.18402e-16 -8.55565e-17 -0.0286587)
(1.67142e-15 -6.8312e-17 -0.026103)
(2.21633e-15 -3.94593e-18 -0.0211501)
(1.51747e-15 5.53924e-17 -0.0145786)
(5.03508e-17 7.02368e-17 -0.00802059)
(-1.13796e-15 4.66574e-17 -0.00310644)
(-1.39354e-15 8.99881e-18 -0.000639989)
(-8.51625e-16 -5.0618e-18 -0.000342421)
(-1.2038e-16 1.75865e-15 -0.00123412)
(2.88746e-16 -1.70404e-15 -0.00228378)
(2.46176e-16 -1.72618e-15 -0.00287517)
(-2.82294e-17 -1.2349e-17 -0.00289255)
(-2.29402e-16 -1.77658e-15 -0.00252637)
(-2.61529e-16 1.6973e-15 -0.00202593)
(-1.60886e-16 -2.05467e-17 -0.00155519)
(-5.43931e-17 -1.75126e-15 -0.00117309)
(-1.31138e-17 -9.2801e-18 -0.000877314)
(-9.50407e-18 -1.74487e-15 -0.000649093)
(-2.40886e-17 1.74293e-15 -0.000473645)
(-2.14005e-17 1.96454e-17 -0.0003417)
(-1.56367e-17 -1.72615e-15 -0.000245506)
(-2.12441e-17 3.11802e-19 -0.000176936)
(-1.72132e-17 -1.74583e-15 -0.000128206)
(-1.4935e-17 1.73729e-15 -9.31014e-05)
(-1.79669e-18 1.35279e-17 -6.73692e-05)
(3.57437e-18 -1.73329e-15 -4.83256e-05)
(-8.50374e-18 5.16686e-18 -3.4236e-05)
(-6.46412e-18 -1.73291e-15 -2.38671e-05)
(2.8915e-17 -1.74014e-15 -1.62754e-05)
(3.99269e-17 -4.26073e-19 -1.0732e-05)
(1.66756e-17 -1.73561e-15 -6.68787e-06)
(1.27152e-17 5.46207e-18 -3.74061e-06)
(6.79151e-18 -1.73285e-15 -1.59812e-06)
(2.8085e-17 -1.74057e-15 -4.75861e-08)
(3.58375e-17 -7.67935e-19 1.06705e-06)
(1.15349e-17 -1.73563e-15 1.86101e-06)
(7.03287e-18 5.679e-18 2.41919e-06)
(6.81407e-19 -1.73271e-15 2.80434e-06)
(2.28928e-17 -1.74033e-15 3.06252e-06)
(2.70509e-17 -2.2714e-18 3.2278e-06)
(2.30375e-17 -1.7299e-15 3.32511e-06)
(3.7526e-17 4.56006e-18 3.37293e-06)
(1.23264e-17 -3.48558e-15 3.38473e-06)
(1.92357e-17 1.73012e-15 3.37055e-06)
(2.05517e-17 1.05179e-17 3.33763e-06)
(1.62981e-17 -1.72753e-15 3.29141e-06)
(3.09511e-17 4.1743e-18 3.23579e-06)
(5.73294e-18 -3.48691e-15 3.17372e-06)
(1.22345e-17 1.72841e-15 3.10728e-06)
(1.27665e-17 8.86891e-18 3.0381e-06)
(7.58374e-18 -1.72869e-15 2.96728e-06)
(2.15434e-17 3.80028e-18 2.89572e-06)
(-3.75998e-18 -3.48646e-15 2.82399e-06)
(3.45349e-18 1.72947e-15 2.75261e-06)
(5.40896e-18 1.01614e-17 2.68186e-06)
(2.04216e-18 -1.72751e-15 2.61204e-06)
(1.77998e-17 4.66593e-18 2.54329e-06)
(-6.07253e-18 -3.48598e-15 2.47577e-06)
(2.00613e-18 1.7296e-15 2.40955e-06)
(4.21891e-18 9.99865e-18 2.34473e-06)
(5.82521e-19 -1.72784e-15 2.28131e-06)
(1.57172e-17 4.31721e-18 2.21935e-06)
(-8.88705e-18 -3.48616e-15 2.15884e-06)
(-1.36446e-18 1.72972e-15 2.0998e-06)
(6.74138e-19 1.03999e-17 2.04222e-06)
(-2.51701e-18 -1.72725e-15 1.98609e-06)
(1.29105e-17 4.55451e-18 1.93139e-06)
(-8.38223e-18 -3.48516e-15 1.87811e-06)
(-1.17253e-17 1.72632e-15 1.82621e-06)
(-8.12106e-18 6.92145e-19 1.77569e-06)
(-2.02966e-17 -4.65765e-18 1.72651e-06)
(-9.06798e-18 1.73557e-15 1.67864e-06)
(-5.42023e-18 5.22252e-19 1.63206e-06)
(-4.24826e-18 1.74176e-15 1.58673e-06)
(-1.02436e-18 3.09343e-18 1.54264e-06)
(-1.44747e-17 -5.1446e-18 1.49973e-06)
(-4.45903e-18 1.7346e-15 1.458e-06)
(-1.79034e-18 -3.83902e-19 1.41739e-06)
(-1.37636e-18 1.74101e-15 1.3779e-06)
(1.26652e-18 2.4911e-18 1.33948e-06)
(-1.26278e-17 -5.62727e-18 1.30211e-06)
(-2.95092e-18 1.73421e-15 1.26575e-06)
(-5.41632e-19 -6.95552e-19 1.2304e-06)
(-3.31267e-19 1.74076e-15 1.19599e-06)
(2.1438e-18 2.28126e-18 1.16253e-06)
(-1.18915e-17 -5.83122e-18 1.12997e-06)
(-2.31386e-18 1.73399e-15 1.09831e-06)
(8.18113e-20 -8.98008e-19 1.0675e-06)
(4.21956e-19 1.7407e-15 1.03754e-06)
(3.20072e-18 2.55634e-18 1.00839e-06)
(-1.04001e-17 -5.09265e-18 9.80042e-07)
(-3.88499e-19 1.73512e-15 9.52451e-07)
(2.26283e-18 3.17748e-19 9.25634e-07)
(2.54862e-18 1.74152e-15 8.99531e-07)
(4.92039e-18 2.66383e-18 8.74164e-07)
(-9.20077e-18 -6.05732e-18 8.49472e-07)
(-2.39671e-19 1.73468e-15 8.25484e-07)
(4.06491e-18 -5.52505e-18 8.02134e-07)
(-6.60601e-18 1.73262e-15 7.79456e-07)
(-7.94086e-18 1.74034e-15 7.57384e-07)
(-1.01288e-17 8.77202e-19 7.35954e-07)
(1.43759e-18 1.7363e-15 7.15099e-07)
(6.10835e-18 -5.12397e-18 6.94859e-07)
(-4.71822e-18 1.73269e-15 6.75165e-07)
(-6.30654e-18 1.74029e-15 6.5606e-07)
(-8.73628e-18 7.73827e-19 6.37475e-07)
(2.62671e-18 1.73619e-15 6.19455e-07)
(7.1336e-18 -5.20941e-18 6.0193e-07)
(-3.82397e-18 1.73263e-15 5.84947e-07)
(-5.51819e-18 1.74025e-15 5.68435e-07)
(-8.03522e-18 7.48464e-19 5.52444e-07)
(3.25369e-18 1.73617e-15 5.36902e-07)
(7.69443e-18 -5.23586e-18 5.21862e-07)
(-3.32674e-18 1.73259e-15 5.0725e-07)
(-5.08411e-18 1.74019e-15 4.9312e-07)
(-7.6568e-18 7.29349e-19 4.79398e-07)
(3.60393e-18 1.73627e-15 4.66141e-07)
(8.07048e-18 -4.93194e-18 4.53275e-07)
(-2.85607e-18 1.73312e-15 4.40855e-07)
(-4.46726e-18 1.74085e-15 4.28809e-07)
(-6.89629e-18 1.29033e-18 4.17193e-07)
(4.43552e-18 1.73651e-15 4.05934e-07)
(8.85185e-18 -5.14124e-18 3.95091e-07)
(-2.24437e-18 1.73252e-15 3.84589e-07)
(-4.09149e-18 1.74007e-15 3.74488e-07)
(-6.74719e-18 5.89847e-19 3.64713e-07)
(4.42662e-18 1.73605e-15 3.55326e-07)
(8.77313e-18 -5.32e-18 3.46252e-07)
(-2.32333e-18 1.73254e-15 3.37552e-07)
(-4.1374e-18 1.74018e-15 3.29152e-07)
(-6.75896e-18 6.87926e-19 3.21115e-07)
(4.43535e-18 1.7361e-15 3.13365e-07)
(8.782e-18 -5.30187e-18 3.05965e-07)
(-2.29829e-18 1.73248e-15 2.98835e-07)
(-4.22137e-18 1.74038e-15 2.9207e-07)
(-6.33256e-18 -3.68569e-19 2.85424e-07)
(2.28057e-18 1.74111e-15 2.79808e-07)
(1.95834e-17 7.85163e-18 2.70198e-07)
(-1.31708e-18 -5.59288e-20 -0.0535262)
(-1.75573e-17 -2.54126e-20 -0.0533474)
(-3.39839e-17 -2.18945e-20 -0.0532205)
(-5.45671e-17 9.04996e-19 -0.0531769)
(-7.74479e-17 6.01024e-19 -0.053228)
(-8.57432e-17 1.50533e-18 -0.0533728)
(-1.86159e-16 5.22331e-18 -0.0536052)
(-3.22383e-17 -6.43183e-18 -0.0538897)
(3.42197e-17 1.00479e-18 -0.0541845)
(-6.8272e-16 3.4895e-17 -0.0544141)
(-9.76044e-16 -6.78074e-18 -0.0544637)
(2.85954e-16 -4.95598e-17 -0.054325)
(1.63671e-15 6.03424e-17 -0.0539156)
(1.593e-15 1.71193e-16 -0.053182)
(6.97439e-16 2.71772e-17 -0.0520998)
(2.0527e-16 -3.24726e-16 -0.0506373)
(1.08921e-15 -5.00835e-16 -0.048838)
(2.47811e-15 -1.75764e-16 -0.0469282)
(1.94859e-15 4.71708e-16 -0.045381)
(-1.5768e-15 8.21476e-16 -0.0447464)
(-5.45447e-15 4.09561e-16 -0.0451786)
(-5.02604e-15 -5.39804e-16 -0.0459192)
(1.48074e-15 -1.23108e-15 -0.0452684)
(1.0013e-14 -1.00571e-15 -0.0413728)
(1.35241e-14 2.38649e-17 -0.033476)
(8.3878e-15 1.05143e-15 -0.0227064)
(-2.0601e-15 1.30955e-15 -0.0116896)
(-1.05089e-14 7.24484e-16 -0.0031738)
(-1.19669e-14 -1.2828e-16 0.00136952)
(-7.20066e-15 -6.15021e-16 0.0022468)
(-8.71619e-16 -5.39952e-16 0.000977655)
(2.81577e-15 -1.62396e-16 -0.000756882)
(2.81556e-15 1.44971e-16 -0.00190601)
(7.87312e-16 2.05103e-16 -0.00222437)
(-1.07484e-15 8.14002e-17 -0.00197528)
(-1.69842e-15 -6.14872e-17 -0.00152944)
(-1.29192e-15 -1.18061e-16 -0.00112516)
(-5.79226e-16 -9.00924e-17 -0.000833878)
(-7.67787e-17 -3.27793e-17 -0.000633687)
(1.11499e-16 6.28852e-18 -0.000485414)
(1.11657e-16 1.76885e-17 -0.000366452)
(6.24793e-17 1.35917e-17 -0.00027041)
(2.52465e-17 6.05775e-18 -0.000196319)
(4.06089e-18 1.64054e-18 -0.000141909)
(-7.79124e-18 -8.34149e-19 -0.000102921)
(-1.37831e-17 -1.10551e-18 -7.48609e-05)
(-1.32046e-17 3.03572e-19 -5.42982e-05)
(-8.37252e-18 2.67957e-19 -3.903e-05)
(-4.57797e-18 1.80221e-18 -2.76773e-05)
(-2.87687e-18 -2.96973e-18 -1.92862e-05)
(9.92977e-20 -6.64574e-18 -1.3124e-05)
(3.77791e-18 1.73885e-15 -8.61549e-06)
(6.09663e-18 6.33289e-18 -5.32189e-06)
(8.16898e-18 1.82136e-18 -2.9194e-06)
(8.59314e-18 -4.17659e-18 -1.17207e-06)
(9.83557e-18 -7.6366e-18 9.25199e-08)
(1.15927e-17 1.73854e-15 1.00131e-06)
(1.1749e-17 6.65587e-18 1.64811e-06)
(1.15964e-17 2.48022e-18 2.10221e-06)
(1.00465e-17 -3.86652e-18 2.41475e-06)
(9.95271e-18 -6.60929e-18 2.62341e-06)
(1.05592e-17 1.73381e-15 2.75597e-06)
(1.07833e-17 -6.10439e-19 2.83291e-06)
(1.19627e-17 1.74159e-15 2.86929e-06)
(1.1532e-17 1.8611e-18 2.87622e-06)
(1.18822e-17 -6.93886e-18 2.86186e-06)
(1.2012e-17 1.73357e-15 2.8322e-06)
(1.14758e-17 -6.35412e-19 2.79166e-06)
(1.18162e-17 1.74142e-15 2.74348e-06)
(1.04045e-17 1.4215e-18 2.69004e-06)
(9.52869e-18 -7.54146e-18 2.6331e-06)
(8.20722e-18 1.73306e-15 2.57394e-06)
(6.20535e-18 -8.03646e-19 2.51351e-06)
(5.41354e-18 1.7417e-15 2.45251e-06)
(3.53866e-18 2.0488e-18 2.39146e-06)
(3.02819e-18 -6.80262e-18 2.33073e-06)
(2.80182e-18 1.73367e-15 2.27059e-06)
(2.30863e-18 -4.48032e-19 2.21125e-06)
(3.04048e-18 1.74181e-15 2.15286e-06)
(2.37062e-18 2.00586e-18 2.09553e-06)
(2.56463e-18 -6.90379e-18 2.03933e-06)
(2.51648e-18 1.73358e-15 1.98431e-06)
(1.76322e-18 -4.95682e-19 1.93051e-06)
(1.95346e-18 1.74187e-15 1.87795e-06)
(6.57446e-19 2.20602e-18 1.82664e-06)
(3.52365e-19 -6.54929e-18 1.77658e-06)
(9.35112e-20 1.73393e-15 1.72777e-06)
(-4.59996e-19 -2.6243e-20 1.68018e-06)
(1.15615e-19 1.74096e-15 1.63383e-06)
(-1.75897e-19 6.46592e-18 1.58867e-06)
(-6.43709e-19 -8.05694e-19 1.5447e-06)
(-1.38751e-18 -2.01892e-18 1.5019e-06)
(-2.89608e-18 -2.48548e-18 1.46024e-06)
(-4.07133e-18 -2.17775e-18 1.41969e-06)
(-4.33433e-18 -1.96397e-18 1.38024e-06)
(-4.04502e-18 -1.06739e-18 1.34185e-06)
(-3.9128e-18 -3.08696e-19 1.30451e-06)
(-4.63156e-18 -6.25336e-19 1.26819e-06)
(-5.15054e-18 -6.12083e-19 1.23285e-06)
(-4.8898e-18 -7.36893e-19 1.19848e-06)
(-4.19428e-18 -1.26986e-19 1.16505e-06)
(-3.75489e-18 4.04889e-19 1.13253e-06)
(-4.24661e-18 -8.93498e-20 1.1009e-06)
(-4.60192e-18 -2.12825e-19 1.07013e-06)
(-4.22791e-18 -4.37626e-19 1.04021e-06)
(-3.46299e-18 1.01603e-19 1.0111e-06)
(-2.99487e-18 5.72938e-19 9.82784e-07)
(-3.48969e-18 1.44393e-21 9.55241e-07)
(-3.84968e-18 -2.25291e-19 9.28453e-07)
(-3.42174e-18 -5.38873e-19 9.02394e-07)
(-2.46779e-18 1.81767e-20 8.77048e-07)
(-1.62579e-18 7.01376e-19 8.52392e-07)
(-1.59167e-18 5.27633e-19 8.28412e-07)
(-1.40044e-18 7.29402e-19 8.05087e-07)
(-5.98418e-19 6.30411e-19 7.82402e-07)
(3.79084e-19 9.94114e-19 7.60337e-07)
(8.32966e-19 1.10505e-18 7.3888e-07)
(1.88224e-19 1.29221e-19 7.18012e-07)
(-4.59044e-19 -1.31594e-19 6.97723e-07)
(-1.72036e-19 -7.31947e-19 6.77993e-07)
(6.72185e-20 -1.08021e-18 6.58813e-07)
(-3.32598e-19 -3.84205e-19 6.40166e-07)
(-1.05719e-18 -9.59887e-20 6.22043e-07)
(-1.4458e-18 2.45163e-19 6.04428e-07)
(-8.51496e-19 -2.09287e-19 5.87312e-07)
(-3.65554e-19 -6.27836e-19 5.7068e-07)
(-5.94215e-19 -6.28629e-20 5.54526e-07)
(-1.20397e-18 1.14269e-19 5.38833e-07)
(-1.51143e-18 3.8749e-19 5.23597e-07)
(-8.54654e-19 -1.01011e-19 5.08802e-07)
(-3.18001e-19 -5.3712e-19 4.94443e-07)
(-5.05333e-19 1.5198e-20 4.80506e-07)
(-1.08254e-18 1.80438e-19 4.66986e-07)
(-1.36641e-18 4.40572e-19 4.5387e-07)
(-6.96041e-19 -6.57978e-20 4.41155e-07)
(-1.57154e-19 -5.25586e-19 4.28826e-07)
(-3.53006e-19 9.64239e-21 4.1688e-07)
(-9.41984e-19 1.9554e-19 4.05305e-07)
(-1.22349e-18 5.49008e-19 3.94097e-07)
(-5.13774e-19 2.12694e-19 3.83245e-07)
(1.15566e-19 -5.61292e-20 3.72746e-07)
(5.08643e-20 5.857e-19 3.62587e-07)
(-4.06401e-19 6.97108e-19 3.52767e-07)
(-6.10629e-19 7.77573e-19 3.43275e-07)
(8.10392e-20 5.97156e-20 3.34108e-07)
(5.94674e-19 -5.44851e-19 3.25256e-07)
(3.55166e-19 -6.20166e-20 3.16716e-07)
(-2.77282e-19 1.03665e-19 3.08478e-07)
(-6.08237e-19 3.86017e-19 3.00542e-07)
(2.38961e-20 -9.75332e-20 2.92896e-07)
(5.33483e-19 -5.30737e-19 2.8554e-07)
(3.18166e-19 2.51132e-20 2.78464e-07)
(-2.87249e-19 1.86257e-19 2.71668e-07)
(-6.01734e-19 4.28988e-19 2.6514e-07)
(3.43183e-20 -8.58863e-20 2.58883e-07)
(5.41998e-19 -5.5453e-19 2.52881e-07)
(3.15903e-19 6.53795e-20 2.47163e-07)
(-2.69202e-19 1.01261e-20 2.41579e-07)
(-6.88174e-19 8.44895e-19 2.36803e-07)
(3.66949e-19 1.01336e-18 2.28569e-07)
(-4.67691e-17 5.30187e-18 -0.0743341)
(-1.55415e-16 8.976e-18 -0.0740843)
(-1.33271e-16 1.06983e-17 -0.073904)
(-1.8329e-16 1.32431e-17 -0.0738372)
(-1.02497e-16 6.37106e-18 -0.0739006)
(-2.96097e-16 4.55251e-17 -0.0740947)
(-1.84476e-16 -3.51449e-17 -0.0744126)
(7.44217e-16 -1.36768e-16 -0.0748047)
(-1.72887e-15 3.77191e-15 -0.0752177)
(-1.71398e-15 5.08222e-16 -0.0755403)
(4.77462e-15 -2.272e-15 -0.0755997)
(8.1355e-15 3.79948e-16 -0.0754155)
(5.29883e-15 -6.28096e-16 -0.0748599)
(5.13287e-15 5.03773e-16 -0.0738359)
(5.6288e-15 7.08422e-16 -0.0723113)
(9.83602e-16 -2.16525e-16 -0.0702453)
(-7.36096e-15 -1.16547e-15 -0.067695)
(-1.32318e-14 -4.15157e-16 -0.0649597)
(-1.48567e-14 2.10739e-15 -0.0626855)
(-1.60646e-14 3.80132e-15 -0.0616501)
(-1.63592e-14 1.77229e-15 -0.0621138)
(-7.68596e-15 -3.50335e-15 -0.0630802)
(1.39002e-14 -7.60508e-15 -0.0622114)
(3.6544e-14 -6.09e-15 -0.0568939)
(3.89157e-14 8.08654e-16 -0.0459883)
(1.15068e-14 7.8475e-15 -0.0309762)
(-3.05568e-14 9.51861e-15 -0.0154729)
(-5.88642e-14 5.00004e-15 -0.0033327)
(-5.56759e-14 -1.64514e-15 0.00331949)
(-2.71113e-14 -5.55268e-15 0.00482678)
(5.07152e-15 -3.24956e-15 0.00324631)
(2.22591e-14 -3.54763e-15 0.000896011)
(2.04942e-14 -7.11952e-16 -0.000754555)
(8.31207e-15 1.93285e-15 -0.00134125)
(-3.36505e-15 -5.33715e-16 -0.00120216)
(-8.92391e-15 1.80584e-15 -0.000824035)
(-8.72689e-15 -5.80146e-16 -0.000511063)
(-5.84407e-15 -2.35883e-15 -0.000339574)
(-2.81185e-15 -3.54643e-16 -0.000263163)
(-6.63611e-16 -1.83909e-15 -0.000219982)
(4.89727e-16 1.76744e-15 -0.000178978)
(8.81373e-16 6.28507e-17 -0.000136759)
(7.62004e-16 -1.69694e-15 -9.94543e-05)
(4.06482e-16 1.68307e-17 -7.09932e-05)
(8.13508e-17 -1.73691e-15 -5.09948e-05)
(-9.61724e-17 1.74e-15 -3.70759e-05)
(-1.12374e-16 1.08226e-17 -2.70293e-05)
(-6.01333e-17 -1.73761e-15 -1.95173e-05)
(-2.0062e-17 2.41904e-18 -1.38498e-05)
(1.15922e-17 -1.73525e-15 -9.61689e-06)
(3.71524e-17 -1.74347e-15 -6.49678e-06)
(3.17767e-17 -3.42474e-18 -4.21445e-06)
(2.29373e-17 -1.7378e-15 -2.54886e-06)
(2.04362e-17 4.21381e-18 -1.33456e-06)
(5.54418e-18 -1.73368e-15 -4.51635e-07)
(1.37298e-17 -1.74207e-15 1.86991e-07)
(1.39055e-17 -1.72465e-18 6.45335e-07)
(1.21891e-17 -1.73563e-15 9.70815e-07)
(1.32392e-17 6.53026e-18 1.1985e-06)
(-5.99352e-19 -1.73189e-15 1.35433e-06)
(7.90604e-18 -1.74059e-15 1.45739e-06)
(8.6894e-18 -2.68667e-18 1.5218e-06)
(7.71477e-18 -1.7306e-15 1.55797e-06)
(7.02953e-18 4.18571e-18 1.57355e-06)
(3.86783e-18 -3.48554e-15 1.57419e-06)
(1.5441e-17 1.72988e-15 1.56405e-06)
(4.91861e-18 1.07211e-17 1.54617e-06)
(2.38115e-18 -1.72743e-15 1.52281e-06)
(2.24062e-18 4.70999e-18 1.4956e-06)
(-2.06284e-19 -3.48577e-15 1.46578e-06)
(1.17884e-17 1.72951e-15 1.43422e-06)
(1.36928e-18 1.05306e-17 1.40159e-06)
(-1.2374e-18 -1.72729e-15 1.36836e-06)
(-1.41127e-18 5.13362e-18 1.3349e-06)
(-3.67539e-18 -3.48527e-15 1.30146e-06)
(8.79784e-18 1.72984e-15 1.26824e-06)
(-8.93035e-19 1.05212e-17 1.23537e-06)
(-2.66398e-18 -1.72763e-15 1.20297e-06)
(-2.06454e-18 4.63494e-18 1.1711e-06)
(-3.74814e-18 -3.48574e-15 1.13983e-06)
(9.06005e-18 1.72952e-15 1.10918e-06)
(-5.19709e-19 1.03994e-17 1.07918e-06)
(-2.33762e-18 -1.72756e-15 1.04986e-06)
(-1.86807e-18 4.8701e-18 1.02122e-06)
(-3.70376e-18 -3.48536e-15 9.93261e-07)
(8.97634e-18 1.73e-15 9.6599e-07)
(-7.07837e-19 1.08061e-17 9.39402e-07)
(-2.47686e-18 -1.72726e-15 9.13489e-07)
(-2.41719e-18 4.41246e-18 8.88245e-07)
(-2.04917e-18 -3.48478e-15 8.6366e-07)
(-2.63952e-19 1.72693e-15 8.39723e-07)
(-1.18082e-17 1.81833e-18 8.16421e-07)
(-1.27128e-17 -3.31573e-18 7.93745e-07)
(-1.44331e-17 1.73628e-15 7.71677e-07)
(-2.99314e-18 5.09098e-19 7.50207e-07)
(1.23484e-18 1.74155e-15 7.29318e-07)
(-9.6979e-18 3.3867e-18 7.09e-07)
(-1.04279e-17 -4.52573e-18 6.89234e-07)
(-1.21149e-17 1.73473e-15 6.7001e-07)
(-7.08977e-19 -8.62035e-19 6.51309e-07)
(3.44348e-18 1.74044e-15 6.33123e-07)
(-7.59293e-18 2.51727e-18 6.15432e-07)
(-8.44592e-18 -5.20375e-18 5.98229e-07)
(-1.02678e-17 1.7342e-15 5.81493e-07)
(9.9719e-19 -1.26502e-18 5.65218e-07)
(5.00587e-18 1.74014e-15 5.49386e-07)
(-6.17697e-18 2.29462e-18 5.3399e-07)
(-7.17521e-18 -5.40382e-18 5.19011e-07)
(-9.12438e-18 1.73396e-15 5.04446e-07)
(2.06864e-18 -1.58896e-18 4.90275e-07)
(6.11226e-18 1.7398e-15 4.76495e-07)
(-4.88876e-18 2.11828e-18 4.63088e-07)
(-5.56723e-18 -5.20532e-18 4.50053e-07)
(-7.13981e-18 1.73463e-15 4.3737e-07)
(4.34764e-18 -5.72016e-19 4.2504e-07)
(8.46234e-18 1.74081e-15 4.13044e-07)
(-2.76454e-18 2.75926e-18 4.01382e-07)
(-3.92885e-18 -5.41131e-18 3.90038e-07)
(-6.11457e-18 1.73486e-15 3.79011e-07)
(4.79933e-18 -5.78818e-18 3.68286e-07)
(8.50603e-18 1.7327e-15 3.57864e-07)
(-2.92322e-18 1.7409e-15 3.47728e-07)
(-4.12288e-18 1.4338e-18 3.37881e-07)
(-6.25441e-18 1.73619e-15 3.28306e-07)
(4.73088e-18 -5.66409e-18 3.19008e-07)
(8.48474e-18 1.73256e-15 3.09968e-07)
(-2.93042e-18 1.7407e-15 3.01192e-07)
(-4.13859e-18 1.23244e-18 2.92663e-07)
(-6.28646e-18 1.73602e-15 2.84387e-07)
(4.68506e-18 -5.80613e-18 2.76346e-07)
(8.43194e-18 1.73246e-15 2.68547e-07)
(-2.98353e-18 1.74063e-15 2.60973e-07)
(-4.18743e-18 1.179e-18 2.5363e-07)
(-6.32919e-18 1.73598e-15 2.46503e-07)
(4.64751e-18 -5.84049e-18 2.39597e-07)
(8.39646e-18 1.73242e-15 2.32898e-07)
(-3.02068e-18 1.74059e-15 2.26411e-07)
(-4.22752e-18 1.16459e-18 2.20121e-07)
(-6.36773e-18 1.73605e-15 2.14036e-07)
(4.62228e-18 -5.60147e-18 2.08139e-07)
(8.40084e-18 1.73284e-15 2.02438e-07)
(-2.97313e-18 1.74111e-15 1.96918e-07)
(-4.13451e-18 1.62107e-18 1.91587e-07)
(-6.24251e-18 1.73626e-15 1.8643e-07)
(4.75449e-18 -5.74389e-18 1.81453e-07)
(8.513e-18 1.73238e-15 1.76643e-07)
(-2.89874e-18 1.74051e-15 1.72008e-07)
(-4.10068e-18 1.07155e-18 1.67532e-07)
(-6.23919e-18 1.7359e-15 1.63225e-07)
(4.74277e-18 -5.89086e-18 1.59071e-07)
(8.49951e-18 1.7324e-15 1.55079e-07)
(-2.90707e-18 1.74059e-15 1.51234e-07)
(-4.10267e-18 1.14788e-18 1.47546e-07)
(-6.23792e-18 1.73594e-15 1.43999e-07)
(4.74852e-18 -5.87374e-18 1.40604e-07)
(8.48782e-18 1.73234e-15 1.37342e-07)
(-2.83633e-18 1.74079e-15 1.34237e-07)
(-4.45469e-18 1.33469e-19 1.31214e-07)
(-4.47345e-18 1.7408e-15 1.28571e-07)
(-4.14721e-18 7.32407e-18 1.23955e-07)
(5.07744e-17 1.83576e-15 -0.0944777)
(1.89008e-16 1.77795e-15 -0.0941577)
(1.7184e-16 1.39155e-17 -0.0939207)
(1.87501e-16 1.72024e-15 -0.0938236)
(6.26468e-16 1.79173e-15 -0.0938894)
(-1.0451e-15 1.77722e-15 -0.0941218)
(4.43059e-15 -5.14933e-16 -0.0945151)
(-5.65924e-15 7.92869e-16 -0.0950061)
(-1.01567e-14 1.2301e-15 -0.0955355)
(3.75802e-14 -5.00578e-15 -0.0959503)
(3.86872e-14 -4.91797e-15 -0.0960028)
(-5.95275e-14 -2.84558e-16 -0.0957891)
(-1.50702e-13 1.5481e-15 -0.0950921)
(-1.32045e-13 6.20378e-18 -0.0937962)
(-7.42257e-14 2.10181e-15 -0.0918943)
(-5.84181e-14 7.90488e-15 -0.0893248)
(-1.0575e-13 8.3416e-15 -0.0861384)
(-1.64136e-13 3.57211e-15 -0.0826847)
(-1.65e-13 3.6228e-15 -0.0797619)
(-9.17932e-14 3.30743e-15 -0.0783637)
(1.08273e-14 -3.77974e-15 -0.0788633)
(8.33643e-14 -1.56695e-14 -0.0800523)
(9.07139e-14 -2.33461e-14 -0.0789873)
(2.98243e-14 -1.35135e-14 -0.0723157)
(-7.35856e-14 1.25425e-14 -0.058515)
(-1.71304e-13 3.4053e-14 -0.0393997)
(-2.12617e-13 3.64951e-14 -0.0195468)
(-1.73392e-13 1.32841e-14 -0.00389208)
(-7.171e-14 -1.60048e-14 0.00480062)
(4.32055e-14 -3.09921e-14 0.00691313)
(1.21333e-13 -2.69565e-14 0.00503172)
(1.39988e-13 -9.60337e-15 0.00209768)
(1.09908e-13 7.11511e-15 -1.28781e-05)
(5.87981e-14 1.04e-14 -0.000823816)
(1.02105e-14 6.96297e-15 -0.000749583)
(-2.46213e-14 8.83014e-16 -0.000392368)
(-4.29702e-14 -3.39059e-15 -0.000122551)
(-4.54303e-14 -3.04761e-15 -2.3595e-05)
(-3.49931e-14 -4.35805e-15 -2.78472e-05)
(-1.80276e-14 -3.37925e-15 -5.34923e-05)
(-2.37273e-15 -2.48963e-15 -6.21947e-05)
(6.55082e-15 -1.85726e-15 -5.31322e-05)
(8.02463e-15 2.43503e-16 -3.8113e-05)
(5.09651e-15 -1.39276e-15 -2.55824e-05)
(1.46692e-15 -1.48422e-15 -1.75813e-05)
(-6.90959e-16 -1.63895e-15 -1.2798e-05)
(-1.13113e-15 -1.75246e-15 -9.59501e-06)
(-6.93986e-16 -4.58879e-17 -7.11076e-06)
(-1.59519e-16 -1.76878e-15 -5.10122e-06)
(1.12209e-16 -1.7663e-15 -3.53106e-06)
(1.0636e-16 -1.67347e-17 -2.3583e-06)
(3.48896e-17 3.48068e-15 -1.50444e-06)
(-6.51368e-18 1.20031e-17 -8.86111e-07)
(-2.49169e-17 1.74524e-15 -4.36955e-07)
(-5.98755e-18 -8.24234e-19 -1.10339e-07)
(-1.90591e-17 -1.18165e-17 1.26177e-07)
(-2.08808e-17 3.47404e-15 2.95952e-07)
(-7.21239e-18 6.98903e-18 4.16335e-07)
(-6.98251e-18 1.7436e-15 5.00248e-07)
(9.18613e-18 -1.20014e-18 5.57326e-07)
(-1.15303e-17 -1.12535e-17 5.9468e-07)
(-1.5115e-17 3.46863e-15 6.17595e-07)
(-1.41368e-17 2.19492e-19 6.29949e-07)
(-1.44736e-17 3.47824e-15 6.34623e-07)
(-7.82945e-18 -2.3446e-18 6.33718e-07)
(-3.19827e-17 1.72726e-15 6.28799e-07)
(-1.11836e-17 3.47483e-15 6.20997e-07)
(-5.531e-18 7.03581e-19 6.11165e-07)
(-5.83386e-18 3.47744e-15 5.99909e-07)
(-8.91228e-20 -3.35239e-18 5.87696e-07)
(-2.51661e-17 1.72639e-15 5.7485e-07)
(-5.09916e-18 3.4743e-15 5.61625e-07)
(2.30486e-20 5.86625e-19 5.48196e-07)
(-6.8967e-19 3.47764e-15 5.34703e-07)
(4.64828e-18 -3.05576e-18 5.21236e-07)
(-2.0931e-17 1.72653e-15 5.07874e-07)
(-1.49562e-18 3.47413e-15 4.94665e-07)
(2.91078e-18 1.37721e-19 4.81652e-07)
(1.49523e-18 3.47708e-15 4.68857e-07)
(6.24568e-18 -3.55645e-18 4.56308e-07)
(-1.97372e-17 1.72621e-15 4.44012e-07)
(-5.01075e-19 3.474e-15 4.31984e-07)
(3.88996e-18 1.78501e-19 4.20225e-07)
(2.59272e-18 3.47727e-15 4.08744e-07)
(7.52223e-18 -3.21619e-18 3.97538e-07)
(-1.83115e-17 1.72668e-15 3.86609e-07)
(9.68475e-19 3.47438e-15 3.75954e-07)
(5.20683e-18 8.28431e-19 3.65572e-07)
(3.75989e-18 3.47547e-15 3.55458e-07)
(7.75209e-18 5.3893e-18 3.45609e-07)
(-1.59068e-17 1.7388e-15 3.36021e-07)
(-7.66894e-18 4.20551e-18 3.26687e-07)
(-1.90041e-18 -1.17305e-18 3.17605e-07)
(-1.10892e-17 -7.03758e-18 3.08767e-07)
(-1.08034e-17 -9.79793e-18 3.0017e-07)
(-1.10399e-17 1.73701e-15 2.91805e-07)
(8.76746e-19 5.52266e-18 2.83669e-07)
(5.85464e-18 5.83139e-19 2.75754e-07)
(-4.86679e-18 -5.47153e-18 2.68058e-07)
(-5.99847e-18 -8.51606e-18 2.6057e-07)
(-7.38746e-18 1.73804e-15 2.5329e-07)
(3.6255e-18 6.34959e-18 2.46207e-07)
(7.90095e-18 1.24809e-18 2.39321e-07)
(-3.36604e-18 -4.93438e-18 2.32621e-07)
(-4.92175e-18 -8.07446e-18 2.26107e-07)
(-6.6393e-18 1.73841e-15 2.19769e-07)
(4.12041e-18 6.66348e-18 2.13608e-07)
(8.20225e-18 1.47515e-18 2.07611e-07)
(-3.21182e-18 -4.84721e-18 2.01783e-07)
(-4.87714e-18 -8.1572e-18 1.9611e-07)
(-6.66886e-18 1.73822e-15 1.90597e-07)
(4.06073e-18 6.54112e-18 1.8523e-07)
(8.1715e-18 1.65316e-18 1.80014e-07)
(-3.14568e-18 -4.22804e-18 1.74938e-07)
(-4.6587e-18 -7.17066e-18 1.70005e-07)
(-6.28505e-18 1.73927e-15 1.65203e-07)
(4.56964e-18 7.30064e-18 1.60538e-07)
(8.69905e-18 1.80424e-18 1.55997e-07)
(-2.64516e-18 -4.49568e-18 1.51586e-07)