/*--------------------------------*- C++ -*----------------------------------*\
  =========                 |
  \\      /  F ield         | OpenFOAM: The Open Source CFD Toolbox
   \\    /   O peration     | Website:  https://openfoam.org
    \\  /    A nd           | Version:  11
     \\/     M anipulation  |
\*---------------------------------------------------------------------------*/
FoamFile
{
    format      ascii;
    class       surfaceScalarField;
    location    "8.954882";
    object      phi_0;
}
// * * * * * * * * * * * * * * * * * * * * * * * * * * * * * * * * * * * * * //

dimensions      [0 3 -1 0 0 0 0];

internalField   nonuniform List<scalar> 
14638
(
0.00250273
-2.72967e-06
0.00251094
-8.21233e-06
0.00252493
-1.39914e-05
0.00254511
-2.01732e-05
0.00257188
-2.67714e-05
0.00260544
-3.35619e-05
0.00264556
-4.01186e-05
0.00269119
-4.56297e-05
0.00274042
-4.92271e-05
0.00279045
-5.00342e-05
0.00283805
-4.7599e-05
0.00288084
-4.27937e-05
0.0029173
-3.6457e-05
0.00294677
-2.94713e-05
0.00296936
-2.25927e-05
0.00298551
-1.61463e-05
0.00299547
-9.96419e-06
0.00299889
-3.41585e-06
0.00299456
4.32922e-06
0.00298073
1.38294e-05
0.0029559
2.48304e-05
0.00291993
3.5974e-05
0.0028748
4.51305e-05
0.00282464
5.01586e-05
0.00277508
4.95574e-05
0.00273233
4.27463e-05
0.0027023
3.00387e-05
0.00268969
1.26089e-05
0.00269719
-7.50001e-06
0.00272447
-2.72845e-05
0.00276723
-4.27554e-05
0.00281671
-4.94874e-05
0.00286092
-4.421e-05
0.00288788
-2.69573e-05
0.00288978
-1.89449e-06
0.00286533
2.44441e-05
0.00281919
4.61435e-05
0.00275943
5.97533e-05
0.0026952
6.42331e-05
0.00263529
5.99078e-05
0.00258784
4.74582e-05
0.00256046
2.73722e-05
0.00256048
-1.44361e-08
0.00259438
-3.39002e-05
0.00266605
-7.1674e-05
0.00277339
-0.000107337
0.00290452
-0.000131129
0.00303685
-0.000132332
0.00314213
-0.000105281
0.003197
-5.48686e-05
0.00319279
4.20613e-06
0.00313764
5.51535e-05
0.00305019
8.74528e-05
0.00295062
9.95709e-05
0.00285478
9.58344e-05
0.00277272
8.20618e-05
0.00270974
6.29783e-05
0.00266811
4.1632e-05
0.00264819
1.99212e-05
0.00264878
-5.91709e-07
0.00266686
-1.80827e-05
0.00269729
-3.04298e-05
0.00273305
-3.57547e-05
0.00276629
-3.3244e-05
0.00279005
-2.37608e-05
0.00279984
-9.7898e-06
0.00279448
5.36564e-06
0.00277579
1.86873e-05
0.00274753
2.82608e-05
0.00271406
3.3466e-05
0.00267939
3.46743e-05
0.00264661
3.27764e-05
0.00261782
2.87879e-05
0.0025942
2.36198e-05
0.00257621
1.79942e-05
0.00256377
1.24449e-05
0.00255641
7.3528e-06
0.00255343
2.98522e-06
0.0025539
-4.74115e-07
0.00255681
-2.91188e-06
0.0025611
-4.2881e-06
0.00256575
-4.64603e-06
0.00256986
-4.11704e-06
0.00257278
-2.91103e-06
0.00257406
-1.28956e-06
0.00257359
4.72801e-07
0.00257146
2.12882e-06
0.00256797
3.4904e-06
0.00256353
4.4446e-06
0.00255857
4.95345e-06
0.00255353
5.04174e-06
0.00254875
4.77834e-06
0.0025445
4.25658e-06
0.00254092
3.57688e-06
0.00253809
2.83374e-06
0.00253598
2.1073e-06
0.00253452
1.45893e-06
0.00253359
9.30001e-07
0.00253305
5.42748e-07
0.00253275
3.02519e-07
0.00253255
2.00729e-07
0.00253233
2.18207e-07
0.002532
3.28689e-07
0.0025315
5.02316e-07
0.00253079
7.08942e-07
0.00252987
9.20993e-07
0.00252875
1.11565e-06
0.00252747
1.27621e-06
0.00252608
1.39264e-06
0.00252462
1.46128e-06
0.00252314
1.48397e-06
0.00252167
1.46676e-06
0.00252025
1.41846e-06
0.0025189
1.34913e-06
0.00251763
1.26888e-06
0.00251645
1.18678e-06
0.00251534
1.11027e-06
0.00251429
1.04472e-06
0.0025133
9.93362e-07
0.00251234
9.57459e-07
0.0025114
9.36572e-07
0.00251047
9.28965e-07
0.00250954
9.32027e-07
0.0025086
9.42692e-07
0.00250764
9.5781e-07
0.00250667
9.74451e-07
0.00250568
9.90131e-07
0.00250467
1.00295e-06
0.00250366
1.01164e-06
0.00250265
1.01556e-06
0.00250163
1.01463e-06
0.00250062
1.00917e-06
0.00249962
9.99824e-07
0.00249864
9.87339e-07
0.00249766
9.72481e-07
0.00249671
9.55902e-07
0.00249577
9.38058e-07
0.00249485
9.19168e-07
0.00249395
8.99204e-07
0.00249307
8.7791e-07
0.00249222
8.54856e-07
0.00249139
8.29471e-07
0.00249059
8.01065e-07
0.00248982
7.68751e-07
0.00248909
7.31275e-07
0.0024884
6.86703e-07
0.00248777
6.32023e-07
0.00248721
5.6284e-07
0.00248673
4.7309e-07
0.00248638
3.55852e-07
0.00248617
2.03192e-07
0.00248616
1.07845e-08
0.00248639
-2.26484e-07
0.00248689
-4.96709e-07
0.00248769
-8.03593e-07
0.00248878
-1.0898e-06
0.00249019
-1.40447e-06
0.00249173
-1.54796e-06
0.00249358
-1.8454e-06
-1.551e-06
0.00250271
-5.43718e-06
0.00251086
-1.63635e-05
0.00252477
-2.78985e-05
0.00254487
-4.02748e-05
0.00257163
-5.35326e-05
0.0026053
-6.72357e-05
0.00264572
-8.05352e-05
0.00269186
-9.17677e-05
0.00274178
-9.91514e-05
0.00279256
-0.000100817
0.00284077
-9.5802e-05
0.00288396
-8.59866e-05
0.0029206
-7.30984e-05
0.00295008
-5.8955e-05
0.00297261
-4.51195e-05
0.00298873
-3.22634e-05
0.0029988
-2.00373e-05
0.0030025
-7.11556e-06
0.00299856
8.27003e-06
0.00298504
2.73501e-05
0.0029602
4.96666e-05
0.00292374
7.24354e-05
0.00287763
9.12459e-05
0.00282611
0.000101674
0.00277503
0.000100642
0.0027308
8.69729e-05
0.00269955
6.12908e-05
0.00268623
2.59291e-05
0.00269378
-1.50477e-05
0.00272209
-5.56026e-05
0.00276692
-8.75789e-05
0.00281919
-0.000101756
0.00286616
-9.11856e-05
0.00289502
-5.58148e-05
0.00289744
-4.31222e-06
0.00287219
4.96916e-05
0.00282436
9.39744e-05
0.00276253
0.000121585
0.00269614
0.000130618
0.00263412
0.000121928
0.00258459
9.699e-05
0.00255521
5.6749e-05
0.00255351
1.68673e-06
0.00258653
-6.69156e-05
0.002659
-0.000144143
0.00276957
-0.000217912
0.00290628
-0.000267834
0.00304507
-0.00027112
0.00315544
-0.000215653
0.00321227
-0.000111706
0.00320661
9.871e-06
0.0031477
0.00011406
0.0030559
0.000179253
0.00295265
0.000202828
0.00285424
0.000194241
0.0027706
0.000165697
0.00270676
0.000126826
0.00266474
8.36452e-05
0.00264488
3.97895e-05
0.00264602
-1.73702e-06
0.00266522
-3.72826e-05
0.00269726
-6.24675e-05
0.00273485
-7.33473e-05
0.00276978
-6.81691e-05
0.00279469
-4.86801e-05
0.00280492
-2.00186e-05
0.00279931
1.09805e-05
0.00277989
3.81042e-05
0.00275069
5.74628e-05
0.0027163
6.78598e-05
0.00268084
7.01277e-05
0.00264749
6.6132e-05
0.00261832
5.79584e-05
0.00259448
4.74536e-05
0.00257641
3.60666e-05
0.00256399
2.48618e-05
0.00255675
1.4595e-05
0.00255394
5.79653e-06
0.00255463
-1.1673e-06
0.00255779
-6.06807e-06
0.00256232
-8.8228e-06
0.00256719
-9.51673e-06
0.00257149
-8.41501e-06
0.00257453
-5.94384e-06
0.00257587
-2.63554e-06
0.00257539
9.51047e-07
0.00257321
4.31345e-06
0.00256963
7.07068e-06
0.00256508
8.99563e-06
0.00256002
1.00142e-05
0.00255488
1.01794e-05
0.00255002
9.63352e-06
0.00254571
8.56717e-06
0.00254211
7.18463e-06
0.00253926
5.67736e-06
0.00253716
4.20718e-06
0.00253572
2.89762e-06
0.00253482
1.83158e-06
0.00253431
1.05331e-06
0.00253404
5.72951e-07
0.00253387
3.72618e-07
0.00253367
4.13128e-07
0.00253336
6.4106e-07
0.00253287
9.95816e-07
0.00253216
1.41631e-06
0.00253123
1.84674e-06
0.00253011
2.24102e-06
0.00252882
2.56552e-06
0.00252741
2.80012e-06
0.00252594
2.93765e-06
0.00252444
2.98207e-06
0.00252296
2.94584e-06
0.00252153
2.84691e-06
0.00252017
2.70579e-06
0.0025189
2.54294e-06
0.00251771
2.37677e-06
0.0025166
2.22224e-06
0.00251555
2.09016e-06
0.00251456
1.98701e-06
0.0025136
1.91526e-06
0.00251266
1.87393e-06
0.00251173
1.85946e-06
0.0025108
1.8665e-06
0.00250985
1.88883e-06
0.00250889
1.92005e-06
0.00250791
1.95425e-06
0.00250691
1.9864e-06
0.0025059
2.01269e-06
0.00250489
2.03057e-06
0.00250386
2.0388e-06
0.00250284
2.03722e-06
0.00250182
2.02653e-06
0.00250081
2.00803e-06
0.00249982
1.98329e-06
0.00249884
1.95385e-06
0.00249787
1.92105e-06
0.00249692
1.88582e-06
0.00249599
1.84861e-06
0.00249508
1.80937e-06
0.00249419
1.7676e-06
0.00249333
1.7224e-06
0.00249248
1.67264e-06
0.00249167
1.61691e-06
0.00249088
1.55343e-06
0.00249013
1.4797e-06
0.00248943
1.39191e-06
0.00248878
1.28418e-06
0.00248819
1.14789e-06
0.00248769
9.71205e-07
0.00248731
7.40539e-07
0.00248707
4.4034e-07
0.00248702
6.19364e-08
0.0024872
-4.04697e-07
0.00248764
-9.36746e-07
0.00248838
-1.54101e-06
0.00248939
-2.10622e-06
0.00249072
-2.72687e-06
0.00249218
-3.01343e-06
0.00249394
-3.60133e-06
-3.02637e-06
0.00250266
-8.09966e-06
0.00251068
-2.43848e-05
0.00252441
-4.16291e-05
0.00254436
-6.02203e-05
0.00257109
-8.02586e-05
0.00260497
-0.00010112
0.00264598
-0.000121544
0.00269315
-0.000138935
0.0027445
-0.000150506
0.00279682
-0.00015314
0.00284627
-0.000145243
0.00289027
-0.000129994
0.00292729
-0.000110113
0.00295679
-8.84575e-05
0.00297917
-6.75028e-05
0.00299522
-4.83128e-05
0.00300551
-3.03284e-05
0.00300979
-1.13951e-05
0.00300665
1.14184e-05
0.00299374
4.02548e-05
0.00296886
7.45525e-05
0.00293134
0.000109947
0.00288317
0.000139419
0.00282888
0.000155963
0.00277474
0.000154779
0.00272764
0.000134075
0.00269413
9.48019e-05
0.00267962
4.04418e-05
0.00268752
-2.29499e-05
0.00271817
-8.62498e-05
0.00276737
-0.000136783
0.00282538
-0.000159767
0.00287791
-0.000143712
0.00291033
-8.82386e-05
0.00291331
-7.28639e-06
0.00288583
7.71658e-05
0.00283405
0.000145755
0.00276767
0.000187967
0.00269683
0.000201459
0.00263068
0.000188078
0.00257732
0.000150349
0.00254443
8.96443e-05
0.00253986
6.24817e-06
0.00257176
-9.88111e-05
0.00264672
-0.000219106
0.00276505
-0.000336243
0.00291433
-0.000417107
0.00306692
-0.000423716
0.00318715
-0.000335881
0.00324634
-0.0001709
0.00323563
2.05848e-05
0.00316729
0.000182405
0.00306547
0.000281069
0.0029542
0.000314094
0.00285056
0.000297887
0.00276403
0.000252229
0.00269888
0.000191974
0.00265663
0.000125893
0.00263743
5.89881e-05
0.00264024
-4.54315e-06
0.00266216
-5.92084e-05
0.0026978
-9.81016e-05
0.00273929
-0.000114843
0.00277762
-0.000106498
0.0028047
-7.57584e-05
0.00281548
-3.07966e-05
0.00280894
1.75168e-05
0.00278765
5.93988e-05
0.00275623
8.88811e-05
0.00271977
0.000104317
0.00268268
0.000107218
0.0026482
0.000100617
0.00261837
8.77887e-05
0.00259426
7.15632e-05
0.0025762
5.4122e-05
0.00256402
3.70464e-05
0.00255716
2.14507e-05
0.00255484
8.11614e-06
0.00255609
-2.41411e-06
0.00255982
-9.79543e-06
0.00256489
-1.38988e-05
0.00257023
-1.48517e-05
0.00257487
-1.30603e-05
0.00257811
-9.18235e-06
0.00257952
-4.04118e-06
0.00257897
1.49974e-06
0.00257661
6.66704e-06
0.00257281
1.08789e-05
0.00256801
1.37941e-05
0.00256271
1.53086e-05
0.00255738
1.55135e-05
0.00255238
1.46343e-05
0.00254798
1.29684e-05
0.00254433
1.08309e-05
0.00254149
8.51502e-06
0.00253943
6.26695e-06
0.00253806
4.27321e-06
0.00253723
2.6579e-06
0.0025368
1.48608e-06
0.0025366
7.71023e-07
0.00253649
4.83565e-07
0.00253634
5.62464e-07
0.00253606
9.25096e-07
0.00253557
1.47823e-06
0.00253486
2.12822e-06
0.00253392
2.78985e-06
0.00253277
3.39301e-06
0.00253145
3.88689e-06
0.00253
4.24149e-06
0.0025285
4.44665e-06
0.00252697
4.5092e-06
0.00252547
4.44884e-06
0.00252402
4.29353e-06
0.00252265
4.07492e-06
0.00252137
3.82443e-06
0.00252017
3.57015e-06
0.00251906
3.33482e-06
0.00251802
3.13472e-06
0.00251703
2.97947e-06
0.00251607
2.87255e-06
0.00251513
2.81224e-06
0.0025142
2.79286e-06
0.00251326
2.80611e-06
0.0025123
2.84236e-06
0.00251133
2.89181e-06
0.00251034
2.94542e-06
0.00250933
2.99557e-06
0.00250831
3.03649e-06
0.00250727
3.06441e-06
0.00250623
3.0775e-06
0.0025052
3.07563e-06
0.00250416
3.05997e-06
0.00250314
3.03258e-06
0.00250213
2.99588e-06
0.00250113
2.95231e-06
0.00250014
2.90393e-06
0.00249918
2.85217e-06
0.00249823
2.79773e-06
0.0024973
2.74054e-06
0.00249639
2.67982e-06
0.00249549
2.61422e-06
0.00249462
2.54197e-06
0.00249378
2.46092e-06
0.00249297
2.36836e-06
0.00249218
2.26056e-06
0.00249144
2.13191e-06
0.00249075
1.97382e-06
0.00249013
1.7738e-06
0.00248959
1.5147e-06
0.00248915
1.17678e-06
0.00248885
7.37499e-07
0.00248873
1.83984e-07
0.00248882
-4.98133e-07
0.00248916
-1.27659e-06
0.00248978
-2.16009e-06
0.00249067
-2.98898e-06
0.00249184
-3.89704e-06
0.00249314
-4.32125e-06
0.00249472
-5.18297e-06
-4.34713e-06
0.00250259
-1.06903e-05
0.0025104
-3.21984e-05
0.00252385
-5.50722e-05
0.00254353
-7.98999e-05
0.00257016
-0.000106893
0.00260433
-0.000135286
0.00264621
-0.000163426
0.00269494
-0.000187669
0.00274852
-0.000204086
0.00280325
-0.000207866
0.00285459
-0.000196587
0.00289983
-0.000175232
0.00293738
-0.000147661
0.00296686
-0.000117937
0.00298896
-8.96074e-05
0.00300486
-6.42049e-05
0.00301545
-4.09246e-05
0.00302063
-1.65782e-05
0.00301877
1.32863e-05
0.0030069
5.21178e-05
0.00298203
9.94281e-05
0.00294295
0.000149027
0.00289162
0.000190749
0.00283305
0.000214527
0.00277421
0.000213619
0.00272268
0.000185607
0.00268567
0.000131811
0.00266927
5.68433e-05
0.00267764
-3.13196e-05
0.00271183
-0.000120436
0.00276784
-0.000192798
0.0028349
-0.000226825
0.00289621
-0.000205026
0.00293423
-0.000126259
0.00293795
-1.10019e-05
0.00290678
0.000108334
0.00284866
0.000203879
0.00277513
0.000261498
0.00269744
0.000279142
0.00262508
0.000260438
0.00256603
0.000209404
0.00252784
0.000127837
0.00251892
1.51647e-05
0.00254917
-0.000129062
0.00262761
-0.000297552
0.00275627
-0.000464896
0.00292294
-0.000583784
0.00309703
-0.000597802
0.00323501
-0.000473859
0.00330002
-0.000235911
0.00328164
3.89649e-05
0.00319756
0.000266489
0.00307916
0.000399465
0.00295507
0.00043818
0.00284343
0.000409528
0.00275275
0.000342911
0.00268592
0.000258801
0.00264357
0.000168249
0.00262557
7.69827e-05
0.00263106
-1.00319e-05
0.00265731
-8.54556e-05
0.00269863
-0.000139422
0.00274629
-0.000162501
0.00278995
-0.00015016
0.00282034
-0.00010615
0.00283184
-4.22975e-05
0.00282369
2.56676e-05
0.0027993
8.37926e-05
0.0027643
0.000123877
0.00272457
0.000144046
0.00268494
0.000146853
0.00264874
0.000136813
0.00261796
0.000118573
0.0025935
9.60219e-05
0.00257555
7.20746e-05
0.00256379
4.88038e-05
0.00255759
2.76532e-05
0.00255607
9.63258e-06
0.0025582
-4.54746e-06
0.00256283
-1.44253e-05
0.00256875
-1.9821e-05
0.00257481
-2.09042e-05
0.00257998
-1.82338e-05
0.00258352
-1.2723e-05
0.002585
-5.5183e-06
0.00258432
2.18008e-06
0.00258168
9.30336e-06
0.0025775
1.5057e-05
0.00257231
1.8987e-05
0.00256665
2.09698e-05
0.00256101
2.11504e-05
0.00255579
1.98545e-05
0.00255126
1.75006e-05
0.00254756
1.45259e-05
0.00254475
1.13326e-05
0.00254276
8.25467e-06
0.00254149
5.54285e-06
0.00254079
3.36152e-06
0.00254048
1.79441e-06
0.00254039
8.55084e-07
0.00254038
4.99958e-07
0.0025403
6.42429e-07
0.00254006
1.16746e-06
0.00253959
1.94623e-06
0.00253887
2.85008e-06
0.00253789
3.76254e-06
0.0025367
4.58843e-06
0.00253532
5.25947e-06
0.00253383
5.73614e-06
0.00253227
6.00623e-06
0.0025307
6.08065e-06
0.00252916
5.98775e-06
0.00252769
5.76677e-06
0.0025263
5.46166e-06
0.00252501
5.11567e-06
0.00252381
4.76717e-06
0.0025227
4.44692e-06
0.00252166
4.17671e-06
0.00252067
3.96913e-06
0.00251971
3.82836e-06
0.00251877
3.75153e-06
0.00251784
3.73044e-06
0.00251689
3.75343e-06
0.00251592
3.80714e-06
0.00251494
3.87808e-06
0.00251393
3.95392e-06
0.0025129
4.02432e-06
0.00251185
4.08156e-06
0.0025108
4.12066e-06
0.00250974
4.13935e-06
0.00250867
4.13763e-06
0.00250762
4.11729e-06
0.00250657
4.08127e-06
0.00250553
4.03302e-06
0.00250451
3.97593e-06
0.0025035
3.91286e-06
0.00250251
3.84579e-06
0.00250153
3.7757e-06
0.00250057
3.70247e-06
0.00249962
3.62505e-06
0.00249869
3.54157e-06
0.00249779
3.44959e-06
0.0024969
3.34615e-06
0.00249604
3.22755e-06
0.00249521
3.08883e-06
0.00249442
2.92266e-06
0.00249368
2.71798e-06
0.00249299
2.45886e-06
0.00249238
2.12349e-06
0.00249187
1.68667e-06
0.00249149
1.1199e-06
0.00249127
4.06346e-07
0.00249124
-4.71683e-07
0.00249144
-1.47441e-06
0.00249189
-2.61041e-06
0.00249258
-3.67989e-06
0.00249353
-4.84614e-06
0.00249461
-5.39869e-06
0.00249593
-6.50489e-06
-5.43714e-06
0.00250249
-1.31773e-05
0.00251
-3.97113e-05
0.00252302
-6.809e-05
0.00254228
-9.91639e-05
0.00256872
-0.00013333
0.00260319
-0.000169754
0.0026462
-0.000206436
0.00269706
-0.000238532
0.00275376
-0.000260788
0.00281187
-0.000265976
0.00286584
-0.000250555
0.00291273
-0.000222117
0.00295092
-0.000185861
0.00298026
-0.00014727
0.00300185
-0.000111203
0.00301743
-7.97787e-05
0.00302841
-5.19077e-05
0.00303491
-2.30787e-05
0.00303498
1.32136e-05
0.00302477
6.23287e-05
0.00300007
0.000124126
0.00295889
0.000190212
0.00290318
0.000246462
0.00283866
0.000279046
0.00277328
0.000278995
0.00271559
0.000243303
0.00267365
0.000173744
0.00265446
7.60319e-05
0.00266324
-4.00976e-05
0.00270215
-0.00015934
0.00276764
-0.000258295
0.00284758
-0.000306761
0.00292154
-0.000278988
0.00296759
-0.000172309
0.00297224
-1.56498e-05
0.00293563
0.000144943
0.00286844
0.000271073
0.00278494
0.000344995
0.00269794
0.000366138
0.00261727
0.000341113
0.00255055
0.000276121
0.00250516
0.000173225
0.00249041
2.99212e-05
0.00251742
-0.000156075
0.00259483
-0.000374963
0.00272474
-0.000594807
0.00290035
-0.000759392
0.0030975
-0.000794952
0.00326761
-0.000643965
0.00335604
-0.00032435
0.00333924
5.57704e-05
0.00323827
0.000367454
0.0030973
0.000540443
0.00295492
0.000580552
0.00283224
0.000532209
0.00273628
0.000438876
0.00266757
0.000327504
0.00262529
0.000210538
0.00260897
9.32979e-05
0.00261813
-1.91906e-05
0.00265043
-0.000117759
0.00269988
-0.000188869
0.00275637
-0.000218993
0.00280756
-0.000201353
0.00284243
-0.000141019
0.00285465
-5.45158e-05
0.00284394
3.63767e-05
0.002815
0.000112739
0.00277489
0.000163979
0.0027306
0.000188345
0.00268748
0.00018997
0.002649
0.000175293
0.00261698
0.000150588
0.00259212
0.000120886
0.00257437
8.98269e-05
0.00256324
5.99332e-05
0.00255796
3.29328e-05
0.00255756
1.0032e-05
0.00256092
-7.90535e-06
0.00256679
-2.02979e-05
0.00257387
-2.69061e-05
0.00258091
-2.79401e-05
0.0025868
-2.41265e-05
0.00259075
-1.66678e-05
0.00259231
-7.07852e-06
0.00259143
3.05844e-06
0.00258839
1.23446e-05
0.00258369
1.97566e-05
0.00257795
2.47298e-05
0.00257178
2.71376e-05
0.00256573
2.72013e-05
0.00256021
2.53705e-05
0.00255551
2.22052e-05
0.00255175
1.82797e-05
0.00254897
1.41146e-05
0.00254709
1.01368e-05
0.00254597
6.66198e-06
0.00254544
3.89336e-06
0.0025453
1.9302e-06
0.00254538
7.82334e-07
0.00254549
3.87324e-07
0.0025455
6.28695e-07
0.00254531
1.35459e-06
0.00254486
2.39658e-06
0.00254413
3.58762e-06
0.00254311
4.77755e-06
0.00254186
5.84473e-06
0.00254041
6.70305e-06
0.00253884
7.3041e-06
0.00253722
7.63487e-06
0.00253558
7.71217e-06
0.002534
7.57485e-06
0.00253249
7.27529e-06
0.00253108
6.87129e-06
0.00252977
6.4191e-06
0.00252857
5.96812e-06
0.00252746
5.5575e-06
0.00252643
5.21453e-06
0.00252544
4.9545e-06
0.00252449
4.78185e-06
0.00252355
4.69199e-06
0.0025226
4.67364e-06
0.00252165
4.71122e-06
0.00252067
4.7872e-06
0.00251966
4.88403e-06
0.00251863
4.98583e-06
0.00251757
5.07945e-06
0.0025165
5.15517e-06
0.00251541
5.20692e-06
0.00251432
5.23207e-06
0.00251323
5.23098e-06
0.00251214
5.20623e-06
0.00251106
5.16186e-06
0.00250999
5.10249e-06
0.00250893
5.0326e-06
0.00250789
4.95596e-06
0.00250686
4.87514e-06
0.00250584
4.79141e-06
0.00250484
4.70461e-06
0.00250385
4.61337e-06
0.00250288
4.51528e-06
0.00250192
4.40715e-06
0.00250098
4.28512e-06
0.00250006
4.14445e-06
0.00249917
3.97892e-06
0.00249832
3.77957e-06
0.0024975
3.53317e-06
0.00249674
3.22079e-06
0.00249605
2.81681e-06
0.00249544
2.2915e-06
0.00249495
1.61163e-06
0.0024946
7.56944e-07
0.00249442
-2.92185e-07
0.00249444
-1.49076e-06
0.00249467
-2.84433e-06
0.00249511
-4.12372e-06
0.00249578
-5.50815e-06
0.00249655
-6.17621e-06
0.00249753
-7.48308e-06
-6.22336e-06
0.00250234
-1.5522e-05
0.00250944
-4.68104e-05
0.00252186
-8.05078e-05
0.00254051
-0.000117808
0.00256657
-0.000159392
0.00260129
-0.000204477
0.00264564
-0.000250788
0.00269923
-0.000292119
0.0027601
-0.000321664
0.00282276
-0.000328629
0.00288015
-0.000307945
0.00292911
-0.000271078
0.00296803
-0.000224785
0.00299701
-0.000176244
0.00301774
-0.000131939
0.00303271
-9.4749e-05
0.00304409
-6.32829e-05
0.00305235
-3.13363e-05
0.00305518
1.03835e-05
0.00304747
7.00375e-05
0.00302332
0.000148275
0.00297955
0.000233976
0.00291814
0.000307877
0.00284579
0.000351395
0.00277181
0.000352974
0.00270597
0.00030914
0.00265744
0.000222282
0.00263429
9.91731e-05
0.00264318
-4.89843e-05
0.00268791
-0.000204073
0.00276589
-0.000336267
0.0028633
-0.000404171
0.00295466
-0.000370353
0.00301172
-0.00022937
0.00301744
-2.13713e-05
0.00297315
0.000189238
0.0028936
0.000350619
0.00279697
0.000441625
0.00269809
0.000465022
0.00260698
0.00043222
0.00253065
0.000352455
0.00247644
0.000227438
0.00245394
5.24177e-05
0.00247118
-0.000173318
0.00253146
-0.000435243
0.0026399
-0.000703244
0.00280471
-0.000924207
0.00301737
-0.00100761
0.00323087
-0.000857457
0.00337034
-0.000463826
0.00338345
4.26619e-05
0.0032806
0.000470304
0.00311852
0.000702523
0.00295377
0.000745303
0.00281656
0.000669417
0.00271395
0.000541492
0.00264326
0.000398189
0.00260131
0.000252488
0.00258715
0.000107462
0.00260101
-3.30579e-05
0.00264138
-0.00015812
0.00270186
-0.000249351
0.00277037
-0.000287506
0.00283164
-0.000262624
0.00287219
-0.000181569
0.00288485
-6.71786e-05
0.00287023
5.10033e-05
0.00283488
0.000148091
0.00278787
0.000210989
0.00273757
0.000238641
0.00269002
0.000237524
0.00264872
0.000216594
0.00261525
0.000184056
0.00258997
0.000146161
0.00257255
0.000107246
0.00256228
7.02108e-05
0.0025582
3.70052e-05
0.00255925
8.98863e-06
0.00256418
-1.28384e-05
0.00257165
-2.77685e-05
0.00258023
-3.54872e-05
0.00258853
-3.62395e-05
0.00259534
-3.0938e-05
0.00259979
-2.11187e-05
0.00260144
-8.72571e-06
0.00260028
4.21468e-06
0.0025967
1.59288e-05
0.00259131
2.51442e-05
0.00258485
3.11903e-05
0.00257803
3.39597e-05
0.00257145
3.37812e-05
0.00256556
3.12591e-05
0.00256064
2.71214e-05
0.00255683
2.20986e-05
0.0025541
1.68418e-05
0.00255236
1.18761e-05
0.00255144
7.58316e-06
0.00255113
4.20237e-06
0.00255121
1.8443e-06
0.00255149
5.09724e-07
0.00255176
1.11632e-07
0.00255189
4.97899e-07
0.00255177
1.47426e-06
0.00255134
2.82756e-06
0.00255058
4.34818e-06
0.00254951
5.84918e-06
0.00254817
7.18075e-06
0.00254664
8.23863e-06
0.00254498
8.96631e-06
0.00254326
9.3518e-06
0.00254155
9.42004e-06
0.0025399
9.22285e-06
0.00253835
8.82812e-06
0.00253691
8.30946e-06
0.00253559
7.73757e-06
0.00253439
7.17381e-06
0.00253328
6.66614e-06
0.00253225
6.24729e-06
0.00253127
5.93489e-06
0.00253032
5.73303e-06
0.00252937
5.63469e-06
0.00252842
5.62475e-06
0.00252745
5.68306e-06
0.00252645
5.7873e-06
0.00252542
5.91545e-06
0.00252436
6.04779e-06
0.00252327
6.16819e-06
0.00252216
6.26496e-06
0.00252103
6.331e-06
0.0025199
6.36355e-06
0.00251877
6.36352e-06
0.00251764
6.33458e-06
0.00251652
6.28207e-06
0.00251541
6.21201e-06
0.00251431
6.13013e-06
0.00251323
6.04118e-06
0.00251216
5.94843e-06
0.00251109
5.85342e-06
0.00251004
5.75598e-06
0.002509
5.65437e-06
0.00250797
5.54557e-06
0.00250695
5.42557e-06
0.00250595
5.28956e-06
0.00250496
5.13166e-06
0.002504
4.94436e-06
0.00250306
4.71716e-06
0.00250216
4.43495e-06
0.0025013
4.07635e-06
0.00250051
3.61287e-06
0.00249979
3.01129e-06
0.00249916
2.23522e-06
0.00249866
1.26164e-06
0.00249829
7.08256e-08
0.00249809
-1.28951e-06
0.00249807
-2.81825e-06
0.00249821
-4.26984e-06
0.00249853
-5.82202e-06
0.00249894
-6.58964e-06
0.00249949
-8.03775e-06
-6.6389e-06
0.00250216
-1.76778e-05
0.0025087
-5.33578e-05
0.0025203
-9.21054e-05
0.00253805
-0.000135559
0.00256347
-0.000184807
0.00259829
-0.000239302
0.00264413
-0.000296625
0.00270107
-0.000349058
0.00276739
-0.000387985
0.00283599
-0.000397233
0.0028977
-0.000369653
0.00294915
-0.000322532
0.00298878
-0.000264407
0.00301701
-0.000204479
0.00303635
-0.000151277
0.0030503
-0.000108699
0.00306208
-7.50594e-05
0.00307273
-4.19869e-05
0.00307948
3.62461e-06
0.00307549
7.40317e-05
0.00305244
0.000171325
0.00300554
0.00028088
0.00293682
0.000376594
0.00285444
0.000433781
0.00276949
0.000437921
0.00269328
0.000385352
0.00263618
0.00027938
0.00260757
0.000127786
0.00261586
-5.72744e-05
0.00266749
-0.00025571
0.00276193
-0.000430701
0.00288319
-0.000525436
0.00299804
-0.0004852
0.00306926
-0.000300594
0.00307554
-2.76518e-05
0.00302035
0.000244429
0.00292434
0.00044663
0.00281095
0.000555011
0.00269748
0.000578494
0.00259385
0.00053585
0.0025063
0.000440011
0.00244198
0.000291748
0.002407
8.74066e-05
0.00240024
-0.000166566
0.00242375
-0.000458751
0.00249915
-0.000778643
0.00265183
-0.00107688
0.00287658
-0.00123236
0.00312562
-0.0011065
0.00331947
-0.000657682
0.00338396
-2.18277e-05
0.00330425
0.000550019
0.00313498
0.000871789
0.00295024
0.000930043
0.00279641
0.000823248
0.00268546
0.000652438
0.00261241
0.000471241
0.00257102
0.000293883
0.00255948
0.000118996
0.00257889
-5.24653e-05
0.00262836
-0.000207588
0.002701
-0.000321996
0.00278325
-0.000369754
0.0028573
-0.000336677
0.00290638
-0.000230645
0.00292105
-8.18457e-05
0.00290221
6.98367e-05
0.00285887
0.000191437
0.00280302
0.000266841
0.00274513
0.000296522
0.00269213
0.000290524
0.00264752
0.000261212
0.00261245
0.00021912
0.00258683
0.000171782
0.00256993
0.000124143
0.00256077
7.93746e-05
0.00255822
3.95608e-05
0.00256105
6.1581e-06
0.00256792
-1.97148e-05
0.00257736
-3.72108e-05
0.00258779
-4.59147e-05
0.00259765
-4.60953e-05
0.00260558
-3.88724e-05
0.00261064
-2.61729e-05
0.00261236
-1.04501e-05
0.00261083
5.74731e-06
0.00260654
2.02137e-05
0.00260028
3.14038e-05
0.00259292
3.8549e-05
0.00258529
4.15913e-05
0.00257807
4.1007e-05
0.00257173
3.7595e-05
0.00256657
3.22839e-05
0.00256268
2.59838e-05
0.00256004
1.94901e-05
0.00255848
1.34319e-05
0.00255781
8.25698e-06
0.00255777
4.23738e-06
0.00255813
1.48909e-06
0.00255864
-2.9815e-09
0.00255911
-3.57524e-07
0.00255938
2.30643e-07
0.00255933
1.51813e-06
0.00255892
3.24101e-06
0.00255812
5.14205e-06
0.00255698
6.99404e-06
0.00255554
8.61705e-06
0.00255389
9.88836e-06
0.00255211
1.07445e-05
0.00255029
1.11768e-05
0.00254849
1.1221e-05
0.00254677
1.0945e-05
0.00254516
1.0435e-05
0.00254369
9.78278e-06
0.00254235
9.0752e-06
0.00254114
8.38664e-06
0.00254003
7.77427e-06
0.002539
7.27617e-06
0.00253802
6.91178e-06
0.00253707
6.68408e-06
0.00253612
6.58275e-06
0.00253516
6.58797e-06
0.00253417
6.67417e-06
0.00253314
6.81359e-06
0.00253208
6.97925e-06
0.00253098
7.14724e-06
0.00252985
7.29836e-06
0.00252869
7.41892e-06
0.00252753
7.50095e-06
0.00252635
7.54178e-06
0.00252517
7.54316e-06
0.00252399
7.5101e-06
0.00252282
7.44956e-06
0.00252167
7.36915e-06
0.00252052
7.27605e-06
0.00251939
7.17613e-06
0.00251826
7.07338e-06
0.00251714
6.96968e-06
0.00251604
6.8648e-06
0.00251493
6.75661e-06
0.00251384
6.64145e-06
0.00251275
6.51442e-06
0.00251167
6.36963e-06
0.0025106
6.20003e-06
0.00250955
5.99681e-06
0.00250852
5.74799e-06
0.00250752
5.43689e-06
0.00250655
5.04025e-06
0.00250564
4.52769e-06
0.00250478
3.86369e-06
0.00250401
3.01043e-06
0.00250333
1.94304e-06
0.00250275
6.43797e-07
0.0025023
-8.3944e-07
0.00250198
-2.49458e-06
0.00250179
-4.07454e-06
0.0025017
-5.73465e-06
0.00250169
-6.58367e-06
0.00250175
-8.09737e-06
-6.62732e-06
0.00250191
-1.95893e-05
0.00250774
-5.9188e-05
0.00251824
-0.000102609
0.00253474
-0.000152051
0.0025591
-0.000209173
0.00259374
-0.000273934
0.00264108
-0.000343973
0.00270204
-0.000410012
0.0027754
-0.000461343
0.00285171
-0.000473551
0.00291876
-0.000436698
0.00297314
-0.000376913
0.00301337
-0.000304639
0.00304034
-0.000231446
0.0030575
-0.000168434
0.00306971
-0.00012091
0.00308166
-8.70084e-05
0.00309531
-5.56438e-05
0.00310747
-8.53202e-06
0.00310893
7.25701e-05
0.00308801
0.000192244
0.00303758
0.00033131
0.0029598
0.000454378
0.00286481
0.000528771
0.00276613
0.000536594
0.00267694
0.000474548
0.00260893
0.000347384
0.00257279
0.000163931
0.00257925
-6.37382e-05
0.00263944
-0.000315893
0.00275692
-0.000548186
0.00291213
-0.000680648
0.00305886
-0.000631926
0.00314677
-0.000388501
0.00315065
-3.1539e-05
0.0030789
0.000316185
0.00296072
0.000564807
0.0028263
0.00068943
0.00269545
0.000709347
0.0025775
0.0006538
0.00247787
0.000539636
0.00240141
0.000368211
0.00234463
0.000144188
0.0022999
-0.000121834
0.00228664
-0.000445495
0.00235176
-0.000843764
0.00251783
-0.00124295
0.00275792
-0.00147245
0.00301875
-0.00136732
0.00323548
-0.000874419
0.00333864
-0.00012498
0.00329287
0.000595781
0.00313377
0.00103089
0.00293919
0.00112462
0.002771
0.00099144
0.00265095
0.000772491
0.00257482
0.000547373
0.00253392
0.000334783
0.00252507
0.000127839
0.00254858
-7.59681e-05
0.00260215
-0.000261166
0.00267916
-0.000399001
0.0027695
-0.000460094
0.00285787
-0.000425048
0.00292389
-0.000296661
0.00295055
-0.000108508
0.0029342
8.61852e-05
0.00288514
0.000240494
0.0028199
0.000332088
0.00275303
0.000363391
0.00269347
0.000350082
0.00264499
0.000309685
0.00260824
0.000255878
0.00258242
0.0001976
0.00256631
0.000140256
0.00255857
8.71128e-05
0.00255787
4.02606e-05
0.00256285
1.17973e-06
0.00257204
-2.89117e-05
0.00258384
-4.90027e-05
0.00259646
-5.85387e-05
0.00260816
-5.77938e-05
0.00261741
-4.81214e-05
0.00262315
-3.19119e-05
0.00262492
-1.22268e-05
0.0026229
7.76726e-06
0.00261775
2.53657e-05
0.00261043
3.87236e-05
0.00260199
4.69864e-05
0.0025934
5.01839e-05
0.00258542
4.89897e-05
0.00257857
4.44456e-05
0.00257313
3.77202e-05
0.00256919
2.99306e-05
0.00256664
2.2032e-05
0.00256531
1.47637e-05
0.00256493
8.6382e-06
0.00256521
3.95478e-06
0.00256587
8.27024e-07
0.00256666
-7.8457e-07
0.00256734
-1.03896e-06
0.00256775
-1.81893e-07
0.00256778
1.48655e-06
0.00256738
3.64508e-06
0.00256654
5.98354e-06
0.0025653
8.23066e-06
0.00256374
1.01745e-05
0.00256196
1.16737e-05
0.00256004
1.26593e-05
0.00255809
1.31284e-05
0.00255618
1.31311e-05
0.00255437
1.27546e-05
0.0025527
1.21067e-05
0.00255118
1.12998e-05
0.00254982
1.04389e-05
0.00254859
9.61255e-06
0.00254748
8.88741e-06
0.00254645
8.30669e-06
0.00254547
7.89102e-06
0.00254451
7.64134e-06
0.00254355
7.54305e-06
0.00254257
7.57063e-06
0.00254155
7.69226e-06
0.00254049
7.87404e-06
0.00253939
8.08349e-06
0.00253824
8.29226e-06
0.00253706
8.4779e-06
0.00253586
8.6248e-06
0.00253463
8.72428e-06
0.0025334
8.77401e-06
0.00253217
8.7769e-06
0.00253094
8.73959e-06
0.00252972
8.67093e-06
0.0025285
8.58038e-06
0.0025273
8.47672e-06
0.00252611
8.36705e-06
0.00252493
8.25616e-06
0.00252375
8.14631e-06
0.00252258
8.03719e-06
0.00252141
7.92627e-06
0.00252024
7.80918e-06
0.00251908
7.6801e-06
0.00251792
7.53203e-06
0.00251676
7.35669e-06
0.00251561
7.14393e-06
0.00251448
6.88043e-06
0.00251337
6.5482e-06
0.00251229
6.12272e-06
0.00251124
5.57271e-06
0.00251024
4.86158e-06
0.0025093
3.95191e-06
0.00250843