/*--------------------------------*- C++ -*----------------------------------*\
  =========                 |
  \\      /  F ield         | OpenFOAM: The Open Source CFD Toolbox
   \\    /   O peration     | Website:  https://openfoam.org
    \\  /    A nd           | Version:  11
     \\/     M anipulation  |
\*---------------------------------------------------------------------------*/
FoamFile
{
    format      ascii;
    class       surfaceScalarField;
    location    "17.34758";
    object      phi_0;
}
// * * * * * * * * * * * * * * * * * * * * * * * * * * * * * * * * * * * * * //

dimensions      [0 3 -1 0 0 0 0];

internalField   nonuniform List<scalar> 
14638
(
0.00250256
-2.56118e-06
0.00251045
-7.88573e-06
0.00252396
-1.35107e-05
0.00254326
-1.9298e-05
0.00256823
-2.49755e-05
0.00259828
-3.00522e-05
0.00263214
-3.38566e-05
0.00266759
-3.54539e-05
0.0027015
-3.39059e-05
0.00273007
-2.85685e-05
0.00274943
-1.93663e-05
0.00275748
-8.05026e-06
0.00275412
3.36076e-06
0.00274141
1.27152e-05
0.0027238
1.76124e-05
0.00270698
1.68116e-05
0.00269628
1.07056e-05
0.00269501
1.2673e-06
0.00270334
-8.33164e-06
0.00271772
-1.43768e-05
0.00273147
-1.37501e-05
0.00273705
-5.57791e-06
0.00272901
8.03951e-06
0.00270587
2.31393e-05
0.00267003
3.58442e-05
0.00262648
4.35492e-05
0.00258148
4.49948e-05
0.00254164
3.98378e-05
0.00251336
2.82815e-05
0.00250228
1.10847e-05
0.00251232
-1.00397e-05
0.00254404
-3.17207e-05
0.00259273
-4.86885e-05
0.00264792
-5.51942e-05
0.00269587
-4.79497e-05
0.00272437
-2.84951e-05
0.00272708
-2.71766e-06
0.00270489
2.21923e-05
0.00266401
4.08845e-05
0.00261301
5.09986e-05
0.00256063
5.23753e-05
0.00251494
4.56933e-05
0.00248333
3.16126e-05
0.00247247
1.086e-05
0.00248728
-1.48134e-05
0.0025286
-4.13152e-05
0.00259058
-6.19845e-05
0.00266027
-6.96886e-05
0.0027208
-6.05269e-05
0.0027573
-3.65006e-05
0.00276217
-4.87256e-06
0.00273678
2.53862e-05
0.00268931
4.7474e-05
0.00263074
5.85716e-05
0.00257167
5.90624e-05
0.00252108
5.05926e-05
0.00248651
3.4575e-05
0.00247447
1.20351e-05
0.00248969
-1.52143e-05
0.00253273
-4.30467e-05
0.00259758
-6.48482e-05
0.00267117
-7.35881e-05
0.00273639
-6.52266e-05
0.00277761
-4.1219e-05
0.00278591
-8.29274e-06
0.00276149
2.44128e-05
0.00271244
4.90559e-05
0.00265082
6.16155e-05
0.0025888
6.20178e-05
0.0025364
5.24082e-05
0.00250125
3.51446e-05
0.00248922
1.20341e-05
0.00250397
-1.47536e-05
0.00254522
-4.12438e-05
0.00260677
-6.15518e-05
0.00267652
-6.97514e-05
0.00273913
-6.2614e-05
0.00278051
-4.13738e-05
0.00279196
-1.1451e-05
0.00277242
1.95348e-05
0.00272805
4.43724e-05
0.00266965
5.83968e-05
0.00260937
6.02859e-05
0.002558
5.13639e-05
0.0025239
3.40992e-05
0.00251281
1.10991e-05
0.00252741
-1.4606e-05
0.00256617
-3.87595e-05
0.00262227
-5.61039e-05
0.00268433
-6.20534e-05
0.00273906
-5.47324e-05
0.00277498
-3.59212e-05
0.00278535
-1.03688e-05
0.00276944
1.59076e-05
0.00273205
3.73973e-05
0.00268173
5.03132e-05
0.00262871
5.30185e-05
0.00258291
4.58011e-05
0.00255261
3.02993e-05
0.00254353
9.08804e-06
0.00255781
-1.42823e-05
0.00259308
-3.52739e-05
0.00264222
-4.91363e-05
0.00269465
-5.24372e-05
0.00273911
-4.4457e-05
0.00276661
-2.74966e-05
0.00277254
-5.93297e-06
0.00275721
1.53308e-05
0.00272499
3.22235e-05
0.00268282
4.21649e-05
0.00263878
4.40398e-05
0.00260089
3.78925e-05
0.00257616
2.47298e-05
0.00256956
6.60037e-06
0.0025828
-1.32424e-05
0.00261341
-3.06122e-05
0.00265481
-4.13977e-05
0.00269777
-4.29598e-05
0.00273291
-3.51412e-05
0.00275319
-2.02784e-05
0.00275544
-2.24744e-06
0.00274055
1.48868e-05
0.00271258
2.79742e-05
0.00267737
3.52122e-05
0.00264141
3.59571e-05
0.00261107
3.03388e-05
0.00259195
1.91187e-05
0.00258804
3.91367e-06
0.00260059
-1.2553e-05
0.0026273
-2.67138e-05
0.00266242
-3.51109e-05
0.00269804
-3.56285e-05
0.00272635
-2.83104e-05
0.00274166
-1.53049e-05
0.00274167
-1.3701e-08
0.0027276
1.40766e-05
0.00270325
2.43486e-05
0.00267383
2.94208e-05
0.00264488
2.89454e-05
0.00262169
2.31957e-05
0.00260881
1.28795e-05
0.00260947
-6.59226e-07
0.00262462
-1.51551e-05
0.00265219
-2.75742e-05
0.00268709
-3.48945e-05
0.00272227
-3.51788e-05
0.00275061
-2.83452e-05
0.00276682
-1.62117e-05
0.00276867
-1.84815e-06
0.00275722
1.14495e-05
0.00273618
2.10422e-05
0.00271064
2.55428e-05
0.00268606
2.45743e-05
0.00266726
1.88051e-05
0.00265859
8.6659e-06
0.00266257
-3.97931e-06
0.00268169
-1.91188e-05
0.00271365
-3.19564e-05
0.00275832
-4.46732e-05
-4.91211e-05
0.00250255
-5.10916e-06
0.0025104
-1.57409e-05
0.00252389
-2.69958e-05
0.00254321
-3.8618e-05
0.00256831
-5.00745e-05
0.00259865
-6.03915e-05
0.00263301
-6.82208e-05
0.0026692
-7.16396e-05
0.00270399
-6.87025e-05
0.00273341
-5.79882e-05
0.0027533
-3.92571e-05
0.00276141
-1.61598e-05
0.00275758
7.19547e-06
0.00274387
2.64214e-05
0.00272498
3.65027e-05
0.00270696
3.48326e-05
0.00269548
2.21862e-05
0.00269416
2.59094e-06
0.00270327
-1.74447e-05
0.0027191
-3.02104e-05
0.00273451
-2.91534e-05
0.00274133
-1.24005e-05
0.00273372
1.56485e-05
0.00271015
4.67056e-05
0.00267324
7.27555e-05
0.00262826
8.85305e-05
0.00258168
9.15729e-05
0.00254026
8.1258e-05
0.00251057
5.79777e-05
0.00249851
2.31419e-05
0.00250843
-1.99594e-05
0.00254127
-6.45604e-05
0.00259234
-9.97612e-05
0.00265061
-0.000113467
0.00270134
-9.86736e-05
0.00273141
-5.85689e-05
0.00273419
-5.49921e-06
0.00271084
4.5549e-05
0.00266812
8.3602e-05
0.00261509
0.000104032
0.0025607
0.000106763
0.00251308
9.33101e-05
0.00247974
6.4949e-05
0.0024677
2.29017e-05
0.00248246
-2.95713e-05
0.00252535
-8.42096e-05
0.00259049
-0.000127124
0.00266407
-0.000143261
0.00272792
-0.000124378
0.00276614
-7.47254e-05
0.00277083
-9.56294e-06
0.00274377
5.24491e-05
0.00269388
9.73604e-05
0.00263282
0.000119637
0.00257149
0.000120393
0.00251887
0.000103212
0.00248247
7.09725e-05
0.00246898
2.5529e-05
0.00248353
-2.97663e-05
0.00252722
-8.67402e-05
0.00259425
-0.000131879
0.0026712
-0.000150534
0.00274001
-0.000134043
0.00278393
-8.51346e-05
0.00279326
-1.76227e-05
0.00276814
4.9538e-05
0.00271712
0.000100068
0.00265303
0.000125705
0.00258857
0.000126486
0.00253393
0.000107041
0.00249681
7.22652e-05
0.0024832
2.5641e-05
0.0024972
-2.87476e-05
0.00253892
-8.29662e-05
0.00260224
-0.000124871
0.00267458
-0.000142086
0.00273983
-0.000127864
0.00278321
-8.47601e-05
0.00279568
-2.39216e-05
0.00277612
3.90976e-05
0.00273085
8.96465e-05
0.00267096
0.000118286
0.00260887
0.00012237
0.00255565
0.000104586
0.00251991
6.98361e-05
0.0025078
2.32119e-05
0.00252247
-2.92703e-05
0.00256255
-7.88418e-05
0.00262092
-0.000114477
0.00268544
-0.00012657
0.00274203
-0.000111326
0.00277876
-7.26541e-05
0.00278891
-2.05184e-05
0.00277207
3.27472e-05
0.00273341
7.60662e-05
0.00268174
0.000101974
0.00262743
0.000107334
0.00258047
9.27541e-05
0.00254937
6.14031e-05
0.00254017
1.82893e-05
0.00255535
-2.94599e-05
0.00259253
-7.24544e-05
0.00264413
-0.000100733
0.00269882
-0.000107134
0.00274464
-9.02793e-05
0.00277229
-5.51439e-05
0.00277728
-1.09247e-05
0.00276033
3.22832e-05
0.00272628
6.62743e-05
0.00268245
8.59991e-05
0.00263709
8.93908e-05
0.00259836
7.66245e-05
0.00257341
4.96861e-05
0.00256738
1.26246e-05
0.00258211
-2.79686e-05
0.00261494
-6.34424e-05
0.00265878
-8.52409e-05
0.00270375
-8.79247e-05
0.00273991
-7.13026e-05
0.00276001
-4.03838e-05
0.00276105
-3.28437e-06
0.00274431
3.16296e-05
0.00271429
5.79951e-05
0.00267722
7.22793e-05
0.00263986
7.33155e-05
0.00260876
6.14426e-05
0.00258967
3.82034e-05
0.00258672
6.8658e-06
0.00260114
-2.69745e-05
0.00263034
-5.59104e-05
0.00266799
-7.27652e-05
0.00270559
-7.32253e-05
0.00273482
-5.7538e-05
0.00274983
-3.03177e-05
0.00274851
1.3099e-06
0.00273242
3.01642e-05
0.00270582
5.09465e-05
0.0026743
6.09415e-05
0.0026437
5.95419e-05
0.00261954
4.73566e-05
0.00260659
2.58314e-05
0.00260821
-2.28285e-06
0.00262534
-3.22808e-05
0.00265558
-5.78173e-05
0.00269328
-7.25943e-05
0.00273076
-7.26525e-05
0.00276038
-5.79658e-05
0.00277663
-3.24615e-05
0.00277737
-2.59089e-06
0.00276399
2.48336e-05
0.00274059
4.44425e-05
0.00271265
5.34759e-05
0.00268597
5.12617e-05
0.00266557
3.9197e-05
0.00265605
1.81869e-05
0.0026601
-8.03164e-06
0.00268036
-3.93778e-05
0.00271424
-6.58361e-05
0.00276199
-9.24172e-05
-0.000100252
0.00250252
-7.63009e-06
0.00251031
-2.35281e-05
0.00252373
-4.04225e-05
0.00254308
-5.79677e-05
0.00256841
-7.54015e-05
0.0025993
-9.12836e-05
0.00263467
-0.000103584
0.00267231
-0.000109287
0.00270891
-0.000105303
0.00274007
-8.9141e-05
0.00276102
-6.02133e-05
0.00276926
-2.43923e-05
0.00276447
1.19813e-05
0.00274877
4.21177e-05
0.00272734
5.79416e-05
0.00270694
5.52264e-05
0.00269401
3.51192e-05
0.00269272
3.88167e-06
0.00270355
-2.8275e-05
0.00272242
-4.90787e-05
0.00274115
-4.78826e-05
0.00275031
-2.15696e-05
0.00274327
2.26977e-05
0.00271847
7.15022e-05
0.00267908
0.00011214
0.00263102
0.000136592
0.00258123
0.00014137
0.00253676
0.000125729
0.00250449
9.02422e-05
0.00249086
3.67726e-05
0.00250097
-3.00709e-05
0.00253649
-0.000100083
0.00259273
-0.000156001
0.00265741
-0.000178142
0.00271364
-0.000154907
0.00274648
-9.14024e-05
0.0027487
-7.72725e-06
0.00272227
7.19851e-05
0.00267528
0.000130587
0.00261785
0.000161465
0.00255941
0.000165208
0.00250818
0.00014454
0.00247183
0.000101296
0.00245795
3.67784e-05
0.00247303
-4.46522e-05
0.00251929
-0.000130468
0.00259082
-0.000198651
0.00267233
-0.00022477
0.00274305
-0.000195099
0.00278468
-0.000116354
0.0027885
-1.33846e-05
0.00275728
8.36658e-05
0.00270181
0.000152828
0.00263531
0.000186137
0.00256939
0.000186315
0.00251296
0.000159641
0.00247326
0.000110673
0.00245705
4.17432e-05
0.00247018
-4.28943e-05
0.0025148
-0.000131367
0.00258572
-0.000202799
0.00266893
-0.000233745
0.00274466
-0.000209773
0.00279398
-0.000134454
0.00280559
-2.92326e-05
0.00277927
7.5866e-05
0.00272448
0.000154854
0.00265552
0.000194661
0.00258629
0.000195721
0.0025275
0.000165834
0.00248697
0.000112794
0.00247111
4.15026e-05
0.00248483
-4.24749e-05
0.00252892
-0.000127054
0.00259688
-0.00019283
0.0026747
-0.000219905
0.00274456
-0.000197728
0.00279057
-0.000130771
0.00280345
-3.67956e-05
0.00278244
6.01009e-05
0.0027345
0.000137589
0.00267132
0.000181468
0.00260579
0.000187898
0.00254938
0.000160992
0.00251127
0.000107946
0.00249841
3.60799e-05
0.00251469
-4.55534e-05
0.00255882
-0.000122968
0.00262263
-0.000178294
0.00269226
-0.000196196
0.00275203
-0.000171095
0.00278927
-0.000109894
0.00279755
-2.88032e-05
0.00277742
5.28764e-05
0.00273507
0.000118421
0.00268003
0.000157015
0.00262296
0.000164405
0.00257405
0.000141659
0.00254215
9.33025e-05
0.00253387
2.65711e-05
0.00255206
-4.76445e-05
0.002594
-0.000114397
0.00265095
-0.000157686
0.00271005
-0.000166231
0.00275806
-0.00013829
0.00278521
-8.22925e-05
0.0027874
-1.31184e-05
0.00276631
5.33734e-05
0.00272787
0.000104719
0.00268022
0.000133648
0.00263211
0.000137501
0.00259194
0.000116795
0.00256713
7.44943e-05
0.0025631
1.66507e-05
0.00258165
-4.65177e-05
0.00261951
-0.000101303
0.00266842
-0.00013415
0.00271717
-0.000136672
0.00275488
-0.000109011
0.00277403
-5.95322e-05
0.00277202
-1.27783e-06
0.00275101
5.2639e-05
0.00271648
9.25293e-05
0.00267546
0.00011329
0.0026353
0.000113484
0.0026029
9.38346e-05
0.00258436
5.67462e-05
0.00258394
7.2905e-06
0.00260264
-4.56789e-05
0.0026371
-9.03661e-05
0.00267979
-0.00011546
0.002721
-0.000114432
0.00275159
-8.81317e-05
0.00276554
-4.42651e-05
0.00276112
5.72571e-06
0.0027407
5.0585e-05
0.00270943
8.22226e-05
0.00267367
9.66943e-05
0.0026399
9.33128e-05
0.00261411
7.31543e-05
0.00260144
3.84941e-05
0.00260547
-6.31374e-06
0.0026269
-5.37062e-05
0.00266256
-9.34806e-05
0.00270563
-0.000115661
0.00274721
-0.000114237
0.00277884
-8.95884e-05
0.00279469
-4.83119e-05
0.00279289
-7.90284e-07
0.00277546
4.22603e-05
0.00274732
7.25788e-05
0.00271473
8.6073e-05
0.00268406
8.19297e-05
0.00266086
6.23974e-05
0.00265011
2.89304e-05
0.00265484
-1.27587e-05
0.00267785
-6.23867e-05
0.00271578
-0.000103764
0.00276944
-0.000146079
-0.000154773
0.00250248
-1.0106e-05
0.00251015
-3.11997e-05
0.00252346
-5.37373e-05
0.00254282
-7.73282e-05
0.00256845
-0.000101031
0.00260014
-0.000122973
0.002637
-0.000140442
0.00267688
-0.000149173
0.00271631
-0.000144725
0.0027502
-0.000123038
0.00277286
-8.28704e-05
0.00278134
-3.287e-05
0.00277512
1.81998e-05
0.00275633
6.09124e-05
0.00273087
8.33938e-05
0.00270671
7.93845e-05
0.00269144
5.03962e-05
0.00269012
5.20354e-06
0.00270362
-4.17784e-05
0.0027273
-7.27635e-05
0.00275134
-7.19144e-05
0.00276422
-3.44497e-05
0.00275799
2.89258e-05
0.00273116
9.83263e-05
0.00268784
0.000155467
0.00263497
0.000189463
0.00258022
0.000196113
0.00253111
0.000174842
0.00249493
0.000126425
0.00247885
5.28498e-05
0.00248923
-4.04481e-05
0.00252899
-0.000139851
0.00259351
-0.000220515
0.0026684
-0.000253036
0.00273328
-0.000219785
0.00277023
-0.000128351
0.00277125
-8.74712e-06
0.00273964
0.000103599
0.00268575
0.000184476
0.00262141
0.000225798
0.0025568
0.000229823
0.0025002
0.000201139
0.00245933
0.000142168
0.00244223
5.388e-05
0.00245639
-5.88135e-05
0.00250542
-0.000179499
0.00258443
-0.000277659
0.00267732
-0.000317662
0.00275988
-0.000277656
0.00280918
-0.000165655
0.00281378
-1.79889e-05
0.00277722
0.000120229
0.00271334
0.000216702
0.00263838
0.000261097
0.00256539
0.000259305
0.00250317
0.000221864
0.00245827
0.000155574
0.00243749
6.25184e-05
0.00244811
-5.35076e-05
0.00249418
-0.00017744
0.00257111
-0.000279728
0.00266336
-0.000325992
0.00274843
-0.000294847
0.0028049
-0.000190921
0.00281982
-4.41569e-05
0.00279246
0.000103224
0.00273311
0.000214212
0.00265773
0.000270038
0.00258185
0.000271601
0.00251711
0.00023057
0.00247192
0.000157984
0.00245369
5.97361e-05
0.0024687
-5.74817e-05
0.00251821
-0.000176568
0.00259439
-0.000269005
0.0026805
-0.000306017
0.00275615
-0.000273384
0.00280422
-0.00017884
0.00281571
-4.82789e-05
0.00279099
8.48135e-05
0.00273822
0.000190357
0.00266996
0.000249732
0.00259961
0.000258246
0.00253912
0.000221487
0.00249847
0.00014859
0.00248583
4.87289e-05
0.00250594
-6.56692e-05
0.00255708
-0.000174109
0.0026292
-0.000250412
0.0027059
-0.000272893
0.0027695
-0.000234701
0.00280656
-0.000146947
0.00281116
-3.34059e-05
0.00278528
7.87554e-05
0.00273672
0.000166979
0.0026762
0.000217532
0.00261496
0.000225648
0.00256352
0.000193103
0.00253122
0.000125602
0.00252533
3.24645e-05
0.00254886
-7.11783e-05
0.0025982
-0.000163738
0.00266274
-0.000222221
0.00272755
-0.000231044
0.00277798
-0.000188718
0.00280382
-0.000108138
0.00280157
-1.08681e-05
0.00277418
8.07623e-05
0.00272909
0.00014981
0.0026757
0.000187041
0.00262353
0.000189665
0.00258149
0.000158837
0.00255741
9.85767e-05
0.00255696
1.71003e-05
0.0025816
-7.11629e-05
0.00262689
-0.000146584
0.00268275
-0.000190017
0.00273629
-0.000190209
0.00277557
-0.000148291
0.0027929
-7.68626e-05
0.00278631
5.31402e-06
0.0027591
7.98516e-05
0.00271806
0.000133567
0.0026714
0.000159951
0.00262729
0.000157593
0.00259329
0.000127829
0.00257594
7.41025e-05
0.0025796
3.6311e-06
0.00260472
-7.08056e-05
0.00264661
-0.000132256
0.00269602
-0.000164869
0.00274168
-0.000160093
0.0027736
-0.000120043
0.00278564
-5.63141e-05
0.00277671
1.4659e-05
0.00275019
7.71093e-05
0.0027124
0.00012001
0.00267081
0.000138287
0.00263275
0.000131369
0.00260495
0.000100961
0.0025931
5.03413e-05
0.00260093
-1.41467e-05
0.00262861
-8.139e-05
0.00267171
-0.000136576
0.00272171
-0.00016566
0.00276823
-0.000160754
0.00280188
-0.000123244
0.00281668
-6.31115e-05
0.00281116
4.72699e-06
0.00278818
6.52428e-05
0.00275366
0.000107102
0.00271483
0.000124905
0.00267891
0.000117849
0.00265216
8.91459e-05
0.00264018
4.09108e-05
0.0026464
-1.89775e-05
0.00267361
-8.96051e-05
0.00271729
-0.000147438
0.00277832
-0.000207113
-0.000212864
0.00250241
-1.25133e-05
0.0025099
-3.8691e-05
0.00252302
-6.68566e-05
0.00254233
-9.66378e-05
0.00256828
-0.000126987
0.00260097
-0.000155658
0.0026398
-0.000179278
0.00268276
-0.000192126
0.00272617
-0.000188135
0.00276399
-0.000160861
0.00278907
-0.000107953
0.00279792
-4.17208e-05
0.00278971
2.64163e-05
0.00276651
8.41086e-05
0.00273532
0.000114581
0.00270577
0.000108942
0.00268711
6.90545e-05
0.00268574
6.57725e-06
0.00270309
-5.91323e-05
0.00273378
-0.000103451
0.00276553
-0.000103672
0.00278377
-5.26821e-05
0.00277862
3.40714e-05
0.00274877
0.000128174
0.0026998
0.000204445
0.0026402
0.00024906
0.00257865
0.00025766
0.00252316
0.000230335
0.00248147
0.00016811
0.00246177
7.25496e-05
0.00247237
-5.10387e-05
0.00251834
-0.000185827
0.00259519
-0.000297368
0.00268513
-0.000342971
0.00276224
-0.000296895
0.00280442
-0.000170535
0.00280297
-7.29154e-06
0.00276349
0.000143079
0.00269966
0.000248303
0.00262575
0.000299711
0.00255283
0.000302744
0.00248906
0.000264907
0.00244165
0.000189573
0.0024184
7.71305e-05
0.00242772
-6.81306e-05
0.00247592
-0.000227697
0.00256111
-0.000362847
0.00266755
-0.000424108
0.0027673
-0.000377405
0.00283097
-0.000229323
0.00284158
-2.85975e-05
0.00280155
0.000160257
0.00272813
0.000290126
0.00264218
0.000347043
0.00255957
0.00034192
0.00248928
0.000292152
0.00243712
0.000207728
0.00241056
8.9084e-05
0.00241946
-6.24069e-05
0.00247013
-0.000228114
0.00255715
-0.000366744
0.00266134
-0.000430181
0.00275639
-0.000389902
0.00281885
-0.000253383
0.00283547
-6.07753e-05
0.00280588
0.000132811
0.00274114
0.000278957
0.00265848
0.000352701
0.0025748
0.000355276
0.00250293
0.000302445
0.00245253
0.000208376
0.00243286
7.94051e-05
0.00245174
-7.63592e-05
0.00251004
-0.000234861
0.00259723
-0.000356201
0.00269312
-0.000401903
0.00277465
-0.000354912
0.00282365
-0.000227844
0.00283171
-5.63438e-05
0.00280087
0.000115654
0.00274106
0.000250175
0.00266604
0.00032475
0.00258982
0.000334467
0.00252486
0.000286448
0.0024822
0.000191248
0.00247134
5.95865e-05
0.00249757
-9.18985e-05
0.00255788
-0.000234423
0.00263962
-0.000332147
0.00272373
-0.000357007
0.00279085
-0.000301815
0.00282696
-0.000183061
0.00282673
-3.31712e-05
0.00279355
0.000111935
0.00273706
0.00022347
0.00266951
0.00028508
0.00260306
0.00029209
0.00254886
0.000247309
0.00251692
0.000157541
0.00251507
3.4313e-05
0.00254599
-0.000102099
0.0026044
-0.000222151
0.00267732
-0.00029514
0.00274779
-0.000301512
0.00280004
-0.00024097
0.00282375
-0.000131846
0.00281606
-3.17726e-06
0.0027812
0.000115622
0.00272819
0.00020282
0.00266789
0.000247343
0.00261091
0.000246642
0.00256694
0.000202812
0.00254439
0.000121121
0.00254908
1.2411e-05
0.00258164
-0.000103722
0.00263577
-0.000200714
0.00269923
-0.000253478
0.00275741
-0.000248389
0.00279761
-0.000188491
0.00281224
-9.14917e-05
0.00280007
1.74826e-05
0.0027656
0.000114328
0.00271699
0.000182171
0.00266377
0.000213172
0.00261519
0.00020617
0.00257969
0.000163333
0.00256437
8.94248e-05
0.00257357
-5.56862e-06
0.00260672
-0.000103962
0.00265725
-0.000182785
0.00271384
-0.000221458
0.00276371
-0.000209965
0.00279624
-0.000152571
0.00280549
-6.55612e-05
0.00279107
2.90751e-05
0.00275747
0.000110711
0.00271224
0.000165238
0.00266404
0.000186494
0.00262126
0.000174145
0.00259156
0.000130657
0.00258132
6.05822e-05
0.00259428
-2.71056e-05
0.00262965
-0.000116759
0.00268119
-0.000188114
0.0027384
-0.000222874
0.00278945
-0.0002118
0.00282432
-0.000158119
0.00283714
-7.59273e-05
0.00282702
1.48512e-05
0.00279767
9.45906e-05
0.00275602
0.000148751
0.00271031
0.000170613
0.0026687
0.000159458
0.00263836
0.000119488
0.00262565
5.36172e-05
0.00263446
-2.77797e-05
0.00266711
-0.000122258
0.0027175
-0.000197827
0.00278561
-0.00027523
-0.000273206
0.00250231
-1.48213e-05
0.00250953
-4.59153e-05
0.00252233
-7.96571e-05
0.00254147
-0.000115776
0.0025677
-0.000153219
0.00260152
-0.000189474
0.00264279
-0.000220552
0.00268972
-0.000239049
0.00273851
-0.000236926
0.00278172
-0.000204077
0.00281017
-0.000136399
0.00281968
-5.12342e-05
0.00280893
3.71675e-05
0.00277981
0.000113231
0.00274077
0.000153624
0.00270373
0.000145976
0.00268026
9.25242e-05
0.00267857
8.27283e-06
0.00270106
-8.1623e-05
0.00274143
-0.000143823
0.00278398
-0.000146228
0.00280966
-7.83551e-05
0.00280593
3.78013e-05
0.00277185
0.000162248
0.00271523
0.000261064
0.00264677
0.00031752
0.00257641
0.000328025
0.00251262
0.000294121
0.00246357
0.000217162
0.00243873
9.73938e-05
0.00244911
-6.14191e-05
0.00250278
-0.000239499
0.00259586
-0.000390451
0.00270664
-0.00045375
0.00280134
-0.000391594
0.00285093
-0.000220129
0.00284552
-1.87432e-06
0.0027946
0.000193998
0.00271707
0.000325826
0.00263063
0.000386152
0.00254732
0.000386058
0.0024745
0.000337725
0.00241776
0.000246312
0.00238406
0.000110829
0.00238423
-6.82982e-05
0.00242988
-0.000273349
0.00252253
-0.000455494
0.00264474
-0.000546324
0.00276377
-0.000496428
0.00284482
-0.000310376
0.00286571
-4.94921e-05
0.00282589
0.000200078
0.0027442
0.000371823
0.00264626
0.000444975
0.00255192
0.00043626
0.00247136
0.00037272
0.00241054
0.000268541
0.00237891
0.000120721
0.00238957
-7.30738e-05
0.00244968
-0.000288223
0.00255051
-0.000467575
0.00266791
-0.000547576
0.0027719
-0.000493889
0.00283775
-0.000319236
0.00285292
-7.59505e-05
0.00281856
0.00016718
0.00274698
0.000350532
0.00265636
0.000443319
0.00256444
0.000447199
0.00248515
0.000381732
0.00243009
0.000263441
0.00241079
9.87031e-05
0.00243604
-0.000101605
0.00250492
-0.000303741
0.00260339
-0.000454674
0.00270812
-0.000506639
0.00279439
-0.00044118
0.0028435
-0.00027695
0.00284739
-6.02405e-05
0.00280943
0.000153623
0.00274138
0.000318217
0.0026586
0.000407537
0.00257596
0.000417103
0.00250671
0.000355699
0.00246309
0.000234865
0.00245573
6.6945e-05
0.00248965
-0.000125814
0.00255968
-0.000304456
0.0026503
-0.000422764
0.00274037
-0.000447074
0.00280966
-0.000371106
0.00284415
-0.000217554
0.00283893
-2.7955e-05
0.0027984
0.000152465
0.00273371
0.000288161
0.0026587
0.000360091
0.00258679
0.000364003
0.0025301
0.000303995
0.00249955
0.000188098
0.00250322
3.06398e-05
0.00254273
-0.000141609
0.00261046
-0.000289876
0.00269091
-0.000375599
0.0027656
-0.000376199
0.00281835
-0.000293716
0.00283914
-0.000152639
0.00282578
1.01808e-05
0.00278349
0.000157913
0.00272259
0.000263723
0.00265533
0.000314602
0.0025936
0.000308366
0.00254817
0.000248241
0.0025282
0.000141098
0.00253934
1.26597e-06
0.00258081
-0.000145185
0.00264391
-0.000263814
0.00271415
-0.000323724
0.00277566
-0.000309899
0.00281554
-0.000228367
0.00282666
-0.00010261
0.00280857
3.55654e-05
0.00276679
0.000156111
0.00271068
0.000238287
0.00265099
0.000272859
0.0025982
0.000258956
0.00256182
0.000199713
0.00254959
0.000101653
0.00256555
-2.15199e-05
0.00260755
-0.000145968
0.00266671
-0.00024194
0.00272962
-0.00028437
0.00278239
-0.000262735
0.00281427
-0.000184454
0.00281984
-7.11305e-05
0.00279951
4.94022e-05
0.00275873
0.000151492
0.00270613
0.000217842
0.00265148
0.000241146
0.00260434
0.00022128
0.00257346
0.000161537
0.0025659
6.81475e-05
0.00258512
-4.6334e-05
0.00262887
-0.000160503
0.00268867
-0.000247911
0.00275204
-0.000286246
0.00280608
-0.000265842
0.00284069
-0.000192726
0.00285045
-8.56909e-05
0.00283519
3.01163e-05
0.00279938
0.000130396
0.00275078
0.000197354
0.0026985
0.000222893
0.00265164
0.000206319
0.00261841
0.00015271
0.00260605
6.59841e-05
0.00261869
-4.04262e-05
0.00265751
-0.000161075
0.00271446
-0.000254776
0.00278742
-0.00034819
-0.000333058
0.00250217
-1.69907e-05
0.00250901
-5.27581e-05
0.00252132
-9.19638e-05
0.00254009
-0.000134545
0.00256644
-0.000179576
0.00260142
-0.00022445
0.00264554
-0.00026467
0.00269741
-0.000290922
0.00275327
-0.000292786
0.00280369
-0.000254493
0.00283657
-0.000169282
0.00284702
-6.16852e-05
0.00283307
5.11188e-05
0.00279619
0.000150113
0.00274674
0.000203076
0.00269972
0.000192998
0.00266973
0.000122514
0.00266746
1.05371e-05
0.00269678
-0.000110941
0.00275032
-0.000197365
0.00280766
-0.000203562
0.00284338
-0.000114075
0.00284129
3.98896e-05
0.00280126
0.000202275
0.00273446
0.000327869
0.00265464
0.000397338
0.00257326
0.000409403
0.00249912
0.000368258
0.00244065
0.000275638
0.00240852
0.000129523
0.00241567
-6.85745e-05
0.00247256
-0.000296384
0.00257882
-0.00049671
0.002714
-0.000588931
0.00283661
-0.000514208
0.00290379
-0.000287303
0.00289823
3.68104e-06
0.00283373
0.000258502
0.00273826
0.00042129
0.00263584
0.000488573
0.00253996
0.000481936
0.00245601
0.000421675
0.00238673
0.000315595
0.00233948
0.000158079
0.00233115
-5.99699e-05
0.00237997
-0.000322163
0.00248683
-0.000562358
0.00262743
-0.000686922
0.00276295
-0.000631946
0.00285653
-0.000403957
0.00288514
-7.81014e-05
0.00284631
0.000238902
0.00275824
0.000459902
0.00264904
0.000554166
0.00254214
0.000543162
0.00244999
0.000464876
0.00238053
0.000337999
0.00234639
0.000154859
0.00236294
-8.9626e-05
0.00243534
-0.000360624
0.00254987
-0.000582102
0.00267827
-0.000675978
0.00278884
-0.000604459
0.00285644
-0.000386837
0.00286885
-8.83548e-05
0.00282842
0.000207612
0.0027491
0.000429846
0.00265021
0.000542213
0.00255018
0.000547232
0.00246412
0.000467794
0.00240579
0.000321765
0.00238881
0.000115688
0.00242171
-0.000134513
0.00250066
-0.00038269
0.0026081
-0.000562116
0.00271877
-0.000617301
0.00280764
-0.000530054
0.00285625
-0.000325558
0.00285661
-6.05981e-05
0.00281246
0.000197769
0.00273681
0.000393872
0.00264649
0.000497849
0.00255771
0.000505887
0.0024849
0.00042851
0.00244162
0.000278147
0.00243909
6.94729e-05
0.00248111
-0.000167834
0.00255977
-0.000383115
0.00265694
-0.000519938
0.00275033
-0.000540465
0.00281986
-0.000440634
0.00285206
-0.00024975
0.0028424
-1.82941e-05
0.00279569
0.000199169
0.00272396
0.000359892
0.00264233
0.000441725
0.00256561
0.000440715
0.0025073
0.000362305
0.00247927
0.000216132
0.00248945
2.04592e-05
0.00253764
-0.000189798
0.00261348
-0.000365712
0.00269931
-0.000461435
0.00277589
-0.000452774
0.00282742
-0.000345251
0.00284465
-0.000169867
0.002826
2.883e-05
0.00277729
0.000206627
0.00270965
0.00033136
0.00263646
0.00038779
0.00257093
0.000373901
0.00252509
0.000294082
0.00250883
0.000157356
0.00252728
-1.71819e-05
0.00257758
-0.000195489
0.00264842
-0.000334659
0.00272342
-0.000398723
0.00278615
-0.00037263
0.00282419
-0.0002664
0.00283119
-0.000109617
0.00280747
5.92934e-05
0.00275921
0.000204369
0.00269661
0.000300879
0.00263149
0.000337981
0.00257554
0.000314908
0.00253944
0.000235818
0.00253148
0.00010961
0.00255495
-4.49934e-05
0.00260564
-0.000196656
0.00267215
-0.000308447
0.00273938
-0.0003516
0.00279299
-0.000316351
0.00282274
-0.000214195
0.00282397
-7.23607e-05
0.00279786
7.55061e-05
0.00275058
0.000198771
0.00269154
0.000276884
0.00263146
0.000301223
0.00258107
0.000271675
0.00255024
0.00019237
0.00254657
7.18156e-05
0.00257281
-7.25803e-05
0.00262468
-0.000212365
0.00269131
-0.000314549
0.00275865
-0.000353584
0.00281341
-0.000320599
0.00284599
-0.000225309
0.00285179
-9.14859e-05
0.00283131
5.05954e-05
0.00278961
0.000172091
0.00273499
0.000251979
0.00267722
0.000280658
0.00262631
0.000257235
0.00259158
0.000187435
0.00258103
7.65398e-05
0.00259865
-5.80474e-05
0.0026435
-0.000205921
0.0027054
-0.000316683
0.00277924
-0.000422029
-0.000388748
0.00250198
-1.89719e-05
0.0025083
-5.90732e-05
0.00251987
-0.000103541
0.00253798
-0.000152648
0.00256417
-0.000205769
0.00260019
-0.000260473
0.00264747
-0.000311946
0.00270537
-0.000348817
0.00277043
-0.00035785
0.00283041
-0.000314474
0.00286923
-0.000208104
0.00288128
-7.37345e-05
0.00286354
6.88583e-05
0.00281656
0.000197095
0.00275331
0.000266329
0.00269294
0.000253366
0.00265398
0.000161476
0.00265041
1.41002e-05
0.00268842
-0.000148944
0.00275957
-0.000268523
0.00283698
-0.000280972
0.00288625
-0.000163342
0.00288609
4.00459e-05
0.00283789
0.000250482
0.00275779
0.000407969
0.00266376
0.00049137
0.00256899
0.000504167
0.00248242
0.000454833
0.00241238
0.000345679
0.00236892
0.000172977
0.00236331
-6.29589e-05
0.00240845
-0.000341533
0.00251476
-0.00060301
0.00267195
-0.000746129
0.00283458
-0.000676839
0.0029399
-0.000392616
0.00295087
-7.29265e-06
0.00287877
0.000330606
0.0027636
0.00053646
0.00264159
0.000610579
0.00253049
0.000593034
0.00243312
0.000519049
0.00234927
0.00039944
0.00228977
0.000217581
0.00227997
-5.01618e-05
0.00234106
-0.000383258
0.00246714
-0.000688438
0.00262502
-0.000844801
0.00277179
-0.000778713
0.00287097
-0.00050314
0.00290137
-0.000108505
0.00286103
0.000279245
0.00276724
0.000553691
0.0026483
0.000673103
0.00252951
0.000661955
0.00242607
0.000568315
0.00234953
0.000414544
0.00231594
0.000188445
0.00234071
-0.000114392
0.0024246
-0.000444514
0.00254893
-0.000706441
0.00268355
-0.000810591
0.00279737
-0.000718278
0.00286591
-0.000455378
0.00287656
-9.90102e-05
0.00283147
0.000252708
0.00274543
0.000515879
0.00263902
0.00064863
0.00253175
0.0006545
0.00244025
0.000559288
0.00238046
0.000381556
0.00236721
0.000128943
0.00240758
-0.000174887
0.00249432
-0.000469429
0.00260711
-0.000674909
0.00272005
-0.000730235
0.00280898
-0.000618991
0.00285636
-0.00037293
0.00285423
-5.84714e-05
0.00280598
0.000246022
0.00272479
0.000475063
0.00262852
0.000594115
0.00253481
0.000599598
0.0024597
0.000503622
0.00241804
0.000319801
0.00242101
6.65008e-05
0.00247039
-0.000217213
0.0025554
-0.000468122
0.00265601
-0.00062055
0.00274976
-0.000634212
0.0028175
-0.000508373
0.00284676
-0.000279008
0.00283342
-4.95359e-06
0.00278228
0.000250305
0.00270555
0.000436624
0.00261911
0.000528163
0.00253911
0.000520711
0.00248054
0.000420881
0.00245614
0.000240532
0.00247315
3.44919e-06
0.00252899
-0.000245639
0.00261061
-0.000447334
0.00269891
-0.000549732
0.00277476
-0.000528629
0.00282343
-0.000393922
0.00283668
-0.000183115
0.0028135
5.20161e-05
0.00275992
0.000260199
0.00268743
0.000403853
0.00261013
0.000465095
0.00254242
0.000441611
0.00249764
0.000338861
0.0024862
0.000168795
0.00251214
-4.31225e-05
0.00257012
-0.000253475
0.00264637
-0.000410906
0.00272334
-0.000475689
0.0027849
-0.000434196
0.00281968
-0.000301174
0.00282231
-0.00011225
0.00279369
8.79121e-05
0.00274039
0.000257672
0.00267304
0.000368233
0.0026042
0.000406815
0.00254673
0.000372382
0.00251242
0.000270131
0.00250982
0.000112208
0.00254092
-7.60999e-05
0.00259906
-0.000254789
0.00267056
-0.000379951
0.00273938
-0.000420418
0.00279154
-0.000368516
0.00281779
-0.000240439
0.00281441
-6.89804e-05
0.00278319
0.000106725
0.00273069
0.000251265
0.00266679
0.000340791
0.00260293
0.000365076
0.00255094
0.00032367
0.00252173
0.000221582
0.00252308