/*--------------------------------*- C++ -*----------------------------------*\
  =========                 |
  \\      /  F ield         | OpenFOAM: The Open Source CFD Toolbox
   \\    /   O peration     | Website:  https://openfoam.org
    \\  /    A nd           | Version:  11
     \\/     M anipulation  |
\*---------------------------------------------------------------------------*/
FoamFile
{
    format      ascii;
    class       volScalarField;
    location    "13.945192";
    object      p;
}
// * * * * * * * * * * * * * * * * * * * * * * * * * * * * * * * * * * * * * //

dimensions      [0 2 -2 0 0 0 0];

internalField   nonuniform List<scalar> 
7132
(
0.0573873
0.0560238
0.0513797
0.0447427
0.0356567
0.0241228
0.0103678
-0.00506825
-0.0212332
-0.0364588
-0.0491505
-0.0571308
-0.060043
-0.0579185
-0.0517824
-0.0434406
-0.0344884
-0.0261638
-0.0189847
-0.012716
-0.00678115
-0.000791297
0.00523026
0.0110273
0.0163486
0.0210855
0.0252703
0.0289464
0.0320387
0.0341981
0.0349098
0.0339463
0.0318421
0.0297587
0.028665
0.0287738
0.0296373
0.0306814
0.0315517
0.0321993
0.0327794
0.033474
0.0342468
0.0346039
0.0337589
0.0313393
0.0280295
0.0252817
0.0241703
0.024708
0.0260697
0.0273793
0.0281791
0.0284686
0.028522
0.0286556
0.0289191
0.0288567
0.0276987
0.0250901
0.0217361
0.0191247
0.0183854
0.0195015
0.0214925
0.0232811
0.0243016
0.0245651
0.0244241
0.0242844
0.0242642
0.0239756
0.0227196
0.0201589
0.0169099
0.0143538
0.0136716
0.0150223
0.0175124
0.0199218
0.0214468
0.0219545
0.0217947
0.0214622
0.0212025
0.0207483
0.0194533
0.0168942
0.0134829
0.0104562
0.00912083
0.010013
0.0126261
0.0157935
0.0183803
0.0197818
0.0200323
0.0195975
0.0190015
0.0183914
0.0173527
0.0152058
0.0116883
0.00743067
0.00374552
0.00184472
0.00213911
0.0040971
0.00663619
0.00870308
0.00965082
0.00932955
0.0079666
0.00590356
0.00330714
8.58526e-05
-0.0038669
-0.00827208
-0.0123294
-0.0150438
-0.0157762
-0.014578
-0.0121224
-0.00935425
-0.00711901
-0.00599456
-0.0063073
-0.00824718
-0.0119467
-0.0174585
-0.0246096
-0.0327954
-0.0408749
-0.0473254
-0.0506756
-0.0500601
-0.0455646
-0.0382258
-0.0296034
-0.0212132
-0.014102
-0.00871354
-0.00501167
-0.00271315
-0.0015023
-0.00114576
-0.00151387
-0.00252643
-0.00406219
-0.0059322
-0.00777713
-0.00932685
-0.010003
-0.0101011
-0.00849161
-0.00771079
-0.00314805
-0.00551756
0.00594261
-0.012263
0.0579342
0.0565746
0.0519454
0.0453121
0.0362037
0.0245931
0.0106811
-0.00501866
-0.0215471
-0.0371842
-0.0502503
-0.0583691
-0.0612387
-0.0588679
-0.0523502
-0.0436316
-0.0343964
-0.0259437
-0.0187932
-0.0126379
-0.00681239
-0.000875067
0.00514892
0.0109809
0.0163511
0.0211409
0.0253793
0.0291051
0.0322403
0.0344196
0.0350971
0.0340245
0.03176
0.0295367
0.0283766
0.0284962
0.0294099
0.0305117
0.031434
0.0321261
0.0327437
0.0334696
0.0342694
0.0346341
0.0337464
0.031217
0.0277611
0.0249016
0.0237657
0.0243611
0.0258153
0.0272125
0.0280789
0.0284129
0.0284921
0.0286373
0.0288997
0.0288128
0.0275887
0.0248679
0.0213842
0.0186814
0.0179307
0.019116
0.0212174
0.023114
0.0242154
0.0245276
0.024408
0.0242708
0.0242361
0.0239036
0.0225608
0.0198774
0.0165064
0.0138758
0.0131911
0.0146071
0.0172042
0.019729
0.0213507
0.0219218
0.0217921
0.0214649
0.0211904
0.0206883
0.019298
0.0166042
0.0130569
0.0099428
0.00859751
0.00955128
0.012268
0.0155477
0.0182358
0.0197176
0.020022
0.0196138
0.0190197
0.0183815
0.0172707
0.0150035
0.0113401
0.00695508
0.00320581
0.00132669
0.00171888
0.00382052
0.00650872
0.00870175
0.0097407
0.00947313
0.00812479
0.00603223
0.00335361
-3.78072e-06
-0.00412691
-0.00869457
-0.0128574
-0.0155861
-0.0162366
-0.0148814
-0.0122303
-0.0092689
-0.00687531
-0.00564739
-0.00591972
-0.00788383
-0.0116733
-0.0173419
-0.0247111
-0.0331554
-0.0414944
-0.0481569
-0.0516283
-0.0510189
-0.046416
-0.0388862
-0.0300342
-0.0214214
-0.0141263
-0.00860687
-0.00482696
-0.00249643
-0.00129078
-0.00096766
-0.00138961
-0.00246909
-0.00407829
-0.00602099
-0.00793093
-0.00952873
-0.0102341
-0.0103319
-0.00871405
-0.00788138
-0.00331719
-0.00555829
0.00578391
-0.0120521
0.0590259
0.0576759
0.0530791
0.0464586
0.0373111
0.0255535
0.011331
-0.00489968
-0.0221682
-0.0386541
-0.0524954
-0.0608911
-0.0636657
-0.0607715
-0.0534492
-0.0439472
-0.0341361
-0.0254387
-0.0183685
-0.0124805
-0.00689746
-0.00107274
0.00495854
0.0108651
0.0163364
0.0212333
0.02558
0.0294078
0.0326334
0.034858
0.0354687
0.0341708
0.0315722
0.0290573
0.0277631
0.0279113
0.0289327
0.0301535
0.0311799
0.0319585
0.0326489
0.0334368
0.0342923
0.0346739
0.0336987
0.0309412
0.02718
0.0240905
0.0229064
0.023627
0.0252784
0.0268578
0.0278584
0.0282787
0.0284063
0.028574
0.028836
0.0287006
0.0273387
0.024382
0.0206274
0.0177364
0.0169665
0.0182997
0.0206335
0.0227545
0.0240204
0.0244267
0.0243445
0.02421
0.0241484
0.0237321
0.0222175
0.019289
0.0156733
0.0128929
0.0122047
0.0137544
0.0165682
0.0193243
0.0211373
0.021831
0.0217569
0.021439
0.0211359
0.0205386
0.0189559
0.0159896
0.0121685
0.00887994
0.00751907
0.00860371
0.0115364
0.015045
0.0179354
0.019574
0.019982
0.0196258
0.0190378
0.0183435
0.0170823
0.0145621
0.010592
0.00594097
0.00205998
0.000229954
0.000831771
0.00323525
0.0062339
0.00868751
0.00991344
0.00975627
0.00844076
0.00629195
0.00344485
-0.000198765
-0.00468462
-0.00959984
-0.0139885
-0.0167482
-0.0172236
-0.0155349
-0.0124735
-0.00911173
-0.00639413
-0.0049571
-0.00514865
-0.00716247
-0.0111347
-0.0171228
-0.0249379
-0.0339115
-0.0427824
-0.04988
-0.0535994
-0.0530023
-0.0481792
-0.0402561
-0.0309312
-0.0218602
-0.0141881
-0.00840163
-0.00446383
-0.00206923
-0.000874177
-0.00061747
-0.00114598
-0.00235808
-0.00411312
-0.00620036
-0.0082394
-0.00993253
-0.0106947
-0.0107916
-0.00915427
-0.00822092
-0.00364712
-0.00564422
0.00547965
-0.011633
0.0606592
0.0593258
0.0547857
0.0481961
0.0390049
0.0270419
0.0123627
-0.00467419
-0.0230871
-0.0409164
-0.0559942
-0.064818
-0.0674568
-0.0637531
-0.055174
-0.0444425
-0.0337236
-0.0246438
-0.0177191
-0.0122579
-0.00706109
-0.00140891
0.00464019
0.0106652
0.0162903
0.0213467
0.0258548
0.0298365
0.0332024
0.0355007
0.0360063
0.034345
0.0312058
0.0282265
0.0267338
0.0269512
0.0281619
0.0295768
0.0307632
0.0316689
0.0324638
0.033341
0.0342763
0.0346755
0.0335499
0.0304152
0.0261548
0.0226989
0.0214622
0.0224143
0.0244033
0.02628
0.0274886
0.028034
0.0282249
0.0284154
0.0286683
0.0284546
0.0268788
0.0235549
0.0193749
0.0161867
0.0153882
0.0169657
0.019679
0.0221603
0.0236815
0.0242245
0.0241886
0.0240516
0.0239491
0.0234058
0.0216263
0.0183171
0.0143235
0.0113191
0.0106391
0.01241
0.0155655
0.0186763
0.0207753
0.0216483
0.0216545
0.0213531
0.0210088
0.0202601
0.0183643
0.0149557
0.0106952
0.00713549
0.00576759
0.00708403
0.0103748
0.0142519
0.0174549
0.0193269
0.0198879
0.0196134
0.0190409
0.0182573
0.016746
0.0138055
0.00933365
0.00425614
0.000172581
-0.00156535
-0.000614597
0.00227885
0.00577463
0.00863957
0.0101568
0.0101721
0.00891241
0.00668045
0.00356392
-0.000547855
-0.00562861
-0.0111086
-0.0158556
-0.0186527
-0.0188326
-0.0165999
-0.0128825
-0.00889096
-0.00567291
-0.00391966
-0.00399424
-0.00609082
-0.010351
-0.0168404
-0.0253551
-0.0351582
-0.0448607
-0.0526362
-0.0567376
-0.0561506
-0.0509743
-0.0424277
-0.0323569
-0.0225672
-0.0143077
-0.00810834
-0.00392859
-0.00143652
-0.00025702
-9.957e-05
-0.00078757
-0.00219863
-0.00417298
-0.00647771
-0.00871034
-0.0105455
-0.0113904
-0.0114833
-0.00981236
-0.00872663
-0.00413473
-0.00577063
0.00502398
-0.0110032
0.0628274
0.061521
0.0570714
0.0505453
0.0413248
0.0291184
0.0138507
-0.00427642
-0.0242779
-0.0440341
-0.0608955
-0.0702873
-0.0727034
-0.0677782
-0.0573435
-0.0448618
-0.0328976
-0.0233576
-0.0167531
-0.012006
-0.00741267
-0.00200463
0.0040949
0.0103081
0.0161574
0.0214344
0.0261609
0.0303521
0.0339145
0.0363226
0.036679
0.0344805
0.0305378
0.0268813
0.0251322
0.0254984
0.0270185
0.0287251
0.0301346
0.0312053
0.0321287
0.0331128
0.0341418
0.0345492
0.03319
0.0294895
0.0244867
0.0204962
0.0192184
0.0205609
0.0230853
0.0254122
0.0269155
0.0276176
0.0278659
0.0280556
0.0282793
0.0279591
0.0261041
0.0222942
0.0175397
0.0139366
0.0130884
0.0150068
0.0182632
0.0212602
0.023137
0.0238552
0.0238663
0.0237217
0.0235709
0.022856
0.020695
0.0168308
0.0122955
0.00899191
0.00836221
0.0104817
0.0141327
0.0177348
0.0202168
0.0213237
0.0214377
0.0211683
0.0207727
0.0198004
0.0174361
0.0133743
0.00847775
0.00453791
0.00318179
0.00485827
0.00868757
0.0131062
0.0167515
0.0189406
0.0197081
0.0195525
0.0190107
0.0180963
0.016209
0.0126481
0.00745294
0.00177546
-0.0025826
-0.00417901
-0.00272558
0.000868111
0.00507253
0.00852101
0.0104496
0.010711
0.00953803
0.00719328
0.00368479
-0.00111469
-0.00706023
-0.0133432
-0.0185806
-0.0214047
-0.0211466
-0.0181369
-0.0135011
-0.00864063
-0.0047427
-0.00256759
-0.00249191
-0.00470847
-0.00937131
-0.0165614
-0.026052
-0.0370058
-0.0478536
-0.0565547
-0.0611703
-0.0605833
-0.054909
-0.0454921
-0.034382
-0.0235924
-0.014519
-0.00775123
-0.00324131
-0.000617287
0.000542252
0.000569125
-0.00032911
-0.00200349
-0.00426909
-0.00686275
-0.00935143
-0.0113728
-0.0123229
-0.0124061
-0.0106835
-0.00939455
-0.00477068
-0.00593788
0.00442473
-0.0101734
0.0655202
0.0642547
0.0599427
0.053532
0.0443232
0.031865
0.0158989
-0.00361278
-0.0257054
-0.0481171
-0.0674607
-0.0775945
-0.0797639
-0.0732441
-0.0602757
-0.0453783
-0.0317024
-0.0215525
-0.015446
-0.0117462
-0.00801047
-0.00292217
0.00327287
0.00975339
0.015897
0.0214488
0.0264423
0.0308923
0.0347088
0.0372689
0.0374178
0.0344531
0.0293618
0.0247601
0.0227117
0.0233729
0.0253881
0.0275207
0.0292264
0.0304929
0.0315468
0.0326128
0.0337036
0.0340965
0.0324535
0.0280375
0.0220339
0.0172756
0.0159194
0.0178478
0.0211778
0.0241616
0.0260632
0.0269381
0.0272064
0.0273493
0.0275233
0.0270742
0.0248605
0.0204117
0.0149151
0.0108036
0.009931
0.0123163
0.0162951
0.0199738
0.0223092
0.0232372
0.0232957
0.0231503
0.0229506
0.0220018
0.0192976
0.0146511
0.00937455
0.005695
0.00519181
0.00784092
0.0121867
0.0164397
0.019406
0.020803
0.0210599
0.0208488
0.0203873
0.0190935
0.0160693
0.0111162
0.00537598
0.000946581
-0.000377143
0.00180181
0.00637665
0.0115368
0.0157721
0.0183704
0.0194038
0.0194111
0.0189155
0.0178149
0.0154038
0.0110066
0.00486761
-0.00156983
-0.00626022
-0.00766284
-0.00555315
-0.00104851
0.00408093
0.00829324
0.010762
0.0113509
0.0102989
0.00779986
0.00374854
-0.00198986
-0.00908361
-0.0163934
-0.0222191
-0.0250252
-0.024168
-0.0201482
-0.0143438
-0.00839406
-0.00365534
-0.000966227
-0.000714386
-0.00309423
-0.00828441
-0.0163857
-0.0271303
-0.0395395
-0.0518127
-0.061649
-0.0668852
-0.0662842
-0.0599768
-0.0494582
-0.0370286
-0.0249661
-0.0148556
-0.00736545
-0.00243776
0.000353412
0.00149136
0.00136074
0.000206144
-0.00179178
-0.0044165
-0.0073656
-0.0101666
-0.0124119
-0.0134837
-0.0135477
-0.0117518
-0.0102107
-0.00553755
-0.0061423
0.00369464
-0.00916864
0.0687216
0.067516
0.0634043
0.0571866
0.048066
0.0353912
0.0186536
-0.00253961
-0.0272939
-0.0532871
-0.0759874
-0.0869703
-0.0887239
-0.0799296
-0.0634943
-0.0454225
-0.0295993
-0.0188496
-0.0136797
-0.011625
-0.00914075
-0.00444147
0.00196651
0.00885828
0.0154012
0.0212915
0.0265959
0.0313478
0.0354796
0.0382324
0.0380817
0.0340263
0.0273001
0.0214108
0.0190841
0.0203088
0.0231092
0.0258548
0.0279428
0.0294189
0.0305508
0.031579
0.0326265
0.032971
0.031065
0.0259168
0.0187458
0.0129571
0.0113897
0.0140565
0.0184985
0.022398
0.0248213
0.0258682
0.0260956
0.0261534
0.0262821
0.0256831
0.0229765
0.0176478
0.0111863
0.00649517
0.00570397
0.00875944
0.0136765
0.018211
0.0211053
0.0222773
0.0223952
0.0222714
0.0220203
0.0207483
0.0173056
0.0116321
0.00541343
0.00128298
0.000988652
0.00436986
0.00964051
0.0147228
0.0182795
0.0200255
0.0204688
0.0203475
0.0197965
0.0180644
0.0141796
0.0081094
0.0013436
-0.00366602
-0.00493821
-0.00213015
0.00338578
0.00948558
0.0144615
0.0175644
0.0189262
0.0191421
0.0187024
0.0173499
0.0142644
0.008834
0.0015686
-0.00574784
-0.0108033
-0.0119589
-0.00906613
-0.00347173
0.002774
0.00791799
0.0110543
0.0120558
0.011159
0.00844702
0.0036792
-0.00325516
-0.0117507
-0.0202516
-0.0267028
-0.0294112
-0.0277962
-0.0225699
-0.015401
-0.00819857
-0.00250408
0.000762996
0.00120502
-0.00138647
-0.00722624
-0.0164265
-0.0286452
-0.0427205
-0.0565909
-0.0676812
-0.0735986
-0.0729824
-0.0659613
-0.0541843
-0.0402289
-0.0266779
-0.0153451
-0.00699986
-0.00157634
0.00141604
0.00253557
0.00222854
0.000780392
-0.00159147
-0.00463122
-0.00798777
-0.0111418
-0.0136354
-0.0148367
-0.0148698
-0.0129792
-0.0111451
-0.00640483
-0.00637668
0.00285852
-0.00802935
0.0724082
0.0712869
0.067457
0.0615402
0.0526296
0.0398318
0.0223024
-0.000863786
-0.0289456
-0.059764
-0.0870119
-0.0990285
-0.100435
-0.0886828
-0.0675817
-0.0453035
-0.0266339
-0.0151469
-0.0113935
-0.0117098
-0.0109528
-0.00670617
7.18989e-05
0.00754139
0.0145841
0.0208531
0.0264804
0.0315548
0.0360359
0.0389936
0.0383665
0.0327354
0.0237124
0.0160983
0.0136386
0.0159047
0.0199546
0.0235871
0.0261615
0.0278243
0.028892
0.0296645
0.0305346
0.0308203
0.0286745
0.0227337
0.0142514
0.00728792
0.00548084
0.00903017
0.0148822
0.0199746
0.0230523
0.0242618
0.0243901
0.0243564
0.0244643
0.0236687
0.020281
0.0137949
0.00613492
0.000797915
0.000221293
0.00420461
0.0103156
0.0158864
0.0194331
0.020886
0.0210904
0.02102
0.0207038
0.0190014
0.0146296
0.00772132
0.000404638
-0.00423572
-0.00425686
3.20685e-05
0.00644298
0.0125272
0.0167763
0.0189289
0.0196048
0.0196018
0.018928
0.0166411
0.0117225
0.00436391
-0.00354994
-0.00919406
-0.0103975
-0.00686968
-0.000265777
0.00693232
0.012776
0.0164673
0.0182141
0.0186772
0.0182932
0.016622
0.0127361
0.00613008
-0.00237288
-0.010624
-0.0160432
-0.0169041
-0.0131394
-0.00633509
0.00116142
0.0073646
0.0112748
0.0127651
0.0120499
0.00904782
0.0033857
-0.00496501
-0.0150322
-0.0247855
-0.0318184
-0.0343209
-0.0318169
-0.0252601
-0.0166257
-0.00810063
-0.00140943
0.00245325
0.00307732
0.000220114
-0.00636726
-0.0167797
-0.0305611
-0.0463474
-0.0618274
-0.0741745
-0.0807858
-0.0801697
-0.0724327
-0.0593604
-0.0438013
-0.0286571
-0.0159963
-0.00671138
-0.000736554
0.0024865
0.00359716
0.0031061
0.00134122
-0.00143704
-0.0049242
-0.0087123
-0.0122326
-0.0149781
-0.0163055
-0.0162973
-0.0142969
-0.0121451
-0.00732542
-0.0066273
0.00195342
-0.00681372
0.0765468
0.0755408
0.0720947
0.0666232
0.0581019
0.0453574
0.0271013
0.00170915
-0.0304583
-0.0677669
-0.101081
-0.11405
-0.114716
-0.0990294
-0.0717382
-0.0440354
-0.0219186
-0.00988537
-0.00850822
-0.0124206
-0.0140997
-0.0102973
-0.00280336
0.00555293
0.013256
0.0199434
0.025868
0.0312133
0.0359283
0.0390029
0.037827
0.0302585
0.0181885
0.00814923
0.00559009
0.00960292
0.0156198
0.020543
0.0237294
0.0254991
0.026275
0.0265747
0.0272136
0.0274886
0.0250273
0.0180093
0.00795564
-0.000210906
-0.00207096
0.00262936
0.0101999
0.0167493
0.0206063
0.0219744
0.0219735
0.0218725
0.0219831
0.0209202
0.0166697
0.00881344
-0.000206895
-0.00624504
-0.00651653
-0.00138593
0.00615943
0.0129328
0.0172113
0.0189812
0.0193078
0.0193206
0.0189168
0.016689
0.0112526
0.00298846
-0.00550267
-0.0106792
-0.0103913
-0.00508703
0.00261174
0.00982483
0.0148432
0.0174475
0.0183929
0.0185261
0.0176947
0.0147649
0.00870771
-1.86766e-05
-0.00911873
-0.015403
-0.0165222
-0.0122343
-0.00447345
0.00390677
0.0106919
0.0150239
0.0171925
0.0179261
0.0175882
0.0155472
0.0107886
0.00295141
-0.00680513
-0.0159709
-0.0217157
-0.022243
-0.0175697
-0.00951489
-0.000716244
0.00660716
0.011356
0.0133889
0.0128614
0.0094886
0.0027851
-0.00711338
-0.0187894
-0.0297275
-0.0372187
-0.039398
-0.0359316
-0.0280253
-0.0179509
-0.00815502
-0.000522073
0.00389239
0.0046589
0.00148623
-0.00588499
-0.0174918
-0.0327419
-0.0500934
-0.0670375
-0.0805385
-0.0878066
-0.0872144
-0.0788346
-0.0645602
-0.047475
-0.0307797
-0.0167993
-0.00656315
-1.79584e-05
0.00345549
0.00457273
0.00390371
0.0018197
-0.00136775
-0.0052963
-0.00949813
-0.0133604
-0.0163348
-0.0177739
-0.0177175
-0.0156045
-0.0131345
-0.00823628
-0.00687359
0.00102804
-0.00559424
0.0810923
0.0802383
0.0772991
0.0724567
0.0645714
0.0521607
0.0333587
0.0055623
-0.0315944
-0.0777485
-0.119278
-0.133371
-0.133673
-0.11269
-0.076938
-0.0420334
-0.015331
-0.00273169
-0.00494876
-0.0140786
-0.0190583
-0.0155818
-0.00687235
0.00274825
0.0112596
0.0183515
0.0244605
0.0297591
0.0341715
0.037057
0.0355727
0.0266741
0.0115416
-0.00195479
-0.0054305
0.000802293
0.00970085
0.0164999
0.0204655
0.0222149
0.0224451
0.0221479
0.0226007
0.022901
0.0199602
0.0115528
-0.000307619
-0.00969079
-0.0113992
-0.00521826
0.004384
0.0126163
0.0173522
0.0188858
0.0187589
0.018627
0.0187538
0.0173646
0.0121486
0.00284478
-0.00757491
-0.014336
-0.0142736
-0.00788652
0.00124166
0.00932579
0.0143837
0.0164944
0.0169725
0.0170877
0.0165771
0.013775
0.00723437
-0.0023891
-0.0120333
-0.0177286
-0.0171233
-0.0107833
-0.00175395
0.00663142
0.0124439
0.0155149
0.0167449
0.0170172
0.0160056
0.0124013
0.00519986
-0.0048588
-0.0150864
-0.0219628
-0.0229834
-0.0179508
-0.0090573
0.000489673
0.00821014
0.0131815
0.0157741
0.0167788
0.0164735
0.014046
0.00842093
-0.000595565
-0.0115153
-0.0214967
-0.0274934
-0.0276606
-0.0220999
-0.012845
-0.00279437
0.00562157
0.0112111
0.0138019
0.013447
0.0096353
0.00181616
-0.00962553
-0.0227865
-0.0347104
-0.0424718
-0.0442243
-0.0397985
-0.0306459
-0.0193002
-0.00842136
-8.95637e-06
0.0048434
0.00567928
0.00216633
-0.00592941
-0.0185562
-0.0350021
-0.0536117
-0.0717496
-0.0862157
-0.0940506
-0.0934992
-0.0845997
-0.0693233
-0.0509377
-0.032889
-0.0177288
-0.00661986
0.000467034
0.00419468
0.00533756
0.00451242
0.00213545
-0.001423
-0.00573796
-0.0102873
-0.0144273
-0.0175816
-0.0191058
-0.0189977
-0.0167833
-0.0140222
-0.0090642
-0.00708948
0.000138388
-0.00445275
0.0859846
0.0853259
0.0830366
0.0790517
0.0721296
0.0604807
0.0414985
0.0113
-0.0318411
-0.0901518
-0.142636
-0.156979
-0.156534
-0.128719
-0.0819925
-0.0378988
-0.00577154
0.0068968
-0.000845446
-0.0175224
-0.0271841
-0.0237128
-0.0128422
-0.00127699
0.00830032
0.0157846
0.0218147
0.0262716
0.0293638
0.0315361
0.0300024
0.0209146
0.00359189
-0.0136869
-0.0189641
-0.0106475
0.00187088
0.0112084
0.0161688
0.0177718
0.0172582
0.0163379
0.0166877
0.0170198
0.0134733
0.00357001
-0.0101242
-0.0207192
-0.0222078
-0.0143649
-0.0025184
0.00754012
0.0132081
0.0149157
0.0146821
0.0145504
0.0147052
0.0129852
0.00683212
-0.00383219
-0.0155527
-0.0229987
-0.0226261
-0.0150112
-0.00429813
0.00510153
0.0109282
0.0133722
0.0140082
0.0142312
0.0136156
0.0102658
0.00270351
-0.0081508
-0.0188234
-0.0249728
-0.0240652
-0.0167596
-0.00648021
0.00300974
0.00956384
0.0130661
0.0145624
0.0149632
0.0137761
0.00954535
0.00131192
-0.00991946
-0.0211176
-0.0284847
-0.0293929
-0.0236873
-0.013783
-0.00319614
0.00535575
0.0108935
0.0138643
0.0151143
0.0148327
0.0120535
0.0056636
-0.00436485
-0.0162516
-0.0268755
-0.0330189
-0.0328148
-0.0264486
-0.0161392
-0.00499751
0.00438002
0.0107335
0.0138472
0.013631
0.00935221
0.000455119
-0.0123615
-0.0267213
-0.0393204
-0.0471241
-0.0483789
-0.0430822
-0.0329127
-0.0206088
-0.00897025
-4.5647e-05
0.00506435
0.00587742
0.00204787
-0.00660516
-0.0199381
-0.0371695
-0.0566106
-0.0755706
-0.0907315
-0.0989889
-0.0984796
-0.0892147
-0.0732198
-0.0538855
-0.0348249
-0.0187546
-0.00694562
0.000600304
0.00456452
0.00575296
0.00481178
0.00220321
-0.00164056
-0.00623643
-0.0110223
-0.0153411
-0.0186023
-0.0201725
-0.0200091
-0.0177156
-0.0147149
-0.00973555
-0.00724627
-0.000659512
-0.00347006
0.0911465
0.0907297
0.0892495
0.0863862
0.0808422
0.0705422
0.0519808
0.019668
-0.0307187
-0.10593
-0.173393
-0.188232
-0.187807
-0.150328
-0.0880676
-0.0318608
0.00756723
0.0198078
0.00349817
-0.0244832
-0.0400921
-0.0356529
-0.0211354
-0.006744
0.0041681
0.0119587
0.0173476
0.0197939
0.020659
0.021982
0.0208331
0.0117675
-0.00749297
-0.0280378
-0.0348821
-0.0245523
-0.00795963
0.00448213
0.0106595
0.0120371
0.0106763
0.00917083
0.00950753
0.00990238
0.00577729
-0.00545941
-0.0207669
-0.0324865
-0.033808
-0.0243737
-0.0102926
0.00158895
0.00816703
0.0100349
0.00970339
0.00958771
0.0097974
0.00782855
0.000917844
-0.0108547
-0.0236459
-0.031673
-0.0310453
-0.022357
-0.0102208
0.000364528
0.00686417
0.00958173
0.0103462
0.0106709
0.00998861
0.00621119
-0.00215992
-0.0139865
-0.025465
-0.0319581
-0.0307821
-0.0226645
-0.0113389
-0.000934934
0.00621269
0.010045
0.011748
0.012258
0.0109412
0.00622357
-0.00280811
-0.0149339
-0.0268548
-0.0345636
-0.0353466
-0.0290903
-0.0183888
-0.00699987
0.002175
0.00812354
0.0113704
0.0128138
0.0125614
0.00952752
0.00257426
-0.00818786
-0.0207497
-0.0317786
-0.0379388
-0.037369
-0.0303372
-0.0192109
-0.0072506
0.00284856
0.00980091
0.0133457
0.0132264
0.00851838
-0.00128321
-0.0151418
-0.0302754
-0.0431577
-0.0507591
-0.0514826
-0.0454907
-0.0346531
-0.0218365
-0.00988014
-0.000797115
0.00434341
0.00504727
0.000982111
-0.00797211
-0.0216035
-0.0391219
-0.0588771
-0.0781918
-0.0936909
-0.102173
-0.101695
-0.0922488
-0.0758892
-0.0560609
-0.0364491
-0.0198508
-0.00760104
0.000267873
0.00442679
0.00567986
0.00468359
0.00194226
-0.00205621
-0.00678511
-0.0116615
-0.016033
-0.0193075
-0.0208708
-0.0206441
-0.0183004
-0.0151301
-0.0101866
-0.00731596
-0.0013189
-0.00271107
0.0964818
0.0963571
0.095852
0.094416
0.0907531
0.0826396
0.0654727
0.0319741
-0.0269035
-0.126484
-0.213465
-0.22489
-0.225328
-0.17662
-0.0946309
-0.022667
0.0251807
0.0357056
0.00704706
-0.0374675
-0.0610051
-0.0538513
-0.0330297
-0.0142321
-0.00145775
0.00651971
0.0104287
0.009778
0.00831041
0.00924917
0.00888594
-0.000547951
-0.021798
-0.0449513
-0.0528544
-0.0404136
-0.0195812
-0.00371248
0.00383936
0.00496834
0.00273882
0.000708044
0.00112784
0.00169948
-0.00277068
-0.0149309
-0.0314211
-0.0440598
-0.0453245
-0.0345944
-0.0185565
-0.00505084
0.00230801
0.0042703
0.00381452
0.00371393
0.00403853
0.00200319
-0.00533989
-0.017822
-0.0313392
-0.0397824
-0.0389687
-0.0294615
-0.016216
-0.00471853
0.00225526
0.00511748
0.00593856
0.0063528
0.00568959
0.00170173
-0.00714341
-0.0195687
-0.0315469
-0.0382345
-0.0368379
-0.0281315
-0.0160735
-0.00506558
0.00242602
0.0064134
0.00822053
0.00881795
0.00746592
0.00249303
-0.00699217
-0.0196315
-0.0319522
-0.0398148
-0.0404609
-0.0338187
-0.022612
-0.0107581
-0.00126845
0.00485198
0.00821583
0.00977777
0.00958139
0.00645499
-0.000767388
-0.0118892
-0.0247555
-0.0359014
-0.041931
-0.0410188
-0.0335138
-0.0218917
-0.00948782
0.000988578
0.00828688
0.0121176
0.0120601
0.00704379
-0.00335131
-0.0177779
-0.0331589
-0.045884
-0.05304
-0.0532379
-0.0468072
-0.0357546
-0.0229778
-0.0112314
-0.00239675
0.00253103
0.00306392
-0.00110882
-0.0100565
-0.0235334
-0.0407888
-0.0602679
-0.079382
-0.0947833
-0.103247
-0.102785
-0.0933761
-0.0770669
-0.0572783
-0.0376635
-0.0210038
-0.00864062
-0.000630486
0.00365847
0.00499457
0.00402475
0.00128266
-0.00270462
-0.00738839
-0.0121846
-0.016461
-0.0196368
-0.0211273
-0.0208241
-0.0184633
-0.0152054
-0.0103719
-0.00727406
-0.00181117
-0.00220688
0.101874
0.102086
0.10272
0.103012
0.101823
0.0968766
0.0825441
0.0494642
-0.0199629
-0.152629
-0.268777
-0.277428
-0.278845
-0.212478
-0.102098
-0.00993141
0.049506
0.0548056
0.00531671
-0.0629589
-0.0950761
-0.0808556
-0.0493492
-0.0239599
-0.00872026
-0.000830664
0.000667506
-0.00367769
-0.00716001
-0.0058783
-0.00509862
-0.0148027
-0.0375003
-0.0625811
-0.0713886
-0.0571446
-0.0323916
-0.0131615
-0.00423166
-0.00336137
-0.0064457
-0.00894701
-0.00832901
-0.00735032
-0.0117332
-0.0242136
-0.0413014
-0.0545446
-0.0558637
-0.044283
-0.0268059
-0.012083
-0.00420318
-0.00229078
-0.0029465
-0.00304539
-0.00250276
-0.0043257
-0.0116552
-0.0243355
-0.038147
-0.0467898
-0.0458617
-0.0358593
-0.0219401
-0.00993459
-0.00279188
1.0643e-05
0.000774271
0.00126637
0.000757404
-0.0031368
-0.0120218
-0.0245843
-0.0366935
-0.0433973
-0.0418376
-0.0328168
-0.0204266
-0.00922612
-0.00173376
0.00216241
0.00393296
0.00459987
0.00335523
-0.00156142
-0.0110671
-0.0237622
-0.0361052
-0.0439057
-0.0444046
-0.0375733
-0.0262124
-0.0143092
-0.00489645
0.0010837
0.00435524
0.00594443
0.00585544
0.00285653
-0.00426593
-0.0153013
-0.0280455
-0.0389863
-0.0447293
-0.0435147
-0.0357727
-0.0240434
-0.0116566
-0.00123648
0.00607788
0.010007
0.00999596
0.00487684
-0.00568331
-0.0201027
-0.0351458
-0.0472548
-0.0537366
-0.0534565
-0.0469107
-0.0361763
-0.0240601
-0.0130906
-0.00492195
-0.000437492
-0.000111165
-0.00423856
-0.0128572
-0.0257173
-0.0421373
-0.0607049
-0.0790028
-0.093816
-0.101985
-0.101529
-0.0924071
-0.076607
-0.0574402
-0.0384211
-0.0222153
-0.0101084
-0.00217071
0.00216571
0.00360271
0.00275654
0.00016948
-0.00361755
-0.00805885
-0.0125873
-0.0166054
-0.0195566
-0.0208992
-0.0205024
-0.0181613
-0.0149042
-0.0102691
-0.00710155
-0.00213159
-0.00194066
0.107188
0.107778
0.109684
0.112023
0.113923
0.113564
0.104138
0.0757659
-0.00638599
-0.195148
-0.33753
-0.333139
-0.345436
-0.260311
-0.113167
0.00663402
0.0762214
0.0779269
0.00920463
-0.0886032
-0.140409
-0.120177
-0.072448
-0.0366549
-0.0177868
-0.010229
-0.0119379
-0.0201107
-0.0251419
-0.0226669
-0.0202108
-0.029458
-0.0525219
-0.0786933
-0.0884089
-0.0731873
-0.0454338
-0.02338
-0.0132947
-0.0127491
-0.0166964
-0.019631
-0.0186669
-0.0169311
-0.0206399
-0.0327146
-0.0497229
-0.0631777
-0.0646299
-0.0527147
-0.0344852
-0.0191319
-0.0111253
-0.00949798
-0.010482
-0.010598
-0.0096898
-0.0109443
-0.0177328
-0.0300311
-0.0436536
-0.0522477
-0.0512705
-0.0411321
-0.027054
-0.0150449
-0.00813109
-0.00566154
-0.00510436
-0.00454065
-0.0047172
-0.00814937
-0.0165748
-0.0287596
-0.0405957
-0.0471212
-0.0454604
-0.0364296
-0.0241628
-0.0132536
-0.00617638
-0.00267457
-0.00110933
-0.000383309
-0.00133828
-0.00583033
-0.0148668
-0.0271148
-0.0390727
-0.0465823
-0.0469259
-0.0401202
-0.0289913
-0.0175046
-0.00861796
-0.00314322
-0.000208818
0.00130707
0.00139904
-0.00121036
-0.0078156
-0.0182761
-0.0304414
-0.04084
-0.0461405
-0.044679
-0.0369673
-0.0255665
-0.0137169
-0.00384999
0.00309461
0.00690811
0.00695253
0.0020063
-0.00820903
-0.0219917
-0.0360947
-0.0471382
-0.0527441
-0.0520749
-0.045789
-0.0359503
-0.0251314
-0.0154923
-0.00838018
-0.00454426
-0.00444503
-0.00836973
-0.0163451
-0.0281398
-0.0431599
-0.0601766
-0.0770294
-0.0907493
-0.0983435
-0.0978872
-0.0893143
-0.0744969
-0.0565449
-0.0387282
-0.0235005
-0.0120318
-0.00439569
-0.000107531
0.001445
0.000827154
-0.00143546
-0.00481982
-0.00881023
-0.0128744
-0.0164635
-0.0190589
-0.0201757
-0.0196677
-0.0173867
-0.0142192
-0.00988112
-0.00678613
-0.0022992
-0.00184503
0.112271
0.113256
0.116531
0.121103
0.126766
0.132042
0.130734
0.110058
0.0145262
-0.227573
-0.457593
-0.421669
-0.440648
-0.32605
-0.126712
0.0196876
0.0909999
0.0978556
0.0128058
-0.0952509
-0.172192
-0.161075
-0.100244
-0.0521676
-0.0286354
-0.0215998
-0.0270698
-0.0390227
-0.0450155
-0.0403792
-0.035366
-0.0430202
-0.0651508
-0.0914202
-0.102023
-0.0868843
-0.0575422
-0.0336558
-0.022899
-0.0228632
-0.0277466
-0.0310955
-0.0295945
-0.0266548
-0.0290177
-0.0399209
-0.0561525
-0.0693887
-0.0710087
-0.0592761
-0.0410613
-0.025786
-0.0181593
-0.0171368
-0.0186224
-0.0187724
-0.0173144
-0.0175992
-0.0232863
-0.0346055
-0.0475455
-0.0558304
-0.0548589
-0.0449473
-0.0312573
-0.019806
-0.013582
-0.0117681
-0.0115882
-0.0109511
-0.0105888
-0.0131583
-0.0206011
-0.0318808
-0.043034
-0.0491845
-0.0474851
-0.0387555
-0.0270878
-0.0169881
-0.0107828
-0.00801165
-0.00683421
-0.00605079
-0.00651015
-0.0101831
-0.0182419
-0.0295308
-0.040694
-0.0476848
-0.0478675
-0.0413068
-0.0308047
-0.020217
-0.0123296
-0.00775006
-0.00541341
-0.00407265
-0.00371182
-0.00565029
-0.0113049
-0.0206936
-0.0318221
-0.0413467
-0.0460585
-0.0444178
-0.0370192
-0.0264035
-0.0156362
-0.00684875
-0.000687571
0.00278527
0.00291363
-0.00154172
-0.0108655
-0.0233753
-0.0359587
-0.0455254
-0.0500945
-0.0491626
-0.0435381
-0.0351681
-0.0262393
-0.0184236
-0.0127111
-0.00970805
-0.00985429
-0.0134259
-0.0204608
-0.0307701
-0.0438665
-0.0587396
-0.0735596
-0.0857103
-0.0924639
-0.0920068
-0.08424
-0.0708594
-0.0546832
-0.0386384
-0.0248803
-0.0144147
-0.00731067
-0.00317804
-0.00150395
-0.00178891
-0.00355184
-0.00632424
-0.00965105
-0.0130546
-0.0160488
-0.0181633
-0.0189822
-0.0183477
-0.0161693
-0.0131736
-0.00923394
-0.00632289
-0.00235024
-0.00181595
0.116961
0.118346
0.122984
0.129955
0.139774
0.152606
0.163379
0.167484
0.0611874
-0.216228
-0.527096
-0.484246
-0.573627
-0.423908
-0.155858
0.00279849
0.0575938
0.035349
-0.0106875
-0.0993991
-0.189103
-0.194728
-0.128246
-0.0690972
-0.0407995
-0.0345597
-0.0441349
-0.0598175
-0.066059
-0.0581298
-0.0494154
-0.0542494
-0.0742138
-0.0995784
-0.110925
-0.0968715
-0.0675691
-0.0431588
-0.0324522
-0.0332596
-0.0392322
-0.0429858
-0.0407157
-0.0360733
-0.0364146
-0.0454273
-0.0602379
-0.0728361
-0.0746155
-0.0635282
-0.0460866
-0.0316436
-0.0249714
-0.0249316
-0.0271154
-0.0273102
-0.0251
-0.0240082
-0.0280544
-0.0378339
-0.0496298
-0.0573563
-0.0564317
-0.0470841
-0.0343134
-0.023988
-0.0189369
-0.0181212
-0.018494
-0.0177742
-0.016659
-0.0179703
-0.023929
-0.0338059
-0.0438923
-0.0494835
-0.0478038
-0.0396705
-0.0290606
-0.0202808
-0.0154056
-0.0137045
-0.013095
-0.0122489
-0.0120036
-0.0144715
-0.0210662
-0.030912
-0.0408971
-0.0471582
-0.0471775
-0.0410701
-0.0315703
-0.0223449
-0.0159163
-0.0126134
-0.0111286
-0.0100587
-0.00933818
-0.010331
-0.0146203
-0.0224669
-0.0321299
-0.0404751
-0.0444706
-0.0427263
-0.0359214
-0.0265368
-0.0173828
-0.0101902
-0.00522283
-0.00231467
-0.00206736
-0.00570736
-0.0136026
-0.0242412
-0.0347861
-0.0425307
-0.045956
-0.0449166
-0.0403441
-0.033953
-0.0274093
-0.0218206
-0.0178033
-0.0158086
-0.016225
-0.0193031
-0.0251178
-0.0335607
-0.0442797
-0.0565098
-0.068804
-0.0789819
-0.0846685
-0.0842154
-0.0774843
-0.0659385
-0.0520236
-0.0382375
-0.0263704
-0.0172329
-0.0108852
-0.00702806
-0.00523913
-0.00509205
-0.00617928
-0.00812861
-0.0105817
-0.013139
-0.0153894
-0.0169164
-0.0173787
-0.0166076
-0.0145727
-0.0118176
-0.00837073
-0.00571431
-0.00232754
-0.00174016
0.121095
0.122837
0.128756
0.137919
0.152212
0.172113
0.201826
0.198372
0.156275
-0.25222
-0.702234
-0.549567
-0.643521
-0.528345
-0.230184
-0.0914428
-0.0356166
-0.0538878