/*--------------------------------*- C++ -*----------------------------------*\
  =========                 |
  \\      /  F ield         | OpenFOAM: The Open Source CFD Toolbox
   \\    /   O peration     | Website:  https://openfoam.org
    \\  /    A nd           | Version:  11
     \\/     M anipulation  |
\*---------------------------------------------------------------------------*/
FoamFile
{
    format      ascii;
    class       volVectorField;
    location    "18.570272";
    object      U_0;
}
// * * * * * * * * * * * * * * * * * * * * * * * * * * * * * * * * * * * * * //

dimensions      [0 1 -1 0 0 0 0];

internalField   nonuniform List<vector> 
7132
(
(1.00012 -0.000219316 3.52065e-18)
(1.00169 -0.00064444 1.30692e-17)
(1.00517 -0.00108249 1.36219e-17)
(1.01039 -0.00155071 1.68274e-17)
(1.01756 -0.00205959 2.23046e-17)
(1.02685 -0.00259503 2.26466e-17)
(1.03833 -0.00312062 2.09788e-17)
(1.05186 -0.00355887 1.90006e-17)
(1.06688 -0.00382279 1.68554e-17)
(1.08256 -0.00382386 1.46596e-17)
(1.09761 -0.00350875 1.27308e-17)
(1.1108 -0.00294919 1.13819e-17)
(1.12132 -0.00219646 1.04725e-17)
(1.12848 -0.00128188 9.66664e-18)
(1.13171 -0.000207547 6.84741e-18)
(1.13031 0.00103432 4.82542e-18)
(1.12364 0.00235509 3.35414e-18)
(1.11166 0.00355055 4.34495e-18)
(1.09536 0.00439148 3.50888e-18)
(1.07656 0.00470609 3.89754e-18)
(1.05763 0.0044103 4.85378e-18)
(1.04113 0.00350495 4.66214e-18)
(1.02942 0.00207109 4.46193e-18)
(1.02441 0.000277345 7.54492e-18)
(1.02715 -0.00159852 -1.21506e-17)
(1.03732 -0.00315308 -1.32691e-16)
(1.0527 -0.00392955 -3.10819e-16)
(1.06923 -0.00361306 -3.17088e-16)
(1.08211 -0.00224019 -1.57698e-16)
(1.08756 -0.000222039 -3.07111e-17)
(1.08411 0.00186481 3.50869e-17)
(1.07264 0.00353877 2.08096e-17)
(1.05562 0.00453575 -2.08859e-16)
(1.03606 0.00477414 -2.566e-16)
(1.01706 0.00426484 1.14181e-15)
(1.00155 0.00304878 3.38735e-15)
(0.992267 0.0011981 8.39531e-16)
(0.991618 -0.00112172 -2.87371e-14)
(1.00107 -0.00355254 -1.46896e-13)
(1.02015 -0.00550857 -3.80193e-13)
(1.04555 -0.00633448 -5.91873e-13)
(1.07145 -0.0056332 -5.72524e-13)
(1.09128 -0.00353585 -3.37543e-13)
(1.10024 -0.000674293 -1.16807e-13)
(1.09691 0.00213719 -1.82085e-14)
(1.08309 0.00426478 2.08659e-14)
(1.06252 0.00542344 1.89166e-14)
(1.03932 0.00560856 -4.31383e-14)
(1.01721 0.00493085 -1.30887e-13)
(0.999415 0.00349316 -1.17846e-13)
(0.988814 0.00138012 2.52524e-13)
(0.987989 -0.00124207 1.84635e-12)
(0.998566 -0.00398494 5.86627e-12)
(1.02001 -0.00620307 1.17969e-11)
(1.04867 -0.00717846 1.62798e-11)
(1.07814 -0.00646718 1.55508e-11)
(1.10114 -0.00417998 9.90286e-12)
(1.11214 -0.00097863 4.15625e-12)
(1.10923 0.00222462 1.64837e-12)
(1.09428 0.00466155 7.25891e-13)
(1.07161 0.0059535 7.46999e-13)
(1.04619 0.00609528 2.50119e-12)
(1.02236 0.00527259 2.91383e-12)
(1.00353 0.00367842 -1.17561e-11)
(0.992451 0.00145542 -6.67386e-11)
(0.991437 -0.00121064 -1.8759e-10)
(1.00182 -0.00394261 -3.81103e-10)
(1.02291 -0.00613997 -6.18385e-10)
(1.05117 -0.00715022 -8.35124e-10)
(1.08061 -0.00656532 -9.57962e-10)
(1.10436 -0.00445121 -9.42224e-10)
(1.11688 -0.00135969 -7.93237e-10)
(1.11572 0.00188209 -5.60292e-10)
(1.10203 0.00448526 -3.13855e-10)
(1.07974 0.00595964 -1.15853e-10)
(1.05402 0.00619456 -2.18299e-13)
(1.02973 0.0053544 2.22842e-11)
(1.01069 0.00369288 -5.5865e-11)
(0.999689 0.00144 -2.48478e-10)
(0.998727 -0.00115593 -5.63119e-10)
(1.00865 -0.00371179 -9.80184e-10)
(1.02837 -0.00569276 -1.44303e-09)
(1.0544 -0.00656634 -1.86738e-09)
(1.08131 -0.00603619 -2.1644e-09)
(1.10318 -0.0041936 -2.26555e-09)
(1.11532 -0.00149575 -2.14015e-09)
(1.11549 0.00139731 -1.80275e-09)
(1.10433 0.00383465 -1.31414e-09)
(1.08483 0.00535095 -7.81109e-10)
(1.06137 0.00574837 -3.33777e-10)
(1.03856 0.00507385 -8.06926e-11)
(1.02041 0.00352396 -7.01723e-11)
(1.00999 0.0013608 -2.83829e-10)
(1.00922 -0.00109167 -6.59513e-10)
(1.01859 -0.00340971 -1.12032e-09)
(1.03661 -0.00510217 -1.59306e-09)
(1.05972 -0.00575098 -2.01578e-09)
(1.08303 -0.0051819 -2.33935e-09)
(1.10157 -0.00354595 -2.5257e-09)
(1.11167 -0.00126145 -2.54459e-09)
(1.11178 0.00113625 -2.3732e-09)
(1.10255 0.0031544 -2.00684e-09)
(1.08641 0.00444697 -1.48741e-09)
(1.06678 0.00484379 -9.21292e-10)
(1.04742 0.00433225 -4.53809e-10)
(1.03187 0.00302392 -2.04555e-10)
(1.02301 0.001136 -2.11744e-10)
(1.02266 -0.00100458 -4.28683e-10)
(1.03109 -0.00297431 -7.65082e-10)
(1.04669 -0.00433178 -1.13314e-09)
(1.06612 -0.00475271 -1.4712e-09)
(1.08511 -0.00415214 -1.74468e-09)
(1.09965 -0.00271668 -1.93581e-09)
(1.107 -0.00082849 -2.03121e-09)
(1.10625 0.00107076 -2.01289e-09)
(1.09826 0.00260845 -1.85965e-09)
(1.08513 0.00354794 -1.56622e-09)
(1.06959 0.00378698 -1.16831e-09)
(1.05457 0.00332593 -7.48368e-10)
(1.04278 0.00224732 -4.06594e-10)
(1.03647 0.000723808 -2.14319e-10)
(1.03699 -0.000967065 -1.85747e-10)
(1.04437 -0.00246794 -2.85496e-10)
(1.05705 -0.0034272 -4.57514e-10)
(1.07218 -0.00361471 -6.50992e-10)
(1.08633 -0.00300674 -8.31483e-10)
(1.09648 -0.0017911 -9.79566e-10)
(1.10074 -0.000292322 -1.08381e-09)
(1.09873 0.00114088 -1.13339e-09)
(1.09138 0.00223391 -1.11508e-09)
(1.08055 0.00282995 -1.01837e-09)
(1.06842 0.00287901 -8.46612e-10)
(1.05723 0.00240556 -6.25124e-10)
(1.04897 0.00149091 -3.96666e-10)
(1.04521 0.000282229 -2.04803e-10)
(1.04677 -0.000996261 -7.67372e-11)
(1.0534 -0.00206879 -1.70094e-11)
(1.06366 -0.00267951 -1.31163e-11)
(1.07522 -0.00268029 -4.58144e-11)
(1.08545 -0.00208694 -9.70325e-11)
(1.09213 -0.00107192 -1.53053e-10)
(1.09407 0.000100374 -2.04192e-10)
(1.09122 0.00116196 -2.43128e-10)
(1.08453 0.00191367 -2.63694e-10)
(1.07559 0.0022529 -2.61198e-10)
(1.06618 0.00216107 -2.34114e-10)
(1.05802 0.00167639 -1.85695e-10)
(1.05258 0.000880185 -1.23735e-10)
(1.0509 -9.70418e-05 -5.80609e-11)
(1.05344 -0.00107068 2.7955e-12)
(1.05968 -0.00182689 5.37358e-11)
(1.06843 -0.00218235 9.32468e-11)
(1.07749 -0.00204493 1.22217e-10)
(1.08517 -0.00146487 1.42536e-10)
(1.08935 -0.000587318 1.56136e-10)
(1.09001 0.000328062 1.64464e-10)
(1.08652 0.00113884 1.68414e-10)
(1.08068 0.00154623 1.67245e-10)
(1.07402 0.00180127 1.63888e-10)
(1.06535 0.00112339 1.42635e-10)
(1.00012 -0.000656153 6.1022e-20)
(1.00168 -0.00192862 6.62437e-19)
(1.00513 -0.00324093 1.2928e-18)
(1.01032 -0.00464695 1.94349e-18)
(1.01748 -0.00617929 2.73873e-18)
(1.02679 -0.00779676 3.47745e-18)
(1.03835 -0.00939056 3.86279e-18)
(1.05203 -0.0107245 5.02264e-18)
(1.06731 -0.0115334 3.42839e-18)
(1.08329 -0.0115418 2.34739e-18)
(1.09862 -0.0105858 3.91757e-18)
(1.11202 -0.00889745 6.67767e-18)
(1.1227 -0.00663879 4.8193e-18)
(1.13001 -0.00390876 2.43935e-18)
(1.13338 -0.000711492 1.75895e-18)
(1.1321 0.00299946 2.75867e-18)
(1.1254 0.00697134 4.27637e-18)
(1.1132 0.0105905 5.73236e-18)
(1.09647 0.0131596 6.93342e-18)
(1.07712 0.0141512 7.51534e-18)
(1.05759 0.0133011 5.92672e-18)
(1.04051 0.0106017 6.99343e-18)
(1.02834 0.00628716 1.03363e-17)
(1.02308 0.000855918 -9.08e-17)
(1.0259 -0.00485873 -5.86702e-17)
(1.03659 -0.00962692 1.9225e-15)
(1.05288 -0.0120362 5.10294e-15)
(1.07048 -0.0111004 4.98797e-15)
(1.08423 -0.00692054 2.35613e-15)
(1.09008 -0.000760393 5.85298e-16)
(1.08651 0.00560778 2.83476e-17)
(1.07456 0.010711 -4.98882e-16)
(1.05686 0.0137531 -2.82499e-16)
(1.03658 0.0144993 5.67355e-15)
(1.01684 0.0129913 5.00702e-15)
(1.00062 0.00934908 -7.6531e-14)
(0.990726 0.00377128 -2.13406e-13)
(0.989726 -0.00327059 5.03454e-13)
(0.999323 -0.0107067 4.50679e-12)
(1.0192 -0.0167396 1.27016e-11)
(1.04594 -0.0193322 1.98713e-11)
(1.0733 -0.0172382 1.95036e-11)
(1.09422 -0.0108518 1.26849e-11)
(1.10359 -0.00212011 5.47217e-12)
(1.09996 0.00645562 1.26245e-12)
(1.08539 0.0129346 -2.30375e-13)
(1.0639 0.0164594 -4.3615e-13)
(1.0398 0.017036 -1.49332e-13)
(1.01686 0.0150155 8.80955e-13)
(0.998292 0.0107064 1.72451e-12)
(0.987025 0.00433857 -5.30698e-12)
(0.985799 -0.0036229 -3.83156e-11)
(0.996482 -0.0120166 -1.18502e-10)
(1.01871 -0.0188555 -2.41093e-10)
(1.04877 -0.0219047 -3.51471e-10)
(1.07987 -0.0197771 -3.82199e-10)
(1.10419 -0.0128111 -3.18876e-10)
(1.11579 -0.0030446 -2.05018e-10)
(1.11265 0.00672718 -9.56505e-11)
(1.09687 0.0141538 -2.56782e-11)
(1.07312 0.0180846 5.03959e-12)
(1.04665 0.0185227 1.538e-11)
(1.0219 0.0160557 1.33088e-11)
(1.00226 0.0112763 -3.1183e-11)
(0.990441 0.00459568 -1.9404e-10)
(0.988838 -0.00346338 -5.6649e-10)
(0.998999 -0.011785 -1.1837e-09)
(1.02043 -0.0185413 -1.94929e-09)
(1.04962 -0.0217182 -2.63243e-09)
(1.08035 -0.0200373 -2.97324e-09)
(1.10535 -0.0136745 -2.83363e-09)
(1.11877 -0.00430182 -2.27888e-09)
(1.11794 0.00556313 -1.52508e-09)
(1.104 0.0135107 -8.07115e-10)
(1.08105 0.0180369 -2.81649e-10)
(1.05447 0.0188007 2.85425e-12)
(1.02929 0.0163073 6.47552e-11)
(1.0094 0.0113287 -7.87741e-11)
(0.997688 0.00454669 -4.42303e-10)
(0.996282 -0.00331445 -1.04132e-09)
(1.00623 -0.011106 -1.83442e-09)
(1.02653 -0.0171881 -2.69731e-09)
(1.05352 -0.0199122 -3.45369e-09)
(1.08146 -0.0183582 -3.93287e-09)
(1.10412 -0.0128043 -4.01895e-09)
(1.11665 -0.00464713 -3.68324e-09)
(1.11684 0.00411133 -2.99589e-09)
(1.10539 0.0115039 -2.10607e-09)
(1.08543 0.0161255 -1.20915e-09)
(1.06141 0.0173777 -4.96957e-10)
(1.038 0.0153965 -1.04601e-10)
(1.01926 0.0107609 -8.06846e-11)
(1.00839 0.0042404 -3.91768e-10)
(1.00751 -0.00320342 -9.47884e-10)
(1.01725 -0.0102809 -1.62949e-09)
(1.0361 -0.0154706 -2.31241e-09)
(1.06027 -0.0174709 -2.89165e-09)
(1.08449 -0.0157437 -3.29444e-09)
(1.10353 -0.0107651 -3.47721e-09)
(1.11363 -0.00382836 -3.41608e-09)
(1.11334 0.00343392 -3.10406e-09)
(1.1035 0.00953439 -2.56073e-09)
(1.0867 0.013438 -1.85738e-09)
(1.06648 0.0146427 -1.12963e-09)
(1.04665 0.0131138 -5.46771e-10)
(1.03077 0.00917767 -2.43059e-10)
(1.0218 0.00347114 -2.58971e-10)
(1.02168 -0.00303124 -5.36287e-10)
(1.03074 -0.00903864 -9.61495e-10)
(1.04728 -0.0131853 -1.41931e-09)
(1.06771 -0.0144634 -1.82603e-09)
(1.08747 -0.0126129 -2.13589e-09)
(1.10232 -0.00821873 -2.32997e-09)
(1.10948 -0.0024628 -2.39968e-09)
(1.10815 0.00330514 -2.33447e-09)
(1.09938 0.00795699 -2.12123e-09)
(1.08544 0.0107844 -1.7626e-09)
(1.06923 0.0114891 -1.30199e-09)
(1.05373 0.0100788 -8.29311e-10)
(1.04171 0.00680066 -4.50989e-10)
(1.03548 0.00216842 -2.41445e-10)
(1.03645 -0.00298264 -2.1356e-10)
(1.0446 -0.00756031 -3.26647e-10)
(1.05825 -0.0104794 -5.17535e-10)
(1.0743 -0.0110294 -7.29117e-10)
(1.08908 -0.0091424 -9.22924e-10)
(1.09941 -0.00540597 -1.07776e-09)
(1.1034 -0.000822318 -1.18201e-09)
(1.10076 0.00354289 -1.22567e-09)
(1.09261 0.00685694 -1.19679e-09)
(1.08095 0.00864958 -1.08636e-09)
(1.06813 0.00877648 -8.99307e-10)
(1.05645 0.00731637 -6.62625e-10)
(1.04799 0.0045155 -4.20521e-10)
(1.04437 0.000817598 -2.17332e-10)
(1.04642 -0.00309559 -8.02357e-11)
(1.05384 -0.00637636 -1.33675e-11)
(1.06503 -0.00823392 -3.99778e-12)
(1.07744 -0.00821222 -3.3113e-11)
(1.08821 -0.00636623 -8.30946e-11)
(1.09504 -0.00323521 -1.40405e-10)
(1.0967 0.000363753 -1.94948e-10)
(1.09326 0.00361018 -2.38459e-10)
(1.08581 0.00589841 -2.63618e-10)
(1.07609 0.00692014 -2.6472e-10)
(1.06602 0.00662326 -2.39618e-10)
(1.05738 0.00512627 -1.91377e-10)
(1.05175 0.00267606 -1.27888e-10)
(1.05021 -0.000330758 -5.91686e-11)
(1.05325 -0.00332836 6.00809e-12)
(1.06026 -0.0056549 6.21476e-11)
(1.06989 -0.00674117 1.07086e-10)
(1.07976 -0.00630224 1.40858e-10)
(1.08797 -0.00449759 1.64528e-10)
(1.09228 -0.00178162 1.79503e-10)
(1.09271 0.0010447 1.87182e-10)
(1.08867 0.00354199 1.88808e-10)
(1.08212 0.00479468 1.84221e-10)
(1.07471 0.00559169 1.77286e-10)
(1.06518 0.00348634 1.50803e-10)
(1.00011 -0.00108784 9.36101e-23)
(1.00165 -0.00319749 1.06424e-20)
(1.00505 -0.00537842 1.62246e-20)
(1.01017 -0.00772625 1.88911e-20)
(1.0173 -0.0103004 -7.69948e-20)
(1.02664 -0.0130363 -6.94561e-20)
(1.03837 -0.0157536 1.99312e-19)
(1.05238 -0.0180453 -1.92792e-18)
(1.06816 -0.0194544 -2.58072e-18)
(1.08477 -0.0194847 8.54323e-18)
(1.10069 -0.0178468 1.53194e-17)
(1.11451 -0.0149814 -1.13957e-17)
(1.12551 -0.0111798 -5.58053e-17)
(1.13307 -0.00661144 -6.88768e-17)
(1.13671 -0.00124923 -4.32695e-17)
(1.13563 0.00503405 -1.45978e-17)
(1.12886 0.0118211 2.51868e-18)
(1.11616 0.0180301 9.90965e-18)
(1.09854 0.022439 1.33662e-17)
(1.07805 0.0241447 9.48576e-18)
(1.05732 0.0227106 -5.84554e-18)
(1.03913 0.0181308 6.0953e-17)
(1.0261 0.0107891 -2.94917e-18)
(1.02043 0.00149827 -1.89996e-15)
(1.02354 -0.00835397 2.19676e-15)
(1.03538 -0.0166484 4.65768e-14)
(1.05362 -0.0208875 1.16367e-13)
(1.07341 -0.019295 1.23196e-13)
(1.08885 -0.012033 6.43479e-14)
(1.09533 -0.00134608 1.58904e-14)
(1.0913 0.00963738 -1.09142e-15)
(1.07815 0.0183674 -6.23171e-15)
(1.05894 0.0235266 3.10402e-15)
(1.03712 0.0247809 5.33089e-14)
(1.01593 0.0222419 -7.83173e-15)
(0.998395 0.016105 -7.44495e-13)
(0.987453 0.00664735 -1.47082e-12)
(0.985973 -0.00541098 6.00509e-12)
(0.996129 -0.0182821 3.97014e-11)
(1.0179 -0.0288241 1.03384e-10)
(1.04757 -0.0334041 1.59883e-10)
(1.07796 -0.0297834 1.61358e-10)
(1.10092 -0.0186653 1.09035e-10)
(1.11074 -0.00351586 4.8593e-11)
(1.1061 0.0112563 1.2027e-11)
(1.08965 0.0222985 -1.77567e-12)
(1.06608 0.0282142 -3.84746e-12)
(1.04008 0.0291186 -9.27823e-13)
(1.01553 0.0256775 7.07678e-12)
(0.995575 0.01841 1.09096e-11)
(0.983148 0.00763224 -4.7131e-11)
(0.981178 -0.00595904 -2.99735e-10)
(0.991892 -0.0204317 -8.84027e-10)
(1.01531 -0.0323519 -1.73793e-09)
(1.04782 -0.0377745 -2.48728e-09)
(1.08211 -0.0341871 -2.68743e-09)
(1.10931 -0.0221275 -2.22793e-09)
(1.12242 -0.00518425 -1.4157e-09)
(1.119 0.0117056 -6.60923e-10)
(1.10153 0.0244318 -1.83439e-10)
(1.0755 0.0310548 2.31633e-11)
(1.04685 0.0316928 7.45008e-11)
(1.0203 0.0274612 5.0995e-11)
(0.999151 0.0194088 -9.70528e-11)
(0.986026 0.00817229 -5.52488e-10)
(0.983472 -0.00547867 -1.51319e-09)
(0.993475 -0.0197308 -2.99369e-09)
(1.0159 -0.0314564 -4.70995e-09)
(1.04711 -0.0371225 -6.17373e-09)
(1.0803 -0.0344404 -6.90374e-09)
(1.10748 -0.0236559 -6.62396e-09)
(1.12224 -0.00763057 -5.40954e-09)
(1.1217 0.00928913 -3.68326e-09)
(1.10706 0.0229351 -1.98748e-09)
(1.08274 0.0307146 -7.22597e-10)
(1.0545 0.0320635 -2.75191e-11)
(1.02767 0.0278816 1.44283e-10)
(1.00632 0.0194931 -1.33977e-10)
(0.993524 0.00800624 -8.36809e-10)
(0.991762 -0.00541829 -1.92531e-09)
(1.00241 -0.0188294 -3.25268e-09)
(1.02446 -0.0293434 -4.57266e-09)
(1.05374 -0.0340446 -5.64255e-09)
(1.08374 -0.0313405 -6.29103e-09)
(1.1076 -0.0217792 -6.40402e-09)
(1.12029 -0.00783514 -5.91598e-09)
(1.11979 0.00704461 -4.86731e-09)
(1.10719 0.0195438 -3.45714e-09)
(1.08592 0.0273362 -2.00472e-09)
(1.06063 0.0294563 -8.38512e-10)
(1.03607 0.0261412 -1.87005e-10)
(1.01641 0.0183258 -1.27992e-10)
(1.00507 0.0072415 -5.96692e-10)
(1.00451 -0.005516 -1.42377e-09)
(1.01555 -0.0177033 -2.38822e-09)
(1.03648 -0.0266174 -3.28555e-09)
(1.06291 -0.0299558 -3.98481e-09)
(1.08887 -0.0268141 -4.43476e-09)
(1.10861 -0.0181048 -4.62074e-09)
(1.11829 -0.00614884 -4.52088e-09)
(1.11673 0.00621498 -4.10672e-09)
(1.10522 0.0164766 -3.38724e-09)
(1.08678 0.0229497 -2.45418e-09)
(1.06521 0.0248595 -1.49164e-09)
(1.04442 0.022182 -7.2566e-10)
(1.02805 0.0154474 -3.30917e-10)
(1.01919 0.00568519 -3.5498e-10)
(1.01995 -0.00546879 -7.11809e-10)
(1.03066 -0.0157729 -1.2412e-09)
(1.04933 -0.0228216 -1.78753e-09)
(1.07181 -0.0248527 -2.24983e-09)
(1.09295 -0.0214537 -2.58632e-09)
(1.10817 -0.0137112 -2.78849e-09)
(1.11466 -0.00373393 -2.85136e-09)
(1.11188 0.00612868 -2.75955e-09)
(1.10128 0.0139641 -2.49538e-09)
(1.08556 0.018617 -2.06341e-09)
(1.0679 0.01964 -1.51803e-09)
(1.05145 0.017083 -9.66327e-10)
(1.03912 0.0113679 -5.30716e-10)
(1.0333 0.00335573 -2.92919e-10)
(1.03544 -0.00552377 -2.61897e-10)
(1.0454 -0.0133679 -3.85986e-10)
(1.06112 -0.0182786 -5.914e-10)
(1.07901 -0.0190331 -8.15704e-10)
(1.09491 -0.0155604 -1.02014e-09)
(1.1054 -0.00894118 -1.18461e-09)
(1.10862 -0.000957098 -1.2967e-09)
(1.10453 0.00653954 -1.34359e-09)
(1.09461 0.0121364 -1.31058e-09)
(1.08122 0.0150671 -1.18753e-09)
(1.06697 0.0151256 -9.80932e-10)
(1.05438 0.0124712 -7.2152e-10)
(1.04565 0.00753098 -4.57655e-10)
(1.04249 0.00106786 -2.36179e-10)
(1.04574 -0.00573047 -8.44586e-11)
(1.05492 -0.0113747 -5.55451e-12)
(1.06804 -0.0144799 1.39664e-11)
(1.08209 -0.0142696 -7.37742e-12)
(1.09383 -0.0108831 -5.32853e-11)
(1.10076 -0.0053094 -1.11289e-10)
(1.1017 0.0009975 -1.71161e-10)
(1.09692 0.00660851 -2.23131e-10)
(1.08786 0.0104936 -2.57533e-10)
(1.07654 0.0121504 -2.66329e-10)
(1.06513 0.0115161 -2.45799e-10)
(1.05563 0.00880908 -1.98476e-10)
(1.04975 0.00445859 -1.32511e-10)
(1.04867 -0.000844195 -5.8535e-11)
(1.05286 -0.00610085 1.39566e-11)
(1.06152 -0.0101373 7.86028e-11)
(1.07295 -0.0119493 1.32156e-10)
(1.08433 -0.0110537 1.73439e-10)
(1.09345 -0.00776037 2.02423e-10)
(1.09788 -0.002908 2.19774e-10)
(1.0977 0.00209229 2.26691e-10)
(1.09243 0.00645383 2.24755e-10)
(1.08442 0.00861083 2.14541e-10)
(1.0755 0.00998587 2.01438e-10)
(1.06438 0.00616909 1.65454e-10)
(1.00011 -0.0015106 -6.48832e-20)
(1.0016 -0.00443918 -7.23728e-19)
(1.00492 -0.00747866 -1.31171e-18)
(1.00993 -0.0107739 -2.14458e-18)
(1.01699 -0.01442 -3.81219e-18)
(1.02638 -0.0183356 -2.43299e-18)
(1.03833 -0.0222714 -8.72645e-18)
(1.05284 -0.0256293 -1.81412e-17)
(1.0694 -0.0277375 3.40224e-17)
(1.08701 -0.027815 5.28487e-17)
(1.10383 -0.0254219 -1.29048e-16)
(1.11829 -0.0213002 -4.01036e-16)
(1.12974 -0.0159114 -5.31464e-16)
(1.1377 -0.0095126 -3.98069e-16)
(1.14177 -0.00201096 -1.25168e-16)
(1.14104 0.00690942 4.65024e-17)
(1.13417 0.0166999 9.33095e-17)
(1.12068 0.025743 8.10108e-17)
(1.10165 0.0322033 5.37777e-17)
(1.07939 0.0347495 -2.08623e-17)
(1.0568 0.0327557 -1.16402e-17)
(1.03691 0.0262118 2.4236e-16)
(1.02256 0.0156381 -1.85927e-15)
(1.01625 0.00213981 -7.99862e-16)
(1.01978 -0.0123356 2.42515e-14)
(1.03343 -0.0246733 -2.6295e-14)
(1.05473 -0.0310633 -1.43273e-13)
(1.07801 -0.0287245 -6.92208e-14)
(1.0961 -0.0178728 4.99056e-14)
(1.10353 -0.00196822 4.65563e-14)
(1.09867 0.014214 3.91502e-15)
(1.08355 0.0268964 -2.21792e-14)
(1.06193 0.034268 4.45974e-14)
(1.03773 0.0359993 1.87847e-13)
(1.01436 0.0323494 -4.12652e-13)
(0.994852 0.0235883 -2.61653e-12)
(0.982322 0.00998813 -7.09813e-13)
(0.980109 -0.00759671 2.37865e-11)
(0.991118 -0.0266609 7.99804e-11)
(1.01581 -0.042467 1.44029e-10)
(1.0501 -0.0493803 1.97542e-10)
(1.08536 -0.0439221 2.26288e-10)
(1.11161 -0.0272293 1.95816e-10)
(1.12208 -0.00468223 1.17269e-10)
(1.11564 0.0170211 4.53115e-11)
(1.09605 0.0329483 3.16042e-12)
(1.06911 0.0412383 -1.02863e-11)
(1.04018 0.042302 -1.10576e-12)
(1.01323 0.0372664 2.8345e-11)
(0.991211 0.0268993 2.17057e-11)
(0.976879 0.0115453 -2.52255e-10)
(0.973245 -0.00797912 -1.21314e-09)
(0.983131 -0.0290711 -3.14482e-09)
(1.00743 -0.0468219 -5.70241e-09)
(1.04293 -0.0553226 -7.87127e-09)
(1.08176 -0.05054 -8.56083e-09)
(1.11361 -0.0329597 -7.38138e-09)
(1.12985 -0.00786618 -4.97862e-09)
(1.12702 0.0171919 -2.51867e-09)
(1.10778 0.0359062 -8.11487e-10)
(1.07869 0.0454155 6.72116e-12)
(1.04685 0.0461137 2.31402e-10)
(1.01756 0.0398998 1.47465e-10)
(0.994127 0.0284132 -2.59909e-10)
(0.979077 0.0124432 -1.26722e-09)
(0.975353 -0.0071753 -3.07954e-09)
(0.985698 -0.027989 -5.4934e-09)
(1.01032 -0.0453665 -7.94461e-09)
(1.04499 -0.0539352 -9.86883e-09)
(1.08167 -0.0502295 -1.08867e-08)
(1.11138 -0.034638 -1.07182e-08)
(1.12728 -0.0113905 -9.23069e-09)
(1.12654 0.0131745 -6.71282e-09)
(1.11063 0.0329971 -3.90318e-09)
(1.08434 0.0443117 -1.58661e-09)
(1.05383 0.0463274 -1.99186e-10)
(1.02476 0.0403909 2.09435e-10)
(1.00148 0.0283986 -2.38228e-10)
(0.987473 0.0118305 -1.38727e-09)
(0.985781 -0.00774809 -3.00366e-09)
(0.998173 -0.027449 -4.72785e-09)
(1.02335 -0.0428603 -6.20143e-09)
(1.05618 -0.0495658 -7.24321e-09)
(1.089 -0.0452936 -7.85112e-09)
(1.11419 -0.0310712 -8.0295e-09)
(1.12654 -0.0107244 -7.66096e-09)
(1.12444 0.0106788 -6.60544e-09)
(1.10963 0.028445 -4.93602e-09)
(1.0861 0.0393982 -3.01767e-09)
(1.05882 0.0422936 -1.35868e-09)
(1.03265 0.0375002 -3.77456e-10)
(1.01188 0.0262596 -2.46553e-10)
(1.00029 0.0101957 -8.64769e-10)
(1.00072 -0.00843659 -1.93002e-09)
(1.01411 -0.0262614 -3.07764e-09)
(1.03824 -0.039154 -4.03289e-09)
(1.06782 -0.0436737 -4.6918e-09)
(1.09598 -0.0385982 -5.08554e-09)
(1.11643 -0.0254703 -5.27051e-09)
(1.12525 -0.00787159 -5.23239e-09)
(1.12162 0.00998368 -4.88142e-09)
(1.10748 0.0245132 -4.14812e-09)
(1.08646 0.033439 -3.09115e-09)
(1.0628 0.0358146 -1.93258e-09)
(1.04061 0.0316897 -9.80286e-10)
(1.02367 0.0217926 -4.79036e-10)
(1.01527 0.00752416 -4.92584e-10)
(1.01767 -0.00876499 -8.96684e-10)
(1.03105 -0.0237304 -1.4751e-09)
(1.05283 -0.0337621 -2.03884e-09)
(1.07805 -0.0362804 -2.48986e-09)
(1.10088 -0.030796 -2.81178e-09)
(1.11636 -0.0190654 -3.02026e-09)
(1.12171 -0.00430598 -3.11493e-09)
(1.11675 0.0100031 -3.06192e-09)
(1.10348 0.0211189 -2.81549e-09)
(1.08515 0.0274728 -2.36172e-09)
(1.06538 0.0285393 -1.75845e-09)
(1.04761 0.024467 -1.13522e-09)
(1.03494 0.0158775 -6.40038e-10)
(1.02992 0.00400833 -3.6734e-10)
(1.034 -0.00903381 -3.21898e-10)
(1.04672 -0.0204047 -4.39619e-10)
(1.06541 -0.0272845 -6.37558e-10)
(1.08573 -0.0279235 -8.52615e-10)
(1.10298 -0.0223382 -1.05169e-09)
(1.11347 -0.0122537 -1.22081e-09)
(1.11544 -0.000378363 -1.34859e-09)
(1.10922 0.0105513 -1.41644e-09)
(1.09675 0.018512 -1.40023e-09)
(1.08089 0.0224658 -1.282e-09)
(1.06465 0.0221941 -1.06624e-09)
(1.05082 0.0179786 -7.87801e-10)
(1.04183 0.0104593 -5.01731e-10)
(1.03954 0.000768144 -2.59799e-10)
(1.0447 -0.00930856 -9.07933e-11)
(1.05648 -0.0175246 3.01587e-12)
(1.07233 -0.0218218 3.59122e-11)
(1.08856 -0.0211085 2.60708e-11)
(1.10146 -0.0156979 -1.17892e-11)
(1.10833 -0.00716135 -6.72079e-11)
(1.1081 0.00228694 -1.31083e-10)
(1.10137 0.01053 -1.92791e-10)
(1.08999 0.0160884 -2.39819e-10)
(1.07641 0.0182836 -2.60447e-10)
(1.06316 0.0170768 -2.47953e-10)
(1.05252 0.0128176 -2.03466e-10)
(1.04643 0.00615037 -1.35292e-10)
(1.04619 -0.0018826 -5.51474e-11)
(1.05218 -0.00975789 2.60055e-11)
(1.06325 -0.015687 1.00261e-10)
(1.07718 -0.0181661 1.62975e-10)
(1.09056 -0.016527 2.11913e-10)
(1.10076 -0.0113072 2.46358e-10)
(1.10514 -0.00385088 2.66513e-10)
(1.10396 0.00372462 2.73271e-10)
(1.09687 0.0102069 2.68168e-10)
(1.0868 0.0133457 2.5212e-10)
(1.07572 0.0153219 2.32035e-10)
(1.06252 0.00932923 1.84351e-10)
(1.00011 -0.00191951 -3.57848e-18)
(1.00154 -0.00563927 -1.19432e-17)
(1.00472 -0.00952046 -1.01209e-17)
(1.00958 -0.0137685 -1.34866e-17)
(1.01653 -0.0185271 -1.40857e-17)
(1.02593 -0.0237091 -8.65416e-18)
(1.03818 -0.0290019 -6.98604e-17)
(1.05335 -0.0335884 6.97363e-17)
(1.07098 -0.0365487 2.79178e-16)
(1.09 -0.036709 -5.82565e-16)
(1.10807 -0.0334375 -1.80454e-15)
(1.12337 -0.0279277 -6.49058e-16)
(1.13538 -0.0208649 2.82384e-15)
(1.14383 -0.0126109 5.00008e-15)
(1.1485 -0.00291802 4.17326e-15)
(1.14833 0.0088581 2.33639e-15)
(1.14141 0.0220416 8.79369e-16)
(1.12688 0.0343204 1.20718e-16)
(1.10593 0.0430977 -2.73255e-16)
(1.08123 0.0465708 -4.86368e-16)
(1.05608 0.0439511 6.90905e-16)
(1.0338 0.035252 -5.73316e-15)
(1.01758 0.0211193 -1.07823e-14)
(1.01028 0.00289548 1.63633e-13)
(1.01429 -0.0169405 -1.10623e-13)
(1.03042 -0.0341306 -3.81498e-12)
(1.05609 -0.0431927 -9.80009e-12)
(1.0844 -0.0399926 -1.05368e-11)
(1.10633 -0.024782 -5.53863e-12)
(1.11506 -0.00260846 -1.32145e-12)
(1.10892 0.0196449 3.85614e-14)
(1.09092 0.0367416 1.58915e-13)
(1.0659 0.0464312 2.73624e-13)
(1.03843 0.0485654 -1.44172e-13)
(1.01209 0.0436808 -2.15805e-12)
(0.989904 0.0321227 2.18419e-12)
(0.975146 0.014025 2.29309e-11)
(0.971641 -0.00979407 -2.16863e-11)
(0.983005 -0.0361192 -4.01404e-10)
(1.01044 -0.0583172 -1.24394e-09)
(1.05018 -0.0681969 -2.02276e-09)
(1.09249 -0.0605532 -2.00886e-09)
(1.1246 -0.0370102 -1.26052e-09)
(1.13716 -0.00550278 -4.67068e-10)
(1.12875 0.024291 -4.6647e-11)
(1.10478 0.0455667 4.76694e-11)
(1.07306 0.0561426 2.26258e-11)
(1.04006 0.0570535 2.28671e-11)
(1.00991 0.0501585 7.30909e-11)
(0.985052 0.0365852 -3.58565e-11)
(0.967749 0.0166245 -8.9189e-10)
(0.961241 -0.0090682 -3.20724e-09)
(0.96966 -0.0375117 -7.03669e-09)
(0.995288 -0.062259 -1.13882e-08)
(1.03492 -0.0749583 -1.48379e-08)
(1.07929 -0.0695357 -1.62017e-08)
(1.11647 -0.0461589 -1.48062e-08)
(1.13656 -0.0118655 -1.09844e-08)
(1.13511 0.0227591 -6.28209e-09)
(1.11453 0.0486005 -2.44923e-09)
(1.08221 0.0615109 -2.84998e-10)
(1.04655 0.0622438 4.58154e-10)
(1.01372 0.0538149 3.16419e-10)
(0.98723 0.038652 -5.54462e-10)
(0.96985 0.0175666 -2.33395e-09)
(0.965338 -0.0087777 -4.9645e-09)
(0.977319 -0.0372061 -7.8391e-09)
(1.00584 -0.0611081 -1.02199e-08)
(1.04534 -0.0728189 -1.18109e-08)
(1.08614 -0.067649 -1.27167e-08)
(1.11816 -0.0464477 -1.29008e-08)
(1.13435 -0.0151822 -1.19378e-08)
(1.13235 0.0176382 -9.52785e-09)
(1.11424 0.0440411 -6.14794e-09)
(1.08532 0.059106 -2.86707e-09)
(1.05209 0.0618394 -6.31284e-10)
(1.02043 0.0540451 1.59343e-10)
(0.995038 0.0381351 -4.19082e-10)
(0.980012 0.0158643 -1.99975e-09)
(0.979145 -0.0107593 -4.01706e-09)
(0.994395 -0.0376096 -5.85819e-09)
(1.02371 -0.0583544 -7.13434e-09)
(1.06066 -0.0668853 -7.83253e-09)
(1.09645 -0.0603508 -8.18834e-09)
(1.12279 -0.0405398 -8.38532e-09)
(1.13439 -0.0129461 -8.3127e-09)
(1.13002 0.0155161 -7.62242e-09)
(1.11218 0.0387185 -6.10754e-09)
(1.0856 0.0527328 -4.01707e-09)
(1.05573 0.0561754 -1.99068e-09)
(1.0276 0.0496031 -6.93283e-10)
(1.00574 0.0345037 -4.58959e-10)
(0.994308 0.0128272 -1.16261e-09)
(0.996525 -0.0124206 -2.35078e-09)
(1.01313 -0.0364588 -3.52271e-09)
(1.04109 -0.0534794 -4.37606e-09)
(1.07405 -0.0588369 -4.87206e-09)
(1.1043 -0.051123 -5.13607e-09)
(1.1252 -0.0327323 -5.30014e-09)
(1.13283 -0.00873184 -5.37334e-09)
(1.12672 0.0151106 -5.21188e-09)
(1.1094 0.0340581 -4.63502e-09)
(1.08524 0.0452824 -3.61181e-09)
(1.059 0.047776 -2.36367e-09)
(1.03513 0.0417418 -1.27694e-09)
(1.01768 0.028117 -6.80007e-10)
(1.01019 0.00868904 -6.60606e-10)
(1.01497 -0.0133545 -1.05942e-09)
(1.03179 -0.0333512 -1.61578e-09)
(1.05718 -0.0463253 -2.12661e-09)
(1.08528 -0.0488839 -2.51115e-09)
(1.10962 -0.0406083 -2.78299e-09)
(1.12503 -0.0241204 -2.98439e-09)
(1.12886 -0.00392166 -3.12536e-09)
(1.12131 0.0152513 -3.15599e-09)
(1.10491 0.0297663 -2.99166e-09)
(1.08353 0.0376619 -2.58069e-09)
(1.06129 0.0384028 -1.96919e-09)
(1.04204 0.032298 -1.30488e-09)
(1.02917 0.0202114 -7.6443e-10)
(1.02542 0.00382806 -4.58631e-10)
(1.03214 -0.0139221 -3.90611e-10)
(1.04833 -0.0290737 -4.87117e-10)
(1.07045 -0.0377833 -6.59869e-10)
(1.09332 -0.0378164 -8.47697e-10)
(1.11174 -0.0294285 -1.02472e-09)
(1.1219 -0.0151695 -1.18583e-09)
(1.12221 0.00117548 -1.32513e-09)
(1.11341 0.0158877 -1.42097e-09)
(1.09796 0.0262971 -1.43735e-09)
(1.07923 0.0311154 -1.34247e-09)
(1.06069 0.0301592 -1.13318e-09)
(1.04553 0.0238778 -8.46019e-10)
(1.03647 0.0131726 -5.43388e-10)
(1.0355 -0.000365536 -2.83865e-10)
(1.04324 -0.0142046 -9.93527e-11)
(1.05828 -0.025189 7.747e-12)
(1.07727 -0.030517 5.26591e-11)
(1.0958 -0.0288328 5.42068e-11)
(1.10971 -0.0207635 2.65768e-11)
(1.11619 -0.00862372 -2.18644e-11)
(1.11438 0.00448064 -8.4758e-11)
(1.10526 0.0156633 -1.5271e-10)
(1.09113 0.0229692 -2.11478e-10)
(1.07492 0.0255604 -2.45257e-10)
(1.05958 0.0234566 -2.42955e-10)
(1.04775 0.0171744 -2.02996e-10)
(1.04164 0.00762293 -1.33298e-10)
(1.04269 -0.0037112 -4.69685e-11)
(1.05109 -0.01464 4.2776e-11)
(1.06517 -0.0226291 1.25774e-10)
(1.08199 -0.0256201 1.95826e-10)
(1.09746 -0.0228121 2.50163e-10)
(1.1086 -0.0150897 2.88269e-10)
(1.11262 -0.00445196 3.10594e-10)
(1.11003 0.00617627 3.17825e-10)
(1.10066 0.0150688 3.10938e-10)
(1.08814 0.0192666 2.90409e-10)
(1.07447 0.0218377 2.6409e-10)
(1.05906 0.0130485 2.0463e-10)
(1.00011 -0.0023087 3.51854e-18)
(1.00145 -0.00678015 1.18989e-17)
(1.00444 -0.0114772 1.25215e-17)
(1.00908 -0.0166809 5.92463e-18)
(1.01584 -0.0226006 5.91136e-17)
(1.02522 -0.0291626 -9.2091e-17)
(1.03779 -0.0360006 4.37419e-17)
(1.05379 -0.0420446 9.12427e-16)
(1.07284 -0.0460834 -1.66049e-15)
(1.09376 -0.0463758 -4.49056e-15)
(1.11349 -0.0420374 2.48794e-15)
(1.12981 -0.0349536 2.18494e-14)
(1.14248 -0.0261305 4.62605e-14)
(1.15152 -0.0160861 5.6206e-14)
(1.15706 -0.00431796 4.03692e-14)
(1.15777 0.0104189 1.8854e-14)
(1.15087 0.027412 4.41817e-15)
(1.13496 0.0434702 -2.10399e-15)
(1.11142 0.0550144 -4.60124e-15)
(1.08348 0.059664 -1.77304e-15)
(1.05495 0.0564601 -6.91958e-16)
(1.02957 0.0454557 -5.58935e-14)
(1.01084 0.0273995 1.06217e-13)
(1.00211 0.00379344 6.75698e-13)
(1.00658 -0.0223978 -2.06983e-12)
(1.02595 -0.045578 -1.05177e-11)
(1.0576 -0.0580735 -2.09865e-11)
(1.09288 -0.0538621 -2.86475e-11)
(1.12007 -0.0331835 -2.28318e-11)
(1.13046 -0.00323179 -9.36236e-12)
(1.12242 0.0263073 -1.27774e-12)
(1.1004 0.0484104 1.14381e-12)
(1.07085 0.0605047 7.67818e-13)
(1.03915 0.0629035 -3.36511e-12)
(1.00905 0.0566125 -6.21381e-13)
(0.983482 0.0420598 4.96823e-11)
(0.965666 0.0191288 6.36695e-11)
(0.959393 -0.0115037 -5.66917e-10)
(0.968641 -0.0460361 -2.84996e-09)
(0.996222 -0.0760528 -6.75915e-09)
(1.04047 -0.090433 -1.02496e-08)
(1.09168 -0.0811608 -1.07811e-08)
(1.13379 -0.049563 -7.96176e-09)
(1.15263 -0.00673807 -3.98572e-09)
(1.14434 0.0332286 -1.14314e-09)
(1.1158 0.0607985 3.38842e-11)
(1.07802 0.0735894 2.15138e-10)
(1.03975 0.0738679 1.64597e-10)
(1.00549 0.0647685 1.39321e-10)
(0.976876 0.0479797 -3.21547e-10)
(0.955555 0.02346 -2.21595e-09)
(0.945748 -0.00891947 -6.12605e-09)
(0.953806 -0.0460859 -1.12218e-08)
(0.983026 -0.0794622 -1.58575e-08)
(1.02872 -0.097347 -1.90821e-08)
(1.07914 -0.0913317 -2.07185e-08)
(1.12078 -0.0615752 -2.02407e-08)
(1.14339 -0.0171463 -1.68675e-08)
(1.14257 0.0282329 -1.11523e-08)
(1.12061 0.0623566 -5.27614e-09)
(1.08519 0.0793932 -1.20979e-09)
(1.04555 0.0803465 5.53908e-10)
(1.00871 0.0695518 4.93642e-10)
(0.978707 0.0503466 -9.60547e-10)
(0.9591 0.0233967 -3.56104e-09)
(0.954803 -0.0108975 -6.71256e-09)
(0.969923 -0.048236 -9.44789e-09)
(1.00348 -0.0793884 -1.11295e-08)
(1.0481 -0.0941046 -1.18985e-08)
(1.0927 -0.0866517 -1.2347e-08)
(1.12653 -0.0587381 -1.2778e-08)
(1.14242 -0.0184645 -1.26971e-08)
(1.13839 0.0232509 -1.11986e-08)
(1.11732 0.0565135 -8.08172e-09)
(1.0852 0.075378 -4.31521e-09)
(1.04891 0.0787594 -1.33086e-09)