/*--------------------------------*- C++ -*----------------------------------*\
  =========                 |
  \\      /  F ield         | OpenFOAM: The Open Source CFD Toolbox
   \\    /   O peration     | Website:  https://openfoam.org
    \\  /    A nd           | Version:  11
     \\/     M anipulation  |
\*---------------------------------------------------------------------------*/
FoamFile
{
    format      ascii;
    class       volScalarField;
    location    "9.066402";
    object      p;
}
// * * * * * * * * * * * * * * * * * * * * * * * * * * * * * * * * * * * * * //

dimensions      [0 2 -2 0 0 0 0];

internalField   nonuniform List<scalar> 
7132
(
0.053669
0.0522766
0.0475746
0.040723
0.0311721
0.0186759
0.00321087
-0.0151325
-0.0357444
-0.0575421
-0.0790272
-0.0982181
-0.114025
-0.12556
-0.132414
-0.134798
-0.133346
-0.129015
-0.122808
-0.115487
-0.107383
-0.0983647
-0.0880463
-0.0761823
-0.0629872
-0.0490705
-0.0351677
-0.0218988
-0.00966637
0.00125075
0.0105636
0.0178146
0.022386
0.0238185
0.0223887
0.0195076
0.0172636
0.0171757
0.0194286
0.0231849
0.0274161
0.0314394
0.035024
0.0382832
0.0414248
0.0444805
0.0468884
0.0471536
0.0429913
0.0327057
0.0173783
0.00179158
-0.00821835
-0.0101292
-0.00591062
0.000512708
0.00627458
0.0103154
0.0126914
0.0138242
0.0140881
0.0136652
0.0125202
0.0104975
0.00751259
0.00375617
-0.000240148
-0.00377119
-0.00628385
-0.00759927
-0.0079069
-0.00756993
-0.00693472
-0.00623763
-0.00559983
-0.00506295
-0.00462829
-0.00428401
-0.0040189
-0.0038266
-0.00370477
-0.00365158
-0.00366139
-0.00372172
-0.00381292
-0.00391074
-0.00399105
-0.00403473
-0.00403075
-0.00397698
-0.00387838
-0.00374429
-0.00358568
-0.00341309
-0.00323561
-0.00306039
-0.00289269
-0.00273606
-0.00259252
-0.00246281
-0.00234662
-0.00224277
-0.00214952
-0.00206478
-0.00198638
-0.00191226
-0.00184071
-0.0017704
-0.0017005
-0.00163057
-0.00156056
-0.00149067
-0.00142129
-0.00135286
-0.00128585
-0.00122066
-0.00115763
-0.001097
-0.00103892
-0.000983414
-0.000930469
-0.000879991
-0.000831845
-0.000785875
-0.000741917
-0.00069981
-0.000659413
-0.000620603
-0.000583282
-0.000547372
-0.000512819
-0.000479585
-0.000447645
-0.000416985
-0.000387594
-0.00035947
-0.000332607
-0.000307002
-0.00028265
-0.000259546
-0.000237681
-0.000217043
-0.000197623
-0.000179401
-0.00016237
-0.000146481
-0.00013178
-0.000118062
-0.000105662
-9.36719e-05
-8.3838e-05
-7.20985e-05
-6.67097e-05
-4.98034e-05
-5.84046e-05
-1.50237e-05
-8.03385e-05
7.67544e-05
-0.000225154
0.00041347
0.0542245
0.0528421
0.0481759
0.0413592
0.0318308
0.0193167
0.00376791
-0.0147621
-0.0356616
-0.0578364
-0.0797094
-0.0991668
-0.115144
-0.126736
-0.133526
-0.135747
-0.134068
-0.129506
-0.123121
-0.115722
-0.107643
-0.0987167
-0.0884815
-0.0766265
-0.0633511
-0.0492899
-0.035215
-0.021776
-0.00939056
0.00165334
0.0110605
0.0183599
0.0229038
0.0241952
0.0225012
0.0192942
0.0167883
0.0165891
0.0188754
0.0227404
0.0270963
0.0312349
0.0349187
0.0382621
0.0414694
0.0445694
0.0469914
0.0472122
0.0428865
0.0322484
0.016386
0.00025074
-0.0100343
-0.0118179
-0.00717594
-0.000284839
0.00584262
0.0101307
0.0126685
0.0139075
0.0142378
0.0138479
0.012702
0.01064
0.00757678
0.00371286
-0.000396782
-0.00401603
-0.00656949
-0.00787602
-0.00814103
-0.00774842
-0.00705952
-0.00631765
-0.00564542
-0.00508342
-0.00463127
-0.00427566
-0.0040041
-0.00380914
-0.00368755
-0.00363683
-0.00365076
-0.00371626
-0.00381299
-0.00391594
-0.00400033
-0.00404657
-0.0040435
-0.00398914
-0.00388886
-0.00375242
-0.00359121
-0.00341611
-0.00323641
-0.00305943
-0.00289047
-0.00273305
-0.00258917
-0.00245947
-0.00234354
-0.00224014
-0.00214742
-0.00206324
-0.00198535
-0.00191168
-0.00184046
-0.0017704
-0.00170062
-0.00163073
-0.00156068
-0.00149071
-0.00142121
-0.00135266
-0.00128553
-0.00122024
-0.00115714
-0.00109646
-0.00103835
-0.000982849
-0.000929922
-0.000879474
-0.000831367
-0.000785439
-0.000741522
-0.000699453
-0.000659089
-0.000620306
-0.000583004
-0.000547109
-0.000512566
-0.000479337
-0.0004474
-0.000416739
-0.000387348
-0.000359221
-0.000332356
-0.000306749
-0.000282396
-0.00025929
-0.000237423
-0.000216785
-0.000197364
-0.000179141
-0.000162111
-0.000146223
-0.000131521
-0.000117811
-0.000105407
-9.34503e-05
-8.35757e-05
-7.1963e-05
-6.63503e-05
-4.99503e-05
-5.75109e-05
-1.62416e-05
-7.71096e-05
7.12079e-05
-0.000212638
0.000390393
0.055331
0.0539703
0.0493776
0.0426355
0.0331579
0.0206145
0.00490366
-0.0140002
-0.0354822
-0.0584311
-0.0811
-0.101094
-0.117415
-0.129117
-0.135769
-0.13765
-0.135503
-0.130462
-0.123716
-0.116164
-0.108154
-0.0994335
-0.0893832
-0.0775529
-0.0641133
-0.0497553
-0.0353296
-0.0215467
-0.00885332
0.002447
0.0120481
0.0194508
0.0239446
0.0249499
0.0227105
0.0188249
0.0157748
0.0153521
0.0177189
0.0218163
0.0264303
0.0308009
0.0346799
0.0381858
0.0415197
0.0447032
0.0471444
0.0472557
0.0425745
0.0312054
0.0142344
-0.00304902
-0.0139006
-0.015381
-0.00981967
-0.00193482
0.00495374
0.00974661
0.0126103
0.0140624
0.0145275
0.0142072
0.013063
0.010924
0.00770272
0.00361879
-0.000724105
-0.00452498
-0.00716104
-0.00844662
-0.00862136
-0.00811282
-0.00731334
-0.00648006
-0.00573799
-0.00512517
-0.00463771
-0.00425918
-0.0039745
-0.00377402
-0.00365275
-0.00360687
-0.00362904
-0.00370498
-0.00381293
-0.00392637
-0.00401909
-0.0040706
-0.00406942
-0.00401392
-0.00391024
-0.00376904
-0.00360255
-0.00342233
-0.00323815
-0.00305758
-0.00288603
-0.00272702
-0.00258241
-0.00245271
-0.00233732
-0.0022348
-0.00214316
-0.00206009
-0.00198325
-0.00191048
-0.00183998
-0.00177039
-0.00170088
-0.00163107
-0.00156096
-0.00149082
-0.00142109
-0.00135229
-0.00128492
-0.00121943
-0.00115617
-0.00109539
-0.00103723
-0.000981723
-0.000928831
-0.000878444
-0.000830414
-0.000784571
-0.000740737
-0.000698746
-0.000658449
-0.000619721
-0.000582463
-0.000546598
-0.000512076
-0.000478859
-0.000446927
-0.000416268
-0.000386875
-0.000358745
-0.000331876
-0.000306267
-0.000281911
-0.000258804
-0.000236937
-0.000216299
-0.000196879
-0.000178658
-0.000161629
-0.000145748
-0.000131048
-0.000117361
-0.000104953
-9.30697e-05
-8.31313e-05
-7.17748e-05
-6.57606e-05
-5.03435e-05
-5.59566e-05
-1.87249e-05
-7.11381e-05
6.03964e-05
-0.00018887
0.000345462
0.0569803
0.0556543
0.0511792
0.04456
0.0351729
0.0226018
0.00666104
-0.012805
-0.0351804
-0.0593437
-0.0832581
-0.104066
-0.12091
-0.132778
-0.139215
-0.140567
-0.137685
-0.13189
-0.124572
-0.116779
-0.108888
-0.100515
-0.0907809
-0.0790056
-0.0653151
-0.0504968
-0.0355306
-0.021223
-0.00806352
0.00362498
0.0135225
0.0210882
0.0255095
0.026066
0.0229549
0.0179791
0.0140658
0.0133166
0.0158507
0.0203435
0.0253723
0.0300997
0.0342684
0.0380092
0.0415213
0.0448121
0.0472489
0.047134
0.0418196
0.0292125
0.0104267
-0.00870579
-0.0204135
-0.0212694
-0.0141064
-0.0045563
0.00356086
0.00913903
0.0124969
0.0142709
0.0149429
0.0147339
0.0135973
0.0113425
0.00787475
0.00344405
-0.00126704
-0.00535163
-0.00810989
-0.00935102
-0.0093731
-0.0086759
-0.00770084
-0.00672519
-0.00587588
-0.00518582
-0.00464504
-0.00423209
-0.00392792
-0.0037195
-0.00359914
-0.00356109
-0.0035963
-0.00368865
-0.00381416
-0.00394388
-0.00404941
-0.00410881
-0.00411018
-0.00405253
-0.00394322
-0.00379438
-0.00361957
-0.00343138
-0.00324028
-0.00305423
-0.00287879
-0.00271743
-0.00257183
-0.00244224
-0.00232777
-0.0022267
-0.00213676
-0.00205545
-0.00198025
-0.00190886
-0.00183941
-0.00177054
-0.00170141
-0.00163169
-0.00156145
-0.00149102
-0.00142091
-0.00135171
-0.00128396
-0.00121816
-0.00115466
-0.00109373
-0.0010355
-0.000979997
-0.000927165
-0.000876879
-0.000828974
-0.000783264
-0.000739562
-0.00069769
-0.000657496
-0.00061885
-0.000581654
-0.000545833
-0.000511338
-0.000478137
-0.000446211
-0.000415551
-0.000386153
-0.000358017
-0.000331143
-0.000305527
-0.000281167
-0.000258057
-0.000236188
-0.00021555
-0.000196129
-0.000177909
-0.00016088
-0.000145005
-0.000130307
-0.000116646
-0.000104229
-9.24427e-05
-8.24072e-05
-7.14052e-05
-6.48114e-05
-5.0782e-05
-5.36048e-05
-2.21406e-05
-6.23918e-05
4.4948e-05
-0.000154213
0.000280154
0.0591586
0.057883
0.0535778
0.0471431
0.0379047
0.0253288
0.00910863
-0.0111074
-0.0347104
-0.0605985
-0.0862745
-0.108179
-0.125726
-0.137803
-0.143913
-0.1445
-0.140564
-0.133698
-0.125584
-0.117486
-0.109827
-0.102021
-0.0927943
-0.0811203
-0.0670716
-0.0515957
-0.0358708
-0.0208417
-0.00705021
0.00516316
0.0154673
0.0232673
0.0275983
0.0275185
0.023138
0.0165614
0.0113982
0.0102274
0.0130796
0.0181988
0.0238414
0.0290657
0.0336157
0.0376514
0.0413791
0.0447783
0.047142
0.0466228
0.0403386
0.0258999
0.00442552
-0.0174545
-0.0304214
-0.0302183
-0.0204943
-0.0083617
0.0015823
0.00827127
0.0123011
0.0145071
0.0154617
0.015412
0.0142949
0.0118841
0.00806983
0.00314329
-0.00209648
-0.00658375
-0.00950232
-0.0106577
-0.0104407
-0.00946146
-0.008232
-0.00705527
-0.00605755
-0.00526216
-0.00464943
-0.00419052
-0.00386078
-0.00364247
-0.00352427
-0.00349782
-0.00355179
-0.00366754
-0.00381798
-0.00397064
-0.004094
-0.00416407
-0.00416843
-0.00410707
-0.00398926
-0.00382927
-0.00364252
-0.00344306
-0.0032423
-0.00304872
-0.00286803
-0.0027036
-0.00255683
-0.00242759
-0.00231457
-0.00221563
-0.00212817
-0.00204936
-0.00197645
-0.00190699
-0.00183899
-0.00177106
-0.00170241
-0.00163276
-0.00156226
-0.00149137
-0.00142071
-0.00135092
-0.00128263
-0.00121638
-0.00115256
-0.00109142
-0.00103311
-0.000977628
-0.000924896
-0.000874764
-0.000827044
-0.000781528
-0.000738012
-0.000696308
-0.000656254
-0.000617719
-0.000580605
-0.00054484
-0.000510378
-0.000477192
-0.000445269
-0.000414605
-0.000385198
-0.000357052
-0.000330168
-0.000304545
-0.000280179
-0.000257066
-0.000235195
-0.000214556
-0.000195134
-0.000176916
-0.000159886
-0.000144018
-0.000129318
-0.000115687
-0.000103256
-9.15848e-05
-8.14282e-05
-7.08561e-05
-6.35525e-05
-5.12265e-05
-5.06121e-05
-2.62925e-05
-5.13935e-05
2.56311e-05
-0.000110213
0.000196899
0.061846
0.06064
0.0565684
0.0503974
0.041391
0.0288638
0.0123419
-0.00880844
-0.0340057
-0.0622382
-0.0902905
-0.113578
-0.132024
-0.144368
-0.150044
-0.14961
-0.144244
-0.135908
-0.126694
-0.118186
-0.11089
-0.103947
-0.0955011
-0.084013
-0.0694906
-0.0531306
-0.0364031
-0.0204433
-0.00585257
0.00702152
0.0178451
0.0259612
0.0301871
0.0292447
0.0230855
0.0142442
0.00735155
0.00569692
0.00913243
0.0152148
0.0217301
0.0276103
0.0326279
0.0370026
0.0409654
0.0444113
0.0465268
0.045349
0.0378416
0.0213275
-0.00329346
-0.0288617
-0.0440528
-0.0428578
-0.0295541
-0.0136562
-0.00110375
0.00708837
0.0119792
0.0147267
0.0160432
0.0162095
0.0151314
0.0125207
0.0082387
0.00263193
-0.0033339
-0.00836235
-0.0114699
-0.0124671
-0.011887
-0.0105012
-0.00891872
-0.00747187
-0.00628001
-0.00534953
-0.00464585
-0.00412974
-0.003769
-0.00353969
-0.00342578
-0.0034157
-0.00349541
-0.00364299
-0.00382711
-0.00401047
-0.00415723
-0.00424071
-0.00424788
-0.00418035
-0.00405013
-0.00387447
-0.00367138
-0.00345677
-0.00324325
-0.00303991
-0.0028526
-0.00268449
-0.00253655
-0.00240813
-0.00229732
-0.00220144
-0.00211741
-0.002042
-0.00197215
-0.0019052
-0.00183905
-0.00177229
-0.00170414
-0.00163446
-0.00156354
-0.00149196
-0.00142047
-0.00134987
-0.00128084
-0.00121399
-0.00114975
-0.00108837
-0.00102997
-0.000974545
-0.000921972
-0.000872067
-0.000824609
-0.000779362
-0.000736098
-0.000694615
-0.000654743
-0.000616348
-0.000579332
-0.000543629
-0.0005092
-0.000476025
-0.000444098
-0.00041342
-0.000383996
-0.000355833
-0.000328934
-0.0003033
-0.000278926
-0.000255808
-0.000233934
-0.000213293
-0.00019387
-0.000175649
-0.000158616
-0.000142748
-0.000128041
-0.000114433
-0.000101976
-9.04194e-05
-8.0114e-05
-7.00033e-05
-6.18912e-05
-5.14577e-05
-4.69585e-05
-3.07189e-05
-3.85195e-05
3.6742e-06
-5.85879e-05
9.93047e-05
0.0650151
0.063902
0.0601413
0.0543359
0.0456776
0.0332956
0.0164907
-0.00576635
-0.0329648
-0.0643212
-0.0955012
-0.120445
-0.139972
-0.152597
-0.157649
-0.15584
-0.148574
-0.13831
-0.127686
-0.118724
-0.112053
-0.106432
-0.0991634
-0.0879701
-0.0728047
-0.0552591
-0.0372296
-0.0201051
-0.00454367
0.00912209
0.0205783
0.0291025
0.0332112
0.0311186
0.022509
0.0105236
0.00130352
-0.000864141
0.00359774
0.0111491
0.0188898
0.0256126
0.0311773
0.0359178
0.0400723
0.0433484
0.0448723
0.0427047
0.033734
0.0151618
-0.0124462
-0.0420107
-0.0603805
-0.0589159
-0.0415278
-0.0207197
-0.00465231
0.00550956
0.0114668
0.0148638
0.0166224
0.0170735
0.016062
0.0131966
0.00829269
0.00177058
-0.00517269
-0.0109099
-0.0142126
-0.014926
-0.0137998
-0.0118373
-0.00977618
-0.00797689
-0.00653961
-0.00544226
-0.00462811
-0.00404372
-0.00364725
-0.00340676
-0.00330046
-0.00331296
-0.00342705
-0.00361673
-0.00384507
-0.00406831
-0.00424486
-0.00434444
-0.00435352
-0.00427613
-0.00412822
-0.00393111
-0.0037062
-0.00347181
-0.00324197
-0.00302642
-0.00283111
-0.00265883
-0.00250996
-0.00238309
-0.00227554
-0.00218391
-0.00210449
-0.00203356
-0.00196768
-0.00190392
-0.00184004
-0.00177461
-0.00170697
-0.00163708
-0.00156545
-0.00149285
-0.00142023
-0.0013485
-0.0012785
-0.00121089
-0.00114611
-0.00108445
-0.00102599
-0.000970676
-0.000918346
-0.000868767
-0.00082167
-0.000776783
-0.000733851
-0.000692652
-0.000653006
-0.000614778
-0.000577873
-0.000542234
-0.000507832
-0.000474656
-0.000442711
-0.000412007
-0.000382555
-0.000354367
-0.000327447
-0.000301798
-0.000277416
-0.000254292
-0.000232416
-0.000211773
-0.000192347
-0.000174122
-0.00015708
-0.000141207
-0.000126483
-0.000112889
-0.000100392
-8.89363e-05
-7.84621e-05
-6.8808e-05
-5.98468e-05
-5.13629e-05
-4.2805e-05
-3.505e-05
-2.45058e-05
-1.95687e-05
-1.95745e-06
-7.84814e-06
0.0686293
0.0676371
0.0642799
0.0589687
0.0508158
0.0387326
0.0217209
-0.00179006
-0.0314472
-0.0669473
-0.102196
-0.129038
-0.149865
-0.162855
-0.167144
-0.163575
-0.153807
-0.140955
-0.128419
-0.118862
-0.113128
-0.109476
-0.103969
-0.0932537
-0.0772427
-0.0581404
-0.0384589
-0.0199218
-0.00323108
0.011336
0.0235194
0.0325526
0.0364931
0.0328226
0.0208189
0.00443452
-0.00787136
-0.010357
-0.00409014
0.00569604
0.0151392
0.0229231
0.029111
0.0342123
0.0383705
0.0410614
0.0415762
0.0381323
0.0275159
0.00670689
-0.0240801
-0.0576144
-0.0792361
-0.0777162
-0.0561412
-0.0296114
-0.00917992
0.00343895
0.0106735
0.0148205
0.0171012
0.0179106
0.0169915
0.0138123
0.00812388
0.000430513
-0.0077819
-0.0144377
-0.0179511
-0.0182152
-0.0162934
-0.0135243
-0.0108223
-0.00857145
-0.00683135
-0.00553369
-0.00458949
-0.00392645
-0.00349066
-0.00324
-0.00314584
-0.0031885
-0.00334748
-0.00359179
-0.00387722
-0.00415135
-0.0043649
-0.00448302
-0.00449188
-0.00439915
-0.00422635
-0.0040003
-0.00374678
-0.00348704
-0.00323677
-0.00300638
-0.00280172
-0.00262502
-0.00247578
-0.00235158
-0.00224872
-0.00216287
-0.00208954
-0.00202439
-0.00196353
-0.0019037
-0.00184252
-0.00177857
-0.00171132
-0.00164095
-0.00156821
-0.00149415
-0.00141996
-0.00134674
-0.00127548
-0.00120689
-0.00114149
-0.00107952
-0.00102103
-0.000965919
-0.00091395
-0.000864826
-0.000818218
-0.000773806
-0.0007313
-0.000690456
-0.000651084
-0.000613049
-0.000576264
-0.000540684
-0.000506293
-0.000473097
-0.000441113
-0.000410364
-0.000380868
-0.000352642
-0.000325695
-0.000300027
-0.000275635
-0.000252507
-0.000230629
-0.000209985
-0.000190554
-0.000172321
-0.000155264
-0.000139376
-0.000124622
-0.000111021
-9.84655e-05
-8.70797e-05
-7.64179e-05
-6.71698e-05
-5.73711e-05
-5.07429e-05
-3.82429e-05
-3.87748e-05
-1.01135e-05
-4.23751e-05
5.64278e-05
-0.000118215
0.0726409
0.0718027
0.068958
0.0643007
0.0568607
0.045307
0.0282486
0.00339118
-0.0292402
-0.070252
-0.110771
-0.139649
-0.161912
-0.175205
-0.178414
-0.172566
-0.15959
-0.143447
-0.128527
-0.11835
-0.114105
-0.113367
-0.11044
-0.10042
-0.0832383
-0.0620546
-0.0402718
-0.0200455
-0.00208601
0.013443
0.026425
0.0360432
0.0396557
0.0336649
0.0167969
-0.00569868
-0.0220493
-0.0241943
-0.0147931
-0.00157213
0.0102522
0.0193689
0.0262561
0.0316349
0.0354498
0.0370736
0.0363912
0.0316641
0.0193207
-0.00421012
-0.0387577
-0.0762829
-0.100684
-0.0987061
-0.0728304
-0.0401399
-0.0147218
0.000776283
0.00948153
0.0144661
0.0173328
0.0185383
0.0177111
0.0142073
0.00775997
-0.00111971
-0.0108011
-0.018718
-0.0226898
-0.0224511
-0.0194769
-0.015621
-0.012076
-0.00925551
-0.00714909
-0.0056164
-0.00452251
-0.00377096
-0.00329327
-0.00303489
-0.00295914
-0.00304161
-0.00325842
-0.00357266
-0.00393073
-0.00426881
-0.00452751
-0.00466613
-0.004671
-0.00455518
-0.0043479
-0.00408331
-0.00379274
-0.00350099
-0.00322559
-0.00297749
-0.00276225
-0.0025812
-0.00243258
-0.00231263
-0.00221633
-0.00213819
-0.00207276
-0.00201495
-0.00196032
-0.00190524
-0.00184718
-0.00178477
-0.00171768
-0.00164639
-0.00157201
-0.00149593
-0.00141963
-0.00134447
-0.00127159
-0.00120182
-0.00113568
-0.0010734
-0.00101497
-0.000960187
-0.000908739
-0.000860235
-0.000814273
-0.000770472
-0.0007285
-0.000688089
-0.000649039
-0.000611218
-0.000574553
-0.000539016
-0.000504613
-0.000471368
-0.000439319
-0.000408499
-0.000378941
-0.000350665
-0.000323682
-0.000297994
-0.000273593
-0.000250464
-0.000228588
-0.000207945
-0.000188509
-0.000170265
-0.000153186
-0.000137271
-0.000122472
-0.000108842
-9.62068e-05
-8.48485e-05
-7.39899e-05
-6.50628e-05
-5.45039e-05
-4.94988e-05
-3.34963e-05
-4.14921e-05
3.62878e-06
-6.29558e-05
0.000112388
-0.00022398
0.0769893
0.0763428
0.0741355
0.0703237
0.0638625
0.0531654
0.0363346
0.0101339
-0.0260604
-0.074486
-0.121801
-0.152703
-0.176703
-0.190507
-0.192467
-0.183693
-0.16644
-0.145836
-0.127632
-0.116627
-0.1146
-0.118191
-0.119062
-0.110062
-0.091259
-0.0672994
-0.0428663
-0.0206668
-0.00135531
0.015129
0.0289521
0.0390358
0.0420803
0.0333371
0.0103445
-0.0204164
-0.042623
-0.0441213
-0.0296548
-0.011187
0.00397846
0.0147744
0.0224168
0.027872
0.0309066
0.0311941
0.0294477
0.023603
0.0094425
-0.0171287
-0.0555539
-0.096838
-0.123548
-0.120871
-0.090711
-0.0518396
-0.0211894
-0.00256372
0.00775127
0.0136298
0.0170726
0.0185967
0.0177936
0.0140677
0.00724193
-0.00232367
-0.013233
-0.0227312
-0.0277864
-0.0274225
-0.0233492
-0.0181641
-0.0135535
-0.0100277
-0.00748577
-0.00568311
-0.00442084
-0.00357222
-0.00305197
-0.00278985
-0.00273977
-0.00287301
-0.00316275
-0.00356513
-0.00401444
-0.00443188
-0.00474478
-0.00490506
-0.00490009
-0.00475064
-0.00449641
-0.00418117
-0.00384326
-0.00351164
-0.00320579
-0.00293702
-0.00271019
-0.00252526
-0.0023788
-0.00226527
-0.00217794
-0.00210987
-0.00205449
-0.00200582
-0.00195876
-0.00190929
-0.00185475
-0.00179388
-0.00172659
-0.00165381
-0.00157708
-0.00149825
-0.00141919
-0.00134155
-0.00126667
-0.00119547
-0.0011285
-0.00106593
-0.00100766
-0.000953381
-0.000902651
-0.000854971
-0.000809843
-0.000766813
-0.000725499
-0.000685605
-0.000646927
-0.000609339
-0.000572787
-0.000537269
-0.000502819
-0.000469489
-0.000437337
-0.000406418
-0.000376773
-0.000348432
-0.000321408
-0.000295698
-0.000271291
-0.000248167
-0.000226298
-0.000205659
-0.000186221
-0.000167963
-0.000150855
-0.000134899
-0.00012004
-0.000106353
-9.36163e-05
-8.22337e-05
-7.11769e-05
-6.24559e-05
-5.12741e-05
-4.75324e-05
-2.87782e-05
-4.28017e-05
1.56359e-05
-7.94043e-05
0.000161036
-0.000315863
0.0815986
0.0811859
0.0797545
0.0770149
0.0718643
0.0624808
0.0463169
0.0189621
-0.0214592
-0.0799753
-0.136144
-0.168619
-0.194215
-0.208304
-0.208625
-0.1963
-0.173759
-0.147558
-0.125263
-0.11336
-0.11458
-0.124456
-0.130848
-0.123267
-0.102116
-0.0743633
-0.046546
-0.0220671
-0.00139278
0.0159779
0.0303619
0.0402523
0.0423727
0.03191
0.00445624
-0.0346815
-0.0661838
-0.0700747
-0.0497068
-0.0238424
-0.00399026
0.00896772
0.0173799
0.0226046
0.0244548
0.023468
0.0209508
0.0142248
-0.00173469
-0.0311527
-0.0728875
-0.117308
-0.145948
-0.142582
-0.108539
-0.0639981
-0.0283594
-0.00662621
0.00533733
0.0120899
0.0159459
0.0175165
0.0165264
0.0126276
0.0058558
-0.00358968
-0.0149519
-0.0258002
-0.0323643
-0.0325254
-0.027662
-0.0210934
-0.0152443
-0.0108801
-0.00783236
-0.00572608
-0.00427809
-0.00332498
-0.00276288
-0.00250304
-0.0024882
-0.00268524
-0.00306464
-0.00357477
-0.00413541
-0.00464918
-0.00502625
-0.00520905
-0.00518709
-0.00499125
-0.00467501
-0.00429461
-0.0038972
-0.00351668
-0.00317452
-0.00288209
-0.00264301
-0.00245528
-0.00231314
-0.00220878
-0.00213328
-0.00207804
-0.00203513
-0.00199754
-0.00195948
-0.00191651
-0.00186584
-0.00180637
-0.00173842
-0.00166343
-0.00158353
-0.00150112
-0.00141856
-0.00133785
-0.00126055
-0.00118768
-0.0011198
-0.001057
-0.000999044
-0.000945476
-0.000895698
-0.000849071
-0.000804982
-0.000762889
-0.000722358
-0.000683064
-0.000644799
-0.000607453
-0.000570999
-0.000535468
-0.00050093
-0.000467472
-0.000435179
-0.000404128
-0.000374376
-0.000345956
-0.000318884
-0.000293155
-0.000268749
-0.000245637
-0.000223785
-0.000203158
-0.000183721
-0.000165449
-0.000148308
-0.000132301
-0.000117367
-0.000103597
-9.07425e-05
-7.92842e-05
-6.80438e-05
-5.94026e-05
-4.77974e-05
-4.48704e-05
-2.4398e-05
-4.24888e-05
2.47083e-05
-9.00078e-05
0.000196908
-0.000383747
0.0863763
0.0862412
0.0857329
0.0843171
0.080879
0.0734064
0.0585665
0.030537
-0.0149067
-0.0873894
-0.15483
-0.188167
-0.216056
-0.230924
-0.229251
-0.212099
-0.182279
-0.148455
-0.120431
-0.107336
-0.113498
-0.132776
-0.147165
-0.141412
-0.116761
-0.0837761
-0.0516382
-0.0245919
-0.00261276
0.0153757
0.0291162
0.0368573
0.036905
0.0251402
-0.0027932
-0.0460652
-0.0876372
-0.0982717
-0.0740964
-0.0397914
-0.0139252
0.00177678
0.0109433
0.0155886
0.0160023
0.0139727
0.0110227
0.0037015
-0.0137551
-0.0452563
-0.0892075
-0.13579
-0.165866
-0.16196
-0.124878
-0.075747
-0.0358939
-0.0113963
0.00209697
0.00954867
0.0134695
0.0146429
0.0131659
0.00909498
0.00280582
-0.00577041
-0.0167491
-0.0282542
-0.0361664
-0.0372064
-0.03202
-0.0242367
-0.0170919
-0.011791
-0.00817596
-0.00573714
-0.0040901
-0.0030292
-0.00243036
-0.00218175
-0.00221121
-0.00248222
-0.00296425
-0.00359782
-0.00428707
-0.00491387
-0.00536712
-0.0055763
-0.00553253
-0.0052784
-0.00488457
-0.00442333
-0.00395308
-0.00351382
-0.00312924
-0.00281035
-0.00255888
-0.00237006
-0.00223503
-0.002143
-0.0020825
-0.00204299
-0.00201496
-0.00199034
-0.0019626
-0.0019269
-0.00188041
-0.00182225
-0.00175317
-0.00167526
-0.00159135
-0.00150454
-0.00141772
-0.00133335
-0.00125321
-0.00117846
-0.0011096
-0.00104663
-0.000989149
-0.000936501
-0.000887904
-0.000842551
-0.000799698
-0.000758705
-0.000719077
-0.000680463
-0.000642653
-0.000605559
-0.000569188
-0.000533614
-0.00049895
-0.000465323
-0.000432853
-0.00040164
-0.000371758
-0.000343248
-0.000316125
-0.000290378
-0.00026598
-0.000242891
-0.000221066
-0.00020046
-0.000181031
-0.000162748
-0.000145573
-0.000129509
-0.000114492
-0.00010062
-8.764e-05
-7.60633e-05
-6.46723e-05
-5.59889e-05
-4.42104e-05
-4.16014e-05
-2.06578e-05
-4.04587e-05
2.97684e-05
-9.33814e-05
0.000214621
-0.000417639
0.0912124
0.0913993
0.09196
0.0921455
0.0908863
0.086129
0.0735813
0.0459508
-0.00540188
-0.0977356
-0.180198
-0.211315
-0.240341
-0.255918
-0.252515
-0.230256
-0.191641
-0.148035
-0.112776
-0.0982791
-0.111353
-0.144121
-0.17034
-0.167006
-0.136906
-0.0964301
-0.0586355
-0.0286757
-0.00543606
0.0122612
0.0228907
0.0255763
0.021874
0.0092439
-0.0157638
-0.0591901
-0.107937
-0.126064
-0.100863
-0.0585298
-0.0258527
-0.00691624
0.00295606
0.00668695
0.00556021
0.00269943
-0.000357254
-0.00788472
-0.0261424
-0.0585001
-0.103213
-0.150692
-0.181505
-0.177282
-0.138328
-0.0861824
-0.0433819
-0.0167936
-0.00211264
0.00567691
0.00923428
0.00967066
0.00764641
0.00368441
-0.00167645
-0.0089282
-0.0188595
-0.0301931
-0.0389423
-0.040963
-0.0359472
-0.0273196
-0.0189839
-0.0127197
-0.00849804
-0.00570515
-0.00385062
-0.00268428
-0.00205942
-0.00183569
-0.0019209
-0.00227034
-0.00285282
-0.00360603
-0.00442564
-0.00517665
-0.00572365
-0.00597564
-0.00591731
-0.00560236
-0.00512081
-0.00456549
-0.00400989
-0.00350234
-0.00306948
-0.00272181
-0.00245841
-0.00227071
-0.00214582
-0.00206928
-0.00202652
-0.00200502
-0.00199366
-0.00198335
-0.00196689
-0.00193913
-0.00189717
-0.00184031
-0.00176986
-0.00168861
-0.00160016
-0.00150834
-0.00141672
-0.00132823
-0.00124495
-0.00116813
-0.00109825
-0.00103517
-0.000978285
-0.000926715
-0.000879463
-0.00083554
-0.000794053
-0.000754263
-0.000715613
-0.000677727
-0.000640399
-0.000603566
-0.000567273
-0.000531641
-0.000496832
-0.000463015
-0.000430347
-0.000398958
-0.000368935
-0.00034033
-0.000313156
-0.000287397
-0.000263015
-0.000239957
-0.000218169
-0.000197594
-0.000178182
-0.000159894
-0.000142691
-0.00012657
-0.000111474
-9.74946e-05
-8.43984e-05
-7.26815e-05
-6.11978e-05
-5.23764e-05
-4.07113e-05
-3.79318e-05
-1.78696e-05
-3.68524e-05
2.99886e-05
-8.87675e-05
0.000209675
-0.00040944
0.0959788
0.0965247
0.0982893
0.100337
0.101784
0.100663
0.0917828
0.0662786
0.00771221
-0.111628
-0.21324
-0.241398
-0.273222
-0.289608
-0.282992
-0.252933
-0.202135
-0.145227
-0.0994133
-0.0836169
-0.108532
-0.161484
-0.203841
-0.203159
-0.164616
-0.113335
-0.068061
-0.0346712
-0.0103073
0.00548828
0.00987804
0.00618764
-0.00129129
-0.0125271
-0.0335419
-0.0748013
-0.126819
-0.151494
-0.127576
-0.0788652
-0.0394565
-0.0171152
-0.00665533
-0.0041254
-0.00686371
-0.0104654
-0.013311
-0.0204516
-0.0384231
-0.0700989
-0.113887
-0.160782
-0.191497
-0.187181
-0.147714
-0.0944885
-0.0503925
-0.0226952
-0.00741837
0.000235577
0.00306764
0.00282539
0.000689796
-0.00261383
-0.00671655
-0.0124459
-0.0208997
-0.0313742
-0.0403694
-0.0433586
-0.0389656
-0.0300084
-0.0207588
-0.0136047
-0.00877553
-0.00561943
-0.00355753
-0.00230084
-0.00167821
-0.00150111
-0.00164643
-0.00205692
-0.00270607
-0.00353857
-0.0044587
-0.00533013
-0.00599535
-0.00632827
-0.00628905
-0.00593317
-0.0053697
-0.00471652
-0.00406806
-0.00348516
-0.00299955
-0.00262162
-0.00234717
-0.00216279
-0.00205043
-0.00199096
-0.00196747
-0.00196461
-0.00197003
-0.00197402
-0.00196897
-0.00194942
-0.00191247
-0.00185755
-0.00178625
-0.00170195
-0.00160908
-0.00151228
-0.0014158
-0.00132308
-0.00123654
-0.00115758
-0.00108663
-0.0010234
-0.000967085
-0.000916571
-0.000870648
-0.000828142
-0.000788017
-0.000749436
-0.000711778
-0.000674641
-0.000637821
-0.000601275
-0.000565087
-0.000529422
-0.000494486
-0.000460494
-0.000427641
-0.000396081
-0.000365922
-0.000337224
-0.000310001
-0.000284231
-0.000259866
-0.000236844
-0.000215097
-0.00019456
-0.000175173
-0.00015689
-0.000139671
-0.000123505
-0.000108347
-9.42732e-05
-8.10922e-05
-6.92421e-05
-5.77474e-05
-4.87329e-05
-3.74768e-05
-3.40981e-05
-1.62276e-05
-3.1953e-05
2.50677e-05
-7.62036e-05
0.00017977
-0.000354925
0.100532
0.101467
0.104533
0.108699
0.113375
0.117149
0.11383
0.0945369
0.0268035
-0.138408
-0.25974
-0.271146
-0.305465
-0.326312
-0.319567
-0.28141
-0.215291
-0.140933
-0.082555
-0.063289
-0.0988087
-0.177547
-0.24479
-0.250824
-0.20198
-0.13593
-0.0806254
-0.04286
-0.0177874
-0.00624593
-0.0101933
-0.0188627
-0.0277108
-0.0351821
-0.0521237
-0.0897513
-0.141787
-0.17168
-0.151106
-0.0988651
-0.053968
-0.0286066
-0.0178339
-0.0167763
-0.0212914
-0.0256781
-0.0279625
-0.0338486
-0.0501387
-0.0794451
-0.120544
-0.165271
-0.194951
-0.190754
-0.152229
-0.100045
-0.0565312
-0.0289471
-0.0138324
-0.00677621
-0.00477961
-0.00531405
-0.0068471
-0.00888417
-0.011555
-0.0157195
-0.022484
-0.0316541
-0.04039
-0.0442048
-0.0407417
-0.032002
-0.0222418
-0.0143752
-0.00898585
-0.0054731
-0.00321426
-0.0018976
-0.0013079
-0.00122611
-0.00144766
-0.00189712
-0.00254939
-0.00337452
-0.00431682
-0.00526771
-0.00605945
-0.00652153
-0.0065641
-0.00621793
-0.00560421
-0.00486795
-0.00413058
-0.00347163
-0.00293202
-0.00252371
-0.00223914
-0.00205918
-0.00195978
-0.00191698
-0.00191031
-0.00192315
-0.00194251
-0.00195855
-0.00196362
-0.0019521
-0.00192075
-0.00186875
-0.00179799
-0.00171222
-0.00161632
-0.00151562
-0.00141507
-0.00131867
-0.00122919
-0.0011482
-0.00107615
-0.00101264
-0.000956683
-0.000906972
-0.000862105
-0.00082075
-0.000781753
-0.000744192
-0.000707396
-0.000670939
-0.000634609
-0.000598376
-0.000562348
-0.00052672
-0.000491735
-0.000457642
-0.000424665
-0.000392985
-0.000362727
-0.000333959
-0.000306698
-0.00028092
-0.000256572
-0.000233582
-0.000211874
-0.000191373
-0.000172015
-0.000153746
-0.000136525
-0.000120336
-0.000105144
-9.10101e-05
-7.7796e-05
-6.5851e-05
-5.44447e-05
-4.52298e-05
-3.46523e-05
-3.0353e-05
-1.57742e-05
-2.61885e-05
1.54126e-05
-5.67464e-05
0.000125922
-0.000256153
0.104715
0.106045
0.110465
0.11687
0.125313
0.134877
0.139962
0.129936
0.0535966
-0.15276
-0.336833
-0.327733
-0.357931
-0.376317
-0.363742
-0.314954
-0.232388
-0.140183
-0.0663682
-0.0403509
-0.0829145
-0.179338
-0.272255
-0.295409
-0.243236
-0.163124
-0.0964188
-0.0534169
-0.0284824
-0.0235691
-0.0357315
-0.047603
-0.0536004
-0.0558388
-0.0685499
-0.101707
-0.151553
-0.184954
-0.168902
-0.116422
-0.068282
-0.0409164
-0.0303394
-0.0310938
-0.0377182
-0.0430316
-0.0443145
-0.047803
-0.0608394
-0.0861091
-0.122851
-0.163881
-0.191585
-0.187692
-0.151532
-0.1025
-0.061489
-0.0353516
-0.021205
-0.0151603
-0.0139109
-0.0142118
-0.0144608
-0.0147985
-0.0159069
-0.0184504
-0.0234079
-0.0310084
-0.0390951
-0.0434971
-0.0411217
-0.0330882
-0.0232814
-0.0149679
-0.0091193
-0.00528089
-0.00285729
-0.00154365
-0.00108326
-0.00115133
-0.00147932
-0.00195751
-0.00256114
-0.00327535
-0.00410588
-0.00501989
-0.00587879
-0.00647592
-0.00665256
-0.00638583
-0.00578127
-0.00500266
-0.00419963
-0.00347617
-0.00288794
-0.0024518
-0.00215799
-0.00198156
-0.00189216
-0.0018611
-0.00186523
-0.00188696
-0.00191339
-0.00193575
-0.00194717
-0.00194151
-0.0019154
-0.00186788
-0.00179994
-0.00171517
-0.00161883
-0.00151667
-0.00141405
-0.00131545
-0.001224
-0.00114151
-0.0010685
-0.00100453
-0.000948535
-0.000899093
-0.000854695
-0.000813924
-0.000775554
-0.000738612
-0.000702388
-0.00066643
-0.000630513
-0.000594601
-0.000558801
-0.000523318
-0.000488409
-0.00045434
-0.000421355
-0.000389649
-0.000359361
-0.000330569
-0.000303296
-0.000277518
-0.000253181
-0.000230212
-0.00020853
-0.000188056
-0.000168722
-0.00015047
-0.000133261
-0.000117074
-0.000101886
-8.77374e-05
-7.45532e-05
-6.25737e-05
-5.13556e-05
-4.19745e-05
-3.22754e-05
-2.68723e-05
-1.63064e-05
-2.00263e-05
2.278e-06
-3.24454e-05
5.34293e-05