/*--------------------------------*- C++ -*----------------------------------*\
  =========                 |
  \\      /  F ield         | OpenFOAM: The Open Source CFD Toolbox
   \\    /   O peration     | Website:  https://openfoam.org
    \\  /    A nd           | Version:  11
     \\/     M anipulation  |
\*---------------------------------------------------------------------------*/
FoamFile
{
    format      ascii;
    class       volVectorField;
    location    "9.066402";
    object      vorticity;
}
// * * * * * * * * * * * * * * * * * * * * * * * * * * * * * * * * * * * * * //

dimensions      [0 0 -1 0 0 0 0];

internalField   nonuniform List<vector> 
7132
(
(-4.11154e-17 -1.82963e-15 -0.0110723)
(-1.4307e-16 -1.79476e-15 -0.0110363)
(-1.46468e-16 -2.05902e-17 -0.0110271)
(-1.70399e-16 -1.77663e-15 -0.0110645)
(-2.19472e-16 -1.7702e-15 -0.0111591)
(-2.1847e-16 -4.20948e-18 -0.0113124)
(-2.02609e-16 1.12394e-17 -0.011519)
(-1.85584e-16 1.57417e-17 -0.0117637)
(-1.15098e-16 1.52839e-17 -0.0120278)
(-8.16862e-17 1.34462e-17 -0.0122875)
(-9.5726e-17 9.50618e-18 -0.0125145)
(-6.28319e-17 1.21279e-17 -0.0127022)
(-1.53275e-16 6.88269e-18 -0.0128326)
(-1.03078e-16 7.82926e-17 -0.0128992)
(3.35406e-16 -3.31779e-15 -0.012904)
(8.90107e-16 -1.58039e-15 -0.012856)
(1.41407e-15 -1.67565e-15 -0.012773)
(1.47191e-15 2.12647e-17 -0.0126819)
(1.29261e-15 -1.62409e-15 -0.0126156)
(9.01138e-16 -1.64951e-15 -0.0126152)
(3.61522e-16 3.5812e-17 -0.0127134)
(-1.06818e-16 2.99244e-17 -0.0129162)
(-4.53791e-16 3.13271e-17 -0.0131921)
(-6.91242e-16 -1.0431e-17 -0.0134711)
(-9.77071e-16 1.72517e-15 -0.0136594)
(-1.16176e-15 5.44066e-17 -0.0136619)
(-1.43747e-15 9.76335e-17 -0.0134037)
(-1.7533e-15 1.37482e-16 -0.0128402)
(-1.7716e-15 1.4719e-16 -0.0119614)
(-1.97919e-15 1.91913e-15 -0.010842)
(-6.28234e-15 3.0352e-15 -0.00973485)
(-8.41181e-15 7.25076e-15 -0.00891162)
(3.47585e-14 9.41764e-15 -0.0085187)
(1.29956e-13 5.8932e-15 -0.00855886)
(1.90052e-13 -5.53856e-15 -0.00899499)
(1.67998e-13 -9.49913e-15 -0.00989449)
(1.04694e-13 -4.37265e-15 -0.0113473)
(5.06981e-14 -4.47567e-16 -0.0131435)
(1.96955e-14 5.25078e-15 -0.0148419)
(1.12053e-14 1.04575e-15 -0.0160634)
(2.88726e-14 1.63481e-16 -0.0165798)
(-2.49113e-14 3.02386e-14 -0.0162906)
(-3.12251e-13 4.40032e-14 -0.0151936)
(2.44264e-13 -3.14614e-13 -0.0133935)
(4.72088e-12 -1.1757e-12 -0.0111863)
(4.97962e-12 5.63957e-13 -0.00928399)
(-4.7252e-11 1.22327e-11 -0.00905088)
(-2.15778e-10 3.31275e-11 -0.0121524)
(-4.82553e-10 4.20375e-11 -0.0182904)
(-7.05495e-10 2.01798e-11 -0.023552)
(-7.1603e-10 -1.60479e-11 -0.0238233)
(-5.04561e-10 -3.51743e-11 -0.020182)
(-2.50291e-10 -3.09956e-11 -0.0173864)
(-8.42405e-11 -1.78435e-11 -0.0174064)
(-9.62317e-12 -6.88115e-12 -0.0190505)
(9.75181e-12 -1.13584e-12 -0.0206963)
(7.88962e-12 6.07748e-13 -0.021341)
(2.98443e-12 5.69282e-13 -0.0207164)
(3.57766e-13 2.06251e-13 -0.0190532)
(-2.98016e-13 1.11159e-14 -0.0167875)
(-2.17469e-13 -2.80561e-14 -0.0143594)
(-8.45102e-14 -2.16239e-14 -0.0121667)
(-7.57423e-14 -2.02543e-14 -0.0105627)
(-1.89828e-13 -2.31544e-14 -0.0097067)
(-4.40056e-13 4.45235e-15 -0.00953584)
(-8.02739e-13 5.65141e-14 -0.0098938)
(-1.10277e-12 8.12409e-14 -0.0106444)
(-1.13844e-12 6.40913e-14 -0.0116881)
(-9.06156e-13 1.53754e-14 -0.0128754)
(-5.85978e-13 -2.27613e-14 -0.0139796)
(-3.22604e-13 -3.77598e-14 -0.0147979)
(-1.59568e-13 -3.92874e-14 -0.0152157)
(-7.91688e-14 -2.89979e-14 -0.0152168)
(-4.8111e-14 -2.0401e-14 -0.014862)
(-4.05783e-14 -1.14189e-14 -0.0142569)
(-4.28123e-14 -2.57662e-15 -0.0135196)
(-5.00779e-14 1.49685e-15 -0.012757)
(-6.18376e-14 8.40528e-15 -0.0120515)
(-7.83582e-14 1.14002e-14 -0.011457)
(-9.8989e-14 1.53844e-14 -0.0110016)
(-1.21519e-13 1.98393e-14 -0.0106946)
(-1.42682e-13 1.90144e-14 -0.0105303)
(-1.58444e-13 1.95298e-14 -0.0104899)
(-1.65253e-13 1.4507e-14 -0.0105459)
(-1.61442e-13 9.75334e-15 -0.0106683)
(-1.48157e-13 6.34488e-15 -0.0108281)
(-1.29619e-13 1.91626e-16 -0.0109985)
(-1.11411e-13 -1.02862e-15 -0.0111554)
(-9.77636e-14 -4.16328e-15 -0.011278)
(-9.0243e-14 -4.34716e-15 -0.0113525)
(-8.81113e-14 -2.02638e-15 -0.0113733)
(-8.95232e-14 -2.84557e-15 -0.0113427)
(-9.2285e-14 -1.29768e-16 -0.0112697)
(-9.45404e-14 7.58597e-16 -0.011167)
(-9.50147e-14 -3.18566e-16 -0.0110487)
(-9.2843e-14 1.75043e-15 -0.0109283)
(-8.74393e-14 -9.70206e-17 -0.0108166)
(-7.83545e-14 1.00971e-15 -0.0107211)
(-6.52949e-14 -1.35281e-16 -0.0106461)
(-4.82815e-14 -3.45666e-15 -0.0105925)
(-2.76906e-14 -3.5386e-15 -0.0105588)
(-4.36305e-15 -7.08398e-15 -0.0105417)
(2.04997e-14 -6.89587e-15 -0.0105371)
(4.54835e-14 -7.9934e-15 -0.0105403)
(6.91572e-14 -1.03151e-14 -0.0105469)
(9.03911e-14 -8.66642e-15 -0.0105531)
(1.08478e-13 -1.01208e-14 -0.0105557)
(1.23257e-13 -7.90477e-15 -0.0105525)
(1.35057e-13 -7.41514e-15 -0.0105423)
(1.44544e-13 -8.83874e-15 -0.010525)
(1.5264e-13 -7.06668e-15 -0.0105008)
(1.60297e-13 -9.10324e-15 -0.010471)
(1.6841e-13 -7.99301e-15 -0.0104368)
(1.77693e-13 -8.89919e-15 -0.0103998)
(1.88593e-13 -1.17785e-14 -0.0103615)
(2.01359e-13 -1.13371e-14 -0.0103231)
(2.16004e-13 -1.44554e-14 -0.0102856)
(2.32392e-13 -1.41105e-14 -0.0102494)
(2.50252e-13 -1.54392e-14 -0.0102148)
(2.69185e-13 -1.8403e-14 -0.0101816)
(2.88779e-13 -1.7709e-14 -0.0101495)
(3.08596e-13 -1.85058e-14 -0.010118)
(3.28261e-13 -1.90339e-14 -0.0100863)
(3.47465e-13 -1.93012e-14 -0.0100539)
(3.65967e-13 -2.11002e-14 -0.0100203)
(3.83702e-13 -1.92867e-14 -0.00998494)
(4.00734e-13 -1.91773e-14 -0.00994746)
(4.17296e-13 -1.91632e-14 -0.00990759)
(4.33725e-13 -1.93432e-14 -0.00986516)
(4.50379e-13 -2.15126e-14 -0.00982007)
(4.67629e-13 -2.04294e-14 -0.00977225)
(4.8574e-13 -2.12216e-14 -0.00972168)
(5.04849e-13 -2.20433e-14 -0.0096683)
(5.24887e-13 -2.27677e-14 -0.00961206)
(5.45547e-13 -2.50302e-14 -0.00955285)
(5.66371e-13 -2.3537e-14 -0.00949051)
(5.86754e-13 -2.34866e-14 -0.00942486)
(6.06064e-13 -2.32107e-14 -0.00935564)
(6.23692e-13 -2.28333e-14 -0.00928252)
(6.39123e-13 -2.42736e-14 -0.00920511)
(6.52113e-13 -2.25246e-14 -0.00912293)
(6.62755e-13 -2.30611e-14 -0.00903542)
(6.71656e-13 -2.44825e-14 -0.00894198)
(6.80023e-13 -2.71781e-14 -0.0088421)
(6.89746e-13 -3.33289e-14 -0.00873547)
(7.03534e-13 -3.81685e-14 -0.00862217)
(7.24854e-13 -4.73532e-14 -0.0085028)
(7.57899e-13 -5.95509e-14 -0.00837835)
(8.07385e-13 -7.50557e-14 -0.00824982)
(8.78277e-13 -9.57436e-14 -0.00811734)
(9.75555e-13 -1.16298e-13 -0.00797882)
(1.10377e-12 -1.41577e-13 -0.00782843)
(1.26666e-12 -1.69172e-13 -0.00765522)
(1.46645e-12 -1.98174e-13 -0.0074427)
(1.70352e-12 -2.28772e-13 -0.00716917)
(1.9751e-12 -2.53986e-13 -0.0068116)
(2.27607e-12 -2.76868e-13 -0.00634847)
(2.59656e-12 -2.79833e-13 -0.00574826)
(2.89925e-12 -3.38712e-13 -0.00516485)
(3.32492e-12 -2.04076e-13 -0.00359177)
(-4.11993e-17 -3.87168e-18 -0.0331284)
(-1.48524e-16 -7.15004e-18 -0.0330204)
(-1.61231e-16 -7.77313e-18 -0.0329882)
(-1.89605e-16 -8.79281e-18 -0.0330903)
(-2.47606e-16 -9.74779e-18 -0.0333598)
(-2.5737e-16 -9.25283e-18 -0.0338048)
(-2.66629e-16 -5.20397e-18 -0.0344138)
(-2.65518e-16 -2.80139e-17 -0.0351472)
(-1.05321e-16 1.69806e-15 -0.035956)
(-1.91058e-16 3.7603e-18 -0.0367758)
(-7.08645e-16 7.90262e-20 -0.0375244)
(-8.58273e-16 1.77563e-15 -0.0381891)
(3.95939e-16 2.70058e-17 -0.0387202)
(2.98761e-15 -1.66048e-16 -0.0391049)
(5.76051e-15 -3.45782e-16 -0.0393528)
(6.93086e-15 -3.85841e-16 -0.0394834)
(5.4892e-15 -2.30981e-16 -0.0395274)
(1.18135e-15 8.27347e-17 -0.0395162)
(-4.10507e-15 3.96231e-16 -0.0394741)
(-8.4276e-15 5.50863e-16 -0.0394218)
(-1.08986e-14 5.39578e-16 -0.0393625)
(-1.15157e-14 4.37581e-16 -0.039273)
(-1.09848e-14 3.23539e-16 -0.0391165)
(-1.00581e-14 2.44433e-16 -0.0388586)
(-9.33858e-15 2.25708e-16 -0.0384771)
(-8.90766e-15 2.91381e-16 -0.0379685)
(-8.94918e-15 3.93407e-16 -0.0373508)
(-8.3382e-15 3.04552e-16 -0.0366596)
(-3.02966e-15 2.59287e-16 -0.0359542)
(-5.99117e-15 2.44147e-15 -0.0353869)
(-6.06482e-14 6.25574e-15 -0.0352663)
(1.67355e-13 -1.67408e-14 -0.0357854)
(1.68454e-12 -6.14978e-14 -0.0368115)
(4.08167e-12 -7.34817e-14 -0.0378825)
(4.78081e-12 -2.80339e-14 -0.0385136)
(3.16268e-12 3.31733e-14 -0.0386451)
(1.29312e-12 5.25409e-14 -0.038618)
(3.49847e-13 4.03136e-14 -0.0386468)
(4.89743e-14 2.15209e-14 -0.0387062)
(4.15967e-14 -7.01564e-15 -0.0386533)
(1.00355e-13 1.82218e-14 -0.0383027)
(-3.99367e-13 1.99073e-13 -0.0375096)
(-7.65617e-13 -9.23142e-14 -0.0363164)
(5.44526e-12 -2.83291e-12 -0.0350184)
(1.26102e-11 -3.54684e-12 -0.0342895)
(-5.25217e-11 2.65504e-11 -0.0362104)
(-2.57012e-10 1.2261e-10 -0.044618)
(-3.96131e-10 2.50774e-10 -0.060921)
(-2.03408e-10 2.86894e-10 -0.080665)
(3.00601e-11 1.36915e-10 -0.096513)
(-1.26658e-10 -1.16517e-10 -0.100176)
(-4.15444e-10 -2.68042e-10 -0.0880325)
(-4.59251e-10 -2.41159e-10 -0.0691001)
(-2.9645e-10 -1.38177e-10 -0.0540186)
(-1.03531e-10 -5.38791e-11 -0.0458989)
(2.75075e-12 -9.89569e-12 -0.0431732)
(2.60903e-11 3.99317e-12 -0.0426159)
(1.57213e-11 4.33347e-12 -0.0417866)
(4.1905e-12 1.84748e-12 -0.0398995)
(-5.15436e-13 2.96998e-13 -0.0373712)
(-9.79502e-13 -1.36544e-13 -0.0350257)
(-6.42956e-13 -9.07523e-14 -0.0335792)
(-1.79738e-12 3.06666e-14 -0.0333945)
(-5.71847e-12 1.60734e-13 -0.0343089)
(-1.12631e-11 3.09176e-13 -0.0357681)
(-1.49219e-11 3.89607e-13 -0.0371735)
(-1.43146e-11 2.52561e-13 -0.0381682)
(-1.04735e-11 -3.59479e-14 -0.0386946)
(-6.1326e-12 -2.59119e-13 -0.0388349)
(-2.94835e-12 -3.18007e-13 -0.038674)
(-1.1695e-12 -2.49229e-13 -0.0382622)
(-3.96508e-13 -1.5927e-13 -0.0376209)
(-1.55235e-13 -8.64644e-14 -0.0367725)
(-1.2577e-13 -3.79582e-14 -0.0357681)
(-1.53317e-13 -1.5803e-14 -0.0346975)
(-1.87087e-13 3.90624e-15 -0.0336744)
(-2.22613e-13 1.27442e-14 -0.0328087)
(-2.67573e-13 2.08098e-14 -0.0321793)
(-3.25744e-13 3.17108e-14 -0.0318209)
(-3.92939e-13 3.52294e-14 -0.0317238)
(-4.58368e-13 4.342e-14 -0.031844)
(-5.07144e-13 3.92116e-14 -0.0321155)
(-5.23538e-13 2.90805e-14 -0.0324609)
(-4.96727e-13 1.77404e-14 -0.0328063)
(-4.26788e-13 -5.29196e-16 -0.0330941)
(-3.27283e-13 -7.83153e-15 -0.0332884)
(-2.2315e-13 -1.64463e-14 -0.0333746)
(-1.41703e-13 -1.8691e-14 -0.0333537)
(-9.82411e-14 -1.30125e-14 -0.0332372)
(-9.23336e-14 -1.26429e-14 -0.0330437)
(-1.13314e-13 -6.51348e-16 -0.0327964)
(-1.46918e-13 9.75966e-16 -0.0325208)
(-1.80248e-13 2.3784e-15 -0.0322418)
(-2.03965e-13 3.85863e-15 -0.0319819)
(-2.12558e-13 5.67488e-16 -0.0317583)
(-2.03224e-13 -3.02571e-16 -0.0315822)
(-1.74634e-13 -5.60656e-15 -0.0314582)
(-1.26328e-13 -1.00629e-14 -0.0313842)
(-5.8559e-14 -1.3437e-14 -0.0313529)
(2.71419e-14 -2.05241e-14 -0.0313534)
(1.27586e-13 -2.37631e-14 -0.0313732)
(2.37807e-13 -2.94444e-14 -0.0313997)
(3.51403e-13 -3.18191e-14 -0.0314217)
(4.61521e-13 -3.05874e-14 -0.0314305)
(5.61837e-13 -3.10342e-14 -0.0314202)
(6.4767e-13 -2.6592e-14 -0.0313878)
(7.16649e-13 -2.48191e-14 -0.0313332)
(7.68847e-13 -2.11944e-14 -0.0312583)
(8.06585e-13 -1.6324e-14 -0.0311667)
(8.33664e-13 -1.58957e-14 -0.0310631)
(8.54661e-13 -1.32083e-14 -0.0309522)
(8.74171e-13 -1.52535e-14 -0.0308387)
(8.96162e-13 -1.66911e-14 -0.0307266)
(9.23701e-13 -1.72557e-14 -0.0306186)
(9.58671e-13 -2.18765e-14 -0.0305167)
(1.00188e-12 -2.33078e-14 -0.0304214)
(1.05317e-12 -2.82374e-14 -0.0303324)
(1.11162e-12 -3.12349e-14 -0.0302485)
(1.1758e-12 -3.21008e-14 -0.0301677)
(1.24393e-12 -3.59315e-14 -0.0300881)
(1.31411e-12 -3.56796e-14 -0.0300073)
(1.38456e-12 -3.6512e-14 -0.0299233)
(1.45369e-12 -3.84683e-14 -0.0298344)
(1.52035e-12 -3.64197e-14 -0.0297393)
(1.58383e-12 -3.74845e-14 -0.0296369)
(1.64402e-12 -3.49354e-14 -0.029527)
(1.70145e-12 -3.42393e-14 -0.0294092)
(1.75715e-12 -3.56588e-14 -0.0292839)
(1.81256e-12 -3.41498e-14 -0.0291513)
(1.86925e-12 -3.67298e-14 -0.0290116)
(1.92869e-12 -3.63752e-14 -0.0288651)
(1.99198e-12 -3.80967e-14 -0.0287119)
(2.05953e-12 -4.16172e-14 -0.028552)
(2.13099e-12 -4.1382e-14 -0.0283849)
(2.20514e-12 -4.40373e-14 -0.0282102)
(2.28e-12 -4.24057e-14 -0.0280273)
(2.35311e-12 -4.15982e-14 -0.0278353)
(2.42171e-12 -4.16796e-14 -0.0276331)
(2.48317e-12 -3.76279e-14 -0.0274198)
(2.53534e-12 -3.67495e-14 -0.027194)
(2.57704e-12 -3.26061e-14 -0.0269544)
(2.60855e-12 -3.10978e-14 -0.0266993)
(2.63208e-12 -3.31164e-14 -0.0264272)
(2.65232e-12 -3.44884e-14 -0.0261367)
(2.67681e-12 -4.335e-14 -0.0258271)
(2.71615e-12 -5.39879e-14 -0.0254988)
(2.78405e-12 -7.28009e-14 -0.0251539)
(2.89683e-12 -1.00817e-13 -0.024796)
(3.07278e-12 -1.3351e-13 -0.024429)
(3.33113e-12 -1.78094e-13 -0.0240549)
(3.69085e-12 -2.27311e-13 -0.0236695)
(4.16918e-12 -2.85397e-13 -0.0232583)
(4.77997e-12 -3.50513e-13 -0.0227916)
(5.53114e-12 -4.14867e-13 -0.0222222)
(6.42346e-12 -4.81358e-13 -0.0214867)
(7.44514e-12 -5.38525e-13 -0.0205141)
(8.57559e-12 -5.85863e-13 -0.0192372)
(9.77474e-12 -5.91424e-13 -0.0175493)
(1.09055e-11 -7.01158e-13 -0.0159101)
(1.24742e-11 -4.15176e-13 -0.0113015)
(-1.04714e-18 -4.40608e-20 -0.0549284)
(-1.6813e-17 -2.2281e-20 -0.0547423)
(-3.24139e-17 -4.99529e-20 -0.0546765)
(-5.63797e-17 1.28062e-18 -0.0548289)
(-7.11477e-17 -1.59494e-18 -0.0552565)
(-8.31048e-17 5.30197e-18 -0.0559763)
(-2.53776e-16 1.53133e-17 -0.0569732)
(1.96996e-16 -5.13596e-17 -0.0581856)
(2.73536e-17 -2.1946e-17 -0.0595371)
(-2.27315e-15 3.01556e-16 -0.060923)
(-1.62563e-15 3.4989e-16 -0.062206)
(7.47796e-15 -5.40164e-16 -0.0633839)
(1.96754e-14 -1.92283e-15 -0.0643729)
(2.28575e-14 -2.60399e-15 -0.0651589)
(8.98864e-15 -1.81997e-15 -0.0657641)
(-2.1063e-14 2.89989e-16 -0.0662174)
(-5.98942e-14 2.93383e-15 -0.0665481)
(-9.58967e-14 4.8184e-15 -0.0667632)
(-1.1338e-13 4.91511e-15 -0.0668329)
(-1.07798e-13 3.48199e-15 -0.0666978)
(-8.80013e-14 1.57984e-15 -0.0662785)
(-6.42971e-14 7.3012e-17 -0.0654977)
(-4.41795e-14 -6.97476e-16 -0.0643418)
(-3.03805e-14 -8.33539e-16 -0.0629036)
(-2.1989e-14 -5.8475e-16 -0.0613824)
(-1.667e-14 -1.40291e-16 -0.0600522)
(-1.10382e-14 -1.87097e-16 -0.059208)
(5.34818e-15 -2.82228e-15 -0.0590993)
(4.06675e-14 -1.02632e-15 -0.0598949)
(9.34404e-15 2.90004e-14 -0.0617023)
(7.80382e-14 -8.53861e-14 -0.064548)
(2.40753e-12 -8.67097e-13 -0.0681488)
(9.44196e-12 -1.94772e-12 -0.0717397)
(1.78573e-11 -1.54398e-12 -0.0742163)
(1.96852e-11 4.52226e-13 -0.074645)
(1.26855e-11 1.73262e-12 -0.0727192)
(4.60442e-12 1.40031e-12 -0.0688601)
(7.98251e-13 6.21626e-13 -0.0638983)
(-1.496e-13 1.55913e-13 -0.0588141)
(5.01386e-14 -2.63928e-14 -0.054444)
(-1.90251e-13 2.18897e-13 -0.0513381)
(-1.61633e-12 4.61517e-13 -0.0497974)
(5.1392e-12 -2.87831e-12 -0.0500059)
(2.07483e-11 -7.00427e-12 -0.0522182)
(-6.43177e-11 2.7806e-11 -0.0584499)
(-3.37609e-10 1.35373e-10 -0.0735867)
(3.27444e-11 1.84036e-10 -0.0935889)
(2.98306e-09 6.32544e-12 -0.0930133)
(8.91705e-09 -1.7106e-10 -0.0569573)
(1.43076e-08 -1.81966e-11 -0.0219616)
(1.456e-08 2.06704e-10 -0.0334785)
(9.65506e-09 1.31125e-10 -0.0749788)
(3.9813e-09 -9.04923e-11 -0.0992635)
(6.64408e-10 -1.95703e-10 -0.0928229)
(-3.21613e-10 -1.56482e-10 -0.0719254)
(-2.59793e-10 -6.59467e-11 -0.0546294)
(-5.99418e-11 -5.87407e-12 -0.0464867)
(2.06283e-11 1.15192e-11 -0.0443841)
(2.14663e-11 8.32461e-12 -0.0445212)
(7.11969e-12 2.59612e-12 -0.0455102)
(2.02091e-13 3.57038e-14 -0.0475907)
(-2.82803e-12 3.9077e-13 -0.0512146)
(-1.50948e-11 2.5175e-12 -0.0563241)
(-4.60116e-11 4.71318e-12 -0.0621789)
(-8.41024e-11 4.6079e-12 -0.0674327)
(-1.01805e-10 1.58225e-12 -0.0706311)
(-8.62449e-11 -2.13603e-12 -0.0710785)
(-5.2762e-11 -4.02689e-12 -0.0691172)
(-2.42055e-11 -3.74371e-12 -0.0656142)
(-7.95208e-12 -2.50258e-12 -0.0614558)
(-1.21491e-12 -1.31369e-12 -0.0573563)
(5.12592e-13 -5.4293e-13 -0.0537932)
(3.88051e-13 -1.64367e-13 -0.0510063)
(-7.55548e-14 -1.78906e-14 -0.0490521)
(-4.04538e-13 2.09672e-14 -0.0478873)
(-5.7384e-13 3.20579e-14 -0.047434)
(-6.70522e-13 4.52198e-14 -0.0476047)
(-7.60651e-13 5.99706e-14 -0.0482998)
(-8.5958e-13 7.75498e-14 -0.0493983)
(-9.4303e-13 8.34315e-14 -0.0507553)
(-9.69708e-13 7.69409e-14 -0.0522092)
(-8.94596e-13 5.50677e-14 -0.0535946)
(-6.8451e-13 1.43216e-14 -0.0547618)
(-3.37889e-13 -3.03994e-14 -0.0555984)
(1.03583e-13 -7.3233e-14 -0.0560433)
(5.58843e-13 -9.54725e-14 -0.0560917)
(9.28013e-13 -8.91299e-14 -0.0557892)
(1.12797e-12 -6.34829e-14 -0.055217)
(1.13794e-12 -2.53761e-14 -0.0544746)
(9.97838e-13 4.92339e-15 -0.0536628)
(7.75139e-13 2.52633e-14 -0.052871)
(5.36953e-13 3.23567e-14 -0.0521693)
(3.34012e-13 2.83928e-14 -0.0516044)
(1.96542e-13 1.69136e-14 -0.0511999)
(1.37824e-13 1.04559e-15 -0.0509589)
(1.60512e-13 -1.72114e-14 -0.0508678)
(2.62036e-13 -3.68093e-14 -0.0509007)
(4.37361e-13 -5.70284e-14 -0.0510242)
(6.79164e-13 -7.68702e-14 -0.0512019)
(9.76579e-13 -9.47942e-14 -0.051398)
(1.31402e-12 -1.08871e-13 -0.0515808)
(1.67123e-12 -1.17257e-13 -0.0517249)
(2.02505e-12 -1.18753e-13 -0.0518125)
(2.35254e-12 -1.13211e-13 -0.0518343)
(2.63448e-12 -1.01655e-13 -0.0517886)
(2.85839e-12 -8.60722e-14 -0.0516803)
(3.02003e-12 -6.89746e-14 -0.0515198)
(3.12333e-12 -5.28734e-14 -0.0513203)
(3.1788e-12 -3.98235e-14 -0.0510966)
(3.20103e-12 -3.11418e-14 -0.0508629)
(3.20604e-12 -2.73206e-14 -0.0506319)
(3.2089e-12 -2.81189e-14 -0.0504132)
(3.22201e-12 -3.27583e-14 -0.0502134)
(3.25419e-12 -4.01536e-14 -0.0500357)
(3.31044e-12 -4.91313e-14 -0.0498801)
(3.39218e-12 -5.85876e-14 -0.0497442)
(3.49792e-12 -6.75908e-14 -0.0496236)
(3.62394e-12 -7.54251e-14 -0.0495129)
(3.76513e-12 -8.15955e-14 -0.049406)
(3.91572e-12 -8.58225e-14 -0.0492972)
(4.06996e-12 -8.80227e-14 -0.0491816)
(4.22267e-12 -8.82978e-14 -0.049055)
(4.3697e-12 -8.69307e-14 -0.0489146)
(4.5083e-12 -8.43683e-14 -0.0487588)
(4.63733e-12 -8.1199e-14 -0.048587)
(4.75727e-12 -7.80971e-14 -0.0483996)
(4.87023e-12 -7.57424e-14 -0.0481976)
(4.97958e-12 -7.47177e-14 -0.0479824)
(5.08956e-12 -7.53942e-14 -0.0477554)
(5.2046e-12 -7.78441e-14 -0.0475179)
(5.32866e-12 -8.17935e-14 -0.0472709)
(5.46448e-12 -8.66423e-14 -0.0470146)
(5.613e-12 -9.1551e-14 -0.0467491)
(5.77298e-12 -9.55701e-14 -0.0464737)
(5.94089e-12 -9.77973e-14 -0.0461873)
(6.11118e-12 -9.75217e-14 -0.0458886)
(6.27677e-12 -9.4341e-14 -0.0455758)
(6.42985e-12 -8.82431e-14 -0.0452471)
(6.56282e-12 -7.96525e-14 -0.0449007)
(6.66943e-12 -6.94734e-14 -0.0445343)
(6.74602e-12 -5.91252e-14 -0.0441456)
(6.79284e-12 -5.05791e-14 -0.0437324)
(6.81542e-12 -4.63706e-14 -0.0432919)
(6.82586e-12 -4.95434e-14 -0.0428223)
(6.84379e-12 -6.35085e-14 -0.0423225)
(6.89686e-12 -9.17905e-14 -0.0417935)
(7.02041e-12 -1.37692e-13 -0.041239)
(7.25637e-12 -2.03917e-13 -0.0406655)
(7.65119e-12 -2.92209e-13 -0.0400806)
(8.25308e-12 -4.03042e-13 -0.0394894)
(9.10888e-12 -5.35323e-13 -0.0388883)
(1.02602e-11 -6.86134e-13 -0.0382569)
(1.17395e-11 -8.50151e-13 -0.0375506)
(1.35641e-11 -1.01992e-12 -0.0366951)
(1.57323e-11 -1.18404e-12 -0.0355876)
(1.82104e-11 -1.33005e-12 -0.0341082)
(2.09428e-11 -1.44167e-12 -0.0321414)
(2.38234e-11 -1.44479e-12 -0.0294949)
(2.65311e-11 -1.68845e-12 -0.0269237)
(3.02153e-11 -9.8669e-13 -0.019446)
(-4.47455e-17 5.05838e-18 -0.0762854)
(-1.45513e-16 8.53337e-18 -0.0760121)
(-1.25158e-16 1.20102e-17 -0.0758981)
(-1.92649e-16 1.05741e-17 -0.0760814)
(-2.4094e-17 3.61476e-18 -0.0766436)
(-5.46536e-16 8.20615e-17 -0.0776112)
(2.90287e-16 -1.45254e-16 -0.0789655)
(1.48875e-15 -1.68579e-16 -0.0806199)
(-6.93641e-15 2.93313e-15 -0.0824719)
(-2.10879e-15 8.30252e-16 -0.0843687)
(3.59293e-14 -6.6102e-15 -0.0861061)
(5.96718e-14 -8.8749e-15 -0.0877146)
(-1.72476e-15 -7.66277e-15 -0.0890596)
(-1.62344e-13 5.17734e-15 -0.0901265)
(-3.70561e-13 2.16145e-14 -0.0909519)
(-5.51709e-13 3.40556e-14 -0.091578)
(-6.43575e-13 3.71859e-14 -0.0920476)
(-6.04259e-13 2.68256e-14 -0.0923695)
(-4.24928e-13 6.34674e-15 -0.0924959)
(-1.70861e-13 -1.21384e-14 -0.0923268)
(5.49222e-14 -2.12107e-14 -0.0917384)
(1.96514e-13 -2.14733e-14 -0.090608)
(2.49757e-13 -1.66348e-14 -0.088907)
(2.43617e-13 -1.08508e-14 -0.0867674)
(2.14204e-13 -6.62955e-15 -0.0844892)
(1.89281e-13 -5.184e-15 -0.0825093)
(2.00065e-13 -1.06157e-14 -0.081318)
(2.83476e-13 -2.55483e-14 -0.0813249)
(2.87881e-13 -1.73864e-15 -0.0827777)
(4.3847e-13 -1.62439e-14 -0.0857843)
(4.38107e-12 -1.19284e-12 -0.090255)
(7.88172e-12 -4.6987e-12 -0.0955352)
(-2.47823e-11 -7.78638e-12 -0.100347)
(-9.60562e-11 -5.19509e-12 -0.103356)
(-1.2585e-10 2.55784e-12 -0.103767)
(-8.64431e-11 7.57355e-12 -0.101371)
(-3.63451e-11 5.99619e-12 -0.0962173)
(-9.55831e-12 2.41559e-12 -0.0888701)
(-6.9943e-13 3.95577e-13 -0.0806419)
(8.89908e-13 1.33096e-14 -0.0730482)
(-1.77951e-12 8.51457e-13 -0.067493)
(1.10782e-12 -2.46565e-12 -0.064855)
(3.26242e-11 -1.12746e-11 -0.0651315)
(-2.16411e-11 3.18955e-11 -0.0698681)
(-4.3491e-10 1.75632e-10 -0.0872078)
(-2.95817e-10 -2.19806e-11 -0.115825)
(4.17366e-09 -1.53773e-09 -0.100154)
(1.65263e-08 -4.19138e-09 0.0475934)
(3.43703e-08 -5.37537e-09 0.324298)
(4.95531e-08 -2.68456e-09 0.575914)
(5.31212e-08 2.20975e-09 0.610547)
(4.17974e-08 5.02131e-09 0.399635)
(2.30758e-08 4.25417e-09 0.120773)
(7.95694e-09 2.01328e-09 -0.054975)
(6.59762e-10 4.0822e-10 -0.102667)
(-1.01658e-09 -1.4073e-10 -0.085769)
(-6.37002e-10 -1.36218e-10 -0.0622623)
(-1.46401e-10 -3.63705e-11 -0.0515357)
(3.58869e-11 8.6018e-12 -0.0508183)
(4.40747e-11 1.09291e-11 -0.0545348)
(1.74599e-11 4.83732e-12 -0.0603822)
(-8.15577e-12 7.55769e-12 -0.0682229)
(-5.54847e-11 2.16225e-11 -0.0784209)
(-1.34906e-10 3.46645e-11 -0.0904486)
(-2.09232e-10 2.82059e-11 -0.101539)
(-2.25299e-10 1.46089e-12 -0.1077)
(-1.69144e-10 -2.42689e-11 -0.107111)
(-8.36262e-11 -3.10557e-11 -0.101471)
(-2.42575e-11 -2.26641e-11 -0.0937327)
(1.30309e-12 -1.18116e-11 -0.085684)
(7.17045e-12 -4.48159e-12 -0.0782342)
(5.35459e-12 -9.60753e-13 -0.0719424)
(2.17914e-12 2.05888e-13 -0.0671423)
(-8.54425e-14 3.58336e-13 -0.0639471)
(-1.20524e-12 2.33353e-13 -0.062286)
(-1.6165e-12 1.36891e-13 -0.0619744)
(-1.74959e-12 1.0615e-13 -0.0627726)
(-1.81487e-12 1.15342e-13 -0.0644181)
(-1.80859e-12 1.229e-13 -0.0666392)
(-1.60318e-12 9.02967e-14 -0.0691621)
(-1.04968e-12 1.92047e-14 -0.0717184)
(-3.35882e-14 -1.03387e-13 -0.0740551)
(1.45943e-12 -2.49271e-13 -0.0759587)
(3.29325e-12 -3.76306e-13 -0.0772789)
(5.18842e-12 -4.48899e-13 -0.0779433)
(6.79141e-12 -4.20046e-13 -0.0779622)
(7.77897e-12 -3.01012e-13 -0.0774188)
(7.97059e-12 -1.23658e-13 -0.0764502)
(7.4335e-12 5.2056e-14 -0.0752208)
(6.41975e-12 1.70495e-13 -0.0738972)
(5.22674e-12 2.29791e-13 -0.072627)
(4.10261e-12 2.21539e-13 -0.0715248)
(3.20725e-12 1.72584e-13 -0.0706651)
(2.61617e-12 1.01953e-13 -0.0700819)
(2.34526e-12 1.85827e-14 -0.0697732)
(2.37797e-12 -6.24088e-14 -0.0697089)
(2.6847e-12 -1.44031e-13 -0.0698399)
(3.23128e-12 -2.18627e-13 -0.0701065)
(3.9789e-12 -2.83046e-13 -0.0704465)
(4.88022e-12 -3.37951e-13 -0.0708014)
(5.87641e-12 -3.71087e-13 -0.0711213)
(6.89842e-12 -3.84961e-13 -0.0713678)
(7.87328e-12 -3.72474e-13 -0.0715161)
(8.73359e-12 -3.35302e-13 -0.0715544)
(9.42764e-12 -2.8396e-13 -0.0714836)
(9.92684e-12 -2.19368e-13 -0.0713144)
(1.02286e-11 -1.57292e-13 -0.0710651)
(1.03539e-11 -1.00577e-13 -0.0707585)
(1.03414e-11 -5.51711e-14 -0.0704185)
(1.02391e-11 -2.95194e-14 -0.070068)
(1.0096e-11 -1.71463e-14 -0.0697263)
(9.95615e-12 -2.32385e-14 -0.0694081)
(9.85374e-12 -3.93359e-14 -0.0691226)
(9.81156e-12 -6.14669e-14 -0.0688737)
(9.84094e-12 -9.08707e-14 -0.0686604)
(9.94303e-12 -1.17049e-13 -0.0684778)
(1.0111e-11 -1.44116e-13 -0.0683184)
(1.03323e-11 -1.64841e-13 -0.0681731)
(1.05914e-11 -1.77992e-13 -0.0680325)
(1.08715e-11 -1.88346e-13 -0.0678876)
(1.11571e-11 -1.8915e-13 -0.0677309)
(1.14346e-11 -1.8638e-13 -0.0675566)
(1.16944e-11 -1.81288e-13 -0.0673609)
(1.19309e-11 -1.70234e-13 -0.0671416)
(1.21428e-11 -1.61968e-13 -0.0668987)
(1.23334e-11 -1.51386e-13 -0.0666332)
(1.25094e-11 -1.45393e-13 -0.0663469)
(1.26805e-11 -1.45323e-13 -0.0660425)
(1.28579e-11 -1.46659e-13 -0.0657223)
(1.30526e-11 -1.56282e-13 -0.0653884)
(1.3274e-11 -1.66317e-13 -0.0650421)
(1.35285e-11 -1.80267e-13 -0.0646842)
(1.38175e-11 -1.95864e-13 -0.0643144)
(1.41373e-11 -2.05325e-13 -0.0639319)
(1.44786e-11 -2.13139e-13 -0.063535)
(1.4827e-11 -2.10347e-13 -0.0631216)
(1.51644e-11 -2.00933e-13 -0.0626894)
(1.54708e-11 -1.84703e-13 -0.0622359)
(1.57269e-11 -1.57419e-13 -0.0617584)
(1.59166e-11 -1.2835e-13 -0.061254)
(1.60301e-11 -9.43086e-14 -0.0607197)
(1.60676e-11 -6.57975e-14 -0.0601523)
(1.60419e-11 -4.9628e-14 -0.0595484)
(1.59817e-11 -4.86761e-14 -0.0589054)
(1.59334e-11 -7.885e-14 -0.0582218)
(1.59621e-11 -1.42298e-13 -0.0574988)
(1.61503e-11 -2.52558e-13 -0.0567413)
(1.65948e-11 -4.16203e-13 -0.0559581)
(1.74015e-11 -6.31865e-13 -0.0551599)
(1.86786e-11 -9.06941e-13 -0.0543547)
(2.05289e-11 -1.23087e-12 -0.0535393)
(2.30411e-11 -1.60073e-12 -0.0526887)
(2.6281e-11 -2.00245e-12 -0.0517447)
(3.02788e-11 -2.41124e-12 -0.0506089)
(3.50207e-11 -2.80449e-12 -0.0491412)
(4.04187e-11 -3.14379e-12 -0.0471759)
(4.63378e-11 -3.39239e-12 -0.0445506)
(5.25272e-11 -3.38554e-12 -0.0409893)
(5.83165e-11 -3.89709e-12 -0.0375278)
(6.60262e-11 -2.25728e-12 -0.0273208)
(4.88333e-17 1.82981e-15 -0.0969671)
(1.92995e-16 1.77491e-15 -0.0965944)
(1.4221e-16 2.35181e-17 -0.0964101)
(2.65554e-16 1.68547e-15 -0.0965937)
(5.2606e-16 1.91007e-15 -0.0972529)
(-1.55108e-15 1.58284e-15 -0.0984255)
(8.29339e-15 -1.00233e-15 -0.100091)
(-1.66635e-14 3.6162e-15 -0.102136)
(-1.14487e-14 1.77683e-15 -0.104438)
(1.15608e-13 -2.29473e-14 -0.106785)
(9.52566e-14 -3.05133e-14 -0.108893)
(-3.63561e-13 1.83139e-14 -0.110869)
(-1.11273e-12 1.09058e-13 -0.112499)
(-1.70449e-12 1.81814e-13 -0.113768)
(-1.7809e-12 1.92862e-13 -0.11474)
(-1.22817e-12 1.38532e-13 -0.115476)
(-9.7021e-14 3.2678e-14 -0.116039)
(1.46998e-12 -1.04505e-13 -0.116442)
(3.06415e-12 -2.10049e-13 -0.116627)
(4.09796e-12 -2.32974e-13 -0.116447)
(4.39437e-12 -1.82108e-13 -0.115737)
(4.08542e-12 -9.73446e-14 -0.114324)
(3.45197e-12 -2.42494e-14 -0.112174)
(2.75617e-12 1.69431e-14 -0.109458)
(2.16118e-12 2.65836e-14 -0.106549)
(1.74799e-12 5.1945e-15 -0.103991)
(1.62961e-12 -4.72849e-14 -0.102418)
(1.67421e-12 -4.67304e-14 -0.102366)
(1.0106e-12 -7.85231e-14 -0.104188)
(4.84488e-12 -2.01759e-12 -0.108072)
(2.07626e-11 -3.80877e-12 -0.113592)
(-4.49294e-11 1.37128e-11 -0.119769)
(-3.93756e-10 5.00213e-11 -0.127012)
(-9.39762e-10 4.89866e-11 -0.134098)
(-1.18004e-09 -4.35604e-12 -0.135507)
(-8.71596e-10 -4.30217e-11 -0.130047)
(-3.98773e-10 -3.70456e-11 -0.121549)
(-1.13063e-10 -1.72012e-11 -0.111858)
(-7.5825e-12 -5.06989e-12 -0.101525)
(9.032e-12 5.10125e-13 -0.091749)
(4.68565e-13 1.08151e-13 -0.0844085)
(2.75106e-11 -1.6742e-11 -0.0803058)
(5.42817e-11 8.49613e-12 -0.0796474)
(-3.43536e-10 2.26761e-10 -0.0912823)
(-8.6974e-10 1.64892e-10 -0.126237)
(2.64813e-09 -2.16891e-09 -0.13083)
(1.63425e-08 -8.22701e-09 0.0379776)
(3.87458e-08 -1.5092e-08 0.455859)
(6.04199e-08 -1.66845e-08 1.02031)
(7.57336e-08 -9.39369e-09 1.53854)
(8.35384e-08 4.08458e-09 1.76939)
(7.76893e-08 1.51538e-08 1.51119)
(5.48093e-08 1.68297e-08 0.883288)
(2.64893e-08 1.10123e-08 0.277737)
(6.76504e-09 4.33028e-09 -0.0511591)
(-1.08476e-09 5.82435e-10 -0.129697)
(-1.91308e-09 -4.40961e-10 -0.103236)
(-8.47406e-10 -3.24925e-10 -0.0713152)
(-1.01836e-10 -8.69114e-11 -0.0602917)
(1.03522e-10 1.18097e-11 -0.0637285)
(6.90193e-11 2.61509e-11 -0.0731624)
(-8.97177e-13 3.68665e-11 -0.0859059)
(2.23739e-11 6.58927e-11 -0.102224)
(2.69812e-10 8.15884e-11 -0.12045)
(6.86183e-10 4.98045e-11 -0.135912)
(9.78054e-10 -1.846e-11 -0.143828)
(9.50072e-10 -7.29709e-11 -0.142149)
(6.92422e-10 -7.647e-11 -0.133093)
(3.89258e-10 -4.62066e-11 -0.121415)
(1.69056e-10 -1.82166e-11 -0.109697)
(5.48132e-11 -3.33773e-12 -0.0991083)
(1.03871e-11 1.9545e-12 -0.0903518)
(-2.39717e-12 2.55565e-12 -0.083782)
(-4.68406e-12 1.67778e-12 -0.0794653)
(-4.51326e-12 7.86482e-13 -0.0772698)
(-4.09774e-12 3.0593e-13 -0.0769376)
(-3.81125e-12 1.46167e-13 -0.0781321)
(-3.48215e-12 8.94695e-14 -0.0804735)
(-2.66242e-12 -2.65748e-14 -0.0835677)
(-7.7875e-13 -2.96022e-13 -0.0870277)
(2.64813e-12 -7.0612e-13 -0.0904859)
(7.83321e-12 -1.19776e-12 -0.0936065)
(1.4487e-11 -1.6491e-12 -0.0961172)
(2.17371e-11 -1.89316e-12 -0.0978341)
(2.83189e-11 -1.82231e-12 -0.0986767)
(3.29697e-11 -1.389e-12 -0.0986701)
(3.48349e-11 -6.76991e-13 -0.0979326)
(3.37418e-11 1.09249e-13 -0.096649)
(3.0328e-11 7.51784e-13 -0.0950347)
(2.56789e-11 1.1083e-12 -0.0933037)
(2.08525e-11 1.18557e-12 -0.0916461)
(1.66161e-11 1.04211e-12 -0.0902109)
(1.33865e-11 7.71609e-13 -0.0890963)
(1.12969e-11 4.47905e-13 -0.0883474)
(1.03066e-11 1.20143e-13 -0.0879617)
(1.02954e-11 -1.85195e-13 -0.0878981)
(1.11225e-11 -4.63461e-13 -0.0880894)
(1.26461e-11 -7.04128e-13 -0.0884546)
(1.47201e-11 -9.0134e-13 -0.0889097)
(1.71813e-11 -1.04355e-12 -0.0893767)
(1.98421e-11 -1.11624e-12 -0.0897902)
(2.24961e-11 -1.11569e-12 -0.0901014)
(2.49378e-11 -1.03634e-12 -0.0902798)
(2.69885e-11 -8.90389e-13 -0.090313)
(2.85219e-11 -6.98281e-13 -0.0902046)
(2.94815e-11 -4.848e-13 -0.0899706)
(2.98844e-11 -2.82503e-13 -0.0896364)
(2.98096e-11 -1.09302e-13 -0.0892318)
(2.93785e-11 1.75868e-14 -0.0887879)
(2.87308e-11 9.15493e-14 -0.0883336)
(2.80025e-11 1.15876e-13 -0.087893)
(2.73095e-11 9.3031e-14 -0.087484)
(2.67381e-11 3.95368e-14 -0.0871176)
(2.63416e-11 -3.37566e-14 -0.0867978)
(2.61425e-11 -1.14863e-13 -0.0865225)
(2.61368e-11 -1.91856e-13 -0.086285)
(2.63011e-11 -2.62217e-13 -0.0860751)
(2.65987e-11 -3.15626e-13 -0.085881)
(2.69868e-11 -3.51223e-13 -0.0856908)
(2.74218e-11 -3.68682e-13 -0.0854934)
(2.78643e-11 -3.67836e-13 -0.0852795)
(2.82829e-11 -3.56983e-13 -0.0850424)
(2.8656e-11 -3.35061e-13 -0.0847778)
(2.89735e-11 -3.08569e-13 -0.0844836)
(2.92365e-11 -2.82454e-13 -0.0841601)
(2.94561e-11 -2.59645e-13 -0.0838092)
(2.96513e-11 -2.493e-13 -0.0834335)
(2.98469e-11 -2.48942e-13 -0.0830364)
(3.00694e-11 -2.61413e-13 -0.0826209)
(3.03443e-11 -2.85934e-13 -0.0821894)
(3.06923e-11 -3.18017e-13 -0.0817436)
(3.11259e-11 -3.58372e-13 -0.0812841)
(3.16468e-11 -3.95973e-13 -0.0808103)
(3.22442e-11 -4.26124e-13 -0.0803208)
(3.28951e-11 -4.42633e-13 -0.0798136)
(3.3565e-11 -4.38668e-13 -0.079286)
(3.42111e-11 -4.16251e-13 -0.0787352)
(3.47866e-11 -3.69509e-13 -0.078158)