/*--------------------------------*- C++ -*----------------------------------*\
  =========                 |
  \\      /  F ield         | OpenFOAM: The Open Source CFD Toolbox
   \\    /   O peration     | Website:  https://openfoam.org
    \\  /    A nd           | Version:  11
     \\/     M anipulation  |
\*---------------------------------------------------------------------------*/
FoamFile
{
    format      ascii;
    class       volVectorField;
    location    "3.99627";
    object      U_0;
}
// * * * * * * * * * * * * * * * * * * * * * * * * * * * * * * * * * * * * * //

dimensions      [0 1 -1 0 0 0 0];

internalField   nonuniform List<vector> 
7132
(
(1.00015 -0.000289632 1.38648e-18)
(1.00224 -0.000873829 6.82658e-18)
(1.007 -0.00149378 7.38732e-18)
(1.01424 -0.00216133 8.75833e-18)
(1.02426 -0.00287977 1.05908e-17)
(1.03726 -0.003629 1.13368e-17)
(1.0533 -0.00436948 1.10348e-17)
(1.07224 -0.00502308 1.04233e-17)
(1.09356 -0.00550548 9.87229e-18)
(1.1164 -0.00572624 9.50147e-18)
(1.1395 -0.00563218 9.11709e-18)
(1.16162 -0.0052832 8.95483e-18)
(1.18187 -0.00473187 7.76451e-18)
(1.19956 -0.00402929 8.15117e-18)
(1.21418 -0.00321887 -1.6503e-18)
(1.22537 -0.00232668 -1.10975e-17)
(1.23284 -0.00137175 -2.33762e-17)
(1.23638 -0.000374232 -1.76307e-17)
(1.23585 0.000636615 -2.38602e-17)
(1.23128 0.0016184 -3.73602e-17)
(1.22287 0.00251829 -3.81978e-17)
(1.21106 0.00328154 -3.85381e-17)
(1.19651 0.00386287 -4.0174e-17)
(1.18002 0.00423652 -4.52629e-17)
(1.16247 0.00440086 -4.14288e-17)
(1.14467 0.00437621 -4.58802e-17)
(1.12733 0.0041981 -5.09039e-17)
(1.11098 0.00390894 -5.54156e-17)
(1.09598 0.00355076 -5.98493e-17)
(1.08252 0.00316027 -5.90716e-17)
(1.07067 0.0027664 -5.70548e-17)
(1.06038 0.00238978 -5.45354e-17)
(1.05154 0.00204352 -5.45081e-17)
(1.04403 0.00173461 -5.06983e-17)
(1.03768 0.00146544 -4.59416e-17)
(1.03232 0.00123528 -4.01521e-17)
(1.0278 0.00104141 -3.35541e-17)
(1.024 0.000880052 -2.68471e-17)
(1.02077 0.000746988 -1.71371e-17)
(1.01803 0.000638002 -6.82578e-18)
(1.01567 0.000549146 4.51317e-18)
(1.01364 0.000476881 1.62388e-17)
(1.01186 0.000418138 2.81039e-17)
(1.0103 0.000370326 4.10597e-17)
(1.0089 0.00033129 5.32058e-17)
(1.00765 0.000299271 6.47939e-17)
(1.00651 0.000272843 7.50292e-17)
(1.00546 0.000250862 8.4355e-17)
(1.0045 0.000232417 9.37317e-17)
(1.0036 0.000216788 1.00908e-16)
(1.00276 0.000203412 1.04996e-16)
(1.00197 0.000191845 1.07145e-16)
(1.00123 0.000181734 1.07053e-16)
(1.00052 0.000172782 1.02609e-16)
(0.999842 0.00016472 9.38003e-17)
(0.999197 0.000157286 7.99407e-17)
(0.99858 0.000150215 6.23323e-17)
(0.997991 0.000143257 4.25959e-17)
(0.99743 0.000136213 2.08742e-17)
(0.996897 0.000128969 -3.67874e-19)
(0.996394 0.000121495 -1.94565e-17)
(0.995921 0.000113738 -3.32742e-17)
(0.995479 0.000105366 -4.123e-17)
(0.995072 9.54396e-05 -4.67664e-17)
(0.994709 8.21335e-05 -5.32733e-17)
(0.994407 6.27797e-05 -6.94437e-17)
(0.994197 3.44411e-05 -1.01226e-16)
(0.994119 -4.95349e-06 -1.4886e-16)
(0.994221 -5.51909e-05 -2.0725e-16)
(0.994542 -0.000112638 -2.64333e-16)
(0.9951 -0.000170041 -3.13883e-16)
(0.995879 -0.000217675 -3.5646e-16)
(0.996819 -0.000245736 -4.01244e-16)
(0.997824 -0.000247291 -4.60544e-16)
(0.99878 -0.000220709 -5.3352e-16)
(0.999578 -0.000170599 -6.04043e-16)
(1.00014 -0.000106787 -6.38239e-16)
(1.00043 -4.16389e-05 -6.02049e-16)
(1.00047 1.33006e-05 -4.86059e-16)
(1.00032 5.01892e-05 -3.17791e-16)
(1.00007 6.63553e-05 -1.6471e-16)
(0.999787 6.40652e-05 -1.03778e-16)
(0.99955 4.89456e-05 -1.86239e-16)
(0.999392 2.78228e-05 -4.09453e-16)
(0.999325 6.77708e-06 -7.06269e-16)
(0.999336 -1.00611e-05 -9.74366e-16)
(0.999404 -2.08373e-05 -1.11333e-15)
(0.999503 -2.56083e-05 -1.0669e-15)
(0.99961 -2.56289e-05 -8.45626e-16)
(0.999709 -2.26153e-05 -5.15317e-16)
(0.999792 -1.81911e-05 -1.73318e-16)
(0.999856 -1.35849e-05 9.42792e-17)
(0.999901 -9.54644e-06 2.41014e-16)
(0.999932 -6.40402e-06 2.64652e-16)
(0.999952 -4.18488e-06 2.03e-16)
(0.999965 -2.74383e-06 1.0672e-16)
(0.999974 -1.86934e-06 1.9416e-17)
(0.99998 -1.35604e-06 -3.35474e-17)
(0.999985 -1.04363e-06 -5.09042e-17)
(0.999989 -8.28392e-07 -4.19834e-17)
(0.999991 -6.56372e-07 -2.2343e-17)
(0.999994 -5.07675e-07 -4.56918e-18)
(0.999996 -3.7991e-07 6.49802e-18)
(0.999997 -2.75744e-07 8.67962e-18)
(0.999998 -1.96232e-07 6.43873e-18)
(0.999998 -1.39049e-07 2.92439e-18)
(0.999999 -9.95267e-08 1.00271e-20)
(0.999999 -7.24781e-08 -5.35433e-19)
(0.999999 -5.35626e-08 -1.04002e-18)
(1 -3.9805e-08 -6.43523e-19)
(1 -2.94546e-08 -9.6971e-20)
(1 -2.15669e-08 2.95168e-20)
(1 -1.55992e-08 7.90648e-19)
(1 -1.11637e-08 2.69981e-19)
(1 -7.92301e-09 8.60112e-20)
(1 -5.57941e-09 7.10171e-20)
(1 -3.88563e-09 -9.81767e-20)
(1 -2.65573e-09 6.09624e-19)
(1 -1.75655e-09 1.95121e-19)
(1 -1.09813e-09 -1.46896e-20)
(1 -6.16373e-10 5.95785e-19)
(1 -2.66833e-10 6.95086e-19)
(1 -1.45013e-11 8.09299e-19)
(1 1.6514e-10 2.33196e-19)
(1 2.92576e-10 -3.19973e-20)
(1 3.8088e-10 5.53931e-19)
(1 4.41753e-10 6.40759e-19)
(1 4.81484e-10 7.48981e-19)
(1 5.06957e-10 1.71181e-19)
(1 5.20839e-10 -9.27831e-20)
(1 5.27546e-10 4.95925e-19)
(1 5.27812e-10 5.85639e-19)
(1 5.24759e-10 6.95666e-19)
(1 5.18035e-10 1.18026e-19)
(1 5.10087e-10 -1.47198e-19)
(1 4.99941e-10 4.39682e-19)
(1 4.89709e-10 5.28115e-19)
(1 4.78054e-10 6.38337e-19)
(1 4.66932e-10 6.27942e-20)
(1 4.54787e-10 -1.98629e-19)
(1 4.43517e-10 3.93062e-19)
(1 4.31421e-10 4.86403e-19)
(1 4.20388e-10 6.00826e-19)
(1 4.08622e-10 2.82988e-20)
(1 3.98025e-10 -2.31358e-19)
(1 3.86724e-10 3.61116e-19)
(1 3.76649e-10 4.54698e-19)
(1 3.65867e-10 5.69245e-19)
(1 3.5635e-10 -2.97391e-21)
(1 3.4609e-10 -2.61997e-19)
(1 3.37173e-10 3.31455e-19)
(1 3.2739e-10 4.26312e-19)
(1 3.19223e-10 5.42375e-19)
(1 3.09608e-10 -2.83268e-20)
(1 3.02901e-10 -2.85624e-19)
(1 2.9189e-10 3.07043e-19)
(1 2.90575e-10 4.08388e-19)
(1 2.70313e-10 4.88526e-19)
(1 2.93679e-10 6.7454e-20)
(1 2.36408e-10 -9.20315e-19)
(1.00014 -0.000866025 2.22611e-20)
(1.00222 -0.00261417 3.4074e-19)
(1.00694 -0.00447081 6.68273e-19)
(1.01413 -0.00647406 9.97816e-19)
(1.02412 -0.00863475 1.38706e-18)
(1.03712 -0.0108938 1.80968e-18)
(1.05321 -0.0131331 2.23395e-18)
(1.0723 -0.0151146 2.1629e-18)
(1.09384 -0.0165815 5.51962e-18)
(1.11698 -0.017252 6.95269e-18)
(1.14038 -0.0169617 4.13334e-18)
(1.16274 -0.0159025 4.45332e-18)
(1.18318 -0.014236 5.05524e-19)
(1.20101 -0.0121181 1.29618e-17)
(1.21573 -0.00967996 4.49496e-17)
(1.22699 -0.00699851 8.17283e-17)
(1.23452 -0.00412856 1.0086e-16)
(1.23809 -0.00112793 8.88485e-17)
(1.23756 0.00191736 5.42539e-17)
(1.23293 0.00487988 8.91885e-18)
(1.22441 0.00759849 -3.86093e-17)
(1.21243 0.009905 -8.27614e-17)
(1.19768 0.0116599 -1.20453e-16)
(1.18098 0.0127839 -1.50731e-16)
(1.16321 0.0132725 -1.72633e-16)
(1.14524 0.0131887 -1.86583e-16)
(1.12776 0.0126417 -1.93064e-16)
(1.11131 0.0117612 -1.9265e-16)
(1.09625 0.0106749 -1.85955e-16)
(1.08277 0.0094938 -1.73389e-16)
(1.07091 0.00830499 -1.50963e-16)
(1.06064 0.00717016 -1.30182e-16)
(1.05183 0.00612824 -1.04118e-16)
(1.04435 0.00519976 -7.17851e-17)
(1.03803 0.00439152 -3.78097e-17)
(1.0327 0.00370095 2.6199e-18)
(1.02822 0.00311966 4.1902e-17)
(1.02444 0.00263612 8.14946e-17)
(1.02123 0.00223755 1.22948e-16)
(1.01851 0.00191124 1.64126e-16)
(1.01617 0.00164529 2.06155e-16)
(1.01414 0.00142906 2.43665e-16)
(1.01237 0.00125334 2.77579e-16)
(1.01081 0.00111034 3.07297e-16)
(1.00942 0.000993604 3.31546e-16)
(1.00817 0.000897865 3.51354e-16)
(1.00703 0.000818849 3.63568e-16)
(1.00598 0.000753132 3.70785e-16)
(1.00502 0.000697987 3.72885e-16)
(1.00412 0.000651263 3.67331e-16)
(1.00328 0.000611273 3.5465e-16)
(1.00248 0.000576695 3.31982e-16)
(1.00173 0.000546475 2.97798e-16)
(1.00102 0.000519729 2.51988e-16)
(1.00034 0.00049566 1.93703e-16)
(0.999686 0.000473487 1.26545e-16)
(0.999063 0.000452423 5.21548e-17)
(0.998468 0.000431717 -2.52493e-17)
(0.997899 0.000410763 -9.99787e-17)
(0.997358 0.000389213 -1.6735e-16)
(0.996846 0.000366972 -2.20137e-16)
(0.996363 0.000343881 -2.57297e-16)
(0.995911 0.000318993 -2.81651e-16)
(0.995493 0.000289569 -3.05311e-16)
(0.995118 0.000250249 -3.46103e-16)
(0.994802 0.000193138 -4.25118e-16)
(0.994574 0.000109465 -5.6068e-16)
(0.994474 -7.06896e-06 -7.47929e-16)
(0.994548 -0.000156065 -9.70484e-16)
(0.994836 -0.000326982 -1.20502e-15)
(0.995357 -0.000498435 -1.44149e-15)
(0.996094 -0.000641522 -1.69687e-15)
(0.996993 -0.00072689 -1.99588e-15)
(0.997959 -0.00073354 -2.35486e-15)
(0.998881 -0.000656177 -2.74109e-15)
(0.999651 -0.000508138 -3.06299e-15)
(1.00019 -0.000318471 -3.19819e-15)
(1.00046 -0.000124048 -3.04306e-15)
(1.00049 4.04935e-05 -2.59382e-15)
(1.00034 0.000151409 -1.97672e-15)
(1.00007 0.000200362 -1.42289e-15)
(0.999789 0.000193849 -1.18146e-15)
(0.999547 0.000148562 -1.3962e-15)
(0.999387 8.49392e-05 -2.03497e-15)
(0.999317 2.13099e-05 -2.87532e-15)
(0.999329 -2.97806e-05 -3.58883e-15)
(0.999399 -6.26149e-05 -3.87791e-15)
(0.9995 -7.72616e-05 -3.5858e-15)
(0.999609 -7.7455e-05 -2.76486e-15)
(0.999711 -6.83758e-05 -1.63911e-15)
(0.999795 -5.4962e-05 -5.11468e-16)
(0.999859 -4.09711e-05 3.5099e-16)
(0.999904 -2.87068e-05 8.1142e-16)
(0.999934 -1.91811e-05 8.7705e-16)
(0.999954 -1.24787e-05 6.69094e-16)
(0.999966 -8.15133e-06 3.52078e-16)
(0.999975 -5.54606e-06 6.56427e-17)
(0.999981 -4.03066e-06 -1.10498e-16)
(0.999985 -3.11404e-06 -1.67278e-16)
(0.999989 -2.48114e-06 -1.3914e-16)
(0.999992 -1.97058e-06 -7.53201e-17)
(0.999994 -1.52523e-06 -1.68237e-17)
(0.999996 -1.14062e-06 1.86042e-17)
(0.999997 -8.26633e-07 2.8282e-17)
(0.999998 -5.87258e-07 2.17511e-17)
(0.999998 -4.15598e-07 1.0287e-17)
(0.999999 -2.97362e-07 3.38532e-19)
(0.999999 -2.16673e-07 -3.51328e-18)
(0.999999 -1.60304e-07 -3.71271e-18)
(1 -1.19264e-07 -2.13077e-18)
(1 -8.83229e-08 -2.81134e-19)
(1 -6.46986e-08 2.9956e-20)
(1 -4.68089e-08 7.74789e-19)
(1 -3.35125e-08 7.04453e-19)
(1 -2.38047e-08 4.12778e-19)
(1 -1.67895e-08 3.5714e-19)
(1 -1.17225e-08 -3.93159e-19)
(1 -8.04255e-09 1.20823e-19)
(1 -5.35153e-09 2.98686e-19)
(1 -3.37916e-09 1.95657e-19)
(1 -1.93577e-09 8.83853e-19)
(1 -8.8724e-10 4.10855e-19)
(1 -1.30622e-10 3.14698e-19)
(1 4.09288e-10 3.13418e-19)
(1 7.91987e-10 1.48694e-19)
(1 1.05854e-09 8.1767e-19)
(1 1.24202e-09 3.43131e-19)
(1 1.36328e-09 2.51508e-19)
(1 1.44079e-09 2.55674e-19)
(1 1.48472e-09 9.5786e-20)
(1 1.50602e-09 7.68779e-19)
(1 1.50919e-09 2.97244e-19)
(1 1.50121e-09 2.07235e-19)
(1 1.48345e-09 2.11429e-19)
(1 1.46073e-09 5.03087e-20)
(1 1.4327e-09 7.21645e-19)
(1 1.40306e-09 2.49077e-19)
(1 1.37048e-09 1.59505e-19)
(1 1.33808e-09 1.65938e-19)
(1 1.30398e-09 8.59674e-21)
(1 1.27104e-09 6.84526e-19)
(1 1.23704e-09 2.16468e-19)
(1 1.20471e-09 1.30567e-19)
(1 1.17165e-09 1.39422e-19)
(1 1.14052e-09 -1.6748e-20)
(1 1.10878e-09 6.59414e-19)
(1 1.07913e-09 1.91113e-19)
(1 1.04889e-09 1.0492e-19)
(1 1.02082e-09 1.13718e-19)
(1 9.92095e-10 -4.21484e-20)
(1 9.65739e-10 6.34678e-19)
(1 9.3836e-10 1.67348e-19)
(1 9.14138e-10 8.23814e-20)
(1 8.87219e-10 9.24654e-20)
(1 8.67229e-10 -6.18936e-20)
(1 8.36399e-10 6.1438e-19)
(1 8.318e-10 1.52536e-19)
(1 7.75238e-10 3.69102e-20)
(1 8.38965e-10 1.76646e-19)
(1 6.81133e-10 -6.27848e-19)
(1.00014 -0.00143444 7.01244e-22)
(1.00218 -0.00433193 4.33105e-21)
(1.00682 -0.00741592 -1.09893e-21)
(1.01392 -0.0107558 -1.07419e-21)
(1.02383 -0.0143746 -1.72555e-19)
(1.03681 -0.0181778 2.30185e-19)
(1.05301 -0.0219708 -8.50701e-19)
(1.07237 -0.0253445 -1.5e-18)
(1.09438 -0.0278579 6.46953e-18)
(1.11813 -0.0290037 -1.41246e-18)
(1.14213 -0.0284914 -3.85221e-17)
(1.16498 -0.0266835 -2.88828e-17)
(1.1858 -0.0238628 1.09044e-16)
(1.2039 -0.0202975 3.32444e-16)
(1.21882 -0.0162086 4.78587e-16)
(1.23024 -0.0117195 4.02426e-16)
(1.23788 -0.00691577 8.81851e-17)
(1.24151 -0.00188835 -3.21172e-16)
(1.24096 0.00322138 -6.8405e-16)
(1.23622 0.00819892 -9.49629e-16)
(1.22747 0.01277 -1.1065e-15)
(1.21515 0.0166468 -1.16528e-15)
(1.19998 0.0195902 -1.14699e-15)
(1.18283 0.0214651 -1.07434e-15)
(1.16464 0.0222649 -9.66223e-16)
(1.1463 0.0220994 -8.35659e-16)
(1.12853 0.0211563 -6.90689e-16)
(1.11188 0.019657 -5.36068e-16)
(1.0967 0.0178183 -3.7464e-16)
(1.08317 0.0158274 -2.08492e-16)
(1.07132 0.0138299 -3.87323e-17)
(1.06108 0.0119281 1.3197e-16)
(1.05233 0.0101861 3.01189e-16)
(1.04492 0.00863669 4.66753e-16)
(1.03866 0.00729025 6.26231e-16)
(1.0334 0.00614155 7.78359e-16)
(1.02898 0.00517586 9.21651e-16)
(1.02525 0.00437346 1.05478e-15)
(1.02209 0.00371269 1.17611e-15)
(1.0194 0.00317213 1.28273e-15)
(1.01709 0.00273184 1.37111e-15)
(1.01509 0.00237402 1.43707e-15)
(1.01334 0.00208333 1.47745e-15)
(1.01179 0.00184681 1.49105e-15)
(1.01041 0.00165376 1.47872e-15)
(1.00916 0.00149543 1.44302e-15)
(1.00802 0.00136476 1.38631e-15)
(1.00698 0.00125606 1.30994e-15)
(1.00601 0.00116484 1.21325e-15)
(1.00511 0.00108755 1.09317e-15)
(1.00426 0.0010214 9.46689e-16)
(1.00346 0.00096421 7.69702e-16)
(1.0027 0.000914256 5.5998e-16)
(1.00198 0.000870089 3.20771e-16)
(1.00129 0.000830398 5.72156e-17)
(1.00063 0.000793898 -2.20102e-16)
(0.999997 0.000759289 -4.98601e-16)
(0.999389 0.000725319 -7.62887e-16)
(0.998807 0.000690965 -9.94765e-16)
(0.998251 0.000655625 -1.18017e-15)
(0.997722 0.000619115 -1.31058e-15)
(0.997222 0.000581172 -1.39353e-15)
(0.996751 0.000540288 -1.45712e-15)
(0.996313 0.000492055 -1.55468e-15)
(0.995915 0.00042779 -1.75924e-15)
(0.995574 0.000334613 -2.13807e-15)
(0.995316 0.000198097 -2.73093e-15)
(0.995179 7.70876e-06 -3.52458e-15)
(0.995207 -0.000236228 -4.46605e-15)
(0.995438 -0.000516781 -5.50945e-15)
(0.995892 -0.000799105 -6.65641e-15)
(0.996556 -0.00103575 -7.97027e-15)
(0.997376 -0.00117823 -9.51329e-15)
(0.998265 -0.00119155 -1.12446e-14)
(0.999114 -0.00106645 -1.29346e-14)
(0.999819 -0.000824452 -1.41705e-14)
(1.0003 -0.000513175 -1.4504e-14)
(1.00053 -0.000193434 -1.3673e-14)
(1.00053 7.73824e-05 -1.18078e-14)
(1.00035 0.000259715 -9.49233e-15)
(1.00007 0.000339444 -7.59559e-15)
(0.999777 0.000327084 -6.94003e-15)
(0.999529 0.000250205 -7.92192e-15)
(0.999367 0.000142776 -1.02765e-14)
(0.999299 3.54095e-05 -1.31152e-14)
(0.999315 -5.08194e-05 -1.52488e-14)
(0.99939 -0.000106217 -1.56747e-14)
(0.999497 -0.000130816 -1.39674e-14)
(0.999612 -0.000130886 -1.04321e-14)
(0.999717 -0.000115205 -5.95989e-15)
(0.999802 -9.21966e-05 -1.66222e-15)
(0.999867 -6.82986e-05 1.53524e-15)
(0.999911 -4.74601e-05 3.17898e-15)
(0.99994 -3.13988e-05 3.35077e-15)
(0.999958 -2.02224e-05 2.52463e-15)
(0.999969 -1.31156e-05 1.31507e-15)
(0.999976 -8.91961e-06 2.38378e-16)
(0.999981 -6.52811e-06 -4.23871e-16)
(0.999986 -5.09634e-06 -6.3659e-16)
(0.999989 -4.09559e-06 -5.30481e-16)
(0.999992 -3.2668e-06 -2.90275e-16)
(0.999994 -2.52876e-06 -6.59346e-17)
(0.999996 -1.88563e-06 6.78625e-17)
(0.999997 -1.36059e-06 1.05929e-16)
(0.999998 -9.62517e-07 8.24604e-17)
(0.999998 -6.79422e-07 3.88467e-17)
(0.999999 -4.86098e-07 3.33852e-18)
(0.999999 -3.54926e-07 -1.37244e-17)
(0.999999 -2.6335e-07 -1.5272e-17)
(1 -1.964e-07 -9.28409e-18)
(1 -1.45637e-07 -2.59418e-18)
(1 -1.06717e-07 1.34896e-18)
(1 -7.72069e-08 2.40571e-18)
(1 -5.52952e-08 1.78452e-18)
(1 -3.93323e-08 7.61855e-19)
(1 -2.78195e-08 9.61911e-20)
(1 -1.9512e-08 -1.81338e-19)
(1 -1.34759e-08 -1.26464e-19)
(1 -9.05718e-09 4.09242e-20)
(1 -5.81348e-09 1.43362e-19)
(1 -3.43765e-09 2.54089e-19)
(1 -1.70976e-09 2.79553e-19)
(1 -4.62515e-10 2.65794e-19)
(1 4.29271e-10 2.54926e-19)
(1 1.0621e-09 2.19429e-19)
(1 1.50512e-09 2.66386e-19)
(1 1.81102e-09 2.78164e-19)
(1 2.0157e-09 2.68445e-19)
(1 2.14769e-09 2.60575e-19)
(1 2.22543e-09 2.22435e-19)
(1 2.26505e-09 2.63338e-19)
(1 2.27583e-09 2.6853e-19)
(1 2.26726e-09 2.52939e-19)
(1 2.24358e-09 2.39908e-19)
(1 2.21069e-09 1.97155e-19)
(1 2.17004e-09 2.34255e-19)
(1 2.12559e-09 2.37054e-19)
(1 2.07731e-09 2.20996e-19)
(1 2.02813e-09 2.09509e-19)
(1 1.9772e-09 1.69854e-19)
(1 1.92693e-09 2.10765e-19)
(1 1.87597e-09 2.1716e-19)
(1 1.82649e-09 2.03766e-19)
(1 1.77686e-09 1.93681e-19)
(1 1.72912e-09 1.54247e-19)
(1 1.68149e-09 1.94567e-19)
(1 1.63595e-09 2.00038e-19)
(1 1.59058e-09 1.85801e-19)
(1 1.54744e-09 1.75204e-19)
(1 1.50437e-09 1.3567e-19)
(1 1.46382e-09 1.76275e-19)
(1 1.42277e-09 1.82344e-19)
(1 1.38547e-09 1.68972e-19)
(1 1.3451e-09 1.59391e-19)
(1 1.31425e-09 1.21036e-19)
(1 1.26808e-09 1.61874e-19)
(1 1.26005e-09 1.697e-19)
(1 1.17668e-09 1.47092e-19)
(1 1.26589e-09 1.59056e-19)
(1 1.03866e-09 4.13865e-20)
(1.00014 -0.00198932 -2.58085e-20)
(1.00211 -0.00601033 -4.92656e-19)
(1.00662 -0.0103054 -8.6401e-19)
(1.01357 -0.0149823 -1.72095e-18)
(1.02335 -0.0200845 -1.87941e-18)
(1.03629 -0.0254894 -1.78854e-18)
(1.05265 -0.0309294 -1.14144e-17)
(1.07242 -0.0358065 1.85468e-17)
(1.09514 -0.0394758 2.80365e-18)
(1.11985 -0.0411405 -1.43798e-16)
(1.14478 -0.0403577 -2.10343e-17)
(1.16835 -0.0377327 6.87418e-16)
(1.18973 -0.0336906 1.31163e-15)
(1.20823 -0.0286243 7.16224e-16)
(1.22345 -0.022849 -1.59346e-15)
(1.2351 -0.0165264 -4.92823e-15)
(1.24291 -0.00976074 -7.91914e-15)
(1.24663 -0.00266469 -9.19429e-15)
(1.24607 0.00457075 -8.97946e-15)
(1.24115 0.0116401 -7.94754e-15)
(1.23205 0.0181431 -6.49622e-15)
(1.21922 0.0236556 -4.90783e-15)
(1.20342 0.0278249 -3.36903e-15)
(1.18559 0.0304541 -1.97993e-15)
(1.16675 0.0315381 -7.73151e-16)
(1.14784 0.0312426 2.60105e-16)
(1.12964 0.0298454 1.14745e-15)
(1.11269 0.0276695 1.91849e-15)
(1.09733 0.0250277 2.59761e-15)
(1.08373 0.0221864 3.20195e-15)
(1.07187 0.0193505 3.74462e-15)
(1.06169 0.0166623 4.21994e-15)
(1.05303 0.0142088 4.63424e-15)
(1.04572 0.0120335 4.98686e-15)
(1.03957 0.0101481 5.27303e-15)
(1.03441 0.00854343 5.4998e-15)
(1.03008 0.00719712 5.66333e-15)
(1.02643 0.00608039 5.76628e-15)
(1.02334 0.00516217 5.80572e-15)
(1.0207 0.00441194 5.77096e-15)
(1.01844 0.00380151 5.65334e-15)
(1.01647 0.00330583 5.4422e-15)
(1.01474 0.00290339 5.1403e-15)
(1.01322 0.0025761 4.75665e-15)
(1.01185 0.00230904 4.30518e-15)
(1.01061 0.00209004 3.80205e-15)
(1.00948 0.00190931 3.25472e-15)
(1.00843 0.00175898 2.66892e-15)
(1.00746 0.00163282 2.0405e-15)
(1.00656 0.00152591 1.35955e-15)
(1.0057 0.00143442 6.20757e-16)
(1.0049 0.00135536 -1.78772e-16)
(1.00413 0.00128635 -1.03151e-15)
(1.0034 0.00122542 -1.91781e-15)
(1.00269 0.00117078 -2.80853e-15)
(1.00202 0.00112066 -3.66122e-15)
(1.00137 0.00107325 -4.43057e-15)
(1.00074 0.00102682 -5.06926e-15)
(1.00014 0.000979899 -5.53742e-15)
(0.999565 0.000931611 -5.81748e-15)
(0.999012 0.000881648 -5.92653e-15)
(0.998486 0.000829634 -5.94319e-15)
(0.997988 0.000773552 -6.01652e-15)
(0.99752 0.000707499 -6.3625e-15)
(0.997091 0.000619756 -7.2213e-15)
(0.996713 0.000492823 -8.78875e-15)
(0.996412 0.000306931 -1.11484e-14)
(0.996223 4.74203e-05 -1.42367e-14)
(0.996187 -0.000285708 -1.79223e-14)
(0.996338 -0.000669765 -2.21387e-14)
(0.996698 -0.00105737 -2.6976e-14)
(0.997255 -0.00138351 -3.26125e-14)
(0.997961 -0.00158138 -3.90459e-14)
(0.998732 -0.00160233 -4.57882e-14)
(0.999469 -0.00143302 -5.17206e-14)
(1.00007 -0.00110254 -5.53373e-14)
(1.00047 -0.000676251 -5.53572e-14)
(1.00063 -0.00023803 -5.14329e-14)
(1.00058 0.000132685 -4.46211e-14)
(1.00036 0.000380927 -3.72836e-14)
(1.00005 0.0004869 -3.23603e-14)
(0.999745 0.00046504 -3.22266e-14)
(0.999491 0.000353624 -3.75589e-14)
(0.999329 0.000200035 -4.67784e-14)
(0.999267 4.71617e-05 -5.64074e-14)
(0.999291 -7.53269e-05 -6.2339e-14)
(0.999377 -0.000153698 -6.14774e-14)
(0.999494 -0.000187975 -5.29206e-14)
(0.999617 -0.000187105 -3.82798e-14)
(0.999727 -0.000163718 -2.10021e-14)
(0.999816 -0.00013 -5.05917e-15)
(0.99988 -9.52984e-05 6.4287e-15)
(0.999922 -6.53319e-05 1.20908e-14)
(0.999949 -4.25335e-05 1.24217e-14)
(0.999964 -2.69544e-05 9.23187e-15)
(0.999973 -1.72931e-05 4.7539e-15)
(0.999978 -1.1771e-05 8.22731e-16)
(0.999983 -8.72956e-06 -1.57726e-15)
(0.999986 -6.93608e-06 -2.34196e-15)
(0.99999 -5.64926e-06 -1.95081e-15)
(0.999992 -4.53286e-06 -1.07246e-15)
(0.999995 -3.50602e-06 -2.50514e-16)
(0.999996 -2.6004e-06 2.44078e-16)
(0.999997 -1.86243e-06 3.88406e-16)
(0.999998 -1.30853e-06 3.05453e-16)
(0.999999 -9.20123e-07 1.46068e-16)
(0.999999 -6.58564e-07 1.39683e-17)
(0.999999 -4.82656e-07 -4.99526e-17)
(0.999999 -3.5983e-07 -5.68381e-17)
(1 -2.69324e-07 -3.52719e-17)
(1 -2.00034e-07 -1.04536e-17)
(1 -1.46573e-07 3.92932e-18)
(1 -1.05975e-07 8.61531e-18)
(1 -7.58971e-08 6.48359e-18)
(1 -5.40686e-08 2.6546e-18)
(1 -3.83769e-08 1.43932e-19)
(1 -2.70693e-08 -1.46824e-18)
(1 -1.88471e-08 -8.11454e-19)
(1 -1.2816e-08 -1.6956e-19)
(1 -8.37926e-09 1.13279e-19)
(1 -5.12501e-09 9.51559e-19)
(1 -2.75609e-09 4.4057e-19)
(1 -1.04496e-09 2.42845e-19)
(1 1.80263e-10 1.74093e-19)
(1 1.05176e-09 2.31545e-20)
(1 1.6646e-09 7.21466e-19)
(1 2.09039e-09 2.46598e-19)
(1 2.37836e-09 1.32942e-19)
(1 2.567e-09 1.25509e-19)
(1 2.68176e-09 -8.76166e-22)
(1 2.74426e-09 6.98698e-19)
(1 2.76754e-09 2.17839e-19)
(1 2.76413e-09 9.94064e-20)
(1 2.74023e-09 8.99985e-20)
(1 2.70343e-09 -3.67183e-20)
(1 2.65615e-09 6.63205e-19)
(1 2.60334e-09 1.8338e-19)
(1 2.54538e-09 6.71108e-20)
(1 2.48583e-09 6.11883e-20)
(1 2.42396e-09 -6.10701e-20)
(1 2.36259e-09 6.43516e-19)
(1 2.30036e-09 1.67713e-19)
(1 2.23973e-09 5.42195e-20)
(1 2.17898e-09 4.96276e-20)
(1 2.12038e-09 -7.25459e-20)
(1 2.06201e-09 6.31327e-19)
(1 2.00608e-09 1.54525e-19)
(1 1.95046e-09 4.01561e-20)
(1 1.89746e-09 3.50357e-20)
(1 1.84465e-09 -8.72668e-20)
(1 1.79485e-09 6.16823e-19)
(1 1.74451e-09 1.40509e-19)
(1 1.69872e-09 2.68801e-20)
(1 1.6492e-09 2.26417e-20)
(1 1.61132e-09 -9.83587e-20)
(1 1.55493e-09 6.05435e-19)
(1 1.54381e-09 1.35031e-19)
(1 1.44494e-09 -6.63142e-21)
(1 1.54221e-09 1.15024e-19)
(1 1.28188e-09 -6.30656e-19)
(1.00013 -0.00252386 -2.26223e-18)
(1.00202 -0.00762999 -7.56524e-18)
(1.00635 -0.0131106 -6.31809e-18)
(1.01307 -0.019122 -9.75298e-18)
(1.02265 -0.0257409 1.78252e-19)
(1.03551 -0.0328283 -3.04394e-17)
(1.05204 -0.0400509 2.2455e-17)
(1.07235 -0.0465971 8.30905e-17)
(1.09604 -0.0515909 -4.49769e-16)
(1.1221 -0.0538385 5.32981e-17)
(1.14832 -0.0527052 2.4902e-15)
(1.17287 -0.049159 2.4823e-15)
(1.19498 -0.0437966 -5.32778e-15)
(1.21401 -0.0371525 -2.03515e-14)
(1.22961 -0.0296397 -3.56603e-14)
(1.24156 -0.021446 -4.33206e-14)
(1.2496 -0.0126805 -3.95919e-14)
(1.25347 -0.00346506 -2.65549e-14)
(1.2529 0.00596555 -1.07799e-14)
(1.24776 0.0152121 3.5178e-15)
(1.23819 0.0237365 1.47401e-14)
(1.22465 0.030961 2.25948e-14)
(1.20797 0.0364022 2.7482e-14)
(1.18921 0.0397924 3.01066e-14)
(1.16947 0.04113 3.11977e-14)
(1.1498 0.0406473 3.13412e-14)
(1.13102 0.0387258 3.09709e-14)
(1.11367 0.035803 3.0342e-14)
(1.09809 0.032296 2.95954e-14)
(1.08439 0.0285552 2.87932e-14)
(1.07256 0.0248461 2.79446e-14)
(1.06246 0.0213492 2.70387e-14)
(1.05392 0.0181725 2.60501e-14)
(1.04675 0.0153672 2.49508e-14)
(1.04075 0.0129444 2.37329e-14)
(1.03572 0.0108885 2.24007e-14)
(1.03151 0.0091681 2.09629e-14)
(1.02797 0.00774436 1.94169e-14)
(1.02497 0.00657597 1.77394e-14)
(1.02241 0.00562292 1.58989e-14)
(1.0202 0.00484846 1.38686e-14)
(1.01828 0.00422024 1.16485e-14)
(1.01659 0.00371055 9.27151e-15)
(1.01509 0.00329624 6.7955e-15)
(1.01373 0.00295826 4.28656e-15)
(1.01251 0.00268115 1.79213e-15)
(1.01138 0.00245246 -6.70659e-16)
(1.01034 0.00226224 -3.11613e-15)
(1.00937 0.00210258 -5.57521e-15)
(1.00845 0.00196727 -8.07235e-15)
(1.00759 0.0018515 -1.06106e-14)
(1.00678 0.0017515 -1.31639e-14)
(1.006 0.00166432 -1.56691e-14)
(1.00525 0.0015875 -1.80299e-14)
(1.00453 0.0015188 -2.01302e-14)
(1.00384 0.00145601 -2.18367e-14)
(1.00317 0.00139684 -2.30237e-14)
(1.00252 0.00133904 -2.35899e-14)
(1.00189 0.00128071 -2.34912e-14)
(1.00129 0.00122065 -2.27913e-14)
(1.00071 0.00115838 -2.1706e-14)
(1.00015 0.00109339 -2.06563e-14)
(0.999612 0.00102322 -2.02644e-14)
(0.999106 0.000940678 -2.12816e-14)
(0.998635 0.000831378 -2.44227e-14)
(0.998211 0.000673696 -3.01475e-14)
(0.997855 0.000442985 -3.85343e-14)
(0.997599 0.000120673 -4.93332e-14)
(0.997479 -0.000293794 -6.22614e-14)
(0.997529 -0.000772747 -7.73377e-14)
(0.997767 -0.00125749 -9.49262e-14)
(0.998184 -0.00166686 -1.15253e-13)
(0.998737 -0.00191688 -1.3749e-13)
(0.999353 -0.00194599 -1.5903e-13)
(0.999939 -0.00173672 -1.75642e-13)
(1.0004 -0.00132508 -1.82846e-13)
(1.00068 -0.000793029 -1.78057e-13)
(1.00075 -0.000246259 -1.62432e-13)
(1.00062 0.000214824 -1.41399e-13)
(1.00035 0.000520554 -1.23392e-13)
(1.00002 0.00064575 -1.17149e-13)
(0.999688 0.000608733 -1.28225e-13)
(0.999428 0.00045831 -1.55987e-13)
(0.999269 0.000255123 -1.92661e-13)
(0.999216 5.42943e-05 -2.25358e-13)
(0.999255 -0.000105861 -2.40652e-13)
(0.999356 -0.00020753 -2.29821e-13)
(0.999489 -0.00025081 -1.92119e-13)
(0.999624 -0.000247583 -1.34987e-13)
(0.999742 -0.000214712 -7.12478e-14)
(0.999834 -0.000168562 -1.45339e-14)
(0.999898 -0.000121714 2.51107e-14)
(0.999938 -8.18235e-05 4.38311e-14)
(0.99996 -5.20302e-05 4.40303e-14)
(0.999971 -3.21941e-05 3.23136e-14)
(0.999977 -2.03391e-05 1.64571e-14)
(0.999981 -1.38949e-05 2.71995e-15)
(0.999984 -1.05375e-05 -5.61038e-15)
(0.999987 -8.60028e-06 -8.24077e-15)
(0.99999 -7.13666e-06 -6.85813e-15)
(0.999993 -5.7675e-06 -3.78394e-15)
(0.999995 -4.45048e-06 -9.00199e-16)
(0.999997 -3.27268e-06 8.42341e-16)
(0.999998 -2.3177e-06 1.36155e-15)
(0.999998 -1.61212e-06 1.08035e-15)
(0.999999 -1.12773e-06 5.22698e-16)
(0.999999 -8.08204e-07 5.73313e-17)
(0.999999 -5.95937e-07 -1.73804e-16)
(0.999999 -4.47425e-07 -2.01926e-16)
(1 -3.36527e-07 -1.26722e-16)
(1 -2.50368e-07 -3.92448e-17)
(1 -1.83308e-07 1.42305e-17)
(1 -1.32316e-07 2.98666e-17)
(1 -9.46877e-08 2.23036e-17)
(1 -6.75431e-08 9.36092e-18)
(1 -4.81248e-08 1.15904e-20)
(1 -3.41564e-08 -4.04341e-18)
(1 -2.39849e-08 -3.48889e-18)
(1 -1.65013e-08 -1.69271e-18)
(1 -1.09802e-08 2.79102e-19)
(1 -6.92374e-09 1.07938e-18)
(1 -3.96878e-09 4.79514e-19)
(1 -1.83375e-09 1.76864e-19)
(1 -3.03219e-10 -1.13118e-19)
(1 7.87911e-10 3.3914e-19)
(1 1.55875e-09 5.84568e-19)
(1 2.09772e-09 5.66215e-20)
(1 2.46618e-09 8.68792e-21)
(1 2.7112e-09 -9.87344e-20)
(1 2.86479e-09 4.1089e-19)
(1 2.9532e-09 6.36238e-19)
(1 2.99314e-09 6.89834e-20)
(1 2.99962e-09 -6.82163e-21)
(1 2.98085e-09 -1.26046e-19)
(1 2.94567e-09 3.81276e-19)
(1 2.89764e-09 6.07342e-19)
(1 2.84228e-09 4.11366e-20)
(1 2.78067e-09 -3.32711e-20)
(1 2.71658e-09 -1.50125e-19)
(1 2.64974e-09 3.60581e-19)
(1 2.58299e-09 5.90409e-19)
(1 2.51529e-09 2.74849e-20)
(1 2.44903e-09 -4.47571e-20)
(1 2.38275e-09 -1.60753e-19)
(1 2.31857e-09 3.49721e-19)
(1 2.2548e-09 5.78678e-19)
(1 2.19348e-09 1.47298e-20)
(1 2.13269e-09 -5.83282e-20)
(1 2.07458e-09 -1.74757e-19)
(1 2.01686e-09 3.35677e-19)
(1 1.96226e-09 5.64908e-19)
(1 1.90723e-09 1.46867e-21)
(1 1.85707e-09 -7.08563e-20)
(1 1.80294e-09 -1.86409e-19)
(1 1.76136e-09 3.25428e-19)
(1 1.70011e-09 5.54455e-19)
(1 1.68603e-09 -2.14391e-21)
(1 1.58268e-09 -1.03144e-19)
(1 1.67277e-09 -8.95966e-20)
(1 1.41265e-09 -1.85281e-19)
(1.00012 -0.0030304 2.25462e-18)
(1.00189 -0.00916841 8.05698e-18)
(1.00597 -0.0157968 5.47679e-18)
(1.01237 -0.023135 1.00612e-17)
(1.02166 -0.0313091 2.24747e-17)
(1.03436 -0.0401832 -9.84036e-17)
(1.05106 -0.0493707 4.72418e-16)
(1.07203 -0.0578173 -1.01281e-15)
(1.09699 -0.0643807 -4.2609e-16)
(1.12486 -0.0672986 7.06771e-15)
(1.15279 -0.0656882 2.09503e-15)
(1.17856 -0.0610696 -3.21775e-14)
(1.20157 -0.0542507 -7.56115e-14)
(1.22123 -0.0459312 -8.55254e-14)
(1.23727 -0.0366253 -3.45102e-14)
(1.24959 -0.0265251 6.8901e-14)
(1.25793 -0.0157171 1.89301e-13)
(1.26199 -0.00430604 2.78519e-13)
(1.26143 0.00744034 3.26663e-13)
(1.25603 0.0190172 3.43844e-13)
(1.24586 0.0297194 3.37969e-13)
(1.23142 0.0387798 3.16944e-13)
(1.21362 0.0455578 2.87912e-13)
(1.19364 0.049706 2.56361e-13)
(1.17277 0.0512356 2.25816e-13)
(1.15213 0.0504666 1.98035e-13)
(1.13261 0.0479074 1.73601e-13)
(1.11477 0.0441284 1.52418e-13)
(1.09892 0.0396629 1.34072e-13)
(1.08513 0.0349507 1.18038e-13)
(1.07333 0.0303176 1.03784e-13)
(1.06335 0.0259801 9.08488e-14)
(1.05498 0.022063 7.88635e-14)
(1.04799 0.0186215 6.75705e-14)
(1.04217 0.0156623 5.68016e-14)
(1.03732 0.0131607 4.64624e-14)
(1.03327 0.0110744 3.64858e-14)
(1.02986 0.00935271 2.6789e-14)
(1.02697 0.00794334 1.72614e-14)
(1.0245 0.00679608 7.78805e-15)
(1.02237 0.00586539 -1.68616e-15)
(1.0205 0.00511142 -1.11137e-14)
(1.01885 0.00450029 -2.03433e-14)
(1.01738 0.00400383 -2.91751e-14)
(1.01605 0.003599 -3.7447e-14)
(1.01484 0.00326714 -4.5098e-14)
(1.01372 0.00299328 -5.21893e-14)
(1.01268 0.00276546 -5.88597e-14)
(1.01171 0.00257422 -6.52468e-14)
(1.01079 0.00241214 -7.14121e-14)
(1.00992 0.00227346 -7.72895e-14)
(1.00909 0.00215374 -8.2682e-14)
(1.00829 0.00204953 -8.72928e-14)
(1.00753 0.00195793 -9.07671e-14)
(1.00679 0.00187632 -9.27308e-14)
(1.00608 0.00180206 -9.28362e-14)
(1.00538 0.00173241 -9.08148e-14)
(1.00471 0.00166463 -8.65581e-14)
(1.00405 0.00159634 -8.02294e-14)
(1.00341 0.00152599 -7.23958e-14)
(1.00279 0.00145287 -6.41615e-14)
(1.00219 0.00137632 -5.7223e-14)
(1.00161 0.00129349 -5.37582e-14)
(1.00106 0.00119611 -5.6058e-14)
(1.00054 0.00106759 -6.59372e-14)
(1.00006 0.000882761 -8.41781e-14)
(0.999633 0.000612724 -1.10384e-13)
(0.999296 0.000235344 -1.43556e-13)
(0.999076 -0.00025067 -1.83137e-13)
(0.999002 -0.000813532 -2.29585e-13)
(0.999091 -0.00138471 -2.83747e-13)
(0.999336 -0.00186868 -3.44825e-13)
(0.999701 -0.00216597 -4.07837e-13)
(1.00012 -0.00220311 -4.62642e-13)
(1.00052 -0.0019587 -4.96281e-13)
(1.00081 -0.00147493 -4.98498e-13)
(1.00094 -0.000849004 -4.67965e-13)
(1.00088 -0.000206753 -4.15813e-13)
(1.00066 0.000331943 -3.64069e-13)
(1.00033 0.00068376 -3.39327e-13)
(0.999949 0.000818617 -3.64132e-13)
(0.999601 0.000758749 -4.47274e-13)
(0.999336 0.000563293 -5.76771e-13)
(0.999183 0.00030596 -7.19745e-13)
(0.999146 5.40464e-05 -8.31187e-13)
(0.999205 -0.000145433 -8.69504e-13)
(0.999329 -0.000270565 -8.12261e-13)
(0.999482 -0.000321665 -6.64391e-13)
(0.999633 -0.00031393 -4.56387e-13)
(0.999762 -0.000269008 -2.33538e-13)
(0.999859 -0.00020801 -4.0823e-14)
(0.999922 -0.00014719 9.05758e-14)
(0.999958 -9.63405e-05 1.50433e-13)
(0.999975 -5.92684e-05 1.48655e-13)
(0.999981 -3.54343e-05 1.0808e-13)
(0.999982 -2.19166e-05 5.46201e-14)
(0.999983 -1.5115e-05 8.75824e-15)