/*--------------------------------*- C++ -*----------------------------------*\
  =========                 |
  \\      /  F ield         | OpenFOAM: The Open Source CFD Toolbox
   \\    /   O peration     | Website:  https://openfoam.org
    \\  /    A nd           | Version:  11
     \\/     M anipulation  |
\*---------------------------------------------------------------------------*/
FoamFile
{
    format      ascii;
    class       volVectorField;
    location    "7.83299";
    object      U_0;
}
// * * * * * * * * * * * * * * * * * * * * * * * * * * * * * * * * * * * * * //

dimensions      [0 1 -1 0 0 0 0];

internalField   nonuniform List<vector> 
7132
(
(1.00014 -0.000284654 2.13565e-18)
(1.0022 -0.000859705 7.38123e-18)
(1.00689 -0.00147043 7.68273e-18)
(1.01401 -0.00212789 9.06662e-18)
(1.02388 -0.00283455 1.1167e-17)
(1.03667 -0.00356963 1.16332e-17)
(1.05245 -0.00429315 1.11397e-17)
(1.07105 -0.00492724 1.04155e-17)
(1.09194 -0.00538864 9.82284e-18)
(1.11427 -0.00559017 9.47823e-18)
(1.13679 -0.00548357 9.17697e-18)
(1.15829 -0.00513776 9.1436e-18)
(1.17799 -0.00461543 8.131e-18)
(1.19529 -0.00397842 8.49776e-18)
(1.20987 -0.00327685 -1.76542e-18)
(1.22154 -0.00253469 -1.12052e-17)
(1.23017 -0.00175731 -2.04967e-17)
(1.23563 -0.000942003 -1.33772e-17)
(1.23773 -9.59383e-05 -2.02872e-17)
(1.2364 0.000744794 -3.03777e-17)
(1.23174 0.00150278 -3.23209e-17)
(1.22429 0.00206711 -3.56673e-17)
(1.21505 0.00232304 -4.14507e-17)
(1.2055 0.00219335 -5.18483e-17)
(1.19728 0.00167214 -5.30653e-17)
(1.19191 0.000842484 -6.56271e-17)
(1.19039 -0.000125457 -8.31513e-17)
(1.19287 -0.000997008 -1.04801e-16)
(1.19845 -0.00151489 -1.28699e-16)
(1.20518 -0.00146571 -1.37397e-16)
(1.21043 -0.000763737 -1.2788e-16)
(1.21156 0.000488446 -1.07469e-16)
(1.20673 0.00201957 -9.28003e-17)
(1.19548 0.00349088 -7.47764e-17)
(1.17875 0.00461437 -5.82315e-17)
(1.15841 0.00522061 -4.16899e-17)
(1.13676 0.00526525 -2.34208e-17)
(1.11604 0.00480003 -5.33074e-18)
(1.09814 0.00393616 2.44753e-17)
(1.08438 0.00281629 6.74267e-17)
(1.0755 0.00159771 1.2931e-16)
(1.07156 0.000440347 2.12151e-16)
(1.07201 -0.000505517 3.11125e-16)
(1.0757 -0.00111846 4.23959e-16)
(1.0811 -0.00133104 5.36405e-16)
(1.08652 -0.00114972 6.32456e-16)
(1.09046 -0.000655636 6.99964e-16)
(1.09189 1.90021e-05 7.41322e-16)
(1.09039 0.000728963 7.72939e-16)
(1.08608 0.00135194 7.99218e-16)
(1.07955 0.00180909 8.20947e-16)
(1.07156 0.00206783 8.39382e-16)
(1.06293 0.00213271 8.57667e-16)
(1.05442 0.00203213 8.74977e-16)
(1.04661 0.00180617 8.92112e-16)
(1.03991 0.00149792 9.07246e-16)
(1.03458 0.00114838 9.1569e-16)
(1.03069 0.000793907 9.10916e-16)
(1.02821 0.000465018 8.80012e-16)
(1.02697 0.000185694 8.12838e-16)
(1.02673 -2.72545e-05 7.03514e-16)
(1.0272 -0.000164818 5.52596e-16)
(1.02807 -0.000226177 3.66073e-16)
(1.02904 -0.00021842 1.52441e-16)
(1.02985 -0.000155269 -7.0614e-17)
(1.03031 -5.48375e-05 -2.85537e-16)
(1.03031 6.32232e-05 -4.77702e-16)
(1.02981 0.000180584 -6.39101e-16)
(1.02886 0.000282528 -7.73936e-16)
(1.02755 0.000359233 -8.88397e-16)
(1.02598 0.000406021 -9.95032e-16)
(1.02429 0.000422775 -1.10741e-15)
(1.02259 0.000412862 -1.23675e-15)
(1.02097 0.000381894 -1.3948e-15)
(1.01952 0.000336553 -1.58619e-15)
(1.01827 0.000283627 -1.81464e-15)
(1.01725 0.000229307 -2.07957e-15)
(1.01643 0.000178713 -2.37495e-15)
(1.01581 0.000135644 -2.69384e-15)
(1.01535 0.000102491 -3.02364e-15)
(1.015 8.02794e-05 -3.35396e-15)
(1.01471 6.88293e-05 -3.67452e-15)
(1.01445 6.69778e-05 -3.97563e-15)
(1.01418 7.28594e-05 -4.2521e-15)
(1.01387 8.42055e-05 -4.49791e-15)
(1.01351 9.86365e-05 -4.71289e-15)
(1.01308 0.00011392 -4.89805e-15)
(1.0126 0.000128168 -5.05502e-15)
(1.01206 0.000139972 -5.18857e-15)
(1.01148 0.000148451 -5.30039e-15)
(1.01087 0.000153242 -5.39533e-15)
(1.01025 0.000154435 -5.47694e-15)
(1.00963 0.00015247 -5.54593e-15)
(1.00903 0.000148021 -5.60495e-15)
(1.00844 0.000141879 -5.65155e-15)
(1.00789 0.000134846 -5.68269e-15)
(1.00736 0.000127657 -5.69449e-15)
(1.00687 0.000120915 -5.68044e-15)
(1.00639 0.000115066 -5.63769e-15)
(1.00594 0.000110382 -5.56145e-15)
(1.00551 0.000106974 -5.45051e-15)
(1.00509 0.000104814 -5.30687e-15)
(1.00467 0.000103762 -5.13307e-15)
(1.00426 0.000103602 -4.93617e-15)
(1.00384 0.000104079 -4.71962e-15)
(1.00342 0.000104927 -4.48704e-15)
(1.003 0.0001059 -4.24024e-15)
(1.00258 0.000106787 -3.97713e-15)
(1.00215 0.000107429 -3.69752e-15)
(1.00172 0.000107724 -3.39763e-15)
(1.00128 0.000107621 -3.0763e-15)
(1.00085 0.000107117 -2.73432e-15)
(1.00043 0.000106244 -2.37218e-15)
(1 0.000105057 -1.9934e-15)
(0.999583 0.000103617 -1.59607e-15)
(0.999171 0.000101986 -1.17615e-15)
(0.998765 0.000100211 -7.25133e-16)
(0.998367 9.83199e-05 -2.28162e-16)
(0.997977 9.63193e-05 3.3027e-16)
(0.997594 9.41924e-05 9.70957e-16)
(0.997221 9.19025e-05 1.71389e-15)
(0.996857 8.93983e-05 2.57471e-15)
(0.996503 8.66203e-05 3.56672e-15)
(0.996161 8.35021e-05 4.69627e-15)
(0.995831 7.99638e-05 5.96478e-15)
(0.995517 7.58867e-05 7.36676e-15)
(0.99522 7.10704e-05 8.88945e-15)
(0.994944 6.51746e-05 1.05191e-14)
(0.994694 5.76641e-05 1.22411e-14)
(0.994478 4.77876e-05 1.40449e-14)
(0.994306 3.4625e-05 1.59247e-14)
(0.994194 1.72361e-05 1.7879e-14)
(0.994159 -5.08601e-06 1.99186e-14)
(0.994224 -3.24855e-05 2.20736e-14)
(0.994407 -6.42142e-05 2.44046e-14)
(0.994723 -9.84077e-05 2.69957e-14)
(0.995177 -0.000132077 2.99308e-14)
(0.995761 -0.000161395 3.32509e-14)
(0.99645 -0.00018228 3.68818e-14)
(0.997201 -0.000191186 4.05582e-14)
(0.997962 -0.000185936 4.37524e-14)
(0.998674 -0.00016636 4.56415e-14)
(0.999281 -0.000134567 4.51439e-14)
(0.999742 -9.47002e-05 4.10357e-14)
(1.00003 -5.22253e-05 3.21652e-14)
(1.00016 -1.28912e-05 1.77406e-14)
(1.00013 1.83819e-05 -2.34999e-15)
(1.00001 3.84077e-05 -2.72615e-14)
(0.999826 4.62168e-05 -5.50695e-14)
(0.999637 4.30246e-05 -8.28621e-14)
(0.999481 3.17301e-05 -1.07105e-13)
(0.999383 1.61178e-05 -1.24252e-13)
(0.999351 -3.25641e-08 -1.3149e-13)
(0.999382 -1.36496e-05 -1.27432e-13)
(0.999461 -2.29061e-05 -1.12541e-13)
(0.999566 -2.71114e-05 -8.91507e-14)
(0.999678 -2.70202e-05 -6.09562e-14)
(0.999784 -2.32615e-05 -3.23928e-14)
(0.999863 -1.88903e-05 -7.73648e-15)
(0.99994 -1.00055e-05 1.50718e-14)
(1.00014 -0.000851194 2.69505e-20)
(1.00219 -0.00257206 3.46179e-19)
(1.00683 -0.00440116 6.93038e-19)
(1.01391 -0.00637425 1.0277e-18)
(1.02375 -0.00849967 1.41295e-18)
(1.03654 -0.0107163 1.819e-18)
(1.05237 -0.0129046 2.22171e-18)
(1.07111 -0.0148271 2.0926e-18)
(1.09223 -0.0162302 5.68477e-18)
(1.11486 -0.0168415 6.98784e-18)
(1.13766 -0.0165115 4.31422e-18)
(1.15939 -0.0154593 4.86382e-18)
(1.17924 -0.0138775 6.09788e-19)
(1.19664 -0.0119552 1.05046e-17)
(1.21128 -0.00984475 3.96527e-17)
(1.22299 -0.00761727 7.70679e-17)
(1.23167 -0.00528585 1.02458e-16)
(1.23716 -0.00283741 1.00116e-16)
(1.23928 -0.000288074 6.6692e-17)
(1.2379 0.00225654 1.69016e-17)
(1.23311 0.00456195 -4.08048e-17)
(1.2254 0.00628788 -1.02696e-16)
(1.21581 0.00708003 -1.66906e-16)
(1.20585 0.00669792 -2.32381e-16)
(1.19726 0.00511903 -2.95663e-16)
(1.19165 0.00259257 -3.46561e-16)
(1.19009 -0.000366634 -3.82339e-16)
(1.19278 -0.00304519 -4.11204e-16)
(1.19881 -0.00465535 -4.01303e-16)
(1.20615 -0.00453802 -2.92453e-16)
(1.21202 -0.00242347 -6.69163e-17)
(1.21359 0.00137848 1.52293e-16)
(1.2089 0.00603717 2.98166e-16)
(1.19748 0.0105146 3.79102e-16)
(1.18034 0.0139314 4.08478e-16)
(1.15948 0.015774 4.29469e-16)
(1.1373 0.0159115 4.5083e-16)
(1.11612 0.0145044 4.92983e-16)
(1.09786 0.0118909 5.85121e-16)
(1.0839 0.00850195 7.39145e-16)
(1.07495 0.00481177 9.66804e-16)
(1.07111 0.0013031 1.24626e-15)
(1.0718 -0.00156863 1.5588e-15)
(1.07584 -0.00343261 1.86822e-15)
(1.08163 -0.00408065 2.08947e-15)
(1.08741 -0.00353028 2.13686e-15)
(1.09161 -0.00202821 1.99253e-15)
(1.09317 2.24711e-05 1.77264e-15)
(1.09167 0.00217923 1.61425e-15)
(1.08726 0.00406995 1.54364e-15)
(1.08056 0.00545578 1.53719e-15)
(1.07239 0.00623903 1.55969e-15)
(1.06359 0.00643491 1.58299e-15)
(1.05493 0.00613051 1.5953e-15)
(1.047 0.00544764 1.58263e-15)
(1.04022 0.00451666 1.53185e-15)
(1.03485 0.00346121 1.41893e-15)
(1.03095 0.00239079 1.21048e-15)
(1.02849 0.00139735 8.74444e-16)
(1.02729 0.000553202 3.87263e-16)
(1.02712 -9.07757e-05 -2.41339e-16)
(1.02766 -0.000507089 -9.82066e-16)
(1.0286 -0.000692917 -1.79163e-15)
(1.02963 -0.000669436 -2.61052e-15)
(1.03049 -0.000478056 -3.37371e-15)
(1.03098 -0.000173609 -4.0199e-15)
(1.03099 0.000184334 -4.51876e-15)
(1.03049 0.000540173 -4.86937e-15)
(1.02953 0.00084926 -5.10299e-15)
(1.02819 0.00108182 -5.26435e-15)
(1.02659 0.00122371 -5.39765e-15)
(1.02487 0.0012746 -5.55027e-15)
(1.02314 0.00124475 -5.75262e-15)
(1.0215 0.00115117 -6.02766e-15)
(1.02004 0.0010141 -6.38524e-15)
(1.01878 0.000854086 -6.82044e-15)
(1.01775 0.000689848 -7.32408e-15)
(1.01694 0.000536877 -7.87008e-15)
(1.01632 0.00040666 -8.43037e-15)
(1.01587 0.000306426 -8.97426e-15)
(1.01552 0.00023929 -9.47232e-15)
(1.01525 0.00020471 -9.90725e-15)
(1.01499 0.000199176 -1.02623e-14)
(1.01473 0.000217048 -1.05327e-14)
(1.01442 0.000251463 -1.07194e-14)
(1.01406 0.000295218 -1.08274e-14)
(1.01364 0.000341549 -1.08704e-14)
(1.01315 0.000384744 -1.08556e-14)
(1.01261 0.000420529 -1.07938e-14)
(1.01202 0.000446241 -1.06922e-14)
(1.01141 0.000460783 -1.05558e-14)
(1.01078 0.00046443 -1.03921e-14)
(1.01016 0.000458518 -1.01993e-14)
(1.00955 0.000445088 -9.9769e-15)
(1.00897 0.000426536 -9.72007e-15)
(1.00841 0.000405292 -9.42092e-15)
(1.00788 0.000383574 -9.07167e-15)
(1.00738 0.000363214 -8.66134e-15)
(1.00691 0.000345556 -8.18455e-15)
(1.00646 0.000331426 -7.63867e-15)
(1.00603 0.000321161 -7.02601e-15)
(1.0056 0.000314671 -6.35598e-15)
(1.00519 0.000311533 -5.63885e-15)
(1.00477 0.000311098 -4.88972e-15)
(1.00435 0.000312589 -4.12036e-15)
(1.00393 0.000315205 -3.33753e-15)
(1.00351 0.000318197 -2.54349e-15)
(1.00308 0.000320932 -1.73182e-15)
(1.00265 0.000322927 -8.96422e-16)
(1.00222 0.000323871 -2.96517e-17)
(1.00178 0.000323614 8.73327e-16)
(1.00135 0.000322147 1.81125e-15)
(1.00092 0.000319568 2.78169e-15)
(1.00049 0.000316042 3.77686e-15)
(1.00007 0.000311762 4.79227e-15)
(0.99965 0.00030691 5.82876e-15)
(0.999241 0.000301631 6.89306e-15)
(0.998839 0.000296014 8.00262e-15)
(0.998444 0.000290079 9.178e-15)
(0.998057 0.000283778 1.04461e-14)
(0.997679 0.000277001 1.18378e-14)
(0.99731 0.000269595 1.33831e-14)
(0.99695 0.000261378 1.51176e-14)
(0.996602 0.000252152 1.70779e-14)
(0.996266 0.000241674 1.93043e-14)
(0.995945 0.000229593 2.1843e-14)
(0.995641 0.000215319 2.4743e-14)
(0.995357 0.000197853 2.80636e-14)
(0.995098 0.000175622 3.18692e-14)
(0.994871 0.000146412 3.62303e-14)
(0.994688 0.000107501 4.12203e-14)
(0.994562 5.60903e-05 4.69041e-14)
(0.994512 -9.94818e-06 5.33403e-14)
(0.994557 -9.10996e-05 6.05834e-14)
(0.994717 -0.000185218 6.86943e-14)
(0.995006 -0.000286845 7.77163e-14)
(0.995429 -0.000387167 8.76142e-14)
(0.99598 -0.000474837 9.81881e-14)
(0.996633 -0.000537695 1.08951e-13)
(0.997349 -0.000565119 1.19017e-13)
(0.998077 -0.000550502 1.27029e-13)
(0.998758 -0.000493196 1.3117e-13)
(0.999338 -0.000399331 1.29286e-13)
(0.999777 -0.000281143 1.19144e-13)
(1.00005 -0.000154873 9.88054e-14)
(1.00016 -3.76779e-05 6.71131e-14)
(1.00013 5.5689e-05 2.42092e-14)
(1 0.000115601 -2.80156e-14)
(0.999816 0.000139038 -8.57316e-14)
(0.999626 0.000129525 -1.43322e-13)
(0.99947 9.5661e-05 -1.93997e-13)
(0.999373 4.87485e-05 -2.30887e-13)
(0.999343 1.25975e-07 -2.48433e-13)
(0.999376 -4.09556e-05 -2.43757e-13)
(0.999456 -6.89537e-05 -2.17549e-13)
(0.999564 -8.17471e-05 -1.74168e-13)
(0.999678 -8.15577e-05 -1.20715e-13)
(0.999785 -7.02708e-05 -6.5806e-14)
(0.999866 -5.71095e-05 -1.79827e-14)
(0.999943 -3.02026e-05 2.71646e-14)
(1.00014 -0.00141006 4.89756e-22)
(1.00214 -0.00426265 4.39906e-21)
(1.00671 -0.00730127 2.9762e-22)
(1.0137 -0.0105914 9.55388e-22)
(1.02347 -0.0141517 -1.64436e-19)
(1.03625 -0.0178843 2.14808e-19)
(1.0522 -0.0215919 -7.92636e-19)
(1.07122 -0.0248662 -1.47396e-18)
(1.0928 -0.0272705 6.0604e-18)
(1.11603 -0.0283131 -8.47411e-19)
(1.13942 -0.0277276 -3.6001e-17)
(1.16159 -0.0259231 -3.10746e-17)
(1.18175 -0.0232355 9.27974e-17)
(1.19935 -0.0199914 3.07043e-16)
(1.2141 -0.0164509 4.70184e-16)
(1.2259 -0.0127294 4.3434e-16)
(1.23466 -0.00884021 1.55059e-16)
(1.24023 -0.00474805 -2.87084e-16)
(1.24239 -0.000466386 -7.14293e-16)
(1.24093 0.00383666 -1.05799e-15)
(1.23586 0.00776389 -1.30845e-15)
(1.22763 0.0107261 -1.4743e-15)
(1.21733 0.0121027 -1.56344e-15)
(1.20657 0.0114667 -1.5689e-15)
(1.19725 0.00876605 -1.45801e-15)
(1.19118 0.00441699 -1.15572e-15)
(1.18957 -0.000704453 -6.33645e-16)
(1.19272 -0.00537259 1.51277e-16)
(1.1997 -0.00821923 1.39265e-15)
(1.20831 -0.0080835 3.02135e-15)
(1.21541 -0.00447672 4.49847e-15)
(1.21781 0.00206775 5.32537e-15)
(1.21332 0.0100938 5.50999e-15)
(1.20145 0.0177859 5.26928e-15)
(1.18339 0.023624 4.81972e-15)
(1.16138 0.0267417 4.34172e-15)
(1.13809 0.0269394 3.97156e-15)
(1.11596 0.0245113 3.80414e-15)
(1.09703 0.0200434 3.90379e-15)
(1.0827 0.0142685 4.28677e-15)
(1.07372 0.00798745 4.85257e-15)
(1.07017 0.00201567 5.41897e-15)
(1.07143 -0.00287166 5.90715e-15)
(1.07623 -0.00603626 6.11212e-15)
(1.08285 -0.0071158 5.63653e-15)
(1.08936 -0.00613929 4.21963e-15)
(1.09406 -0.00353555 2.17483e-15)
(1.09583 -4.86052e-06 3.91191e-16)
(1.09425 0.00368804 -4.58235e-16)
(1.08956 0.00690619 -4.70596e-16)
(1.08246 0.00924764 -2.65205e-17)
(1.07387 0.0105551 5.30793e-16)
(1.06468 0.0108635 9.90164e-16)
(1.05571 0.0103272 1.25211e-15)
(1.04756 0.00915613 1.25973e-15)
(1.04065 0.00757176 9.56129e-16)
(1.03523 0.00578255 2.63011e-16)
(1.03136 0.00397231 -9.15164e-16)
(1.02897 0.00229519 -2.65205e-15)
(1.0279 0.000872573 -4.95103e-15)
(1.02788 -0.000209993 -7.69527e-15)
(1.02858 -0.0009062 -1.06878e-14)
(1.02967 -0.00121149 -1.36825e-14)
(1.03083 -0.00116215 -1.64055e-14)
(1.03178 -0.000829012 -1.86249e-14)
(1.03233 -0.000305755 -2.02056e-14)
(1.03235 0.000306003 -2.11449e-14)
(1.03183 0.00091169 -2.1553e-14)
(1.03082 0.00143572 -2.15968e-14)
(1.02941 0.0018281 -2.14557e-14)
(1.02775 0.00206556 -2.12846e-14)
(1.02596 0.00214835 -2.1208e-14)
(1.02418 0.00209448 -2.13087e-14)
(1.0225 0.00193324 -2.16248e-14)
(1.02101 0.00169918 -2.21546e-14)
(1.01974 0.0014272 -2.28552e-14)
(1.01871 0.00114892 -2.36576e-14)
(1.01791 0.000890445 -2.4474e-14)
(1.01732 0.000671051 -2.52111e-14)
(1.01688 0.000502792 -2.5788e-14)
(1.01656 0.000390763 -2.61426e-14)
(1.0163 0.000333891 -2.62453e-14)
(1.01607 0.000326099 -2.60958e-14)
(1.01581 0.000357735 -2.57169e-14)
(1.01551 0.000417106 -2.51487e-14)
(1.01515 0.000491978 -2.44322e-14)
(1.01473 0.000570895 -2.36078e-14)
(1.01423 0.000644209 -2.27054e-14)
(1.01368 0.000704737 -2.17425e-14)
(1.01308 0.000748032 -2.07272e-14)
(1.01246 0.00077231 -1.96567e-14)
(1.01182 0.000778107 -1.85237e-14)
(1.01119 0.000767742 -1.73161e-14)
(1.01057 0.00074472 -1.60184e-14)
(1.00998 0.000713126 -1.46128e-14)
(1.00942 0.000677088 -1.30802e-14)
(1.00889 0.000640364 -1.14032e-14)
(1.00839 0.000606038 -9.5689e-15)
(1.00792 0.000576366 -7.57286e-15)
(1.00747 0.000552726 -5.42285e-15)
(1.00703 0.000535661 -3.13981e-15)
(1.00661 0.000524997 -7.56536e-16)
(1.00619 0.000520001 1.68786e-15)
(1.00577 0.000519557 4.15523e-15)
(1.00535 0.000522343 6.61681e-15)
(1.00493 0.000526999 9.0597e-15)
(1.0045 0.000532256 1.14891e-14)
(1.00407 0.000537046 1.39257e-14)
(1.00363 0.000540562 1.63986e-14)
(1.00319 0.000542284 1.8935e-14)
(1.00275 0.000541969 2.15519e-14)
(1.00231 0.000539613 2.42505e-14)
(1.00187 0.000535392 2.70165e-14)
(1.00144 0.000529593 2.98248e-14)
(1.00101 0.000522547 3.26477e-14)
(1.00059 0.00051457 3.54632e-14)
(1.00017 0.000505911 3.82606e-14)
(0.999761 0.000496723 4.10442e-14)
(0.999358 0.000487042 4.3833e-14)
(0.998963 0.00047679 4.66614e-14)
(0.998575 0.000465784 4.9582e-14)
(0.998196 0.000453765 5.26707e-14)
(0.997826 0.000440426 5.60361e-14)
(0.997466 0.000425427 5.98282e-14)
(0.997118 0.000408359 6.4246e-14)
(0.996784 0.000388637 6.95394e-14)
(0.996465 0.000365299 7.60068e-14)
(0.996166 0.000336723 8.39864e-14)
(0.99589 0.000300367 9.38437e-14)
(0.995646 0.000252645 1.05952e-13)
(0.995442 0.000189139 1.20665e-13)
(0.995292 0.00010528 1.38284e-13)
(0.995214 -2.43942e-06 1.59016e-13)
(0.995225 -0.00013488 1.82963e-13)
(0.995345 -0.000288632 2.10119e-13)
(0.995586 -0.000454878 2.40277e-13)
(0.995954 -0.000619285 2.72869e-13)
(0.996443 -0.00076332 3.06746e-13)
(0.99703 -0.000867043 3.39955e-13)
(0.997677 -0.000912956 3.69578e-13)
(0.998336 -0.000890087 3.91729e-13)
(0.998952 -0.000797219 4.01751e-13)
(0.999474 -0.000644274 3.9463e-13)
(0.999862 -0.000451263 3.6561e-13)
(1.0001 -0.00024485 3.10975e-13)
(1.00018 -5.32804e-05 2.28947e-13)
(1.00012 9.9096e-05 1.20663e-13)
(0.999979 0.000196344 -8.99241e-15)
(0.999788 0.000233424 -1.51005e-13)
(0.999596 0.000216126 -2.92488e-13)
(0.999442 0.000158674 -4.17898e-13)
(0.999349 7.98022e-05 -5.11358e-13)
(0.999326 -1.65449e-06 -5.59783e-13)
(0.999365 -7.0316e-05 -5.56085e-13)
(0.999451 -0.000116946 -5.01375e-13)
(0.999564 -0.000138053 -4.05371e-13)
(0.999682 -0.000137338 -2.84365e-13)
(0.999792 -0.00011806 -1.58361e-13)
(0.999874 -9.5674e-05 -4.76838e-14)
(0.99995 -5.01838e-05 5.86609e-14)
(1.00014 -0.00195588 -2.73323e-20)
(1.00208 -0.00591525 -4.75476e-19)
(1.00652 -0.010148 -8.45477e-19)
(1.01337 -0.0147561 -1.66875e-18)
(1.02301 -0.0197772 -1.87227e-18)
(1.03576 -0.0250836 -1.7915e-18)
(1.05187 -0.0304035 -1.10815e-17)
(1.07132 -0.035139 1.71631e-17)
(1.09361 -0.0386501 3.99068e-18)
(1.11779 -0.0401608 -1.36237e-16)
(1.14207 -0.0392607 -3.34416e-17)
(1.16491 -0.0366227 6.35902e-16)
(1.18553 -0.0327493 1.30818e-15)
(1.20341 -0.028123 9.31285e-16)
(1.21832 -0.0231211 -1.0828e-15)
(1.23024 -0.0178982 -4.32056e-15)
(1.23912 -0.0124525 -7.61129e-15)
(1.24482 -0.00670317 -9.74636e-15)
(1.24705 -0.000635642 -9.91202e-15)
(1.24549 0.00553122 -9.01416e-15)
(1.24001 0.0112248 -7.58082e-15)
(1.23101 0.0155686 -5.84836e-15)
(1.2196 0.0176256 -3.85571e-15)
(1.20759 0.0167403 -1.45229e-15)
(1.19715 0.0128113 1.65245e-15)
(1.19034 0.00642568 5.67007e-15)
(1.18865 -0.00115057 1.09858e-14)
(1.1925 -0.00812534 1.8945e-14)
(1.20096 -0.0124644 2.99365e-14)
(1.21155 -0.0124048 3.96762e-14)
(1.22061 -0.00717472 4.19258e-14)
(1.22434 0.0024402 3.80383e-14)
(1.22014 0.0142415 3.31621e-14)
(1.20753 0.0255003 2.87403e-14)
(1.18798 0.033972 2.4798e-14)
(1.16419 0.0384232 2.13516e-14)
(1.13914 0.0386169 1.86009e-14)
(1.11557 0.0350254 1.67781e-14)
(1.09561 0.0285183 1.59758e-14)
(1.08074 0.0201533 1.59305e-14)
(1.07173 0.0110745 1.57147e-14)
(1.06864 0.00244851 1.41368e-14)
(1.07079 -0.00460427 1.08009e-14)
(1.0768 -0.00914792 4.8874e-15)
(1.08471 -0.0106441 -4.30759e-15)
(1.09236 -0.00913504 -1.57736e-14)
(1.09783 -0.00526137 -2.62361e-14)
(1.0999 -6.70056e-05 -3.19784e-14)
(1.09817 0.00531749 -3.18861e-14)
(1.09302 0.00996427 -2.78811e-14)
(1.08528 0.0133037 -2.23859e-14)
(1.07601 0.0151294 -1.71514e-14)
(1.06623 0.0155128 -1.30951e-14)
(1.05678 0.0146911 -1.05667e-14)
(1.04829 0.0129739 -9.67811e-15)
(1.0412 0.0106809 -1.05041e-14)
(1.03571 0.00810896 -1.31684e-14)
(1.03188 0.00551801 -1.77949e-14)
(1.02964 0.00312549 -2.43688e-14)
(1.02876 0.00110267 -3.2593e-14)
(1.02898 -0.000429533 -4.18145e-14)
(1.02994 -0.00140564 -5.11455e-14)
(1.03127 -0.00181991 -5.9561e-14)
(1.03263 -0.00172558 -6.61147e-14)
(1.03373 -0.001226 -7.02458e-14)
(1.03435 -0.00045751 -7.19741e-14)
(1.03439 0.000432468 -7.18355e-14)
(1.03383 0.00130744 -7.04975e-14)
(1.03273 0.00205921 -6.85486e-14)
(1.03122 0.00261729 -6.64509e-14)
(1.02945 0.00295009 -6.45376e-14)
(1.02756 0.00305982 -6.30324e-14)
(1.02569 0.00297396 -6.20373e-14)
(1.02396 0.0027357 -6.15455e-14)
(1.02243 0.00239519 -6.14455e-14)
(1.02114 0.00200265 -6.15375e-14)
(1.02012 0.0016033 -6.15749e-14)
(1.01934 0.00123418 -6.12903e-14)
(1.01877 0.000922475 -6.04538e-14)
(1.01837 0.000684982 -5.89101e-14)
(1.01809 0.00052855 -5.66049e-14)
(1.01786 0.000451231 -5.35971e-14)
(1.01765 0.00044398 -5.00253e-14)
(1.01742 0.000492702 -4.60816e-14)
(1.01713 0.000580457 -4.19616e-14)
(1.01677 0.000689619 -3.78266e-14)
(1.01634 0.000803764 -3.37849e-14)
(1.01583 0.000909136 -2.9872e-14)
(1.01526 0.000995571 -2.60686e-14)
(1.01465 0.00105687 -2.23122e-14)
(1.014 0.00109068 -1.85173e-14)
(1.01335 0.00109793 -1.45975e-14)
(1.01271 0.00108211 -1.04661e-14)
(1.01208 0.00104835 -6.05325e-15)
(1.01148 0.00100258 -1.30348e-15)
(1.01091 0.000950748 3.82174e-15)
(1.01038 0.000898215 9.33977e-15)
(1.00988 0.000849372 1.52485e-14)
(1.00941 0.000807395 2.15157e-14)
(1.00896 0.000774194 2.80813e-14)
(1.00852 0.000750487 3.48596e-14)
(1.0081 0.000735968 4.17445e-14)
(1.00768 0.000729539 4.86297e-14)
(1.00726 0.000729567 5.54222e-14)
(1.00683 0.000734139 6.20658e-14)
(1.0064 0.000741296 6.8553e-14)
(1.00597 0.000749224 7.49254e-14)
(1.00553 0.000756405 8.12679e-14)
(1.00508 0.000761701 8.76797e-14)
(1.00463 0.000764392 9.42528e-14)
(1.00418 0.000764155 1.01045e-13)
(1.00373 0.000761009 1.08062e-13)
(1.00329 0.000755228 1.1526e-13)
(1.00284 0.000747244 1.22547e-13)
(1.0024 0.000737544 1.29809e-13)
(1.00197 0.000726588 1.3693e-13)
(1.00154 0.00071474 1.43803e-13)
(1.00112 0.000702223 1.50355e-13)
(1.00071 0.000689094 1.56546e-13)
(1.0003 0.000675245 1.62392e-13)
(0.9999 0.000660419 1.67982e-13)
(0.999507 0.000644247 1.73507e-13)
(0.999121 0.000626286 1.79306e-13)
(0.998744 0.000606043 1.85893e-13)
(0.998378 0.00058293 1.93985e-13)
(0.998024 0.000556128 2.04503e-13)
(0.997685 0.000524315 2.18546e-13)
(0.997363 0.000485302 2.37346e-13)
(0.997064 0.000435668 2.62201e-13)
(0.996793 0.000370591 2.94393e-13)
(0.99656 0.000284117 3.35095e-13)
(0.996377 0.000170063 3.85249e-13)
(0.996259 2.36454e-05 4.45439e-13)
(0.996223 -0.000156375 5.15773e-13)
(0.996285 -0.000365473 5.95834e-13)
(0.996458 -0.000591775 6.84419e-13)
(0.996748 -0.000815871 7.79105e-13)
(0.997147 -0.00101256 8.75778e-13)
(0.997637 -0.00115464 9.68224e-13)
(0.998181 -0.00121813 1.04803e-12)
(0.998737 -0.00118792 1.10489e-12)
(0.999254 -0.00106221 1.12743e-12)
(0.999686 -0.00085447 1.10436e-12)
(0.999995 -0.000592065 1.02585e-12)
(1.00016 -0.000311543 8.85043e-13)
(1.00019 -5.16947e-05 6.79647e-13)
(1.00011 0.000154008 4.13687e-13)
(0.999941 0.000283662 9.90848e-14)
(0.999739 0.000330396 -2.43508e-13)
(0.999546 0.000302317 -5.84989e-13)
(0.999397 0.00021922 -8.90133e-13)
(0.999312 0.000107162 -1.12249e-12)
(0.999299 -7.65099e-06 -1.25136e-12)
(0.999349 -0.000103853 -1.25931e-12)
(0.999446 -0.000168625 -1.14755e-12)
(0.999567 -0.000197279 -9.37334e-13)
(0.999691 -0.000195069 -6.65627e-13)
(0.999804 -0.00016688 -3.7847e-13)
(0.999888 -0.000134394 -1.23895e-13)
(0.999961 -6.95454e-05 1.2526e-13)
(1.00013 -0.00248205 -2.30484e-18)
(1.00199 -0.00751102 -7.25155e-18)
(1.00625 -0.0129132 -6.11207e-18)
(1.01288 -0.018838 -9.36572e-18)
(1.02234 -0.0253542 4.85215e-21)
(1.03502 -0.0323157 -2.97828e-17)
(1.05131 -0.0393831 2.01759e-17)
(1.07131 -0.0457435 8.11796e-17)
(1.09458 -0.0505248 -4.30267e-16)
(1.1201 -0.0525581 2.42131e-17)
(1.14564 -0.051248 2.39501e-15)
(1.16937 -0.0476533 2.71581e-15)
(1.1906 -0.0424757 -4.15088e-15)
(1.20882 -0.0363775 -1.82082e-14)
(1.22392 -0.0298663 -3.36667e-14)
(1.23599 -0.0231294 -4.3105e-14)
(1.24504 -0.0161316 -4.20041e-14)
(1.25093 -0.0087143 -3.06781e-14)
(1.2533 -0.000802251 -1.36803e-14)
(1.25165 0.00735979 3.13178e-15)
(1.24564 0.0150124 1.77328e-14)
(1.23558 0.0209395 3.01379e-14)
(1.22263 0.0238148 4.14154e-14)
(1.20887 0.0226921 5.32178e-14)
(1.19681 0.017386 6.69835e-14)
(1.18893 0.00865605 8.17277e-14)
(1.18707 -0.0018036 9.99268e-14)
(1.19189 -0.0115537 1.29917e-13)
(1.20243 -0.0177666 1.6747e-13)
(1.21584 -0.0179226 1.8452e-13)
(1.2277 -0.0108652 1.54289e-13)
(1.23332 0.00232683 1.04253e-13)
(1.22954 0.0185293 7.37846e-14)
(1.21584 0.0338862 6.20452e-14)
(1.1942 0.0453009 5.7953e-14)
(1.16788 0.0511593 5.43681e-14)
(1.14042 0.051243 4.96768e-14)
(1.11485 0.0462729 4.47512e-14)
(1.09348 0.0374561 4.02057e-14)
(1.07788 0.0262078 3.46477e-14)
(1.06883 0.0140365 2.35985e-14)
(1.06639 0.00248099 1.67222e-15)
(1.0698 -0.00695808 -3.41885e-14)
(1.0775 -0.0129999 -8.60625e-14)
(1.08722 -0.0148936 -1.47509e-13)
(1.09645 -0.0126949 -2.00971e-13)
(1.10299 -0.00730116 -2.28081e-13)
(1.10545 -0.000170836 -2.2449e-13)
(1.10349 0.00713336 -2.0022e-13)
(1.09766 0.0133544 -1.67437e-13)
(1.08902 0.0177495 -1.34748e-13)
(1.07882 0.0200807 -1.06871e-13)
(1.06821 0.020481 -8.58777e-14)
(1.0581 0.0192942 -7.23286e-14)
(1.04917 0.0169459 -6.61252e-14)
(1.04182 0.0138639 -6.70081e-14)
(1.03625 0.0104383 -7.47184e-14)
(1.0325 0.00700774 -8.87646e-14)
(1.03045 0.00385421 -1.0801e-13)
(1.02986 0.00120018 -1.3052e-13)
(1.03041 -0.000796898 -1.53743e-13)
(1.03172 -0.00205194 -1.74593e-13)
(1.03338 -0.00255893 -1.89888e-13)
(1.03502 -0.00239091 -1.97402e-13)
(1.03631 -0.00168831 -1.9687e-13)
(1.03704 -0.000635755 -1.90281e-13)
(1.03709 0.000568063 -1.80958e-13)
(1.03647 0.00174044 -1.71411e-13)
(1.03526 0.00273821 -1.62796e-13)
(1.0336 0.00347003 -1.55442e-13)
(1.03168 0.00389719 -1.49298e-13)
(1.02965 0.00402614 -1.44193e-13)
(1.02767 0.00389629 -1.3987e-13)
(1.02585 0.00356706 -1.35955e-13)
(1.02427 0.00310617 -1.31933e-13)
(1.02297 0.00258057 -1.27163e-13)
(1.02195 0.00204996 -1.2098e-13)
(1.0212 0.00156284 -1.12804e-13)
(1.02068 0.00115444 -1.02277e-13)
(1.02033 0.00084614 -8.93702e-14)
(1.02009 0.000646195 -7.44083e-14)
(1.01991 0.000551275 -5.80334e-14)
(1.01974 0.000548757 -4.107e-14)
(1.01953 0.000619469 -2.43631e-14)
(1.01925 0.000740621 -8.61933e-15)
(1.01889 0.000888675 5.71734e-15)
(1.01845 0.00104185 1.84997e-14)
(1.01793 0.00118204 2.98672e-14)
(1.01734 0.00129602 4.01692e-14)
(1.0167 0.00137589 4.98695e-14)
(1.01603 0.00141886 5.94609e-14)
(1.01536 0.00142651 6.93877e-14)
(1.0147 0.00140373 8.00081e-14)
(1.01406 0.00135755 9.15696e-14)
(1.01345 0.00129594 1.04211e-13)
(1.01287 0.00122682 1.17969e-13)
(1.01234 0.00115731 1.3279e-13)
(1.01183 0.00109316 1.48544e-13)
(1.01136 0.00103847 1.65032e-13)
(1.01091 0.000995656 1.81999e-13)
(1.01047 0.000965561 1.99156e-13)
(1.01005 0.000947672 2.16208e-13)
(1.00963 0.000940448 2.32894e-13)
(1.0092 0.000941662 2.49029e-13)
(1.00877 0.000948739 2.64542e-13)
(1.00834 0.000959068 2.79496e-13)
(1.00789 0.000970251 2.94082e-13)
(1.00744 0.000980297 3.08586e-13)
(1.00699 0.000987736 3.23325e-13)
(1.00653 0.000991654 3.38576e-13)
(1.00606 0.000991672 3.54509e-13)
(1.0056 0.000987859 3.71141e-13)
(1.00514 0.000980621 3.88326e-13)
(1.00469 0.000970559 4.05771e-13)
(1.00423 0.000958344 4.23077e-13)
(1.00379 0.000944602 4.39796e-13)
(1.00335 0.000929824 4.55479e-13)
(1.00291 0.000914311 4.69737e-13)
(1.00248 0.000898145 4.82282e-13)
(1.00206 0.000881188 4.92999e-13)
(1.00164 0.000863107 5.02027e-13)
(1.00123 0.000843414 5.09867e-13)
(1.00082 0.000821523 5.17507e-13)
(1.00042 0.00079677 5.26519e-13)
(1.00003 0.000768372 5.39122e-13)
(0.999654 0.000735267 5.58162e-13)
(0.999288 0.000695794 5.87013e-13)
(0.998937 0.000647254 6.29399e-13)
(0.998606 0.000585464 6.89146e-13)
(0.998301 0.000504543 7.69922e-13)
(0.99803 0.000397221 8.74944e-13)
(0.997804 0.000255926 1.00667e-12)
(0.997635 7.47625e-05 1.1664e-12)
(0.997538 -0.00014785 1.3539e-12)
(0.997527 -0.000406421 1.56715e-12)
(0.997613 -0.000686399 1.80171e-12)
(0.997801 -0.000963877 2.04981e-12)
(0.998085 -0.00120771 2.29929e-12)
(0.998446 -0.00138415 2.53311e-12)
(0.998856 -0.00146339 2.72959e-12)
(0.999275 -0.00142657 2.86383e-12)
(0.999659 -0.00127138 2.91002e-12)
(0.999968 -0.00101458 2.84429e-12)
(1.00017 -0.000690315 2.64752e-12)
(1.00025 -0.000344279 2.30794e-12)
(1.00021 -2.49994e-05 1.82372e-12)
(1.00008 0.000225652 1.20588e-12)
(0.999883 0.000380359 4.81257e-13)
(0.999668 0.000430755 -3.05534e-13)
(0.999474 0.000387388 -1.09188e-12)
(0.999332 0.000275585 -1.80126e-12)
(0.999261 0.000128577 -2.35316e-12)
(0.999264 -2.02527e-05 -2.67809e-12)
(0.99933 -0.000143786 -2.73447e-12)
(0.999441 -0.000225815 -2.52138e-12)
(0.999573 -0.000260743 -2.08275e-12)
(0.999706 -0.000255498 -1.49866e-12)
(0.999821 -0.000217005 -8.70697e-13)
(0.999908 -0.000173083 -3.08037e-13)
(0.999977 -8.78666e-05 2.53972e-13)
(1.00012 -0.0029811 2.27268e-18)
(1.00187 -0.00902797 8.31528e-18)
(1.00589 -0.0155636 5.91695e-18)
(1.01221 -0.0227985 9.68506e-18)
(1.02138 -0.0308496 2.24728e-17)
(1.03392 -0.0395714 -9.69571e-17)
(1.0504 -0.0485684 4.5997e-16)
(1.07108 -0.056783 -9.72419e-16)
(1.09563 -0.0630735 -4.68451e-16)
(1.12295 -0.065705 6.88971e-15)
(1.15014 -0.0638376 2.8272e-15)
(1.17501 -0.0591091 -2.9993e-14)
(1.19697 -0.0524633 -7.51623e-14)
(1.21559 -0.0447781 -9.33218e-14)
(1.23088 -0.0367083 -5.53793e-14)
(1.24309 -0.0284604 3.84713e-14)
(1.25235 -0.0199332 1.61144e-13)
(1.25852 -0.0108407 2.7456e-13)
(1.26112 -0.000988715 3.40362e-13)
(1.25942 0.00937737 3.72316e-13)
(1.25279 0.0192862 3.8216e-13)
(1.24137 0.0271012 3.79202e-13)
(1.22641 0.0310013 3.71544e-13)
(1.21029 0.0296642 3.64767e-13)
(1.19605 0.0227805 3.58349e-13)
(1.18669 0.011288 3.38506e-13)
(1.18453 -0.00264201 3.05889e-13)
(1.19057 -0.0158259 2.60892e-13)
(1.20389 -0.0244675 1.5065e-13)
(1.22114 -0.025063 -5.88175e-14)
(1.23686 -0.0159129 -3.01492e-13)
(1.24507 0.00155327 -4.36494e-13)
(1.24181 0.0230178 -4.02631e-13)
(1.22661 0.0431936 -2.75741e-13)
(1.2021 0.0579587 -1.4179e-13)
(1.17242 0.0653085 -4.56676e-14)
(1.14178 0.0651275 6.22101e-15)
(1.11362 0.0584847 2.45933e-14)
(1.09047 0.0469969 1.92171e-14)
(1.07393 0.0324754 -1.05929e-14)
(1.06485 0.0168162 -7.70007e-14)
(1.06325 0.00196005 -1.97839e-13)
(1.06831 -0.0101632 -3.92192e-13)
(1.07824 -0.017863 -6.57123e-13)
(1.09038 -0.0201245 -9.23233e-13)
(1.10171 -0.0170161 -1.07685e-12)
(1.10964 -0.00975536 -1.05671e-12)
(1.11259 -0.000315339 -9.17383e-13)
(1.11028 0.00921696 -7.55496e-13)
(1.10352 0.0172036 -6.1254e-13)
(1.09367 0.0227246 -4.95734e-13)
(1.08224 0.0255364 -4.02727e-13)
(1.07055 0.0258703 -3.32212e-13)
(1.05962 0.0242087 -2.84454e-13)
(1.05012 0.0211155 -2.59511e-13)
(1.04246 0.0171385 -2.56421e-13)
(1.03681 0.0127671 -2.72917e-13)
(1.03316 0.00842054 -3.04724e-13)
(1.03137 0.00444722 -3.45055e-13)