/*--------------------------------*- C++ -*----------------------------------*\
  =========                 |
  \\      /  F ield         | OpenFOAM: The Open Source CFD Toolbox
   \\    /   O peration     | Website:  https://openfoam.org
    \\  /    A nd           | Version:  11
     \\/     M anipulation  |
\*---------------------------------------------------------------------------*/
FoamFile
{
    format      ascii;
    class       volVectorField;
    location    "6.423608";
    object      U;
}
// * * * * * * * * * * * * * * * * * * * * * * * * * * * * * * * * * * * * * //

dimensions      [0 1 -1 0 0 0 0];

internalField   nonuniform List<vector> 
7132
(
(1.00014 -0.000288596 1.7161e-18)
(1.00223 -0.000870692 6.8885e-18)
(1.00698 -0.00148836 7.42251e-18)
(1.01419 -0.00215339 8.86818e-18)
(1.02417 -0.00286899 1.10045e-17)
(1.03712 -0.00361516 1.15238e-17)
(1.0531 -0.00435261 1.09213e-17)
(1.07197 -0.00500388 1.01053e-17)
(1.09321 -0.00548594 9.50337e-18)
(1.11597 -0.00571093 9.22239e-18)
(1.13902 -0.00562976 8.97413e-18)
(1.16116 -0.00530913 8.9146e-18)
(1.18159 -0.00481107 7.73858e-18)
(1.19972 -0.00419906 8.06676e-18)
(1.21523 -0.00353089 -2.31054e-18)
(1.22799 -0.00284664 -1.13382e-17)
(1.23801 -0.00217499 -2.20654e-17)
(1.24539 -0.00153561 -1.38086e-17)
(1.25029 -0.000941706 -1.83489e-17)
(1.25291 -0.000400403 -2.99527e-17)
(1.25348 8.85272e-05 -3.20195e-17)
(1.25219 0.000534383 -3.77653e-17)
(1.24918 0.000954915 -4.70879e-17)
(1.24452 0.00137198 -6.24066e-17)
(1.23818 0.00180356 -6.57889e-17)
(1.23007 0.00225491 -7.90973e-17)
(1.22011 0.00271255 -9.39952e-17)
(1.20832 0.00314486 -1.07741e-16)
(1.19489 0.00350975 -1.19932e-16)
(1.18017 0.00376645 -1.19331e-16)
(1.16467 0.0038864 -1.14334e-16)
(1.14898 0.00385964 -1.05134e-16)
(1.1337 0.0036956 -1.01521e-16)
(1.11934 0.00341934 -8.86761e-17)
(1.10629 0.00306554 -7.16307e-17)
(1.09478 0.0026721 -4.9468e-17)
(1.08489 0.00227467 -2.168e-17)
(1.07657 0.00190274 7.65731e-18)
(1.06967 0.00157734 4.64445e-17)
(1.06397 0.00131028 9.02079e-17)
(1.05921 0.0011047 1.3827e-16)
(1.05516 0.000956486 1.88926e-16)
(1.05158 0.000856404 2.39227e-16)
(1.04833 0.000792383 2.92393e-16)
(1.04526 0.000751711 3.44808e-16)
(1.04232 0.0007228 3.96075e-16)
(1.03949 0.000696381 4.44997e-16)
(1.03676 0.000666084 4.90507e-16)
(1.03416 0.000628482 5.35072e-16)
(1.03173 0.00058275 5.75849e-16)
(1.02949 0.000530076 6.10915e-16)
(1.02748 0.00047299 6.41581e-16)
(1.02571 0.000414691 6.68483e-16)
(1.02416 0.000358473 6.88703e-16)
(1.02284 0.000307262 7.01429e-16)
(1.0217 0.0002633 7.04845e-16)
(1.02073 0.000227973 6.98058e-16)
(1.01988 0.000201761 6.81656e-16)
(1.01912 0.000184312 6.53402e-16)
(1.01841 0.000174587 6.13331e-16)
(1.01772 0.000171072 5.60887e-16)
(1.01704 0.000171999 4.97048e-16)
(1.01635 0.000175568 4.23274e-16)
(1.01564 0.000180132 3.38608e-16)
(1.01491 0.000184331 2.46081e-16)
(1.01416 0.000187175 1.4562e-16)
(1.01341 0.000188066 3.71054e-17)
(1.01266 0.000186778 -7.83996e-17)
(1.01191 0.000183401 -2.02346e-16)
(1.01119 0.000178258 -3.32872e-16)
(1.01048 0.000171826 -4.71421e-16)
(1.00981 0.000164648 -6.18223e-16)
(1.00917 0.000157262 -7.71999e-16)
(1.00855 0.000150147 -9.32798e-16)
(1.00796 0.00014368 -1.09664e-15)
(1.0074 0.000138123 -1.2624e-15)
(1.00686 0.000133609 -1.428e-15)
(1.00633 0.000130158 -1.59087e-15)
(1.00582 0.00012769 -1.75097e-15)
(1.00531 0.000126052 -1.9055e-15)
(1.00481 0.000125044 -2.05543e-15)
(1.00431 0.000124451 -2.20061e-15)
(1.00381 0.000124064 -2.34002e-15)
(1.00331 0.0001237 -2.47408e-15)
(1.00282 0.00012322 -2.59965e-15)
(1.00233 0.000122529 -2.717e-15)
(1.00184 0.000121578 -2.82569e-15)
(1.00135 0.000120356 -2.92531e-15)
(1.00087 0.000118881 -3.01744e-15)
(1.0004 0.000117189 -3.10018e-15)
(0.999933 0.000115322 -3.1738e-15)
(0.999474 0.00011332 -3.23537e-15)
(0.999024 0.000111211 -3.27787e-15)
(0.998583 0.000109011 -3.29465e-15)
(0.99815 0.000106713 -3.27316e-15)
(0.997727 0.000104292 -3.2011e-15)
(0.997313 0.000101699 -3.06674e-15)
(0.99691 9.88703e-05 -2.85929e-15)
(0.996519 9.57376e-05 -2.5763e-15)
(0.996141 9.22347e-05 -2.22025e-15)
(0.995778 8.82982e-05 -1.80643e-15)
(0.995431 8.38428e-05 -1.36365e-15)
(0.995103 7.87027e-05 -9.32581e-16)
(0.994797 7.25392e-05 -5.67428e-16)
(0.994518 6.4738e-05 -3.241e-16)
(0.994273 5.43458e-05 -2.59156e-16)
(0.994076 4.01093e-05 -4.22877e-16)
(0.993945 2.06781e-05 -8.53863e-16)
(0.993901 -5.014e-06 -1.57982e-15)
(0.993973 -3.72381e-05 -2.60326e-15)
(0.994185 -7.49625e-05 -3.89457e-15)
(0.994556 -0.000115533 -5.37692e-15)
(0.995091 -0.000154726 -6.91534e-15)
(0.995774 -0.000187279 -8.32631e-15)
(0.996569 -0.000207869 -9.40023e-15)
(0.997418 -0.000212337 -9.96285e-15)
(0.998251 -0.00019883 -9.94828e-15)
(0.998995 -0.00016851 -9.46962e-15)
(0.999589 -0.000125568 -8.86381e-15)
(0.999993 -7.64674e-05 -8.66579e-15)
(1.0002 -2.86017e-05 -9.5167e-15)
(1.00022 1.12866e-05 -1.19991e-14)
(1.00011 3.84794e-05 -1.64309e-14)
(0.999911 5.1094e-05 -2.26896e-14)
(0.999696 5.01529e-05 -3.01149e-14)
(0.999509 3.89663e-05 -3.7553e-14)
(0.999382 2.20722e-05 -4.35635e-14)
(0.999331 4.06696e-06 -4.67519e-14)
(0.999349 -1.13577e-05 -4.61525e-14)
(0.999421 -2.19717e-05 -4.15241e-14)
(0.999525 -2.71026e-05 -3.34605e-14)
(0.999639 -2.73547e-05 -2.32662e-14)
(0.999745 -2.41123e-05 -1.26314e-14)
(0.999833 -1.90091e-05 -3.21516e-15)
(0.999898 -1.35001e-05 3.74567e-15)
(0.999941 -8.61305e-06 7.67839e-15)
(0.999967 -4.88052e-06 8.71477e-15)
(0.99998 -2.40928e-06 7.54509e-15)
(0.999986 -1.02198e-06 5.14358e-15)
(0.999988 -4.09468e-07 2.47607e-15)
(0.999989 -2.52801e-07 2.67844e-16)
(0.99999 -2.97013e-07 -1.10964e-15)
(0.999992 -3.78342e-07 -1.62318e-15)
(0.999993 -4.17837e-07 -1.4795e-15)
(0.999995 -3.97456e-07 -9.84897e-16)
(0.999997 -3.32455e-07 -4.25152e-16)
(0.999998 -2.4872e-07 7.9393e-18)
(0.999999 -1.68677e-07 2.40108e-16)
(0.999999 -1.05397e-07 2.88615e-16)
(0.999999 -6.25937e-08 2.21909e-16)
(1 -3.75832e-08 1.15297e-16)
(1 -2.48902e-08 2.19822e-17)
(1 -1.90229e-08 -3.2545e-17)
(1 -1.59751e-08 -4.89099e-17)
(1 -1.35491e-08 -3.96232e-17)
(1 -1.09771e-08 -2.01693e-17)
(1 -8.32465e-09 -3.45684e-18)
(1 -5.85092e-09 5.9369e-18)
(1 -4.00547e-09 8.07277e-18)
(1 -2.02718e-09 3.69736e-18)
(1.00014 -0.000862932 3.17021e-20)
(1.00221 -0.0026048 3.4758e-19)
(1.00692 -0.00445463 6.83315e-19)
(1.01408 -0.00645029 1.03061e-18)
(1.02403 -0.00860247 1.42979e-18)
(1.03698 -0.0108522 1.81495e-18)
(1.05302 -0.0130823 2.17905e-18)
(1.07202 -0.0150564 2.05786e-18)
(1.09348 -0.0165217 5.38641e-18)
(1.11654 -0.0172037 6.80388e-18)
(1.13987 -0.0169504 4.23864e-18)
(1.16224 -0.0159738 4.67989e-18)
(1.18282 -0.0144642 2.01961e-19)
(1.20105 -0.0126146 1.21429e-17)
(1.21661 -0.0106003 4.65709e-17)
(1.22938 -0.00854096 9.21535e-17)
(1.23938 -0.00652197 1.26532e-16)
(1.24672 -0.00460115 1.29849e-16)
(1.25157 -0.00281741 9.22367e-17)
(1.25414 -0.00119189 1.66855e-17)
(1.25466 0.000275925 -8.17565e-17)
(1.25333 0.0016138 -1.86586e-16)
(1.25031 0.00287536 -2.85506e-16)
(1.24565 0.00412715 -3.68622e-16)
(1.23933 0.00542441 -4.27231e-16)
(1.23122 0.0067836 -4.56976e-16)
(1.22125 0.00816391 -4.57263e-16)
(1.20941 0.00946902 -4.30763e-16)
(1.19589 0.0105707 -3.82026e-16)
(1.18104 0.0113448 -3.17754e-16)
(1.1654 0.0117048 -2.30584e-16)
(1.14957 0.0116209 -1.48356e-16)
(1.13415 0.0111223 -6.01403e-17)
(1.11969 0.0102852 4.49995e-17)
(1.10657 0.00921498 1.54136e-16)
(1.09503 0.00802617 2.84343e-16)
(1.08514 0.00682643 4.21244e-16)
(1.07685 0.00570464 5.62935e-16)
(1.07 0.00472409 7.13915e-16)
(1.06435 0.00392024 8.63899e-16)
(1.05964 0.00330236 1.01466e-15)
(1.05564 0.00285793 1.15198e-15)
(1.0521 0.00255892 1.27273e-15)
(1.04888 0.00236877 1.37773e-15)
(1.04583 0.00224897 1.46322e-15)
(1.0429 0.00216445 1.53317e-15)
(1.04006 0.00208719 1.58285e-15)
(1.03732 0.00199792 1.61475e-15)
(1.03472 0.0018863 1.6312e-15)
(1.03227 0.00174984 1.62842e-15)
(1.03003 0.00159214 1.60758e-15)
(1.02802 0.00142085 1.56591e-15)
(1.02624 0.00124567 1.49925e-15)
(1.02469 0.00107658 1.40689e-15)
(1.02337 0.000922444 1.28473e-15)
(1.02224 0.00079007 1.13382e-15)
(1.02127 0.00068367 9.53602e-16)
(1.02043 0.000604731 7.44456e-16)
(1.01967 0.000552212 5.10007e-16)
(1.01897 0.000523004 2.51767e-16)
(1.01828 0.000512546 -2.3932e-17)
(1.0176 0.000515511 -3.13617e-16)
(1.01691 0.000526464 -6.13791e-16)
(1.0162 0.000540427 -9.20821e-16)
(1.01547 0.000553287 -1.23181e-15)
(1.01472 0.000562046 -1.54322e-15)
(1.01396 0.000564895 -1.85927e-15)
(1.01321 0.000561148 -2.17744e-15)
(1.01246 0.00055107 -2.49947e-15)
(1.01173 0.000535643 -2.82568e-15)
(1.01102 0.000516307 -3.15455e-15)
(1.01035 0.000494702 -3.48908e-15)
(1.0097 0.00047246 -3.82326e-15)
(1.00908 0.000451026 -4.15352e-15)
(1.0085 0.000431548 -4.47357e-15)
(1.00793 0.000414813 -4.77664e-15)
(1.00739 0.000401231 -5.06254e-15)
(1.00686 0.00039086 -5.32554e-15)
(1.00634 0.000383462 -5.56608e-15)
(1.00583 0.000378573 -5.78398e-15)
(1.00533 0.000375593 -5.97951e-15)
(1.00483 0.000373868 -6.1575e-15)
(1.00433 0.000372765 -6.3144e-15)
(1.00383 0.000371736 -6.44993e-15)
(1.00333 0.000370354 -6.56107e-15)
(1.00284 0.000368335 -6.64566e-15)
(1.00235 0.000365529 -6.70789e-15)
(1.00186 0.000361907 -6.74633e-15)
(1.00137 0.000357524 -6.76465e-15)
(1.0009 0.000352489 -6.76262e-15)
(1.00043 0.000346931 -6.73711e-15)
(0.999966 0.00034097 -6.68327e-15)
(0.999512 0.000334696 -6.58391e-15)
(0.999066 0.000328156 -6.42025e-15)
(0.998629 0.000321335 -6.16807e-15)
(0.998201 0.000314155 -5.80179e-15)
(0.997782 0.000306475 -5.2996e-15)
(0.997374 0.000298104 -4.64304e-15)
(0.996977 0.000288834 -3.82824e-15)
(0.996592 0.000278465 -2.86563e-15)
(0.996222 0.000266804 -1.78617e-15)
(0.995867 0.000253594 -6.45368e-16)
(0.995531 0.00023835 4.82625e-16)
(0.995217 0.000220082 1.50476e-15)
(0.994928 0.000196988 2.32512e-15)
(0.994673 0.000166265 2.8547e-15)
(0.994464 0.000124207 3.01804e-15)
(0.994318 6.67945e-05 2.76053e-15)
(0.994258 -9.1865e-06 2.04446e-15)
(0.994308 -0.000104628 8.69946e-16)
(0.994495 -0.000216581 -6.97426e-16)
(0.994836 -0.000337274 -2.50033e-15)
(0.995337 -0.000454235 -4.27062e-15)
(0.995984 -0.000551834 -5.65771e-15)
(0.996741 -0.000614172 -6.30049e-15)
(0.997554 -0.000628722 -5.9623e-15)
(0.998353 -0.000589763 -4.69259e-15)
(0.999068 -0.000500546 -2.95674e-15)
(0.999638 -0.000373379 -1.68713e-15)
(1.00002 -0.000227433 -2.18285e-15)
(1.00021 -8.47544e-05 -5.85864e-15)
(1.00023 3.44452e-05 -1.38694e-14)
(1.0001 0.000115923 -2.66768e-14)
(0.999906 0.000153874 -4.37142e-14)
(0.999688 0.000151201 -6.32297e-14)
(0.999499 0.000117701 -8.24139e-14)
(0.999373 6.69263e-05 -9.78765e-14)
(0.999322 1.26723e-05 -1.06399e-13)
(0.999342 -3.39245e-05 -1.05802e-13)
(0.999416 -6.60884e-05 -9.56155e-14)
(0.999522 -8.17265e-05 -7.7305e-14)
(0.999638 -8.26065e-05 -5.39633e-14)
(0.999746 -7.28772e-05 -2.95436e-14)
(0.999835 -5.7467e-05 -7.89267e-15)
(0.999901 -4.07881e-05 8.13802e-15)
(0.999944 -2.59709e-05 1.72385e-14)
(0.999969 -1.46481e-05 1.97155e-14)
(0.999982 -7.15743e-06 1.7146e-14)
(0.999987 -2.96664e-06 1.17492e-14)
(0.999989 -1.13634e-06 5.71834e-15)
(0.99999 -6.93072e-07 7.03351e-16)
(0.99999 -8.5679e-07 -2.44487e-15)
(0.999992 -1.12609e-06 -3.64123e-15)
(0.999993 -1.25987e-06 -3.34377e-15)
(0.999995 -1.2044e-06 -2.24282e-15)
(0.999997 -1.00844e-06 -9.84044e-16)
(0.999998 -7.53197e-07 -2.64867e-18)
(0.999999 -5.08759e-07 5.29468e-16)
(0.999999 -3.1587e-07 6.48471e-16)
(0.999999 -1.86042e-07 5.03861e-16)
(1 -1.1088e-07 2.64769e-16)
(1 -7.33467e-08 5.30868e-17)
(1 -5.64424e-08 -7.1994e-17)
(1 -4.78302e-08 -1.09395e-16)
(1 -4.08287e-08 -8.91898e-17)
(1 -3.31738e-08 -4.63918e-17)
(1 -2.51641e-08 -9.27265e-18)
(1 -1.7658e-08 1.19501e-17)
(1 -1.20671e-08 1.81685e-17)
(1 -6.0877e-09 9.88617e-18)
(1.00014 -0.00142933 5.13912e-22)
(1.00217 -0.00431646 4.31717e-21)
(1.00679 -0.00738917 1.68636e-21)
(1.01387 -0.0107165 5.20106e-21)
(1.02374 -0.014321 -1.64784e-19)
(1.03667 -0.0181085 2.2228e-19)
(1.05282 -0.0218854 -8.4896e-19)
(1.0721 -0.0252457 -1.55133e-18)
(1.09402 -0.0277541 6.31814e-18)
(1.11767 -0.0289156 -1.08015e-18)
(1.14159 -0.0284592 -3.79595e-17)
(1.1644 -0.0267813 -3.07363e-17)
(1.1853 -0.0242119 1.05489e-16)
(1.20371 -0.0210823 3.3915e-16)
(1.21935 -0.0176887 5.13778e-16)
(1.23213 -0.0142296 4.59883e-16)
(1.2421 -0.0108454 1.06118e-16)
(1.24937 -0.00763102 -4.90503e-16)
(1.25413 -0.00465157 -1.18613e-15)
(1.2566 -0.00194334 -1.81966e-15)
(1.25702 0.000493681 -2.25574e-15)
(1.25562 0.00270695 -2.48605e-15)
(1.25257 0.00478999 -2.50262e-15)
(1.24792 0.00686036 -2.31375e-15)
(1.24162 0.00901722 -1.94699e-15)
(1.23353 0.0112926 -1.44697e-15)
(1.22353 0.013618 -8.6857e-16)
(1.21158 0.0158272 -2.66292e-16)
(1.19786 0.0176972 3.16525e-16)
(1.18274 0.0190124 8.53534e-16)
(1.16679 0.0196232 1.33864e-15)
(1.15065 0.0194788 1.77708e-15)
(1.13497 0.01863 2.18291e-15)
(1.1203 0.0172087 2.57321e-15)
(1.10705 0.0153953 2.95974e-15)
(1.09545 0.0133853 3.34901e-15)
(1.08557 0.0113617 3.73723e-15)
(1.07735 0.0094744 4.11146e-15)
(1.07059 0.00782985 4.45333e-15)
(1.06506 0.00648689 4.74128e-15)
(1.06047 0.00545984 4.95692e-15)
(1.05657 0.00472621 5.08765e-15)
(1.05311 0.00423743 5.12944e-15)
(1.04994 0.00393078 5.08681e-15)
(1.04692 0.00374063 4.9691e-15)
(1.044 0.00360751 4.78771e-15)
(1.04115 0.00348417 4.55154e-15)
(1.0384 0.00333841 4.26524e-15)
(1.03577 0.00315321 3.92866e-15)
(1.0333 0.00292487 3.53651e-15)
(1.03105 0.00265994 3.08122e-15)
(1.02902 0.00237172 2.55353e-15)
(1.02724 0.00207687 1.9435e-15)
(1.0257 0.0017924 1.24813e-15)
(1.02438 0.0015334 4.67112e-16)
(1.02327 0.00131138 -3.93086e-16)
(1.02232 0.00113342 -1.32143e-15)
(1.02149 0.00100196 -2.30351e-15)
(1.02075 0.000915163 -3.31849e-15)
(1.02005 0.000867669 -4.34648e-15)
(1.01938 0.000851688 -5.36711e-15)
(1.0187 0.00085815 -6.36406e-15)
(1.01801 0.000877834 -7.32524e-15)
(1.0173 0.000902314 -8.24223e-15)
(1.01656 0.000924661 -9.11439e-15)
(1.0158 0.000939845 -9.94154e-15)
(1.01504 0.000944859 -1.07306e-14)
(1.01427 0.000938602 -1.14891e-14)
(1.01352 0.000921578 -1.22229e-14)
(1.01278 0.000895498 -1.29375e-14)
(1.01207 0.000862828 -1.36303e-14)
(1.01139 0.000826371 -1.42964e-14)
(1.01074 0.000788895 -1.49247e-14)
(1.01012 0.000752847 -1.54991e-14)
(1.00953 0.000720163 -1.60053e-14)
(1.00897 0.000692163 -1.64281e-14)
(1.00842 0.000669525 -1.67623e-14)
(1.00789 0.000652334 -1.7008e-14)
(1.00737 0.000640172 -1.71715e-14)
(1.00686 0.000632243 -1.72638e-14)
(1.00635 0.000627523 -1.72919e-14)
(1.00585 0.000624898 -1.7263e-14)
(1.00535 0.000623297 -1.71775e-14)
(1.00484 0.000621793 -1.70312e-14)
(1.00434 0.000619669 -1.68206e-14)
(1.00384 0.000616451 -1.65416e-14)
(1.00334 0.000611897 -1.61993e-14)
(1.00284 0.000605965 -1.58018e-14)
(1.00235 0.000598758 -1.53581e-14)
(1.00187 0.000590468 -1.48734e-14)
(1.00139 0.000581317 -1.43392e-14)
(1.00093 0.000571515 -1.37332e-14)
(1.00046 0.000561218 -1.30167e-14)
(1.00001 0.000550506 -1.21376e-14)
(0.999564 0.000539363 -1.10376e-14)
(0.999126 0.000527661 -9.65911e-15)
(0.998698 0.000515167 -7.9538e-15)
(0.998279 0.000501567 -5.88934e-15)
(0.997871 0.000486506 -3.45746e-15)
(0.997474 0.00046964 -6.81696e-16)
(0.997091 0.000450635 2.37577e-15)
(0.996722 0.000429061 5.61094e-15)
(0.996371 0.00040412 8.88353e-15)
(0.99604 0.000374211 1.2032e-14)
(0.995733 0.000336431 1.48974e-14)
(0.995459 0.00028624 1.7346e-14)
(0.995229 0.000217618 1.9282e-14)
(0.995058 0.00012399 2.06434e-14)
(0.994967 4.29329e-08 2.13956e-14)
(0.994981 -0.000155803 2.15615e-14)
(0.995123 -0.000338882 2.13026e-14)
(0.995412 -0.000536635 2.09783e-14)
(0.995852 -0.000728744 2.11614e-14)
(0.996432 -0.000889613 2.25511e-14)
(0.997119 -0.000993074 2.57453e-14)
(0.99786 -0.00101838 3.08917e-14)
(0.998589 -0.000955883 3.73102e-14)
(0.99924 -0.000810697 4.32337e-14)
(0.999754 -0.000602878 4.58131e-14)
(1.00009 -0.000363892 4.14779e-14)
(1.00025 -0.000130061 2.66532e-14)
(1.00023 6.52063e-05 -1.26021e-15)
(1.00009 0.000198282 -4.28466e-14)
(0.999885 0.000259458 -9.59162e-14)
(0.999662 0.000253443 -1.55202e-13)
(0.999473 0.000196426 -2.12747e-13)
(0.999349 0.000110882 -2.59167e-13)
(0.999303 1.97618e-05 -2.85675e-13)
(0.999328 -5.83672e-05 -2.86395e-13)
(0.999409 -0.000112181 -2.6018e-13)
(0.99952 -0.000138176 -2.11207e-13)
(0.999641 -0.000139326 -1.48085e-13)
(0.999752 -0.000122621 -8.17552e-14)
(0.999843 -9.63809e-05 -2.28034e-14)
(0.999909 -6.80675e-05 2.0949e-14)
(0.999951 -4.29827e-05 4.59109e-14)
(0.999975 -2.38892e-05 5.29074e-14)
(0.999986 -1.13461e-05 4.61986e-14)
(0.99999 -4.42764e-06 3.17839e-14)
(0.99999 -1.51305e-06 1.55903e-14)
(0.99999 -9.26194e-07 2.07645e-15)
(0.99999 -1.32783e-06 -6.44176e-15)
(0.999991 -1.86293e-06 -9.71956e-15)
(0.999993 -2.12818e-06 -8.97221e-15)
(0.999995 -2.04433e-06 -6.04625e-15)
(0.999997 -1.70727e-06 -2.67853e-15)
(0.999998 -1.26555e-06 -3.79982e-17)
(0.999999 -8.44552e-07 1.40228e-15)
(0.999999 -5.1571e-07 1.73367e-15)
(0.999999 -2.97926e-07 1.35428e-15)
(1 -1.75032e-07 7.14496e-16)
(1 -1.16184e-07 1.47644e-16)
(1 -9.1316e-08 -1.89706e-16)
(1 -7.90858e-08 -2.92273e-16)
(1 -6.83564e-08 -2.39184e-16)
(1 -5.57332e-08 -1.26744e-16)
(1 -4.2169e-08 -2.5873e-17)
(1 -2.94056e-08 3.16704e-17)
(1 -1.99642e-08 4.83107e-17)
(1 -1.00022e-08 2.83121e-17)
(1.00014 -0.00198228 -3.42139e-20)
(1.00211 -0.00598897 -4.76236e-19)
(1.0066 -0.0102685 -8.0825e-19)
(1.01352 -0.0149278 -1.61942e-18)
(1.02327 -0.0200099 -1.84045e-18)
(1.03616 -0.0253924 -1.82879e-18)
(1.05246 -0.0308088 -1.14165e-17)
(1.07215 -0.0356646 1.80082e-17)
(1.09476 -0.0393226 3.46567e-18)
(1.11936 -0.0410017 -1.41408e-16)
(1.14418 -0.0402856 -2.89535e-17)
(1.16766 -0.037826 6.70384e-16)
(1.18902 -0.0341144 1.33138e-15)
(1.20771 -0.0296339 8.03766e-16)
(1.22347 -0.0248094 -1.57477e-15)
(1.23627 -0.0199146 -5.42356e-15)
(1.24617 -0.0151406 -9.59664e-15)
(1.25333 -0.0106154 -1.28382e-14)
(1.25794 -0.00642886 -1.42974e-14)
(1.26025 -0.00263364 -1.36936e-14)
(1.26052 0.000767805 -1.12727e-14)
(1.25901 0.00384267 -7.78706e-15)
(1.25591 0.0067289 -3.65725e-15)
(1.25127 0.00960391 7.44148e-16)
(1.24503 0.0126208 5.04861e-15)
(1.23698 0.0158333 8.92073e-15)
(1.22694 0.0191442 1.21131e-14)
(1.21484 0.0223078 1.45065e-14)
(1.20082 0.024993 1.61168e-14)
(1.18529 0.0268805 1.70638e-14)
(1.16886 0.0277502 1.75362e-14)
(1.15224 0.0275296 1.76924e-14)
(1.13614 0.0262961 1.77006e-14)
(1.12116 0.0242445 1.767e-14)
(1.1077 0.0216383 1.76312e-14)
(1.09602 0.0187607 1.75896e-14)
(1.08617 0.0158745 1.74799e-14)
(1.07806 0.0131938 1.72273e-14)
(1.07146 0.010869 1.67632e-14)
(1.0661 0.00898169 1.60259e-14)
(1.06169 0.00754942 1.50039e-14)
(1.05794 0.00653722 1.37106e-14)
(1.0546 0.00587311 1.22012e-14)
(1.05151 0.00546546 1.05478e-14)
(1.04853 0.00521925 8.81149e-15)
(1.04561 0.00504905 7.04049e-15)
(1.04275 0.0048876 5.24537e-15)
(1.03997 0.00468968 3.41623e-15)
(1.0373 0.00443199 1.52226e-15)
(1.03481 0.00411031 -4.83638e-16)
(1.03252 0.00373497 -2.64461e-15)
(1.03048 0.00332577 -4.99752e-15)
(1.0287 0.00290707 -7.56329e-15)
(1.02716 0.00250352 -1.03373e-14)
(1.02587 0.00213681 -1.32941e-14)
(1.02477 0.0018234 -1.6381e-14)
(1.02385 0.00157329 -1.95311e-14)
(1.02305 0.0013898 -2.26678e-14)
(1.02233 0.00127008 -2.57104e-14)
(1.02165 0.00120626 -2.85881e-14)
(1.02099 0.00118705 -3.12405e-14)
(1.02032 0.00119935 -3.36295e-14)
(1.01963 0.0012299 -3.57386e-14)
(1.01891 0.00126667 -3.75714e-14)
(1.01817 0.00129979 -3.91487e-14)
(1.0174 0.00132216 -4.05011e-14)
(1.01662 0.00132963 -4.16716e-14)
(1.01585 0.00132074 -4.26939e-14)
(1.01508 0.00129633 -4.35971e-14)
(1.01433 0.00125898 -4.43949e-14)
(1.01362 0.00121227 -4.50815e-14)
(1.01293 0.00116027 -4.56386e-14)
(1.01227 0.00110697 -4.60256e-14)
(1.01165 0.00105586 -4.61999e-14)
(1.01106 0.0010097 -4.6122e-14)
(1.01049 0.000970332 -4.57677e-14)
(1.00995 0.000938706 -4.51414e-14)
(1.00941 0.000914902 -4.42635e-14)
(1.00889 0.000898285 -4.31756e-14)
(1.00838 0.000887691 -4.19223e-14)
(1.00787 0.000881631 -4.054e-14)
(1.00736 0.000878499 -3.9053e-14)
(1.00684 0.000876759 -3.74585e-14)
(1.00633 0.000875088 -3.5744e-14)
(1.00582 0.000872475 -3.38926e-14)
(1.00531 0.000868259 -3.18976e-14)
(1.00481 0.000862115 -2.97744e-14)
(1.0043 0.000854006 -2.75465e-14)
(1.0038 0.0008441 -2.52452e-14)
(1.00331 0.000832686 -2.28851e-14)
(1.00282 0.000820097 -2.04503e-14)
(1.00234 0.000806638 -1.78887e-14)
(1.00187 0.000792541 -1.51037e-14)
(1.0014 0.000777928 -1.19765e-14)
(1.00094 0.000762783 -8.37913e-15)
(1.00049 0.000746935 -4.19315e-15)
(1.00005 0.000730064 6.7496e-16)
(0.999618 0.000711728 6.29014e-15)
(0.999193 0.000691422 1.26765e-14)
(0.998779 0.000668642 1.98168e-14)
(0.998376 0.000642895 2.76443e-14)
(0.997986 0.000613561 3.60401e-14)
(0.997613 0.000579543 4.48478e-14)
(0.997258 0.000538679 5.38953e-14)
(0.996926 0.000487069 6.3042e-14)
(0.996625 0.000418612 7.22156e-14)
(0.996363 0.000325178 8.14218e-14)
(0.996156 0.000197838 9.07176e-14)
(0.996023 2.92999e-05 1.00159e-13)
(0.995985 -0.000182733 1.09843e-13)
(0.996065 -0.00043211 1.20105e-13)
(0.996279 -0.000701916 1.31637e-13)
(0.996634 -0.000964574 1.45455e-13)
(0.997117 -0.00118516 1.62599e-13)
(0.997699 -0.00132779 1.83531e-13)
(0.998332 -0.00136385 2.07299e-13)
(0.998956 -0.00127988 2.30753e-13)
(0.999507 -0.00108263 2.48155e-13)
(0.999933 -0.000799474 2.51474e-13)
(1.0002 -0.000473577 2.315e-13)
(1.00029 -0.000154924 1.79695e-13)
(1.00024 0.000110418 9.05543e-14)
(1.00007 0.000289815 -3.59765e-14)
(0.999845 0.000369856 -1.92841e-13)
(0.999615 0.000357105 -3.65212e-13)
(0.999427 0.000274086 -5.31471e-13)
(0.999309 0.000152099 -6.66424e-13)
(0.999272 2.31434e-05 -7.46539e-13)
(0.999308 -8.687e-05 -7.56055e-13)
(0.999399 -0.000162157 -6.91866e-13)
(0.99952 -0.00019791 -5.65153e-13)
(0.999648 -0.000198446 -3.99076e-13)
(0.999763 -0.000173757 -2.23104e-13)
(0.999856 -0.000135723 -6.58202e-14)
(0.999922 -9.49963e-05 5.15805e-14)
(0.999962 -5.9134e-05 1.19224e-13)
(0.999983 -3.20483e-05 1.39057e-13)
(0.999992 -1.44784e-05 1.22242e-13)
(0.999993 -5.02502e-06 8.46364e-14)
(0.999991 -1.29339e-06 4.19776e-14)
(0.99999 -8.2485e-07 6.16269e-15)
(0.99999 -1.66894e-06 -1.65695e-14)
(0.999991 -2.59672e-06 -2.54682e-14)
(0.999993 -3.04852e-06 -2.36786e-14)
(0.999995 -2.9406e-06 -1.60535e-14)
(0.999997 -2.44085e-06 -7.18731e-15)
(0.999998 -1.78566e-06 -1.94663e-16)
(0.999999 -1.16791e-06 3.64801e-15)
(0.999999 -6.93812e-07 4.56006e-15)
(1 -3.88097e-07 3.58188e-15)
(1 -2.22817e-07 1.90223e-15)
(1 -1.49357e-07 4.03875e-16)
(1 -1.22005e-07 -4.92552e-16)
(1 -1.09449e-07 -7.69032e-16)
(1 -9.63076e-08 -6.32508e-16)
(1 -7.87982e-08 -3.3638e-16)
(1 -5.9283e-08 -7.03646e-17)
(1 -4.08803e-08 8.22422e-17)
(1 -2.74211e-08 1.26972e-16)
(1 -1.35881e-08 7.4143e-17)
(1.00013 -0.00251499 -2.23975e-18)
(1.00201 -0.00760307 -7.19005e-18)
(1.00632 -0.0130639 -5.80954e-18)
(1.01302 -0.0190529 -8.96712e-18)
(1.02257 -0.0256459 3.04298e-19)
(1.03538 -0.0327038 -3.05327e-17)
(1.05185 -0.0398942 2.12749e-17)
(1.07208 -0.0464092 8.32217e-17)
(1.09566 -0.0513811 -4.42989e-16)
(1.12159 -0.0536348 3.47746e-17)
(1.14766 -0.0525671 2.44887e-15)
(1.17204 -0.0492051 2.57966e-15)
(1.19402 -0.0442305 -4.99093e-15)
(1.21306 -0.0382963 -2.02092e-14)
(1.22896 -0.0319636 -3.68618e-14)
(1.24176 -0.0255773 -4.70344e-14)
(1.25157 -0.0193746 -4.5709e-14)
(1.25858 -0.0135136 -3.24159e-14)
(1.26298 -0.0081089 -1.02393e-14)
(1.26507 -0.00323203 1.62288e-14)
(1.26513 0.0011099 4.23833e-14)
(1.26347 0.00500665 6.61232e-14)
(1.2603 0.00865001 8.6121e-14)
(1.2557 0.0122926 1.01415e-13)
(1.24954 0.0161582 1.11398e-13)
(1.24156 0.0203336 1.15939e-13)
(1.23149 0.0246913 1.15552e-13)
(1.21917 0.0288916 1.11252e-13)
(1.20474 0.032473 1.04331e-13)
(1.18865 0.0349911 9.60516e-14)
(1.17156 0.0361429 8.74173e-14)
(1.1543 0.0358325 7.90992e-14)
(1.13763 0.0341706 7.14284e-14)
(1.12221 0.0314262 6.44263e-14)
(1.10849 0.0279581 5.7918e-14)
(1.09671 0.0241476 5.15906e-14)
(1.0869 0.0203449 4.50884e-14)
(1.07894 0.0168328 3.81078e-14)
(1.07256 0.013807 3.04749e-14)
(1.06745 0.0113707 2.22132e-14)
(1.06328 0.00954217 1.35305e-14)
(1.05974 0.00826965 4.7603e-15)
(1.05657 0.00745335 -3.73518e-15)
(1.05358 0.0069686 -1.16698e-14)
(1.05065 0.0066877 -1.88911e-14)
(1.04774 0.00649709 -2.54069e-14)
(1.04486 0.00630845 -3.13616e-14)
(1.04203 0.0060635 -3.6987e-14)
(1.03931 0.00573344 -4.25494e-14)
(1.03677 0.00531473 -4.82916e-14)
(1.03445 0.00482288 -5.43993e-14)
(1.03239 0.00428551 -6.09775e-14)
(1.0306 0.00373582 -6.80347e-14)
(1.02908 0.00320699 -7.54761e-14)
(1.02781 0.00272794 -8.31283e-14)
(1.02674 0.00232037 -9.07532e-14)
(1.02585 0.00199727 -9.80877e-14)
(1.02509 0.00176264 -1.04874e-13)
(1.0244 0.00161228 -1.10884e-13)
(1.02375 0.00153539 -1.1595e-13)
(1.02311 0.00151665 -1.19971e-13)
(1.02245 0.00153849 -1.22923e-13)
(1.02176 0.00158326 -1.24853e-13)
(1.02103 0.00163501 -1.25855e-13)
(1.02027 0.00168082 -1.26066e-13)
(1.01949 0.00171149 -1.25628e-13)
(1.0187 0.00172173 -1.24686e-13)
(1.01791 0.00170991 -1.23354e-13)
(1.01712 0.00167737 -1.2171e-13)
(1.01637 0.0016277 -1.19781e-13)
(1.01564 0.00156582 -1.17535e-13)
(1.01494 0.00149719 -1.14899e-13)
(1.01428 0.00142714 -1.11766e-13)
(1.01366 0.00136027 -1.08027e-13)
(1.01306 0.00130021 -1.03606e-13)
(1.01249 0.00124933 -9.84806e-14)
(1.01194 0.00120883 -9.27088e-14)
(1.01141 0.00117873 -8.64069e-14)
(1.01088 0.00115813 -7.97294e-14)
(1.01037 0.00114544 -7.28312e-14)
(1.00985 0.00113863 -6.58215e-14)
(1.00933 0.00113558 -5.87517e-14)
(1.00881 0.00113422 -5.16021e-14)
(1.00829 0.00113283 -4.43113e-14)
(1.00777 0.00113008 -3.68149e-14)
(1.00725 0.00112514 -2.90768e-14)
(1.00673 0.00111762 -2.11227e-14)
(1.00621 0.00110751 -1.30214e-14)
(1.0057 0.00109506 -4.85985e-15)
(1.0052 0.0010807 3.3027e-15)
(1.0047 0.00106487 1.14801e-14)
(1.0042 0.001048 1.97726e-14)
(1.00371 0.00103041 2.83621e-14)
(1.00323 0.00101227 3.74732e-14)
(1.00276 0.000993561 4.73341e-14)
(1.00229 0.000974087 5.81407e-14)
(1.00183 0.000953441 7.00487e-14)
(1.00138 0.000931052 8.31883e-14)
(1.00093 0.000906258 9.76847e-14)
(1.00049 0.000878376 1.13684e-13)
(1.00007 0.000846727 1.31362e-13)
(0.999649 0.000810483 1.50925e-13)
(0.999247 0.000768249 1.72617e-13)
(0.998861 0.000717364 1.96741e-13)
(0.998497 0.000653067 2.23693e-13)
(0.998159 0.000567912 2.53991e-13)
(0.997857 0.000451945 2.88251e-13)
(0.997604 0.000294168 3.27079e-13)
(0.997416 8.55099e-05 3.70901e-13)
(0.997313 -0.00017703 4.19934e-13)
(0.997313 -0.000486066 4.74594e-13)
(0.997432 -0.00082087 5.35738e-13)
(0.997675 -0.00114738 6.04391e-13)
(0.998031 -0.00142224 6.80899e-13)
(0.998476 -0.00160069 7.6346e-13)
(0.998966 -0.00164687 8.46375e-13)
(0.999448 -0.0015437 9.18677e-13)
(0.999866 -0.00129944 9.63877e-13)
(1.00017 -0.000948194 9.61277e-13)
(1.00034 -0.000544048 8.8892e-13)
(1.00035 -0.00014975 7.27904e-13)
(1.00024 0.000176796 4.67617e-13)
(1.00003 0.000394579 1.10948e-13)
(0.999783 0.000486862 -3.22176e-13)
(0.999546 0.000462206 -7.93132e-13)
(0.99936 0.000349436 -1.24672e-12)
(0.999252 0.00018855 -1.61875e-12)
(0.999229 2.04385e-05 -1.84895e-12)
(0.999281 -0.000121807 -1.89635e-12)
(0.999387 -0.000218109 -1.75195e-12)
(0.999521 -0.00026255 -1.44337e-12)
(0.999659 -0.00026102 -1.02925e-12)
(0.99978 -0.000226773 -5.85019e-13)
(0.999875 -0.000175494 -1.8442e-13)
(0.99994 -0.00012122 1.17306e-13)
(0.999978 -7.3875e-05 2.93683e-13)
(0.999995 -3.85285e-05 3.48508e-13)
(0.999999 -1.6024e-05 3.09346e-13)
(0.999997 -4.36003e-06 2.16111e-13)
(0.999993 -2.28122e-07 1.08786e-13)
(0.99999 -2.7071e-07 1.78606e-14)
(0.99999 -1.85402e-06 -4.04133e-14)
(0.999991 -3.35098e-06 -6.37453e-14)
(0.999993 -4.05902e-06 -5.98432e-14)
(0.999995 -3.92408e-06 -4.08928e-14)
(0.999997 -3.22413e-06 -1.85523e-14)
(0.999998 -2.31339e-06 -7.90182e-16)
(0.999999 -1.46925e-06 9.06164e-15)
(1 -8.37466e-07 1.14865e-14)
(1 -4.45337e-07 9.08476e-15)
(1 -2.46635e-07 4.85946e-15)
(1 -1.68963e-07 1.06405e-15)
(1 -1.47255e-07 -1.22136e-15)
(1 -1.39016e-07 -1.93782e-15)
(1 -1.25127e-07 -1.6018e-15)
(1 -1.02632e-07 -8.57592e-16)
(1 -7.64586e-08 -1.83175e-16)
(1 -5.18223e-08 2.05378e-16)
(1 -3.40942e-08 3.20161e-16)
(1 -1.66166e-08 1.89365e-16)
(1.00012 -0.00301985 1.95829e-18)
(1.00189 -0.00913634 8.1577e-18)
(1.00595 -0.0157411 5.76902e-18)
(1.01233 -0.0230522 1.02059e-17)
(1.02159 -0.0311947 2.30907e-17)
(1.03424 -0.0400319 -9.81668e-17)
(1.05088 -0.0491775 4.68887e-16)
(1.07177 -0.0575807 -9.92962e-16)
(1.09661 -0.0641067 -4.63389e-16)
(1.12433 -0.0670136 6.95059e-15)
(1.15205 -0.065453 2.44461e-15)
(1.17758 -0.061016 -3.11081e-14)
(1.20031 -0.0546132 -7.54081e-14)
(1.21976 -0.0470932 -8.86314e-14)
(1.23581 -0.0391625 -4.0295e-14)
(1.24859 -0.0312247 6.99122e-14)
(1.25827 -0.0235513 2.17083e-13)
(1.26506 -0.0163205 3.6741e-13)
(1.2692 -0.00967141 4.9233e-13)
(1.27098 -0.00369962 5.75052e-13)
(1.27076 0.00157549 6.12514e-13)
(1.26889 0.00626355 6.18147e-13)
(1.26565 0.0106192 5.97594e-13)
(1.2611 0.0149903 5.55596e-13)
(1.25509 0.0196947 4.97817e-13)
(1.24724 0.0248674 4.31035e-13)
(1.23716 0.0303492 3.62424e-13)
(1.22459 0.0356872 2.98052e-13)
(1.20965 0.0402603 2.41677e-13)
(1.19282 0.0434727 1.94454e-13)
(1.17488 0.0449239 1.55505e-13)
(1.15677 0.0444936 1.22899e-13)
(1.13936 0.042336 9.44139e-14)
(1.1234 0.0388098 6.7992e-14)
(1.10935 0.0343846 4.18619e-14)
(1.09745 0.029553 1.46469e-14)
(1.08771 0.0247617 -1.45155e-14)
(1.07995 0.0203671 -4.58217e-14)
(1.07386 0.0166117 -7.86806e-14)
(1.06909 0.0136191 -1.11803e-13)
(1.06523 0.0114042 -1.43471e-13)
(1.06196 0.00989389 -1.71975e-13)
(1.059 0.00895481 -1.96056e-13)
(1.05614 0.00842383 -2.1518e-13)
(1.05327 0.00813611 -2.29599e-13)
(1.05037 0.00794702 -2.4019e-13)
(1.04744 0.00774588 -2.48189e-13)
(1.04455 0.00746134 -2.54906e-13)
(1.04177 0.00706004 -2.61495e-13)
(1.03917 0.00654059 -2.68811e-13)
(1.0368 0.00592535 -2.7733e-13)
(1.03471 0.00525142 -2.87137e-13)
(1.03292 0.00456228 -2.97959e-13)
(1.03142 0.00390081 -3.09241e-13)
(1.03017 0.00330388 -3.20244e-13)
(1.02915 0.00279885 -3.30164e-13)
(1.02831 0.00240175 -3.38252e-13)
(1.02759 0.00211707 -3.4391e-13)
(1.02694 0.00193886 -3.46748e-13)
(1.02633 0.00185283 -3.46607e-13)
(1.02571 0.0018391 -3.43544e-13)
(1.02506 0.00187505 -3.37791e-13)
(1.02437 0.00193816 -3.29702e-13)