/*--------------------------------*- C++ -*----------------------------------*\
  =========                 |
  \\      /  F ield         | OpenFOAM: The Open Source CFD Toolbox
   \\    /   O peration     | Website:  https://openfoam.org
    \\  /    A nd           | Version:  11
     \\/     M anipulation  |
\*---------------------------------------------------------------------------*/
FoamFile
{
    format      ascii;
    class       surfaceScalarField;
    location    "15.805752";
    object      phi;
}
// * * * * * * * * * * * * * * * * * * * * * * * * * * * * * * * * * * * * * //

dimensions      [0 3 -1 0 0 0 0];

internalField   nonuniform List<scalar> 
14638
(
0.00250234
-2.33839e-06
0.00250963
-7.29624e-06
0.00252237
-1.27377e-05
0.00254097
-1.85971e-05
0.00256561
-2.46427e-05
0.00259598
-3.03682e-05
0.00263104
-3.50606e-05
0.0026687
-3.76637e-05
0.00270584
-3.7137e-05
0.0027384
-3.25594e-05
0.00276207
-2.36648e-05
0.00277378
-1.17183e-05
0.0027723
1.48031e-06
0.00275829
1.40092e-05
0.00273502
2.32741e-05
0.00270793
2.70932e-05
0.00268336
2.45631e-05
0.00266712
1.6248e-05
0.00266295
4.16541e-06
0.00267149
-8.53543e-06
0.00268948
-1.79894e-05
0.00271004
-2.05629e-05
0.00272457
-1.45266e-05
0.00272588
-1.31275e-06
0.00271077
1.5112e-05
0.00268048
3.02857e-05
0.00263955
4.09324e-05
0.00259419
4.53536e-05
0.0025512
4.29973e-05
0.00251726
3.39325e-05
0.0024986
1.86679e-05
0.00250016
-1.56702e-06
0.0025243
-2.414e-05
0.00256867
-4.43675e-05
0.00262486
-5.61849e-05
0.00267958
-5.47254e-05
0.00271894
-3.93585e-05
0.00273352
-1.45796e-05
0.00272123
1.22861e-05
0.00268662
3.46112e-05
0.00263792
4.86981e-05
0.00258425
5.36697e-05
0.00253414
5.01097e-05
0.00249532
3.88252e-05
0.00247484
2.0482e-05
0.00247859
-3.75308e-06
0.00250947
-3.08821e-05
0.00256463
-5.51619e-05
0.00263383
-6.91946e-05
0.00270105
-6.7223e-05
0.00274966
-4.86079e-05
0.0027684
-1.87391e-05
0.00275488
1.35193e-05
0.00271495
3.99254e-05
0.00265912
5.58303e-05
0.00259867
6.04564e-05
0.00254343
5.52331e-05
0.00250154
4.18986e-05
0.00247986
2.1673e-05
0.00248394
-4.08138e-06
0.00251624
-3.22951e-05
0.00257352
-5.72828e-05
0.00264542
-7.18975e-05
0.00271599
-7.05696e-05
0.00276838
-5.23917e-05
0.00279048
-2.21033e-05
0.00277871
1.17761e-05
0.00273824
4.04651e-05
0.00268011
5.81363e-05
0.00261698
6.31296e-05
0.00256005
5.69274e-05
0.00251797
4.20797e-05
0.00249721
2.07614e-05
0.00250222
-5.00615e-06
0.00253418
-3.19658e-05
0.00258906
-5.48833e-05
0.00265677
-6.77038e-05
0.00272286
-6.60963e-05
0.00277253
-4.96614e-05
0.0027949
-2.23773e-05
0.00278607
8.83022e-06
0.0027496
3.64719e-05
0.00269479
5.48154e-05
0.00263357
6.12163e-05
0.00257753
5.60405e-05
0.00253608
4.14444e-05
0.00251601
2.00757e-05
0.00252119
-5.17767e-06
0.00255167
-3.04789e-05
0.00260247
-5.08033e-05
0.00266359
-6.11266e-05
0.00272206
-5.84673e-05
0.00276537
-4.33097e-05
0.00278483
-1.94624e-05
0.00277745
7.38048e-06
0.00274602
3.14341e-05
0.00269779
4.8233e-05
0.00264249
5.52947e-05
0.00259039
5.21046e-05
0.00255074
3.96485e-05
0.00253081
1.99273e-05
0.00253488
-4.07016e-06
0.00256299
-2.81113e-05
0.00261006
-4.70671e-05
0.00266636
-5.62999e-05
0.00271981
-5.34482e-05
0.00275924
-3.94319e-05
0.00277727
-1.80345e-05
0.00277168
5.591e-06
0.00274509
2.65946e-05
0.00270356
4.15269e-05
0.00265502
4.85438e-05
0.00260799
4.70298e-05
0.00257079
3.71973e-05
0.00255071
2.0086e-05
0.00255271
-2.00744e-06
0.00257789
-2.51755e-05
0.00262226
-4.4373e-05
0.00267713
-5.48663e-05
0.0027311
-5.39743e-05
0.0027732
-4.20991e-05
0.0027957
-2.25038e-05
0.00279575
-4.23238e-08
0.00277528
2.04714e-05
0.00273971
3.55625e-05
0.00269617
4.35472e-05
0.00265204
4.41229e-05
0.00261445
3.7597e-05
0.00258998
2.44679e-05
0.00258423
5.75164e-06
0.0026005
-1.62734e-05
0.00263829
-3.77947e-05
0.00269255
-5.42513e-05
0.00275442
-6.18732e-05
0.0028135
-5.90804e-05
0.00286049
-4.69886e-05
0.00288938
-2.889e-05
0.00289847
-9.09079e-06
0.00289011
8.35539e-06
0.0028695
2.06165e-05
0.00284297
2.65236e-05
0.00281653
2.64423e-05
0.00279479
2.1745e-05
0.0027806
1.41896e-05
0.00277509
5.50891e-06
0.00277779
-2.70288e-06
0.00278679
-9.00285e-06
0.00279902
-1.22313e-05
0.00281087
-1.1841e-05
0.00281902
-8.15719e-06
0.00282149
-2.46915e-06
0.0028181
3.39504e-06
0.00281072
7.37841e-06
0.00280261
8.10778e-06
0.00279817
4.43766e-06
0.00280129
-3.11499e-06
0.00281624
-1.4948e-05
0.00284462
-2.83847e-05
0.00288792
-4.33007e-05
-6.23058e-05
0.00250232
-4.65973e-06
0.00250958
-1.45505e-05
0.00252227
-2.54309e-05
0.00254086
-3.71897e-05
0.0025656
-4.93769e-05
0.00259622
-6.09902e-05
0.00263176
-7.06032e-05
0.00267015
-7.6054e-05
0.00270822
-7.52023e-05
0.00274173
-6.60696e-05
0.0027661
-4.80423e-05
0.00277814
-2.37573e-05
0.00277649
3.13152e-06
0.00276174
2.87632e-05
0.00273723
4.77788e-05
0.00270869
5.56408e-05
0.00268278
5.04667e-05
0.00266564
3.33851e-05
0.00266132
8.49156e-06
0.00267058
-1.77978e-05
0.0026901
-3.75062e-05
0.00271256
-4.30258e-05
0.00272871
-3.06791e-05
0.00273085
-3.44635e-06
0.00271559
3.03653e-05
0.00268439
6.14909e-05
0.00264207
8.3254e-05
0.00259511
9.231e-05
0.00255046
8.76456e-05
0.00251497
6.94246e-05
0.00249505
3.85838e-05
0.00249606
-2.57206e-06
0.00252078
-4.88568e-05
0.00256709
-9.06808e-05
0.00262626
-0.000115357
0.00268411
-0.000112576
0.00272569
-8.09358e-05
0.00274097
-2.98624e-05
0.00272794
2.53222e-05
0.00269164
7.09056e-05
0.00264089
9.94473e-05
0.00258514
0.000109417
0.00253304
0.000102211
0.00249237
7.94965e-05
0.00247041
4.244e-05
0.00247356
-6.90012e-06
0.0025053
-6.26256e-05
0.00256303
-0.000112887
0.00263598
-0.000142141
0.00270697
-0.000138212
0.00275811
-9.97499e-05
0.00277748
-3.81101e-05
0.00276281
2.8184e-05
0.00272064
8.20969e-05
0.00266224
0.000114238
0.00259936
0.000123335
0.00254198
0.000112608
0.00249816
8.57178e-05
0.00247482
4.50102e-05
0.00247781
-7.06478e-06
0.00251008
-6.45693e-05
0.00256882
-0.000116016
0.00264356
-0.000146638
0.00271767
-0.000144681
0.00277323
-0.000107952
0.00279717
-4.6046e-05
0.00278549
2.34516e-05
0.00274363
8.23297e-05
0.00268324
0.000118529
0.00261764
0.00012873
0.00255839
0.000116178
0.00251423
8.62385e-05
0.00249173
4.32563e-05
0.00249567
-8.94854e-06
0.00252769
-6.3978e-05
0.00258391
-0.00011111
0.00265394
-0.000137728
0.00272263
-0.000134788
0.00277445
-0.000101481
0.00279811
-4.60393e-05
0.00278958
1.7367e-05
0.00275252
7.35296e-05
0.00269647
0.000110864
0.00263362
0.00012406
0.00257579
0.000113873
0.00253264
8.45949e-05
0.00251131
4.14064e-05
0.00251615
-1.00193e-05
0.00254754
-6.18668e-05
0.00260037
-0.000103631
0.00266399
-0.000124753
0.0027246
-0.00011907
0.00276908
-8.77877e-05
0.00278861
-3.89978e-05
0.00278047
1.55239e-05
0.00274783
6.40719e-05
0.00269827
9.77937e-05
0.00264168
0.000111884
0.00258838
0.0001054
0.00254779
8.02376e-05
0.0025275
4.02229e-05
0.00253217
-8.74578e-06
0.00256205
-5.7985e-05
0.00261174
-9.67565e-05
0.00267078
-0.000115343
0.00272625
-0.000108913
0.00276641
-7.95929e-05
0.00278381
-3.54411e-05
0.00277659
1.28151e-05
0.0027479
5.52857e-05
0.00270431
8.51154e-05
0.00265406
9.87968e-05
0.00260583
9.526e-05
0.00256807
7.49559e-05
0.00254827
3.98828e-05
0.00255165
-5.38563e-06
0.0025793
-5.28232e-05
0.00262685
-9.19305e-05
0.00268487
-0.000112886
0.00274116
-0.000110262
0.00278418
-8.51146e-05
0.00280607
-4.44009e-05
0.00280426
1.77437e-06
0.00278118
4.35506e-05
0.00274281
7.39262e-05
0.00269673
8.96282e-05
0.00265065
9.02032e-05
0.00261188
7.63659e-05
0.00258723
4.91189e-05
0.0025825
1.04899e-05
0.00260105
-3.48278e-05
0.00264213
-7.88745e-05
0.00270003
-0.000112151
0.00276509
-0.000126933
0.00282619
-0.000120182
0.00287368
-9.44736e-05
0.00290158
-5.67932e-05
0.00290855
-1.60627e-05
0.00289744
1.94683e-05
0.00287392
4.41372e-05
0.00284475
5.56924e-05
0.00281621
5.4984e-05
0.0027931
4.48532e-05
0.00277842
2.88684e-05
0.00277339
1.0537e-05
0.00277755
-6.85792e-06
0.0027888
-2.0252e-05
0.00280368
-2.71125e-05
0.00281804
-2.62002e-05
0.00282806
-1.8179e-05
0.00283138
-5.79419e-06
0.00282774
7.04176e-06
0.00281912
1.59958e-05
0.00280907
1.81555e-05
0.0028023
1.12111e-05
0.002803
-3.81985e-06
0.00281567
-2.76116e-05
0.0028421
-5.48214e-05
0.00288378
-8.49771e-05
-0.000123853
0.00250229
-6.94649e-06
0.00250945
-2.17154e-05
0.00252205
-3.80302e-05
0.00254063
-5.57639e-05
0.00256553
-7.42812e-05
0.00259664
-9.21049e-05
0.00263314
-0.000107098
0.00267298
-0.000115895
0.00271292
-0.000115139
0.00274835
-0.000101499
0.00277415
-7.38432e-05
0.00278681
-3.64193e-05
0.00278479
5.1489e-06
0.00276852
4.50348e-05
0.00274154
7.47622e-05
0.0027101
8.70813e-05
0.00268158
7.89854e-05
0.00266279
5.21769e-05
0.00265831
1.29657e-05
0.00266922
-2.87044e-05
0.00269195
-6.02422e-05
0.00271829
-6.93615e-05
0.0027376
-4.99885e-05
0.00274109
-6.93933e-06
0.00272515
4.63071e-05
0.0026917
9.49402e-05
0.0026463
0.000128652
0.00259601
0.000142602
0.00254811
0.000135543
0.00250972
0.000107816
0.00248766
6.0642e-05
0.00248798
-2.89251e-06
0.00251433
-7.52061e-05
0.00256501
-0.000141353
0.00263051
-0.000180859
0.0026947
-0.000176773
0.00274045
-0.00012668
0.00275652
-4.59345e-05
0.0027412
4.06452e-05
0.00270082
0.000111282
0.0026455
0.000154768
0.00258544
0.000169478
0.00252949
0.000158158
0.0024855
0.000123487
0.00246109
6.68522e-05
0.00246344
-9.24918e-06
0.00249702
-9.62047e-05
0.00255972
-0.000175588
0.00264009
-0.000222515
0.00271884
-0.000216957
0.00277534
-0.00015625
0.00279591
-5.86837e-05
0.00277844
4.56571e-05
0.00273106
0.000129475
0.00266693
0.00017837
0.00259898
0.000191278
0.00253745
0.000174138
0.00249012
0.000133054
0.00246375
7.13767e-05
0.00246464
-7.95378e-06
0.00249675
-9.66834e-05
0.00255812
-0.000177386
0.00263818
-0.000226697
0.00271898
-0.000225473
0.00278059
-0.000169562
0.00280814
-7.35989e-05
0.00279676
3.48352e-05
0.00275223
0.00012686
0.00268744
0.000183313
0.00261705
0.000199123
0.00255341
0.000179819
0.00250556
0.000134087
0.00248039
6.84267e-05
0.00248339
-1.19455e-05
0.00251695
-9.75401e-05
0.00257721
-0.000171368
0.00265258
-0.000213103
0.0027262
-0.000208406
0.00278116
-0.000156443
0.00280573
-7.06101e-05
0.00279617
2.69287e-05
0.00275677
0.00011293
0.00269767
0.000169967
0.00263152
0.000190208
0.00257049
0.0001749
0.00252471
0.00013038
0.00250203
6.40816e-05
0.00250767
-1.56571e-05
0.00254237
-9.65668e-05
0.00260037
-0.000161636
0.00266947
-0.000193847
0.00273407
-0.00018367
0.00277997
-0.000133692
0.00279832
-5.73455e-05
0.00278718
2.66627e-05
0.00275083
0.000100419
0.00269771
0.000150914
0.00263814
0.000171455
0.00258261
0.000160931
0.0025408
0.000122052
0.00252084
6.01831e-05
0.00252798
-1.58839e-05
0.00256244
-9.24497e-05
0.00261794
-0.000152252
0.00268243
-0.000179839
0.00274145
-0.000167928
0.00278234
-0.000120489
0.00279767
-5.07719e-05
0.00278635
2.41384e-05
0.00275271
8.89252e-05
0.00270442
0.000133404
0.00265045
0.000152772
0.00259986
0.000145849
0.0025614
0.000113417
0.00254292
5.83652e-05
0.00254987
-1.23371e-05
0.00258305
-8.60065e-05
0.00263707
-0.000145949
0.00270098
-0.000176798
0.0027612
-0.000170482
0.00280536
-0.000129275
0.00282552
-6.45577e-05
0.00281963
7.66513e-06
0.00279111
7.2066e-05
0.00274704
0.000118002
0.00269589
0.000140774
0.00264604
0.000140056
0.00260525
0.000117155
0.00258074
7.36235e-05
0.00257863
1.2603e-05
0.00260218
-5.838e-05
0.00264983
-0.000126519
0.00271446
-0.000176784
0.00278493
-0.000197398
0.00284903
-0.000184285
0.00289671
-0.000142158
0.00292225
-8.23258e-05
0.00292494
-1.87561e-05
0.00290851
3.58964e-05
0.00287952
7.31238e-05
0.00284549
8.97299e-05
0.00281322
8.72538e-05
0.00278789
7.01755e-05
0.00277279
4.39763e-05
0.00276927
1.40519e-05
0.00277679
-1.43805e-05
0.00279278
-3.62382e-05
0.00281288
-4.72118e-05
0.00283186
-4.51761e-05
0.00284495
-3.12696e-05
0.00284925
-1.00963e-05
0.00284444
1.18499e-05
0.00283288
2.75524e-05
0.00281871
3.23323e-05
0.00280725
2.26681e-05
0.00280321
2.15391e-07
0.00281159
-3.59826e-05
0.00283426
-7.74968e-05
0.00287327
-0.00012399
-0.00018409
0.00250223
-9.17725e-06
0.00250925
-2.87332e-05
0.00252168
-5.04656e-05
0.0025402
-7.42772e-05
0.00256532
-9.94007e-05
0.00259714
-0.000123923
0.00263505
-0.000145008
0.0026771
-0.000157948
0.00271995
-0.000157987
0.00275839
-0.000139939
0.00278643
-0.000101884
0.00280011
-5.00981e-05
0.00279758
7.67152e-06
0.00277898
6.36343e-05
0.00274813
0.000105616
0.00271215
0.000123062
0.00267952
0.000111619
0.00265809
7.36027e-05
0.00265332
1.77348e-05
0.00266677
-4.21538e-05
0.00269459
-8.80667e-05
0.00272709
-0.000101859
0.0027514
-7.42967e-05
0.00275697
-1.2508e-05
0.00273982
6.34554e-05
0.00270274
0.000132022
0.00265249
0.000178899
0.00259705
0.000198045
0.0025442
0.000188389
0.00250141
0.000150608
0.00247606
8.59902e-05
0.00247531
-2.13668e-06
0.00250428
-0.000104175
0.00256202
-0.000199099
0.00263775
-0.000256582
0.00271199
-0.000251014
0.00276405
-0.00017874
0.00278094
-6.28274e-05
0.00276159
5.99943e-05
0.00271449
0.000158378
0.0026519
0.000217362
0.0025852
0.000236183
0.0025235
0.000219854
0.00247458
0.000172411
0.00244617
9.52539e-05
0.00244612
-9.19818e-06
0.00248016
-0.000130238
0.00254765
-0.000243082
0.00263756
-0.000312425
0.00272847
-0.000307866
0.0027954
-0.000223176
0.00282057
-8.38598e-05
0.00280076
6.54692e-05
0.00274622
0.00018402
0.00267341
0.000251177
0.00259765
0.00026704
0.00252976
0.000242025
0.00247699
0.000185823
0.00244577
0.000102597
0.0024433
-5.47792e-06
0.00247541
-0.000128799
0.0025413
-0.000243278
0.00262948
-0.000314874
0.00271947
-0.000315463
0.00278878
-0.000238872
0.00282081
-0.000105626
0.00280991
4.57291e-05
0.00276218
0.000174597
0.00269175
0.000253741
0.00261487
0.000276005
0.00254507
0.000249617
0.0024921
0.000187052
0.00246374
9.67862e-05
0.00246681
-1.50142e-05
0.0025046
-0.000135324
0.00257247
-0.000239238
0.00265642
-0.000297056
0.00273677
-0.00028876
0.00279486
-0.000214534
0.00281881
-9.45581e-05
0.00280591
3.98326e-05
0.00276179
0.000157051
0.00269762
0.000234139
0.00262662
0.000261201
0.00256134
0.000240182
0.00251251
0.000179212
0.00248908
8.75075e-05
0.00249736
-2.39327e-05
0.00253819
-0.000137395
0.00260438
-0.000227833
0.00268131
-0.000270772
0.00275108
-0.000253443
0.00279822
-0.00018083
0.00281394
-7.30642e-05
0.0027975
4.31031e-05
0.00275485
0.000143071
0.00269583
0.000209926
0.00263157
0.00023572
0.00257289
0.00021961
0.00252989
0.000165051
0.00251139
7.8685e-05
0.00252311
-2.76e-05
0.00256478
-0.000134128
0.0026285
-0.000215968
0.00270008
-0.000251423
0.00276328
-0.000231122
0.00280456
-0.00016177
0.00281659
-6.28082e-05
0.00279928
4.1458e-05
0.00275844
0.000129764
0.00270326
0.00018858
0.00264383
0.000212201
0.00258992
0.000199763
0.00255078
0.000152555
0.00253473
7.4419e-05
0.00254727
-2.4881e-05
0.00258838
-0.000127118
0.00265095
-0.000208516
0.00272206
-0.000247909
0.00278663
-0.00023505
0.0028316
-0.000174243
0.00284909
-8.20529e-05
0.00283773
1.90248e-05
0.00280204
0.000107759
0.00275038
0.000169664
0.00269244
0.000198705
0.00263756
0.000194939
0.00259425
0.000160463
0.00257037
9.75024e-05
0.00257234
1.06341e-05
0.00260296
-8.90015e-05
0.0026592
-0.000182755
0.00273191
-0.000249497
0.00280815
-0.000273636
0.00287475
-0.000250884
0.00292158
-0.000188989
0.00294346
-0.000104201
0.00294053
-1.58319e-05
0.00291748
5.8945e-05
0.00288184
0.00010877
0.00284196
0.000129607
0.00280537
0.000123848
0.00277779
9.77506e-05
0.00276294
5.88273e-05
0.0027624
1.4588e-05
0.00277536
-2.73408e-05
0.00279833
-5.92022e-05
0.0028255
-7.43843e-05
0.00285011
-6.97848e-05
0.00286625
-4.74151e-05
0.00287057
-1.44084e-05
0.00286292
1.95e-05
0.00284631
4.41561e-05
0.00282572
5.29228e-05
0.00280731
4.10826e-05
0.00279637
1.11575e-05
0.00279855
-3.81716e-05
0.00281587
-9.4809e-05
0.00285147
-0.000159593
-0.000242836
0.00250215
-1.13254e-05
0.00250895
-3.55307e-05
0.00252112
-6.26382e-05
0.00253949
-9.26459e-05
0.00256482
-0.000124729
0.0025975
-0.000156609
0.00263727
-0.000184779
0.00268233
-0.00020301
0.00272926
-0.000204913
0.00277196
-0.000182641
0.00280315
-0.000133077
0.00281828
-6.52226e-05
0.0028151
1.08477e-05
0.00279328
8.54603e-05
0.00275699
0.000141901
0.00271461
0.000165443
0.00267614
0.000150089
0.00265094
9.88064e-05
0.00264569
2.29852e-05
0.00266272
-5.9192e-05
0.00269787
-0.00012321
0.00273929
-0.000143285
0.00277082
-0.000105818
0.00277928
-2.09677e-05
0.00276025
8.24827e-05
0.00271789
0.000174376
0.00266081
0.000235985
0.00259825
0.000260604
0.00253863
0.000248009
0.00248974
0.0001995
0.00245966
0.000116068
0.0024572
3.19244e-07
0.00248989
-0.000136865
0.00255806
-0.000267265
0.0026489
-0.00034742
0.00273774
-0.000339855
0.00279847
-0.00023947
0.00281577
-8.01274e-05
0.00278997
8.57956e-05
0.00273295
0.000215393
0.00266009
0.000290228
0.00258434
0.000311926
0.002515
0.000289192
0.00245925
0.00022816
0.00242422
0.000130285
0.00241806
-3.0365e-06
0.00244875
-0.000160929
0.00251899
-0.000313317
0.00261927
-0.000412705
0.00272604
-0.00041464
0.00280907
-0.000306208
0.00284461
-0.000119397
0.00282604
8.40405e-05
0.0027648
0.000245261
0.00268155
0.000334421
0.00259548
0.000353115
0.00251885
0.000318653
0.00245852
0.000246152
0.00242097
0.000140152
0.00241536
1.24953e-07
0.00245014
-0.000163573
0.00252471
-0.000317847
0.00262461
-0.000414775
0.00272528
-0.000416137
0.00280152
-0.000315112
0.00283609
-0.000140195
0.00282385
5.7967e-05
0.00277166
0.000226788
0.00269466
0.000330736
0.0026103
0.000360371
0.00253323
0.000326688
0.00247439
0.000245888
0.00244326
0.000127914
0.00244847
-2.02255e-05
0.00249367
-0.000180524
0.00257223
-0.000317791
0.00266672
-0.000391546
0.00275439
-0.000376431
0.00281494
-0.000275083
0.00283655
-0.000116172
0.00281794
5.84443e-05
0.00276667
0.000208315
0.00269546
0.000305352
0.0026183
0.000338365
0.00254813
0.000310353
0.00249645
0.000230885
0.00247352
0.000110437
0.00248657
-3.69789e-05
0.00253583
-0.00018666
0.00261188
-0.000303879
0.00269731
-0.000356201
0.00277215
-0.000328285
0.00281996
-0.000228644
0.00283211
-8.52107e-05
0.00280899
6.62234e-05
0.00275834
0.000193723
0.00269175
0.000276512
0.00262151
0.000305965
0.00255911
0.000282003
0.00251531
0.000208854
0.00249961
9.43866e-05
0.00251781
-4.58008e-05
0.00256844
-0.000184753
0.0026413
-0.000288831
0.00271997
-0.000330094
0.00278676
-0.000297907
0.00282767
-0.000202681
0.00283566
-7.07981e-05
0.00281151
6.56058e-05
0.00276247
0.000178808
0.0026993
0.000251747
0.00263346
0.000278035
0.00257576
0.000257467
0.00253625
0.000192062
0.00252374
8.69285e-05
0.00254343
-4.45743e-05
0.0025938
-0.000177484
0.00266545
-0.000280167
0.0027434
-0.00032586
0.00281142
-0.000303063
0.00285623
-0.000219054
0.00287032
-9.61507e-05
0.00285299
3.63616e-05
0.00280967
0.000151077
0.00274991
0.000229428
0.00268464
0.000263976
0.00262433
0.000255241
0.00257857
0.000206226
0.00255604
0.000120034
0.00256335
3.3235e-06
0.00260231
-0.000127961
0.00266773
-0.000248175
0.00274804
-0.000329812
0.00282863
-0.000354221
0.00289585
-0.000318109
0.00294008
-0.000233215
0.00295703
-0.000121153
0.0029478
-6.60628e-06
0.00291794
8.88134e-05
0.00287576
0.000150951
0.00283039
0.000174977
0.00279006
0.000164176
0.0027612
0.000126609
0.00274811
7.19205e-05
0.00275255
1.01419e-05
0.00277311
-4.78936e-05
0.00280476
-9.08525e-05
0.00283971
-0.000109342
0.00286945
-9.95237e-05
0.00288711
-6.50698e-05
0.00288924
-1.65426e-05
0.00287633
3.24083e-05
0.00285233
6.81547e-05
0.00282319
8.20628e-05
0.00279593
6.83424e-05
0.00277644
3.06479e-05
0.00277118
-3.29063e-05
0.00278233
-0.000105957
0.00281478
-0.000192045
-0.000300418
0.00250203
-1.33579e-05
0.00250852
-4.20138e-05
0.00252029
-7.44116e-05
0.00253837
-0.000110729
0.00256383
-0.000150186
0.00259747
-0.000190252
0.00263951
-0.000226821
0.00268844
-0.000251935
0.00274081
-0.000257287
0.00278929
-0.000231115
0.00282475
-0.000168545
0.00284196
-8.24241e-05
0.00283811
1.46926e-05
0.00281206
0.000111511
0.00276845
0.000185515
0.00271737
0.000216522
0.00267093
0.000196523
0.00264047
0.000129273
0.00263433
2.91216e-05
0.00265607
-8.09359e-05
0.00270123
-0.00016837
0.00275506
-0.000197113
0.00279659
-0.000147341
0.00280892
-3.33043e-05
0.00278714
0.000104263
0.00273754
0.000223981
0.00267134
0.000302178
0.00259954
0.000332408
0.00253118
0.000316369
0.00247428
0.000256398
0.00243773
0.000152624
0.00243235
5.69771e-06
0.00246842
-0.000172939
0.00254826
-0.0003471
0.00265824
-0.000457406
0.00276805
-0.000449664
0.00284284
-0.000314262
0.00286198
-9.92621e-05
0.00282739
0.000120384
0.00275658
0.000286202
0.00266993
0.000376873
0.00258266
0.000399197
0.0025038
0.000368059
0.00243886
0.000293092
0.00239356
0.000175584
0.00237737
1.31593e-05
0.00240311
-0.000186672
0.00247781
-0.000388013
0.00259132
-0.000526214
0.00271559
-0.000538917
0.00281565
-0.000406261
0.00286359
-0.00016734
0.00284934
9.82912e-05
0.00278361
0.000310994
0.0026901
0.00042793
0.00259225
0.00045096
0.00250479
0.000406114
0.00243518
0.000315766
0.00239122
0.000184106
0.00238509
6.261e-06
0.00242702
-0.000205508
0.0025144
-0.00040522
0.00262803
-0.00052841
0.00273912
-0.000527225
0.00282034
-0.000396337
0.00285455
-0.0001744
0.00283805
7.44636e-05
0.00277935
0.000285496
0.00269471
0.000415369
0.00260232
0.00045276
0.00251767
0.000411338
0.00245323
0.000310334
0.00242073
0.000160415
0.00243043
-2.99253e-05
0.00248516
-0.000235257
0.00257515
-0.000407782
0.00267954
-0.000495938
0.00277339
-0.000470275
0.0028355
-0.000337197
0.00285412
-0.000134794
0.00282897
8.35965e-05
0.00276944
0.000267849
0.00269004
0.000384747
0.00260593
0.000422478
0.00253075
0.000385536
0.00247698
0.000284654
0.0024561
0.000131318
0.00247565
-5.65368e-05
0.00253434
-0.000245347
0.00261993
-0.000389469
0.00271257
-0.000448841
0.00279105
-0.00040676
0.00283865
-0.000276251
0.002847
-9.3562e-05
0.00281724
9.59878e-05
0.00275846
0.000252508
0.0026839
0.000351066
0.00260728
0.000382587
0.00254118
0.000348101
0.00249728
0.000252755
0.00248566
0.000106004
0.00251159
-7.17287e-05
0.00257159
-0.000244755
0.00265289
-0.000370124
0.00273711
-0.000414322
0.00280588
-0.000366668
0.00284535
-0.000242154
0.00284898
-7.44332e-05
0.00281824
9.63532e-05
0.00276135
0.000235694
0.00269041
0.000322686
0.00261828
0.00035017
0.00255704
0.000318704
0.00251783
0.000231271
0.00250989
9.48729e-05
0.0025376
-7.22871e-05
0.00259729
-0.000237177
0.00267702
-0.000359897
0.00276004
-0.000408879
0.00282962
-0.000372641
0.00287291
-0.000262338
0.00288306
-0.000106303
0.00285995
5.94659e-05
0.00280966
0.00020137
0.00274252
0.000296564
0.00267053
0.000335973
0.00260536
0.00032041
0.00255786
0.000253727
0.00253766
0.000140231
0.00255129
-1.03082e-05
0.00259892
-0.00017559
0.00267266
-0.000321917
0.00275851
-0.000415661
0.00284071
-0.000436417
0.00290589
-0.000383289
0.00294549
-0.000272815
0.00295643
-0.000132091
0.00294074
9.08315e-06
0.00290464
0.000124916
0.002857
0.00019859
0.00280749
0.000224481
0.00276502
0.000206651
0.00273679
0.000154841
0.00272773
8.09767e-05
0.00273956
-1.68518e-06
0.00276959
-7.79253e-05
0.00281058
-0.000131845
0.00285241
-0.000151165
0.00288501
-0.000132126
0.00290118
-8.12435e-05
0.00289808
-1.34439e-05
0.00287725
5.32395e-05
0.00284378
0.000101631
0.00280456
0.000121279
0.00276737
0.000105532
0.00273866
5.93529e-05
0.0027258
-2.00447e-05
0.00273137
-0.000111525
0.00276203
-0.000222703
-0.000357365
0.00250188
-1.52335e-05
0.00250792
-4.80629e-05
0.00251911
-8.56004e-05
0.00253669
-0.000128309
0.0025621
-0.000175589
0.00259668
-0.000224839
0.00264134
-0.000271473
0.00269503
-0.000305625
0.00275447
-0.000316734
0.00281054
-0.000287178
0.00285154
-0.000209547
0.00287146
-0.00010235
0.00286693
1.92214e-05
0.00283558
0.000142869
0.00278251
0.000238579
0.0027201
0.000278933
0.00266318
0.000253447
0.00262562
0.000166829
0.00261805
3.6699e-05
0.00264581
-0.000108706
0.00270437
-0.000226928
0.00277505
-0.000267792
0.00283012
-0.000202411
0.00284744
-5.06235e-05
0.0028216
0.000130106
0.00276217
0.000283412
0.00268416
0.000380186
0.00260075
0.000415818
0.00252156
0.000395554
0.00245466
0.000323302
0.00240942
0.000197866
0.00239745
1.7661e-05
0.0024303
-0.000205782
0.00251424
-0.000431049
0.00264119
-0.00058435
0.00277951
-0.000587982
0.00288187
-0.000416626
0.00291346
-0.000130849
0.00287305
0.000160794
0.00278586
0.000373392
0.00268156
0.000481169
0.00257993
0.000500828
0.00248946
0.000458535
0.0024127
0.000369847
0.00235428
0.000234007
0.00232807
3.93675e-05
0.00235396
-0.000212563
0.00244056
-0.000474616
0.00257187
-0.000657519
0.0027127
-0.000679747
0.00282482
-0.000518385
0.00288025
-0.000222767
0.00286849
0.00011005
0.00279915
0.00038034
0.0026966
0.00053048
0.002587
0.000560557
0.00248772
0.000505391
0.00240834
0.000395151
0.00235959
0.000232853
0.00235651
9.33757e-06
0.00240887
-0.000257865
0.00250972
-0.000506066
0.00263525
-0.00065394
0.00275425
-0.000646229
0.00283872
-0.000480804
0.00287148
-0.000207167
0.00284969
9.62526e-05
0.00278348
0.000351713
0.00269062
0.000508225
0.00259014
0.000553242
0.00249835
0.00050313
0.00242944
0.000379238
0.00239741
0.00019245
0.00241323
-4.57513e-05
0.00247765
-0.000299674
0.00257731
-0.000507443
0.00268875
-0.000607374
0.00278624
-0.000567763
0.00284876
-0.000399725
0.0028647
-0.000150732
0.002834
0.000114303
0.00276701
0.00033484
0.00267979
0.000471961
0.00258893
0.000513343
0.00250924
0.000465219
0.00245449
0.000339408
0.00243707
0.000148737
0.00246399
-8.34535e-05
0.00253156
-0.000312919
0.00262474
-0.000482645
0.00272197
-0.000546073
0.00280183
-0.00048662
0.00284812
-0.000322543
0.00285288
-9.83285e-05
0.00281757
0.000131299
0.00275193
0.000318146
0.0026704
0.000432605
0.00258808
0.000464904
0.00251898
0.000417195
0.00247596
0.000295783
0.00246942
0.000112543
0.0025034
-0.000105714
0.00257188
-0.000313237
0.00265957
-0.000457812
0.00274686
-0.000501614
0.00281548
-0.000435285
0.00285237
-0.000279043
0.00285166
-7.37263e-05
0.00281526
0.000132761
0.00275189
0.000299055
0.00267451
0.00040007
0.00259717
0.000427504
0.0025334
0.000382482
0.0024955
0.000269172
0.00249293
9.74352e-05
0.00252873
-0.000108078
0.0025966
-0.000305049
0.00268218
-0.000445481
0.00276762
-0.000494322
0.00283648
-0.000441494
0.00287684
-0.000302701
0.00288275
-0.000112215
0.00285458
8.76396e-05
0.00279866
0.000257286
0.00272573
0.000369496
0.0026485
0.000413206
0.00257981
0.000389101
0.00253185
0.000301682
0.00251514
0.00015694
0.00253564
-3.0808e-05
0.00259124
-0.000231192
0.00267114
-0.000401816
0.00275935
-0.000503868
0.00283981
-0.000516875
0.00290017
-0.000443655
0.00293337
-0.000306009
0.00293759
-0.000136316
0.00291572
3.09542e-05
0.00287444
0.000166194
0.00282294
0.000250095
0.00277125
0.000276174
0.00272888
0.000249015
0.00270388
0.000179847
0.00270163
8.32203e-05
0.00272315
-2.3206e-05
0.00276358
-0.00011835
0.00281281
-0.000181081
0.00285857
-0.000196926
0.00289015
-0.000163701
0.00290099
-9.20816e-05
0.00288954
-1.99621e-06
0.00285869
8.40913e-05
0.0028146
0.000145719
0.00276491
0.000170968
0.00271793
0.000152517
0.00268072
9.65557e-05
0.00266161
-9.34335e-07
0.00266367
-0.000113584
0.00269422
-0.000253252
-0.00041365
0.00250167
-1.6902e-05
0.00250714
-5.35295e-05
0.0025175
-9.59622e-05
0.00253426
-0.000145076
0.0025593
-0.000200621
0.00259466
-0.000260205
0.00264215
-0.000318965
0.00270157
-0.000365043
0.00277011
-0.000385272
0.00283608
-0.000353146
0.00288427
-0.000257742
0.00290803
-0.000126108
0.0029031
2.41508e-05
0.00286507
0.000180899
0.00279966
0.000303988
0.00272243
0.000356164
0.0026518
0.000324082
0.00260476
0.000213869
0.00259478
4.66771e-05
0.00262997
-0.000143899
0.00270615
-0.000303111
0.00279951
-0.000361151
0.00287282
-0.00027572
0.00289654
-7.43373e-05
0.00286484
0.000161805
0.00279228
0.000355971
0.00269923
0.000473235
0.00260163
0.000513419
0.00250956
0.000487622
0.00243073
0.000402129
0.00237328
0.000255316
0.00234615
4.47956e-05
0.00236188
-0.000221509
0.00243671
-0.000505888
0.00257433
-0.000721961
0.00274507
-0.000758731
0.00288958
-0.000561135
0.00295252
-0.000193787
0.00291941
0.000193905
0.0028194
0.000473402
0.0026953
0.000605265
0.00257625
0.000619887
0.00247165
0.000563133
0.00238102
0.000460476
0.00230982
0.000305201
0.00227901
7.01842e-05
0.00231351
-0.000247062
0.00241768
-0.000578785
0.00256675
-0.000806597
0.00272018
-0.000833168
0.00283883
-0.000637043
0.00289611
-0.000280041
0.00288296
0.000123201
0.0028091
0.000454194
0.00269858
0.000641003
0.00257833
0.000680806
0.00246779
0.000615933
0.00237974
0.0004832
0.00232872
0.00028387
0.00233132
6.73738e-06
0.00239433
-0.000320874
0.00250566
-0.00061739
0.00263839
-0.000786672
0.00276127
-0.000769115
0.00284723
-0.000566764
0.00287912
-0.000239051
0.00285359
0.000121778
0.00278121
0.000424093
0.00268102
0.00060842
0.00257322
0.000661035
0.00247542
0.000600937
0.00240371
0.000450943
0.0023738
0.000222357
0.00239623
-6.81735e-05
0.00246876
-0.000372208
0.00257483
-0.000613509
0.00268954
-0.000722088
0.00278765
-0.000665873
0.00284919
-0.000461263
0.00286293
-0.00016447
0.00282852
0.000148715
0.00275627
0.000407088
0.00266303
0.0005652
0.00256672
0.000609649
0.00248375
0.000548192
0.00242932
0.000393835
0.00241635
0.00016171
0.00245044
-0.000117544
0.00252513
-0.000387603
0.00262297
-0.000580489
0.00272169
-0.000644794
0.00280054
-0.00056547
0.0028444
-0.000366403
0.00284593
-9.98532e-05
0.00280659
0.000170631
0.00273617
0.000388572
0.00264961
0.000519166
0.0025632
0.000551312
0.00249246
0.000487934
0.00245146
0.000336785
0.00245057
0.000113432
0.002492
-0.000147147
0.00256698
-0.000388219
0.00265823
-0.000549054
0.00274575
-0.000589135
0.00281212
-0.000501659
0.00284546
-0.000312381
0.00284067
-6.89344e-05
0.00279989
0.00017354
0.00273194
0.000367005
0.00265011
0.0004819
0.00256939
0.000508226
0.00250463
0.000447241
0.00246926
0.000304542
0.00247256
9.41309e-05
0.00251565
-0.000151166
0.00258954
-0.000378942
0.00267801
-0.000533948
0.00276296
-0.000579272
0.00282891
-0.000507449
0.00286526
-0.000339043
0.00286694
-0.0001139
0.00283469
0.000119893
0.00277483
0.000317144
0.0026981
0.000446224
0.00261763
0.000493672
0.00254728
0.000459453
0.00250052
0.000348446
0.0024884
0.000169059
0.0025157
-5.8103e-05
0.00257755
-0.000293049
0.00266049
-0.000484753
0.00274741
-0.000590785
0.00282288
-0.000592352
0.00287615
-0.000496918
0.00290174
-0.000331601
0.00289905
-0.000133624
0.00287161
5.83852e-05
0.00282644
0.000211372
0.00277284
0.000303692
0.00272115
0.000327864
0.00268152