/*--------------------------------*- C++ -*----------------------------------*\
  =========                 |
  \\      /  F ield         | OpenFOAM: The Open Source CFD Toolbox
   \\    /   O peration     | Website:  https://openfoam.org
    \\  /    A nd           | Version:  11
     \\/     M anipulation  |
\*---------------------------------------------------------------------------*/
FoamFile
{
    format      ascii;
    class       surfaceScalarField;
    location    "6.762079";
    object      phi_0;
}
// * * * * * * * * * * * * * * * * * * * * * * * * * * * * * * * * * * * * * //

dimensions      [0 3 -1 0 0 0 0];

internalField   nonuniform List<scalar> 
14638
(
0.00250288
-2.87787e-06
0.00251156
-8.68533e-06
0.00252642
-1.48521e-05
0.00254792
-2.15014e-05
0.00257658
-2.86681e-05
0.00261274
-3.6155e-05
0.00265631
-4.35715e-05
0.00270645
-5.01364e-05
0.00276146
-5.50133e-05
0.00281877
-5.7304e-05
0.00287528
-5.6511e-05
0.00292862
-5.33406e-05
0.00297705
-4.84345e-05
0.00301949
-4.24358e-05
0.00305539
-3.59061e-05
0.00308458
-2.91868e-05
0.00310704
-2.24585e-05
0.00312282
-1.57828e-05
0.003132
-9.18034e-06
0.00313471
-2.71158e-06
0.00313125
3.46312e-06
0.00312217
9.07565e-06
0.00310836
1.38146e-05
0.00309092
1.74369e-05
0.00307105
1.98763e-05
0.00304975
2.13003e-05
0.00302766
2.20835e-05
0.00300496
2.27037e-05
0.00298137
2.3594e-05
0.00295636
2.50032e-05
0.00292944
2.69175e-05
0.00290037
2.90757e-05
0.0028693
3.10666e-05
0.00283684
3.24617e-05
0.00280391
3.29303e-05
0.00277161
3.23044e-05
0.00274102
3.05905e-05
0.00271307
2.7942e-05
0.00268846
2.46122e-05
0.00266756
2.09035e-05
0.00265043
1.71231e-05
0.00263689
1.35479e-05
0.00262649
1.03991e-05
0.00261866
7.82675e-06
0.00261276
5.90376e-06
0.00260813
4.62811e-06
0.0026042
3.9334e-06
0.00260049
3.70597e-06
0.00259668
3.80604e-06
0.00259259
4.08936e-06
0.00258817
4.42577e-06
0.00258346
4.7122e-06
0.00257858
4.87919e-06
0.00257369
4.89141e-06
0.00256894
4.74367e-06
0.00256449
4.45427e-06
0.00256043
4.05722e-06
0.00255684
3.5947e-06
0.00255373
3.1104e-06
0.00255108
2.64423e-06
0.00254885
2.22866e-06
0.00254697
1.88649e-06
0.00254534
1.63004e-06
0.00254387
1.4616e-06
0.0025425
1.37481e-06
0.00254114
1.35673e-06
0.00253975
1.39025e-06
0.0025383
1.45658e-06
0.00253676
1.53749e-06
0.00253514
1.61708e-06
0.00253346
1.68304e-06
0.00253173
1.72717e-06
0.00252999
1.74546e-06
0.00252825
1.7376e-06
0.00252654
1.70628e-06
0.00252489
1.65626e-06
0.00252329
1.59342e-06
0.00252177
1.52398e-06
0.00252031
1.45371e-06
0.00251893
1.38749e-06
0.0025176
1.32897e-06
0.00251632
1.28044e-06
0.00251507
1.24289e-06
0.00251386
1.21609e-06
0.00251266
1.19889e-06
0.00251147
1.18948e-06
0.00251028
1.18564e-06
0.0025091
1.18513e-06
0.00250791
1.18582e-06
0.00250673
1.18593e-06
0.00250554
1.18416e-06
0.00250436
1.17968e-06
0.00250319
1.17212e-06
0.00250203
1.16151e-06
0.00250088
1.14813e-06
0.00249975
1.13244e-06
0.00249863
1.11491e-06
0.00249754
1.09597e-06
0.00249646
1.07594e-06
0.00249541
1.05494e-06
0.00249437
1.03289e-06
0.00249337
1.00948e-06
0.00249238
9.84218e-07
0.00249142
9.56489e-07
0.0024905
9.25627e-07
0.00248961
8.90981e-07
0.00248876
8.51838e-07
0.00248795
8.07102e-07
0.00248719
7.5467e-07
0.0024865
6.90575e-07
0.0024859
6.08151e-07
0.0024854
4.97715e-07
0.00248505
3.4732e-07
0.00248491
1.45019e-07
0.00248502
-1.17361e-07
0.00248546
-4.39544e-07
0.00248627
-8.08521e-07
0.00248747
-1.19631e-06
0.00248903
-1.56128e-06
0.00249088
-1.85381e-06
0.00249291
-2.02562e-06
0.00249495
-2.04097e-06
0.00249684
-1.88659e-06
0.00249841
-1.57736e-06
0.00249957
-1.15557e-06
0.00250025
-6.83323e-07
0.00250048
-2.29909e-07
0.00250034
1.42607e-07
0.00249995
3.91724e-07
0.00249945
5.01577e-07
0.00249896
4.83267e-07
0.00249859
3.68985e-07
0.00249839
2.02121e-07
0.00249837
2.64139e-08
0.00249849
-1.23041e-07
0.00249871
-2.25039e-07
0.00249899
-2.73247e-07
0.00249926
-2.73621e-07
0.0024995
-2.39728e-07
0.00249969
-1.87651e-07
0.00249982
-1.31816e-07
0.0024999
-8.24889e-08
0.00249995
-4.50296e-08
0.00249997
-2.05173e-08
0.00249997
-7.12855e-09
0.00249998
-1.66555e-09
0.00249998
-8.08528e-10
0.00249998
-1.8919e-09
0.00249998
-3.20362e-09
0.00249999
-3.92926e-09
0.00249999
-3.9048e-09
0.00249999
-3.32283e-09
0.0025
-2.4884e-09
0.0025
-1.66443e-09
0.0025
-1.00747e-09
0.0025
-5.66539e-10
0.0025
-3.16524e-10
0.0025
-2.00346e-10
0.0025
-1.54973e-10
-1.35987e-10
0.00250285
-5.72936e-06
0.00251146
-1.72974e-05
0.00252621
-2.95995e-05
0.00254761
-4.29023e-05
0.00257623
-5.72882e-05
0.00261245
-7.23752e-05
0.00265627
-8.73876e-05
0.00270686
-0.000100725
0.00276252
-0.000110675
0.00282054
-0.000115328
0.00287767
-0.000113638
0.00293147
-0.000107145
0.00298021
-9.71739e-05
0.00302282
-8.50428e-05
0.00305881
-7.18923e-05
0.00308802
-5.84013e-05
0.00311048
-4.49201e-05
0.00312625
-3.15537e-05
0.0031354
-1.83252e-05
0.00313803
-5.34306e-06
0.00313442
7.07266e-06
0.00312512
1.83714e-05
0.00311103
2.7906e-05
0.0030933
3.51667e-05
0.00307317
4.00089e-05
0.0030517
4.27728e-05
0.00302955
4.42308e-05
0.00300688
4.53712e-05
0.00298339
4.70917e-05
0.00295848
4.99074e-05
0.00293161
5.37888e-05
0.00290249
5.81939e-05
0.00287129
6.2272e-05
0.00283861
6.51401e-05
0.00280542
6.61207e-05
0.00277285
6.48738e-05
0.00274202
6.1417e-05
0.0027139
5.60665e-05
0.00268917
4.93397e-05
0.00266822
4.18517e-05
0.00265112
3.42251e-05
0.00263765
2.70199e-05
0.00262736
2.06824e-05
0.00261968
1.55151e-05
0.00261392
1.16639e-05
0.00260942
9.12285e-06
0.0026056
7.75578e-06
0.00260197
7.3308e-06
0.00259822
7.56346e-06
0.00259415
8.16089e-06
0.00258971
8.85944e-06
0.00258497
9.45103e-06
0.00258006
9.79613e-06
0.00257512
9.82457e-06
0.00257034
9.52718e-06
0.00256585
8.94213e-06
0.00256177
8.13916e-06
0.00255816
7.20416e-06
0.00255504
6.22583e-06
0.0025524
5.28505e-06
0.00255018
4.44743e-06
0.00254831
3.75892e-06
0.0025467
3.24424e-06
0.00254525
2.90778e-06
0.00254389
2.73642e-06
0.00254254
2.70374e-06
0.00254116
2.77496e-06
0.0025397
2.91194e-06
0.00253816
3.07774e-06
0.00253654
3.24024e-06
0.00253485
3.37457e-06
0.00253311
3.4643e-06
0.00253136
3.50141e-06
0.00252961
3.48545e-06
0.00252789
3.42197e-06
0.00252623
3.3207e-06
0.00252463
3.19366e-06
0.0025231
3.0534e-06
0.00252164
2.91165e-06
0.00252025
2.77827e-06
0.00251892
2.66061e-06
0.00251763
2.56328e-06
0.00251639
2.48821e-06
0.00251517
2.43492e-06
0.00251397
2.40105e-06
0.00251277
2.38287e-06
0.00251158
2.37595e-06
0.00251039
2.37566e-06
0.0025092
2.37773e-06
0.00250801
2.37859e-06
0.00250682
2.37558e-06
0.00250563
2.36706e-06
0.00250445
2.35231e-06
0.00250328
2.3314e-06
0.00250212
2.30494e-06
0.00250098
2.27386e-06
0.00249986
2.23915e-06
0.00249875
2.2017e-06
0.00249767
2.16213e-06
0.0024966
2.12072e-06
0.00249556
2.07732e-06
0.00249453
2.03133e-06
0.00249354
1.98177e-06
0.00249257
1.92739e-06
0.00249162
1.86686e-06
0.00249072
1.79883e-06
0.00248985
1.72185e-06
0.00248902
1.63374e-06
0.00248824
1.53038e-06
0.00248753
1.40403e-06
0.0024869
1.24169e-06
0.00248637
1.02443e-06
0.00248599
7.28766e-07
0.0024858
3.31105e-07
0.00248587
-1.84921e-07
0.00248625
-8.19211e-07
0.00248699
-1.54666e-06
0.0024881
-2.31258e-06
0.00248958
-3.03515e-06
0.00249134
-3.61637e-06
0.00249328
-3.96051e-06
0.00249523
-3.99621e-06
0.00249704
-3.69636e-06
0.00249855
-3.08957e-06
0.00249966
-2.2589e-06
0.0025003
-1.32705e-06
0.0025005
-4.31441e-07
0.00250034
3.04488e-07
0.00249994
7.9585e-07
0.00249943
1.0106e-06
0.00249894
9.70384e-07
0.00249857
7.39058e-07
0.00249837
4.03044e-07
0.00249835
4.97049e-08
0.00249847
-2.50677e-07
0.0024987
-4.55515e-07
0.00249898
-5.52015e-07
0.00249926
-5.52095e-07
0.0024995
-4.83066e-07
0.00249969
-3.77383e-07
0.00249983
-2.64225e-07
0.00249991
-1.64389e-07
0.00249995
-8.87438e-08
0.00249997
-3.94644e-08
0.00249998
-1.2811e-08
0.00249998
-2.23674e-09
0.00249998
-9.45692e-10
0.00249998
-3.48635e-09
0.00249998
-6.36937e-09
0.00249999
-7.95376e-09
0.00249999
-7.93625e-09
0.00249999
-6.74295e-09
0.0025
-5.02322e-09
0.0025
-3.33013e-09
0.0025
-1.98919e-09
0.0025
-1.09917e-09
0.0025
-6.03881e-10
0.0025
-3.81815e-10
0.0025
-3.00822e-10
-2.71234e-10
0.0025028
-8.52756e-06
0.00251126
-2.57555e-05
0.00252579
-4.41299e-05
0.00254697
-6.40893e-05
0.00257548
-8.57967e-05
0.00261182
-0.000108711
0.00265612
-0.000131685
0.00270762
-0.000152225
0.0027646
-0.000167661
0.0028241
-0.000174824
0.00288247
-0.000172013
0.00293721
-0.000161878
0.00298655
-0.000146517
0.00302949
-0.000127982
0.00306562
-0.000108028
0.00309488
-8.76627e-05
0.00311735
-6.73834e-05
0.00313309
-4.73009e-05
0.00314217
-2.7403e-05
0.00314465
-7.81867e-06
0.00314075
1.09734e-05
0.00313101
2.81096e-05
0.00311636
4.25554e-05
0.00309804
5.34846e-05
0.0030774
6.06496e-05
0.0030556
6.45771e-05
0.00303334
6.64868e-05
0.00301076
6.79474e-05
0.00298747
7.03856e-05
0.00296276
7.46187e-05
0.00293595
8.05938e-05
0.00290671
8.7443e-05
0.00287516
9.38142e-05
0.00284199
9.83153e-05
0.00280822
9.98898e-05
0.00277507
9.80181e-05
0.00274375
9.27414e-05
0.00271526
8.45612e-05
0.00269031
7.42838e-05
0.0026693
6.28597e-05
0.00265228
5.12452e-05
0.00263901
4.02959e-05
0.002629
3.06918e-05
0.00262162
2.2891e-05
0.00261617
1.7111e-05
0.00261196
1.33369e-05
0.00260836
1.13539e-05
0.00260489
1.08014e-05
0.00260122
1.12392e-05
0.00259716
1.22164e-05
0.00259269
1.33293e-05
0.00258788
1.42612e-05
0.00258287
1.48022e-05
0.00257785
1.48493e-05
0.00257298
1.43925e-05
0.00256843
1.34939e-05
0.00256431
1.22627e-05
0.00256068
1.08323e-05
0.00255757
9.33884e-06
0.00255495
7.90632e-06
0.00255276
6.63462e-06
0.00255093
5.59329e-06
0.00254935
4.81923e-06
0.00254794
4.31819e-06
0.00254661
4.06919e-06
0.00254528
4.03107e-06
0.0025439
4.15002e-06
0.00254245
4.36739e-06
0.0025409
4.62657e-06
0.00253926
4.87857e-06
0.00253755
5.08567e-06
0.00253579
5.22314e-06
0.00253401
5.27924e-06
0.00253225
5.25376e-06
0.00253051
5.15561e-06
0.00252883
4.99998e-06
0.00252722
4.80547e-06
0.00252568
4.5914e-06
0.00252422
4.37571e-06
0.00252282
4.17341e-06
0.00252149
3.99562e-06
0.0025202
3.84925e-06
0.00251895
3.7371e-06
0.00251773
3.65832e-06
0.00251652
3.60915e-06
0.00251532
3.58381e-06
0.00251412
3.57545e-06
0.00251292
3.57698e-06
0.00251172
3.58186e-06
0.00251051
3.58467e-06
0.00250931
3.58139e-06
0.0025081
3.56958e-06
0.00250691
3.54824e-06
0.00250572
3.51754e-06
0.00250455
3.47848e-06
0.00250339
3.43254e-06
0.00250225
3.38127e-06
0.00250112
3.32606e-06
0.00250002
3.26789e-06
0.00249893
3.20721e-06
0.00249786
3.1438e-06
0.00249682
3.0768e-06
0.00249579
3.00475e-06
0.0024948
2.92577e-06
0.00249383
2.83778e-06
0.00249289
2.73871e-06
0.00249198
2.6263e-06
0.00249112
2.49727e-06
0.0024903
2.34557e-06
0.00248955
2.15999e-06
0.00248887
1.92171e-06
0.00248829
1.60326e-06
0.00248785
1.17047e-06
0.00248759
5.88747e-07
0.00248757
-1.66202e-07
0.00248784
-1.09485e-06
0.00248846
-2.16118e-06
0.00248943
-3.28576e-06
0.00249075
-4.34895e-06
0.00249234
-5.20681e-06
0.00249409
-5.71811e-06
0.00249588
-5.77698e-06
0.00249752
-5.34241e-06
0.00249889
-4.45559e-06
0.00249987
-3.23836e-06
0.00250041
-1.87161e-06
0.00250054
-5.5849e-07
0.00250032
5.18113e-07
0.00249989
1.23218e-06
0.00249936
1.53602e-06
0.00249887
1.4618e-06
0.00249851
1.10465e-06
0.00249832
5.93576e-07
0.00249831
5.91558e-08
0.00249845
-3.93446e-07
0.00249869
-7.00531e-07
0.00249899
-8.4318e-07
0.00249927
-8.39741e-07
0.00249952
-7.31845e-07
0.00249971
-5.68941e-07
0.00249984
-3.95486e-07
0.00249992
-2.43152e-07
0.00249996
-1.28412e-07
0.00249998
-5.44019e-08
0.00249998
-1.51768e-08
0.00249998
-4.94767e-10
0.00249998
2.23671e-10
0.00249998
-4.57614e-09
0.00249998
-9.53891e-09
0.00249999
-1.22102e-08
0.00249999
-1.22232e-08
0.00249999
-1.03329e-08
0.0025
-7.61468e-09
0.0025
-4.96314e-09
0.0025
-2.89233e-09
0.0025
-1.54674e-09
0.0025
-8.24332e-10
0.0025
-5.22194e-10
0.0025
-4.28315e-10
-4.04854e-10
0.00250271
-1.12418e-05
0.00251093
-3.39703e-05
0.00252511
-5.8313e-05
0.00254595
-8.49243e-05
0.00257425
-0.000114099
0.00261072
-0.000145184
0.00265572
-0.000176686
0.00270861
-0.000205108
0.00276765
-0.000226701
0.00282943
-0.000236608
0.00288971
-0.000232298
0.00294585
-0.00021801
0.00299608
-0.000196749
0.00303949
-0.000171394
0.00307583
-0.000144362
0.00310514
-0.000116976
0.00312759
-8.9839e-05
0.0031433
-6.30111e-05
0.00315229
-3.63842e-05
0.00315453
-1.0065e-05
0.00315019
1.53119e-05
0.00313978
3.85218e-05
0.00312427
5.80616e-05
0.00310505
7.27088e-05
0.00308363
8.20719e-05
0.00306132
8.6885e-05
0.00303891
8.88934e-05
0.0030165
9.0357e-05
0.00299355
9.33356e-05
0.00296917
9.90056e-05
0.00294248
0.000107279
0.00291304
0.000116888
0.00288097
0.000125881
0.00284702
0.000132269
0.00281234
0.000134564
0.0027783
0.000132059
0.0027462
0.000124838
0.00271714
0.000113626
0.00269187
9.95564e-05
0.00267078
8.39513e-05
0.00265389
6.81285e-05
0.00264093
5.32594e-05
0.00263135
4.027e-05
0.00262446
2.97788e-05
0.0026195
2.20728e-05
0.00261572
1.71192e-05
0.00261246
1.46109e-05
0.00260922
1.40415e-05
0.00260566
1.4798e-05
0.00260162
1.62569e-05
0.00259709
1.7864e-05
0.00259216
1.91892e-05
0.00258701
1.99516e-05
0.00258184
2.00185e-05
0.00257685
1.93849e-05
0.0025722
1.81429e-05
0.00256802
1.64477e-05
0.00256436
1.44851e-05
0.00256126
1.24434e-05
0.00255867
1.04926e-05
0.00255654
8.76864e-06
0.00255477
7.36514e-06
0.00255325
6.33077e-06
0.0025519
5.67137e-06
0.00255061
5.35633e-06
0.00254932
5.32763e-06
0.00254796
5.51038e-06
0.0025465
5.82351e-06
0.00254494
6.18928e-06
0.00254328
6.54087e-06
0.00254153
6.82725e-06
0.00253974
7.01546e-06
0.00253793
7.09044e-06
0.00253613
7.05285e-06
0.00253437
6.91579e-06
0.00253267
6.70074e-06
0.00253104
6.43357e-06
0.00252949
6.14097e-06
0.00252802
5.84752e-06
0.00252662
5.57362e-06
0.00252528
5.33429e-06
0.00252399
5.13867e-06
0.00252274
4.99027e-06
0.00252151
4.88765e-06
0.00252029
4.82541e-06
0.00251908
4.79546e-06
0.00251787
4.78825e-06
0.00251665
4.79406e-06
0.00251543
4.80393e-06
0.0025142
4.81048e-06
0.00251298
4.80835e-06
0.00251175
4.79434e-06
0.00251053
4.76723e-06
0.00250932
4.72742e-06
0.00250813
4.67642e-06
0.00250694
4.61633e-06
0.00250577
4.54938e-06
0.00250462
4.4775e-06
0.00250349
4.40209e-06
0.00250237
4.32377e-06
0.00250127
4.24232e-06
0.00250019
4.15663e-06
0.00249913
4.06474e-06
0.0024981
3.96413e-06
0.00249708
3.85194e-06
0.00249609
3.72527e-06
0.00249514
3.58097e-06
0.00249422
3.41458e-06
0.00249335
3.21827e-06
0.00249253
2.97767e-06
0.00249178
2.66886e-06
0.00249113
2.25682e-06
0.0024906
1.69787e-06
0.00249025
9.4749e-07
0.0024901
-2.59348e-08
0.00249023
-1.22373e-06
0.00249067
-2.60039e-06
0.00249144
-4.05422e-06
0.00249252
-5.43117e-06
0.00249386
-6.54499e-06
0.00249536
-7.21219e-06
0.00249687
-7.29449e-06
0.00249827
-6.73758e-06
0.00249941
-5.59413e-06
0.00250019
-4.02226e-06
0.00250058
-2.25764e-06
0.00250058
-5.65455e-07
0.00250029
8.15204e-07
0.0024998
1.71961e-06
0.00249925
2.08582e-06
0.00249875
1.95697e-06
0.0024984
1.45924e-06
0.00249823
7.63624e-07
0.00249825
4.32235e-08
0.00249842
-5.62613e-07
0.00249868
-9.69793e-07
0.002499
-1.15407e-06
0.0024993
-1.14115e-06
0.00249955
-9.87997e-07
0.00249975
-7.62024e-07
0.00249987
-5.23726e-07
0.00249995
-3.16067e-07
0.00249998
-1.61157e-07
0.00249999
-6.27957e-08
0.00249999
-1.23216e-08
0.00249998
4.75932e-09
0.00249998
3.28059e-09
0.00249998
-5.02034e-09
0.00249998
-1.28141e-08
0.00249999
-1.68788e-08
0.00249999
-1.69187e-08
0.00249999
-1.4173e-08
0.0025
-1.02706e-08
0.0025
-6.52291e-09
0.0025
-3.65766e-09
0.0025
-1.85422e-09
0.0025
-9.38922e-10
0.0025
-6.00092e-10
0.0025
-5.29825e-10
-5.37207e-10
0.00250259
-1.38363e-05
0.00251046
-4.1838e-05
0.00252414
-7.19921e-05
0.00254445
-0.00010523
0.0025724
-0.000142052
0.00260898
-0.000181767
0.00265488
-0.000222582
0.00270963
-0.000259863
0.00277155
-0.00028862
0.00283655
-0.000301603
0.00289945
-0.000295198
0.00295745
-0.000276012
0.00300883
-0.00024813
0.00305282
-0.000215382
0.00308937
-0.00018091
0.00311871
-0.000146322
0.00314115
-0.000112274
0.00315683
-7.86865e-05
0.00316571
-4.52673e-05
0.00316768
-1.20353e-05
0.00316277
2.02255e-05
0.00315143
4.98569e-05
0.00313473
7.47637e-05
0.00311423
9.32077e-05
0.00309171
0.000104593
0.0030687
0.000109891
0.00304611
0.000111487
0.00302397
0.000112495
0.00300155
0.000115758
0.00297766
0.000122895
0.00295118
0.000133762
0.00292148
0.000146587
0.00288869
0.000158669
0.00285366
0.000167299
0.00281773
0.00017049
0.00278246
0.000167334
0.0027493
0.000157993
0.00271946
0.000143465
0.00269375
0.000125269
0.00267256
0.000105145
0.00265587
8.48124e-05
0.00264335
6.57845e-05
0.00263437
4.92493e-05
0.00262816
3.59923e-05
0.00262386
2.63667e-05
0.00262067
2.031e-05
0.00261788
1.74037e-05
0.00261495
1.69718e-05
0.00261154
1.82048e-05
0.00260751
2.0286e-05
0.00260288
2.24964e-05
0.00259778
2.42859e-05
0.00259243
2.53026e-05
0.00258706
2.5389e-05
0.00258189
2.45528e-05
0.00257711
2.2925e-05
0.00257284
2.07153e-05
0.00256916
1.81694e-05
0.00256607
1.55339e-05
0.00256353
1.30285e-05
0.00256147
1.08275e-05
0.00255979
9.04949e-06
0.00255837
7.75403e-06
0.00255709
6.94532e-06
0.00255587
6.58057e-06
0.00255461
6.58202e-06
0.00255327
6.8508e-06
0.00255182
7.28086e-06
0.00255023
7.77132e-06
0.00254854
8.23618e-06
0.00254676
8.61055e-06
0.00254492
8.85333e-06
0.00254306
8.9467e-06
0.00254122
8.89321e-06
0.00253943
8.71121e-06
0.0025377
8.42958e-06
0.00253605
8.08251e-06
0.00253448
7.70486e-06
0.002533
7.32841e-06
0.0025316
6.9793e-06
0.00253026
6.67653e-06
0.00252896
6.43142e-06
0.0025277
6.248e-06
0.00252647
6.12388e-06
0.00252524
6.05168e-06
0.00252402
6.0206e-06
0.00252279
6.01813e-06
0.00252155
6.03155e-06
0.0025203
6.04932e-06
0.00251905
6.06201e-06
0.0025178
6.0629e-06
0.00251654
6.04808e-06
0.0025153
6.01623e-06
0.00251405
5.96814e-06
0.00251283
5.90598e-06
0.00251161
5.83264e-06
0.00251041
5.7511e-06
0.00250922
5.66396e-06
0.00250805
5.57304e-06
0.00250689
5.47924e-06
0.00250575
5.38232e-06
0.00250463
5.28094e-06
0.00250352
5.17268e-06
0.00250243
5.05434e-06
0.00250136
4.92222e-06
0.00250031
4.7725e-06
0.00249929
4.60097e-06
0.00249831
4.40198e-06
0.00249736
4.16595e-06
0.00249646
3.87581e-06
0.00249563
3.50328e-06
0.00249488
3.0071e-06
0.00249424
2.33555e-06
0.00249375
1.43571e-06
0.00249346
2.69581e-07
0.0024934
-1.16507e-06
0.00249361
-2.81473e-06
0.00249411
-4.55849e-06
0.0024949
-6.21218e-06
0.0024959
-7.55216e-06
0.00249705
-8.35726e-06
0.00249821
-8.46012e-06
0.00249927
-7.79452e-06
0.0025001
-6.42367e-06
0.00250062
-4.53891e-06
0.00250079
-2.42616e-06
0.00250063
-4.07606e-07
0.00250022
1.22622e-06
0.00249966
2.27553e-06
0.00249908
2.66638e-06
0.00249858
2.4538e-06
0.00249825
1.79487e-06
0.00249811
9.01817e-07
0.00249816
-1.07341e-08
0.00249837
-7.70343e-07
0.00249868
-1.27367e-06
0.00249901
-1.49241e-06
0.00249933
-1.46105e-06
0.0024996
-1.25338e-06
0.00249979
-9.56103e-07
0.00249992
-6.46764e-07
0.00249998
-3.80119e-07
0.0025
-1.83872e-07
0.0025
-6.19823e-08
0.00249999
-2.31729e-09
0.00249998
1.46665e-08
0.00249998
8.70239e-09
0.00249998
-4.79118e-09
0.00249998
-1.63924e-08
0.00249999
-2.2204e-08
0.00249999
-2.22073e-08
0.00249999
-1.83503e-08
0.0025
-1.29908e-08
0.0025
-7.95657e-09
0.0025
-4.2156e-09
0.0025
-1.96092e-09
0.0025
-9.07623e-10
0.0025
-5.95886e-10
0.0025
-6.0094e-10
-6.70505e-10
0.00250243
-1.62694e-05
0.00250983
-4.92354e-05
0.00252281
-8.49754e-05
0.00254236
-0.000124777
0.00256975
-0.00016944
0.00260634
-0.000218359
0.00265328
-0.000269522
0.00271042
-0.000317004
0.00277618
-0.000354378
0.00284546
-0.000370886
0.00291175
-0.000361482
0.00297209
-0.000336354
0.00302484
-0.000300886
0.00306947
-0.000260005
0.0031062
-0.000217643
0.00313553
-0.000175648
0.0031579
-0.000134651
0.00317353
-9.43176e-05
0.00318232
-5.40517e-05
0.00318397
-1.36896e-05
0.00317835
2.58469e-05
0.00316584
6.23715e-05
0.00314757
9.30262e-05
0.00312539
0.000115388
0.00310142
0.000128566
0.00307751
0.000133805
0.00305471
0.000134288
0.00303299
0.000134206
0.00301135
0.0001374
0.0029882
0.000146046
0.00296204
0.000159918
0.00293205
0.000176583
0.00289833
0.000192392
0.00286188
0.000203742
0.00282432
0.000208056
0.00278743
0.000204219
0.00275291
0.000192516
0.00272208
0.000174294
0.00269582
0.000151531
0.00267451
0.000126451
0.0026581
0.000101219
0.00264616
7.77252e-05
0.00263797
5.74408e-05
0.00263264
4.13255e-05
0.00262921
2.97943e-05
0.00262678
2.27391e-05
0.00262458
1.96042e-05
0.00262204
1.9513e-05
0.00261882
2.14281e-05
0.00261479
2.4313e-05
0.00261002
2.72664e-05
0.0026047
2.96094e-05
0.00259908
3.09199e-05
0.00259345
3.10224e-05
0.00258805
2.99474e-05
0.0025831
2.78769e-05
0.00257873
2.50862e-05
0.00257501
2.18908e-05
0.00257194
1.86023e-05
0.00256947
1.54957e-05
0.00256751
1.27864e-05
0.00256594
1.06185e-05
0.00256464
9.06177e-06
0.00256347
8.11617e-06
0.00256232
7.72344e-06
0.00256112
7.7823e-06
0.00255981
8.16611e-06
0.00255835
8.7405e-06
0.00255674
9.37886e-06
0.002555
9.9744e-06
0.00255316
1.04476e-05
0.00255127
1.07495e-05
0.00254935
1.08602e-05
0.00254746
1.07856e-05
0.00254562
1.05505e-05
0.00254386
1.01929e-05
0.00254219
9.7565e-06
0.0025406
9.28534e-06
0.00253911
8.81916e-06
0.0025377
8.39025e-06
0.00253636
8.0217e-06
0.00253506
7.72691e-06
0.0025338
7.51012e-06
0.00253256
7.36759e-06
0.00253132
7.28949e-06
0.00253008
7.26182e-06
0.00252883
7.26864e-06
0.00252756
7.29393e-06
0.00252629
7.32329e-06
0.00252501
7.34512e-06
0.00252372
7.3513e-06
0.00252243
7.33733e-06
0.00252114
7.30196e-06
0.00251987
7.24653e-06
0.0025186
7.1741e-06
0.00251734
7.08852e-06
0.0025161
6.99369e-06
0.00251487
6.89294e-06
0.00251365
6.78864e-06
0.00251245
6.68195e-06
0.00251126
6.57269e-06
0.00251008
6.4593e-06
0.00250892
6.33892e-06
0.00250776
6.20763e-06
0.00250663
6.06085e-06
0.0025055
5.89369e-06
0.0025044
5.70078e-06
0.00250333
5.47515e-06
0.00250229
5.20556e-06
0.00250129
4.87264e-06
0.00250035
4.44467e-06
0.00249948
3.8755e-06
0.00249871
3.10726e-06
0.00249807
2.08047e-06
0.00249759
7.52162e-07
0.0024973
-8.80569e-07
0.00249724
-2.75763e-06
0.00249743
-4.74231e-06
0.00249784
-6.62542e-06
0.00249844
-8.15214e-06
0.00249915
-9.06971e-06
0.00249988
-9.18647e-06
0.00250051
-8.42659e-06
0.00250095
-6.86318e-06
0.00250113
-4.71724e-06
0.00250102
-2.31925e-06
0.00250066
-4.17266e-08
0.0025001
1.77968e-06
0.00249946
2.91514e-06
0.00249885
3.28187e-06
0.00249835
2.94811e-06
0.00249805
2.10176e-06
0.00249795
9.9531e-07
0.00249806
-1.16469e-07
0.00249832
-1.02953e-06
0.00249867
-1.6229e-06
0.00249904
-1.86597e-06
0.00249938
-1.80395e-06
0.00249966
-1.5294e-06
0.00249985
-1.1501e-06
0.00249997
-7.61887e-07
0.00250002
-4.31868e-07
0.00250003
-1.93176e-07
0.00250002
-4.91958e-08
0.0025
1.67256e-08
0.00249998
3.02373e-08
0.00249998
1.67991e-08
0.00249997
-4.01838e-09
0.00249998
-2.05897e-08
0.00249998
-2.85001e-08
0.00249999
-2.83004e-08
0.0025
-2.29489e-08
0.0025
-1.57589e-08
0.0025
-9.19293e-09
0.0025
-4.48358e-09
0.0025
-1.80045e-09
0.0025
-6.90787e-10
0.0025
-4.93473e-10
0.0025
-6.41994e-10
-8.09349e-10
0.00250222
-1.84915e-05
0.002509
-5.60161e-05
0.00252105
-9.70269e-05
0.00253954
-0.000143265
0.00256606
-0.000195955
0.00260246
-0.000254759
0.00265051
-0.000317576
0.00271057
-0.000377066
0.00278133
-0.000425138
0.00285621
-0.000445759
0.00292671
-0.000431991
0.00298985
-0.000399488
0.00304414
-0.000355174
0.00308937
-0.000305237
0.00312619
-0.000254465
0.00315541
-0.000204863
0.00317769
-0.000156938
0.00319331
-0.000109939
0.00320206
-6.28002e-05
0.00320341
-1.50407e-05
0.00319696
3.22997e-05
0.00318296
7.63689e-05
0.00316269
0.000113304
0.00313831
0.000139759
0.00311245
0.000154427
0.00308738
0.000158875
0.00306438
0.000157297
0.00304331
0.000155269
0.00302279
0.00015792
0.0030007
0.000168137
0.00297505
0.000185569
0.00294472
0.000206913
0.00290982
0.00022729
0.00287159
0.000241978
0.00283195
0.000247697
0.00279304
0.000243124
0.00275682
0.00022874
0.00272477
0.000206338
0.00269785
0.000178451
0.00267644
0.000147864
0.00266041
0.000117248
0.00264923
8.89115e-05
0.00264204
6.46301e-05
0.00263781
4.55475e-05
0.00263547
3.21344e-05
0.002634
2.42174e-05
0.00263253
2.10717e-05
0.00263046
2.15806e-05
0.00262745
2.44382e-05
0.00262341
2.83545e-05
0.00261845
3.22233e-05
0.00261283
3.52275e-05
0.00260688
3.68763e-05
0.00260091
3.69856e-05
0.00259524
3.56232e-05
0.00259008
3.30366e-05
0.00258558
2.95806e-05
0.00258182
2.56522e-05
0.00257879
2.16374e-05
0.00257641
1.78723e-05
0.00257458
1.46167e-05
0.00257316
1.20412e-05
0.002572
1.02239e-05
0.00257095
9.1578e-06
0.00256991
8.76487e-06
0.00256878
8.91555e-06
0.0025675
9.45075e-06
0.00256603
1.02036e-05
0.00256439
1.10186e-05
0.0025626
1.17661e-05
0.0025607
1.23512e-05
0.00255873
1.27173e-05
0.00255675
1.28437e-05
0.00255479
1.27408e-05
0.0025529
1.24424e-05
0.00255109
1.19969e-05
0.00254939
1.14594e-05
0.00254779
1.08843e-05
0.00254629
1.03201e-05
0.00254488
9.80586e-06
0.00254353
9.36883e-06
0.00254223
9.02432e-06
0.00254097
8.77637e-06
0.00253971
8.61941e-06
0.00253846
8.5405e-06
0.0025372
8.5219e-06
0.00253593
8.54365e-06
0.00253464
8.58601e-06
0.00253333
8.63142e-06
0.00253201
8.66595e-06
0.00253068
8.68011e-06
0.00252935
8.6689e-06
0.00252802
8.63134e-06
0.00252669
8.56961e-06
0.00252538
8.48786e-06
0.00252408
8.39115e-06
0.00252279
8.28446e-06
0.00252151
8.17199e-06
0.00252024
8.05673e-06
0.00251898
7.94016e-06
0.00251773
7.8222e-06
0.00251649
7.70109e-06
0.00251526
7.57353e-06
0.00251403
7.43488e-06
0.00251281
7.27961e-06
0.0025116
7.10165e-06
0.00251041
6.89433e-06
0.00250923
6.64922e-06
0.00250809
6.35351e-06
0.00250697
5.9859e-06
0.00250591
5.51215e-06
0.0025049
4.88277e-06
0.00250397
4.03576e-06
0.00250314
2.90736e-06
0.00250244
1.45145e-06
0.0025019
-3.34892e-07
0.00250153
-2.38621e-06
0.00250134
-4.55358e-06
0.00250132
-6.6087e-06
0.00250144
-8.27296e-06
0.00250164
-9.26972e-06
0.00250184
-9.3894e-06
0.00250197
-8.55003e-06
0.00250194
-6.83436e-06
0.00250171
-4.48904e-06
0.00250127
-1.88211e-06
0.00250066
5.71963e-07
0.00249994
2.5005e-06
0.0024992
3.65009e-06
0.00249855
3.93324e-06
0.00249807
3.43306e-06
0.0024978
2.36814e-06
0.00249777
1.02993e-06
0.00249794
-2.88399e-07
0.00249826
-1.35317e-06
0.00249867
-2.02783e-06
0.00249908
-2.28177e-06
0.00249945
-2.17337e-06
0.00249974
-1.81645e-06
0.00249993
-1.342e-06
0.00250004
-8.65637e-07
0.00250007
-4.67382e-07
0.00250006
-1.85465e-07
0.00250004
-2.16701e-08
0.00250001
4.65406e-08
0.00249998
5.22495e-08
0.00249997
2.76432e-08
0.00249997
-3.0251e-09
0.00249998
-2.58489e-08
0.00249998
-3.61421e-08
0.00249999
-3.54197e-08
0.0025
-2.80349e-08
0.0025
-1.85307e-08
0.0025
-1.01375e-08
0.0025
-4.36563e-09
0.0025
-1.30294e-09
0.0025
-2.5191e-10
0.0025
-2.82527e-10
0.0025
-6.59453e-10
-9.60951e-10
0.00250195
-2.04447e-05
0.00250794
-6.20071e-05
0.00251878
-0.000107859
0.00253582
-0.000160311
0.00256103
-0.000221163
0.00259689
-0.000290619
0.00264601
-0.000366694
0.00270955
-0.000440603
0.00278676
-0.000502349
0.00286883
-0.000527836
0.00294449
-0.000507646
0.00301084
-0.00046584
0.00306675
-0.000411083
0.00311249
-0.000350974
0.00314921
-0.000291189
0.00317814
-0.00023379
0.00320023
-0.000179032
0.00321584
-0.000125544
0.00322461
-7.15744e-05
0.0032257
-1.61338e-05
0.00321834
3.96647e-05
0.00320258
9.21333e-05
0.0031798
0.000136076
0.00315267
0.000166894
0.00312441
0.000182682
0.0030979
0.000185386
0.00307471
0.000180492
0.0030546
0.000175375
0.00303568
0.000176843
0.0030151
0.000188716
0.00299021
0.000210457
0.00295953
0.000237592
0.00292318
0.00026364
0.0028827
0.000282458
0.00284047
0.000289925
0.00279907
0.000284525
0.00276078
0.000267037
0.00272728
0.000239835
0.0026996
0.000206129
0.0026781
0.000169359
0.00266258
0.000132772
0.00265236
9.91364e-05
0.00264642
7.05638e-05
0.00264358
4.83909e-05
0.00264258
3.31366e-05
0.00264226
2.45365e-05
0.00264167
2.16565e-05
0.00264016
2.30899e-05
0.00263739
2.72117e-05
0.00263331
3.24372e-05
0.0026281
3.74286e-05
0.00262211
4.12198e-05
0.00261573
4.32547e-05
0.00260936
4.33538e-05
0.00260335
4.16392e-05
0.00259794
3.84429e-05
0.0025933
3.42165e-05
0.0025895
2.94527e-05
0.00258652
2.46224e-05
0.00258426
2.013e-05
0.0025826
1.62834e-05
0.00258136
1.32801e-05
0.00258037
1.12052e-05
0.00257949
1.00403e-05
0.00257857
9.68253e-06
0.00257752
9.96808e-06
0.00257627
1.06996e-05
0.0025748
1.16726e-05
0.00257312
1.2699e-05
0.00257127
1.36238e-05
0.00256928
1.43361e-05
0.00256723
1.47718e-05
0.00256516
1.4911e-05
0.00256313
1.4771e-05
0.00256118
1.43964e-05
0.00255932
1.38484e-05
0.00255759
1.31954e-05
0.00255597
1.25038e-05
0.00255446
1.1832e-05
0.00255304
1.1226e-05
0.00255169
1.07176e-05
0.00255039
1.03237e-05
0.00254912
1.00476e-05
0.00254785
9.88127e-06
0.00254659
9.80786e-06
0.0025453
9.80516e-06
0.002544
9.8486e-06
0.00254267
9.91416e-06
0.00254132
9.98081e-06
0.00253996
1.00322e-05
0.00253858
1.00573e-05
0.0025372
1.00509e-05
0.00253582
1.00126e-05
0.00253444
9.94561e-06
0.00253307
9.8555e-06
0.00253171
9.74877e-06
0.00253037
9.63171e-06
0.00252903
9.50954e-06
0.0025277
9.38594e-06
0.00252638
9.26281e-06
0.00252506
9.14015e-06
0.00252374
9.01606e-06
0.00252243
8.88679e-06
0.00252112
8.747e-06
0.00251981
8.59013e-06
0.0025185
8.40884e-06
0.0025172
8.19501e-06
0.00251591
7.93868e-06
0.00251464
7.62547e-06
0.00251339
7.23253e-06
0.00251218
6.724e-06
0.00251101
6.04861e-06
0.00250991
5.14246e-06
0.00250888
3.94003e-06
0.00250793
2.39432e-06
0.00250709
5.03542e-07
0.00250637
-1.66247e-06
0.00250576
-3.94616e-06
0.00250526
-6.10659e-06
0.00250484
-7.85e-06
0.00250445
-8.88516e-06
0.00250406
-8.99254e-06
0.0025036
-8.08885e-06
0.00250303
-6.2667e-06
0.00250233
-3.79383e-06
0.00250152
-1.06756e-06
0.00250062
1.46592e-06
0.00249972
3.40684e-06
0.00249888
4.48618e-06
0.0024982
4.61669e-06
0.00249773
3.89839e-06
0.00249752
2.5802e-06
0.00249756
9.90837e-07
0.00249781
-5.40464e-07
0.00249821
-1.75286e-06
0.00249868
-2.49682e-06
0.00249914
-2.74457e-06
0.00249954
-2.57063e-06
0.00249984
-2.11301e-06
0.00250002
-1.52836e-06
0.00250011
-9.53649e-07
0.00250013
-4.82326e-07
0.0025001
-1.57138e-07
0.00250005
2.30894e-08
0.00250001
8.84664e-08
0.00249998
8.1084e-08
0.00249997
4.09868e-08
0.00249997
-2.34364e-09
0.00249998
-3.27131e-08
0.00249998
-4.5523e-08
0.00249999
-4.37576e-08
0.0025
-3.36288e-08
0.0025
-2.12224e-08
0.0025
-1.06715e-08
0.0025
-3.75752e-09
0.0025
-4.01654e-10
0.0025
4.36965e-10
0.0025
3.84091e-11
0.0025
-6.66823e-10
-1.13468e-09
0.00250162
-2.20623e-05
0.00250662