/*--------------------------------*- C++ -*----------------------------------*\
  =========                 |
  \\      /  F ield         | OpenFOAM: The Open Source CFD Toolbox
   \\    /   O peration     | Website:  https://openfoam.org
    \\  /    A nd           | Version:  11
     \\/     M anipulation  |
\*---------------------------------------------------------------------------*/
FoamFile
{
    format      ascii;
    class       volScalarField;
    location    "19.367789";
    object      p;
}
// * * * * * * * * * * * * * * * * * * * * * * * * * * * * * * * * * * * * * //

dimensions      [0 2 -2 0 0 0 0];

internalField   nonuniform List<scalar> 
7132
(
0.0842858
0.083166
0.0794153
0.0739698
0.0664112
0.0566043
0.0446289
0.0306956
0.0154907
0.000116278
-0.0140788
-0.0254079
-0.033348
-0.0377102
-0.0387342
-0.036924
-0.0325339
-0.0259153
-0.0177601
-0.0089095
-0.000114624
0.00812016
0.0155261
0.0219393
0.0271603
0.0308433
0.0326645
0.0327029
0.0317223
0.0308228
0.0307428
0.0315241
0.0327668
0.034051
0.0351602
0.0361233
0.0370897
0.038167
0.0391703
0.0394854
0.0384015
0.0358431
0.0327634
0.0305199
0.0298518
0.0304872
0.0316282
0.0325943
0.0331076
0.0332648
0.0333547
0.0336326
0.0339967
0.0338301
0.0323668
0.0295038
0.0262421
0.0240502
0.0237155
0.0248868
0.0265507
0.0278415
0.0284218
0.0284225
0.0282052
0.0280871
0.0280183
0.0274764
0.0258285
0.0230357
0.0200066
0.0180643
0.0179595
0.0193935
0.0213611
0.0229175
0.0236469
0.0236558
0.0233172
0.0229523
0.0225301
0.0216361
0.019835
0.017221
0.0146092
0.0130625
0.0131553
0.0146243
0.0166124
0.0182513
0.0190906
0.0191643
0.0187897
0.0182541
0.0175492
0.0163855
0.0145247
0.012179
0.010064
0.00897837
0.00928249
0.0106992
0.0125269
0.0140589
0.0148937
0.0150057
0.0146139
0.0139383
0.0130018
0.0116622
0.00986357
0.00788692
0.00631544
0.00569578
0.00619748
0.00752663
0.0091176
0.010431
0.0111535
0.0112382
0.0108145
0.0100309
0.00894438
0.00755596
0.00596099
0.00446051
0.00347909
0.0033282
0.00401953
0.00525739
0.00660069
0.00766073
0.00821697
0.00822811
0.00776803
0.00693826
0.00582536
0.00453178
0.00324151
0.00223275
0.00177888
0.00200677
0.00281679
0.00393015
0.0050051
0.00578019
0.00609357
0.00594668
0.00533647
0.00442343
0.00315998
0.00192123
0.000521668
-0.000201225
-0.00100143
-0.000518752
-0.000643117
0.000340514
0.000868758
-0.000787126
0.0847294
0.083617
0.0798937
0.0744714
0.0669206
0.0570797
0.0450062
0.0308795
0.0153962
-0.000316567
-0.0148223
-0.0262935
-0.0342538
-0.0385445
-0.0394698
-0.0375921
-0.0331349
-0.0264056
-0.0180997
-0.0090839
-0.000133677
0.00823424
0.0157478
0.0222404
0.0275107
0.031196
0.0329484
0.0328427
0.031686
0.0306497
0.0305105
0.0312985
0.0325788
0.0339083
0.0350616
0.0360667
0.0370717
0.0381858
0.0392212
0.0395411
0.0384015
0.0357212
0.0325009
0.0301733
0.0294965
0.0301916
0.0314116
0.0324471
0.0330121
0.0332051
0.0333174
0.0336091
0.0339769
0.0337883
0.0322556
0.0292759
0.0258905
0.0236288
0.0233069
0.0245599
0.0263284
0.0277102
0.028354
0.028391
0.0281887
0.0280717
0.0279868
0.0273988
0.0256646
0.0227585
0.0196277
0.0176375
0.0175551
0.0190708
0.0211458
0.0228026
0.0236052
0.0236552
0.023331
0.0229618
0.0225132
0.0215596
0.0196634
0.016941
0.0142468
0.0126751
0.0128037
0.0143533
0.0164391
0.0181698
0.0190793
0.0191947
0.0188342
0.0182892
0.0175479
0.016316
0.0143611
0.0119199
0.00974223
0.00864973
0.00900062
0.0104988
0.0124165
0.0140282
0.0149224
0.0150692
0.0146865
0.0139941
0.0130123
0.0115998
0.00971323
0.00765785
0.0060438
0.00543196
0.00598643
0.00739475
0.00906788
0.0104499
0.0112198
0.0113285
0.0109046
0.0100956
0.00895787
0.00749808
0.00582678
0.00426685
0.00326214
0.0031309
0.00387673
0.00518684
0.00660075
0.00771633
0.00830696
0.00833002
0.0078594
0.00699697
0.00583145
0.00447377
0.00312289
0.00207437
0.0016137
0.00186912
0.00273178
0.0039076
0.00503983
0.0058571
0.00619333
0.00604936
0.00542272
0.00447533
0.003163
0.00187119
0.000423956
-0.00032048
-0.00112529
-0.000599351
-0.000702478
0.000370209
0.000898141
-0.00072647
0.0856133
0.084517
0.0808505
0.0754791
0.0679494
0.0580463
0.0457806
0.031265
0.015215
-0.00119607
-0.0163429
-0.028095
-0.0360819
-0.0402063
-0.0409088
-0.0388904
-0.0343042
-0.027363
-0.0187644
-0.00942624
-0.000171573
0.00845819
0.0161851
0.0228385
0.0282116
0.0319057
0.0335195
0.0331159
0.0315921
0.0302728
0.0300154
0.0308228
0.0321836
0.0336056
0.034846
0.0359323
0.0370135
0.0382017
0.0393047
0.0396375
0.0383838
0.0354492
0.0319337
0.0294237
0.0287415
0.0295679
0.0309553
0.0321334
0.032801
0.033062
0.0332167
0.0335358
0.0339126
0.033679
0.0320002
0.0287756
0.0251318
0.0227263
0.0224375
0.0238661
0.0258552
0.0274258
0.0281968
0.0283025
0.0281265
0.028011
0.0278971
0.0272194
0.0253115
0.0221748
0.0188367
0.0167497
0.0167144
0.0183982
0.0206927
0.0225526
0.0235006
0.0236291
0.0233308
0.0229537
0.0224551
0.0213842
0.0192984
0.0163589
0.0134998
0.0118793
0.0120833
0.013798
0.0160816
0.017995
0.0190422
0.0192382
0.018905
0.0183424
0.0175297
0.0161603
0.0140135
0.0113775
0.009073
0.00796818
0.00841777
0.0100847
0.0121867
0.0139593
0.0149715
0.0151869
0.014823
0.0140983
0.0130254
0.0114636
0.00939472
0.00717598
0.00547398
0.0048791
0.00554443
0.00711707
0.0089594
0.0104816
0.0113476
0.0115051
0.0110821
0.0102231
0.00898135
0.0073741
0.00554356
0.00385899
0.00280511
0.00271461
0.00357429
0.00503405
0.00659342
0.00782289
0.00848402
0.00853228
0.00804199
0.00711434
0.00584166
0.00435145
0.00287395
0.00174155
0.00126572
0.0015777
0.00254932
0.00385397
0.00510395
0.00600772
0.00639107
0.00625419
0.0055956
0.00457939
0.00316738
0.00176612
0.000219413
-0.00057076
-0.00138594
-0.000771244
-0.000831065
0.000427027
0.000941779
-0.00057569
0.0869312
0.0858612
0.0822869
0.0770023
0.0695177
0.0595357
0.0469918
0.0318865
0.0149598
-0.00255851
-0.0187228
-0.0308975
-0.0389115
-0.0427665
-0.0431379
-0.0409336
-0.0361767
-0.0289086
-0.0198412
-0.00998863
-0.000256878
0.00877626
0.016829
0.0237287
0.0292641
0.0329766
0.0343722
0.0334903
0.0313757
0.0296106
0.0291838
0.0300438
0.0315451
0.0331152
0.0344877
0.0356931
0.0368847
0.0381813
0.0393849
0.0397312
0.0382871
0.034935
0.0309405
0.028147
0.0274833
0.0285469
0.0302165
0.0316227
0.0324455
0.0328026
0.0330121
0.0333633
0.0337459
0.0334365
0.031523
0.0279062
0.0238496
0.0212189
0.0209964
0.0227239
0.0250786
0.0269526
0.0279183
0.0281195
0.0279723
0.0278523
0.0276931
0.0268786
0.0247039
0.021212
0.0175556
0.0153239
0.0153704
0.0173243
0.0199642
0.0221371
0.0233032
0.0235454
0.0232831
0.0228951
0.0223216
0.0210672
0.0186803
0.0153966
0.0122806
0.0105937
0.0109321
0.0129183
0.0155147
0.017708
0.0189604
0.0192752
0.0189844
0.0183978
0.0174743
0.0158838
0.0134264
0.0104776
0.00797379
0.00685831
0.00747686
0.00942032
0.0118165
0.013839
0.0150304
0.0153496
0.0150163
0.0142441
0.0130275
0.0112242
0.00885896
0.00637635
0.00453589
0.00397478
0.00482517
0.00666446
0.0087763
0.0105177
0.0115319
0.0117648
0.011345
0.0104095
0.00900293
0.00715784
0.00506906
0.00318336
0.00205268
0.00203192
0.00307872
0.00477947
0.00656961
0.00797732
0.00874776
0.00883545
0.00831574
0.00728651
0.00584378
0.0041408
0.00245912
0.00119205
0.000693672
0.00109916
0.00224747
0.00375811
0.005194
0.00623277
0.00668908
0.00656328
0.00585533
0.00473106
0.00316095
0.00158426
-0.000121199
-0.000985217
-0.00181293
-0.00105713
-0.0010431
0.000510635
0.000979481
-0.000287601
0.0886723
0.0876415
0.084203
0.079054
0.0716558
0.0615978
0.0487047
0.032804
0.01466
-0.00445181
-0.0220781
-0.0348031
-0.0427947
-0.0461946
-0.0460473
-0.043602
-0.0386624
-0.0309868
-0.0212987
-0.0107566
-0.000387413
0.00918121
0.017667
0.0249001
0.0306644
0.034411
0.0354967
0.0339137
0.0309294
0.0285257
0.027889
0.0288683
0.0305989
0.0323873
0.0339392
0.0352974
0.0366273
0.0380626
0.0393968
0.0397479
0.0380067
0.0340212
0.0293095
0.0261182
0.0255362
0.0270006
0.0291146
0.0308588
0.0318931
0.0323633
0.0326175
0.0329797
0.033352
0.0329404
0.0307218
0.0265801
0.021949
0.0189873
0.0188476
0.0210132
0.0239092
0.0262254
0.0274594
0.0277741
0.0276464
0.0275137
0.0272973
0.0262963
0.0237432
0.0197454
0.0156464
0.0132327
0.0134229
0.015774
0.018902
0.0215062
0.0229643
0.0233532
0.0231389
0.0227432
0.0220699
0.02055
0.0177209
0.013935
0.0104538
0.00869059
0.00924901
0.0116439
0.0146924
0.0172747
0.0188032
0.0192768
0.0190484
0.0184356
0.0173554
0.0154392
0.012524
0.00911927
0.00633291
0.00521453
0.00609205
0.00844431
0.0112662
0.0136417
0.0150805
0.015543
0.0152569
0.0144228
0.0130002
0.010842
0.00804088
0.00517449
0.00313851
0.00263478
0.00376106
0.00598865
0.00848763
0.0105397
0.0117618
0.0121017
0.0116908
0.0106499
0.00900645
0.00681391
0.0043472
0.00216975
0.000931885
0.00101779
0.00233933
0.00438826
0.00650795
0.00816779
0.00909263
0.00923799
0.0086804
0.00750903
0.00582222
0.00381012
0.00183109
0.000369306
-0.00015898
0.000385068
0.00179006
0.00359635
0.00529634
0.00652551
0.00708509
0.00697681
0.00620178
0.00492529
0.00312884
0.00129801
-0.000636264
-0.00160793
-0.00244778
-0.00149098
-0.00136405
0.000612408
0.000976024
0.000197365
0.0908209
0.0898454
0.0865975
0.0816499
0.0744034
0.0643002
0.0510093
0.0341032
0.0143558
-0.00695939
-0.0266047
-0.0400047
-0.0479091
-0.0506464
-0.0498194
-0.0471527
-0.0420659
-0.0338645
-0.0233213
-0.0118389
-0.000626203
0.00963073
0.0186647
0.0263228
0.0323935
0.0361983
0.0368598
0.0342862
0.0300709
0.0267986
0.0259369
0.0271589
0.0292531
0.0313515
0.0331334
0.0346697
0.0361507
0.0377299
0.0392
0.0395315
0.0373635
0.03248
0.0267501
0.0230169
0.0226234
0.0247399
0.0275352
0.0297647
0.0310695
0.0316448
0.031893
0.0322113
0.0325478
0.0320134
0.0294242
0.0246271
0.0192696
0.0158861
0.0158605
0.018615
0.0222475
0.0251618
0.0267407
0.0271782
0.0270568
0.0269124
0.0266325
0.025377
0.0222878
0.017583
0.0128937
0.0102809
0.0107265
0.0136498
0.0174386
0.0206025
0.0224264
0.0229965
0.0228501
0.0224569
0.0216504
0.0197557
0.0163073
0.0118333
0.00786835
0.00602723
0.00691611
0.00988999
0.0135576
0.0166527
0.0185332
0.0192103
0.0190713
0.0184317
0.0171356
0.0147631
0.011215
0.00719495
0.00404019
0.00293507
0.00417854
0.00709309
0.0104915
0.0133356
0.0150967
0.0157474
0.0155294
0.0146157
0.0129097
0.0102598
0.00686181
0.00348119
0.00119481
0.000782333
0.00229023
0.0050441
0.00806164
0.0105252
0.012021
0.0125039
0.0121092
0.0109273
0.00895901
0.0062885
0.00330716
0.000740909
-0.00062968
-0.000388281
0.00131016
0.00382842
0.00638723
0.0083804
0.0095094
0.0097332
0.00912804
0.00776557
0.00574514
0.00330972
0.000927112
-0.00079295
-0.00135239
-0.000612704
0.00114246
0.00334601
0.00539693
0.00687742
0.0075738
0.00749051
0.00662794
0.00514631
0.00304182
0.000863742
-0.00137813
-0.002493
-0.00333633
-0.00210884
-0.00181687
0.00072214
0.000898858
0.000935531
0.0933548
0.092455
0.0894656
0.0848075
0.07781
0.0677331
0.0540322
0.0359135
0.0141223
-0.0101837
-0.0325556
-0.0467074
-0.0543341
-0.0560026
-0.0541835
-0.0513409
-0.0462545
-0.037494
-0.0258992
-0.0132423
-0.000995227
0.0100843
0.0197647
0.0279341
0.0343971
0.0382953
0.0383919
0.0344447
0.0285116
0.0240811
0.0230272
0.024715
0.0273804
0.029911
0.0319744
0.0336954
0.035292
0.0369328
0.0384717
0.0387734
0.0361613
0.0302204
0.0231403
0.0185926
0.0184216
0.0215062
0.0253133
0.0282299
0.029867
0.030505
0.0306585
0.0308768
0.0311734
0.0304951
0.0274104
0.0217464
0.0154888
0.0116533
0.0118624
0.0154039
0.0199874
0.0236628
0.025662
0.0262305
0.0261125
0.0259737
0.0256219
0.0240142
0.0201919
0.0145529
0.0091174
0.00629678
0.00713565
0.0108456
0.0154966
0.0193588
0.0216233
0.0224136
0.0223655
0.0219891
0.0210037
0.0186021
0.0143425
0.00899574
0.00443655
0.00252088
0.00385483
0.00758801
0.0120537
0.0157932
0.0181057
0.0190357
0.0190191
0.0183497
0.0167655
0.0137896
0.00942739
0.00463911
0.00104196
-2.73717e-05
0.00169118
0.00532335
0.00945222
0.012884
0.0150462
0.015934
0.015808
0.0147907
0.0127104
0.00941839
0.00525904
0.00124161
-0.00133799
-0.00161705
0.000381066
0.00380026
0.00746874
0.0104467
0.0122851
0.0129503
0.0125789
0.0112126
0.00881687
0.00552508
0.00188919
-0.00115587
-0.00267348
-0.00221841
-3.58445e-05
0.00307532
0.00618427
0.00859387
0.00997966
0.0103051
0.0096409
0.00802917
0.0055714
0.00258643
-0.000309708
-0.0023464
-0.00292855
-0.00192671
0.000278495
0.00298478
0.00547595
0.00727101
0.00814038
0.00809112
0.0071178
0.00536935
0.00286309
0.00023459
-0.00239582
-0.00368551
-0.00451309
-0.00293908
-0.00241888
0.000823912
0.000719828
0.00195981
0.0962436
0.0954446
0.0927969
0.0885423
0.0819309
0.0720063
0.0579348
0.0384101
0.0140625
-0.0142925
-0.0403266
-0.0552732
-0.06241
-0.0625608
-0.0594618
-0.0566158
-0.0517585
-0.0423278
-0.0293298
-0.0151372
-0.00160294
0.0104481
0.0208642
0.029618
0.0365687
0.0405965
0.0399259
0.0340647
0.0257489
0.0198307
0.0187248
0.0212552
0.0248069
0.027937
0.0303356
0.0322086
0.0337749
0.0352389
0.0366873
0.0369555
0.0340214
0.027081
0.0184508
0.0127699
0.0127198
0.0170477
0.0222507
0.0261097
0.0281463
0.0287785
0.028744
0.0288433
0.029121
0.0282451
0.0244614
0.0176508
0.0102989
0.00601899
0.00665641
0.011252
0.0170295
0.0216287
0.0241188
0.0248334
0.0247347
0.0246278
0.0241824
0.0221046
0.0173543
0.0105832
0.00427345
0.00123669
0.00259176
0.00729731
0.0130141
0.0177123
0.0204897
0.0215431
0.0216306
0.0212828
0.0200621
0.0170195
0.0117773
0.00540997
0.000177632
-0.00180399
7.28444e-05
0.00472218
0.0101468
0.0146521
0.0174724
0.0187052
0.0188448
0.0181364
0.0161851
0.0124642
0.00713103
0.00145694
-0.00262862
-0.00363289
-0.00134499
0.00313682
0.00812863
0.0122534
0.0148891
0.0160615
0.0160492
0.0148968
0.0123452
0.00826807
0.00320699
-0.00153786
-0.00442966
-0.00452763
-0.00194257
0.00226103
0.00669379
0.0102761
0.0125202
0.013405
0.0130602
0.0114579
0.00852595
0.00447524
6.53144e-05
-0.00352204
-0.00518185
-0.00445053
-0.0016854
0.00212728
0.00588303
0.00878271
0.0104739
0.0109227
0.0101835
0.00825602
0.00525062
0.00159321
-0.00191151
-0.00430375
-0.00488664
-0.00355219
-0.000802313
0.00250262
0.00551424
0.00768155
0.00875825
0.00875163
0.00763973
0.0055553
0.00254829
-0.00063164
-0.00371967
-0.00520246
-0.00598136
-0.00398596
-0.00316732
0.000902245
0.000430149
0.0032612
0.0994472
0.0987793
0.0965729
0.0928673
0.086829
0.0772584
0.0629361
0.0418556
0.0143592
-0.0194924
-0.0504385
-0.0660659
-0.0721704
-0.0698973
-0.0650263
-0.0625861
-0.0585257
-0.0484655
-0.0337171
-0.0176054
-0.0025378
0.0105953
0.0217836
0.0311638
0.0386981
0.0428574
0.0410807
0.0325235
0.0208706
0.0130815
0.0123284
0.0163739
0.0213107
0.025275
0.028058
0.0299732
0.0312196
0.0321678
0.0333843
0.0336651
0.0304616
0.0224466
0.0121471
0.00524963
0.00537348
0.0111917
0.0181642
0.0232384
0.0257467
0.0263064
0.0260217
0.0260236
0.0263029
0.0251395
0.0204479
0.012262
0.00366466
-0.00106277
0.000166018
0.0060842
0.0132991
0.0189721
0.0220151
0.0228996
0.0228504
0.0228006
0.0222314
0.0195791
0.013762
0.00574092
-0.00151088
-0.00476796
-0.00281949
0.00303025
0.00997048
0.0156149
0.0189645
0.0203202
0.0205786
0.0202649
0.0187561
0.0149687
0.00863279
0.00116718
-0.00476753
-0.0067995
-0.00431598
0.00134973
0.00784129
0.0131975
0.0165822
0.018159
0.0184824
0.0177199
0.015332
0.0107604
0.00435873
-0.0022568
-0.00683712
-0.00774346
-0.00482294
0.000590729
0.00652892
0.011416
0.014577
0.0160714
0.0161865
0.0148649
0.0117572
0.00678824
0.000740479
-0.00476842
-0.0079607
-0.00783175
-0.00459277
0.000470555
0.0057385
0.00998394
0.0126792
0.0138123
0.0134911
0.0115993
0.00803472
0.00312123
-0.00213398
-0.00628314
-0.00805852
-0.00699477
-0.00357675
0.00100901
0.00547413
0.00891366
0.0109461
0.0115343
0.0106993
0.00838911
0.00473755
0.000313412
-0.00385678
-0.00661151
-0.00716171
-0.00543257
-0.00206684
0.00190402
0.00549145
0.00807239
0.00938301
0.00942497
0.00814365
0.00565512
0.00205981
-0.00174933
-0.00533406
-0.00700723
-0.0076935
-0.00521627
-0.0040328
0.000942964
4.39583e-05
0.00477342
0.102913
0.102411
0.100762
0.0977827
0.0925625
0.0836422
0.0692984
0.0465962
0.0152563
-0.0261268
-0.0636632
-0.0797665
-0.0843657
-0.0786565
-0.0713701
-0.0698671
-0.0673468
-0.0566139
-0.0395167
-0.0209022
-0.003984
0.0103218
0.022248
0.0322353
0.040307
0.0445036
0.0411743
0.0288728
0.0126702
0.00251815
0.00283965
0.00950604
0.0166051
0.0217425
0.0249475
0.0266973
0.0272491
0.0274365
0.0284319
0.0288081
0.0251698
0.0157294
0.00359244
-0.0044023
-0.00380072
0.00383355
0.012924
0.0194625
0.0225136
0.0229616
0.0224103
0.0223552
0.0226465
0.0211141
0.0153899
0.00573934
-0.00415256
-0.00934048
-0.00744976
-4.15323e-05
0.00878679
0.0156414
0.0192794
0.0203572
0.0203884
0.0204132
0.0196972
0.0164184
0.00949375
0.000215052
-0.00796814
-0.0114365
-0.00887216
-0.00182525
0.00640697
0.0130487
0.0169979
0.0186785
0.0191305
0.0188514
0.0170238
0.0124504
0.00500169
-0.00354835
-0.0101554
-0.0122129
-0.00910281
-0.00239833
0.00518654
0.0114166
0.0153842
0.0173242
0.0178463
0.0170144
0.0141502
0.00868869
0.00120835
-0.00632461
-0.0113604
-0.0121358
-0.00856233
-0.00220397
0.00469138
0.0103519
0.0140528
0.015885
0.0161299
0.0146112
0.0108978
0.0049974
-0.0020405
-0.00828181
-0.0117299
-0.0113373
-0.00742214
-0.00148757
0.00462254
0.00953975
0.0126993
0.0140924
0.0137846
0.0115604
0.00730449
0.00148857
-0.00461079
-0.00928619
-0.0111312
-0.00969635
-0.00560037
-0.000227345
0.00495601
0.0089452
0.0113308
0.0120636
0.0111087
0.00836296
0.00400428
-0.00122347
-0.00605663
-0.00914108
-0.00961647
-0.00745514
-0.00344479
0.00121112
0.0053878
0.00839457
0.00994977
0.0100391
0.00856017
0.00561545
0.00137943
-0.00308861
-0.00716198
-0.00899751
-0.00954248
-0.00655304
-0.00495478
0.000936928
-0.000398747
0.00637056
0.106576
0.10628
0.105317
0.103278
0.0991883
0.0913474
0.0773789
0.0531692
0.0171951
-0.0346413
-0.0811269
-0.0968956
-0.0985018
-0.0874096
-0.0771673
-0.0781534
-0.0787161
-0.0673626
-0.0471041
-0.0252452
-0.00614465
0.00933727
0.0218363
0.032127
0.0401342
0.044137
0.039696
0.0238774
0.00206801
-0.0121391
-0.010816
-0.000117278
0.0103296
0.0171459
0.0207974
0.022105
0.0216266
0.0209853
0.021864
0.0223636
0.0180817
0.0069768
-0.00707846
-0.0160716
-0.0147589
-0.00499725
0.00649566
0.0146829
0.0183324
0.0186617
0.0178599
0.0177875
0.0181041
0.0161865
0.0094496
-0.00158552
-0.0126964
-0.0183393
-0.0158123
-0.00690576
0.00357735
0.0116392
0.0158743
0.0171509
0.0172787
0.017388
0.0165312
0.0126577
0.00470803
-0.00571357
-0.0147331
-0.0183825
-0.0152339
-0.0070456
0.00243043
0.0100323
0.0145545
0.0165497
0.0171978
0.0169544
0.0148201
0.0095073
0.00103842
-0.00848119
-0.0156674
-0.0177153
-0.0140078
-0.00633157
0.00227315
0.00931651
0.013828
0.016115
0.0168305
0.0159272
0.0125997
0.00629941
-0.00216537
-0.0105054
-0.0159115
-0.0165269
-0.0123302
-0.00509551
0.00267883
0.00904823
0.0132499
0.0154043
0.0157701
0.0140463
0.00973728
0.00295702
-0.00497827
-0.0118483
-0.0154778
-0.0148008
-0.0102417
-0.00350161
0.00337782
0.00890934
0.0125016
0.0141417
0.0138337
0.0112628
0.00632133
-0.000348243
-0.00720541
-0.0123155
-0.0141708
-0.0123537
-0.00761297
-0.00151108
0.00432994
0.00882475
0.0115418
0.0124096
0.0113156
0.00811588
0.00305419
-0.00293344
-0.00835665
-0.0116996
-0.0120589
-0.00946324
-0.00483748
0.000458329
0.00518087
0.00858484
0.0103721
0.0104994
0.0088072
0.00539117
0.000522745
-0.00456554
-0.0090635
-0.0110105
-0.01137
-0.00788191
-0.00584816
0.000879084
-0.000840254
0.0078756
0.110354
0.110304
0.110168
0.109306
0.106732
0.100538
0.0875624
0.0622463
0.0206917
-0.0457455
-0.104273
-0.119097
-0.11695
-0.0978507
-0.0828325
-0.0877122
-0.0936313
-0.0819088
-0.0572682
-0.0310492
-0.00933566
0.00727283
0.0199792
0.0294314
0.0358454
0.0389578
0.0342405
0.0175494
-0.00873115
-0.0287629
-0.0282881
-0.0129952
0.00207257
0.0112551
0.0154164
0.0160168
0.014303
0.0128816
0.0137705
0.0144082
0.00943924
-0.00323241
-0.0190554
-0.0289987
-0.0269807
-0.015015
-0.0010087
0.00889789
0.0131619
0.0133774
0.012348
0.0122884
0.012668
0.0104526
0.00288753
-0.00928578
-0.0214174
-0.027469
-0.0244045
-0.0141539
-0.00214275
0.00703469
0.0118039
0.0132467
0.013461
0.0136625
0.0127181
0.00838245
-0.000380472
-0.0117104
-0.0213908
-0.0251682
-0.0215126
-0.0123428
-0.0017962
0.00662238
0.011618
0.0138706
0.0146926
0.0144955
0.0121245
0.00622008
-0.00306028
-0.0133359
-0.020951
-0.022948
-0.0187169
-0.0102234
-0.000777686
0.00692277
0.0118681
0.0144402
0.015326
0.0143713
0.0106619
0.00367686
-0.00557103
-0.0145252
-0.0201763
-0.0206089
-0.0158695
-0.00791032
0.000569623
0.00749714
0.0120964
0.0145184
0.0149882
0.0130862
0.00826936
0.000763448
-0.00787946
-0.015208
-0.0189208
-0.0179582
-0.012845
-0.00544682
0.00204176
0.00805454
0.0119938
0.0138401
0.0135225
0.0106371
0.00509982
-0.00227575
-0.00972014
-0.0151245
-0.0169249
-0.0147466
-0.00945735
-0.00276415
0.00359598
0.00848959
0.0114758
0.0124525
0.0112183
0.00760108
0.00192506
-0.00468899
-0.0105609
-0.0140598
-0.0142695
-0.0112794
-0.00613245
-0.000314732
0.00484434
0.00856789
0.0105467
0.0106976
0.00880147
0.00495572
-0.000458691
-0.00605266
-0.0108572
-0.0128483
-0.0129901
-0.009068
-0.00661589
0.000767216
-0.00121859
0.00908762
0.114148
0.114388
0.115216
0.115801
0.115194
0.111438
0.100397
0.0749942
0.0268406
-0.0607936
-0.135811
-0.145966
-0.136086
-0.105553
-0.0863017
-0.0999308
-0.114503
-0.101979
-0.0708438
-0.0386965
-0.01387
0.0037501
0.0158177
0.0223502
0.0252944
0.0268224
0.0228498
0.00724566
-0.0217193
-0.0471172
-0.048407
-0.028838
-0.00831879
0.00388935
0.00866949
0.00838152
0.00535796
0.00326036
0.00430235
0.00517763
-0.000266326
-0.0140913
-0.0312938
-0.042101
-0.0395668
-0.0256512
-0.00929692
0.00223082
0.00705274
0.00713808
0.00588492
0.0058597
0.00638511
0.00407677
-0.00397652
-0.0168967
-0.0297439
-0.0361104
-0.0326522
-0.0213473
-0.00810244
0.0019642
0.00711789
0.00863835
0.00889768
0.00920421
0.00828304
0.00372046
-0.0055244
-0.017423
-0.0275189
-0.0313492
-0.0273005
-0.0173991
-0.00607265
0.00290922
0.0081946
0.0105917
0.0115407
0.011418
0.00894656
0.00269893
-0.00707733
-0.0178097
-0.0256536
-0.0275532
-0.0229134
-0.0138369
-0.00382855
0.00427641
0.00946863
0.0122143
0.0132325
0.0122772
0.00834358
0.000929099
-0.00880332
-0.0181085
-0.023847
-0.0240821
-0.0189279
-0.0104731
-0.00155247
0.00569576
0.0105215
0.0131171
0.0136723
0.0116643
0.00651233
-0.00146538
-0.0105404
-0.0181033
-0.0217847
-0.0205562
-0.015033
-0.00720175
0.000650412
0.00693491
0.0110801
0.0130658
0.0127429
0.00963389
0.00368104
-0.00415904
-0.0119484
-0.0174701
-0.0191509
-0.0166647
-0.0109838
-0.00391385
0.00274918
0.00787086
0.0110228
0.0120701
0.0107254
0.00679563
0.000683406
-0.00634056
-0.0124639
-0.015995
-0.0160342
-0.0127314
-0.00722112
-0.0010722
0.00434686
0.00826178
0.0103641
0.0105255
0.00847253
0.0043073
-0.00148543
-0.00740136
-0.0123516
-0.0143104
-0.0142182
-0.00997739
-0.00716579
0.000599244
-0.0014844
0.00981595
0.117843
0.118408
0.120331
0.12261
0.124488
0.124067
0.116336
0.0925467
0.0364091
-0.0799558
-0.17857
-0.184415
-0.165557
-0.115068
-0.0857662
-0.111386
-0.142927
-0.130475
-0.0895698
-0.0489255
-0.0201378
-0.00165786
0.008292
0.00969228
0.00879177
0.00937508
0.00720335
-0.00760671
-0.0384444
-0.0676302
-0.0702039
-0.0468652
-0.0206443
-0.00498738
0.000522431
-0.000724967
-0.00505122
-0.00770496
-0.00633068
-0.00496901
-0.0104268
-0.0247621
-0.0427745
-0.0542637
-0.0514918
-0.0361534
-0.0179134
-0.00506535
0.00015276
3.54508e-05
-0.00147279
-0.00144389
-0.00063375
-0.00272104
-0.0107969
-0.0239623
-0.0371382
-0.0436842
-0.0399957
-0.0280216
-0.013978
-0.00337994
0.00191218
0.00335774
0.0035894
0.00402536
0.00329634
-0.00116804
-0.0104677
-0.0225149
-0.0327295
-0.0365274
-0.0322178
-0.0219022
-0.0101829
-0.000990872
0.00431808
0.00669087
0.00769866
0.00770112
0.0053287
-0.000926686
-0.0107976
-0.021622
-0.0294601
-0.0312135
-0.0263115
-0.0169489
-0.00673944
0.00143187
0.00661217
0.00937371
0.0104768
0.00960648
0.00567755
-0.00182461
-0.0116661
-0.0210071
-0.0266531
-0.0266852
-0.0212828
-0.0126254
-0.00360663
0.00364832
0.00846795
0.0111086
0.0117354
0.0097419
0.00450617
-0.0036063
-0.0127722
-0.0203071
-0.0238338
-0.0223786
-0.0166352
-0.00866173
-0.000765247
0.0055138
0.00967466
0.0117136
0.0114114
0.00823053
0.00212423
-0.00586302
-0.013703
-0.0191414
-0.0206389
-0.0179305
-0.0120676
-0.00490211
0.00177994
0.00690275
0.0100824
0.0111586
0.00977043
0.00570212
-0.000589493
-0.00774248
-0.0138815
-0.0173096
-0.0171709
-0.013674
-0.00801366
-0.00178791
0.00365525
0.00758873
0.00972454
0.00989286
0.0077738
0.00346676
-0.00246717
-0.00846918
-0.0133757
-0.0152234
-0.0148976
-0.0104963
-0.00742526
0.000372205
-0.00161447
0.00991941
0.121309
0.122229
0.125337
0.129566
0.134441
0.13863
0.136114
0.118094
0.0520889
-0.113598
-0.236239
-0.223751
-0.18794
-0.11595
-0.0846642
-0.13399
-0.18668
-0.171521
-0.115048
-0.0622114
-0.0283138
-0.00937361
-0.00343595
-0.0084084
-0.0123677
-0.0110677
-0.0106028
-0.0246365
-0.0562746
-0.0877782
-0.0916191
-0.0655394
-0.0341934
-0.0151316
-0.0088863
-0.0111024
-0.0166991
-0.0197868
-0.0178423
-0.0155834
-0.020405
-0.0344705
-0.0526144
-0.0645086
-0.0617866
-0.0457149
-0.0262956
-0.0126286
-0.00730142
-0.0077721
-0.00960725
-0.00949885
-0.00820951
-0.00967761
-0.0172289
-0.0300726
-0.0431415
-0.0497003
-0.0459461
-0.0337406
-0.0194309
-0.00876683
-0.00367223
-0.00251549
-0.00240932
-0.00180489
-0.00212433
-0.0061007
-0.0149663
-0.026694
-0.0366999
-0.0403587
-0.0359456
-0.0255749
-0.0139161
-0.00494332
5.44335e-05
0.00218745
0.00317055
0.00337164
0.00134808
-0.00451793
-0.0140269
-0.0245395
-0.0321176
-0.0336768
-0.0286807
-0.0193708
-0.00937968
-0.00154377
0.00330974
0.0058942
0.00703099
0.00636225
0.00272233
-0.00446512
-0.013991
-0.0230222
-0.0283861
-0.0282183
-0.022762
-0.0142391
-0.00552024
0.00137114
0.00590582
0.00843943
0.00913305
0.0073163
0.00230809
-0.00554488
-0.0144197
-0.021644
-0.0248916
-0.0232656
-0.0175256
-0.00974805
-0.00217953
0.00376779
0.0077189
0.00971494
0.00948277
0.00643373
0.000497244
-0.00726987
-0.0148361
-0.0199807
-0.0212388
-0.0184178
-0.0126219
-0.00569056
0.000678081
0.00553522
0.0085818
0.00965059
0.00832171
0.00434575
-0.00181216
-0.00877322
-0.0146719
-0.0178594
-0.0175485
-0.014005
-0.00844913
-0.00244756
0.00274105
0.00648909
0.00855613
0.00874218
0.0066886
0.00247101
-0.00331924
-0.0091403
-0.0138
-0.0154601
-0.0149168
-0.0105448
-0.00735146
8.33416e-05
-0.0016168
0.00933287
0.124403
0.125682
0.130027
0.136313
0.144726
0.154404
0.16002
0.151252
0.0759764
-0.135466
-0.334598
-0.300259
-0.238907
-0.111887
-0.0583248
-0.146637
-0.243478
-0.231012
-0.151624
-0.0800218
-0.0386944
-0.019715
-0.0194972
-0.0310216
-0.0371257
-0.0329763
-0.0289059
-0.0412007
-0.0721014
-0.104611
-0.109989
-0.0828166
-0.0478054
-0.0259723
-0.0191966
-0.0224225
-0.0292834
-0.0326841
-0.0298596
-0.0261575
-0.0295913
-0.0425688
-0.060137
-0.0720965
-0.0696651
-0.0535978
-0.0338534
-0.020028
-0.0150004
-0.0160571
-0.0183266
-0.0181021
-0.0160956
-0.0164998
-0.0229505
-0.0348923
-0.047408
-0.0537964
-0.0501291
-0.0381406
-0.0241433
-0.0139471
-0.009453
-0.00884551
-0.00897863
-0.0081527
-0.00781481
-0.0108829
-0.0188052
-0.0297349
-0.0392
-0.0426176
-0.0382533
-0.0281993
-0.017084
-0.0088024
-0.00449363
-0.00284521
-0.00197731
-0.00148758
-0.00288376
-0.00793521
-0.0166062
-0.0263941
-0.0334565
-0.0347774
-0.0298641
-0.0209627
-0.0116358
-0.00456986
-0.000389173
0.00180633
0.00292674
0.00259665
-0.000439624
-0.0068826
-0.0156509
-0.0240205
-0.0289149
-0.0285586
-0.0232571
-0.0152263
-0.0072308
-0.00110083
0.00284679
0.00511081
0.00587579
0.0044248
-1.21647e-05
-0.00718614
-0.0153753
-0.0220049
-0.0248556
-0.0231274
-0.0176329
-0.0104122
-0.00356858
0.00169777
0.00519767
0.00705272
0.00695992
0.00427903
-0.0011322
-0.0082915
-0.0152529
-0.0198966
-0.0208695
-0.0180622
-0.0126043
-0.00626036
-0.000559252
0.00374816
0.00649311
0.00752684
0.00638672
0.00276867
-0.00291466
-0.00934868
-0.0147487
-0.0175636
-0.0170986
-0.0136743
-0.00849988
-0.00304612
0.00159029
0.00493593
0.00682982
0.00705888
0.00523066
0.00136481
-0.00397509
-0.00933844
-0.0135484
-0.0149509
-0.0142207
-0.010085
-0.00693475
-0.000267096
-0.00152455
0.00807553
0.126979
0.128608
0.134136
0.142556
0.154745
0.171489
0.188841
0.204185
0.117237
-0.124049
-0.391548
-0.358769
-0.273528
-0.118683
-0.0448389
-0.140192
-0.271077
-0.284473
-0.192884
-0.101692
-0.0513233
-0.0327055
-0.0394002
-0.0573011
-0.0642754
-0.0550119
-0.0459516
-0.0550632
-0.0836244
-0.115877
-0.122999
-0.0966567
-0.0600871
-0.0366672
-0.0298356
-0.0342277
-0.0424005
-0.045987
-0.041906
-0.0361411
-0.0374366
-0.0485702
-0.0649085
-0.0765749
-0.0746011
-0.059227
-0.0400475
-0.0268123
-0.022584
-0.0245241
-0.0273567
-0.0269669
-0.0239839
-0.0228784
-0.0276803
-0.0381805
-0.0497262
-0.0557636
-0.0523121
-0.0409607
-0.0278469
-0.018672
-0.0152123
-0.0154364
-0.0159252
-0.0148169
-0.0135684
-0.0153168
-0.0218104
-0.031492
-0.0401056
-0.043185
-0.0390135
-0.0296322
-0.0195335
-0.0124173
-0.00918463
-0.00827212
-0.00760868
-0.00673411
-0.00722321
-0.0110449
-0.0184216
-0.0270937
-0.0334022
-0.0344472
-0.0297899
-0.0216425
-0.0134166
-0.00755118
-0.0043896
-0.00279454
-0.00173662
-0.0015861
-0.00370435
-0.0089827
-0.0165685
-0.0239437
-0.0281965
-0.0276702
-0.0227305
-0.0155424
-0.00868519
-0.00370783
-0.000645692
0.00118965
0.00203645
0.0011459
-0.00237616
-0.00846102
-0.0155861
-0.0213552
-0.0237058
-0.0219509
-0.0169441
-0.0106358
-0.00490495
-0.000661019
0.00215125
0.00377195
0.00389729
0.00182862
-0.00270217
-0.00887624
-0.0149183
-0.0188711
-0.0195262
-0.0168661
-0.0120175
-0.00660803
-0.00191877
0.00156316
0.00384409
0.00482347
0.00401213
0.0010248
-0.00384534
-0.00942845
-0.0140868
-0.0164115
-0.0158207
-0.0126869
-0.00817065
-0.00358181
0.000213253
0.00294643
0.00456888
0.00487509
0.00344193
0.000194881
-0.00439253
-0.00903233
-0.0126039
-0.0136892
-0.012815
-0.0091238
-0.00619587
-0.00067162
-0.00138247
0.00623949
0.128894
0.130819
0.137401
0.147661
0.163764
0.18683
0.221656
0.228338
0.209131
-0.141991
-0.525398
-0.425871
-0.360104
-0.193319
-0.096648
-0.141403
-0.265576
-0.311195
-0.225147
-0.122133
-0.0647144
-0.047673
-0.0620384
-0.0861689
-0.0923303
-0.0756165
-0.0600515
-0.0646957
-0.0896419
-0.120454
-0.12931
-0.105507
-0.0696954
-0.0462363
-0.0400759
-0.0459405
-0.0555263
-0.0591554
-0.0534
-0.0449641