/*--------------------------------*- C++ -*----------------------------------*\
  =========                 |
  \\      /  F ield         | OpenFOAM: The Open Source CFD Toolbox
   \\    /   O peration     | Website:  https://openfoam.org
    \\  /    A nd           | Version:  11
     \\/     M anipulation  |
\*---------------------------------------------------------------------------*/
FoamFile
{
    format      ascii;
    class       surfaceScalarField;
    location    "19.367789";
    object      phi;
}
// * * * * * * * * * * * * * * * * * * * * * * * * * * * * * * * * * * * * * //

dimensions      [0 3 -1 0 0 0 0];

internalField   nonuniform List<scalar> 
14638
(
0.00250217
-2.16633e-06
0.00250854
-6.37714e-06
0.00251929
-1.07462e-05
0.00253475
-1.54564e-05
0.00255536
-2.06164e-05
0.00258145
-2.60829e-05
0.00261293
-3.14833e-05
0.00264895
-3.60173e-05
0.00268773
-3.87842e-05
0.00272657
-3.88438e-05
0.00276219
-3.56158e-05
0.002792
-2.9815e-05
0.00281395
-2.19485e-05
0.00282631
-1.23564e-05
0.00282744
-1.12789e-06
0.00281574
1.16989e-05
0.00279069
2.50516e-05
0.00275391
3.67809e-05
0.00270928
4.46245e-05
0.00266231
4.69702e-05
0.00261921
4.30972e-05
0.00258608
3.31354e-05
0.00256804
1.80362e-05
0.00256838
-3.39432e-07
0.00258736
-1.89753e-05
0.00262097
-3.36082e-05
0.00266064
-3.96772e-05
0.00269512
-3.44745e-05
0.00271422
-1.91045e-05
0.00271246
1.7623e-06
0.00269016
2.2295e-05
0.00265216
3.80083e-05
0.0026055
4.6658e-05
0.00255781
4.76836e-05
0.00251653
4.12875e-05
0.00248863
2.78975e-05
0.00248033
8.29763e-06
0.00249596
-1.56312e-05
0.00253583
-3.98631e-05
0.00259395
-5.8119e-05
0.00265784
-6.38983e-05
0.00271182
-5.39756e-05
0.00274258
-3.07595e-05
0.00274391
-1.32708e-06
0.00271775
2.61518e-05
0.00267186
4.58915e-05
0.00261618
5.56855e-05
0.0025603
5.58799e-05
0.00251264
4.76602e-05
0.00248067
3.19693e-05
0.00247104
9.63056e-06
0.00248849
-1.74538e-05
0.00253336
-4.48699e-05
0.00259903
-6.56665e-05
0.00267172
-7.26944e-05
0.00273402
-6.22958e-05
0.00277079
-3.67722e-05
0.00277444
-3.65235e-06
0.00274666
2.77856e-05
0.00269626
5.03948e-05
0.00263509
6.1171e-05
0.00257444
6.06464e-05
0.00252357
5.08699e-05
0.0024899
3.36779e-05
0.00247949
1.04015e-05
0.00249643
-1.69355e-05
0.00254056
-4.41288e-05
0.00260535
-6.4792e-05
0.00267781
-7.24589e-05
0.00274148
-6.36729e-05
0.00278152
-4.00347e-05
0.00278938
-7.86054e-06
0.00276509
2.42876e-05
0.00271628
4.88099e-05
0.00265483
6.14507e-05
0.00259308
6.17485e-05
0.00254138
5.16967e-05
0.00250754
3.38436e-05
0.00249714
1.03967e-05
0.00251321
-1.60616e-05
0.00255458
-4.13739e-05
0.0026145
-5.992e-05
0.00268098
-6.64836e-05
0.00273964
-5.8655e-05
0.00277774
-3.80996e-05
0.00278772
-9.98652e-06
0.00276886
1.8862e-05
0.00272676
4.21054e-05
0.00267124
5.55161e-05
0.00261364
5.76051e-05
0.00256444
4.91969e-05
0.00253205
3.23937e-05
0.0025222
9.84582e-06
0.00253729
-1.50907e-05
0.00257524
-3.79472e-05
0.0026289
-5.3666e-05
0.00268714
-5.82343e-05
0.00273754
-5.0404e-05
0.00276983
-3.22876e-05
0.00277833
-8.50147e-06
0.00276285
1.54774e-05
0.00272799
3.48678e-05
0.00268149
4.64921e-05
0.00263254
4.89505e-05
0.00259018
4.23583e-05
0.00256219
2.79923e-05
0.00255403
8.15846e-06
0.00256774
-1.37046e-05
0.00260092
-3.31813e-05
0.00264672
-4.5799e-05
0.00269522
-4.85008e-05
0.00273606
-4.08383e-05
0.00276118
-2.51232e-05
0.00276666
-5.47792e-06
0.00275305
1.36123e-05
0.00272451
2.85349e-05
0.0026874
3.711e-05
0.00264891
3.84926e-05
0.00261608
3.28245e-05
0.00259503
2.10505e-05
0.00259
5.03708e-06
0.00260227
-1.22762e-05
0.00262946
-2.71824e-05
0.00266561
-3.61563e-05
0.00270268
-3.70661e-05
0.00273265
-2.99735e-05
0.00274971
-1.70563e-05
0.00275145
-1.73987e-06
0.00273897
1.24734e-05
0.00271603
2.29402e-05
0.00268779
2.82405e-05
0.00265977
2.802e-05
0.00263712
2.26566e-05
0.00262402
1.30996e-05
0.00262306
9.58383e-07
0.00263449
-1.14334e-05
0.00265583
-2.13403e-05
0.00268221
-2.63806e-05
0.00270758
-2.53695e-05
0.00272635
-1.8772e-05
0.00273486
-8.50686e-06
0.00273209
2.76768e-06
0.00271957
1.25195e-05
0.0027006
1.89783e-05
0.00267926
2.13321e-05
0.0026597
1.95663e-05
0.00264549
1.42066e-05
0.00263929
6.2006e-06
0.00264234
-3.04634e-06
0.00265404
-1.17021e-05
0.00267185
-1.7813e-05
0.00269175
-1.9902e-05
0.0027092
-1.74448e-05
0.00272046
-1.1263e-05
0.00272332
-2.85901e-06
0.00271804
5.27714e-06
0.00270587
1.21769e-05
0.0026909
1.4967e-05
0.002674
1.69041e-05
9.6291e-06
0.00250215
-4.31518e-06
0.00250848
-1.27034e-05
0.00251915
-2.14219e-05
0.00253455
-3.08554e-05
0.00255517
-4.12355e-05
0.00258137
-5.22877e-05
0.00261316
-6.32711e-05
0.00264969
-7.25457e-05
0.00268917
-7.82665e-05
0.00272877
-7.84436e-05
0.00276502
-7.18686e-05
0.00279534
-6.013e-05
0.0028177
-4.43042e-05
0.00283042
-2.5085e-05
0.00283186
-2.56063e-06
0.00282021
2.33508e-05
0.00279474
5.05121e-05
0.00275706
7.44656e-05
0.00271116
9.05287e-05
0.00266272
9.54067e-05
0.00261817
8.76499e-05
0.00258379
6.75147e-05
0.00256495
3.68695e-05
0.00256523
-6.17272e-07
0.00258514
-3.88867e-05
0.0026207
-6.91612e-05
0.00266289
-8.18734e-05
0.00269967
-7.12555e-05
0.00272014
-3.95719e-05
0.00271851
3.39341e-06
0.00269531
4.54949e-05
0.00265578
7.75377e-05
0.00260735
9.50913e-05
0.00255783
9.71969e-05
0.00251476
8.43578e-05
0.00248528
5.73834e-05
0.00247592
1.76589e-05
0.00249153
-3.12421e-05
0.00253286
-8.11925e-05
0.00259386
-0.000119127
0.0026613
-0.000131333
0.00271828
-0.000110959
0.00275058
-6.30576e-05
0.00275172
-2.47006e-06
0.00272407
5.38101e-05
0.00267602
9.39331e-05
0.00261808
0.000113629
0.00256007
0.000113891
0.00251044
9.729e-05
0.00247673
6.56738e-05
0.00246591
2.04543e-05
0.00248325
-3.47939e-05
0.00252956
-9.11832e-05
0.00259824
-0.000134341
0.00267481
-0.000149262
0.00274062
-0.000128113
0.00277943
-7.5578e-05
0.00278315
-7.37096e-06
0.00275376
5.71728e-05
0.00270087
0.000103289
0.00263705
0.000124984
0.00257402
0.00012368
0.00252105
0.000103843
0.00248547
6.92566e-05
0.00247349
2.23837e-05
0.00248959
-3.30368e-05
0.00253413
-8.86742e-05
0.00260078
-0.000131437
0.00267616
-0.000147838
0.00274301
-0.000130521
0.00278557
-8.26006e-05
0.00279469
-1.69833e-05
0.00277024
4.87469e-05
0.00272009
9.89529e-05
0.00265664
0.000124899
0.00259269
0.000125706
0.00253884
0.000105539
0.00250311
6.95763e-05
0.00249139
2.21182e-05
0.00250713
-3.18048e-05
0.00254948
-8.3724e-05
0.00261149
-0.000121923
0.0026805
-0.000135493
0.00274133
-0.00011949
0.00278075
-7.75176e-05
0.00279108
-2.03202e-05
0.00277177
3.81793e-05
0.00272866
8.52094e-05
0.00267183
0.000112351
0.00261274
0.000116694
0.00256205
9.98872e-05
0.00252842
6.60239e-05
0.00251801
2.02541e-05
0.00253362
-3.07023e-05
0.00257326
-7.75867e-05
0.00262937
-0.000109773
0.00269
-0.000118869
0.00274201
-0.00010241
0.00277472
-6.50022e-05
0.00278257
-1.63484e-05
0.00276575
3.22986e-05
0.00272929
7.13242e-05
0.00268129
9.44974e-05
0.00263105
9.9183e-05
0.00258774
8.56769e-05
0.00255926
5.6463e-05
0.00255137
1.60519e-05
0.00256629
-2.86253e-05
0.00260155
-6.84404e-05
0.00264981
-9.40537e-05
0.00270043
-9.91261e-05
0.00274245
-8.28558e-05
0.00276754
-5.02171e-05
0.00277192
-9.8555e-06
0.00275654
2.89954e-05
0.00272603
5.90421e-05
0.00268713
7.60103e-05
0.00264727
7.83504e-05
0.00261366
6.64381e-05
0.00259253
4.21765e-05
0.00258826
9.30686e-06
0.00260216
-2.61749e-05
0.00263158
-5.65999e-05
0.00267007
-7.4651e-05
0.00270897
-7.59649e-05
0.0027398
-6.08061e-05
0.00275659
-3.38398e-05
0.00275708
-2.23587e-06
0.00274276
2.67968e-05
0.00271779
4.79144e-05
0.0026877
5.83313e-05
0.00265828
5.74359e-05
0.00263488
4.60611e-05
0.00262182
2.61547e-05
0.00262177
1.00949e-06
0.00263489
-2.4551e-05
0.00265838
-4.48334e-05
0.00268689
-5.48917e-05
0.00271385
-5.23279e-05
0.0027333
-3.82268e-05
0.00274149
-1.66904e-05
0.00273754
6.71066e-06
0.00272331
2.67518e-05
0.00270245
3.9845e-05
0.00267938
4.44019e-05
0.00265848
4.04602e-05
0.00264356
2.91304e-05
0.00263739
1.23644e-05
0.00264128
-6.93147e-06
0.00265451
-2.49335e-05
0.00267424
-3.75438e-05
0.00269601
-4.16746e-05
0.00271485
-3.62772e-05
0.00272672
-2.31316e-05
0.00272932
-5.46454e-06
0.00272305
1.15486e-05
0.00270939
2.58366e-05
0.0026928
3.15617e-05
0.00267418
3.55166e-05
2.00936e-05
0.00250211
-6.42787e-06
0.00250833
-1.89206e-05
0.00251886
-3.19481e-05
0.00253413
-4.61279e-05
0.00255474
-6.18492e-05
0.00258119
-7.87319e-05
0.00261359
-9.56766e-05
0.00265117
-0.000110124
0.0026921
-0.000119194
0.00273326
-0.000119604
0.0027708
-0.000109414
0.0028021
-9.14284e-05
0.00282522
-6.74264e-05
0.00283863
-3.84912e-05
0.00284061
-4.53509e-06
0.00282897
3.49844e-05
0.0028026
7.68811e-05
0.00276301
0.000114054
0.00271448
0.000139068
0.00266308
0.0001468
0.00261567
0.000135061
0.00257895
0.00010424
0.00255874
5.70708e-05
0.00255919
-1.05785e-06
0.00258128
-6.09801e-05
0.00262101
-0.000108889
0.00266842
-0.000129283
0.00270977
-0.000112608
0.00273265
-6.24489e-05
0.00273075
5.2883e-06
0.00270517
7.10797e-05
0.00266213
0.00012057
0.0026099
0.000147327
0.00255671
0.000150388
0.00251026
0.000130799
0.00247797
8.96765e-05
0.00246699
2.86382e-05
0.00248319
-4.74428e-05
0.00252817
-0.000126171
0.00259561
-0.00018657
0.00267046
-0.000206181
0.00273328
-0.000173783
0.00276798
-9.77539e-05
0.00276779
-2.27834e-06
0.00273616
8.54371e-05
0.00268311
0.000146987
0.0026203
0.000176441
0.00255803
0.000176159
0.00250475
0.000150568
0.00246799
0.000102439
0.00245501
3.34275e-05
0.00247187
-5.16544e-05
0.0025203
-0.00013961
0.00259412
-0.00020816
0.00267806
-0.000233199
0.00275127
-0.000201327
0.00279488
-0.000119184
0.00279926
-1.17559e-05
0.00276675
8.96872e-05
0.00270862
0.000161416
0.00263928
0.000194326
0.00257143
0.000191525
0.00251447
0.000160809
0.00247548
0.000108242
0.00246086
3.70044e-05
0.00247594
-4.81169e-05
0.00252203
-0.00013476
0.00259288
-0.000202289
0.00267405
-0.000229012
0.00274658
-0.000203044
0.00279319
-0.000129219
0.00280391
-2.76954e-05
0.0027785
7.41558e-05
0.00272545
0.000152001
0.00265806
0.000192293
0.00258995
0.000193815
0.0025323
0.000163188
0.00249357
0.000108301
0.00248038
3.53062e-05
0.00249701
-4.84304e-05
0.00254285
-0.000129566
0.00261011
-0.000189182
0.00268444
-0.000209819
0.00274898
-0.000184037
0.00278968
-0.00011821
0.00279902
-2.96667e-05
0.00277723
5.99737e-05
0.002731
0.000131442
0.00267096
0.000172387
0.0026089
0.000178756
0.00255571
0.000153078
0.00252053
0.000101202
0.00251027
3.05175e-05
0.0025283
-4.8737e-05
0.00257247
-0.00012175
0.00263405
-0.000171357
0.00269945
-0.000184267
0.00275408
-0.000157045
0.00278671
-9.76264e-05
0.00279211
-2.17515e-05
0.00277147
5.2938e-05
0.0027309
0.00011189
0.00267928
0.000146117
0.00262633
0.000152142
0.00258137
0.000130629
0.00255265
8.51839e-05
0.00254628
2.24212e-05
0.00256466
-4.69986e-05
0.00260481
-0.000108592
0.00265823
-0.000147478
0.00271289
-0.000153787
0.00275673
-0.000126695
0.00278108
-7.4559e-05
0.00278252
-1.13005e-05
0.00276292
4.85966e-05
0.00272793
9.40301e-05
0.00268513
0.000118816
0.00264248
0.000120999
0.00260752
0.000101395
0.00258676
6.29359e-05
0.00258473
1.13405e-05
0.00260256
-4.4006e-05
0.0026369
-9.09407e-05
0.00268017
-0.000117917
0.00272249
-0.000118287
0.00275458
-9.29031e-05
0.00277029
-4.95453e-05
0.00276778
2.69638e-07
0.00274933
4.5247e-05
0.00272
7.72478e-05
0.00268609
9.22469e-05
0.00265394
8.95815e-05
0.0026293
7.07054e-05
0.00261676
3.86939e-05
0.00261904
-1.26966e-06
0.00263598
-4.15003e-05
0.00266405
-7.28992e-05
0.00269682
-8.76627e-05
0.00272672
-8.22227e-05
0.00274715
-5.86595e-05
0.00275426
-2.37974e-05
0.00274757
1.33927e-05
0.00272963
4.46994e-05
0.00270483
6.4646e-05
0.00267827
7.09585e-05
0.00265486
6.38719e-05
0.00263878
4.52113e-05
0.00263307
1.80728e-05
0.00263904
-1.29053e-05
0.00265566
-4.15542e-05
0.00267938
-6.12635e-05
0.00270483
-6.71216e-05
0.00272619
-5.76339e-05
0.0027389
-3.58511e-05
0.00274063
-7.19279e-06
0.00273205
2.01305e-05
0.00271523
4.2659e-05
0.00269528
5.15085e-05
0.00267335
5.74537e-05
3.20659e-05
0.00250205
-8.4822e-06
0.0025081
-2.4962e-05
0.00251838
-4.22292e-05
0.00253343
-6.11816e-05
0.002554
-8.24202e-05
0.00258077
-0.000105505
0.0026141
-0.000128999
0.00265328
-0.000149305
0.00269645
-0.000162371
0.00274004
-0.000163194
0.00277956
-0.000148931
0.00281233
-0.000124198
0.00283661
-9.17016e-05
0.00285109
-5.29756e-05
0.00285398
-7.4271e-06
0.00284244
4.65307e-05
0.00281464
0.000104675
0.00277203
0.000156663
0.00271935
0.000191746
0.00266338
0.000202776
0.00261158
0.000186858
0.00257127
0.000144557
0.00254894
7.93942e-05
0.00254959
-1.70941e-06
0.00257506
-8.64488e-05
0.00262136
-0.000155191
0.00267704
-0.000184964
0.00272562
-0.000161188
0.0027522
-8.90287e-05
0.00274969
7.8034e-06
0.00272014
0.000100632
0.00267148
0.000169225
0.00261331
0.000205499
0.00255451
0.00020919
0.00250299
0.000182319
0.00246646
0.000126201
0.00245303
4.20706e-05
0.00247015
-6.45634e-05
0.0025208
-0.00017682
0.00259838
-0.000264152
0.0026851
-0.000292897
0.00275731
-0.000245991
0.00279566
-0.00013611
0.00279294
4.42542e-07
0.00275458
0.000123802
0.00269333
0.000208231
0.00262286
0.000246911
0.00255417
0.000244854
0.00249547
0.000209264
0.00245385
0.000144067
0.00243658
5.06882e-05
0.00245079
-6.58625e-05
0.00250011
-0.000188928
0.00257975
-0.000287796
0.00267378
-0.000327231
0.00275849
-0.000286039
0.00281109
-0.000171779
0.00281893
-1.96018e-05
0.00278383
0.00012479
0.00271904
0.000226203
0.0026418
0.000271564
0.00256675
0.000266577
0.00250372
0.000223845
0.00245965
0.000152305
0.00244153
5.5131e-05
0.00245623
-6.28202e-05
0.00250626
-0.000184785
0.00258467
-0.0002807
0.00267454
-0.000318885
0.0027542
-0.000282704
0.00280483
-0.000179845
0.00281616
-3.90268e-05
0.00278846
0.000101849
0.00273106
0.000209402
0.00265823
0.000265125
0.00258449
0.000267551
0.00252178
0.000225904
0.00247945
0.000150632
0.00246539
4.93613e-05
0.00248499
-6.80308e-05
0.00253748
-0.000182059
0.00261323
-0.000264926
0.00269518
-0.000291774
0.00276427
-0.000253118
0.0028055
-0.000159443
0.00281192
-3.60914e-05
0.00278514
8.67518e-05
0.00273334
0.00018325
0.00266812
0.000237608
0.00260171
0.000245165
0.00254534
0.000209444
0.00250882
0.000137719
0.0025
3.93382e-05
0.00252275
-7.14885e-05
0.00257418
-0.000173173
0.00264365
-0.000240833
0.00271533
-0.000255943
0.00277297
-0.000214687
0.00280477
-0.000129421
0.00280605
-2.30383e-05
0.00277935
7.96412e-05
0.00273233
0.000158906
0.0026751
0.000203346
0.00261808
0.00020917
0.002571
0.000177706
0.00254253
0.000113648
0.00253922
2.5738e-05
0.00256332
-7.11016e-05
0.00261081
-0.00015608
0.00267137
-0.000208037
0.00273113
-0.000213553
0.00277686
-0.000172422
0.0027996
-9.73033e-05
0.00279656
-8.25468e-06
0.00277075
7.44008e-05
0.00272923
0.000135553
0.00268075
0.000167292
0.00263414
0.000167614
0.00259749
0.000138046
0.00257771
8.27099e-05
0.00257947
9.58234e-06
0.00260341
-6.79456e-05
0.00264492
-0.000132446
0.00269469
-0.000167689
0.0027413
-0.000164901
0.00277458
-0.000126183
0.0027883
-6.32607e-05
0.00278127
7.29477e-06
0.00275686
6.96633e-05
0.00272132
0.000112787
0.00268202
0.000131541
0.00264615
0.000125454
0.00262004
9.68184e-05
0.00260867
5.00572e-05
0.00261477
-7.36615e-06
0.00263756
-6.42851e-05
0.00267222
-0.000107562
0.0027108
-0.000126243
0.00274439
-0.00011581
0.00276568
-7.99547e-05
0.00277084
-2.89511e-05
0.00276
2.42307e-05
0.00273665
6.8043e-05
0.00270626
9.50403e-05
0.00267484
0.000102375
0.00264805
9.06596e-05
0.00263066
6.26093e-05
0.00262603
2.26972e-05
0.00263543
-2.23069e-05
0.00265721
-6.33275e-05
0.00268668
-9.07319e-05
0.00271713
-9.75805e-05
0.00274166
-8.21632e-05
0.00275512
-4.93057e-05
0.00275519
-7.26776e-06
0.00274305
3.22779e-05
0.0027216
6.41059e-05
0.00269685
7.62527e-05
0.00267033
8.3974e-05
4.59606e-05
0.00250197
-1.0451e-05
0.00250775
-3.07464e-05
0.00251767
-5.2144e-05
0.00253237
-7.58875e-05
0.00255282
-0.000102866
0.00257997
-0.000132654
0.00261449
-0.000163517
0.00265585
-0.000190669
0.00270218
-0.0002087
0.00274917
-0.000210182
0.00279135
-0.000191113
0.00282602
-0.000158864
0.00285173
-0.000117419
0.00286765
-6.88882e-05
0.00287191
-1.16921e-05
0.00286069
5.77543e-05
0.0028311
0.00013426
0.00278443
0.000203338
0.00272607
0.000250099
0.00266377
0.000265081
0.00260587
0.000244758
0.00256047
0.000189959
0.002535
0.000104864
0.0025357
-2.41055e-06
0.00256573
-0.000116482
0.00262132
-0.00021078
0.0026889
-0.000252539
0.00274791
-0.000220201
0.00277973
-0.000120845
0.00277612
1.14126e-05
0.00274071
0.000136034
0.00268404
0.000225896
0.00261763
0.000271908
0.00255119
0.000275635
0.00249277
0.00024074
0.00245036
0.000168608
0.00243304
5.93917e-05
0.0024499
-8.14189e-05
0.00250572
-0.000232638
0.0025949
-0.000353338
0.00269787
-0.000395871
0.00278541
-0.000333522
0.00283174
-0.000182447
0.0028272
4.98358e-06
0.0027798
0.000171209
0.00270695
0.000281082
0.00262578
0.000328076
0.0025484
0.000322236
0.00248231
0.00027535
0.00243339
0.000192984
0.00240895
7.51359e-05
0.00241839
-7.53106e-05
0.00246872
-0.000239255
0.00255633
-0.000375405
0.00266307
-0.000433974
0.00276137
-0.000384335
0.00282483
-0.000235244
0.00283811
-3.28822e-05
0.00280183
0.000161073
0.00273046
0.00029757
0.00264412
0.000357912
0.00255995
0.000350739
0.0024889
0.0002949
0.00243847
0.000202732
0.00241715
7.64514e-05
0.00243394
-7.96114e-05
0.00249182
-0.000242663
0.0025815
-0.000370381
0.00268221
-0.000419596
0.00276912
-0.00036961
0.00282216
-0.00023289
0.00283166
-4.85201e-05
0.00279927
0.000134233
0.00273568
0.000272998
0.00265611
0.000344691
0.00257579
0.000347876
0.0025074
0.000294285
0.00246166
0.000196375
0.00244817
6.28564e-05
0.00247321
-9.30781e-05
0.00253496
-0.000243803
0.00262099
-0.000350958
0.00271128
-0.000382067
0.00278472
-0.00032656
0.00282565
-0.000200366
0.00282768
-3.8127e-05
0.002794
0.000120434
0.00273463
0.000242621
0.00266257
0.000309665
0.00259077
0.000316965
0.00253098
0.000269238
0.00249383
0.000174864
0.0024881
4.50753e-05
0.00251765
-0.000101044
0.00257809
-0.000233609
0.00265633
-0.000319074
0.00273429
-0.000333897
0.00279442
-0.000274819
0.00282463
-0.000159631
0.00282083
-1.92427e-05
0.00278684
0.000113631
0.00273199
0.000213757
0.00266787
0.000267467
0.00260591
0.000271126
0.00255658
0.000227036
0.00252916
0.000141074
0.00253047
2.44251e-05
0.00256217
-0.000102796
0.00261845
-0.000212363
0.00268676
-0.000276351
0.00275144
-0.000278227
0.00279836
-0.000219342
0.00281861
-0.000117557
0.00281009
2.60176e-07
0.00277703
0.000107461
0.0027279
0.000184688
0.00267281
0.000222385
0.00262165
0.000218765
0.00258338
0.000176324
0.00256545
0.000100637
0.00257253
2.50214e-06
0.00260431
-9.97291e-05
0.00265433
-0.000182461
0.00271118
-0.000224538
0.00276188
-0.000215598
0.0027956
-0.000159907
0.00280633
-7.39893e-05
0.0027937
1.99258e-05
0.00276223
0.000101133
0.00271948
0.000155535
0.00267403
0.000176996
0.00263405
0.000165426
0.00260671
0.00012416
0.00259747
5.92958e-05
0.0026089
-1.879e-05
0.00263917
-9.45581e-05
0.00268172
-0.000150109
0.00272669
-0.000171219
0.00276383
-0.000152945
0.00278529
-0.000101417
0.00278748
-3.11418e-05
0.00277135
4.03611e-05
0.00274149
9.79087e-05
0.0027045
0.000132022
0.0026675
0.000139376
0.00263705
0.000121111
0.00261864
8.10213e-05
0.00261604
2.52961e-05
0.00263029
-3.65516e-05
0.00265872
-9.17656e-05
0.00269512
-0.000127127
0.00273115
-0.000133611
0.00275875
-0.000109763
0.00277231
-6.28647e-05
0.00276978
-4.73954e-06
0.00275296
4.90945e-05
0.00272583
9.12416e-05
0.00269533
0.000106752
0.00266357
0.000115733
6.1772e-05
0.00250185
-1.23006e-05
0.00250728
-3.61738e-05
0.00251667
-6.15375e-05
0.00253085
-9.00666e-05
0.00255102
-0.000123038
0.00257853
-0.000160161
0.00261449
-0.000199476
0.00265866
-0.000234838
0.0027092
-0.000259245
0.00276073
-0.000261714
0.00280633
-0.000236706
0.00284331
-0.000195844
0.00287079
-0.000144896
0.00288866
-8.67578e-05
0.00289502
-1.80537e-05
0.00288448
6.82909e-05
0.00285258
0.000166163
0.00280042
0.000255497
0.00273448
0.000316036
0.00266384
0.000335724
0.00259795
0.00031065
0.0025458
0.000242101
0.00251594
0.000134725
0.00251633
-2.79824e-06
0.0025522
-0.000152348
0.00262036
-0.00027894
0.00270433
-0.000336513
0.00277771
-0.000293579
0.00281653
-0.000159669
0.00281109
1.68566e-05
0.00276745
0.00017967
0.00269994
0.000293404
0.00262277
0.000349083
0.00254658
0.000351826
0.00247941
0.000307905
0.00242913
0.000218888
0.00240479
8.37281e-05
0.00241617
-9.27935e-05
0.00247096
-0.00028743
0.00256818
-0.000450559
0.00268989
-0.000517578
0.00280127
-0.000444908
0.00286589
-0.00024706
0.00286623
4.64509e-06
0.00281097
0.000226466
0.00272414
0.00036791
0.00262917
0.00042305
0.00254057
0.00041083
0.00246482
0.000351107
0.00240612
0.00025168
0.00237291
0.000108352
0.00237901
-8.14101e-05
0.00243493
-0.000295183
0.00253557
-0.000476038
0.00265746
-0.000555866
0.00276831
-0.000495185
0.00283979
-0.000306725
0.00285626
-4.93559e-05
0.00281819
0.000199148
0.00274045
0.000375308
0.00264484
0.000453525
0.00255064
0.00044494
0.00247041
0.000375128
0.00241342
0.00025972
0.00239066
9.92066e-05
0.00241287
-0.00010182
0.00248174
-0.000311529
0.00258415
-0.000472787
0.00269545
-0.000530904
0.00278851
-0.000462666
0.00284251
-0.000286895
0.00284838
-5.43815e-05
0.00280938
0.000173229
0.00273799
0.000344384
0.00265068
0.000432008
0.00256329
0.00043526
0.00248938
0.000368199
0.00244122
0.000244538
0.0024301
7.39749e-05
0.00246245
-0.000125433
0.0025343
-0.000315646
0.00263007
-0.000446733
0.00272735
-0.000479343
0.00280392
-0.000403137
0.00284392
-0.000240366
0.00284134
-3.55473e-05
0.00280044
0.000161339
0.0027329
0.000310161
0.00265331
0.00038925
0.00257572
0.000394558
0.00251275
0.000332212
0.00247602
0.000211589
0.00247491
4.61856e-05
0.00251253
-0.000138668
0.00258223
-0.0003033
0.00266832
-0.000405172
0.00275104
-0.000416617
0.00281232
-0.000336096
0.00284024
-0.000187549
0.00283124
-1.02499e-05
0.00279007
0.000154804
0.00272739
0.000276443
0.00265623
0.000338628
0.00258929
0.000338057
0.0025381
0.000278227
0.00251272
0.000166459
0.00252
1.71421e-05
0.00256031
-0.000143103
0.00262549
-0.000277548
0.00270067
-0.00035153
0.00276882
-0.000346378
0.00281559
-0.00026611
0.00283251
-0.000134472
0.00281821
1.45537e-05
0.00277791
0.000147761
0.00272127
0.000241333
0.00265967
0.000283983
0.00260424
0.000274199
0.00256497
0.000215594
0.00255
0.000115607
0.00256372
-1.12252e-05
0.00260432
-0.000140327
0.00266297
-0.000241108
0.00272611
-0.000287678
0.00277957
-0.000269064
0.00281242
-0.000192756
0.0028192
-8.07673e-05
0.00280044
3.86902e-05
0.00276172
0.00013985
0.00271177
0.000205488
0.00266031
0.000228453
0.00261666
0.000209082
0.00258891
0.000151904
0.00258305
6.51582e-05
0.00260119
-3.69335e-05
0.00263997
-0.00013334
0.00269064
-0.000200771
0.0027414
-0.000221988
0.00278096
-0.000192497
0.00280136
-0.000121822
0.00279957
-2.93525e-05
0.00277745
6.2482e-05
0.00274066
0.0001347
0.00269693
0.000175754
0.00265443
0.000181877
0.00262073
0.000154802
0.00260217
9.95822e-05
0.00260286
2.46073e-05
0.00262331
-5.70023e-05
0.00265942
-0.000127877
0.00270305
-0.000170754
0.00274421
-0.00017477
0.00277394
-0.000139488
0.00278649
-7.54173e-05
0.00278035
1.39748e-06
0.00275807
7.13737e-05
0.00272475
0.000124565
0.00268818
0.000143319
0.0026513
0.000152611
7.89843e-05
0.00250169
-1.39898e-05
0.00250664
-4.11205e-05
0.00251531
-7.02119e-05
0.00252872
-0.000103474
0.00254838
-0.000142699
0.00257614
-0.000187918
0.00261372
-0.000237063
0.00266136
-0.000282479
0.00271741
-0.000315292
0.00277486
-0.00031916
0.00282462
-0.000286469
0.00286415
-0.000235376
0.00289343
-0.000174181
0.00291365
-0.00010697
0.00292301
-2.74191e-05
0.00291393
7.73736e-05
0.00287953
0.000200565
0.00282061
0.000314417
0.00274509
0.00039155
0.00266387
0.000416948
0.00258777
0.000386745
0.00252682
0.000303054
0.0024908
0.000170746
0.0024901
-2.10223e-06
0.00253345
-0.000195699
0.00261898
-0.000364464
0.00272557
-0.000443105
0.00281796
-0.000385964
0.00286514
-0.000206853
0.00285619
2.58058e-05
0.00280102
0.000234842
0.00271923
0.000375197
0.00262849
0.000439823
0.00254048
0.000439834
0.00246278
0.000385603
0.00240179
0.000279882
0.00236465
0.000120866
0.00236223
-9.0375e-05
0.00240903
-0.000334229
0.00251152
-0.000553046
0.00265298
-0.000659036
0.00279303
-0.000584967
0.002885
-0.000339028
0.00290041
-1.0765e-05
0.00284365
0.000283227
0.0027439
0.000467662
0.00263313
0.000533819
0.00253071
0.000513254
0.0024429
0.000438916
0.00237309
0.000321481
0.00233275
0.000148699
0.00234078
-8.94417e-05
0.00240847
-0.000362876
0.00252554
-0.000593111
0.00266226
-0.000692579
0.00278276
-0.000615691
0.00285814
-0.000382097
0.00287384
-6.50593e-05
0.00283158
0.00024141
0.00274691
0.000459978
0.00264228
0.00055815
0.00253814
0.00054908
0.00244885
0.000464424
0.00238641
0.000322159
0.00236461
0.000121
0.00239455
-0.000131754
0.00247477
-0.000391757
0.00258797
-0.000585986
0.00270699
-0.000649922
0.00280407
-0.000559741
0.00285837
-0.000341194
0.00286082
-5.68368e-05
0.00281543
0.000218621
0.00273617
0.00042364
0.00264097
0.000527209
0.0025467
0.000529535
0.00246802
0.000446876
0.00241888
0.00029368
0.0024117
8.11546e-05
0.00245197
-0.000165708
0.00253286
-0.000396528
0.00263593
-0.000549804
0.00273741
-0.000580828
0.00281516
-0.000480882
0.00285369
-0.0002789
0.0028472
-2.90572e-05
0.00280028
0.00020826
0.00272558
0.000384859
0.00263908
0.000475755
0.00255618
0.000477456
0.00249081
0.000397585
0.00245567
0.000246723
0.00246025
4.16085e-05
0.00250608
-0.000184495
0.0025838
-0.00038102
0.0026755
-0.00049687
0.00276054
-0.000501655
0.00282117
-0.000396731
0.00284615
-0.000212532
0.00283243
3.4753e-06
0.00278519
0.00020204
0.00271588
0.000345752
0.00263868
0.000415832
0.00256762
0.000409118
0.00251552
0.000330323
0.00249329
0.000188692
0.0025074
3.02989e-06
0.00255628
-0.000191982
0.00262912
-0.000350388
0.00270905
-0.000431458
0.00277844
-0.000415768
0.0028234
-0.000311076
0.0028363
-0.000147366
0.00281649
3.43653e-05
0.00276983
0.000194417
0.00270678
0.000304378
0.00263977
0.000350999
0.00258113
0.000332841
0.00254205
0.000254669
0.00253129
0.000126367
0.00255256
-3.24962e-05
0.00260194
-0.000189706
0.00266802
-0.00030719
0.00273545
-0.000355105
0.00278957
-0.000323187
0.00281997
-0.00022315
0.00282205
-8.28544e-05
0.00279723
6.35167e-05
0.0027519
0.000185177
0.00269566
0.000261728
0.00263924
0.000284872
0.00259308
0.000255246
0.0025663
0.000178683
0.00256523
6.62224e-05
0.00259112
-6.2817e-05
0.0026385
-0.000180722
0.00269626
-0.000258537
0.00275106
-0.000276778
0.00279113
-0.00023257
0.002809
-0.000139693
0.00280244
-2.27967e-05
0.00277422
9.07097e-05
0.00273087
0.000178041
0.00268107
0.00022556
0.00263396
0.000228988
0.00259815
0.000190606
0.00258082
0.000116913
0.00258623
1.91961e-05
0.00261393
-8.46995e-05
0.0026579
-0.000171847
0.00270796
-0.000220813
0.00275277
-0.000219576
0.00278298
-0.000169702
0.00279318
-8.56223e-05
0.00278263
1.19542e-05
0.0027546
9.9406e-05
0.00271527
0.000163894
0.00267303
0.000185552
0.00263197
0.000193675
9.6588e-05
0.00250148
-1.54682e-05
0.00250579
-4.54368e-05
0.0025135
-7.79188e-05
0.00252581
-0.000115781
0.00254461
-0.000161496
0.00257237
-0.000215681
0.00261167
-0.000276364
0.0026635
-0.000334309
0.00272667
-0.00037846
0.00279176
-0.000384249
0.00284652
-0.000341236
0.00288878
-0.000277629
0.00291991
-0.000205316
0.00294318
-0.000130232
0.002957
-4.12476e-05
0.0029504
8.39823e-05
0.00291295
0.000238012
0.00284524
0.000382124
0.00275749
0.0004793
0.00266307
0.000511367
0.0025744
0.000475421
0.00250234
0.000375107
0.00245794
0.000215144
0.00245513
7.15036e-07
0.00250825
-0.000248826
0.00261776
-0.000473968
0.00275581
-0.000581157
0.00287365
-0.0005038
0.00293011
-0.000263319
0.0029141
4.18207e-05
0.00284228
0.00030666
0.00274173
0.000475745
0.00263438
0.000547173
0.00253271
0.000541506
0.00244262
0.000475686
0.00236688
0.000355628
0.00231066
0.000177084
0.00229115
-7.08639e-05
0.00233418
-0.000377263
0.00244924
-0.000668104
0.00261234
-0.000822136
0.00277623
-0.000748858
0.00289112
-0.000453915
0.00292346
-4.31025e-05
0.00287103
0.000335648
0.00276264
0.000576053
0.00263674
0.000659724
0.00251888
0.000631115
0.00241738
0.000540418
0.00233715
0.000401709
0.00229388
0.000191971
0.00230928
-0.000104851
0.00239109
-0.000444685
0.00252229
-0.000724304
0.00266923
-0.000839526
0.00279568
-0.000742134
0.00287302
-0.000459443
0.0028869
-7.89394e-05
0.00283974
0.000288569
0.00274811
0.00055161
0.00263512
0.000671145
0.00252196
0.000662236
0.00242488
0.000561501
0.00235897
0.000388074
0.00234015
0.000139822
0.00237819
-0.0001698
0.0024676
-0.000481167
0.0025876
-0.000705979
0.00271017
-0.000772499
0.00280851
-0.000658074
0.00286254
-0.00039523
0.00286294
-5.72313e-05
0.00281323
0.000268328
0.00272787
0.000509002
0.00262599
0.000629086
0.00252586
0.00062967
0.00244372
0.000529016
0.00239509
0.000342301
0.00239275
8.3502e-05
0.00244029
-0.000213248
0.00252783
-0.000484075
0.00263488
-0.000656845
0.00273738
-0.000683334
0.00281413
-0.000557632
0.00285058
-0.000315347
0.00284111
-1.95933e-05
0.00279011
0.000259264
0.00271035
0.000464615
0.00261867
0.000567442
0.00253184
0.000564278
0.00246535
0.000464077
0.00243293
0.000279142
0.00244359
3.09503e-05
0.00249667
-0.000237571
0.00258012
-0.000464471
0.00267447
-0.000591221
0.00275913
-0.000586314
0.00281734
-0.00045495
0.00283888
-0.000234065
0.00282115
2.12008e-05
0.00276947
0.000253725
0.00269548
0.000419743
0.00261405
0.000497257
0.00254045
0.000482722
0.00248885
0.000381918
0.00247084
0.000206701
0.002492
-1.81277e-05
0.00254834
-0.000248318
0.0026265
-0.000428552
0.00270834
-0.000513299
0.00277648
-0.000483903
0.00281809
-0.000352686
0.00282657
-0.000155847
0.00280192
5.90152e-05
0.00275034
0.000246
0.00268265
0.000372064
0.002612
0.000421653
0.00255184
0.000392996
0.00251454
0.00029197
0.00250918
0.00013173
0.00253822
-6.15431e-05
0.00259523
-0.000246715
0.00266641
-0.000378363
0.00273532
-0.000424022
0.0027877
-0.000375567
0.00281419
-0.00024964
0.00281125
-7.99143e-05
0.00278099
9.37749e-05
0.00273034
0.000235834
0.00266941
0.000322658
0.00260973
0.000344545
0.00256282
0.000302161
0.00253873
0.000202774
0.00254378
6.11693e-05
0.00257773
-9.67621e-05
0.00263265
-0.000235648
0.00269532
-0.000321202
0.00275151
-0.000332974
0.00278988
-0.000270938
0.00280389
-0.000153703
0.00279225
-1.11574e-05
0.00275845
0.000124511
0.00270965
0.000226838
0.00265517