/*--------------------------------*- C++ -*----------------------------------*\
  =========                 |
  \\      /  F ield         | OpenFOAM: The Open Source CFD Toolbox
   \\    /   O peration     | Website:  https://openfoam.org
    \\  /    A nd           | Version:  11
     \\/     M anipulation  |
\*---------------------------------------------------------------------------*/
FoamFile
{
    format      ascii;
    class       volVectorField;
    location    "19.367789";
    object      U_0;
}
// * * * * * * * * * * * * * * * * * * * * * * * * * * * * * * * * * * * * * //

dimensions      [0 1 -1 0 0 0 0];

internalField   nonuniform List<vector> 
7132
(
(1.00011 -0.000216399 3.7011e-18)
(1.00167 -0.000637541 1.28517e-17)
(1.00512 -0.00107492 1.34366e-17)
(1.0103 -0.00154641 1.65302e-17)
(1.01747 -0.00206258 2.2019e-17)
(1.02679 -0.00260863 2.28255e-17)
(1.03835 -0.00314691 2.10112e-17)
(1.05201 -0.00359777 1.8472e-17)
(1.06721 -0.00387165 1.5935e-17)
(1.0831 -0.00387613 1.37311e-17)
(1.09836 -0.00355365 1.20508e-17)
(1.1117 -0.00297099 1.09735e-17)
(1.12225 -0.00217614 1.02586e-17)
(1.12924 -0.00120252 9.71987e-18)
(1.13201 -6.16479e-05 6.85396e-18)
(1.1299 0.00123335 4.77907e-18)
(1.12234 0.00256705 3.27739e-18)
(1.10954 0.00372279 4.04914e-18)
(1.09267 0.00447845 3.09361e-18)
(1.07372 0.00467926 3.45565e-18)
(1.05514 0.0042596 4.22203e-18)
(1.03948 0.00323854 3.69306e-18)
(1.02906 0.00171744 3.6462e-18)
(1.02562 -0.000111371 7.04583e-18)
(1.02994 -0.00194135 -2.51948e-17)
(1.04132 -0.00334848 -1.69543e-16)
(1.0571 -0.00389149 -3.23032e-16)
(1.07294 -0.00332288 -2.77485e-16)
(1.08417 -0.00177117 -1.17577e-16)
(1.08748 0.000295095 -1.4065e-17)
(1.08198 0.00230551 4.22853e-17)
(1.06899 0.00382747 2.66254e-18)
(1.05115 0.0046459 -2.74901e-16)
(1.03151 0.00470705 -2.36078e-16)
(1.01312 0.00403081 1.69247e-15)
(0.998864 0.00266216 5.04466e-15)
(0.991427 0.000687638 3.27577e-16)
(0.99305 -0.00169144 -5.61667e-14)
(1.00485 -0.00406248 -2.49976e-13)
(1.02573 -0.00580316 -5.71684e-13)
(1.05175 -0.00628885 -7.9461e-13)
(1.07669 -0.0052309 -6.9706e-13)
(1.09423 -0.00289265 -3.84421e-13)
(1.10028 1.89203e-05 -1.32612e-13)
(1.09424 0.00270646 -1.58885e-14)
(1.07852 0.00461508 2.85713e-14)
(1.05702 0.00553834 1.59954e-14)
(1.03381 0.00551264 -6.56509e-14)
(1.01248 0.00465269 -1.63631e-13)
(0.996131 0.00305217 -9.85041e-14)
(0.987612 0.000802141 5.99584e-13)
(0.989363 -0.00189082 3.20354e-12)
(1.00262 -0.00457423 8.85052e-12)
(1.02618 -0.00656056 1.6155e-11)
(1.05566 -0.00716271 2.07028e-11)
(1.08421 -0.00604944 1.8769e-11)
(1.10476 -0.00347427 1.18713e-11)
(1.11251 -0.000192698 5.59586e-12)
(1.10648 0.00288379 2.4317e-12)
(1.0893 0.00506772 8.62774e-13)
(1.06557 0.00607966 8.53346e-13)
(1.04019 0.00597852 2.78186e-12)
(1.01725 0.00496379 1.63852e-12)
(0.999992 0.00321403 -1.89978e-11)
(0.991063 0.000867591 -8.5463e-11)
(0.992627 -0.00185765 -2.20556e-10)
(1.00566 -0.00452793 -4.2421e-10)
(1.02885 -0.00650678 -6.58938e-10)
(1.05802 -0.00716918 -8.55923e-10)
(1.08676 -0.00620179 -9.46132e-10)
(1.10831 -0.00379215 -8.96432e-10)
(1.11773 -0.000583245 -7.24175e-10)
(1.11341 0.00257561 -4.85796e-10)
(1.09725 0.00494641 -2.51511e-10)
(1.07367 0.00612898 -7.60922e-11)
(1.04785 0.00609336 1.47205e-11)
(1.02445 0.00504191 1.31408e-11)
(1.00701 0.00322649 -9.0788e-11)
(0.998144 0.000869902 -3.12996e-10)
(0.999636 -0.00176004 -6.57952e-10)
(1.01198 -0.00424098 -1.09792e-09)
(1.03357 -0.00601781 -1.56705e-09)
(1.06039 -0.00658877 -1.97531e-09)
(1.08672 -0.00573565 -2.23406e-09)
(1.10677 -0.00364078 -2.28109e-09)
(1.11629 -0.000826954 -2.09642e-09)
(1.1137 0.00202583 -1.70744e-09)
(1.10024 0.00429317 -1.18898e-09)
(1.07933 0.00556619 -6.58973e-10)
(1.05552 0.00570945 -2.48242e-10)
(1.03335 0.00481536 -5.43125e-11)
(1.01662 0.00310088 -1.09583e-10)
(1.00816 0.000837479 -3.83297e-10)
(1.00964 -0.00163344 -8.07421e-10)
(1.02115 -0.00386673 -1.3031e-09)
(1.04073 -0.00536986 -1.79614e-09)
(1.06446 -0.0057613 -2.22343e-09)
(1.08725 -0.0049328 -2.53456e-09)
(1.1043 -0.00310248 -2.69034e-09)
(1.11231 -0.000730397 -2.66016e-09)
(1.11022 0.00164116 -2.42352e-09)
(1.09913 0.00354115 -1.98587e-09)
(1.08175 0.00465844 -1.40963e-09)
(1.06165 0.00485857 -8.24037e-10)
(1.04263 0.00415893 -3.8528e-10)
(1.02814 0.00269478 -2.04145e-10)
(1.02087 0.000705448 -2.97224e-10)
(1.02239 -0.00145933 -5.97244e-10)
(1.03262 -0.00336155 -1.00249e-09)
(1.04955 -0.0045676 -1.42214e-09)
(1.06955 -0.00478912 -1.79528e-09)
(1.08826 -0.00399393 -2.08819e-09)
(1.10179 -0.00241683 -2.28213e-09)
(1.10772 -0.000466396 -2.36024e-09)
(1.10547 0.00141571 -2.29956e-09)
(1.0962 0.00287576 -2.07759e-09)
(1.0822 0.00370129 -1.69875e-09)
(1.06631 0.00381065 -1.22149e-09)
(1.05146 0.00322042 -7.55334e-10)
(1.04035 0.00202931 -4.17268e-10)
(1.03512 0.000429883 -2.76674e-10)
(1.03694 -0.00128031 -3.31254e-10)
(1.04556 -0.00273442 -5.25491e-10)
(1.05915 -0.00359097 -7.87896e-10)
(1.07468 -0.00364959 -1.05909e-09)
(1.08869 -0.00292492 -1.30103e-09)
(1.0983 -0.0016363 -1.49254e-09)
(1.10183 -0.000122362 -1.61945e-09)
(1.09915 0.00127299 -1.66568e-09)
(1.0914 0.00229226 -1.61177e-09)
(1.0805 0.00279835 -1.44566e-09)
(1.06869 0.00275823 -1.17986e-09)
(1.05816 0.00221108 -8.60366e-10)
(1.05082 0.00125389 -5.54918e-10)
(1.04807 5.01585e-05 -3.25642e-10)
(1.05051 -0.00116641 -2.05239e-10)
(1.05764 -0.00212698 -1.91614e-10)
(1.06787 -0.00260206 -2.59227e-10)
(1.07883 -0.00248184 -3.75163e-10)
(1.08804 -0.00181762 -5.10196e-10)
(1.09355 -0.00080092 -6.42332e-10)
(1.09446 0.0003065 -7.55034e-10)
(1.09096 0.00125722 -8.33657e-10)
(1.08414 0.0018799 -8.6381e-10)
(1.0756 0.00209718 -8.34095e-10)
(1.06705 0.00190952 -7.42352e-10)
(1.06006 0.00137045 -6.00749e-10)
(1.05591 0.000575781 -4.34478e-10)
(1.0554 -0.000333352 -2.73477e-10)
(1.05869 -0.00117541 -1.42176e-10)
(1.06502 -0.00176023 -5.33164e-11)
(1.07312 -0.00194719 -7.95485e-12)
(1.08091 -0.00169015 5.60247e-13)
(1.08698 -0.00107381 -1.78998e-11)
(1.08958 -0.000247032 -5.31913e-11)
(1.08909 0.00054513 -9.5832e-11)
(1.08494 0.00121208 -1.37592e-10)
(1.07929 0.00146962 -1.6876e-10)
(1.07286 0.00164879 -1.90179e-10)
(1.0656 0.000912848 -1.71257e-10)
(1.00011 -0.000647334 6.06099e-20)
(1.00165 -0.00190772 6.45419e-19)
(1.00508 -0.00321789 1.27411e-18)
(1.01023 -0.00463364 1.92764e-18)
(1.01738 -0.00618781 2.74719e-18)
(1.02672 -0.00783718 3.49427e-18)
(1.03836 -0.00946931 3.79855e-18)
(1.05218 -0.0108416 4.85939e-18)
(1.06763 -0.0116812 3.17369e-18)
(1.08383 -0.0117011 2.16139e-18)
(1.09938 -0.0107244 3.74659e-18)
(1.11296 -0.00896785 6.16578e-18)
(1.12368 -0.00658295 4.67451e-18)
(1.13082 -0.00367445 2.82155e-18)
(1.13375 -0.000273686 2.39901e-18)
(1.13172 0.00360153 3.31684e-18)
(1.1241 0.0076159 4.62284e-18)
(1.11102 0.0111178 5.92078e-18)
(1.09368 0.0134311 7.04424e-18)
(1.07416 0.014079 7.40716e-18)
(1.05498 0.0128529 5.51083e-18)
(1.03876 0.00980007 6.38848e-18)
(1.02791 0.00521555 5.81255e-18)
(1.02428 -0.000329571 -8.43491e-17)
(1.02878 -0.00591223 1.20754e-17)
(1.04077 -0.0102354 1.4716e-15)
(1.05752 -0.0119311 3.06259e-15)
(1.07441 -0.0102206 2.4208e-15)
(1.08641 -0.00549086 9.41093e-16)
(1.09 0.000816934 2.19412e-16)
(1.08428 0.00695083 -1.38104e-18)
(1.07075 0.0115905 -5.24647e-16)
(1.05222 0.0140914 1.43148e-16)
(1.03185 0.0143029 6.4534e-15)
(1.01273 0.0122915 -6.71653e-16)
(0.997782 0.00818608 -9.50049e-14)
(0.989779 0.00222558 -1.73978e-13)
(0.991146 -0.00500902 8.5124e-13)
(1.00323 -0.0122752 5.23247e-12)
(1.02506 -0.0176565 1.2756e-11)
(1.05248 -0.0192068 1.77863e-11)
(1.07884 -0.0160162 1.57277e-11)
(1.09733 -0.00888958 9.24667e-12)
(1.1036 -4.6337e-06 3.53282e-12)
(1.09714 0.00819008 5.84472e-13)
(1.0806 0.0139999 -2.98591e-13)
(1.05818 0.01681 -3.49055e-13)
(1.03409 0.0167512 -2.57422e-15)
(1.01194 0.0141831 1.08392e-12)
(0.994841 0.00938091 1.25032e-12)
(0.9857 0.00258931 -8.64773e-12)
(0.987149 -0.00560286 -4.71406e-11)
(1.00067 -0.0138295 -1.31768e-10)
(1.02519 -0.0199659 -2.48177e-10)
(1.05616 -0.0218705 -3.37326e-10)
(1.08633 -0.0185074 -3.43614e-10)
(1.10804 -0.0106577 -2.69227e-10)
(1.11618 -0.000645687 -1.6106e-10)
(1.10975 0.00873787 -6.75668e-11)
(1.09164 0.0153905 -1.34711e-11)
(1.06682 0.0184682 8.15473e-12)
(1.04042 0.0181723 1.54046e-11)
(1.0166 0.0151296 8.67063e-12)
(0.998549 0.00988265 -5.32223e-11)
(0.9889 0.00282321 -2.54122e-10)
(0.989938 -0.00542889 -6.8039e-10)
(1.00287 -0.0135787 -1.34332e-09)
(1.02655 -0.0196814 -2.11182e-09)
(1.05676 -0.0218022 -2.7341e-09)
(1.08682 -0.0189517 -2.9644e-09)
(1.10959 -0.0116807 -2.71038e-09)
(1.11978 -0.00194124 -2.08497e-09)
(1.11564 0.00767942 -1.32285e-09)
(1.09912 0.0149242 -6.46585e-10)
(1.0748 0.0185641 -1.84609e-10)
(1.0481 0.0185066 3.90755e-11)
(1.02381 0.0153735 4.93108e-11)
(1.00555 0.00992803 -1.45596e-10)
(0.996004 0.00282554 -5.68952e-10)
(0.997139 -0.00515015 -1.23148e-09)
(1.00963 -0.0127248 -2.07316e-09)
(1.0319 -0.0181913 -2.94942e-09)
(1.05973 -0.0199949 -3.67324e-09)
(1.08707 -0.0174574 -4.07617e-09)
(1.10783 -0.0111363 -4.0568e-09)
(1.11766 -0.00262585 -3.61127e-09)
(1.11502 0.00601406 -2.83691e-09)
(1.10122 0.0128967 -1.9044e-09)
(1.07983 0.0167869 -1.01903e-09)
(1.05544 0.0172738 -3.66272e-10)
(1.03265 0.0146291 -6.28315e-11)
(1.01535 0.00949127 -1.369e-10)
(1.00649 0.00265786 -5.3994e-10)
(1.00795 -0.00485276 -1.17245e-09)
(1.01994 -0.011679 -1.90811e-09)
(1.04043 -0.0162921 -2.6188e-09)
(1.06521 -0.0175046 -3.19887e-09)
(1.08885 -0.0149856 -3.57647e-09)
(1.10629 -0.00941827 -3.70887e-09)
(1.11421 -0.00222044 -3.57422e-09)
(1.11167 0.00495886 -3.17168e-09)
(1.09995 0.0107005 -2.53555e-09)
(1.08192 0.014076 -1.76157e-09)
(1.06126 0.01469 -1.0106e-09)
(1.04179 0.0125953 -4.63355e-10)
(1.02699 0.00818712 -2.44083e-10)
(1.01967 0.00216836 -3.68606e-10)
(1.02149 -0.00441372 -7.53394e-10)
(1.03243 -0.0102186 -1.26821e-09)
(1.05034 -0.0139023 -1.79102e-09)
(1.07132 -0.0145691 -2.23787e-09)
(1.09072 -0.0121243 -2.56492e-09)
(1.10446 -0.00730162 -2.75397e-09)
(1.11011 -0.00136172 -2.79452e-09)
(1.10723 0.0043489 -2.67253e-09)
(1.09716 0.00876157 -2.37511e-09)
(1.08238 0.0112425 -1.91642e-09)
(1.06585 0.0115556 -1.36486e-09)
(1.05057 0.00975593 -8.39771e-10)
(1.03928 0.00613781 -4.66017e-10)
(1.0342 0.0012746 -3.16188e-10)
(1.03652 -0.00393589 -3.84823e-10)
(1.04596 -0.00836979 -6.07737e-10)
(1.06053 -0.0109723 -9.02687e-10)
(1.07694 -0.0111255 -1.20137e-09)
(1.09151 -0.00888138 -1.46062e-09)
(1.10121 -0.00492423 -1.65776e-09)
(1.10439 -0.000297956 -1.77952e-09)
(1.10104 0.00394828 -1.81197e-09)
(1.09246 0.00703492 -1.73815e-09)
(1.08076 0.00855221 -1.5485e-09)
(1.06829 0.00840701 -1.25817e-09)
(1.05733 0.0067219 -9.16085e-10)
(1.04985 0.00379028 -5.92671e-10)
(1.0473 0.00010606 -3.51578e-10)
(1.05029 -0.00361846 -2.2534e-10)
(1.05824 -0.00655559 -2.10359e-10)
(1.06938 -0.00799579 -2.7919e-10)
(1.08113 -0.00760205 -3.97473e-10)
(1.0908 -0.00553905 -5.35228e-10)
(1.09636 -0.00240401 -6.70107e-10)
(1.09693 0.000995669 -7.85269e-10)
(1.0928 0.00390308 -8.6561e-10)
(1.08523 0.00579781 -8.96164e-10)
(1.07593 0.00644834 -8.65066e-10)
(1.06675 0.00585994 -7.7007e-10)
(1.05934 0.00419715 -6.23752e-10)
(1.05507 0.00175094 -4.52008e-10)
(1.05474 -0.00104867 -2.85376e-10)
(1.05854 -0.00364377 -1.48569e-10)
(1.06561 -0.00544494 -5.43904e-11)
(1.07451 -0.00601495 -4.01611e-12)
(1.08298 -0.00521139 8.8189e-12)
(1.08946 -0.0032992 -6.59902e-12)
(1.0921 -0.000742964 -4.06374e-11)
(1.09134 0.00170311 -8.39657e-11)
(1.08664 0.00375695 -1.2807e-10)
(1.08036 0.00455091 -1.62512e-10)
(1.07324 0.00510981 -1.87331e-10)
(1.06532 0.00282829 -1.71824e-10)
(1.00011 -0.00107292 7.43815e-22)
(1.00162 -0.00316206 7.00299e-21)
(1.00499 -0.00533915 9.15539e-21)
(1.01008 -0.007703 1.69717e-20)
(1.01719 -0.0103136 -6.3976e-20)
(1.02657 -0.0131028 -3.87589e-20)
(1.03837 -0.0158847 1.6446e-19)
(1.05251 -0.0182417 -1.98559e-18)
(1.06848 -0.0197045 -2.21482e-18)
(1.08532 -0.019757 9.01402e-18)
(1.10148 -0.0180883 1.39623e-17)
(1.11551 -0.0151115 -1.33111e-17)
(1.12658 -0.011098 -5.18418e-17)
(1.134 -0.00622341 -5.79576e-17)
(1.13718 -0.000505911 -3.32188e-17)
(1.13531 0.00606982 -9.30728e-18)
(1.12752 0.0129365 4.25764e-18)
(1.11385 0.0189446 1.03122e-17)
(1.09555 0.0229131 1.34101e-17)
(1.07486 0.0240305 7.8188e-18)
(1.05448 0.0219549 -5.1966e-18)
(1.03719 0.0167699 7.1468e-17)
(1.02556 0.00895901 -1.22685e-16)
(1.02165 -0.000543238 -2.06912e-15)
(1.02662 -0.0101873 5.5946e-15)
(1.03996 -0.0177237 5.27737e-14)
(1.05875 -0.0207225 1.06758e-13)
(1.07777 -0.0177748 9.44651e-14)
(1.09124 -0.00955526 4.10121e-14)
(1.09519 0.00137666 7.79513e-15)
(1.08881 0.0119381 -2.29688e-15)
(1.07399 0.0198601 -5.73857e-15)
(1.05393 0.0240945 8.87183e-15)
(1.03205 0.0244477 5.94695e-14)
(1.01151 0.0210632 -7.43399e-14)
(0.995296 0.0141386 -9.47357e-13)
(0.986341 0.00401129 -1.06515e-12)
(0.987427 -0.00840797 9.88443e-12)
(1.00037 -0.0210142 4.93976e-11)
(1.02437 -0.0304366 1.13363e-10)
(1.05483 -0.0331969 1.58207e-10)
(1.08406 -0.0276581 1.44624e-10)
(1.10424 -0.0152568 8.81302e-11)
(1.1106 0.00013716 3.47968e-11)
(1.10287 0.0142227 6.32928e-12)
(1.08437 0.0240948 -2.84055e-12)
(1.0599 0.0287875 -3.29367e-12)
(1.03398 0.0286253 4.03839e-13)
(1.01028 0.0242724 8.8654e-12)
(0.991836 0.0161723 6.97573e-12)
(0.981613 0.00465546 -7.66516e-11)
(0.982473 -0.00936475 -3.83383e-10)
(0.996288 -0.0235862 -1.02408e-09)
(1.02232 -0.0343145 -1.86874e-09)
(1.056 -0.0377499 -2.50141e-09)
(1.0894 -0.0319952 -2.53333e-09)
(1.11375 -0.018384 -1.96674e-09)
(1.12295 -0.0010211 -1.16227e-09)
(1.11583 0.0151707 -4.90372e-10)
(1.09579 0.0265338 -1.0412e-10)
(1.06866 0.0316812 4.43769e-11)
(1.04016 0.0310775 7.21238e-11)
(1.01463 0.0258932 3.16907e-11)
(0.995125 0.0170664 -1.63953e-10)
(0.984223 0.00518095 -7.18998e-10)
(0.984443 -0.00882939 -1.81145e-09)
(0.997449 -0.0228269 -3.39297e-09)
(1.02238 -0.0334602 -5.11357e-09)
(1.05478 -0.0373214 -6.45693e-09)
(1.08732 -0.0326217 -6.96321e-09)
(1.11212 -0.0202594 -6.42709e-09)
(1.12345 -0.00358658 -5.02371e-09)
(1.11936 0.0129244 -3.24274e-09)
(1.10194 0.0253677 -1.61891e-09)
(1.07614 0.0316291 -4.91406e-10)
(1.04775 0.0315778 6.42011e-11)
(1.02183 0.0263122 1.18436e-10)
(1.00216 0.0171292 -2.6769e-10)
(0.991667 0.00508055 -1.08169e-09)
(0.992652 -0.00856494 -2.2716e-09)
(1.00609 -0.0216203 -3.66037e-09)
(1.03029 -0.0310743 -4.98404e-09)
(1.06042 -0.034182 -6.00253e-09)
(1.08968 -0.0297872 -6.55083e-09)
(1.11142 -0.0189265 -6.51852e-09)
(1.12121 -0.00440166 -5.85853e-09)
(1.11775 0.01026 -4.65504e-09)
(1.10276 0.02189 -3.15615e-09)
(1.08005 0.0284513 -1.70703e-09)
(1.05442 0.0292883 -6.27828e-10)
(1.03051 0.0248558 -1.15673e-10)
(1.01234 0.0161797 -2.12817e-10)
(1.00316 0.00454134 -8.25372e-10)
(1.00513 -0.00834987 -1.7628e-09)
(1.01862 -0.020108 -2.79279e-09)
(1.04129 -0.0280141 -3.71311e-09)
(1.06828 -0.0299781 -4.40408e-09)
(1.09347 -0.0254715 -4.82223e-09)
(1.11137 -0.0157714 -4.95011e-09)
(1.11866 -0.00340261 -4.75892e-09)
(1.11473 0.00878661 -4.22359e-09)
(1.10131 0.0184186 -3.37512e-09)
(1.0817 0.0239944 -2.34162e-09)
(1.05977 0.0249147 -1.34288e-09)
(1.03943 0.0212905 -6.20711e-10)
(1.02423 0.0137574 -3.36605e-10)
(1.01715 0.0034577 -5.04136e-10)
(1.02002 -0.00783594 -1.00044e-09)
(1.03274 -0.0177844 -1.6405e-09)
(1.05281 -0.0240195 -2.26077e-09)
(1.07575 -0.0249839 -2.76439e-09)
(1.09636 -0.0205623 -3.11642e-09)
(1.11026 -0.0121015 -3.31058e-09)
(1.11506 -0.00183822 -3.33778e-09)
(1.11062 0.00789594 -3.17657e-09)
(1.09871 0.0153011 -2.80946e-09)
(1.0822 0.0193546 -2.25573e-09)
(1.06431 0.0197133 -1.60047e-09)
(1.0482 0.0165006 -9.86178e-10)
(1.03672 0.0102125 -5.56945e-10)
(1.03219 0.00181181 -3.9146e-10)
(1.03582 -0.00715907 -4.7532e-10)
(1.04714 -0.0147389 -7.27305e-10)
(1.06378 -0.0190849 -1.05046e-09)
(1.08192 -0.0191427 -1.37013e-09)
(1.09744 -0.0150542 -1.64386e-09)
(1.10711 -0.00806766 -1.85116e-09)
(1.10937 -3.06908e-05 -1.97813e-09)
(1.10448 0.00724094 -2.00762e-09)
(1.09412 0.0124321 -1.91981e-09)
(1.08072 0.0148823 -1.70484e-09)
(1.06692 0.0144711 -1.38153e-09)
(1.05515 0.0114297 -1.00567e-09)
(1.04754 0.00626485 -6.54684e-10)
(1.04561 -0.000171844 -3.95875e-10)
(1.04991 -0.00663653 -2.60854e-10)
(1.05966 -0.0116744 -2.42319e-10)
(1.07267 -0.014046 -3.0938e-10)
(1.08592 -0.0131867 -4.26429e-10)
(1.09637 -0.00942872 -5.64213e-10)
(1.10186 -0.00385878 -7.01484e-10)
(1.10157 0.00209161 -8.21341e-10)
(1.09606 0.00710882 -9.07177e-10)
(1.08688 0.0103126 -9.41691e-10)
(1.07605 0.011332 -9.10944e-10)
(1.06564 0.0102001 -8.11956e-10)
(1.05749 0.00721197 -6.58223e-10)
(1.05308 0.00287311 -4.77506e-10)
(1.05331 -0.00206497 -3.01954e-10)
(1.05828 -0.00661636 -1.56913e-10)
(1.06693 -0.00973534 -5.50176e-11)
(1.07745 -0.0106519 2.77565e-12)
(1.08721 -0.00913406 2.24094e-11)
(1.09437 -0.00567292 1.22588e-11)
(1.09695 -0.00112039 -1.91033e-11)
(1.0955 0.00320273 -6.29381e-11)
(1.08958 0.00677987 -1.10534e-10)
(1.08198 0.00814219 -1.50299e-10)
(1.07347 0.00908564 -1.80865e-10)
(1.06434 0.00498107 -1.70976e-10)
(1.00011 -0.00148926 -4.586e-20)
(1.00158 -0.00438838 -7.61745e-19)
(1.00485 -0.00742189 -1.45743e-18)
(1.00984 -0.0107392 -2.29371e-18)
(1.01688 -0.0144363 -3.77832e-18)
(1.02629 -0.0184271 -2.43586e-18)
(1.03832 -0.0224547 -9.09526e-18)
(1.05296 -0.0259067 -1.69659e-17)
(1.06971 -0.0280947 3.53231e-17)
(1.08756 -0.0282102 4.84235e-17)
(1.10466 -0.025782 -1.34393e-16)
(1.11936 -0.0215103 -4.03325e-16)
(1.13095 -0.0158228 -5.24921e-16)
(1.1388 -0.00898042 -3.73097e-16)
(1.14242 -0.000950155 -1.03901e-16)
(1.14081 0.00841751 5.00145e-17)
(1.13278 0.0183387 8.80159e-17)
(1.11816 0.0270936 7.5768e-17)
(1.09835 0.0329135 4.77226e-17)
(1.07584 0.0346065 -3.42244e-17)
(1.0536 0.031683 7.53538e-18)
(1.03467 0.024256 2.49636e-16)
(1.02185 0.0129825 -2.38638e-15)
(1.0175 -0.000857848 -1.32613e-15)
(1.02318 -0.0150669 3.16503e-14)
(1.03863 -0.026307 4.55738e-14)
(1.06065 -0.0308481 6.45306e-14)
(1.08305 -0.0264707 1.37975e-13)
(1.09882 -0.014191 1.20997e-13)
(1.10328 0.00204835 4.41454e-14)
(1.09576 0.0175644 -7.76831e-15)
(1.07883 0.029034 -2.16644e-14)
(1.05636 0.0350602 7.30193e-14)
(1.03214 0.0355103 1.79865e-13)
(1.00947 0.0306655 -7.26757e-13)
(0.991353 0.0207715 -3.06625e-12)
(0.980957 0.00616733 1.43763e-12)
(0.981616 -0.0120095 3.44875e-11)
(0.995876 -0.0307412 1.02911e-10)
(1.02328 -0.0448983 1.80383e-10)
(1.05857 -0.0490711 2.40995e-10)
(1.09244 -0.0407274 2.53742e-10)
(1.11531 -0.0221421 1.93685e-10)
(1.12167 0.000707588 1.01401e-10)
(1.11173 0.0213253 3.13046e-11)
(1.08995 0.035489 -3.23385e-12)
(1.0622 0.0419974 -1.03205e-11)
(1.03348 0.041555 3.92662e-12)
(1.00748 0.0352529 3.4063e-11)
(0.987031 0.0237142 -1.55061e-12)
(0.974943 0.00728073 -3.79965e-10)
(0.974278 -0.0129244 -1.53097e-09)
(0.987597 -0.0337425 -3.63841e-09)
(1.015 -0.0498325 -6.18764e-09)
(1.05215 -0.0554324 -8.07499e-09)
(1.09028 -0.0473906 -8.30737e-09)
(1.11907 -0.0274225 -6.74667e-09)
(1.13086 -0.00166238 -4.24935e-09)
(1.12369 0.0223329 -1.95993e-09)
(1.10143 0.0389714 -5.14091e-10)
(1.07109 0.046275 1.04117e-10)
(1.03948 0.0451802 2.29292e-10)
(1.01134 0.0376448 8.63299e-11)
(0.989621 0.0250891 -4.25809e-10)
(0.976902 0.00817386 -1.61445e-09)
(0.976212 -0.0120293 -3.6213e-09)
(0.989962 -0.0325432 -6.13854e-09)
(1.01745 -0.0483587 -8.55716e-09)
(1.05343 -0.0542868 -1.0334e-08)
(1.08933 -0.0476266 -1.11052e-08)
(1.11639 -0.0297321 -1.06017e-08)
(1.12856 -0.00553495 -8.77518e-09)
(1.12402 0.0184495 -6.06102e-09)
(1.10514 0.036536 -3.27422e-09)
(1.07726 0.0456548 -1.14641e-09)
(1.04657 0.0456519 -2.4304e-12)
(1.01845 0.0381586 1.79611e-10)
(0.996963 0.0250093 -4.65549e-10)
(0.985472 0.00758953 -1.78052e-09)
(0.986877 -0.0123532 -3.50474e-09)
(1.00242 -0.0315417 -5.25498e-09)
(1.02994 -0.0453665 -6.68947e-09)
(1.06355 -0.0496997 -7.66696e-09)
(1.09535 -0.0429561 -8.19893e-09)
(1.11804 -0.0268908 -8.26024e-09)
(1.12718 -0.00577513 -7.70559e-09)
(1.12194 0.0152545 -6.42812e-09)
(1.1047 0.0317487 -4.58728e-09)
(1.07979 0.0409502 -2.62195e-09)
(1.05224 0.0420375 -1.05565e-09)
(1.0268 0.0356597 -2.66103e-10)
(1.00767 0.023168 -3.60872e-10)
(0.998457 0.00626865 -1.17725e-09)
(1.00173 -0.012579 -2.37226e-09)
(1.01781 -0.0297586 -3.57266e-09)
(1.04375 -0.0411297 -4.52644e-09)
(1.07376 -0.0435998 -5.16301e-09)
(1.10086 -0.0365308 -5.53162e-09)
(1.11912 -0.0220057 -5.67867e-09)
(1.12526 -0.00388331 -5.56263e-09)
(1.11909 0.0136438 -5.07985e-09)
(1.10302 0.0272171 -4.183e-09)
(1.08091 0.0348436 -2.9844e-09)
(1.05703 0.0358189 -1.76392e-09)
(1.03545 0.0303591 -8.57443e-10)
(1.01987 0.0193225 -4.92299e-10)
(1.01348 0.00427749 -6.81924e-10)
(1.01821 -0.0122028 -1.24845e-09)
(1.03373 -0.0266149 -1.94396e-09)
(1.05689 -0.0354144 -2.57624e-09)
(1.0824 -0.0363471 -3.06143e-09)
(1.10442 -0.0293776 -3.39816e-09)
(1.1183 -0.0166426 -3.60602e-09)
(1.12173 -0.00153003 -3.67485e-09)
(1.11498 0.0125291 -3.55598e-09)
(1.10038 0.022975 -3.19828e-09)
(1.08134 0.0284418 -2.6043e-09)
(1.06149 0.0285513 -1.87111e-09)
(1.04424 0.0235451 -1.17347e-09)
(1.03264 0.0141418 -6.85867e-10)
(1.02912 0.00172884 -4.96802e-10)
(1.03486 -0.0114132 -5.80062e-10)
(1.04903 -0.0223519 -8.35258e-10)
(1.06856 -0.028361 -1.1542e-09)
(1.08895 -0.0279556 -1.46398e-09)
(1.10555 -0.0214749 -1.73193e-09)
(1.11497 -0.0108854 -1.9463e-09)
(1.11579 0.0010219 -2.09356e-09)
(1.10866 0.011579 -2.14753e-09)
(1.09574 0.0189155 -2.07541e-09)
(1.07994 0.0221513 -1.85821e-09)
(1.06428 0.0211885 -1.51499e-09)
(1.05146 0.0164069 -1.11034e-09)
(1.04382 0.0085617 -7.32679e-10)
(1.04296 -0.00107963 -4.55506e-10)
(1.04933 -0.0106432 -3.09665e-10)
(1.06173 -0.017937 -2.83242e-10)
(1.07737 -0.0211289 -3.41567e-10)
(1.09259 -0.0194511 -4.48725e-10)
(1.10393 -0.013504 -5.78316e-10)
(1.10911 -0.00499678 -7.12749e-10)
(1.10747 0.00390097 -8.36824e-10)
(1.09992 0.0112522 -9.32215e-10)
(1.08843 0.0158027 -9.77181e-10)
(1.07544 0.0170657 -9.53003e-10)
(1.06335 0.0151371 -8.54114e-10)
(1.05425 0.0104745 -6.94637e-10)
(1.04982 0.00383574 -5.05046e-10)
(1.05103 -0.00364402 -3.20162e-10)
(1.05784 -0.0104595 -1.66578e-10)
(1.06881 -0.0150195 -5.68094e-11)
(1.08161 -0.0161766 8.74475e-12)
(1.09306 -0.0136392 3.61062e-11)
(1.10099 -0.00820703 3.2865e-11)
(1.10328 -0.00123587 6.17058e-12)
(1.10072 0.0053068 -3.65408e-11)
(1.09299 0.0106002 -8.69706e-11)
(1.08352 0.0125658 -1.3248e-10)
(1.073 0.0138651 -1.69951e-10)
(1.06232 0.0074829 -1.67073e-10)
(1.00011 -0.0018913 -3.45505e-18)
(1.00151 -0.00557193 -1.23599e-17)
(1.00465 -0.00944446 -1.1192e-17)
(1.00947 -0.0137203 -1.48714e-17)
(1.0164 -0.0185442 -1.43542e-17)
(1.02582 -0.0238237 -1.01275e-17)
(1.03813 -0.0292367 -7.04981e-17)
(1.05344 -0.0339486 8.19501e-17)
(1.07128 -0.0370196 2.68185e-16)
(1.09056 -0.0372406 -6.6836e-16)
(1.10895 -0.0339388 -1.80772e-15)
(1.12455 -0.0282466 -5.31783e-16)
(1.13677 -0.0207967 2.56953e-15)
(1.14518 -0.0119425 4.12519e-15)
(1.1494 -0.00150545 3.2206e-15)
(1.14824 0.0109184 1.71096e-15)
(1.13995 0.0243026 5.91627e-16)
(1.12409 0.0361881 3.27272e-17)
(1.1022 0.0440888 -3.13181e-16)
(1.07718 0.0464077 -4.5172e-16)
(1.05238 0.0425387 6.21516e-16)
(1.03114 0.0326472 -7.24277e-15)
(1.0166 0.0175432 -2.3627e-15)
(1.01155 -0.00120416 1.7848e-13)
(1.01812 -0.0207491 -3.64142e-13)
(1.0365 -0.0364671 -4.18441e-12)
(1.06315 -0.0429472 -8.70032e-12)
(1.09043 -0.0368643 -7.77422e-12)
(1.10951 -0.0196559 -3.33061e-12)
(1.11463 0.0029283 -5.66535e-13)
(1.10538 0.0241798 9.3946e-14)
(1.08539 0.0395637 1.19081e-13)
(1.05954 0.0474326 2.79372e-13)
(1.03213 0.0478892 -3.87875e-13)
(1.00656 0.041456 -2.40098e-12)
(0.985854 0.0283942 4.32908e-12)
(0.9734 0.00888806 2.44269e-11)
(0.973115 -0.0158524 -4.93869e-11)
(0.988298 -0.0418373 -4.85071e-10)
(1.01918 -0.0617933 -1.29572e-09)
(1.06053 -0.0677958 -1.87269e-09)
(1.10142 -0.0560339 -1.65256e-09)
(1.12932 -0.0298519 -9.0392e-10)
(1.13665 0.00195988 -2.65309e-10)
(1.12393 0.0301004 1.08772e-11)
(1.09752 0.0488602 4.14391e-11)
(1.0651 0.0570149 1.23359e-11)
(1.03256 0.0559764 2.96513e-11)
(1.0035 0.0474953 7.72686e-11)
(0.980223 0.0324422 -1.27788e-10)
(0.965128 0.0110435 -1.24561e-09)
(0.961753 -0.0156744 -3.92793e-09)
(0.97412 -0.0439398 -8.00393e-09)
(1.00352 -0.0666005 -1.23017e-08)
(1.04526 -0.0754062 -1.53797e-08)
(1.08906 -0.0654635 -1.61146e-08)
(1.12303 -0.0386592 -1.40179e-08)
(1.13822 -0.00330194 -9.77606e-09)
(1.13178 0.0299024 -5.14651e-09)
(1.10762 0.052828 -1.72015e-09)
(1.07377 0.0626462 1.82811e-11)
(1.03832 0.0609468 4.88744e-10)
(1.00674 0.0508166 1.78468e-10)
(0.982095 0.034284 -8.8383e-10)
(0.967289 0.0118941 -2.90026e-09)
(0.96628 -0.015348 -5.69926e-09)
(0.982225 -0.0434422 -8.57644e-09)
(1.01397 -0.065204 -1.08408e-08)
(1.05476 -0.0732788 -1.23045e-08)
(1.09444 -0.064107 -1.30793e-08)
(1.12336 -0.0398571 -1.30213e-08)
(1.13544 -0.00737502 -1.16623e-08)
(1.1294 0.0246507 -8.86775e-09)
(1.10821 0.0487483 -5.33892e-09)
(1.07766 0.0609069 -2.20151e-09)
(1.04424 0.0609718 -2.87422e-10)
(1.01359 0.0511083 1.44823e-10)
(0.99015 0.0336169 -7.42733e-10)
(0.977987 0.0101309 -2.53189e-09)
(0.980679 -0.0170294 -4.62237e-09)
(0.999458 -0.0431494 -6.41523e-09)
(1.03123 -0.0616515 -7.59288e-09)
(1.0688 -0.0668996 -8.21842e-09)
(1.1032 -0.0570338 -8.54757e-09)
(1.12662 -0.0348304 -8.70791e-09)
(1.13462 -0.00633628 -8.50308e-09)
(1.12689 0.0215121 -7.5693e-09)
(1.10657 0.0429686 -5.79777e-09)
(1.0787 0.0546748 -3.57497e-09)
(1.04868 0.0557728 -1.61246e-09)
(1.02145 0.047132 -5.42005e-10)
(1.00145 0.0303519 -5.95176e-10)
(0.992722 0.00751898 -1.53822e-09)
(0.998117 -0.0180181 -2.8554e-09)
(1.01763 -0.0411211 -4.05035e-09)
(1.04739 -0.0559983 -4.87051e-09)
(1.08054 -0.0585383 -5.33036e-09)
(1.10939 -0.0481545 -5.58119e-09)
(1.12775 -0.027963 -5.74151e-09)
(1.13239 -0.00337369 -5.77569e-09)
(1.12355 0.0199144 -5.50023e-09)
(1.10428 0.0375068 -4.74281e-09)
(1.07912 0.0469808 -3.53886e-09)
(1.05283 0.0476388 -2.19601e-09)
(1.02979 0.0398659 -1.14869e-09)
(1.01397 0.0247436 -7.04712e-10)
(1.00878 0.00429517 -8.81975e-10)
(1.01614 -0.017957 -1.45064e-09)
(1.03518 -0.0371274 -2.11583e-09)
(1.06186 -0.0483633 -2.67969e-09)
(1.08998 -0.0487543 -3.08608e-09)
(1.11319 -0.0385087 -3.37119e-09)
(1.1267 -0.0207459 -3.58396e-09)
(1.12838 -0.000169881 -3.72031e-09)
(1.11892 0.0185733 -3.70453e-09)
(1.10119 0.0321207 -3.43558e-09)
(1.0792 0.0387963 -2.87602e-09)
(1.05706 0.0382579 -2.11953e-09)
(1.03856 0.0309219 -1.37082e-09)
(1.02703 0.0177716 -8.38537e-10)
(1.02505 0.000701372 -6.23617e-10)
(1.03363 -0.0171113 -6.90023e-10)
(1.05129 -0.0315896 -9.22906e-10)
(1.07412 -0.0390475 -1.20912e-09)
(1.09679 -0.0376387 -1.48208e-09)
(1.11425 -0.0280624 -1.72181e-09)
(1.12304 -0.0131809 -1.92937e-09)
(1.12199 0.00313214 -2.09683e-09)
(1.11217 0.0172716 -2.19066e-09)
(1.09626 0.0267879 -2.15992e-09)
(1.0777 0.0306087 -1.96779e-09)
(1.05993 0.0287069 -1.62687e-09)
(1.04603 0.0216566 -1.20867e-09)
(1.0386 0.0105163 -8.13916e-10)
(1.03935 -0.00292863 -5.23881e-10)
(1.04848 -0.0160218 -3.69388e-10)
(1.06416 -0.0256939 -3.34248e-10)
(1.0828 -0.0294744 -3.80246e-10)
(1.10005 -0.0264655 -4.71287e-10)
(1.11209 -0.0176856 -5.84371e-10)
(1.11659 -0.00562386 -7.07384e-10)
(1.11316 0.00669036 -8.29643e-10)
(1.1031 0.0166285 -9.33069e-10)
(1.08888 0.0225488 -9.9125e-10)
(1.07337 0.0238724 -9.78613e-10)
(1.05938 0.0207946 -8.84704e-10)
(1.04933 0.0139745 -7.23083e-10)
(1.04515 0.00447948 -5.27033e-10)
(1.04784 -0.00607034 -3.34737e-10)
(1.05713 -0.0155153 -1.74663e-10)
(1.071 -0.0216079 -5.94311e-11)
(1.08642 -0.0227934 1.14213e-11)
(1.09962 -0.0187902 4.47559e-11)
(1.10816 -0.010829 4.81566e-11)
(1.10982 -0.00091209 2.75466e-11)
(1.10573 0.00826068 -1.15672e-11)
(1.0957 0.0154835 -6.23404e-11)
(1.084 0.0180746 -1.11873e-10)
(1.07104 0.019653 -1.55544e-10)
(1.05879 0.01038 -1.59134e-10)
(1.0001 -0.00227308 3.15687e-18)
(1.00142 -0.00669485 1.19249e-17)
(1.00436 -0.0113798 1.22679e-17)
(1.00896 -0.0166164 6.31669e-18)
(1.01569 -0.0226157 5.75866e-17)
(1.02508 -0.0292977 -9.3575e-17)
(1.03772 -0.0362852 5.78428e-17)
(1.05385 -0.0424891 9.16598e-16)
(1.0731 -0.0466754 -1.78042e-15)
(1.09432 -0.0470609 -4.66962e-15)
(1.11441 -0.0427103 2.83465e-15)
(1.13113 -0.0354236 2.36199e-14)
(1.14412 -0.0261276 4.77302e-14)
(1.15321 -0.0153089 5.33152e-14)
(1.15832 -0.00253778 3.45754e-14)
(1.15789 0.0131068 1.43128e-14)
(1.14933 0.0304021 2.05284e-15)
(1.13179 0.0459519 -2.9421e-15)
(1.10711 0.0563492 -4.74473e-15)
(1.07876 0.0595043 -9.35141e-16)
(1.0506 0.0546919 -3.97475e-15)
(1.02635 0.0421404 -6.12033e-14)
(1.00949 0.0227811 1.85685e-13)
(1.00336 -0.00160672 6.93631e-13)
(1.01094 -0.0275375 -3.31153e-12)
(1.03321 -0.0488296 -1.4929e-11)
(1.06621 -0.0578331 -2.84992e-11)
(1.10026 -0.0496583 -3.22657e-11)
(1.12385 -0.0262686 -2.01101e-11)
(1.12975 0.0041425 -6.29805e-12)
(1.11799 0.0322033 -1.21851e-13)
(1.09379 0.0519563 1.20029e-12)
(1.06346 0.0616827 2.68384e-13)
(1.03195 0.0619944 -4.19711e-12)
(1.00272 0.0538041 3.75439e-12)
(0.978714 0.0373549 6.20524e-11)
(0.963299 0.0125491 2.20081e-11)
(0.960422 -0.019435 -8.37197e-10)
(0.973957 -0.0537536 -3.43707e-09)
(1.00597 -0.0810184 -7.33885e-09)
(1.05304 -0.0902214 -1.02117e-08)
(1.10353 -0.0751501 -9.85545e-09)
(1.14089 -0.0397515 -6.61016e-09)
(1.15295 0.00342892 -2.92594e-09)
(1.13883 0.0409087 -6.44487e-10)
(1.10714 0.0649014 1.38153e-10)
(1.06871 0.0744664 1.88344e-10)
(1.03121 0.0723463 1.49753e-10)
(0.998235 0.0614207 1.05191e-10)
(0.971156 0.0429045 -5.71739e-10)
(0.952026 0.0165271 -2.90633e-09)
(0.945761 -0.0174052 -7.23749e-09)
(0.958596 -0.0546227 -1.24374e-08)
(0.992311 -0.0854203 -1.68822e-08)
(1.04032 -0.0982276 -1.98195e-08)
(1.08994 -0.0862801 -2.10398e-08)
(1.128 -0.0519744 -1.98511e-08)
(1.14538 -0.00600226 -1.56797e-08)
(1.13918 0.0376568 -9.61786e-09)
(1.11319 0.0679769 -4.02732e-09)
(1.07592 0.0809075 -5.4943e-10)
(1.0364 0.0786819 6.9488e-10)
(1.00085 0.0657529 2.66391e-10)
(0.972885 0.0448145 -1.49182e-09)
(0.956284 0.0160906 -4.32473e-09)
(0.956145 -0.0194856 -7.5236e-09)
(0.975795 -0.0563852 -1.01078e-08)
(1.01276 -0.0846371 -1.15897e-08)
(1.05849 -0.0945423 -1.22651e-08)
(1.10158 -0.0819379 -1.27305e-08)
(1.13183 -0.0502247 -1.31155e-08)
(1.14318 -0.00853629 -1.27351e-08)
(1.13485 0.0320812 -1.07459e-08)
(1.1106 0.0624082 -7.26133e-09)