/*--------------------------------*- C++ -*----------------------------------*\
  =========                 |
  \\      /  F ield         | OpenFOAM: The Open Source CFD Toolbox
   \\    /   O peration     | Website:  https://openfoam.org
    \\  /    A nd           | Version:  11
     \\/     M anipulation  |
\*---------------------------------------------------------------------------*/
FoamFile
{
    format      ascii;
    class       volVectorField;
    location    "16.922439";
    object      U_0;
}
// * * * * * * * * * * * * * * * * * * * * * * * * * * * * * * * * * * * * * //

dimensions      [0 1 -1 0 0 0 0];

internalField   nonuniform List<vector> 
7132
(
(1.00011 -0.000214051 3.61032e-18)
(1.00165 -0.000632392 1.35886e-17)
(1.00508 -0.00106998 1.56808e-17)
(1.01024 -0.00154512 2.06798e-17)
(1.01741 -0.00206824 2.76717e-17)
(1.02678 -0.00262372 2.75421e-17)
(1.03842 -0.00317264 2.52798e-17)
(1.0522 -0.00363334 2.26102e-17)
(1.06757 -0.00391403 1.97834e-17)
(1.08363 -0.00391888 1.71509e-17)
(1.09906 -0.00358706 1.51154e-17)
(1.11251 -0.00298137 1.37899e-17)
(1.12304 -0.00214784 1.2998e-17)
(1.12983 -0.00112272 1.22695e-17)
(1.13217 7.32039e-05 1.01963e-17)
(1.12941 0.00140771 8.66302e-18)
(1.1211 0.00274338 8.24166e-18)
(1.10762 0.00385596 9.15905e-18)
(1.09034 0.00453135 8.97776e-18)
(1.07136 0.00462992 1.03288e-17)
(1.05319 0.0041022 1.11954e-17)
(1.03838 0.00298381 1.05737e-17)
(1.02915 0.00139482 1.06486e-17)
(1.02712 -0.000450493 1.31931e-17)
(1.03279 -0.00222047 -3.30418e-17)
(1.0451 -0.003478 -1.85226e-16)
(1.06101 -0.00380524 -2.99721e-16)
(1.07604 -0.00302214 -2.20836e-16)
(1.08567 -0.00133583 -7.76701e-17)
(1.08706 0.000746183 2.64226e-18)
(1.07982 0.00266988 5.00688e-17)
(1.06561 0.00404841 -1.98933e-17)
(1.0472 0.00470645 -3.42325e-16)
(1.02764 0.0046106 -1.61267e-16)
(1.00993 0.00378687 2.45163e-15)
(0.996937 0.00228535 6.70893e-15)
(0.991263 0.000209321 -3.30102e-15)
(0.994983 -0.00220288 -9.37904e-14)
(1.00883 -0.00448987 -3.59392e-13)
(1.03115 -0.00600672 -7.36156e-13)
(1.05741 -0.00617297 -9.28279e-13)
(1.08119 -0.00480785 -7.46711e-13)
(1.09648 -0.00228775 -3.83659e-13)
(1.09989 0.000630508 -1.24874e-13)
(1.09154 0.00318052 -5.79242e-15)
(1.07428 0.00488248 3.43182e-14)
(1.05214 0.00559439 7.82082e-15)
(1.02911 0.00538119 -9.01709e-14)
(1.00865 0.00435686 -1.83409e-13)
(0.993799 0.00260888 -2.88082e-14)
(0.987343 0.000241272 1.04719e-12)
(0.991557 -0.00249489 4.53549e-12)
(1.00726 -0.00508815 1.12351e-11)
(1.03257 -0.00682401 1.89149e-11)
(1.06245 -0.00706228 2.26611e-11)
(1.08981 -0.00558805 1.94196e-11)
(1.10783 -0.00278312 1.18973e-11)
(1.11251 0.0005274 5.79388e-12)
(1.10372 0.00345145 2.49811e-12)
(1.08469 0.00538471 7.96661e-13)
(1.06024 0.00613497 1.00217e-12)
(1.03513 0.00581007 2.86933e-12)
(1.01327 0.00461499 -3.05762e-13)
(0.997728 0.00271635 -2.64083e-11)
(0.991068 0.000258385 -1.00759e-10)
(0.995264 -0.0025 -2.41651e-10)
(1.01086 -0.00507027 -4.42257e-10)
(1.0359 -0.00679401 -6.59836e-10)
(1.06558 -0.00709173 -8.26928e-10)
(1.09323 -0.00575517 -8.8379e-10)
(1.11231 -0.00308975 -8.09515e-10)
(1.11855 0.000185309 -6.29807e-10)
(1.11119 0.0032162 -4.02627e-10)
(1.09287 0.0053272 -1.92717e-10)
(1.06834 0.00620767 -4.56726e-11)
(1.0428 0.00589898 2.05544e-11)
(1.02066 0.00463213 2.48317e-12)
(1.00524 0.00265747 -1.06132e-10)
(0.998922 0.00020291 -3.149e-10)
(1.00323 -0.00242951 -6.21086e-10)
(1.01817 -0.00477558 -9.94319e-10)
(1.04151 -0.00627468 -1.37531e-09)
(1.06868 -0.0064808 -1.68974e-09)
(1.09381 -0.00527572 -1.86913e-09)
(1.11137 -0.00294123 -1.86922e-09)
(1.11776 -5.96414e-05 -1.68083e-09)
(1.11213 0.00268452 -1.3331e-09)
(1.09639 0.00471027 -8.95212e-10)
(1.07438 0.00567634 -4.68913e-10)
(1.05076 0.00551329 -1.56461e-10)
(1.02994 0.00435866 -2.06256e-11)
(1.0155 0.00245441 -6.58879e-11)
(1.00995 9.66227e-05 -2.51514e-10)
(1.0145 -0.00233789 -5.1946e-10)
(1.02863 -0.00437913 -8.15131e-10)
(1.04975 -0.00555384 -1.09503e-09)
(1.07345 -0.00555532 -1.32664e-09)
(1.09461 -0.00437937 -1.48583e-09)
(1.10882 -0.00233205 -1.55373e-09)
(1.11346 8.65206e-05 -1.51441e-09)
(1.10817 0.00234648 -1.35681e-09)
(1.09461 0.00402366 -1.08733e-09)
(1.07581 0.00486163 -7.46846e-10)
(1.0555 0.00477291 -4.09354e-10)
(1.03739 0.0038107 -1.52921e-10)
(1.02477 0.00214126 -2.16453e-11)
(1.02007 3.93405e-05 -9.89881e-12)
(1.0244 -0.0021081 -7.79098e-11)
(1.03707 -0.0038451 -1.79531e-10)
(1.05548 -0.0047616 -2.80706e-10)
(1.07557 -0.00463712 -3.63279e-10)
(1.09295 -0.00352767 -4.20434e-10)
(1.10404 -0.00174056 -4.50626e-10)
(1.10695 0.000283594 -4.53092e-10)
(1.10168 0.00211503 -4.25858e-10)
(1.08981 0.0034385 -3.67498e-10)
(1.0739 0.0040806 -2.81632e-10)
(1.05689 0.00398379 -1.79757e-10)
(1.04178 0.00317463 -7.85289e-11)
(1.03132 0.00176179 7.53691e-12)
(1.02763 -3.67412e-05 7.21446e-11)
(1.03171 -0.00188025 1.17495e-10)
(1.04294 -0.00335798 1.49924e-10)
(1.05898 -0.0041079 1.75301e-10)
(1.07625 -0.00394752 1.9698e-10)
(1.09093 -0.00294296 2.16053e-10)
(1.1 -0.00137818 2.32295e-10)
(1.10196 0.000353505 2.44503e-10)
(1.09699 0.00187936 2.50074e-10)
(1.08661 0.00294003 2.44947e-10)
(1.0731 0.00340977 2.25401e-10)
(1.05897 0.00326165 1.91542e-10)
(1.04671 0.00252544 1.49763e-10)
(1.03858 0.0012823 1.11171e-10)
(1.03641 -0.000300469 8.64291e-11)
(1.04113 -0.00194249 8.09755e-11)
(1.0523 -0.00328628 9.38795e-11)
(1.06792 -0.00399984 1.20051e-10)
(1.08484 -0.0038974 1.53317e-10)
(1.09955 -0.00301144 1.88453e-10)
(1.10918 -0.00157959 2.21792e-10)
(1.11221 4.09937e-05 2.50788e-10)
(1.10867 0.00148922 2.72981e-10)
(1.09995 0.00249862 2.85044e-10)
(1.08825 0.00293904 2.82919e-10)
(1.07599 0.00279822 2.63658e-10)
(1.06545 0.00213144 2.28132e-10)
(1.05862 0.00102322 1.82338e-10)
(1.05709 -0.000408432 1.35666e-10)
(1.06189 -0.00198248 9.70902e-11)
(1.07318 -0.00344468 7.19573e-11)
(1.08988 -0.00451774 6.11899e-11)
(1.10989 -0.00497496 6.25641e-11)
(1.13022 -0.00474091 7.25983e-11)
(1.14834 -0.00387588 8.79523e-11)
(1.16135 -0.00262697 1.05982e-10)
(1.16972 -0.00121757 1.24928e-10)
(1.17027 1.46764e-05 1.43321e-10)
(1.17065 0.000935364 1.59882e-10)
(1.15994 0.00156873 1.78507e-10)
(1.00011 -0.000640233 3.88216e-20)
(1.00164 -0.0018921 7.34221e-19)
(1.00503 -0.0032028 1.49644e-18)
(1.01017 -0.00462943 2.30889e-18)
(1.01732 -0.00620444 3.31705e-18)
(1.02671 -0.00788219 4.24025e-18)
(1.03843 -0.00954652 4.67388e-18)
(1.05237 -0.0109488 5.94509e-18)
(1.06799 -0.0118096 3.37862e-18)
(1.08437 -0.0118316 2.39892e-18)
(1.1001 -0.010828 4.17944e-18)
(1.11379 -0.00900325 5.71404e-18)
(1.12451 -0.00650216 4.10603e-18)
(1.13146 -0.0034379 2.59751e-18)
(1.13395 0.000131568 2.53447e-18)
(1.13125 0.00412881 3.65744e-18)
(1.12284 0.00815242 5.17288e-18)
(1.10904 0.0115266 6.75154e-18)
(1.09126 0.0135987 8.20356e-18)
(1.0717 0.0139375 8.78217e-18)
(1.05293 0.012383 7.01576e-18)
(1.03757 0.00903204 7.88063e-18)
(1.02796 0.00423636 5.61474e-18)
(1.0258 -0.00136565 -7.09764e-17)
(1.03173 -0.00677198 1.07391e-17)
(1.04473 -0.0106418 8.98319e-16)
(1.06165 -0.0116769 1.50617e-15)
(1.07768 -0.00930698 9.39164e-16)
(1.08799 -0.00416323 3.00398e-16)
(1.08955 0.00219295 1.04387e-16)
(1.08202 0.00806131 -1.21329e-17)
(1.06723 0.0122642 -5.4737e-16)
(1.04811 0.0142793 5.89343e-16)
(1.02782 0.0140174 6.86311e-15)
(1.0094 0.011561 -7.03951e-15)
(0.995726 0.00705123 -1.0914e-13)
(0.989535 0.000775158 -1.16674e-13)
(0.993094 -0.00657201 1.19653e-12)
(1.00736 -0.0135922 5.79084e-12)
(1.03074 -0.0182935 1.24921e-11)
(1.05845 -0.0188642 1.57326e-11)
(1.08358 -0.0147289 1.26714e-11)
(1.09967 -0.0070436 6.79169e-12)
(1.10315 0.00186131 2.28857e-12)
(1.09427 0.00963411 2.17146e-13)
(1.07617 0.0148133 -3.00097e-13)
(1.05311 0.0169829 -2.7661e-13)
(1.02921 0.0163596 1.35686e-13)
(1.00795 0.0132971 1.2488e-12)
(0.992362 0.00804658 5.72691e-13)
(0.985335 0.000888372 -1.23539e-11)
(0.989355 -0.00744997 -5.62264e-11)
(1.00547 -0.0154132 -1.44319e-10)
(1.03189 -0.0207874 -2.53544e-10)
(1.06335 -0.021575 -3.23353e-10)
(1.09226 -0.0171026 -3.1044e-10)
(1.11129 -0.00854849 -2.29499e-10)
(1.11616 0.0015523 -1.27831e-10)
(1.10682 0.0104691 -4.79293e-11)
(1.08679 0.0163557 -5.76122e-12)
(1.06125 0.0186379 9.83207e-12)
(1.03515 0.0176671 1.46767e-11)
(1.01244 0.0140837 2.16952e-12)
(0.996117 0.00838736 -7.59207e-11)
(0.98877 0.000982578 -3.02995e-10)
(0.992518 -0.00738436 -7.51054e-10)
(1.00813 -0.0152446 -1.40497e-09)
(1.0338 -0.0205797 -2.11258e-09)
(1.06462 -0.0215905 -2.62865e-09)
(1.0936 -0.01761 -2.74572e-09)
(1.11382 -0.00955173 -2.41972e-09)
(1.12071 0.000398075 -1.79029e-09)
(1.11339 0.00963657 -1.08273e-09)
(1.09459 0.0160946 -4.89986e-10)
(1.06927 0.0188172 -1.0924e-10)
(1.04283 0.0179317 5.37808e-11)
(1.01981 0.0141465 2.79415e-11)
(1.00358 0.00821637 -1.76884e-10)
(0.996656 0.000808302 -5.7362e-10)
(1.00071 -0.00718742 -1.15618e-09)
(1.01593 -0.014362 -1.85724e-09)
(1.04004 -0.0189871 -2.5493e-09)
(1.06824 -0.0196799 -3.08466e-09)
(1.09432 -0.0160709 -3.34065e-09)
(1.1125 -0.0090219 -3.25215e-09)
(1.11909 -0.000304506 -2.83168e-09)
(1.11334 0.00800996 -2.16844e-09)
(1.09722 0.0141662 -1.40685e-09)
(1.0747 0.0171329 -7.13207e-10)
(1.05049 0.0166969 -2.26387e-10)
(1.02907 0.0132637 -1.73294e-11)
(1.01408 0.00754483 -7.99021e-11)
(1.00822 0.000412774 -3.52483e-10)
(1.01288 -0.00700002 -7.48633e-10)
(1.02763 -0.013248 -1.17993e-09)
(1.04972 -0.0168594 -1.57156e-09)
(1.07444 -0.0168802 -1.87131e-09)
(1.09633 -0.0133033 -2.04902e-09)
(1.11077 -0.00708139 -2.08883e-09)
(1.11519 0.000251011 -1.98274e-09)
(1.10938 0.0070876 -1.73157e-09)
(1.09517 0.0121538 -1.35671e-09)
(1.07577 0.0146878 -9.14984e-10)
(1.05493 0.014434 -4.94324e-10)
(1.03641 0.0115488 -1.81902e-10)
(1.02354 0.00651696 -2.44164e-11)
(1.01888 0.000148709 -1.23051e-11)
(1.02363 -0.00638948 -9.70096e-11)
(1.03712 -0.0116951 -2.21813e-10)
(1.05655 -0.0144944 -3.43869e-10)
(1.07758 -0.0141034 -4.40179e-10)
(1.09553 -0.0107021 -5.0278e-10)
(1.10668 -0.00524664 -5.31028e-10)
(1.10918 0.000908934 -5.25787e-10)
(1.1032 0.00645809 -4.86914e-10)
(1.09053 0.0104515 -4.14825e-10)
(1.07387 0.0123758 -3.14838e-10)
(1.05629 0.0120672 -1.99771e-10)
(1.04082 0.00960769 -8.68877e-11)
(1.03027 0.00531741 9.64261e-12)
(1.02685 -0.00015453 8.45443e-11)
(1.0316 -0.00577543 1.40859e-10)
(1.04383 -0.0102814 1.84672e-10)
(1.06097 -0.0125526 2.20303e-10)
(1.07917 -0.0120288 2.48926e-10)
(1.09435 -0.00892471 2.69964e-10)
(1.1034 -0.00412509 2.82889e-10)
(1.10486 0.00116077 2.87665e-10)
(1.09907 0.00579847 2.83675e-10)
(1.08775 0.00900485 2.68855e-10)
(1.07335 0.0104068 2.4095e-10)
(1.05851 0.00993063 2.00881e-10)
(1.04579 0.00766952 1.55385e-10)
(1.03756 0.00386607 1.15652e-10)
(1.03572 -0.000976858 9.22312e-11)
(1.04122 -0.00600354 9.01561e-11)
(1.0535 -0.0101104 1.0773e-10)
(1.07037 -0.0122705 1.38825e-10)
(1.08835 -0.0119153 1.76215e-10)
(1.10371 -0.00915829 2.13886e-10)
(1.11344 -0.00474477 2.47815e-10)
(1.11605 0.000223388 2.75563e-10)
(1.1117 0.00464552 2.95111e-10)
(1.10197 0.00771497 3.03686e-10)
(1.08922 0.00904256 2.97732e-10)
(1.07604 0.00859772 2.74698e-10)
(1.0648 0.00655147 2.35813e-10)
(1.05756 0.00315802 1.8744e-10)
(1.05603 -0.00122965 1.39271e-10)
(1.0613 -0.00606113 1.00391e-10)
(1.07349 -0.0105507 7.59893e-11)
(1.09139 -0.0138352 6.6583e-11)
(1.11266 -0.015212 6.94394e-11)
(1.13403 -0.0144521 8.0631e-11)
(1.15277 -0.0117561 9.65499e-11)
(1.16589 -0.00789591 1.14502e-10)
(1.17392 -0.00356475 1.32855e-10)
(1.17375 0.000190498 1.50347e-10)
(1.17339 0.00302272 1.66025e-10)
(1.16138 0.00486237 1.83391e-10)
(1.00011 -0.0010609 -6.0577e-23)
(1.00161 -0.00313554 8.16989e-21)
(1.00494 -0.00531329 1.36985e-20)
(1.01002 -0.00769517 2.43926e-20)
(1.01713 -0.0103405 -4.88079e-20)
(1.02654 -0.0131774 -1.17312e-20)
(1.03842 -0.0160136 9.5377e-20)
(1.0527 -0.0184218 -2.06379e-18)
(1.06883 -0.0199219 -2.04681e-18)
(1.08587 -0.0199806 8.76289e-18)
(1.10222 -0.01827 1.18503e-17)
(1.11639 -0.015181 -1.51238e-17)
(1.12748 -0.0109715 -4.7918e-17)
(1.13473 -0.00582902 -4.91622e-17)
(1.13747 0.00018417 -2.6395e-17)
(1.13487 0.00697875 -6.34257e-18)
(1.12621 0.0138661 4.68086e-18)
(1.11175 0.0196549 9.9483e-18)
(1.09296 0.0232089 1.27457e-17)
(1.0722 0.0237977 5.67394e-18)
(1.05223 0.0211614 -4.15229e-18)
(1.03584 0.0154648 7.53769e-17)
(1.02553 0.00728424 -2.49307e-16)
(1.02322 -0.00233111 -1.99374e-15)
(1.02979 -0.0116876 8.8459e-15)
(1.0443 -0.018447 5.4967e-14)
(1.06332 -0.0202952 9.2791e-14)
(1.08139 -0.0161941 6.99214e-14)
(1.09295 -0.00725631 2.55724e-14)
(1.09465 0.00374791 3.50898e-15)
(1.0863 0.0138367 -2.74018e-15)
(1.07015 0.0210013 -5.03875e-15)
(1.0495 0.024409 1.50134e-14)
(1.02771 0.0239659 6.09233e-14)
(1.0079 0.0198326 -1.55323e-13)
(0.993017 0.0122167 -1.11755e-12)
(0.98598 0.00153207 -3.84833e-13)
(0.989459 -0.0111086 1.42066e-11)
(1.00486 -0.0233125 5.8425e-11)
(1.03064 -0.0315607 1.20369e-10)
(1.06143 -0.0326089 1.5326e-10)
(1.08926 -0.0254193 1.28095e-10)
(1.10671 -0.012054 7.09854e-11)
(1.10996 0.00335353 2.48269e-11)
(1.09961 0.0166864 2.76431e-12)
(1.07949 0.0254618 -3.22183e-12)
(1.05442 0.0290639 -2.68055e-12)
(1.02876 0.027957 1.72091e-12)
(1.00598 0.0227791 1.0167e-11)
(0.989104 0.0139166 6.85566e-13)
(0.981082 0.00175398 -1.10473e-10)
(0.984683 -0.0125506 -4.66973e-10)
(1.00135 -0.0263503 -1.14486e-09)
(1.02959 -0.0357753 -1.95277e-09)
(1.06397 -0.0372645 -2.45933e-09)
(1.09608 -0.0295616 -2.34892e-09)
(1.11746 -0.0147158 -1.7183e-09)
(1.12297 0.00278981 -9.49039e-10)
(1.11257 0.0181484 -3.61081e-10)
(1.09045 0.0281685 -5.10949e-11)
(1.06259 0.0319469 5.49224e-11)
(1.03448 0.0302079 6.59566e-11)
(1.01012 0.0241287 7.85833e-12)
(0.992396 0.0145516 -2.29473e-10)
(0.983864 0.00206697 -8.45058e-10)
(0.986948 -0.0121713 -1.97142e-09)
(1.00288 -0.0257084 -3.49939e-09)
(1.03003 -0.0350476 -5.05592e-09)
(1.06316 -0.0370075 -6.16064e-09)
(1.09458 -0.0303569 -6.42753e-09)
(1.11668 -0.0166257 -5.73516e-09)
(1.12447 0.000424075 -4.31842e-09)
(1.11698 0.0162884 -2.66109e-09)
(1.09711 0.0273856 -1.23555e-09)
(1.07021 0.0320787 -3.04313e-10)
(1.04206 0.0306189 1.0563e-10)
(1.01745 0.0242487 7.68999e-11)
(0.999905 0.0142365 -3.26986e-10)
(0.992177 0.00164613 -1.07565e-09)
(0.996327 -0.0120593 -2.09341e-09)
(1.01275 -0.02444 -3.21005e-09)
(1.03894 -0.0324413 -4.21496e-09)
(1.06941 -0.033629 -4.94046e-09)
(1.09718 -0.0273988 -5.27836e-09)
(1.11607 -0.0153129 -5.15303e-09)
(1.12239 -0.00046074 -4.53826e-09)
(1.1157 0.0136306 -3.51891e-09)
(1.09834 0.0240267 -2.30905e-09)
(1.07453 0.0290347 -1.18677e-09)
(1.0491 0.0283231 -3.89573e-10)
(1.02662 0.0225579 -3.76576e-11)
(1.01089 0.0128798 -1.19816e-10)
(1.0049 0.000704816 -5.27253e-10)
(1.01036 -0.0120394 -1.1031e-09)
(1.02685 -0.0228025 -1.69177e-09)
(1.05121 -0.0289657 -2.1816e-09)
(1.07801 -0.028862 -2.52205e-09)
(1.10115 -0.0225425 -2.70524e-09)
(1.11571 -0.0117521 -2.73041e-09)
(1.11921 0.000800579 -2.58475e-09)
(1.11186 0.0123649 -2.25701e-09)
(1.09596 0.020828 -1.76834e-09)
(1.07505 0.0249798 -1.19265e-09)
(1.05306 0.0244469 -6.4598e-10)
(1.0338 0.0194969 -2.41118e-10)
(1.02072 0.0109041 -3.63887e-11)
(1.01653 -1.72716e-06 -1.6571e-11)
(1.02258 -0.0112251 -1.15913e-10)
(1.03804 -0.0203052 -2.5979e-10)
(1.05967 -0.0249984 -3.95428e-10)
(1.08252 -0.0241289 -4.99251e-10)
(1.1014 -0.0180702 -5.67136e-10)
(1.11239 -0.00855461 -6.00688e-10)
(1.11377 0.00203231 -5.9907e-10)
(1.10608 0.0114454 -5.5887e-10)
(1.09154 0.0181041 -4.78674e-10)
(1.07324 0.0211988 -3.64499e-10)
(1.05443 0.0205051 -2.3176e-10)
(1.03832 0.0161778 -1.00312e-10)
(1.02781 0.00874548 1.47004e-11)
(1.02523 -0.000698471 1.08598e-10)
(1.03161 -0.0103666 1.84993e-10)
(1.04602 -0.018045 2.48965e-10)
(1.06539 -0.0217818 3.02161e-10)
(1.08532 -0.0206376 3.42585e-10)
(1.1013 -0.0150505 3.67329e-10)
(1.11008 -0.00662048 3.7525e-10)
(1.11034 0.00252552 3.67682e-10)
(1.10275 0.010436 3.46862e-10)
(1.08944 0.0158002 3.14096e-10)
(1.0732 0.0180282 2.7005e-10)
(1.05695 0.0170344 2.17656e-10)
(1.04343 0.0129936 1.64779e-10)
(1.03518 0.00631813 1.22941e-10)
(1.03421 -0.00212478 1.02195e-10)
(1.04143 -0.010833 1.06262e-10)
(1.05604 -0.0178626 1.31597e-10)
(1.0753 -0.0214243 1.70218e-10)
(1.09522 -0.020567 2.13515e-10)
(1.11163 -0.0155539 2.54739e-10)
(1.12135 -0.00774328 2.89663e-10)
(1.12297 0.000920098 3.15971e-10)
(1.11692 0.00853478 3.31985e-10)
(1.10514 0.0137383 3.35421e-10)
(1.09035 0.0159018 3.23261e-10)
(1.07539 0.015008 2.93588e-10)
(1.06287 0.0113651 2.48477e-10)
(1.05502 0.00540354 1.95272e-10)
(1.05371 -0.00227623 1.44457e-10)
(1.06011 -0.010708 1.05339e-10)
(1.07422 -0.018493 8.26482e-11)
(1.09447 -0.0240986 7.59853e-11)
(1.118 -0.0263072 8.16202e-11)
(1.14108 -0.0247611 9.48548e-11)
(1.16066 -0.0198744 1.11687e-10)
(1.17373 -0.0130403 1.29413e-10)
(1.18089 -0.00547305 1.46675e-10)
(1.17926 0.000955459 1.62571e-10)
(1.17742 0.00589259 1.76724e-10)
(1.16302 0.00867159 1.91853e-10)
(1.00011 -0.00147203 -5.91592e-20)
(1.00156 -0.00435025 -8.56948e-19)
(1.0048 -0.00738427 -1.61319e-18)
(1.00976 -0.0107266 -2.6404e-18)
(1.01681 -0.0144725 -4.22971e-18)
(1.02625 -0.0185305 -3.14738e-18)
(1.03836 -0.0226355 -1.03864e-17)
(1.05313 -0.0261617 -1.69181e-17)
(1.07006 -0.028406 3.3668e-17)
(1.08812 -0.0285359 4.17591e-17)
(1.10544 -0.0260556 -1.39183e-16)
(1.12033 -0.0216307 -4.02599e-16)
(1.13198 -0.0156657 -5.08105e-16)
(1.13969 -0.00843366 -3.38692e-16)
(1.14284 3.98364e-05 -8.1374e-17)
(1.14043 0.00974318 5.41203e-17)
(1.1314 0.0197063 8.33652e-17)
(1.11587 0.0281455 7.04443e-17)
(1.09547 0.0333636 4.00869e-17)
(1.07286 0.0342903 -4.79946e-17)
(1.05105 0.0305529 3.03712e-17)
(1.03308 0.0223767 2.28446e-16)
(1.0217 0.0105464 -3.07239e-15)
(1.01915 -0.0034911 -1.2327e-15)
(1.02669 -0.0173103 4.62638e-14)
(1.04356 -0.0274156 1.22393e-13)
(1.06591 -0.0302364 2.10296e-13)
(1.08721 -0.024124 2.31516e-13)
(1.10073 -0.0107786 1.28171e-13)
(1.10256 0.00553828 3.0469e-14)
(1.09283 0.0203205 -1.57141e-14)
(1.07448 0.0306624 -1.65434e-14)
(1.05143 0.0354936 1.02331e-13)
(1.02735 0.0348145 1.45665e-13)
(1.00545 0.0289091 -1.08691e-12)
(0.988739 0.0180137 -3.33975e-12)
(0.980419 0.002563 4.51973e-12)
(0.983781 -0.0159981 4.65401e-11)
(1.00094 -0.0341815 1.25934e-10)
(1.03053 -0.0465958 2.12492e-10)
(1.06626 -0.0481883 2.71664e-10)
(1.09841 -0.0373683 2.6385e-10)
(1.11799 -0.0173741 1.81282e-10)
(1.12068 0.00543779 8.43272e-11)
(1.1078 0.0248844 2.00068e-11)
(1.08434 0.0374096 -7.13897e-12)
(1.05608 0.0423413 -9.13115e-12)
(1.02774 0.0405717 9.23021e-12)
(1.00275 0.0331214 3.68644e-11)
(0.983901 0.0205005 -3.54064e-11)
(0.974068 0.00311111 -5.2071e-10)
(0.976307 -0.0175699 -1.83089e-09)
(0.992829 -0.0378592 -4.03011e-09)
(1.0229 -0.0521063 -6.46508e-09)
(1.06113 -0.054843 -8.01517e-09)
(1.09808 -0.0438552 -7.83965e-09)
(1.12364 -0.0219788 -6.03224e-09)
(1.13118 0.00401776 -3.56957e-09)
(1.12015 0.026741 -1.50348e-09)
(1.09545 0.0413421 -3.02229e-10)
(1.0643 0.0466152 1.57233e-10)
(1.03316 0.0438963 2.09882e-10)
(1.0063 0.0351229 1.63963e-11)
(0.986439 0.0215198 -5.74677e-10)
(0.976218 0.00371775 -1.84392e-09)
(0.978675 -0.016881 -3.83661e-09)
(0.995739 -0.0367844 -6.17672e-09)
(1.02574 -0.0507324 -8.2949e-09)
(1.06249 -0.0538793 -9.74401e-09)
(1.09709 -0.0443699 -1.02244e-08)
(1.12116 -0.024482 -9.50815e-09)
(1.12952 0.000271778 -7.61613e-09)
(1.12135 0.0233313 -5.03854e-09)
(1.09985 0.0394761 -2.54929e-09)
(1.07079 0.0463312 -7.63203e-10)
(1.04033 0.0443028 1.02088e-10)
(1.01356 0.0352216 1.20324e-10)
(0.994333 0.0208569 -5.50996e-10)
(0.98589 0.00260592 -1.72985e-09)
(0.99086 -0.0174657 -3.15203e-09)
(1.00975 -0.0356676 -4.49443e-09)
(1.03942 -0.0473258 -5.52239e-09)
(1.07324 -0.0488132 -6.1804e-09)
(1.1032 -0.039399 -6.50649e-09)
(1.12259 -0.0216118 -6.47096e-09)
(1.12789 -0.000101899 -5.94223e-09)
(1.11922 0.0200463 -4.85017e-09)
(1.09959 0.0347499 -3.35654e-09)
(1.07363 0.0417448 -1.83095e-09)
(1.04639 0.0406453 -6.71596e-10)
(1.02251 0.0323663 -1.22372e-10)
(1.00604 0.018405 -1.98758e-10)
(1.00037 0.000683306 -7.26065e-10)
(1.00753 -0.017972 -1.44075e-09)
(1.02692 -0.0336737 -2.1062e-09)
(1.05462 -0.0424443 -2.59372e-09)
(1.08422 -0.0418551 -2.89051e-09)
(1.10886 -0.0321505 -3.04292e-09)
(1.1233 -0.0161021 -3.08118e-09)
(1.12523 0.00219098 -2.97894e-09)
(1.1154 0.0187224 -2.67971e-09)
(1.0968 0.0305569 -2.16453e-09)
(1.07352 0.0361326 -1.50224e-09)
(1.04978 0.0350508 -8.40007e-10)
(1.02952 0.0277133 -3.33238e-10)
(1.01635 0.0151539 -6.59317e-11)
(1.01321 -0.000774912 -2.06618e-11)
(1.02147 -0.01714 -1.12227e-10)
(1.03996 -0.030243 -2.48423e-10)
(1.06467 -0.03674 -3.7168e-10)
(1.08987 -0.0349694 -4.64554e-10)
(1.10978 -0.025631 -5.3194e-10)
(1.12032 -0.0114225 -5.79708e-10)
(1.11998 0.00407144 -6.02839e-10)
(1.10977 0.0175744 -5.87809e-10)
(1.0925 0.0268733 -5.23277e-10)
(1.07176 0.0309266 -4.10677e-10)
(1.0512 0.0295198 -2.67031e-10)
(1.03422 0.0229158 -1.16766e-10)
(1.02394 0.0118629 2.12057e-11)
(1.02279 -0.00205279 1.40273e-10)
(1.03171 -0.0161684 2.42417e-10)
(1.04925 -0.0271739 3.30208e-10)
(1.07162 -0.0322057 4.0256e-10)
(1.09369 -0.0299834 4.55542e-10)
(1.11052 -0.0213007 4.85096e-10)
(1.11874 -0.00863548 4.89346e-10)
(1.11724 0.00483118 4.69709e-10)
(1.10712 0.0162527 4.30164e-10)
(1.09102 0.0237813 3.75376e-10)
(1.07223 0.0266497 3.10001e-10)
(1.05403 0.0248103 2.40524e-10)
(1.03949 0.0185505 1.77197e-10)
(1.03135 0.00847969 1.32314e-10)
(1.03179 -0.00410242 1.14937e-10)
(1.04157 -0.016919 1.26434e-10)
(1.05938 -0.0270468 1.60453e-10)
(1.08175 -0.0318647 2.06731e-10)
(1.104 -0.0300785 2.55432e-10)
(1.12151 -0.0222215 2.99571e-10)
(1.131 -0.0104099 3.35231e-10)
(1.13118 0.0024459 3.60429e-10)
(1.12283 0.0135652 3.73593e-10)
(1.10831 0.0210044 3.72384e-10)
(1.09078 0.0239155 3.53831e-10)
(1.07349 0.0223341 3.16536e-10)
(1.05931 0.0167336 2.63775e-10)
(1.05079 0.00773647 2.04507e-10)
(1.05 -0.00377195 1.50513e-10)
(1.05817 -0.0163126 1.11432e-10)
(1.07499 -0.0277345 9.12737e-11)
(1.0983 -0.035724 8.83206e-11)
(1.12448 -0.0385321 9.75047e-11)
(1.14929 -0.0357531 1.13174e-10)
(1.1694 -0.0281448 1.30896e-10)
(1.18194 -0.0178516 1.48032e-10)
(1.18767 -0.00665478 1.63633e-10)
(1.1841 0.00260596 1.77308e-10)
(1.1803 0.00989092 1.89428e-10)
(1.16311 0.013181 2.01703e-10)
(1.00011 -0.0018685 -3.92693e-18)
(1.00149 -0.00552124 -1.34712e-17)
(1.00459 -0.00939369 -1.22968e-17)
(1.00939 -0.0137014 -1.66912e-17)
(1.01631 -0.0185882 -1.74007e-17)
(1.02577 -0.023955 -1.39758e-17)
(1.03816 -0.0294695 -7.20284e-17)
(1.0536 -0.0342808 8.97808e-17)
(1.07162 -0.0374312 2.47258e-16)
(1.09113 -0.0376806 -7.30485e-16)
(1.10977 -0.0343236 -1.76163e-15)
(1.12562 -0.0284418 -4.39911e-16)
(1.13797 -0.0206295 2.26209e-15)
(1.14627 -0.0112449 3.36443e-15)
(1.15002 -0.000179733 2.5102e-15)
(1.14795 0.012734 1.27917e-15)
(1.13848 0.0261923 4.05508e-16)
(1.12152 0.0376469 -2.45785e-17)
(1.09894 0.0447262 -3.53598e-16)
(1.07377 0.0460104 -4.24951e-16)
(1.04941 0.0410471 4.78444e-16)
(1.02922 0.0301392 -8.34982e-15)
(1.01628 0.0142534 6.49606e-15)
(1.01329 -0.0048195 1.76288e-13)
(1.0221 -0.0238924 -5.95838e-13)
(1.04228 -0.0380697 -4.25765e-12)
(1.06942 -0.0421372 -7.36802e-12)
(1.09539 -0.0336019 -5.54447e-12)
(1.11169 -0.0149152 -1.93854e-12)
(1.11365 0.00772039 -2.00689e-13)
(1.10184 0.0278919 7.98062e-14)
(1.08032 0.0417007 1.05644e-13)
(1.05393 0.0479664 2.84327e-13)
(1.02673 0.0469512 -6.7534e-13)
(1.00199 0.0391395 -2.5043e-12)
(0.982772 0.0247348 6.75617e-12)
(0.972578 0.00402126 2.45985e-11)
(0.97536 -0.0213545 -8.04824e-11)
(0.994007 -0.0466794 -5.60157e-10)
(1.02774 -0.0642326 -1.31718e-09)
(1.06997 -0.0665685 -1.70961e-09)
(1.10893 -0.0512814 -1.34965e-09)
(1.13268 -0.023165 -6.4274e-10)
(1.13536 0.00847458 -1.38443e-10)
(1.11909 0.0348693 3.61376e-11)
(1.09086 0.0513205 3.13776e-11)
(1.05809 0.057358 7.11135e-12)
(1.02613 0.0546163 3.88557e-11)
(0.998182 0.0446957 7.12446e-11)
(0.976488 0.02826 -2.46707e-10)
(0.963636 0.00556454 -1.60911e-09)
(0.963373 -0.021914 -4.54912e-09)
(0.979454 -0.0496418 -8.67345e-09)
(1.0121 -0.0699368 -1.27158e-08)
(1.05528 -0.0748718 -1.53066e-08)
(1.09797 -0.0608194 -1.54451e-08)
(1.1285 -0.0312461 -1.28517e-08)
(1.13899 0.00455887 -8.47887e-09)
(1.1281 0.0360273 -4.12846e-09)
(1.10099 0.0560873 -1.15927e-09)
(1.06613 0.0630765 2.04173e-10)
(1.0312 0.0592009 4.62674e-10)
(1.00099 0.0474869 2.47642e-11)
(0.978324 0.0295947 -1.15066e-09)
(0.966284 0.00595909 -3.20653e-09)
(0.968906 -0.0219214 -5.85089e-09)
(0.988682 -0.0492398 -8.3776e-09)
(1.02321 -0.0684374 -1.02457e-08)
(1.06468 -0.0726997 -1.1408e-08)
(1.10269 -0.059691 -1.19814e-08)
(1.12816 -0.0328206 -1.17496e-08)
(1.13608 0.000356605 -1.02573e-08)
(1.12619 0.0311371 -7.50341e-09)
(1.10228 0.0526621 -4.26026e-09)
(1.07051 0.0618301 -1.56256e-09)
(1.03734 0.0592208 -7.1803e-11)
(1.00812 0.0472411 9.13864e-11)
(0.987151 0.0280754 -8.31193e-10)
(0.978448 0.00339145 -2.39552e-09)
(0.985223 -0.0239836 -4.05754e-09)
(1.00775 -0.0487228 -5.35922e-09)
(1.04177 -0.0641967 -6.12853e-09)
(1.07934 -0.0655291 -6.49212e-09)
(1.11147 -0.0520716 -6.67977e-09)
(1.13107 -0.0276466 -6.7645e-09)
(1.13477 0.00123939 -6.54341e-09)
(1.12332 0.0277949 -5.72209e-09)
(1.10053 0.0468217 -4.26142e-09)
(1.0717 0.0556247 -2.5189e-09)
(1.04215 0.0538761 -1.0544e-09)
(1.0167 0.0427303 -2.9523e-10)
(0.999692 0.0239523 -3.26391e-10)
(0.99498 -3.64147e-05 -9.10064e-10)
(1.00475 -0.0253131 -1.67154e-09)
(1.02787 -0.0463497 -2.3104e-09)
(1.05937 -0.0576256 -2.70848e-09)
(1.09185 -0.0559906 -2.90441e-09)
(1.11781 -0.0420771 -2.99907e-09)
(1.13183 -0.0199235 -3.05793e-09)
(1.13179 0.00476394 -3.05128e-09)
(1.11896 0.026583 -2.87271e-09)
(1.09707 0.0417628 -2.43492e-09)
(1.07083 0.048487 -1.76948e-09)
(1.04491 0.0464425 -1.03981e-09)
(1.02352 0.0362055 -4.4794e-10)
(1.01053 0.0190615 -1.13559e-10)
(1.00906 -0.00255805 -2.44807e-11)
(1.02035 -0.024598 -8.27637e-11)
(1.04254 -0.0419086 -1.86363e-10)
(1.07068 -0.0499585 -2.78104e-10)
(1.09818 -0.0466845 -3.47023e-10)
(1.11889 -0.0332953 -4.05909e-10)
(1.12866 -0.0136466 -4.66598e-10)
(1.12622 0.0073193 -5.23438e-10)
(1.11305 0.0251915 -5.52606e-10)
(1.09258 0.0371051 -5.27221e-10)
(1.06898 0.0418411 -4.36858e-10)
(1.04635 0.0392689 -2.95519e-10)
(1.02846 0.0298055 -1.31671e-10)
(1.01868 0.0144607 2.95551e-11)
(1.01956 -0.00457976 1.75864e-10)
(1.03171 -0.0235927 3.04131e-10)
(1.05294 -0.0380053 4.1292e-10)
(1.07855 -0.0440078 4.99673e-10)
(1.10267 -0.040087 5.6151e-10)
(1.12006 -0.0275679 5.95757e-10)
(1.12736 -0.0099721 6.0009e-10)
(1.12374 0.00833929 5.73877e-10)
(1.11072 0.0235465 5.19941e-10)
(1.09146 0.0332444 4.44536e-10)
(1.06977 0.036518 3.56488e-10)
(1.04939 0.0334015 2.67418e-10)
(1.03378 0.024331 1.91667e-10)
(1.02604 0.0101677 1.4309e-10)
(1.0284 -0.0072314 1.29435e-10)
(1.04136 -0.0246256 1.48862e-10)
(1.06282 -0.0379545 1.91545e-10)
(1.08845 -0.0437385 2.4476e-10)
(1.11286 -0.0404477 2.97644e-10)
(1.13113 -0.0290513 3.43368e-10)
(1.14 -0.0125713 3.7879e-10)
(1.13841 0.00501246 4.02653e-10)
(1.12746 0.0199733 4.13541e-10)
(1.10994 0.0297579 4.08641e-10)
(1.08944 0.0333087 3.8442e-10)
(1.06959 0.0307405 3.39636e-10)
(1.0537 0.0227119 2.78915e-10)
(1.04465 0.010061 2.13323e-10)
(1.04481 -0.00596285 1.56346e-10)
(1.05533 -0.0232016 1.18012e-10)
(1.07536 -0.0385598 1.01354e-10)
(1.10184 -0.0488405 1.02986e-10)
(1.13035 -0.0518173 1.16253e-10)
(1.1562 -0.0471982 1.34476e-10)
(1.17602 -0.0362618 1.52854e-10)
(1.1873 -0.022029 1.68927e-10)
(1.19103 -0.00686651 1.82278e-10)
(1.18528 0.00531274 1.93121e-10)
(1.17933 0.0151267 2.02713e-10)
(1.15966 0.018394 2.11494e-10)
(1.0001 -0.00224424 4.22637e-18)
(1.00139 -0.00663041 1.41463e-17)
(1.0043 -0.0113142 1.35031e-17)
(1.00887 -0.0165891 9.66216e-18)
(1.0156 -0.0226653 5.86746e-17)
(1.02501 -0.029455 -9.17863e-17)
(1.03772 -0.0365695 7.34617e-17)
(1.05398 -0.0429007 9.12969e-16)
(1.07343 -0.0471947 -1.87221e-15)
(1.0949 -0.047631 -4.7985e-15)
(1.11529 -0.0432332 3.1548e-15)
(1.13232 -0.0357295 2.48293e-14)
(1.14553 -0.0259859 4.76694e-14)
(1.15461 -0.0144793 4.91749e-14)
(1.15924 -0.000865003 2.91515e-14)
(1.15774 0.0154805 1.05951e-14)
(1.14774 0.0329053 3.25493e-16)
(1.12885 0.0478971 -3.49336e-15)
(1.10333 0.0572235 -4.7896e-15)
(1.07477 0.0590407 -2.46369e-16)
(1.04707 0.0528174 -7.90635e-15)
(1.02396 0.0389395 -6.20497e-14)
(1.00889 0.0185157 2.71852e-13)
(1.00517 -0.00639323 6.20194e-13)
(1.01553 -0.0318051 -4.8251e-12)
(1.04013 -0.051088 -1.90868e-11)
(1.07386 -0.0568102 -3.30359e-11)
(1.10629 -0.0452637 -3.17292e-11)
(1.1264 -0.019886 -1.62042e-11)
(1.12839 0.0104967 -3.88075e-12)
(1.11361 0.0369994 4.65574e-13)
(1.08776 0.0546191 1.12223e-12)
(1.05696 0.0622843 -2.69924e-13)
(1.02577 0.0607758 -4.72056e-12)
(0.997458 0.0508887 9.29178e-12)
(0.975007 0.0327254 7.16236e-11)
(0.961961 0.00628356 -3.80802e-11)
(0.962364 -0.0266886 -1.12931e-09)
(0.979892 -0.0603552 -3.98063e-09)
(1.01572 -0.0845895 -7.76287e-09)
(1.06475 -0.0888176 -9.99546e-09)
(1.11369 -0.0687401 -8.91274e-09)
(1.14612 -0.0305732 -5.46302e-09)
(1.15202 0.0122573 -2.13716e-09)
(1.13313 0.0471442 -3.27071e-10)
(1.09917 0.0679038 1.78633e-10)
(1.06053 0.0747006 1.62241e-10)
(1.02388 0.0705206 1.42274e-10)
(0.992142 0.0579393 4.95297e-11)
(0.96658 0.0377781 -8.60827e-10)
(0.949721 0.00968193 -3.55312e-09)
(0.947027 -0.025465 -8.07206e-09)
(0.964341 -0.0622247 -1.30821e-08)
(1.00187 -0.0900417 -1.71131e-08)
(1.05141 -0.0978003 -1.96417e-08)
(1.09966 -0.0804637 -2.04215e-08)
(1.13397 -0.0424572 -1.86699e-08)
(1.14634 0.0042571 -1.40612e-08)
(1.1353 0.0457566 -8.05762e-09)
(1.10597 0.0723174 -2.97691e-09)
(1.06744 0.0814988 -1.00309e-10)
(1.02837 0.0764577 7.06181e-10)
(0.994263 0.061555 1.13555e-11)
(0.968481 0.0388749 -1.87996e-09)
(0.95511 0.00843741 -4.64023e-09)
(0.959244 -0.0280693 -7.4997e-09)
(0.983225 -0.063936 -9.59996e-09)
(1.0231 -0.0887452 -1.06758e-08)
(1.0693 -0.0936388 -1.11454e-08)
(1.11031 -0.0761195 -1.15532e-08)
(1.13663 -0.0411642 -1.18742e-08)
(1.14336 0.00128096 -1.13441e-08)
(1.13091 0.0402435 -9.25782e-09)
(1.10386 0.0673098 -5.93339e-09)
(1.06893 0.0787888 -2.60011e-09)
(1.03281 0.0754895 -4.74732e-10)
(1.00111 0.0603106 -7.57485e-11)
(0.978706 0.0356942 -1.15269e-09)
(0.970459 0.00358043 -2.96317e-09)
(0.979912 -0.0321081 -4.67681e-09)
(1.00659 -0.0639445 -5.77012e-09)