/*--------------------------------*- C++ -*----------------------------------*\
  =========                 |
  \\      /  F ield         | OpenFOAM: The Open Source CFD Toolbox
   \\    /   O peration     | Website:  https://openfoam.org
    \\  /    A nd           | Version:  11
     \\/     M anipulation  |
\*---------------------------------------------------------------------------*/
FoamFile
{
    format      ascii;
    class       volVectorField;
    location    "16.922439";
    object      vorticity;
}
// * * * * * * * * * * * * * * * * * * * * * * * * * * * * * * * * * * * * * //

dimensions      [0 0 -1 0 0 0 0];

internalField   nonuniform List<vector> 
7132
(
(-6.91159e-17 -1.90456e-15 -0.00847084)
(-2.5649e-16 -1.85586e-15 -0.00828586)
(-2.81858e-16 -7.09545e-17 -0.0082818)
(-3.65908e-16 -1.85564e-15 -0.00851441)
(-4.90532e-16 -1.80449e-15 -0.00896106)
(-4.66683e-16 2.35389e-17 -0.00955225)
(-4.12772e-16 4.91393e-17 -0.0101926)
(-3.34157e-16 5.47877e-17 -0.0107776)
(-3.28668e-16 5.46423e-17 -0.0112164)
(-2.95756e-16 4.69653e-17 -0.0114453)
(-2.19061e-16 3.39894e-17 -0.0114372)
(-1.60557e-16 2.15327e-17 -0.0112287)
(-1.77456e-16 1.56697e-17 -0.0108851)
(-1.93884e-16 2.87621e-17 -0.010511)
(-1.53474e-16 -3.43335e-15 -0.0102266)
(-9.95886e-17 -1.71542e-15 -0.0101162)
(-5.852e-17 -3.4741e-15 -0.0102088)
(-4.82092e-17 -7.23325e-18 -0.0104643)
(-8.48936e-18 -1.7466e-15 -0.0107892)
(-2.32385e-17 -1.75749e-15 -0.0110635)
(-8.22216e-17 -3.13931e-18 -0.0111639)
(-5.16194e-17 6.01389e-18 -0.0109877)
(-9.31495e-17 -2.78436e-17 -0.0104897)
(-1.74165e-15 4.07145e-16 -0.00976107)
(9.66497e-16 5.42176e-15 -0.00901808)
(2.43519e-14 2.75658e-15 -0.00844093)
(4.25738e-14 5.1057e-16 -0.00813077)
(2.88379e-14 -2.20703e-15 -0.00818142)
(9.81057e-15 -2.3277e-15 -0.00871281)
(2.40021e-15 3.93352e-16 -0.00971344)
(-1.17282e-15 1.87325e-15 -0.0109246)
(-1.06048e-14 7.23162e-15 -0.0120158)
(1.63412e-14 1.6857e-15 -0.0127334)
(1.40077e-13 -2.41879e-14 -0.0129263)
(-1.56701e-13 -6.34221e-14 -0.0125355)
(-2.25904e-12 4.66154e-14 -0.0116076)
(-2.58277e-12 9.09364e-13 -0.010364)
(2.41323e-11 3.31616e-12 -0.009266)
(1.20534e-10 6.15701e-12 -0.00872767)
(2.66091e-10 5.67516e-12 -0.00872466)
(3.42559e-10 3.88076e-13 -0.00887432)
(2.815e-10 -5.15504e-12 -0.00902064)
(1.5359e-10 -6.11047e-12 -0.00950592)
(5.31501e-11 -3.77008e-12 -0.0106367)
(5.80533e-12 -1.60517e-12 -0.0121663)
(-6.74169e-12 -1.79775e-13 -0.0135618)
(-6.04962e-12 1.176e-12 -0.0143812)
(3.82282e-12 1.87731e-12 -0.0144213)
(2.80202e-11 -3.83764e-13 -0.0137254)
(1.58377e-11 -1.10617e-11 -0.0124896)
(-2.49439e-10 -4.22146e-11 -0.010941)
(-1.17138e-09 -9.63806e-11 -0.00929212)
(-3.05329e-09 -1.39036e-10 -0.00761402)
(-5.42801e-09 -1.13867e-10 -0.00613033)
(-6.9881e-09 -9.32493e-12 -0.00545312)
(-6.74731e-09 1.02573e-10 -0.00605509)
(-4.99996e-09 1.33545e-10 -0.00788308)
(-2.80988e-09 9.23256e-11 -0.0105505)
(-1.08683e-09 4.83969e-11 -0.0132425)
(-1.60513e-10 1.48993e-11 -0.0151298)
(1.71588e-10 -2.02657e-11 -0.0159164)
(2.39357e-10 8.3419e-12 -0.0156631)
(6.95789e-11 2.74377e-10 -0.0143447)
(-9.14296e-10 9.68205e-10 -0.0115267)
(-3.85783e-09 2.10579e-09 -0.00647276)
(-9.86048e-09 3.37981e-09 0.00124244)
(-1.88339e-08 4.18659e-09 0.0110875)
(-2.86792e-08 3.90868e-09 0.0213405)
(-3.58692e-08 2.34831e-09 0.0294165)
(-3.73762e-08 -5.49409e-11 0.0326889)
(-3.2599e-08 -2.45243e-09 0.0295684)
(-2.37108e-08 -4.0412e-09 0.0204851)
(-1.40558e-08 -4.40575e-09 0.00807607)
(-6.26037e-09 -3.64566e-09 -0.00394353)
(-1.43374e-09 -2.22116e-09 -0.0124894)
(6.22913e-10 -5.66013e-10 -0.0162101)
(5.56441e-10 1.1852e-09 -0.0154521)
(-1.28679e-09 3.09022e-09 -0.011499)
(-4.95983e-09 5.0712e-09 -0.00583275)
(-1.04124e-08 6.74225e-09 0.000256563)
(-1.69392e-08 7.54099e-09 0.00608424)
(-2.31968e-08 7.01789e-09 0.011895)
(-2.7715e-08 5.06352e-09 0.0182596)
(-2.939e-08 1.96147e-09 0.0247926)
(-2.77714e-08 -1.70731e-09 0.0294806)
(-2.32514e-08 -5.2142e-09 0.0296539)
(-1.6999e-08 -7.77701e-09 0.0240254)
(-1.05121e-08 -8.65996e-09 0.0137949)
(-5.09866e-09 -7.50133e-09 0.00210706)
(-1.51966e-09 -4.65394e-09 -0.00750303)
(3.72166e-11 -1.07905e-09 -0.0129002)
(-2.30157e-10 2.17542e-09 -0.014238)
(-1.9123e-09 4.45757e-09 -0.0133937)
(-4.44803e-09 5.60892e-09 -0.0124519)
(-7.16343e-09 5.76816e-09 -0.0121367)
(-9.42601e-09 5.15713e-09 -0.0113648)
(-1.08299e-08 3.9729e-09 -0.0083982)
(-1.12439e-08 2.35503e-09 -0.00251849)
(-1.07227e-08 3.86848e-10 0.00507793)
(-9.42131e-09 -1.85671e-09 0.011784)
(-7.57335e-09 -4.16437e-09 0.0151232)
(-5.47534e-09 -6.03141e-09 0.0139402)
(-3.44531e-09 -6.78008e-09 0.0087228)
(-1.76414e-09 -6.01239e-09 0.00127118)
(-6.18958e-10 -3.99325e-09 -0.0063549)
(-6.82048e-11 -1.54418e-09 -0.0129454)
(-3.91525e-11 4.83705e-10 -0.0184537)
(-3.60008e-10 1.66037e-09 -0.0233275)
(-8.20061e-10 2.02513e-09 -0.0273797)
(-1.24108e-09 1.85319e-09 -0.0294151)
(-1.52264e-09 1.42059e-09 -0.0280741)
(-1.63903e-09 8.99035e-10 -0.022958)
(-1.60693e-09 3.53361e-10 -0.0151053)
(-1.45831e-09 -2.18887e-10 -0.00654639)
(-1.22948e-09 -8.25876e-10 0.000684041)
(-9.57207e-10 -1.41557e-09 0.005113)
(-6.75487e-10 -1.86125e-09 0.00597438)
(-4.11197e-10 -2.03024e-09 0.00324417)
(-1.77208e-10 -1.88593e-09 -0.00257021)
(3.24899e-11 -1.5263e-09 -0.0107413)
(2.37919e-10 -1.1178e-09 -0.0204521)
(4.56419e-10 -7.90382e-10 -0.030639)
(6.84172e-10 -5.84979e-10 -0.039674)
(8.9114e-10 -4.73954e-10 -0.0455523)
(1.03388e-09 -4.09567e-10 -0.0467487)
(1.0781e-09 -3.55264e-10 -0.0429985)
(1.01633e-09 -2.87766e-10 -0.0354105)
(8.70771e-10 -1.83572e-10 -0.0258772)
(6.80732e-10 -1.40696e-11 -0.0162124)
(4.86359e-10 2.33511e-10 -0.00785572)
(3.17611e-10 5.20586e-10 -0.00198103)
(1.91302e-10 7.48254e-10 0.000433532)
(1.14608e-10 8.05413e-10 -0.00134986)
(8.94338e-11 6.45038e-10 -0.00762116)
(1.13653e-10 3.19413e-10 -0.0179319)
(1.795e-10 -5.69739e-11 -0.0308746)
(2.71974e-10 -3.77268e-10 -0.0440452)
(3.70493e-10 -5.86384e-10 -0.0545891)
(4.53937e-10 -6.81019e-10 -0.0602357)
(5.06197e-10 -6.85514e-10 -0.0601338)
(5.19744e-10 -6.26892e-10 -0.0549912)
(4.96356e-10 -5.18082e-10 -0.0465157)
(4.44608e-10 -3.52095e-10 -0.0364884)
(3.75562e-10 -1.12841e-10 -0.0262696)
(2.99296e-10 1.97498e-10 -0.0169094)
(2.23814e-10 5.32013e-10 -0.00938514)
(1.56257e-10 8.02484e-10 -0.00479101)
(1.0391e-10 9.22402e-10 -0.00427265)
(7.2914e-11 8.58747e-10 -0.00866385)
(6.57599e-11 6.48957e-10 -0.0179715)
(7.95323e-11 3.72506e-10 -0.0309093)
(1.06342e-10 1.05974e-10 -0.0449485)
(1.36046e-10 -1.04979e-10 -0.0570861)
(1.59616e-10 -2.47868e-10 -0.0649037)
(1.71503e-10 -3.30415e-10 -0.0672791)
(1.70512e-10 -3.68251e-10 -0.0645)
(1.59054e-10 -3.73432e-10 -0.0579097)
(1.41207e-10 -3.50418e-10 -0.0486565)
(1.23551e-10 -3.5552e-10 -0.0397099)
(9.81822e-11 -1.89434e-10 -0.0228792)
(-6.94701e-17 -7.66913e-18 -0.0253381)
(-2.70044e-16 -1.4549e-17 -0.0247733)
(-3.11462e-16 -1.58218e-17 -0.0247466)
(-4.1163e-16 -1.82783e-17 -0.0254358)
(-5.54558e-16 -1.9377e-17 -0.0267889)
(-5.51914e-16 -1.3647e-17 -0.028613)
(-5.04363e-16 -1.71237e-17 -0.0306315)
(-4.94566e-16 1.27358e-17 -0.0325291)
(-4.12344e-16 1.77016e-15 -0.0340199)
(-1.69108e-16 -7.83829e-18 -0.0348849)
(-5.85687e-17 -3.361e-17 -0.0350003)
(-5.47247e-16 1.73545e-15 -0.034425)
(-1.23976e-15 3.23332e-17 -0.0332916)
(-1.26857e-15 1.68237e-17 -0.0318443)
(-7.60689e-16 -1.02035e-17 -0.0303628)
(-3.13594e-16 -2.65301e-17 -0.0291089)
(-7.41479e-17 -3.11887e-17 -0.0282879)
(1.60779e-17 -3.05545e-17 -0.0279962)
(7.72966e-17 -2.09777e-17 -0.0282212)
(-8.44938e-17 1.07089e-17 -0.0288601)
(-3.13818e-16 7.66302e-18 -0.0297443)
(1.28823e-15 1.14778e-17 -0.0306781)
(-4.62669e-15 8.17174e-16 -0.0314989)
(-4.09274e-14 -1.20984e-16 -0.0321729)
(1.63388e-13 -1.10945e-14 -0.0327348)
(1.09968e-12 -1.80487e-14 -0.0330426)
(1.93044e-12 -1.73244e-15 -0.0328071)
(1.50681e-12 1.41746e-14 -0.0319234)
(5.72525e-13 1.08907e-14 -0.0307005)
(8.51923e-14 4.14863e-15 -0.029595)
(-5.45134e-14 1.01075e-14 -0.0288653)
(-1.0419e-13 -6.72784e-15 -0.028558)
(2.79213e-13 -7.53899e-14 -0.0285737)
(1.2264e-12 6.05952e-14 -0.0287513)
(-2.7691e-12 1.13267e-12 -0.0289956)
(-2.18107e-11 1.25965e-12 -0.0294232)
(-1.11998e-11 -1.2288e-11 -0.0304971)
(2.65998e-10 -5.82439e-11 -0.0330545)
(1.13673e-09 -1.14824e-10 -0.03752)
(2.39607e-09 -1.05341e-10 -0.0424942)
(3.1118e-09 -7.31671e-12 -0.0449964)
(2.65168e-09 8.93276e-11 -0.0433646)
(1.4999e-09 1.08063e-10 -0.0391013)
(5.39266e-10 7.01207e-11 -0.0349112)
(6.88728e-11 2.83372e-11 -0.0321284)
(-6.42249e-11 5.74769e-12 -0.0307067)
(-5.665e-11 -4.10798e-12 -0.0300652)
(3.037e-11 -1.51594e-11 -0.0297537)
(2.02134e-10 -6.39296e-12 -0.0297781)
(4.58744e-11 1.27664e-10 -0.0301676)
(-2.07214e-09 5.51392e-10 -0.0297774)
(-9.04665e-09 1.30554e-09 -0.0257319)
(-2.25707e-08 1.98928e-09 -0.0156884)
(-3.90378e-08 1.85354e-09 -0.00227385)
(-4.97821e-08 6.50322e-10 0.00683265)
(-4.81088e-08 -8.91502e-10 0.00553745)
(-3.56079e-08 -1.83517e-09 -0.00497204)
(-1.99502e-08 -1.86424e-09 -0.0182804)
(-7.7813e-09 -1.27629e-09 -0.0284939)
(-1.241e-09 -6.14313e-10 -0.0333624)
(1.04202e-09 -2.20202e-10 -0.034023)
(1.28739e-09 5.93483e-11 -0.0326218)
(2.5972e-10 8.51202e-10 -0.0299703)
(-3.76868e-09 2.93191e-09 -0.0246998)
(-1.42399e-08 6.57888e-09 -0.0142225)
(-3.35585e-08 1.08678e-08 0.00312913)
(-5.99001e-08 1.3596e-08 0.0264278)
(-8.6823e-08 1.24263e-08 0.0526294)
(-1.06089e-07 6.69682e-09 0.0771131)
(-1.11051e-07 -1.69003e-09 0.0931016)
(-9.94387e-08 -9.28517e-09 0.0932476)
(-7.51311e-08 -1.33128e-08 0.0747784)
(-4.6522e-08 -1.31309e-08 0.0429712)
(-2.18677e-08 -9.95671e-09 0.00860148)
(-5.72964e-09 -5.66281e-09 -0.0179859)
(1.54131e-09 -1.5611e-09 -0.0315974)
(1.6296e-09 2.14006e-09 -0.0330604)
(-4.0288e-09 5.84835e-09 -0.0271351)
(-1.46189e-08 9.63402e-09 -0.0195099)
(-2.87304e-08 1.27319e-08 -0.0139479)
(-4.36131e-08 1.39332e-08 -0.00992978)
(-5.6221e-08 1.24058e-08 -0.00254032)
(-6.46324e-08 8.16011e-09 0.0133753)
(-6.80345e-08 1.98968e-09 0.0375996)
(-6.58079e-08 -4.77662e-09 0.0625835)
(-5.7575e-08 -1.06004e-08 0.0772335)
(-4.43529e-08 -1.41466e-08 0.0739805)
(-2.89625e-08 -1.46101e-08 0.0534723)
(-1.49258e-08 -1.19976e-08 0.0237938)
(-5.00681e-09 -7.22188e-09 -0.00442681)
(-4.31882e-10 -1.72379e-09 -0.0242701)
(-9.50912e-10 3.15018e-09 -0.0358416)
(-5.24493e-09 6.56651e-09 -0.0441798)
(-1.13572e-08 8.23449e-09 -0.0535637)
(-1.72558e-08 8.25715e-09 -0.0628202)
(-2.15367e-08 6.99035e-09 -0.0658208)
(-2.37967e-08 4.88184e-09 -0.0566107)
(-2.43427e-08 2.30145e-09 -0.0342417)
(-2.35469e-08 -5.24442e-10 -0.00392611)
(-2.14851e-08 -3.43138e-09 0.0252651)
(-1.81471e-08 -6.13735e-09 0.0445758)
(-1.38089e-08 -8.09542e-09 0.0490238)
(-9.11414e-09 -8.63569e-09 0.0388039)
(-4.89903e-09 -7.42556e-09 0.0184571)
(-1.86987e-09 -4.84121e-09 -0.00631182)
(-3.33123e-10 -1.83408e-09 -0.0318816)
(-1.18243e-10 6.29608e-10 -0.0571554)
(-7.17019e-10 2.05082e-09 -0.0810301)
(-1.5578e-09 2.46567e-09 -0.0998127)
(-2.25541e-09 2.20448e-09 -0.107982)
(-2.69088e-09 1.61956e-09 -0.101726)
(-2.91377e-09 9.41183e-10 -0.0815892)
(-2.98866e-09 2.63002e-10 -0.0523291)
(-2.91647e-09 -4.07613e-10 -0.0208634)
(-2.66789e-09 -1.07643e-09 0.00619672)
(-2.24106e-09 -1.69256e-09 0.0238884)
(-1.68152e-09 -2.13426e-09 0.029383)
(-1.06685e-09 -2.27938e-09 0.0220555)
(-4.62524e-10 -2.10777e-09 0.0029281)
(1.16232e-10 -1.73386e-09 -0.0259443)
(7.00392e-10 -1.32977e-09 -0.0612887)
(1.3194e-09 -1.01351e-09 -0.0978179)
(1.95097e-09 -8.0234e-10 -0.128225)
(2.51276e-09 -6.48808e-10 -0.145364)
(2.89785e-09 -5.03045e-10 -0.145425)
(3.02413e-09 -3.46486e-10 -0.129437)
(2.87012e-09 -1.841e-10 -0.102214)
(2.4836e-09 -1.57718e-11 -0.0699896)
(1.95997e-09 1.78138e-10 -0.0383275)
(1.40666e-09 4.15073e-10 -0.0116101)
(9.12635e-10 6.68117e-10 0.00657545)
(5.35856e-10 8.49757e-10 0.0131069)
(3.0679e-10 8.56347e-10 0.00550171)
(2.3471e-10 6.45517e-10 -0.0171489)
(3.08373e-10 2.74381e-10 -0.0527591)
(4.94442e-10 -1.36133e-10 -0.0953252)
(7.41278e-10 -4.72763e-10 -0.135705)
(9.91015e-10 -6.77366e-10 -0.164642)
(1.19432e-09 -7.48869e-10 -0.176403)
(1.3198e-09 -7.18416e-10 -0.170495)
(1.35549e-09 -6.21968e-10 -0.15071)
(1.30541e-09 -4.80512e-10 -0.122686)
(1.18482e-09 -2.91698e-10 -0.0915697)
(1.01445e-09 -4.01832e-11 -0.0611485)
(8.15051e-10 2.73374e-10 -0.0342815)
(6.07168e-10 6.03534e-10 -0.013769)
(4.14524e-10 8.62438e-10 -0.00297442)
(2.64012e-10 9.64074e-10 -0.00546696)
(1.77942e-10 8.77824e-10 -0.0234552)
(1.63892e-10 6.4565e-10 -0.055727)
(2.10368e-10 3.52217e-10 -0.0965087)
(2.91471e-10 7.77185e-11 -0.136682)
(3.77054e-10 -1.31616e-10 -0.167144)
(4.42387e-10 -2.65595e-10 -0.182235)
(4.73656e-10 -3.3586e-10 -0.181036)
(4.69135e-10 -3.62023e-10 -0.166507)
(4.36499e-10 -3.58776e-10 -0.143535)
(3.87006e-10 -3.32667e-10 -0.115385)
(3.3883e-10 -3.34006e-10 -0.0896712)
(2.68449e-10 -1.76748e-10 -0.0443164)
(-1.94653e-18 -7.99712e-20 -0.0419819)
(-3.16494e-17 -1.36253e-19 -0.0410147)
(-6.21361e-17 -1.61457e-19 -0.0409496)
(-9.89486e-17 6.27325e-19 -0.0420958)
(-1.51412e-16 3.77667e-19 -0.0443798)
(-1.47778e-16 -1.55858e-18 -0.0474902)
(-3.00109e-16 2.04654e-17 -0.0509697)
(-4.62523e-16 2.23306e-17 -0.0542851)
(6.0307e-16 -1.08087e-16 -0.0569427)
(8.03815e-16 -1.43475e-16 -0.0585466)
(-2.85228e-15 2.36612e-16 -0.0588454)
(-8.17892e-15 6.1213e-16 -0.0579028)
(-1.03372e-14 3.62777e-16 -0.0558718)
(-6.99535e-15 -2.10775e-16 -0.0530985)
(-1.78298e-15 -4.41389e-16 -0.0500178)
(9.86684e-16 -3.23965e-16 -0.0470501)
(1.57931e-15 -1.69488e-16 -0.0446215)
(1.29178e-15 -8.29555e-17 -0.0430872)
(6.67316e-16 3.84054e-17 -0.0426978)
(-1.08152e-15 1.72788e-16 -0.0435746)
(3.43481e-16 -6.895e-16 -0.0456764)
(4.5531e-15 2.16245e-15 -0.0487959)
(-5.81815e-14 2.108e-14 -0.0525933)
(-2.53118e-14 -8.36003e-14 -0.0566276)
(8.46128e-13 -5.68352e-13 -0.0602908)
(2.07748e-12 -8.80768e-13 -0.0627018)
(3.60393e-12 -2.03053e-13 -0.0628995)
(4.32068e-12 6.76749e-13 -0.0603947)
(2.58309e-12 7.0848e-13 -0.0556267)
(6.73681e-13 3.12171e-13 -0.0497091)
(-2.84671e-13 9.48362e-14 -0.043907)
(-3.49338e-13 -1.63081e-13 -0.0393225)
(1.90873e-12 -6.63614e-13 -0.0366959)
(2.97838e-12 1.49823e-12 -0.0363649)
(-1.99696e-11 1.14534e-11 -0.0384182)
(-6.37761e-11 4.26023e-12 -0.0429859)
(7.77883e-11 -1.42997e-10 -0.0505192)
(8.51721e-10 -5.70648e-10 -0.0616269)
(2.29658e-09 -1.05888e-09 -0.0754242)
(3.84769e-09 -9.81864e-10 -0.088185)
(4.97316e-09 -1.27422e-10 -0.0947314)
(4.97511e-09 8.00795e-10 -0.0913923)
(3.54109e-09 1.0501e-09 -0.0792609)
(1.71157e-09 7.11741e-10 -0.0638736)
(4.41256e-10 3.00139e-10 -0.0500774)
(-1.22217e-10 6.25799e-11 -0.0401194)
(-1.8343e-10 -4.61232e-11 -0.0345305)
(1.58856e-10 -1.27515e-10 -0.0332875)
(7.03859e-10 -8.13768e-12 -0.0361805)
(-5.5985e-10 1.12607e-09 -0.0408372)
(-9.52546e-09 4.50405e-09 -0.0396115)
(-3.41215e-08 1.01529e-08 -0.0212203)
(-7.58502e-08 1.48565e-08 0.0187303)
(-1.22686e-07 1.34919e-08 0.0688486)
(-1.53563e-07 4.52618e-09 0.106181)
(-1.5198e-07 -6.98454e-09 0.11051)
(-1.18557e-07 -1.39458e-08 0.0793985)
(-7.13265e-08 -1.3821e-08 0.0310657)
(-3.08134e-08 -9.30619e-09 -0.0109708)
(-6.72157e-09 -4.39676e-09 -0.034274)
(2.75336e-09 -1.28446e-09 -0.0406489)
(3.98242e-09 3.99497e-10 -0.0385846)
(5.67323e-10 2.80241e-09 -0.0340488)
(-9.32062e-09 8.218e-09 -0.0274231)
(-2.96491e-08 1.70007e-08 -0.0167929)
(-6.01692e-08 2.62099e-08 -0.00179287)
(-9.38876e-08 3.08189e-08 0.0178101)
(-1.22377e-07 2.70032e-08 0.0462363)
(-1.41435e-07 1.44624e-08 0.0869683)
(-1.49276e-07 -3.38014e-09 0.131842)
(-1.42316e-07 -2.04125e-08 0.160306)
(-1.17932e-07 -3.04995e-08 0.154105)
(-8.09565e-08 -3.10375e-08 0.11313)
(-4.28358e-08 -2.40418e-08 0.0555225)
(-1.41314e-08 -1.39257e-08 0.00406392)
(5.93826e-10 -4.24563e-09 -0.0273157)
(2.04771e-09 3.97026e-09 -0.0387053)
(-6.87246e-09 1.12144e-08 -0.040957)
(-2.231e-08 1.7422e-08 -0.0472824)
(-3.91452e-08 2.12394e-08 -0.0631585)
(-5.2201e-08 2.12863e-08 -0.0800909)
(-5.91561e-08 1.75275e-08 -0.0804763)
(-6.17075e-08 1.09703e-08 -0.0518931)
(-6.30975e-08 2.54923e-09 0.00236245)
(-6.42121e-08 -6.93704e-09 0.0645323)
(-6.22995e-08 -1.59417e-08 0.11169)
(-5.40834e-08 -2.20833e-08 0.127154)
(-3.97028e-08 -2.33735e-08 0.108359)
(-2.30793e-08 -1.94792e-08 0.0666906)
(-9.40625e-09 -1.19009e-08 0.0194734)
(-2.26482e-09 -3.107e-09 -0.0214922)
(-2.23589e-09 4.58194e-09 -0.0560306)
(-7.16473e-09 9.66069e-09 -0.0906077)
(-1.35347e-08 1.16144e-08 -0.126715)
(-1.83233e-08 1.0858e-08 -0.154501)
(-2.03575e-08 8.4276e-09 -0.159244)
(-2.03568e-08 5.3759e-09 -0.133533)
(-1.98443e-08 2.23014e-09 -0.0825743)
(-1.97904e-08 -1.04199e-09 -0.0201466)
(-1.98866e-08 -4.55662e-09 0.0379196)
(-1.90012e-08 -8.00245e-09 0.0783872)
(-1.62931e-08 -1.05479e-08 0.093379)
(-1.19482e-08 -1.1235e-08 0.082105)
(-7.1169e-09 -9.63453e-09 0.0500348)
(-3.1713e-09 -6.2762e-09 0.00466433)
(-8.95773e-10 -2.41999e-09 -0.048526)
(-1.7272e-10 6.75655e-10 -0.105236)
(-2.85802e-10 2.38015e-09 -0.157752)
(-5.15481e-10 2.79432e-09 -0.193538)
(-5.46843e-10 2.41973e-09 -0.201214)
(-4.7678e-10 1.74977e-09 -0.178161)
(-5.6132e-10 1.04793e-09 -0.131834)
(-9.39906e-10 3.54713e-10 -0.0746749)
(-1.50554e-09 -3.79271e-10 -0.0185653)
(-1.9936e-09 -1.16358e-09 0.0275298)
(-2.16437e-09 -1.90876e-09 0.0572177)
(-1.93179e-09 -2.44836e-09 0.0662702)
(-1.37385e-09 -2.63974e-09 0.0526425)
(-6.33445e-10 -2.47747e-09 0.0165105)
(1.9128e-10 -2.10776e-09 -0.0391409)
(1.07139e-09 -1.71939e-09 -0.106728)
(1.98679e-09 -1.41567e-09 -0.172837)
(2.86952e-09 -1.18166e-09 -0.221004)
(3.61231e-09 -9.47394e-10 -0.238934)
(4.11214e-09 -6.65249e-10 -0.224512)
(4.29782e-09 -3.41403e-10 -0.185442)
(4.1403e-09 -1.7505e-11 -0.133637)
(3.66562e-09 2.71506e-10 -0.0796294)
(2.9629e-09 5.24404e-10 -0.0304998)
(2.16538e-09 7.57179e-10 0.00886386)
(1.41168e-09 9.55987e-10 0.0338759)
(8.14686e-10 1.05118e-09 0.0393418)
(4.46712e-10 9.55986e-10 0.0204323)
(3.32206e-10 6.44246e-10 -0.0243547)
(4.43854e-10 1.89548e-10 -0.089534)
(7.09966e-10 -2.73426e-10 -0.161254)
(1.0378e-09 -6.25555e-10 -0.221053)
(1.34369e-09 -8.12905e-10 -0.253898)
(1.57382e-09 -8.45412e-10 -0.254848)
(1.70746e-09 -7.66096e-10 -0.229431)
(1.74607e-09 -6.19698e-10 -0.188452)
(1.69873e-09 -4.3275e-10 -0.141989)
(1.5745e-09 -2.06612e-10 -0.096395)
(1.38205e-09 7.20449e-11 -0.0549519)
(1.13276e-09 4.01139e-10 -0.0200138)
(8.48917e-10 7.32277e-10 0.00478648)
(5.70463e-10 9.74062e-10 0.0136722)
(3.49113e-10 1.04069e-09 0.000328617)
(2.27549e-10 9.08807e-10 -0.0380321)
(2.18551e-10 6.32746e-10 -0.096362)
(3.00068e-10 3.08716e-10 -0.160909)
(4.28028e-10 2.26307e-11 -0.214027)
(5.55513e-10 -1.80437e-10 -0.242134)
(6.47292e-10 -2.96169e-10 -0.241298)
(6.85998e-10 -3.43786e-10 -0.216834)
(6.71941e-10 -3.49672e-10 -0.178739)
(6.1836e-10 -3.32368e-10 -0.136878)
(5.42546e-10 -3.01584e-10 -0.0951225)
(4.71243e-10 -2.96241e-10 -0.0621865)
(3.68674e-10 -1.54242e-10 -0.0080746)
(-7.32019e-17 9.12885e-18 -0.0582369)
(-2.68671e-16 1.55458e-17 -0.0568367)
(-2.4556e-16 1.78278e-17 -0.056717)
(-3.3455e-16 2.63597e-17 -0.0583219)
(-3.49037e-16 5.03783e-18 -0.0615485)
(-2.75803e-16 6.07014e-17 -0.0659548)
(-1.44722e-15 1.40249e-16 -0.0708922)
(1.79707e-15 -4.38854e-16 -0.0756025)
(5.13256e-15 1.137e-15 -0.0793877)
(-1.45485e-14 1.71984e-15 -0.0816794)
(-3.57815e-14 9.88311e-16 -0.0821082)
(-8.76417e-15 5.47789e-15 -0.0807901)
(4.7717e-14 -5.59454e-16 -0.0779276)
(7.15853e-14 -4.26026e-15 -0.0740061)
(5.3644e-14 -4.00122e-15 -0.069548)
(2.74169e-14 -1.70768e-15 -0.0651328)
(8.71221e-15 -1.83737e-16 -0.0614132)
(-4.93206e-16 4.25443e-16 -0.0589507)
(-7.17331e-15 1.16567e-15 -0.0581713)
(-8.76865e-15 1.72626e-16 -0.0593388)
(1.0351e-14 -2.80965e-15 -0.062475)
(-1.64262e-13 2.92739e-14 -0.0672993)
(9.43586e-14 1.57496e-14 -0.0732412)
(3.60662e-12 -4.52276e-13 -0.0795308)
(-1.10989e-11 -1.06249e-12 -0.0851803)
(-8.64537e-11 -1.39695e-12 -0.0888348)
(-1.55674e-10 -1.12333e-12 -0.0892027)
(-1.21724e-10 5.24595e-13 -0.0856957)
(-4.46207e-11 1.83439e-12 -0.0787365)
(-5.32075e-12 1.43803e-12 -0.0696077)
(1.76868e-12 5.19882e-13 -0.0600859)
(2.24352e-12 -1.10343e-12 -0.0520464)
(5.41401e-12 -1.73925e-12 -0.0470619)
(-1.34161e-11 1.09998e-11 -0.0460878)
(-4.71881e-11 3.45099e-11 -0.0495756)
(1.46154e-10 -4.76193e-11 -0.0580509)
(5.05687e-10 -4.70036e-10 -0.0714043)
(-1.7366e-09 -1.16764e-09 -0.0849269)
(-1.20452e-08 -1.61281e-09 -0.0886996)
(-2.87464e-08 -1.44363e-09 -0.0814064)
(-3.81247e-08 -5.71026e-10 -0.0771381)
(-3.0989e-08 8.05367e-10 -0.0839185)
(-1.54356e-08 1.73983e-09 -0.090589)
(-3.79614e-09 1.62004e-09 -0.0857164)
(5.76405e-10 9.4523e-10 -0.0706622)
(7.40505e-10 3.18091e-10 -0.0537204)
(2.16794e-10 -1.44644e-10 -0.0421942)
(7.04933e-10 -4.58803e-10 -0.0394917)
(1.26173e-09 3.5296e-10 -0.0443548)
(-4.41537e-09 5.24232e-09 -0.0478214)
(-2.84078e-08 1.73322e-08 -0.0329878)
(-7.89698e-08 3.44679e-08 0.0137628)
(-1.47471e-07 4.62715e-08 0.088764)
(-2.12638e-07 4.07098e-08 0.175672)
(-2.55574e-07 1.52973e-08 0.253113)
(-2.62549e-07 -1.83946e-08 0.290706)
(-2.25474e-07 -4.21619e-08 0.261362)
(-1.54503e-07 -4.57358e-08 0.172423)
(-7.87406e-08 -3.35787e-08 0.0677859)
(-2.41467e-08 -1.73977e-08 -0.00914318)
(2.29397e-09 -5.5722e-09 -0.0443598)
(8.0222e-09 1.15236e-09 -0.0494588)
(9.31182e-10 7.50272e-09 -0.0416277)
(-1.73261e-08 1.80401e-08 -0.0329412)
(-4.57745e-08 3.20031e-08 -0.0323269)
(-7.62642e-08 4.29871e-08 -0.0438932)
(-9.67782e-08 4.46998e-08 -0.0551249)
(-1.03414e-07 3.62001e-08 -0.0371691)
(-1.04454e-07 2.01463e-08 0.0285741)
(-1.10234e-07 -1.24955e-09 0.126577)
(-1.19581e-07 -2.49573e-08 0.213385)
(-1.18987e-07 -4.39926e-08 0.246044)
(-9.81335e-08 -5.06788e-08 0.210932)
(-6.22587e-08 -4.33692e-08 0.130965)
(-2.66073e-08 -2.73776e-08 0.0459591)
(-4.20225e-09 -9.65066e-09 -0.0144662)
(4.51451e-10 5.8732e-09 -0.0466913)
(-9.39105e-09 1.80272e-08 -0.069956)
(-2.56098e-08 2.57704e-08 -0.106762)
(-3.87922e-08 2.76774e-08 -0.158614)
(-4.29329e-08 2.39386e-08 -0.198058)
(-3.85036e-08 1.7159e-08 -0.190235)
(-3.12276e-08 1.01308e-08 -0.123794)
(-2.79152e-08 3.24198e-09 -0.0191015)
(-3.17961e-08 -5.17566e-09 0.088254)
(-3.96459e-08 -1.56647e-08 0.16624)
(-4.39508e-08 -2.5445e-08 0.195865)
(-3.94017e-08 -3.01122e-08 0.175156)
(-2.72603e-08 -2.71458e-08 0.118763)
(-1.38341e-08 -1.76291e-08 0.0486396)
(-5.37816e-09 -5.30898e-09 -0.0207943)
(-4.04902e-09 5.60013e-09 -0.0896374)
(-7.44e-09 1.22159e-08 -0.162135)
(-1.121e-08 1.38138e-08 -0.228982)
(-1.23546e-08 1.16686e-08 -0.264743)
(-1.06236e-08 8.00712e-09 -0.247384)
(-7.74091e-09 4.62524e-09 -0.178134)
(-5.88697e-09 2.01823e-09 -0.0804937)
(-6.44263e-09 -5.03309e-10 0.0168316)
(-9.15425e-09 -3.82599e-09 0.0936801)
(-1.21752e-08 -7.93411e-09 0.140016)
(-1.33166e-08 -1.16219e-08 0.152082)
(-1.165e-08 -1.32238e-08 0.130955)
(-8.04874e-09 -1.1814e-08 0.0816619)
(-4.28587e-09 -7.95178e-09 0.0104345)
(-1.63349e-09 -3.33337e-09 -0.0766799)
(-2.03242e-10 3.24623e-10 -0.169337)
(6.31633e-10 2.2222e-09 -0.247375)
(1.43387e-09 2.59619e-09 -0.285587)
(2.31184e-09 2.18513e-09 -0.269431)
(3.02426e-09 1.6268e-09 -0.205961)
(3.23304e-09 1.17275e-09 -0.118654)
(2.72402e-09 7.35112e-10 -0.0322637)
(1.57766e-09 1.19235e-10 0.038034)
(1.90202e-10 -7.4701e-10 0.0867162)
(-9.28009e-10 -1.72347e-09 0.112108)
(-1.43598e-09 -2.52952e-09 0.112122)
(-1.29222e-09 -2.92856e-09 0.0835105)
(-6.63169e-10 -2.89034e-09 0.0241334)
(2.50465e-10 -2.58628e-09 -0.0625269)
(1.2945e-09 -2.22752e-09 -0.16226)
(2.33416e-09 -1.91257e-09 -0.249706)
(3.2382e-09 -1.6151e-09 -0.297746)
(3.91962e-09 -1.27012e-09 -0.292532)
(4.3583e-09 -8.45799e-10 -0.241147)
(4.55935e-09 -3.60564e-10 -0.165338)
(4.50083e-09 1.32e-10 -0.0877367)
(4.14288e-09 5.72928e-10 -0.0219269)
(3.49347e-09 9.28262e-10 0.0280872)
(2.64741e-09 1.19068e-09 0.0622323)
(1.76581e-09 1.34346e-09 0.0785886)
(1.02294e-09 1.33224e-09 0.0710686)
(5.51351e-10 1.09759e-09 0.0322358)
(4.01982e-10 6.46946e-10 -0.0396375)
(5.32862e-10 8.55015e-11 -0.133367)
(8.349e-10 -4.33108e-10 -0.224126)
(1.18215e-09 -7.89625e-10 -0.283302)
(1.47775e-09 -9.45372e-10 -0.293781)
(1.67429e-09 -9.30754e-10 -0.258566)
(1.76851e-09 -8.04541e-10 -0.196378)
(1.78146e-09 -6.17604e-10 -0.129161)
(1.73485e-09 -3.94727e-10 -0.0713334)
(1.63485e-09 -1.33358e-10 -0.0269729)
(1.47151e-09 1.80685e-10 0.00614758)
(1.23404e-09 5.3994e-10 0.0304772)
(9.34313e-10 8.84685e-10 0.0437879)
(6.2155e-10 1.11234e-09 0.0382106)
(3.69651e-10 1.13553e-09 0.00462558)
(2.40093e-10 9.43105e-10 -0.0588915)
(2.49711e-10 6.09391e-10 -0.140059)
(3.66605e-10 2.4748e-10 -0.213869)
(5.31663e-10 -5.00043e-11 -0.254321)
(6.85965e-10 -2.41248e-10 -0.248304)
(7.8878e-10 -3.30835e-10 -0.201224)
(8.23045e-10 -3.48185e-10 -0.131448)
(7.92756e-10 -3.28206e-10 -0.059538)
(7.16251e-10 -2.94081e-10 -0.000634949)
(6.15678e-10 -2.59108e-10 0.0434308)
(5.24108e-10 -2.47069e-10 0.0669633)
(3.96116e-10 -1.25463e-10 0.0996482)
(9.00997e-17 1.90558e-15 -0.0738978)
(3.14241e-16 1.82077e-15 -0.0720201)
(3.03125e-16 3.27781e-17 -0.0718187)
(2.40517e-16 1.78709e-15 -0.0738813)
(1.29433e-15 1.70573e-15 -0.0780735)
(-1.74387e-15 2.28225e-15 -0.0838152)
(1.61738e-15 -1.01597e-15 -0.0902554)
(1.86169e-14 -3.24045e-15 -0.0964001)
(-3.76802e-14 8.06468e-15 -0.101343)
(-9.62188e-14 1.85246e-14 -0.104331)
(6.43829e-14 -2.62843e-15 -0.10486)
(4.99598e-13 -4.111e-14 -0.103142)
(9.65567e-13 -3.98391e-14 -0.0993864)
(1.01037e-12 -3.17427e-15 -0.0942177)
(6.08398e-13 2.16428e-14 -0.0883906)
(2.26383e-13 2.56114e-14 -0.0826164)
(1.16588e-14 1.7255e-14 -0.0777299)
(-6.92453e-14 7.8598e-15 -0.0744588)
(-9.67007e-14 5.91085e-15 -0.0733539)
(-7.08388e-15 -6.85465e-15 -0.0747838)
(-1.3988e-13 7.7057e-14 -0.0788106)
(-1.25101e-12 -3.98413e-14 -0.085109)
(5.09721e-12 -1.86436e-12 -0.0930003)
(1.29529e-11 5.51303e-12 -0.101427)
(-9.01023e-11 4.44618e-11 -0.108936)
(-3.65936e-10 7.14051e-11 -0.113877)
(-6.48876e-10 1.74322e-11 -0.114449)
(-6.46784e-10 -5.485e-11 -0.109765)
(-3.45098e-10 -5.74932e-11 -0.100753)
(-8.80719e-11 -2.28825e-11 -0.0889585)
(7.65504e-12 -3.68901e-12 -0.076356)
(2.33063e-11 -1.98744e-12 -0.0653628)
(-4.86569e-12 7.16617e-12 -0.0582374)
(-9.59437e-11 2.77975e-11 -0.0565416)
(1.79714e-10 -6.83337e-11 -0.0618518)
(1.46345e-09 -2.72179e-10 -0.0757653)
(-5.37368e-10 7.9838e-10 -0.091301)
(-2.21388e-08 5.7048e-09 -0.0798528)
(-7.97036e-08 1.2446e-08 -0.0107528)
(-1.57746e-07 1.20579e-08 0.0951009)
(-2.0649e-07 9.93886e-10 0.161977)
(-1.87807e-07 -1.05438e-08 0.134841)
(-1.1787e-07 -1.25463e-08 0.0418019)
(-4.77268e-08 -7.29425e-09 -0.0425585)
(-8.19927e-09 -1.96818e-09 -0.0774032)
(3.59332e-09 2.42383e-10 -0.0724682)
(3.55086e-09 -2.83386e-11 -0.0566529)
(2.70756e-09 -6.49984e-10 -0.0495882)
(5.24668e-10 2.55201e-09 -0.0513228)
(-1.53085e-08 1.59609e-08 -0.0455056)
(-5.81798e-08 4.17813e-08 -0.0166193)
(-1.21844e-07 6.96845e-08 0.030807)
(-1.78657e-07 8.16904e-08 0.0857226)
(-2.1119e-07 6.75432e-08 0.162448)
(-2.30622e-07 2.9482e-08 0.278194)
(-2.49884e-07 -2.20345e-08 0.399134)
(-2.52827e-07 -6.79687e-08 0.447498)
(-2.12571e-07 -8.71876e-08 0.375867)
(-1.35086e-07 -7.44846e-08 0.220824)
(-5.67458e-08 -4.49141e-08 0.066549)
(-6.73447e-09 -1.73689e-08 -0.0285867)
(9.81464e-09 1.08089e-09 -0.059676)
(7.80639e-10 1.54766e-08 -0.0558197)
(-2.46936e-08 3.15708e-08 -0.0556725)
(-5.46391e-08 4.64697e-08 -0.0908017)
(-7.27842e-08 5.17118e-08 -0.160648)
(-6.89372e-08 4.4394e-08 -0.214681)
(-4.84812e-08 3.08413e-08 -0.18638)
(-2.84087e-08 1.7872e-08 -0.0570333)
(-2.58541e-08 4.18299e-09 0.125538)
(-4.57154e-08 -1.60357e-08 0.285069)
(-7.31956e-08 -4.12231e-08 0.361494)
(-8.42874e-08 -5.94017e-08 0.335197)
(-6.88071e-08 -5.98049e-08 0.232669)
(-3.81808e-08 -4.29539e-08 0.108419)
(-1.23967e-08 -1.7775e-08 0.00834446)
(-3.89757e-09 6.56466e-09 -0.059526)
(-1.14487e-08 2.42451e-08 -0.122804)
(-2.41117e-08 3.21226e-08 -0.207929)
(-3.03858e-08 2.9901e-08 -0.299062)
(-2.58679e-08 2.1142e-08 -0.339397)
(-1.39582e-08 1.16748e-08 -0.281951)
(-1.37947e-09 5.67608e-09 -0.134516)
(5.51144e-09 2.83351e-09 0.047098)
(2.57031e-09 -1.07169e-09 0.201162)
(-9.43727e-09 -9.86437e-09 0.291646)
(-2.32735e-08 -2.22053e-08 0.310259)
(-2.98595e-08 -3.17188e-08 0.266633)
(-2.60245e-08 -3.2263e-08 0.182037)
(-1.65068e-08 -2.28419e-08 0.0798252)
(-8.6653e-09 -7.99954e-09 -0.0278645)
(-6.02354e-09 5.61286e-09 -0.142372)
(-6.69553e-09 1.32412e-08 -0.259494)
(-6.83853e-09 1.40716e-08 -0.349322)
(-4.51851e-09 1.05648e-08 -0.367099)
(-4.30536e-10 6.12079e-09 -0.290781)
(3.64145e-09 3.00757e-09 -0.143574)
(6.04054e-09 1.581e-09 0.0211193)
(5.56908e-09 5.91658e-10 0.154217)
(1.979e-09 -1.69034e-09 0.233246)
(-3.2954e-09 -5.92128e-09 0.259403)
(-7.6083e-09 -1.08105e-08 0.242763)
(-8.98924e-09 -1.38689e-08 0.192236)
(-7.50993e-09 -1.33166e-08 0.112651)
(-4.75947e-09 -9.48383e-09 0.00617835)
(-2.20499e-09 -4.4613e-09 -0.121396)
(-2.62071e-10 -4.56908e-10 -0.249731)
(1.32685e-09 1.5616e-09 -0.340589)
(2.77879e-09 1.95422e-09 -0.355521)
(4.06469e-09 1.62453e-09 -0.283779)
(5.04555e-09 1.28917e-09 -0.152337)
(5.53186e-09 1.19805e-09 -0.00874474)
(5.2855e-09 1.1824e-09 0.106648)
(4.18233e-09 8.87635e-10 0.177037)
(2.46617e-09 8.92583e-11 0.205834)
(7.20077e-10 -1.09566e-09 0.203064)
(-4.74452e-10 -2.26625e-09 0.173867)
(-8.48444e-10 -3.02614e-09 0.115347)
(-4.80135e-10 -3.24881e-09 0.0224936)
(3.70993e-10 -3.08659e-09 -0.100175)
(1.40952e-09 -2.76123e-09 -0.228608)
(2.36721e-09 -2.38752e-09 -0.322189)
(3.06924e-09 -1.97439e-09 -0.344362)
(3.49274e-09 -1.50744e-09 -0.286516)
(3.73557e-09 -9.85116e-10 -0.173587)
(3.89976e-09 -4.12666e-10 -0.0476446)
(3.98436e-09 1.90732e-10 0.0557366)
(3.88048e-09 7.75184e-10 0.121399)
(3.47761e-09 1.27214e-09 0.152554)
(2.77599e-09 1.62101e-09 0.15926)
(1.91819e-09 1.76822e-09 0.146538)
(1.12887e-09 1.6584e-09 0.109427)
(6.09047e-10 1.26647e-09 0.0385185)
(4.47011e-10 6.5349e-10 -0.0666692)
(5.94392e-10 -2.69104e-11 -0.185949)
(9.14058e-10 -5.98066e-10 -0.280656)
(1.25823e-09 -9.46981e-10 -0.313475)
(1.5257e-09 -1.05898e-09 -0.271733)
(1.67681e-09 -9.90791e-10 -0.174539)
(1.72e-09 -8.19679e-10 -0.0597169)
(1.68941e-09 -6.02865e-10 0.037416)
(1.62031e-09 -3.59446e-10 0.0988703)
(1.52501e-09 -7.49431e-11 0.125683)
(1.38489e-09 2.72448e-10 0.129773)
(1.17018e-09 6.6974e-10 0.122439)