/*--------------------------------*- C++ -*----------------------------------*\
  =========                 |
  \\      /  F ield         | OpenFOAM: The Open Source CFD Toolbox
   \\    /   O peration     | Website:  https://openfoam.org
    \\  /    A nd           | Version:  11
     \\/     M anipulation  |
\*---------------------------------------------------------------------------*/
FoamFile
{
    format      ascii;
    class       surfaceScalarField;
    location    "5.012657";
    object      phi;
}
// * * * * * * * * * * * * * * * * * * * * * * * * * * * * * * * * * * * * * //

dimensions      [0 3 -1 0 0 0 0];

internalField   nonuniform List<scalar> 
14638
(
0.00250289
-2.88679e-06
0.0025116
-8.71164e-06
0.0025265
-1.48974e-05
0.00254806
-2.1569e-05
0.00257683
-2.8763e-05
0.00261311
-3.62833e-05
0.00265685
-4.37401e-05
0.0027072
-5.0351e-05
0.00276248
-5.52759e-05
0.00282009
-5.76069e-05
0.00287692
-5.6831e-05
0.00293054
-5.36269e-05
0.00297914
-4.86016e-05
0.0030215
-4.23565e-05
0.00305691
-3.54135e-05
0.003085
-2.8085e-05
0.00310554
-2.05378e-05
0.00311837
-1.28298e-05
0.00312334
-4.97386e-06
0.00312035
2.99488e-06
0.00310939
1.09602e-05
0.00309069
1.86926e-05
0.00306484
2.58576e-05
0.00303277
3.20661e-05
0.00299582
3.69533e-05
0.00295555
4.02614e-05
0.00291366
4.18955e-05
0.00287173
4.19344e-05
0.00283112
4.06005e-05
0.00279292
3.82048e-05
0.00275783
3.50891e-05
0.00272625
3.15777e-05
0.00269831
2.79459e-05
0.0026739
2.44051e-05
0.0026528
2.11013e-05
0.00263468
1.81211e-05
0.00261918
1.55035e-05
0.00260592
1.32515e-05
0.00259458
1.13444e-05
0.00258483
9.74727e-06
0.00257641
8.41854e-06
0.0025691
7.31589e-06
0.0025627
6.39969e-06
0.00255706
5.63508e-06
0.00255207
4.99289e-06
0.00254762
4.44967e-06
0.00254363
3.98716e-06
0.00254004
3.59155e-06
0.00253679
3.25253e-06
0.00253383
2.96235e-06
0.00253111
2.71505e-06
0.00252861
2.50573e-06
0.00252628
2.33003e-06
0.00252409
2.18382e-06
0.00252203
2.06299e-06
0.00252007
1.96348e-06
0.00251819
1.88132e-06
0.00251637
1.81278e-06
0.00251462
1.75449e-06
0.00251291
1.70363e-06
0.00251126
1.65792e-06
0.00250964
1.61565e-06
0.00250806
1.57563e-06
0.00250653
1.53709e-06
0.00250503
1.49956e-06
0.00250357
1.4628e-06
0.00250214
1.42668e-06
0.00250075
1.39115e-06
0.00249939
1.35618e-06
0.00249807
1.32167e-06
0.00249678
1.28742e-06
0.00249553
1.25301e-06
0.00249431
1.21774e-06
0.00249313
1.18068e-06
0.00249199
1.14078e-06
0.00249089
1.09714e-06
0.00248984
1.04914e-06
0.00248885
9.9641e-07
0.00248791
9.38051e-07
0.00248704
8.71214e-07
0.00248625
7.89143e-07
0.00248557
6.79566e-07
0.00248504
5.24703e-07
0.00248474
3.04142e-07
0.00248474
1.06638e-09
0.00248513
-3.89144e-07
0.00248598
-8.50525e-07
0.00248732
-1.34198e-06
0.00248912
-1.79988e-06
0.00249127
-2.14903e-06
0.00249359
-2.32032e-06
0.00249586
-2.27013e-06
0.00249786
-1.99515e-06
0.00249939
-1.53695e-06
0.00250037
-9.74047e-07
0.00250077
-4.03244e-07
0.00250069
8.37926e-08
0.00250026
4.21538e-07
0.00249968
5.82938e-07
0.0024991
5.80254e-07
0.00249865
4.55648e-07
0.00249838
2.65802e-07
0.00249831
6.60088e-08
0.00249842
-1.01765e-07
0.00249863
-2.14523e-07
0.0024989
-2.67714e-07
0.00249917
-2.70416e-07
0.00249941
-2.38793e-07
0.0024996
-1.90076e-07
0.00249974
-1.38435e-07
0.00249983
-9.31037e-08
0.00249989
-5.83797e-08
0.00249992
-3.47546e-08
0.00249994
-2.04385e-08
0.00249996
-1.27432e-08
0.00249996
-9.05838e-09
0.00249997
-7.36909e-09
0.00249998
-6.40012e-09
0.00249998
-5.52177e-09
0.00249999
-4.54833e-09
0.00249999
-3.52762e-09
0.00249999
-2.5785e-09
0.0025
-1.79591e-09
0.0025
-1.21658e-09
0.0025
-8.24862e-10
0.0025
-5.76187e-10
0.0025
-4.2067e-10
0.0025
-3.18219e-10
0.0025
-2.43582e-10
0.0025
-1.84355e-10
0.0025
-1.36084e-10
0.0025
-9.76499e-11
0.0025
-6.84213e-11
0.0025
-4.71943e-11
0.0025
-3.22557e-11
0.0025
-2.1836e-11
0.0025
-1.4472e-11
0.0025
-9.14309e-12
0.0025
-5.21172e-12
0.0025
-2.29948e-12
0.0025
-1.62864e-13
0.0025
1.37429e-12
0.0025
2.45775e-12
0.0025
3.20457e-12
0.0025
3.70944e-12
0.0025
4.03996e-12
0.0025
4.24703e-12
0.0025
4.36346e-12
0.0025
4.41574e-12
0.0025
4.4194e-12
0.0025
4.39095e-12
0.0025
4.33535e-12
0.0025
4.26888e-12
0.0025
4.18014e-12
0.0025
4.10844e-12
0.0025
3.98287e-12
0.0025
3.9694e-12
0.0025
3.71705e-12
0.0025
4.00064e-12
3.28448e-12
0.00250286
-5.74699e-06
0.0025115
-1.73495e-05
0.00252629
-2.96892e-05
0.00254776
-4.30363e-05
0.00257647
-5.74766e-05
0.00261282
-7.26305e-05
0.0026568
-8.7724e-05
0.00270761
-0.000101155
0.00276353
-0.000111203
0.00282187
-0.000115941
0.00287933
-0.000114292
0.00293344
-0.000107739
0.00298238
-9.75397e-05
0.00302495
-8.49251e-05
0.00306049
-7.09544e-05
0.00308865
-5.62483e-05
0.00310924
-4.11304e-05
0.00312212
-2.57014e-05
0.00312711
-9.97182e-06
0.00312411
6.00125e-06
0.00311308
2.19922e-05
0.00309423
3.75396e-05
0.00306812
5.19632e-05
0.00303572
6.44671e-05
0.00299837
7.43033e-05
0.00295769
8.09437e-05
0.00291539
8.41955e-05
0.0028731
8.42229e-05
0.00283222
8.14823e-05
0.00279381
7.66094e-05
0.0027586
7.02993e-05
0.00272697
6.32083e-05
0.00269903
5.58913e-05
0.00267466
4.8772e-05
0.00265362
4.21407e-05
0.00263557
3.61686e-05
0.00262015
3.09304e-05
0.00260697
2.64299e-05
0.00259569
2.2623e-05
0.002586
1.94378e-05
0.00257763
1.67901e-05
0.00257035
1.45941e-05
0.00256398
1.277e-05
0.00255837
1.12479e-05
0.00255339
9.96923e-06
0.00254895
8.88728e-06
0.00254497
7.96568e-06
0.00254139
7.177e-06
0.00253814
6.50081e-06
0.00253518
5.92187e-06
0.00253247
5.4284e-06
0.00252996
5.01073e-06
0.00252763
4.66025e-06
0.00252545
4.36875e-06
0.00252338
4.12805e-06
0.00252142
3.93e-06
0.00251953
3.76664e-06
0.00251771
3.63047e-06
0.00251595
3.51475e-06
0.00251424
3.41378e-06
0.00251258
3.32301e-06
0.00251095
3.23904e-06
0.00250937
3.1595e-06
0.00250782
3.08287e-06
0.00250632
3.00825e-06
0.00250484
2.93515e-06
0.00250341
2.86336e-06
0.00250201
2.7928e-06
0.00250064
2.72339e-06
0.0024993
2.655e-06
0.00249801
2.58722e-06
0.00249674
2.51924e-06
0.00249551
2.4497e-06
0.00249431
2.37674e-06
0.00249315
2.29827e-06
0.00249204
2.21242e-06
0.00249097
2.11792e-06
0.00248995
2.01396e-06
0.00248899
1.89876e-06
0.0024881
1.76681e-06
0.00248728
1.60499e-06
0.00248657
1.38933e-06
0.00248601
1.08495e-06
0.00248566
6.51542e-07
0.00248561
5.5516e-08
0.00248593
-7.12992e-07
0.0024867
-1.62342e-06
0.00248796
-2.59547e-06
0.00248966
-3.50389e-06
0.00249171
-4.19986e-06
0.00249394
-4.54583e-06
0.00249612
-4.45414e-06
0.00249804
-3.91671e-06
0.00249952
-3.01467e-06
0.00250045
-1.90291e-06
0.00250082
-7.73426e-07
0.00250071
1.91277e-07
0.00250027
8.60125e-07
0.00249968
1.17834e-06
0.00249909
1.16951e-06
0.00249863
9.17193e-07
0.00249836
5.34348e-07
0.00249829
1.31617e-07
0.0024984
-2.06689e-07
0.00249862
-4.34122e-07
0.00249889
-5.41272e-07
0.00249917
-5.4628e-07
0.00249941
-4.81742e-07
0.0024996
-3.82572e-07
0.00249974
-2.77583e-07
0.00249984
-1.85602e-07
0.00249989
-1.15393e-07
0.00249993
-6.79235e-08
0.00249994
-3.94696e-08
0.00249996
-2.44616e-08
0.00249996
-1.75057e-08
0.00249997
-1.44598e-08
0.00249998
-1.27299e-08
0.00249998
-1.10662e-08
0.00249999
-9.13427e-09
0.00249999
-7.07098e-09
0.00249999
-5.14501e-09
0.0025
-3.56212e-09
0.0025
-2.3991e-09
0.0025
-1.62089e-09
0.0025
-1.13263e-09
0.0025
-8.30132e-10
0.0025
-6.31128e-10
0.0025
-4.84965e-10
0.0025
-3.67687e-10
0.0025
-2.71381e-10
0.0025
-1.94525e-10
0.0025
-1.3617e-10
0.0025
-9.39538e-11
0.0025
-6.43675e-11
0.0025
-4.37924e-11
0.0025
-2.92547e-11
0.0025
-1.87158e-11
0.0025
-1.09164e-11
0.0025
-5.12644e-12
0.0025
-8.70911e-13
0.0025
2.1907e-12
0.0025
4.3514e-12
0.0025
5.84106e-12
0.0025
6.85291e-12
0.0025
7.51769e-12
0.0025
7.94026e-12
0.0025
8.18145e-12
0.0025
8.29749e-12
0.0025
8.31506e-12
0.0025
8.27078e-12
0.0025
8.17067e-12
0.0025
8.05063e-12
0.0025
7.885e-12
0.0025
7.75296e-12
0.0025
7.51667e-12
0.0025
7.49066e-12
0.0025
7.02072e-12
0.0025
7.53393e-12
6.22905e-12
0.00250281
-8.55352e-06
0.00251129
-2.58322e-05
0.00252586
-4.42623e-05
0.00254711
-6.42875e-05
0.00257571
-8.60758e-05
0.00261217
-0.000109091
0.00265664
-0.000132187
0.00270835
-0.00015287
0.00276561
-0.000168459
0.00282543
-0.000175761
0.00288416
-0.000173028
0.00293925
-0.000162825
0.00298885
-0.000147146
0.00303184
-0.000127908
0.00306762
-0.00010674
0.00309594
-8.4561e-05
0.00311664
-6.18295e-05
0.00312959
-3.86581e-05
0.00313464
-1.50226e-05
0.00313162
9.02614e-06
0.00312044
3.31674e-05
0.00310128
5.67029e-05
0.00307466
7.85817e-05
0.00304157
9.75629e-05
0.00300339
0.000112477
0.00296184
0.000122499
0.0029187
0.000127332
0.00287568
0.000127241
0.00283422
0.000122942
0.00279541
0.000115423
0.00275995
0.000105755
0.00272822
9.49442e-05
0.00270028
8.38322e-05
0.00267599
7.30569e-05
0.00265508
6.30502e-05
0.00263719
5.40625e-05
0.00262192
4.61986e-05
0.00260889
3.94569e-05
0.00259775
3.37651e-05
0.00258818
2.90107e-05
0.00257991
2.50636e-05
0.00257271
2.17929e-05
0.0025664
1.90776e-05
0.00256083
1.68118e-05
0.0025559
1.4908e-05
0.00255149
1.32961e-05
0.00254753
1.19221e-05
0.00254396
1.07453e-05
0.00254073
9.73577e-06
0.00253778
8.87101e-06
0.00253507
8.13386e-06
0.00253257
7.51013e-06
0.00253025
6.98712e-06
0.00252806
6.5526e-06
0.002526
6.19435e-06
0.00252403
5.90009e-06
0.00252214
5.65778e-06
0.00252031
5.45607e-06
0.00251854
5.2848e-06
0.00251682
5.13536e-06
0.00251514
5.00093e-06
0.0025135
4.87643e-06
0.0025119
4.75839e-06
0.00251034
4.64458e-06
0.00250882
4.53373e-06
0.00250733
4.42517e-06
0.00250587
4.31861e-06
0.00250445
4.21398e-06
0.00250306
4.11123e-06
0.00250171
4.01018e-06
0.00250038
3.91028e-06
0.00249909
3.81038e-06
0.00249783
3.70849e-06
0.00249661
3.60186e-06
0.00249542
3.48732e-06
0.00249427
3.36197e-06
0.00249316
3.22377e-06
0.00249211
3.07136e-06
0.0024911
2.90208e-06
0.00249016
2.70796e-06
0.0024893
2.47007e-06
0.00248853
2.1537e-06
0.00248791
1.70801e-06
0.00248749
1.07384e-06
0.00248734
2.01341e-07
0.00248755
-9.25098e-07
0.00248819
-2.26202e-06
0.00248929
-3.69274e-06
0.00249082
-5.03365e-06
0.00249269
-6.06543e-06
0.00249472
-6.58417e-06
0.00249673
-6.45873e-06
0.00249849
-5.67521e-06
0.00249982
-4.35193e-06
0.00250064
-2.71713e-06
0.00250092
-1.055e-06
0.00250075
3.63448e-07
0.00250026
1.34293e-06
0.00249964
1.8013e-06
0.00249904
1.77314e-06
0.00249857
1.38278e-06
0.00249831
7.98967e-07
0.00249825
1.87504e-07
0.00249837
-3.24904e-07
0.0024986
-6.6825e-07
0.00249889
-8.2836e-07
0.00249918
-8.32863e-07
0.00249943
-7.31535e-07
0.00249962
-5.77856e-07
0.00249976
-4.16073e-07
0.00249985
-2.75115e-07
0.0024999
-1.68358e-07
0.00249993
-9.70682e-08
0.00249995
-5.52097e-08
0.00249996
-3.39126e-08
0.00249997
-2.46598e-08
0.00249997
-2.09846e-08
0.00249998
-1.89203e-08
0.00249998
-1.66447e-08
0.00249999
-1.37685e-08
0.00249999
-1.061e-08
0.00249999
-7.65147e-09
0.0025
-5.23888e-09
0.0025
-3.49197e-09
0.0025
-2.34566e-09
0.0025
-1.6418e-09
0.0025
-1.2128e-09
0.0025
-9.30648e-10
0.0025
-7.19775e-10
0.0025
-5.47006e-10
0.0025
-4.03329e-10
0.0025
-2.88337e-10
0.0025
-2.01374e-10
0.0025
-1.38934e-10
0.0025
-9.55178e-11
0.0025
-6.54725e-11
0.0025
-4.42464e-11
0.0025
-2.87955e-11
0.0025
-1.73011e-11
0.0025
-8.7325e-12
0.0025
-2.42411e-12
0.0025
2.11679e-12
0.0025
5.32045e-12
0.0025
7.5334e-12
0.0025
9.04165e-12
0.0025
1.0042e-11
0.0025
1.06861e-11
0.0025
1.10652e-11
0.0025
1.1259e-11
0.0025
1.13089e-11
0.0025
1.1266e-11
0.0025
1.11423e-11
0.0025
1.09869e-11
0.0025
1.07671e-11
0.0025
1.05904e-11
0.0025
1.02719e-11
0.0025
1.0232e-11
0.0025
9.60661e-12
0.0025
1.02557e-11
8.55677e-12
0.00250272
-1.12755e-05
0.00251096
-3.40701e-05
0.00252518
-5.84855e-05
0.00254608
-8.51831e-05
0.00257447
-0.000114465
0.00261106
-0.000145684
0.00265622
-0.00017735
0.00270932
-0.000205967
0.00276864
-0.000227777
0.00283077
-0.000237888
0.00289145
-0.000233712
0.002948
-0.000219375
0.00299859
-0.000197737
0.00304217
-0.00017149
0.0030783
-0.000142872
0.00310682
-0.00011308
0.00312767
-8.26777e-05
0.00314075
-5.17392e-05
0.00314589
-2.01555e-05
0.00314284
1.20713e-05
0.00313146
4.45484e-05
0.00311183
7.63343e-05
0.00308444
0.00010597
0.00305029
0.00013171
0.00301087
0.000151902
0.00296798
0.000165383
0.00292357
0.000171744
0.00287944
0.00017137
0.00283711
0.000165277
0.00279768
0.000154851
0.00276186
0.000141577
0.00272997
0.000126833
0.00270204
0.00011176
0.00267789
9.72131e-05
0.00265718
8.376e-05
0.00263952
7.17225e-05
0.00262449
6.12263e-05
0.00261169
5.22555e-05
0.00260075
4.47024e-05
0.00259136
3.84075e-05
0.00258323
3.3191e-05
0.00257615
2.88738e-05
0.00256993
2.52919e-05
0.00256444
2.23032e-05
0.00255956
1.97907e-05
0.00255519
1.76616e-05
0.00255127
1.58448e-05
0.00254773
1.4287e-05
0.00254452
1.29494e-05
0.00254158
1.18031e-05
0.00253889
1.08258e-05
0.0025364
9.99941e-06
0.00253408
9.30723e-06
0.0025319
8.73318e-06
0.00252983
8.26095e-06
0.00252786
7.87406e-06
0.00252596
7.55627e-06
0.00252413
7.29226e-06
0.00252234
7.06833e-06
0.0025206
6.87291e-06
0.00251891
6.69691e-06
0.00251725
6.53365e-06
0.00251563
6.3786e-06
0.00251405
6.22896e-06
0.0025125
6.08314e-06
0.00251098
5.94037e-06
0.0025095
5.80038e-06
0.00250805
5.66312e-06
0.00250663
5.52861e-06
0.00250525
5.39671e-06
0.00250389
5.26678e-06
0.00250256
5.1374e-06
0.00250127
5.00601e-06
0.0025
4.86897e-06
0.00249876
4.72203e-06
0.00249757
4.56117e-06
0.00249641
4.38341e-06
0.00249529
4.18666e-06
0.00249423
3.96736e-06
0.00249322
3.71528e-06
0.00249228
3.40641e-06
0.00249144
2.99653e-06
0.00249073
2.42047e-06
0.0024902
1.60186e-06
0.00248992
4.75558e-07
0.00248998
-9.80088e-07
0.00249043
-2.71072e-06
0.0024913
-4.56686e-06
0.00249258
-6.31125e-06
0.00249417
-7.65875e-06
0.00249593
-8.34274e-06
0.00249766
-8.19026e-06
0.00249917
-7.18096e-06
0.00250028
-5.46761e-06
0.00250091
-3.34774e-06
0.00250105
-1.19328e-06
0.00250078
6.40184e-07
0.00250022
1.89587e-06
0.00249956
2.46559e-06
0.00249894
2.39515e-06
0.00249847
1.84917e-06
0.00249822
1.05159e-06
0.00249818
2.22938e-07
0.00249833
-4.67913e-07
0.00249859
-9.27604e-07
0.00249889
-1.13768e-06
0.0024992
-1.13616e-06
0.00249946
-9.91276e-07
0.00249966
-7.76441e-07
0.00249979
-5.52491e-07
0.00249988
-3.59132e-07
0.00249992
-2.14461e-07
0.00249995
-1.19665e-07
0.00249996
-6.57581e-08
0.00249996
-3.98952e-08
0.00249997
-2.99137e-08
0.00249997
-2.67376e-08
0.00249998
-2.49705e-08
0.00249998
-2.23147e-08
0.00249999
-1.84861e-08
0.00249999
-1.41332e-08
0.0025
-1.00499e-08
0.0025
-6.76388e-09
0.0025
-4.43785e-09
0.0025
-2.95681e-09
0.0025
-2.07759e-09
0.0025
-1.55504e-09
0.0025
-1.2104e-09
0.0025
-9.4475e-10
0.0025
-7.1984e-10
0.0025
-5.29459e-10
0.0025
-3.7667e-10
0.0025
-2.61954e-10
0.0025
-1.80582e-10
0.0025
-1.24685e-10
0.0025
-8.62791e-11
0.0025
-5.91301e-11
0.0025
-3.92319e-11
0.0025
-2.43081e-11
0.0025
-1.31191e-11
0.0025
-4.86602e-12
0.0025
1.07242e-12
0.0025
5.25712e-12
0.0025
8.15115e-12
0.0025
1.01317e-11
0.0025
1.1459e-11
0.0025
1.23266e-11
0.0025
1.28538e-11
0.0025
1.31398e-11
0.0025
1.32403e-11
0.0025
1.32187e-11
0.0025
1.30935e-11
0.0025
1.29246e-11
0.0025
1.26756e-11
0.0025
1.24736e-11
0.0025
1.21051e-11
0.0025
1.2051e-11
0.0025
1.13403e-11
0.0025
1.20238e-11
1.01484e-11
0.0025026
-1.3877e-05
0.00251049
-4.19586e-05
0.00252421
-7.22011e-05
0.00254457
-0.000105545
0.0025726
-0.000142498
0.0026093
-0.00018238
0.00265535
-0.000223403
0.00271032
-0.000260936
0.00277252
-0.00028998
0.00283788
-0.000303248
0.00290123
-0.000297063
0.00295974
-0.000277882
0.00301161
-0.000249607
0.00305594
-0.000215818
0.00309248
-0.000179415
0.00312124
-0.000141843
0.00314228
-0.000103715
0.00315554
-6.49986e-05
0.00316081
-2.54287e-05
0.00315778
1.51058e-05
0.00314615
5.61737e-05
0.00312591
9.65793e-05
0.00309748
0.000134399
0.00306189
0.000167296
0.00302075
0.000193046
0.00297604
0.00021009
0.00292989
0.000217896
0.00288426
0.000217003
0.00284075
0.000208787
0.0028005
0.000195093
0.00276421
0.000177871
0.00273214
0.000158905
0.00270425
0.00013965
0.00268028
0.000121178
0.00265985
0.000104188
0.00264252
8.90587e-05
0.00262782
7.59249e-05
0.00261533
6.47445e-05
0.00260467
5.53638e-05
0.00259551
4.75689e-05
0.00258757
4.1124e-05
0.00258065
3.57986e-05
0.00257456
3.13834e-05
0.00256916
2.76994e-05
0.00256435
2.46002e-05
0.00256004
2.19706e-05
0.00255617
1.97233e-05
0.00255266
1.77938e-05
0.00254947
1.61349e-05
0.00254656
1.47123e-05
0.00254389
1.34996e-05
0.00254141
1.24748e-05
0.0025391
1.16178e-05
0.00253693
1.09088e-05
0.00253486
1.03273e-05
0.00253288
9.85257e-06
0.00253098
9.46393e-06
0.00252913
9.14192e-06
0.00252733
8.86915e-06
0.00252557
8.63103e-06
0.00252385
8.4162e-06
0.00252216
8.21644e-06
0.00252052
8.02631e-06
0.0025189
7.84252e-06
0.00251732
7.66333e-06
0.00251578
7.48797e-06
0.00251426
7.31622e-06
0.00251278
7.14816e-06
0.00251132
6.98395e-06
0.00250989
6.82353e-06
0.00250849
6.66629e-06
0.00250712
6.51059e-06
0.00250577
6.3534e-06
0.00250445
6.19023e-06
0.00250316
6.0157e-06
0.00250189
5.82457e-06
0.00250067
5.61272e-06
0.00249947
5.37712e-06
0.00249833
5.11319e-06
0.00249724
4.80872e-06
0.00249621
4.43541e-06
0.00249526
3.94103e-06
0.00249443
3.24817e-06
0.00249377
2.26541e-06
0.00249333
9.13859e-07
0.00249319
-8.34172e-07
0.00249339
-2.91556e-06
0.00249398
-5.15242e-06
0.00249493
-7.25987e-06
0.00249616
-8.89335e-06
0.00249755
-9.72886e-06
0.00249891
-9.55462e-06
0.00250007
-8.34371e-06
0.00250089
-6.28029e-06
0.00250126
-3.72595e-06
0.00250121
-1.13428e-06
0.00250079
1.06019e-06
0.00250014
2.54336e-06
0.00249942
3.18335e-06
0.00249878
3.03786e-06
0.00249831
2.31142e-06
0.00249808
1.28241e-06
0.00249808
2.2543e-07
0.00249826
-6.48901e-07
0.00249856
-1.22436e-06
0.0024989
-1.47908e-06
0.00249923
-1.4629e-06
0.0024995
-1.26437e-06
0.0024997
-9.78788e-07
0.00249984
-6.85155e-07
0.00249991
-4.34806e-07
0.00249995
-2.50597e-07
0.00249996
-1.33023e-07
0.00249996
-6.91793e-08
0.00249997
-4.12764e-08
0.00249997
-3.27821e-08
0.00249997
-3.16417e-08
0.00249998
-3.09834e-08
0.00249999
-2.81997e-08
0.00249999
-2.33532e-08
0.00249999
-1.7636e-08
0.0025
-1.22876e-08
0.0025
-8.06815e-09
0.0025
-5.17537e-09
0.0025
-3.41164e-09
0.0025
-2.41615e-09
0.0025
-1.84629e-09
0.0025
-1.46667e-09
0.0025
-1.15832e-09
0.0025
-8.84478e-10
0.0025
-6.47437e-10
0.0025
-4.56953e-10
0.0025
-3.15608e-10
0.0025
-2.17142e-10
0.0025
-1.50678e-10
0.0025
-1.05452e-10
0.0025
-7.34103e-11
0.0025
-4.96694e-11
0.0025
-3.16534e-11
0.0025
-1.80471e-11
0.0025
-7.99531e-12
0.0025
-7.76525e-13
0.0025
4.29587e-12
0.0025
7.80385e-12
0.0025
1.02142e-11
0.0025
1.18468e-11
0.0025
1.29312e-11
0.0025
1.36097e-11
0.0025
1.39973e-11
0.0025
1.41623e-11
0.0025
1.41784e-11
0.0025
1.40711e-11
0.0025
1.39079e-11
0.0025
1.36528e-11
0.0025
1.34429e-11
0.0025
1.30549e-11
0.0025
1.29864e-11
0.0025
1.22549e-11
0.0025
1.28875e-11
1.10255e-11
0.00250244
-1.63161e-05
0.00250985
-4.9374e-05
0.00252287
-8.52164e-05
0.00254247
-0.000125141
0.00256993
-0.000169959
0.00260662
-0.000219076
0.00265371
-0.000270491
0.00271106
-0.000318284
0.00277711
-0.000356026
0.00284678
-0.00037292
0.00291357
-0.000363855
0.00297452
-0.000338833
0.00302793
-0.000303015
0.00307311
-0.000260998
0.00311009
-0.000216398
0.0031391
-0.00017085
0.00316034
-0.000124953
0.00317381
-7.84732e-05
0.00317928
-3.08955e-05
0.0031763
1.80893e-05
0.00316441
6.80598e-05
0.00314343
0.000117557
0.00311371
0.000164121
0.0030763
0.000204706
0.00303295
0.000236391
0.00298591
0.000257137
0.00293753
0.000266276
0.00288998
0.000264551
0.00284499
0.000253776
0.00280374
0.000236342
0.00276688
0.000214732
0.00273461
0.000191175
0.0027068
0.00016746
0.0026831
0.000144875
0.00266305
0.000124238
0.00264614
0.000105971
0.00263187
9.01991e-05
0.00261977
7.68383e-05
0.00260946
6.56762e-05
0.00260059
5.64344e-05
0.0025929
4.88145e-05
0.00258617
4.25298e-05
0.00258023
3.73237e-05
0.00257495
3.2979e-05
0.00257023
2.93201e-05
0.00256599
2.62106e-05
0.00256217
2.35481e-05
0.0025587
2.12576e-05
0.00255555
1.92856e-05
0.00255267
1.75931e-05
0.00255002
1.61503e-05
0.00254756
1.49323e-05
0.00254527
1.39159e-05
0.0025431
1.30776e-05
0.00254103
1.23928e-05
0.00253905
1.18362e-05
0.00253713
1.13825e-05
0.00253526
1.10078e-05
0.00253344
1.0691e-05
0.00253166
1.04142e-05
0.00252991
1.01638e-05
0.0025282
9.9303e-06
0.00252652
9.70733e-06
0.00252487
9.49139e-06
0.00252325
9.28071e-06
0.00252166
9.07464e-06
0.00252011
8.87313e-06
0.00251858
8.67645e-06
0.00251708
8.48497e-06
0.0025156
8.29884e-06
0.00251415
8.11755e-06
0.00251272
7.93939e-06
0.00251132
7.76089e-06
0.00250993
7.57682e-06
0.00250856
7.38061e-06
0.00250722
7.16567e-06
0.00250591
6.92653e-06
0.00250463
6.65898e-06
0.00250338
6.35726e-06
0.00250218
6.00743e-06
0.00250104
5.57774e-06
0.00249997
5.00967e-06
0.00249901
4.21601e-06
0.00249818
3.093e-06
0.00249754
1.55012e-06
0.00249715
-4.45913e-07
0.00249706
-2.82532e-06
0.0024973
-5.38675e-06
0.00249784
-7.80497e-06
0.00249863
-9.68423e-06
0.00249955
-1.06504e-05
0.00250046
-1.04574e-05
0.00250119
-9.07253e-06
0.00250161
-6.70786e-06
0.00250167
-3.7827e-06
0.00250136
-8.2437e-07
0.00250076
1.66119e-06
0.00249999
3.30837e-06
0.00249921
3.96499e-06
0.00249855
3.70171e-06
0.0024981
2.76263e-06
0.0024979
1.47964e-06
0.00249795
1.8058e-07
0.00249818
-8.82805e-07
0.00249853
-1.57214e-06
0.00249891
-1.8634e-06
0.00249927
-1.82026e-06
0.00249956
-1.55417e-06
0.00249977
-1.18495e-06
0.00249989
-8.11793e-07
0.00249996
-4.98707e-07
0.00249998
-2.7323e-07
0.00249998
-1.34225e-07
0.00249997
-6.35097e-08
0.00249997
-3.70347e-08
0.00249997
-3.29552e-08
0.00249997
-3.57928e-08
0.00249998
-3.71928e-08
0.00249999
-3.44993e-08
0.00249999
-2.84648e-08
0.00249999
-2.11134e-08
0.0025
-1.43e-08
0.0025
-9.07079e-09
0.0025
-5.63696e-09
0.0025
-3.66716e-09
0.0025
-2.63692e-09
0.0025
-2.08028e-09
0.0025
-1.69926e-09
0.0025
-1.36101e-09
0.0025
-1.04006e-09
0.0025
-7.5503e-10
0.0025
-5.26425e-10
0.0025
-3.59827e-10
0.0025
-2.46734e-10
0.0025
-1.72248e-10
0.0025
-1.22185e-10
0.0025
-8.65247e-11
0.0025
-5.96505e-11
0.0025
-3.89208e-11
0.0025
-2.3127e-11
0.0025
-1.14531e-11
0.0025
-3.10592e-12
0.0025
2.72812e-12
0.0025
6.75581e-12
0.0025
9.53351e-12
0.0025
1.14351e-11
0.0025
1.27183e-11
0.0025
1.3542e-11
0.0025
1.40325e-11
0.0025
1.42684e-11
0.0025
1.43321e-11
0.0025
1.42555e-11
0.0025
1.41121e-11
0.0025
1.38683e-11
0.0025
1.36637e-11
0.0025
1.32803e-11
0.0025
1.31978e-11
0.0025
1.24941e-11
0.0025
1.30214e-11
1.13046e-11
0.00250223
-1.8543e-05
0.00250902
-5.61694e-05
0.0025211
-9.72945e-05
0.00253963
-0.000143671
0.00256621
-0.000196537
0.0026027
-0.000255568
0.00265089
-0.000318681
0.00271115
-0.000378544
0.0027822
-0.000427074
0.00285748
-0.000448205
0.00292856
-0.000434936
0.00299243
-0.0004027
0.00304757
-0.000358152
0.00309363
-0.000307057
0.00313101
-0.000253784
0.00316024
-0.000200073
0.00318169
-0.000146411
0.00319546
-9.22405e-05
0.00320124
-3.66707e-05
0.0031984
2.0922e-05
0.00318627
8.0189e-05
0.00316444
0.000139392
0.00313313
0.000195431
0.00309344
0.000244393
0.00304734
0.000282493
0.00299737
0.000307109
0.00294622
0.000317421
0.00289633
0.000314444
0.00284956
0.000300547
0.00280713
0.000278774
0.00276964
0.000252223
0.00273719
0.000223625
0.00270953
0.000195116
0.00268621
0.000168199
0.00266665
0.000143793
0.00265028
0.000122343
0.00263654
0.000103941
0.00262493
8.84424e-05
0.00261505
7.55604e-05
0.00260654
6.49401e-05
0.00259915
5.62123e-05
0.00259265
4.90291e-05
0.00258689
4.30837e-05
0.00258175
3.81202e-05
0.00257713
3.39343e-05
0.00257297
3.03692e-05
0.00256921
2.73089e-05
0.0025658
2.46703e-05
0.00256269
2.23944e-05
0.00255984
2.0439e-05
0.00255722
1.87723e-05
0.00255479
1.73672e-05
0.00255251
1.61976e-05
0.00255035
1.52368e-05
0.00254828
1.44558e-05
0.0025463
1.38245e-05
0.00254437
1.33128e-05
0.00254248
1.2892e-05
0.00254064
1.25368e-05
0.00253882
1.22261e-05
0.00253704
1.19441e-05
0.00253529
1.16799e-05
0.00253357
1.14267e-05
0.00253188
1.11809e-05
0.00253022
1.09408e-05
0.00252859
1.07062e-05
0.00252699
1.04771e-05
0.00252541
1.02543e-05
0.00252386
1.00384e-05
0.00252233
9.82979e-06
0.00252082
9.62825e-06
0.00251932
9.4321e-06
0.00251785
9.23759e-06
0.00251638
9.03874e-06
0.00251494
8.82783e-06
0.00251351
8.59674e-06
0.00251209
8.33845e-06
0.00251071
8.04728e-06
0.00250935
7.71613e-06
0.00250803
7.32951e-06
0.00250675
6.85313e-06
0.00250554
6.22395e-06
0.0025044
5.34769e-06
0.00250339
4.11147e-06
0.00250252
2.41588e-06
0.00250185
2.23099e-07
0.00250142
-2.39228e-06
0.00250124
-5.21079e-06
0.00250131
-7.87524e-06
0.00250158
-9.94873e-06
0.00250194
-1.10165e-05
0.00250229
-1.08046e-05
0.00250249
-9.27612e-06
0.00250245
-6.66787e-06
0.00250212
-3.44902e-06
0.00250151
-2.10714e-07
0.00250069
2.47945e-06
0.00249978
4.21195e-06
0.00249893
4.81873e-06
0.00249825
4.38493e-06
0.00249782
3.19374e-06
0.00249767
1.62942e-06
0.00249777
7.20547e-08
0.00249808
-1.18621e-06
0.00249849
-1.98577e-06
0.00249893
-2.3021e-06
0.00249933
-2.21542e-06
0.00249963
-1.86352e-06
0.00249984
-1.3941e-06
0.00249996
-9.29168e-07
0.00250001
-5.46564e-07
0.00250001
-2.7825e-07
0.0025
-1.20092e-07
0.00249998
-4.67915e-08
0.00249997
-2.63241e-08
0.00249997
-3.03621e-08
0.00249997
-3.95057e-08
0.00249998
-4.39858e-08
0.00249999
-4.14917e-08
0.00249999
-3.39367e-08
0.0025
-2.45486e-08
0.0025
-1.60004e-08
0.0025
-9.67353e-09
0.0025
-5.74718e-09
0.0025
-3.68083e-09
0.0025
-2.72428e-09
0.0025
-2.25646e-09
0.0025
-1.91231e-09
0.0025
-1.55575e-09
0.0025
-1.18655e-09
0.0025
-8.49994e-10
0.0025
-5.82081e-10
0.0025
-3.91945e-10
0.0025
-2.67468e-10
0.0025
-1.88227e-10
0.0025
-1.35776e-10
0.0025
-9.79778e-11
0.0025
-6.87364e-11
0.0025
-4.5675e-11
0.0025
-2.79293e-11
0.0025
-1.48322e-11
0.0025
-5.54175e-12
0.0025
8.9463e-13
0.0025
5.32092e-12
0.0025
8.38392e-12
0.0025
1.05042e-11
0.0025
1.19573e-11
0.0025
1.29107e-11
0.0025
1.34967e-11
0.0025
1.38018e-11
0.0025
1.3915e-11
0.0025
1.38751e-11
0.0025
1.37586e-11
0.0025
1.35369e-11
0.0025
1.33458e-11
0.0025
1.29833e-11
0.0025
1.28878e-11
0.0025
1.22422e-11
0.0025
1.26415e-11
1.11387e-11
0.00250196
-2.04997e-05
0.00250796
-6.21714e-05
0.00251881
-0.000108147
0.00253589
-0.00016075
0.00256115
-0.000221795
0.00259709
-0.000291506
0.00264632
-0.000367917
0.00271004
-0.000442262
0.00278753
-0.000504566
0.00287004
-0.000530708
0.00294633
-0.000511228
0.00301355
-0.000469922
0.00307054
-0.000415142
0.00311743
-0.000353946
0.0031551
-0.000291458
0.00318443
-0.000229397
0.00320605
-0.000168032
0.00322013
-0.000106323
0.00322631
-4.28515e-05
0.00322376
2.3474e-05
0.00321147
9.24745e-05
0.00318874
0.000162126
0.00315561
0.000228565
0.00311321
0.000286791
0.00306377
0.000331933
0.00301024
0.000360634
0.00295575
0.00037191
0.00290305
0.000367146
0.00285419
0.000349411
0.00281041
0.000322551
0.00277224
0.000290389
0.00273966
0.000256208
0.00271226
0.000222517
0.00268944
0.00019102
0.00267052
0.000162715
0.00265482
0.000138041
0.00264173
0.000117031
0.00263072
9.94556e-05
0.00262134
8.49336e-05
0.00261326
7.30205e-05
0.00260621
6.3267e-05
0.00259998
5.52582e-05
0.00259443
4.86349e-05
0.00258945
4.31017e-05
0.00258495
3.84262e-05
0.00258089
3.44332e-05
0.0025772
3.09951e-05
0.00257385
2.80222e-05
0.00257079
2.54523e-05
0.00256799
2.32419e-05
0.0025654
2.13581e-05
0.002563
1.97726e-05
0.00256074
1.84573e-05
0.00255859
1.73818e-05
0.00255654
1.65131e-05
0.00255455
1.58159e-05
0.0025526
1.52546e-05
0.0025507
1.47953e-05
0.00254883
1.44084e-05
0.00254699
1.40694e-05
0.00254517
1.37603e-05
0.00254338
1.3469e-05
0.00254162
1.31884e-05
0.00253988
1.29152e-05
0.00253818
1.26481e-05
0.0025365
1.23873e-05
0.00253484
1.21333e-05
0.00253321
1.18872e-05
0.0025316
1.165e-05
0.00253
1.14226e-05
0.00252843
1.12051e-05
0.00252686
1.09961e-05
0.00252531
1.07916e-05
0.00252376
1.0585e-05
0.00252222
1.03674e-05
0.00252069
1.0129e-05
0.00251917
9.86102e-06
0.00251766
9.55603e-06
0.00251617
9.20541e-06
0.00251471
8.79225e-06
0.00251328
8.28054e-06
0.0025119
7.60455e-06
0.00251058
6.66584e-06
0.00250935
5.34603e-06
0.00250822
3.54024e-06
0.00250724
1.2079e-06
0.00250642
-1.57291e-06
0.00250578
-4.56999e-06
0.00250531
-7.40362e-06
0.00250496
-9.60769e-06
0.00250469
-1.07387e-05
0.00250439
-1.05035e-05
0.00250397
-8.86425e-06
0.00250338
-6.07892e-06
0.00250259
-2.65751e-06
0.00250162
7.57279e-07
0.00250056
3.54839e-06
0.0024995
5.27193e-06
0.00249857
5.74956e-06
0.00249787
5.08268e-06
0.00249747
3.59296e-06
0.00249738
1.71559e-06
0.00249757
-1.18275e-07
0.00249796
-1.57692e-06
0.00249846
-2.48059e-06
0.00249896
-2.80645e-06
0.0024994
-2.65475e-06
0.00249973
-2.19395e-06
0.00249994
-1.60398e-06
0.00250005
-1.03269e-06
0.00250007
-5.73085e-07
0.00250005
-2.60959e-07
0.00250002
-8.72745e-08
0.00249999
-1.7201e-08
0.00249997
-8.59376e-09
0.00249997
-2.52535e-08
0.00249997
-4.33535e-08
0.00249998
-5.1907e-08
0.00249999
-4.9519e-08
0.0025
-3.98843e-08
0.0025
-2.7895e-08
0.0025
-1.72703e-08
0.0025
-9.75744e-09
0.0025
-5.42388e-09
0.0025
-3.41338e-09
0.0025
-2.67007e-09
0.0025
-2.38149e-09
0.0025
-2.11477e-09
0.0025
-1.74766e-09
0.0025
-1.3244e-09
0.0025
-9.2982e-10
0.0025
-6.20588e-10
0.0025
-4.09184e-10
0.0025
-2.77571e-10
0.0025
-1.97678e-10
0.0025
-1.45746e-10
0.0025
-1.07443e-10
0.0025
-7.65947e-11
0.0025
-5.15434e-11
0.0025
-3.20652e-11
0.0025
-1.77598e-11
0.0025
-7.74346e-12
0.0025
-8.96834e-13
0.0025
3.78165e-12
0.0025
7.03111e-12
0.0025
9.30851e-12
0.0025
1.08941e-11
0.0025
1.1954e-11
0.0025
1.26206e-11
0.0025
1.29858e-11
0.0025
1.31437e-11
0.0025
1.31396e-11
0.0025
1.30513e-11
0.0025
1.28566e-11
0.0025
1.26823e-11
0.0025
1.23498e-11
0.0025
1.22432e-11
0.0025
1.16695e-11
0.0025
1.19433e-11
1.06726e-11
0.00250162
-2.21193e-05
0.00250663
-6.71785e-05
0.00251591
-0.000117428
0.00253105
-0.000175888
0.00255439
-0.000245137
0.00258922
-0.00032634
0.00263926
-0.000417956
0.00270699
-0.000509993
0.00279278
-0.000590352
0.00288454
-0.000622466
0.00296706
-0.000593748
0.003038
-0.000540862
0.00309681
-0.000473951
0.00314431
-0.000401453
0.00318204
-0.000329183
0.00321129
-0.000258653
0.00323303
-0.000189772
0.00324753
-0.000120821
0.00325433
-4.96517e-05
0.00325229
2.55139e-05
0.00323998
0.000104783
0.00321629
0.000185822
0.00318102
0.00026383
0.00313537
0.000332441
0.00308191
0.000385399
0.00302411
0.00041843
0.00296565
0.000430374
0.00290966
0.000423127
0.00285842
0.000400658
0.00281317
0.000367797
0.00277434
0.000329218
0.00274173
0.000288825
0.00271473
0.00024951
0.00269259
0.000213164
0.00267447
0.000180832
0.0026596
0.000152908
0.0026473
0.000129333
0.00263699