/*--------------------------------*- C++ -*----------------------------------*\
  =========                 |
  \\      /  F ield         | OpenFOAM: The Open Source CFD Toolbox
   \\    /   O peration     | Website:  https://openfoam.org
    \\  /    A nd           | Version:  11
     \\/     M anipulation  |
\*---------------------------------------------------------------------------*/
FoamFile
{
    format      ascii;
    class       volVectorField;
    location    "5.012657";
    object      vorticity;
}
// * * * * * * * * * * * * * * * * * * * * * * * * * * * * * * * * * * * * * //

dimensions      [0 0 -1 0 0 0 0];

internalField   nonuniform List<vector> 
7132
(
(-4.54448e-17 -1.83397e-15 -0.011602)
(-1.47141e-16 -1.78937e-15 -0.011626)
(-1.40792e-16 -1.7636e-17 -0.0116762)
(-1.7324e-16 -1.77215e-15 -0.0117564)
(-2.072e-16 -1.75776e-15 -0.0118697)
(-1.96892e-16 3.65613e-18 -0.0120177)
(-1.77702e-16 1.36875e-17 -0.0122007)
(-1.66103e-16 1.42086e-17 -0.0124142)
(-7.94631e-17 9.90677e-18 -0.0126518)
(-4.21725e-17 6.88216e-18 -0.0129013)
(-9.52106e-17 4.05322e-18 -0.0131455)
(-9.22853e-17 1.29361e-17 -0.0133856)
(-1.54279e-16 6.06782e-18 -0.0136077)
(9.54273e-17 9.47546e-17 -0.0138051)
(1.01152e-15 -1.53318e-15 -0.0139739)
(2.13732e-15 -1.52931e-15 -0.0141108)
(2.97794e-15 -1.70969e-15 -0.0142147)
(2.75871e-15 -4.49409e-17 -0.0142851)
(1.93412e-15 -3.3197e-15 -0.0143225)
(7.12229e-16 -3.31522e-15 -0.0143281)
(-8.38258e-16 9.00755e-17 -0.0143037)
(-2.30647e-15 1.23113e-16 -0.0142516)
(-3.51837e-15 1.8478e-16 -0.0141751)
(-4.35231e-15 9.78894e-17 -0.0140778)
(-5.09797e-15 1.81344e-15 -0.0139632)
(-5.27585e-15 2.00052e-16 -0.0138351)
(-5.12386e-15 2.0063e-16 -0.013697)
(-4.72311e-15 1.78298e-16 -0.0135521)
(-4.10457e-15 7.98638e-17 -0.0134031)
(-3.47519e-15 1.70832e-15 -0.0132528)
(-2.55381e-15 1.67745e-15 -0.0131036)
(-1.70557e-15 1.69307e-15 -0.0129575)
(-6.4471e-16 -7.69322e-17 -0.0128167)
(5.31886e-16 1.56933e-15 -0.0126829)
(1.73776e-15 1.51676e-15 -0.0125572)
(3.11293e-15 1.46354e-15 -0.0124405)
(4.45958e-15 1.43247e-15 -0.0123329)
(5.81181e-15 -3.61767e-16 -0.012234)
(7.0973e-15 3.0321e-15 -0.0121429)
(8.29561e-15 1.24982e-15 -0.0120584)
(9.45145e-15 1.21411e-15 -0.0119791)
(1.04516e-14 1.20159e-15 -0.0119039)
(1.13317e-14 -5.56428e-16 -0.0118316)
(1.20618e-14 1.15532e-15 -0.0117613)
(1.26384e-14 1.15258e-15 -0.0116923)
(1.3082e-14 1.16371e-15 -0.0116243)
(1.3302e-14 1.19127e-15 -0.0115571)
(1.33162e-14 -5.22562e-16 -0.0114907)
(1.30887e-14 1.25163e-15 -0.0114251)
(1.26151e-14 1.33259e-15 -0.0113607)
(1.19536e-14 -3.22008e-16 -0.0112973)
(1.10631e-14 -3.73035e-15 -0.0112352)
(9.94108e-15 -1.88087e-16 -0.0111741)
(8.66463e-15 -1.02056e-16 -0.011114)
(7.22093e-15 -1.23959e-17 -0.0110547)
(5.68066e-15 8.00138e-17 -0.0109956)
(4.01412e-15 -1.572e-15 -0.0109365)
(2.20058e-15 2.59112e-16 -0.0108768)
(2.90382e-16 3.7308e-16 -0.0108163)
(-1.736e-15 4.92057e-16 -0.0107544)
(-3.79743e-15 6.04764e-16 -0.0106909)
(-5.90314e-15 -1.03742e-15 -0.0106255)
(-8.02406e-15 7.90774e-16 -0.0105578)
(-1.01194e-14 -8.65488e-16 -0.0104876)
(-1.2204e-14 -7.97532e-16 -0.0104145)
(-1.42367e-14 1.02408e-15 -0.0103385)
(-1.63035e-14 -6.17312e-16 -0.0102591)
(-1.83493e-14 1.22683e-15 -0.010176)
(-2.03477e-14 -4.06279e-16 -0.010089)
(-2.22625e-14 -3.26832e-16 -0.00999763)
(-2.39636e-14 1.46702e-15 -0.00990168)
(-2.54141e-14 -2.67541e-16 -0.00980067)
(-2.64317e-14 1.40029e-15 -0.00969397)
(-2.68955e-14 -4.9587e-16 -0.00958061)
(-2.67288e-14 -7.47897e-16 -0.0094592)
(-2.58623e-14 6.89884e-16 -0.00932812)
(-2.44488e-14 -1.35016e-15 -0.00918614)
(-2.26599e-14 1.68053e-16 -0.00903341)
(-2.09035e-14 -1.59579e-15 -0.0088726)
(-1.97612e-14 -1.31624e-15 -0.00870916)
(-1.98657e-14 1.11318e-15 -0.00854994)
(-2.19598e-14 4.90732e-16 -0.00839926)
(-2.65349e-14 3.70078e-15 -0.00825303)
(-3.39665e-14 3.65392e-15 -0.00809255)
(-4.44652e-14 5.4078e-15 -0.00788128)
(-5.80716e-14 8.87013e-15 -0.0075676)
(-7.48435e-14 8.75268e-15 -0.00709516)
(-9.44904e-14 1.19223e-14 -0.00641969)
(-1.163e-13 1.12212e-14 -0.00552755)
(-1.38739e-13 1.14708e-14 -0.00444945)
(-1.59263e-13 1.21747e-14 -0.00326306)
(-1.74788e-13 7.67136e-15 -0.00208128)
(-1.82376e-13 4.89087e-15 -0.00102805)
(-1.80605e-13 -7.25782e-16 -0.000208572)
(-1.70682e-13 -7.82644e-15 0.000316771)
(-1.56773e-13 -9.40553e-15 0.000545828)
(-1.45377e-13 -1.08487e-14 0.000531256)
(-1.43505e-13 -4.60442e-15 0.000361848)
(-1.56342e-13 3.19437e-15 0.000135693)
(-1.84937e-13 1.0078e-14 -6.53157e-05)
(-2.24735e-13 1.79665e-14 -0.000191885)
(-2.66005e-13 1.69427e-14 -0.000231146)
(-2.96206e-13 1.25752e-14 -0.00019923)
(-3.0393e-13 5.71814e-16 -0.000127497)
(-2.82907e-13 -1.60509e-14 -4.83335e-05)
(-2.34209e-13 -2.79507e-14 1.48466e-05)
(-1.66136e-13 -3.83088e-14 5.1494e-05)
(-9.1624e-14 -3.80233e-14 6.24429e-05)
(-2.43643e-14 -3.24139e-14 5.5384e-05)
(2.50608e-14 -2.36495e-14 3.98729e-05)
(5.177e-14 -9.78523e-15 2.37017e-05)
(5.69934e-14 -9.82588e-16 1.13115e-05)
(4.66649e-14 7.56895e-15 3.95174e-06)
(2.87801e-14 1.00416e-14 7.95512e-07)
(1.06996e-14 7.17821e-15 2.12794e-07)
(-2.6427e-15 5.76156e-15 6.95288e-07)
(-9.42417e-15 4.92238e-16 1.27818e-06)
(-1.03813e-14 -4.79155e-16 1.5591e-06)
(-7.70437e-15 -1.85547e-15 1.51246e-06)
(-3.83918e-15 -3.77413e-15 1.27351e-06)
(-5.58716e-16 -1.46844e-15 9.87668e-07)
(1.30826e-15 -6.64922e-16 7.44761e-07)
(1.80263e-15 -1.1776e-17 5.74539e-07)
(1.4221e-15 3.29181e-16 4.6915e-07)
(7.17992e-16 -1.36379e-15 4.07305e-07)
(1.14531e-16 2.55044e-16 3.69384e-07)
(-2.25616e-16 1.05984e-16 3.42692e-07)
(-2.98917e-16 -2.75173e-18 3.21001e-07)
(-2.05648e-16 -5.05197e-17 3.01999e-07)
(-8.33985e-17 -1.79724e-15 2.85155e-07)
(7.73879e-18 -4.20967e-17 2.70381e-07)
(3.51949e-17 -1.19535e-17 2.57599e-07)
(3.0902e-17 1.00917e-17 2.46567e-07)
(2.51048e-17 1.81699e-17 2.36999e-07)
(9.77031e-18 -1.73065e-15 2.28554e-07)
(1.65258e-18 -3.81502e-18 2.20962e-07)
(-1.1805e-17 -2.27914e-18 2.1397e-07)
(-1.38689e-17 3.07345e-18 2.07436e-07)
(5.42152e-19 6.92548e-18 2.01233e-07)
(4.45652e-18 -1.73879e-15 1.95318e-07)
(6.73723e-18 -7.00039e-18 1.8963e-07)
(-4.67136e-18 -1.92198e-18 1.84164e-07)
(-9.07995e-18 4.78366e-18 1.78875e-07)
(2.25168e-18 8.44963e-18 1.73769e-07)
(4.20909e-18 -1.73801e-15 1.68805e-07)
(5.89421e-18 -6.86926e-18 1.63997e-07)
(-5.29292e-18 -2.10258e-18 1.59311e-07)
(-9.26996e-18 4.56408e-18 1.54765e-07)
(2.36207e-18 8.31504e-18 1.50329e-07)
(4.41917e-18 -1.73805e-15 1.46025e-07)
(6.07534e-18 -6.8528e-18 1.41823e-07)
(-5.17732e-18 -2.06857e-18 1.37746e-07)
(-9.20249e-18 4.59337e-18 1.33766e-07)
(2.41145e-18 8.32621e-18 1.29904e-07)
(4.46883e-18 -1.73804e-15 1.26137e-07)
(6.13786e-18 -6.93083e-18 1.22479e-07)
(-5.13203e-18 -1.84913e-18 1.18928e-07)
(-9.05739e-18 3.33657e-18 1.15401e-07)
(2.14718e-18 1.38948e-17 1.12358e-07)
(5.78836e-18 -1.725e-15 1.06741e-07)
(-4.57272e-17 -4.01428e-18 -0.0346979)
(-1.52658e-16 -6.76284e-18 -0.0347709)
(-1.5491e-16 -7.12778e-18 -0.0349209)
(-1.87629e-16 -7.61572e-18 -0.035158)
(-2.32701e-16 -7.81879e-18 -0.0354915)
(-2.28899e-16 -7.70458e-18 -0.0359263)
(-2.39422e-16 -1.70732e-18 -0.0364653)
(-2.3758e-16 -3.49109e-17 -0.0370955)
(-3.71848e-17 1.68267e-15 -0.0378008)
(-2.13419e-16 1.47559e-17 -0.0385463)
(-9.60937e-16 2.91096e-17 -0.0392774)
(-7.26978e-16 1.77719e-15 -0.039998)
(2.09277e-15 -8.77885e-17 -0.0406632)
(6.88048e-15 -4.91534e-16 -0.0412522)
(1.04946e-14 -8.21095e-16 -0.0417536)
(9.19077e-15 -7.76101e-16 -0.042157)
(1.78185e-15 -2.83967e-16 -0.0424581)
(-1.03395e-14 4.78242e-16 -0.0426542)
(-2.25385e-14 1.1732e-15 -0.0427439)
(-3.14584e-14 1.54084e-15 -0.0427274)
(-3.69935e-14 1.59922e-15 -0.0426053)
(-3.90068e-14 1.46317e-15 -0.0423811)
(-3.7933e-14 1.2077e-15 -0.0420613)
(-3.44174e-14 8.843e-16 -0.0416567)
(-2.95242e-14 5.40487e-16 -0.0411824)
(-2.34244e-14 2.16386e-16 -0.0406567)
(-1.67956e-14 -7.57371e-17 -0.0400997)
(-1.00152e-14 -3.31347e-16 -0.0395313)
(-3.26059e-15 -5.47487e-16 -0.0389687)
(3.22202e-15 -8.05175e-16 -0.0384262)
(9.54888e-15 7.96025e-16 -0.0379136)
(1.58071e-14 -2.72754e-15 -0.0374374)
(2.19708e-14 -2.93208e-15 -0.0370005)
(2.7869e-14 -1.35832e-15 -0.0366034)
(3.35588e-14 -3.24321e-15 -0.0362446)
(3.88909e-14 1.83735e-15 -0.0359211)
(4.38447e-14 -1.65e-15 -0.0356294)
(4.82927e-14 -3.4145e-15 -0.0353651)
(5.20339e-14 -1.6801e-15 -0.035124)
(5.50652e-14 -3.3967e-15 -0.0349021)
(5.7309e-14 1.36555e-16 -0.0346956)
(5.87954e-14 -1.47243e-15 -0.0345015)
(5.9515e-14 -3.09629e-15 -0.034317)
(5.94259e-14 -1.23315e-15 -0.0341401)
(5.85595e-14 -2.82693e-15 -0.0339693)
(5.68589e-14 8.31916e-16 -0.0338033)
(5.42935e-14 -6.60131e-16 -0.0336413)
(5.0795e-14 -2.15045e-15 -0.0334826)
(4.63041e-14 -1.3276e-16 -0.0333267)
(4.0888e-14 -1.56907e-15 -0.0331728)
(3.46449e-14 -1.28031e-15 -0.0330205)
(2.76563e-14 7.4534e-16 -0.0328691)
(2.00276e-14 -7.23783e-16 -0.0327178)
(1.19638e-14 1.25802e-15 -0.0325659)
(3.56641e-15 -2.55134e-16 -0.0324125)
(-5.06696e-15 -5.10893e-17 -0.0322567)
(-1.39206e-14 1.90277e-15 -0.0320979)
(-2.30041e-14 3.86043e-16 -0.0319352)
(-3.22156e-14 2.34137e-15 -0.0317679)
(-4.14863e-14 8.0124e-16 -0.0315955)
(-5.06664e-14 9.53822e-16 -0.0314173)
(-5.9657e-14 2.81062e-15 -0.0312328)
(-6.83518e-14 1.16416e-15 -0.0310412)
(-7.66664e-14 2.95929e-15 -0.030842)
(-8.46757e-14 -4.73792e-16 -0.0306345)
(-9.23659e-14 4.80856e-15 -0.0304178)
(-9.97925e-14 3.1737e-15 -0.0301911)
(-1.0692e-13 1.51424e-15 -0.0299535)
(-1.13552e-13 3.28518e-15 -0.0297039)
(-1.19442e-13 -2.53714e-16 -0.0294416)
(-1.24095e-13 4.77753e-15 -0.0291653)
(-1.27026e-13 2.70124e-15 -0.0288741)
(-1.27716e-13 4.06281e-16 -0.0285661)
(-1.2567e-13 1.3875e-15 -0.0282388)
(-1.20662e-13 -2.99936e-15 -0.0278884)
(-1.12666e-13 1.28459e-15 -0.0275104)
(-1.0225e-13 -1.21662e-15 -0.0271013)
(-9.06166e-14 -3.33931e-15 -0.0266614)
(-7.96621e-14 -1.31031e-15 -0.0261987)
(-7.19889e-14 -3.56998e-15 -0.02573)
(-7.03771e-14 3.94715e-15 -0.025278)
(-7.75335e-14 5.56005e-15 -0.0248598)
(-9.55238e-14 7.96936e-15 -0.0244699)
(-1.25604e-13 1.43538e-14 -0.0240608)
(-1.68512e-13 1.57256e-14 -0.0235305)
(-2.24517e-13 2.5794e-14 -0.0227273)
(-2.93538e-13 2.86968e-14 -0.0214775)
(-3.74297e-13 3.09157e-14 -0.0196335)
(-4.62967e-13 3.50798e-14 -0.0171307)
(-5.51964e-13 3.12177e-14 -0.0140324)
(-6.29635e-13 3.1934e-14 -0.0105449)
(-6.82632e-13 2.09627e-14 -0.00698959)
(-7.00305e-13 7.80002e-15 -0.0037361)
(-6.80086e-13 -4.83851e-15 -0.00111474)
(-6.31655e-13 -1.80079e-14 0.000664285)
(-5.77134e-13 -2.03231e-14 0.00155811)
(-5.4661e-13 -1.57479e-14 0.00168977)
(-5.69475e-13 8.78364e-16 0.00130046)
(-6.64156e-13 2.5645e-14 0.000674168)
(-8.2913e-13 4.60089e-14 6.15843e-05)
(-1.03809e-12 6.02353e-14 -0.000372885)
(-1.243e-12 5.44129e-14 -0.000568683)
(-1.38593e-12 3.15376e-14 -0.000553051)
(-1.41678e-12 -4.3431e-15 -0.000404283)
(-1.31067e-12 -4.91766e-14 -0.000211235)
(-1.07697e-12 -8.46012e-14 -4.29708e-05)
(-7.57065e-13 -1.07867e-13 6.49295e-05)
(-4.12018e-13 -1.08909e-13 0.000108537)
(-1.04316e-13 -8.90216e-14 0.000104304)
(1.19178e-13 -5.99819e-14 7.56078e-05)
(2.37989e-13 -2.40168e-14 4.24904e-05)
(2.59315e-13 3.30469e-15 1.68167e-05)
(2.1089e-13 2.16756e-14 2.27173e-06)
(1.29197e-13 2.9759e-14 -2.89095e-06)
(4.74248e-14 2.46243e-14 -2.54558e-06)
(-1.25414e-14 1.75582e-14 -2.69834e-07)
(-4.27458e-14 6.09626e-15 1.7466e-06)
(-4.68119e-14 -1.33905e-15 2.72118e-06)
(-3.46734e-14 -3.3918e-15 2.7668e-06)
(-1.72415e-14 -5.61224e-15 2.32389e-06)
(-2.50387e-15 -2.30744e-15 1.78727e-06)
(5.92773e-15 -1.10873e-16 1.36809e-06)
(8.15461e-15 -6.86967e-17 1.11323e-06)
(6.39586e-15 2.60623e-15 9.82807e-07)
(3.22131e-15 1.02472e-15 9.18378e-07)
(4.86613e-16 2.46157e-15 8.77813e-07)
(-9.963e-16 2.04743e-15 8.41522e-07)
(-1.31171e-15 -1.27358e-17 8.05072e-07)
(-9.33376e-16 1.57644e-15 7.69952e-07)
(-3.87665e-16 -1.69206e-16 7.38064e-07)
(4.74414e-18 1.63333e-15 7.09918e-07)
(1.77826e-16 1.71119e-15 6.8502e-07)
(1.74316e-16 1.51368e-17 6.6255e-07)
(1.07124e-16 1.76346e-15 6.41878e-07)
(3.30119e-17 1.57969e-17 6.22569e-07)
(-2.22781e-17 1.7417e-15 6.04376e-07)
(-3.41194e-17 1.74021e-15 5.87077e-07)
(-2.79178e-17 -3.10014e-18 5.70527e-07)
(-4.09096e-18 1.73249e-15 5.54574e-07)
(8.6599e-18 -7.1597e-18 5.39148e-07)
(3.67785e-19 1.73229e-15 5.2417e-07)
(-2.16744e-18 1.74071e-15 5.09627e-07)
(-6.53142e-18 1.32213e-18 4.95471e-07)
(3.3834e-18 1.73653e-15 4.81707e-07)
(7.28202e-18 -5.108e-18 4.68294e-07)
(-3.7069e-18 1.73261e-15 4.55241e-07)
(-5.23574e-18 1.7402e-15 4.42512e-07)
(-7.63363e-18 7.36583e-19 4.3012e-07)
(3.66038e-18 1.73619e-15 4.18037e-07)
(8.03214e-18 -5.18344e-18 4.06277e-07)
(-3.0674e-18 1.73267e-15 3.94811e-07)
(-4.87643e-18 1.74029e-15 3.83656e-07)
(-7.48065e-18 7.98987e-19 3.72784e-07)
(3.73806e-18 1.73621e-15 3.62211e-07)
(8.11574e-18 -5.18249e-18 3.51911e-07)
(-2.92663e-18 1.73259e-15 3.41889e-07)
(-4.81129e-18 1.74047e-15 3.32175e-07)
(-6.89148e-18 -3.03033e-19 3.22505e-07)
(1.74001e-18 1.7412e-15 3.14169e-07)
(1.9078e-17 7.90531e-18 2.98773e-07)
(-1.21856e-18 -5.6061e-20 -0.0574809)
(-1.66688e-17 -5.70061e-20 -0.0575985)
(-2.99728e-17 -1.50414e-19 -0.0578413)
(-5.25305e-17 1.4644e-18 -0.0582263)
(-6.18941e-17 -2.39787e-18 -0.0587691)
(-6.83546e-17 7.0162e-18 -0.0594781)
(-2.72196e-16 1.80279e-17 -0.0603587)
(3.27258e-16 -7.33572e-17 -0.061389)
(-4.74235e-17 -2.17359e-18 -0.0625439)
(-3.03189e-15 4.55206e-16 -0.0637629)
(-5.67269e-16 2.87938e-16 -0.0649509)
(1.38303e-14 -1.51392e-15 -0.0661269)
(2.7063e-14 -3.82476e-15 -0.0672091)
(1.46872e-14 -4.10615e-15 -0.0681642)
(-3.67353e-14 -9.53603e-16 -0.0689746)
(-1.17572e-13 4.56178e-15 -0.0696226)
(-2.00884e-13 9.79018e-15 -0.0701011)
(-2.57872e-13 1.21153e-14 -0.0704047)
(-2.68718e-13 1.07092e-14 -0.070528)
(-2.37994e-13 7.38168e-15 -0.0704664)
(-1.87057e-13 3.86426e-15 -0.0702173)
(-1.27337e-13 5.92894e-16 -0.0697824)
(-6.67303e-14 -2.10993e-15 -0.0691698)
(-1.05728e-14 -4.10652e-15 -0.0683969)
(3.81409e-14 -5.41779e-15 -0.0674909)
(7.84201e-14 -6.16425e-15 -0.0664875)
(1.10698e-13 -6.50394e-15 -0.0654272)
(1.36194e-13 -6.5892e-15 -0.0643513)
(1.56401e-13 -6.53875e-15 -0.063297)
(1.72693e-13 -6.4447e-15 -0.0622941)
(1.86121e-13 -6.34304e-15 -0.0613631)
(1.97351e-13 -6.23228e-15 -0.0605155)
(2.06668e-13 -6.11465e-15 -0.0597549)
(2.14087e-13 -5.9594e-15 -0.0590788)
(2.19499e-13 -5.7357e-15 -0.0584802)
(2.22651e-13 -5.4209e-15 -0.0579501)
(2.23312e-13 -4.99301e-15 -0.0574786)
(2.21276e-13 -4.45636e-15 -0.0570559)
(2.16446e-13 -3.82529e-15 -0.0566735)
(2.08811e-13 -3.12587e-15 -0.0563241)
(1.98498e-13 -2.38738e-15 -0.0560017)
(1.85716e-13 -1.63102e-15 -0.0557019)
(1.707e-13 -8.71664e-16 -0.0554211)
(1.53635e-13 -1.01666e-16 -0.0551567)
(1.34604e-13 7.00503e-16 -0.0549062)
(1.13591e-13 1.56028e-15 -0.0546678)
(9.05498e-14 2.49016e-15 -0.0544395)
(6.54744e-14 3.47212e-15 -0.0542192)
(3.84808e-14 4.47044e-15 -0.054005)
(9.84717e-15 5.42747e-15 -0.0537945)
(-1.99943e-14 6.29299e-15 -0.0535857)
(-5.05335e-14 8.78292e-15 -0.0533763)
(-8.12603e-14 7.65817e-15 -0.0531644)
(-1.1175e-13 8.12895e-15 -0.0529481)
(-1.41712e-13 8.50339e-15 -0.0527258)
(-1.70995e-13 8.82266e-15 -0.0524964)
(-1.99527e-13 1.0866e-14 -0.0522587)
(-2.2723e-13 9.40663e-15 -0.0520121)
(-2.5394e-13 9.61419e-15 -0.051756)
(-2.79384e-13 9.71788e-15 -0.0514898)
(-3.03227e-13 9.68967e-15 -0.0512131)
(-3.25191e-13 1.12747e-14 -0.0509253)
(-3.45149e-13 9.2955e-15 -0.0506257)
(-3.6319e-13 1.07663e-14 -0.0503133)
(-3.7954e-13 8.78693e-15 -0.0499871)
(-3.94423e-13 8.58165e-15 -0.0496457)
(-4.07872e-13 1.01298e-14 -0.0492879)
(-4.19555e-13 8.10658e-15 -0.048912)
(-4.28711e-13 9.32383e-15 -0.0485164)
(-4.34172e-13 6.67872e-15 -0.0480995)
(-4.34493e-13 5.25886e-15 -0.0476596)
(-4.28131e-13 5.01337e-15 -0.047195)
(-4.13651e-13 7.22282e-16 -0.0467031)
(-3.90002e-13 -5.53332e-16 -0.04618)
(-3.56832e-13 -5.51543e-15 -0.04562)
(-3.14894e-13 -8.51636e-15 -0.0450161)
(-2.66502e-13 -8.90503e-15 -0.0443624)
(-2.1589e-13 -1.1126e-14 -0.0436594)
(-1.69259e-13 -7.44001e-15 -0.0429197)
(-1.34263e-13 -4.22427e-15 -0.0421718)
(-1.1888e-13 3.88504e-15 -0.0414552)
(-1.29967e-13 1.6534e-14 -0.0408041)
(-1.72134e-13 2.77359e-14 -0.0402186)
(-2.47676e-13 4.36172e-14 -0.0396316)
(-3.57635e-13 5.65991e-14 -0.0388846)
(-5.02748e-13 7.13833e-14 -0.0377307)
(-6.82296e-13 8.7112e-14 -0.0358751)
(-8.91128e-13 9.66368e-14 -0.0330528)
(-1.11532e-12 1.03523e-13 -0.029124)
(-1.32906e-12 9.65397e-14 -0.0241553)
(-1.49666e-12 7.75097e-14 -0.0184538)
(-1.58192e-12 4.47404e-14 -0.0125309)
(-1.56358e-12 3.61857e-15 -0.00699897)
(-1.45095e-12 -3.50507e-14 -0.00242748)
(-1.2921e-12 -5.75681e-14 0.000795324)
(-1.16888e-12 -5.19277e-14 0.0025502)
(-1.17756e-12 -1.29438e-14 0.00299609)
(-1.3994e-12 5.41682e-14 0.00250136)
(-1.87148e-12 1.33022e-13 0.00152489)
(-2.56334e-12 1.98778e-13 0.000490031)
(-3.36765e-12 2.24899e-13 -0.000308346)
(-4.1149e-12 1.926e-13 -0.000740924)
(-4.61403e-12 9.94659e-14 -0.000825269)
(-4.70985e-12 -3.70569e-14 -0.000670714)
(-4.33597e-12 -1.84222e-13 -0.000413807)
(-3.53931e-12 -3.04755e-13 -0.00016746)
(-2.46814e-12 -3.69048e-13 4.34323e-06)
(-1.32825e-12 -3.64398e-13 8.68464e-05)
(-3.23556e-13 -2.98012e-13 9.87969e-05)
(3.98007e-13 -1.93067e-13 7.20834e-05)
(7.75911e-13 -7.98536e-14 3.55415e-05)
(8.38495e-13 1.43016e-14 6.8428e-06)
(6.78322e-13 7.26278e-14 -8.11367e-06)
(4.13647e-13 9.17741e-14 -1.1399e-05)
(1.50761e-13 7.97821e-14 -8.23362e-06)
(-4.11099e-14 5.08469e-14 -3.4121e-06)
(-1.37346e-13 1.93622e-14 2.8524e-07)
(-1.49971e-13 -4.51535e-15 2.07459e-06)
(-1.11022e-13 -1.66407e-14 2.37482e-06)
(-5.52517e-14 -1.81242e-14 1.96221e-06)
(-8.07628e-15 -1.3053e-14 1.44667e-06)
(1.89245e-14 -5.99416e-15 1.11261e-06)
(2.61035e-14 -2.45842e-16 9.89734e-07)
(2.04844e-14 2.79583e-15 9.93347e-07)
(1.03338e-14 3.32555e-15 1.03249e-06)
(1.61332e-15 2.36385e-15 1.05602e-06)
(-3.14668e-15 1.00514e-15 1.05224e-06)
(-4.16839e-15 -3.42139e-17 1.02992e-06)
(-3.00529e-15 -5.1254e-16 1.00121e-06)
(-1.27418e-15 -5.31572e-16 9.73469e-07)
(2.11973e-17 -3.24842e-16 9.48653e-07)
(5.85203e-16 -9.67395e-17 9.25865e-07)
(5.8451e-16 4.54424e-17 9.03742e-07)
(3.3388e-16 8.8822e-17 8.81565e-07)
(8.25746e-17 6.8772e-17 8.59276e-07)
(-5.94887e-17 2.97506e-17 8.37116e-07)
(-9.25963e-17 5.40694e-19 8.15308e-07)
(-6.52947e-17 -1.19408e-17 7.9395e-07)
(-2.52065e-17 -1.13633e-17 7.73044e-07)
(2.35257e-18 -6.29153e-18 7.52563e-07)
(1.18162e-17 -1.58672e-18 7.32487e-07)
(9.19041e-18 1.52762e-18 7.12818e-07)
(2.86527e-18 2.00824e-18 6.93564e-07)
(-1.68528e-18 1.54292e-18 6.74737e-07)
(-2.63359e-18 2.58413e-19 6.56339e-07)
(-1.90327e-18 -6.10377e-19 6.38374e-07)
(-1.31213e-18 -1.39213e-19 6.20836e-07)
(-1.285e-18 1.1602e-19 6.03724e-07)
(-1.34121e-18 4.82153e-19 5.87034e-07)
(-7.02075e-19 3.70805e-20 5.70761e-07)
(-2.69897e-19 -3.9852e-19 5.54901e-07)
(-5.37179e-19 1.38061e-19 5.3945e-07)
(-1.14607e-18 2.86125e-19 5.24399e-07)
(-1.43341e-18 5.28017e-19 5.09742e-07)
(-7.57955e-19 1.30616e-20 4.95475e-07)
(-2.0724e-19 -4.67316e-19 4.81575e-07)
(-3.92807e-19 1.33303e-19 4.68113e-07)
(-9.45112e-19 6.09265e-20 4.54699e-07)
(-1.34418e-18 9.101e-19 4.43118e-07)
(-2.54569e-19 1.05692e-18 4.21692e-07)
(-3.85625e-17 4.92938e-18 -0.0797284)
(-1.40011e-16 7.61427e-18 -0.0798832)
(-1.15594e-16 1.08031e-17 -0.0802063)
(-1.77669e-16 8.34496e-18 -0.0807221)
(2.09319e-17 9.32498e-20 -0.0814528)
(-6.04681e-16 9.74464e-17 -0.0824111)
(4.68161e-16 -1.99514e-16 -0.0836055)
(1.69664e-15 -1.47297e-16 -0.0850042)
(-9.10076e-15 3.36224e-15 -0.0865755)
(1.00378e-15 2.74679e-16 -0.0882274)
(5.08767e-14 -1.01367e-14 -0.0898175)
(5.1554e-14 -1.20379e-14 -0.0914034)
(-1.1043e-13 -5.16255e-16 -0.0928549)
(-4.3055e-13 3.14076e-14 -0.0941306)
(-7.72384e-13 6.53085e-14 -0.0952094)
(-9.63772e-13 8.12984e-14 -0.0960671)
(-9.01062e-13 6.98661e-14 -0.0966963)
(-5.8882e-13 3.43951e-14 -0.0970901)
(-1.25537e-13 -8.76573e-15 -0.097242)
(3.51005e-13 -3.92896e-14 -0.0971467)
(7.62224e-13 -5.37292e-14 -0.0967994)
(1.07634e-12 -5.87002e-14 -0.0962007)
(1.28676e-12 -5.71745e-14 -0.09536)
(1.40281e-12 -5.15513e-14 -0.0942986)
(1.44274e-12 -4.3956e-14 -0.0930514)
(1.42737e-12 -3.60622e-14 -0.0916651)
(1.37694e-12 -2.89628e-14 -0.0901943)
(1.30747e-12 -2.31829e-14 -0.0886957)
(1.23064e-12 -1.8797e-14 -0.0872216)
(1.15374e-12 -1.56653e-14 -0.0858146)
(1.08001e-12 -1.15327e-14 -0.0845051)
(1.01029e-12 -1.47356e-14 -0.0833107)
(9.43261e-13 -1.13004e-14 -0.0822375)
(8.76869e-13 -7.77366e-15 -0.0812824)
(8.09536e-13 -7.52523e-15 -0.0804363)
(7.3958e-13 -1.80381e-15 -0.0796862)
(6.66142e-13 -9.6232e-16 -0.0790182)
(5.8861e-13 1.83075e-17 -0.0784187)
(5.06859e-13 4.55228e-15 -0.0778756)
(4.21406e-13 5.57755e-15 -0.077379)
(3.32963e-13 1.16843e-14 -0.076921)
(2.4244e-13 1.24262e-14 -0.076496)
(1.50529e-13 1.29439e-14 -0.0760995)
(5.76145e-14 1.68152e-14 -0.0757281)
(-3.61197e-14 1.7195e-14 -0.0753791)
(-1.30776e-13 2.28589e-14 -0.0750497)
(-2.26306e-13 2.33984e-14 -0.0747374)
(-3.22455e-13 2.3884e-14 -0.074439)
(-4.18539e-13 2.76809e-14 -0.0741512)
(-5.13385e-13 2.76685e-14 -0.0738708)
(-6.05638e-13 2.89092e-14 -0.0735939)
(-6.94001e-13 3.13783e-14 -0.0733172)
(-7.77401e-13 2.98852e-14 -0.0730374)
(-8.55214e-13 3.1484e-14 -0.0727516)
(-9.27296e-13 2.93673e-14 -0.0724573)
(-9.93768e-13 2.88555e-14 -0.0721527)
(-1.05483e-12 3.00203e-14 -0.0718363)
(-1.11044e-12 2.75934e-14 -0.0715072)
(-1.16017e-12 2.84185e-14 -0.0711647)
(-1.20338e-12 2.54448e-14 -0.0708083)
(-1.23946e-12 2.38564e-14 -0.0704373)
(-1.26824e-12 2.37716e-14 -0.070051)
(-1.29017e-12 2.01647e-14 -0.0696486)
(-1.30624e-12 2.01548e-14 -0.0692289)
(-1.31756e-12 1.51427e-14 -0.0687903)
(-1.32475e-12 1.89739e-14 -0.0683312)
(-1.32749e-12 1.57394e-14 -0.0678496)
(-1.32408e-12 1.19333e-14 -0.0673433)
(-1.31158e-12 1.05937e-14 -0.0668099)
(-1.28615e-12 2.63828e-15 -0.0662473)
(-1.24359e-12 1.75655e-15 -0.0656531)
(-1.17991e-12 -7.71989e-15 -0.0650248)
(-1.09192e-12 -1.86578e-14 -0.064359)
(-9.77813e-13 -2.70218e-14 -0.0636508)
(-8.37938e-13 -4.05532e-14 -0.0628925)
(-6.75699e-13 -4.38809e-14 -0.0620745)
(-4.98623e-13 -5.07186e-14 -0.0611887)
(-3.18951e-13 -5.19606e-14 -0.0602349)
(-1.53458e-13 -4.21238e-14 -0.0592294)
(-2.16247e-14 -2.87593e-14 -0.0582105)
(5.76909e-14 1.79879e-15 -0.0572332)
(7.00931e-14 3.21873e-14 -0.0563478)
(8.2658e-15 6.68244e-14 -0.0555611)
(-1.28887e-13 1.07104e-13 -0.054789)
(-3.4033e-13 1.43262e-13 -0.0538213)
(-6.26312e-13 1.88125e-13 -0.0523208)
(-9.83455e-13 2.22887e-13 -0.0498756)
(-1.39405e-12 2.47425e-13 -0.0461044)
(-1.81479e-12 2.54047e-13 -0.0407898)
(-2.17194e-12 2.21888e-13 -0.0339968)
(-2.37353e-12 1.58361e-13 -0.0261269)
(-2.34243e-12 5.44229e-14 -0.0178767)
(-2.06115e-12 -5.76841e-14 -0.0100979)
(-1.60951e-12 -1.40579e-13 -0.00359844)
(-1.174e-12 -1.5904e-13 0.00105414)
(-1.01795e-12 -7.75895e-14 0.00366191)
(-1.41445e-12 9.95092e-14 0.00441721)
(-2.55986e-12 3.47838e-13 0.00381325)
(-4.50006e-12 6.07615e-13 0.00248198)
(-7.07515e-12 7.94094e-13 0.00101827)
(-9.90562e-12 8.36015e-13 -0.000153035)
(-1.24461e-11 6.77601e-13 -0.000833586)
(-1.41122e-11 3.29014e-13 -0.00103044)
(-1.44524e-11 -1.43375e-13 -0.000882848)
(-1.32988e-11 -6.34446e-13 -0.00057394)
(-1.08319e-11 -1.01852e-12 -0.00025969)
(-7.5326e-12 -1.2134e-12 -3.21499e-05)
(-4.0433e-12 -1.1812e-12 8.30172e-05)
(-9.85863e-13 -9.5215e-13 0.000106507)
(1.19804e-12 -6.09715e-13 7.83004e-05)
(2.33547e-12 -2.44261e-13 3.56716e-05)
(2.52064e-12 5.20995e-14 1.8713e-06)
(2.03735e-12 2.341e-13 -1.51047e-05)
(1.24249e-12 2.93539e-13 -1.77089e-05)
(4.54454e-13 2.52003e-13 -1.2555e-05)
(-1.20453e-13 1.61612e-13 -5.71807e-06)
(-4.09255e-13 6.05268e-14 -6.50813e-07)
(-4.48041e-13 -1.45011e-14 1.77783e-06)
(-3.32438e-13 -5.07514e-14 2.22409e-06)
(-1.6612e-13 -5.70853e-14 1.75667e-06)
(-2.50591e-14 -3.93956e-14 1.18197e-06)
(5.59704e-14 -1.72007e-14 8.56213e-07)
(7.78233e-14 -8.4861e-16 7.97794e-07)
(6.13114e-14 1.0491e-14 8.82823e-07)
(3.10959e-14 1.04602e-14 9.896e-07)
(5.01235e-15 9.20183e-15 1.05595e-06)
(-9.3076e-15 4.93829e-15 1.07386e-06)
(-1.24394e-14 -8.34285e-17 1.06111e-06)
(-9.00819e-15 1.29342e-16 1.03734e-06)
(-3.83399e-15 -1.68245e-15 1.01366e-06)
(5.08544e-17 7.03638e-16 9.92843e-07)
(1.74066e-15 1.42953e-15 9.73514e-07)
(1.74903e-15 1.40798e-16 9.53808e-07)
(1.00188e-15 2.01443e-15 9.32914e-07)
(2.58715e-16 2.12481e-16 9.11007e-07)
(-1.66041e-16 1.82928e-15 8.88656e-07)
(-2.7753e-16 1.74311e-15 8.66337e-07)
(-1.96008e-16 -3.6795e-17 8.44293e-07)
(-7.73387e-17 1.69866e-15 8.22583e-07)
(1.43785e-17 -2.56711e-17 8.01208e-07)
(4.50653e-17 1.72887e-15 7.80162e-07)
(2.64467e-17 1.74519e-15 7.59471e-07)
(8.03739e-18 6.75998e-18 7.39163e-07)
(-6.9043e-18 1.73928e-15 7.1927e-07)
(-7.96014e-19 -4.999e-18 6.99804e-07)
(3.5009e-18 1.73194e-15 6.80779e-07)
(-5.59532e-18 1.73989e-15 6.62192e-07)
(-4.97752e-18 7.51124e-19 6.44049e-07)
(-6.39609e-18 1.7359e-15 6.26343e-07)
(4.5416e-18 -5.7191e-18 6.09077e-07)
(8.00708e-18 1.73259e-15 5.92244e-07)
(-3.62037e-18 1.74073e-15 5.75842e-07)
(-4.88855e-18 1.24711e-18 5.59862e-07)
(-6.9983e-18 1.73602e-15 5.44301e-07)
(4.04325e-18 -5.79557e-18 5.29151e-07)
(7.82961e-18 1.73241e-15 5.14391e-07)
(-3.46364e-18 1.74084e-15 5.00093e-07)
(-5.06235e-18 1.72656e-19 4.8586e-07)
(-5.06994e-18 1.74085e-15 4.73509e-07)
(-4.7252e-18 7.36051e-18 4.50589e-07)
(4.94085e-17 1.82395e-15 -0.101173)
(1.85302e-16 1.77318e-15 -0.101356)
(1.27517e-16 1.86788e-17 -0.101742)
(2.86193e-16 1.66792e-15 -0.102364)
(5.43369e-16 1.94583e-15 -0.103251)
(-1.886e-15 1.51813e-15 -0.104421)
(9.6991e-15 -1.13263e-15 -0.105886)
(-2.05991e-14 4.73821e-15 -0.107603)
(-8.88169e-15 3.44255e-16 -0.109536)
(1.44234e-13 -3.13225e-14 -0.111553)
(4.50688e-14 -2.49601e-14 -0.113455)
(-6.59259e-13 7.91664e-14 -0.115379)
(-1.56699e-12 2.372e-13 -0.117122)
(-1.77904e-12 3.26871e-13 -0.118639)
(-6.49857e-13 2.65658e-13 -0.119913)
(1.79454e-12 7.06352e-14 -0.120917)
(4.93766e-12 -1.75951e-13 -0.121648)
(7.94114e-12 -3.75647e-13 -0.1221)
(1.00019e-11 -4.57469e-13 -0.122265)
(1.08704e-11 -4.33029e-13 -0.122133)
(1.09623e-11 -3.58804e-13 -0.1217)
(1.05034e-11 -2.61676e-13 -0.120965)
(9.68668e-12 -1.65345e-13 -0.11994)
(8.68177e-12 -8.2094e-14 -0.118647)
(7.62142e-12 -1.76964e-14 -0.117129)
(6.59404e-12 2.49997e-14 -0.115439)
(5.64945e-12 5.34463e-14 -0.113644)
(4.80885e-12 6.65626e-14 -0.11181)
(4.07465e-12 7.03278e-14 -0.110003)
(3.43825e-12 6.88411e-14 -0.108274)
(2.88423e-12 6.36608e-14 -0.106661)
(2.39456e-12 6.04616e-14 -0.105187)
(1.95161e-12 6.05798e-14 -0.103859)
(1.54103e-12 5.91547e-14 -0.102675)
(1.15237e-12 6.11608e-14 -0.101622)
(7.78905e-13 6.45275e-14 -0.100686)
(4.17228e-13 6.87776e-14 -0.0998497)
(6.59349e-14 7.51856e-14 -0.0990958)
(-2.74601e-13 7.80353e-14 -0.09841)
(-6.03188e-13 8.20804e-14 -0.0977804)
(-9.1832e-13 8.53608e-14 -0.0971977)
(-1.21884e-12 8.78616e-14 -0.0966552)
(-1.50468e-12 9.1541e-14 -0.096148)
(-1.77658e-12 9.14878e-14 -0.0956723)
(-2.03587e-12 9.31576e-14 -0.0952251)
(-2.28357e-12 9.49155e-14 -0.0948034)
(-2.51957e-12 9.66e-14 -0.094404)
(-2.74257e-12 9.95886e-14 -0.0940233)
(-2.95e-12 9.82009e-14 -0.0936573)
(-3.13875e-12 9.72441e-14 -0.0933015)
(-3.30601e-12 9.65993e-14 -0.0929514)
(-3.44986e-12 9.63989e-14 -0.0926025)
(-3.56988e-12 8.82642e-14 -0.0922504)
(-3.66727e-12 8.48112e-14 -0.0918915)
(-3.74418e-12 7.77821e-14 -0.0915226)
(-3.80305e-12 7.25897e-14 -0.0911411)
(-3.84545e-12 7.09348e-14 -0.0907454)
(-3.87158e-12 6.20733e-14 -0.0903341)
(-3.88047e-12 5.78224e-14 -0.0899065)
(-3.87067e-12 4.93647e-14 -0.0894617)
(-3.84166e-12 4.21166e-14 -0.0889992)
(-3.79469e-12 3.83665e-14 -0.088518)
(-3.73301e-12 2.8297e-14 -0.0880171)
(-3.66092e-12 2.61936e-14 -0.0874948)
(-3.58192e-12 1.80418e-14 -0.0869494)
(-3.49699e-12 1.52833e-14 -0.0863787)
(-3.40312e-12 1.15289e-14 -0.0857802)
(-3.29353e-12 1.49889e-16 -0.085151)
(-3.15842e-12 -7.90297e-15 -0.0844882)
(-2.98677e-12 -2.73184e-14 -0.0837888)
(-2.76813e-12 -4.61282e-14 -0.0830497)
(-2.49394e-12 -6.90845e-14 -0.0822678)
(-2.15875e-12 -1.00328e-13 -0.0814391)
(-1.76094e-12 -1.25809e-13 -0.0805574)
(-1.30383e-12 -1.56573e-13 -0.0796134)
(-7.97481e-13 -1.7644e-13 -0.0785952)
(-2.60347e-13 -1.85543e-13 -0.077492)
(2.7934e-13 -1.83709e-13 -0.0763025)
(7.84995e-13 -1.54368e-13 -0.0750451)
(1.21649e-12 -1.09799e-13 -0.0737655)
(1.53825e-12 -4.024e-14 -0.072532)
(1.72836e-12 4.29821e-14 -0.0714098)
(1.78328e-12 1.27226e-13 -0.0704128)
(1.71426e-12 2.19649e-13 -0.0694442)
(1.53514e-12 3.05311e-13 -0.0682484)
(1.25112e-12 3.94681e-13 -0.0664056)
(8.72661e-13 4.72716e-13 -0.0633931)
(4.49236e-13 5.12306e-13 -0.0587156)
(9.45639e-14 4.94201e-13 -0.0520756)
(-1.31807e-14 3.75911e-13 -0.043529)
(3.20335e-13 1.64493e-13 -0.0335625)
(1.20809e-12 -1.1145e-13 -0.0230484)
(2.56805e-12 -3.62845e-13 -0.013072)
(4.04855e-12 -4.78628e-13 -0.00467782)
(5.03993e-12 -3.53346e-13 0.00138581)
(4.78807e-12 7.00315e-14 0.0048387)
(2.59274e-12 7.58013e-13 0.00590231)
(-1.96877e-12 1.59697e-12 0.00519079)
(-8.86986e-12 2.39067e-12 0.00350618)
(-1.75075e-11 2.90156e-12 0.00161284)
(-2.66865e-11 2.91209e-12 6.47099e-05)
(-3.47857e-11 2.29591e-12 -0.000870681)
(-4.01231e-11 1.10262e-12 -0.00118887)
(-4.1435e-11 -4.43767e-13 -0.00105755)
(-3.82948e-11 -1.99447e-12 -0.000705089)
(-3.12791e-11 -3.18614e-12 -0.000329672)
(-2.182e-11 -3.76333e-12 -5.12351e-05)
(-1.1795e-11 -3.63776e-12 9.32804e-05)
(-3.00363e-12 -2.91868e-12 0.000125904)
(3.28517e-12 -1.85373e-12 9.41477e-05)
(6.57839e-12 -7.39421e-13 4.34197e-05)
(7.14697e-12 1.63361e-13 2.51228e-06)
(5.80054e-12 7.11702e-13 -1.83399e-05)
(3.55566e-12 8.83221e-13 -2.17894e-05)
(1.31931e-12 7.61255e-13 -1.57309e-05)
(-3.19113e-13 4.84436e-13 -7.52044e-06)
(-1.14835e-12 1.83156e-13 -1.37714e-06)
(-1.26734e-12 -4.2924e-14 1.60832e-06)
(-9.45259e-13 -1.57601e-13 2.20349e-06)
(-4.75829e-13 -1.71814e-13 1.68631e-06)
(-7.53748e-14 -1.22364e-13 1.02536e-06)
(1.56128e-13 -5.74354e-14 6.50654e-07)
(2.19825e-13 -2.91635e-15 5.87845e-07)
(1.74118e-13 2.61595e-14 6.92647e-07)
(8.8821e-14 3.14751e-14 8.2316e-07)
(1.47762e-14 2.43003e-14 9.0746e-07)
(-2.60482e-14 9.73102e-15 9.36639e-07)
(-3.51636e-14 -1.83918e-16 9.31196e-07)
(-2.55746e-14 -4.81525e-15 9.13251e-07)