/*--------------------------------*- C++ -*----------------------------------*\
  =========                 |
  \\      /  F ield         | OpenFOAM: The Open Source CFD Toolbox
   \\    /   O peration     | Website:  https://openfoam.org
    \\  /    A nd           | Version:  11
     \\/     M anipulation  |
\*---------------------------------------------------------------------------*/
FoamFile
{
    format      ascii;
    class       surfaceScalarField;
    location    "15.326998";
    object      phi;
}
// * * * * * * * * * * * * * * * * * * * * * * * * * * * * * * * * * * * * * //

dimensions      [0 3 -1 0 0 0 0];

internalField   nonuniform List<scalar> 
14638
(
0.0025022
-2.20248e-06
0.00250867
-6.46732e-06
0.00251953
-1.08576e-05
0.00253508
-1.55482e-05
0.00255572
-2.06453e-05
0.00258173
-2.60106e-05
0.00261301
-3.1283e-05
0.0026487
-3.56833e-05
0.00268704
-3.83373e-05
0.00272538
-3.83466e-05
0.00276056
-3.51786e-05
0.00279016
-2.96046e-05
0.00281234
-2.21746e-05
0.00282555
-1.32153e-05
0.00282828
-2.72466e-06
0.0028188
9.48302e-06
0.00279615
2.2645e-05
0.00276138
3.47667e-05
0.00271787
4.35156e-05
0.00267078
4.70922e-05
0.0026262
4.45723e-05
0.00259031
3.5891e-05
0.00256853
2.17877e-05
0.00256465
3.873e-06
0.0025798
-1.51515e-05
0.00261108
-3.12742e-05
0.00265089
-3.98102e-05
0.00268824
-3.73492e-05
0.00271222
-2.39862e-05
0.00271596
-3.73183e-06
0.00269841
1.7543e-05
0.00266359
3.48246e-05
0.00261826
4.53236e-05
0.00257009
4.81701e-05
0.00252662
4.34761e-05
0.00249497
3.16501e-05
0.00248161
1.33579e-05
0.00249148
-9.86872e-06
0.00252606
-3.4579e-05
0.00258098
-5.49192e-05
0.0026451
-6.41244e-05
0.00270297
-5.78693e-05
0.00274015
-3.71771e-05
0.00274847
-8.32254e-06
0.0027281
2.03697e-05
0.00268582
4.22829e-05
0.00263144
5.43783e-05
0.00257487
5.65685e-05
0.00252486
5.00112e-05
0.00248908
3.57852e-05
0.00247436
1.4712e-05
0.00248601
-1.16502e-05
0.00252552
-3.95019e-05
0.00258784
-6.23289e-05
0.00266057
-7.27273e-05
0.00272656
-6.59909e-05
0.00276964
-4.3081e-05
0.00278031
-1.06629e-05
0.00275836
2.19485e-05
0.00271154
4.68178e-05
0.00265156
5.99826e-05
0.00259019
6.13722e-05
0.00253724
5.29429e-05
0.00250049
3.6748e-05
0.00248621
1.42825e-05
0.0024988
-1.25889e-05
0.00253889
-4.00874e-05
0.00260105
-6.21571e-05
0.00267324
-7.21967e-05
0.00273932
-6.60753e-05
0.00278379
-4.44756e-05
0.00279681
-1.30158e-05
0.00277692
1.98936e-05
0.0027307
4.62178e-05
0.00266974
6.0955e-05
0.00260674
6.30006e-05
0.00255264
5.41001e-05
0.00251572
3.69244e-05
0.00250185
1.38714e-05
0.00251436
-1.25166e-05
0.0025527
-3.83349e-05
0.00261083
-5.81376e-05
0.00267738
-6.65403e-05
0.002738
-6.06208e-05
0.00277942
-4.14216e-05
0.00279307
-1.36542e-05
0.00277709
1.59845e-05
0.00273617
4.09136e-05
0.00267976
5.64136e-05
0.00261929
6.04655e-05
0.00256577
5.35254e-05
0.00252826
3.75127e-05
0.00251333
1.49296e-05
0.0025244
-1.10723e-05
0.00256051
-3.61062e-05
0.00261531
-5.48051e-05
0.00267773
-6.24173e-05
0.00273454
-5.68084e-05
0.00277398
-3.94474e-05
0.00278875
-1.47685e-05
0.00277723
1.15185e-05
0.00274307
3.41604e-05
0.00269364
4.94339e-05
0.00263826
5.53806e-05
0.00258672
5.15343e-05
0.00254819
3.85362e-05
0.00253018
1.80093e-05
0.00253731
-7.13253e-06
0.0025697
-3.23881e-05
0.00262194
-5.22403e-05
0.00268372
-6.178e-05
0.00274229
-5.8572e-05
0.00278592
-4.36249e-05
0.00280684
-2.09278e-05
0.00280275
4.09518e-06
0.00277638
2.63734e-05
0.00273393
4.24437e-05
0.00268324
5.0694e-05
0.00263246
5.07755e-05
0.00258962
4.28473e-05
0.00256226
2.73525e-05
0.0025567
5.55964e-06
0.00257633
-1.96276e-05
0.0026199
-4.35673e-05
0.00268089
-6.0992e-05
0.00274873
-6.78444e-05
0.00281151
-6.27778e-05
0.00285906
-4.75457e-05
0.0028853
-2.62422e-05
0.00288919
-3.88995e-06
0.00287417
1.50152e-05
0.00284662
2.75571e-05
0.00281385
3.27651e-05
0.00278258
3.1276e-05
0.00275799
2.45907e-05
0.00274357
1.44154e-05
0.00274112
2.45453e-06
0.00275055
-9.43514e-06
0.00276973
-1.91779e-05
0.00279455
-2.48243e-05
0.00281976
-2.52104e-05
0.00284027
-2.05094e-05
0.00285257
-1.22941e-05
0.00285563
-3.06432e-06
0.00285112
4.51413e-06
0.0028428
8.31688e-06
0.00283563
7.17159e-06
0.00283471
9.22219e-07
0.00284442
-9.70834e-06
0.00286778
-2.33637e-05
0.00290596
-3.81846e-05
0.002958
-5.20394e-05
0.00302052
-6.25138e-05
0.00308803
-6.75123e-05
0.00315315
-6.51232e-05
0.00320823
-5.50821e-05
0.00324577
-3.7536e-05
0.00326092
-1.51494e-05
0.0032533
7.61749e-06
3.93414e-05
0.00250219
-4.38817e-06
0.0025086
-1.28857e-05
0.00251939
-2.16476e-05
0.00253489
-3.10426e-05
0.00255554
-4.12971e-05
0.00258168
-5.21464e-05
0.00261326
-6.28716e-05
0.00264946
-7.18743e-05
0.00268848
-7.73616e-05
0.00272756
-7.74272e-05
0.00276334
-7.09594e-05
0.0027934
-5.96653e-05
0.00281594
-4.47151e-05
0.00282951
-2.6785e-05
0.00283257
-5.78656e-06
0.00282323
1.88255e-05
0.00280031
4.55716e-05
0.00276475
7.03197e-05
0.00272004
8.82315e-05
0.00267151
9.56175e-05
0.00262547
9.06148e-05
0.00258827
7.30936e-05
0.00256555
4.45052e-05
0.00256141
8.0136e-06
0.00257724
-3.09874e-05
0.00261025
-6.42834e-05
0.00265253
-8.20839e-05
0.00269233
-7.71539e-05
0.00271797
-4.96238e-05
0.00272213
-7.89218e-06
0.00270389
3.57845e-05
0.00266764
7.10738e-05
0.00262056
9.23994e-05
0.00257055
9.81785e-05
0.00252527
8.87626e-05
0.00249196
6.49612e-05
0.00247737
2.79488e-05
0.00248692
-1.94201e-05
0.0025226
-7.02582e-05
0.00258012
-0.000112447
0.00264775
-0.000131748
0.00270887
-0.000118989
0.00274799
-7.62972e-05
0.00275651
-1.68446e-05
0.00273487
4.20084e-05
0.00269051
8.66433e-05
0.00263385
0.000111041
0.0025751
0.00011532
0.00252307
0.000102037
0.00248548
7.33734e-05
0.00246942
3.07712e-05
0.00248068
-2.29077e-05
0.00252127
-8.00884e-05
0.0025863
-0.000127361
0.00266281
-0.000149235
0.00273251
-0.000135695
0.00277802
-8.85916e-05
0.00278917
-2.18134e-05
0.00276591
4.52113e-05
0.00271669
9.60409e-05
0.00265401
0.000122657
0.00259016
0.000125223
0.00253506
0.000108048
0.00249638
7.54235e-05
0.00248046
3.02022e-05
0.00249206
-2.41887e-05
0.00253231
-8.03329e-05
0.00259603
-0.000125883
0.00267096
-0.00014712
0.00274018
-0.000135304
0.00278735
-9.16376e-05
0.00280189
-2.75562e-05
0.00278209
3.96917e-05
0.00273473
9.358e-05
0.00267186
0.000123824
0.00260665
0.000128204
0.00255038
0.000110377
0.0025115
7.58034e-05
0.00249617
2.92003e-05
0.00250815
-2.44981e-05
0.00254721
-7.73934e-05
0.00260723
-0.000118161
0.00267623
-0.000135533
0.00273908
-0.000123476
0.00278196
-8.43007e-05
0.00279614
-2.78309e-05
0.00277987
3.22468e-05
0.00273812
8.26701e-05
0.0026805
0.000114032
0.00261861
0.000122359
0.00256357
0.000108562
0.00252472
7.63609e-05
0.00250908
3.05737e-05
0.00252055
-2.25412e-05
0.00255835
-7.39134e-05
0.0026158
-0.000112247
0.00268095
-0.000127569
0.00273969
-0.000115556
0.00277977
-7.95244e-05
0.00279389
-2.88911e-05
0.00278088
2.45285e-05
0.00274492
7.0121e-05
0.00269379
0.000100571
0.00263699
0.000112181
0.00258438
0.00010414
0.00254525
7.76617e-05
0.00252744
3.58238e-05
0.00253589
-1.55858e-05
0.00257079
-6.72883e-05
0.0026263
-0.000107749
0.00269127
-0.000126749
0.00275208
-0.000119377
0.00279642
-8.79682e-05
0.00281649
-4.09951e-05
0.00281031
1.0267e-05
0.00278124
5.54525e-05
0.00273605
8.76271e-05
0.00268302
0.000103723
0.00263056
0.00010324
0.00258681
8.65924e-05
0.00255953
5.46316e-05
0.00255524
9.85482e-06
0.0025774
-4.17849e-05
0.00262445
-9.0623e-05
0.00268918
-0.000125718
0.00276013
-0.000138794
0.00282468
-0.000127334
0.00287237
-9.52352e-05
0.00289724
-5.11083e-05
0.00289865
-5.29808e-06
0.00288058
3.30803e-05
0.00284993
5.82094e-05
0.00281445
6.8245e-05
0.00278114
6.45833e-05
0.00275542
5.03125e-05
0.00274095
2.88855e-05
0.00273964
3.7694e-06
0.00275136
-2.11633e-05
0.00277367
-4.14888e-05
0.00280188
-5.30317e-05
0.00283001
-5.3339e-05
0.00285237
-4.28638e-05
0.00286512
-2.5044e-05
0.00286728
-5.2243e-06
0.00286079
1.10006e-05
0.00284985
1.92597e-05
0.00283981
1.72113e-05
0.0028361
4.62355e-06
0.00284335
-1.6958e-05
0.00286473
-4.47437e-05
0.00290153
-7.49818e-05
0.00295288
-0.000103386
0.00301545
-0.000125082
0.0030837
-0.000135768
0.00315007
-0.000131492
0.00320659
-0.000111601
0.00324542
-7.63688e-05
0.00326149
-3.12177e-05
0.00325427
1.48405e-05
7.87845e-05
0.00250215
-6.53906e-06
0.00250846
-1.91987e-05
0.00251911
-3.22936e-05
0.00253448
-4.64173e-05
0.00255514
-6.19505e-05
0.00258152
-7.85274e-05
0.00261373
-9.50799e-05
0.00265096
-0.000109109
0.00269141
-0.000117811
0.00273201
-0.000118028
0.00276902
-0.000107967
0.00279998
-9.06258e-05
0.00282321
-6.79429e-05
0.00283742
-4.10007e-05
0.0028411
-9.45863e-06
0.00283196
2.7958e-05
0.00280838
6.91518e-05
0.00277116
0.000107548
0.00272395
0.000135436
0.00267252
0.000147051
0.00262357
0.000139565
0.00258386
0.000112797
0.0025595
6.88714e-05
0.0025551
1.24111e-05
0.00257262
-4.85032e-05
0.0026094
-0.000101064
0.00265681
-0.0001295
0.00270155
-0.000121891
0.00273024
-7.83124e-05
0.00273476
-1.24174e-05
0.00271454
5.60082e-05
0.00267494
0.000110677
0.00262405
0.000143289
0.00257029
0.000151938
0.00252153
0.000137523
0.00248523
0.000101262
0.00246865
4.45255e-05
0.00247817
-2.89428e-05
0.00251676
-0.000108845
0.0025802
-0.000175888
0.00265527
-0.000206814
0.00272284
-0.000186565
0.00276527
-0.000118727
0.00277326
-2.48372e-05
0.0027481
6.71746e-05
0.00269879
0.000135948
0.00263712
0.000172715
0.00257393
0.000178508
0.00251811
0.000157853
0.00247733
0.000114162
0.00245888
4.92213e-05
0.00246921
-3.32421e-05
0.00251126
-0.00012214
0.00258076
-0.000196863
0.00266428
-0.000232749
0.00274161
-0.000213023
0.00279269
-0.000139677
0.00280546
-3.45815e-05
0.00277977
7.09002e-05
0.00272557
0.000150245
0.00265726
0.000190966
0.00258837
0.000194113
0.0025291
0.000167311
0.00248694
0.000117592
0.00246823
4.8911e-05
0.00247845
-3.44082e-05
0.00251969
-0.000121573
0.00258709
-0.000193289
0.00266753
-0.000227553
0.00274248
-0.000210257
0.00279403
-0.000143186
0.00281065
-4.4178e-05
0.00279039
5.99513e-05
0.00274047
0.000143502
0.00267381
0.000190487
0.00260445
0.00019756
0.00254427
0.000170554
0.00250221
0.000117864
0.00248508
4.6329e-05
0.00249749
-3.69053e-05
0.00253961
-0.000119515
0.00260468
-0.000183226
0.00267906
-0.000209917
0.00274591
-0.000190325
0.0027904
-0.000128797
0.00280389
-4.13203e-05
0.00278538
5.07575e-05
0.00274066
0.000127391
0.00267995
0.000174748
0.0026151
0.000187203
0.00255748
0.000166188
0.00251687
0.000116966
0.00250111
4.63311e-05
0.00251486
-3.62915e-05
0.00255735
-0.000116397
0.00262077
-0.000175673
0.00269143
-0.000198225
0.00275354
-0.000177661
0.00279398
-0.000119966
0.00280569
-4.06039e-05
0.00278851
4.17062e-05
0.00274789
0.000110745
0.00269258
0.000155879
0.0026326
0.000172164
0.00257799
0.000158745
0.00253832
0.000117339
0.00252188
5.22555e-05
0.00253404
-2.77395e-05
0.00257468
-0.000107928
0.00263682
-0.000169889
0.00270768
-0.000197616
0.00277219
-0.000183886
0.00281724
-0.000133012
0.002835
-5.87619e-05
0.00282424
2.10342e-05
0.0027894
9.02865e-05
0.00273849
0.000138538
0.00268067
0.00016154
0.00262491
0.000159004
0.00257971
0.000131796
0.00255317
8.11686e-05
0.0025521
1.0921e-05
0.0025798
-6.94834e-05
0.00263378
-0.000144598
0.00270529
-0.000197232
0.00278138
-0.000214887
0.00284844
-0.000194388
0.00289569
-0.00014249
0.00291752
-7.29323e-05
0.00291401
-1.78979e-06
0.00289009
5.69988e-05
0.0028536
9.47036e-05
0.00281309
0.000108756
0.00277615
0.000101515
0.00274866
7.78039e-05
0.00273463
4.29127e-05
0.00273615
2.24974e-06
0.00275288
-3.7887e-05
0.00278153
-7.01454e-05
0.00281615
-8.76502e-05
0.00284939
-8.65714e-05
0.00287452
-6.79975e-05
0.00288733
-3.78522e-05
0.00288705
-4.94538e-06
0.00287628
2.17728e-05
0.00286002
3.5514e-05
0.00284441
3.28199e-05
0.00283547
1.35631e-05
0.00283821
-1.9699e-05
0.0028561
-6.26296e-05
0.00289067
-0.000109548
0.00294126
-0.000153976
0.0030046
-0.000188428
0.00307496
-0.000206126
0.00314422
-0.000200749
0.00320376
-0.000171145
0.00324495
-0.000117562
0.00326254
-4.88021e-05
0.0032552
2.21772e-05
0.000118842
0.00250209
-8.63356e-06
0.00250824
-2.53411e-05
0.00251865
-4.27024e-05
0.00253381
-6.1583e-05
0.00255443
-8.25718e-05
0.00258115
-0.000105247
0.00261428
-0.000128209
0.00265311
-0.000147939
0.00269578
-0.000160481
0.00273875
-0.000160997
0.00277763
-0.000146846
0.00280993
-0.000122924
0.00283418
-9.21916e-05
0.00284941
-5.62331e-05
0.0028541
-1.41532e-05
0.00284537
3.66937e-05
0.00282077
9.37451e-05
0.00278089
0.000147435
0.00272976
0.00018656
0.00267381
0.000203004
0.00262039
0.000192984
0.00257686
0.000156327
0.00254995
9.57821e-05
0.00254512
1.72441e-05
0.00256521
-6.85982e-05
0.00260791
-0.000143763
0.00266347
-0.000185065
0.00271603
-0.000174444
0.00274946
-0.000111748
0.00275438
-1.73323e-05
0.00273081
7.95771e-05
0.00268578
0.000155704
0.0026289
0.00020017
0.00256939
0.000211448
0.00251539
0.000191524
0.00247459
0.000142063
0.002455
6.41102e-05
0.00246448
-3.84242e-05
0.00250755
-0.000151911
0.00258023
-0.000248572
0.00266716
-0.000293736
0.00274514
-0.000264549
0.00279279
-0.000166377
0.00279961
-3.16547e-05
0.0027684
9.83831e-05
0.00271095
0.000193397
0.00264132
0.000242348
0.00257137
0.000248458
0.00250993
0.000219294
0.00246418
0.000159908
0.00244128
7.21255e-05
0.00244844
-4.04059e-05
0.00249039
-0.000164091
0.00256452
-0.000270992
0.00265729
-0.00032552
0.0027461
-0.000301826
0.00280706
-0.000200639
0.00282469
-5.2216e-05
0.00279767
9.79193e-05
0.00273745
0.000210469
0.00266126
0.000267154
0.00258489
0.000270486
0.00251931
0.000232891
0.00247187
0.000165031
0.00244929
7.1494e-05
0.00245843
-4.35492e-05
0.00250276
-0.000165909
0.00257714
-0.000267663
0.00266616
-0.00031658
0.00274856
-0.000292654
0.00280463
-0.000199251
0.00282243
-6.19771e-05
0.0028004
8.19762e-05
0.00274652
0.000197386
0.00267462
0.000262387
0.00259965
0.000272524
0.00253426
0.000235944
0.00248825
0.000163874
0.00246969
6.48917e-05
0.00248442
-5.16366e-05
0.00253275
-0.000167843
0.00260629
-0.000256762
0.0026887
-0.000292326
0.00276067
-0.000262296
0.00280623
-0.00017436
0.00281713
-5.22195e-05
0.00279378
7.41089e-05
0.00274351
0.000177654
0.0026776
0.000240665
0.00260834
0.000256463
0.00254736
0.000227166
0.00250511
0.000159209
0.00249048
6.0965e-05
0.00250883
-5.46385e-05
0.00255884
-0.00016641
0.00263084
-0.000247673
0.00270872
-0.000276105
0.00277479
-0.000243732
0.00281509
-0.000160265
0.00282288
-4.83919e-05
0.00279928
6.53038e-05
0.00275147
0.000158558
0.0026897
0.000217651
0.00262486
0.000236996
0.00256747
0.00021614
0.00252751
0.000157299
0.00251385
6.5917e-05
0.00253196
-4.58485e-05
0.00258084
-0.00015681
0.00265166
-0.000240704
0.00272958
-0.000275543
0.00279806
-0.000252365
0.00284336
-0.000178312
0.00285781
-7.32094e-05
0.00284092
3.79216e-05
0.00279843
0.000132774
0.00273979
0.000197181
0.00267542
0.00022591
0.00261517
0.000219254
0.0025682
0.00017877
0.00254314
0.000106221
0.00254702
7.04805e-06
0.00258246
-0.000104927
0.00264533
-0.00020747
0.00272479
-0.000276689
0.00280618
-0.000296272
0.00287509
-0.000263298
0.00292083
-0.000188233
0.00293836
-9.04675e-05
0.00292863
7.94716e-06
0.00289751
8.81105e-05
0.00285389
0.000138328
0.00280727
0.000155376
0.00276607
0.000142712
0.00273687
0.000107003
0.00272427
5.55162e-05
0.00273053
-4.0135e-06
0.00275475
-6.21051e-05
0.0027922
-0.000107595
0.00283495
-0.000130401
0.00287387
-0.00012549
0.0029012
-9.53256e-05
0.00291257
-4.92206e-05
0.00290779
-1.67865e-07
0.00289043
3.9133e-05
0.00286656
5.93842e-05
0.00284323
5.61481e-05
0.00282715
2.96436e-05
0.00282383
-1.63738e-05
0.00283717
-7.59764e-05
0.00286919
-0.000141564
0.00291955
-0.000204338
0.00298492
-0.000253798
0.00305899
-0.000280192
0.00313268
-0.000274443
0.00319649
-0.000234952
0.00324083
-0.000161904
0.00326039
-6.83598e-05
0.00325273
2.98367e-05
0.000159777
0.00250201
-1.0645e-05
0.0025079
-3.12333e-05
0.00251796
-5.27555e-05
0.00253279
-7.64142e-05
0.0025533
-0.000103082
0.00258041
-0.000132354
0.00261474
-0.000162541
0.00265575
-0.000188946
0.00270153
-0.00020627
0.00274782
-0.000207287
0.00278923
-0.00018825
0.00282323
-0.00015693
0.00284873
-0.000117686
0.00286529
-7.27897e-05
0.00287148
-2.03505e-05
0.0028635
4.46754e-05
0.0028377
0.000119546
0.00279426
0.000190881
0.00273776
0.000243051
0.00267558
0.000265192
0.00261595
0.000252607
0.00256704
0.000205244
0.00253641
0.000126404
0.00253073
2.29312e-05
0.00255423
-9.20997e-05
0.00260523
-0.000194761
0.00267248
-0.000252316
0.00273632
-0.000238284
0.00277653
-0.000151962
0.00278182
-2.26203e-05
0.00275326
0.000108135
0.00270045
0.000208519
0.0026352
0.000265418
0.00256783
0.000278816
0.00250672
0.000252638
0.00245972
0.000189059
0.00243562
8.82071e-05
0.00244375
-4.65475e-05
0.00249042
-0.000198582
0.00257306
-0.000331214
0.00267547
-0.000396148
0.00276975
-0.000358825
0.00282774
-0.00022437
0.00283513
-3.90462e-05
0.00279621
0.000137303
0.00272731
0.000262303
0.00264649
0.000323165
0.00256733
0.000327615
0.00249829
0.000288339
0.0024453
0.000212895
0.00241508
0.000102349
0.00241663
-4.19581e-05
0.00245804
-0.000205502
0.0025386
-0.000351554
0.00264324
-0.00043016
0.00274567
-0.000404249
0.00281831
-0.000273286
0.00284277
-7.6676e-05
0.00281607
0.000124622
0.00275028
0.000276261
0.00266527
0.000352157
0.00257962
0.000356139
0.00250573
0.000306786
0.00245151
0.00021925
0.00242497
9.80355e-05
0.00243511
-5.36991e-05
0.00248639
-0.00021718
0.00257174
-0.000353021
0.00267198
-0.00041682
0.00276233
-0.000383
0.00282148
-0.000258401
0.00283791
-7.84101e-05
0.00281151
0.000108381
0.00275164
0.000257253
0.00267313
0.000340898
0.00259157
0.000354081
0.00252031
0.000307207
0.00247038
0.000213799
0.00245164
8.36354e-05
0.00247114
-7.11377e-05
0.00252848
-0.00022518
0.00261263
-0.000340909
0.00270409
-0.000383788
0.00278122
-0.000339431
0.0028271
-0.000220243
0.00283393
-5.90466e-05
0.0028037
0.000104345
0.00274572
0.000235635
0.00267276
0.000313619
0.00259789
0.000331331
0.0025332
0.000291861
0.00248994
0.000202466
0.00247804
7.28712e-05
0.00250309
-7.96946e-05
0.00256243
-0.000225749
0.00264387
-0.000329112
0.0027289
-0.00036114
0.00279838
-0.000313209
0.00283787
-0.000199756
0.00284099
-5.15108e-05
0.00280998
9.63168e-05
0.00275369
0.000214846
0.0026841
0.000287245
0.00261335
0.000307745
0.00255276
0.000276724
0.00251303
0.000197031
0.0025035
7.54524e-05
0.00252925
-7.15999e-05
0.00258763
-0.000215189
0.00266742
-0.000320493
0.00275179
-0.000359921
0.00282322
-0.000323787
0.00286785
-0.000222946
0.00287839
-8.37518e-05
0.00285502
6.12989e-05
0.00280447
0.000183318
0.00273753
0.000264123
0.00266597
0.000297466
0.00260082
0.000284407
0.0025522
0.000227388
0.00252947
0.000128953
0.0025396
-3.08308e-06
0.00258397
-0.00014929
0.00265609
-0.00027959
0.00274274
-0.000363348
0.00282785
-0.000381376
0.00289678
-0.000332232
0.00293946
-0.000230915
0.00295173
-0.000102734
0.00293535
2.4329e-05
0.00289701
0.000126446
0.00284642
0.000188919
0.00279398
0.000207821
0.00274903
0.000187659
0.00271911
0.000136923
0.00270957
6.50544e-05
0.00272274
-1.71784e-05
0.00275655
-9.59188e-05
0.00280407
-0.000155115
0.00285489
-0.000181218
0.0028981
-0.0001687
0.00292534
-0.000122569
0.00293268
-5.65634e-05
0.00292096
1.15556e-05
0.00289493
6.51627e-05
0.00286177
9.25446e-05
0.0028294
8.85219e-05
0.00280515
5.38909e-05
0.0027951
-6.32777e-06
0.00280384
-8.47138e-05
0.00283399
-0.000171713
0.00288541
-0.000255757
0.00295418
-0.000322569
0.00303287
-0.000358878
0.00311123
-0.000352808
0.00317908
-0.000302804
0.00322631
-0.000209136
0.00324786
-8.99032e-05
0.00324009
3.76038e-05
0.000201232
0.0025019
-1.25403e-05
0.00250744
-3.67765e-05
0.00251698
-6.22998e-05
0.0025313
-9.07346e-05
0.00255156
-0.000123337
0.00257904
-0.00015984
0.00261483
-0.000198329
0.00265864
-0.000232757
0.00270861
-0.000256239
0.00275935
-0.000258026
0.00280399
-0.000232886
0.00284004
-0.000192989
0.00286701
-0.000144647
0.00288534
-9.11198e-05
0.00289379
-2.88024e-05
0.0028871
5.13608e-05
0.00285981
0.000146839
0.00281157
0.000239117
0.00274789
0.000306735
0.00267747
0.000335617
0.00260972
0.000320352
0.0025537
0.000261265
0.00251799
0.000162116
0.0025108
3.01208e-05
0.00253852
-0.000119822
0.00260067
-0.000256914
0.00268401
-0.000335653
0.00276341
-0.00031769
0.00281279
-0.000201338
0.00281826
-2.809e-05
0.00278259
0.00014381
0.00271914
0.000271962
0.00264287
0.000341687
0.00256544
0.000356253
0.00249533
0.000322749
0.00244024
0.00024415
0.00240884
0.0001196
0.0024108
-4.85016e-05
0.00245472
-0.00024251
0.00254263
-0.000419122
0.00266128
-0.000514798
0.00277911
-0.000476653
0.00285792
-0.00030318
0.00287398
-5.51068e-05
0.00282998
0.000181307
0.00274792
0.000344357
0.00265281
0.000418276
0.00256175
0.000418677
0.00248281
0.00036728
0.0024201
0.000275603
0.00238059
0.000141859
0.00237717
-3.85393e-05
0.00242214
-0.000250466
0.00251446
-0.000443879
0.0026342
-0.000549901
0.00274987
-0.00051992
0.00283141
-0.000354825
0.00286003
-0.000105292
0.00283263
0.000152025
0.00276141
0.000347475
0.00266763
0.000445942
0.00257195
0.000451818
0.00248855
0.000390183
0.00242705
0.000280753
0.00239791
0.000127177
0.00241227
-6.80612e-05
0.00247393
-0.000278841
0.00257226
-0.000451353
0.0026839
-0.000528453
0.00278128
-0.000480386
0.00284207
-0.000319191
0.00285523
-9.15645e-05
0.00282229
0.00014132
0.00275459
0.000324953
0.00266827
0.000427217
0.00257955
0.000442801
0.00250245
0.00038431
0.00244948
0.000266762
0.00243235
0.000100769
0.00245866
-9.74468e-05
0.00252617
-0.000292696
0.00262067
-0.000435408
0.00271997
-0.000483081
0.00280104
-0.000420509
0.0028466
-0.000265799
0.0028491
-6.15499e-05
0.00281161
0.000141836
0.00274521
0.000302041
0.00266438
0.000394443
0.00258336
0.000412355
0.00251507
0.000360151
0.00247177
0.000245769
0.00246412
8.05217e-05
0.00249718
-0.000112756
0.00256608
-0.000294656
0.00265595
-0.000418976
0.00274641
-0.000451601
0.00281771
-0.000384512
0.00285558
-0.000237626
0.00285403
-4.99602e-05
0.00281599
0.000134356
0.00275152
0.000279317
0.00267411
0.000364656
0.00259735
0.000384499
0.00253378
0.000340298
0.00249502
0.000235788
0.00249072
7.97593e-05
0.00252491
-0.000105795
0.00259261
-0.000282886
0.00268006
-0.00040794
0.00276889
-0.00044876
0.00284134
-0.000396235
0.0028841
-0.000265701
0.00289047
-9.01254e-05
0.00286112
9.06487e-05
0.00280339
0.00024105
0.00272895
0.000338561
0.00265078
0.000375635
0.00258121
0.00035398
0.00253162
0.000276981
0.00251213
0.000148436
0.00252934
-2.02931e-05
0.00258267
-0.000202621
0.00266287
-0.000359792
0.00275449
-0.000454965
0.00284062
-0.000467505
0.00290714
-0.000398751
0.00294509
-0.000268861
0.00295137
-0.000109016
0.00292852
4.71783e-05
0.00288379
0.000171179
0.00282741
0.000245297
0.00277049
0.000264744
0.00272332
0.000234821
0.00269457
0.000165677
0.00269036
6.92655e-05
0.00271262
-3.94356e-05
0.00275728
-0.000140585
0.00281445
-0.000212283
0.00287115
-0.000237922
0.00291533
-0.000212873
0.00293891
-0.000146149
0.00293912
-5.67766e-05
0.00291818
3.24963e-05
0.00288207
0.000101271
0.0028389
0.000135719
0.00279721
0.000130205
0.0027649
8.62052e-05
0.00274871
9.85615e-06
0.00275407
-9.00732e-05
0.00278405
-0.000201689
0.00283796
-0.000309664
0.00291047
-0.000395079
0.00299274
-0.000441149
0.00307382
-0.000433893
0.00314369
-0.000372676
0.0031925
-0.000257946
0.00321574
-0.000113139
0.00320875
4.4596e-05
0.000242044
0.00250174
-1.42783e-05
0.00250681
-4.18479e-05
0.00251565
-7.1139e-05
0.00252922
-0.000104302
0.00254898
-0.000143105
0.00257674
-0.000187599
0.00261418
-0.000235766
0.00266147
-0.000280046
0.00271691
-0.000311678
0.00277346
-0.000314575
0.00282204
-0.00028147
0.00286031
-0.000231258
0.00288867
-0.000173006
0.00290906
-0.000111506
0.00292067
-4.04192e-05
0.00291623
5.58037e-05
0.00288753
0.000175542
0.00283343
0.000293208
0.00276068
0.000379492
0.00267981
0.000416485
0.00260172
0.000398436
0.0025365
0.000326492
0.00249381
0.000204801
0.00248399
3.99452e-05
0.00251691
-0.000152742
0.00259442
-0.000334428
0.00270013
-0.000441356
0.0028004
-0.000417967
0.00286108
-0.000262009
0.00286558
-3.2595e-05
0.00281966
0.000189734
0.00274202
0.000349595
0.00265172
0.000431986
0.00256199
0.00044599
0.00248111
0.00040363
0.00241549
0.000309763
0.00237178
0.000163309
0.00235961
-3.63268e-05
0.00239327
-0.00027617
0.00248283
-0.000508685
0.00261794
-0.000649907
0.0027629
-0.000621609
0.00287037
-0.000410649
0.00290535
-9.00934e-05
0.00286393
0.000222732
0.00277108
0.000437202
0.00266024
0.000529114
0.0025547
0.000524224
0.00246336
0.000458616
0.0023892
0.000349759
0.00234123
0.000189837
0.00233747
-3.47792e-05
0.00239238
-0.000305384
0.0025008
-0.00055229
0.00263617
-0.000685273
0.00276266
-0.000646411
0.00284905
-0.000441216
0.00287753
-0.000133769
0.00284645
0.000183103
0.00276883
0.000425094
0.00266644
0.000548327
0.00256093
0.000557335
0.00246809
0.000483024
0.00240015
0.000348686
0.00237065
0.000156684
0.00239177
-8.91849e-05
0.00246473
-0.000351805
0.00257455
-0.000561168
0.00269479
-0.000648695
0.00279693
-0.000582524
0.00285849
-0.000380754
0.00286847
-0.000101539
0.00282911
0.000180672
0.00275338
0.000400691
0.00265898
0.000521612
0.00256314
0.000538638
0.00248086
0.000466589
0.00242627
0.00032136
0.00241244
0.000114598
0.00244647
-0.000131479
0.00252341
-0.00036964
0.00262596
-0.000537957
0.00273026
-0.000587376
0.00281314
-0.000503395
0.00285768
-0.000310335
0.00285651
-6.03809e-05
0.00281299
0.000185351
0.00273919
0.000375845
0.00265107
0.000482566
0.00256429
0.000499134
0.00249309
0.000431352
0.00245085
0.000288003
0.00244854
8.28359e-05
0.0024898
-0.000154016
0.00256706
-0.000371915
0.00266299
-0.000514903
0.00275621
-0.000544824
0.00282727
-0.000455573
0.00286264
-0.000272994
0.00285682
-4.41438e-05
0.00281304
0.00017814
0.00274189
0.000350464
0.00265791
0.000448634
0.00257609
0.000466325
0.00251039
0.000405995
0.00247355
0.000272627
0.00247518
7.81365e-05
0.00251763
-0.000148247
0.00259318
-0.000358438
0.00268582
-0.000500577
0.00277639
-0.000539338
0.00284766
-0.000467503
0.00288735
-0.000305384
0.00288954
-9.23215e-05
0.00285524
0.000124955
0.00279194
0.000304348
0.00271173
0.000418767
0.00262846
0.000458905
0.00255575
0.000426695
0.00250634
0.000326389
0.00249105
0.000163728
0.00251556
-4.48091e-05
0.00257681
-0.000263869
0.0026627
-0.000445686
0.00275613
-0.000548389
0.00284018
-0.000551559
0.00290188
-0.00046045
0.00293368
-0.00030066
0.00293361
-0.00010894
0.00290484
7.5946e-05
0.00285496
0.000221056
0.00279449
0.000305767
0.00273505
0.000324186
0.0026879
0.000281971
0.00266286
0.000190718
0.00266653
6.55927e-05
0.00269955
-7.24558e-05
0.0027548
-0.000195832
0.00281902
-0.000276509
0.00287735
-0.000296254
0.00291781
-0.000253328
0.00293374
-0.000162082
0.00292412
-4.71569e-05
0.00289261
6.40067e-05
0.00284618
0.000147704
0.00279348
0.000188415
0.00274344
0.000180248
0.00270445
0.000125195
0.00268411
3.02e-05
0.00268848
-9.44491e-05
0.00272022
-0.000233423
0.00277693
-0.00036638
0.00285143
-0.000469571
0.00293407
-0.00052379
0.00301437
-0.000514195
0.00308345
-0.000441755
0.00313228
-0.000306778
0.00315691
-0.000137772
0.00315199
4.95204e-05
0.000280582
0.00250153
-1.58091e-05
0.00250598
-4.6298e-05
0.00251387
-7.90259e-05
0.00252636
-0.000116791
0.00254529
-0.000162035
0.00257309
-0.000215397
0.00261227
-0.000274951
0.00266377
-0.000331546
0.00272631
-0.000374222
0.0027904
-0.000378658
0.00284372
-0.00033479
0.00288426
-0.000271801
0.00291387
-0.000202619
0.00293682
-0.000134455
0.00295306
-5.66535e-05
0.00295219
5.66744e-05
0.00292196
0.00020577
0.00286028
0.00035489
0.00277587
0.0004639
0.00268191
0.000510441
0.00259107
0.000489272
0.00251435
0.000403216
0.0024624
0.000256754
0.00244843
5.39154e-05
0.0024878
-0.000192119
0.00258615
-0.00043277
0.00272281
-0.000578019
0.0028516
-0.000546759
0.00292612
-0.000336526
0.00292701
-3.34877e-05
0.00286576
0.000250984
0.0027691
0.000446261
0.00266133
0.000539755
0.00255721
0.000550102
0.00246389
0.000496958
0.00238439
0.00038926
0.00232239
0.000225312
0.00229169
-5.62939e-06
0.00231792
-0.000302397
0.00241683
-0.000607595
0.00257218
-0.000805261
0.00274042
-0.000789846
0.00287082
-0.000541049
0.00292453
-0.000143808
0.00289088
0.000256386
0.00279228
0.000535797
0.00266731
0.000654087
0.00254608
0.000645452
0.00244052
0.000564176
0.00235487
0.000435413
0.00230189
0.000242817
0.00230335
-3.62449e-05
0.0023716
-0.000373626
0.00249476
-0.00067545
0.00264143
-0.000831943
0.00277472
-0.000779704
0.00286372
-0.000530217
0.00289083
-0.000160878
0.00285514
0.000218793
0.0027708
0.000509438
0.00266028
0.000658841
0.00254581
0.00067181
0.00244472
0.000584108
0.00237224
0.000421168
0.00234453
0.000184399
0.00237326
-0.000117915
0.00245581
-0.000434357
0.00257329
-0.000678643
0.00269784
-0.000773249
0.00280164
-0.000686325
0.00286309
-0.000442204
0.00287105
-0.000109499
0.00282735
0.000224375
0.00274537
0.00048267
0.0026441
0.000622884
0.00254211
0.000640622
0.0024559
0.000552803
0.00240122
0.000376036
0.00239183
0.000123992
0.00243324
-0.000172892
0.00251744
-0.000453841
0.00262472
-0.000645229
0.00273066
-0.00069332
0.00281296
-0.000585697
0.00285566
-0.000353034
0.00285166
-5.63853e-05
0.00280409
0.000232928
0.00272507
0.000454858
0.00263145
0.000576194
0.00254028
0.000590297
0.00246741
0.000504228
0.00242737
0.000328044
0.00243086
7.93461e-05
0.00247945
-0.000202614
0.00256279
-0.00045525
0.00266174
-0.000613859
0.00275485
-0.000637926
0.00282365
-0.000524374
0.00285574
-0.00030509
0.00284622
-3.46181e-05
0.00279831
0.000226049
0.00272261
0.000426167
0.00263412
0.000537124
0.00254895
0.000551494
0.00248255
0.000472392
0.00244867
0.000306509
0.00245644
7.03658e-05
0.00250604
-0.000197846
0.00258703
-0.000439426
0.0026818
-0.000595346
0.00277128
-0.000628819
0.00283936
-0.000535588
0.00287507
-0.000341093
0.00287331
-9.05658e-05
0.00283528
0.000162992
0.00276832
0.000371303
0.00268451
0.000502575
0.00259821
0.000545211
0.00252416
0.000500741
0.00247641
0.000374137
0.00246612
0.000174026
0.00249749
-7.6178e-05
0.00256464
-0.000331022
0.00265306
-0.00053411
0.00274487
-0.000640198
0.00282398
-0.000630672
0.00287896
-0.000515421
0.00290371
-0.000325416
0.00289728
-0.000102508
0.00286336
0.000109868
0.00280971
0.000274707
0.00274697
0.000368505
0.00268721
0.000383944
0.00264268
0.0003265
0.00262419
0.000209206
0.00263801
5.17737e-05
0.00268214
-0.000116587
0.00274552
-0.000259213
0.002812
-0.000342988
0.0028663