/*--------------------------------*- C++ -*----------------------------------*\
  =========                 |
  \\      /  F ield         | OpenFOAM: The Open Source CFD Toolbox
   \\    /   O peration     | Website:  https://openfoam.org
    \\  /    A nd           | Version:  11
     \\/     M anipulation  |
\*---------------------------------------------------------------------------*/
FoamFile
{
    format      ascii;
    class       volVectorField;
    location    "15.221858";
    object      vorticity;
}
// * * * * * * * * * * * * * * * * * * * * * * * * * * * * * * * * * * * * * //

dimensions      [0 0 -1 0 0 0 0];

internalField   nonuniform List<vector> 
7132
(
(-9.401e-17 -1.94124e-15 -0.00819098)
(-3.03323e-16 -1.84879e-15 -0.00829439)
(-2.9333e-16 -4.54192e-17 -0.00860256)
(-3.67716e-16 -1.84707e-15 -0.00909577)
(-4.88608e-16 -1.79446e-15 -0.00969829)
(-4.50415e-16 4.2466e-17 -0.0103099)
(-3.80313e-16 6.26352e-17 -0.0108323)
(-2.94245e-16 5.69946e-17 -0.011186)
(-3.14831e-16 4.94604e-17 -0.0113295)
(-2.81426e-16 3.83446e-17 -0.0112604)
(-2.11538e-16 2.70229e-17 -0.0110158)
(-1.83715e-16 1.79139e-17 -0.0106807)
(-1.86848e-16 1.41804e-17 -0.0103475)
(-1.70848e-16 2.02213e-17 -0.0101201)
(-1.25897e-16 -1.71252e-15 -0.0100633)
(-8.07781e-17 -1.72698e-15 -0.0101891)
(-5.28465e-17 -1.73832e-15 -0.010454)
(-3.6649e-17 2.79053e-18 -0.0107664)
(-7.54519e-18 -1.74105e-15 -0.0110115)
(-6.08701e-17 -1.74087e-15 -0.0110745)
(-1.29417e-16 1.72101e-17 -0.0108652)
(2.19412e-17 2.08812e-17 -0.0103582)
(5.61723e-17 1.57803e-16 -0.00966708)
(-5.44e-15 6.07552e-16 -0.00899211)
(-1.93919e-14 2.36274e-15 -0.00849052)
(-2.56298e-14 -1.40072e-16 -0.00826927)
(-1.54063e-14 -5.9989e-16 -0.0084427)
(-3.99493e-15 -4.74133e-16 -0.00910135)
(9.02901e-16 -5.22678e-16 -0.0101427)
(1.29377e-15 1.90095e-15 -0.0112774)
(-5.84217e-15 6.27489e-15 -0.0122145)
(1.16337e-15 5.37348e-15 -0.0127461)
(6.8662e-14 -4.11181e-14 -0.0127518)
(-5.78546e-14 -1.21966e-13 -0.0121945)
(-1.05917e-12 1.5404e-13 -0.011152)
(-8.57884e-13 2.00748e-12 -0.00989975)
(1.301e-11 6.06274e-12 -0.0088795)
(5.51389e-11 9.02824e-12 -0.00835873)
(1.02923e-10 5.77066e-12 -0.00824447)
(1.0918e-10 -2.41903e-12 -0.00832688)
(7.30232e-11 -7.98576e-12 -0.00867706)
(3.20615e-11 -7.40624e-12 -0.00959133)
(7.5693e-12 -4.10347e-12 -0.0110732)
(-8.71188e-13 -1.51294e-12 -0.012692)
(-2.12272e-12 1.84612e-13 -0.0139439)
(-1.6322e-12 1.80763e-12 -0.0144926)
(5.00793e-12 2.42934e-12 -0.0142363)
(2.06549e-11 -3.31523e-12 -0.0132934)
(-5.45829e-12 -2.80946e-11 -0.0119387)
(-2.45076e-10 -8.61395e-11 -0.0105593)
(-9.73314e-10 -1.63426e-10 -0.00951189)
(-2.27833e-09 -1.97977e-10 -0.00885744)
(-3.63432e-09 -1.28068e-10 -0.00859567)
(-4.17423e-09 2.42401e-11 -0.00881707)
(-3.58767e-09 1.52214e-10 -0.00955522)
(-2.34906e-09 1.77948e-10 -0.0108768)
(-1.11389e-09 1.34007e-10 -0.0127203)
(-3.08653e-10 8.00874e-11 -0.0144743)
(3.47986e-11 2.81564e-11 -0.0155921)
(1.24156e-10 -1.00409e-11 -0.0158832)
(1.24694e-10 2.70006e-11 -0.0153135)
(-7.77436e-11 2.50839e-10 -0.0136635)
(-1.00059e-09 7.49676e-10 -0.010317)
(-3.43042e-09 1.4747e-09 -0.00449879)
(-7.89288e-09 2.17294e-09 0.0040395)
(-1.38976e-08 2.44917e-09 0.0143607)
(-1.96685e-08 1.99232e-09 0.0241346)
(-2.29015e-08 8.28651e-10 0.0303169)
(-2.21678e-08 -6.46333e-10 0.0304716)
(-1.78717e-08 -1.89681e-09 0.0240358)
(-1.18956e-08 -2.51503e-09 0.0128349)
(-6.27359e-09 -2.3856e-09 0.000375875)
(-2.26808e-09 -1.71302e-09 -0.00980856)
(-1.33994e-10 -8.67914e-10 -0.015631)
(5.538e-10 -1.40845e-10 -0.0168038)
(3.59928e-10 3.94382e-10 -0.0141896)
(-3.72791e-10 8.1283e-10 -0.00897415)
(-1.54424e-09 1.1764e-09 -0.0022932)
(-3.08378e-09 1.44428e-09 0.00485589)
(-4.75758e-09 1.50451e-09 0.0119948)
(-6.18082e-09 1.26574e-09 0.0192657)
(-6.97682e-09 7.29196e-10 0.026618)
(-6.92691e-09 3.13814e-14 0.0327071)
(-6.05258e-09 -7.52277e-10 0.034932)
(-4.61779e-09 -1.34851e-09 0.0311251)
(-3.01091e-09 -1.64114e-09 0.0214305)
(-1.59301e-09 -1.57429e-09 0.00853044)
(-5.77243e-10 -1.25141e-09 -0.00360886)
(1.56547e-11 -9.00367e-10 -0.0117394)
(3.06354e-10 -7.20918e-10 -0.0149292)
(4.55495e-10 -7.55425e-10 -0.0146978)
(5.79433e-10 -9.02475e-10 -0.0136862)
(7.23883e-10 -1.03076e-09 -0.0137802)
(8.85718e-10 -1.06881e-09 -0.0147014)
(1.04152e-09 -1.01206e-09 -0.0143089)
(1.16529e-09 -8.7933e-10 -0.0104354)
(1.23901e-09 -6.69742e-10 -0.00274372)
(1.25297e-09 -3.45324e-10 0.00669105)
(1.19879e-09 1.46622e-10 0.0144439)
(1.07207e-09 7.95661e-10 0.0177043)
(8.77343e-10 1.43596e-09 0.0154207)
(6.36616e-10 1.76603e-09 0.00854379)
(3.99057e-10 1.54341e-09 -0.000653834)
(2.35079e-10 8.01137e-10 -0.0100907)
(2.10894e-10 -1.4969e-10 -0.0190816)
(3.57313e-10 -9.44489e-10 -0.0281818)
(6.5145e-10 -1.38537e-09 -0.0378258)
(1.02223e-09 -1.47999e-09 -0.0468616)
(1.37667e-09 -1.34367e-09 -0.0526966)
(1.63048e-09 -1.09684e-09 -0.0529807)
(1.73046e-09 -8.18341e-10 -0.0471153)
(1.66531e-09 -5.33837e-10 -0.036545)
(1.46459e-09 -2.10997e-10 -0.0239587)
(1.18439e-09 2.23127e-10 -0.0119801)
(8.84199e-10 8.05238e-10 -0.0025682)
(6.0837e-10 1.43061e-09 0.00283594)
(3.82829e-10 1.84048e-09 0.00336919)
(2.2287e-10 1.78216e-09 -0.00124019)
(1.39298e-10 1.22549e-09 -0.0108029)
(1.35929e-10 4.08428e-10 -0.0247021)
(2.03101e-10 -3.39879e-10 -0.0416598)
(3.15578e-10 -8.1013e-10 -0.0592611)
(4.39557e-10 -9.77789e-10 -0.0739117)
(5.44634e-10 -9.31454e-10 -0.0821266)
(6.11774e-10 -7.78056e-10 -0.0821841)
(6.3387e-10 -5.94102e-10 -0.074773)
(6.12355e-10 -4.18918e-10 -0.0623681)
(5.54638e-10 -2.60264e-10 -0.0480002)
(4.73026e-10 -9.7139e-11 -0.0340298)
(3.82286e-10 1.10047e-10 -0.0215855)
(2.94951e-10 3.88617e-10 -0.0111318)
(2.18842e-10 7.12706e-10 -0.00311643)
(1.58536e-10 9.90537e-10 0.0015903)
(1.17924e-10 1.10857e-09 0.00168519)
(1.00106e-10 1.00519e-09 -0.00405679)
(1.04727e-10 7.10882e-10 -0.0159947)
(1.26253e-10 3.24297e-10 -0.0329468)
(1.55052e-10 -4.67917e-11 -0.0520505)
(1.81143e-10 -3.31183e-10 -0.0695366)
(1.9788e-10 -5.04804e-10 -0.082029)
(2.03323e-10 -5.76669e-10 -0.0876158)
(1.9921e-10 -5.69944e-10 -0.0861981)
(1.88871e-10 -5.09403e-10 -0.0790843)
(1.75381e-10 -4.16656e-10 -0.0681058)
(1.60844e-10 -3.09562e-10 -0.0549808)
(1.46473e-10 -2.0199e-10 -0.0409796)
(1.32883e-10 -1.0291e-10 -0.0268412)
(1.20101e-10 -1.61661e-11 -0.0128805)
(1.07526e-10 5.8142e-11 0.000737869)
(9.43968e-11 1.21553e-10 0.0136726)
(8.07454e-11 1.75704e-10 0.0252675)
(6.83907e-11 2.21875e-10 0.0347105)
(6.09458e-11 2.61322e-10 0.0413089)
(6.23225e-11 2.95876e-10 0.0447743)
(7.4406e-11 3.27672e-10 0.0451257)
(9.53161e-11 3.59668e-10 0.0425707)
(1.19686e-10 3.94444e-10 0.0370119)
(1.39811e-10 4.13313e-10 0.0288143)
(1.54177e-10 5.32889e-10 0.0209895)
(1.44328e-10 3.25917e-10 0.00605193)
(-9.50112e-17 -8.48312e-18 -0.0244877)
(-3.17887e-16 -1.41912e-17 -0.0247952)
(-3.2288e-16 -1.44932e-17 -0.0257236)
(-4.08602e-16 -1.63969e-17 -0.027226)
(-5.49061e-16 -1.66891e-17 -0.0290875)
(-5.27905e-16 -9.98722e-18 -0.0310118)
(-4.67436e-16 -1.54494e-17 -0.032698)
(-4.37456e-16 2.42536e-17 -0.0338887)
(-3.25505e-16 1.77777e-15 -0.0344306)
(-1.91903e-16 -1.33021e-17 -0.0342801)
(-2.32331e-16 -2.18323e-17 -0.0335048)
(-4.64178e-16 1.74029e-15 -0.0323182)
(-5.88075e-16 7.74689e-18 -0.0309584)
(-4.64972e-16 -9.40712e-18 -0.0296902)
(-2.75024e-16 -2.11402e-17 -0.0287309)
(-1.23343e-16 -2.62436e-17 -0.0282286)
(-2.21256e-17 -2.73578e-17 -0.028239)
(4.92873e-17 -1.98601e-17 -0.0287129)
(5.81612e-18 9.17125e-18 -0.0295231)
(-3.22984e-16 5.13965e-17 -0.0304891)
(-1.05407e-16 -2.75836e-17 -0.0314145)
(-4.56468e-16 -7.19136e-17 -0.0321444)
(-1.1522e-14 2.88877e-15 -0.032658)
(2.30118e-14 1.03316e-14 -0.0329682)
(1.83261e-13 1.07229e-14 -0.0329372)
(2.46064e-13 -2.13287e-15 -0.0323766)
(1.26531e-13 -1.14173e-14 -0.0313393)
(2.69583e-14 -8.62874e-15 -0.0301871)
(3.36352e-15 -3.17041e-15 -0.0292715)
(-1.66045e-14 3.53537e-15 -0.028751)
(-6.10779e-14 8.07482e-15 -0.0286159)
(2.26054e-13 -3.53447e-14 -0.0287457)
(8.91435e-13 -1.33439e-14 -0.0289919)
(-2.94538e-12 4.40211e-13 -0.0293036)
(-1.80112e-11 5.50589e-13 -0.0298495)
(6.73636e-12 -5.02711e-12 -0.031101)
(2.85978e-10 -2.19374e-11 -0.0336933)
(1.01295e-09 -3.59302e-11 -0.0375373)
(1.83445e-09 -2.12517e-11 -0.0409233)
(2.01773e-09 1.25259e-11 -0.0415967)
(1.42279e-09 3.05735e-11 -0.0392703)
(6.42311e-10 2.5319e-11 -0.0358179)
(1.59268e-10 1.23611e-11 -0.0330134)
(-1.66865e-11 3.33134e-12 -0.0313654)
(-4.20678e-11 5.61646e-13 -0.030587)
(-2.13801e-11 -1.7577e-12 -0.0301856)
(5.40341e-11 -8.71592e-12 -0.0299362)
(1.77369e-10 1.91615e-12 -0.0300612)
(-1.44739e-10 1.04769e-10 -0.0306678)
(-2.49567e-09 3.97785e-10 -0.0305852)
(-9.16759e-09 8.53201e-10 -0.0271623)
(-2.046e-08 1.13253e-09 -0.0190892)
(-3.1873e-08 8.19879e-10 -0.010074)
(-3.64478e-08 9.14879e-13 -0.00663536)
(-3.13219e-08 -7.60373e-10 -0.011314)
(-2.03384e-08 -1.05895e-09 -0.020512)
(-9.64272e-09 -8.86195e-10 -0.028948)
(-2.76055e-09 -4.94256e-10 -0.0335779)
(2.00186e-10 -1.88248e-10 -0.0344887)
(8.80684e-10 -5.49904e-11 -0.0334659)
(6.90305e-10 1.27949e-10 -0.0318474)
(-3.99391e-10 8.13483e-10 -0.0291125)
(-4.04856e-09 2.42601e-09 -0.0227444)
(-1.25224e-08 4.92085e-09 -0.00957216)
(-2.65983e-08 7.40651e-09 0.0117209)
(-4.39381e-08 8.33697e-09 0.0390175)
(-5.97053e-08 6.49432e-09 0.067314)
(-6.87171e-08 2.07832e-09 0.0894947)
(-6.7554e-08 -3.16127e-09 0.0974474)
(-5.6318e-08 -7.0329e-09 0.0860435)
(-3.90863e-08 -8.31407e-09 0.0577754)
(-2.16273e-08 -7.19936e-09 0.0222756)
(-8.3931e-09 -4.78283e-09 -0.00902193)
(-9.2214e-10 -2.27885e-09 -0.028583)
(1.69532e-09 -3.87808e-10 -0.0349574)
(1.18879e-09 8.57679e-10 -0.0312459)
(-1.16032e-09 1.76492e-09 -0.0223768)
(-4.68608e-09 2.53189e-09 -0.0128707)
(-8.79572e-09 3.05094e-09 -0.0049418)
(-1.26513e-08 3.05302e-09 0.00327221)
(-1.54621e-08 2.37536e-09 0.0166919)
(-1.68279e-08 1.10225e-09 0.0383098)
(-1.66544e-08 -4.6209e-10 0.0643451)
(-1.49509e-08 -1.90683e-09 0.08457)
(-1.19327e-08 -2.86935e-09 0.0884299)
(-8.20187e-09 -3.15353e-09 0.0723432)
(-4.59644e-09 -2.79112e-09 0.0419321)
(-1.80162e-09 -2.05575e-09 0.00858462)
(-5.60982e-11 -1.34216e-09 -0.0173784)
(8.33718e-10 -9.40839e-10 -0.0326409)
(1.24913e-09 -8.91962e-10 -0.0416369)
(1.51854e-09 -1.03667e-09 -0.051472)
(1.82715e-09 -1.1839e-09 -0.064952)
(2.22964e-09 -1.22762e-09 -0.0772355)
(2.67023e-09 -1.15185e-09 -0.0793714)
(3.02816e-09 -9.78076e-10 -0.0652392)
(3.20794e-09 -7.1358e-10 -0.035857)
(3.1957e-09 -3.25211e-10 0.000954234)
(3.022e-09 2.37075e-10 0.034024)
(2.70309e-09 9.56385e-10 0.0536844)
(2.23648e-09 1.65369e-09 0.0551889)
(1.65226e-09 2.00517e-09 0.0399837)
(1.06652e-09 1.74418e-09 0.0138846)
(6.66797e-10 8.9522e-10 -0.0174459)
(6.24216e-10 -2.10806e-10 -0.0518634)
(9.97099e-10 -1.16476e-09 -0.0894167)
(1.69772e-09 -1.71782e-09 -0.127682)
(2.5405e-09 -1.84261e-09 -0.159093)
(3.32513e-09 -1.64779e-09 -0.174309)
(3.89495e-09 -1.27374e-09 -0.168313)
(4.15475e-09 -8.35751e-10 -0.143088)
(4.07097e-09 -4.009e-10 -0.105552)
(3.67357e-09 2.946e-11 -0.0639485)
(3.05265e-09 5.13325e-10 -0.0252902)
(2.33099e-09 1.09325e-09 0.00504424)
(1.62291e-09 1.68129e-09 0.0228095)
(1.01812e-09 2.03323e-09 0.0249792)
(5.85273e-10 1.90392e-09 0.00990637)
(3.68519e-10 1.26896e-09 -0.0226187)
(3.69802e-10 3.7653e-10 -0.0705779)
(5.38562e-10 -4.29701e-10 -0.127962)
(7.88501e-10 -9.28357e-10 -0.183767)
(1.03407e-09 -1.09232e-09 -0.224549)
(1.22014e-09 -1.01756e-09 -0.240433)
(1.32793e-09 -8.22672e-10 -0.229761)
(1.36154e-09 -5.9439e-10 -0.198702)
(1.33051e-09 -3.793e-10 -0.156992)
(1.24144e-09 -1.90599e-10 -0.113446)
(1.10211e-09 -1.09617e-11 -0.0735133)
(9.28684e-10 1.99088e-10 -0.0393447)
(7.41077e-10 4.7034e-10 -0.0115748)
(5.58671e-10 7.80915e-10 0.00876847)
(4.01946e-10 1.041e-09 0.0189789)
(2.93792e-10 1.13779e-09 0.0148681)
(2.52363e-10 1.0118e-09 -0.00721985)
(2.79124e-10 6.9781e-10 -0.0474539)
(3.54269e-10 2.99136e-10 -0.100482)
(4.44645e-10 -7.42366e-11 -0.156084)
(5.1883e-10 -3.52595e-10 -0.202732)
(5.58849e-10 -5.15893e-10 -0.231831)
(5.62839e-10 -5.77332e-10 -0.240104)
(5.39959e-10 -5.62717e-10 -0.229312)
(5.02524e-10 -4.97489e-10 -0.204234)
(4.60268e-10 -4.0264e-10 -0.170284)
(4.18582e-10 -2.95106e-10 -0.132116)
(3.79212e-10 -1.88008e-10 -0.0928683)
(3.41508e-10 -8.97226e-11 -0.0540904)
(3.0318e-10 -3.48776e-12 -0.0163362)
(2.60739e-10 7.09956e-11 0.0199475)
(2.11706e-10 1.34946e-10 0.0535704)
(1.58578e-10 1.88709e-10 0.0825709)
(1.11421e-10 2.31776e-10 0.105133)
(8.5347e-11 2.64356e-10 0.120386)
(9.31811e-11 2.89149e-10 0.128591)
(1.38261e-10 3.11177e-10 0.130239)
(2.11649e-10 3.3703e-10 0.125628)
(2.95286e-10 3.722e-10 0.113877)
(3.65977e-10 3.96067e-10 0.0950916)
(4.17216e-10 5.30634e-10 0.077213)
(4.02969e-10 3.30843e-10 0.038464)
(-2.97884e-18 -6.54066e-20 -0.0405342)
(-3.4482e-17 -1.28686e-19 -0.041043)
(-6.34171e-17 -6.15074e-20 -0.0426021)
(-9.8779e-17 7.48794e-19 -0.0451446)
(-1.38329e-16 -8.08993e-20 -0.0483183)
(-1.55398e-16 1.65365e-18 -0.0516301)
(-3.08146e-16 1.74108e-17 -0.0545682)
(-2.51138e-16 -4.18418e-19 -0.0566816)
(5.39333e-16 -7.33161e-17 -0.0576868)
(1.28357e-17 -2.1795e-17 -0.0574726)
(-2.98607e-15 1.69937e-16 -0.0561082)
(-5.39443e-15 1.95786e-16 -0.0539223)
(-4.07771e-15 7.80106e-18 -0.0512631)
(-8.93931e-16 -1.36304e-16 -0.0485675)
(9.59229e-16 -1.48614e-16 -0.0462184)
(1.41949e-15 -1.18709e-16 -0.0445435)
(1.28236e-15 -8.99144e-17 -0.0438038)
(8.475e-16 -1.11803e-17 -0.0441441)
(-6.17249e-16 1.79808e-16 -0.045591)
(-1.78598e-15 4.94599e-17 -0.0480264)
(4.55452e-15 8.39521e-17 -0.0511898)
(-3.39444e-14 5.72915e-15 -0.0547122)
(-1.20147e-13 -1.15763e-14 -0.0581494)
(1.00535e-12 -9.67841e-14 -0.0609082)
(4.2319e-12 -1.10898e-13 -0.0622043)
(5.94159e-12 2.8225e-14 -0.0612958)
(3.79866e-12 1.08953e-13 -0.0580199)
(1.11649e-12 6.11097e-14 -0.0530426)
(4.41848e-14 2.12587e-14 -0.0474615)
(-2.76289e-13 3.23734e-14 -0.0424034)
(-2.12524e-13 -1.16776e-13 -0.0387773)
(2.01897e-12 -4.7259e-13 -0.0371455)
(2.68747e-12 1.54459e-12 -0.0377328)
(-2.43554e-11 9.3276e-12 -0.0405817)
(-7.20138e-11 -4.68856e-12 -0.0457709)
(1.4589e-10 -1.49989e-10 -0.0537122)
(1.28781e-09 -4.97047e-10 -0.0650895)
(3.55646e-09 -7.65207e-10 -0.0788386)
(5.95824e-09 -4.96619e-10 -0.09019)
(6.85553e-09 2.03411e-10 -0.0929514)
(5.45295e-09 6.7972e-10 -0.0851059)
(2.90077e-09 6.24351e-10 -0.0710149)
(9.49436e-10 3.25395e-10 -0.0567425)
(3.27801e-11 9.91531e-11 -0.0454353)
(-1.95072e-10 2.52966e-12 -0.0379765)
(-1.00193e-10 -4.62451e-11 -0.0343525)
(2.71539e-10 -9.69469e-11 -0.0346578)
(6.12964e-10 9.60712e-11 -0.03879)
(-1.4832e-09 1.30842e-09 -0.0436978)
(-1.19006e-08 4.42528e-09 -0.0403791)
(-3.67631e-08 8.81872e-09 -0.0178258)
(-7.41321e-08 1.11547e-08 0.02439)
(-1.10057e-07 7.86585e-09 0.0691907)
(-1.26036e-07 -2.51293e-10 0.0916986)
(-1.12693e-07 -7.90248e-09 0.0783631)
(-7.79483e-08 -1.06617e-08 0.038641)
(-4.02836e-08 -8.65492e-09 -0.00392757)
(-1.34844e-08 -4.84136e-09 -0.0316405)
(-4.99501e-10 -1.79246e-09 -0.0414376)
(3.06605e-09 -2.55101e-10 -0.0406124)
(2.32591e-09 6.67038e-10 -0.0370706)
(-1.21074e-09 2.62028e-09 -0.0329192)
(-9.66949e-09 6.81119e-09 -0.0249674)
(-2.52173e-08 1.27496e-08 -0.00971716)
(-4.6045e-08 1.78808e-08 0.013015)
(-6.66921e-08 1.90026e-08 0.0428964)
(-8.25689e-08 1.43818e-08 0.0819378)
(-9.20384e-08 4.75304e-09 0.127545)
(-9.36527e-08 -6.8459e-09 0.164574)
(-8.47277e-08 -1.61307e-08 0.172057)
(-6.51325e-08 -1.98604e-08 0.141129)
(-4.03127e-08 -1.77322e-08 0.0840316)
(-1.81075e-08 -1.20656e-08 0.0245212)
(-3.68627e-09 -5.91212e-09 -0.0179558)
(2.30775e-09 -1.19631e-09 -0.0372384)
(2.03161e-09 1.8222e-09 -0.0397598)
(-1.92769e-09 3.75027e-09 -0.0383977)
(-7.41669e-09 4.9941e-09 -0.0441805)
(-1.24979e-08 5.4269e-09 -0.0579054)
(-1.56639e-08 4.83771e-09 -0.0670391)
(-1.66026e-08 3.35402e-09 -0.0543426)
(-1.6255e-08 1.32536e-09 -0.0125152)
(-1.57154e-08 -9.38458e-10 0.0486269)
(-1.50762e-08 -3.11314e-09 0.10678)
(-1.35351e-08 -4.72303e-09 0.138785)
(-1.06037e-08 -5.30928e-09 0.133226)
(-6.77365e-09 -4.77441e-09 0.0957601)
(-3.10919e-09 -3.52158e-09 0.0443458)
(-4.39925e-10 -2.21803e-09 -0.0031778)
(1.05917e-09 -1.37353e-09 -0.0407975)
(1.72798e-09 -1.09784e-09 -0.0754521)
(2.07614e-09 -1.19148e-09 -0.115709)
(2.52529e-09 -1.38631e-09 -0.158249)
(3.24999e-09 -1.49035e-09 -0.186341)
(4.11866e-09 -1.41132e-09 -0.182943)
(4.8064e-09 -1.14819e-09 -0.144112)
(5.04107e-09 -7.5351e-10 -0.0802366)
(4.79873e-09 -2.5235e-10 -0.00840659)
(4.26753e-09 3.92931e-10 0.054345)
(3.62672e-09 1.18842e-09 0.0945518)
(2.92728e-09 1.96137e-09 0.104727)
(2.17143e-09 2.35101e-09 0.0853423)
(1.45609e-09 2.03614e-09 0.0430198)
(9.94371e-10 1.02229e-09 -0.0153281)
(9.79074e-10 -3.14839e-10 -0.08605)
(1.43315e-09 -1.48124e-09 -0.164506)
(2.19439e-09 -2.15707e-09 -0.237748)
(3.03197e-09 -2.2937e-09 -0.285443)
(3.77006e-09 -2.02089e-09 -0.291865)
(4.3219e-09 -1.51165e-09 -0.256871)
(4.64656e-09 -9.06352e-10 -0.194799)
(4.70163e-09 -2.93244e-10 -0.123944)
(4.44617e-09 2.98165e-10 -0.0574095)
(3.88629e-09 8.94415e-10 -0.00159763)
(3.10135e-09 1.52011e-09 0.0398479)
(2.22377e-09 2.08704e-09 0.0627493)
(1.41094e-09 2.3593e-09 0.061757)
(8.13065e-10 2.10696e-09 0.0316962)
(5.2283e-10 1.33322e-09 -0.0299133)
(5.28488e-10 3.2341e-10 -0.118698)
(7.20017e-10 -5.49229e-10 -0.219132)
(9.55525e-10 -1.05788e-09 -0.305541)
(1.13403e-09 -1.19361e-09 -0.352359)
(1.2233e-09 -1.07839e-09 -0.347648)
(1.24269e-09 -8.48751e-10 -0.298629)
(1.22959e-09 -5.95391e-10 -0.225474)
(1.21029e-09 -3.5887e-10 -0.149508)
(1.18496e-09 -1.46063e-10 -0.0843045)
(1.1334e-09 5.92396e-11 -0.0337447)
(1.03546e-09 2.90567e-10 0.00414368)
(8.84677e-10 5.73623e-10 0.0323713)
(6.95771e-10 8.82271e-10 0.0509805)
(5.07597e-10 1.12298e-09 0.0552047)
(3.74235e-10 1.18337e-09 0.037082)
(3.39289e-10 1.01253e-09 -0.00937274)
(4.08879e-10 6.59929e-10 -0.0819673)
(5.46441e-10 2.41537e-10 -0.167639)
(6.93489e-10 -1.29072e-10 -0.246562)
(7.99218e-10 -3.88285e-10 -0.300965)
(8.39201e-10 -5.26807e-10 -0.32229)
(8.17068e-10 -5.67223e-10 -0.312288)
(7.54171e-10 -5.39787e-10 -0.279049)
(6.75385e-10 -4.69557e-10 -0.231836)
(5.98586e-10 -3.74685e-10 -0.178015)
(5.31446e-10 -2.69033e-10 -0.122408)
(4.73093e-10 -1.63453e-10 -0.0673531)
(4.16861e-10 -6.48945e-11 -0.0133478)
(3.52709e-10 2.42188e-11 0.0393713)
(2.70789e-10 1.03879e-10 0.0893116)
(1.69144e-10 1.72635e-10 0.13345)
(6.21291e-11 2.25847e-10 0.168933)
(-2.04569e-11 2.5849e-10 0.195401)
(-4.74211e-11 2.70442e-10 0.214838)
(-3.60884e-12 2.69419e-10 0.229242)
(1.03003e-10 2.6844e-10 0.237867)
(2.47179e-10 2.81156e-10 0.23799)
(3.98062e-10 3.1728e-10 0.225453)
(5.23147e-10 3.52348e-10 0.199453)
(6.13443e-10 5.14393e-10 0.172584)
(6.10575e-10 3.33042e-10 0.108902)
(-9.66455e-17 1.02473e-17 -0.0561492)
(-3.07943e-16 1.60279e-17 -0.0568554)
(-2.69949e-16 1.76553e-17 -0.059055)
(-3.42876e-16 2.10591e-17 -0.062654)
(-3.14638e-16 1.16205e-17 -0.0671526)
(-4.64734e-16 7.49214e-17 -0.0718512)
(-1.04773e-15 3.24206e-17 -0.0760239)
(2.20852e-15 -3.99486e-16 -0.0790288)
(1.56445e-15 1.64579e-15 -0.0804652)
(-1.41801e-14 1.7494e-15 -0.0801658)
(-2.20038e-14 9.47079e-16 -0.0782152)
(-8.92161e-15 2.28611e-15 -0.0751028)
(6.76454e-15 -2.24251e-15 -0.0713181)
(1.32886e-14 -2.52787e-15 -0.0674174)
(1.06306e-14 -1.17785e-15 -0.0639122)
(5.02663e-15 -1.87811e-16 -0.0613118)
(2.50596e-16 2.58639e-16 -0.0600508)
(-4.90234e-15 9.29946e-16 -0.0603931)
(-1.32537e-14 1.32591e-15 -0.0624455)
(-2.73795e-15 -2.53449e-15 -0.0660936)
(-2.60321e-14 1.60516e-14 -0.0709592)
(-2.14897e-13 6.22787e-14 -0.0764187)
(8.39189e-13 -5.16761e-13 -0.0817319)
(1.02587e-12 -2.16569e-12 -0.0860204)
(-6.69928e-12 -2.45739e-12 -0.0881321)
(-8.14456e-12 2.14485e-13 -0.0869847)
(-2.2126e-13 2.40113e-12 -0.0822622)
(2.39881e-12 1.86861e-12 -0.0747519)
(7.25646e-13 6.93217e-13 -0.0659168)
(-9.6015e-13 1.3189e-13 -0.0574489)
(7.14676e-13 -1.14129e-12 -0.0509677)
(6.44081e-12 -1.48534e-12 -0.0477447)
(-1.18794e-11 1.31738e-11 -0.0484587)
(-6.50797e-11 3.77908e-11 -0.0533221)
(7.85901e-11 -8.45721e-11 -0.0626392)
(5.57551e-10 -6.84937e-10 -0.0764807)
(-4.91708e-10 -1.72722e-09 -0.091805)
(-6.1906e-09 -2.37115e-09 -0.102175)
(-1.356e-08 -1.67079e-09 -0.106731)
(-1.43546e-08 2.65171e-10 -0.110141)
(-7.89771e-09 2.00795e-09 -0.109992)
(-1.49187e-09 2.27708e-09 -0.100114)
(9.97025e-10 1.44636e-09 -0.0823435)
(7.48521e-10 5.75585e-10 -0.0631727)
(6.94922e-12 6.70484e-11 -0.0483522)
(-4.41447e-11 -2.35063e-10 -0.0409501)
(8.31828e-10 -3.65295e-10 -0.0420124)
(7.69656e-10 8.79284e-10 -0.0489257)
(-7.30842e-09 6.36157e-09 -0.0502841)
(-3.44766e-08 1.80378e-08 -0.0264743)
(-8.48583e-08 3.19689e-08 0.0348415)
(-1.46569e-07 3.77795e-08 0.124227)
(-1.99662e-07 2.67721e-08 0.216626)
(-2.2721e-07 1.31869e-09 0.279707)
(-2.16987e-07 -2.48044e-08 0.280666)
(-1.68236e-07 -3.72634e-08 0.211226)
(-1.00561e-07 -3.31182e-08 0.105399)
(-4.16683e-08 -2.03863e-08 0.0133264)
(-6.86865e-09 -8.46348e-09 -0.0375347)
(5.78517e-09 -1.4677e-09 -0.0517743)
(5.39813e-09 2.26634e-09 -0.0475884)
(-2.48159e-09 6.81118e-09 -0.0379863)
(-1.72404e-08 1.44293e-08 -0.0289113)
(-3.69954e-08 2.31086e-08 -0.025738)
(-5.47399e-08 2.81439e-08 -0.0293792)
(-6.35896e-08 2.65989e-08 -0.0237129)
(-6.4374e-08 1.91675e-08 0.0173043)
(-6.47792e-08 7.62021e-09 0.100232)
(-7.00348e-08 -6.81662e-09 0.196137)
(-7.54553e-08 -2.1293e-08 0.256892)
(-7.09272e-08 -3.05216e-08 0.249323)
(-5.32217e-08 -3.07119e-08 0.179825)
(-2.93623e-08 -2.3096e-08 0.0861024)
(-9.39225e-09 -1.24865e-08 0.00815319)
(1.06087e-09 -3.24675e-09 -0.0358277)
(2.19519e-09 2.9754e-09 -0.0552475)
(-2.49174e-09 6.48907e-09 -0.0753648)
(-8.6527e-09 7.817e-09 -0.114404)
(-1.26008e-08 7.17457e-09 -0.163059)
(-1.26289e-08 5.10537e-09 -0.186967)
(-9.61149e-09 2.67091e-09 -0.15599)
(-6.14127e-09 6.5864e-10 -0.0703187)
(-4.69122e-09 -1.05152e-09 0.041567)
(-5.85638e-09 -2.997e-09 0.142379)
(-7.959e-09 -5.10561e-09 0.201799)
(-8.69954e-09 -6.53423e-09 0.205602)
(-7.14446e-09 -6.53836e-09 0.160323)
(-4.13142e-09 -5.22261e-09 0.0888186)
(-1.15718e-09 -3.42634e-09 0.0142981)
(8.4102e-10 -2.02479e-09 -0.0560042)
(1.86649e-09 -1.40045e-09 -0.13023)
(2.51523e-09 -1.43532e-09 -0.211778)
(3.38467e-09 -1.77082e-09 -0.281328)
(4.65312e-09 -2.02431e-09 -0.305298)
(6.05831e-09 -1.93005e-09 -0.264567)
(7.13287e-09 -1.43928e-09 -0.171221)
(7.46711e-09 -7.09748e-10 -0.0577602)
(6.94214e-09 6.15591e-11 0.0453179)
(5.82087e-09 8.2308e-10 0.120895)
(4.52682e-09 1.62651e-09 0.161826)
(3.33918e-09 2.38134e-09 0.165515)
(2.33547e-09 2.74077e-09 0.133223)
(1.56487e-09 2.33271e-09 0.06934)
(1.15524e-09 1.13373e-09 -0.0218044)
(1.20743e-09 -4.30194e-10 -0.135212)
(1.65245e-09 -1.77242e-09 -0.256097)
(2.27339e-09 -2.51724e-09 -0.353389)
(2.859e-09 -2.63044e-09 -0.391384)
(3.31897e-09 -2.29276e-09 -0.353989)
(3.67233e-09 -1.71199e-09 -0.257241)
(3.95747e-09 -1.02562e-09 -0.138367)
(4.15109e-09 -3.00706e-10 -0.0325556)
(4.1564e-09 4.37132e-10 0.0433633)
(3.86939e-09 1.18573e-09 0.0903416)
(3.26403e-09 1.92451e-09 0.115422)
(2.43456e-09 2.5265e-09 0.121195)
(1.57931e-09 2.73858e-09 0.101996)
(9.25544e-10 2.34798e-09 0.0474173)
(6.13326e-10 1.41125e-09 -0.0490847)
(6.17418e-10 2.77937e-10 -0.17914)
(7.84244e-10 -6.4322e-10 -0.312721)
(9.48239e-10 -1.13536e-09 -0.405839)
(1.01976e-09 -1.22621e-09 -0.423423)
(9.93821e-10 -1.07189e-09 -0.360079)
(9.126e-10 -8.25816e-10 -0.241717)
(8.2881e-10 -5.78187e-10 -0.109224)
(7.83043e-10 -3.56986e-10 0.00212204)
(7.88056e-10 -1.52156e-10 0.0754212)
(8.20549e-10 6.37884e-11 0.112633)
(8.3122e-10 3.2345e-10 0.125896)
(7.75512e-10 6.40187e-10 0.127474)
(6.45593e-10 9.69456e-10 0.121681)
(4.8627e-10 1.20176e-09 0.102242)
(3.77236e-10 1.22195e-09 0.0569691)
(3.83911e-10 9.94474e-10 -0.0214466)
(5.1353e-10 5.94234e-10 -0.124937)
(7.12484e-10 1.56831e-10 -0.228818)
(9.0221e-10 -2.00625e-10 -0.303443)
(1.02096e-09 -4.25451e-10 -0.330271)
(1.04442e-09 -5.24817e-10 -0.309683)
(9.83552e-10 -5.34817e-10 -0.256426)
(8.70461e-10 -4.91874e-10 -0.18884)
(7.41381e-10 -4.19696e-10 -0.120184)
(6.229e-10 -3.30671e-10 -0.0564354)
(5.26063e-10 -2.3236e-10 0.00194903)
(4.46771e-10 -1.30714e-10 0.0573574)
(3.68967e-10 -2.95307e-11 0.112321)
(2.70397e-10 6.95487e-11 0.166732)
(1.35666e-10 1.62778e-10 0.216582)
(-2.47815e-11 2.39275e-10 0.257218)
(-1.67212e-10 2.8351e-10 0.288772)
(-2.34826e-10 2.86551e-10 0.317886)
(-1.93205e-10 2.55932e-10 0.351751)
(-5.03268e-11 2.13937e-10 0.390738)
(1.5259e-10 1.85783e-10 0.425329)
(3.66782e-10 1.89502e-10 0.442785)
(5.56964e-10 2.34214e-10 0.431658)
(6.98516e-10 2.88377e-10 0.391532)
(7.94111e-10 4.86918e-10 0.342592)
(7.82084e-10 3.32277e-10 0.230854)
(9.82413e-17 1.93695e-15 -0.0711116)
(3.39991e-16 1.82125e-15 -0.0720098)
(2.80721e-16 1.74049e-17 -0.074865)
(4.13178e-16 1.75782e-15 -0.0795552)
(9.76056e-16 1.79557e-15 -0.0854238)
(-1.46671e-15 2.10292e-15 -0.0915546)
(3.77303e-15 -1.31922e-15 -0.0969988)
(1.27372e-14 -1.2794e-15 -0.100916)
(-4.8147e-14 8.121e-15 -0.102789)
(-7.51067e-14 9.97339e-15 -0.102385)
(1.2522e-13 -2.43221e-15 -0.0997902)
(4.29583e-13 -1.41613e-14 -0.0956962)
(4.85848e-13 -1.11244e-14 -0.0906715)
(2.63676e-13 -2.06936e-15 -0.0855174)
(5.34739e-14 3.98235e-15 -0.0809087)
(-5.04396e-14 6.80604e-15 -0.0774713)
(-8.25277e-14 6.60929e-15 -0.0757718)
(-9.88389e-14 6.74096e-15 -0.07615)
(-7.42678e-14 8.32337e-16 -0.0787609)
(-1.78345e-14 8.17338e-15 -0.0834771)
(-7.79666e-13 1.06163e-13 -0.0898423)
(2.02544e-12 -4.26881e-13 -0.0971174)
(1.2012e-11 -6.3196e-13 -0.104301)
(-6.67334e-11 3.67245e-12 -0.10998)
(-3.09314e-10 4.47432e-12 -0.112547)
(-4.50286e-10 -3.21252e-12 -0.110923)
(-2.97492e-10 -5.16273e-12 -0.105)
(-8.974e-11 -4.12343e-13 -0.0955403)
(-5.06038e-12 1.70074e-12 -0.084058)
(6.74268e-12 3.78314e-14 -0.0727104)
(1.05374e-11 -3.81896e-12 -0.0637622)
(-7.54582e-12 5.82278e-12 -0.0590805)
(-9.03616e-11 3.73048e-11 -0.0597615)
(1.79916e-10 -3.59089e-11 -0.0669739)
(1.30643e-09 -3.16006e-10 -0.0818897)
(-1.33736e-09 1.35158e-10 -0.0970652)
(-2.2978e-08 2.87703e-09 -0.0861265)
(-7.37893e-08 5.76891e-09 -0.0285487)
(-1.30717e-07 3.58539e-09 0.0432374)
(-1.48992e-07 -2.62771e-09 0.0639455)
(-1.13167e-07 -5.75166e-09 0.0161639)
(-5.57805e-08 -3.82302e-09 -0.0499001)
(-1.48564e-08 -7.94801e-10 -0.0844747)
(1.08315e-09 5.94189e-10 -0.0822493)
(2.77067e-09 3.98861e-10 -0.0644896)
(1.62474e-09 -4.58686e-10 -0.0516905)
(1.8613e-09 -5.03849e-10 -0.0515088)
(-1.4689e-09 4.1662e-09 -0.055852)
(-2.13968e-08 1.89316e-08 -0.0437086)
(-6.67788e-08 4.32002e-08 0.00088268)
(-1.25285e-07 6.48649e-08 0.0704622)
(-1.71774e-07 6.85565e-08 0.153293)
(-1.98535e-07 4.81865e-08 0.258238)
(-2.18139e-07 8.41115e-09 0.380677)
(-2.31704e-07 -3.73894e-08 0.463888)
(-2.16582e-07 -6.88745e-08 0.438609)
(-1.60078e-07 -7.1939e-08 0.302364)
(-8.50491e-08 -5.16876e-08 0.130207)
(-2.52462e-08 -2.55192e-08 0.00160851)
(4.3127e-09 -6.38849e-09 -0.056226)
(8.29261e-09 4.80042e-09 -0.0623132)
(-3.63316e-09 1.39395e-08 -0.0507046)
(-2.34779e-08 2.40681e-08 -0.0546241)
(-4.17149e-08 3.14993e-08 -0.0957655)
(-4.79308e-08 3.11779e-08 -0.158891)
(-3.87355e-08 2.38197e-08 -0.184232)
(-2.14458e-08 1.49767e-08 -0.116404)
(-9.22702e-09 7.58342e-09 0.0394691)
(-1.25982e-08 -1.50788e-09 0.220185)
(-3.04083e-08 -1.56845e-08 0.349178)
(-4.80066e-08 -3.09772e-08 0.376743)
(-5.03384e-08 -3.85147e-08 0.302938)
(-3.61326e-08 -3.39803e-08 0.174725)
(-1.63549e-08 -2.11237e-08 0.0528058)
(-2.5737e-09 -6.99003e-09 -0.0291911)
(9.38273e-10 3.59851e-09 -0.0828121)
(-2.83276e-09 9.17421e-09 -0.145308)
(-7.80406e-09 1.00486e-08 -0.233638)
(-9.19392e-09 7.41501e-09 -0.313145)
(-5.91152e-09 3.34307e-09 -0.321119)
(4.29016e-11 1.10194e-10 -0.226128)
(5.61505e-09 -1.13477e-09 -0.0572555)
(8.13773e-09 -1.0809e-09 0.121757)
(6.36578e-09 -1.47925e-09 0.25623)
(1.50635e-09 -3.30144e-09 0.319916)
(-3.2639e-09 -5.71655e-09 0.309988)
(-5.28665e-09 -7.05847e-09 0.241262)
(-4.29836e-09 -6.51522e-09 0.140337)
(-1.89258e-09 -4.70425e-09 0.0303557)
(3.09443e-10 -2.88536e-09 -0.0841165)
(1.81577e-09 -1.93494e-09 -0.209704)
(3.05292e-09 -1.95057e-09 -0.334638)
(4.47669e-09 -2.45525e-09 -0.41412)
(6.08348e-09 -2.82717e-09 -0.398855)
(7.59915e-09 -2.6512e-09 -0.27945)
(8.74585e-09 -1.85258e-09 -0.0980882)
(9.23744e-09 -6.58146e-10 0.0807061)
(8.80425e-09 5.70772e-10 0.209398)
(7.45455e-09 1.60059e-09 0.274434)
(5.60872e-09 2.42927e-09 0.284859)
(3.80628e-09 3.05705e-09 0.253782)
(2.38705e-09 3.23816e-09 0.188701)
(1.48395e-09 2.62626e-09 0.0905887)
(1.13771e-09 1.20101e-09 -0.0421729)
(1.28757e-09 -5.63446e-10 -0.202717)
(1.72836e-09 -2.01422e-09 -0.360279)
(2.19797e-09 -2.76034e-09 -0.460544)
(2.53322e-09 -2.81649e-09 -0.45524)
(2.7305e-09 -2.42756e-09 -0.337802)
(2.88052e-09 -1.8309e-09 -0.150412)
(3.06757e-09 -1.14573e-09 0.0412088)
(3.29735e-09 -3.92706e-10 0.182997)
(3.47113e-09 4.39019e-10 0.254585)
(3.42601e-09 1.3406e-09 0.267478)
(3.04097e-09 2.23752e-09 0.24617)
(2.34521e-09 2.9294e-09 0.207214)
(1.54302e-09 3.1138e-09 0.148626)
(9.12543e-10 2.58995e-09 0.0550666)
(6.27408e-10 1.48729e-09 -0.0841945)
(6.52375e-10 2.37951e-10 -0.253991)
(8.10517e-10 -7.14638e-10 -0.40542)
(9.33027e-10 -1.17564e-09 -0.476028)
(9.47054e-10 -1.2164e-09 -0.428406)
(8.65155e-10 -1.02481e-09 -0.273973)
(7.34635e-10 -7.66245e-10 -0.0643691)
(6.02971e-10 -5.30611e-10 0.137099)
(5.09233e-10 -3.38493e-10 0.282563)
(4.79737e-10 -1.64816e-10 0.35346)
(5.10602e-10 3.76573e-11 0.359085)
(5.55938e-10 3.13085e-10 0.324523)
(5.53164e-10 6.66438e-10 0.27491)
(4.73783e-10 1.02689e-09 0.22174)
(3.59914e-10 1.25716e-09 0.158624)
(3.04195e-10 1.23455e-09 0.0704773)
(3.79588e-10 9.44385e-10 -0.0476149)
(5.826e-10 4.95644e-10 -0.175729)
(8.38811e-10 4.71968e-11 -0.273971)
(1.05594e-09 -2.83308e-10 -0.306679)
(1.1727e-09 -4.5939e-10 -0.264904)
(1.17378e-09 -5.08105e-10 -0.16897)
(1.07918e-09 -4.80242e-10 -0.0530435)
(9.26701e-10 -4.18701e-10 0.0535334)
(7.56715e-10 -3.45777e-10 0.13631)
(6.00694e-10 -2.67026e-10 0.194858)
(4.72838e-10 -1.80968e-10 0.237435)
(3.65746e-10 -8.49034e-11 0.274202)
(2.52112e-10 2.32927e-11 0.311212)
(9.9292e-11 1.40869e-10 0.347161)
(-9.88477e-11 2.51468e-10 0.375888)
(-2.94516e-10 3.24075e-10 0.396859)
(-4.02304e-10 3.30873e-10 0.422409)