/*--------------------------------*- C++ -*----------------------------------*\
  =========                 |
  \\      /  F ield         | OpenFOAM: The Open Source CFD Toolbox
   \\    /   O peration     | Website:  https://openfoam.org
    \\  /    A nd           | Version:  11
     \\/     M anipulation  |
\*---------------------------------------------------------------------------*/
FoamFile
{
    format      ascii;
    class       volVectorField;
    location    "18.198032";
    object      U;
}
// * * * * * * * * * * * * * * * * * * * * * * * * * * * * * * * * * * * * * //

dimensions      [0 1 -1 0 0 0 0];

internalField   nonuniform List<vector> 
7132
(
(1.00011 -0.000245604 3.26859e-18)
(1.00191 -0.000761779 1.02425e-17)
(1.0061 -0.00131789 9.95266e-18)
(1.0125 -0.00190247 1.18937e-17)
(1.0213 -0.0024889 1.5697e-17)
(1.03243 -0.00302596 1.59305e-17)
(1.04556 -0.00344339 1.50452e-17)
(1.06006 -0.00364222 1.44617e-17)
(1.07482 -0.00352466 1.45085e-17)
(1.08843 -0.00301569 1.4925e-17)
(1.09913 -0.00210105 1.52659e-17)
(1.10541 -0.000929597 1.54656e-17)
(1.10665 0.000306346 1.53547e-17)
(1.10295 0.00140208 1.50701e-17)
(1.09536 0.00210356 1.13065e-17)
(1.08597 0.0022378 7.81648e-18)
(1.0773 0.00177688 4.83343e-18)
(1.07167 0.000848612 3.42698e-18)
(1.07056 -0.000284658 7.89828e-19)
(1.07416 -0.001269 -5.03804e-20)
(1.08108 -0.00173186 1.09337e-19)
(1.08847 -0.00142294 7.26431e-19)
(1.09292 -0.000365772 1.6613e-18)
(1.09175 0.0011335 3.45178e-18)
(1.08402 0.0026494 2.31702e-18)
(1.07054 0.00382119 4.14071e-18)
(1.05329 0.00443223 1.22225e-17)
(1.03482 0.00439152 -2.59415e-17)
(1.01783 0.00368576 -1.04766e-16)
(1.00498 0.00235131 4.7599e-16)
(0.998687 0.000488307 2.03256e-15)
(1.00083 -0.00168831 -3.21824e-15)
(1.01214 -0.00378098 -3.40098e-14)
(1.03128 -0.00522675 -8.6993e-14)
(1.05441 -0.00549281 -1.1568e-13)
(1.07581 -0.00437633 -9.35503e-14)
(1.08998 -0.00217343 -4.87649e-14)
(1.09358 0.000456417 -1.53307e-14)
(1.08645 0.00282048 -7.57692e-16)
(1.0709 0.00446457 6.93885e-15)
(1.05044 0.00522555 1.39963e-14)
(1.02872 0.00512383 -1.99001e-14)
(1.00903 0.00423395 -1.66668e-13)
(0.994401 0.00262321 -2.661e-13)
(0.987616 0.000386741 6.85752e-13)
(0.990991 -0.00224171 4.90345e-12)
(1.00548 -0.00477796 1.40892e-11)
(1.02949 -0.00652539 2.569e-11)
(1.05827 -0.00683764 3.27324e-11)
(1.08491 -0.00547699 3.03661e-11)
(1.10274 -0.00280129 2.09642e-11)
(1.10775 0.000387735 1.07746e-11)
(1.09975 0.00322701 3.61953e-12)
(1.08175 0.00514032 3.21763e-14)
(1.05825 0.00594425 -7.26282e-13)
(1.03375 0.00572671 4.08783e-13)
(1.01197 0.00465547 1.26696e-12)
(0.996031 0.00286123 -4.52094e-12)
(0.988628 0.000461051 -2.84228e-11)
(0.991975 -0.00230642 -8.15025e-11)
(1.00692 -0.00495708 -1.64639e-10)
(1.03179 -0.00680507 -2.59516e-10)
(1.06183 -0.00721466 -3.32258e-10)
(1.09018 -0.00592639 -3.5253e-10)
(1.10996 -0.00323717 -3.12006e-10)
(1.11664 9.74174e-05 -2.26874e-10)
(1.10946 0.00317991 -1.29072e-10)
(1.09115 0.00532236 -4.92512e-11)
(1.06655 0.00623536 -7.10607e-13)
(1.0408 0.00598402 1.68349e-11)
(1.01818 0.00479862 -8.60746e-13)
(1.0019 0.00290091 -7.59386e-11)
(0.994474 0.000474537 -2.40902e-10)
(0.997685 -0.00221931 -5.14005e-10)
(1.01198 -0.00472678 -8.758e-10)
(1.03551 -0.00644682 -1.26202e-09)
(1.06383 -0.00685027 -1.58003e-09)
(1.0908 -0.00573388 -1.7425e-09)
(1.11028 -0.00334119 -1.70075e-09)
(1.11807 -0.000284054 -1.46135e-09)
(1.11294 0.00267604 -1.08197e-09)
(1.09682 0.00488101 -6.5545e-10)
(1.07382 0.00595503 -2.85149e-10)
(1.04891 0.00584331 -5.27784e-11)
(1.02668 0.0047166 1.03182e-12)
(1.01072 0.00282761 -1.25872e-10)
(1.00362 0.000443344 -4.1028e-10)
(1.00685 -0.00210537 -8.12337e-10)
(1.02034 -0.00436505 -1.27771e-09)
(1.0419 -0.00582085 -1.74094e-09)
(1.06725 -0.00607812 -2.13382e-09)
(1.09096 -0.0050416 -2.39548e-09)
(1.10799 -0.00296815 -2.47983e-09)
(1.115 -0.000370542 -2.35993e-09)
(1.11111 0.00215622 -2.03377e-09)
(1.09777 0.0041022 -1.53949e-09)
(1.07819 0.0051437 -9.73187e-10)
(1.05642 0.00516787 -4.74308e-10)
(1.03658 0.00423966 -1.71738e-10)
(1.02221 0.00254573 -1.25765e-10)
(1.01595 0.000364139 -3.11094e-10)
(1.01916 -0.00192853 -6.47425e-10)
(1.03143 -0.00387338 -1.0444e-09)
(1.0504 -0.00502479 -1.43024e-09)
(1.07202 -0.00510174 -1.75836e-09)
(1.09162 -0.00410258 -2.00117e-09)
(1.10514 -0.00230654 -2.14005e-09)
(1.1102 -0.000165202 -2.15635e-09)
(1.10643 0.00184865 -2.02854e-09)
(1.09525 0.00336412 -1.74488e-09)
(1.07928 0.00416098 -1.33095e-09)
(1.0617 0.00415896 -8.66082e-10)
(1.04577 0.00338866 -4.63155e-10)
(1.0344 0.00197788 -2.16949e-10)
(1.02983 0.000161329 -1.60586e-10)
(1.03313 -0.00171509 -2.62648e-10)
(1.04374 -0.00324255 -4.58278e-10)
(1.0594 -0.00405841 -6.83938e-10)
(1.0766 -0.00397185 -8.95427e-10)
(1.09153 -0.00303516 -1.06873e-09)
(1.1011 -0.00151858 -1.19226e-09)
(1.10371 0.000193293 -1.25751e-09)
(1.09942 0.00172795 -1.25263e-09)
(1.08964 0.00281718 -1.16424e-09)
(1.07658 0.00332209 -9.8905e-10)
(1.06276 0.00320875 -7.47312e-10)
(1.05065 0.00251632 -4.84448e-10)
(1.04246 0.00135101 -2.54724e-10)
(1.0398 -9.55015e-05 -9.74699e-11)
(1.04332 -0.00154128 -2.3542e-11)
(1.05238 -0.00266183 -1.91041e-11)
(1.06499 -0.00318508 -5.92035e-11)
(1.07826 -0.00298901 -1.19933e-10)
(1.08922 -0.002147 -1.83962e-10)
(1.0956 -0.000896367 -2.40498e-10)
(1.09638 0.000449468 -2.82785e-10)
(1.09184 0.0016015 -3.05617e-10)
(1.08329 0.00236358 -3.04522e-10)
(1.0726 0.00264649 -2.77081e-10)
(1.0618 0.00244369 -2.25264e-10)
(1.05279 0.00180317 -1.56473e-10)
(1.04722 0.000822681 -8.1664e-11)
(1.04619 -0.000335208 -1.14119e-11)
(1.05004 -0.00144187 4.74662e-11)
(1.05802 -0.0022444 9.28073e-11)
(1.06839 -0.00254269 1.25798e-10)
(1.07877 -0.00226427 1.4901e-10)
(1.08681 -0.00149377 1.64996e-10)
(1.09088 -0.000442463 1.75653e-10)
(1.09033 0.000626926 1.82019e-10)
(1.08568 0.00147911 1.84148e-10)
(1.0782 0.00196601 1.81191e-10)
(1.06959 0.00202283 1.71958e-10)
(1.06169 0.00167217 1.56008e-10)
(1.05583 0.000946464 1.34683e-10)
(1.05412 -1.65497e-05 1.11328e-10)
(1.05546 -0.00114977 9.00354e-11)
(1.0644 -0.00211702 7.52317e-11)
(1.07069 -0.00293837 6.60641e-11)
(1.09199 -0.00302173 7.3011e-11)
(1.00011 -0.000735108 5.18273e-20)
(1.0019 -0.00228162 4.83372e-19)
(1.00607 -0.00394994 8.94784e-19)
(1.01247 -0.00570825 1.31203e-18)
(1.02128 -0.00747784 1.86848e-18)
(1.03248 -0.00910589 2.46151e-18)
(1.04576 -0.0103812 2.89326e-18)
(1.0605 -0.0110015 3.77253e-18)
(1.07561 -0.0106672 4.78519e-18)
(1.0896 -0.00914024 5.33199e-18)
(1.10064 -0.00637025 5.73606e-18)
(1.10709 -0.00281695 8.41619e-18)
(1.10831 0.000933872 8.36554e-18)
(1.10436 0.00426283 8.97757e-18)
(1.09631 0.00639053 9.63858e-18)
(1.08635 0.00678697 9.01512e-18)
(1.07715 0.00536528 5.83268e-18)
(1.07117 0.0025121 1.08259e-18)
(1.07001 -0.000970431 -4.42452e-19)
(1.07392 -0.00400082 8.9297e-18)
(1.08146 -0.00543646 2.59671e-17)
(1.0896 -0.00450288 3.42051e-17)
(1.09465 -0.0012694 3.12419e-17)
(1.09374 0.00332413 2.18094e-17)
(1.08589 0.00796498 8.26424e-18)
(1.07199 0.0115506 3.37132e-17)
(1.05416 0.0134292 8.18685e-17)
(1.03505 0.0133346 -4.20626e-16)
(1.01741 0.0112311 -1.17838e-15)
(1.00395 0.00722228 6.2975e-15)
(0.997181 0.00159255 2.68797e-14)
(0.999157 -0.00502987 -6.05103e-14)
(1.01079 -0.0114448 -6.03813e-13)
(1.03082 -0.0159179 -1.59926e-12)
(1.05522 -0.0167882 -2.17829e-12)
(1.07787 -0.0134123 -1.73283e-12)
(1.09283 -0.00669679 -8.29728e-13)
(1.09658 0.00132752 -2.17763e-13)
(1.08903 0.00853399 9.71596e-15)
(1.07274 0.0135387 5.65776e-14)
(1.05146 0.0158598 5.13415e-14)
(1.02891 0.0155763 -7.52067e-14)
(1.00844 0.0129211 -4.63233e-13)
(0.993082 0.00808563 -6.19579e-13)
(0.985727 0.00132616 2.19256e-12)
(0.988922 -0.00668151 1.4216e-11)
(1.00388 -0.0144683 3.95053e-11)
(1.02906 -0.0198768 7.05886e-11)
(1.05945 -0.0208899 8.93501e-11)
(1.08759 -0.0167624 8.21224e-11)
(1.10631 -0.00859961 5.47689e-11)
(1.1114 0.00113122 2.69342e-11)
(1.1028 0.00978587 8.90423e-12)
(1.08383 0.0156069 1.53826e-14)
(1.0593 0.0180505 -1.65447e-12)
(1.03385 0.0174064 2.48916e-12)
(1.01125 0.0141979 5.64962e-12)
(0.994555 0.00881355 -1.89181e-11)
(0.986495 0.00157565 -1.28395e-10)
(0.98944 -0.00682984 -3.91783e-10)
(1.00447 -0.0149444 -8.28372e-10)
(1.03005 -0.0206596 -1.33543e-09)
(1.06137 -0.0219993 -1.70344e-09)
(1.09122 -0.0181402 -1.75203e-09)
(1.11225 -0.00997865 -1.46646e-09)
(1.11956 0.000176883 -9.94558e-10)
(1.11225 0.00958271 -5.26231e-10)
(1.09324 0.0161292 -1.86907e-10)
(1.06767 0.0189306 -4.34325e-12)
(1.04092 0.0181974 5.4606e-11)
(1.01738 0.0146467 1.4874e-11)
(1.00029 0.00895183 -1.53586e-10)
(0.992163 0.00164306 -5.23297e-10)
(0.994959 -0.00652318 -1.14387e-09)
(1.00932 -0.014182 -1.96903e-09)
(1.03348 -0.0194899 -2.83503e-09)
(1.06283 -0.0208074 -3.51259e-09)
(1.0909 -0.0174937 -3.79865e-09)
(1.11126 -0.0102812 -3.60109e-09)
(1.11953 -0.00102638 -2.97915e-09)
(1.11447 0.00796159 -2.11287e-09)
(1.09805 0.0146832 -1.22523e-09)
(1.07449 0.0179926 -5.09995e-10)
(1.04888 0.017718 -8.22813e-11)
(1.02591 0.0143708 2.40454e-11)
(1.00926 0.00870284 -1.74204e-10)
(1.00166 0.0015004 -6.35121e-10)
(1.00479 -0.00625015 -1.29191e-09)
(1.01872 -0.0131623 -2.04342e-09)
(1.04117 -0.0176405 -2.76488e-09)
(1.06756 -0.018459 -3.3369e-09)
(1.09213 -0.0153264 -3.66826e-09)
(1.10959 -0.00904114 -3.7034e-09)
(1.11658 -0.00117465 -3.42627e-09)
(1.11233 0.0064703 -2.8668e-09)
(1.09847 0.0123589 -2.10977e-09)
(1.07833 0.0155228 -1.30043e-09)
(1.05604 0.0156267 -6.17582e-10)
(1.03572 0.0128605 -2.13233e-10)
(1.02097 0.00776902 -1.53653e-10)
(1.01457 0.00116972 -4.03238e-10)
(1.01802 -0.00580668 -8.5642e-10)
(1.03099 -0.0117505 -1.38734e-09)
(1.05095 -0.0152766 -1.88945e-09)
(1.07357 -0.0155106 -2.29315e-09)
(1.09384 -0.0124529 -2.56299e-09)
(1.10755 -0.00697477 -2.68337e-09)
(1.11231 -0.000466665 -2.644e-09)
(1.10791 0.00563428 -2.43433e-09)
(1.09597 0.01021 -2.05487e-09)
(1.07929 0.0126064 -1.54403e-09)
(1.06113 0.012592 -9.93779e-10)
(1.0448 0.0102611 -5.27983e-10)
(1.03327 0.0059905 -2.48414e-10)
(1.02885 0.000476309 -1.88846e-10)
(1.03267 -0.00523772 -3.11556e-10)
(1.04412 -0.00989668 -5.4047e-10)
(1.06079 -0.012378 -8.00165e-10)
(1.07887 -0.0120924 -1.03772e-09)
(1.09431 -0.00920775 -1.22494e-09)
(1.10391 -0.00456484 -1.34968e-09)
(1.10611 0.000653711 -1.40521e-09)
(1.10111 0.00531371 -1.38252e-09)
(1.09049 0.00860517 -1.27131e-09)
(1.07664 0.0101155 -1.07118e-09)
(1.0622 0.00975016 -8.05044e-10)
(1.04971 0.00763097 -5.20648e-10)
(1.04143 0.00407636 -2.73817e-10)
(1.03904 -0.000337552 -1.04229e-10)
(1.04319 -0.00475317 -2.20474e-11)
(1.05314 -0.00817206 -1.24213e-11)
(1.06671 -0.00975387 -4.97487e-11)
(1.08078 -0.0091252 -1.10004e-10)
(1.09216 -0.00652052 -1.7585e-10)
(1.09852 -0.0026782 -2.36086e-10)
(1.09887 0.00143792 -2.83031e-10)
(1.09362 0.00494672 -3.10321e-10)
(1.08425 0.00725477 -3.12479e-10)
(1.07279 0.00809678 -2.86499e-10)
(1.06137 0.0074581 -2.34233e-10)
(1.05198 0.00548626 -1.63265e-10)
(1.04634 0.00247675 -8.47714e-11)
(1.04562 -0.00107692 -9.45963e-12)
(1.05012 -0.00447355 5.56546e-11)
(1.05901 -0.00693094 1.07881e-10)
(1.07032 -0.00782952 1.47464e-10)
(1.08147 -0.00694858 1.75829e-10)
(1.08993 -0.00455677 1.94587e-10)
(1.09397 -0.00131195 2.05261e-10)
(1.09302 0.00197647 2.09168e-10)
(1.08768 0.00458905 2.07104e-10)
(1.07938 0.0060761 1.99137e-10)
(1.06996 0.00624442 1.84914e-10)
(1.06139 0.0051648 1.64628e-10)
(1.05507 0.00293758 1.40048e-10)
(1.05321 -2.30569e-05 1.14761e-10)
(1.05478 -0.00351105 9.29321e-11)
(1.06433 -0.00648938 7.88575e-11)
(1.07138 -0.00904817 7.1174e-11)
(1.09407 -0.00924546 8.09464e-11)
(1.00011 -0.00122012 5.10581e-22)
(1.00188 -0.00379047 6.3237e-21)
(1.00601 -0.00657181 5.31781e-21)
(1.01238 -0.00951692 -1.12325e-20)
(1.02123 -0.0124993 -7.00898e-20)
(1.03256 -0.0152671 2.04189e-20)
(1.04613 -0.0174675 -6.07599e-19)
(1.06137 -0.0185797 -4.88299e-19)
(1.07715 -0.0180825 1.38471e-18)
(1.09194 -0.0155335 6.79897e-20)
(1.10364 -0.0108195 -5.00017e-18)
(1.11044 -0.00474806 -6.72638e-18)
(1.11161 0.00168583 -2.62813e-18)
(1.10716 0.00743358 4.83886e-18)
(1.09817 0.0111256 9.85758e-18)
(1.08707 0.0118241 4.0262e-18)
(1.07683 0.00936854 -1.42476e-17)
(1.0702 0.00441649 -2.73942e-17)
(1.069 -0.0016637 1.33115e-17)
(1.0736 -0.00700278 1.77684e-16)
(1.08246 -0.00958607 3.87774e-16)
(1.09213 -0.00802395 4.26525e-16)
(1.09834 -0.00242893 3.00197e-16)
(1.09782 0.00552828 1.55883e-16)
(1.08955 0.0135349 5.58585e-17)
(1.07467 0.019688 2.35044e-16)
(1.05558 0.0229034 1.59033e-16)
(1.03514 0.0227662 -2.79809e-15)
(1.01622 0.0192338 -1.87618e-15)
(1.00164 0.0124641 3.40732e-14)
(0.994081 0.00288815 5.41309e-14)
(0.995897 -0.00848396 -3.50642e-13)
(1.00836 -0.0196127 -1.59791e-12)
(1.03036 -0.0274524 -3.33968e-12)
(1.05743 -0.0290327 -4.7358e-12)
(1.08259 -0.0231826 -4.53869e-12)
(1.099 -0.0115107 -2.69384e-12)
(1.10277 0.00237688 -9.24582e-13)
(1.09407 0.0147494 -4.49117e-14)
(1.07604 0.0232495 1.98791e-13)
(1.05293 0.0271357 6.98506e-14)
(1.02871 0.0266256 -2.85053e-13)
(1.00674 0.0221461 1.13798e-13)
(0.990088 0.0139821 2.5034e-12)
(0.981807 0.00247489 4.95002e-14)
(0.984821 -0.0113081 -3.62933e-11)
(1.00077 -0.0248453 -1.47891e-10)
(1.02826 -0.0343182 -3.11659e-10)
(1.06187 -0.0361169 -4.10791e-10)
(1.09313 -0.0289111 -3.64221e-10)
(1.11373 -0.0146882 -2.24854e-10)
(1.11888 0.00216834 -9.15949e-11)
(1.10878 0.0170285 -1.60051e-11)
(1.08755 0.0268913 6.23147e-12)
(1.06073 0.0309254 8.10441e-12)
(1.03335 0.0297421 1.5787e-11)
(1.00918 0.0242996 1.6671e-11)
(0.991116 0.0152414 -8.34699e-11)
(0.981858 0.0030276 -4.78969e-10)
(0.984006 -0.0112808 -1.37548e-09)
(0.999105 -0.025256 -2.7772e-09)
(1.02598 -0.0352672 -4.3303e-09)
(1.05969 -0.0378198 -5.4356e-09)
(1.0924 -0.0313699 -5.59081e-09)
(1.11585 -0.0173887 -4.7219e-09)
(1.12443 0.000121202 -3.24006e-09)
(1.11695 0.0163515 -1.73999e-09)
(1.0966 0.0276109 -6.38026e-10)
(1.06911 0.0323885 -4.21743e-11)
(1.0404 0.0311202 1.51659e-10)
(1.01514 0.0251096 5.63671e-11)
(0.9966 0.0155114 -3.40426e-10)
(0.987415 0.00314708 -1.14143e-09)
(0.989876 -0.0107903 -2.37976e-09)
(1.00499 -0.023986 -3.89201e-09)
(1.03093 -0.0332106 -5.35997e-09)
(1.06257 -0.0355707 -6.45265e-09)
(1.09266 -0.0299503 -6.91573e-09)
(1.11425 -0.0176444 -6.60446e-09)
(1.1228 -0.0018674 -5.54734e-09)
(1.11724 0.0134342 -3.99676e-09)
(1.09979 0.0248733 -2.3542e-09)
(1.07493 0.0305273 -1.00515e-09)
(1.04795 0.0301238 -1.84912e-10)
(1.02367 0.0245231 4.12214e-11)
(1.00595 0.0149533 -2.81237e-10)
(0.997838 0.0026834 -1.04392e-09)
(1.00138 -0.0106294 -2.08091e-09)
(1.01677 -0.0225531 -3.18047e-09)
(1.04141 -0.0302507 -4.14442e-09)
(1.07004 -0.0315672 -4.84659e-09)
(1.09616 -0.0260502 -5.22837e-09)
(1.11407 -0.0151773 -5.25003e-09)
(1.12046 -0.00172459 -4.87172e-09)
(1.11492 0.0112199 -4.09627e-09)
(1.09953 0.0211001 -3.02597e-09)
(1.07796 0.0263538 -1.87093e-09)
(1.05449 0.0264699 -8.94123e-10)
(1.03328 0.0217687 -3.15009e-10)
(1.01807 0.0131173 -2.25816e-10)
(1.01183 0.00184224 -5.68459e-10)
(1.01628 -0.0101353 -1.17822e-09)
(1.03106 -0.0203402 -1.86235e-09)
(1.05323 -0.0263192 -2.47129e-09)
(1.07782 -0.0265495 -2.92876e-09)
(1.09926 -0.0210881 -3.21551e-09)
(1.11304 -0.0115285 -3.33063e-09)
(1.11684 -0.000331623 -3.26305e-09)
(1.11082 0.0100255 -2.99251e-09)
(1.09706 0.0176755 -2.51637e-09)
(1.07873 0.0215756 -1.88365e-09)
(1.05933 0.0213947 -1.20983e-09)
(1.04227 0.0173136 -6.45896e-10)
(1.03063 0.00995152 -3.11837e-10)
(1.02682 0.000467333 -2.42744e-10)
(1.03202 -0.00934875 -3.86671e-10)
(1.04545 -0.0173039 -6.47678e-10)
(1.06422 -0.0214336 -9.35838e-10)
(1.084 -0.0207336 -1.19351e-09)
(1.1003 -0.0155522 -1.3942e-09)
(1.10973 -0.00741116 -1.52763e-09)
(1.11085 0.00160539 -1.58551e-09)
(1.10419 0.00954364 -1.55562e-09)
(1.09173 0.0150474 -1.42585e-09)
(1.07621 0.0174619 -1.19707e-09)
(1.06051 0.01667 -8.96824e-10)
(1.04732 0.0128986 -5.79107e-10)
(1.03904 0.0066896 -3.04602e-10)
(1.03741 -0.000971288 -1.14468e-10)
(1.04305 -0.00859247 -1.74307e-11)
(1.05495 -0.0144245 3.45599e-12)
(1.0705 -0.0170049 -2.54373e-11)
(1.08608 -0.0157145 -8.09472e-11)
(1.09816 -0.0110153 -1.47069e-10)
(1.10428 -0.00424229 -2.12899e-10)
(1.10357 0.00290607 -2.69279e-10)
(1.09676 0.00891109 -3.07163e-10)
(1.08566 0.012778 -3.18253e-10)
(1.0726 0.0140876 -2.97568e-10)
(1.05995 0.0128439 -2.46282e-10)
(1.04991 0.00931225 -1.7233e-10)
(1.0443 0.00400302 -8.76351e-11)
(1.04437 -0.00222406 -3.60804e-12)
(1.05034 -0.00813322 7.199e-11)
(1.06112 -0.0123433 1.35396e-10)
(1.07431 -0.0137737 1.85399e-10)
(1.08689 -0.0120676 2.21882e-10)
(1.09601 -0.00774024 2.45221e-10)
(1.09985 -0.00198103 2.56331e-10)
(1.09792 0.00378031 2.56693e-10)
(1.09111 0.00829939 2.47978e-10)
(1.08113 0.010818 2.31558e-10)
(1.07011 0.0110305 2.08482e-10)
(1.06024 0.00907381 1.80198e-10)
(1.05315 0.00513046 1.49478e-10)
(1.05114 -9.18169e-05 1.20559e-10)
(1.05334 -0.00622748 9.78189e-11)
(1.06423 -0.0114224 8.52441e-11)
(1.07292 -0.0159713 8.04133e-11)
(1.09818 -0.0160076 9.53752e-11)
(1.00011 -0.00169731 -4.21344e-20)
(1.00184 -0.00527915 -6.03794e-19)
(1.0059 -0.00917393 -1.1096e-18)
(1.01223 -0.0133261 -1.93479e-18)
(1.02111 -0.0175699 -2.13622e-18)
(1.03262 -0.0215592 -3.83499e-18)
(1.04662 -0.0247997 -7.30961e-18)
(1.0626 -0.026527 5.83564e-18)
(1.07944 -0.0259662 -8.76627e-19)
(1.09547 -0.0223944 -4.15428e-17)
(1.10824 -0.0155917 -5.02586e-17)
(1.11557 -0.00678844 -1.37991e-18)
(1.1167 0.00257368 5.03087e-17)
(1.11148 0.0109985 7.58537e-17)
(1.10104 0.016427 4.67657e-17)
(1.08815 0.0174411 -4.27154e-17)
(1.07627 0.0137849 -1.34739e-16)
(1.06859 0.0064074 -9.12191e-17)
(1.0673 -0.00269069 1.37822e-16)
(1.07298 -0.0107465 -1.85274e-16)
(1.08391 -0.0147159 -1.15552e-15)
(1.09601 -0.0124493 -8.21022e-16)
(1.10406 -0.00410631 1.9199e-17)
(1.10412 0.00773382 1.96134e-16)
(1.09515 0.0195508 3.72858e-16)
(1.07869 0.0285385 7.63497e-16)
(1.05763 0.0331939 -3.53511e-15)
(1.03514 0.0330117 -1.35179e-15)
(1.01429 0.0279794 5.57516e-14)
(0.998005 0.0182946 -9.25017e-14)
(0.98922 0.00447117 -1.06305e-12)
(0.99077 -0.0121608 1.35806e-12)
(1.00456 -0.0286715 2.25939e-11)
(1.02971 -0.0404611 6.42357e-11)
(1.06109 -0.0429226 8.83642e-11)
(1.0902 -0.0342002 6.83541e-11)
(1.10879 -0.0167691 3.04064e-11)
(1.11244 0.00381591 6.43174e-12)
(1.10176 0.02191 -9.56516e-13)
(1.0809 0.0341067 -1.23247e-12)
(1.05491 0.0395216 -1.09103e-12)
(1.02812 0.0386643 -1.77625e-13)
(1.00394 0.0322292 9.65397e-12)
(0.985369 0.0205571 2.07598e-11)
(0.975575 0.00397031 -6.85409e-11)
(0.977806 -0.0161481 -5.13489e-10)
(0.994263 -0.0361833 -1.53108e-09)
(1.02416 -0.0504389 -2.85301e-09)
(1.06211 -0.0533463 -3.68757e-09)
(1.0985 -0.0426983 -3.43614e-09)
(1.12302 -0.0214536 -2.32897e-09)
(1.12932 0.00362919 -1.11541e-09)
(1.11755 0.0254659 -3.16762e-10)
(1.093 0.0396342 1.3426e-11)
(1.06263 0.0451425 7.94312e-11)
(1.03225 0.0431748 7.73583e-11)
(1.0057 0.0353106 2.85191e-11)
(0.985531 0.0224764 -2.99834e-10)
(0.974311 0.00514205 -1.32387e-09)
(0.97513 -0.0154393 -3.32329e-09)
(0.990417 -0.035924 -6.06146e-09)
(1.01944 -0.050965 -8.80629e-09)
(1.05674 -0.055228 -1.07168e-08)
(1.0933 -0.0462254 -1.11453e-08)
(1.11985 -0.0259793 -9.83992e-09)
(1.13008 -0.000346683 -7.19499e-09)
(1.12251 0.0235118 -4.16916e-09)
(1.10056 0.0400479 -1.70779e-09)
(1.07057 0.0470187 -2.48081e-10)
(1.03918 0.045171 2.86179e-10)
(1.01146 0.0365444 1.21351e-10)
(0.990896 0.0228182 -6.59088e-10)
(0.980467 0.00501459 -2.06614e-09)
(0.983075 -0.0152987 -3.95472e-09)
(1.0001 -0.0347087 -5.9386e-09)
(1.02933 -0.0482921 -7.60897e-09)
(1.06452 -0.0516837 -8.75338e-09)
(1.09728 -0.0433345 -9.2991e-09)
(1.11999 -0.0253386 -9.12053e-09)
(1.12816 -0.00250114 -8.05267e-09)
(1.12115 0.0194844 -6.15522e-09)
(1.10175 0.0358374 -3.86251e-09)
(1.07483 0.0439011 -1.79136e-09)
(1.04588 0.0433424 -4.35479e-10)
(1.01986 0.0353671 -6.48405e-12)
(1.00092 0.0216186 -4.54408e-10)
(0.992562 0.00379373 -1.54144e-09)
(0.997303 -0.0157085 -2.9121e-09)
(1.01533 -0.03318 -4.20354e-09)
(1.04337 -0.0442867 -5.18447e-09)
(1.07513 -0.045841 -5.81137e-09)
(1.10318 -0.0373381 -6.14678e-09)
(1.1214 -0.0211788 -6.21471e-09)
(1.12655 -0.00158443 -5.92876e-09)
(1.11878 0.0169434 -5.17501e-09)
(1.10083 0.030838 -3.97306e-09)
(1.07692 0.0380408 -2.55204e-09)
(1.05162 0.0379594 -1.2811e-09)
(1.02921 0.0310642 -4.9892e-10)
(1.01356 0.0184974 -3.56554e-10)
(1.00796 0.00206907 -7.67974e-10)
(1.01429 -0.0154176 -1.48531e-09)
(1.03195 -0.0302271 -2.23985e-09)
(1.0573 -0.0386662 -2.85735e-09)
(1.08449 -0.0385313 -3.28702e-09)
(1.10728 -0.0300555 -3.55393e-09)
(1.12089 -0.0157541 -3.68565e-09)
(1.12316 0.000651253 -3.66355e-09)
(1.1147 0.0155306 -3.43045e-09)
(1.0982 0.0262572 -2.94543e-09)
(1.0774 0.0314681 -2.24551e-09)
(1.05616 0.0308152 -1.46861e-09)
(1.0381 0.0246084 -8.06111e-10)
(1.02647 0.0137144 -4.08916e-10)
(1.02382 -0.000217469 -3.16563e-10)
(1.03129 -0.0145478 -4.59858e-10)
(1.04768 -0.0259975 -7.22365e-10)
(1.0694 -0.0316597 -1.00512e-09)
(1.09138 -0.0301324 -1.25475e-09)
(1.10862 -0.022067 -1.4549e-09)
(1.1176 -0.00983472 -1.6018e-09)
(1.11707 0.00343257 -1.68409e-09)
(1.10798 0.0148788 -1.67834e-09)
(1.09287 0.0225933 -1.5599e-09)
(1.07495 0.0257246 -1.32318e-09)
(1.05746 0.0241906 -9.98525e-10)
(1.04336 0.0183623 -6.48981e-10)
(1.03524 0.00903415 -3.44071e-10)
(1.03491 -0.00233968 -1.28945e-10)
(1.04286 -0.0135245 -1.17788e-11)
(1.05763 -0.0218994 2.62239e-11)
(1.0759 -0.0253184 1.19663e-11)
(1.09342 -0.0229545 -3.27454e-11)
(1.10625 -0.0156156 -9.42897e-11)
(1.11185 -0.0053794 -1.63577e-10)
(1.10955 0.00520195 -2.31076e-10)
(1.10047 0.0139076 -2.84659e-10)
(1.0869 0.0193353 -3.11384e-10)
(1.07159 0.0209448 -3.02097e-10)
(1.05728 0.0187989 -2.55767e-10)
(1.0464 0.0133126 -1.80262e-10)
(1.04099 0.00524795 -8.87317e-11)
(1.04236 -0.00409867 5.74128e-12)
(1.05057 -0.0128487 9.36076e-11)
(1.06406 -0.018917 1.69313e-10)
(1.07981 -0.0207174 2.30107e-10)
(1.0942 -0.0177985 2.74806e-10)
(1.10403 -0.0110306 3.03126e-10)
(1.10739 -0.00226202 3.1551e-10)
(1.10399 0.0063531 3.13186e-10)
(1.09505 0.0129886 2.98084e-10)
(1.08271 0.0165687 2.72493e-10)
(1.06949 0.0166979 2.38932e-10)
(1.05786 0.0136061 2.00588e-10)
(1.0498 0.00758207 1.61892e-10)
(1.04774 -0.000336822 1.28261e-10)
(1.05103 -0.00957917 1.04476e-10)
(1.0639 -0.0172858 9.40338e-11)
(1.07497 -0.0241579 9.30331e-11)
(1.10347 -0.023547 1.14436e-10)
(1.0001 -0.00216215 -2.90809e-18)
(1.00178 -0.00673569 -9.60174e-18)
(1.00574 -0.0117414 -8.33105e-18)
(1.01199 -0.0171263 -1.08017e-17)
(1.02088 -0.0226975 -6.42994e-18)
(1.0326 -0.0280245 -2.81997e-17)
(1.04715 -0.0324735 1.57838e-17)
(1.06412 -0.0350014 2.63293e-17)
(1.08242 -0.0345346 -1.77094e-16)
(1.10022 -0.0299423 -1.29461e-16)
(1.1145 -0.0208268 3.16105e-16)
(1.1226 -0.00895624 6.63044e-16)
(1.12368 0.0037511 6.49629e-16)
(1.11741 0.0153233 3.30637e-16)
(1.10491 0.0228267 -2.49441e-16)
(1.08948 0.0242307 -8.57419e-16)
(1.07525 0.0191618 -9.79207e-16)
(1.06606 0.00889925 -6.76235e-17)
(1.06464 -0.0038606 -1.62249e-15)
(1.07184 -0.0153153 -1.81074e-14)
(1.08578 -0.0211178 -4.22779e-14)
(1.10141 -0.0181024 -4.26845e-14)
(1.11212 -0.00647368 -2.27692e-14)
(1.11298 0.0100025 -8.22941e-15)
(1.10294 0.0262661 2.46936e-16)
(1.08419 0.0384536 -4.38776e-15)
(1.06036 0.0446747 -2.60005e-14)
(1.03506 0.0444307 1.13864e-13)
(1.01156 0.0378006 2.93157e-13)
(0.99291 0.0249997 -2.05877e-12)
(0.982337 0.00651318 -5.96174e-12)
(0.983418 -0.016141 2.33047e-11)
(0.999111 -0.0390797 1.51212e-10)
(1.02898 -0.0557285 3.6145e-10)
(1.06675 -0.0592954 5.02217e-10)
(1.10155 -0.0470345 4.40807e-10)
(1.12301 -0.0226029 2.42387e-10)
(1.12613 0.00592048 7.67359e-11)
(1.11239 0.0305313 3.52129e-12)
(1.08739 0.0466773 -1.14502e-11)
(1.05737 0.05352 -9.09857e-12)
(1.02712 0.0521029 4.62715e-12)
(1.00001 0.0435195 4.90591e-11)
(0.978795 0.0281673 3.82595e-11)
(0.966402 0.00626914 -4.60854e-10)
(0.966258 -0.0206327 -2.18896e-09)
(0.981616 -0.0480119 -5.43096e-09)
(1.01316 -0.0682498 -9.21585e-09)
(1.05601 -0.073312 -1.16708e-08)
(1.09938 -0.059381 -1.13427e-08)
(1.13045 -0.0300839 -8.40428e-09)
(1.14029 0.00492724 -4.5871e-09)
(1.128 0.035204 -1.64098e-09)
(1.09993 0.0543505 -1.55402e-10)
(1.06505 0.0612867 2.7295e-10)
(1.03064 0.0581962 2.63358e-10)
(1.00078 0.0476578 2.45264e-11)
(0.977651 0.0309393 -8.06781e-10)
(0.963848 0.00823956 -2.78192e-09)
(0.96349 -0.0193213 -5.93133e-09)
(0.980191 -0.0474084 -9.4882e-09)
(1.01314 -0.0684406 -1.25059e-08)
(1.05541 -0.0747698 -1.44973e-08)
(1.09627 -0.0629292 -1.52377e-08)
(1.12546 -0.0357531 -1.43235e-08)
(1.13655 -0.00117992 -1.15129e-08)
(1.12828 0.0311268 -7.46195e-09)
(1.10433 0.0535793 -3.53607e-09)
(1.07152 0.0630654 -8.33966e-10)
(1.03701 0.0606637 3.33756e-10)
(1.00634 0.0492471 1.6229e-10)
(0.983426 0.031011 -1.08853e-09)
(0.97197 0.00706654 -3.12766e-09)
(0.975666 -0.0205977 -5.45291e-09)
(0.995972 -0.0471135 -7.45616e-09)
(1.02969 -0.0654337 -8.79463e-09)
(1.06912 -0.0695588 -9.549e-09)
(1.10467 -0.0576862 -9.96966e-09)
(1.12817 -0.0330685 -1.00654e-08)
(1.13522 -0.00242693 -9.47288e-09)
(1.12582 0.0266532 -7.84578e-09)
(1.10353 0.0480365 -5.36774e-09)
(1.07381 0.0584529 -2.7657e-09)
(1.04241 0.0575958 -8.70357e-10)
(1.01443 0.0469957 -1.79367e-10)
(0.994367 0.0286039 -6.99774e-10)
(0.986303 0.00449921 -2.02909e-09)
(0.993144 -0.0220065 -3.57708e-09)
(1.01473 -0.0455898 -4.8487e-09)
(1.04678 -0.0601601 -5.64208e-09)
(1.08184 -0.0614822 -6.04045e-09)
(1.11172 -0.0491841 -6.24362e-09)
(1.12998 -0.0268515 -6.36188e-09)
(1.13351 -0.000399578 -6.29127e-09)
(1.12293 0.0240923 -5.78401e-09)
(1.10175 0.042026 -4.69548e-09)
(1.07486 0.050952 -3.19121e-09)
(1.04724 0.0503203 -1.7194e-09)
(1.02343 0.0407895 -7.59615e-10)
(1.00756 0.0237403 -5.46796e-10)
(1.00319 0.00148294 -9.72275e-10)
(1.01223 -0.0221269 -1.7083e-09)
(1.03351 -0.0418447 -2.43054e-09)
(1.06244 -0.0525963 -2.96734e-09)
(1.09225 -0.0515475 -3.30806e-09)
(1.11616 -0.0392863 -3.52399e-09)
(1.12928 -0.0194575 -3.67425e-09)
(1.12963 0.0027763 -3.74029e-09)
(1.11828 0.0225095 -3.62499e-09)
(1.09856 0.0363232 -3.22675e-09)
(1.07481 0.042592 -2.54284e-09)
(1.05137 0.0410388 -1.7183e-09)
(1.03221 0.0321568 -9.85168e-10)
(1.02082 0.0170902 -5.31301e-10)
(1.01993 -0.00194038 -4.04941e-10)
(1.03043 -0.0212741 -5.23915e-10)
(1.05045 -0.036363 -7.58249e-10)
(1.07547 -0.0432913 -1.00684e-09)
(1.09965 -0.0403451 -1.22418e-09)
(1.11758 -0.0286557 -1.40593e-09)
(1.12574 -0.0116257 -1.55849e-09)
(1.12313 0.0064231 -1.67202e-09)
(1.11118 0.0216463 -1.71168e-09)
(1.09297 0.0315616 -1.63337e-09)
(1.07226 0.0351613 -1.41583e-09)
(1.05273 0.0324561 -1.08624e-09)
(1.0377 0.0240074 -7.15868e-10)
(1.03 0.0109167 -3.85298e-10)
(1.03156 -0.00478361 -1.46427e-10)
(1.04253 -0.0199492 -9.02607e-12)
(1.06075 -0.0309428 4.64342e-11)
(1.08206 -0.0349033 4.76623e-11)
(1.10153 -0.0308907 1.6339e-11)
(1.11487 -0.0202234 -3.5606e-11)
(1.11958 -0.00588412 -1.02113e-10)
(1.11526 0.00859946 -1.7599e-10)
(1.10348 0.020238 -2.44109e-10)
(1.08702 0.0272128 -2.88907e-10)
(1.06913 0.0288925 -2.95288e-10)
(1.05293 0.0254395 -2.57854e-10)
(1.04123 0.0174573 -1.83122e-10)
(1.03632 0.00602157 -8.5478e-11)
(1.03955 -0.00701757 1.93754e-11)
(1.05064 -0.0189821 1.18916e-10)
(1.06738 -0.026961 2.05134e-10)
(1.08596 -0.0288438 2.74012e-10)
(1.10215 -0.0241761 3.2434e-10)
(1.11244 -0.0143305 3.56321e-10)
(1.11497 -0.00195887 3.70468e-10)
(1.10968 0.00995305 3.67371e-10)
(1.09819 0.0189401 3.48186e-10)
(1.08307 0.0235979 3.15093e-10)
(1.0673 0.0234631 2.71612e-10)
(1.05372 0.018882 2.22894e-10)
(1.04469 0.0102808 1.75668e-10)
(1.04283 -0.000918558 1.37126e-10)
(1.04773 -0.0138398 1.12694e-10)
(1.06307 -0.0243957 1.05187e-10)
(1.07709 -0.0338818 1.08924e-10)
(1.10879 -0.0319463 1.3731e-10)
(1.0001 -0.00260907 3.00401e-18)
(1.0017 -0.00814455 1.0411e-17)
(1.00552 -0.0142528 7.10649e-18)
(1.01162 -0.0208985 1.64042e-17)
(1.02048 -0.0278786 2.75078e-18)
(1.0324 -0.0346949 -1.65205e-17)
(1.0476 -0.0405816 2.85016e-16)
(1.06582 -0.0441749 -6.73848e-16)
(1.08602 -0.0440444 -3.57875e-16)
(1.10625 -0.0384543 2.60269e-15)
(1.12259 -0.0267291 3.56924e-15)
(1.13176 -0.0113778 1.63292e-15)
(1.13285 0.00514496 -1.1364e-15)
(1.12523 0.0204014 -4.11284e-15)
(1.10994 0.0303688 -6.71978e-15)
(1.09104 0.0322376 -7.66227e-15)
(1.07359 0.0254622 -4.67323e-15)
(1.0623 0.0116813 -2.5287e-16)
(1.06058 -0.00559985 -1.78394e-14)
(1.06978 -0.0213391 5.95798e-15)
(1.08787 -0.0295291 1.2492e-13)
(1.10844 -0.0256248 8.11475e-14)
(1.12283 -0.00987105 -4.26915e-14)
(1.12474 0.0123511 -6.20142e-14)
(1.11316 0.0339602 -2.89748e-14)
(1.0913 0.0498301 -5.91351e-14)
(1.06379 0.057755 -4.28154e-15)
(1.03487 0.0574056 6.60325e-13)
(1.00795 0.0490569 -5.45846e-13)
(0.986167 0.0329106 -7.87599e-12)
(0.973108 0.00922727 2.44629e-12)
(0.973339 -0.0205317 7.57191e-11)
(0.991111 -0.0514457 1.27598e-10)
(1.02668 -0.0742922 5.28283e-11)
(1.07296 -0.0792263 5.1812e-11)
(1.1161 -0.0623295 2.27679e-10)
(1.14208 -0.0290272 3.07916e-10)
(1.14453 0.00916491 2.02597e-10)
(1.12635 0.0412967 6.14996e-11)
(1.09558 0.0616175 -1.48922e-11)
(1.06021 0.0696508 -2.62594e-11)
(1.02563 0.0673343 2.63124e-11)
(0.994913 0.0563911 1.27905e-10)
(0.970086 0.0373675 -8.92896e-11)
(0.953459 0.0102552 -1.6515e-09)
(0.949129 -0.0237337 -5.57784e-09)
(0.9627 -0.0596279 -1.14447e-08)
(0.996687 -0.0876529 -1.73196e-08)
(1.04557 -0.0964781 -2.11412e-08)
(1.09649 -0.0799181 -2.14049e-08)
(1.1347 -0.0418822 -1.75745e-08)
(1.14942 0.0048827 -1.1107e-08)
(1.13815 0.0456593 -4.91886e-09)
(1.10732 0.071104 -1.04223e-09)
(1.06772 0.079776 4.70834e-10)
(1.0285 0.0753002 6.15641e-10)
(0.994429 0.0617999 -4.93755e-12)
(0.967633 0.0409442 -1.64475e-09)
(0.951295 0.0122326 -4.63677e-09)
(0.951015 -0.0235987 -8.41877e-09)
(0.971134 -0.0607482 -1.17518e-08)
(1.00966 -0.0885926 -1.38985e-08)
(1.05755 -0.0968174 -1.5114e-08)
(1.10241 -0.0812579 -1.58948e-08)
(1.13333 -0.0460994 -1.5955e-08)
(1.14403 -0.0017282 -1.42823e-08)
(1.13393 0.0396379 -1.05131e-08)
(1.10729 0.068428 -5.79523e-09)
(1.07134 0.0806664 -1.88122e-09)
(1.03354 0.0777468 1.32072e-10)
(0.999761 0.0633316 9.1109e-11)
(0.974594 0.0400053 -1.5786e-09)
(0.962742 0.00890468 -4.11783e-09)
(0.968558 -0.0272891 -6.59542e-09)
(0.992988 -0.0617231 -8.29427e-09)
(1.03139 -0.0848834 -9.0685e-09)