/*--------------------------------*- C++ -*----------------------------------*\
  =========                 |
  \\      /  F ield         | OpenFOAM: The Open Source CFD Toolbox
   \\    /   O peration     | Website:  https://openfoam.org
    \\  /    A nd           | Version:  11
     \\/     M anipulation  |
\*---------------------------------------------------------------------------*/
FoamFile
{
    format      ascii;
    class       volVectorField;
    location    "1.01504";
    object      U;
}
// * * * * * * * * * * * * * * * * * * * * * * * * * * * * * * * * * * * * * //

dimensions      [0 1 -1 0 0 0 0];

internalField   nonuniform List<vector> 
7132
(
(1.00013 -0.000260996 2.28097e-18)
(1.00202 -0.000783034 8.15262e-18)
(1.00628 -0.00132725 8.5659e-18)
(1.01269 -0.00189822 1.04948e-17)
(1.02144 -0.0024899 1.36261e-17)
(1.0326 -0.0030711 1.42686e-17)
(1.04604 -0.00358831 1.35228e-17)
(1.06137 -0.00394936 1.26241e-17)
(1.07774 -0.00405419 1.21046e-17)
(1.09395 -0.00380463 1.19492e-17)
(1.10835 -0.00314672 1.16394e-17)
(1.11932 -0.00216183 1.12454e-17)
(1.12579 -0.000957587 1.08114e-17)
(1.12707 0.000335509 1.15784e-17)
(1.12316 0.00153102 6.68993e-18)
(1.11482 0.0024668 2.24633e-18)
(1.1034 0.00304543 -3.56345e-18)
(1.09044 0.00325496 -3.15203e-18)
(1.07735 0.00316188 -6.20008e-18)
(1.06514 0.00288034 -7.79651e-18)
(1.05432 0.00252879 -4.92878e-18)
(1.04493 0.00219139 -2.72923e-18)
(1.03681 0.0019017 -2.36763e-18)
(1.02974 0.00165353 -3.36374e-18)
(1.0236 0.00142634 -4.30587e-18)
(1.01835 0.0012065 -6.6432e-18)
(1.01397 0.000993953 -7.4608e-18)
(1.01041 0.000796692 -6.99839e-18)
(1.0076 0.000622561 -5.14391e-18)
(1.00543 0.000474971 -2.40399e-18)
(1.0038 0.000353372 -8.86535e-20)
(1.0026 0.000255537 1.07068e-18)
(1.00175 0.000179079 1.94165e-18)
(1.00117 0.000121635 3.12457e-18)
(1.00077 8.04889e-05 3.29188e-18)
(1.00052 5.24417e-05 3.12973e-18)
(1.00035 3.41266e-05 2.02061e-18)
(1.00024 2.249e-05 1.15595e-18)
(1.00017 1.51356e-05 1.19271e-18)
(1.00012 1.04084e-05 8.96217e-19)
(1.00009 7.27726e-06 8.31557e-19)
(1.00006 5.14147e-06 1.47358e-19)
(1.00004 3.65551e-06 -1.55148e-19)
(1.00003 2.61134e-06 3.79549e-19)
(1.00002 1.87405e-06 4.33674e-19)
(1.00002 1.35122e-06 5.52169e-19)
(1.00001 9.7843e-07 -7.46302e-20)
(1.00001 7.10977e-07 -4.0511e-19)
(1.00001 5.18034e-07 1.98959e-19)
(1.00001 3.78262e-07 -7.60447e-20)
(1 2.76723e-07 -1.31378e-18)
(1 2.02812e-07 -1.64772e-18)
(1 1.48929e-07 -1.04618e-18)
(1 1.09592e-07 -8.82526e-19)
(1 8.08442e-08 -7.20992e-19)
(1 5.98101e-08 -1.23332e-18)
(1 4.44093e-08 -1.412e-18)
(1 3.31202e-08 -7.84265e-19)
(1 2.48417e-08 -6.24036e-19)
(1 1.87618e-08 -4.70849e-19)
(1 1.42957e-08 -1.01938e-18)
(1 1.10074e-08 -1.13629e-18)
(1 8.58654e-09 -9.56248e-19)
(1 6.7971e-09 -1.60395e-18)
(1 5.47523e-09 -1.05609e-18)
(1 4.49176e-09 -7.41208e-19)
(1 3.76126e-09 -5.64732e-19)
(1 3.21178e-09 -2.45601e-19)
(1 2.79998e-09 -8.33806e-19)
(1 2.4846e-09 -3.06351e-19)
(1 2.24488e-09 -8.67288e-20)
(1 2.05609e-09 -5.39701e-20)
(1 1.90957e-09 1.10099e-19)
(1 1.78948e-09 -6.12923e-19)
(1 1.69364e-09 -1.83187e-19)
(1 1.6111e-09 -2.04543e-20)
(1 1.54312e-09 -6.06866e-21)
(1 1.48144e-09 1.73767e-19)
(1 1.42911e-09 -5.08512e-19)
(1 1.37936e-09 -3.13941e-20)
(1 1.33611e-09 1.60443e-19)
(1 1.29349e-09 1.66042e-19)
(1 1.2558e-09 2.97674e-19)
(1 1.21774e-09 -4.53415e-19)
(1 1.18372e-09 -3.80366e-20)
(1 1.14884e-09 1.19126e-19)
(1 1.11747e-09 1.20004e-19)
(1 1.08504e-09 2.65763e-19)
(1 1.05577e-09 -4.66983e-19)
(1 1.02537e-09 -4.1202e-20)
(1 9.97892e-10 1.37683e-19)
(1 9.69291e-10 3.63964e-20)
(1 9.43412e-10 7.66762e-19)
(1 9.16457e-10 3.24276e-19)
(1 8.92054e-10 2.34764e-19)
(1 8.66637e-10 2.79795e-19)
(1 8.4361e-10 1.23792e-19)
(1 8.19639e-10 8.20303e-19)
(1 7.97897e-10 3.53329e-19)
(1 7.7528e-10 2.45647e-19)
(1 7.54737e-10 2.7713e-19)
(1 7.33391e-10 1.1088e-19)
(1 7.13963e-10 8.00082e-19)
(1 6.93806e-10 3.2972e-19)
(1 6.7542e-10 2.23133e-19)
(1 6.56372e-10 2.56053e-19)
(1 6.38951e-10 7.97683e-20)
(1 6.2094e-10 7.32087e-19)
(1 6.04416e-10 1.91017e-19)
(1 5.87369e-10 -7.05285e-21)
(1 5.71674e-10 -5.37722e-20)
(1 5.55522e-10 -2.6186e-19)
(1 5.40594e-10 4.23923e-19)
(1 5.25276e-10 -3.0866e-20)
(1 5.11058e-10 -1.24268e-19)
(1 4.96513e-10 -8.4484e-20)
(1 4.82952e-10 -2.4221e-19)
(1 4.69126e-10 4.50951e-19)
(1 4.56176e-10 1.40685e-20)
(1 4.43022e-10 -2.15192e-19)
(1 4.30641e-10 3.82932e-19)
(1 4.18115e-10 4.77524e-19)
(1 4.06265e-10 5.92733e-19)
(1 3.94325e-10 2.02218e-20)
(1 3.82973e-10 -2.40905e-19)
(1 3.71586e-10 3.4954e-19)
(1 3.60702e-10 4.42187e-19)
(1 3.49833e-10 5.57028e-19)
(1 3.39386e-10 -1.52746e-20)
(1 3.29005e-10 -2.7587e-19)
(1 3.18975e-10 3.15821e-19)
(1 3.09055e-10 4.11411e-19)
(1 2.99419e-10 5.31047e-19)
(1 2.89934e-10 -3.79137e-20)
(1 2.80668e-10 -3.04396e-19)
(1 2.71594e-10 2.63738e-19)
(1 2.62685e-10 3.16771e-19)
(1 2.54001e-10 3.8621e-19)
(1 2.45428e-10 -2.19678e-19)
(1 2.37113e-10 -4.91065e-19)
(1 2.2886e-10 1.0871e-19)
(1 2.20893e-10 2.17152e-19)
(1 2.12945e-10 3.43862e-19)
(1 2.0531e-10 -2.21147e-19)
(1 1.97654e-10 -4.74405e-19)
(1 1.90332e-10 1.25766e-19)
(1 1.82959e-10 2.26732e-19)
(1 1.75939e-10 3.46155e-19)
(1 1.68838e-10 -2.22559e-19)
(1 1.62107e-10 -4.76311e-19)
(1 1.55276e-10 1.24818e-19)
(1 1.48812e-10 2.26792e-19)
(1 1.42269e-10 3.46763e-19)
(1 1.36035e-10 -2.21925e-19)
(1 1.29985e-10 -4.75492e-19)
(1 1.23552e-10 1.23932e-19)
(1 1.19484e-10 2.32743e-19)
(1 1.09039e-10 3.19756e-19)
(1 1.18137e-10 -9.60748e-20)
(1 8.48946e-11 -1.06261e-18)
(1.00013 -0.000780852 3.236e-20)
(1.00201 -0.002344 3.99715e-19)
(1.00623 -0.00397532 7.99296e-19)
(1.01262 -0.00569101 1.23787e-18)
(1.02137 -0.00747414 1.76127e-18)
(1.03257 -0.00923231 2.30244e-18)
(1.04612 -0.0108053 2.67901e-18)
(1.06165 -0.0119125 2.83591e-18)
(1.07833 -0.0122487 4.9485e-18)
(1.09492 -0.0115078 6.38699e-18)
(1.10969 -0.00952071 6.52593e-18)
(1.12093 -0.0065435 8.36305e-18)
(1.12753 -0.00290375 4.67267e-18)
(1.12881 0.00100178 5.17956e-18)
(1.12473 0.00460311 9.83998e-18)
(1.11611 0.00741154 1.41577e-17)
(1.10434 0.00914038 1.252e-17)
(1.09104 0.0097611 4.42424e-18)
(1.07766 0.00947667 -4.76579e-18)
(1.06523 0.00862932 -8.11092e-18)
(1.05425 0.00757314 -3.63361e-18)
(1.04478 0.00656005 4.0004e-18)
(1.03662 0.00569116 8.40912e-18)
(1.02956 0.00494814 6.91987e-18)
(1.02344 0.00426909 1.65911e-18)
(1.01822 0.00361248 -3.57652e-18)
(1.01386 0.0029775 -6.29746e-18)
(1.01033 0.00238791 -6.3183e-18)
(1.00754 0.00186723 -4.93936e-18)
(1.00538 0.00142574 -2.44666e-18)
(1.00376 0.00106178 -7.87891e-19)
(1.00257 0.000768676 -9.12728e-19)
(1.00173 0.000539323 2.33398e-19)
(1.00115 0.000366772 7.79447e-19)
(1.00076 0.000243023 1.33665e-18)
(1.00051 0.000158586 2.15199e-18)
(1.00035 0.000103403 8.2951e-19)
(1.00024 6.83066e-05 2.86116e-19)
(1.00017 4.60891e-05 -5.50251e-20)
(1.00012 3.17707e-05 1.99887e-19)
(1.00009 2.22552e-05 1.01782e-18)
(1.00006 1.57431e-05 -7.10327e-20)
(1.00005 1.12006e-05 -2.93685e-19)
(1.00003 8.00341e-06 -3.74698e-19)
(1.00002 5.74407e-06 5.97321e-20)
(1.00002 4.14141e-06 9.46073e-19)
(1.00001 2.99857e-06 -1.24217e-19)
(1.00001 2.17862e-06 -3.96723e-19)
(1.00001 1.58707e-06 -2.52357e-19)
(1.00001 1.15854e-06 -8.62442e-19)
(1 8.47226e-07 -3.62868e-19)
(1 6.20619e-07 -2.70763e-19)
(1 4.55416e-07 -3.16828e-19)
(1 3.34812e-07 -2.17862e-19)
(1 2.46667e-07 -9.10133e-19)
(1 1.82175e-07 -4.40066e-19)
(1 1.34953e-07 -3.37515e-19)
(1 1.00344e-07 -3.53505e-19)
(1 7.49641e-08 -2.2256e-19)
(1 5.63319e-08 -8.93647e-19)
(1 4.26463e-08 -4.07107e-19)
(1 3.25782e-08 -3.37135e-19)
(1 2.51672e-08 -1.97703e-19)
(1 1.96981e-08 -8.23703e-19)
(1 1.56593e-08 -6.106e-19)
(1 1.26636e-08 8.97646e-19)
(1 1.04397e-08 6.27516e-21)
(1 8.77613e-09 5.58082e-21)
(1 7.53049e-09 -6.03045e-19)
(1 6.58565e-09 -3.85114e-19)
(1 5.86838e-09 1.08524e-18)
(1 5.31228e-09 1.28562e-19)
(1 4.88123e-09 6.00839e-20)
(1 4.53618e-09 -6.0132e-19)
(1 4.26093e-09 -4.15494e-19)
(1 4.03123e-09 1.0417e-18)
(1 3.84157e-09 8.80425e-20)
(1 3.67578e-09 3.67443e-20)
(1 3.53398e-09 -5.97996e-19)
(1 3.40444e-09 -3.86752e-19)
(1 3.29017e-09 1.08054e-18)
(1 3.18197e-09 1.13087e-19)
(1 3.08429e-09 2.86473e-20)
(1 2.98939e-09 -6.42222e-19)
(1 2.90239e-09 -4.52275e-19)
(1 2.81647e-09 1.01671e-18)
(1 2.73696e-09 6.8207e-20)
(1 2.65768e-09 9.4243e-21)
(1 2.58391e-09 -6.4958e-19)
(1 2.50997e-09 -4.25109e-19)
(1 2.44097e-09 9.34422e-19)
(1 2.37163e-09 4.19541e-19)
(1 2.3068e-09 8.60286e-19)
(1 2.24159e-09 8.75888e-19)
(1 2.18057e-09 7.70219e-19)
(1 2.11916e-09 8.24669e-19)
(1 2.06166e-09 6.99944e-20)
(1 2.00379e-09 5.14447e-19)
(1 1.94956e-09 5.80078e-19)
(1 1.89501e-09 5.25446e-19)
(1 1.84382e-09 6.22871e-19)
(1 1.79235e-09 -9.76511e-20)
(1 1.74401e-09 3.73812e-19)
(1 1.69541e-09 4.62691e-19)
(1 1.6497e-09 4.30936e-19)
(1 1.60378e-09 5.49824e-19)
(1 1.56051e-09 -1.60157e-19)
(1 1.51708e-09 2.9554e-19)
(1 1.47607e-09 3.32401e-19)
(1 1.43495e-09 2.20937e-19)
(1 1.39603e-09 2.62049e-19)
(1 1.35705e-09 -4.86845e-19)
(1 1.32006e-09 -8.99989e-21)
(1 1.28307e-09 1.04493e-19)
(1 1.24788e-09 9.34253e-20)
(1 1.21274e-09 2.22276e-19)
(1 1.17922e-09 -4.72333e-19)
(1 1.14579e-09 1.74623e-20)
(1 1.11382e-09 1.48782e-19)
(1 1.08198e-09 9.68534e-21)
(1 1.05146e-09 6.80415e-19)
(1 1.02112e-09 2.04385e-19)
(1 9.91938e-10 1.1273e-19)
(1 9.62998e-10 1.1785e-19)
(1 9.35077e-10 -4.15266e-20)
(1 9.07452e-10 6.31573e-19)
(1 8.80716e-10 1.61401e-19)
(1 8.5432e-10 7.51247e-20)
(1 8.28697e-10 8.45401e-20)
(1 8.03461e-10 -7.15242e-20)
(1 7.78889e-10 6.04523e-19)
(1 7.54746e-10 1.38041e-19)
(1 7.31167e-10 5.66013e-20)
(1 7.08056e-10 6.93781e-20)
(1 6.85416e-10 -9.13869e-20)
(1 6.63281e-10 5.64544e-19)
(1 6.41535e-10 6.11413e-20)
(1 6.20326e-10 -6.44442e-20)
(1 5.99426e-10 -8.49605e-20)
(1 5.79093e-10 -2.51629e-19)
(1 5.58999e-10 4.30217e-19)
(1 5.39499e-10 -2.60887e-20)
(1 5.20175e-10 -1.02255e-19)
(1 5.01466e-10 -8.70502e-20)
(1 4.82875e-10 -2.37542e-19)
(1 4.64921e-10 4.45011e-19)
(1 4.4704e-10 -1.76096e-20)
(1 4.29811e-10 -1.00086e-19)
(1 4.12619e-10 -8.81524e-20)
(1 3.96083e-10 -2.3914e-19)
(1 3.79576e-10 4.44198e-19)
(1 3.6368e-10 -1.75729e-20)
(1 3.4794e-10 -9.95858e-20)
(1 3.32546e-10 -8.76234e-20)
(1 3.18171e-10 -2.38456e-19)
(1 3.02075e-10 4.4347e-19)
(1 2.92861e-10 -1.25827e-20)
(1 2.67203e-10 -1.22631e-19)
(1 2.88465e-10 2.19253e-20)
(1 2.13509e-10 -7.62976e-19)
(1.00013 -0.0012948 1.20577e-22)
(1.00197 -0.00388886 6.30092e-21)
(1.00615 -0.00660321 6.13388e-21)
(1.01247 -0.00947099 4.16563e-21)
(1.0212 -0.0124691 -5.89873e-20)
(1.03247 -0.0154478 -1.07419e-19)
(1.04623 -0.0181412 -1.43659e-19)
(1.06217 -0.0200678 -4.06326e-20)
(1.07947 -0.0207018 -1.13873e-18)
(1.09684 -0.0194906 -3.50949e-18)
(1.11234 -0.0161267 1.81973e-19)
(1.12412 -0.0110739 8.9135e-18)
(1.13102 -0.00488688 8.14065e-18)
(1.13226 0.00176897 -6.08048e-18)
(1.12781 0.00790419 -1.9101e-17)
(1.11859 0.0126726 -1.38471e-17)
(1.10612 0.0155829 3.05969e-18)
(1.09214 0.0165946 9.82332e-18)
(1.07818 0.0160639 -1.39514e-18)
(1.0653 0.0145802 -1.58275e-17)
(1.05402 0.0127491 -1.54697e-17)
(1.04437 0.0110005 8.91656e-19)
(1.03614 0.00950791 1.87733e-17)
(1.02906 0.00824132 2.43287e-17)
(1.02298 0.00709518 1.60813e-17)
(1.01781 0.00599637 2.5084e-18)
(1.01351 0.00493944 -7.52291e-18)
(1.01003 0.0039606 -1.07001e-17)
(1.00729 0.00309676 -8.71865e-18)
(1.00518 0.00236389 -4.74154e-18)
(1.00359 0.001759 -1.20688e-18)
(1.00244 0.00127136 7.05541e-19)
(1.00163 0.000889794 1.23961e-18)
(1.00107 0.000603193 9.65527e-19)
(1.00071 0.000398362 4.83417e-19)
(1.00048 0.000259317 2.32858e-19)
(1.00033 0.000168988 7.15942e-20)
(1.00023 0.000111846 -1.61282e-20)
(1.00017 7.57683e-05 -8.75529e-20)
(1.00012 5.24807e-05 -1.34343e-19)
(1.00009 3.69234e-05 -5.37679e-20)
(1.00006 2.62064e-05 -5.09085e-20)
(1.00004 1.86886e-05 -7.46191e-20)
(1.00003 1.3377e-05 -1.17889e-19)
(1.00002 9.61437e-06 -1.47374e-19)
(1.00002 6.94075e-06 -6.16079e-20)
(1.00001 5.03104e-06 -5.22916e-20)
(1.00001 3.65855e-06 -7.21188e-20)
(1.00001 2.66679e-06 -1.99992e-20)
(1 1.94735e-06 -1.63096e-19)
(1 1.42415e-06 3.60274e-19)
(1 1.04301e-06 5.31982e-19)
(1 7.64976e-07 -9.56762e-20)
(1 5.61913e-07 -1.97662e-19)
(1 4.13446e-07 -3.81845e-19)
(1 3.04796e-07 1.46971e-19)
(1 2.25226e-07 3.54008e-19)
(1 1.66908e-07 -2.2456e-19)
(1 1.24143e-07 -2.79765e-19)
(1 9.27564e-08 -4.37443e-19)
(1 6.9708e-08 1.29376e-19)
(1 5.27634e-08 2.25412e-19)
(1 4.02977e-08 2.09471e-19)
(1 3.11108e-08 2.84785e-19)
(1 2.43339e-08 -4.45542e-19)
(1 1.93201e-08 1.68779e-19)
(1 1.56056e-08 3.35302e-19)
(1 1.28397e-08 3.50507e-19)
(1 1.07761e-08 4.16389e-19)
(1 9.22321e-09 -3.54763e-19)
(1 8.05128e-09 2.05597e-19)
(1 7.15443e-09 3.25275e-19)
(1 6.46549e-09 3.12942e-19)
(1 5.92465e-09 3.70441e-19)
(1 5.49842e-09 -3.98281e-19)
(1 5.15191e-09 1.66618e-19)
(1 4.86972e-09 2.88948e-19)
(1 4.63045e-09 2.77274e-19)
(1 4.42836e-09 3.32876e-19)
(1 4.24939e-09 -4.43869e-19)
(1 4.09291e-09 1.03003e-19)
(1 3.9489e-09 1.98923e-19)
(1 3.81936e-09 1.62194e-19)
(1 3.69657e-09 2.07418e-19)
(1 3.58388e-09 -5.57017e-19)
(1 3.47488e-09 2.1987e-20)
(1 3.37354e-09 1.55911e-19)
(1 3.27427e-09 1.56214e-19)
(1 3.18124e-09 1.95662e-19)
(1 3.08944e-09 -4.49102e-19)
(1 3.00303e-09 -4.44205e-19)
(1 2.9174e-09 -3.69969e-19)
(1 2.8366e-09 -2.50507e-19)
(1 2.75634e-09 -1.32018e-19)
(1 2.68052e-09 -3.87308e-20)
(1 2.6051e-09 6.57717e-20)
(1 2.5338e-09 7.19649e-20)
(1 2.46282e-09 9.67295e-20)
(1 2.39567e-09 1.30893e-19)
(1 2.3288e-09 1.56794e-19)
(1 2.26549e-09 2.09082e-19)
(1 2.20243e-09 1.74654e-19)
(1 2.14268e-09 1.67782e-19)
(1 2.08315e-09 1.79409e-19)
(1 2.02669e-09 1.94064e-19)
(1 1.97045e-09 2.46161e-19)
(1 1.91705e-09 2.14281e-19)
(1 1.86385e-09 1.9601e-19)
(1 1.81327e-09 1.66467e-19)
(1 1.76288e-09 1.09147e-19)
(1 1.71492e-09 7.89961e-20)
(1 1.66715e-09 -1.20296e-20)
(1 1.6216e-09 -3.99722e-20)
(1 1.57625e-09 -2.68182e-20)
(1 1.53294e-09 -1.04468e-20)
(1 1.48984e-09 3.25991e-20)
(1 1.44861e-09 -8.53198e-21)
(1 1.40759e-09 -1.81591e-20)
(1 1.36828e-09 -1.72074e-21)
(1 1.3292e-09 -1.12563e-20)
(1 1.29169e-09 5.51565e-20)
(1 1.25443e-09 8.21873e-20)
(1 1.2186e-09 8.64214e-20)
(1 1.18302e-09 9.17799e-20)
(1 1.14876e-09 6.49201e-20)
(1 1.11478e-09 1.14568e-19)
(1 1.082e-09 1.27332e-19)
(1 1.0495e-09 1.20034e-19)
(1 1.0181e-09 1.16197e-19)
(1 9.87017e-10 8.19789e-20)
(1 9.56924e-10 1.26023e-19)
(1 9.27163e-10 1.35406e-19)
(1 8.98306e-10 1.26984e-19)
(1 8.69797e-10 1.21951e-19)
(1 8.42111e-10 8.09007e-20)
(1 8.14789e-10 1.06197e-19)
(1 7.88212e-10 8.34181e-20)
(1 7.62017e-10 3.68847e-20)
(1 7.36496e-10 2.36949e-21)
(1 7.11367e-10 -4.59142e-20)
(1 6.86855e-10 -1.64781e-21)
(1 6.62745e-10 1.24242e-20)
(1 6.39195e-10 5.39989e-21)
(1 6.16055e-10 -1.15735e-22)
(1 5.93426e-10 -3.49555e-20)
(1 5.71216e-10 1.02356e-20)
(1 5.4948e-10 1.94202e-20)
(1 5.28166e-10 7.37375e-21)
(1 5.07307e-10 -8.00071e-22)
(1 4.86857e-10 -3.60908e-20)
(1 4.66881e-10 9.67351e-21)
(1 4.47228e-10 1.94875e-20)
(1 4.28284e-10 7.76376e-21)
(1 4.09196e-10 -4.04362e-22)
(1 3.92116e-10 -3.56834e-20)
(1 3.71993e-10 9.47424e-21)
(1 3.61307e-10 2.10554e-20)
(1 3.30473e-10 2.16119e-21)
(1 3.51958e-10 1.79847e-20)
(1 2.70735e-10 -8.2724e-20)
(1.00013 -0.00179859 -3.30888e-20)
(1.00192 -0.00540502 -4.87404e-19)
(1.006 -0.00919482 -9.95834e-19)
(1.01223 -0.0132256 -1.53076e-18)
(1.02092 -0.0174771 -1.75633e-18)
(1.03227 -0.021749 -4.4119e-18)
(1.04634 -0.025673 -9.07137e-18)
(1.0629 -0.0285462 1.83226e-17)
(1.08115 -0.0295962 1.80349e-17)
(1.09972 -0.0279542 -1.14568e-16)
(1.11638 -0.0231329 -1.54935e-16)
(1.12898 -0.0158715 1.35994e-16)
(1.13634 -0.00696871 4.04669e-16)
(1.13754 0.00262458 2.67848e-16)
(1.13252 0.01144 -1.70476e-16)
(1.12234 0.0182446 -4.82123e-16)
(1.10877 0.0223455 -3.58136e-16)
(1.09373 0.0237134 8.69276e-17)
(1.07888 0.02288 4.72584e-16)
(1.06533 0.0206982 5.26675e-16)
(1.0536 0.0180341 2.8476e-16)
(1.04369 0.0155006 -1.38688e-17)
(1.03533 0.0133457 -1.66604e-16)
(1.02824 0.011528 -1.4468e-16)
(1.02221 0.00989751 -4.79773e-17)
(1.01712 0.0083479 1.89872e-17)
(1.01291 0.00686678 2.21658e-17)
(1.00951 0.00550029 -1.03649e-17)
(1.00685 0.00429643 -3.67674e-17)
(1.00481 0.00327532 -3.67829e-17)
(1.00329 0.00243207 -1.92161e-17)
(1.00219 0.0017521 -2.01904e-18)
(1.00144 0.00122067 7.18729e-18)
(1.00094 0.000822896 6.64808e-18)
(1.00062 0.000540353 2.7664e-18)
(1.00042 0.000350188 4.00562e-19)
(1.00029 0.00022786 -1.60346e-18)
(1.00021 0.00015115 -1.39346e-18)
(1.00015 0.000102929 -9.01121e-19)
(1.00011 7.17344e-05 -2.01938e-19)
(1.00008 5.07351e-05 7.17319e-19)
(1.00006 3.61369e-05 -3.45828e-19)
(1.00004 2.58233e-05 -5.159e-19)
(1.00003 1.85066e-05 -5.95541e-19)
(1.00002 1.33141e-05 -1.69267e-19)
(1.00002 9.62083e-06 6.98699e-19)
(1.00001 6.98002e-06 -3.20145e-19)
(1.00001 5.07958e-06 -4.82291e-19)
(1.00001 3.70443e-06 -2.88246e-19)
(1 2.70574e-06 -8.81926e-19)
(1 1.97888e-06 -2.41026e-19)
(1 1.44908e-06 3.84813e-20)
(1 1.06245e-06 8.99904e-20)
(1 7.79977e-07 2.52844e-19)
(1 5.73393e-07 -4.59925e-19)
(1 4.22179e-07 4.49614e-20)
(1 3.11421e-07 2.25865e-19)
(1 2.30242e-07 2.19472e-19)
(1 1.70711e-07 3.47676e-19)
(1 1.27025e-07 -3.96548e-19)
(1 9.49501e-08 8.99265e-20)
(1 7.13777e-08 1.96554e-19)
(1 5.40441e-08 3.53397e-19)
(1 4.12792e-08 -2.14509e-19)
(1 3.18718e-08 -4.14038e-20)
(1 2.49218e-08 1.43928e-18)
(1 1.97821e-08 4.82608e-19)
(1 1.59651e-08 3.70574e-19)
(1 1.31265e-08 -2.93098e-19)
(1 1.10004e-08 -1.80375e-19)
(1 9.40506e-09 1.26061e-18)
(1 8.19368e-09 2.94212e-19)
(1 7.27174e-09 2.03759e-19)
(1 6.55677e-09 -4.19307e-19)
(1 6.00113e-09 -2.65126e-19)
(1 5.557e-09 1.20478e-18)
(1 5.20195e-09 2.51243e-19)
(1 4.90695e-09 1.60895e-19)
(1 4.66305e-09 -4.71458e-19)
(1 4.45142e-09 -3.36015e-19)
(1 4.27029e-09 1.10521e-18)
(1 4.10643e-09 1.18133e-19)
(1 3.96183e-09 1.86106e-21)
(1 3.8264e-09 -6.34777e-19)
(1 3.70406e-09 -4.75884e-19)
(1 3.58654e-09 1.00994e-18)
(1 3.47867e-09 7.1501e-20)
(1 3.37327e-09 -3.46099e-21)
(1 3.27555e-09 -6.31722e-19)
(1 3.17907e-09 -4.25196e-19)
(1 3.08908e-09 9.06311e-19)
(1 2.99967e-09 3.50733e-19)
(1 2.916e-09 7.14253e-19)
(1 2.83255e-09 6.70583e-19)
(1 2.75431e-09 5.51993e-19)
(1 2.67612e-09 6.2153e-19)
(1 2.60272e-09 -1.2579e-19)
(1 2.52927e-09 2.8333e-19)
(1 2.46027e-09 3.23371e-19)
(1 2.39116e-09 2.82006e-19)
(1 2.32619e-09 4.14341e-19)
(1 2.26107e-09 -2.8459e-19)
(1 2.1998e-09 1.60826e-19)
(1 2.13838e-09 2.29985e-19)
(1 2.08053e-09 2.17698e-19)
(1 2.02252e-09 3.8404e-19)
(1 1.96782e-09 -2.79768e-19)
(1 1.91296e-09 1.87178e-19)
(1 1.86117e-09 2.46554e-19)
(1 1.80923e-09 1.86964e-19)
(1 1.76013e-09 2.83416e-19)
(1 1.71089e-09 -4.41946e-19)
(1 1.66427e-09 7.86599e-22)
(1 1.61753e-09 8.27697e-20)
(1 1.57321e-09 7.85266e-20)
(1 1.5288e-09 2.36114e-19)
(1 1.48661e-09 -4.43602e-19)
(1 1.44435e-09 1.47661e-20)
(1 1.40414e-09 1.18882e-19)
(1 1.36388e-09 -2.5857e-22)
(1 1.32551e-09 6.85668e-19)
(1 1.28713e-09 1.89853e-19)
(1 1.25048e-09 6.06675e-20)
(1 1.21385e-09 4.55787e-20)
(1 1.17881e-09 -8.37599e-20)
(1 1.14382e-09 6.1407e-19)
(1 1.11029e-09 1.32143e-19)
(1 1.07684e-09 1.47926e-20)
(1 1.04473e-09 9.00905e-21)
(1 1.01273e-09 -1.13315e-19)
(1 9.81957e-10 5.89946e-19)
(1 9.51332e-10 1.13008e-19)
(1 9.21823e-10 8.38385e-22)
(1 8.92493e-10 -1.23966e-21)
(1 8.64182e-10 -1.26142e-19)
(1 8.36078e-10 5.62666e-19)
(1 8.08907e-10 5.81669e-20)
(1 7.81968e-10 -8.76081e-20)
(1 7.55882e-10 -1.15675e-19)
(1 7.3005e-10 -2.46191e-19)
(1 7.05002e-10 4.61116e-19)
(1 6.80225e-10 -8.4873e-21)
(1 6.5617e-10 -1.17104e-19)
(1 6.32406e-10 -1.1797e-19)
(1 6.09309e-10 -2.35891e-19)
(1 5.86517e-10 4.72295e-19)
(1 5.64353e-10 -1.85734e-21)
(1 5.42506e-10 -1.15148e-19)
(1 5.2127e-10 -1.18483e-19)
(1 5.00341e-10 -2.36826e-19)
(1 4.80061e-10 4.71877e-19)
(1 4.59989e-10 -1.72739e-21)
(1 4.40854e-10 -1.14763e-19)
(1 4.21388e-10 -1.18168e-19)
(1 4.04308e-10 -2.36392e-19)
(1 3.83865e-10 4.70999e-19)
(1 3.73e-10 2.90541e-21)
(1 3.43202e-10 -1.36871e-19)
(1 3.58592e-10 -1.26709e-20)
(1 2.86878e-10 -7.44078e-19)
(1.00012 -0.0022867 -2.34409e-18)
(1.00185 -0.00687712 -7.82526e-18)
(1.00579 -0.0117287 -7.15874e-18)
(1.01187 -0.0169347 -8.39867e-18)
(1.02047 -0.0224912 -4.03174e-18)
(1.03189 -0.0281592 -2.14624e-17)
(1.04635 -0.0334739 -2.79716e-17)
(1.06373 -0.0374835 9.21527e-17)
(1.08328 -0.0391331 4.40176e-17)
(1.10357 -0.0371206 -3.83828e-16)
(1.12184 -0.0307156 -5.01454e-16)
(1.13559 -0.0210408 6.25532e-16)
(1.14357 -0.00914695 2.04635e-15)
(1.14471 0.00373263 1.81787e-15)
(1.13886 0.0155421 -4.08164e-16)
(1.12736 0.0245734 -2.74845e-15)
(1.11227 0.0299024 -2.61759e-15)
(1.09579 0.0315426 3.8434e-16)
(1.07976 0.0302574 3.85222e-15)
(1.06533 0.0272126 4.9019e-15)
(1.053 0.0235665 2.85157e-15)
(1.04274 0.0201293 -4.40949e-16)
(1.03423 0.0172267 -2.55972e-15)
(1.02712 0.0148031 -2.55444e-15)
(1.02114 0.0126583 -1.22726e-15)
(1.01616 0.0106458 4.68187e-17)
(1.01207 0.00873949 5.08622e-16)
(1.00879 0.00698958 2.79957e-16)
(1.00623 0.0054508 -1.12211e-16)
(1.00429 0.00414521 -2.94055e-16)
(1.00286 0.00306585 -2.3071e-16)
(1.00185 0.00219544 -7.74904e-17)
(1.00118 0.00151701 2.66697e-17)
(1.00075 0.00101256 4.89654e-17)
(1.00049 0.000658138 2.80046e-17)
(1.00033 0.000423108 4.93345e-18)
(1.00024 0.00027445 -3.92198e-18)
(1.00017 0.000182618 -3.36229e-18)
(1.00013 0.000125323 -1.43475e-18)
(1.00009 8.81259e-05 -3.50287e-19)
(1.00007 6.27823e-05 -3.94452e-19)
(1.00005 4.49234e-05 -4.39907e-20)
(1.00004 3.21822e-05 1.22281e-19)
(1.00003 2.30983e-05 -3.7384e-19)
(1.00002 1.66397e-05 -4.03455e-19)
(1.00001 1.20413e-05 -4.40839e-19)
(1.00001 8.74853e-06 1.06047e-19)
(1.00001 6.37412e-06 2.99772e-19)
(1.00001 4.65242e-06 -2.61114e-19)
(1 3.39992e-06 -1.06363e-19)
(1 2.48727e-06 1.59142e-18)
(1 1.82154e-06 1.84421e-18)
(1 1.33544e-06 1.06399e-18)
(1 9.80128e-07 9.30477e-19)
(1 7.20177e-07 -2.44059e-20)
(1 5.29843e-07 8.64082e-19)
(1 3.904e-07 1.05056e-18)
(1 2.88183e-07 3.77776e-19)
(1 2.1322e-07 3.75159e-19)
(1 1.58211e-07 -4.72955e-19)
(1 1.17825e-07 5.21542e-19)
(1 8.81508e-08 6.6116e-19)
(1 6.6336e-08 6.01046e-19)
(1 5.02792e-08 6.41475e-19)
(1 3.84524e-08 -2.58623e-19)
(1 2.9724e-08 9.08701e-19)
(1 2.3276e-08 5.12177e-19)
(1 1.84968e-08 3.60596e-19)
(1 1.49497e-08 3.88024e-19)
(1 1.23023e-08 -5.18358e-19)
(1 1.03226e-08 6.51633e-19)
(1 8.82851e-09 2.79423e-19)
(1 7.69803e-09 1.75278e-19)
(1 6.8298e-09 2.61035e-19)
(1 6.16112e-09 -5.93291e-19)
(1 5.63422e-09 6.11085e-19)
(1 5.21823e-09 2.54754e-19)
(1 4.87898e-09 1.54025e-19)
(1 4.60267e-09 2.3583e-19)
(1 4.36795e-09 -6.3009e-19)
(1 4.17012e-09 5.5231e-19)
(1 3.99485e-09 1.65441e-19)
(1 3.84225e-09 3.57642e-20)
(1 3.7019e-09 1.04414e-19)
(1 3.5764e-09 -7.501e-19)
(1 3.45756e-09 4.65746e-19)
(1 3.34923e-09 1.18582e-19)
(1 3.24452e-09 3.29685e-20)
(1 3.14784e-09 7.67725e-20)
(1 3.05314e-09 -5.49477e-19)
(1 2.96501e-09 -4.56037e-19)
(1 2.87795e-09 -9.59953e-19)
(1 2.79656e-09 -8.86412e-19)
(1 2.71574e-09 -8.5419e-19)
(1 2.63998e-09 -1.88757e-19)
(1 2.56452e-09 1.27571e-19)
(1 2.49367e-09 -4.12338e-19)
(1 2.42295e-09 -4.23645e-19)
(1 2.35647e-09 -4.7365e-19)
(1 2.29004e-09 1.22491e-19)
(1 2.22752e-09 3.82181e-19)
(1 2.165e-09 -2.04589e-19)
(1 2.10611e-09 -2.55221e-19)
(1 2.04718e-09 -3.36065e-19)
(1 1.99161e-09 2.42205e-19)
(1 1.93599e-09 5.00758e-19)
(1 1.88349e-09 -7.4537e-20)
(1 1.83092e-09 -1.16498e-19)
(1 1.78125e-09 -2.11816e-19)
(1 1.73149e-09 3.17574e-19)
(1 1.68442e-09 5.01591e-19)
(1 1.63727e-09 -1.47557e-19)
(1 1.59259e-09 -2.34271e-19)
(1 1.54784e-09 -3.31966e-19)
(1 1.50538e-09 2.2934e-19)
(1 1.46287e-09 4.57797e-19)
(1 1.42246e-09 -1.54613e-19)
(1 1.38202e-09 -2.24228e-19)
(1 1.34351e-09 -3.14176e-19)
(1 1.30499e-09 2.26195e-19)
(1 1.26826e-09 4.81014e-19)
(1 1.23153e-09 -6.24539e-20)
(1 1.19645e-09 -1.18785e-19)
(1 1.1614e-09 -2.20826e-19)
(1 1.12787e-09 3.01317e-19)
(1 1.0944e-09 5.38769e-19)
(1 1.06231e-09 -1.92602e-20)
(1 1.03031e-09 -8.71707e-20)
(1 9.9959e-10 -1.98319e-19)
(1 9.68984e-10 3.1655e-19)
(1 9.39549e-10 5.48354e-19)
(1 9.10255e-10 -1.32904e-20)
(1 8.82037e-10 -8.26882e-20)
(1 8.53984e-10 -1.95283e-19)
(1 8.26921e-10 3.1301e-19)
(1 8.00047e-10 5.27181e-19)
(1 7.74083e-10 -6.46459e-20)
(1 7.48329e-10 -1.69802e-19)
(1 7.23412e-10 -3.09998e-19)
(1 6.98724e-10 1.91733e-19)
(1 6.74812e-10 4.24153e-19)
(1 6.51148e-10 -1.32484e-19)
(1 6.28204e-10 -1.99941e-19)
(1 6.05523e-10 -3.12443e-19)
(1 5.83516e-10 2.02164e-19)
(1 5.61785e-10 4.35513e-19)
(1 5.40697e-10 -1.25755e-19)
(1 5.19898e-10 -1.97986e-19)
(1 4.99734e-10 -3.13009e-19)
(1 4.79847e-10 2.01179e-19)
(1 4.60654e-10 4.35074e-19)
(1 4.41629e-10 -1.25624e-19)
(1 4.23619e-10 -1.97594e-19)
(1 4.05222e-10 -3.12714e-19)
(1 3.89299e-10 2.01601e-19)
(1 3.70133e-10 4.34036e-19)
(1 3.59721e-10 -1.20676e-19)
(1 3.33241e-10 -2.20826e-19)
(1 3.42321e-10 -2.0598e-19)
(1 2.84618e-10 -2.8994e-19)
(1.00012 -0.00275264 2.5428e-18)
(1.00175 -0.00828639 8.45344e-18)
(1.00549 -0.0141773 8.07437e-18)
(1.01135 -0.0205695 8.10414e-18)
(1.0198 -0.0274933 2.17808e-17)
(1.03126 -0.0346906 -3.28803e-17)
(1.04615 -0.041612 2.08772e-16)
(1.06454 -0.0470241 -4.34969e-16)
(1.08579 -0.0495442 -6.37151e-16)
(1.10838 -0.0472533 2.67316e-15)
(1.12881 -0.0390897 3.83519e-15)
(1.14408 -0.0267418 -1.87611e-15)
(1.15293 -0.0115328 -6.5926e-15)
(1.15402 0.00500121 -4.73209e-15)
(1.14706 0.0200937 -1.92267e-15)
(1.13374 0.0315068 -2.94323e-15)
(1.11659 0.03809 -3.7551e-15)
(1.09821 0.0399406 1.87681e-15)
(1.08064 0.0380959 1.14273e-14)
(1.06511 0.0340669 1.49709e-14)
(1.05208 0.0293239 6.81312e-15)
(1.04143 0.0248852 -7.60802e-15)
(1.03277 0.0211583 -1.72605e-14)
(1.02566 0.0180741 -1.61466e-14)
(1.01979 0.0153805 -7.49556e-15)
(1.01495 0.0128877 1.02026e-15)
(1.01101 0.0105511 4.39223e-15)
(1.00789 0.0084198 2.95609e-15)
(1.00546 0.00655058 2.82354e-17)
(1.00363 0.00496464 -1.70236e-15)
(1.00232 0.00365221 -1.71474e-15)
(1.00142 0.00259414 -8.96624e-16)
(1.00085 0.00177257 -1.75031e-16)
(1.00051 0.00116709 1.28465e-16)
(1.00033 0.000747925 1.43549e-16)
(1.00023 0.000475547 7.95401e-17)
(1.00017 0.00030728 3.45674e-17)
(1.00013 0.000205495 1.53123e-17)
(1.0001 0.000142601 5.56561e-18)
(1.00008 0.00010148 -1.84243e-18)
(1.00006 7.29397e-05 -4.85638e-18)
(1.00004 5.24471e-05 -4.28493e-18)
(1.00003 3.76503e-05 -1.83893e-18)
(1.00002 2.70499e-05 4.7312e-19)
(1.00002 1.95073e-05 9.04142e-19)
(1.00001 1.41368e-05 6.9051e-19)
(1.00001 1.02868e-05 -2.16705e-19)
(1.00001 7.50448e-06 -5.59782e-19)
(1 5.48222e-06 1.08801e-19)
(1 4.00842e-06 -1.094e-19)
(1 2.93331e-06 -1.18616e-18)
(1 2.14856e-06 -1.33046e-18)
(1 1.57529e-06 -6.33243e-19)
(1 1.15609e-06 -4.05408e-19)
(1 8.49284e-07 -2.6173e-19)
(1 6.24568e-07 -7.35277e-19)
(1 4.59898e-07 -8.30782e-19)
(1 3.39168e-07 -1.88331e-19)
(1 2.50619e-07 -2.588e-20)
(1 1.85636e-07 5.90405e-20)
(1 1.37928e-07 -4.84134e-19)
(1 1.02875e-07 -5.58172e-19)
(1 7.71094e-08 -3.54918e-19)
(1 5.8149e-08 -9.41199e-19)
(1 4.41876e-08 -4.34535e-19)
(1 3.38894e-08 -1.53726e-19)
(1 2.62865e-08 -5.30376e-20)
(1 2.06576e-08 1.43032e-19)
(1 1.64849e-08 -5.09968e-19)
(1 1.3377e-08 -9.36371e-20)
(1 1.10582e-08 9.43332e-20)
(1 9.3146e-09 1.17353e-19)
(1 8.00054e-09 2.60296e-19)
(1 6.9975e-09 -4.23055e-19)
(1 6.22995e-09 -2.32067e-20)
(1 5.63084e-09 1.53756e-19)
(1 5.16231e-09 1.68332e-19)
(1 4.78515e-09 3.06638e-19)
(1 4.48173e-09 -3.77804e-19)
(1 4.22797e-09 1.87196e-20)
(1 4.01704e-09 1.81345e-19)
(1 3.83313e-09 1.66581e-19)
(1 3.67518e-09 2.67134e-19)
(1 3.53193e-09 -4.48609e-19)
(1 3.40537e-09 -6.33457e-20)
(1 3.2868e-09 1.11579e-19)
(1 3.17974e-09 1.23663e-19)
(1 3.07702e-09 2.54143e-19)
(1 2.98288e-09 -4.47763e-19)
(1 2.89107e-09 -4.06075e-20)
(1 2.80613e-09 1.09289e-19)
(1 2.72241e-09 -3.34675e-20)
(1 2.6445e-09 6.19066e-19)
(1 2.5672e-09 1.1632e-19)
(1 2.49502e-09 1.22451e-20)
(1 2.42311e-09 7.02367e-20)
(1 2.35581e-09 -8.07408e-20)
(1 2.28859e-09 5.77865e-19)
(1 2.2256e-09 8.20807e-20)
(1 2.16255e-09 -1.62502e-20)
(1 2.10341e-09 4.58571e-20)
(1 2.04416e-09 -1.03105e-19)
(1 1.98851e-09 5.55729e-19)
(1 1.93271e-09 6.12023e-20)
(1 1.88025e-09 -2.97177e-20)
(1 1.82761e-09 4.92323e-20)
(1 1.77808e-09 -7.80856e-20)
(1 1.72834e-09 5.9304e-19)
(1 1.68148e-09 8.51424e-20)
(1 1.63443e-09 -5.03017e-20)
(1 1.59003e-09 -3.3703e-20)
(1 1.54544e-09 -2.14336e-19)
(1 1.50332e-09 4.36852e-19)
(1 1.46102e-09 -5.06858e-20)
(1 1.42099e-09 -1.38605e-19)
(1 1.3808e-09 -7.07509e-20)
(1 1.34272e-09 -2.13641e-19)
(1 1.30448e-09 4.48309e-19)
(1 1.2682e-09 -1.56049e-20)
(1 1.23179e-09 -2.24759e-19)
(1 1.19718e-09 3.88688e-19)
(1 1.16247e-09 4.63419e-19)
(1 1.12941e-09 5.40758e-19)
(1 1.09629e-09 -5.25612e-20)
(1 1.0647e-09 -2.84247e-19)
(1 1.03306e-09 3.30495e-19)
(1 1.00284e-09 4.11052e-19)
(1 9.72594e-10 4.94518e-19)
(1 9.43659e-10 -9.3344e-20)
(1 9.14731e-10 -3.2054e-19)
(1 8.87009e-10 2.97982e-19)
(1 8.59325e-10 3.82508e-19)
(1 8.32754e-10 4.70636e-19)
(1 8.06245e-10 -1.13842e-19)
(1 7.80763e-10 -3.44382e-19)
(1 7.5537e-10 2.57762e-19)
(1 7.30929e-10 3.11509e-19)
(1 7.06598e-10 3.625e-19)
(1 6.8315e-10 -2.50002e-19)
(1 6.59832e-10 -4.85116e-19)
(1 6.3734e-10 1.39889e-19)
(1 6.14999e-10 2.34873e-19)
(1 5.9343e-10 3.29173e-19)
(1 5.72034e-10 -2.5191e-19)
(1 5.51366e-10 -4.72687e-19)
(1 5.30887e-10 1.53053e-19)
(1 5.1111e-10 2.42528e-19)
(1 4.9154e-10 3.3127e-19)
(1 4.72674e-10 -2.52721e-19)
(1 4.54007e-10 -4.7396e-19)
(1 4.36112e-10 1.52433e-19)
(1 4.1831e-10 2.42585e-19)
(1 4.01606e-10 3.31633e-19)
(1 3.84466e-10 -2.52463e-19)
(1 3.69784e-10 -4.73574e-19)
(1 3.5217e-10 1.51212e-19)
(1 3.42161e-10 2.48014e-19)
(1 3.19156e-10 3.05453e-19)
(1 3.23277e-10 -1.30718e-19)
(1 2.77486e-10 -1.0438e-18)
(1.00011 -0.0031883 -3.55582e-19)
(1.00161 -0.00960916 1.33322e-18)
(1.00509 -0.0165041 -1.97723e-18)
(1.01063 -0.0240873 2.86142e-17)
(1.01882 -0.0324468 -1.44928e-16)
(1.03023 -0.0413362 2.47235e-16)
(1.04557 -0.0501421 1.02889e-15)
(1.06515 -0.0573163 -4.78386e-15)
(1.08854 -0.0610949 5.41816e-16)
(1.11415 -0.0586539 1.85511e-14)
(1.13739 -0.0484772 1.31746e-14)
(1.15457 -0.0331005 -4.24448e-14)
(1.16453 -0.0140823 -9.84541e-14)
(1.1655 0.00678569 -8.68268e-14)
(1.15708 0.0257564 -1.68141e-14)
(1.14142 0.0398603 4.6831e-14)
(1.12169 0.0476834 5.35017e-14)
(1.10097 0.049515 1.56387e-14)
(1.08155 0.0467985 -2.42531e-14)