/*--------------------------------*- C++ -*----------------------------------*\
  =========                 |
  \\      /  F ield         | OpenFOAM: The Open Source CFD Toolbox
   \\    /   O peration     | Website:  https://openfoam.org
    \\  /    A nd           | Version:  11
     \\/     M anipulation  |
\*---------------------------------------------------------------------------*/
FoamFile
{
    format      ascii;
    class       volVectorField;
    location    "3.544485";
    object      U;
}
// * * * * * * * * * * * * * * * * * * * * * * * * * * * * * * * * * * * * * //

dimensions      [0 1 -1 0 0 0 0];

internalField   nonuniform List<vector> 
7132
(
(1.00014 -0.000289349 1.79509e-18)
(1.00224 -0.000872884 7.76806e-18)
(1.00699 -0.00149195 7.93614e-18)
(1.01422 -0.00215826 9.04516e-18)
(1.02423 -0.00287489 1.11964e-17)
(1.0372 -0.00362142 1.16335e-17)
(1.05321 -0.00435783 1.10749e-17)
(1.07209 -0.00500517 1.02522e-17)
(1.09333 -0.00547797 9.56933e-18)
(1.11603 -0.00568397 9.16452e-18)
(1.13893 -0.00556752 8.82599e-18)
(1.16074 -0.00518513 8.77001e-18)
(1.18053 -0.00458557 7.75628e-18)
(1.19752 -0.0038162 8.31812e-18)
(1.21114 -0.00291873 -1.60646e-18)
(1.22093 -0.0019218 -1.10414e-17)
(1.22656 -0.000854 -2.17269e-17)
(1.2278 0.000247502 -1.92105e-17)
(1.22459 0.00133137 -2.58907e-17)
(1.21712 0.00233396 -3.77766e-17)
(1.20585 0.00318936 -3.98139e-17)
(1.1915 0.00384321 -4.04284e-17)
(1.17496 0.00426495 -4.04343e-17)
(1.15722 0.0044531 -4.17567e-17)
(1.13918 0.00443209 -3.50894e-17)
(1.12162 0.00424358 -3.68519e-17)
(1.10512 0.00393637 -3.94848e-17)
(1.09005 0.00355788 -4.20744e-17)
(1.0766 0.00314862 -4.46725e-17)
(1.06483 0.00273968 -4.34307e-17)
(1.05467 0.00235251 -4.1246e-17)
(1.04601 0.00200007 -3.93557e-17)
(1.03868 0.00168863 -3.9417e-17)
(1.03251 0.00141967 -3.67666e-17)
(1.02733 0.00119149 -3.36544e-17)
(1.02299 0.00100058 -2.95952e-17)
(1.01934 0.000842541 -2.52129e-17)
(1.01626 0.000712748 -2.10429e-17)
(1.01364 0.000606747 -1.47729e-17)
(1.01141 0.000520478 -8.37209e-18)
(1.00948 0.000450379 -1.44392e-18)
(1.00781 0.000393413 5.28842e-18)
(1.00634 0.000347045 1.21712e-17)
(1.00503 0.000309193 2.01617e-17)
(1.00386 0.000278162 2.72841e-17)
(1.00281 0.000252574 3.37032e-17)
(1.00184 0.000231293 3.80326e-17)
(1.00095 0.000213365 4.05899e-17)
(1.00013 0.00019797 4.20346e-17)
(0.999366 0.000184399 4.03448e-17)
(0.998652 0.00017206 3.54103e-17)
(0.997986 0.000160517 2.95224e-17)
(0.997364 0.000149516 2.38348e-17)
(0.996785 0.000138929 1.83072e-17)
(0.996247 0.000128531 1.50508e-17)
(0.995751 0.000117609 1.46249e-17)
(0.9953 0.000104512 1.74935e-17)
(0.994907 8.64482e-05 2.12314e-17)
(0.994599 5.98624e-05 1.97671e-17)
(0.994417 2.1591e-05 9.77895e-18)
(0.994412 -2.9411e-05 -8.7821e-18)
(0.994634 -9.04128e-05 -2.83964e-17)
(0.995113 -0.000154205 -3.94167e-17)
(0.995843 -0.000210048 -3.56765e-17)
(0.996769 -0.000246332 -1.57886e-17)
(0.997792 -0.000254173 9.23588e-18)
(0.998785 -0.000230604 2.66167e-17)
(0.999624 -0.000180008 2.99982e-17)
(1.00022 -0.000113095 2.43985e-17)
(1.00053 -4.37751e-05 2.82631e-17)
(1.00057 1.48848e-05 5.52711e-17)
(1.0004 5.40854e-05 1.05287e-16)
(1.00013 7.09713e-05 1.57229e-16)
(0.999834 6.82337e-05 1.7513e-16)
(0.999582 5.21642e-05 1.30623e-16)
(0.999413 3.01409e-05 1.54035e-17)
(0.999337 8.50185e-06 -1.45247e-16)
(0.999342 -8.64212e-06 -3.01812e-16)
(0.999405 -1.95955e-05 -4.03225e-16)
(0.999499 -2.45672e-05 -4.15366e-16)
(0.999603 -2.48756e-05 -3.4063e-16)
(0.999699 -2.22102e-05 -2.10302e-16)
(0.999781 -1.81238e-05 -7.01459e-17)
(0.999845 -1.37808e-05 3.79055e-17)
(0.999892 -9.90136e-06 9.44651e-17)
(0.999924 -6.81952e-06 9.96005e-17)
(0.999946 -4.58896e-06 7.12142e-17)
(0.999961 -3.09492e-06 3.23515e-17)
(0.999971 -2.15038e-06 -2.7185e-19)
(0.999978 -1.56605e-06 -1.66126e-17)
(0.999983 -1.1908e-06 -1.901e-17)
(0.999988 -9.25452e-07 -1.33217e-17)
(0.999991 -7.17386e-07 -4.76434e-18)
(0.999993 -5.45564e-07 5.63998e-19)
(0.999995 -4.04735e-07 2.94213e-18)
(0.999997 -2.93994e-07 2.89282e-18)
(0.999998 -2.11168e-07 1.51042e-18)
(0.999998 -1.51736e-07 1.00133e-18)
(0.999999 -1.10003e-07 -1.35037e-19)
(0.999999 -8.06235e-08 -3.84806e-19)
(0.999999 -5.95004e-08 -2.07637e-19)
(1 -4.39237e-08 -1.71205e-19)
(1 -3.22536e-08 6.54768e-19)
(1 -2.34963e-08 2.31365e-19)
(1 -1.698e-08 1.11445e-19)
(1 -1.21861e-08 1.16294e-19)
(1 -8.68817e-09 -6.25538e-20)
(1 -6.14339e-09 6.34913e-19)
(1 -4.28872e-09 1.83501e-19)
(1 -2.93325e-09 9.43704e-20)
(1 -1.94061e-09 1.43464e-19)
(1 -1.21495e-09 -3.69224e-21)
(1 -6.85914e-10 7.06189e-19)
(1 -3.0278e-10 2.51406e-19)
(1 -2.64609e-11 1.49038e-19)
(1 1.70745e-10 1.79391e-19)
(1 3.10799e-10 1.32319e-20)
(1 4.08253e-10 6.98378e-19)
(1 4.75398e-10 2.54331e-19)
(1 5.19491e-10 1.95471e-20)
(1 5.47691e-10 6.13247e-19)
(1 5.63337e-10 7.03037e-19)
(1 5.70901e-10 8.12622e-19)
(1 5.71567e-10 2.34536e-19)
(1 5.68395e-10 -3.16803e-20)
(1 5.61354e-10 5.53031e-19)
(1 5.52785e-10 6.37802e-19)
(1 5.41954e-10 7.43033e-19)
(1 5.30853e-10 1.61732e-19)
(1 5.18334e-10 -1.05486e-19)
(1 5.06239e-10 4.81015e-19)
(1 4.93157e-10 5.70126e-19)
(1 4.80886e-10 6.81299e-19)
(1 4.67833e-10 1.0627e-19)
(1 4.55812e-10 -1.55487e-19)
(1 4.43098e-10 4.34991e-19)
(1 4.31543e-10 5.26495e-19)
(1 4.1932e-10 6.38833e-19)
(1 4.0833e-10 6.43101e-20)
(1 3.96663e-10 -1.97056e-19)
(1 3.86272e-10 3.94046e-19)
(1 3.75177e-10 4.86542e-19)
(1 3.65386e-10 6.00229e-19)
(1 3.54858e-10 2.73519e-20)
(1 3.45651e-10 -2.32121e-19)
(1 3.35667e-10 3.61046e-19)
(1 3.27014e-10 4.55573e-19)
(1 3.17539e-10 5.70762e-19)
(1 3.09408e-10 -1.98307e-21)
(1 3.00406e-10 -2.63763e-19)
(1 2.92802e-10 3.23712e-19)
(1 2.84211e-10 4.08831e-19)
(1 2.7724e-10 5.1167e-19)
(1 2.68776e-10 -7.44777e-20)
(1 2.63022e-10 -3.47314e-19)
(1 2.53306e-10 2.32313e-19)
(1 2.52246e-10 3.25388e-19)
(1 2.34248e-10 4.04217e-19)
(1 2.55539e-10 -1.37396e-20)
(1 2.03928e-10 -9.81361e-19)
(1.00014 -0.000865186 3.13604e-20)
(1.00222 -0.00261137 3.72741e-19)
(1.00693 -0.00446539 7.29436e-19)
(1.01412 -0.00646496 1.08714e-18)
(1.02409 -0.00862031 1.48379e-18)
(1.03706 -0.0108714 1.87201e-18)
(1.05313 -0.0130987 2.24454e-18)
(1.07215 -0.0150617 2.10479e-18)
(1.09362 -0.0165003 5.49017e-18)
(1.11663 -0.0171271 6.89616e-18)
(1.13983 -0.0167705 4.23031e-18)
(1.1619 -0.0156119 4.87361e-18)
(1.18189 -0.0138015 1.11139e-18)
(1.19904 -0.0114835 1.22681e-17)
(1.21278 -0.00878331 3.95645e-17)
(1.22266 -0.00578513 6.86231e-17)
(1.22835 -0.00257221 8.00365e-17)
(1.22959 0.000746053 6.83634e-17)
(1.22634 0.00401597 4.3774e-17)
(1.21875 0.00704442 1.21854e-17)
(1.2073 0.0096294 -2.1024e-17)
(1.19272 0.0116037 -5.20361e-17)
(1.17595 0.0128731 -7.85581e-17)
(1.15798 0.0134334 -9.97943e-17)
(1.13974 0.0133601 -1.14993e-16)
(1.12203 0.0127811 -1.24764e-16)
(1.10543 0.0118455 -1.29793e-16)
(1.0903 0.0106973 -1.30791e-16)
(1.07683 0.00945926 -1.28324e-16)
(1.06506 0.00822477 -1.22229e-16)
(1.05492 0.00705802 -1.09812e-16)
(1.04629 0.00599747 -9.92806e-17)
(1.03899 0.00506146 -8.41665e-17)
(1.03285 0.00425393 -6.39766e-17)
(1.02771 0.00356944 -4.21916e-17)
(1.02339 0.00299716 -1.61016e-17)
(1.01977 0.00252369 8.18405e-18)
(1.01671 0.00213504 3.23547e-17)
(1.01411 0.00181777 5.71061e-17)
(1.01189 0.00155964 8.11613e-17)
(1.00997 0.00134995 1.05856e-16)
(1.0083 0.00117958 1.26991e-16)
(1.00683 0.00104092 1.46262e-16)
(1.00553 0.000927752 1.62562e-16)
(1.00436 0.00083499 1.74184e-16)
(1.0033 0.000758512 1.80562e-16)
(1.00234 0.000694924 1.77571e-16)
(1.00144 0.00064138 1.67093e-16)
(1.00062 0.000595429 1.49229e-16)
(0.999847 0.000554949 1.23423e-16)
(0.999127 0.000518168 9.34372e-17)
(0.998453 0.000483773 6.06413e-17)
(0.997823 0.000450991 2.8967e-17)
(0.997234 0.000419433 3.57474e-18)
(0.996687 0.000388453 -1.23263e-17)
(0.99618 0.000355983 -1.55817e-17)
(0.995717 0.000317194 -1.28001e-17)
(0.995311 0.000263847 -1.62739e-17)
(0.994986 0.000185374 -4.09887e-17)
(0.994783 7.22472e-05 -9.67427e-17)
(0.994752 -7.88882e-05 -1.74582e-16)
(0.994941 -0.000260224 -2.53355e-16)
(0.995383 -0.000450581 -3.06222e-16)
(0.996071 -0.0006181 -3.22549e-16)
(0.996955 -0.000728067 -3.17159e-16)
(0.997937 -0.000753649 -3.27729e-16)
(0.998895 -0.000685499 -3.91586e-16)
(0.999705 -0.000536193 -5.02524e-16)
(1.00028 -0.000337366 -6.09454e-16)
(1.00057 -0.000130471 -6.30473e-16)
(1.00059 4.52775e-05 -5.06961e-16)
(1.00042 0.000163225 -2.56603e-16)
(1.00014 0.000214429 2.63202e-17)
(0.999839 0.000206624 1.96494e-16)
(0.999581 0.000158482 1.34792e-16)
(0.999408 9.2111e-05 -1.88102e-16)
(0.999331 2.66357e-05 -6.8738e-16)
(0.999336 -2.54318e-05 -1.18472e-15)
(0.9994 -5.88378e-05 -1.49696e-15)
(0.999497 -7.41051e-05 -1.50905e-15)
(0.999602 -7.5166e-05 -1.2229e-15)
(0.999701 -6.71307e-05 -7.50577e-16)
(0.999784 -5.47315e-05 -2.48427e-16)
(0.999848 -4.15356e-05 1.40084e-16)
(0.999895 -2.97567e-05 3.41895e-16)
(0.999927 -2.04215e-05 3.62678e-16)
(0.999948 -1.36915e-05 2.61192e-16)
(0.999962 -9.20829e-06 1.2113e-16)
(0.999972 -6.39301e-06 4.47455e-18)
(0.999978 -4.66278e-06 -5.77829e-17)
(0.999984 -3.55544e-06 -6.76807e-17)
(0.999988 -2.77053e-06 -4.84485e-17)
(0.999991 -2.15109e-06 -1.99161e-17)
(0.999993 -1.63647e-06 1.43389e-18)
(0.999995 -1.21328e-06 1.09061e-17)
(0.999997 -8.803e-07 1.10833e-17)
(0.999998 -6.31575e-07 6.034e-18)
(0.999998 -4.53515e-07 2.01261e-18)
(0.999999 -3.28782e-07 -5.30841e-19)
(0.999999 -2.41108e-07 -1.24153e-18)
(0.999999 -1.78081e-07 -6.75757e-19)
(1 -1.31557e-07 -6.68846e-19)
(1 -9.66548e-08 3.03631e-19)
(1 -7.04383e-08 5.66908e-19)
(1 -5.09251e-08 4.92518e-19)
(1 -3.65729e-08 5.03123e-19)
(1 -2.61056e-08 -2.757e-19)
(1 -1.84931e-08 1.90455e-19)
(1 -1.29457e-08 3.06041e-19)
(1 -8.89018e-09 3.03767e-19)
(1 -5.9194e-09 4.43958e-19)
(1 -3.74626e-09 -2.41532e-19)
(1 -2.16165e-09 2.60512e-19)
(1 -1.01299e-09 3.7177e-19)
(1 -1.84516e-10 3.48578e-19)
(1 4.07939e-10 4.65822e-19)
(1 8.28759e-10 -2.37677e-19)
(1 1.12289e-09 2.44532e-19)
(1 1.3256e-09 3.68913e-19)
(1 1.46017e-09 2.2415e-19)
(1 1.54633e-09 8.9059e-19)
(1 1.59583e-09 4.10367e-19)
(1 1.62019e-09 3.13458e-19)
(1 1.62487e-09 3.12532e-19)
(1 1.61702e-09 1.47126e-19)
(1 1.59864e-09 8.14103e-19)
(1 1.57454e-09 3.36595e-19)
(1 1.54479e-09 2.4151e-19)
(1 1.513e-09 2.42275e-19)
(1 1.47816e-09 7.96844e-20)
(1 1.44328e-09 7.51275e-19)
(1 1.4067e-09 2.80009e-19)
(1 1.37116e-09 1.91944e-19)
(1 1.33461e-09 1.99377e-19)
(1 1.29969e-09 4.2145e-20)
(1 1.2641e-09 7.17292e-19)
(1 1.23045e-09 2.47841e-19)
(1 1.19625e-09 1.6032e-19)
(1 1.16417e-09 1.67664e-19)
(1 1.13157e-09 1.02726e-20)
(1 1.10116e-09 6.85533e-19)
(1 1.07021e-09 2.16587e-19)
(1 1.04149e-09 1.29934e-19)
(1 1.01217e-09 1.38435e-19)
(1 9.85084e-10 -1.75485e-20)
(1 9.5733e-10 6.59332e-19)
(1 9.31802e-10 1.92067e-19)
(1 9.05521e-10 1.06736e-19)
(1 8.81476e-10 1.1543e-19)
(1 8.56553e-10 -4.25201e-20)
(1 8.33995e-10 6.29253e-19)
(1 8.10224e-10 1.53292e-19)
(1 7.89456e-10 5.62505e-20)
(1 7.66028e-10 5.18973e-20)
(1 7.48804e-10 -1.17317e-19)
(1 7.21893e-10 5.46135e-19)
(1 7.18058e-10 7.57276e-20)
(1 6.68249e-10 -4.19989e-20)
(1 7.25711e-10 9.98605e-20)
(1 5.84882e-10 -6.86428e-19)
(1.00014 -0.00143308 5.62807e-22)
(1.00218 -0.00432738 5.88921e-21)
(1.00681 -0.00740711 5.32654e-21)
(1.0139 -0.0107411 1.1553e-20)
(1.0238 -0.0143512 -1.54769e-19)
(1.03676 -0.0181416 2.35286e-19)
(1.05293 -0.0219152 -8.38198e-19)
(1.07224 -0.0252591 -1.51233e-18)
(1.09418 -0.0277268 6.32011e-18)
(1.11782 -0.0288019 -1.31499e-18)
(1.14164 -0.0281817 -3.70461e-17)
(1.16421 -0.0262113 -2.79644e-17)
(1.18461 -0.0231535 1.00777e-16)
(1.20208 -0.0192554 3.03426e-16)
(1.21605 -0.014727 4.30761e-16)
(1.22612 -0.00970194 3.62358e-16)
(1.23191 -0.00431296 1.13306e-16)
(1.23318 0.00126064 -1.85611e-16)
(1.22982 0.00676038 -4.45871e-16)
(1.22199 0.0118572 -6.35554e-16)
(1.21017 0.0162052 -7.50264e-16)
(1.19513 0.0195176 -7.99246e-16)
(1.17786 0.0216341 -7.96777e-16)
(1.15942 0.0225499 -7.57015e-16)
(1.14078 0.0223966 -6.91736e-16)
(1.12276 0.0213947 -6.09878e-16)
(1.10594 0.0197992 -5.18034e-16)
(1.09069 0.0178544 -4.20694e-16)
(1.07718 0.0157668 -3.2023e-16)
(1.06541 0.0136925 -2.17211e-16)
(1.05532 0.0117378 -1.10605e-16)
(1.04675 0.00996536 -6.00525e-19)
(1.03953 0.00840432 1.11944e-16)
(1.03347 0.00705994 2.24707e-16)
(1.02839 0.00592213 3.33783e-16)
(1.02413 0.00497203 4.35749e-16)
(1.02056 0.00418683 5.2772e-16)
(1.01754 0.00354284 6.08603e-16)
(1.01498 0.00301748 6.78726e-16)
(1.01278 0.0025903 7.38449e-16)
(1.01089 0.00224342 7.87426e-16)
(1.00923 0.00196166 8.23313e-16)
(1.00778 0.00173241 8.42507e-16)
(1.00648 0.00154531 8.40703e-16)
(1.00531 0.00139199 8.13694e-16)
(1.00425 0.00126562 7.5848e-16)
(1.00328 0.0011606 6.73575e-16)
(1.00239 0.00107223 5.60277e-16)
(1.00155 0.000996465 4.22994e-16)
(1.00077 0.000929792 2.68788e-16)
(1.00004 0.000869269 1.08594e-16)
(0.999352 0.0008127 -4.59137e-17)
(0.998707 0.000758779 -1.8107e-16)
(0.998102 0.000706843 -2.8161e-16)
(0.997536 0.000655851 -3.40419e-16)
(0.99701 0.000602481 -3.64257e-16)
(0.996525 0.000538926 -3.84673e-16)
(0.996095 0.000451775 -4.53355e-16)
(0.995742 0.000323696 -6.20525e-16)
(0.995504 0.000138892 -9.0591e-16)
(0.995428 -0.000108484 -1.27133e-15)
(0.995564 -0.000406048 -1.6392e-15)
(0.99594 -0.000719375 -1.94184e-15)
(0.996555 -0.000996228 -2.18255e-15)
(0.99736 -0.00117932 -2.4574e-15)
(0.998263 -0.00122401 -2.89705e-15)
(0.999145 -0.00111429 -3.56079e-15)
(0.999888 -0.000870332 -4.32992e-15)
(1.0004 -0.000543961 -4.90771e-15)
(1.00065 -0.000203542 -4.9499e-15)
(1.00064 8.59382e-05 -4.26872e-15)
(1.00045 0.000280048 -3.00789e-15)
(1.00015 0.000363601 -1.6331e-15)
(0.999831 0.000349114 -7.52209e-16)
(0.999566 0.000267425 -8.35193e-16)
(0.99939 0.000155285 -1.96159e-15)
(0.999313 4.46729e-05 -3.74809e-15)
(0.999322 -4.33483e-05 -5.49087e-15)
(0.999392 -9.9821e-05 -6.47794e-15)
(0.999494 -0.000125523 -6.29569e-15)
(0.999605 -0.000127058 -4.9828e-15)
(0.999707 -0.000113111 -2.9851e-15)
(0.999792 -9.17837e-05 -9.30786e-16)
(0.999857 -6.92084e-05 6.33334e-16)
(0.999902 -4.91869e-05 1.42868e-15)
(0.999932 -3.34566e-05 1.49142e-15)
(0.999952 -2.22454e-05 1.07486e-15)
(0.999965 -1.48839e-05 5.01838e-16)
(0.999973 -1.03357e-05 2.66614e-17)
(0.999979 -7.57976e-06 -2.32401e-16)
(0.999984 -5.82342e-06 -2.8206e-16)
(0.999988 -4.56522e-06 -2.03583e-16)
(0.999991 -3.5544e-06 -8.87523e-17)
(0.999994 -2.70318e-06 1.12271e-19)
(0.999995 -1.99927e-06 4.13163e-17)
(0.999997 -1.44592e-06 4.32763e-17)
(0.999998 -1.03461e-06 2.61209e-17)
(0.999998 -7.42039e-07 7.57086e-18)
(0.999999 -5.38237e-07 -3.61e-18)
(0.999999 -3.95369e-07 -6.67335e-18)
(0.999999 -2.92567e-07 -4.85575e-18)
(1 -2.16435e-07 -1.88632e-18)
(1 -1.59133e-07 2.37637e-19)
(1 -1.16012e-07 1.02641e-18)
(1 -8.39134e-08 9.026e-19)
(1 -6.03285e-08 5.17278e-19)
(1 -4.315e-08 1.48708e-19)
(1 -3.06663e-08 1.64962e-20)
(1 -2.15696e-08 4.51558e-20)
(1 -1.49151e-08 1.16571e-19)
(1 -1.00365e-08 2.05538e-19)
(1 -6.46453e-09 1.87132e-19)
(1 -3.85838e-09 1.8445e-19)
(1 -1.96738e-09 1.93365e-19)
(1 -6.02437e-10 1.95993e-19)
(1 3.75767e-10 2.27714e-19)
(1 1.07192e-09 1.79902e-19)
(1 1.56091e-09 1.65555e-19)
(1 1.89937e-09 1.77245e-19)
(1 2.12673e-09 1.63356e-19)
(1 2.274e-09 2.26605e-19)
(1 2.36181e-09 2.50867e-19)
(1 2.40759e-09 2.51071e-19)
(1 2.42184e-09 2.50655e-19)
(1 2.41466e-09 2.17338e-19)
(1 2.39097e-09 2.60763e-19)
(1 2.35694e-09 2.67106e-19)
(1 2.31445e-09 2.52465e-19)
(1 2.26759e-09 2.4112e-19)
(1 2.21658e-09 2.01192e-19)
(1 2.1644e-09 2.42053e-19)
(1 2.11034e-09 2.48924e-19)
(1 2.05681e-09 2.36504e-19)
(1 2.00259e-09 2.27639e-19)
(1 1.94982e-09 1.89364e-19)
(1 1.89693e-09 2.30545e-19)
(1 1.84596e-09 2.36477e-19)
(1 1.79514e-09 2.22331e-19)
(1 1.74646e-09 2.11553e-19)
(1 1.69803e-09 1.71664e-19)
(1 1.65184e-09 2.11783e-19)
(1 1.6059e-09 2.17232e-19)
(1 1.56221e-09 2.03076e-19)
(1 1.51872e-09 1.92648e-19)
(1 1.47746e-09 1.53418e-19)
(1 1.43634e-09 1.94502e-19)
(1 1.39741e-09 2.01142e-19)
(1 1.35852e-09 1.88089e-19)
(1 1.32182e-09 1.78008e-19)
(1 1.28497e-09 1.37398e-19)
(1 1.25049e-09 1.74358e-19)
(1 1.21535e-09 1.73521e-19)
(1 1.18358e-09 1.4992e-19)
(1 1.14892e-09 1.27597e-19)
(1 1.12254e-09 7.56431e-20)
(1 1.08277e-09 1.04239e-19)
(1 1.07603e-09 1.0329e-19)
(1 1.0036e-09 7.75498e-20)
(1 1.08259e-09 9.02468e-20)
(1 8.8313e-10 -1.22824e-20)
(1.00014 -0.00198748 -3.15758e-20)
(1.00211 -0.00600419 -4.87241e-19)
(1.00662 -0.0102936 -8.23329e-19)
(1.01356 -0.0149625 -1.64712e-18)
(1.02332 -0.0200531 -1.82081e-18)
(1.03625 -0.0254409 -1.76188e-18)
(1.05258 -0.0308551 -1.12916e-17)
(1.07231 -0.0356926 1.80818e-17)
(1.09496 -0.039301 3.14335e-18)
(1.11958 -0.040871 -1.40198e-16)
(1.14436 -0.0399429 -2.17236e-17)
(1.1677 -0.0370969 6.57908e-16)
(1.1887 -0.0327286 1.25052e-15)
(1.20663 -0.0271986 7.17123e-16)
(1.22096 -0.0208022 -1.28818e-15)
(1.2313 -0.0137115 -4.01981e-15)
(1.23726 -0.00609612 -6.12717e-15)
(1.23856 0.00180336 -6.81949e-15)
(1.23505 0.0096215 -6.66644e-15)
(1.22685 0.0168797 -5.98775e-15)
(1.21447 0.0230683 -5.03266e-15)
(1.19873 0.0277638 -3.98685e-15)
(1.1807 0.0307325 -2.96837e-15)
(1.16153 0.031973 -2.03697e-15)
(1.14228 0.0316848 -1.21206e-15)
(1.12379 0.0301946 -4.91015e-16)
(1.10666 0.0278746 1.39173e-16)
(1.09123 0.0250773 6.94262e-16)
(1.07765 0.0220965 1.18991e-15)
(1.0659 0.0191515 1.63986e-15)
(1.05588 0.0163892 2.05626e-15)
(1.04741 0.0138942 2.43475e-15)
(1.04029 0.0117041 2.77895e-15)
(1.03434 0.00982331 3.08082e-15)
(1.02937 0.00823533 3.32676e-15)
(1.0252 0.00691202 3.51235e-15)
(1.02171 0.00582023 3.63023e-15)
(1.01876 0.00492607 3.68722e-15)
(1.01624 0.00419749 3.69199e-15)
(1.01409 0.00360561 3.64935e-15)
(1.01222 0.00312537 3.56065e-15)
(1.01059 0.00273551 3.41532e-15)
(1.00915 0.00241843 3.20427e-15)
(1.00786 0.00215977 2.91565e-15)
(1.0067 0.00194789 2.54091e-15)
(1.00564 0.00177336 2.07894e-15)
(1.00467 0.00162844 1.5335e-15)
(1.00376 0.00150664 9.23679e-16)
(1.00292 0.00140237 2.75499e-16)
(1.00213 0.00131074 -3.78045e-16)
(1.00138 0.00122768 -9.94861e-16)
(1.00067 0.00115009 -1.53454e-15)
(1.00001 0.00107613 -1.95924e-15)
(0.999376 0.00100483 -2.24559e-15)
(0.998784 0.000934773 -2.40695e-15)
(0.998229 0.000861507 -2.51247e-15)
(0.997714 0.000774507 -2.70456e-15)
(0.997249 0.000655579 -3.16627e-15)
(0.996855 0.000481035 -4.04682e-15)
(0.996568 0.000229053 -5.36818e-15)
(0.996431 -0.000108821 -6.97819e-15)
(0.996491 -0.000516196 -8.65032e-15)
(0.996775 -0.000946358 -1.02713e-14)
(0.997284 -0.00132781 -1.19918e-14)
(0.997973 -0.00158166 -1.41862e-14)
(0.998756 -0.00164596 -1.71744e-14)
(0.999523 -0.00149796 -2.08323e-14)
(1.00016 -0.00116481 -2.43583e-14)
(1.00059 -0.00071762 -2.64724e-14)
(1.00076 -0.000250673 -2.60014e-14)
(1.0007 0.000146046 -2.25989e-14)
(1.00046 0.000410754 -1.71816e-14)
(1.00014 0.0005221 -1.17127e-14)
(0.999803 0.000497232 -8.44706e-15)
(0.99953 0.000378941 -8.90862e-15)
(0.999353 0.0002185 -1.3096e-14)
(0.99928 6.07556e-05 -1.93444e-14)
(0.999297 -6.45601e-05 -2.49747e-14)
(0.999377 -0.000144675 -2.74731e-14)
(0.999489 -0.000180622 -2.55355e-14)
(0.999609 -0.000181832 -1.95461e-14)
(0.999717 -0.000160842 -1.13062e-14)
(0.999805 -0.000129434 -3.18521e-15)
(0.99987 -9.6558e-05 2.83056e-15)
(0.999913 -6.77349e-05 5.79744e-15)
(0.999941 -4.54146e-05 5.92972e-15)
(0.999958 -2.98019e-05 4.23985e-15)
(0.999969 -1.97883e-05 1.97536e-15)
(0.999976 -1.37648e-05 1.05981e-16)
(0.999981 -1.01976e-05 -9.13602e-16)
(0.999985 -7.93462e-06 -1.11495e-15)
(0.999989 -6.27869e-06 -8.12605e-16)
(0.999992 -4.90681e-06 -3.6076e-16)
(0.999994 -3.72698e-06 -6.46659e-18)
(0.999996 -2.74425e-06 1.61716e-16)
(0.999997 -1.97396e-06 1.73643e-16)
(0.999998 -1.40639e-06 1.06697e-16)
(0.999998 -1.00703e-06 3.29199e-17)
(0.999999 -7.31305e-07 -1.30619e-17)
(0.999999 -5.3873e-07 -2.66742e-17)
(0.999999 -3.99827e-07 -2.01086e-17)
(1 -2.9636e-07 -8.83623e-18)
(1 -2.18062e-07 3.67108e-19)
(1 -1.58987e-07 3.78642e-18)
(1 -1.15023e-07 3.36066e-18)
(1 -8.2783e-08 1.82164e-18)
(1 -5.93523e-08 -2.1859e-19)
(1 -4.23468e-08 -3.12914e-19)
(1 -2.99547e-08 -2.06359e-19)
(1 -2.08803e-08 9.95657e-21)
(1 -1.42191e-08 3.4941e-19)
(1 -9.33642e-09 -2.54495e-19)
(1 -5.77114e-09 2.0943e-19)
(1 -3.18206e-09 2.66567e-19)
(1 -1.31119e-09 2.33385e-19)
(1 3.22756e-11 3.75244e-19)
(1 9.91165e-10 -3.08316e-19)
(1 1.66793e-09 1.50237e-19)
(1 2.13943e-09 2.53327e-19)
(1 2.45966e-09 1.31745e-19)
(1 2.67052e-09 8.15649e-19)
(1 2.80045e-09 3.18287e-19)
(1 2.87286e-09 1.86268e-19)
(1 2.90239e-09 1.66067e-19)
(1 2.90242e-09 3.03848e-20)
(1 2.88004e-09 7.2232e-19)
(1 2.84324e-09 2.35044e-19)
(1 2.79497e-09 1.11885e-19)
(1 2.74039e-09 9.99647e-20)
(1 2.68018e-09 -2.70228e-20)
(1 2.61799e-09 6.74329e-19)
(1 2.55328e-09 1.96732e-19)
(1 2.48889e-09 8.25783e-20)
(1 2.42357e-09 7.80178e-20)
(1 2.35981e-09 -4.38744e-20)
(1 2.29592e-09 6.60224e-19)
(1 2.2342e-09 1.83445e-19)
(1 2.17274e-09 6.8896e-20)
(1 2.11375e-09 6.34713e-20)
(1 2.05515e-09 -5.91897e-20)
(1 1.99914e-09 6.44511e-19)
(1 1.94354e-09 1.67738e-19)
(1 1.89057e-09 5.34997e-20)
(1 1.83794e-09 4.85898e-20)
(1 1.78792e-09 -7.33627e-20)
(1 1.73816e-09 6.31301e-19)
(1 1.69096e-09 1.5577e-19)
(1 1.6439e-09 4.28734e-20)
(1 1.59941e-09 3.887e-20)
(1 1.55484e-09 -8.34875e-20)
(1 1.51306e-09 6.18442e-19)
(1 1.47054e-09 1.37102e-19)
(1 1.43207e-09 1.53346e-20)
(1 1.39013e-09 3.7029e-22)
(1 1.35818e-09 -1.32613e-19)
(1 1.31023e-09 5.59861e-19)
(1 1.30096e-09 8.07448e-20)
(1 1.21642e-09 -6.49451e-20)
(1 1.3005e-09 5.6087e-20)
(1 1.07656e-09 -6.77863e-19)
(1.00013 -0.00252161 -2.32966e-18)
(1.00202 -0.00762247 -7.42793e-18)
(1.00634 -0.013096 -6.05246e-18)
(1.01305 -0.0190978 -9.30183e-18)
(1.02263 -0.0257027 2.8389e-19)
(1.03547 -0.0327696 -3.02644e-17)
(1.05198 -0.0399613 2.18781e-17)
(1.07226 -0.04646 8.22363e-17)
(1.0959 -0.0513806 -4.42457e-16)
(1.12189 -0.0535141 4.97894e-17)
(1.148 -0.0522039 2.42631e-15)
(1.17236 -0.0483852 2.42616e-15)
(1.19417 -0.0426145 -4.97369e-15)
(1.21271 -0.0353792 -1.8857e-14)
(1.2275 -0.027059 -3.24516e-14)
(1.2382 -0.0178482 -3.85954e-14)
(1.24441 -0.00793831 -3.45938e-14)
(1.24577 0.00237606 -2.38717e-14)
(1.24206 0.0126189 -1.23448e-14)
(1.23338 0.0221474 -2.3296e-15)
(1.22022 0.0302669 5.36107e-15)
(1.20351 0.036398 1.07357e-14)
(1.18443 0.0402238 1.41835e-14)
(1.16427 0.04175 1.62128e-14)
(1.14418 0.0412581 1.72954e-14)
(1.12507 0.0391979 1.7792e-14)
(1.10752 0.0360736 1.79789e-14)
(1.09186 0.0323554 1.8018e-14)
(1.07821 0.0284289 1.80028e-14)
(1.06649 0.0245773 1.79681e-14)
(1.05657 0.0209857 1.79014e-14)
(1.04824 0.0177581 1.77707e-14)
(1.04128 0.014937 1.75315e-14)
(1.03548 0.0125231 1.71401e-14)
(1.03064 0.0104913 1.6573e-14)
(1.0266 0.00880248 1.58255e-14)
(1.02321 0.0074122 1.49146e-14)
(1.02034 0.00627563 1.3871e-14)
(1.0179 0.00535088 1.27222e-14)
(1.0158 0.00460053 1.14829e-14)
(1.01397 0.00399225 1.01433e-14)
(1.01237 0.00349879 8.67674e-15)
(1.01095 0.00309766 7.05154e-15)
(1.00967 0.00277057 5.24614e-15)
(1.00852 0.00250277 3.2618e-15)
(1.00746 0.00228236 1.12357e-15)
(1.00648 0.00209955 -1.11474e-15)
(1.00557 0.00194615 -3.37351e-15)
(1.00471 0.00181508 -5.55e-15)
(1.0039 0.00170015 -7.52577e-15)
(1.00313 0.00159615 -9.18456e-15)
(1.0024 0.00149911 -1.04354e-14)
(1.00171 0.00140659 -1.12343e-14)
(1.00105 0.00131732 -1.16273e-14)
(1.00042 0.00122951 -1.18103e-14)
(0.999828 0.00113772 -1.21634e-14)
(0.999273 0.00102902 -1.32338e-14)
(0.998763 0.000880947 -1.55875e-14)
(0.998317 0.000664039 -1.95689e-14)
(0.997967 0.000350843 -2.50936e-14)
(0.997752 -6.97478e-05 -3.16576e-14)
(0.997713 -0.000578001 -3.87364e-14)
(0.997879 -0.00111616 -4.63522e-14)
(0.998249 -0.00159502 -5.5293e-14)
(0.998785 -0.00191549 -6.66331e-14)
(0.999409 -0.00199921 -8.06166e-14)
(1.00002 -0.00181681 -9.56006e-14)
(1.00052 -0.00140173 -1.07921e-13)
(1.00082 -0.000843114 -1.13165e-13)
(1.00089 -0.000259803 -1.08356e-13)
(1.00075 0.000234423 -9.39334e-14)
(1.00046 0.000561183 -7.44054e-14)
(1.0001 0.000693227 -5.70194e-14)
(0.999749 0.000652231 -4.89545e-14)
(0.999467 0.0004927 -5.4075e-14)
(0.999291 0.000280254 -7.07606e-14)
(0.999227 7.26064e-05 -9.20922e-14)
(0.999258 -9.17163e-05 -1.08566e-13)
(0.999354 -0.000196019 -1.12162e-13)
(0.999482 -0.000241639 -9.95859e-14)
(0.999615 -0.000241102 -7.33926e-14)
(0.999732 -0.000211226 -4.0649e-14)
(0.999823 -0.000167939 -9.88376e-15)
(0.999888 -0.000123369 1.21554e-14)
(0.999929 -8.4929e-05 2.25679e-14)
(0.999953 -5.57639e-05 2.25311e-14)
(0.999966 -3.59019e-05 1.59392e-14)
(0.999973 -2.35948e-05 7.37731e-15)
(0.999978 -1.64861e-05 3.70447e-16)
(0.999982 -1.24214e-05 -3.45292e-15)
(0.999986 -9.8518e-06 -4.2246e-15)
(0.99999 -7.89744e-06 -3.09919e-15)
(0.999993 -6.19878e-06 -1.40103e-15)
(0.999995 -4.69515e-06 -5.32786e-17)
(0.999996 -3.43262e-06 6.00525e-16)
(0.999997 -2.44892e-06 6.59926e-16)
(0.999998 -1.73405e-06 4.14768e-16)
(0.999999 -1.23915e-06 1.32233e-16)
(0.999999 -9.01854e-07 -4.70894e-17)
(0.999999 -6.67321e-07 -1.02221e-16)
(0.999999 -4.97338e-07 -7.94991e-17)
(1 -3.69527e-07 -3.45624e-17)
(1 -2.72041e-07 -3.93992e-19)
(1 -1.98239e-07 1.31336e-17)
(1 -1.43367e-07 1.25723e-17)
(1 -1.03261e-07 6.4047e-18)
(1 -7.4213e-08 4.82306e-19)
(1 -5.31684e-08 -1.84447e-18)
(1 -3.78301e-08 -1.91401e-18)
(1 -2.65809e-08 -4.96321e-19)
(1 -1.83086e-08 4.5465e-19)
(1 -1.22369e-08 1.4529e-19)
(1 -7.80013e-09 7.60925e-20)
(1 -4.57622e-09 -1.23858e-19)
(1 -2.24455e-09 3.48884e-19)
(1 -5.66994e-10 5.41511e-19)
(1 6.33809e-10 -6.95674e-20)
(1 1.48536e-09 -1.27282e-19)
(1 2.08245e-09 -2.10046e-19)
(1 2.49227e-09 3.30976e-19)
(1 2.76629e-09 5.83853e-19)
(1 2.94016e-09 3.8269e-20)
(1 3.04245e-09 -2.09175e-20)
(1 3.09175e-09 -1.27592e-19)
(1 3.10413e-09 3.88779e-19)
(1 3.08887e-09 6.20782e-19)
(1 3.05531e-09 5.79124e-20)
(1 3.00766e-09 -1.50041e-20)
(1 2.95171e-09 -1.31336e-19)
(1 2.88888e-09 3.79707e-19)
(1 2.82308e-09 6.10201e-19)
(1 2.75423e-09 4.84297e-20)
(1 2.68524e-09 -2.22987e-20)
(1 2.61519e-09 -1.36708e-19)
(1 2.54647e-09 3.75132e-19)
(1 2.4777e-09 6.0505e-19)
(1 2.41102e-09 4.16125e-20)
(1 2.34475e-09 -3.13036e-20)
(1 2.28094e-09 -1.47828e-19)
(1 2.21772e-09 3.62383e-19)
(1 2.15711e-09 5.91313e-19)
(1 2.09713e-09 2.74631e-20)
(1 2.03979e-09 -4.54617e-20)
(1 1.98303e-09 -1.61733e-19)
(1 1.92888e-09 3.48966e-19)
(1 1.87523e-09 5.78691e-19)
(1 1.82414e-09 1.60228e-20)
(1 1.77342e-09 -5.54286e-20)
(1 1.72528e-09 -1.70352e-19)
(1 1.67724e-09 3.4079e-19)
(1 1.63205e-09 5.69077e-19)
(1 1.58622e-09 2.2688e-21)
(1 1.54465e-09 -7.62217e-20)
(1 1.49943e-09 -2.00449e-19)
(1 1.46486e-09 3.01228e-19)
(1 1.41349e-09 5.20215e-19)
(1 1.40181e-09 -4.45853e-20)
(1 1.31494e-09 -1.50051e-19)
(1 1.39061e-09 -1.38082e-19)
(1 1.17175e-09 -2.2516e-19)
(1.00012 -0.00302782 2.17622e-18)
(1.00189 -0.00915976 8.42395e-18)
(1.00597 -0.0157802 5.85314e-18)
(1.01237 -0.0231073 9.85878e-18)
(1.02165 -0.0312657 2.26366e-17)
(1.03433 -0.0401168 -9.75763e-17)
(1.05102 -0.0492698 4.68077e-16)
(1.07197 -0.0576636 -9.97308e-16)
(1.0969 -0.0641454 -4.33823e-16)
(1.12472 -0.0669352 6.94953e-15)
(1.15257 -0.065124 2.12368e-15)
(1.17823 -0.0601913 -3.11527e-14)
(1.20102 -0.0528918 -7.29529e-14)
(1.22029 -0.0438593 -8.27909e-14)
(1.23566 -0.0335548 -3.79391e-14)
(1.24682 -0.0221652 4.94147e-14)
(1.25335 -0.00987369 1.40328e-13)
(1.2548 0.00299193 2.0015e-13)
(1.25086 0.0158376 2.32798e-13)
(1.24156 0.0278231 2.42673e-13)
(1.22741 0.0380247 2.35966e-13)
(1.20943 0.0456716 2.19122e-13)
(1.18901 0.0503526 1.97546e-13)
(1.16758 0.0520932 1.75009e-13)
(1.14643 0.051283 1.53739e-13)
(1.12652 0.0485229 1.3479e-13)
(1.10846 0.0444714 1.18519e-13)
(1.09254 0.0397295 1.04864e-13)
(1.07881 0.0347799 9.35062e-14)
(1.06715 0.0299689 8.39672e-14)
(1.05737 0.0255167 7.56866e-14)
(1.04922 0.021541 6.81416e-14)
(1.04246 0.0180848 6.09307e-14)
(1.03686 0.0151412 5.38217e-14)
(1.0322 0.0126732 4.67316e-14)
(1.02831 0.0106286 3.96908e-14)
(1.02505 0.00895 3.27775e-14)
(1.02229 0.00758089 2.60566e-14)
(1.01994 0.00646904 1.95354e-14)
(1.0179 0.00556823 1.31469e-14)
(1.01613 0.00483883 6.78067e-15)
(1.01456 0.00424762 3.27755e-16)
(1.01317 0.00376734 -6.26974e-15)
(1.01191 0.00337594 -1.29924e-14)
(1.01076 0.0030557 -1.97432e-14)
(1.0097 0.00279239 -2.63516e-14)
(1.00871 0.00257433 -3.25875e-14)
(1.00779 0.00239172 -3.81707e-14)
(1.00692 0.00223608 -4.27944e-14)
(1.00608 0.00209997 -4.61702e-14)
(1.00529 0.00197709 -4.80868e-14)
(1.00453 0.00186259 -4.84948e-14)
(1.0038 0.00175344 -4.76147e-14)
(1.0031 0.001648 -4.60604e-14)
(1.00244 0.00154414 -4.49396e-14)
(1.0018 0.00143555 -4.58411e-14)
(1.00119 0.00130731 -5.05654e-14)
(1.00063 0.00113328 -6.05705e-14)
(1.00012 0.000878958 -7.63295e-14)
(0.999692 0.000511821 -9.70574e-14)
(0.999382 1.81667e-05 -1.21265e-13)
(0.999225 -0.000579635 -1.48091e-13)
(0.999245 -0.00121427 -1.78575e-13)
(0.999445 -0.00178078 -2.15385e-13)
(0.999791 -0.00216182 -2.604e-13)
(1.00022 -0.00226392 -3.11252e-13)
(1.00063 -0.0020514 -3.59368e-13)
(1.00095 -0.00156333 -3.91772e-13)
(1.00109 -0.000905365 -3.96626e-13)
(1.00104 -0.000219071 -3.69798e-13)
(1.00081 0.000359623 -3.18835e-13)
(1.00045 0.000736849 -2.62009e-13)
(1.00004 0.000879911 -2.2257e-13)
(0.999664 0.000814956 -2.19576e-13)
(0.999374 0.00060792 -2.58769e-13)
(0.999202 0.000338557 -3.27984e-13)
(0.999152 7.74425e-05 -4.0021e-13)
(0.999203 -0.000127951 -4.43958e-13)
(0.999322 -0.000256887 -4.36313e-13)
(0.999472 -0.00031111 -3.71815e-13)
(0.999622 -0.000306643 -2.64056e-13)
(0.999751 -0.0002652 -1.3973e-13)
(0.999847 -0.000207498 -2.81481e-14)
(0.999911 -0.000149326 4.90322e-14)
(0.999949 -0.000100203 8.37914e-14)
(0.999967 -6.3909e-05 8.17294e-14)
(0.999975 -4.00631e-05 5.71646e-14)
(0.999979 -2.59872e-05 2.62417e-14)
(0.999981 -1.83358e-05 1.17007e-15)
(0.999984 -1.41916e-05 -1.24798e-14)
(0.999987 -1.15676e-05 -1.52538e-14)
(0.999991 -9.42822e-06 -1.12413e-14)
(0.999993 -7.43177e-06 -5.14308e-15)
(0.999996 -5.5995e-06 -2.61886e-16)
(0.999997 -4.05012e-06 2.14148e-15)
(0.999998 -2.85571e-06 2.39617e-15)
(0.999998 -2.00526e-06 1.53056e-15)
(0.999999 -1.42999e-06 5.06356e-16)
(0.999999 -1.04482e-06 -1.56277e-16)
(0.999999 -7.78237e-07 -3.70488e-16)
(0.999999 -5.83286e-07 -2.94976e-16)
(1 -4.3458e-07 -1.30183e-16)
(1 -3.19911e-07 -2.8138e-18)
(1 -2.32767e-07 4.85709e-17)
(1 -1.68118e-07 4.55764e-17)