/*--------------------------------*- C++ -*----------------------------------*\
  =========                 |
  \\      /  F ield         | OpenFOAM: The Open Source CFD Toolbox
   \\    /   O peration     | Website:  https://openfoam.org
    \\  /    A nd           | Version:  11
     \\/     M anipulation  |
\*---------------------------------------------------------------------------*/
FoamFile
{
    format      ascii;
    class       surfaceScalarField;
    location    "9.010685";
    object      phi_0;
}
// * * * * * * * * * * * * * * * * * * * * * * * * * * * * * * * * * * * * * //

dimensions      [0 3 -1 0 0 0 0];

internalField   nonuniform List<scalar> 
14638
(
0.00250275
-2.74618e-06
0.002511
-8.25348e-06
0.00252504
-1.40406e-05
0.00254525
-2.02069e-05
0.00257201
-2.67612e-05
0.00260548
-3.34754e-05
0.0026454
-3.99193e-05
0.00269068
-4.52764e-05
0.00273935
-4.86722e-05
0.00278858
-4.92254e-05
0.00283506
-4.64838e-05
0.00287639
-4.13341e-05
0.00291105
-3.46599e-05
0.00293848
-2.74278e-05
0.00295903
-2.05506e-05
0.00297359
-1.45594e-05
0.00298306
-9.46741e-06
0.00298775
-4.68992e-06
0.00298695
8.01351e-07
0.00297888
8.07324e-06
0.00296125
1.76263e-05
0.00293241
2.88358e-05
0.00289253
3.98788e-05
0.00284416
4.8374e-05
0.00279193
5.22269e-05
0.00274178
5.01558e-05
0.00269997
4.18057e-05
0.00267233
2.76425e-05
0.00266341
8.92069e-06
0.00267568
-1.22681e-05
0.00270848
-3.27987e-05
0.00275691
-4.84352e-05
0.0028114
-5.44865e-05
0.00285906
-4.7658e-05
0.00288743
-2.83762e-05
0.00288887
-1.44286e-06
0.00286277
2.61058e-05
0.00281454
4.82292e-05
0.00275288
6.16573e-05
0.00268725
6.56312e-05
0.00262656
6.06949e-05
0.00257893
4.7625e-05
0.00255203
2.68962e-05
0.00255327
-1.23017e-06
0.00258928
-3.60161e-05
0.00266408
-7.48019e-05
0.00277544
-0.000111361
0.00291102
-0.000135573
0.00304741
-0.00013639
0.00315545
-0.000108042
0.00321111
-5.5659e-05
0.00320561
5.50264e-06
0.00314762
5.7988e-05
0.00305675
9.08654e-05
0.0029541
0.000102652
0.00285606
9.80436e-05
0.0027728
8.32568e-05
0.00270953
6.32686e-05
0.00266831
4.12155e-05
0.00264932
1.89943e-05
0.00265117
-1.84685e-06
0.00267064
-1.94697e-05
0.00270236
-3.17207e-05
0.00273907
-3.67099e-05
0.00277274
-3.36681e-05
0.0027963
-2.35667e-05
0.00280533
-9.03152e-06
0.00279882
6.51478e-06
0.00277882
1.99989e-05
0.0027493
2.95236e-05
0.00271476
3.45327e-05
0.00267929
3.5473e-05
0.00264599
3.32983e-05
0.00261693
2.90639e-05
0.00259323
2.36999e-05
0.0025753
1.79321e-05
0.00256301
1.22906e-05
0.00255586
7.14881e-06
0.00255309
2.76631e-06
0.00255377
-6.80474e-07
0.00255686
-3.08484e-06
0.00256127
-4.41322e-06
0.00256599
-4.71552e-06
0.00257012
-4.13004e-06
0.00257299
-2.87325e-06
0.0025742
-1.21211e-06
0.00257363
5.75409e-07
0.00257138
2.24117e-06
0.00256779
3.59848e-06
0.00256325
4.53745e-06
0.00255822
5.02398e-06
0.00255314
5.08679e-06
0.00254834
4.79818e-06
0.00254408
4.25407e-06
0.00254053
3.55653e-06
0.00253773
2.80088e-06
0.00253566
2.06729e-06
0.00253424
1.41662e-06
0.00253335
8.89358e-07
0.00253285
5.0669e-07
0.00253257
2.7286e-07
0.0025324
1.78266e-07
0.00253219
2.02877e-07
0.00253187
3.19763e-07
0.00253138
4.98615e-07
0.00253067
7.09047e-07
0.00252974
9.23434e-07
0.00252862
1.11906e-06
0.00252734
1.27945e-06
0.00252595
1.39484e-06
0.00252449
1.46189e-06
0.002523
1.48274e-06
0.00252154
1.4637e-06
0.00252013
1.41376e-06
0.00251878
1.34314e-06
0.00251752
1.262e-06
0.00251634
1.17944e-06
0.00251524
1.10286e-06
0.0025142
1.03756e-06
0.00251322
9.86708e-07
0.00251226
9.51457e-07
0.00251133
9.31291e-07
0.00251041
9.24399e-07
0.00250948
9.28113e-07
0.00250854
9.39328e-07
0.00250759
9.54874e-07
0.00250661
9.71816e-07
0.00250563
9.8768e-07
0.00250463
1.00058e-06
0.00250362
1.00927e-06
0.0025026
1.01315e-06
0.00250159
1.01214e-06
0.00250058
1.0066e-06
0.00249959
9.97158e-07
0.0024986
9.84597e-07
0.00249763
9.69679e-07
0.00249668
9.53055e-07
0.00249575
9.35179e-07
0.00249483
9.16262e-07
0.00249393
8.96271e-07
0.00249306
8.74945e-07
0.00249221
8.51849e-07
0.00249138
8.26407e-07
0.00249058
7.97919e-07
0.00248982
7.6548e-07
0.00248909
7.27812e-07
0.00248841
6.8291e-07
0.00248778
6.27782e-07
0.00248722
5.57797e-07
0.00248675
4.67325e-07
0.0024864
3.484e-07
0.00248621
1.95667e-07
0.00248621
-5.85973e-10
0.00248644
-2.32905e-07
0.00248696
-5.16055e-07
0.00248775
-7.95533e-07
0.00248889
-1.1378e-06
0.00249022
-1.33129e-06
0.00249194
-1.71413e-06
-1.57541e-06
0.00250272
-5.47045e-06
0.00251092
-1.64468e-05
0.00252488
-2.79989e-05
0.00254501
-4.03458e-05
0.00257177
-5.35177e-05
0.00260537
-6.70704e-05
0.00264559
-8.01469e-05
0.00269139
-9.10737e-05
0.00274078
-9.80559e-05
0.00279076
-9.92129e-05
0.00283786
-9.35802e-05
0.00287959
-8.30632e-05
0.0029144
-6.94756e-05
0.00294178
-5.48002e-05
0.00296215
-4.09197e-05
0.00297652
-2.89357e-05
0.00298594
-1.88854e-05
0.00299081
-9.55922e-06
0.00299041
1.19536e-06
0.00298284
1.56461e-05
0.00296556
3.49061e-05
0.00293667
5.77326e-05
0.00289619
8.03566e-05
0.00284672
9.7844e-05
0.00279306
0.000105883
0.00274135
0.000101866
0.00269807
8.50847e-05
0.00266924
5.64705e-05
0.00265966
1.85042e-05
0.00267206
-2.46712e-05
0.00270604
-6.67775e-05
0.00275674
-9.9137e-05
0.00281421
-0.000111949
0.00286474
-9.81911e-05
0.002895
-5.86321e-05
0.00289684
-3.28496e-06
0.00286977
5.31773e-05
0.00281971
9.82811e-05
0.0027559
0.000125476
0.00268807
0.000133453
0.00262525
0.000123522
0.00257553
9.73456e-05
0.00254659
5.58319e-05
0.00254607
-7.05706e-07
0.0025812
-7.11501e-05
0.00265692
-0.000150523
0.00277181
-0.000226249
0.00291333
-0.000277093
0.00305645
-0.000279511
0.00316963
-0.000221227
0.00322711
-0.000113135
0.00321989
1.27218e-05
0.00315788
0.000120003
0.00306244
0.0001863
0.00295597
0.000209123
0.00285531
0.000198706
0.00277049
0.000168079
0.00270638
0.000127376
0.00266482
8.2777e-05
0.00264591
3.78974e-05
0.00264836
-4.2939e-06
0.00266901
-4.01134e-05
0.00270239
-6.51094e-05
0.00274099
-7.53071e-05
0.00277637
-6.90421e-05
0.00280108
-4.82854e-05
0.00281052
-1.84682e-05
0.00280371
1.33272e-05
0.00278293
4.07754e-05
0.00275243
6.00254e-05
0.00271695
7.00148e-05
0.00268069
7.17331e-05
0.00264681
6.7174e-05
0.00261737
5.85033e-05
0.00259347
4.76041e-05
0.00257547
3.59324e-05
0.00256322
2.45436e-05
0.00255619
1.41784e-05
0.0025536
5.35124e-06
0.00255451
-1.58627e-06
0.00255784
-6.41879e-06
0.0025625
-9.07616e-06
0.00256744
-9.657e-06
0.00257176
-8.44046e-06
0.00257475
-5.86617e-06
0.00257601
-2.47746e-06
0.00257543
1.15996e-06
0.00257313
4.54178e-06
0.00256944
7.28992e-06
0.00256479
9.18358e-06
0.00255966
1.01565e-05
0.00255448
1.027e-05
0.0025496
9.67293e-06
0.00254529
8.56134e-06
0.00254171
7.14279e-06
0.0025389
5.61035e-06
0.00253684
4.12588e-06
0.00253544
2.81186e-06
0.00253458
1.74939e-06
0.00253411
9.80543e-07
0.00253387
5.13244e-07
0.00253372
3.27544e-07
0.00253354
3.82521e-07
0.00253324
6.23415e-07
0.00253275
9.8872e-07
0.00253204
1.41687e-06
0.00253111
1.85198e-06
0.00252998
2.24817e-06
0.00252869
2.57225e-06
0.00252728
2.80471e-06
0.0025258
2.93898e-06
0.0025243
2.97965e-06
0.00252283
2.93968e-06
0.0025214
2.83744e-06
0.00252005
2.6937e-06
0.00251879
2.52907e-06
0.0025176
2.36197e-06
0.0025165
2.20731e-06
0.00251546
2.07577e-06
0.00251447
1.97365e-06
0.00251352
1.90322e-06
0.00251259
1.86336e-06
0.00251167
1.85033e-06
0.00251073
1.85869e-06
0.00250979
1.88213e-06
0.00250883
1.91422e-06
0.00250786
1.94902e-06
0.00250686
1.98153e-06
0.00250585
2.00798e-06
0.00250484
2.02587e-06
0.00250382
2.03399e-06
0.0025028
2.03225e-06
0.00250178
2.02138e-06
0.00250078
2.0027e-06
0.00249978
1.9778e-06
0.0024988
1.94825e-06
0.00249784
1.91536e-06
0.0024969
1.88006e-06
0.00249597
1.84281e-06
0.00249506
1.80352e-06
0.00249418
1.76168e-06
0.00249331
1.71641e-06
0.00249247
1.66653e-06
0.00249166
1.61064e-06
0.00249088
1.5469e-06
0.00249013
1.47279e-06
0.00248943
1.38436e-06
0.00248878
1.27573e-06
0.0024882
1.13788e-06
0.00248771
9.59763e-07
0.00248733
7.25818e-07
0.0024871
4.25409e-07
0.00248706
3.95834e-08
0.00248725
-4.17587e-07
0.00248771
-9.74545e-07
0.00248844
-1.52582e-06
0.0024895
-2.19977e-06
0.00249075
-2.58433e-06
0.00249238
-3.33878e-06
-3.07197e-06
0.00250268
-8.15021e-06
0.00251075
-2.45122e-05
0.00252453
-4.17847e-05
0.00254452
-6.03355e-05
0.00257125
-8.02494e-05
0.00260507
-0.000100891
0.00264591
-0.000120987
0.00269276
-0.000137925
0.00274361
-0.000148899
0.00279516
-0.000150769
0.00284352
-0.000141934
0.00288606
-0.000125603
0.00292119
-0.000104613
0.00294846
-8.2062e-05
0.00296846
-6.09194e-05
0.00298246
-4.29387e-05
0.00299178
-2.82052e-05
0.00299702
-1.48008e-05
0.00299746
7.52442e-07
0.0029909
2.2205e-05
0.0029743
5.15144e-05
0.0029452
8.68239e-05
0.00290342
0.000122143
0.00285165
0.000149616
0.00279507
0.000162461
0.00274027
0.000156667
0.00269415
0.000131199
0.00266315
8.74696e-05
0.00265251
2.91511e-05
0.00266547
-3.76305e-05
0.00270209
-0.000103401
0.00275759
-0.000154634
0.00282118
-0.000175547
0.00287747
-0.000154477
0.00291121
-9.23699e-05
0.0029133
-5.37472e-06
0.00288362
8.28511e-05
0.00282932
0.000152583
0.00276078
0.000194017
0.00268844
0.000205797
0.00262147
0.000190492
0.00256791
0.000150907
0.00253541
8.83272e-05
0.002532
2.71082e-06
0.00256611
-0.000105262
0.00264462
-0.000229033
0.00276766
-0.000349293
0.0029222
-0.000431634
0.00307965
-0.000436961
0.00320308
-0.00034465
0.00326284
-0.000172901
0.00325006
2.55068e-05
0.00317792
0.000192143
0.0030719
0.000292316
0.00295711
0.000323913
0.00285113
0.000304692
0.00276345
0.000255752
0.00269814
0.000192692
0.00265644
0.000124476
0.0026383
5.60344e-05
0.00264252
-8.50866e-06
0.00266601
-6.36047e-05
0.00270311
-0.000102218
0.00274571
-0.000117904
0.00278453
-0.00010786
0.00281138
-7.51336e-05
0.00282128
-2.83668e-05
0.00281343
2.11754e-05
0.00279067
6.35366e-05
0.00275787
9.28201e-05
0.00272029
0.0001076
0.00268238
0.000109638
0.00264739
0.000102167
0.00261731
8.8579e-05
0.00259316
7.17573e-05
0.0025752
5.38897e-05
0.00256321
3.65411e-05
0.00255658
2.08019e-05
0.0025545
7.42843e-06
0.00255598
-3.05806e-06
0.00255989
-1.03325e-05
0.0025651
-1.42851e-05
0.00257051
-1.50634e-05
0.00257516
-1.30951e-05
0.00257835
-9.05867e-06
0.00257967
-3.79449e-06
0.00257901
1.82344e-06
0.00257653
7.0191e-06
0.0025726
1.12154e-05
0.00256771
1.40812e-05
0.00256234
1.55248e-05
0.00255696
1.56496e-05
0.00255194
1.46918e-05
0.00254754
1.29567e-05
0.00254392
1.07646e-05
0.00254112
8.41079e-06
0.00253911
6.14153e-06
0.00253778
4.14164e-06
0.00253699
2.53239e-06
0.0025366
1.37547e-06
0.00253643
6.80726e-07
0.00253634
4.15855e-07
0.00253621
5.1696e-07
0.00253593
8.99391e-07
0.00253545
1.46855e-06
0.00253474
2.1301e-06
0.00253379
2.79869e-06
0.00253264
3.40457e-06
0.00253131
3.89764e-06
0.00252987
4.2488e-06
0.00252836
4.44886e-06
0.00252683
4.50558e-06
0.00252533
4.43947e-06
0.00252389
4.27908e-06
0.00252253
4.05648e-06
0.00252125
3.8033e-06
0.00252007
3.54766e-06
0.00251896
3.31218e-06
0.00251792
3.11294e-06
0.00251694
2.95929e-06
0.00251599
2.85444e-06
0.00251505
2.79638e-06
0.00251413
2.77922e-06
0.00251319
2.79448e-06
0.00251224
2.83241e-06
0.00251127
2.88316e-06
0.00251028
2.93767e-06
0.00250928
2.98835e-06
0.00250825
3.0295e-06
0.00250722
3.0574e-06
0.00250619
3.07033e-06
0.00250515
3.0682e-06
0.00250412
3.05226e-06
0.0025031
3.02459e-06
0.00250209
2.98766e-06
0.00250109
2.94392e-06
0.00250011
2.8954e-06
0.00249915
2.84356e-06
0.0024982
2.78905e-06
0.00249727
2.73179e-06
0.00249636
2.67098e-06
0.00249548
2.60527e-06
0.00249461
2.53285e-06
0.00249377
2.45155e-06
0.00249296
2.35862e-06
0.00249218
2.25024e-06
0.00249144
2.12064e-06
0.00249076
1.96123e-06
0.00249014
1.75894e-06
0.0024896
1.49772e-06
0.00248917
1.15508e-06
0.00248888
7.15371e-07
0.00248877
1.51328e-07
0.00248887
-5.17491e-07
0.00248922
-1.33127e-06
0.00248984
-2.13907e-06
0.00249076
-3.12399e-06
0.00249187
-3.69099e-06
0.00249332
-4.79471e-06
-4.41123e-06
0.00250261
-1.07589e-05
0.00251047
-3.23727e-05
0.00252397
-5.5289e-05
0.00254371
-8.00691e-05
0.00257036
-0.000106905
0.00260449
-0.000135015
0.00264623
-0.000162729
0.00269468
-0.000186381
0.0027478
-0.000202011
0.0028018
-0.000204774
0.00285209
-0.000192226
0.00289586
-0.000169373
0.00293146
-0.000140216
0.00295851
-0.000109111
0.00297789
-8.02957e-05
0.00299126
-5.63061e-05
0.00300038
-3.73224e-05
0.00300617
-2.05967e-05
0.00300794
-1.01302e-06
0.00300302
2.71168e-05
0.00298755
6.69848e-05
0.00295824
0.000116138
0.00291447
0.000165917
0.00285915
0.000204937
0.00279806
0.000223546
0.0027385
0.000216226
0.00268803
0.000181673
0.00265367
0.000121827
0.00264133
4.14937e-05
0.00265505
-5.13568e-05
0.0026957
-0.000144046
0.00275866
-0.000217594
0.00283193
-0.000248822
0.00289733
-0.000219875
0.00293652
-0.000131564
0.00293885
-7.69925e-06
0.00290487
0.000116831
0.00284374
0.00021371
0.00276779
0.00026997
0.00268852
0.000285069
0.00261534
0.000263674
0.00255607
0.000210174
0.00251824
0.000126153
0.00251053
1.04266e-05
0.00254308
-0.000137813
0.00262454
-0.000310501
0.00275625
-0.000481002
0.00292626
-0.00060164
0.00310484
-0.000615537
0.00324788
-0.000487689
0.00331599
-0.000241019
0.00329688
4.46168e-05
0.00320887
0.000280153
0.00308553
0.000415663
0.00295733
0.000452107
0.00284316
0.000418859
0.00275142
0.000347494
0.0026846
0.000259517
0.00264296
0.000166117
0.00262618
7.28116e-05
0.00263325
-1.55763e-05
0.00266126
-9.16176e-05
0.00270427
-0.000145222
0.00275319
-0.000166827
0.0027974
-0.000152073
0.0028275
-0.000105233
0.00283796
-3.88317e-05
0.00282831
3.08329e-05
0.00280227
8.95737e-05
0.00276577
0.000129316
0.00272486
0.000148518
0.0026844
0.000150098
0.00264772
0.000138845
0.00261673
0.000119568
0.00259227
9.62146e-05
0.00257446
7.17014e-05
0.00256293
4.80741e-05
0.00255699
2.67411e-05
0.00255574
8.67756e-06
0.00255811
-5.4353e-06
0.00256294
-1.51616e-05
0.00256901
-2.03468e-05
0.00257513
-2.11875e-05
0.00258031
-1.82723e-05
0.00258379
-1.25431e-05
0.00258517
-5.17003e-06
0.00258436
2.63216e-06
0.00258159
9.79143e-06
0.00257728
1.55204e-05
0.00257198
1.93794e-05
0.00256625
2.12624e-05
0.00256056
2.13316e-05
0.00255533
1.99274e-05
0.00255081
1.7479e-05
0.00254714
1.44303e-05
0.00254436
1.11862e-05
0.00254243
8.08068e-06
0.0025412
5.36183e-06
0.00254055
3.19002e-06
0.00254028
1.6443e-06
0.00254023
7.33503e-07
0.00254023
4.09721e-07
0.00254017
5.82755e-07
0.00253993
1.13483e-06
0.00253946
1.93533e-06
0.00253874
2.85466e-06
0.00253776
3.77625e-06
0.00253656
4.60546e-06
0.00253518
5.27501e-06
0.00253369
5.74666e-06
0.00253212
6.00951e-06
0.00253055
6.0758e-06
0.00252902
5.97493e-06
0.00252755
5.74699e-06
0.00252617
5.43647e-06
0.00252489
5.08688e-06
0.0025237
4.73661e-06
0.00252259
4.41627e-06
0.00252156
4.14733e-06
0.00252058
3.94202e-06
0.00251963
3.80413e-06
0.00251869
3.73042e-06
0.00251776
3.71237e-06
0.00251682
3.7381e-06
0.00251586
3.79408e-06
0.00251487
3.86676e-06
0.00251387
3.94378e-06
0.00251284
4.01487e-06
0.0025118
4.07237e-06
0.00251074
4.11143e-06
0.00250968
4.12986e-06
0.00250862
4.12777e-06
0.00250757
4.10703e-06
0.00250652
4.07063e-06
0.00250549
4.02207e-06
0.00250447
3.96475e-06
0.00250346
3.90152e-06
0.00250247
3.83434e-06
0.0025015
3.76417e-06
0.00250054
3.69087e-06
0.00249959
3.61334e-06
0.00249867
3.5297e-06
0.00249776
3.4375e-06
0.00249688
3.33373e-06
0.00249603
3.21462e-06
0.0024952
3.07513e-06
0.00249441
2.90771e-06
0.00249367
2.70131e-06
0.00249299
2.43928e-06
0.00249239
2.10112e-06
0.00249189
1.65841e-06
0.00249151
1.09085e-06
0.0024913
3.64357e-07
0.00249128
-4.97525e-07
0.00249149
-1.54363e-06
0.00249194
-2.58559e-06
0.00249266
-3.84992e-06
0.00249356
-4.58591e-06
0.00249477
-6.00226e-06
-5.51809e-06
0.00250251
-1.32647e-05
0.00251007
-3.99361e-05
0.00252316
-6.83752e-05
0.00254249
-9.94e-05
0.00256896
-0.000133383
0.00260342
-0.000169469
0.00264633
-0.000205639
0.00269696
-0.000237017
0.00275326
-0.000258306
0.00281071
-0.000262228
0.00286368
-0.000245195
0.00290912
-0.000214805
0.00294529
-0.000176393
0.00297195
-0.000135768
0.00299034
-9.86899e-05
0.00300271
-6.86759e-05
0.00301147
-4.60828e-05
0.00301805
-2.71697e-05
0.00302177
-4.73301e-06
0.00301934
2.95396e-05
0.00300566
8.06693e-05
0.00297616
0.000145636
0.00292966
0.000212422
0.00286939
0.000265207
0.00280203
0.000290903
0.00273588
0.000282379
0.00267935
0.0002382
0.00264026
0.000160919
0.00262537
5.63794e-05
0.00263989
-6.58748e-05
0.0026859
-0.000190058
0.00275925
-0.000290944
0.00284631
-0.000335882
0.00292484
-0.000298405
0.00297187
-0.00017859
0.00297439
-1.02176e-05
0.00293408
0.000157138
0.0028632
0.000284586
0.00277694
0.000356239
0.00268826
0.000373743
0.00260678
0.000345156
0.00253986
0.000277097
0.00249492
0.000171093
0.00248145
2.38955e-05
0.00250977
-0.000166141
0.00258675
-0.000387481
0.00271425
-0.000608494
0.00288793
-0.000775326
0.00308699
-0.000814595
0.00326412
-0.00066482
0.0033616
-0.000338496
0.0033503
5.59113e-05
0.00324886
0.0003816
0.00310355
0.000560973
0.00295653
0.000599122
0.00283092
0.000544475
0.0027339
0.000444513
0.00266542
0.000327997
0.00262409
0.000207445
0.00260922
8.76847e-05
0.00262021
-2.65645e-05
0.00265459
-0.000126001
0.00270606
-0.000196694
0.00276408
-0.000224843
0.0028159
-0.000203892
0.00285035
-0.000139684
0.00286127
-4.97493e-05
0.00284874
4.33543e-05
0.00281789
0.000120427
0.00277611
0.000171093
0.00273054
0.000194087
0.0026866
0.000194045
0.00264767
0.000177769
0.00261551
0.000151728
0.00259072
0.000121012
0.00257317
8.92529e-05
0.00256231
5.89276e-05
0.00255734
3.17149e-05
0.00255724
8.7759e-06
0.00256087
-9.06253e-06
0.00256696
-2.12506e-05
0.00257419
-2.75799e-05
0.0025813
-2.82949e-05
0.00258718
-2.41606e-05
0.00259106
-1.6417e-05
0.0025925
-6.61033e-06
0.00259147
3.65797e-06
0.00258828
1.29857e-05
0.00258344
2.03599e-05
0.00257758
2.52356e-05
0.00257134
2.75098e-05
0.00256524
2.74268e-05
0.00255971
2.54548e-05
0.00255502
2.21676e-05
0.00255131
1.81477e-05
0.00254857
1.39192e-05
0.00254675
9.90807e-06
0.00254568
6.42655e-06
0.0025452
3.67234e-06
0.00254511
1.7385e-06
0.00254521
6.28678e-07
0.00254535
2.7487e-07
0.00254537
5.55989e-07
0.00254519
1.31673e-06
0.00254474
2.38639e-06
0.002544
3.59686e-06
0.00254298
4.79792e-06
0.00254171
5.8687e-06
0.00254026
6.72445e-06
0.00253869
7.31846e-06
0.00253706
7.6395e-06
0.00253543
7.70602e-06
0.00253385
7.55827e-06
0.00253234
7.24971e-06
0.00253094
6.83881e-06
0.00252965
6.38211e-06
0.00252845
5.92903e-06
0.00252735
5.51847e-06
0.00252632
5.17731e-06
0.00252534
4.92035e-06
0.0025244
4.75151e-06
0.00252346
4.66573e-06
0.00252252
4.65132e-06
0.00252157
4.69241e-06
0.00252059
4.77127e-06
0.00251959
4.87027e-06
0.00251856
4.97352e-06
0.0025175
5.06794e-06
0.00251643
5.14394e-06
0.00251535
5.19556e-06
0.00251426
5.22034e-06
0.00251317
5.21873e-06
0.00251208
5.19345e-06
0.002511
5.14859e-06
0.00250994
5.08882e-06
0.00250888
5.01865e-06
0.00250784
4.94182e-06
0.00250682
4.86089e-06
0.0025058
4.77707e-06
0.0025048
4.69019e-06
0.00250382
4.59884e-06
0.00250285
4.50056e-06
0.00250189
4.39215e-06
0.00250096
4.26969e-06
0.00250004
4.12838e-06
0.00249916
3.96188e-06
0.0024983
3.761e-06
0.00249749
3.51248e-06
0.00249673
3.19665e-06
0.00249605
2.78925e-06
0.00249545
2.25715e-06
0.00249496
1.57598e-06
0.00249462
7.06835e-07
0.00249445
-3.24563e-07
0.00249447
-1.57145e-06
0.00249471
-2.81846e-06
0.00249518
-4.31988e-06
0.0024958
-5.20708e-06
0.00249668
-6.88349e-06
-6.32087e-06
0.00250236
-1.56293e-05
0.00250952
-4.70896e-05
0.00252201
-8.08702e-05
0.00254074
-0.000118126
0.00256687
-0.00015951
0.00260161
-0.000204213
0.00264591
-0.00024994
0.00269934
-0.000290441
0.00275988
-0.000318855
0.00282197
-0.000324314
0.00287845
-0.00030167
0.00292599
-0.000262354
0.00296283
-0.00021323
0.00298884
-0.000161778
0.00300577
-0.000115618
0.00301662
-7.95277e-05
0.00302473
-5.41908e-05
0.00303225
-3.46886e-05
0.00303865
-1.11319e-05
0.0030398
2.83907e-05
0.00302883
9.16354e-05
0.00299937
0.000175095
0.0029494
0.000262396
0.00288263
0.000331971
0.00280703
0.00036651
0.00273222
0.000357189
0.00266771
0.000302701
0.00262226
0.000206372
0.0026037
7.49428e-05
0.00261875
-8.09309e-05
0.00267143
-0.000242734
0.00275859
-0.000378103
0.0028645
-0.000441792
0.0029611
-0.000395001
0.00301875
-0.000236245
0.00302123
-1.26945e-05
0.00297199
0.000206374
0.00288786
0.000368717
0.00278804
0.000456062
0.0026874
0.000474377
0.00259553
0.000437026
0.00251912
0.000353508
0.00246561
0.000224603
0.00244372
4.57865e-05
0.00245889
-0.000181303
0.0025137
-0.000442295
0.00261671
-0.0007115
0.00277896
-0.000937583
0.00299177
-0.0010274
0.00320914
-0.000882189
0.00335789
-0.000487245
0.00338206
3.17363e-05
0.00328551
0.00047815
0.00312307
0.000723419
0.00295462
0.000767571
0.00281422
0.000684877
0.00271037
0.000548356
0.00264006
0.00039831
0.00259935
0.000248153
0.00258693
0.000100103
0.00260297
-4.25997e-05
0.00264577
-0.000168804
0.00270859
-0.000259512
0.00277883
-0.000295088
0.00284081
-0.000265869
0.00288086
-0.000179736
0.00289199
-6.08733e-05
0.00287522
6.0122e-05
0.00283764
0.000158002
0.00278874
0.000219999
0.00273707
0.000245753
0.00268869
0.00024243
0.002647
0.000219455
0.00261347
0.000185256
0.00258835
0.000146136
0.00257121
0.000106393
0.00256127
6.88634e-05
0.00255756
3.5428e-05
0.00255895
7.38926e-06
0.00256418
-1.42966e-05
0.00257189
-2.89588e-05
0.00258063
-3.63192e-05
0.002589
-3.66648e-05
0.00259579
-3.09561e-05
0.00260015
-2.07776e-05
0.00260166
-8.11333e-06
0.00260033
4.98656e-06
0.00259657
1.67448e-05
0.00259102
2.59039e-05
0.00258444
3.18196e-05
0.00257754
3.44154e-05
0.00257091
3.40492e-05
0.00256502
3.13491e-05
0.00256013
2.70597e-05
0.00255635
2.19214e-05
0.00255368
1.65886e-05
0.00255201
1.1585e-05
0.00255115
7.28721e-06
0.00255089
3.92759e-06
0.00255102
1.60863e-06
0.00255133
3.233e-07
0.00255162
-2.23529e-08
0.00255177
4.13855e-07
0.00255165
1.43348e-06
0.00255121
2.82069e-06
0.00255045
4.36464e-06
0.00254937
5.87848e-06
0.00254802
7.21349e-06
0.00254648
8.26719e-06
0.00254481
8.9853e-06
0.00254309
9.35804e-06
0.00254139
9.41245e-06
0.00253974
9.20211e-06
0.0025382
8.79616e-06
0.00253677
8.26902e-06
0.00253546
7.69174e-06
0.00253426
7.12565e-06
0.00253316
6.61833e-06
0.00253214
6.202e-06
0.00253116
5.89363e-06
0.00253022
5.69665e-06
0.00252928
5.60346e-06
0.00252833
5.59844e-06
0.00252736
5.66106e-06
0.00252637
5.7688e-06
0.00252534
5.89954e-06
0.00252428
6.03355e-06
0.00252319
6.15483e-06
0.00252208
6.25183e-06
0.00252096
6.31762e-06
0.00251983
6.34964e-06
0.0025187
6.34894e-06
0.00251757
6.3193e-06
0.00251646
6.26618e-06
0.00251535
6.19564e-06
0.00251425
6.11341e-06
0.00251317
6.02425e-06
0.0025121
5.93138e-06
0.00251104
5.8363e-06
0.00250999
5.73879e-06
0.00250896
5.63706e-06
0.00250793
5.52804e-06
0.00250691
5.4077e-06
0.00250591
5.27116e-06
0.00250493
5.11247e-06
0.00250397
4.92399e-06
0.00250303
4.69498e-06
0.00250213
4.41027e-06
0.00250128
4.04779e-06
0.00250049
3.58028e-06
0.00249978
2.97135e-06
0.00249916
2.1933e-06
0.00249866
1.20479e-06
0.00249831
3.18044e-08
0.00249811
-1.37799e-06
0.00249809
-2.79485e-06
0.00249825
-4.48079e-06
0.00249854
-5.49777e-06
0.00249902
-7.36473e-06
-6.75436e-06
0.00250218
-1.78062e-05
0.00250878
-5.3696e-05
0.00252047
-9.25547e-05
0.00253832
-0.000135976
0.00256382
-0.000185016
0.00259871
-0.000239101
0.00264455
-0.000295783
0.00270141
-0.000347296
0.0027675
-0.000384951
0.00283566
-0.000392472
0.00289657
-0.000362582
0.0029467
-0.000312482
0.0029842
-0.00025073
0.00300915
-0.000186728
0.00302393
-0.000130394
0.00303256
-8.81613e-05
0.00303964
-6.12708e-05
0.00304837
-4.34168e-05
0.00305847
-2.1233e-05
0.00306469
2.21725e-05
0.00305771
9.86118e-05
0.0030286
0.000204206
0.00297424
0.000316761
0.00289911
0.000407095
0.00281295
0.000452668
0.00272716
0.000442982
0.00265253
0.000377329
0.00259882
0.000260085
0.00257504
9.87228e-05
0.00258995
-9.58384e-05
0.00265086
-0.000303643
0.00275698
-0.000484223
0.00288925
-0.000574065
0.00301016
-0.000515912
0.0030808
-0.000306886
0.00308168
-1.3576e-05
0.00301959
0.000268466
0.00291777
0.000470536
0.00280073
0.000573104
0.00268549
0.000589617
0.00258126
0.000541254
0.00249404
0.000440731
0.00243042
0.000288221
0.00239361
8.25917e-05
0.00238099
-0.000168676
0.00240017
-0.000461479
0.00247894
-0.000790272
0.00263861
-0.00109725
0.00286487
-0.00125367
0.00310896
-0.00112628
0.00330002
-0.000678303
0.00336984
-3.80871e-05
0.00329888
0.000549113
0.00313437
0.000887926
0.00294914
0.000952803
0.00279298
0.000841043
0.00268075
0.000660578
0.00260808
0.000470988
0.00256815
0.00028808
0.00255869
0.000109565
0.00258045
-6.43582e-05
0.0026321
-0.000220463
0.00270644
-0.000333845
0.0027899
-0.000378546
0.00286474
-0.000340714
0.00291391
-0.000228905
0.00292763
-7.45979e-05
0.00290693
8.08295e-05
0.00286132
0.000203607
0.00280343
0.000277891
0.00274408
0.0003051
0.00269025
0.000296261
0.00264532
0.000264384
0.00261031
0.000220274
0.00258495
0.000171496
0.00256842
0.000122915
0.00255968
7.76052e-05
0.00255755
3.75601e-05
0.00256077
4.16555e-06
0.00256799
-2.15111e-05
0.00257769
-3.86628e-05
0.00258829
-4.69157e-05
0.00259821
-4.65879e-05
0.00260611
-3.88587e-05
0.00261105
-2.57158e-05
0.0026126
-9.66298e-06
0.00261087
6.72216e-06
0.00260638
2.12311e-05
0.00259995
3.23392e-05
0.00259245
3.93129e-05
0.00258473
4.21337e-05
0.00257747
4.13145e-05
0.00257113
3.76831e-05
0.00256601
3.21879e-05
0.00256218
2.57501e-05
0.0025596
1.91683e-05
0.00255811
1.30692e-05
0.00255751
7.89352e-06
0.00255753
3.90426e-06
0.00255793
1.20721e-06
0.00255848
-2.22375e-07
0.00255897
-5.11646e-07
0.00255924
1.37778e-07
0.0025592
1.47757e-06
0.00255878
3.24077e-06
0.00255797
5.16887e-06
0.00255682
7.03496e-06
0.00255537
8.66064e-06
0.00255371
9.92551e-06
0.00255193
1.07689e-05
0.0025501
1.11848e-05
0.0025483
1.12117e-05
0.00254659
1.09195e-05
0.00254499
1.03959e-05
0.00254352
9.73361e-06
0.00254219
9.01984e-06
0.00254099
8.32886e-06
0.00253989
7.71733e-06
0.00253887
7.22265e-06
0.0025379
6.86343e-06
0.00253696
6.64185e-06
0.00253601
6.54685e-06
0.00253505
6.55802e-06
0.00253406
6.64937e-06
0.00253304
6.7929e-06
0.00253198
6.96151e-06
0.00253088
7.13136e-06
0.00252975
7.28336e-06
0.0025286
7.40404e-06
0.00252743
7.48564e-06
0.00252626
7.52571e-06
0.00252508
7.52621e-06
0.00252391
7.49228e-06
0.00252274
7.43099e-06
0.00252159
7.35001e-06
0.00252044
7.25652e-06
0.00251931
7.15636e-06
0.00251819
7.0535e-06
0.00251708
6.94975e-06
0.00251597
6.84481e-06
0.00251487
6.7365e-06
0.00251378
6.62108e-06
0.00251269
6.49364e-06
0.00251161
6.3482e-06
0.00251055
6.17766e-06
0.0025095
5.97302e-06
0.00250847
5.72214e-06
0.00250747
5.40816e-06
0.00250652
5.00731e-06
0.00250561
4.49015e-06
0.00250476
3.81861e-06
0.00250399
2.96252e-06
0.00250331
1.88085e-06
0.00250275
5.97918e-07
0.0025023
-9.31633e-07
0.00250198
-2.47793e-06
0.00250179
-4.28673e-06
0.0025017
-5.40942e-06
0.00250172
-7.38016e-06
-6.76376e-06
0.00250193
-1.97399e-05
0.00250783
-5.95897e-05
0.00251843
-0.000103155
0.00253504
-0.000152586
0.00255952
-0.000209503
0.00259426
-0.00027384
0.00264169
-0.000343204
0.00270265
-0.000408258
0.0027759
-0.000458205
0.00285193
-0.000468495
0.00291835
-0.000429002
0.00297155
-0.000365691
0.0030097
-0.00028888
0.00303307
-0.000210097
0.00304477
-0.000142094
0.00305013
-9.35205e-05
0.00305545
-6.65868e-05
0.00306546
-5.3426e-05
0.00308043
-3.62027e-05
0.00309372
8.88374e-06
0.00309263
9.96951e-05
0.0030646
0.000232241
0.00300495
0.000376409
0.00291932
0.000492724
0.00281992
0.000552068
0.00272046
0.000542447
0.00263323
0.000464558
0.00256896
0.000324351
0.00253782
0.000129862
0.00255159
-0.000109601
0.00262323
-0.00037529
0.00275564
-0.00061663
0.00292472
-0.000743142
0.00307874
-0.000669934
0.00316482
-0.00039297
0.00316029
-9.04181e-06
0.00307866
0.000350093
0.00295291
0.000596289
0.00281429
0.000711726
0.00268177
0.000722133
0.00256369
0.000659332
0.00246498
0.000539444
0.00238814
0.000365057
0.00232652
0.000144218
0.00227753
-0.000119691
0.00227201
-0.000455955
0.00235602
-0.000874287
0.00253724
-0.00127846
0.00277757
-0.001494
0.00302483
-0.00137353
0.00322484
-0.000878313
0.00332022
-0.000133467
0.00327783
0.000591503
0.00312537
0.00104038
0.00293413
0.00114405
0.00276586
0.00100931
0.00264514
0.000781295
0.00256943
0.000546698
0.00253013
0.000327386
0.00252338
0.000116316
0.00254837
-8.93489e-05
0.00260194
-0.000274034
0.00267788
-0.000409784
0.00276765
-0.000468317
0.00285699
-0.000430059
0.002925
-0.00029691
0.00295318
-0.000102783
0.0029369
9.71103e-05
0.00288662
0.000253894
0.00281966
0.000344844
0.00275136
0.000373402
0.00269098
0.000356645
0.00264226
0.000313102
0.00260566
0.000256871
0.00258023
0.000196925
0.00256461
0.000138536
0.00255739
8.48262e-05
0.00255719
3.77625e-05
0.00256261
-1.26144e-06
0.00257219
-3.10849e-05
0.00258427
-5.07393e-05
0.00259706
-5.97151e-05
0.00260882
-5.83445e-05
0.00261802
-4.80532e-05
0.00262361
-3.13069e-05
0.00262517
-1.12293e-05
0.00262292
8.979e-06
0.00261754
2.66124e-05
0.00261002
3.98541e-05
0.00260144
4.78949e-05
0.00259276
5.08144e-05
0.00258474
4.9331e-05
0.0025779
4.45213e-05
0.00257251
3.75768e-05
0.00256864
2.96269e-05
0.00256618
2.16293e-05
0.00256493
1.43193e-05
0.00256462
8.20012e-06
0.00256496
3.55925e-06
0.00256567
4.97662e-07
0.00256649
-1.03592e-06
0.00256719
-1.21053e-06
0.0025676
-2.799e-07
0.00256763
1.45029e-06
0.00256722
3.65544e-06
0.00256636
6.02422e-06
0.00256511
8.28601e-06
0.00256354
1.02309e-05
0.00256174
1.17206e-05
0.00255982
1.26895e-05
0.00255787
1.31381e-05
0.00255596
1.31195e-05
0.00255416
1.27235e-05
0.0025525
1.20595e-05
0.00255099
1.1241e-05
0.00254963
1.03733e-05
0.00254842
9.54464e-06
0.00254732
8.82107e-06
0.00254629
8.2449e-06
0.00254532
7.83574e-06
0.00254437
7.59355e-06
0.00254341
7.50286e-06
0.00254243
7.53746e-06
0.00254142
7.66506e-06
0.00254036
7.85149e-06
0.00253926
8.06419e-06
0.00253811
8.27488e-06
0.00253694
8.46132e-06
0.00253573
8.60814e-06
0.00253451
8.70693e-06
0.00253328
8.75565e-06
0.00253205
8.7574e-06
0.00253082
8.71902e-06
0.0025296
8.64946e-06
0.0025284
8.55824e-06
0.0025272
8.45413e-06
0.00252601
8.34422e-06
0.00252483
8.23324e-06
0.00252366
8.12335e-06
0.00252249
8.01418e-06
0.00252132
7.90312e-06
0.00252016
7.78574e-06
0.00251899
7.65617e-06
0.00251783
7.50732e-06
0.00251668
7.33084e-06
0.00251554
7.11642e-06
0.00251441
6.8506e-06
0.0025133
6.51515e-06
0.00251222
6.08524e-06
0.00251118
5.53011e-06
0.00251019
4.81161e-06