/*--------------------------------*- C++ -*----------------------------------*\
  =========                 |
  \\      /  F ield         | OpenFOAM: The Open Source CFD Toolbox
   \\    /   O peration     | Website:  https://openfoam.org
    \\  /    A nd           | Version:  11
     \\/     M anipulation  |
\*---------------------------------------------------------------------------*/
FoamFile
{
    format      ascii;
    class       surfaceScalarField;
    location    "2.528511";
    object      phi_0;
}
// * * * * * * * * * * * * * * * * * * * * * * * * * * * * * * * * * * * * * //

dimensions      [0 3 -1 0 0 0 0];

internalField   nonuniform List<scalar> 
14638
(
0.00250286
-2.8584e-06
0.00251148
-8.61909e-06
0.0025262
-1.47215e-05
0.00254748
-2.12787e-05
0.00257579
-2.83109e-05
0.00261139
-3.55976e-05
0.0026541
-4.27137e-05
0.00270292
-4.88239e-05
0.00275594
-5.30143e-05
0.00281021
-5.42704e-05
0.00286215
-5.19455e-05
0.0029087
-4.65475e-05
0.00294723
-3.85272e-05
0.0029756
-2.83675e-05
0.00299225
-1.66549e-05
0.00299629
-4.03944e-06
0.00298764
8.64698e-06
0.00296721
2.04332e-05
0.00293684
3.03667e-05
0.00289911
3.77307e-05
0.00285691
4.22062e-05
0.00281301
4.38978e-05
0.00276978
4.32296e-05
0.00272898
4.07955e-05
0.00269177
3.72173e-05
0.00265872
3.30479e-05
0.00263
2.87225e-05
0.00260545
2.45472e-05
0.00258474
2.0712e-05
0.00256742
1.73143e-05
0.00255304
1.43844e-05
0.00254113
1.19087e-05
0.00253128
9.84754e-06
0.00252313
8.14916e-06
0.00251637
6.75865e-06
0.00251075
5.62474e-06
0.00250605
4.70306e-06
0.00250209
3.95514e-06
0.00249875
3.34192e-06
0.00249594
2.81399e-06
0.00249363
2.30533e-06
0.00249189
1.73957e-06
0.00249084
1.05326e-06
0.00249061
2.29835e-07
0.00249128
-6.73227e-07
0.0024928
-1.52428e-06
0.00249496
-2.15386e-06
0.00249738
-2.41703e-06
0.00249963
-2.25429e-06
0.00250135
-1.72106e-06
0.00250232
-9.70565e-07
0.00250252
-1.98616e-07
0.0025021
4.2312e-07
0.0025013
7.95823e-07
0.00250039
9.07297e-07
0.00249958
8.12815e-07
0.00249898
5.98964e-07
0.00249863
3.49261e-07
0.00249851
1.23474e-07
0.00249856
-4.74416e-08
0.00249871
-1.55911e-07
0.00249892
-2.08715e-07
0.00249914
-2.19095e-07
0.00249934
-2.01621e-07
0.00249951
-1.69421e-07
0.00249964
-1.32808e-07
0.00249974
-9.87316e-08
0.00249981
-7.08336e-08
0.00249986
-5.00494e-08
0.0024999
-3.5559e-08
0.00249993
-2.57799e-08
0.00249994
-1.91247e-08
0.00249996
-1.43958e-08
0.00249997
-1.08582e-08
0.00249998
-8.12876e-09
0.00249998
-6.01926e-09
0.00249999
-4.41728e-09
0.00249999
-3.2278e-09
0.00249999
-2.35921e-09
0.0025
-1.72881e-09
0.0025
-1.26982e-09
0.0025
-9.33171e-10
0.0025
-6.84754e-10
0.0025
-5.01069e-10
0.0025
-3.65442e-10
0.0025
-2.65587e-10
0.0025
-1.92244e-10
0.0025
-1.38437e-10
0.0025
-9.89686e-11
0.0025
-7.00195e-11
0.0025
-4.87913e-11
0.0025
-3.32451e-11
0.0025
-2.18758e-11
0.0025
-1.35843e-11
0.0025
-7.55083e-12
0.0025
-3.18155e-12
0.0025
-2.90264e-14
0.0025
2.22476e-12
0.0025
3.82485e-12
0.0025
4.93957e-12
0.0025
5.70495e-12
0.0025
6.20835e-12
0.0025
6.52697e-12
0.0025
6.70432e-12
0.0025
6.78592e-12
0.0025
6.79143e-12
0.0025
6.74934e-12
0.0025
6.66633e-12
0.0025
6.56172e-12
0.0025
6.43513e-12
0.0025
6.30097e-12
0.0025
6.15499e-12
0.0025
6.00902e-12
0.0025
5.85664e-12
0.0025
5.70831e-12
0.0025
5.55644e-12
0.0025
5.41074e-12
0.0025
5.26297e-12
0.0025
5.12246e-12
0.0025
4.98057e-12
0.0025
4.84644e-12
0.0025
4.71123e-12
0.0025
4.58393e-12
0.0025
4.45559e-12
0.0025
4.33515e-12
0.0025
4.21362e-12
0.0025
4.09986e-12
0.0025
3.98486e-12
0.0025
3.87746e-12
0.0025
3.76864e-12
0.0025
3.66723e-12
0.0025
3.56421e-12
0.0025
3.4684e-12
0.0025
3.3708e-12
0.0025
3.28019e-12
0.0025
3.18763e-12
0.0025
3.10186e-12
0.0025
3.01397e-12
0.0025
2.93268e-12
0.0025
2.84912e-12
0.0025
2.77198e-12
0.0025
2.69244e-12
0.0025
2.61915e-12
0.0025
2.54334e-12
0.0025
2.47364e-12
0.0025
2.40131e-12
0.0025
2.33499e-12
0.0025
2.26594e-12
0.0025
2.20288e-12
0.0025
2.1369e-12
0.0025
2.07708e-12
0.0025
2.01357e-12
0.0025
1.95742e-12
0.0025
1.89428e-12
0.0025
1.84603e-12
0.0025
1.77425e-12
0.0025
1.76024e-12
0.0025
1.62916e-12
0.0025
1.78372e-12
1.39931e-12
0.00250283
-5.69117e-06
0.00251138
-1.71674e-05
0.002526
-2.93432e-05
0.00254719
-4.24658e-05
0.00257547
-5.65886e-05
0.00261115
-7.12842e-05
0.00265415
-8.57094e-05
0.00270348
-9.81577e-05
0.00275723
-0.000106763
0.00281235
-0.000109384
0.00286508
-0.000104675
0.0029123
-9.37707e-05
0.00295137
-7.75998e-05
0.00298014
-5.71306e-05
0.00299701
-3.35306e-05
0.00300106
-8.08757e-06
0.00299218
1.75226e-05
0.00297129
4.13222e-05
0.0029403
6.13597e-05
0.00290186
7.61674e-05
0.00285897
8.51019e-05
0.00281447
8.83921e-05
0.00277078
8.692e-05
0.00272967
8.19054e-05
0.00269228
7.46157e-05
0.00265915
6.61699e-05
0.00263043
5.74419e-05
0.00260594
4.90422e-05
0.00258531
4.13456e-05
0.00256808
3.45408e-05
0.00255378
2.8683e-05
0.00254195
2.37405e-05
0.00253217
1.96308e-05
0.00252407
1.62479e-05
0.00251734
1.34808e-05
0.00251174
1.12259e-05
0.00250705
9.39409e-06
0.0025031
7.90824e-06
0.00249975
6.69076e-06
0.00249692
5.64408e-06
0.00249459
4.63788e-06
0.00249281
3.52087e-06
0.00249169
2.16619e-06
0.00249138
5.38789e-07
0.00249196
-1.25011e-06
0.00249338
-2.94142e-06
0.00249542
-4.19913e-06
0.00249774
-4.73369e-06
0.00249991
-4.42362e-06
0.00250156
-3.37549e-06
0.00250249
-1.8914e-06
0.00250265
-3.60062e-07
0.00250219
8.75887e-07
0.00250137
1.61755e-06
0.00250044
1.83833e-06
0.00249961
1.64673e-06
0.00249899
1.21484e-06
0.00249863
7.09828e-07
0.0024985
2.522e-07
0.00249855
-9.48628e-08
0.00249871
-3.15252e-07
0.00249892
-4.22203e-07
0.00249915
-4.42512e-07
0.00249935
-4.0604e-07
0.00249952
-3.39829e-07
0.00249965
-2.65108e-07
0.00249975
-1.96061e-07
0.00249982
-1.39972e-07
0.00249987
-9.85381e-08
0.0024999
-6.98982e-08
0.00249993
-5.07087e-08
0.00249995
-3.76956e-08
0.00249996
-2.84362e-08
0.00249997
-2.14771e-08
0.00249998
-1.60827e-08
0.00249998
-1.19026e-08
0.00249999
-8.72743e-09
0.00249999
-6.37298e-09
0.00249999
-4.65694e-09
0.0025
-3.4133e-09
0.0025
-2.5083e-09
0.0025
-1.84432e-09
0.0025
-1.35404e-09
0.0025
-9.9131e-10
0.0025
-7.23425e-10
0.0025
-5.26206e-10
0.0025
-3.81373e-10
0.0025
-2.75131e-10
0.0025
-1.97197e-10
0.0025
-1.40024e-10
0.0025
-9.80901e-11
0.0025
-6.7369e-11
0.0025
-4.48951e-11
0.0025
-2.8495e-11
0.0025
-1.65546e-11
0.0025
-7.89666e-12
0.0025
-1.64291e-12
0.0025
2.83966e-12
0.0025
6.0293e-12
0.0025
8.26396e-12
0.0025
9.80611e-12
0.0025
1.08343e-11
0.0025
1.14945e-11
0.0025
1.18791e-11
0.0025
1.20712e-11
0.0025
1.21162e-11
0.0025
1.20636e-11
0.0025
1.19333e-11
0.0025
1.17565e-11
0.0025
1.15393e-11
0.0025
1.13033e-11
0.0025
1.10468e-11
0.0025
1.07864e-11
0.0025
1.05161e-11
0.0025
1.02498e-11
0.0025
9.9793e-12
0.0025
9.71702e-12
0.0025
9.45327e-12
0.0025
9.19996e-12
0.0025
8.9465e-12
0.0025
8.70452e-12
0.0025
8.46289e-12
0.0025
8.23315e-12
0.0025
8.00381e-12
0.0025
7.78642e-12
0.0025
7.56925e-12
0.0025
7.36388e-12
0.0025
7.15841e-12
0.0025
6.96451e-12
0.0025
6.77012e-12
0.0025
6.58701e-12
0.0025
6.40301e-12
0.0025
6.23e-12
0.0025
6.0557e-12
0.0025
5.89208e-12
0.0025
5.72679e-12
0.0025
5.57189e-12
0.0025
5.41495e-12
0.0025
5.26813e-12
0.0025
5.11895e-12
0.0025
4.97962e-12
0.0025
4.83764e-12
0.0025
4.70527e-12
0.0025
4.56997e-12
0.0025
4.44407e-12
0.0025
4.315e-12
0.0025
4.19518e-12
0.0025
4.07193e-12
0.0025
3.95792e-12
0.0025
3.84007e-12
0.0025
3.73188e-12
0.0025
3.61846e-12
0.0025
3.51731e-12
0.0025
3.40487e-12
0.0025
3.31863e-12
0.0025
3.19069e-12
0.0025
3.1643e-12
0.0025
2.93331e-12
0.0025
3.18971e-12
2.53623e-12
0.00250278
-8.47208e-06
0.00251118
-2.55666e-05
0.00252559
-4.37578e-05
0.00254659
-6.34562e-05
0.00257478
-8.47831e-05
0.00261063
-0.000107132
0.00265418
-0.000129259
0.00270453
-0.000148514
0.00275977
-0.000162003
0.0028166
-0.000166212
0.00287091
-0.000158987
0.00291949
-0.000142348
0.00295965
-0.000117762
0.0029892
-8.66825e-05
0.00300652
-5.08442e-05
0.00301058
-1.21452e-05
0.00300123
2.68732e-05
0.00297939
6.3154e-05
0.0029471
9.36484e-05
0.00290721
0.000116065
0.00286289
0.000129421
0.00281717
0.000134114
0.00277253
0.000131555
0.00273078
0.000123655
0.00269302
0.000112379
0.00265975
9.94361e-05
0.00263105
8.61475e-05
0.00260667
7.34228e-05
0.0025862
6.1811e-05
0.00256916
5.15798e-05
0.00255505
4.2798e-05
0.00254338
3.54065e-05
0.00253374
2.92735e-05
0.00252575
2.42343e-05
0.00251911
2.01186e-05
0.00251357
1.67691e-05
0.00250891
1.40507e-05
0.00250497
1.18474e-05
0.00250162
1.00436e-05
0.00249877
8.49532e-06
0.0024964
7.01044e-06
0.00249455
5.36543e-06
0.00249335
3.37135e-06
0.00249291
9.73208e-07
0.00249333
-1.66841e-06
0.00249456
-4.17316e-06
0.00249641
-6.04419e-06
0.00249853
-6.85038e-06
0.00250051
-6.40757e-06
0.002502
-4.86944e-06
0.00250279
-2.68121e-06
0.00250285
-4.19071e-07
0.00250232
1.40683e-06
0.00250144
2.49847e-06
0.00250047
2.81371e-06
0.0024996
2.51236e-06
0.00249896
1.85051e-06
0.0024986
1.07861e-06
0.00249847
3.78797e-07
0.00249853
-1.5209e-07
0.0024987
-4.88306e-07
0.00249893
-6.49381e-07
0.00249916
-6.76555e-07
0.00249937
-6.16507e-07
0.00249954
-5.11758e-07
0.00249967
-3.95547e-07
0.00249977
-2.89713e-07
0.00249983
-2.05016e-07
0.00249988
-1.4343e-07
0.00249991
-1.0152e-07
0.00249993
-7.37877e-08
0.00249995
-5.50791e-08
0.00249996
-4.17132e-08
0.00249997
-3.1573e-08
0.00249998
-2.36459e-08
0.00249999
-1.74781e-08
0.00249999
-1.27942e-08
0.00249999
-9.33108e-09
0.00249999
-6.81599e-09
0.0025
-4.99787e-09
0.0025
-3.67577e-09
0.0025
-2.70503e-09
0.0025
-1.98731e-09
0.0025
-1.4558e-09
0.0025
-1.06315e-09
0.0025
-7.74134e-10
0.0025
-5.61966e-10
0.0025
-4.06363e-10
0.0025
-2.92217e-10
0.0025
-2.08456e-10
0.0025
-1.46999e-10
0.0025
-1.01955e-10
0.0025
-6.89887e-11
0.0025
-4.49149e-11
0.0025
-2.73729e-11
0.0025
-1.46354e-11
0.0025
-5.41892e-12
0.0025
1.20634e-12
0.0025
5.9374e-12
0.0025
9.27223e-12
0.0025
1.15916e-11
0.0025
1.31604e-11
0.0025
1.41886e-11
0.0025
1.48149e-11
0.0025
1.51572e-11
0.0025
1.52857e-11
0.0025
1.52687e-11
0.0025
1.51393e-11
0.0025
1.49391e-11
0.0025
1.46809e-11
0.0025
1.43921e-11
0.0025
1.40745e-11
0.0025
1.37478e-11
0.0025
1.34079e-11
0.0025
1.30704e-11
0.0025
1.27278e-11
0.0025
1.23937e-11
0.0025
1.20586e-11
0.0025
1.17352e-11
0.0025
1.14127e-11
0.0025
1.11034e-11
0.0025
1.07958e-11
0.0025
1.05019e-11
0.0025
1.021e-11
0.0025
9.93184e-12
0.0025
9.65541e-12
0.0025
9.39261e-12
0.0025
9.13113e-12
0.0025
8.88297e-12
0.0025
8.63566e-12
0.0025
8.4013e-12
0.0025
8.16728e-12
0.0025
7.9458e-12
0.0025
7.72418e-12
0.0025
7.5147e-12
0.0025
7.3046e-12
0.0025
7.10624e-12
0.0025
6.90682e-12
0.0025
6.71878e-12
0.0025
6.52926e-12
0.0025
6.3508e-12
0.0025
6.17047e-12
0.0025
6.00088e-12
0.0025
5.82909e-12
0.0025
5.66777e-12
0.0025
5.50392e-12
0.0025
5.35035e-12
0.0025
5.19393e-12
0.0025
5.04777e-12
0.0025
4.89818e-12
0.0025
4.75952e-12
0.0025
4.61558e-12
0.0025
4.48616e-12
0.0025
4.34342e-12
0.0025
4.23334e-12
0.0025
4.07112e-12
0.0025
4.03411e-12
0.0025
3.7499e-12
0.0025
4.03516e-12
3.2663e-12
0.0025027
-1.11711e-05
0.00251086
-3.37295e-05
0.00252494
-5.78391e-05
0.00254561
-8.41191e-05
0.00257364
-0.000112813
0.00260969
-0.000143184
0.00265404
-0.000173616
0.00270595
-0.000200415
0.00276349
-0.000219544
0.00282296
-0.000225689
0.00287969
-0.000215712
0.00293031
-0.000192974
0.00297212
-0.000159569
0.00300287
-0.000117433
0.00302086
-6.88316e-05
0.00302494
-1.62224e-05
0.00301486
3.69535e-05
0.00299157
8.64412e-05
0.00295728
0.000127936
0.00291514
0.000158208
0.00286864
0.000175919
0.00282105
0.000181705
0.00277499
0.000177615
0.00273228
0.000166363
0.00269398
0.000150679
0.00266051
0.000132907
0.00263184
0.000114821
0.00260764
9.76223e-05
0.00258743
8.20171e-05
0.00257068
6.83329e-05
0.00255684
5.66346e-05
0.00254543
4.68222e-05
0.00253599
3.87044e-05
0.00252818
3.20511e-05
0.00252167
2.66288e-05
0.00251621
2.22239e-05
0.00251161
1.8654e-05
0.00250769
1.57638e-05
0.00250434
1.34003e-05
0.00250146
1.1375e-05
0.00249903
9.43772e-06
0.0024971
7.29663e-06
0.00249577
4.70326e-06
0.00249516
1.58176e-06
0.00249535
-1.86316e-06
0.00249632
-5.13828e-06
0.00249787
-7.59466e-06
0.00249968
-8.66552e-06
0.00250138
-8.10498e-06
0.00250262
-6.10967e-06
0.0025032
-3.26047e-06
0.00250309
-3.12902e-07
0.00250244
2.06162e-06
0.00250147
3.46886e-06
0.00250043
3.85097e-06
0.00249953
3.41702e-06
0.00249887
2.50512e-06
0.0024985
1.44837e-06
0.00249839
4.91491e-07
0.00249847
-2.33287e-07
0.00249867
-6.89272e-07
0.00249892
-9.02377e-07
0.00249918
-9.29897e-07
0.0024994
-8.37847e-07
0.00249957
-6.86693e-07
0.0024997
-5.23323e-07
0.00249979
-3.77758e-07
0.00249985
-2.63841e-07
0.00249989
-1.82946e-07
0.00249992
-1.29175e-07
0.00249994
-9.4247e-08
0.00249995
-7.08326e-08
0.00249996
-5.39639e-08
0.00249997
-4.09643e-08
0.00249998
-3.06717e-08
0.00249999
-2.26203e-08
0.00249999
-1.65136e-08
0.00249999
-1.20212e-08
0.00249999
-8.77682e-09
0.0025
-6.44015e-09
0.0025
-4.74222e-09
0.0025
-3.49368e-09
0.0025
-2.56862e-09
0.0025
-1.88259e-09
0.0025
-1.37561e-09
0.0025
-1.00263e-09
0.0025
-7.28995e-10
0.0025
-5.28389e-10
0.0025
-3.81226e-10
0.0025
-2.73201e-10
0.0025
-1.93907e-10
0.0025
-1.35763e-10
0.0025
-9.31887e-11
0.0025
-6.20794e-11
0.0025
-3.93918e-11
0.0025
-2.28958e-11
0.0025
-1.09386e-11
0.0025
-2.31922e-12
0.0025
3.85812e-12
0.0025
8.2376e-12
0.0025
1.13074e-11
0.0025
1.34111e-11
0.0025
1.4817e-11
0.0025
1.5706e-11
0.0025
1.62274e-11
0.0025
1.64741e-11
0.0025
1.65312e-11
0.0025
1.64441e-11
0.0025
1.62632e-11
0.0025
1.60081e-11
0.0025
1.57108e-11
0.0025
1.53767e-11
0.0025
1.50279e-11
0.0025
1.46623e-11
0.0025
1.42966e-11
0.0025
1.39245e-11
0.0025
1.35601e-11
0.0025
1.31945e-11
0.0025
1.28407e-11
0.0025
1.24882e-11
0.0025
1.21492e-11
0.0025
1.18128e-11
0.0025
1.14906e-11
0.0025
1.11712e-11
0.0025
1.08662e-11
0.0025
1.05637e-11
0.0025
1.02756e-11
0.0025
9.98953e-12
0.0025
9.71745e-12
0.0025
9.44698e-12
0.0025
9.19005e-12
0.0025
8.93418e-12
0.0025
8.6914e-12
0.0025
8.44915e-12
0.0025
8.21954e-12
0.0025
7.98994e-12
0.0025
7.77253e-12
0.0025
7.55464e-12
0.0025
7.34855e-12
0.0025
7.14151e-12
0.0025
6.94591e-12
0.0025
6.74896e-12
0.0025
6.56309e-12
0.0025
6.3755e-12
0.0025
6.1987e-12
0.0025
6.01981e-12
0.0025
5.85149e-12
0.0025
5.68072e-12
0.0025
5.52055e-12
0.0025
5.35726e-12
0.0025
5.20539e-12
0.0025
5.04825e-12
0.0025
4.90673e-12
0.0025
4.75081e-12
0.0025
4.63053e-12
0.0025
4.45403e-12
0.0025
4.40846e-12
0.0025
4.11234e-12
0.0025
4.36822e-12
3.61311e-12
0.00250258
-1.3753e-05
0.00251041
-4.1554e-05
0.002524
-7.1434e-05
0.00254417
-0.000104284
0.0025719
-0.000140543
0.00260814
-0.000179428
0.00265353
-0.000219002
0.00270751
-0.000254398
0.00276825
-0.000280282
0.00283141
-0.000288851
0.00289142
-0.000275727
0.00294481
-0.000246362
0.00298883
-0.00020359
0.00302121
-0.000149811
0.00304014
-8.77602e-05
0.00304428
-2.03609e-05
0.00303322
4.80089e-05
0.00300794
0.000111727
0.00297088
0.000164995
0.00292562
0.000203465
0.00287612
0.00022542
0.00282598
0.000231846
0.002778
0.000225595
0.00273403
0.000210333
0.00269504
0.000189665
0.00266134
0.000166612
0.00263274
0.000143416
0.00260881
0.000121551
0.00258898
0.000101856
0.00257262
8.46896e-05
0.00255916
7.00905e-05
0.00254809
5.78986e-05
0.00253894
4.785e-05
0.00253135
3.96407e-05
0.00252501
3.29687e-05
0.00251967
2.75611e-05
0.00251514
2.31868e-05
0.00251126
1.96505e-05
0.00250789
1.67625e-05
0.00250498
1.42923e-05
0.00250248
1.19363e-05
0.00250043
9.33977e-06
0.00249894
6.19851e-06
0.0024981
2.41543e-06
0.00249801
-1.76671e-06
0.00249862
-5.75259e-06
0.00249978
-8.75317e-06
0.00250119
-1.0075e-05
0.0025025
-9.41296e-06
0.00250339
-7.0024e-06
0.00250368
-3.55019e-06
0.00250335
1.99243e-08
0.00250253
2.88438e-06
0.00250144
4.55756e-06
0.00250032
4.9663e-06
0.00249937
4.36665e-06
0.0024987
3.17614e-06
0.00249834
1.80967e-06
0.00249826
5.75783e-07
0.00249838
-3.55556e-07
0.00249862
-9.35082e-07
0.00249892
-1.19546e-06
0.0024992
-1.21257e-06
0.00249944
-1.07551e-06
0.00249962
-8.66203e-07
0.00249974
-6.47453e-07
0.00249982
-4.58057e-07
0.00249987
-3.14211e-07
0.0024999
-2.15335e-07
0.00249993
-1.51745e-07
0.00249994
-1.11484e-07
0.00249996
-8.46698e-08
0.00249997
-6.50452e-08
0.00249998
-4.9549e-08
0.00249998
-3.7061e-08
0.00249999
-2.7232e-08
0.00249999
-1.98002e-08
0.00249999
-1.43762e-08
0.0025
-1.04911e-08
0.0025
-7.70683e-09
0.0025
-5.68458e-09
0.0025
-4.19359e-09
0.0025
-3.08534e-09
0.0025
-2.26187e-09
0.0025
-1.6532e-09
0.0025
-1.20579e-09
0.0025
-8.77891e-10
0.0025
-6.37644e-10
0.0025
-4.61396e-10
0.0025
-3.31965e-10
0.0025
-2.36911e-10
0.0025
-1.67181e-10
0.0025
-1.16105e-10
0.0025
-7.87652e-11
0.0025
-5.15155e-11
0.0025
-3.16802e-11
0.0025
-1.72804e-11
0.0025
-6.87589e-12
0.0025
6.04064e-13
0.0025
5.93264e-12
0.0025
9.69229e-12
0.0025
1.22966e-11
0.0025
1.40643e-11
0.0025
1.52143e-11
0.0025
1.59227e-11
0.0025
1.63031e-11
0.0025
1.64546e-11
0.0025
1.64339e-11
0.0025
1.62988e-11
0.0025
1.6075e-11
0.0025
1.57982e-11
0.0025
1.54774e-11
0.0025
1.51363e-11
0.0025
1.47748e-11
0.0025
1.44105e-11
0.0025
1.40382e-11
0.0025
1.36722e-11
0.0025
1.33045e-11
0.0025
1.29478e-11
0.0025
1.25924e-11
0.0025
1.22501e-11
0.0025
1.19105e-11
0.0025
1.15851e-11
0.0025
1.12626e-11
0.0025
1.09544e-11
0.0025
1.06492e-11
0.0025
1.0358e-11
0.0025
1.00694e-11
0.0025
9.79459e-12
0.0025
9.52178e-12
0.0025
9.26229e-12
0.0025
9.00429e-12
0.0025
8.75916e-12
0.0025
8.51495e-12
0.0025
8.28316e-12
0.0025
8.05176e-12
0.0025
7.83231e-12
0.0025
7.61277e-12
0.0025
7.40477e-12
0.0025
7.19622e-12
0.0025
6.99882e-12
0.0025
6.80046e-12
0.0025
6.61291e-12
0.0025
6.42401e-12
0.0025
6.24562e-12
0.0025
6.06551e-12
0.0025
5.89569e-12
0.0025
5.72379e-12
0.0025
5.56224e-12
0.0025
5.39787e-12
0.0025
5.24479e-12
0.0025
5.08659e-12
0.0025
4.94411e-12
0.0025
4.7871e-12
0.0025
4.66579e-12
0.0025
4.48936e-12
0.0025
4.43665e-12
0.0025
4.15572e-12
0.0025
4.35238e-12
3.68411e-12
0.00250242
-1.61763e-05
0.00250979
-4.89181e-05
0.00252271
-8.4353e-05
0.00254215
-0.000123725
0.00256937
-0.000167769
0.00260572
-0.000215779
0.00265231
-0.000265586
0.00270892
-0.000311011
0.00277388
-0.000345242
0.00284191
-0.000356881
0.00290616
-0.000339971
0.00296303
-0.000303239
0.00300985
-0.000250405
0.00304431
-0.000184273
0.00306448
-0.000107927
0.00306872
-2.4608e-05
0.00305641
6.03175e-05
0.00302852
0.00013962
0.00298784
0.000205672
0.00293854
0.000252773
0.00288516
0.000278796
0.00283177
0.000285237
0.00278138
0.00027598
0.00273587
0.00025585
0.00269608
0.000229453
0.00266214
0.000200552
0.0026337
0.000171858
0.00261015
0.000145097
0.00259081
0.000121201
0.00257497
0.000100528
0.002562
8.30563e-05
0.00255136
6.85429e-05
0.00254257
5.66352e-05
0.00253527
4.6945e-05
0.00252914
3.90957e-05
0.00252395
3.27519e-05
0.0025195
2.76321e-05
0.00251565
2.35007e-05
0.00251228
2.0132e-05
0.00250932
1.72567e-05
0.00250673
1.4523e-05
0.00250455
1.15201e-05
0.00250286
7.89337e-06
0.00250175
3.52475e-06
0.00250129
-1.31178e-06
0.00250147
-5.93191e-06
0.00250214
-9.42193e-06
0.00250304
-1.09739e-05
0.00250386
-1.02281e-05
0.00250431
-7.45376e-06
0.00250423
-3.47193e-06
0.00250361
6.39888e-07
0.00250258
3.91816e-06
0.00250134
5.7926e-06
0.00250013
6.17553e-06
0.00249913
5.367e-06
0.00249845
3.86067e-06
0.0024981
2.15215e-06
0.00249806
6.15692e-07
0.00249825
-5.37814e-07
0.00249856
-1.24435e-06
0.0024989
-1.54403e-06
0.00249923
-1.53497e-06
0.00249949
-1.33455e-06
0.00249967
-1.05104e-06
0.00249979
-7.66033e-07
0.00249986
-5.27712e-07
0.0024999
-3.53429e-07
0.00249992
-2.38673e-07
0.00249994
-1.68136e-07
0.00249995
-1.25016e-07
0.00249996
-9.6434e-08
0.00249997
-7.49095e-08
0.00249998
-5.72787e-08
0.00249999
-4.27378e-08
0.00249999
-3.12236e-08
0.00249999
-2.25714e-08
0.00249999
-1.63325e-08
0.0025
-1.19154e-08
0.0025
-8.76966e-09
0.0025
-6.48403e-09
0.0025
-4.79121e-09
0.0025
-3.52695e-09
0.0025
-2.58524e-09
0.0025
-1.88922e-09
0.0025
-1.37838e-09
0.0025
-1.00461e-09
0.0025
-7.30965e-10
0.0025
-5.30196e-10
0.0025
-3.82672e-10
0.0025
-2.74267e-10
0.0025
-1.94712e-10
0.0025
-1.36427e-10
0.0025
-9.38063e-11
0.0025
-6.26888e-11
0.0025
-4.00192e-11
0.0025
-2.35421e-11
0.0025
-1.16151e-11
0.0025
-3.01994e-12
0.0025
3.12575e-12
0.0025
7.48374e-12
0.0025
1.0527e-11
0.0025
1.26167e-11
0.0025
1.4004e-11
0.0025
1.48873e-11
0.0025
1.53977e-11
0.0025
1.56461e-11
0.0025
1.56989e-11
0.0025
1.56196e-11
0.0025
1.54396e-11
0.0025
1.51972e-11
0.0025
1.49045e-11
0.0025
1.45866e-11
0.0025
1.42452e-11
0.0025
1.38982e-11
0.0025
1.35418e-11
0.0025
1.319e-11
0.0025
1.28359e-11
0.0025
1.24916e-11
0.0025
1.21484e-11
0.0025
1.18176e-11
0.0025
1.14895e-11
0.0025
1.11747e-11
0.0025
1.08631e-11
0.0025
1.0565e-11
0.0025
1.02701e-11
0.0025
9.98859e-12
0.0025
9.70983e-12
0.0025
9.44418e-12
0.0025
9.18078e-12
0.0025
8.93005e-12
0.0025
8.68105e-12
0.0025
8.44427e-12
0.0025
8.20867e-12
0.0025
7.98481e-12
0.0025
7.76163e-12
0.0025
7.54976e-12
0.0025
7.33808e-12
0.0025
7.13729e-12
0.0025
6.93625e-12
0.0025
6.74573e-12
0.0025
6.55455e-12
0.0025
6.37356e-12
0.0025
6.19153e-12
0.0025
6.01939e-12
0.0025
5.84586e-12
0.0025
5.68204e-12
0.0025
5.51645e-12
0.0025
5.36063e-12
0.0025
5.20233e-12
0.0025
5.05476e-12
0.0025
4.90238e-12
0.0025
4.76515e-12
0.0025
4.614e-12
0.0025
4.4966e-12
0.0025
4.32847e-12
0.0025
4.26977e-12
0.0025
4.01695e-12
0.0025
4.14946e-12
3.59113e-12
0.00250222
-1.83917e-05
0.00250897
-5.56761e-05
0.00252098
-9.63619e-05
0.0025394
-0.000142146
0.00256582
-0.000194186
0.00260208
-0.000252041
0.00264995
-0.000313453
0.00270976
-0.000370817
0.00278015
-0.000415636
0.00285444
-0.000431175
0.00292393
-0.000409453
0.00298503
-0.000364341
0.00303522
-0.000300593
0.00307225
-0.000221304
0.00309403
-0.000129706
0.00309852
-2.90988e-05
0.00308471
7.41255e-05
0.00305353
0.0001708
0.00300823
0.000250975
0.00295375
0.000307249
0.00289549
0.00033706
0.00283807
0.000342652
0.00278478
0.000329269
0.00273747
0.000303163
0.00269682
0.000270107
0.0026627
0.000234667
0.00263454
0.00020002
0.00261153
0.000168105
0.00259283
0.000139898
0.00257766
0.000115705
0.00256531
9.54076e-05
0.0025552
7.86526e-05
0.00254685
6.49788e-05
0.0025399
5.39019e-05
0.00253403
4.49644e-05
0.00252901
3.77654e-05
0.00252467
3.19717e-05
0.00252087
2.73066e-05
0.00251749
2.35098e-05
0.00251447
2.02767e-05
0.00251178
1.72136e-05
0.00250944
1.38615e-05
0.00250751
9.82231e-06
0.00250608
4.95806e-06
0.0025052
-4.33292e-07
0.00250486
-5.59381e-06
0.00250494
-9.50417e-06
0.00250522
-1.12578e-05
0.00250544
-1.04471e-05
0.00250536
-7.37026e-06
0.00250484
-2.94817e-06
0.00250387
1.6061e-06
0.00250258
5.20465e-06
0.00250118
7.2011e-06
0.00249986
7.49412e-06
0.0024988
6.4238e-06
0.00249811
4.55556e-06
0.00249779
2.46459e-06
0.00249781
5.93578e-07
0.00249808
-8.01049e-07
0.00249847
-1.63757e-06
0.00249889
-1.96457e-06
0.00249926
-1.90751e-06
0.00249955
-1.61918e-06
0.00249974
-1.24054e-06
0.00249985
-8.75691e-07
0.0024999
-5.82667e-07
0.00249993
-3.78104e-07
0.00249994
-2.50769e-07
0.00249995
-1.77277e-07
0.00249996
-1.34508e-07
0.00249997
-1.06122e-07
0.00249998
-8.36134e-08
0.00249998
-6.41538e-08
0.00249999
-4.7638e-08
0.00249999
-3.45018e-08
0.00249999
-2.474e-08
0.0025
-1.78258e-08
0.0025
-1.3009e-08
0.0025
-9.60471e-09
0.0025
-7.12567e-09
0.0025
-5.27576e-09
0.0025
-3.88469e-09
0.0025
-2.84539e-09
0.0025
-2.07782e-09
0.0025
-1.51591e-09
0.0025
-1.10574e-09
0.0025
-8.05753e-10
0.0025
-5.85592e-10
0.0025
-4.23678e-10
0.0025
-3.04612e-10
0.0025
-2.17203e-10
0.0025
-1.53165e-10
0.0025
-1.06337e-10
0.0025
-7.21412e-11
0.0025
-4.72147e-11
0.0025
-2.90817e-11
0.0025
-1.59387e-11
0.0025
-6.45094e-12
0.0025
3.50994e-13
0.0025
5.19169e-12
0.0025
8.59169e-12
0.0025
1.09455e-11
0.0025
1.25302e-11
0.0025
1.35616e-11
0.0025
1.41851e-11
0.0025
1.45204e-11
0.0025
1.46417e-11
0.0025
1.46171e-11
0.0025
1.44823e-11
0.0025
1.42775e-11
0.0025
1.40178e-11
0.0025
1.37286e-11
0.0025
1.34137e-11
0.0025
1.30906e-11
0.0025
1.27571e-11
0.0025
1.24264e-11
0.0025
1.20931e-11
0.0025
1.17682e-11
0.0025
1.14445e-11
0.0025
1.11319e-11
0.0025
1.08221e-11
0.0025
1.05245e-11
0.0025
1.02303e-11
0.0025
9.94866e-12
0.0025
9.67027e-12
0.0025
9.40439e-12
0.0025
9.14141e-12
0.0025
8.8906e-12
0.0025
8.64223e-12
0.0025
8.40563e-12
0.0025
8.17095e-12
0.0025
7.94758e-12
0.0025
7.72562e-12
0.0025
7.51452e-12
0.0025
7.30434e-12
0.0025
7.10461e-12
0.0025
6.90532e-12
0.0025
6.71608e-12
0.0025
6.52685e-12
0.0025
6.34732e-12
0.0025
6.16742e-12
0.0025
5.99689e-12
0.0025
5.82564e-12
0.0025
5.66347e-12
0.0025
5.50026e-12
0.0025
5.34595e-12
0.0025
5.19023e-12
0.0025
5.04351e-12
0.0025
4.89467e-12
0.0025
4.75578e-12
0.0025
4.61253e-12
0.0025
4.48335e-12
0.0025
4.34144e-12
0.0025
4.23008e-12
0.0025
4.0742e-12
0.0025
4.01082e-12
0.0025
3.78954e-12
0.0025
3.86665e-12
3.41232e-12
0.00250195
-2.03415e-05
0.00250793
-6.16554e-05
0.00251874
-0.000107174
0.00253576
-0.000159163
0.00256093
-0.00021936
0.00259676
-0.000287871
0.00264587
-0.000362561
0.00270944
-0.000434384
0.00278675
-0.000492945
0.00286899
-0.000513419
0.00294479
-0.00048525
0.00301084
-0.00043039
0.00306498
-0.000354734
0.0031051
-0.000261429
0.00312891
-0.000153509
0.00313377
-3.39613e-05
0.00311816
8.97327e-05
0.00308293
0.000206029
0.0030319
0.000302007
0.00297105
0.000368103
0.00290681
0.000401291
0.00284457
0.000404896
0.00278789
0.000385951
0.00273857
0.000352486
0.00269703
0.000311641
0.00266285
0.000268849
0.00263513
0.000227735
0.00261285
0.000190389
0.00259498
0.000157766
0.00258063
0.00013006
0.00256902
0.000107011
0.00255955
8.81204e-05
0.00255174
7.27971e-05
0.00254519
6.04482e-05
0.00253962
5.05291e-05
0.00253482
4.25704e-05
0.00253061
3.61862e-05
0.00252685
3.10592e-05
0.00252347
2.68957e-05
0.00252038
2.33594e-05
0.00251758
2.00217e-05
0.00251505
1.63852e-05
0.00251286
1.20161e-05
0.00251106
6.75927e-06
0.00250969
9.29252e-07
0.00250876
-4.65991e-06
0.00250816
-8.90606e-06
0.00250773
-1.0824e-05
0.00250725
-9.96773e-06
0.00250654
-6.6594e-06
0.00250549
-1.90276e-06
0.00250412
2.97599e-06
0.00250254
6.78391e-06
0.00250094
8.80904e-06
0.00249949
8.93702e-06
0.00249837
7.54246e-06
0.00249767
5.25689e-06
0.0024974
2.73398e-06
0.00249751
4.89059e-07
0.00249788
-1.16942e-06
0.00249838
-2.13796e-06
0.00249889
-2.47509e-06
0.00249932
-2.34062e-06
0.00249963
-1.9323e-06
0.00249983
-1.43209e-06
0.00249992
-9.71109e-07
0.00249996
-6.17393e-07
0.00249996
-3.84024e-07
0.00249996
-2.49184e-07
0.00249996
-1.78201e-07
0.00249997
-1.39857e-07
0.00249997
-1.13942e-07
0.00249998
-9.13449e-08
0.00249999
-7.02274e-08
0.00249999
-5.17025e-08
0.00249999
-3.69622e-08
0.0025
-2.62095e-08
0.0025
-1.87903e-08
0.0025
-1.37355e-08
0.0025
-1.01938e-08
0.0025
-7.59954e-09
0.0025
-5.63973e-09
0.0025
-4.15168e-09
0.0025
-3.0362e-09
0.0025
-2.214e-09
0.0025
-1.61461e-09
0.0025
-1.17856e-09
0.0025
-8.60019e-10
0.0025
-6.26077e-10
0.0025
-4.53793e-10
0.0025
-3.26979e-10
0.0025
-2.33862e-10
0.0025
-1.65659e-10
0.0025
-1.158e-10
0.0025
-7.93915e-11
0.0025
-5.28435e-11
0.0025
-3.35196e-11
0.0025
-1.95005e-11
0.0025
-9.36888e-12
0.0025
-2.09239e-12
0.0025
3.09848e-12
0.0025
6.75899e-12
0.0025
9.30735e-12
0.0025
1.10395e-11
0.0025
1.21834e-11
0.0025
1.28949e-11
0.0025
1.32997e-11
0.0025
1.34779e-11
0.0025
1.35002e-11
0.0025
1.34061e-11
0.0025
1.32366e-11
0.0025
1.30091e-11
0.0025
1.27489e-11
0.0025
1.24616e-11
0.0025
1.21641e-11
0.0025
1.18555e-11
0.0025
1.15484e-11
0.0025
1.12383e-11
0.0025
1.09355e-11
0.0025
1.06338e-11
0.0025
1.03422e-11
0.0025
1.00533e-11
0.0025
9.77574e-12
0.0025
9.50154e-12
0.0025
9.23888e-12
0.0025
8.97961e-12
0.0025
8.73178e-12
0.0025
8.48702e-12
0.0025
8.25338e-12
0.0025
8.02238e-12
0.0025
7.80209e-12
0.0025
7.58394e-12
0.0025
7.37608e-12
0.0025
7.16987e-12
0.0025
6.9735e-12
0.0025
6.77831e-12
0.0025
6.59258e-12
0.0025
6.40757e-12
0.0025
6.23164e-12
0.0025
6.05603e-12
0.0025
5.88916e-12
0.0025
5.72226e-12
0.0025
5.56378e-12
0.0025
5.40494e-12
0.0025
5.25426e-12
0.0025
5.1029e-12
0.0025
4.95955e-12
0.0025
4.81518e-12
0.0025
4.67891e-12
0.0025
4.54094e-12
0.0025
4.41198e-12
0.0025
4.27924e-12
0.0025
4.15922e-12
0.0025
4.02799e-12
0.0025
3.92352e-12
0.0025
3.78134e-12
0.0025
3.71488e-12
0.0025
3.52377e-12
0.0025
3.55869e-12
3.19148e-12
0.00250162
-2.19586e-05
0.00250662
-6.66545e-05
0.00251588
-0.000116442
0.00253101
-0.000174287
0.00255434
-0.000242695
0.00258919
-0.00032272
0.0026393
-0.000412663
0.00270718
-0.00050227
0.00279328
-0.00057904
0.00288557
-0.000605707
0.00296883
-0.000568515
0.00304049
-0.00050205
0.00309911
-0.000413353
0.0031429
-0.000305223
0.00316934
-0.000179942
0.00317493
-3.95535e-05
0.0031573
0.000107364
0.00311708
0.000246247
0.00305887
0.000360215
0.00299008
0.000436892
0.00291857
0.000472801
0.00285061
0.000472857
0.00279008
0.000446487
0.00273862
0.000403946
0.00269629
0.000353963
0.00266225
0.00030289
0.00263524
0.00025475
0.00261393
0.000211699
0.00259711
0.000174581
0.00258377
0.000143406
0.00257306
0.000117715
0.00256436
9.68276e-05
0.00255715
7.99998e-05
0.00255109
6.6517e-05
0.00254587
5.57414e-05
0.00254131
4.71335e-05
0.00253724
4.02547e-05
0.00253355
3.4748e-05
0.00253016
3.02877e-05
0.00252701
2.65099e-05
0.00252407
2.29588e-05
0.00252135
1.91089e-05
0.00251886
1.45011e-05
0.00251666
8.9672e-06
0.00251476
2.83108e-06
0.00251315
-3.0564e-06
0.00251178
-7.53704e-06
0.00251053
-9.57172e-06
0.00250925
-8.68882e-06
0.00250782
-5.22979e-06
0.00250618
-2.61078e-07
0.00250435
4.80501e-06
0.00250244
8.69408e-06
0.00250061
1.0641e-05
0.00249903
1.05183e-05
0.00249784
8.72747e-06
0.00249714
5.95901e-06
0.00249693
2.94416e-06
0.00249714
2.77337e-07
0.00249764
-1.67188e-06
0.00249828
-2.77264e-06
0.0024989
-3.09566e-06
0.0024994
-2.84465e-06
0.00249975
-2.27504e-06
0.00249994
-1.62053e-06
0.00250001
-1.04451e-06
0.00250002
-6.24615e-07
0.0025
-3.66114e-07
0.00249998
-2.31335e-07
0.00249997
-1.70199e-07
0.00249997
-1.41331e-07
0.00249998
-1.20402e-07
0.00249999
-9.84551e-08
0.00249999
-7.56058e-08
0.0025
-5.48671e-08
0.0025
-3.84808e-08
0.0025
-2.6872e-08
0.0025
-1.91605e-08
0.0025
-1.40656e-08
0.0025
-1.05275e-08
0.0025
-7.90234e-09
0.0025
-5.87965e-09
0.0025
-4.32322e-09
0.0025
-3.15275e-09
0.0025
-2.29365e-09
0.0025
-1.67151e-09
0.0025
-1.22107e-09
0.0025
-8.92405e-10
0.0025
-6.50655e-10
0.0025
-4.72237e-10
0.0025
-3.40741e-10
0.0025
-2.4418e-10
0.0025
-1.735e-10
0.0025
-1.21864e-10
0.0025
-8.41678e-11
0.0025
-5.66759e-11
0.0025
-3.66568e-11
0.0025
-2.21249e-11
0.0025
-1.16158e-11
0.0025
-4.06026e-12