/*--------------------------------*- C++ -*----------------------------------*\
  =========                 |
  \\      /  F ield         | OpenFOAM: The Open Source CFD Toolbox
   \\    /   O peration     | Website:  https://openfoam.org
    \\  /    A nd           | Version:  11
     \\/     M anipulation  |
\*---------------------------------------------------------------------------*/
FoamFile
{
    format      ascii;
    class       surfaceScalarField;
    location    "6.197911";
    object      phi_0;
}
// * * * * * * * * * * * * * * * * * * * * * * * * * * * * * * * * * * * * * //

dimensions      [0 3 -1 0 0 0 0];

internalField   nonuniform List<scalar> 
14638
(
0.00250288
-2.87919e-06
0.00251157
-8.68844e-06
0.00252642
-1.48567e-05
0.00254793
-2.15076e-05
0.00257661
-2.86762e-05
0.00261277
-3.61651e-05
0.00265636
-4.3583e-05
0.0027065
-5.0147e-05
0.00276152
-5.50178e-05
0.00281881
-5.72926e-05
0.00287528
-5.64689e-05
0.00292853
-5.32474e-05
0.0029768
-4.82711e-05
0.003019
-4.21959e-05
0.00305462
-3.56222e-05
0.00308358
-2.89617e-05
0.00310607
-2.24874e-05
0.00312241
-1.63373e-05
0.00313294
-1.05307e-05
0.00313792
-4.98317e-06
0.00313746
4.61037e-07
0.00313148
5.9792e-06
0.00311979
1.16938e-05
0.00310219
1.75964e-05
0.00307869
2.34984e-05
0.00304965
2.90412e-05
0.00301588
3.3774e-05
0.0029786
3.72719e-05
0.00293936
3.92476e-05
0.00289974
3.96172e-05
0.00286123
3.85053e-05
0.00282503
3.61994e-05
0.00279195
3.3079e-05
0.00276241
2.95416e-05
0.00273647
2.59433e-05
0.00271391
2.25599e-05
0.00269434
1.95696e-05
0.00267728
1.70557e-05
0.00266226
1.50206e-05
0.00264885
1.34095e-05
0.00263672
1.21343e-05
0.00262562
1.10965e-05
0.00261542
1.02046e-05
0.00260603
9.3856e-06
0.00259744
8.59016e-06
0.00258965
7.79272e-06
0.00258266
6.98838e-06
0.00257647
6.18766e-06
0.00257106
5.4106e-06
0.00256638
4.68106e-06
0.00256236
4.02192e-06
0.00255891
3.45146e-06
0.00255593
2.98111e-06
0.00255331
2.61442e-06
0.00255097
2.34732e-06
0.0025488
2.16924e-06
0.00254673
2.06483e-06
0.00254472
2.01607e-06
0.00254271
2.00434e-06
0.0025407
2.01226e-06
0.00253868
2.02504e-06
0.00253664
2.03143e-06
0.00253462
2.02405e-06
0.00253262
1.99923e-06
0.00253066
1.95658e-06
0.00252877
1.89826e-06
0.00252694
1.82816e-06
0.00252519
1.75107e-06
0.00252351
1.67197e-06
0.00252192
1.5954e-06
0.00252039
1.5251e-06
0.00251893
1.46373e-06
0.00251752
1.41275e-06
0.00251614
1.3725e-06
0.0025148
1.34235e-06
0.00251348
1.32087e-06
0.00251218
1.30617e-06
0.00251088
1.29612e-06
0.00250959
1.28865e-06
0.00250831
1.28192e-06
0.00250703
1.27448e-06
0.00250577
1.26534e-06
0.00250452
1.25393e-06
0.00250328
1.24011e-06
0.00250205
1.22399e-06
0.00250085
1.20588e-06
0.00249966
1.18616e-06
0.00249849
1.16519e-06
0.00249735
1.14326e-06
0.00249623
1.1205e-06
0.00249513
1.09689e-06
0.00249406
1.07216e-06
0.00249302
1.04584e-06
0.002492
1.01728e-06
0.00249101
9.85767e-07
0.00249006
9.50597e-07
0.00248915
9.11154e-07
0.00248828
8.66692e-07
0.00248747
8.1579e-07
0.00248671
7.55401e-07
0.00248603
6.79722e-07
0.00248545
5.79365e-07
0.00248501
4.41531e-07
0.00248476
2.51888e-07
0.00248476
-1.58481e-09
0.00248508
-3.23218e-07
0.00248579
-7.04088e-07
0.00248691
-1.11826e-06
0.00248843
-1.52288e-06
0.00249029
-1.86345e-06
0.00249238
-2.08393e-06
0.00249452
-2.13977e-06
0.00249653
-2.01024e-06
0.00249823
-1.70621e-06
0.0024995
-1.27051e-06
0.00250027
-7.70121e-07
0.00250056
-2.81872e-07
0.00250043
1.24202e-07
0.00250003
3.99387e-07
0.00249951
5.24705e-07
0.002499
5.11442e-07
0.0024986
3.94423e-07
0.00249838
2.20747e-07
0.00249834
3.75618e-08
0.00249846
-1.17812e-07
0.00249868
-2.23377e-07
0.00249896
-2.73142e-07
0.00249923
-2.73956e-07
0.00249947
-2.40272e-07
0.00249966
-1.88696e-07
0.00249979
-1.3374e-07
0.00249988
-8.54377e-08
0.00249993
-4.8812e-08
0.00249995
-2.4687e-08
0.00249996
-1.11575e-08
0.00249997
-5.11398e-09
0.00249997
-3.42743e-09
0.00249998
-3.64117e-09
0.00249998
-4.20502e-09
0.00249999
-4.38955e-09
0.00249999
-4.04189e-09
0.00249999
-3.31527e-09
0.0025
-2.45321e-09
0.0025
-1.65901e-09
0.0025
-1.04453e-09
0.0025
-6.34011e-10
0.0025
-3.94447e-10
0.0025
-2.70154e-10
0.0025
-2.08428e-10
0.0025
-1.72314e-10
0.0025
-1.42448e-10
0.0025
-1.12661e-10
0.0025
-8.3755e-11
0.0025
-5.84947e-11
0.0025
-3.87467e-11
0.0025
-2.48107e-11
0.0025
-1.55935e-11
0.0025
-9.86502e-12
0.0025
-5.95255e-12
-2.73547e-12
0.00250285
-5.73195e-06
0.00251147
-1.73035e-05
0.00252622
-2.96085e-05
0.00254763
-4.29146e-05
0.00257626
-5.73046e-05
0.00261249
-7.2396e-05
0.00265631
-8.74117e-05
0.00270692
-0.000100748
0.00276259
-0.000110687
0.0028206
-0.000115309
0.00287769
-0.000113559
0.00293141
-0.000106962
0.00297998
-9.68465e-05
0.00302234
-8.45523e-05
0.00305801
-7.12965e-05
0.00308695
-5.79024e-05
0.00310938
-4.4914e-05
0.00312565
-3.26038e-05
0.00313612
-2.10055e-05
0.00314108
-9.94244e-06
0.00314063
9.0971e-07
0.00313469
1.19228e-05
0.00312302
2.33588e-05
0.00310541
3.52115e-05
0.00308181
4.71006e-05
0.00305256
5.82916e-05
0.00301847
6.78571e-05
0.00298082
7.49221e-05
0.00294117
7.88965e-05
0.00290118
7.96105e-05
0.00286236
7.73224e-05
0.00282594
7.26228e-05
0.00279273
6.62875e-05
0.00276315
5.9126e-05
0.00273723
5.18601e-05
0.00271474
4.50457e-05
0.00269527
3.90402e-05
0.00267832
3.40067e-05
0.0026634
2.99457e-05
0.00265006
2.67416e-05
0.00263799
2.42131e-05
0.00262692
2.2159e-05
0.00261673
2.03933e-05
0.00260735
1.87686e-05
0.00259876
1.71855e-05
0.00259096
1.55935e-05
0.00258396
1.39838e-05
0.00257777
1.23785e-05
0.00257236
1.08192e-05
0.00256769
9.35461e-06
0.00256368
8.03151e-06
0.00256024
6.8871e-06
0.00255728
5.94458e-06
0.00255468
5.21116e-06
0.00255235
4.67856e-06
0.00255019
4.32527e-06
0.00254814
4.1202e-06
0.00254613
4.02681e-06
0.00254413
4.00742e-06
0.00254211
4.02687e-06
0.00254008
4.05538e-06
0.00253804
4.07027e-06
0.00253601
4.05674e-06
0.002534
4.00755e-06
0.00253204
3.92204e-06
0.00253013
3.80471e-06
0.00252829
3.66352e-06
0.00252654
3.50823e-06
0.00252486
3.34894e-06
0.00252326
3.19488e-06
0.00252173
3.0536e-06
0.00252026
2.93045e-06
0.00251885
2.82838e-06
0.00251747
2.74805e-06
0.00251613
2.68813e-06
0.0025148
2.64572e-06
0.00251349
2.61698e-06
0.00251219
2.59758e-06
0.0025109
2.58332e-06
0.00250961
2.57049e-06
0.00250833
2.55616e-06
0.00250705
2.53834e-06
0.00250579
2.51593e-06
0.00250454
2.48863e-06
0.00250331
2.45671e-06
0.00250209
2.42082e-06
0.0025009
2.38174e-06
0.00249972
2.34021e-06
0.00249857
2.29683e-06
0.00249744
2.2519e-06
0.00249633
2.20535e-06
0.00249525
2.15668e-06
0.00249419
2.10498e-06
0.00249316
2.04893e-06
0.00249215
1.98709e-06
0.00249119
1.91804e-06
0.00249026
1.8405e-06
0.00248937
1.75295e-06
0.00248853
1.6526e-06
0.00248776
1.53351e-06
0.00248705
1.38437e-06
0.00248644
1.18685e-06
0.00248597
9.15861e-07
0.00248568
5.43141e-07
0.00248563
4.47731e-08
0.0024859
-5.88247e-07
0.00248653
-1.33895e-06
0.00248757
-2.1568e-06
0.002489
-2.95769e-06
0.00249078
-3.63404e-06
0.00249277
-4.07481e-06
0.00249482
-4.19113e-06
0.00249675
-3.94098e-06
0.00249839
-3.34484e-06
0.0024996
-2.48676e-06
0.00250033
-1.499e-06
0.00250058
-5.33966e-07
0.00250044
2.68996e-07
0.00250003
8.12535e-07
0.00249949
1.05829e-06
0.00249898
1.02818e-06
0.00249858
7.91266e-07
0.00249836
4.41377e-07
0.00249832
7.27372e-08
0.00249845
-2.39847e-07
0.00249867
-4.52128e-07
0.00249895
-5.5194e-07
0.00249923
-5.52981e-07
0.00249948
-4.84354e-07
0.00249967
-3.79609e-07
0.0024998
-2.68134e-07
0.00249989
-1.70293e-07
0.00249993
-9.62944e-08
0.00249996
-4.77938e-08
0.00249997
-2.0874e-08
0.00249997
-9.15077e-09
0.00249997
-6.20222e-09
0.00249998
-6.99466e-09
0.00249998
-8.36763e-09
0.00249999
-8.85667e-09
0.00249999
-8.18552e-09
0.00249999
-6.70292e-09
0.0025
-4.93356e-09
0.0025
-3.30808e-09
0.0025
-2.05964e-09
0.0025
-1.23546e-09
0.0025
-7.63197e-10
0.0025
-5.24731e-10
0.0025
-4.10014e-10
0.0025
-3.43226e-10
0.0025
-2.85776e-10
0.0025
-2.26446e-10
0.0025
-1.68041e-10
0.0025
-1.16906e-10
0.0025
-7.71176e-11
0.0025
-4.92706e-11
0.0025
-3.10551e-11
0.0025
-1.98099e-11
0.0025
-1.22347e-11
-5.78735e-12
0.0025028
-8.53134e-06
0.00251126
-2.57645e-05
0.0025258
-4.41433e-05
0.00254699
-6.41079e-05
0.00257551
-8.58218e-05
0.00261185
-0.000108744
0.00265617
-0.000131724
0.00270768
-0.000152264
0.00276468
-0.000167685
0.00282418
-0.000174806
0.00288252
-0.000171907
0.00293718
-0.000161615
0.00298636
-0.000146027
0.00302903
-0.000127222
0.0030648
-0.000107066
0.00309369
-8.67937e-05
0.00311599
-6.72143e-05
0.00313211
-4.87266e-05
0.00314248
-3.13698e-05
0.00314739
-1.48582e-05
0.00314697
1.32779e-06
0.00314111
1.77901e-05
0.0031295
3.49658e-05
0.00311184
5.28712e-05
0.00308801
7.09274e-05
0.00305832
8.79869e-05
0.00302358
0.000102591
0.00298514
0.000113362
0.00294466
0.000119377
0.0029039
0.000120376
0.00286445
0.000116772
0.00282758
0.000109492
0.00279412
9.97453e-05
0.00276447
8.87814e-05
0.00273862
7.77079e-05
0.00271629
6.73703e-05
0.00269703
5.83043e-05
0.00268029
5.0746e-05
0.00266555
4.46831e-05
0.00265237
3.99271e-05
0.00264039
3.61923e-05
0.00262938
3.31657e-05
0.00261921
3.05615e-05
0.00260983
2.81546e-05
0.00260122
2.57957e-05
0.0025934
2.34106e-05
0.00258639
2.09891e-05
0.0025802
1.85683e-05
0.00257481
1.62137e-05
0.00257016
1.40018e-05
0.00256619
1.20048e-05
0.0025628
1.02801e-05
0.00255988
8.86329e-06
0.00255732
7.76501e-06
0.00255503
6.97223e-06
0.0025529
6.4516e-06
0.00255087
6.15516e-06
0.00254887
6.02681e-06
0.00254687
6.00882e-06
0.00254485
6.04753e-06
0.0025428
6.09765e-06
0.00254075
6.12494e-06
0.0025387
6.10719e-06
0.00253667
6.03384e-06
0.00253469
5.90436e-06
0.00253277
5.72601e-06
0.00253092
5.51125e-06
0.00252915
5.27522e-06
0.00252747
5.03344e-06
0.00252587
4.80008e-06
0.00252433
4.58662e-06
0.00252286
4.40116e-06
0.00252144
4.24811e-06
0.00252006
4.12837e-06
0.00251871
4.03977e-06
0.00251738
3.97784e-06
0.00251606
3.93658e-06
0.00251475
3.90937e-06
0.00251344
3.88976e-06
0.00251214
3.87208e-06
0.00251084
3.85191e-06
0.00250955
3.82627e-06
0.00250828
3.79354e-06
0.00250701
3.75335e-06
0.00250576
3.7062e-06
0.00250453
3.6531e-06
0.00250332
3.5953e-06
0.00250212
3.53399e-06
0.00250095
3.47008e-06
0.0024998
3.40405e-06
0.00249867
3.33585e-06
0.00249756
3.26477e-06
0.00249647
3.18944e-06
0.00249542
3.10792e-06
0.00249438
3.018e-06
0.00249339
2.91748e-06
0.00249242
2.80434e-06
0.0024915
2.67623e-06
0.00249062
2.529e-06
0.0024898
2.35402e-06
0.00248905
2.13497e-06
0.00248839
1.84526e-06
0.00248786
1.44843e-06
0.0024875
9.03115e-07
0.00248737
1.73998e-07
0.00248753
-7.5278e-07
0.00248805
-1.85327e-06
0.00248895
-3.05426e-06
0.00249022
-4.23293e-06
0.00249182
-5.23134e-06
0.00249363
-5.88565e-06
0.0024955
-6.06404e-06
0.00249727
-5.70326e-06
0.00249875
-4.83227e-06
0.00249984
-3.57421e-06
0.00250047
-2.1241e-06
0.00250064
-7.07345e-07
0.00250044
4.69408e-07
0.00249999
1.26145e-06
0.00249944
1.61152e-06
0.00249891
1.55208e-06
0.00249852
1.186e-06
0.00249831
6.53373e-07
0.00249828
9.51543e-08
0.00249842
-3.76575e-07
0.00249866
-6.95493e-07
0.00249895
-8.43531e-07
0.00249924
-8.41688e-07
0.00249949
-7.34341e-07
0.00249969
-5.72672e-07
0.00249982
-4.01554e-07
0.0024999
-2.52071e-07
0.00249995
-1.3973e-07
0.00249996
-6.68767e-08
0.00249997
-2.72696e-08
0.00249997
-1.08805e-08
0.00249997
-7.67391e-09
0.00249998
-9.83041e-09
0.00249998
-1.24986e-08
0.00249999
-1.35024e-08
0.00249999
-1.25249e-08
0.00249999
-1.02069e-08
0.0025
-7.43225e-09
0.0025
-4.90414e-09
0.0025
-2.991e-09
0.0025
-1.75613e-09
0.0025
-1.07242e-09
0.0025
-7.44763e-10
0.0025
-5.96762e-10
0.0025
-5.10756e-10
0.0025
-4.30109e-10
0.0025
-3.41418e-10
0.0025
-2.52204e-10
0.0025
-1.74053e-10
0.0025
-1.13865e-10
0.0025
-7.24041e-11
0.0025
-4.5832e-11
0.0025
-2.96255e-11
0.0025
-1.89394e-11
-9.34634e-12
0.00250272
-1.12466e-05
0.00251093
-3.39819e-05
0.00252512
-5.83306e-05
0.00254596
-8.49491e-05
0.00257427
-0.000114133
0.00261076
-0.00014523
0.00265578
-0.000176742
0.00270868
-0.000205168
0.00276774
-0.000226748
0.00282954
-0.000236604
0.00288981
-0.000232181
0.00294588
-0.000217683
0.00299596
-0.000196102
0.00303907
-0.000170339
0.00307496
-0.000142956
0.00310376
-0.000115588
0.00312585
-8.93029e-05
0.00314174
-6.46136e-05
0.00315192
-4.15522e-05
0.00315676
-1.97004e-05
0.00315639
1.69626e-06
0.00315065
2.35266e-05
0.00313916
4.64601e-05
0.00312146
7.05716e-05
0.00309731
9.50741e-05
0.00306695
0.000118348
0.00303123
0.000138316
0.00299157
0.000153014
0.00294982
0.000161135
0.00290787
0.000162325
0.00286745
0.000157187
0.00282991
0.000147037
0.00279608
0.000133573
0.00276633
0.000118532
0.0027406
0.000103438
0.00271853
8.94382e-05
0.00269959
7.72465e-05
0.00268318
6.71601e-05
0.00266872
5.91362e-05
0.00265576
5.28946e-05
0.00264392
4.80273e-05
0.00263299
4.40964e-05
0.00262284
4.07071e-05
0.00261345
3.7553e-05
0.00260481
3.44344e-05
0.00259696
3.12563e-05
0.00258994
2.80114e-05
0.00258375
2.47562e-05
0.00257838
2.15852e-05
0.00257378
1.86059e-05
0.00256986
1.59193e-05
0.00256654
1.36047e-05
0.00256369
1.17105e-05
0.0025612
1.02507e-05
0.00255897
9.20659e-06
0.00255689
8.53133e-06
0.00255489
8.15838e-06
0.0025529
8.01033e-06
0.0025509
8.00791e-06
0.00254887
8.0778e-06
0.00254681
8.15851e-06
0.00254473
8.20393e-06
0.00254266
8.18463e-06
0.0025406
8.08712e-06
0.0025386
7.91162e-06
0.00253665
7.66886e-06
0.00253479
7.37651e-06
0.00253301
7.05567e-06
0.00253131
6.72781e-06
0.0025297
6.41234e-06
0.00252816
6.12491e-06
0.00252669
5.87641e-06
0.00252526
5.67266e-06
0.00252388
5.51465e-06
0.00252252
5.3992e-06
0.00252117
5.31998e-06
0.00251984
5.26864e-06
0.00251852
5.23602e-06
0.00251719
5.21326e-06
0.00251587
5.19264e-06
0.00251456
5.1682e-06
0.00251325
5.13597e-06
0.00251195
5.09391e-06
0.00251066
5.04166e-06
0.00250938
4.98002e-06
0.00250813
4.91051e-06
0.00250689
4.83493e-06
0.00250567
4.75493e-06
0.00250446
4.67181e-06
0.00250328
4.58628e-06
0.00250212
4.49833e-06
0.00250098
4.40706e-06
0.00249986
4.31068e-06
0.00249876
4.20664e-06
0.00249768
4.09192e-06
0.00249664
3.96346e-06
0.00249562
3.81838e-06
0.00249465
3.65341e-06
0.00249371
3.46304e-06
0.00249283
3.2362e-06
0.00249201
2.95209e-06
0.00249128
2.57691e-06
0.00249067
2.06402e-06
0.00249021
1.36031e-06
0.00248996
4.19919e-07
0.00248999
-7.75819e-07
0.00249033
-2.19712e-06
0.00249103
-3.75061e-06
0.00249207
-5.2782e-06
0.00249341
-6.57558e-06
0.00249496
-7.42973e-06
0.00249656
-7.66834e-06
0.00249807
-7.20779e-06
0.00249932
-6.08454e-06
0.0025002
-4.45825e-06
0.00250066
-2.58307e-06
0.00250071
-7.53598e-07
0.00250042
7.59675e-07
0.00249991
1.76717e-06
0.00249933
2.19413e-06
0.0024988
2.08395e-06
0.00249841
1.57304e-06
0.00249822
8.4719e-07
0.00249822
9.34555e-08
0.00249838
-5.39377e-07
0.00249865
-9.63497e-07
0.00249896
-1.15566e-06
0.00249927
-1.14508e-06
0.00249952
-9.92511e-07
0.00249972
-7.67828e-07
0.00249985
-5.32261e-07
0.00249993
-3.28113e-07
0.00249996
-1.76248e-07
0.00249998
-7.93914e-08
0.00249998
-2.84291e-08
0.00249997
-9.09553e-09
0.00249997
-7.2505e-09
0.00249998
-1.19889e-08
0.00249998
-1.66719e-08
0.00249999
-1.84728e-08
0.00249999
-1.71786e-08
0.00249999
-1.38791e-08
0.0025
-9.93836e-09
0.0025
-6.39826e-09
0.0025
-3.77897e-09
0.0025
-2.14492e-09
0.0025
-1.28788e-09
0.0025
-9.12443e-10
0.0025
-7.62342e-10
0.0025
-6.74343e-10
0.0025
-5.76418e-10
0.0025
-4.57935e-10
0.0025
-3.35511e-10
0.0025
-2.28521e-10
0.0025
-1.47484e-10
0.0025
-9.30269e-11
0.0025
-5.92015e-11
0.0025
-3.89792e-11
0.0025
-2.60002e-11
-1.34656e-11
0.0025026
-1.3842e-05
0.00251047
-4.18518e-05
0.00252415
-7.20136e-05
0.00254446
-0.000105261
0.00257242
-0.000142095
0.00260902
-0.000181827
0.00265494
-0.000222659
0.00270972
-0.000259951
0.00277167
-0.000288699
0.0028367
-0.000301629
0.00289961
-0.000295095
0.00295757
-0.000275646
0.00300881
-0.000247339
0.00305248
-0.000214007
0.00308848
-0.000178958
0.0031171
-0.000144211
0.00313888
-0.000111075
0.00315442
-8.01617e-05
0.00316435
-5.14803e-05
0.0031691
-2.44493e-05
0.00316882
1.97599e-06
0.0031633
2.90511e-05
0.003152
5.77612e-05
0.00313428
8.82912e-05
0.00310972
0.000119634
0.00307845
0.000149613
0.00304137
0.000175403
0.00300005
0.000194335
0.00295653
0.000204649
0.00291296
0.000205895
0.00287124
0.000198911
0.00283279
0.000185484
0.00279848
0.000167879
0.00276863
0.000148385
0.00274309
0.000128981
0.00272139
0.000111135
0.0027029
9.57346e-05
0.00268694
8.31219e-05
0.00267288
7.31988e-05
0.00266021
6.55665e-05
0.00264856
5.96709e-05
0.00263773
5.49304e-05
0.00262761
5.08294e-05
0.00261819
4.69751e-05
0.0026095
4.31177e-05
0.00260161
3.91454e-05
0.00259456
3.50597e-05
0.00258838
3.09434e-05
0.00258304
2.69258e-05
0.00257849
2.31513e-05
0.00257466
1.97534e-05
0.00257143
1.68354e-05
0.00256868
1.44597e-05
0.00256628
1.26432e-05
0.00256413
1.13599e-05
0.00256211
1.05476e-05
0.00256015
1.01186e-05
0.00255819
9.97187e-06
0.0025562
1.00044e-05
0.00255415
1.01217e-05
0.00255207
1.0245e-05
0.00254995
1.03162e-05
0.00254784
1.02988e-05
0.00254575
1.01768e-05
0.00254371
9.95222e-06
0.00254174
9.6402e-06
0.00253985
9.26455e-06
0.00253805
8.85322e-06
0.00253635
8.43427e-06
0.00253473
8.03284e-06
0.00253318
7.66898e-06
0.0025317
7.35647e-06
0.00253027
7.10245e-06
0.00252888
6.90778e-06
0.00252751
6.768e-06
0.00252616
6.67458e-06
0.00252481
6.61648e-06
0.00252346
6.58171e-06
0.00252212
6.55878e-06
0.00252077
6.53777e-06
0.00251943
6.51111e-06
0.00251809
6.4739e-06
0.00251676
6.42376e-06
0.00251544
6.36046e-06
0.00251414
6.28527e-06
0.00251285
6.20036e-06
0.00251157
6.10813e-06
0.00251032
6.01085e-06
0.00250908
5.91024e-06
0.00250786
5.80728e-06
0.00250665
5.70203e-06
0.00250547
5.59348e-06
0.0025043
5.47944e-06
0.00250315
5.35673e-06
0.00250202
5.22151e-06
0.00250091
5.06976e-06
0.00249983
4.89761e-06
0.00249879
4.7007e-06
0.00249778
4.47215e-06
0.00249681
4.19869e-06
0.00249591
3.85576e-06
0.00249508
3.40348e-06
0.00249436
2.78669e-06
0.00249378
1.94218e-06
0.00249339
8.14948e-07
0.00249323
-6.18146e-07
0.00249335
-2.32265e-06
0.00249379
-4.18786e-06
0.00249454
-6.02489e-06
0.00249555
-7.58828e-06
0.00249674
-8.62092e-06
0.00249799
-8.91389e-06
0.00249914
-8.36494e-06
0.00250008
-7.01727e-06
0.00250068
-5.06402e-06
0.00250091
-2.8138e-06
0.00250078
-6.25029e-07
0.00250037
1.17288e-06
0.00249979
2.34929e-06
0.00249917
2.81425e-06
0.00249863
2.62299e-06
0.00249826
1.94527e-06
0.00249809
1.01183e-06
0.00249813
5.49631e-08
0.00249833
-7.40782e-07
0.00249864
-1.26709e-06
0.00249898
-1.4967e-06
0.0024993
-1.46851e-06
0.00249957
-1.26118e-06
0.00249977
-9.64834e-07
0.00249989
-6.58209e-07
0.00249996
-3.95433e-07
0.00249999
-2.02719e-07
0.00249999
-8.2641e-08
0.00249998
-2.24008e-08
0.00249998
-2.6436e-09
0.00249997
-4.44739e-09
0.00249998
-1.34294e-08
0.00249998
-2.10614e-08
0.00249999
-2.39803e-08
0.00249999
-2.22975e-08
0.00249999
-1.77782e-08
0.0025
-1.24337e-08
0.0025
-7.73026e-09
0.0025
-4.35494e-09
0.0025
-2.34643e-09
0.0025
-1.3752e-09
0.0025
-1.01226e-09
0.0025
-9.03325e-10
0.0025
-8.35749e-10
0.0025
-7.26983e-10
0.0025
-5.76767e-10
0.0025
-4.17094e-10
0.0025
-2.78548e-10
0.0025
-1.76136e-10
0.0025
-1.09717e-10
0.0025
-7.02843e-11
0.0025
-4.74326e-11
0.0025
-3.32211e-11
-1.80819e-11
0.00250243
-1.62757e-05
0.00250983
-4.92509e-05
0.00252282
-8.50001e-05
0.00254237
-0.000124814
0.00256977
-0.000169494
0.00260638
-0.000218435
0.00265334
-0.000269623
0.00271052
-0.000317126
0.00277632
-0.000354503
0.00284566
-0.000370965
0.00291199
-0.000361426
0.00297233
-0.000335988
0.00302497
-0.000299981
0.00306926
-0.000258292
0.00310532
-0.000215024
0.00313365
-0.000172544
0.00315496
-0.00013238
0.00317002
-9.52215e-05
0.00317958
-6.10416e-05
0.00318419
-2.90604e-05
0.00318404
2.1254e-06
0.00317884
3.42488e-05
0.00316788
6.87301e-05
0.00315022
0.000105945
0.00312521
0.000144651
0.00309282
0.000181999
0.00305399
0.000214237
0.0030105
0.000237823
0.0029647
0.000250446
0.00291904
0.00025156
0.00287563
0.000242312
0.00283605
0.000225067
0.00280117
0.000202763
0.00277123
0.000178325
0.00274597
0.000154242
0.00272478
0.00013232
0.0027069
0.000113614
0.00269153
9.84884e-05
0.00267798
8.67554e-05
0.00266568
7.78623e-05
0.00265428
7.10774e-05
0.00264355
6.56513e-05
0.00263345
6.09333e-05
0.00262399
5.64378e-05
0.00261524
5.18664e-05
0.00260729
4.70957e-05
0.0026002
4.21446e-05
0.00259402
3.71306e-05
0.00258872
3.22266e-05
0.00258425
2.76203e-05
0.00258052
2.34824e-05
0.00257741
1.99439e-05
0.00257479
1.70817e-05
0.00257252
1.49153e-05
0.00257047
1.34092e-05
0.00256853
1.24829e-05
0.00256662
1.20246e-05
0.00256469
1.19063e-05
0.0025627
1.19987e-05
0.00256063
1.2184e-05
0.00255851
1.23653e-05
0.00255636
1.24717e-05
0.0025542
1.24599e-05
0.00255206
1.23127e-05
0.00254998
1.20348e-05
0.00254797
1.16469e-05
0.00254606
1.11804e-05
0.00254424
1.06711e-05
0.00254252
1.01546e-05
0.00254089
9.66217e-06
0.00253934
9.21875e-06
0.00253785
8.84101e-06
0.00253642
8.53732e-06
0.00253502
8.30815e-06
0.00253364
8.14731e-06
0.00253227
8.04368e-06
0.0025309
7.98308e-06
0.00252954
7.95034e-06
0.00252816
7.931e-06
0.00252679
7.91277e-06
0.00252541
7.88644e-06
0.00252404
7.84618e-06
0.00252267
7.78943e-06
0.00252132
7.71626e-06
0.00251998
7.62861e-06
0.00251865
7.52942e-06
0.00251733
7.42193e-06
0.00251603
7.30903e-06
0.00251475
7.19299e-06
0.00251348
7.07511e-06
0.00251223
6.95558e-06
0.00251099
6.83328e-06
0.00250976
6.7057e-06
0.00250855
6.56906e-06
0.00250735
6.41864e-06
0.00250618
6.24936e-06
0.00250502
6.05618e-06
0.00250388
5.83352e-06
0.00250278
5.57306e-06
0.00250172
5.25959e-06
0.00250071
4.86548e-06
0.00249977
4.34611e-06
0.00249892
3.63968e-06
0.00249818
2.67503e-06
0.00249761
1.3898e-06
0.00249723
-2.4284e-07
0.0024971
-2.18476e-06
0.00249722
-4.31108e-06
0.0024976
-6.4073e-06
0.00249821
-8.19334e-06
0.00249896
-9.37473e-06
0.00249976
-9.71134e-06
0.00250048
-9.08519e-06
0.00250101
-7.54592e-06
0.00250126
-5.31666e-06
0.0025012
-2.75457e-06
0.00250085
-2.7494e-07
0.00250028
1.74057e-06
0.00249961
3.02549e-06
0.00249894
3.47796e-06
0.0024984
3.16633e-06
0.00249805
2.29362e-06
0.00249793
1.13461e-06
0.00249802
-3.44288e-08
0.00249827
-9.94424e-07
0.00249862
-1.61795e-06
0.002499
-1.8754e-06
0.00249935
-1.81728e-06
0.00249963
-1.54235e-06
0.00249983
-1.16294e-06
0.00249995
-7.76796e-07
0.0025
-4.50562e-07
0.00250002
-2.15675e-07
0.00250001
-7.37747e-08
0.00249999
-7.24097e-09
0.00249998
9.50844e-09
0.00249997
1.05149e-09
0.00249997
-1.42753e-08
0.00249998
-2.59671e-08
0.00249999
-3.03126e-08
0.00249999
-2.80622e-08
0.0025
-2.19616e-08
0.0025
-1.48846e-08
0.0025
-8.82282e-09
0.0025
-4.63871e-09
0.0025
-2.30085e-09
0.0025
-1.30118e-09
0.0025
-1.03258e-09
0.0025
-1.02044e-09
0.0025
-9.99758e-10
0.0025
-8.85625e-10
0.0025
-6.9905e-10
0.0025
-4.95821e-10
0.0025
-3.2194e-10
0.0025
-1.97632e-10
0.0025
-1.20857e-10
0.0025
-7.81164e-11
0.0025
-5.45164e-11
0.0025
-4.03496e-11
-2.30579e-11
0.00250222
-1.84981e-05
0.002509
-5.60326e-05
0.00252106
-9.70542e-05
0.00253955
-0.000143307
0.00256608
-0.000196019
0.00260249
-0.000254851
0.00265057
-0.000317705
0.00271068
-0.00037723
0.0027815
-0.000425324
0.00285645
-0.000445918
0.00292705
-0.000432024
0.00299024
-0.000399179
0.00304447
-0.000354208
0.00308936
-0.000303184
0.00312538
-0.000251046
0.00315327
-0.000200429
0.00317393
-0.000153046
0.00318835
-0.000109635
0.00319743
-7.01264e-05
0.00320188
-3.35064e-05
0.00320193
2.07393e-06
0.00319721
3.89675e-05
0.00318675
7.91911e-05
0.00316927
0.000123422
0.00314375
0.000170171
0.00310999
0.000215757
0.00306897
0.00025526
0.00302276
0.000284039
0.00297409
0.000299111
0.00292581
0.000299836
0.00288035
0.000287775
0.00283941
0.000266011
0.00280387
0.000238299
0.00277389
0.000208306
0.00274904
0.000179089
0.00272855
0.000152816
0.00271146
0.0001307
0.00269686
0.000113093
0.00268394
9.96748e-05
0.00267211
8.96928e-05
0.00266099
8.21979e-05
0.00265039
7.62435e-05
0.0026403
7.10262e-05
0.00263078
6.59615e-05
0.00262194
6.07041e-05
0.00261391
5.51273e-05
0.00260677
4.92775e-05
0.00260059
4.33188e-05
0.00259534
3.74773e-05
0.00259096
3.19929e-05
0.00258737
2.70798e-05
0.00258441
2.28994e-05
0.00258195
1.95451e-05
0.00257982
1.70373e-05
0.0025779
1.5329e-05
0.00257607
1.43179e-05
0.00257423
1.38637e-05
0.00257233
1.38077e-05
0.00257034
1.39908e-05
0.00256825
1.42697e-05
0.00256609
1.45275e-05
0.00256388
1.46802e-05
0.00256166
1.46785e-05
0.00255947
1.45047e-05
0.00255734
1.41676e-05
0.00255529
1.36954e-05
0.00255334
1.31285e-05
0.0025515
1.25119e-05
0.00254976
1.18896e-05
0.00254813
1.13001e-05
0.00254657
1.07733e-05
0.00254508
1.0329e-05
0.00254365
9.9765e-06
0.00254224
9.71556e-06
0.00254085
9.53782e-06
0.00253946
9.42897e-06
0.00253807
9.37118e-06
0.00253668
9.34558e-06
0.00253528
9.33442e-06
0.00253387
9.32282e-06
0.00253245
9.29983e-06
0.00253104
9.2588e-06
0.00252963
9.19711e-06
0.00252823
9.11539e-06
0.00252684
9.01645e-06
0.00252547
8.90427e-06
0.00252411
8.78303e-06
0.00252276
8.65643e-06
0.00252143
8.52734e-06
0.0025201
8.39746e-06
0.00251879
8.26715e-06
0.00251749
8.13526e-06
0.0025162
7.999e-06
0.00251491
7.85397e-06
0.00251364
7.69457e-06
0.00251237
7.51458e-06
0.00251112
7.30761e-06
0.00250989
7.06666e-06
0.00250868
6.78192e-06
0.0025075
6.43642e-06
0.00250637
6.00021e-06
0.00250529
5.42535e-06
0.00250428
4.64544e-06
0.00250337
3.58391e-06
0.00250259
2.1733e-06
0.00250196
3.84364e-07
0.00250152
-1.74174e-06
0.00250128
-4.06917e-06
0.00250123
-6.36363e-06
0.00250136
-8.31824e-06
0.00250159
-9.60957e-06
0.00250186
-9.97348e-06
0.00250205
-9.2806e-06
0.00250209
-7.5873e-06
0.00250192
-5.14275e-06
0.00250151
-2.34555e-06
0.00250089
3.40961e-07
0.00250014
2.49144e-06
0.00249936
3.81043e-06
0.00249865
4.18836e-06
0.0024981
3.70846e-06
0.00249779
2.60684e-06
0.00249772
1.20112e-06
0.00249788
-1.89999e-07
0.0024982
-1.31459e-06
0.00249861
-2.02792e-06
0.00249904
-2.30018e-06
0.00249941
-2.19606e-06
0.00249971
-1.83715e-06
0.00249991
-1.36049e-06
0.00250001
-8.84604e-07
0.00250005
-4.89422e-07
0.00250005
-2.11304e-07
0.00250002
-4.98458e-08
0.0025
1.88965e-08
0.00249998
2.81855e-08
0.00249997
9.32508e-09
0.00249997
-1.48552e-08
0.00249998
-3.18291e-08
0.00249999
-3.78292e-08
0.00249999
-3.46706e-08
0.0025
-2.64723e-08
0.0025
-1.72316e-08
0.0025
-9.57634e-09
0.0025
-4.53738e-09
0.0025
-1.9454e-09
0.0025
-1.03601e-09
0.0025
-9.67605e-10
0.0025
-1.11972e-09
0.0025
-1.17459e-09
0.0025
-1.05766e-09
0.0025
-8.26078e-10
0.0025
-5.70116e-10
0.0025
-3.55996e-10
0.0025
-2.09467e-10
0.0025
-1.24733e-10
0.0025
-8.17674e-11
0.0025
-5.98327e-11
0.0025
-4.71751e-11
-2.82409e-11
0.00250195
-2.04513e-05
0.00250794
-6.2024e-05
0.00251878
-0.000107888
0.00253583
-0.000160357
0.00256105
-0.000221236
0.00259692
-0.000290729
0.00264607
-0.000366853
0.00270966
-0.000440816
0.00278695
-0.000502612
0.00286913
-0.000528106
0.00294493
-0.000507823
0.00301142
-0.000465667
0.00306736
-0.000410145
0.00311279
-0.000348617
0.00314859
-0.000286843
0.00317578
-0.000227618
0.00319553
-0.000172797
0.00320903
-0.00012314
0.00321745
-7.85382e-05
0.00322165
-3.77097e-05
0.00322199
1.7374e-06
0.00321798
4.29733e-05
0.00320833
8.8837e-05
0.00319128
0.000140474
0.00316532
0.000196137
0.00312997
0.000251102
0.00308628
0.000298946
0.0030367
0.000333623
0.00298449
0.000351317
0.00293302
0.00035131
0.00288508
0.00033572
0.00284254
0.000308548
0.0028063
0.00027454
0.00277637
0.000238237
0.00275212
0.00020334
0.00273253
0.0001724
0.00271646
0.00014677
0.00270281
0.000126744
0.00269068
0.000111812
0.0026794
0.000100965
0.00266861
9.2988e-05
0.00265816
8.67004e-05
0.00264806
8.11263e-05
0.00263844
7.5576e-05
0.00262948
6.96617e-05
0.00262135
6.32639e-05
0.00261415
5.64706e-05
0.00260797
4.95061e-05
0.00260278
4.26631e-05
0.00259853
3.62433e-05
0.0025951
3.05114e-05
0.00259233
2.56639e-05
0.00259007
2.18113e-05
0.00258813
1.89741e-05
0.00258637
1.70901e-05
0.00258466
1.60306e-05
0.0025829
1.5622e-05
0.00258104
1.56698e-05
0.00257905
1.59813e-05
0.00257693
1.63843e-05
0.00257472
1.67405e-05
0.00257245
1.69527e-05
0.00257016
1.69657e-05
0.0025679
1.67627e-05
0.00256571
1.63589e-05
0.00256361
1.57919e-05
0.00256163
1.51127e-05
0.00255976
1.43773e-05
0.00255801
1.36395e-05
0.00255637
1.29457e-05
0.00255481
1.23312e-05
0.00255332
1.18189e-05
0.00255188
1.14189e-05
0.00255046
1.11298e-05
0.00254906
1.09404e-05
0.00254766
1.08325e-05
0.00254625
1.0784e-05
0.00254482
1.07718e-05
0.00254338
1.07743e-05
0.00254193
1.07739e-05
0.00254047
1.07577e-05
0.00253901
1.07185e-05
0.00253755
1.06538e-05
0.0025361
1.05649e-05
0.00253466
1.04559e-05
0.00253324
1.03321e-05
0.00253182
1.01988e-05
0.00253042
1.00606e-05
0.00252902
9.92109e-06
0.00252764
9.78247e-06
0.00252626
9.64533e-06
0.00252489
9.50855e-06
0.00252352
9.36906e-06
0.00252215
9.22191e-06
0.00252078
9.06058e-06
0.00251942
8.87761e-06
0.00251806
8.66512e-06
0.00251671
8.41453e-06
0.00251538
8.11442e-06
0.00251407
7.74627e-06
0.00251279
7.27849e-06
0.00251156
6.66118e-06
0.00251038
5.82562e-06
0.00250927
4.69254e-06
0.00250825
3.1922e-06
0.00250734
1.29472e-06
0.00250655
-9.55901e-07
0.0025059
-3.41593e-06
0.00250537
-5.83762e-06
0.00250495
-7.89624e-06
0.00250459
-9.24954e-06
0.00250424
-9.61857e-06
0.00250383
-8.86847e-06
0.0025033
-7.06331e-06
0.00250263
-4.47414e-06
0.00250182
-1.53238e-06
0.0025009
1.26137e-06
0.00249994
3.4487e-06
0.00249904
4.71361e-06
0.00249828
4.94411e-06
0.00249775
4.24037e-06
0.00249749
2.87125e-06
0.00249749
1.19563e-06
0.00249773
-4.27363e-07
0.00249813
-1.71505e-06
0.00249861
-2.50765e-06
0.00249909
-2.77787e-06
0.0024995
-2.60773e-06
0.00249981
-2.14499e-06
0.0025
-1.55436e-06
0.00250009
-9.77155e-07
0.00250011
-5.07329e-07
0.00250009
-1.85603e-07
0.00250004
-8.0308e-09
0.00250001
5.75539e-08
0.00249998
5.38537e-08
0.00249997
2.0133e-08
0.00249997
-1.57249e-08
0.00249998
-3.92122e-08
0.00249999
-4.6928e-08
0.00249999
-4.2305e-08
0.0025
-3.13148e-08
0.0025
-1.93782e-08
0.0025
-9.8671e-09
0.0025
-3.94906e-09
0.0025
-1.21949e-09
0.0025
-5.57544e-10
0.0025
-8.19763e-10
0.0025
-1.21325e-09
0.0025
-1.37163e-09
0.0025
-1.24924e-09
0.0025
-9.58751e-10
0.0025
-6.37682e-10
0.0025
-3.77488e-10
0.0025
-2.08947e-10
0.0025
-1.19699e-10
0.0025
-8.04875e-11
0.0025
-6.31589e-11
0.0025
-5.36085e-11
-3.351e-11
0.00250162
-2.20685e-05
0.00250662
-6.70237e-05
0.00251588
-0.000117156
0.002531
-0.000175476
0.00255432
-0.000244549
0.00258911
-0.000325522
0.00263908
-0.000416829
0.00270671
-0.000508446
0.00279233
-0.00058823