/*--------------------------------*- C++ -*----------------------------------*\
  =========                 |
  \\      /  F ield         | OpenFOAM: The Open Source CFD Toolbox
   \\    /   O peration     | Website:  https://openfoam.org
    \\  /    A nd           | Version:  11
     \\/     M anipulation  |
\*---------------------------------------------------------------------------*/
FoamFile
{
    format      ascii;
    class       volScalarField;
    location    "8.507268";
    object      p;
}
// * * * * * * * * * * * * * * * * * * * * * * * * * * * * * * * * * * * * * //

dimensions      [0 2 -2 0 0 0 0];

internalField   nonuniform List<scalar> 
7132
(
0.054156
0.052751
0.0480027
0.041059
0.0313366
0.0185328
0.00255114
-0.0166287
-0.0385232
-0.0622184
-0.0863587
-0.109098
-0.129359
-0.146112
-0.15858
-0.166279
-0.168917
-0.166503
-0.159444
-0.148606
-0.135247
-0.120825
-0.106748
-0.0941212
-0.0835347
-0.0749112
-0.0674819
-0.0600565
-0.0515865
-0.0416761
-0.0306452
-0.019191
-0.00801757
0.00238116
0.0117008
0.0196575
0.0257522
0.0290784
0.0284127
0.0228331
0.0128252
0.000999852
-0.00883069
-0.014036
-0.0144453
-0.0116859
-0.0076567
-0.0036649
-0.000337183
0.00215968
0.00386327
0.00483363
0.00506248
0.00446069
0.00294813
0.000585023
-0.00233554
-0.00532183
-0.00785671
-0.00959836
-0.0104674
-0.0106017
-0.010235
-0.00959372
-0.00884679
-0.00809906
-0.0074059
-0.00679237
-0.0062683
-0.00583718
-0.00549994
-0.00525516
-0.00509725
-0.00501435
-0.00498768
-0.00499315
-0.00500494
-0.00500005
-0.00496188
-0.00488209
-0.00476023
-0.00460178
-0.00441563
-0.00421177
-0.00399974
-0.00378767
-0.00358192
-0.00338708
-0.00320604
-0.00304024
-0.00288988
-0.00275414
-0.00263148
-0.00251987
-0.00241704
-0.00232078
-0.00222908
-0.00214032
-0.00205333
-0.00196739
-0.00188219
-0.00179775
-0.00171432
-0.00163228
-0.00155206
-0.00147407
-0.00139866
-0.00132609
-0.00125653
-0.00119006
-0.00112664
-0.00106619
-0.00100857
-0.000953613
-0.000901128
-0.00085093
-0.000802849
-0.000756732
-0.000712452
-0.000669908
-0.000629021
-0.000589732
-0.000552
-0.000515796
-0.000481099
-0.000447894
-0.000416171
-0.000385917
-0.000357124
-0.000329779
-0.000303869
-0.000279381
-0.0002563
-0.000234608
-0.000214288
-0.000195319
-0.000177679
-0.000161339
-0.000146262
-0.000132393
-0.000119655
-0.000107937
-9.70992e-05
-8.69565e-05
-7.73187e-05
-6.79854e-05
-5.8821e-05
-4.97853e-05
-4.08924e-05
-3.25435e-05
-2.44792e-05
-1.83233e-05
-1.11803e-05
-1.00475e-05
1.3441e-07
-1.22334e-05
1.84316e-05
-4.1024e-05
7.34401e-05
-0.000157921
0.054717
0.0533236
0.0486159
0.0417146
0.0320259
0.0192198
0.00317529
-0.0161656
-0.038318
-0.062362
-0.0868684
-0.109874
-0.130339
-0.147236
-0.159792
-0.167534
-0.170153
-0.167635
-0.16037
-0.149234
-0.135526
-0.120765
-0.106424
-0.0936626
-0.0830998
-0.0746499
-0.0674824
-0.0603075
-0.0519866
-0.0420915
-0.0309685
-0.019362
-0.00801577
0.00255354
0.0120321
0.020129
0.0263362
0.0297173
0.0289928
0.0231693
0.0127145
0.000353144
-0.00987435
-0.0151932
-0.015458
-0.0124363
-0.00814048
-0.0039258
-0.000426999
0.00219543
0.00398684
0.005012
0.00526433
0.00465195
0.00309266
0.000650768
-0.00236646
-0.00544446
-0.00804348
-0.00981119
-0.0106711
-0.010774
-0.0103668
-0.00968525
-0.00890329
-0.00812745
-0.00741316
-0.00678483
-0.00625139
-0.0058154
-0.00547691
-0.0052337
-0.00507953
-0.00500183
-0.00498111
-0.00499248
-0.00500938
-0.00500826
-0.00497225
-0.004893
-0.00477034
-0.00461014
-0.00442171
-0.00421544
-0.00400114
-0.00378713
-0.0035799
-0.00338405
-0.00320245
-0.00303649
-0.00288627
-0.0027509
-0.00262875
-0.00251771
-0.00241545
-0.00231969
-0.00222841
-0.00213997
-0.00205318
-0.00196734
-0.00188215
-0.00179766
-0.00171414
-0.00163199
-0.00155165
-0.00147356
-0.00139807
-0.00132545
-0.00125586
-0.00118938
-0.00112597
-0.00106556
-0.00100798
-0.000953068
-0.00090063
-0.000850476
-0.000802434
-0.000756351
-0.000712098
-0.000669575
-0.000628702
-0.000589423
-0.000551697
-0.000515496
-0.0004808
-0.000447596
-0.000415872
-0.000385618
-0.000356824
-0.000329478
-0.000303568
-0.00027908
-0.000255998
-0.000234306
-0.000213985
-0.000195016
-0.000177377
-0.000161039
-0.000145966
-0.000132104
-0.000119378
-0.000107677
-9.68611e-05
-8.67441e-05
-7.7134e-05
-6.78279e-05
-5.86876e-05
-4.96699e-05
-4.07905e-05
-3.24443e-05
-2.43911e-05
-1.82197e-05
-1.11137e-05
-9.90836e-06
1.5451e-07
-1.19277e-05
1.8409e-05
-4.02208e-05
7.35382e-05
-0.000156541
0.055834
0.0544651
0.0498406
0.0430288
0.0334131
0.0206089
0.00444403
-0.0152191
-0.0378937
-0.0626534
-0.0879094
-0.111448
-0.132322
-0.149502
-0.162233
-0.170062
-0.172645
-0.169921
-0.162243
-0.150504
-0.136086
-0.12063
-0.105749
-0.0927113
-0.0821975
-0.0741061
-0.0674846
-0.0608328
-0.0528218
-0.042957
-0.0316438
-0.019727
-0.00803258
0.00287749
0.0126729
0.0210521
0.0274894
0.0309875
0.0301487
0.0238269
0.012447
-0.0010302
-0.0120797
-0.0176175
-0.0175603
-0.0139808
-0.0091304
-0.00445958
-0.000614555
0.00226067
0.00422921
0.00536623
0.00566837
0.00503696
0.00338429
0.000782034
-0.00243349
-0.00570002
-0.00843027
-0.0102499
-0.0110891
-0.0111258
-0.0106348
-0.00987091
-0.0090177
-0.00818495
-0.007428
-0.00676982
-0.00621748
-0.00577162
-0.00543048
-0.00519034
-0.00504361
-0.0049764
-0.0049677
-0.00499105
-0.00501838
-0.00502497
-0.00499337
-0.00491524
-0.00479095
-0.0046272
-0.00443416
-0.00422297
-0.00400406
-0.00378614
-0.00357589
-0.00337797
-0.00319523
-0.00302892
-0.00287898
-0.00274436
-0.00262323
-0.00251333
-0.00241221
-0.00231749
-0.00222707
-0.00213926
-0.00205289
-0.00196726
-0.00188211
-0.00179752
-0.00171382
-0.00163144
-0.00155087
-0.00147257
-0.00139691
-0.00132417
-0.00125452
-0.00118803
-0.00112465
-0.0010643
-0.0010068
-0.000951982
-0.000899639
-0.000849576
-0.000801615
-0.0007556
-0.000711403
-0.000668922
-0.00062808
-0.000588822
-0.000551109
-0.000514915
-0.000480223
-0.00044702
-0.000415296
-0.000385042
-0.000356248
-0.000328903
-0.000302994
-0.000278508
-0.000255428
-0.000233737
-0.000213418
-0.000194452
-0.000176817
-0.000160487
-0.000145428
-0.000131588
-0.000118896
-0.000107243
-9.64876e-05
-8.64441e-05
-7.69147e-05
-6.76891e-05
-5.86201e-05
-4.96543e-05
-4.08069e-05
-3.24578e-05
-2.44014e-05
-1.81643e-05
-1.10809e-05
-9.6926e-06
1.95182e-07
-1.13228e-05
1.84459e-05
-3.86444e-05
7.39805e-05
-0.000153844
0.0574976
0.0561676
0.0516747
0.0450078
0.0355156
0.0227301
0.00639799
-0.013749
-0.0372242
-0.0631064
-0.0895316
-0.11387
-0.135355
-0.152955
-0.165951
-0.173919
-0.176462
-0.173433
-0.165123
-0.152447
-0.13692
-0.12038
-0.104653
-0.0911864
-0.0807589
-0.0732521
-0.0675172
-0.0617103
-0.0541919
-0.0443645
-0.0327401
-0.0203327
-0.00810098
0.0033256
0.0135972
0.0224011
0.0291891
0.032871
0.0318589
0.024751
0.0118892
-0.00338084
-0.0157293
-0.0215622
-0.0209228
-0.0164102
-0.010667
-0.00528313
-0.000907991
0.00235023
0.00458734
0.00589618
0.00627751
0.00561932
0.00382267
0.000969323
-0.0025583
-0.00612053
-0.00905311
-0.0109473
-0.0117456
-0.011672
-0.0110463
-0.0101527
-0.00918915
-0.00826923
-0.00744749
-0.0067443
-0.00616371
-0.00570333
-0.00535869
-0.00512374
-0.00498888
-0.00493817
-0.00494829
-0.00499028
-0.0050337
-0.00505203
-0.00502694
-0.00495017
-0.004823
-0.00465345
-0.00445306
-0.00423418
-0.00400811
-0.00378416
-0.00356932
-0.00336833
-0.00318393
-0.00301718
-0.00286778
-0.00273437
-0.00261488
-0.00250679
-0.00240745
-0.00231432
-0.00222521
-0.00213836
-0.0020526
-0.00196725
-0.00188212
-0.00179735
-0.00171334
-0.0016306
-0.00154966
-0.00147103
-0.00139512
-0.0013222
-0.00125247
-0.00118596
-0.00112264
-0.00106238
-0.00100502
-0.000950345
-0.00089815
-0.000848227
-0.00080039
-0.000754479
-0.000710364
-0.000667945
-0.000627146
-0.000587917
-0.000550221
-0.000514035
-0.000479346
-0.000446143
-0.000414417
-0.000384162
-0.000355367
-0.000328022
-0.000302115
-0.000277629
-0.00025455
-0.00023286
-0.000212542
-0.000193577
-0.000175945
-0.000159622
-0.000144578
-0.000130763
-0.000118111
-0.000106516
-9.58373e-05
-8.58863e-05
-7.64591e-05
-6.73357e-05
-5.83578e-05
-4.94582e-05
-4.06522e-05
-3.22994e-05
-2.42444e-05
-1.7922e-05
-1.08883e-05
-9.24721e-06
3.51266e-07
-1.03388e-05
1.85148e-05
-3.62094e-05
7.45253e-05
-0.00014953
0.0596923
0.0584181
0.0541133
0.0476594
0.0383589
0.0256299
0.00910184
-0.0116891
-0.036264
-0.0637408
-0.0918127
-0.117215
-0.139505
-0.157651
-0.170989
-0.179151
-0.181659
-0.178241
-0.169076
-0.155107
-0.138032
-0.119968
-0.103052
-0.0889809
-0.0786869
-0.0720378
-0.0676087
-0.0630417
-0.0562331
-0.046441
-0.0343542
-0.0212476
-0.00827339
0.00384886
0.014753
0.0241221
0.0313863
0.0353286
0.0340831
0.0258525
0.0108266
-0.0070788
-0.0212994
-0.0274561
-0.0258311
-0.0198758
-0.0128186
-0.00642557
-0.00132128
0.00245565
0.00505624
0.00660122
0.00709616
0.00640548
0.0044091
0.00119993
-0.00277351
-0.00675703
-0.00997126
-0.0119577
-0.0126814
-0.0124382
-0.0116145
-0.0105358
-0.00941774
-0.0083778
-0.00746796
-0.00670425
-0.00608617
-0.00560705
-0.00525861
-0.00503166
-0.00491394
-0.00488672
-0.00492348
-0.00499169
-0.00505755
-0.00509201
-0.0050755
-0.00499999
-0.00486817
-0.00468999
-0.00447895
-0.0042491
-0.00401298
-0.00378067
-0.00355956
-0.00335445
-0.00316793
-0.00300076
-0.00285226
-0.00272069
-0.00260357
-0.00249807
-0.00240124
-0.00231034
-0.00222302
-0.00213747
-0.0020525
-0.00196749
-0.00188233
-0.00179725
-0.00171277
-0.00162948
-0.00154801
-0.00146892
-0.00139264
-0.00131949
-0.00124964
-0.00118313
-0.00111989
-0.00105979
-0.00100262
-0.000948162
-0.000896178
-0.00084645
-0.000798783
-0.000753012
-0.000709007
-0.000666668
-0.000625925
-0.000586729
-0.000549051
-0.000512873
-0.000478185
-0.000444979
-0.000413251
-0.000382993
-0.000354197
-0.000326853
-0.000300946
-0.000276463
-0.000253385
-0.000231697
-0.000211379
-0.000192414
-0.000174784
-0.000158467
-0.000143436
-0.000129648
-0.00011704
-0.000105511
-9.49218e-05
-8.50813e-05
-7.57787e-05
-6.6784e-05
-5.7925e-05
-4.9118e-05
-4.03775e-05
-3.20362e-05
-2.40001e-05
-1.75845e-05
-1.0631e-05
-8.67172e-06
5.27962e-07
-9.06804e-06
1.85008e-05
-3.29654e-05
7.49251e-05
-0.000143286
0.062396
0.0611979
0.0571485
0.0509928
0.0419765
0.0293715
0.0126457
-0.00894488
-0.0349475
-0.0645931
-0.0948753
-0.121593
-0.144875
-0.163683
-0.177449
-0.185885
-0.188392
-0.184502
-0.174233
-0.158551
-0.13941
-0.119304
-0.100792
-0.0859129
-0.0758247
-0.0703989
-0.0678257
-0.0650255
-0.0591951
-0.0494105
-0.0366502
-0.0225823
-0.00863118
0.00437241
0.0160597
0.0261264
0.0339897
0.0382729
0.0367146
0.0269324
0.00886148
-0.0127695
-0.0295523
-0.0359579
-0.0327121
-0.0245952
-0.0156786
-0.00792582
-0.00187537
0.00256034
0.00562158
0.00747187
0.00812176
0.00739632
0.00513765
0.00144819
-0.00313288
-0.00768725
-0.0112715
-0.0133595
-0.0139541
-0.0134596
-0.0123566
-0.0110255
-0.00970233
-0.00850629
-0.00748373
-0.00664374
-0.0059793
-0.00547795
-0.00512634
-0.00491135
-0.00481737
-0.00482211
-0.00489479
-0.00499808
-0.00509358
-0.00514884
-0.00514277
-0.00506777
-0.00492863
-0.00473804
-0.00451224
-0.0042675
-0.00401797
-0.00377471
-0.00354554
-0.0033353
-0.00314632
-0.00297892
-0.00283192
-0.002703
-0.00258921
-0.00248723
-0.00239377
-0.00230581
-0.00222081
-0.0021369
-0.00205288
-0.00196821
-0.00188289
-0.00179731
-0.00171213
-0.00162807
-0.00154586
-0.00146614
-0.00138939
-0.00131594
-0.00124595
-0.00117946
-0.00111636
-0.00105648
-0.000999589
-0.000945421
-0.000893723
-0.000844255
-0.000796811
-0.000751219
-0.000707349
-0.000665105
-0.000624422
-0.000585261
-0.000547597
-0.000511421
-0.000476727
-0.000443513
-0.000411778
-0.000381515
-0.000352717
-0.000325372
-0.000299467
-0.000274986
-0.000251909
-0.000230219
-0.000209898
-0.000190928
-0.000173293
-0.000156973
-0.000141946
-0.000128174
-0.000115598
-0.000104123
-9.3611e-05
-8.38721e-05
-7.4689e-05
-6.58238e-05
-5.70924e-05
-4.83946e-05
-3.97454e-05
-3.14455e-05
-2.34712e-05
-1.69902e-05
-1.01845e-05
-7.88295e-06
7.64965e-07
-7.49595e-06
1.83213e-05
-2.88928e-05
7.47938e-05
-0.000134677
0.0655788
0.0644809
0.0607671
0.0550163
0.0464084
0.0340367
0.0171516
-0.00538135
-0.0331764
-0.0657168
-0.0988947
-0.127151
-0.151582
-0.171128
-0.18538
-0.194179
-0.196761
-0.192368
-0.180752
-0.162894
-0.141082
-0.118319
-0.0977265
-0.0817843
-0.0719856
-0.0682497
-0.0682665
-0.0679019
-0.063381
-0.0535415
-0.0398224
-0.0244693
-0.00927868
0.0047899
0.017391
0.0282634
0.0368359
0.041534
0.0394997
0.027527
0.0051857
-0.0216618
-0.0418512
-0.0481235
-0.0421938
-0.0308594
-0.0193629
-0.00983318
-0.00260101
0.00263681
0.00625828
0.0084893
0.00934447
0.00858619
0.0059926
0.00167009
-0.00372054
-0.00903129
-0.0130864
-0.0152686
-0.0156448
-0.0147831
-0.0132946
-0.0116284
-0.0100415
-0.00864956
-0.00748824
-0.00655603
-0.00583688
-0.00531067
-0.00495759
-0.00475979
-0.00469766
-0.00474459
-0.00486432
-0.00501316
-0.00514659
-0.00522775
-0.00523367
-0.00515755
-0.00500726
-0.0047993
-0.00455353
-0.00428913
-0.00402225
-0.0037651
-0.00352596
-0.00330962
-0.003118
-0.00295079
-0.00280612
-0.00268096
-0.00257166
-0.00247436
-0.0023853
-0.00230109
-0.00221899
-0.00213705
-0.00205409
-0.00196969
-0.00188402
-0.00179767
-0.00171147
-0.00162634
-0.00154314
-0.00146259
-0.00138523
-0.00131142
-0.0012413
-0.00117487
-0.00111199
-0.00105243
-0.000995911
-0.000942135
-0.000890812
-0.000841678
-0.000794512
-0.000749139
-0.000705428
-0.000663289
-0.000622667
-0.000583533
-0.000545875
-0.00050969
-0.000474981
-0.000441753
-0.000410005
-0.000379734
-0.000350934
-0.00032359
-0.000297688
-0.000273209
-0.000250133
-0.00022844
-0.000208112
-0.000189131
-0.000171482
-0.000155148
-0.00014011
-0.000126336
-0.000113772
-0.000102329
-9.18729e-05
-8.22164e-05
-7.31392e-05
-6.43997e-05
-5.58054e-05
-4.72418e-05
-3.87247e-05
-3.05177e-05
-2.26698e-05
-1.6175e-05
-9.60123e-06
-6.95224e-06
9.78288e-07
-5.71293e-06
1.78113e-05
-2.40425e-05
7.36126e-05
-0.0001232
0.0692012
0.068232
0.0649484
0.0597348
0.0516989
0.0397253
0.0227757
-0.000816563
-0.0308152
-0.067205
-0.104131
-0.134085
-0.159795
-0.180148
-0.194963
-0.204256
-0.207025
-0.202099
-0.188848
-0.168248
-0.14303
-0.11686
-0.0935796
-0.0762745
-0.0668972
-0.0654947
-0.0691113
-0.0721074
-0.0693179
-0.0592829
-0.0441806
-0.0271098
-0.0103683
0.00494658
0.0185586
0.0303015
0.0396779
0.0447941
0.0419936
0.026882
-0.00152387
-0.0356089
-0.060219
-0.0655286
-0.0552079
-0.03908
-0.0240206
-0.0122083
-0.00354216
0.00263811
0.00691616
0.00960847
0.0107324
0.00995103
0.00693474
0.00178374
-0.00467719
-0.010975
-0.0156093
-0.0178444
-0.0178627
-0.0164704
-0.0144557
-0.0123519
-0.0104325
-0.00880052
-0.00747296
-0.00643259
-0.00565114
-0.00509864
-0.00474722
-0.0045735
-0.00455336
-0.00465504
-0.00483536
-0.00504233
-0.00522338
-0.00533593
-0.00535478
-0.00527458
-0.00510766
-0.0048757
-0.00460334
-0.00431343
-0.00402455
-0.0037502
-0.00349908
-0.00327576
-0.00308154
-0.00291527
-0.00277413
-0.00265416
-0.00255086
-0.00245964
-0.00237618
-0.00229666
-0.00221811
-0.00213846
-0.00205662
-0.00197232
-0.00188598
-0.00179845
-0.00171083
-0.00162425
-0.00153973
-0.00145812
-0.00138002
-0.00130578
-0.00123554
-0.00116924
-0.00110668
-0.00104757
-0.000991559
-0.000938301
-0.000887462
-0.000838749
-0.000791926
-0.000746812
-0.000703279
-0.00066125
-0.000620683
-0.000581562
-0.000543891
-0.00050768
-0.000472942
-0.000439687
-0.00040792
-0.000377639
-0.000348835
-0.000321493
-0.000295596
-0.000271121
-0.000248045
-0.000226347
-0.000206007
-0.000187005
-0.000169329
-0.000152963
-0.000137891
-0.000124086
-0.000111499
-0.000100048
-8.96062e-05
-7.99913e-05
-7.09863e-05
-6.23514e-05
-5.38939e-05
-4.54897e-05
-3.71554e-05
-2.91141e-05
-2.14858e-05
-1.50646e-05
-8.83713e-06
-5.87009e-06
1.14908e-06
-3.76354e-06
1.68254e-05
-1.84576e-05
7.07482e-05
-0.000108298
0.0732122
0.0724052
0.0696617
0.0651471
0.057895
0.0465589
0.0297208
0.00500628
-0.0276623
-0.0691927
-0.110957
-0.142652
-0.169674
-0.190779
-0.206171
-0.216151
-0.21937
-0.214028
-0.198884
-0.174884
-0.145361
-0.114853
-0.0881487
-0.0690746
-0.0602483
-0.0620101
-0.0705819
-0.0781854
-0.0776518
-0.0671678
-0.0500821
-0.030734
-0.0120847
0.00463481
0.0192913
0.0319368
0.0421238
0.0474766
0.0436526
0.025142
-0.0103486
-0.0539406
-0.0853109
-0.0897638
-0.0729547
-0.0497938
-0.0298265
-0.0151176
-0.00475667
0.00249447
0.00751885
0.0107579
0.0122301
0.0114363
0.00787605
0.00163536
-0.00623794
-0.0138186
-0.0191489
-0.0213196
-0.0207568
-0.0185984
-0.0158703
-0.013202
-0.0108709
-0.00895089
-0.00742871
-0.00626465
-0.00541438
-0.0048356
-0.00449053
-0.00434953
-0.00438374
-0.00455546
-0.00481279
-0.00509296
-0.00533284
-0.00548254
-0.00551438
-0.00542536
-0.00523417
-0.00496949
-0.00466215
-0.0043396
-0.00402324
-0.00372796
-0.00346277
-0.00323177
-0.00303533
-0.00287113
-0.00273515
-0.00262222
-0.00252679
-0.00244336
-0.00236692
-0.00229317
-0.00221881
-0.00214175
-0.00206098
-0.0019765
-0.00188904
-0.00179981
-0.00171023
-0.00162172
-0.0015355
-0.00145256
-0.00137356
-0.00129885
-0.00122853
-0.00116247
-0.00110038
-0.00104188
-0.000986546
-0.000933956
-0.000883726
-0.00083553
-0.000789115
-0.000744297
-0.000700957
-0.000659033
-0.000618502
-0.000579372
-0.000541663
-0.000505403
-0.000470617
-0.000437323
-0.000405529
-0.000375235
-0.000346429
-0.000319094
-0.000293206
-0.000268739
-0.000245665
-0.00022396
-0.000203601
-0.000184569
-0.00016685
-0.000150431
-0.000135297
-0.000121426
-0.000108776
-9.72704e-05
-8.67924e-05
-7.71716e-05
-6.82015e-05
-5.96502e-05
-5.13324e-05
-4.3125e-05
-3.50436e-05
-2.72638e-05
-1.99687e-05
-1.37289e-05
-7.97224e-06
-4.73364e-06
1.17653e-06
-1.76355e-06
1.5167e-05
-1.22424e-05
6.54342e-05
-8.94133e-05
0.0775477
0.0769407
0.074862
0.0712384
0.0650375
0.0546715
0.0382318
0.0124266
-0.0234479
-0.0719256
-0.119905
-0.153156
-0.181508
-0.203335
-0.219337
-0.2302
-0.234139
-0.228509
-0.211175
-0.182993
-0.148079
-0.112099
-0.0810218
-0.0596823
-0.0516215
-0.0577089
-0.0731254
-0.0870807
-0.0894758
-0.078069
-0.0580823
-0.0356759
-0.0146825
0.00356696
0.0192286
0.0327353
0.0433263
0.0482504
0.0432404
0.022378
-0.0183583
-0.0712955
-0.112711
-0.1197
-0.0959895
-0.0635647
-0.0370146
-0.0186494
-0.00632449
0.00209894
0.00793864
0.0118173
0.0137216
0.0129189
0.00868889
0.00108278
-0.0085797
-0.0177883
-0.023938
-0.0259289
-0.0245034
-0.0212633
-0.0175752
-0.0141848
-0.0113503
-0.00909045
-0.00734465
-0.00604205
-0.0051179
-0.00451465
-0.00418251
-0.00408492
-0.00418855
-0.00444895
-0.0048033
-0.00517481
-0.00548658
-0.00567934
-0.00572279
-0.00561779
-0.00539188
-0.00508309
-0.00473025
-0.00436638
-0.00401613
-0.0036958
-0.00341442
-0.0031753
-0.00297745
-0.002817
-0.00268832
-0.0025848
-0.00249951
-0.00242591
-0.00235816
-0.00229136
-0.00222192
-0.0021477
-0.00206786
-0.00198274
-0.00189353
-0.0018019
-0.00170969
-0.00161865
-0.00153028
-0.0014457
-0.00136563
-0.00129042
-0.00122009
-0.00115441
-0.00109299
-0.00103531
-0.000980853
-0.000929112
-0.00087964
-0.000832072
-0.000786138
-0.000741653
-0.000698515
-0.000656682
-0.000616162
-0.000576987
-0.000539206
-0.000502866
-0.000468008
-0.000434658
-0.000402829
-0.00037252
-0.000343716
-0.000316394
-0.000290522
-0.000266069
-0.000243001
-0.000221288
-0.000200906
-0.000181832
-0.000164053
-0.000147555
-0.000132328
-0.000118352
-0.00010559
-9.39761e-05
-8.34056e-05
-7.37258e-05
-6.4749e-05
-5.62628e-05
-4.80944e-05
-4.01292e-05
-3.23834e-05
-2.49788e-05
-1.81491e-05
-1.2219e-05
-7.06476e-06
-3.61304e-06
9.92338e-07
1.92968e-07
1.26702e-05
-5.51911e-06
5.68405e-05
-6.60474e-05
0.0821289
0.0817634
0.0804862
0.0779784
0.0731588
0.0642206
0.048625
0.021942
-0.017752
-0.0757376
-0.131817
-0.166051
-0.195358
-0.217537
-0.234162
-0.246414
-0.25179
-0.246312
-0.226518
-0.193158
-0.151458
-0.108579
-0.0720175
-0.0477095
-0.0405749
-0.052539
-0.0774757
-0.100182
-0.106253
-0.0930701
-0.0688247
-0.042306
-0.0184599
0.00138333
0.0179534
0.0319022
0.0416511
0.0444671
0.0374281
0.014935
-0.0274662
-0.0863574
-0.138409
-0.151348
-0.12285
-0.0802934
-0.0457115
-0.0228992
-0.00835019
0.00130988
0.00800306
0.0125948
0.0149528
0.0141369
0.00928827
0.000472697
-0.0109749
-0.0221617
-0.02966
-0.0316611
-0.0292073
-0.0245465
-0.019602
-0.0153014
-0.011861
-0.00920766
-0.00721002
-0.00575555
-0.0047543
-0.00413028
-0.00381979
-0.00377857
-0.00396942
-0.00434042
-0.00481514
-0.00529896
-0.00569731
-0.00593896
-0.00599077
-0.00586001
-0.00558588
-0.00521874
-0.00480754
-0.00439207
-0.00400062
-0.00365077
-0.00335122
-0.00310393
-0.00290605
-0.00275162
-0.002633
-0.00254174
-0.00246929
-0.00240783
-0.00235058
-0.002292
-0.00222816
-0.00215691
-0.00207773
-0.0019914
-0.00189967
-0.0018048
-0.00170916
-0.00161493
-0.00152389
-0.00143734
-0.00135606
-0.00128034
-0.00121012
-0.00114502
-0.00108449
-0.00102788
-0.000974535
-0.00092384
-0.000875281
-0.000828452
-0.000783064
-0.000738941
-0.000696001
-0.000654236
-0.000613689
-0.000574429
-0.000536535
-0.000500081
-0.000465125
-0.000431704
-0.000399835
-0.000369513
-0.000340717
-0.000313417
-0.000287573
-0.000263143
-0.000240087
-0.00021837
-0.00019796
-0.000178836
-0.000160981
-0.000144383
-0.000129032
-0.000114913
-0.000101996
-9.02261e-05
-7.95151e-05
-6.97349e-05
-6.07236e-05
-5.23017e-05
-4.43109e-05
-3.66473e-05
-2.93344e-05
-2.24275e-05
-1.61894e-05
-1.0687e-05
-6.245e-06
-2.63702e-06
4.94452e-07
1.98243e-06
9.17614e-06
1.53707e-06
4.41383e-05
-3.78717e-05
0.08686
0.0867789
0.0864473
0.0853028
0.0822605
0.0753432
0.0612482
0.0341847
-0.0100694
-0.0813012
-0.14764
-0.181781
-0.211987
-0.23421
-0.251194
-0.265037
-0.272509
-0.267812
-0.245407
-0.205781
-0.155646
-0.104119
-0.0605222
-0.0324089
-0.0266941
-0.0468986
-0.0851341
-0.119978
-0.130508
-0.114014
-0.0833361
-0.0511514
-0.0238032
-0.00230675
0.014979
0.0282353
0.0348742
0.0334998
0.0232242
0.000190383
-0.0409569
-0.102318
-0.162492
-0.181995
-0.151193
-0.099127
-0.0557911
-0.0279311
-0.0109626
-5.49997e-05
0.00746526
0.012692
0.0153372
0.0144482
0.00940922
0.000287147
-0.0120457
-0.025006
-0.034569
-0.0376482
-0.0345915
-0.0284187
-0.0219617
-0.0165485
-0.0123902
-0.00928892
-0.00701311
-0.00539572
-0.00431712
-0.00367894
-0.00340127
-0.00343112
-0.00372853
-0.00423332
-0.004853
-0.0054714
-0.00597213
-0.00626874
-0.00632513
-0.00615766
-0.00581987
-0.00537788
-0.0048935
-0.00441475
-0.00397403
-0.00359004
-0.00327062
-0.00301566
-0.00281976
-0.00267422
-0.00256877
-0.00249302
-0.00243635
-0.00238948
-0.0023446
-0.00229551
-0.00223796
-0.00216984
-0.00209096
-0.00200272
-0.0019076
-0.00180857
-0.00170865
-0.00161051
-0.00151628
-0.00142743
-0.00134478
-0.00126857
-0.00119859
-0.00113427
-0.00107489
-0.0010196
-0.000967594
-0.00091815
-0.000870664
-0.000824686
-0.000779913
-0.00073618
-0.000693436
-0.000651713
-0.000611101
-0.000571712
-0.000533665
-0.000497062
-0.000461983
-0.000428476
-0.000396559
-0.000366226
-0.000337447
-0.000310181
-0.000284376
-0.000259982
-0.000236948
-0.000215231
-0.000194795
-0.000175616
-0.000157674
-0.00014096
-0.000125464
-0.000111174
-9.807e-05
-8.61111e-05
-7.52296e-05
-6.53277e-05
-5.62769e-05
-4.79338e-05
-4.01697e-05
-3.2885e-05
-2.60898e-05
-1.97885e-05
-1.4254e-05
-9.27903e-06
-5.62674e-06
-1.8941e-06
-3.57205e-07
3.52287e-06
4.61682e-06
8.73817e-06
2.66678e-05
-4.84786e-06
0.0916282
0.0918745
0.0926298
0.0931188
0.0923101
0.0882048
0.0765663
0.0501978
0.00053329
-0.0896109
-0.169794
-0.200775
-0.230252
-0.251875
-0.269743
-0.286554
-0.297751
-0.294862
-0.269512
-0.221988
-0.161172
-0.0988027
-0.0463041
-0.0132282
-0.00931586
-0.0411983
-0.0983576
-0.149617
-0.165328
-0.14316
-0.10284
-0.0627979
-0.0311128
-0.00783904
0.00970901
0.0206086
0.021632
0.0152068
0.00186847
-0.0198049
-0.0579568
-0.118522
-0.183152
-0.208826
-0.178094
-0.118513
-0.0667986
-0.0337353
-0.0142896
-0.00218433
0.00598313
0.0113923
0.0137557
0.0124225
0.00736458
-0.00110128
-0.0126493
-0.0260734
-0.0375896
-0.0425558
-0.0398663
-0.0325749
-0.0245675
-0.0178964
-0.0129176
-0.00931843
-0.00674299
-0.00495651
-0.00380508
-0.0031634
-0.00293304
-0.00304924
-0.00346857
-0.00412281
-0.00490358
-0.00567323
-0.00629194
-0.00665377
-0.00671631
-0.00650589
-0.00609166
-0.00555934
-0.004987
-0.00443307
-0.00393498
-0.00351249
-0.00317196
-0.00291044
-0.00271904
-0.00258559
-0.0024967
-0.00243935
-0.00240099
-0.00237075
-0.00233976
-0.00230117
-0.00225043
-0.00218552
-0.00210674
-0.00201614
-0.00191698
-0.00181305
-0.00170812
-0.00160546
-0.00150759
-0.00141617
-0.00133205
-0.00125538
-0.00118577
-0.00112243
-0.00106439
-0.00101063
-0.000960148
-0.000912102
-0.000865801
-0.000820749
-0.000776635
-0.00073331
-0.000690759
-0.000649062
-0.000608359
-0.000568814
-0.000530588
-0.000493815
-0.000458599
-0.000424997
-0.000393033
-0.000362693
-0.000333941
-0.00030672
-0.000280969
-0.000256623
-0.000233621
-0.000211913
-0.000191458
-0.000172225
-0.000154197
-0.000137362
-0.000121714
-0.000107247
-9.39493e-05
-8.1798e-05
-7.07493e-05
-6.07392e-05
-5.16755e-05
-4.34552e-05
-3.59722e-05
-2.91394e-05
-2.29502e-05
-1.73268e-05
-1.25421e-05
-8.13059e-06
-5.27717e-06
-1.42886e-06
-1.56219e-06
4.76247e-06
-9.69087e-07
1.58768e-05
4.12545e-06
3.26176e-05
0.0963034
0.0969123
0.0988831
0.101257
0.103193
0.102803
0.0949703
0.0710188
0.0147053
-0.101297
-0.19881
-0.225298
-0.254101
-0.27329
-0.290665
-0.310687
-0.327378
-0.328194
-0.300102
-0.242892
-0.168651
-0.0926557
-0.028638
0.0101984
0.0117632
-0.0319943
-0.11106
-0.185146
-0.210427
-0.182119
-0.128772
-0.07802
-0.0407937
-0.015502
0.00148886
0.00794652
0.00234896
-0.0083645
-0.0226542
-0.0412765
-0.0752638
-0.132245
-0.197761
-0.228657
-0.20027
-0.136354
-0.0779178
-0.0401705
-0.0184223
-0.00529632
0.0030508
0.0077868
0.00877404
0.00628304
0.00120655
-0.00546155
-0.0145567
-0.0267608
-0.0390413
-0.0458374
-0.0442688
-0.036545
-0.0272288
-0.0192791
-0.0134134
-0.00927708
-0.00638812
-0.00443534
-0.00322636
-0.00260275
-0.00243768
-0.0026482
-0.0031867
-0.0039784
-0.00490821
-0.00582793
-0.00657826
-0.00702818
-0.00711795
-0.00687628
-0.00638666
-0.00575711
-0.0050867
-0.00444814
-0.00388594
-0.00342151
-0.00305936
-0.00279272
-0.00260821
-0.00248944
-0.0024194
-0.00238195
-0.00236293
-0.00235009
-0.00233354
-0.00230598
-0.00226264
-0.00220149
-0.00212308
-0.00203013
-0.00192681
-0.0018178
-0.00170765
-0.00160024
-0.00149852
-0.00140438
-0.00131871
-0.00124154
-0.00117229
-0.00110995
-0.00105331
-0.00100111
-0.000952209
-0.000905607
-0.000860535
-0.000816452
-0.000773033
-0.000730146
-0.000687813
-0.00064616
-0.00060538
-0.000565687
-0.000527284
-0.000490344
-0.00045499
-0.000421295
-0.000389284
-0.00035894
-0.000330217
-0.000303047
-0.000277356
-0.000253066
-0.000230107
-0.000208419
-0.000187956
-0.000168683
-0.000150582
-0.000133642
-0.000117859
-0.000103236
-8.97715e-05
-7.74615e-05
-6.62874e-05
-5.62189e-05
-4.71987e-05
-3.91599e-05
-3.20161e-05
-2.56806e-05
-2.01197e-05
-1.51878e-05
-1.11447e-05
-7.27677e-06
-5.17868e-06
-1.20112e-06
-3.00852e-06
5.74344e-06
-7.36635e-06
2.27688e-05
-2.31897e-05
7.35456e-05
0.10074
0.10174
0.105016
0.109519
0.114704
0.119251
0.117076
0.0995519
0.0346323
-0.125705
-0.241755
-0.250189
-0.276809
-0.295327
-0.314668
-0.340234
-0.36449
-0.37069
-0.339758
-0.270506
-0.179627
-0.087733
-0.0125374
0.0315367
0.0344519
-0.0171711
-0.112409
-0.208941
-0.252478
-0.22509
-0.159908
-0.0969742
-0.0530732
-0.0255762
-0.0101924
-0.00999448
-0.0215519
-0.0347414
-0.0467652
-0.0612578
-0.0901773
-0.141576
-0.204971
-0.239591
-0.215173
-0.150582
-0.0881245
-0.0469378
-0.0233644
-0.00963581
-0.00189828
0.0010722
-0.000186175
-0.00394395
-0.00822214
-0.0120743
-0.0177852
-0.027389
-0.0389566
-0.0470194
-0.0470285
-0.039743
-0.0296555
-0.0205912
-0.0138426
-0.00915043
-0.00594527
-0.00384474
-0.0026123
-0.00204368
-0.00197134
-0.00227544
-0.00289668
-0.00376357
-0.00477666
-0.00580489
-0.00668676
-0.00726205
-0.00743268
-0.00720439
-0.00666882
-0.00595607
-0.00519087
-0.00446595
-0.00383711
-0.00332948
-0.00294598
-0.00267536
-0.00249885
-0.00239505
-0.0023431
-0.00232404
-0.00232235
-0.00232492
-0.0023215
-0.00230448
-0.00226862
-0.00221184
-0.00213499
-0.00204114
-0.00193493
-0.00182179
-0.00170711
-0.00159543
-0.00149016
-0.00139345
-0.00130624
-0.00122851
-0.00115948
-0.00109795
-0.00104247
-0.000991614
-0.000944067
-0.000898728
-0.000854752
-0.000811556
-0.000768803
-0.000726367
-0.000684295
-0.000642749
-0.000601962
-0.00056219
-0.000523675
-0.000486617
-0.000451163
-0.0004174
-0.000385356
-0.000355014
-0.00032632
-0.0002992
-0.000273566
-0.000249332
-0.000226419
-0.000204759
-0.000184301
-0.000165009
-0.000146862
-0.00012985
-0.000113977
-9.92499e-05
-8.56809e-05
-7.32837e-05
-6.20625e-05
-5.20161e-05
-4.3115e-05
-3.53193e-05
-2.85514e-05
-2.27212e-05
-1.7763e-05
-1.34621e-05
-1.00658e-05
-6.65148e-06
-5.20162e-06
-1.06244e-06
-4.49036e-06
6.57194e-06
-1.41952e-05
2.92457e-05
-5.4194e-05
0.000116294
0.104782
0.106176
0.110801
0.117539
0.126484
0.136834
0.143081
0.135038
0.062176
-0.137213
-0.312312
-0.298525
-0.311037
-0.316412
-0.330836
-0.360811
-0.396731
-0.414325
-0.38521
-0.305847
-0.198488
-0.0913425
-0.00952704
0.0335442
0.0344935
-0.0166839
-0.110041
-0.218335
-0.280937
-0.262609
-0.191643
-0.118247
-0.0676469
-0.0381887
-0.0255894
-0.0325221
-0.0487682
-0.0621307
-0.0691986
-0.0784015
-0.101115
-0.145389
-0.204172
-0.240705
-0.221265
-0.159549
-0.0963789
-0.0536106
-0.0290796
-0.0155027
-0.0093329
-0.00906196
-0.0123201
-0.0161238
-0.0181437
-0.0187045
-0.0209656
-0.0274835
-0.0373711
-0.0459164
-0.0476618
-0.0416365
-0.0315228
-0.0217074
-0.0141792
-0.00894562
-0.00543775
-0.00323128
-0.00204505
-0.00160317
-0.00167058
-0.00206202
-0.00271452
-0.00355507
-0.00452896
-0.00556094
-0.00651919
-0.00722722
-0.00753579
-0.00739569
-0.00687822
-0.00612748
-0.00529408
-0.00449645
-0.00380744
-0.00325983
-0.00285659
-0.00258218
-0.00241205
-0.00231959
-0.00228022
-0.00227334
-0.00228235
-0.00229437
-0.00229963
-0.00229042
-0.00226147
-0.0022102
-0.00213675
-0.00204414
-0.00193753
-0.0018228
-0.00170575
-0.00159143
-0.00148372
-0.00138507
-0.00129656
-0.00121816
-0.00114902
-0.00108779
-0.0010329
-0.000982802
-0.000936086
-0.000891576
-0.000848372
-0.000805852
-0.000763661
-0.000721664
-0.00067991
-0.000638574
-0.000597908
-0.000558188
-0.000519679
-0.000482605
-0.000447128
-0.000413347
-0.000381299
-0.000350968
-0.0003223
-0.000295217