/*--------------------------------*- C++ -*----------------------------------*\
  =========                 |
  \\      /  F ield         | OpenFOAM: The Open Source CFD Toolbox
   \\    /   O peration     | Website:  https://openfoam.org
    \\  /    A nd           | Version:  11
     \\/     M anipulation  |
\*---------------------------------------------------------------------------*/
FoamFile
{
    format      ascii;
    class       surfaceScalarField;
    location    "8.507268";
    object      phi;
}
// * * * * * * * * * * * * * * * * * * * * * * * * * * * * * * * * * * * * * //

dimensions      [0 3 -1 0 0 0 0];

internalField   nonuniform List<scalar> 
14638
(
0.0025028
-2.79825e-06
0.00251126
-8.45902e-06
0.00252573
-1.44697e-05
0.00254666
-2.09307e-05
0.00257451
-2.78512e-05
0.00260951
-3.50054e-05
0.00265148
-4.19702e-05
0.00269941
-4.7926e-05
0.0027514
-5.1988e-05
0.0028046
-5.32043e-05
0.00285561
-5.10105e-05
0.00290166
-4.605e-05
0.00294057
-3.89032e-05
0.00297075
-3.01808e-05
0.00299126
-2.05114e-05
0.00300178
-1.05175e-05
0.00300276
-9.83778e-07
0.00299568
7.08403e-06
0.0029831
1.2571e-05
0.00296853
1.45777e-05
0.00295572
1.28096e-05
0.00294786
7.85765e-06
0.0029466
1.26446e-06
0.00295128
-4.68324e-06
0.00295869
-7.40787e-06
0.00296346
-4.77233e-06
0.0029595
3.95672e-06
0.00294207
1.74352e-05
0.00290952
3.25466e-05
0.00286389
4.5626e-05
0.00281021
5.36855e-05
0.00275525
5.49566e-05
0.00270644
4.88086e-05
0.00267105
3.5398e-05
0.00265561
1.5437e-05
0.00266538
-9.76674e-06
0.00270329
-3.79171e-05
0.00276837
-6.50783e-05
0.0028537
-8.53246e-05
0.00294544
-9.17455e-05
0.00302502
-7.95818e-05
0.00307502
-4.99977e-05
0.00308585
-1.08339e-05
0.00305857
2.72835e-05
0.00300247
5.61009e-05
0.00293019
7.22808e-05
0.00285365
7.65364e-05
0.00278214
7.15084e-05
0.00272202
6.01236e-05
0.00267717
4.48521e-05
0.00264953
2.76414e-05
0.00263936
1.01661e-05
0.00264524
-5.87797e-06
0.0026639
-1.86599e-05
0.00269035
-2.64541e-05
0.00271851
-2.81529e-05
0.00274229
-2.3784e-05
0.00275697
-1.46818e-05
0.00276009
-3.11945e-06
0.00275166
8.43165e-06
0.00273365
1.80119e-05
0.0027091
2.45431e-05
0.00268131
2.77974e-05
0.00265317
2.81371e-05
0.00262695
2.62164e-05
0.0026042
2.27551e-05
0.00258579
1.841e-05
0.00257206
1.37258e-05
0.00256293
9.13062e-06
0.00255798
4.95179e-06
0.00255655
1.43271e-06
0.0025578
-1.25699e-06
0.00256083
-3.02196e-06
0.00256467
-3.84806e-06
0.00256848
-3.80716e-06
0.00257153
-3.05169e-06
0.00257333
-1.79502e-06
0.00257361
-2.79683e-07
0.00257235
1.25879e-06
0.00256973
2.62417e-06
0.00256604
3.68036e-06
0.00256169
4.35801e-06
0.00255704
4.64888e-06
0.00255245
4.59232e-06
0.00254819
4.25848e-06
0.00254445
3.7323e-06
0.00254135
3.10019e-06
0.00253891
2.44063e-06
0.0025371
1.81825e-06
0.00253581
1.28103e-06
0.00253495
8.59638e-07
0.00253439
5.6842e-07
0.00253398
4.07325e-07
0.00253361
3.64603e-07
0.00253319
4.19874e-07
0.00253265
5.47435e-07
0.00253193
7.19534e-07
0.00253102
9.09355e-07
0.00252992
1.09346e-06
0.00252867
1.25349e-06
0.00252729
1.37711e-06
0.00252584
1.45808e-06
0.00252434
1.49568e-06
0.00252285
1.49374e-06
0.00252139
1.45927e-06
0.00251999
1.4011e-06
0.00251866
1.32864e-06
0.00251741
1.25079e-06
0.00251623
1.17518e-06
0.00251512
1.10768e-06
0.00251407
1.05223e-06
0.00251306
1.01083e-06
0.00251208
9.83782e-07
0.00251111
9.6998e-07
0.00251014
9.67325e-07
0.00250917
9.73104e-07
0.00250818
9.84363e-07
0.00250718
9.98228e-07
0.00250617
1.01216e-06
0.00250515
1.0241e-06
0.00250412
1.03262e-06
0.00250308
1.03685e-06
0.00250204
1.03652e-06
0.00250101
1.03179e-06
0.00249999
1.02315e-06
0.00249898
1.01128e-06
0.00249798
9.96915e-07
0.002497
9.80695e-07
0.00249604
9.6311e-07
0.00249509
9.44428e-07
0.00249417
9.24675e-07
0.00249326
9.03647e-07
0.00249238
8.80951e-07
0.00249153
8.56057e-07
0.0024907
8.28334e-07
0.0024899
7.97022e-07
0.00248914
7.61102e-07
0.00248842
7.19007e-07
0.00248775
6.68211e-07
0.00248715
6.04767e-07
0.00248662
5.23e-07
0.00248621
4.15605e-07
0.00248593
2.74439e-07
0.00248584
9.2151e-08
0.00248598
-1.35411e-07
0.00248638
-4.06401e-07
0.00248709
-7.10503e-07
0.00248812
-1.02764e-06
0.00248945
-1.32872e-06
0.00249103
-1.57888e-06
0.00249277
-1.74282e-06
0.00249456
-1.79221e-06
0.00249628
-1.71126e-06
0.00249778
-1.50429e-06
0.00249897
-1.19128e-06
0.00249979
-8.17393e-07
0.00250021
-4.21418e-07
0.00250029
-7.64288e-08
0.00250007
2.15072e-07
3.81175e-07
0.00250277
-5.57176e-06
0.00251116
-1.68498e-05
0.00252554
-2.88438e-05
0.00254638
-4.17749e-05
0.00257421
-5.56748e-05
0.00260931
-7.01046e-05
0.00265156
-8.42238e-05
0.00269999
-9.63556e-05
0.00275269
-0.00010469
0.0028067
-0.00010721
0.00285842
-0.000102734
0.00290504
-9.26724e-05
0.00294436
-7.82218e-05
0.0029748
-6.06162e-05
0.00299539
-4.1105e-05
0.00300578
-2.09082e-05
0.00300638
-1.58773e-06
0.00299865
1.48139e-05
0.00298523
2.59944e-05
0.00296974
3.00688e-05
0.00295616
2.63853e-05
0.00294791
1.61115e-05
0.00294679
2.38065e-06
0.00295223
-1.01191e-05
0.00296088
-1.60538e-05
0.00296705
-1.09429e-05
0.0029642
6.80659e-06
0.00294719
3.44408e-05
0.00291425
6.5488e-05
0.00286751
9.23636e-05
0.00281224
0.000108956
0.00275548
0.000111721
0.00270483
9.94521e-05
0.00266773
7.25004e-05
0.00265091
3.22587e-05
0.00265991
-1.87668e-05
0.0026981
-7.61099e-05
0.00276492
-0.000131895
0.00285354
-0.000173948
0.00294956
-0.000187761
0.00303311
-0.000163135
0.00308545
-0.000102334
0.00309639
-2.17767e-05
0.00306737
5.63061e-05
0.00300862
0.000114853
0.00293364
0.000147254
0.00285486
0.000155316
0.0027817
0.000144675
0.00272045
0.000121368
0.00267493
9.03716e-05
0.00264704
5.55345e-05
0.00263706
2.01476e-05
0.00264359
-1.24135e-05
0.00266336
-3.84239e-05
0.00269121
-5.43091e-05
0.0027208
-5.77386e-05
0.00274575
-4.87349e-05
0.00276111
-3.0046e-05
0.00276436
-6.37178e-06
0.0027556
1.71939e-05
0.00273697
3.66432e-05
0.0027117
4.98108e-05
0.00268322
5.62847e-05
0.0026545
5.68494e-05
0.00262786
5.28635e-05
0.00260481
4.57976e-05
0.00258624
3.69798e-05
0.00257247
2.75034e-05
0.00256337
1.8224e-05
0.00255853
9.79443e-06
0.00255726
2.70116e-06
0.00255872
-2.71515e-06
0.00256196
-6.26117e-06
0.00256602
-7.90678e-06
0.00257001
-7.79663e-06
0.0025732
-6.24013e-06
0.00257507
-3.67132e-06
0.00257538
-5.83934e-07
0.00257409
2.5431e-06
0.00257141
5.31167e-06
0.00256764
7.44696e-06
0.00256319
8.81056e-06
0.00255845
9.38834e-06
0.00255378
9.26237e-06
0.00254946
8.57663e-06
0.00254569
7.5042e-06
0.00254257
6.22049e-06
0.00254012
4.88419e-06
0.00253832
3.62568e-06
0.00253706
2.54141e-06
0.00253622
1.69285e-06
0.00253568
1.10839e-06
0.0025353
7.87446e-07
0.00253496
7.05826e-07
0.00253456
8.21989e-07
0.00253402
1.0837e-06
0.00253331
1.43465e-06
0.0025324
1.82053e-06
0.0025313
2.19393e-06
0.00253003
2.51784e-06
0.00252864
2.76742e-06
0.00252717
2.93024e-06
0.00252566
3.00511e-06
0.00252415
2.99994e-06
0.00252268
2.92909e-06
0.00252127
2.81055e-06
0.00251994
2.66343e-06
0.00251868
2.50574e-06
0.00251751
2.35292e-06
0.0025164
2.21681e-06
0.00251534
2.10529e-06
0.00251433
2.02234e-06
0.00251335
1.96849e-06
0.00251238
1.94147e-06
0.00251141
1.93695e-06
0.00251043
1.94942e-06
0.00250944
1.97289e-06
0.00250844
2.00152e-06
0.00250742
2.03019e-06
0.00250639
2.05477e-06
0.00250535
2.07235e-06
0.00250431
2.08125e-06
0.00250326
2.08091e-06
0.00250222
2.0717e-06
0.00250119
2.05465e-06
0.00250017
2.03115e-06
0.00249916
2.00269e-06
0.00249817
1.97059e-06
0.0024972
1.93586e-06
0.00249625
1.89904e-06
0.00249531
1.8602e-06
0.0024944
1.81893e-06
0.0024935
1.77443e-06
0.00249263
1.72564e-06
0.00249179
1.67127e-06
0.00249098
1.60979e-06
0.0024902
1.53916e-06
0.00248946
1.45628e-06
0.00248877
1.3562e-06
0.00248815
1.23119e-06
0.0024876
1.07018e-06
0.00248716
8.58855e-07
0.00248685
5.8123e-07
0.00248672
2.22794e-07
0.00248681
-2.24774e-07
0.00248716
-7.58083e-07
0.00248781
-1.35713e-06
0.00248876
-1.98266e-06
0.00249001
-2.57754e-06
0.00249151
-3.07308e-06
0.00249316
-3.39952e-06
0.00249487
-3.50058e-06
0.0024965
-3.34464e-06
0.00249794
-2.93966e-06
0.00249907
-2.32476e-06
0.00249984
-1.5888e-06
0.00250023
-8.08618e-07
0.00250028
-1.28915e-07
0.00250005
4.45735e-07
7.6827e-07
0.00250272
-8.29522e-06
0.00251097
-2.50967e-05
0.00252515
-4.3019e-05
0.0025458
-6.24333e-05
0.00257356
-8.34275e-05
0.00260883
-0.000105376
0.00265164
-0.000127036
0.00270108
-0.000145798
0.00275524
-0.000158846
0.00281088
-0.00016285
0.00286404
-0.000155899
0.00291182
-0.000140446
0.00295197
-0.000118373
0.00298292
-9.15652e-05
0.00300369
-6.18737e-05
0.00301384
-3.1063e-05
0.00301371
-1.45379e-06
0.00300471
2.38133e-05
0.0029896
4.11003e-05
0.00297231
4.73591e-05
0.00295724
4.14524e-05
0.00294826
2.50989e-05
0.00294751
3.12559e-06
0.00295454
-1.71433e-05
0.00296573
-2.72478e-05
0.00297472
-1.99332e-05
0.00297402
7.50928e-06
0.0029577
5.07578e-05
0.00292373
9.94632e-05
0.00287451
0.000141578
0.00281588
0.000167588
0.00275542
0.000172179
0.00270117
0.000153704
0.00266086
0.000112811
0.00264158
5.154e-05
0.00264941
-2.65979e-05
0.00268852
-0.000115223
0.00275917
-0.000202541
0.00285472
-0.000269498
0.00295953
-0.000292575
0.00305108
-0.000254681
0.00310777
-0.000159023
0.00311821
-3.22205e-05
0.0030848
8.97137e-05
0.00301993
0.000179728
0.00293901
0.00022817
0.00285549
0.000238836
0.00277902
0.000221151
0.00271572
0.00018466
0.00266919
0.000136907
0.00264119
8.35378e-05
0.002632
2.93345e-05
0.00264026
-2.06768e-05
0.00266259
-6.07488e-05
0.0026935
-8.52172e-05
0.00272606
-9.0307e-05
0.00275331
-7.59838e-05
0.00276986
-4.65933e-05
0.00277309
-9.60297e-06
0.00276334
2.69435e-05
0.00274317
5.68121e-05
0.00271623
7.67522e-05
0.00268623
8.6283e-05
0.00265633
8.67529e-05
0.00262885
8.03379e-05
0.00260533
6.93264e-05
0.00258656
5.57467e-05
0.00257282
4.12456e-05
0.00256394
2.71017e-05
0.00255945
1.42871e-05
0.00255862
3.52764e-06
0.00256057
-4.66438e-06
0.0025643
-9.99499e-06
0.00256881
-1.24172e-05
0.00257317
-1.21532e-05
0.00257661
-9.68069e-06
0.00257861
-5.67116e-06
0.00257891
-8.88109e-07
0.00257753
3.93e-06
0.00257467
8.17281e-06
0.00257069
1.14234e-05
0.00256602
1.34771e-05
0.00256109
1.43206e-05
0.00255627
1.40875e-05
0.00255184
1.30039e-05
0.00254801
1.13381e-05
0.00254487
9.35978e-06
0.00254244
7.31117e-06
0.00254067
5.39011e-06
0.00253947
3.74202e-06
0.00253871
2.45868e-06
0.00253823
1.58146e-06
0.00253791
1.1077e-06
0.00253762
9.99016e-07
0.00253725
1.19079e-06
0.00253673
1.60238e-06
0.00253602
2.14728e-06
0.0025351
2.74232e-06
0.00253398
3.31519e-06
0.00253269
3.80973e-06
0.00253127
4.18861e-06
0.00252976
4.43352e-06
0.00252822
4.54339e-06
0.00252669
4.53096e-06
0.0025252
4.41872e-06
0.00252378
4.23455e-06
0.00252243
4.00784e-06
0.00252117
3.76618e-06
0.00251999
3.53307e-06
0.00251888
3.32642e-06
0.00251783
3.15804e-06
0.00251682
3.03377e-06
0.00251583
2.95418e-06
0.00251486
2.91556e-06
0.00251389
2.91118e-06
0.0025129
2.93247e-06
0.00251191
2.97021e-06
0.00251089
3.01551e-06
0.00250986
3.06052e-06
0.00250882
3.09901e-06
0.00250776
3.12661e-06
0.0025067
3.14084e-06
0.00250564
3.14096e-06
0.00250459
3.1276e-06
0.00250354
3.10243e-06
0.0025025
3.06763e-06
0.00250148
3.02552e-06
0.00250047
2.97815e-06
0.00249948
2.92708e-06
0.00249851
2.87316e-06
0.00249755
2.81649e-06
0.00249661
2.75646e-06
0.0024957
2.69187e-06
0.0024948
2.62106e-06
0.00249393
2.54207e-06
0.00249309
2.45253e-06
0.00249228
2.34937e-06
0.00249151
2.228e-06
0.00249078
2.08117e-06
0.00249011
1.89769e-06
0.00248952
1.66146e-06
0.00248903
1.35176e-06
0.00248867
9.45338e-07
0.00248847
4.21003e-07
0.00248848
-2.33538e-07
0.00248873
-1.01361e-06
0.00248926
-1.89035e-06
0.00249009
-2.8067e-06
0.00249119
-3.6793e-06
0.00249253
-4.40758e-06
0.00249401
-4.88913e-06
0.00249556
-5.041e-06
0.00249703
-4.8163e-06
0.00249831
-4.2262e-06
0.00249932
-3.32788e-06
0.00249998
-2.25196e-06
0.00250028
-1.11116e-06
0.00250027
-1.20567e-07
0.0025
7.18487e-07
1.16993e-06
0.00250264
-1.09395e-05
0.00251066
-3.31152e-05
0.00252452
-5.68738e-05
0.00254487
-8.27812e-05
0.00257247
-0.000111034
0.00260797
-0.000140869
0.00265159
-0.000170665
0.00270257
-0.000196773
0.00275898
-0.000215251
0.00281715
-0.000221023
0.00287252
-0.000211268
0.00292203
-0.000189959
0.00296344
-0.000159778
0.00299517
-0.000123296
0.00301622
-8.29277e-05
0.00302604
-4.08868e-05
0.0030248
-2.12599e-07
0.00301385
3.47611e-05
0.00299613
5.8821e-05
0.00297602
6.74701e-05
0.00295859
5.88802e-05
0.00294842
3.52742e-05
0.00294822
3.32471e-06
0.00295772
-2.66473e-05
0.00297295
-4.24723e-05
0.00298643
-3.34153e-05
0.00298915
4.78523e-06
0.00297393
6.59839e-05
0.0029383
0.000135087
0.00288519
0.000194693
0.00282132
0.000231455
0.00275518
0.000238323
0.00269542
0.000213464
0.00265022
0.000158015
0.00262714
7.46183e-05
0.00263306
-3.25181e-05
0.00267339
-0.000155561
0.0027498
-0.000278946
0.00285612
-0.000375819
0.00297484
-0.000411297
0.00307909
-0.000358924
0.00314262
-0.000222557
0.00315208
-4.16774e-05
0.00311147
0.000130324
0.00303673
0.000254465
0.00294641
0.000318486
0.00285555
0.000329702
0.00277407
0.000302631
0.00270777
0.000250953
0.00265983
0.000184854
0.00263178
0.000111583
0.00262392
3.71983e-05
0.00263493
-3.16876e-05
0.00266129
-8.71083e-05
0.00269699
-0.000120923
0.00273424
-0.000127551
0.00276506
-0.000106807
0.00278339
-6.49276e-05
0.00278649
-1.27003e-05
0.00277508
3.8351e-05
0.00275242
7.94817e-05
0.0027228
0.000106369
0.00269042
0.000118659
0.00265868
0.000118499
0.00262995
0.000109062
0.00260572
9.35599e-05
0.0025867
7.47638e-05
0.00257307
5.48793e-05
0.00256457
3.55976e-05
0.00256066
1.8198e-05
0.00256055
3.63888e-06
0.00256328
-7.39574e-06
0.00256779
-1.45075e-05
0.00257301
-1.76316e-05
0.00257793
-1.70748e-05
0.00258175
-1.35013e-05
0.00258393
-7.84678e-06
0.00258421
-1.17377e-06
0.00258265
5.49445e-06
0.0025795
1.13193e-05
0.00257519
1.57371e-05
0.00257018
1.8482e-05
0.00256495
1.95534e-05
0.00255989
1.915e-05
0.0025553
1.75939e-05
0.00255138
1.52597e-05
0.00254822
1.25192e-05
0.00254582
9.7034e-06
0.00254413
7.07988e-06
0.00254303
4.84348e-06
0.00254238
3.11534e-06
0.00254201
1.94791e-06
0.00254178
1.33395e-06
0.00254156
1.21794e-06
0.00254125
1.50922e-06
0.00254075
2.09582e-06
0.00254004
2.85841e-06
0.0025391
3.6829e-06
0.00253795
4.4707e-06
0.00253661
5.14586e-06
0.00253514
5.65855e-06
0.00253359
5.98524e-06
0.00253201
6.12595e-06
0.00253044
6.09948e-06
0.00252892
5.93768e-06
0.00252747
5.67946e-06
0.00252612
5.36543e-06
0.00252485
5.03342e-06
0.00252367
4.71535e-06
0.00252256
4.43537e-06
0.00252151
4.20914e-06
0.0025205
4.04415e-06
0.00251951
3.94064e-06
0.00251853
3.89314e-06
0.00251755
3.89209e-06
0.00251656
3.92556e-06
0.00251555
3.98082e-06
0.00251452
4.04565e-06
0.00251347
4.10941e-06
0.0025124
4.16369e-06
0.00251133
4.20267e-06
0.00251024
4.22316e-06
0.00250916
4.22432e-06
0.00250808
4.20721e-06
0.00250701
4.17426e-06
0.00250595
4.12857e-06
0.0025049
4.0734e-06
0.00250387
4.01162e-06
0.00250285
3.94537e-06
0.00250185
3.87584e-06
0.00250086
3.80319e-06
0.00249989
3.72658e-06
0.00249894
3.64437e-06
0.002498
3.55428e-06
0.00249709
3.4536e-06
0.00249621
3.33909e-06
0.00249535
3.20657e-06
0.00249453
3.05002e-06
0.00249375
2.86005e-06
0.00249302
2.62233e-06
0.00249237
2.31638e-06
0.0024918
1.91582e-06
0.00249136
1.39102e-06
0.00249106
7.14884e-07
0.00249096
-1.28416e-07
0.00249108
-1.13309e-06
0.00249145
-2.26237e-06
0.00249209
-3.4432e-06
0.00249298
-4.56852e-06
0.00249408
-5.50878e-06
0.00249532
-6.13178e-06
0.00249661
-6.33011e-06
0.00249784
-6.04292e-06
0.00249889
-5.28436e-06
0.00249969
-4.12853e-06
0.00250019
-2.74505e-06
0.00250036
-1.27948e-06
0.00250025
-1.50062e-08
0.00249991
1.05829e-06
1.5944e-06
0.00250253
-1.34704e-05
0.00251022
-4.0806e-05
0.00252361
-7.02595e-05
0.00254348
-0.000102654
0.00257082
-0.00013837
0.00260653
-0.000176581
0.0026512
-0.00021534
0.00270425
-0.000249821
0.00276379
-0.000274793
0.0028255
-0.000282731
0.00288388
-0.00026965
0.00293573
-0.00024181
0.00297881
-0.000202852
0.00301159
-0.000156074
0.00303305
-0.000104392
0.00304247
-5.03076e-05
0.00303976
2.49631e-06
0.00302615
4.83734e-05
0.00300478
8.01877e-05
0.00298068
9.15717e-05
0.00295986
7.96988e-05
0.00294792
4.72183e-05
0.0029484
2.84775e-06
0.00296136
-3.96135e-05
0.00298234
-6.34493e-05
0.00300231
-5.33841e-05
0.00301001
-2.92121e-06
0.0029964
7.95978e-05
0.00295846
0.000173032
0.00289985
0.000253299
0.00282869
0.000302613
0.00275471
0.000312305
0.0026874
0.000280778
0.00263545
0.000209965
0.00260698
0.000103079
0.00260989
-3.54219e-05
0.00265142
-0.000197088
0.00273572
-0.000363254
0.00285785
-0.000497944
0.00299717
-0.000550622
0.00311967
-0.000481416
0.0031923
-0.000295196
0.00319947
-4.88452e-05
0.00314798
0.000181815
0.00305902
0.00034343
0.00295553
0.000421974
0.00285464
0.000430588
0.00276651
0.000390763
0.00269632
0.000321145
0.00264658
0.000234594
0.00261852
0.000139638
0.00261247
4.32551e-05
0.00262725
-4.64669e-05
0.0026592
-0.000119064
0.00270162
-0.000163345
0.00274544
-0.000171366
0.00278127
-0.000142636
0.00280205
-8.57064e-05
0.00280485
-1.55006e-05
0.002791
5.21969e-05
0.00276475
0.00010573
0.00273137
0.000139749
0.0026957
0.000154327
0.00266145
0.000152752
0.00263106
0.000139455
0.00260591
0.000118708
0.0025866
9.40765e-05
0.00257315
6.83262e-05
0.00256521
4.35424e-05
0.00256211
2.12927e-05
0.00256299
2.75733e-06
0.0025668
-1.12078e-05
0.00257239
-2.00936e-05
0.00257857
-2.38141e-05
0.00258427
-2.27702e-05
0.0025886
-1.78374e-05
0.00259101
-1.0253e-05
0.00259126
-1.42018e-06
0.00258943
7.31736e-06
0.00258588
1.48706e-05
0.0025811
2.05234e-05
0.00257562
2.39568e-05
0.00256998
2.51994e-05
0.00256459
2.45355e-05
0.00255978
2.24017e-05
0.00255575
1.92947e-05
0.00255257
1.56992e-05
0.00255023
1.20414e-05
0.00254865
8.66172e-06
0.00254769
5.80471e-06
0.00254718
3.61939e-06
0.00254696
2.16654e-06
0.00254687
1.43073e-06
0.00254675
1.33539e-06
0.0025465
1.75959e-06
0.00254604
2.55603e-06
0.00254533
3.56902e-06
0.00254436
4.65072e-06
0.00254316
5.67441e-06
0.00254176
6.54347e-06
0.00254022
7.19572e-06
0.0025386
7.60326e-06
0.00253696
7.76865e-06
0.00253534
7.71847e-06
0.00253378
7.49566e-06
0.00253231
7.15174e-06
0.00253094
6.73975e-06
0.00252966
6.30868e-06
0.00252848
5.8994e-06
0.00252737
5.54244e-06
0.00252632
5.2572e-06
0.00252531
5.05244e-06
0.00252433
4.92767e-06
0.00252335
4.8751e-06
0.00252236
4.88183e-06
0.00252135
4.93209e-06
0.00252032
5.00923e-06
0.00251927
5.09748e-06
0.0025182
5.18319e-06
0.0025171
5.25571e-06
0.002516
5.30782e-06
0.00251489
5.3357e-06
0.00251377
5.33859e-06
0.00251266
5.31817e-06
0.00251156
5.27779e-06
0.00251046
5.22168e-06
0.00250938
5.15416e-06
0.00250832
5.07902e-06
0.00250726
4.99907e-06
0.00250622
4.91586e-06
0.0025052
4.8296e-06
0.00250418
4.73922e-06
0.00250318
4.64261e-06
0.0025022
4.53681e-06
0.00250124
4.41828e-06
0.00250029
4.28282e-06
0.00249937
4.12512e-06
0.00249849
3.9377e-06
0.00249764
3.70925e-06
0.00249684
3.42273e-06
0.0024961
3.05395e-06
0.00249544
2.57187e-06
0.00249489
1.94161e-06
0.00249448
1.13127e-06
0.00249423
1.22196e-07
0.00249417
-1.07874e-06
0.00249434
-2.42785e-06
0.00249473
-3.83827e-06
0.00249535
-5.18241e-06
0.00249614
-6.3056e-06
0.00249706
-7.04981e-06
0.00249802
-7.28641e-06
0.00249892
-6.94272e-06
0.00249967
-6.03601e-06
0.0025002
-4.65599e-06
0.00250046
-3.00776e-06
0.00250045
-1.26576e-06
0.00250021
2.22366e-07
0.00249978
1.48809e-06
2.0484e-06
0.00250238
-1.58475e-05
0.00250962
-4.80503e-05
0.00252235
-8.29918e-05
0.00254153
-0.000121834
0.0025684
-0.000165237
0.00260426
-0.000212437
0.00265016
-0.000261241
0.00270584
-0.0003055
0.00276954
-0.000338495
0.00283594
-0.000349135
0.00289821
-0.000331913
0.002953
-0.000296609
0.00299816
-0.000248009
0.00303227
-0.000190187
0.00305432
-0.000126437
0.00306331
-5.93007e-05
0.00305877
7.03539e-06
0.00304169
6.54538e-05
0.00301547
0.000106409
0.00298597
0.000121071
0.00296048
0.000105186
0.002946
6.17024e-05
0.00294723
1.61682e-06
0.0029648
-5.71796e-05
0.00299363
-9.22841e-05
0.00302259
-8.23406e-05
0.00303724
-1.75769e-05
0.00302589
9.09499e-05
0.0029848
0.000214121
0.00291883
0.000319273
0.00283804
0.000383401
0.00275386
0.000396484
0.0026768
0.00035784
0.00261608
0.000270683
0.00258035
0.000138815
0.00257863
-3.37089e-05
0.00262114
-0.000239594
0.00271651
-0.000458624
0.00286186
-0.000643299
0.0030314
-0.000720156
0.00317941
-0.000629425
0.00326269
-0.000378481
0.00326394
-5.00905e-05
0.00319558
0.000250175
0.00308657
0.00045244
0.00296557
0.000542977
0.00285195
0.000544208
0.00275567
0.000487038
0.00268083
0.000395981
0.00262898
0.000286444
0.00260094
0.000167682
0.00259714
4.70541e-05
0.00261676
-6.60827e-05
0.00265609
-0.000158392
0.0027075
-0.00021476
0.00276014
-0.000224002
0.00280259
-0.000185092
0.00282645
-0.000109561
0.00282861
-1.7659e-05
0.0028113
6.95027e-05
0.00278018
0.000136851
0.00274181
0.000178121
0.00270187
0.000194265
0.00266443
0.000190189
0.00263197
0.000171915
0.00260573
0.00014495
0.00258611
0.000113701
0.00257295
8.14852e-05
0.00256574
5.07499e-05
0.00256371
2.33226e-05
0.00256588
5.9087e-07
0.00257108
-1.64155e-05
0.00257806
-2.70653e-05
0.00258549
-3.12452e-05
0.00259218
-2.94599e-05
0.00259717
-2.28292e-05
0.00259986
-1.29418e-05
0.00260003
-1.59715e-06
0.00259786
9.49309e-06
0.00259377
1.89608e-05
0.00258836
2.59306e-05
0.00258228
3.00425e-05
0.0025761
3.13773e-05
0.0025703
3.03318e-05
0.00256522
2.74823e-05
0.00256105
2.34668e-05
0.00255785
1.88971e-05
0.00255559
1.43023e-05
0.00255415
1.0099e-05
0.00255338
6.58179e-06
0.00255307
3.92518e-06
0.00255304
2.19459e-06
0.00255311
1.36181e-06
0.00255312
1.32399e-06
0.00255296
1.92463e-06
0.00255254
2.97594e-06
0.00255183
4.28132e-06
0.00255082
5.65563e-06
0.00254955
6.94167e-06
0.00254808
8.02113e-06
0.00254645
8.81969e-06
0.00254475
9.30634e-06
0.00254303
9.48806e-06
0.00254135
9.40142e-06
0.00253974
9.10272e-06
0.00253823
8.65806e-06
0.00253684
8.13456e-06
0.00253555
7.59344e-06
0.00253437
7.08515e-06
0.00253326
6.64676e-06
0.00253222
6.30122e-06
0.00253121
6.05813e-06
0.00253023
5.91563e-06
0.00252924
5.86292e-06
0.00252824
5.88312e-06
0.00252721
5.95601e-06
0.00252616
6.06056e-06
0.00252508
6.17705e-06
0.00252398
6.28863e-06
0.00252285
6.38236e-06
0.00252171
6.44964e-06
0.00252056
6.4862e-06
0.0025194
6.49156e-06
0.00251825
6.46823e-06
0.00251711
6.42077e-06
0.00251598
6.3547e-06
0.00251486
6.27561e-06
0.00251375
6.18833e-06
0.00251265
6.0964e-06
0.00251156
6.00179e-06
0.00251049
5.90475e-06
0.00250942
5.80398e-06
0.00250837
5.69683e-06
0.00250733
5.57962e-06
0.0025063
5.4479e-06
0.00250528
5.29641e-06
0.00250429
5.11864e-06
0.00250332
4.90569e-06
0.00250239
4.6445e-06
0.00250149
4.31576e-06
0.00250066
3.89238e-06
0.00249989
3.33977e-06
0.00249921
2.61921e-06
0.00249865
1.69535e-06
0.00249822
5.47673e-07
0.00249796
-8.15628e-07
0.00249787
-2.34498e-06
0.00249798
-3.94206e-06
0.00249826
-5.46257e-06
0.00249868
-6.73146e-06
0.0024992
-7.56996e-06
0.00249975
-7.83257e-06
0.00250025
-7.43788e-06
0.00250062
-6.40672e-06
0.0025008
-4.84318e-06
0.00250078
-2.98336e-06
0.00250054
-1.02582e-06
0.00250014
6.22716e-07
0.0024996
2.02745e-06
2.53621e-06
0.00250218
-1.80226e-05
0.00250883
-5.47052e-05
0.00252068
-9.48414e-05
0.00253888
-0.00014003
0.00256498
-0.000191341
0.0026008
-0.000248256
0.00264803
-0.000308471
0.00270692
-0.000364388
0.002776
-0.000407577
0.00284848
-0.000421616
0.00291557
-0.000399004
0.00297391
-0.000354952
0.00302153
-0.00029562
0.00305724
-0.000225903
0.00308008
-0.000149274
0.0030887
-6.79215e-05
0.00308203
1.37039e-05
0.00306065
8.68407e-05
0.00302819
0.000138865
0.0029916
0.000157656
0.00295986
0.000136933
0.0029418
7.97595e-05
0.00294374
-3.23314e-07
0.00296718
-8.06189e-05
0.00300643
-0.000131538
0.00304753
-0.00012344
0.00307166
-4.17051e-05
0.00306343
9.91792e-05
0.0030182
0.000259348
0.0029426
0.000394874
0.00284947
0.000476535
0.00275246
0.00049349
0.00266328
0.000447021
0.00259157
0.000342399
0.00254623
0.000184148
0.00253799
-2.54625e-05
0.00258148
-0.000283084
0.0026897
-0.000566849
0.00286072
-0.000814316
0.0030663
-0.000925737
0.00325057
-0.000813695
0.00335318
-0.000481097
0.00334846
-4.53643e-05
0.00325642
0.000342213
0.00311949
0.000589366
0.00297545
0.00068702
0.00284621
0.000673448
0.00274056
0.000592692
0.00266059
0.000475946
0.00260643
0.000340602
0.0025784
0.000195715
0.00257727
4.81811e-05
0.00260296
-9.17689e-05
0.00265197
-0.000207403
0.00271544
-0.000278223
0.00277977
-0.00028834
0.00283064
-0.000235956
0.0028579
-0.000136828
0.00285858
-1.83332e-05
0.00283631
9.17689e-05
0.00279867
0.000174494
0.00275387
0.000222924
0.0027086
0.000239536
0.0026673
0.000231485
0.00263241
0.000206803
0.00260495
0.000172415
0.00258504
0.00013361
0.0025723
9.42194e-05
0.00256605
5.70061e-05
0.00256535
2.40162e-05
0.00256912
-3.17449e-06
0.00257606
-2.3357e-05
0.00258475
-3.57592e-05
0.00259374
-4.02269e-05
0.00260165
-3.73793e-05
0.00260745
-2.86212e-05
0.00261046
-1.59584e-05
0.00261053
-1.65924e-06
0.00260788
1.21358e-05
0.0026031
2.37438e-05
0.00259691
3.21239e-05
0.00259006
3.68921e-05
0.00258322
3.82126e-05
0.00257692
3.6629e-05
0.00257152
3.28888e-05
0.00256719
2.77959e-05
0.00256398
2.21053e-05
0.00256182
1.64583e-05
0.00256057
1.13513e-05
0.00256003
7.12807e-06
0.00255997
3.98565e-06
0.00256017
1.98922e-06
0.00256044
1.0919e-06
0.00256061
1.1582e-06
0.00256054
1.98946e-06
0.00256017
3.35115e-06
0.00255945
5.00024e-06
0.00255839
6.71004e-06
0.00255704
8.29011e-06
0.00255547
9.59935e-06
0.00255373
1.05517e-05
0.00255193
1.11145e-05
0.00255011
1.13017e-05
0.00254835
1.11626e-05
0.00254668
1.07697e-05
0.00254514
1.0206e-05
0.00254372
9.5546e-06
0.00254242
8.89034e-06
0.00254123
8.27388e-06
0.00254013
7.74902e-06
0.00253909
7.34193e-06
0.00253808
7.06248e-06
0.00253709
6.90666e-06
0.0025361
6.85985e-06
0.00253508
6.90035e-06
0.00253403
7.00279e-06
0.00253295
7.14118e-06
0.00253184
7.29148e-06
0.00253069
7.4334e-06
0.00252952
7.55164e-06
0.00252834
7.63633e-06
0.00252714
7.68289e-06
0.00252594
7.69138e-06
0.00252474
7.66546e-06
0.00252355
7.61114e-06
0.00252237
7.53553e-06
0.0025212
7.44563e-06
0.00252004
7.34748e-06
0.00251889
7.24545e-06
0.00251775
7.14193e-06
0.00251662
7.03725e-06
0.00251549
6.92985e-06
0.00251437
6.81651e-06
0.00251326
6.69275e-06
0.00251216
6.55314e-06
0.00251106
6.39128e-06
0.00250998
6.1994e-06
0.00250892
5.96718e-06
0.00250788
5.67999e-06
0.00250688
5.31673e-06
0.00250593
4.84824e-06
0.00250503
4.23763e-06
0.0025042
3.44385e-06
0.00250347
2.42972e-06
0.00250284
1.17415e-06
0.00250234
-3.1293e-07
0.00250197
-1.97694e-06
0.00250174
-3.71069e-06
0.00250164
-5.35743e-06
0.00250163
-6.7273e-06
0.00250169
-7.62695e-06
0.00250176
-7.89954e-06
0.00250178
-7.45886e-06
0.0025017
-6.33031e-06
0.00250149
-4.63105e-06
0.00250113
-2.62278e-06
0.00250062
-5.22688e-07
0.00250004
1.21081e-06
0.00249937
2.69011e-06
3.05852e-06
0.00250192
-1.99387e-05
0.00250781
-6.06011e-05
0.0025185
-0.000105526
0.00253534
-0.000156869
0.00256026
-0.000216261
0.00259571
-0.00028371
0.00264425
-0.000357009
0.00270694
-0.000427081
0.00278291
-0.000483547
0.00286316
-0.000501864
0.0029361
-0.000471943
0.00299856
-0.000417419
0.00304898
-0.000346041
0.0030866
-0.000263523
0.00311052
-0.000173194
0.00311891
-7.63105e-05
0.00310982
2.2793e-05
0.00308316
0.000113507
0.0030428
0.000179226
0.00299704
0.000203417
0.002957
0.000176974
0.00293396
0.000102794
0.00293642
-2.78246e-06
0.00296724
-0.000111435
0.00302016
-0.000184463
0.00307754
-0.000180822
0.00311447
-7.86291e-05
0.00311043
0.000103216
0.00305971
0.00031007
0.00297163
0.000482948
0.00286294
0.000585232
0.0027502
0.000606232
0.0026464
0.000550821
0.0025612
0.000427594
0.00250369
0.000241663
0.00248737
-9.15131e-06
0.0025292
-0.000324912
0.00263741
-0.000675051
0.00280951
-0.000986421
0.00303385
-0.00115008
0.00326509
-0.00104493
0.00341927
-0.000635283
0.00343555
-6.16462e-05
0.00332771
0.000450052
0.0031582
0.000758882
0.00298461
0.000860614
0.00283609
0.000821966
0.00271991
0.00070887
0.00263467
0.000561184
0.00257818
0.000397089
0.00255014
0.000223758
0.0025521
4.62215e-05
0.00258532
-0.000124986
0.00264666
-0.000268743
0.00272549
-0.000357055
0.0028047
-0.000367551
0.00286611
-0.000297363
0.00289729
-0.000168014
0.00289547
-1.65093e-05
0.00286635
0.00012089
0.00282013
0.00022071
0.0027672
0.000275857
0.00271544
0.000291299
0.00266962
0.000277307
0.002632
0.000244418
0.00260325
0.000201164
0.00258315
0.000153714
0.00257102
0.000106346
0.00256596
6.20623e-05
0.00256691
2.30735e-05
0.00257261
-8.87955e-06
0.00258165
-3.23972e-05
0.00259243
-4.65362e-05
0.00260328
-5.10792e-05
0.00261267
-4.67706e-05
0.0026194
-3.53528e-05
0.00262278
-1.93329e-05
0.00262266
-1.54028e-06
0.00261942
1.53814e-05
0.00261377
2.93928e-05
0.00260661
3.92829e-05
0.00259883
4.46673e-05
0.00259121
4.58336e-05
0.00258432
4.35156e-05
0.00257854
3.86703e-05
0.00257404
3.22968e-05
0.00257084
2.53118e-05
0.00256881
1.84789e-05
0.00256779
1.23774e-05
0.00256752
7.39863e-06
0.00256775
3.7578e-06
0.00256822
1.51345e-06
0.00256872
5.92739e-07
0.00256906
8.19794e-07
0.0025691
1.94618e-06
0.00256877
3.68336e-06
0.00256803
5.73568e-06
0.00256691
7.83011e-06
0.00256547
9.73997e-06
0.00256376
1.13003e-05
0.0025619
1.24138e-05
0.00255997
1.30485e-05
0.00255804
1.32279e-05
0.00255619
1.30174e-05
0.00255445
1.25088e-05
0.00255285
1.18049e-05
0.0025514
1.10071e-05
0.00255008
1.02051e-05
0.00254889
9.47042e-06
0.00254778
8.85373e-06
0.00254674
8.38403e-06
0.00254573
8.07069e-06
0.00254473
7.90666e-06
0.00254372
7.87252e-06
0.00254268
7.94086e-06
0.0025416
8.08036e-06
0.00254048
8.25948e-06
0.00253932
8.44942e-06
0.00253813
8.62627e-06
0.00253691
8.77232e-06
0.00253567
8.87651e-06
0.00253442
8.9342e-06
0.00253316
8.9463e-06
0.00253191
8.91789e-06
0.00253067
8.85675e-06
0.00252943
8.77182e-06
0.0025282
8.67176e-06
0.00252699
8.56392e-06
0.00252578
8.4536e-06
0.00252458
8.34367e-06
0.00252338
8.23454e-06
0.00252218
8.12435e-06
0.00252099
8.0093e-06
0.0025198
7.88409e-06
0.00251861
7.74221e-06
0.00251743
7.57608e-06
0.00251625
7.37659e-06
0.00251508
7.13207e-06
0.00251394
6.82649e-06
0.00251282
6.4374e-06
0.00251173
5.93445e-06
0.00251069
5.27969e-06
0.0025097
4.4314e-06
0.00250878
3.35235e-06
0.00250793
2.02237e-06
0.00250716
4.53723e-07
0.00250648
-1.29479e-06
0.00250588
-3.10972e-06
0.00250535
-4.82652e-06
0.00250487
-6.2468e-06
0.00250441
-7.1697e-06
0.00250395