/*--------------------------------*- C++ -*----------------------------------*\
  =========                 |
  \\      /  F ield         | OpenFOAM: The Open Source CFD Toolbox
   \\    /   O peration     | Website:  https://openfoam.org
    \\  /    A nd           | Version:  11
     \\/     M anipulation  |
\*---------------------------------------------------------------------------*/
FoamFile
{
    format      ascii;
    class       volVectorField;
    location    "8.507268";
    object      U_0;
}
// * * * * * * * * * * * * * * * * * * * * * * * * * * * * * * * * * * * * * //

dimensions      [0 1 -1 0 0 0 0];

internalField   nonuniform List<vector> 
7132
(
(1.00014 -0.000280514 2.15717e-18)
(1.00217 -0.000847739 7.68554e-18)
(1.00679 -0.00144959 7.9153e-18)
(1.01382 -0.00209551 9.57702e-18)
(1.02353 -0.00278613 1.19448e-17)
(1.03609 -0.0034986 1.22889e-17)
(1.05153 -0.00419042 1.16168e-17)
(1.06965 -0.0047805 1.07327e-17)
(1.08985 -0.00518133 1.00334e-17)
(1.11122 -0.00530029 9.63485e-18)
(1.1324 -0.00508248 9.32451e-18)
(1.15205 -0.00458956 9.291e-18)
(1.16923 -0.00387862 8.4921e-18)
(1.18318 -0.00301061 9.15787e-18)
(1.19338 -0.00204888 -6.61586e-19)
(1.19959 -0.00105677 -1.0501e-17)
(1.20183 -0.000113511 -1.99682e-17)
(1.20046 0.000680703 -1.63905e-17)
(1.1963 0.00121663 -2.10551e-17)
(1.19059 0.00140815 -2.90232e-17)
(1.18488 0.00122996 -2.7497e-17)
(1.18061 0.000744403 -2.78306e-17)
(1.17883 0.00010688 -3.26444e-17)
(1.17976 -0.000455842 -4.37137e-17)
(1.18259 -0.000691618 -5.28129e-17)
(1.18551 -0.000396728 -6.84236e-17)
(1.18603 0.000492162 -8.14152e-17)
(1.18181 0.00183385 -9.02776e-17)
(1.17151 0.00331829 -9.56827e-17)
(1.15527 0.00458696 -9.52205e-17)
(1.13466 0.00534964 -9.34359e-17)
(1.11219 0.00543523 -9.29968e-17)
(1.09081 0.00478356 -9.44636e-17)
(1.07352 0.00341217 -8.69357e-17)
(1.06312 0.00139619 -5.52046e-17)
(1.062 -0.0011261 -7.65549e-17)
(1.07189 -0.00391469 -4.18713e-16)
(1.09329 -0.00656757 -5.70777e-16)
(1.12468 -0.00849392 1.78519e-15)
(1.16179 -0.00902438 6.8169e-15)
(1.19763 -0.00772232 1.03762e-14)
(1.22435 -0.00473954 9.92408e-15)
(1.23616 -0.000865645 6.86288e-15)
(1.23155 0.0028621 3.70103e-15)
(1.21318 0.00565502 1.7054e-15)
(1.18596 0.00720336 7.99021e-16)
(1.1551 0.00758405 4.97264e-16)
(1.12486 0.00705657 4.3369e-16)
(1.09829 0.005907 4.43692e-16)
(1.07733 0.00437805 4.83681e-16)
(1.06306 0.00266321 5.52567e-16)
(1.05589 0.000930915 6.52436e-16)
(1.05556 -0.000647938 7.86566e-16)
(1.06112 -0.00189164 9.55491e-16)
(1.07084 -0.00263294 1.11648e-15)
(1.0824 -0.00276893 1.15682e-15)
(1.09325 -0.00230987 9.53902e-16)
(1.10113 -0.0013932 5.05347e-16)
(1.10458 -0.000245265 -8.2444e-18)
(1.10319 0.000891527 -3.54377e-16)
(1.09746 0.0018275 -4.46424e-16)
(1.08851 0.00246001 -3.25331e-16)
(1.07768 0.00276916 -8.82193e-17)
(1.06624 0.00279202 1.65653e-16)
(1.05523 0.00259358 3.72474e-16)
(1.0454 0.0022449 4.99222e-16)
(1.03719 0.00181072 5.31992e-16)
(1.03085 0.00134472 4.6433e-16)
(1.0264 0.000889149 2.83615e-16)
(1.02372 0.000476277 -1.89884e-17)
(1.02258 0.000130059 -4.45364e-16)
(1.02268 -0.000132962 -9.80767e-16)
(1.02367 -0.000303753 -1.59425e-15)
(1.02515 -0.000381419 -2.24401e-15)
(1.02675 -0.000373595 -2.87529e-15)
(1.02817 -0.000295806 -3.43664e-15)
(1.02915 -0.000169448 -3.88901e-15)
(1.02955 -1.86151e-05 -4.21286e-15)
(1.02932 0.000133474 -4.4152e-15)
(1.02849 0.00026763 -4.51873e-15)
(1.02717 0.000370675 -4.55884e-15)
(1.02551 0.000436037 -4.57219e-15)
(1.02367 0.00046314 -4.59026e-15)
(1.02179 0.00045605 -4.64007e-15)
(1.02001 0.000421818 -4.73647e-15)
(1.0184 0.000368894 -4.88818e-15)
(1.01704 0.000305833 -5.09405e-15)
(1.01595 0.000240371 -5.34305e-15)
(1.01511 0.000178855 -5.61971e-15)
(1.01452 0.000125972 -5.90118e-15)
(1.01411 8.46937e-05 -6.16714e-15)
(1.01384 5.63719e-05 -6.39939e-15)
(1.01366 4.09417e-05 -6.58322e-15)
(1.01352 3.7188e-05 -6.71384e-15)
(1.01337 4.30539e-05 -6.78956e-15)
(1.01318 5.59699e-05 -6.81467e-15)
(1.01292 7.31782e-05 -6.79728e-15)
(1.01259 9.20272e-05 -6.74427e-15)
(1.01219 0.000110211 -6.66492e-15)
(1.01171 0.000125936 -6.56317e-15)
(1.01118 0.000138005 -6.44183e-15)
(1.01061 0.000145826 -6.3023e-15)
(1.01001 0.000149353 -6.14232e-15)
(1.00941 0.000148982 -5.96169e-15)
(1.00882 0.000145421 -5.75591e-15)
(1.00824 0.000139551 -5.52102e-15)
(1.0077 0.000132305 -5.25304e-15)
(1.00718 0.000124561 -4.9458e-15)
(1.0067 0.000117071 -4.59669e-15)
(1.00625 0.000110409 -4.20084e-15)
(1.00582 0.000104955 -3.75696e-15)
(1.0054 0.000100901 -3.26715e-15)
(1.00501 9.8269e-05 -2.73502e-15)
(1.00462 9.69445e-05 -2.17019e-15)
(1.00423 9.67151e-05 -1.58033e-15)
(1.00384 9.73094e-05 -9.74271e-16)
(1.00345 9.84339e-05 -3.58976e-16)
(1.00306 9.98044e-05 2.63904e-16)
(1.00265 0.00010117 8.93726e-16)
(1.00225 0.000102331 1.53651e-15)
(1.00183 0.000103145 2.19937e-15)
(1.00142 0.000103531 2.88677e-15)
(1.001 0.000103463 3.60253e-15)
(1.00059 0.000102959 4.34575e-15)
(1.00018 0.000102068 5.11402e-15)
(0.999772 0.000100859 5.90293e-15)
(0.99937 9.94027e-05 6.70671e-15)
(0.998975 9.77627e-05 7.52429e-15)
(0.998586 9.59863e-05 8.35799e-15)
(0.998205 9.40984e-05 9.21713e-15)
(0.997831 9.20999e-05 1.01161e-14)
(0.997466 8.99693e-05 1.10724e-14)
(0.997109 8.76664e-05 1.21103e-14)
(0.996762 8.51377e-05 1.32577e-14)
(0.996425 8.23202e-05 1.45494e-14)
(0.9961 7.91371e-05 1.60262e-14)
(0.995789 7.54843e-05 1.77338e-14)
(0.995493 7.11998e-05 1.97271e-14)
(0.995215 6.60215e-05 2.20668e-14)
(0.99496 5.95406e-05 2.48212e-14)
(0.994734 5.11727e-05 2.80624e-14)
(0.994546 4.0172e-05 3.18607e-14)
(0.994406 2.57158e-05 3.62836e-14)
(0.994332 7.07588e-06 4.13881e-14)
(0.994341 -1.61353e-05 4.72207e-14)
(0.99445 -4.3682e-05 5.38131e-14)
(0.994677 -7.44621e-05 6.11656e-14)
(0.995031 -0.000106388 6.92172e-14)
(0.995511 -0.000136479 7.77916e-14)
(0.996105 -0.000161202 8.65364e-14)
(0.996783 -0.000177027 9.4858e-14)
(0.997503 -0.000181171 1.01877e-13)
(0.998217 -0.000172152 1.06425e-13)
(0.998866 -0.000150535 1.07101e-13)
(0.999412 -0.000118446 1.02395e-13)
(0.999802 -8.05291e-05 9.08713e-14)
(1.00006 -4.0697e-05 7.16783e-14)
(1.00011 -6.32541e-06 4.32598e-14)
(1.00014 2.25792e-05 1.31071e-14)
(0.999875 3.83687e-05 -5.15443e-14)
(1.00014 -0.000838864 3.21544e-20)
(1.00215 -0.00253645 3.66789e-19)
(1.00674 -0.00433922 7.26874e-19)
(1.01372 -0.00627806 1.10075e-18)
(1.0234 -0.00835592 1.52545e-18)
(1.03597 -0.0105054 1.94265e-18)
(1.05148 -0.0125995 2.29529e-18)
(1.06976 -0.0143912 2.33016e-18)
(1.09021 -0.015614 5.47005e-18)
(1.1119 -0.0159793 6.33663e-18)
(1.13339 -0.0153173 4.41787e-18)
(1.1533 -0.0138249 6.06358e-18)
(1.17068 -0.0116768 2.72564e-18)
(1.18476 -0.00905715 7.54905e-18)
(1.19503 -0.00615594 2.17552e-17)
(1.20124 -0.003161 3.86984e-17)
(1.20338 -0.000309209 4.9326e-17)
(1.2018 0.00209703 5.24225e-17)
(1.19732 0.00372412 4.5372e-17)
(1.19125 0.00430573 2.45023e-17)
(1.18518 0.00375939 -1.42027e-17)
(1.18067 0.0022699 -7.47846e-17)
(1.17884 0.000307026 -1.59085e-16)
(1.17995 -0.00143894 -2.62077e-16)
(1.18321 -0.00219525 -3.52469e-16)
(1.18669 -0.00132983 -3.89746e-16)
(1.18775 0.0013576 -3.78279e-16)
(1.18386 0.00544094 -3.44111e-16)
(1.17355 0.00997097 -3.02875e-16)
(1.15698 0.0138496 -2.62973e-16)
(1.13579 0.0161926 -2.25524e-16)
(1.11262 0.016484 -1.96659e-16)
(1.0905 0.0145465 -1.66027e-16)
(1.07249 0.010435 -4.86628e-17)
(1.06145 0.00436913 3.01769e-16)
(1.05988 -0.00325109 -5.67185e-16)
(1.06964 -0.0117211 -4.71951e-15)
(1.09144 -0.0198339 1.14716e-14)
(1.12389 -0.0257826 1.0181e-13)
(1.16262 -0.0274893 2.3549e-13)
(1.20025 -0.0235776 2.76539e-13)
(1.2283 -0.0144974 1.91652e-13)
(1.24056 -0.0026829 8.46838e-14)
(1.23552 0.00867276 2.52226e-14)
(1.21615 0.0171532 3.80853e-15)
(1.1878 0.0218274 -5.55385e-16)
(1.15593 0.0229533 -9.59681e-17)
(1.12493 0.0213372 7.73119e-16)
(1.09782 0.0178536 1.22773e-15)
(1.07652 0.0132345 1.43545e-15)
(1.06207 0.0080568 1.58241e-15)
(1.05489 0.00281996 1.68773e-15)
(1.05474 -0.00196601 1.77301e-15)
(1.06066 -0.00574965 1.94446e-15)
(1.07091 -0.00801541 2.0541e-15)
(1.08307 -0.00844121 1.40031e-15)
(1.09446 -0.00705263 -6.16965e-16)
(1.10272 -0.00426774 -3.46813e-15)
(1.10632 -0.000778361 -5.71349e-15)
(1.10486 0.00267536 -6.38348e-15)
(1.09892 0.00551545 -5.72137e-15)
(1.08968 0.00743106 -4.40896e-15)
(1.07856 0.00836432 -3.02544e-15)
(1.06687 0.00843029 -1.89081e-15)
(1.05566 0.0078278 -1.11762e-15)
(1.04568 0.00677272 -7.06749e-16)
(1.0374 0.00546078 -6.43458e-16)
(1.03101 0.00405366 -9.21012e-16)
(1.02656 0.00267829 -1.55466e-15)
(1.02391 0.00143159 -2.55369e-15)
(1.02283 0.000385556 -3.88477e-15)
(1.02301 -0.000409805 -5.46486e-15)
(1.02408 -0.000926813 -7.15921e-15)
(1.02565 -0.00116226 -8.80095e-15)
(1.02733 -0.00113884 -1.02139e-14)
(1.02882 -0.00090332 -1.12577e-14)
(1.02984 -0.000520435 -1.18808e-14)
(1.03026 -6.32271e-05 -1.21201e-14)
(1.03002 0.00039787 -1.20825e-14)
(1.02917 0.000804609 -1.1888e-14)
(1.02783 0.00111701 -1.16365e-14)
(1.02613 0.00131515 -1.14057e-14)
(1.02425 0.00139735 -1.12387e-14)
(1.02234 0.00137597 -1.11621e-14)
(1.02052 0.00127243 -1.11843e-14)
(1.0189 0.00111232 -1.12959e-14)
(1.01753 0.00092158 -1.14778e-14)
(1.01643 0.000723595 -1.1689e-14)
(1.0156 0.000537567 -1.18832e-14)
(1.01501 0.00037766 -1.20109e-14)
(1.01461 0.000252857 -1.20296e-14)
(1.01435 0.000167245 -1.19165e-14)
(1.01418 0.00012063 -1.16624e-14)
(1.01405 0.00010934 -1.12804e-14)
(1.01391 0.000127159 -1.07976e-14)
(1.01373 0.000166312 -1.02475e-14)
(1.01347 0.000218455 -9.66527e-15)
(1.01315 0.000275565 -9.07517e-15)
(1.01274 0.000330658 -8.49386e-15)
(1.01226 0.000378302 -7.92487e-15)
(1.01172 0.000414872 -7.36086e-15)
(1.01114 0.000438577 -6.78918e-15)
(1.01054 0.000449278 -6.19049e-15)
(1.00993 0.000448177 -5.54847e-15)
(1.00934 0.000437417 -4.84697e-15)
(1.00876 0.00041967 -4.07208e-15)
(1.00821 0.000397762 -3.21463e-15)
(1.00769 0.000374355 -2.26552e-15)
(1.00721 0.000351717 -1.22287e-15)
(1.00675 0.000331589 -8.77199e-17)
(1.00632 0.000315124 1.13396e-15)
(1.00591 0.000302897 2.42917e-15)
(1.00552 0.000294974 3.78302e-15)
(1.00513 0.00029101 5.17374e-15)
(1.00474 0.000290361 6.58088e-15)
(1.00435 0.000292204 7.98779e-15)
(1.00396 0.000295652 9.38327e-15)
(1.00356 0.000299844 1.07685e-14)
(1.00315 0.000304022 1.21505e-14)
(1.00274 0.00030758 1.35448e-14)
(1.00233 0.00031009 1.4971e-14)
(1.00191 0.000311307 1.64429e-14)
(1.00149 0.000311151 1.79711e-14)
(1.00108 0.00030968 1.95549e-14)
(1.00066 0.000307045 2.11836e-14)
(1.00025 0.000303452 2.28412e-14)
(0.999846 0.000299119 2.45052e-14)
(0.999447 0.00029424 2.61587e-14)
(0.999055 0.000288959 2.77888e-14)
(0.998669 0.000283354 2.93915e-14)
(0.998292 0.000277429 3.0976e-14)
(0.997922 0.000271119 3.25625e-14)
(0.99756 0.000264306 3.4192e-14)
(0.997208 0.000256828 3.59257e-14)
(0.996865 0.000248493 3.78513e-14)
(0.996534 0.000239072 4.00887e-14)
(0.996216 0.000228253 4.2788e-14)
(0.995913 0.000215558 4.61354e-14)
(0.995628 0.000200216 5.03442e-14)
(0.995365 0.000181024 5.56481e-14)
(0.99513 0.000156262 6.22919e-14)
(0.994931 0.000123728 7.05115e-14)
(0.994779 8.0981e-05 8.05211e-14)
(0.994691 2.58458e-05 9.24853e-14)
(0.994683 -4.2864e-05 1.06499e-13)
(0.994772 -0.000124503 1.22575e-13)
(0.994975 -0.000215865 1.40594e-13)
(0.995301 -0.000310815 1.60235e-13)
(0.995751 -0.000400541 1.80869e-13)
(0.996311 -0.000474557 2.0146e-13)
(0.996955 -0.000522335 2.20491e-13)
(0.997641 -0.000535517 2.35949e-13)
(0.998321 -0.000509586 2.4541e-13)
(0.998941 -0.000446085 2.46213e-13)
(0.999462 -0.000351251 2.35731e-13)
(0.999831 -0.000238788 2.11671e-13)
(1.00007 -0.000120397 1.72975e-13)
(1.00011 -1.79724e-05 1.17083e-13)
(1.00013 6.82144e-05 5.87248e-14)
(0.999865 0.000115371 -6.50165e-14)
(1.00014 -0.0013898 3.997e-22)
(1.00211 -0.00420428 4.45205e-21)
(1.00662 -0.00719994 3.49716e-21)
(1.01352 -0.0104342 6.95481e-21)
(1.02314 -0.0139169 -1.39112e-19)
(1.03572 -0.0175399 1.92625e-19)
(1.05136 -0.0210935 -7.34809e-19)
(1.06994 -0.0241535 -1.40039e-18)
(1.0909 -0.0262622 5.06514e-18)
(1.11324 -0.0269003 8.73413e-21)
(1.13538 -0.025767 -2.82062e-17)
(1.15582 -0.0232327 -2.8778e-17)
(1.17359 -0.0195997 5.09253e-17)
(1.18794 -0.0151791 1.85541e-16)
(1.19835 -0.0102845 2.87561e-16)
(1.20455 -0.0052208 2.87093e-16)
(1.2065 -0.000380922 1.79053e-16)
(1.20451 0.00371913 5.99634e-18)
(1.19943 0.00649832 -2.20285e-16)
(1.19263 0.00748423 -4.99404e-16)
(1.18586 0.0065195 -8.28655e-16)
(1.18087 0.00390872 -1.17847e-15)
(1.17896 0.000452538 -1.5044e-15)
(1.18048 -0.00265846 -1.76641e-15)
(1.18462 -0.00407531 -1.7265e-15)
(1.18926 -0.00267619 -1.22715e-15)
(1.19139 0.00191238 -5.66612e-16)
(1.1881 0.00895305 -7.74949e-17)
(1.17769 0.0167801 1.86121e-16)
(1.16034 0.0234783 2.86575e-16)
(1.13792 0.027531 3.19444e-16)
(1.11328 0.0280786 3.62934e-16)
(1.08967 0.0248453 5.21388e-16)
(1.07027 0.0179354 1.31517e-15)
(1.05808 0.00770488 2.10821e-15)
(1.05574 -0.00521378 -4.46578e-15)
(1.0654 -0.0196852 5.71728e-15)
(1.08813 -0.0336924 1.67708e-13)
(1.12282 -0.044111 5.62963e-13)
(1.16494 -0.047246 9.91001e-13)
(1.20622 -0.040583 1.09697e-12)
(1.23689 -0.0248668 7.59128e-13)
(1.24983 -0.0044161 3.14221e-13)
(1.24356 0.0151159 7.25572e-14)
(1.22183 0.0295271 -6.43739e-15)
(1.19093 0.0373021 -1.45171e-14)
(1.1569 0.0390058 -5.73794e-15)
(1.12433 0.0361016 1.03438e-15)
(1.0962 0.0301064 3.74396e-15)
(1.07432 0.0222495 4.44719e-15)
(1.05967 0.0134761 4.47897e-15)
(1.05264 0.00459958 3.77915e-15)
(1.053 -0.00353325 2.02942e-15)
(1.05982 -0.0099808 -1.86364e-16)
(1.07125 -0.0138433 -3.41146e-15)
(1.08468 -0.0145481 -1.14454e-14)
(1.09717 -0.0121301 -2.55699e-14)
(1.10612 -0.00731594 -3.91825e-14)
(1.10992 -0.00131196 -4.42638e-14)
(1.10821 0.00459741 -3.99431e-14)
(1.10171 0.00942108 -3.11327e-14)
(1.09179 0.0126405 -2.22144e-14)
(1.08001 0.0141763 -1.52498e-14)
(1.06778 0.0142413 -1.05782e-14)
(1.05617 0.0131841 -7.82372e-15)
(1.04594 0.0113747 -6.53792e-15)
(1.03753 0.00914377 -6.46035e-15)
(1.03113 0.00676191 -7.51767e-15)
(1.02673 0.00444015 -9.70979e-15)
(1.0242 0.00233931 -1.29811e-14)
(1.02329 0.000579168 -1.71176e-14)
(1.02366 -0.000756594 -2.17322e-14)
(1.02493 -0.00162116 -2.62937e-14)
(1.02669 -0.00200886 -3.01838e-14)
(1.02854 -0.00195808 -3.28534e-14)
(1.03015 -0.00154851 -3.40105e-14)
(1.03125 -0.000890653 -3.37624e-14)
(1.03168 -0.000109195 -3.2585e-14)
(1.03142 0.000675882 -3.10741e-14)
(1.03052 0.00136575 -2.96499e-14)
(1.02909 0.00189309 -2.85091e-14)
(1.0273 0.00222501 -2.76883e-14)
(1.02534 0.00235961 -2.71394e-14)
(1.02336 0.0023188 -2.67881e-14)
(1.02149 0.0021395 -2.65603e-14)
(1.01984 0.00186553 -2.6372e-14)
(1.01845 0.00154091 -2.61267e-14)
(1.01735 0.0012052 -2.57085e-14)
(1.01653 0.000890718 -2.49947e-14)
(1.01596 0.000621209 -2.38822e-14)
(1.01559 0.000411615 -2.23089e-14)
(1.01536 0.000268623 -2.02777e-14)
(1.01522 0.000191702 -1.78575e-14)
(1.01511 0.000174477 -1.51724e-14)
(1.01498 0.0002063 -1.23756e-14)
(1.01481 0.000273926 -9.61901e-15)
(1.01456 0.000363181 -7.02402e-15)
(1.01423 0.000460464 -4.66239e-15)
(1.01381 0.000553976 -2.54988e-15)
(1.01333 0.000634569 -6.51707e-16)
(1.01278 0.000696181 1.1036e-15)
(1.01218 0.00073586 2.80647e-15)
(1.01157 0.000753459 4.55006e-15)
(1.01095 0.000751086 6.41725e-15)
(1.01035 0.000732431 8.47293e-15)
(1.00976 0.000702062 1.07611e-14)
(1.00921 0.000664783 1.33045e-14)
(1.00869 0.000625103 1.61071e-14)
(1.0082 0.000586857 1.91559e-14)
(1.00775 0.000552966 2.24226e-14)
(1.00732 0.000525355 2.58662e-14)
(1.00691 0.000504969 2.94352e-14)
(1.00651 0.000491893 3.30717e-14)
(1.00612 0.000485515 3.67177e-14)
(1.00573 0.000484727 4.03225e-14)
(1.00534 0.000488126 4.38511e-14)
(1.00494 0.000494201 4.72913e-14)
(1.00454 0.000501495 5.06571e-14)
(1.00413 0.000508726 5.39864e-14)
(1.00372 0.000514877 5.73333e-14)
(1.0033 0.000519234 6.07564e-14)
(1.00287 0.000521392 6.43043e-14)
(1.00245 0.000521228 6.80039e-14)
(1.00203 0.000518848 7.1852e-14)
(1.0016 0.000514522 7.58143e-14)
(1.00119 0.000508604 7.98304e-14)
(1.00078 0.000501468 8.38229e-14)
(1.00037 0.000493449 8.771e-14)
(0.99997 0.000484792 9.14173e-14)
(0.999577 0.000475631 9.48897e-14)
(0.999191 0.000465976 9.81038e-14)
(0.998813 0.000455721 1.0108e-13)
(0.998442 0.000444662 1.03901e-13)
(0.99808 0.000432527 1.06726e-13)
(0.997726 0.000418989 1.09815e-13)
(0.997384 0.00040366 1.1354e-13)
(0.997053 0.00038602 1.18389e-13)
(0.996737 0.000365281 1.24965e-13)
(0.996437 0.000340188 1.33965e-13)
(0.996159 0.000308797 1.46144e-13)
(0.995907 0.00026832 1.62279e-13)
(0.995689 0.000215189 1.83111e-13)
(0.995517 0.000145436 2.09287e-13)
(0.995403 5.55008e-05 2.41281e-13)
(0.995365 -5.65883e-05 2.79311e-13)
(0.995419 -0.000189841 3.23274e-13)
(0.99558 -0.000339103 3.72628e-13)
(0.995857 -0.000494427 4.26177e-13)
(0.996251 -0.000641464 4.81852e-13)
(0.996749 -0.000763076 5.36515e-13)
(0.997326 -0.000841995 5.85904e-13)
(0.997945 -0.000864447 6.24766e-13)
(0.998559 -0.000822921 6.47223e-13)
(0.999116 -0.00071981 6.4732e-13)
(0.99958 -0.000565268 6.19696e-13)
(0.999903 -0.000381701 5.60135e-13)
(1.0001 -0.000188317 4.67449e-13)
(1.00012 -2.12475e-05 3.36674e-13)
(1.00011 0.000119513 2.02143e-13)
(0.999838 0.000194344 -7.99892e-14)
(1.00013 -0.00192811 -3.11925e-20)
(1.00205 -0.00583555 -4.95409e-19)
(1.00644 -0.01001 -8.72877e-19)
(1.0132 -0.0145425 -1.66289e-18)
(1.02272 -0.0194585 -1.84483e-18)
(1.03528 -0.024616 -1.88241e-18)
(1.05111 -0.0297264 -1.03672e-17)
(1.07016 -0.0341699 1.45669e-17)
(1.09188 -0.0372771 4.98574e-18)
(1.11524 -0.0382333 -1.14745e-16)
(1.13838 -0.0365787 -4.90404e-17)
(1.1596 -0.0329283 4.45638e-16)
(1.17797 -0.0277305 9.54914e-16)
(1.19273 -0.0214304 8.28714e-16)
(1.20335 -0.014461 -1.337e-16)
(1.20956 -0.00723035 -1.55104e-15)
(1.21122 -0.000281886 -2.81333e-15)
(1.20862 0.00564183 -3.9201e-15)
(1.20259 0.00967524 -4.84277e-15)
(1.19465 0.0110947 -5.52276e-15)
(1.18679 0.00963507 -5.81086e-15)
(1.18105 0.00571438 -5.35414e-15)
(1.17898 0.000490621 -3.69995e-15)
(1.18114 -0.00428733 -4.86886e-16)
(1.18666 -0.00660005 4.53038e-15)
(1.19314 -0.00472706 9.83492e-15)
(1.19699 0.00194087 1.32141e-14)
(1.19465 0.0123118 1.40097e-14)
(1.18407 0.0238698 1.28519e-14)
(1.1655 0.0337464 1.07913e-14)
(1.14113 0.0397246 8.76588e-15)
(1.11423 0.040604 7.39231e-15)
(1.08833 0.036046 7.77135e-15)
(1.06683 0.026231 9.7352e-15)
(1.05286 0.011643 -4.79364e-16)
(1.04932 -0.00690276 1.72329e-14)
(1.05876 -0.027907 3.18237e-13)
(1.08285 -0.0485467 3.93943e-13)
(1.12098 -0.0642141 -2.00932e-12)
(1.16841 -0.0692316 -6.52113e-12)
(1.21548 -0.0595795 -8.22002e-12)
(1.25032 -0.0362728 -5.66024e-12)
(1.26429 -0.00594811 -2.41826e-12)
(1.25595 0.022726 -6.60835e-13)
(1.2304 0.0434769 -8.47008e-14)
(1.19543 0.0542801 1.56523e-14)
(1.15802 0.0562413 1.36418e-14)
(1.12304 0.0516796 9.37233e-15)
(1.0934 0.0428513 9.69211e-15)
(1.0707 0.0314958 1.02545e-14)
(1.05579 0.0188982 9.20978e-15)
(1.04903 0.00615453 3.53551e-15)
(1.05024 -0.00555826 -1.27624e-14)
(1.05846 -0.0148747 -4.72761e-14)
(1.07174 -0.0204496 -1.07541e-13)
(1.08716 -0.0214044 -1.89031e-13)
(1.10137 -0.0177732 -2.59897e-13)
(1.1114 -0.0106406 -2.79631e-13)
(1.11548 -0.00181616 -2.41611e-13)
(1.11332 0.00678927 -1.77425e-13)
(1.1059 0.0137287 -1.18108e-13)
(1.09489 0.0182792 -7.61749e-14)
(1.08207 0.0203701 -5.09222e-14)
(1.06899 0.0203491 -3.71373e-14)
(1.05678 0.0187426 -3.01478e-14)
(1.04618 0.0160914 -2.72849e-14)
(1.0376 0.0128682 -2.7576e-14)
(1.03118 0.00945331 -3.08883e-14)
(1.02689 0.00614056 -3.71571e-14)
(1.02457 0.00315289 -4.58984e-14)
(1.02392 0.000656845 -5.60978e-14)
(1.0246 -0.00123014 -6.63365e-14)
(1.02619 -0.00244153 -7.48364e-14)
(1.02825 -0.0029691 -7.98258e-14)
(1.03036 -0.00286823 -8.01596e-14)
(1.03215 -0.00225455 -7.58992e-14)
(1.03336 -0.0012887 -6.85263e-14)
(1.03382 -0.000151714 -6.0504e-14)
(1.03352 0.000982852 -5.40752e-14)
(1.03251 0.00197308 -5.0107e-14)
(1.03095 0.00272364 -4.83623e-14)
(1.02902 0.00318946 -4.80632e-14)
(1.02693 0.00337035 -4.83521e-14)
(1.02484 0.00329994 -4.85556e-14)
(1.0229 0.00303289 -4.82227e-14)
(1.02119 0.00263295 -4.70472e-14)
(1.01979 0.00216356 -4.4784e-14)
(1.01869 0.00168126 -4.1191e-14)
(1.0179 0.00123188 -3.60633e-14)
(1.01737 0.000848801 -2.92936e-14)
(1.01704 0.000552792 -2.09434e-14)
(1.01685 0.00035283 -1.12889e-14)
(1.01675 0.000247641 -7.94639e-16)
(1.01667 0.000227675 9.94462e-15)
(1.01657 0.000277365 2.03133e-14)
(1.01641 0.000377523 2.97855e-14)
(1.01617 0.000507722 3.80099e-14)
(1.01584 0.000648456 4.48596e-14)
(1.01541 0.000782886 5.04208e-14)
(1.0149 0.000898043 5.49535e-14)
(1.01433 0.00098543 5.8824e-14)
(1.01372 0.00104104 6.24311e-14)
(1.01309 0.00106486 6.61511e-14)
(1.01246 0.00106012 7.02884e-14)
(1.01184 0.00103226 7.50589e-14)
(1.01124 0.000987909 8.05844e-14)
(1.01068 0.000934012 8.68976e-14)
(1.01016 0.00087703 9.39607e-14)
(1.00967 0.000822423 1.01675e-13)
(1.00922 0.000774319 1.09901e-13)
(1.00879 0.000735403 1.18473e-13)
(1.00838 0.000706953 1.27213e-13)
(1.00798 0.000689018 1.35948e-13)
(1.00759 0.000680664 1.44525e-13)
(1.0072 0.000680256 1.52831e-13)
(1.0068 0.000685755 1.60811e-13)
(1.0064 0.000694982 1.68472e-13)
(1.006 0.000705846 1.75896e-13)
(1.00558 0.000716525 1.83218e-13)
(1.00516 0.000725578 1.90608e-13)
(1.00473 0.000732007 1.98242e-13)
(1.00429 0.000735261 2.06254e-13)
(1.00386 0.000735192 2.14719e-13)
(1.00343 0.000731977 2.23621e-13)
(1.003 0.000726023 2.3285e-13)
(1.00257 0.000717856 2.42216e-13)
(1.00215 0.000708024 2.51466e-13)
(1.00173 0.000697013 2.60319e-13)
(1.00132 0.00068518 2.68502e-13)
(1.00092 0.00067272 2.75787e-13)
(1.00052 0.000659649 2.82033e-13)
(1.00013 0.000645816 2.87228e-13)
(0.999745 0.000630931 2.91553e-13)
(0.999368 0.000614601 2.95429e-13)
(0.998999 0.000596356 2.9958e-13)
(0.99864 0.000575636 3.05066e-13)
(0.998291 0.000551706 3.13296e-13)
(0.997955 0.000523481 3.26005e-13)
(0.997635 0.000489252 3.45179e-13)
(0.997334 0.000446395 3.7295e-13)
(0.997057 0.000391166 4.11469e-13)
(0.996813 0.000318762 4.62747e-13)
(0.99661 0.000223834 5.2849e-13)
(0.996461 0.000101564 6.09883e-13)
(0.996381 -5.07504e-05 7.07346e-13)
(0.996385 -0.000231824 8.20319e-13)
(0.996486 -0.000434739 9.46956e-13)
(0.996693 -0.000646064 1.08364e-12)
(0.997006 -0.000846346 1.22447e-12)
(0.997414 -0.00101228 1.36096e-12)
(0.997894 -0.00112032 1.4821e-12)
(0.998412 -0.00115161 1.57497e-12)
(0.998925 -0.00109581 1.62589e-12)
(0.999388 -0.000956104 1.62185e-12)
(0.999765 -0.000746318 1.5521e-12)
(1.00001 -0.000497102 1.40905e-12)
(1.00015 -0.000234634 1.19216e-12)
(1.00012 -8.98172e-06 8.91578e-13)
(1.00009 0.00018154 5.86055e-13)
(0.999793 0.000276927 -5.06547e-14)
(1.00013 -0.00244735 -2.23198e-18)
(1.00196 -0.00741198 -7.21922e-18)
(1.00618 -0.0127426 -6.35377e-18)
(1.01273 -0.0185744 -9.17746e-18)
(1.02208 -0.0249612 -4.93858e-19)
(1.0346 -0.031739 -2.78494e-17)
(1.05065 -0.0385474 1.70445e-17)
(1.0703 -0.044546 7.7336e-17)
(1.09308 -0.0488253 -3.75072e-16)
(1.11788 -0.0501666 -4.71981e-17)
(1.14241 -0.0479086 1.88731e-15)
(1.16469 -0.0430307 2.36971e-15)
(1.18385 -0.0361525 -2.21911e-15)
(1.19914 -0.02786 -1.12883e-14)
(1.21006 -0.0186947 -2.04262e-14)
(1.21628 -0.00914499 -2.53573e-14)
(1.21759 0.000102916 -2.45978e-14)
(1.21416 0.00805295 -2.13666e-14)
(1.20682 0.0134968 -1.62422e-14)
(1.19728 0.0153926 -8.81517e-15)
(1.18786 0.0133205 1.98579e-15)
(1.18101 0.00780196 1.7535e-14)
(1.1787 0.000389337 4.05006e-14)
(1.18171 -0.00652166 7.49229e-14)
(1.1892 -0.0100988 1.12727e-13)
(1.19832 -0.00785158 1.30966e-13)
(1.20466 0.00116679 1.23582e-13)
(1.20371 0.0154397 1.06982e-13)
(1.19291 0.0313841 8.8037e-14)
(1.1726 0.0449649 6.9681e-14)
(1.14551 0.0531688 5.3976e-14)
(1.11547 0.0544724 4.33813e-14)
(1.08645 0.0485393 4.2873e-14)
(1.06206 0.0356713 3.02846e-14)
(1.04562 0.0164681 -2.18592e-14)
(1.04031 -0.00815016 3.6747e-13)
(1.04924 -0.0364346 1.19792e-12)
(1.07501 -0.0647976 -4.07216e-12)
(1.11806 -0.0869185 -2.53781e-11)
(1.17341 -0.0945481 -5.55876e-11)
(1.22899 -0.0815665 -6.83865e-11)
(1.26961 -0.0492245 -5.17015e-11)
(1.28468 -0.00714699 -2.49623e-11)
(1.27309 0.0321209 -7.84362e-12)
(1.24194 0.0597952 -1.01596e-12)
(1.2012 0.0734739 4.68445e-13)
(1.15914 0.0751816 3.55734e-13)
(1.12093 0.0684027 1.23206e-13)
(1.0893 0.0562725 2.87478e-14)
(1.06556 0.0410501 9.73982e-15)
(1.05033 0.0243111 5.41504e-15)
(1.04394 0.00738046 -1.59569e-14)
(1.04629 -0.00824842 -1.16412e-13)
(1.05646 -0.0207368 -4.37677e-13)
(1.07232 -0.0281992 -1.04507e-12)
(1.09054 -0.0293651 -1.66539e-12)
(1.10716 -0.0242484 -1.86926e-12)
(1.11869 -0.0143657 -1.55383e-12)
(1.12312 -0.00226355 -1.01242e-12)
(1.12029 0.0093946 -5.64848e-13)
(1.11154 0.0186409 -2.96073e-13)
(1.09897 0.0245545 -1.66919e-13)
(1.08471 0.0271231 -1.15113e-13)
(1.07047 0.0268849 -9.65369e-14)
(1.05745 0.0245874 -8.95912e-14)
(1.04636 0.0209658 -8.7357e-14)
(1.03756 0.0166439 -8.96469e-14)
(1.03114 0.0121126 -9.77244e-14)
(1.02702 0.00774562 -1.1142e-13)
(1.02498 0.00382514 -1.28229e-13)
(1.02471 0.000562846 -1.44067e-13)
(1.02581 -0.00189001 -1.54343e-13)
(1.02784 -0.00344626 -1.54276e-13)
(1.03032 -0.00409486 -1.40636e-13)
(1.03278 -0.00391005 -1.13579e-13)
(1.03483 -0.00304781 -7.75322e-14)
(1.03618 -0.0017253 -4.05031e-14)
(1.03667 -0.000186895 -1.16452e-14)
(1.0363 0.00133433 3.11245e-15)
(1.03514 0.0026497 4.20538e-15)
(1.0334 0.0036349 -4.03399e-15)
(1.03128 0.00423412 -1.62231e-14)
(1.02901 0.00445165 -2.78268e-14)
(1.02677 0.00433627 -3.58819e-14)
(1.02472 0.00396354 -3.88475e-14)
(1.02295 0.00341981 -3.60646e-14)
(1.02152 0.00278977 -2.72761e-14)
(1.02044 0.00214808 -1.23717e-14)
(1.01968 0.0015546 8.58765e-15)
(1.0192 0.00105242 3.51905e-14)
(1.01893 0.000667874 6.64985e-14)
(1.01881 0.000411765 1.00975e-13)
(1.01876 0.000281465 1.36608e-13)
(1.01873 0.000263563 1.71179e-13)
(1.01867 0.000336857 2.02631e-13)
(1.01853 0.000475522 2.2941e-13)
(1.01829 0.000652271 2.50689e-13)
(1.01795 0.000841208 2.66448e-13)
(1.0175 0.00102014 2.77372e-13)
(1.01698 0.00117212 2.84653e-13)
(1.01638 0.00128626 2.89731e-13)
(1.01574 0.00135763 2.94054e-13)
(1.01508 0.00138663 2.98891e-13)
(1.01443 0.00137787 3.05208e-13)
(1.01379 0.00133883 3.13628e-13)
(1.01318 0.0012785 3.24432e-13)
(1.01262 0.00120617 3.37605e-13)
(1.01209 0.00113039 3.52899e-13)
(1.0116 0.00105834 3.69899e-13)
(1.01114 0.0009954 3.8809e-13)
(1.01072 0.000944975 4.0692e-13)
(1.01031 0.000908628 4.25849e-13)
(1.00991 0.000886292 4.44407e-13)
(1.00952 0.000876619 4.62231e-13)
(1.00912 0.000877361 4.79104e-13)
(1.00872 0.000885758 4.94979e-13)
(1.00832 0.000898897 5.09987e-13)
(1.0079 0.000914008 5.2443e-13)
(1.00747 0.000928692 5.38734e-13)
(1.00704 0.000941078 5.53386e-13)
(1.0066 0.000949889 5.68854e-13)
(1.00616 0.000954443 5.85495e-13)
(1.00571 0.000954596 6.03482e-13)
(1.00526 0.00095063 6.22746e-13)
(1.00482 0.000943121 6.42965e-13)
(1.00438 0.000932797 6.6358e-13)
(1.00395 0.000920404 6.83852e-13)
(1.00352 0.000906598 7.02949e-13)
(1.00309 0.000891859 7.20034e-13)
(1.00268 0.000876448 7.34383e-13)
(1.00226 0.00086039 7.45501e-13)
(1.00185 0.000843486 7.53266e-13)
(1.00145 0.000825353 7.58081e-13)
(1.00106 0.000805467 7.6102e-13)
(1.00067 0.000783199 7.63976e-13)
(1.00029 0.000757803 7.69743e-13)
(0.999913 0.000728323 7.82029e-13)
(0.999552 0.000693377 8.05357e-13)
(0.999204 0.000650845 8.44855e-13)
(0.998874 0.000597507 9.0595e-13)
(0.998566 0.000528789 9.94002e-13)
(0.998286 0.00043884 1.1139e-12)
(0.998044 0.000321134 1.26963e-12)
(0.997851 0.000169776 1.46377e-12)
(0.997717 -1.85546e-05 1.69688e-12)
(0.997657 -0.000242311 1.96685e-12)
(0.997682 -0.000493024 2.2683e-12)
(0.997798 -0.000754191 2.59152e-12)
(0.998007 -0.00100184 2.92146e-12)
(0.998297 -0.00120718 3.23733e-12)
(0.99865 -0.00134106 3.51318e-12)
(0.999035 -0.00138007 3.71971e-12)
(0.999416 -0.00131139 3.82723e-12)
(0.99975 -0.00113893 3.80908e-12)
(1.00001 -0.000879952 3.64474e-12)
(1.00016 -0.000572687 3.3213e-12)
(1.00022 -0.000249604 2.84119e-12)
(1.00013 2.59266e-05 2.1847e-12)
(1.00005 0.000259003 1.52403e-12)
(0.999727 0.000364582 1.4926e-13)
(1.00012 -0.0029402 2.23148e-18)
(1.00184 -0.00891207 8.42351e-18)
(1.00583 -0.0153649 5.85417e-18)
(1.01209 -0.0224927 1.06421e-17)
(1.02117 -0.0303942 2.23247e-17)
(1.03358 -0.0389031 -8.86098e-17)
(1.04987 -0.0475994 4.25405e-16)
(1.07026 -0.0553924 -8.5401e-16)
(1.0944 -0.0610961 -5.51827e-16)
(1.12113 -0.0629143 5.80909e-15)
(1.14748 -0.0599248 3.3268e-15)
(1.1711 -0.0536614 -2.1382e-14)
(1.19126 -0.0449505 -5.52491e-14)
(1.20722 -0.0345311 -7.14647e-14)
(1.21853 -0.0230372 -5.61216e-14)
(1.22481 -0.0109959 -1.61834e-14)
(1.22569 0.000787461 2.96109e-14)
(1.22119 0.0110399 7.52596e-14)
(1.21214 0.0181275 1.21008e-13)
(1.20044 0.0205878 1.70327e-13)
(1.18889 0.0177718 2.27233e-13)
(1.18051 0.010287 2.90658e-13)
(1.17778 0.000125825 3.67559e-13)
(1.1819 -0.00955984 4.74156e-13)
(1.19204 -0.0149302 5.54346e-13)
(1.20481 -0.0124732 5.10388e-13)
(1.21461 -0.000746666 3.65009e-13)
(1.21561 0.0182162 2.60078e-13)
(1.2045 0.0394537 2.10479e-13)
(1.18185 0.0574587 1.83321e-13)
(1.15113 0.0682882 1.5711e-13)
(1.11699 0.0701285 1.36952e-13)
(1.08392 0.0627481 1.25592e-13)
(1.0558 0.0466441 2.26709e-14)
(1.03612 0.0225234 1.49711e-13)
(1.02832 -0.00869549 1.43978e-12)
(1.03622 -0.0452359 -2.92267e-12)
(1.0641 -0.0829462 -2.75671e-11)
(1.1143 -0.113441 -6.11932e-11)
(1.18141 -0.124753 -8.18631e-11)
(1.24932 -0.107702 -9.54982e-11)
(1.29749 -0.0640398 -9.19341e-11)
(1.31288 -0.00756436 -6.1822e-11)
(1.2958 0.0441767 -2.90109e-11)
(1.25651 0.0794263 -7.85242e-12)
(1.20795 0.0956563 2.72242e-13)
(1.15988 0.0963517 1.39138e-12)
(1.11769 0.0865816 6.9521e-13)
(1.08369 0.0705336 1.66717e-13)
(1.0587 0.0509809 -1.16519e-14)
(1.04311 0.0297058 -4.84666e-14)
(1.03717 0.00817868 -1.15793e-13)
(1.04096 -0.0118153 -6.23465e-13)
(1.05365 -0.0278949 -2.42304e-12)
(1.07296 -0.0374969 -5.5935e-12)
(1.09494 -0.0388279 -8.22883e-12)
(1.11479 -0.0318487 -8.15695e-12)
(1.12827 -0.0186136 -5.57296e-12)
(1.13307 -0.00260177 -2.62671e-12)
(1.12924 0.0125903 -8.53245e-13)
(1.11865 0.0243883 -1.64115e-13)
(1.10401 0.0316912 -4.46679e-14)
(1.08786 0.0346187 -1.09444e-13)
(1.07213 0.0339792 -1.83168e-13)
(1.05809 0.0307981 -2.22363e-13)
(1.0464 0.0260358 -2.36153e-13)