/*--------------------------------*- C++ -*----------------------------------*\
  =========                 |
  \\      /  F ield         | OpenFOAM: The Open Source CFD Toolbox
   \\    /   O peration     | Website:  https://openfoam.org
    \\  /    A nd           | Version:  11
     \\/     M anipulation  |
\*---------------------------------------------------------------------------*/
FoamFile
{
    format      ascii;
    class       volVectorField;
    location    "0.253801";
    object      U;
}
// * * * * * * * * * * * * * * * * * * * * * * * * * * * * * * * * * * * * * //

dimensions      [0 1 -1 0 0 0 0];

internalField   nonuniform List<vector> 
7132
(
(1.00011 -0.000207773 2.46719e-18)
(1.0016 -0.000602577 9.8051e-18)
(1.00484 -0.00104083 1.16062e-17)
(1.00997 -0.00158876 1.80594e-17)
(1.01753 -0.00218289 2.68481e-17)
(1.02743 -0.00263814 2.88622e-17)
(1.03867 -0.00280253 2.7412e-17)
(1.04993 -0.00264396 2.47144e-17)
(1.05993 -0.00218959 1.99791e-17)
(1.06761 -0.00148059 1.27136e-17)
(1.0719 -0.000547059 4.84662e-18)
(1.07211 0.000421276 -7.93506e-19)
(1.0685 0.00126213 -2.92445e-18)
(1.06195 0.00183025 -2.88495e-18)
(1.05374 0.00210725 -3.72289e-18)
(1.04499 0.00213395 -4.30694e-18)
(1.03658 0.0019839 -3.84335e-18)
(1.02906 0.00173589 -1.18969e-18)
(1.02265 0.00145227 8.89357e-19)
(1.01741 0.00117522 3.07318e-18)
(1.01323 0.000927894 4.14172e-18)
(1.00998 0.000719412 3.53599e-18)
(1.00747 0.000550326 2.57575e-18)
(1.00557 0.000416801 2.41289e-18)
(1.00414 0.00031333 2.03431e-18)
(1.00307 0.000234234 7.0326e-19)
(1.00227 0.000174373 -9.12922e-21)
(1.00168 0.000129401 -4.77155e-19)
(1.00124 9.58001e-05 -1.2981e-19)
(1.00091 7.07973e-05 6.88725e-19)
(1.00067 5.22493e-05 1.15936e-18)
(1.00049 3.85215e-05 6.10317e-19)
(1.00036 2.83787e-05 6.79711e-20)
(1.00027 2.08946e-05 2.10921e-19)
(1.0002 1.53777e-05 7.26681e-20)
(1.00015 1.1314e-05 3.21466e-19)
(1.00011 8.32237e-06 -8.7473e-20)
(1.00008 6.12094e-06 -3.59117e-19)
(1.00006 4.50152e-06 3.4518e-20)
(1.00004 3.31051e-06 4.3977e-20)
(1.00003 2.43475e-06 3.33822e-19)
(1.00002 1.79086e-06 -8.14486e-20)
(1.00002 1.3175e-06 -3.53959e-19)
(1.00001 9.69533e-07 4.29872e-20)
(1.00001 7.13746e-07 4.84068e-20)
(1.00001 5.2572e-07 3.28768e-19)
(1.00001 3.87507e-07 -8.57082e-20)
(1 2.85902e-07 -3.7631e-19)
(1 2.11209e-07 1.08148e-19)
(1 1.5629e-07 -2.35926e-19)
(1 1.1591e-07 -1.40524e-18)
(1 8.6209e-08 -1.63081e-18)
(1 6.43632e-08 -9.11591e-19)
(1 4.82829e-08 -5.22048e-19)
(1 3.64479e-08 -2.75822e-20)
(1 2.77247e-08 -2.86172e-19)
(1 2.12966e-08 -4.36867e-19)
(1 1.6547e-08 7.71871e-20)
(1 1.30395e-08 1.74731e-19)
(1 1.04366e-08 3.69491e-19)
(1 8.50731e-09 -1.53978e-19)
(1 7.06469e-09 -3.54376e-19)
(1 5.9883e-09 -3.00255e-19)
(1 5.17287e-09 -1.01367e-18)
(1 4.55775e-09 -4.59075e-19)
(1 4.08185e-09 -1.0307e-19)
(1 3.71642e-09 1.09878e-19)
(1 3.42445e-09 3.9955e-19)
(1 3.19447e-09 -3.42802e-19)
(1 3.00289e-09 -4.56384e-20)
(1 2.84722e-09 2.49611e-20)
(1 2.71121e-09 8.01479e-20)
(1 2.59695e-09 3.41352e-19)
(1 2.49259e-09 -3.77569e-19)
(1 2.40246e-09 -6.04542e-20)
(1 2.3173e-09 1.64346e-20)
(1 2.24228e-09 7.41674e-20)
(1 2.16985e-09 3.41432e-19)
(1 2.1052e-09 -3.70041e-19)
(1 2.04192e-09 -4.9958e-20)
(1 1.98467e-09 2.36685e-20)
(1 1.92782e-09 7.524e-20)
(1 1.87535e-09 3.3773e-19)
(1 1.82256e-09 -3.74869e-19)
(1 1.77292e-09 -5.34343e-20)
(1 1.72288e-09 2.06585e-20)
(1 1.6754e-09 7.10377e-20)
(1 1.62791e-09 3.33769e-19)
(1 1.58265e-09 -3.75601e-19)
(1 1.53787e-09 -5.16933e-20)
(1 1.49501e-09 4.18462e-20)
(1 1.45308e-09 -1.45787e-20)
(1 1.41269e-09 8.33366e-19)
(1 1.37355e-09 4.34365e-19)
(1 1.33542e-09 2.37835e-19)
(1 1.29876e-09 7.75e-20)
(1 1.26254e-09 -2.60548e-19)
(1 1.22802e-09 3.75459e-19)
(1 1.19347e-09 -3.50959e-20)
(1 1.16092e-09 -7.11245e-20)
(1 1.1279e-09 -4.16189e-20)
(1 1.09721e-09 -2.66167e-19)
(1 1.06565e-09 4.00054e-19)
(1 1.03677e-09 -1.95111e-20)
(1 1.00664e-09 -6.79931e-20)
(1 9.79474e-10 -4.3306e-20)
(1 9.50636e-10 -2.67595e-19)
(1 9.24963e-10 3.99541e-19)
(1 8.97178e-10 -2.01356e-20)
(1 8.72788e-10 -6.89504e-20)
(1 8.45924e-10 -4.38373e-20)
(1 8.22745e-10 -2.67279e-19)
(1 7.968e-10 3.99995e-19)
(1 7.74833e-10 -2.07003e-20)
(1 7.49799e-10 -7.08929e-20)
(1 7.28989e-10 -4.66845e-20)
(1 7.04798e-10 -2.68889e-19)
(1 6.85054e-10 3.94327e-19)
(1 6.61645e-10 2.82487e-21)
(1 6.42914e-10 -1.71576e-19)
(1 6.20255e-10 4.21341e-19)
(1 6.02492e-10 4.74661e-19)
(1 5.80551e-10 5.59416e-19)
(1 5.63711e-10 -6.38973e-20)
(1 5.42464e-10 -4.41456e-19)
(1 5.26518e-10 3.22734e-20)
(1 5.05951e-10 1.27645e-19)
(1 4.90866e-10 3.62914e-19)
(1 4.70957e-10 -1.19741e-19)
(1 4.56695e-10 -4.30216e-19)
(1 4.37412e-10 5.16054e-20)
(1 4.23929e-10 1.35815e-19)
(1 4.05242e-10 3.63189e-19)
(1 3.92489e-10 -1.21299e-19)
(1 3.74356e-10 -4.31184e-19)
(1 3.62273e-10 5.12416e-20)
(1 3.44643e-10 1.35673e-19)
(1 3.33161e-10 3.6332e-19)
(1 3.15968e-10 -1.2063e-19)
(1 3.05013e-10 -4.30057e-19)
(1 2.8821e-10 5.23265e-20)
(1 2.77737e-10 1.36284e-19)
(1 2.61314e-10 3.63463e-19)
(1 2.51328e-10 -1.20647e-19)
(1 2.35308e-10 -4.2999e-19)
(1 2.25809e-10 5.2431e-20)
(1 2.10187e-10 1.36203e-19)
(1 2.01147e-10 3.63112e-19)
(1 1.85911e-10 -1.211e-19)
(1 1.77307e-10 -4.30311e-19)
(1 1.62461e-10 5.23104e-20)
(1 1.54295e-10 1.3617e-19)
(1 1.39975e-10 3.63032e-19)
(1 1.32454e-10 -1.21262e-19)
(1 1.19197e-10 -4.3032e-19)
(1 1.12424e-10 5.14693e-20)
(1 1.00916e-10 1.40659e-19)
(1 9.26421e-11 3.38444e-19)
(1 8.79732e-11 4.29218e-21)
(1 6.37786e-11 -1.04914e-18)
(1.00011 -0.000622308 2.36826e-20)
(1.00159 -0.00180568 4.08297e-19)
(1.00483 -0.00311916 1.19337e-18)
(1.00994 -0.00476382 2.60986e-18)
(1.01751 -0.00655384 4.13478e-18)
(1.02745 -0.00793692 5.0467e-18)
(1.0388 -0.00845402 5.12228e-18)
(1.05026 -0.00799973 5.62692e-18)
(1.06052 -0.00664613 4.24432e-18)
(1.06848 -0.00450719 2.28284e-18)
(1.07293 -0.0016675 4.79049e-20)
(1.07313 0.00127999 -2.53362e-18)
(1.06934 0.00383372 -5.9153e-18)
(1.06252 0.00554514 -6.50007e-18)
(1.05404 0.00636921 -5.50079e-18)
(1.04507 0.0064383 -4.37125e-18)
(1.03652 0.00597848 -3.15922e-18)
(1.0289 0.005227 -1.45533e-18)
(1.02247 0.00436995 2.32052e-19)
(1.01722 0.00353356 1.15281e-18)
(1.01307 0.00278758 1.20099e-18)
(1.00983 0.00215947 8.60885e-19)
(1.00736 0.00165073 5.70672e-19)
(1.00548 0.0012495 4.27984e-19)
(1.00407 0.000938909 3.28011e-19)
(1.00302 0.000701674 1.84954e-19)
(1.00223 0.000522233 4.60279e-20)
(1.00165 0.000387481 -2.84393e-20)
(1.00121 0.000286829 -1.84757e-19)
(1.00089 0.00021195 4.9141e-19)
(1.00066 0.00015641 3.94956e-19)
(1.00048 0.000115308 -9.16042e-19)
(1.00036 8.49428e-05 -6.44909e-19)
(1.00026 6.25383e-05 -7.07187e-19)
(1.00019 4.60236e-05 -1.8044e-19)
(1.00014 3.38593e-05 9.95322e-19)
(1.0001 2.49045e-05 1.75503e-19)
(1.00008 1.8315e-05 -6.64501e-20)
(1.00006 1.34677e-05 -3.98219e-19)
(1.00004 9.90274e-06 -1.51613e-19)
(1.00003 7.28139e-06 8.1113e-19)
(1.00002 5.35413e-06 -4.96416e-20)
(1.00002 3.93732e-06 -1.99774e-19)
(1.00001 2.89582e-06 -4.25221e-19)
(1.00001 2.13025e-06 -1.26383e-19)
(1.00001 1.56752e-06 8.34026e-19)
(1 1.15389e-06 -3.42509e-20)
(1 8.49841e-07 -2.39105e-19)
(1 6.26349e-07 -2.41664e-19)
(1 4.62053e-07 -1.0232e-18)
(1 3.41273e-07 -5.26468e-19)
(1 2.52465e-07 -2.63812e-19)
(1 1.87165e-07 -8.5345e-20)
(1 1.39131e-07 1.79788e-19)
(1 1.03798e-07 -4.54749e-19)
(1 7.77882e-08 -9.65016e-21)
(1 5.86423e-08 6.59541e-20)
(1 4.453e-08 7.69554e-20)
(1 3.41288e-08 2.58873e-19)
(1 2.64439e-08 -4.08991e-19)
(1 2.07668e-08 2.096e-20)
(1 1.65545e-08 4.60233e-20)
(1 1.34304e-08 2.08571e-19)
(1 1.10959e-08 -3.86921e-19)
(1 9.35322e-09 -2.27831e-19)
(1 8.03562e-09 1.18098e-18)
(1 7.04174e-09 2.42273e-19)
(1 6.27621e-09 2.13952e-19)
(1 5.68929e-09 -5.21513e-19)
(1 5.22457e-09 -5.08953e-19)
(1 4.85986e-09 8.70446e-19)
(1 4.56016e-09 3.61415e-20)
(1 4.31773e-09 1.41176e-19)
(1 4.10949e-09 -5.19856e-19)
(1 3.93504e-09 -4.95046e-19)
(1 3.77816e-09 8.73316e-19)
(1 3.642e-09 3.12609e-20)
(1 3.5145e-09 1.36046e-19)
(1 3.40032e-09 -5.22378e-19)
(1 3.2903e-09 -4.96266e-19)
(1 3.18962e-09 8.70686e-19)
(1 3.09133e-09 2.60098e-20)
(1 3.00044e-09 1.2978e-19)
(1 2.91152e-09 -5.27e-19)
(1 2.82871e-09 -4.98683e-19)
(1 2.74769e-09 8.68319e-19)
(1 2.67149e-09 2.16693e-20)
(1 2.59687e-09 1.26287e-19)
(1 2.52585e-09 -5.3444e-19)
(1 2.45635e-09 -4.7524e-19)
(1 2.38938e-09 7.82449e-19)
(1 2.32403e-09 3.67206e-19)
(1 2.26035e-09 9.80121e-19)
(1 2.19858e-09 1.02472e-18)
(1 2.13783e-09 7.52674e-19)
(1 2.07947e-09 5.62748e-19)
(1 2.02157e-09 -3.88921e-19)
(1 1.96651e-09 -3.80563e-20)
(1 1.91131e-09 4.36775e-20)
(1 1.85935e-09 7.85501e-20)
(1 1.80665e-09 2.63405e-19)
(1 1.75754e-09 -4.36299e-19)
(1 1.70708e-09 3.23364e-21)
(1 1.66055e-09 8.00761e-20)
(1 1.61207e-09 9.1064e-20)
(1 1.5679e-09 2.63457e-19)
(1 1.5213e-09 -4.38291e-19)
(1 1.47945e-09 2.06161e-21)
(1 1.43475e-09 7.90729e-20)
(1 1.39519e-09 8.97786e-20)
(1 1.35233e-09 2.6251e-19)
(1 1.31493e-09 -4.38265e-19)
(1 1.27373e-09 2.71023e-21)
(1 1.23827e-09 7.93765e-20)
(1 1.19857e-09 8.9209e-20)
(1 1.16494e-09 2.61094e-19)
(1 1.12666e-09 -4.38929e-19)
(1 1.09477e-09 -2.05128e-21)
(1 1.05785e-09 1.00622e-19)
(1 1.0276e-09 -6.46738e-21)
(1 9.91959e-10 7.17794e-19)
(1 9.63245e-10 2.57177e-19)
(1 9.28803e-10 1.12935e-19)
(1 9.01538e-10 8.86171e-21)
(1 8.68218e-10 -2.62419e-19)
(1 8.423e-10 3.70836e-19)
(1 8.10022e-10 -4.59104e-20)
(1 7.85365e-10 -5.67226e-20)
(1 7.54066e-10 -3.83189e-20)
(1 7.30595e-10 -2.51964e-19)
(1 7.00226e-10 3.87559e-19)
(1 6.77879e-10 -3.9188e-20)
(1 6.484e-10 -5.66777e-20)
(1 6.27128e-10 -3.96279e-20)
(1 5.98517e-10 -2.52715e-19)
(1 5.78292e-10 3.87266e-19)
(1 5.50546e-10 -3.93855e-20)
(1 5.31356e-10 -5.67752e-20)
(1 5.04484e-10 -3.93609e-20)
(1 4.86328e-10 -2.5196e-19)
(1 4.60344e-10 3.8827e-19)
(1 4.43194e-10 -3.8546e-20)
(1 4.18055e-10 -5.63478e-20)
(1 4.0184e-10 -3.92953e-20)
(1 3.7749e-10 -2.52088e-19)
(1 3.62158e-10 3.87997e-19)
(1 3.38597e-10 -3.89924e-20)
(1 3.24152e-10 -5.6865e-20)
(1 3.01411e-10 -3.97058e-20)
(1 2.87865e-10 -2.52342e-19)
(1 2.65994e-10 3.87831e-19)
(1 2.53378e-10 -3.91013e-20)
(1 2.32645e-10 -5.68736e-20)
(1 2.21301e-10 -3.96073e-20)
(1 2.02664e-10 -2.52049e-19)
(1 1.92627e-10 3.87287e-19)
(1 1.77294e-10 -3.5008e-20)
(1 1.65036e-10 -7.81546e-20)
(1 1.62211e-10 6.71835e-20)
(1 1.28133e-10 -7.82583e-19)
(1.00011 -0.00103373 -7.35915e-22)
(1.00157 -0.00300168 8.76424e-21)
(1.00478 -0.00519124 1.75839e-20)
(1.00989 -0.00793954 -2.1558e-20)
(1.01747 -0.0109428 -1.72814e-19)
(1.02749 -0.0132885 -8.27875e-20)
(1.03903 -0.0142122 -6.33101e-19)
(1.05085 -0.0135178 -4.92683e-19)
(1.06161 -0.0112952 3.31454e-19)
(1.07011 -0.00769321 -8.5594e-20)
(1.07488 -0.0028314 -9.39368e-19)
(1.075 0.00222231 -1.78381e-18)
(1.07079 0.00658855 -2.23312e-18)
(1.06339 0.0094756 -1.90195e-18)
(1.05436 0.0108292 -1.37484e-18)
(1.04497 0.010892 -1.20559e-18)
(1.03614 0.010064 -1.12692e-18)
(1.02839 0.00875774 -7.44036e-19)
(1.02192 0.00729104 -1.99366e-19)
(1.01671 0.00587474 1.39743e-19)
(1.01262 0.0046214 1.83669e-19)
(1.00947 0.00357228 9.82991e-20)
(1.00706 0.00272619 3.11372e-20)
(1.00525 0.00206095 1.13498e-20)
(1.00389 0.00154715 1.18569e-20)
(1.00288 0.00115536 9.73087e-21)
(1.00213 0.000859404 4.3711e-22)
(1.00157 0.000637368 -1.04921e-21)
(1.00116 0.000471646 -2.32692e-20)
(1.00085 0.000348427 2.61576e-20)
(1.00063 0.000257073 1.00648e-19)
(1.00046 0.000189489 -5.27079e-22)
(1.00034 0.000139572 -1.27748e-19)
(1.00025 0.000102749 -2.3652e-19)
(1.00018 7.56095e-05 -2.22025e-19)
(1.00013 5.56216e-05 1.49045e-20)
(1.0001 4.09084e-05 1.58669e-19)
(1.00007 3.00824e-05 1.50751e-19)
(1.00005 2.21188e-05 6.46613e-21)
(1.00004 1.62623e-05 -1.19085e-19)
(1.00003 1.19561e-05 -2.06226e-20)
(1.00002 8.79011e-06 6.6915e-20)
(1.00002 6.46272e-06 8.12953e-20)
(1.00001 4.75189e-06 -1.78984e-20)
(1.00001 3.49435e-06 -1.16477e-19)
(1.00001 2.57002e-06 -1.38893e-20)
(1 1.89062e-06 7.32891e-20)
(1 1.39125e-06 7.06649e-20)
(1 1.0242e-06 2.70531e-20)
(1 7.544e-07 -2.44918e-19)
(1 5.56076e-07 2.36461e-19)
(1 4.1028e-07 4.9451e-19)
(1 3.03094e-07 -7.98964e-22)
(1 2.24279e-07 -5.51718e-20)
(1 1.66322e-07 -3.12891e-19)
(1 1.23688e-07 1.30259e-19)
(1 9.23214e-08 3.63364e-19)
(1 6.92303e-08 -1.01916e-19)
(1 5.22272e-08 -9.79174e-20)
(1 3.96935e-08 -3.18023e-19)
(1 3.04508e-08 1.61805e-19)
(1 2.36219e-08 2.7433e-19)
(1 1.8573e-08 3.66688e-19)
(1 1.48274e-08 4.96826e-19)
(1 1.20454e-08 -3.34925e-19)
(1 9.96702e-09 1.0191e-19)
(1 8.41132e-09 1.76469e-19)
(1 7.23541e-09 2.17136e-19)
(1 6.34409e-09 3.05613e-19)
(1 5.65796e-09 -5.33307e-19)
(1 5.1278e-09 -5.49828e-20)
(1 4.70864e-09 9.05281e-20)
(1 4.37589e-09 1.92693e-19)
(1 4.10349e-09 3.10898e-19)
(1 3.88001e-09 -5.24118e-19)
(1 3.6898e-09 -5.09955e-20)
(1 3.52824e-09 9.05219e-20)
(1 3.38553e-09 1.91664e-19)
(1 3.26046e-09 3.1008e-19)
(1 3.14647e-09 -5.2515e-19)
(1 3.04371e-09 -5.33527e-20)
(1 2.94747e-09 8.60048e-20)
(1 2.85833e-09 1.85432e-19)
(1 2.77295e-09 3.03914e-19)
(1 2.69213e-09 -5.2958e-19)
(1 2.6138e-09 -5.56419e-20)
(1 2.53875e-09 8.44341e-20)
(1 2.46587e-09 1.89522e-19)
(1 2.39563e-09 2.84935e-19)
(1 2.32762e-09 -4.29691e-19)
(1 2.2618e-09 -5.27123e-19)
(1 2.19837e-09 -4.53284e-19)
(1 2.13671e-09 -2.22572e-19)
(1 2.07751e-09 1.03002e-20)
(1 2.01955e-09 1.27817e-19)
(1 1.96403e-09 1.64311e-19)
(1 1.90919e-09 6.0837e-20)
(1 1.85683e-09 -1.55608e-20)
(1 1.80469e-09 -4.02859e-20)
(1 1.75517e-09 -2.25709e-20)
(1 1.70552e-09 4.73623e-20)
(1 1.65864e-09 1.59814e-20)
(1 1.61132e-09 -1.5668e-20)
(1 1.567e-09 -3.03949e-20)
(1 1.52194e-09 -1.75058e-20)
(1 1.48005e-09 4.78389e-20)
(1 1.43707e-09 1.54316e-20)
(1 1.39733e-09 -1.56416e-20)
(1 1.35612e-09 -3.00544e-20)
(1 1.31825e-09 -1.74354e-20)
(1 1.27862e-09 4.76317e-20)
(1 1.24252e-09 1.53216e-20)
(1 1.20443e-09 -1.5468e-20)
(1 1.17007e-09 -2.97461e-20)
(1 1.1335e-09 -1.72362e-20)
(1 1.10078e-09 4.75285e-20)
(1 1.06561e-09 1.52856e-20)
(1 1.03442e-09 -1.67791e-20)
(1 1.00055e-09 -2.53815e-20)
(1 9.70808e-10 -2.98839e-20)
(1 9.38179e-10 6.69625e-20)
(1 9.09812e-10 1.14738e-19)
(1 8.78366e-10 9.8416e-20)
(1 8.51309e-10 4.231e-20)
(1 8.21001e-10 -5.01615e-20)
(1 7.95206e-10 -2.48148e-20)
(1 7.66003e-10 1.14299e-20)
(1 7.41432e-10 3.25891e-20)
(1 7.13298e-10 2.0721e-20)
(1 6.89898e-10 -4.81853e-20)
(1 6.62791e-10 -1.89598e-20)
(1 6.40507e-10 1.40484e-20)
(1 6.14381e-10 3.281e-20)
(1 5.9316e-10 2.04815e-20)
(1 5.67969e-10 -4.82024e-20)
(1 5.47754e-10 -1.88365e-20)
(1 5.23445e-10 1.41481e-20)
(1 5.0417e-10 3.288e-20)
(1 4.80685e-10 2.06259e-20)
(1 4.62287e-10 -4.79438e-20)
(1 4.39592e-10 -1.8568e-20)
(1 4.22053e-10 1.43018e-20)
(1 4.00165e-10 3.29129e-20)
(1 3.83526e-10 2.0608e-20)
(1 3.62514e-10 -4.79933e-20)
(1 3.46833e-10 -1.86912e-20)
(1 3.26761e-10 1.41023e-20)
(1 3.12089e-10 3.2707e-20)
(1 2.93041e-10 2.04531e-20)
(1 2.79478e-10 -4.81008e-20)
(1 2.61624e-10 -1.87761e-20)
(1 2.4933e-10 1.40377e-20)
(1 2.33056e-10 3.26851e-20)
(1 2.22389e-10 2.04829e-20)
(1 2.08713e-10 -4.79902e-20)
(1 1.99685e-10 -1.89387e-20)
(1 1.89818e-10 1.51784e-20)
(1 1.79816e-10 2.78956e-20)
(1 1.81098e-10 3.72056e-20)
(1 1.59885e-10 -9.59848e-20)
(1.00011 -0.00143958 -3.61912e-20)
(1.00155 -0.00418424 -4.73577e-19)
(1.00471 -0.00725081 -1.24281e-18)
(1.00979 -0.011113 -2.78224e-18)
(1.01737 -0.0153571 -5.59275e-18)
(1.02749 -0.018723 -4.32261e-18)
(1.03932 -0.0201453 -7.83375e-18)
(1.05169 -0.0193084 -1.74044e-17)
(1.06324 -0.0162735 2.01987e-18)
(1.0726 -0.0111518 8.77579e-18)
(1.07788 -0.0040607 -1.63867e-18)
(1.07787 0.00332072 -4.77062e-18)
(1.073 0.00965582 -3.46124e-18)
(1.06467 0.0137419 1.07759e-19)
(1.05478 0.0155693 1.78382e-18)
(1.04472 0.0155393 8.19567e-19)
(1.03548 0.0142584 -7.82262e-19)
(1.02754 0.0123307 -1.27305e-18)
(1.02105 0.0102079 -7.28893e-19)
(1.01591 0.00818404 -1.85229e-19)
(1.01193 0.00641064 -9.08905e-20)
(1.0089 0.00493811 -2.1303e-19)
(1.00661 0.00375821 -3.01034e-19)
(1.0049 0.00283518 -2.65525e-19)
(1.00362 0.00212498 -1.74791e-19)
(1.00268 0.00158496 -1.06824e-19)
(1.00197 0.00117788 -5.79044e-20)
(1.00145 0.000872965 2.2926e-21)
(1.00107 0.000645648 -8.04185e-20)
(1.00079 0.000476782 5.6471e-19)
(1.00058 0.000351669 3.12371e-19)
(1.00043 0.000259158 -1.10331e-18)
(1.00031 0.000190855 -8.03039e-19)
(1.00023 0.000140483 -7.97629e-19)
(1.00017 0.000103366 -2.06937e-19)
(1.00012 7.60341e-05 9.53448e-19)
(1.00009 5.59176e-05 1.40488e-19)
(1.00007 4.11171e-05 -2.37534e-20)
(1.00005 3.02308e-05 -3.15003e-19)
(1.00004 2.22252e-05 -8.4901e-20)
(1.00003 1.6339e-05 7.81824e-19)
(1.00002 1.20116e-05 -1.18577e-19)
(1.00001 8.83053e-06 -2.02369e-19)
(1.00001 6.49219e-06 -3.81546e-19)
(1.00001 4.77343e-06 -8.96239e-20)
(1.00001 3.51011e-06 7.86287e-19)
(1 2.58157e-06 -1.10538e-19)
(1 1.89908e-06 -2.38651e-19)
(1 1.39745e-06 -1.92654e-19)
(1 1.02873e-06 -9.86214e-19)
(1 7.5771e-07 -4.06175e-19)
(1 5.58481e-07 7.3253e-21)
(1 4.12022e-07 2.62073e-19)
(1 3.0434e-07 5.08444e-19)
(1 2.25163e-07 -3.1898e-19)
(1 1.66931e-07 -1.62053e-20)
(1 1.24098e-07 6.11402e-20)
(1 9.25787e-08 1.06682e-19)
(1 6.93798e-08 3.21059e-19)
(1 5.22918e-08 -4.37944e-19)
(1 3.97002e-08 -4.59125e-20)
(1 3.04091e-08 2.51726e-20)
(1 2.35493e-08 2.66616e-19)
(1 1.84725e-08 -2.137e-19)
(1 1.47119e-08 -8.39493e-20)
(1 1.19148e-08 1.2818e-18)
(1 9.83125e-09 2.86547e-19)
(1 8.26846e-09 2.01814e-19)
(1 7.09347e-09 -5.0818e-19)
(1 6.20002e-09 -5.31762e-19)
(1 5.51831e-09 8.56173e-19)
(1 4.98903e-09 2.6163e-20)
(1 4.57627e-09 1.15664e-19)
(1 4.24619e-09 -5.01051e-19)
(1 3.98092e-09 -5.06863e-19)
(1 3.76056e-09 8.69883e-19)
(1 3.5768e-09 3.03351e-20)
(1 3.41748e-09 1.17327e-19)
(1 3.27925e-09 -4.99181e-19)
(1 3.1545e-09 -5.05374e-19)
(1 3.04253e-09 8.69459e-19)
(1 2.93862e-09 2.68998e-20)
(1 2.84331e-09 1.11491e-19)
(1 2.75355e-09 -5.05114e-19)
(1 2.67007e-09 -5.09537e-19)
(1 2.5907e-09 8.67202e-19)
(1 2.51589e-09 2.57082e-20)
(1 2.44417e-09 1.14994e-19)
(1 2.37565e-09 -5.1137e-19)
(1 2.30954e-09 -4.68887e-19)
(1 2.24559e-09 7.55848e-19)
(1 2.1837e-09 2.92486e-19)
(1 2.12323e-09 8.30524e-19)
(1 2.06477e-09 8.43022e-19)
(1 2.00731e-09 6.20077e-19)
(1 1.95205e-09 5.33356e-19)
(1 1.89751e-09 -3.34384e-19)
(1 1.84539e-09 2.69697e-21)
(1 1.79365e-09 2.46442e-20)
(1 1.74447e-09 3.44602e-20)
(1 1.6953e-09 2.58138e-19)
(1 1.6488e-09 -3.88185e-19)
(1 1.60191e-09 3.22584e-20)
(1 1.55778e-09 5.29605e-20)
(1 1.51288e-09 4.25943e-20)
(1 1.47086e-09 2.56065e-19)
(1 1.42781e-09 -3.90282e-19)
(1 1.38787e-09 3.32277e-20)
(1 1.3467e-09 5.55166e-20)
(1 1.30886e-09 4.44709e-20)
(1 1.26952e-09 2.5653e-19)
(1 1.23363e-09 -3.90397e-19)
(1 1.19594e-09 3.35902e-20)
(1 1.16179e-09 5.66418e-20)
(1 1.12557e-09 4.58358e-20)
(1 1.09305e-09 2.57257e-19)
(1 1.05825e-09 -3.8972e-19)
(1 1.02729e-09 2.96301e-20)
(1 9.93833e-10 7.47401e-20)
(1 9.64351e-10 -4.55538e-20)
(1 9.32165e-10 7.02178e-19)
(1 9.04072e-10 2.56665e-19)
(1 8.73085e-10 8.94099e-20)
(1 8.46305e-10 -4.82259e-20)
(1 8.1644e-10 -2.91103e-19)
(1 7.90882e-10 3.98433e-19)
(1 7.62059e-10 1.14657e-21)
(1 7.37639e-10 -5.10713e-20)
(1 7.09796e-10 -8.71839e-20)
(1 6.86457e-10 -2.83076e-19)
(1 6.59555e-10 4.1157e-19)
(1 6.37252e-10 6.51398e-21)
(1 6.1126e-10 -5.05518e-20)
(1 5.89965e-10 -8.73131e-20)
(1 5.64876e-10 -2.82635e-19)
(1 5.44582e-10 4.12276e-19)
(1 5.2041e-10 7.12149e-21)
(1 5.01136e-10 -5.00699e-20)
(1 4.77923e-10 -8.67939e-20)
(1 4.59709e-10 -2.82079e-19)
(1 4.37497e-10 4.12608e-19)
(1 4.2036e-10 7.08525e-21)
(1 3.99157e-10 -5.02288e-20)
(1 3.83084e-10 -8.6767e-20)
(1 3.62892e-10 -2.81916e-19)
(1 3.47908e-10 4.12634e-19)
(1 3.28809e-10 6.90936e-21)
(1 3.15026e-10 -5.04399e-20)
(1 2.97189e-10 -8.69065e-20)
(1 2.84783e-10 -2.82012e-19)
(1 2.68447e-10 4.1254e-19)
(1 2.57625e-10 6.81164e-21)
(1 2.43246e-10 -5.04943e-20)
(1 2.34411e-10 -8.68608e-20)
(1 2.23191e-10 -2.81713e-19)
(1 2.16526e-10 4.12066e-19)
(1 2.09835e-10 1.09037e-20)
(1 2.03094e-10 -7.0969e-20)
(1 2.06705e-10 1.4029e-20)
(1 1.95754e-10 -7.83957e-19)
(1.00011 -0.00183632 -2.98808e-18)
(1.0015 -0.00534451 -9.2799e-18)
(1.0046 -0.00928668 -8.90975e-18)
(1.00961 -0.0142746 -1.26849e-17)
(1.01718 -0.0197972 -1.15757e-17)
(1.0274 -0.0242673 -4.28942e-17)
(1.0396 -0.0263263 6.63324e-17)
(1.05274 -0.025499 -6.10959e-17)
(1.06541 -0.0217488 -2.6025e-16)
(1.07605 -0.0150285 -2.68622e-18)
(1.08208 -0.00539098 7.96929e-17)
(1.08187 0.00466397 3.29771e-17)
(1.07601 0.0132323 6.06824e-18)
(1.06635 0.0185814 5.37799e-18)
(1.05526 0.020811 7.59543e-18)
(1.04431 0.0205429 6.26388e-18)
(1.03453 0.0186507 2.64976e-18)
(1.02636 0.0159723 2.66536e-19)
(1.01985 0.0131084 5.94107e-19)
(1.01481 0.0104329 1.03953e-19)
(1.011 0.00812453 -1.06663e-18)
(1.00814 0.00623008 -1.46253e-18)
(1.00601 0.00472526 -1.4618e-18)
(1.00444 0.00355549 -1.02822e-18)
(1.00327 0.0026596 -1.03913e-18)
(1.00241 0.00198073 -8.6272e-19)
(1.00177 0.0014703 -5.57176e-20)
(1.0013 0.00108872 1.36822e-19)
(1.00096 0.000804677 3.13926e-19)
(1.0007 0.000593913 1.20879e-20)
(1.00052 0.000437893 -6.89025e-19)
(1.00038 0.000322603 -3.63841e-19)
(1.00028 0.000237525 -2.49141e-19)
(1.00021 0.000174805 -7.39448e-19)
(1.00015 0.000128603 -6.11896e-19)
(1.00011 9.4588e-05 -4.32865e-19)
(1.00008 6.95569e-05 2.71827e-19)
(1.00006 5.11428e-05 5.17789e-19)
(1.00004 3.75998e-05 -7.55753e-20)
(1.00003 2.76414e-05 -2.23233e-19)
(1.00002 2.03196e-05 -3.2015e-19)
(1.00002 1.49371e-05 2.40694e-19)
(1.00001 1.09805e-05 4.70954e-19)
(1.00001 8.07214e-06 -9.02018e-20)
(1.00001 5.93446e-06 -2.22334e-19)
(1.00001 4.36327e-06 -3.27096e-19)
(1 3.20845e-06 2.23099e-19)
(1 2.35967e-06 4.55104e-19)
(1 1.73583e-06 -1.17455e-19)
(1 1.27729e-06 -6.46933e-20)
(1 9.40261e-07 1.52924e-18)
(1 6.92522e-07 1.78695e-18)
(1 5.10412e-07 1.06451e-18)
(1 3.76532e-07 8.63028e-19)
(1 2.78103e-07 -3.39719e-19)
(1 2.05726e-07 2.95496e-19)
(1 1.52499e-07 4.34933e-19)
(1 1.13342e-07 -7.67264e-20)
(1 8.45304e-08 9.37311e-20)
(1 6.33192e-08 -7.24723e-19)
(1 4.76989e-08 2.09874e-19)
(1 3.61845e-08 3.62433e-19)
(1 2.76924e-08 4.33272e-19)
(1 2.14184e-08 5.84792e-19)
(1 1.6779e-08 -3.60338e-19)
(1 1.33379e-08 6.71596e-19)
(1 1.07821e-08 2.23154e-19)
(1 8.87388e-09 1.35944e-19)
(1 7.44618e-09 2.10622e-19)
(1 6.36884e-09 -7.4965e-19)
(1 5.55324e-09 3.6227e-19)
(1 4.92732e-09 5.12031e-20)
(1 4.44474e-09 8.00665e-20)
(1 4.06511e-09 2.10446e-19)
(1 3.76486e-09 -7.38639e-19)
(1 3.5209e-09 3.70295e-19)
(1 3.32173e-09 5.69037e-20)
(1 3.1538e-09 8.49734e-20)
(1 3.01196e-09 2.14229e-19)
(1 2.88789e-09 -7.3672e-19)
(1 2.77947e-09 3.69846e-19)
(1 2.6812e-09 5.42577e-20)
(1 2.59229e-09 8.1685e-20)
(1 2.5091e-09 2.12238e-19)
(1 2.43157e-09 -7.37179e-19)
(1 2.35751e-09 3.69688e-19)
(1 2.28722e-09 5.16314e-20)
(1 2.21954e-09 8.73079e-20)
(1 2.1547e-09 1.73845e-19)
(1 2.09227e-09 -5.44957e-19)
(1 2.03216e-09 -5.56493e-19)
(1 1.97445e-09 -1.04676e-18)
(1 1.91862e-09 -8.46633e-19)
(1 1.86515e-09 -6.70178e-19)
(1 1.81299e-09 9.93389e-20)
(1 1.76304e-09 4.79268e-19)
(1 1.71383e-09 -5.44353e-20)
(1 1.66676e-09 -1.48656e-19)
(1 1.61999e-09 -3.38124e-19)
(1 1.57544e-09 1.64219e-19)
(1 1.53085e-09 4.35479e-19)
(1 1.48862e-09 -9.98341e-20)
(1 1.44612e-09 -1.66202e-19)
(1 1.40617e-09 -3.38801e-19)
(1 1.36573e-09 1.6673e-19)
(1 1.32801e-09 4.36534e-19)
(1 1.28949e-09 -9.95853e-20)
(1 1.25373e-09 -1.65652e-19)
(1 1.21682e-09 -3.37916e-19)
(1 1.18273e-09 1.67384e-19)
(1 1.14724e-09 4.36576e-19)
(1 1.11471e-09 -9.993e-20)
(1 1.08062e-09 -1.65794e-19)
(1 1.04968e-09 -3.37613e-19)
(1 1.01697e-09 1.67794e-19)
(1 9.87522e-10 4.36643e-19)
(1 9.56091e-10 -9.9863e-20)
(1 9.28022e-10 -1.6701e-19)
(1 8.9777e-10 -3.33255e-19)
(1 8.70998e-10 1.54942e-19)
(1 8.4187e-10 4.55704e-19)
(1 8.16334e-10 -8.77374e-22)
(1 7.88273e-10 -5.22203e-20)
(1 7.63911e-10 -2.6571e-19)
(1 7.36879e-10 1.3482e-19)
(1 7.13663e-10 3.64198e-19)
(1 6.87646e-10 -1.04003e-19)
(1 6.65549e-10 -1.18037e-19)
(1 6.40525e-10 -2.87514e-19)
(1 6.19512e-10 1.36338e-19)
(1 5.95449e-10 3.69473e-19)
(1 5.75478e-10 -1.01904e-19)
(1 5.52345e-10 -1.18179e-19)
(1 5.33381e-10 -2.87916e-19)
(1 5.11152e-10 1.3639e-19)
(1 4.93162e-10 3.69826e-19)
(1 4.71808e-10 -1.01535e-19)
(1 4.54752e-10 -1.17806e-19)
(1 4.34246e-10 -2.87373e-19)
(1 4.18097e-10 1.37072e-19)
(1 3.98439e-10 3.70356e-19)
(1 3.83227e-10 -1.01361e-19)
(1 3.64498e-10 -1.17875e-19)
(1 3.50332e-10 -2.87427e-19)
(1 3.32672e-10 1.37124e-19)
(1 3.19691e-10 3.70408e-19)
(1 3.03252e-10 -1.01361e-19)
(1 2.9161e-10 -1.17858e-19)
(1 2.766e-10 -2.8743e-19)
(1 2.66525e-10 1.36938e-19)
(1 2.53269e-10 3.69996e-19)
(1 2.45069e-10 -1.01836e-19)
(1 2.34138e-10 -1.18169e-19)
(1 2.28325e-10 -2.87456e-19)
(1 2.21085e-10 1.37327e-19)
(1 2.18056e-10 3.69571e-19)
(1 2.15844e-10 -9.72612e-20)
(1 2.13746e-10 -1.39628e-19)
(1 2.20853e-10 -1.86306e-19)
(1 2.21638e-10 -3.42749e-19)
(1.0001 -0.00221943 3.13753e-18)
(1.00144 -0.00647036 9.94206e-18)
(1.00443 -0.011282 1.24366e-17)
(1.00933 -0.0174068 -2.99284e-18)
(1.01684 -0.0242545 1.37266e-16)
(1.02714 -0.0299413 -3.64213e-16)
(1.03979 -0.0328316 3.95028e-16)
(1.05393 -0.0322362 1.74325e-15)
(1.06812 -0.0279314 -3.09365e-15)
(1.08057 -0.0195123 -3.24664e-15)
(1.08767 -0.00687381 -2.6766e-16)
(1.08719 0.00632135 8.86995e-16)
(1.07996 0.0174354 6.95582e-16)
(1.06845 0.0240612 2.61951e-16)
(1.05574 0.0265609 3.35636e-17)
(1.04363 0.0258788 -2.14217e-17)
(1.03318 0.0232159 -1.61693e-17)
(1.02477 0.0196672 -5.05262e-18)
(1.01827 0.0159823 -5.98762e-19)
(1.01341 0.0126099 1.2155e-18)
(1.00983 0.00974821 1.87393e-18)
(1.0072 0.0074316 1.43665e-18)
(1.00527 0.00561135 7.97523e-19)
(1.00387 0.00420799 9.94292e-19)
(1.00284 0.00313971 1.01999e-18)
(1.00208 0.00233382 1.97797e-19)
(1.00153 0.0017299 -1.33425e-19)
(1.00112 0.00127955 -4.05038e-19)
(1.00082 0.000944943 1.09783e-20)
(1.0006 0.000697005 7.73708e-19)
(1.00044 0.00051366 1.07281e-18)
(1.00033 0.000378287 4.05613e-19)
(1.00024 0.000278448 -9.94089e-20)
(1.00018 0.000204879 1.36371e-19)
(1.00013 0.000150704 7.90224e-20)
(1.0001 0.000110831 3.02444e-19)
(1.00007 8.14937e-05 -1.27991e-19)
(1.00005 5.99152e-05 -3.38857e-19)
(1.00004 4.40467e-05 1.00063e-19)
(1.00003 3.23792e-05 1.08187e-19)
(1.00002 2.38016e-05 3.1149e-19)
(1.00001 1.7496e-05 -1.44384e-19)
(1.00001 1.28611e-05 -3.50529e-19)
(1.00001 9.45425e-06 1.0312e-19)
(1.00001 6.95022e-06 1.13667e-19)
(1 5.10978e-06 3.07768e-19)
(1 3.75709e-06 -1.48864e-19)
(1 2.76288e-06 -3.70536e-19)
(1 2.03216e-06 1.67403e-19)
(1 1.49507e-06 -1.81642e-19)
(1 1.10031e-06 -1.26617e-18)
(1 8.10135e-07 -1.34085e-18)
(1 5.96835e-07 -5.44791e-19)
(1 4.40028e-07 -1.78134e-19)
(1 3.24745e-07 1.13946e-19)
(1 2.39976e-07 -2.94398e-19)
(1 1.77639e-07 -4.43471e-19)
(1 1.31786e-07 1.08908e-19)
(1 9.80537e-08 2.40388e-19)
(1 7.32259e-08 3.41733e-19)
(1 5.49471e-08 -2.22197e-19)
(1 4.14787e-08 -3.76465e-19)
(1 3.15504e-08 -2.41121e-19)
(1 2.42215e-08 -8.37954e-19)
(1 1.88075e-08 -3.16745e-19)
(1 1.47984e-08 -1.24407e-20)
(1 1.18262e-08 1.39953e-19)
(1 9.61329e-09 3.79743e-19)
(1 7.96249e-09 -3.26429e-19)
(1 6.7222e-09 -6.06889e-20)
(1 5.7875e-09 1.60693e-20)
(1 5.07508e-09 7.312e-20)
(1 4.52975e-09 3.21123e-19)
(1 4.10506e-09 -3.48221e-19)
(1 3.77238e-09 -5.87118e-20)
(1 3.50534e-09 2.42977e-20)
(1 3.28954e-09 7.84056e-20)
(1 3.10955e-09 3.21759e-19)
(1 2.95849e-09 -3.50574e-19)
(1 2.82711e-09 -6.2303e-20)
(1 2.71258e-09 2.02111e-20)
(1 2.60937e-09 7.41582e-20)
(1 2.5168e-09 3.18196e-19)
(1 2.43142e-09 -3.5242e-19)
(1 2.35331e-09 -6.24744e-20)
(1 2.28011e-09 2.07291e-20)
(1 2.21195e-09 7.45018e-20)
(1 2.14718e-09 3.20466e-19)
(1 2.08582e-09 -3.54778e-19)
(1 2.02685e-09 -4.73013e-20)
(1 1.97011e-09 1.27176e-20)
(1 1.9152e-09 -9.2991e-20)
(1 1.86173e-09 6.79822e-19)
(1 1.80993e-09 2.49772e-19)
(1 1.7592e-09 1.03633e-19)
(1 1.71029e-09 4.69698e-20)
(1 1.66225e-09 -2.07281e-19)
(1 1.61622e-09 4.14818e-19)
(1 1.57081e-09 -5.5688e-20)
(1 1.52751e-09 -1.1704e-19)
(1 1.48452e-09 -4.85887e-20)
(1 1.44369e-09 -2.18636e-19)
(1 1.40282e-09 4.30217e-19)
(1 1.36411e-09 -4.43391e-20)
(1 1.32499e-09 -1.14122e-19)
(1 1.28811e-09 -4.9174e-20)
(1 1.25059e-09 -2.19143e-19)
(1 1.2155e-09 4.30506e-19)
(1 1.17965e-09 -4.38666e-20)
(1 1.14641e-09 -1.14148e-19)
(1 1.1122e-09 -4.99063e-20)
(1 1.08069e-09 -2.20479e-19)
(1 1.04793e-09 4.28619e-19)
(1 1.01792e-09 -4.59485e-20)
(1 9.86439e-10 -1.15422e-19)
(1 9.57826e-10 -4.97663e-20)
(1 9.27579e-10 -2.18266e-19)
(1 9.00326e-10 4.26431e-19)
(1 8.71269e-10 -2.39027e-20)
(1 8.45308e-10 -2.11626e-19)
(1 8.17372e-10 4.05294e-19)
(1 7.9263e-10 4.73787e-19)
(1 7.65763e-10 5.35632e-19)
(1 7.42186e-10 -1.20208e-19)
(1 7.16326e-10 -4.68178e-19)
(1 6.93831e-10 6.14205e-20)
(1 6.68902e-10 1.74595e-19)
(1 6.47411e-10 3.67989e-19)
(1 6.23357e-10 -1.67583e-19)
(1 6.02824e-10 -4.58558e-19)
(1 5.79619e-10 7.79741e-20)
(1 5.60022e-10 1.81726e-19)
(1 5.37659e-10 3.68346e-19)
(1 5.18987e-10 -1.68894e-19)
(1 4.97471e-10 -4.59393e-19)
(1 4.79739e-10 7.77549e-20)
(1 4.5911e-10 1.81819e-19)
(1 4.42363e-10 3.68611e-19)
(1 4.2269e-10 -1.68485e-19)
(1 4.07006e-10 -4.58937e-19)
(1 3.88372e-10 7.80756e-20)
(1 3.73816e-10 1.81851e-19)
(1 3.56282e-10 3.68336e-19)
(1 3.42897e-10 -1.68902e-19)
(1 3.26526e-10 -4.59252e-19)
(1 3.1441e-10 7.7959e-20)
(1 2.99369e-10 1.81848e-19)
(1 2.88739e-10 3.68372e-19)
(1 2.75321e-10 -1.68814e-19)
(1 2.66488e-10 -4.59108e-19)
(1 2.55094e-10 7.80827e-20)
(1 2.48426e-10 1.81858e-19)
(1 2.39685e-10 3.68261e-19)
(1 2.35745e-10 -1.68963e-19)
(1 2.3112e-10 -4.59029e-19)
(1 2.30532e-10 7.73457e-20)
(1 2.31486e-10 1.86327e-19)
(1 2.32709e-10 3.44407e-19)
(1 2.42556e-10 -4.92086e-20)
(1 2.51881e-10 -1.04969e-18)
(1.0001 -0.00258282 1.38429e-19)
(1.00135 -0.00754501 -8.01138e-19)
(1.00419 -0.0132117 9.69379e-18)
(1.00891 -0.0204797 -3.04717e-17)
(1.01627 -0.0287049 -1.01378e-16)
(1.02661 -0.035753 2.09921e-15)
(1.03976 -0.0397349 -1.0046e-14)
(1.05512 -0.0396889 1.16019e-14)
(1.07135 -0.0350816 3.48593e-14)
(1.08632 -0.0248394 -2.2086e-14)
(1.09493 -0.00853947 -2.68815e-14)
(1.09403 0.00851988 -4.00687e-15)
(1.08489 0.022716 6.34551e-15)
(1.0709 0.0306866 4.60513e-15)
(1.05615 0.0332535 1.06895e-15)
(1.04262 0.0318346 -3.14804e-16)
(1.03141 0.0280847 -3.0993e-16)
(1.02274 0.0234301 -8.34664e-17)
(1.01631 0.0187846 7.81925e-18)
(1.01169 0.0146553 1.27643e-17)
(1.00841 0.01123 3.79232e-18)