/*--------------------------------*- C++ -*----------------------------------*\
  =========                 |
  \\      /  F ield         | OpenFOAM: The Open Source CFD Toolbox
   \\    /   O peration     | Website:  https://openfoam.org
    \\  /    A nd           | Version:  11
     \\/     M anipulation  |
\*---------------------------------------------------------------------------*/
FoamFile
{
    format      ascii;
    class       volVectorField;
    location    "13.677223";
    object      U_0;
}
// * * * * * * * * * * * * * * * * * * * * * * * * * * * * * * * * * * * * * //

dimensions      [0 1 -1 0 0 0 0];

internalField   nonuniform List<vector> 
7132
(
(1.00011 -0.000215803 3.87837e-18)
(1.00166 -0.00063886 1.19355e-17)
(1.00513 -0.00108252 1.25542e-17)
(1.01036 -0.00156469 1.54796e-17)
(1.01762 -0.00209509 2.03157e-17)
(1.02711 -0.00265727 2.08359e-17)
(1.0389 -0.00321151 1.94534e-17)
(1.05284 -0.00367547 1.73218e-17)
(1.06838 -0.00395705 1.48711e-17)
(1.08462 -0.00396022 1.26065e-17)
(1.1002 -0.00362459 1.0892e-17)
(1.1138 -0.00301321 9.89626e-18)
(1.12444 -0.00217347 9.28566e-18)
(1.13132 -0.00114317 8.9879e-18)
(1.13373 5.42893e-05 6.1363e-18)
(1.13104 0.00138583 3.45279e-18)
(1.12283 0.00271714 1.49535e-18)
(1.10947 0.00382572 2.40334e-18)
(1.09231 0.0044966 8.96253e-19)
(1.07348 0.00458914 3.32774e-19)
(1.05549 0.00405441 8.37106e-19)
(1.04089 0.00293088 3.82233e-19)
(1.03189 0.00134337 9.92471e-19)
(1.03005 -0.000489014 3.88713e-18)
(1.03585 -0.00223164 -3.98676e-17)
(1.04813 -0.003449 -1.86486e-16)
(1.06384 -0.00373102 -2.92871e-16)
(1.07848 -0.0029104 -2.14823e-16)
(1.0876 -0.00120694 -7.9654e-17)
(1.08846 0.000865836 -4.39157e-18)
(1.08078 0.00275655 3.79712e-17)
(1.06631 0.00408573 -1.67073e-17)
(1.04785 0.0046851 -2.83253e-16)
(1.0285 0.00452663 -1.31375e-16)
(1.01126 0.00364134 2.06194e-15)
(0.998965 0.00208641 5.41593e-15)
(0.994187 -2.38712e-05 -4.18603e-15)
(0.998892 -0.0024355 -7.91262e-14)
(1.01364 -0.00467163 -2.84714e-13)
(1.03654 -0.00608379 -5.62434e-13)
(1.06285 -0.00611068 -6.92902e-13)
(1.08608 -0.00461143 -5.4929e-13)
(1.10034 -0.00200502 -2.8152e-13)
(1.1025 0.000928888 -9.41949e-14)
(1.09299 0.00342927 -8.55822e-15)
(1.07488 0.00504008 1.91122e-14)
(1.05232 0.00564323 1.49419e-14)
(1.02931 0.00531835 -8.77537e-15)
(1.00932 0.00418649 -3.42911e-14)
(0.995357 0.00234205 -9.87598e-15)
(0.990153 -9.72326e-05 2.17715e-13)
(0.995846 -0.00285755 9.53935e-13)
(1.013 -0.00540378 2.36006e-12)
(1.03942 -0.00701244 3.97957e-12)
(1.06975 -0.00706211 4.81032e-12)
(1.09668 -0.00538388 4.24279e-12)
(1.11348 -0.00241555 2.80217e-12)
(1.11642 0.000977042 1.55871e-12)
(1.10574 0.00389385 8.03969e-13)
(1.08503 0.00575384 2.28572e-13)
(1.05928 0.00639925 -5.86635e-13)
(1.03334 0.00596333 -1.4685e-12)
(1.01108 0.00465927 -1.13351e-14)
(0.995568 0.00264823 9.66505e-12)
(0.989402 6.49539e-05 3.54014e-11)
(0.994621 -0.00283338 8.24381e-11)
(1.01182 -0.00554335 1.48118e-10)
(1.039 -0.00737286 2.19464e-10)
(1.07116 -0.00769861 2.76601e-10)
(1.1012 -0.00627541 3.01085e-10)
(1.12209 -0.00339814 2.84392e-10)
(1.12906 0.00018436 2.31407e-10)
(1.12106 0.00355079 1.57512e-10)
(1.10077 0.00594598 8.29764e-11)
(1.07329 0.00700653 2.58401e-11)
(1.04431 0.00677032 -3.98473e-12)
(1.01862 0.00549812 -4.2223e-12)
(0.999775 0.00345586 2.44791e-11)
(0.990426 0.000836057 8.0968e-11)
(0.992609 -0.00212891 1.61787e-10)
(1.00717 -0.0050109 2.58819e-10)
(1.03269 -0.0071915 3.6003e-10)
(1.06498 -0.00806962 4.52455e-10)
(1.09771 -0.00733044 5.24365e-10)
(1.12413 -0.00509321 5.65455e-10)
(1.1389 -0.00186504 5.66432e-10)
(1.13939 0.00163789 5.19844e-10)
(1.12601 0.00469849 4.2387e-10)
(1.10187 0.00676959 2.91399e-10)
(1.07177 0.0075737 1.54189e-10)
(1.04106 0.00711653 5.19384e-11)
(1.0145 0.00559113 1.15522e-11)
(0.995919 0.00323687 3.43391e-11)
(0.988226 0.000295811 1.01132e-10)
(0.993346 -0.00289083 1.87166e-10)
(1.01146 -0.00579898 2.73149e-10)
(1.04019 -0.00780384 3.48207e-10)
(1.07456 -0.00840798 4.08059e-10)
(1.10812 -0.00745571 4.52232e-10)
(1.13467 -0.00519765 4.81614e-10)
(1.14987 -0.00218503 4.96097e-10)
(1.15205 0.000929617 4.92026e-10)
(1.14214 0.00358411 4.60873e-10)
(1.123 0.00541222 3.9399e-10)
(1.09848 0.00623922 2.93802e-10)
(1.07278 0.00602563 1.81969e-10)
(1.05004 0.00481734 9.25798e-11)
(1.03408 0.00273694 5.23405e-11)
(1.02812 2.85448e-05 6.55207e-11)
(1.03407 -0.002887 1.16304e-10)
(1.05174 -0.00544183 1.82454e-10)
(1.0784 -0.00707088 2.46742e-10)
(1.10921 -0.00741683 3.00336e-10)
(1.1385 -0.00646602 3.4088e-10)
(1.16139 -0.00454357 3.695e-10)
(1.17491 -0.00218833 3.88724e-10)
(1.17858 2.03407e-05 4.01252e-10)
(1.17415 0.00161944 4.08792e-10)
(1.16487 0.0023596 4.10788e-10)
(1.15447 0.00221505 4.0391e-10)
(1.14639 0.00132375 3.83377e-10)
(1.14322 -9.97742e-05 3.46095e-10)
(1.14668 -0.00182589 2.93511e-10)
(1.15753 -0.00361899 2.31891e-10)
(1.17559 -0.00521755 1.69895e-10)
(1.19954 -0.00633061 1.15368e-10)
(1.22681 -0.00668196 7.32878e-11)
(1.2538 -0.00608914 4.54904e-11)
(1.27642 -0.00453559 3.15426e-11)
(1.29092 -0.00219933 2.99015e-11)
(1.29466 0.00057418 3.87998e-11)
(1.2867 0.00334542 5.66518e-11)
(1.26797 0.00568552 8.20134e-11)
(1.24101 0.0072748 1.13311e-10)
(1.20936 0.00795781 1.48612e-10)
(1.17682 0.00774385 1.85496e-10)
(1.14687 0.00676818 2.20788e-10)
(1.12218 0.00524263 2.50211e-10)
(1.10449 0.00341247 2.68703e-10)
(1.09451 0.00151952 2.71889e-10)
(1.09203 -0.000229192 2.58001e-10)
(1.0961 -0.00167955 2.28898e-10)
(1.10529 -0.00273139 1.89527e-10)
(1.11787 -0.00332861 1.46322e-10)
(1.13192 -0.00345041 1.05495e-10)
(1.14554 -0.00310955 7.18635e-11)
(1.15691 -0.00235372 4.83758e-11)
(1.16449 -0.00126352 3.61166e-11)
(1.16711 5.53446e-05 3.44745e-11)
(1.16413 0.00148001 4.11734e-11)
(1.15533 0.00287458 5.21872e-11)
(1.1412 0.00408739 6.2035e-11)
(1.12265 0.00495875 6.51431e-11)
(1.10163 0.00534513 5.82931e-11)
(1.07984 0.0051747 4.26719e-11)
(1.06043 0.0044738 2.34882e-11)
(1.04377 0.0034055 6.9356e-12)
(1.03369 0.00214453 -3.11444e-12)
(1.02574 0.00105514 -6.77266e-12)
(1.02671 -0.000275403 -4.47526e-12)
(1.00011 -0.000645466 5.79649e-20)
(1.00165 -0.00191146 6.09893e-19)
(1.00508 -0.00324035 1.18358e-18)
(1.01028 -0.00468807 1.73464e-18)
(1.01753 -0.00628497 2.43637e-18)
(1.02703 -0.00798291 3.1499e-18)
(1.0389 -0.0096633 3.52034e-18)
(1.05301 -0.0110755 4.44191e-18)
(1.0688 -0.0119391 3.15294e-18)
(1.08536 -0.0119561 2.39759e-18)
(1.10125 -0.0109411 3.65378e-18)
(1.11508 -0.00909888 6.22756e-18)
(1.12592 -0.00657847 4.77738e-18)
(1.13296 -0.00349739 3.39682e-18)
(1.13551 7.79914e-05 3.29913e-18)
(1.13289 0.00406674 4.18633e-18)
(1.12457 0.00807642 5.27282e-18)
(1.11089 0.0114368 6.30745e-18)
(1.09324 0.0134933 7.07707e-18)
(1.07382 0.0138123 6.99775e-18)
(1.05523 0.0122354 4.99369e-18)
(1.04009 0.00886805 5.36514e-18)
(1.03071 0.00407604 3.61761e-18)
(1.02875 -0.00148748 -6.34638e-17)
(1.03482 -0.00681101 -4.26898e-17)
(1.04781 -0.0105583 5.34258e-16)
(1.06452 -0.0114547 8.71615e-16)
(1.08016 -0.00896931 4.72967e-16)
(1.08993 -0.00377221 1.36306e-16)
(1.09094 0.00255694 7.22198e-17)
(1.08296 0.00832606 1.06058e-17)
(1.0679 0.0123801 -4.25576e-16)
(1.04873 0.0142184 3.796e-16)
(1.02864 0.0137676 5.30744e-15)
(1.01067 0.0111247 -5.06084e-15)
(0.997715 0.00645145 -8.3634e-14)
(0.992442 6.79359e-05 -8.72013e-14)
(0.997027 -0.00728201 9.34529e-13)
(1.01225 -0.014151 4.40697e-12)
(1.03625 -0.0185347 9.24728e-12)
(1.06402 -0.0186795 1.12912e-11)
(1.08859 -0.0141335 8.78763e-12)
(1.10359 -0.00618406 4.52523e-12)
(1.10577 0.00276905 1.42747e-12)
(1.09568 0.0103909 7.63541e-14)
(1.0767 0.0152936 -2.02167e-13)
(1.0532 0.0171347 -1.29215e-13)
(1.02932 0.0161749 -5.0279e-15)
(1.00853 0.0127878 1.61665e-13)
(0.993845 0.00724336 7.87064e-14)
(0.988104 -0.000137826 -1.53418e-12)
(0.99367 -0.00855732 -6.95884e-12)
(1.01134 -0.0163837 -1.77618e-11)
(1.03896 -0.0213718 -3.09894e-11)
(1.07091 -0.021582 -3.92148e-11)
(1.09939 -0.0164847 -3.73822e-11)
(1.11714 -0.00743146 -2.73781e-11)
(1.12016 0.00291913 -1.47323e-11)
(1.10885 0.0118122 -4.87089e-12)
(1.08708 0.0174737 -2.47446e-13)
(1.06022 0.0194366 -3.14926e-13)
(1.03329 0.0181313 -2.27436e-12)
(1.01017 0.0142231 1.45574e-12)
(0.993859 0.00819428 2.61917e-11)
(0.986955 0.000418825 9.14347e-11)
(0.99165 -0.00836466 2.0846e-10)
(1.00878 -0.0166455 3.66623e-10)
(1.03652 -0.0223071 5.32571e-10)
(1.06979 -0.0234187 6.62245e-10)
(1.10122 -0.0191962 7.15159e-10)
(1.12336 -0.010514 6.69638e-10)
(1.13112 0.000357591 5.37078e-10)
(1.12329 0.0106128 3.58905e-10)
(1.1026 0.0179384 1.86331e-10)
(1.07434 0.0212141 5.91281e-11)
(1.04444 0.0205546 -6.33281e-12)
(1.01782 0.0167623 -1.19957e-11)
(0.998091 0.0106438 3.47451e-11)
(0.987995 0.0027567 1.27183e-10)
(0.989787 -0.00622993 2.55537e-10)
(1.00456 -0.0150253 4.02326e-10)
(1.03093 -0.021722 5.45917e-10)
(1.06444 -0.0244541 6.68292e-10)
(1.09831 -0.022251 7.57681e-10)
(1.12544 -0.0154937 8.04114e-10)
(1.14041 -0.00574383 7.95304e-10)
(1.1407 0.00482849 7.20244e-10)
(1.12694 0.0140699 5.79148e-10)
(1.10234 0.0203431 3.93456e-10)
(1.07177 0.0228183 2.06773e-10)
(1.04052 0.0215077 6.9437e-11)
(1.01338 0.016974 1.43627e-11)
(0.994262 0.00990652 4.2993e-11)
(0.986335 0.00100216 1.31109e-10)
(0.991819 -0.0087155 2.45575e-10)
(1.01101 -0.0176201 3.5804e-10)
(1.04131 -0.0237543 4.50957e-10)
(1.07729 -0.0255692 5.1766e-10)
(1.112 -0.022603 5.59264e-10)
(1.13893 -0.0156662 5.80194e-10)
(1.15371 -0.00648221 5.83503e-10)
(1.15489 0.00295285 5.67106e-10)
(1.14375 0.0109477 5.22876e-10)
(1.12343 0.0164171 4.42096e-10)
(1.09799 0.0188624 3.27539e-10)
(1.07169 0.0181858 2.02461e-10)
(1.04865 0.014524 1.03621e-10)
(1.03274 0.00822125 6.01807e-11)
(1.0273 -1.6245e-05 7.71312e-11)
(1.0344 -0.00891918 1.36987e-10)
(1.05381 -0.0167255 2.14151e-10)
(1.08245 -0.0216678 2.87936e-10)
(1.115 -0.0226385 3.47246e-10)
(1.14538 -0.0196181 3.89002e-10)
(1.16847 -0.0136417 4.14805e-10)
(1.18136 -0.00638812 4.28334e-10)
(1.18375 0.000369496 4.33751e-10)
(1.17769 0.00523822 4.34266e-10)
(1.16667 0.00747742 4.30542e-10)
(1.15463 0.00702179 4.1982e-10)
(1.14515 0.00429731 3.97179e-10)
(1.14093 -4.72453e-05 3.58976e-10)
(1.14375 -0.00532668 3.06165e-10)
(1.15449 -0.0108387 2.44907e-10)
(1.17307 -0.015791 1.84094e-10)
(1.19817 -0.019285 1.31785e-10)
(1.22707 -0.0204544 9.27909e-11)
(1.25589 -0.0187187 6.82889e-11)
(1.28019 -0.0140166 5.68994e-11)
(1.29592 -0.00689964 5.62487e-11)
(1.30029 0.00156309 6.42266e-11)
(1.29232 0.0100243 7.94839e-11)
(1.27303 0.0171729 1.01217e-10)
(1.24513 0.0220312 1.28616e-10)
(1.21238 0.0241258 1.6037e-10)
(1.17874 0.0234905 1.94401e-10)
(1.14782 0.0205453 2.27625e-10)
(1.12236 0.0159405 2.55687e-10)
(1.10407 0.0104212 2.73343e-10)
(1.09363 0.0047145 2.76025e-10)
(1.09082 -0.000563075 2.61889e-10)
(1.09469 -0.00495291 2.32947e-10)
(1.10381 -0.00815281 1.94522e-10)
(1.11644 -0.0099879 1.53448e-10)
(1.13067 -0.0103873 1.16091e-10)
(1.1445 -0.00938302 8.70066e-11)
(1.15605 -0.00711758 6.84646e-11)
(1.16373 -0.00383825 6.06175e-11)
(1.16637 0.000130197 6.19089e-11)
(1.1633 0.00441325 6.93421e-11)
(1.15438 0.0086003 7.8587e-11)
(1.14016 0.0122371 8.44236e-11)
(1.12157 0.014849 8.20732e-11)
(1.10058 0.0160094 6.93986e-11)
(1.07888 0.0155055 4.85938e-11)
(1.0596 0.013413 2.552e-11)
(1.04308 0.0102167 6.57771e-12)
(1.03318 0.00643578 -4.50311e-12)
(1.02534 0.00316021 -8.28442e-12)
(1.02664 -0.000845565 -5.1501e-12)
(1.00011 -0.00106956 5.10181e-22)
(1.00162 -0.0031677 8.28594e-21)
(1.005 -0.00537577 1.10635e-20)
(1.01013 -0.00779287 9.32686e-21)
(1.01734 -0.0104748 -7.99021e-20)
(1.02687 -0.0133455 -2.13949e-20)
(1.0389 -0.0162087 1.23509e-19)
(1.05334 -0.0186337 -1.94898e-18)
(1.06965 -0.0201387 -1.49496e-18)
(1.08686 -0.0201896 9.04742e-18)
(1.10338 -0.0184602 1.10659e-17)
(1.1177 -0.015342 -1.53982e-17)
(1.12891 -0.0110998 -4.61388e-17)
(1.13625 -0.00592853 -4.60726e-17)
(1.13905 9.39571e-05 -2.33101e-17)
(1.13652 0.00687268 -3.55353e-18)
(1.12796 0.0137368 7.18288e-18)
(1.11361 0.0195051 1.20046e-17)
(1.09495 0.0230361 1.42301e-17)
(1.07433 0.023593 7.46991e-18)
(1.05454 0.020918 -1.99823e-18)
(1.03837 0.0151906 7.19836e-17)
(1.02831 0.0070118 -2.37826e-16)
(1.02623 -0.00254243 -1.93413e-15)
(1.03295 -0.0117605 8.21687e-15)
(1.04746 -0.0183109 5.10917e-14)
(1.06628 -0.0199198 8.47021e-14)
(1.08393 -0.0156181 6.2297e-14)
(1.09492 -0.00658726 2.22208e-14)
(1.09602 0.00437075 2.96995e-15)
(1.08718 0.0142898 -2.23063e-15)
(1.07074 0.021202 -4.04575e-15)
(1.05003 0.0243116 1.17792e-14)
(1.02844 0.0235502 4.71341e-14)
(1.0091 0.0191006 -1.26087e-13)
(0.994947 0.0112031 -8.61839e-13)
(0.988875 0.000327152 -1.68138e-13)
(0.993457 -0.0123284 1.12126e-11)
(1.0099 -0.0242802 4.41892e-11)
(1.03638 -0.0319839 8.84985e-11)
(1.06726 -0.0322962 1.0999e-10)
(1.09445 -0.0243961 8.97431e-11)
(1.11072 -0.0105761 4.84006e-11)
(1.11254 0.00490956 1.62889e-11)
(1.1009 0.0179771 1.42278e-12)
(1.07985 0.0262766 -2.20577e-12)
(1.05434 0.0293215 -1.59952e-12)
(1.0287 0.0276487 -1.42074e-13)
(1.00641 0.0219233 1.44657e-12)
(0.990464 0.0125568 2.63018e-13)
(0.983801 -5.47874e-07 -1.52476e-11)
(0.98907 -0.0144644 -6.56147e-11)
(1.00745 -0.0280462 -1.62351e-10)
(1.03704 -0.0368117 -2.77747e-10)
(1.07202 -0.0372948 -3.48043e-10)
(1.10373 -0.0284959 -3.2811e-10)
(1.12372 -0.0127798 -2.35217e-10)
(1.12719 0.00514961 -1.25844e-10)
(1.11462 0.0204491 -4.47256e-11)
(1.09062 0.0300638 -4.76444e-12)
(1.06139 0.0332861 3.84749e-12)
(1.03245 0.0309811 2.22752e-13)
(1.00769 0.0243687 1.10669e-11)
(0.989944 0.0142576 7.15268e-11)
(0.981756 0.00117976 2.10257e-10)
(0.98565 -0.0137358 4.22769e-10)
(1.00298 -0.0279767 6.66469e-10)
(1.03215 -0.0378875 8.93967e-10)
(1.06772 -0.0400624 1.07736e-09)
(1.10162 -0.0330638 1.18899e-09)
(1.12576 -0.0183347 1.18104e-09)
(1.13461 0.000243143 1.01811e-09)
(1.12681 0.0178303 7.30277e-10)
(1.1052 0.03042 4.08435e-10)
(1.07543 0.036076 1.48274e-10)
(1.04379 0.0350209 2.84915e-12)
(1.0155 0.0286648 -2.22873e-11)
(0.994301 0.0183696 5.3484e-11)
(0.983228 0.00499655 2.02823e-10)
(0.985011 -0.0103981 3.9256e-10)
(1.00111 -0.025579 5.85989e-10)
(1.02996 -0.0371425 7.53971e-10)
(1.06632 -0.0417754 8.83862e-10)
(1.10243 -0.0378369 9.76418e-10)
(1.13053 -0.0261275 1.03211e-09)
(1.14512 -0.00946903 1.03673e-09)
(1.14411 0.00839785 9.63062e-10)
(1.12873 0.0238881 7.95567e-10)
(1.10262 0.0343481 5.54829e-10)
(1.07078 0.0384711 3.00751e-10)
(1.03846 0.0362997 1.07538e-10)
(1.01038 0.0287165 2.60584e-11)
(0.990667 0.0167632 6.13279e-11)
(0.982946 0.00152736 1.78599e-10)
(0.989859 -0.0152183 3.27519e-10)
(1.01167 -0.0305448 4.65485e-10)
(1.04516 -0.0409544 5.69214e-10)
(1.08403 -0.0437635 6.34007e-10)
(1.12057 -0.0382779 6.66582e-10)
(1.14788 -0.0260417 6.77111e-10)
(1.16157 -0.010145 6.72272e-10)
(1.16054 0.00593178 6.50005e-10)
(1.14667 0.0193257 5.99362e-10)
(1.12374 0.0282864 5.0819e-10)
(1.09627 0.0320974 3.78189e-10)
(1.06867 0.0306875 2.35768e-10)
(1.0451 0.0242906 1.2367e-10)
(1.02953 0.0134155 7.58983e-11)
(1.02555 -0.000796443 9.78125e-11)
(1.03533 -0.0161372 1.6793e-10)
(1.05828 -0.0294689 2.55426e-10)
(1.09055 -0.0376746 3.36189e-10)
(1.12594 -0.0388863 3.98288e-10)
(1.15777 -0.0331964 4.39382e-10)
(1.18074 -0.0225173 4.62107e-10)
(1.19212 -0.00981286 4.70872e-10)
(1.19199 0.0018636 4.70387e-10)
(1.18284 0.0101647 4.64708e-10)
(1.16861 0.0138832 4.55593e-10)
(1.15361 0.0129646 4.40994e-10)
(1.14166 0.00816996 4.15963e-10)
(1.13565 0.000601774 3.76387e-10)
(1.13756 -0.0086052 3.23036e-10)
(1.1485 -0.0182813 2.62596e-10)
(1.16852 -0.0270594 2.04831e-10)
(1.19619 -0.033337 1.58209e-10)
(1.22833 -0.0355483 1.2691e-10)
(1.26044 -0.0326486 1.10469e-10)
(1.28749 -0.0245408 1.05426e-10)
(1.30502 -0.0122253 1.07674e-10)
(1.31007 0.00240298 1.1437e-10)
(1.30171 0.0169954 1.24649e-10)
(1.28114 0.0292864 1.39101e-10)
(1.25138 0.0375997 1.58613e-10)
(1.21652 0.041143 1.83251e-10)
(1.18087 0.0400088 2.1168e-10)
(1.14825 0.0349535 2.40933e-10)
(1.12149 0.0271159 2.66334e-10)
(1.10227 0.0177731 2.82123e-10)
(1.09122 0.0081447 2.83306e-10)
(1.08804 -0.00075393 2.68036e-10)
(1.09176 -0.0081733 2.38884e-10)
(1.10097 -0.0136109 2.02057e-10)
(1.1139 -0.0167597 1.65076e-10)
(1.12854 -0.0174776 1.3435e-10)
(1.1428 -0.0158016 1.13709e-10)
(1.15466 -0.0119709 1.04134e-10)
(1.16241 -0.0064195 1.04241e-10)
(1.16487 0.000278842 1.10957e-10)
(1.16145 0.00747071 1.20039e-10)
(1.1521 0.0144562 1.26501e-10)
(1.1375 0.0204809 1.25381e-10)
(1.11871 0.024771 1.13175e-10)
(1.09772 0.0266383 8.97131e-11)
(1.07621 0.0257445 5.91855e-11)
(1.05728 0.0222249 2.88273e-11)
(1.04117 0.0168729 5.50502e-12)
(1.03181 0.0105695 -7.33086e-12)
(1.02436 0.00506937 -1.11669e-11)
(1.02648 -0.00157266 -6.20775e-12)
(1.00011 -0.00148404 -4.95007e-20)
(1.00157 -0.00439504 -6.97088e-19)
(1.00485 -0.00747151 -1.29325e-18)
(1.00988 -0.0108633 -2.07313e-18)
(1.01701 -0.0146606 -3.37763e-18)
(1.02658 -0.0187663 -2.19876e-18)
(1.03883 -0.0229094 -9.11367e-18)
(1.05378 -0.0264596 -1.29983e-17)
(1.07088 -0.0287117 3.49575e-17)
(1.08913 -0.0288312 3.27868e-17)
(1.10661 -0.0263252 -1.38209e-16)
(1.12166 -0.0218591 -3.62122e-16)
(1.13343 -0.0158461 -4.43293e-16)
(1.14123 -0.00857015 -2.88552e-16)
(1.14444 -8.2794e-05 -5.85996e-17)
(1.14211 0.00959692 6.14132e-17)
(1.13318 0.0195253 8.55235e-17)
(1.11776 0.0279359 7.09452e-17)
(1.0975 0.0331224 4.0578e-17)
(1.07502 0.0340039 -4.64567e-17)
(1.05338 0.0302089 1.51832e-17)
(1.03563 0.0219832 2.50849e-16)
(1.02451 0.0101483 -3.07557e-15)
(1.02223 -0.00380816 -2.76444e-15)
(1.02996 -0.0174313 4.86856e-14)
(1.04686 -0.0272326 1.52147e-13)
(1.06901 -0.0297 2.62153e-13)
(1.08984 -0.0232892 2.63269e-13)
(1.10273 -0.00980548 1.34007e-13)
(1.1039 0.00644294 2.97366e-14)
(1.09363 0.0209774 -1.39676e-14)
(1.07496 0.0309564 -1.40844e-14)
(1.05184 0.0353632 8.15682e-14)
(1.02796 0.0342318 1.03333e-13)
(1.00653 0.0278731 -8.79253e-13)
(0.990579 0.0165654 -2.4384e-12)
(0.98329 0.000822149 4.19247e-12)
(0.987881 -0.0177817 3.51301e-11)
(1.00627 -0.0356121 8.85278e-11)
(1.03672 -0.0472288 1.44001e-10)
(1.07259 -0.047731 1.83672e-10)
(1.10399 -0.035861 1.80106e-10)
(1.12214 -0.0152055 1.2431e-10)
(1.12319 0.00770501 5.77878e-11)
(1.10888 0.026747 1.33172e-11)
(1.08444 0.0385728 -4.65418e-12)
(1.05573 0.0427045 -6.10301e-12)
(1.02743 0.0401329 -8.81796e-13)
(1.00295 0.0319036 5.20694e-12)
(0.985082 0.0185511 -3.98543e-12)
(0.976684 0.000572209 -7.49972e-11)
(0.980673 -0.0203647 -2.73865e-10)
(0.998969 -0.040363 -6.17568e-10)
(1.03046 -0.0536743 -1.00348e-09)
(1.0694 -0.0549522 -1.24247e-09)
(1.10608 -0.0423387 -1.19629e-09)
(1.13031 -0.0191453 -8.95306e-10)
(1.13572 0.00749452 -5.09768e-10)
(1.12228 0.0301131 -2.01877e-10)
(1.09547 0.0440805 -3.47623e-11)
(1.06286 0.048512 1.65127e-11)
(1.03087 0.044974 1.761e-11)
(1.00362 0.0354713 4.31527e-11)
(0.98368 0.0211675 1.52978e-10)
(0.973686 0.00257821 3.55143e-10)
(0.976864 -0.0189643 5.8996e-10)
(0.995362 -0.0398914 7.84723e-10)
(1.02751 -0.0546893 9.28736e-10)
(1.06683 -0.0581748 1.07044e-09)
(1.10392 -0.0482174 1.24066e-09)
(1.12996 -0.0269887 1.38152e-09)
(1.13936 -0.000141542 1.36518e-09)
(1.13098 0.0253359 1.11896e-09)
(1.1079 0.0436288 7.14451e-10)
(1.07607 0.0519069 3.12253e-10)
(1.04215 0.0505086 4.96617e-11)
(1.01163 0.0415011 -2.12594e-11)
(0.988598 0.0267798 7.60024e-11)
(0.976673 0.00741184 2.7859e-10)
(0.979306 -0.0151566 5.15853e-10)
(0.998197 -0.0374965 7.33558e-10)
(1.03112 -0.0543383 9.05563e-10)
(1.07155 -0.0607063 1.02878e-09)
(1.11054 -0.0543636 1.11206e-09)
(1.1396 -0.0368236 1.16573e-09)
(1.15319 -0.0125116 1.18519e-09)
(1.14977 0.0130459 1.13793e-09)
(1.13144 0.0348268 9.83824e-10)
(1.10262 0.049311 7.21734e-10)
(1.06864 0.0548868 4.15157e-10)
(1.03472 0.0516963 1.65335e-10)
(1.00552 0.0408629 5.15716e-11)
(0.985422 0.0236276 8.80971e-11)
(0.978617 0.00141779 2.27572e-10)
(0.988061 -0.023065 3.99258e-10)
(1.01361 -0.0452709 5.479e-10)
(1.05107 -0.0599471 6.49652e-10)
(1.09311 -0.0632894 7.05606e-10)
(1.13142 -0.0545355 7.28061e-10)
(1.15886 -0.0361581 7.30682e-10)
(1.17111 -0.0127968 7.22605e-10)
(1.16732 0.0104198 7.0264e-10)
(1.14993 0.0293546 6.56701e-10)
(1.12348 0.0416134 5.66391e-10)
(1.09312 0.0463888 4.29211e-10)
(1.06364 0.0437613 2.73838e-10)
(1.03938 0.0340879 1.50294e-10)
(1.02454 0.0179969 9.84758e-11)
(1.02295 -0.00290736 1.23608e-10)
(1.03665 -0.025279 1.99502e-10)
(1.06428 -0.0443404 2.90806e-10)
(1.10079 -0.0555062 3.71875e-10)
(1.13896 -0.0562536 4.31746e-10)
(1.17167 -0.0470196 4.69775e-10)
(1.1937 -0.0308096 4.89716e-10)
(1.20272 -0.0120014 4.96166e-10)
(1.19926 0.00501792 4.93495e-10)
(1.18627 0.016933 4.85568e-10)
(1.16814 0.0220893 4.74338e-10)
(1.14956 0.0204901 4.58012e-10)
(1.13465 0.0132739 4.31543e-10)
(1.1266 0.00200445 3.90671e-10)
(1.12775 -0.011749 3.3674e-10)
(1.13957 -0.0263196 2.77959e-10)
(1.16216 -0.0396357 2.25667e-10)
(1.19362 -0.0491968 1.88717e-10)
(1.22995 -0.0525923 1.69944e-10)
(1.26577 -0.0483024 1.66278e-10)
(1.29551 -0.0363005 1.71374e-10)
(1.31455 -0.0181766 1.78841e-10)
(1.31996 0.00323493 1.84745e-10)
(1.31092 0.0245038 1.88644e-10)
(1.2888 0.0423457 1.92939e-10)
(1.25687 0.05434 2.01e-10)
(1.21958 0.0593664 2.15129e-10)
(1.1816 0.0576104 2.35309e-10)
(1.147 0.050231 2.5882e-10)
(1.11874 0.0389261 2.80415e-10)
(1.0985 0.0255525 2.93409e-10)
(1.08682 0.0118344 2.92152e-10)
(1.08333 -0.000829244 2.74944e-10)
(1.08706 -0.0114158 2.45352e-10)
(1.09659 -0.0192201 2.10824e-10)
(1.11009 -0.0237771 1.79529e-10)
(1.12541 -0.0248419 1.57472e-10)
(1.14026 -0.0224405 1.47222e-10)
(1.15245 -0.0169217 1.48184e-10)
(1.16017 -0.00894441 1.57479e-10)
(1.16224 0.000620202 1.70663e-10)
(1.15818 0.010799 1.82202e-10)
(1.14813 0.0205821 1.8612e-10)
(1.13296 0.0289201 1.77274e-10)
(1.11386 0.0347661 1.5327e-10)
(1.0929 0.0372071 1.16246e-10)
(1.07173 0.0358059 7.30787e-11)
(1.0534 0.0307809 3.30561e-11)
(1.03802 0.0232129 3.87937e-12)
(1.02955 0.0143849 -1.12375e-11)
(1.02279 0.00659067 -1.50332e-11)
(1.02618 -0.00257917 -7.10991e-12)
(1.00011 -0.00188374 -3.48823e-18)
(1.0015 -0.00557841 -1.14422e-17)
(1.00464 -0.00950546 -1.01416e-17)
(1.0095 -0.0138769 -1.26688e-17)
(1.01652 -0.0188301 -1.18723e-17)
(1.02609 -0.0242586 -1.09488e-17)
(1.03864 -0.0298228 -6.52838e-17)
(1.05424 -0.034666 9.84202e-17)
(1.07244 -0.0378276 2.17399e-16)
(1.09214 -0.0380651 -7.28916e-16)
(1.11097 -0.0346764 -1.60006e-15)
(1.12697 -0.0287413 -1.85359e-16)
(1.13945 -0.0208647 2.40736e-15)
(1.14785 -0.0114194 3.32335e-15)
(1.15165 -0.000338444 2.36641e-15)
(1.14965 0.0125386 1.12008e-15)
(1.14029 0.0259502 2.72396e-16)
(1.12346 0.0373742 -1.27893e-16)
(1.101 0.0444217 -4.21872e-16)
(1.07596 0.0456511 -5.2146e-16)
(1.05176 0.0406088 3.40027e-16)
(1.03179 0.0296251 -7.85267e-15)
(1.01914 0.0137186 4.41919e-15)
(1.01645 -0.00526059 1.65593e-13)
(1.02552 -0.0240796 -5.4756e-13)
(1.04577 -0.0378468 -3.92898e-12)
(1.0727 -0.0414276 -6.66017e-12)
(1.09815 -0.0324769 -4.83904e-12)
(1.11373 -0.0135984 -1.60126e-12)
(1.11494 0.0089412 -1.31668e-13)
(1.10252 0.0287742 7.62939e-14)
(1.08065 0.0420982 8.66805e-14)
(1.05417 0.0478068 2.18492e-13)
(1.02717 0.0462005 -5.94782e-13)
(1.00291 0.0377905 -1.88729e-12)
(0.984476 0.022826 6.12913e-12)
(0.975402 0.00168667 1.90485e-11)
(0.97962 -0.0238018 -7.16149e-11)
(0.999833 -0.0486963 -4.50852e-10)
(1.03482 -0.0651598 -1.01647e-09)
(1.07741 -0.0659469 -1.27854e-09)
(1.11549 -0.0491683 -9.7901e-10)
(1.13736 -0.0201508 -4.47173e-10)
(1.1379 0.0115733 -8.47804e-11)
(1.11988 0.037365 3.26217e-11)
(1.09057 0.0528466 2.53531e-11)
(1.05736 0.0578194 2.82104e-12)
(1.02548 0.0540327 1.66225e-12)
(0.998083 0.0430951 9.63423e-12)
(0.977405 0.0256933 -3.33559e-11)
(0.965985 0.00221874 -2.46193e-10)
(0.967402 -0.0255903 -7.36497e-10)
(0.985133 -0.0529369 -1.4568e-09)
(1.01908 -0.0720398 -2.17333e-09)
(1.06295 -0.0751228 -2.60641e-09)
(1.10551 -0.0589555 -2.56934e-09)
(1.13501 -0.0275753 -2.05745e-09)
(1.14357 0.00919318 -1.29235e-09)
(1.13027 0.0405785 -5.89776e-10)
(1.10091 0.0597666 -1.48442e-10)
(1.06443 0.0655755 2.68978e-11)
(1.02858 0.0605909 6.27184e-11)
(0.997965 0.0479604 1.10409e-10)
(0.975159 0.0292279 2.50256e-10)
(0.963303 0.00459893 4.41482e-10)
(0.966759 -0.024563 5.81473e-10)
(0.98827 -0.0533011 6.36745e-10)
(1.02529 -0.0736349 6.75038e-10)
(1.06952 -0.0782851 7.80037e-10)
(1.11001 -0.0646294 9.8588e-10)
(1.13722 -0.0360321 1.25095e-09)
(1.1459 -0.000238146 1.43329e-09)
(1.13565 0.0335811 1.36165e-09)
(1.11017 0.0578717 1.00514e-09)
(1.07575 0.0689386 5.24871e-10)
(1.03918 0.0672317 1.46341e-10)
(1.00617 0.0554319 6.0663e-12)
(0.981302 0.0358466 1.00815e-10)
(0.969052 0.00965212 3.3561e-10)
(0.973607 -0.0211482 6.04199e-10)
(0.996449 -0.0514833 8.42143e-10)
(1.03413 -0.0738317 1.02957e-09)
(1.07871 -0.0815035 1.1661e-09)
(1.12033 -0.0718726 1.25403e-09)
(1.15013 -0.0474439 1.29926e-09)
(1.1625 -0.0145329 1.30822e-09)
(1.15626 0.0192928 1.26511e-09)
(1.1343 0.0474706 1.12487e-09)
(1.10196 0.0657375 8.61718e-10)
(1.06516 0.0724076 5.25533e-10)
(1.02923 0.0678511 2.32588e-10)
(0.998881 0.0533577 8.9251e-11)
(0.97881 0.0302168 1.21272e-10)
(0.973678 0.000220839 2.70664e-10)
(0.986429 -0.0327048 4.49898e-10)
(1.01609 -0.0620511 5.96458e-10)
(1.05727 -0.0807187 6.89876e-10)
(1.10179 -0.0839551 7.37504e-10)
(1.14111 -0.0711638 7.54765e-10)
(1.1682 -0.0458828 7.54992e-10)
(1.17889 -0.0143605 7.46923e-10)
(1.17247 0.0165331 7.30688e-10)
(1.15165 0.0412493 6.91936e-10)
(1.12157 0.0566846 6.07747e-10)
(1.08806 0.0620039 4.70428e-10)
(1.05647 0.0575472 3.08912e-10)
(1.03153 0.0438378 1.79031e-10)
(1.01786 0.0216367 1.25511e-10)
(1.01945 -0.00684296 1.52864e-10)
(1.03787 -0.0367998 2.30881e-10)
(1.07047 -0.061544 3.21349e-10)
(1.11077 -0.0750259 3.98586e-10)
(1.15067 -0.0743335 4.53308e-10)
(1.18296 -0.0605689 4.86646e-10)
(1.20289 -0.0380354 5.0332e-10)
(1.2087 -0.0125814 5.07978e-10)
(1.20146 0.0100907 5.04533e-10)
(1.18448 0.0257221 4.96291e-10)
(1.16247 0.0322322 4.84813e-10)
(1.1404 0.0297019 4.67926e-10)
(1.12269 0.0196462 4.40139e-10)
(1.11295 0.0040531 3.97343e-10)
(1.11407 -0.0150868 3.42449e-10)
(1.12784 -0.0354847 2.86317e-10)
(1.15406 -0.0540884 2.42325e-10)
(1.1898 -0.0672407 2.19159e-10)
(1.22993 -0.0716335 2.17184e-10)
(1.26838 -0.0654395 2.29816e-10)
(1.29953 -0.0489349 2.47559e-10)
(1.31905 -0.0244442 2.61916e-10)
(1.32432 0.00423004 2.67961e-10)
(1.31463 0.032587 2.65462e-10)
(1.29137 0.0563115 2.58401e-10)
(1.25786 0.0721982 2.52819e-10)
(1.21871 0.0787616 2.5386e-10)
(1.17885 0.0762828 2.63501e-10)
(1.14263 0.0663733 2.79613e-10)
(1.11313 0.0513604 2.96255e-10)
(1.09208 0.0337339 3.05464e-10)
(1.07995 0.0157348 3.00763e-10)
(1.07638 -0.000872084 2.80822e-10)
(1.0804 -0.0148019 2.50599e-10)
(1.09057 -0.0251248 2.18924e-10)
(1.10491 -0.031174 1.94287e-10)
(1.12106 -0.0325678 1.81674e-10)
(1.13649 -0.02932 1.81885e-10)
(1.14887 -0.0219229 1.92693e-10)
(1.15635 -0.011315 2.10204e-10)
(1.15781 0.00127897 2.29342e-10)
(1.15291 0.0145228 2.43764e-10)
(1.14201 0.0270765 2.46349e-10)
(1.12619 0.0376065 2.31078e-10)
(1.1068 0.0448273 1.95935e-10)
(1.08601 0.0476488 1.45084e-10)
(1.06542 0.045572 8.83616e-11)
(1.04799 0.0389289 3.76364e-11)
(1.03367 0.0290663 1.88246e-12)
(1.02642 0.0177176 -1.56694e-11)
(1.02063 0.00755112 -1.91648e-11)
(1.02561 -0.00396925 -6.69831e-12)
(1.0001 -0.00226256 3.29772e-18)
(1.0014 -0.00669965 1.1724e-17)
(1.00435 -0.0114501 1.10526e-17)
(1.00898 -0.0168032 7.27495e-18)
(1.0158 -0.022961 5.29617e-17)
(1.02534 -0.0298268 -9.45023e-17)
(1.03819 -0.037003 9.68289e-17)
(1.05463 -0.0433745 7.81848e-16)
(1.07426 -0.0476842 -1.82503e-15)
(1.09592 -0.0481081 -4.00758e-15)
(1.1165 -0.043674 3.58516e-15)
(1.13371 -0.0361045 2.29127e-14)
(1.14706 -0.0262764 4.33094e-14)
(1.15622 -0.0146841 4.47647e-14)
(1.16089 -0.00103899 2.64342e-14)
(1.15946 0.0152451 9.17692e-15)
(1.14959 0.0326042 -4.82651e-16)
(1.13085 0.0475618 -4.04626e-15)
(1.10544 0.0568563 -5.23021e-15)
(1.077 0.0586085 -8.70097e-16)
(1.04945 0.0522808 -7.53005e-15)
(1.02656 0.0382924 -6.37062e-14)
(1.0118 0.0178212 2.63311e-13)
(1.00844 -0.00698971 6.74035e-13)
(1.01913 -0.0320887 -4.86003e-12)
(1.04386 -0.0508393 -1.98927e-11)
(1.07738 -0.055912 -3.41742e-11)
(1.10922 -0.043804 -3.17447e-11)
(1.12847 -0.0181698 -1.55075e-11)
(1.12958 0.0120791 -3.48171e-12)
(1.11412 0.0381333 5.23326e-13)
(1.08789 0.0551315 1.00119e-12)
(1.05699 0.0620995 -2.582e-13)
(1.02599 0.0598576 -3.73925e-12)
(0.99815 0.0492196 8.18304e-12)
(0.976512 0.0303238 5.57171e-11)
(0.964707 0.00326529 -3.98735e-11)
(0.966807 -0.0299738 -8.7598e-10)
(0.986275 -0.0631998 -2.95159e-09)
(1.0238 -0.0860345 -5.60007e-09)
(1.0736 -0.0880986 -7.08425e-09)
(1.12181 -0.065849 -6.22992e-09)
(1.15199 -0.0263934 -3.7566e-09)
(1.15501 0.016474 -1.42819e-09)
(1.13371 0.050424 -1.88385e-10)
(1.09837 0.0698261 1.41211e-10)
(1.05926 0.0752404 1.02921e-10)
(1.02278 0.069764 3.98361e-11)
(0.991655 0.0559383 8.84537e-12)
(0.967088 0.0346056 -1.31893e-10)
(0.951531 0.00558783 -6.00155e-10)
(0.950335 -0.029925 -1.46423e-09)
(0.969168 -0.0662059 -2.47547e-09)
(1.00794 -0.0926027 -3.26484e-09)
(1.0581 -0.0981889 -3.66031e-09)
(1.10622 -0.0783635 -3.64479e-09)
(1.13965 -0.0381401 -3.16417e-09)
(1.15043 0.00990116 -2.25179e-09)
(1.13725 0.0514598 -1.20934e-09)
(1.10572 0.0769925 -4.1056e-10)
(1.06548 0.0846586 -5.24384e-12)
(1.02542 0.0781946 1.29186e-10)
(0.99083 0.06218 2.06566e-10)
(0.964874 0.0385013 3.22562e-10)
(0.951795 0.00678959 4.13854e-10)
(0.957087 -0.0314361 4.20442e-10)
(0.983218 -0.0691575 4.15979e-10)
(1.02589 -0.0953345 5.12835e-10)
(1.07495 -0.100556 7.23335e-10)
(1.11836 -0.0820746 9.83417e-10)
(1.1462 -0.0449232 1.24681e-09)
(1.15339 0.00066798 1.46095e-09)
(1.1403 0.0432167 1.48968e-09)
(1.11156 0.0735767 1.21775e-09)
(1.07402 0.08739 7.28845e-10)
(1.03458 0.0852844 2.7211e-10)
(0.999108 0.070432 6.02599e-11)
(0.972753 0.0453401 1.30327e-10)
(0.960936 0.0112713 3.75524e-10)
(0.968253 -0.0288411 6.66572e-10)
(0.99538 -0.0677554 9.30124e-10)
(1.03735 -0.0954867 1.14648e-09)
(1.08508 -0.103833 1.31396e-09)
(1.12833 -0.0900868 1.42665e-09)
(1.15836 -0.0579041 1.47737e-09)
(1.16965 -0.0155642 1.46904e-09)
(1.16102 0.0271634 1.40181e-09)
(1.13571 0.0619809 1.24742e-09)
(1.09983 0.0838667 9.74655e-10)
(1.06002 0.0912334 6.18535e-10)