/*--------------------------------*- C++ -*----------------------------------*\
  =========                 |
  \\      /  F ield         | OpenFOAM: The Open Source CFD Toolbox
   \\    /   O peration     | Website:  https://openfoam.org
    \\  /    A nd           | Version:  11
     \\/     M anipulation  |
\*---------------------------------------------------------------------------*/
FoamFile
{
    format      ascii;
    class       volVectorField;
    location    "0.201106";
    object      U_0;
}
// * * * * * * * * * * * * * * * * * * * * * * * * * * * * * * * * * * * * * //

dimensions      [0 1 -1 0 0 0 0];

internalField   nonuniform List<vector> 
7132
(
(1.00011 -0.000192559 2.5276e-18)
(1.00147 -0.000594753 1.07154e-17)
(1.00478 -0.00112422 1.54093e-17)
(1.0105 -0.00174189 2.33373e-17)
(1.0187 -0.00224233 2.92944e-17)
(1.02846 -0.00248052 2.86785e-17)
(1.03858 -0.00246157 2.65028e-17)
(1.04824 -0.00224432 2.18214e-17)
(1.05665 -0.00181427 1.35936e-17)
(1.06292 -0.00115845 4.73834e-18)
(1.06602 -0.000283331 -1.10101e-18)
(1.06529 0.000606709 -2.93805e-18)
(1.06113 0.00132928 -2.22119e-18)
(1.05457 0.00177908 -1.60212e-18)
(1.04678 0.00195961 -2.74946e-18)
(1.03878 0.00192486 -3.40375e-18)
(1.03129 0.0017505 -1.47984e-18)
(1.02471 0.00150722 2.25977e-18)
(1.01919 0.00124683 3.81525e-18)
(1.01471 0.00100141 3.91044e-18)
(1.01116 0.000786872 3.45971e-18)
(1.00841 0.00060826 2.76161e-18)
(1.0063 0.000464454 2.08859e-18)
(1.00469 0.000351381 1.84819e-18)
(1.00349 0.000263982 1.30403e-18)
(1.00258 0.000197275 1.00054e-19)
(1.00191 0.000146833 -3.76492e-19)
(1.00141 0.000108956 -6.14213e-19)
(1.00104 8.0662e-05 -4.60577e-20)
(1.00077 5.96108e-05 8.99646e-19)
(1.00057 4.39948e-05 1.27449e-18)
(1.00042 3.2437e-05 4.18036e-19)
(1.00031 2.38973e-05 -3.3422e-19)
(1.00023 1.75959e-05 -5.5643e-20)
(1.00017 1.29506e-05 1.21932e-19)
(1.00012 9.52885e-06 4.9369e-19)
(1.00009 7.00973e-06 -8.64263e-20)
(1.00007 5.15595e-06 -5.40218e-19)
(1.00005 3.79221e-06 -7.73589e-20)
(1.00004 2.78922e-06 1.49834e-19)
(1.00003 2.05168e-06 5.09732e-19)
(1.00002 1.50941e-06 -7.56286e-20)
(1.00001 1.11073e-06 -5.25458e-19)
(1.00001 8.17657e-07 -7.16862e-20)
(1.00001 6.02208e-07 1.43123e-19)
(1.00001 4.4383e-07 4.99975e-19)
(1 3.27399e-07 -7.78159e-20)
(1 2.41805e-07 -5.45142e-19)
(1 1.78872e-07 -2.55661e-21)
(1 1.32599e-07 -1.60333e-19)
(1 9.85654e-08 -1.27971e-18)
(1 7.35325e-08 -1.54611e-18)
(1 5.51093e-08 -7.33142e-19)
(1 4.1549e-08 -1.72684e-19)
(1 3.15572e-08 3.08244e-19)
(1 2.41933e-08 -1.82603e-19)
(1 1.87553e-08 -5.2594e-19)
(1 1.47382e-08 2.28732e-20)
(1 1.17608e-08 2.59481e-19)
(1 9.55303e-09 4.67194e-19)
(1 7.90623e-09 -1.90818e-19)
(1 6.67657e-09 -4.77293e-19)
(1 5.7487e-09 -3.5146e-19)
(1 5.04743e-09 -9.39097e-19)
(1 4.5082e-09 -2.98672e-19)
(1 4.0924e-09 9.21211e-20)
(1 3.7631e-09 2.59934e-19)
(1 3.50173e-09 4.09707e-19)
(1 3.28661e-09 -4.70255e-19)
(1 3.1097e-09 -1.57058e-19)
(1 2.95754e-09 6.42437e-20)
(1 2.82767e-09 2.06725e-19)
(1 2.71144e-09 3.79404e-19)
(1 2.60926e-09 -4.84369e-19)
(1 2.51509e-09 -1.66997e-19)
(1 2.43061e-09 5.65542e-20)
(1 2.35139e-09 2.06207e-19)
(1 2.27954e-09 3.88161e-19)
(1 2.21135e-09 -4.72041e-19)
(1 2.14864e-09 -1.58736e-19)
(1 2.08791e-09 5.78516e-20)
(1 2.0307e-09 2.02324e-19)
(1 1.97412e-09 3.829e-19)
(1 1.91986e-09 -4.75478e-19)
(1 1.8659e-09 -1.61205e-19)
(1 1.81404e-09 5.35237e-20)
(1 1.7627e-09 1.97539e-19)
(1 1.71346e-09 3.81983e-19)
(1 1.66497e-09 -4.71555e-19)
(1 1.6185e-09 -1.55663e-19)
(1 1.57294e-09 7.32237e-20)
(1 1.52932e-09 1.07153e-19)
(1 1.48665e-09 8.92927e-19)
(1 1.44566e-09 3.43686e-19)
(1 1.40551e-09 3.85132e-20)
(1 1.36675e-09 -1.1364e-19)
(1 1.32877e-09 -3.3912e-19)
(1 1.29204e-09 4.29184e-19)
(1 1.2561e-09 5.40865e-20)
(1 1.22128e-09 -6.01809e-20)
(1 1.18724e-09 -1.12057e-19)
(1 1.15423e-09 -3.17993e-19)
(1 1.12204e-09 4.39837e-19)
(1 1.0908e-09 5.49718e-20)
(1 1.06033e-09 -6.21062e-20)
(1 1.03065e-09 -1.13104e-19)
(1 1.00161e-09 -3.18122e-19)
(1 9.73171e-10 4.39286e-19)
(1 9.45298e-10 5.38148e-20)
(1 9.17968e-10 -6.27549e-20)
(1 8.91212e-10 -1.12682e-19)
(1 8.65012e-10 -3.17469e-19)
(1 8.39413e-10 4.38749e-19)
(1 8.14347e-10 5.16376e-20)
(1 7.89839e-10 -6.57005e-20)
(1 7.65811e-10 -1.15343e-19)
(1 7.42293e-10 -3.18207e-19)
(1 7.19233e-10 4.35928e-19)
(1 6.96661e-10 7.5936e-20)
(1 6.7454e-10 -1.69087e-19)
(1 6.52879e-10 3.66278e-19)
(1 6.31662e-10 4.37608e-19)
(1 6.10871e-10 5.2703e-19)
(1 5.90525e-10 -1.67112e-19)
(1 5.70579e-10 -5.82578e-19)
(1 5.51083e-10 -3.54613e-21)
(1 5.31952e-10 2.39944e-19)
(1 5.13271e-10 4.78764e-19)
(1 4.9492e-10 -1.53635e-19)
(1 4.77019e-10 -5.66298e-19)
(1 4.59411e-10 1.7239e-21)
(1 4.42252e-10 2.39445e-19)
(1 4.25344e-10 4.77457e-19)
(1 4.08875e-10 -1.54356e-19)
(1 3.92602e-10 -5.66572e-19)
(1 3.76752e-10 1.55383e-21)
(1 3.6104e-10 2.39496e-19)
(1 3.45723e-10 4.78129e-19)
(1 3.3048e-10 -1.53117e-19)
(1 3.15617e-10 -5.65389e-19)
(1 3.00795e-10 2.15358e-21)
(1 2.86375e-10 2.39575e-19)
(1 2.72e-10 4.78083e-19)
(1 2.58059e-10 -1.53023e-19)
(1 2.44145e-10 -5.65211e-19)
(1 2.3066e-10 2.12706e-21)
(1 2.17171e-10 2.39206e-19)
(1 2.04122e-10 4.77581e-19)
(1 1.91079e-10 -1.53365e-19)
(1 1.78511e-10 -5.6531e-19)
(1 1.65987e-10 2.11976e-21)
(1 1.53939e-10 2.3912e-19)
(1 1.41999e-10 4.77395e-19)
(1 1.30488e-10 -1.53535e-19)
(1 1.19345e-10 -5.65322e-19)
(1 1.08232e-10 1.58774e-21)
(1 9.86165e-11 2.42412e-19)
(1 8.61439e-11 4.57022e-19)
(1 8.26849e-11 -4.18929e-20)
(1 6.1285e-11 -1.14054e-18)
(1.00011 -0.000576891 -2.0536e-20)
(1.00147 -0.00178128 5.42819e-19)
(1.00477 -0.00336699 1.89339e-18)
(1.01047 -0.00522295 3.32842e-18)
(1.01866 -0.00673672 4.05857e-18)
(1.02846 -0.0074712 4.3677e-18)
(1.03871 -0.00743619 4.12558e-18)
(1.04858 -0.00680161 4.37707e-18)
(1.05724 -0.00551669 2.87332e-18)
(1.06377 -0.00353441 -2.04159e-19)
(1.06701 -0.000866957 -4.24165e-18)
(1.06622 0.00184606 -6.68137e-18)
(1.06186 0.00403998 -7.21789e-18)
(1.05502 0.00539413 -5.75374e-18)
(1.04699 0.00592944 -4.60502e-18)
(1.0388 0.0058149 -3.46323e-18)
(1.03119 0.00528097 -1.63022e-18)
(1.02455 0.00454125 2.71572e-19)
(1.01901 0.00375199 1.1807e-18)
(1.01454 0.00300996 1.07627e-18)
(1.01101 0.00236274 6.80102e-19)
(1.00828 0.00182492 4.59051e-19)
(1.0062 0.00139258 3.59978e-19)
(1.00461 0.00105303 2.5933e-19)
(1.00343 0.000790813 1.56141e-19)
(1.00254 0.000590804 5.26119e-20)
(1.00188 0.00043964 -2.64703e-20)
(1.00138 0.000326173 -5.05097e-20)
(1.00102 0.000241439 -1.64329e-19)
(1.00075 0.000178409 5.5377e-19)
(1.00055 0.000131661 4.2073e-19)
(1.00041 9.70649e-05 -1.02775e-18)
(1.0003 7.15059e-05 -8.13872e-19)
(1.00022 5.26472e-05 -6.99018e-19)
(1.00016 3.87458e-05 8.00203e-20)
(1.00012 2.85061e-05 1.29059e-18)
(1.00009 2.09678e-05 2.18154e-19)
(1.00006 1.54207e-05 -3.04072e-19)
(1.00005 1.13399e-05 -6.43999e-19)
(1.00003 8.33871e-06 -1.42551e-19)
(1.00003 6.13182e-06 1.02538e-18)
(1.00002 4.50924e-06 7.24468e-20)
(1.00001 3.31637e-06 -3.23659e-19)
(1.00001 2.43948e-06 -6.12915e-19)
(1.00001 1.79488e-06 -1.16839e-19)
(1.00001 1.32106e-06 1.0305e-18)
(1 9.72763e-07 7.62716e-20)
(1 7.16741e-07 -3.61898e-19)
(1 5.28533e-07 -4.24116e-19)
(1 3.90174e-07 -1.04142e-18)
(1 2.88447e-07 -3.58616e-19)
(1 2.13648e-07 -3.22076e-20)
(1 1.58634e-07 9.64403e-20)
(1 1.18168e-07 2.55803e-19)
(1 8.83872e-08 -4.79084e-19)
(1 6.6467e-08 -5.40334e-20)
(1 5.03173e-08 8.37273e-20)
(1 3.8416e-08 1.45325e-19)
(1 2.96298e-08 2.9102e-19)
(1 2.31398e-08 -4.57588e-19)
(1 1.8331e-08 -4.29024e-20)
(1 1.4765e-08 5.69261e-20)
(1 1.21069e-08 2.75004e-19)
(1 1.01233e-08 -3.75236e-19)
(1 8.63016e-09 -2.6938e-19)
(1 7.50442e-09 1.20467e-18)
(1 6.6438e-09 3.12494e-19)
(1 5.98443e-09 1.66464e-19)
(1 5.46842e-09 -7.20245e-19)
(1 5.06369e-09 -6.47233e-19)
(1 4.73654e-09 9.7431e-19)
(1 4.47174e-09 2.45731e-19)
(1 4.24877e-09 1.75369e-19)
(1 4.06131e-09 -7.07264e-19)
(1 3.89623e-09 -6.47731e-19)
(1 3.75181e-09 9.67943e-19)
(1 3.6191e-09 2.40159e-19)
(1 3.49872e-09 1.72361e-19)
(1 3.38449e-09 -7.08944e-19)
(1 3.27853e-09 -6.50809e-19)
(1 3.17662e-09 9.61924e-19)
(1 3.08146e-09 2.33126e-19)
(1 2.98977e-09 1.67587e-19)
(1 2.9039e-09 -7.1082e-19)
(1 2.8208e-09 -6.52735e-19)
(1 2.74235e-09 9.57303e-19)
(1 2.66592e-09 2.27403e-19)
(1 2.59314e-09 1.65572e-19)
(1 2.52185e-09 -7.14252e-19)
(1 2.4535e-09 -6.27298e-19)
(1 2.38631e-09 8.66895e-19)
(1 2.32154e-09 5.74721e-19)
(1 2.25779e-09 1.04332e-18)
(1 2.19622e-09 8.50553e-19)
(1 2.13575e-09 4.69792e-19)
(1 2.07733e-09 3.21084e-19)
(1 2.02005e-09 -5.35418e-19)
(1 1.96459e-09 -7.8541e-20)
(1 1.91021e-09 9.4985e-20)
(1 1.85745e-09 1.55113e-19)
(1 1.80573e-09 2.81277e-19)
(1 1.75543e-09 -4.92493e-19)
(1 1.70608e-09 -4.69291e-20)
(1 1.65795e-09 1.03765e-19)
(1 1.61075e-09 1.54584e-19)
(1 1.56473e-09 2.79932e-19)
(1 1.51971e-09 -4.93241e-19)
(1 1.4759e-09 -4.7929e-20)
(1 1.4331e-09 1.02204e-19)
(1 1.39141e-09 1.53357e-19)
(1 1.35065e-09 2.79962e-19)
(1 1.31086e-09 -4.92361e-19)
(1 1.27189e-09 -4.74801e-20)
(1 1.23382e-09 1.01595e-19)
(1 1.19652e-09 1.52011e-19)
(1 1.16009e-09 2.78424e-19)
(1 1.12442e-09 -4.92666e-19)
(1 1.08957e-09 -5.02201e-20)
(1 1.0554e-09 1.22995e-19)
(1 1.02202e-09 5.35889e-20)
(1 9.89248e-10 7.46762e-19)
(1 9.57246e-10 2.14497e-19)
(1 9.25798e-10 2.00995e-21)
(1 8.95086e-10 -1.19992e-19)
(1 8.64858e-10 -3.2644e-19)
(1 8.35346e-10 4.15596e-19)
(1 8.06256e-10 4.01338e-20)
(1 7.77874e-10 -3.90686e-20)
(1 7.49858e-10 -1.07041e-19)
(1 7.22546e-10 -3.12125e-19)
(1 6.95547e-10 4.19712e-19)
(1 6.69253e-10 3.94647e-20)
(1 6.43228e-10 -4.01199e-20)
(1 6.17924e-10 -1.07588e-19)
(1 5.92859e-10 -3.12379e-19)
(1 5.6854e-10 4.19476e-19)
(1 5.44441e-10 3.92746e-20)
(1 5.21124e-10 -3.99151e-20)
(1 4.98013e-10 -1.06796e-19)
(1 4.75715e-10 -3.1126e-19)
(1 4.53588e-10 4.20425e-19)
(1 4.32252e-10 3.97467e-20)
(1 4.11012e-10 -3.98639e-20)
(1 3.90544e-10 -1.06942e-19)
(1 3.70138e-10 -3.11532e-19)
(1 3.50533e-10 4.19938e-19)
(1 3.31e-10 3.91459e-20)
(1 3.12309e-10 -4.03039e-20)
(1 2.93717e-10 -1.07182e-19)
(1 2.76001e-10 -3.11706e-19)
(1 2.58435e-10 4.19797e-19)
(1 2.41736e-10 3.91275e-20)
(1 2.25353e-10 -4.01623e-20)
(1 2.09739e-10 -1.06958e-19)
(1 1.95074e-10 -3.11459e-19)
(1 1.80297e-10 4.19405e-19)
(1 1.68953e-10 4.22861e-20)
(1 1.52496e-10 -5.9086e-20)
(1 1.51875e-10 -6.39791e-21)
(1 1.26137e-10 -8.11656e-19)
(1.00011 -0.000958705 6.34167e-23)
(1.00146 -0.00296128 1.26499e-20)
(1.00473 -0.00560043 4.31511e-21)
(1.0104 -0.00869745 -6.02136e-20)
(1.01858 -0.0112431 -1.15577e-19)
(1.02845 -0.012515 -1.13959e-19)
(1.0389 -0.0125217 -2.10692e-19)
(1.04914 -0.0115233 -2.81343e-19)
(1.05831 -0.00940401 -3.05973e-19)
(1.06534 -0.00605227 -4.89141e-19)
(1.06884 -0.00146961 -1.48629e-18)
(1.06789 0.00319106 -2.09059e-18)
(1.06307 0.00693569 -1.66914e-18)
(1.05568 0.00920759 -1.07478e-18)
(1.04715 0.0100668 -1.03751e-18)
(1.03861 0.00981967 -1.07733e-18)
(1.03079 0.00887285 -6.95674e-19)
(1.02406 0.00759563 -1.57725e-19)
(1.01851 0.0062515 1.26567e-19)
(1.01409 0.00499946 1.32624e-19)
(1.01063 0.0039146 5.50099e-20)
(1.00797 0.00301756 1.30947e-20)
(1.00594 0.00229907 6.29228e-21)
(1.00442 0.00173637 7.44576e-21)
(1.00328 0.00130275 6.77983e-21)
(1.00242 0.000972546 2.03501e-21)
(1.00179 0.000723294 -4.41913e-21)
(1.00132 0.000536381 -7.9864e-22)
(1.00097 0.000396905 -1.9208e-20)
(1.00072 0.000293212 3.73608e-20)
(1.00053 0.000216338 1.00834e-19)
(1.00039 0.000159467 -4.09389e-20)
(1.00029 0.000117462 -1.73674e-19)
(1.00021 8.64741e-05 -2.07372e-19)
(1.00015 6.36353e-05 -1.02133e-19)
(1.00011 4.68141e-05 1.38799e-19)
(1.00008 3.44317e-05 1.78102e-19)
(1.00006 2.53204e-05 5.52583e-20)
(1.00005 1.86181e-05 -9.95717e-20)
(1.00003 1.3689e-05 -1.27798e-19)
(1.00002 1.00646e-05 5.91595e-20)
(1.00002 7.39986e-06 1.20612e-19)
(1.00001 5.44089e-06 3.81753e-20)
(1.00001 4.00086e-06 -9.59989e-20)
(1.00001 2.94235e-06 -1.22198e-19)
(1.00001 2.16429e-06 6.12652e-20)
(1 1.5924e-06 1.23734e-19)
(1 1.17203e-06 2.8885e-20)
(1 8.63042e-07 -4.96742e-20)
(1 6.35915e-07 -2.64057e-19)
(1 4.68949e-07 3.1095e-19)
(1 3.46204e-07 6.02331e-19)
(1 2.55955e-07 2.05015e-20)
(1 1.89594e-07 -1.65744e-19)
(1 1.40784e-07 -4.48695e-19)
(1 1.04879e-07 1.21891e-19)
(1 7.84532e-08 4.82489e-19)
(1 5.89989e-08 -1.83754e-20)
(1 4.4665e-08 -1.59624e-19)
(1 3.40995e-08 -4.37977e-19)
(1 2.63e-08 1.47256e-19)
(1 2.05378e-08 3.84391e-19)
(1 1.62691e-08 4.56443e-19)
(1 1.31024e-08 4.35499e-19)
(1 1.07422e-08 -5.00824e-19)
(1 8.97876e-09 2.69652e-21)
(1 7.65084e-09 2.05902e-19)
(1 6.64698e-09 2.61325e-19)
(1 5.87863e-09 2.52274e-19)
(1 5.28713e-09 -6.3521e-19)
(1 4.82324e-09 -6.46385e-20)
(1 4.4567e-09 1.90336e-19)
(1 4.15985e-09 2.67268e-19)
(1 3.91767e-09 2.591e-19)
(1 3.71418e-09 -6.32778e-19)
(1 3.54237e-09 -6.49263e-20)
(1 3.39282e-09 1.89438e-19)
(1 3.26266e-09 2.66553e-19)
(1 3.14583e-09 2.58058e-19)
(1 3.04117e-09 -6.3512e-19)
(1 2.94421e-09 -6.94409e-20)
(1 2.85454e-09 1.82927e-19)
(1 2.76895e-09 2.59901e-19)
(1 2.6878e-09 2.53351e-19)
(1 2.60913e-09 -6.3743e-19)
(1 2.5338e-09 -7.01495e-20)
(1 2.46052e-09 1.82879e-19)
(1 2.39014e-09 2.6426e-19)
(1 2.32172e-09 2.36107e-19)
(1 2.25594e-09 -5.35184e-19)
(1 2.19212e-09 -5.5117e-19)
(1 2.13074e-09 -3.60317e-19)
(1 2.07122e-09 -1.01144e-19)
(1 2.01376e-09 6.6438e-20)
(1 1.95786e-09 1.0498e-19)
(1 1.90362e-09 1.01399e-19)
(1 1.85075e-09 -3.79288e-21)
(1 1.79934e-09 -5.06545e-20)
(1 1.74925e-09 -3.05299e-20)
(1 1.70046e-09 1.22783e-20)
(1 1.65295e-09 6.4533e-20)
(1 1.60663e-09 -4.68365e-21)
(1 1.5616e-09 -4.41713e-20)
(1 1.51772e-09 -2.76799e-20)
(1 1.4751e-09 1.22562e-20)
(1 1.43344e-09 6.41716e-20)
(1 1.39284e-09 -4.46281e-21)
(1 1.353e-09 -4.37593e-20)
(1 1.31409e-09 -2.76491e-20)
(1 1.27586e-09 1.197e-20)
(1 1.23855e-09 6.40234e-20)
(1 1.20194e-09 -4.29788e-21)
(1 1.16628e-09 -4.34741e-20)
(1 1.13129e-09 -2.74728e-20)
(1 1.09718e-09 1.19264e-20)
(1 1.06366e-09 6.37731e-20)
(1 1.03096e-09 -4.37383e-21)
(1 9.98812e-10 -4.42662e-20)
(1 9.67445e-10 -2.33039e-20)
(1 9.36626e-10 -1.88304e-21)
(1 9.06546e-10 8.77033e-20)
(1 8.76991e-10 9.94501e-20)
(1 8.48132e-10 4.69728e-20)
(1 8.19796e-10 -1.39267e-20)
(1 7.92129e-10 -7.06618e-20)
(1 7.64984e-10 1.07725e-21)
(1 7.38473e-10 4.53645e-20)
(1 7.12477e-10 3.10783e-20)
(1 6.87075e-10 -1.16519e-20)
(1 6.62184e-10 -6.66744e-20)
(1 6.37844e-10 2.35132e-21)
(1 6.14007e-10 4.5304e-20)
(1 5.90681e-10 3.09889e-20)
(1 5.67845e-10 -1.15714e-20)
(1 5.45472e-10 -6.65404e-20)
(1 5.2357e-10 2.43754e-21)
(1 5.02076e-10 4.53396e-20)
(1 4.81028e-10 3.10889e-20)
(1 4.60333e-10 -1.13475e-20)
(1 4.40073e-10 -6.62972e-20)
(1 4.20151e-10 2.56198e-21)
(1 4.00704e-10 4.53445e-20)
(1 3.8163e-10 3.10603e-20)
(1 3.63093e-10 -1.13928e-20)
(1 3.44947e-10 -6.64138e-20)
(1 3.27366e-10 2.3648e-21)
(1 3.10194e-10 4.51467e-20)
(1 2.93633e-10 3.0924e-20)
(1 2.77562e-10 -1.1489e-20)
(1 2.62195e-10 -6.64969e-20)
(1 2.47477e-10 2.29895e-21)
(1 2.33532e-10 4.512e-20)
(1 2.20557e-10 3.09518e-20)
(1 2.08267e-10 -1.14272e-20)
(1 1.97834e-10 -6.64303e-20)
(1 1.86999e-10 2.17299e-21)
(1 1.80912e-10 4.58761e-20)
(1 1.69936e-10 2.69385e-20)
(1 1.7309e-10 3.39728e-21)
(1 1.62125e-10 -1.02758e-19)
(1.00011 -0.00133601 1.8409e-20)
(1.00143 -0.00412899 -5.56597e-19)
(1.00466 -0.0078158 -2.02208e-18)
(1.01028 -0.0121564 -4.07427e-18)
(1.01842 -0.0157635 -5.45328e-18)
(1.02838 -0.0176413 -4.92606e-18)
(1.03913 -0.0177899 -8.90826e-18)
(1.04996 -0.0165217 -4.9346e-18)
(1.0599 -0.0136081 -2.13014e-18)
(1.06774 -0.0088126 -6.49344e-18)
(1.07166 -0.00208983 -7.25427e-18)
(1.07045 0.00473884 -2.94943e-18)
(1.06489 0.0101536 6.28463e-19)
(1.05661 0.0133391 2.22611e-18)
(1.04732 0.0144563 6.15498e-19)
(1.03823 0.0139907 -1.38718e-18)
(1.0301 0.0125513 -1.59139e-18)
(1.02326 0.0106755 -7.40103e-19)
(1.01773 0.0087364 -1.33342e-19)
(1.01338 0.006953 -6.16178e-20)
(1.01003 0.00542284 -1.92559e-19)
(1.00748 0.00416715 -2.66174e-19)
(1.00556 0.00316722 -2.44442e-19)
(1.00412 0.00238754 -1.43233e-19)
(1.00305 0.0017887 -6.00991e-20)
(1.00225 0.00133383 -4.65432e-20)
(1.00166 0.00099113 -3.46627e-20)
(1.00122 0.000734519 2.36071e-20)
(1.0009 0.000543246 -6.12913e-20)
(1.00066 0.000401166 5.75977e-19)
(1.00049 0.000295901 2.81799e-19)
(1.00036 0.000218065 -1.20254e-18)
(1.00026 0.000160596 -8.74657e-19)
(1.00019 0.000118213 -6.8566e-19)
(1.00014 8.69824e-05 9.21307e-20)
(1.0001 6.39843e-05 1.24406e-18)
(1.00008 4.70571e-05 2.01045e-19)
(1.00006 3.46027e-05 -2.16452e-19)
(1.00004 2.54419e-05 -5.49923e-19)
(1.00003 1.87051e-05 -1.262e-19)
(1.00002 1.37517e-05 9.40217e-19)
(1.00002 1.011e-05 7.58046e-21)
(1.00001 7.43285e-06 -2.78303e-19)
(1.00001 5.46495e-06 -5.53119e-19)
(1.00001 4.01844e-06 -1.22924e-19)
(1 2.95521e-06 9.38158e-19)
(1 2.17372e-06 1.43242e-20)
(1 1.59931e-06 -3.07017e-19)
(1 1.1771e-06 -3.54598e-19)
(1 8.66752e-07 -1.03966e-18)
(1 6.38624e-07 -2.72759e-19)
(1 4.70925e-07 2.23708e-19)
(1 3.47634e-07 3.80249e-19)
(1 2.56986e-07 4.35276e-19)
(1 1.90323e-07 -5.03778e-19)
(1 1.41294e-07 -1.26538e-19)
(1 1.05222e-07 1.14195e-19)
(1 7.8678e-08 2.18123e-19)
(1 5.91317e-08 3.34467e-19)
(1 4.47331e-08 -5.36581e-19)
(1 3.41139e-08 -1.16364e-19)
(1 2.62777e-08 8.46956e-20)
(1 2.04837e-08 3.74864e-19)
(1 1.61956e-08 -2.20432e-19)
(1 1.30113e-08 -1.94458e-19)
(1 1.06429e-08 1.23687e-18)
(1 8.87139e-09 3.20294e-19)
(1 7.54274e-09 1.45098e-19)
(1 6.53695e-09 -7.07112e-19)
(1 5.77243e-09 -6.73529e-19)
(1 5.18295e-09 9.56377e-19)
(1 4.72573e-09 2.38435e-19)
(1 4.36356e-09 1.57334e-19)
(1 4.0744e-09 -6.8368e-19)
(1 3.83693e-09 -6.63028e-19)
(1 3.64017e-09 9.59392e-19)
(1 3.47147e-09 2.40449e-19)
(1 3.32562e-09 1.59729e-19)
(1 3.19505e-09 -6.81812e-19)
(1 3.07796e-09 -6.63119e-19)
(1 2.97003e-09 9.56036e-19)
(1 2.8713e-09 2.34125e-19)
(1 2.77908e-09 1.53107e-19)
(1 2.69374e-09 -6.86191e-19)
(1 2.61315e-09 -6.65376e-19)
(1 2.53754e-09 9.55043e-19)
(1 2.46523e-09 2.35213e-19)
(1 2.39642e-09 1.58793e-19)
(1 2.32992e-09 -6.90049e-19)
(1 2.26589e-09 -6.24944e-19)
(1 2.20352e-09 8.33867e-19)
(1 2.14293e-09 5.01639e-19)
(1 2.08374e-09 9.15606e-19)
(1 2.02613e-09 7.18765e-19)
(1 1.97002e-09 4.10274e-19)
(1 1.91545e-09 3.5884e-19)
(1 1.86244e-09 -4.59961e-19)
(1 1.8108e-09 -7.0087e-20)
(1 1.76065e-09 3.67599e-20)
(1 1.71169e-09 1.1471e-19)
(1 1.66414e-09 3.13901e-19)
(1 1.61757e-09 -4.26442e-19)
(1 1.57225e-09 -4.57901e-20)
(1 1.52769e-09 4.08132e-20)
(1 1.48428e-09 1.11422e-19)
(1 1.4416e-09 3.12027e-19)
(1 1.40018e-09 -4.24863e-19)
(1 1.35955e-09 -4.25693e-20)
(1 1.32023e-09 4.29769e-20)
(1 1.28164e-09 1.1176e-19)
(1 1.24425e-09 3.11762e-19)
(1 1.20742e-09 -4.24454e-19)
(1 1.17167e-09 -4.12341e-20)
(1 1.1364e-09 4.46014e-20)
(1 1.10219e-09 1.12766e-19)
(1 1.06846e-09 3.11734e-19)
(1 1.03575e-09 -4.245e-19)
(1 1.0035e-09 -4.46884e-20)
(1 9.72213e-10 6.18658e-20)
(1 9.41332e-10 1.89489e-20)
(1 9.11359e-10 7.66793e-19)
(1 8.81776e-10 2.31499e-19)
(1 8.53052e-10 -3.64994e-20)
(1 8.24684e-10 -1.856e-19)
(1 7.97104e-10 -3.28482e-19)
(1 7.69849e-10 4.76133e-19)
(1 7.43326e-10 8.12915e-20)
(1 7.17117e-10 -7.20913e-20)
(1 6.91601e-10 -1.75411e-19)
(1 6.66397e-10 -3.16938e-19)
(1 6.41847e-10 4.79513e-19)
(1 6.1761e-10 8.12942e-20)
(1 5.94002e-10 -7.18668e-20)
(1 5.70723e-10 -1.74676e-19)
(1 5.48058e-10 -3.16129e-19)
(1 5.25754e-10 4.80173e-19)
(1 5.04069e-10 8.1781e-20)
(1 4.82794e-10 -7.13392e-20)
(1 4.62157e-10 -1.74047e-19)
(1 4.41973e-10 -3.15734e-19)
(1 4.22421e-10 4.80081e-19)
(1 4.03322e-10 8.15235e-20)
(1 3.84811e-10 -7.12955e-20)
(1 3.66751e-10 -1.73786e-19)
(1 3.49289e-10 -3.15678e-19)
(1 3.32347e-10 4.79841e-19)
(1 3.16077e-10 8.12692e-20)
(1 3.00427e-10 -7.14191e-20)
(1 2.85563e-10 -1.73871e-19)
(1 2.71425e-10 -3.15757e-19)
(1 2.58263e-10 4.79767e-19)
(1 2.45893e-10 8.12141e-20)
(1 2.3488e-10 -7.13652e-20)
(1 2.24533e-10 -1.7367e-19)
(1 2.16618e-10 -3.15453e-19)
(1 2.08185e-10 4.79444e-19)
(1 2.0555e-10 8.43813e-20)
(1 1.98072e-10 -9.02441e-20)
(1 2.05042e-10 -7.61936e-20)
(1 2.04501e-10 -7.90434e-19)
(1.00011 -0.00170576 -2.82763e-18)
(1.0014 -0.00527596 -9.73509e-18)
(1.00456 -0.00999954 -1.09275e-17)
(1.01008 -0.0155849 -1.52059e-17)
(1.01815 -0.0202944 -1.95646e-17)
(1.02819 -0.0228785 -1.09579e-17)
(1.03935 -0.0233187 -3.62857e-17)
(1.05098 -0.0219284 -3.60432e-17)
(1.06204 -0.0182938 6.95729e-17)
(1.07109 -0.0119502 1.82729e-18)
(1.07563 -0.00275289 -3.80025e-17)
(1.07401 0.00657913 -1.88574e-17)
(1.06736 0.0138685 3.01768e-18)
(1.05782 0.0179834 8.89643e-18)
(1.04748 0.0192594 5.19863e-18)
(1.03765 0.0184268 2.11868e-18)
(1.02913 0.0163553 6.08789e-19)
(1.02215 0.0137803 -1.9605e-19)
(1.01665 0.0111877 -3.70683e-20)
(1.01243 0.00884637 -7.54498e-19)
(1.00923 0.00686417 -1.63004e-18)
(1.00684 0.00525354 -1.66319e-18)
(1.00505 0.00398043 -1.36171e-18)
(1.00373 0.00299324 -6.7921e-19)
(1.00275 0.00223824 -6.4786e-19)
(1.00202 0.00166661 -6.30392e-19)
(1.00149 0.00123702 3.62903e-20)
(1.0011 0.000915953 2.38901e-19)
(1.00081 0.000676986 4.32708e-19)
(1.00059 0.000499674 2.78134e-20)
(1.00044 0.000368418 -8.11937e-19)
(1.00032 0.000271427 -4.84787e-19)
(1.00024 0.00019985 -2.03957e-19)
(1.00017 0.000147082 -5.42438e-19)
(1.00013 0.00010821 -4.1281e-19)
(1.00009 7.95906e-05 -3.1531e-19)
(1.00007 5.85297e-05 3.32031e-19)
(1.00005 4.30359e-05 5.41142e-19)
(1.00004 3.16405e-05 -1.07077e-19)
(1.00003 2.32609e-05 -2.89065e-19)
(1.00002 1.71e-05 -3.44417e-19)
(1.00001 1.25707e-05 2.94359e-19)
(1.00001 9.24126e-06 5.36811e-19)
(1.00001 6.79389e-06 -1.02303e-19)
(1.00001 4.99499e-06 -2.99157e-19)
(1 3.67278e-06 -3.66768e-19)
(1 2.70094e-06 2.72571e-19)
(1 1.98664e-06 5.2997e-19)
(1 1.46162e-06 -1.1832e-19)
(1 1.07572e-06 -1.31574e-19)
(1 7.92061e-07 1.52013e-18)
(1 5.83554e-07 1.8339e-18)
(1 4.30274e-07 9.7599e-19)
(1 3.17589e-07 5.35007e-19)
(1 2.34734e-07 -7.37966e-19)
(1 1.73808e-07 1.04682e-19)
(1 1.28993e-07 5.15419e-19)
(1 9.60239e-08 6.71958e-20)
(1 7.17579e-08 8.92303e-20)
(1 5.38935e-08 -8.56992e-19)
(1 4.07309e-08 1.44912e-19)
(1 3.10281e-08 4.59362e-19)
(1 2.38649e-08 5.61872e-19)
(1 1.85725e-08 5.59161e-19)
(1 1.46519e-08 -5.29553e-19)
(1 1.17438e-08 5.51798e-19)
(1 9.57721e-09 2.32195e-19)
(1 7.95962e-09 1.47553e-19)
(1 6.74328e-09 1.15085e-19)
(1 5.82542e-09 -8.6917e-19)
(1 5.12478e-09 3.77956e-19)
(1 4.58702e-09 1.83088e-19)
(1 4.1672e-09 1.48407e-19)
(1 3.83715e-09 1.22387e-19)
(1 3.57165e-09 -8.63823e-19)
(1 3.35641e-09 3.83644e-19)
(1 3.17713e-09 1.88955e-19)
(1 3.02701e-09 1.52929e-19)
(1 2.8976e-09 1.24786e-19)
(1 2.78557e-09 -8.63882e-19)
(1 2.68531e-09 3.8109e-19)
(1 2.59503e-09 1.85472e-19)
(1 2.51098e-09 1.51068e-19)
(1 2.43259e-09 1.2488e-19)
(1 2.35771e-09 -8.63916e-19)
(1 2.28659e-09 3.79527e-19)
(1 2.21802e-09 1.82237e-19)
(1 2.15248e-09 1.56315e-19)
(1 2.08924e-09 9.1185e-20)
(1 2.02869e-09 -6.65299e-19)
(1 1.97041e-09 -5.63911e-19)
(1 1.91458e-09 -9.29725e-19)
(1 1.86084e-09 -6.93747e-19)
(1 1.80905e-09 -5.37117e-19)
(1 1.7589e-09 2.2233e-19)
(1 1.71015e-09 5.75351e-19)
(1 1.66275e-09 -5.24886e-20)
(1 1.61648e-09 -2.42791e-19)
(1 1.57147e-09 -4.20031e-19)
(1 1.52743e-09 1.94526e-19)
(1 1.48463e-09 5.34371e-19)
(1 1.44273e-09 -6.88335e-20)
(1 1.40215e-09 -2.43937e-19)
(1 1.36251e-09 -4.18409e-19)
(1 1.32422e-09 1.95147e-19)
(1 1.2867e-09 5.34555e-19)
(1 1.25031e-09 -6.82387e-20)
(1 1.21443e-09 -2.43016e-19)
(1 1.17951e-09 -4.17717e-19)
(1 1.14503e-09 1.95214e-19)
(1 1.11153e-09 5.34155e-19)
(1 1.07851e-09 -6.83785e-20)
(1 1.04653e-09 -2.42528e-19)
(1 1.01501e-09 -4.17153e-19)
(1 9.84457e-10 1.95244e-19)
(1 9.54284e-10 5.33772e-19)
(1 9.24995e-10 -6.85013e-20)
(1 8.96049e-10 -2.43341e-19)
(1 8.6796e-10 -4.13173e-19)
(1 8.40212e-10 1.81087e-19)
(1 8.13281e-10 5.57349e-19)
(1 7.86661e-10 3.51309e-20)
(1 7.60819e-10 -1.52028e-19)
(1 7.35296e-10 -4.0353e-19)
(1 7.1054e-10 1.12507e-19)
(1 6.86122e-10 4.70721e-19)
(1 6.62445e-10 -1.90377e-20)
(1 6.39104e-10 -1.68094e-19)
(1 6.16469e-10 -4.01713e-19)
(1 5.94167e-10 1.15797e-19)
(1 5.72539e-10 4.71355e-19)
(1 5.51243e-10 -1.95232e-20)
(1 5.30586e-10 -1.68384e-19)
(1 5.1026e-10 -4.01558e-19)
(1 4.90541e-10 1.16217e-19)
(1 4.71146e-10 4.71733e-19)
(1 4.52313e-10 -1.92024e-20)
(1 4.33789e-10 -1.67844e-19)
(1 4.15788e-10 -4.00788e-19)
(1 3.98102e-10 1.16835e-19)
(1 3.80947e-10 4.71917e-19)
(1 3.64183e-10 -1.92959e-20)
(1 3.48033e-10 -1.67892e-19)
(1 3.32379e-10 -4.00683e-19)
(1 3.17403e-10 1.16925e-19)
(1 3.02998e-10 4.71897e-19)
(1 2.89343e-10 -1.92798e-20)
(1 2.76365e-10 -1.67845e-19)
(1 2.64294e-10 -4.00874e-19)
(1 2.53056e-10 1.16422e-19)
(1 2.42989e-10 4.71326e-19)
(1 2.33875e-10 -1.96425e-20)
(1 2.26403e-10 -1.67856e-19)
(1 2.19787e-10 -4.00569e-19)
(1 2.16054e-10 1.169e-19)
(1 2.12033e-10 4.71087e-19)
(1 2.14355e-10 -1.60391e-20)
(1 2.12569e-10 -1.88079e-19)
(1 2.24223e-10 -3.00917e-19)
(1 2.35968e-10 -3.349e-19)
(1.0001 -0.00206396 2.782e-18)
(1.00134 -0.00639052 1.00779e-17)
(1.00439 -0.0121321 1.43054e-17)
(1.00976 -0.0189597 2.04974e-17)
(1.0177 -0.0248235 4.84722e-17)
(1.02782 -0.028249 -1.06714e-16)
(1.03946 -0.0291912 5.18539e-16)
(1.05214 -0.0278942 -6.84851e-16)
(1.06474 -0.0236642 -8.91525e-16)
(1.0755 -0.0156316 6.04089e-16)
(1.08094 -0.00344925 5.04452e-16)
(1.07876 0.00886456 1.75229e-16)
(1.07058 0.0182547 4.19859e-17)
(1.0593 0.0232468 1.26181e-17)
(1.04754 0.0245259 3.03554e-18)
(1.03677 0.0231516 -2.1993e-18)
(1.02777 0.0202967 -2.42955e-18)
(1.02067 0.0169117 1.55595e-19)
(1.01526 0.0135959 1.12781e-18)
(1.01122 0.0106625 1.49361e-18)
(1.00824 0.00821894 1.50881e-18)
(1.00604 0.00625811 1.06836e-18)
(1.00443 0.00472277 6.38589e-19)
(1.00325 0.00354067 9.08601e-19)
(1.00238 0.00264141 8.74892e-19)
(1.00175 0.00196329 -9.6433e-21)
(1.00128 0.00145523 -3.42265e-19)
(1.00094 0.0010764 -5.09392e-19)
(1.00069 0.000794933 7.36516e-20)
(1.00051 0.000586371 9.22976e-19)
(1.00037 0.000432139 1.12251e-18)
(1.00027 0.000318259 2.31569e-19)
(1.0002 0.000234268 -3.77648e-19)
(1.00015 0.000172377 7.19585e-22)
(1.00011 0.000126799 1.64362e-19)
(1.00008 9.32525e-05 4.40841e-19)
(1.00006 6.85699e-05 -1.32575e-19)
(1.00004 5.04146e-05 -4.74826e-19)
(1.00003 3.70632e-05 1.31326e-20)
(1.00002 2.72462e-05 1.74808e-19)
(1.00002 2.00289e-05 4.32563e-19)
(1.00001 1.47232e-05 -1.34801e-19)
(1.00001 1.08232e-05 -4.62202e-19)
(1.00001 7.95649e-06 2.37665e-20)
(1 5.84943e-06 1.716e-19)
(1 4.30073e-06 4.22786e-19)
(1 3.16245e-06 -1.36633e-19)
(1 2.32582e-06 -4.79323e-19)
(1 1.71089e-06 8.89104e-20)
(1 1.25892e-06 -1.36612e-19)
(1 9.26698e-07 -1.17402e-18)
(1 6.82497e-07 -1.2681e-18)
(1 5.0298e-07 -4.30267e-19)
(1 3.71007e-07 1.393e-20)
(1 2.73973e-07 2.80687e-19)
(1 2.02622e-07 -2.58122e-19)
(1 1.50146e-07 -4.93507e-19)
(1 1.11547e-07 9.96321e-20)
(1 8.31438e-08 3.04041e-19)
(1 6.22374e-08 3.86225e-19)
(1 4.68381e-08 -2.65975e-19)
(1 3.5491e-08 -4.48742e-19)
(1 2.71198e-08 -2.49175e-19)
(1 2.09401e-08 -7.85953e-19)
(1 1.63687e-08 -2.36335e-19)
(1 1.29834e-08 1.05773e-19)
(1 1.04671e-08 2.58307e-19)
(1 8.59325e-09 3.93629e-19)
(1 7.18913e-09 -4.4647e-19)
(1 6.13372e-09 -1.76798e-19)
(1 5.33283e-09 4.97323e-20)
(1 4.72225e-09 2.06135e-19)
(1 4.24992e-09 3.74014e-19)
(1 3.88199e-09 -4.45233e-19)
(1 3.58932e-09 -1.69226e-19)
(1 3.35446e-09 5.45888e-20)
(1 3.16068e-09 2.0619e-19)
(1 2.99902e-09 3.7124e-19)
(1 2.85968e-09 -4.49179e-19)
(1 2.73858e-09 -1.73688e-19)
(1 2.63031e-09 4.99642e-20)
(1 2.53357e-09 2.02191e-19)
(1 2.44527e-09 3.69089e-19)
(1 2.36503e-09 -4.49317e-19)
(1 2.29063e-09 -1.73216e-19)
(1 2.22178e-09 5.02511e-20)
(1 2.15681e-09 2.02956e-19)
(1 2.09548e-09 3.72222e-19)
(1 2.03662e-09 -4.50141e-19)
(1 1.98007e-09 -1.56359e-19)
(1 1.92508e-09 3.63761e-20)
(1 1.87157e-09 3.04193e-20)
(1 1.81929e-09 7.62827e-19)
(1 1.7683e-09 2.10661e-19)
(1 1.71872e-09 -2.21735e-20)
(1 1.67052e-09 -7.75472e-20)
(1 1.62387e-09 -2.655e-19)
(1 1.57849e-09 4.35737e-19)
(1 1.53462e-09 -6.3352e-21)
(1 1.49183e-09 -1.02712e-19)
(1 1.45045e-09 -8.02146e-20)
(1 1.40992e-09 -2.5051e-19)
(1 1.37057e-09 4.43814e-19)
(1 1.33176e-09 -5.23318e-21)
(1 1.294e-09 -1.03512e-19)
(1 1.25673e-09 -8.05747e-20)
(1 1.22063e-09 -2.50253e-19)
(1 1.18516e-09 4.4419e-19)
(1 1.15096e-09 -5.35258e-21)
(1 1.11735e-09 -1.04326e-19)
(1 1.08488e-09 -8.18688e-20)
(1 1.05281e-09 -2.52076e-19)
(1 1.02174e-09 4.41867e-19)
(1 9.90982e-10 -6.96931e-21)
(1 9.6122e-10 -1.03994e-19)
(1 9.31796e-10 -8.01228e-20)
(1 9.03363e-10 -2.49533e-19)
(1 8.75244e-10 4.40199e-19)
(1 8.48062e-10 1.34698e-20)
(1 8.21148e-10 -2.04027e-19)
(1 7.9513e-10 3.86226e-19)
(1 7.69378e-10 4.54227e-19)
(1 7.44487e-10 4.89041e-19)
(1 7.19826e-10 -2.30673e-19)
(1 6.95952e-10 -5.82722e-19)
(1 6.72268e-10 5.70911e-20)
(1 6.49319e-10 2.80581e-19)
(1 6.26548e-10 4.47009e-19)
(1 6.04487e-10 -2.18847e-19)
(1 5.82605e-10 -5.68432e-19)
(1 5.61411e-10 6.18491e-20)
(1 5.4041e-10 2.80227e-19)
(1 5.20081e-10 4.4582e-19)
(1 4.99966e-10 -2.19549e-19)
(1 4.8052e-10 -5.68631e-19)
(1 4.61328e-10 6.19067e-20)
(1 4.42831e-10 2.80443e-19)
(1 4.24653e-10 4.46219e-19)
(1 4.07214e-10 -2.19069e-19)
(1 3.90157e-10 -5.68276e-19)
(1 3.73863e-10 6.19576e-20)
(1 3.57973e-10 2.80156e-19)
(1 3.42826e-10 4.45748e-19)
(1 3.28106e-10 -2.1943e-19)
(1 3.14178e-10 -5.68384e-19)
(1 3.0079e-10 6.19606e-20)
(1 2.88327e-10 2.80155e-19)
(1 2.76563e-10 4.4581e-19)
(1 2.65922e-10 -2.19266e-19)
(1 2.56163e-10 -5.68211e-19)
(1 2.47825e-10 6.20028e-20)
(1 2.40514e-10 2.80026e-19)
(1 2.35158e-10 4.4562e-19)
(1 2.30762e-10 -2.19358e-19)
(1 2.29655e-10 -5.68118e-19)
(1 2.28461e-10 6.15105e-20)
(1 2.34045e-10 2.83295e-19)
(1 2.3617e-10 4.25274e-19)
(1 2.51053e-10 -1.1062e-19)
(1 2.7119e-10 -1.11866e-18)
(1.00009 -0.00240509 7.77138e-22)
(1.00127 -0.00745634 1.82932e-19)
(1.00416 -0.0141857 6.12871e-18)
(1.00929 -0.0222452 -4.14094e-17)
(1.01701 -0.0293239 3.38121e-16)
(1.02715 -0.0337649 -1.59691e-15)
(1.03934 -0.0354909 3.69651e-15)
(1.05334 -0.034598 2.53427e-15)
(1.06799 -0.0299837 -2.1814e-14)
(1.08118 -0.0200911 -1.24426e-15)
(1.08789 -0.00423406 1.26121e-14)
(1.08486 0.011751 9.22118e-15)
(1.07454 0.0236441 3.0951e-15)
(1.06095 0.029494 2.02706e-16)
(1.04742 0.0305361 -2.93412e-16)
(1.03553 0.0283073 -1.38068e-16)
(1.026 0.0244024 -2.107e-17)
(1.01879 0.0200356 5.49559e-18)
(1.01352 0.0159107 3.90784e-18)
(1.00974 0.0123564 1.2717e-18)
(1.00703 0.00945284 4.5693e-19)