/*--------------------------------*- C++ -*----------------------------------*\
  =========                 |
  \\      /  F ield         | OpenFOAM: The Open Source CFD Toolbox
   \\    /   O peration     | Website:  https://openfoam.org
    \\  /    A nd           | Version:  11
     \\/     M anipulation  |
\*---------------------------------------------------------------------------*/
FoamFile
{
    format      ascii;
    class       surfaceScalarField;
    location    "3.092775";
    object      phi;
}
// * * * * * * * * * * * * * * * * * * * * * * * * * * * * * * * * * * * * * //

dimensions      [0 3 -1 0 0 0 0];

internalField   nonuniform List<scalar> 
14638
(
0.00250288
-2.87992e-06
0.00251157
-8.68797e-06
0.00252642
-1.48497e-05
0.0025479
-2.14852e-05
0.00257653
-2.86242e-05
0.00261259
-3.60594e-05
0.00265597
-4.33837e-05
0.00270576
-4.97865e-05
0.00276014
-5.43858e-05
0.00281635
-5.62083e-05
0.002871
-5.46509e-05
0.00292127
-5.02663e-05
0.00296479
-4.35182e-05
0.00299965
-3.48625e-05
0.00302439
-2.4743e-05
0.00303793
-1.35417e-05
0.00303966
-1.73029e-06
0.00302959
1.00708e-05
0.00300849
2.10998e-05
0.00297793
3.05665e-05
0.0029401
3.78217e-05
0.0028976
4.25078e-05
0.00285298
4.46172e-05
0.00280854
4.4444e-05
0.00276606
4.24718e-05
0.00272681
3.92523e-05
0.0026915
3.53084e-05
0.00266043
3.10759e-05
0.00263355
2.68808e-05
0.00261061
2.29411e-05
0.00259122
1.93831e-05
0.00257496
1.6263e-05
0.00256137
1.35879e-05
0.00255004
1.1334e-05
0.00254058
9.46057e-06
0.00253266
7.91948e-06
0.002526
6.66164e-06
0.00252036
5.64067e-06
0.00251554
4.81468e-06
0.00251139
4.14696e-06
0.00250779
3.60583e-06
0.00250462
3.16437e-06
0.00250182
2.79998e-06
0.00249933
2.49437e-06
0.0024971
2.23368e-06
0.00249509
2.0083e-06
0.00249328
1.81111e-06
0.00249164
1.63339e-06
0.00249018
1.45852e-06
0.00248893
1.25668e-06
0.00248794
9.85334e-07
0.00248734
5.99656e-07
0.00248727
7.27321e-08
0.00248785
-5.8136e-07
0.00248914
-1.29351e-06
0.00249109
-1.94577e-06
0.00249349
-2.40102e-06
0.00249604
-2.54775e-06
0.00249838
-2.34193e-06
0.00250021
-1.8274e-06
0.00250133
-1.12475e-06
0.00250173
-3.92844e-07
0.00250151
2.20727e-07
0.00250089
6.20205e-07
0.00250011
7.79324e-07
0.00249937
7.33488e-07
0.00249882
5.5468e-07
0.0024985
3.22175e-07
0.0024984
1.0016e-07
0.00249847
-7.26352e-08
0.00249865
-1.82397e-07
0.00249888
-2.33297e-07
0.00249912
-2.39009e-07
0.00249934
-2.15807e-07
0.00249952
-1.78297e-07
0.00249965
-1.37485e-07
0.00249975
-1.00382e-07
0.00249983
-7.04511e-08
0.00249987
-4.84536e-08
0.00249991
-3.34402e-08
0.00249993
-2.36826e-08
0.00249995
-1.73969e-08
0.00249996
-1.31695e-08
0.00249997
-1.00914e-08
0.00249998
-7.68867e-09
0.00249998
-5.76387e-09
0.00249999
-4.24463e-09
0.00249999
-3.08661e-09
0.00249999
-2.23495e-09
0.0025
-1.62341e-09
0.0025
-1.18705e-09
0.0025
-8.72755e-10
0.0025
-6.42702e-10
0.0025
-4.72149e-10
0.0025
-3.45182e-10
0.0025
-2.5098e-10
0.0025
-1.81548e-10
0.0025
-1.30655e-10
0.0025
-9.34484e-11
0.0025
-6.62413e-11
0.0025
-4.63218e-11
0.0025
-3.17288e-11
0.0025
-2.10471e-11
0.0025
-1.32473e-11
0.0025
-7.57045e-12
0.0025
-3.45671e-12
0.0025
-4.89938e-13
0.0025
1.63443e-12
0.0025
3.14265e-12
0.0025
4.19787e-12
0.0025
4.92303e-12
0.0025
5.40486e-12
0.0025
5.71107e-12
0.0025
5.88717e-12
0.0025
5.97117e-12
0.0025
5.98618e-12
0.0025
5.95428e-12
0.0025
5.88629e-12
0.0025
5.79579e-12
0.0025
5.68684e-12
0.0025
5.56858e-12
0.0025
5.4413e-12
0.0025
5.31183e-12
0.0025
5.17831e-12
0.0025
5.04644e-12
0.0025
4.91309e-12
0.0025
4.78346e-12
0.0025
4.65363e-12
0.0025
4.5286e-12
0.0025
4.40392e-12
0.0025
4.28459e-12
0.0025
4.16578e-12
0.0025
4.05256e-12
0.0025
3.93982e-12
0.0025
3.83273e-12
0.0025
3.72598e-12
0.0025
3.62486e-12
0.0025
3.52387e-12
0.0025
3.42843e-12
0.0025
3.33288e-12
0.0025
3.24278e-12
0.0025
3.15233e-12
0.0025
3.06721e-12
0.0025
2.98151e-12
0.0025
2.90104e-12
0.0025
2.81977e-12
0.0025
2.74363e-12
0.0025
2.66648e-12
0.0025
2.59446e-12
0.0025
2.52111e-12
0.0025
2.45318e-12
0.0025
2.38296e-12
0.0025
2.31981e-12
0.0025
2.25027e-12
0.0025
2.19706e-12
0.0025
2.11689e-12
0.0025
2.10415e-12
0.0025
1.95453e-12
0.0025
2.13087e-12
1.69499e-12
0.00250285
-5.73357e-06
0.00251147
-1.73032e-05
0.00252622
-2.95959e-05
0.0025476
-4.28727e-05
0.00257618
-5.72059e-05
0.00261232
-7.21941e-05
0.00265596
-8.70295e-05
0.00270623
-0.000100055
0.00276132
-0.000109469
0.00281832
-0.000113213
0.0028737
-0.00011003
0.00292458
-0.00010115
0.0029686
-8.75361e-05
0.00300385
-7.01125e-05
0.00302887
-4.97637e-05
0.00304256
-2.72321e-05
0.00304428
-3.44845e-06
0.00303401
2.03418e-05
0.00301252
4.25892e-05
0.00298141
6.1677e-05
0.00294296
7.62746e-05
0.00289981
8.56536e-05
0.00285462
8.98087e-05
0.00280971
8.9352e-05
0.00276691
8.52783e-05
0.00272744
7.87139e-05
0.00269203
7.07192e-05
0.00266094
6.21727e-05
0.00263409
5.37265e-05
0.00261122
4.58135e-05
0.00259192
3.86814e-05
0.00257575
3.24375e-05
0.00256224
2.70917e-05
0.00255098
2.2593e-05
0.00254159
1.88574e-05
0.00253372
1.5787e-05
0.0025271
1.32827e-05
0.00252149
1.12512e-05
0.00251669
9.60852e-06
0.00251256
8.28122e-06
0.00250896
7.2061e-06
0.00250579
6.3294e-06
0.00250299
5.60612e-06
0.00250048
4.99976e-06
0.00249823
4.48266e-06
0.00249621
4.03558e-06
0.00249437
3.64443e-06
0.00249271
3.29207e-06
0.00249123
2.94602e-06
0.00248993
2.54786e-06
0.00248891
2.0137e-06
0.00248825
1.25452e-06
0.00248811
2.15799e-07
0.0024886
-1.07649e-06
0.0024898
-2.48741e-06
0.00249164
-3.78438e-06
0.00249393
-4.69534e-06
0.00249638
-4.99731e-06
0.00249864
-4.60022e-06
0.0025004
-3.58841e-06
0.00250147
-2.19949e-06
0.00250183
-7.48616e-07
0.00250158
4.69912e-07
0.00250094
1.26387e-06
0.00250014
1.57907e-06
0.00249939
1.48456e-06
0.00249882
1.12321e-06
0.00249849
6.53377e-07
0.00249838
2.04097e-07
0.00249846
-1.46166e-07
0.00249864
-3.68897e-07
0.00249888
-4.72034e-07
0.00249913
-4.83091e-07
0.00249934
-4.35195e-07
0.00249952
-3.58286e-07
0.00249966
-2.74987e-07
0.00249976
-1.9967e-07
0.00249983
-1.39329e-07
0.00249988
-9.53536e-08
0.00249991
-6.56289e-08
0.00249993
-4.64966e-08
0.00249995
-3.42576e-08
0.00249996
-2.60312e-08
0.00249997
-2.00037e-08
0.00249998
-1.52584e-08
0.00249998
-1.14339e-08
0.00249999
-8.40884e-09
0.00249999
-6.10546e-09
0.00249999
-4.41628e-09
0.0025
-3.20721e-09
0.0025
-2.34636e-09
0.0025
-1.72663e-09
0.0025
-1.27258e-09
0.0025
-9.3547e-10
0.0025
-6.84225e-10
0.0025
-4.97746e-10
0.0025
-3.60328e-10
0.0025
-2.59653e-10
0.0025
-1.86077e-10
0.0025
-1.32279e-10
0.0025
-9.28819e-11
0.0025
-6.40086e-11
0.0025
-4.28646e-11
0.0025
-2.74181e-11
0.0025
-1.61697e-11
0.0025
-8.0125e-12
0.0025
-2.1232e-12
0.0025
2.1007e-12
0.0025
5.10646e-12
0.0025
7.21698e-12
0.0025
8.67469e-12
0.0025
9.65174e-12
0.0025
1.0281e-11
0.0025
1.06535e-11
0.0025
1.08433e-11
0.0025
1.0897e-11
0.0025
1.08571e-11
0.0025
1.07463e-11
0.0025
1.05899e-11
0.0025
1.03976e-11
0.0025
1.01855e-11
0.0025
9.95615e-12
0.0025
9.72105e-12
0.0025
9.47855e-12
0.0025
9.2378e-12
0.0025
8.99476e-12
0.0025
8.75745e-12
0.0025
8.52044e-12
0.0025
8.29123e-12
0.0025
8.06348e-12
0.0025
7.84454e-12
0.0025
7.62746e-12
0.0025
7.41963e-12
0.0025
7.21364e-12
0.0025
7.01702e-12
0.0025
6.822e-12
0.0025
6.63628e-12
0.0025
6.45182e-12
0.0025
6.27648e-12
0.0025
6.102e-12
0.0025
5.93643e-12
0.0025
5.77131e-12
0.0025
5.61487e-12
0.0025
5.45848e-12
0.0025
5.31054e-12
0.0025
5.16226e-12
0.0025
5.02226e-12
0.0025
4.8815e-12
0.0025
4.74899e-12
0.0025
4.61512e-12
0.0025
4.49009e-12
0.0025
4.3619e-12
0.0025
4.2459e-12
0.0025
4.1191e-12
0.0025
4.02184e-12
0.0025
3.87597e-12
0.0025
3.85086e-12
0.0025
3.58216e-12
0.0025
3.88489e-12
3.12617e-12
0.0025028
-8.53416e-06
0.00251126
-2.57654e-05
0.00252579
-4.41276e-05
0.00254697
-6.40517e-05
0.00257545
-8.56863e-05
0.00261172
-0.000108464
0.00265588
-0.00013119
0.00270712
-0.000151292
0.00276362
-0.000165969
0.00282225
-0.000171837
0.00287909
-0.000166879
0.00293122
-0.000153272
0.00297623
-0.000132549
0.00301225
-0.000106132
0.00303782
-7.53367e-05
0.00305181
-4.1219e-05
0.0030535
-5.13947e-06
0.00304282
3.10241e-05
0.00302052
6.48817e-05
0.00298829
9.39113e-05
0.00294853
0.000116032
0.00290407
0.000130118
0.00285769
0.000136185
0.00281183
0.000135214
0.00276834
0.00012877
0.00272845
0.0001186
0.00269284
0.000106335
0.0026617
9.33067e-05
0.00263493
8.04948e-05
0.00261221
6.85395e-05
0.00259309
5.78002e-05
0.0025771
4.84249e-05
0.00256378
4.04172e-05
0.00255268
3.3692e-05
0.00254342
2.81169e-05
0.00253566
2.35411e-05
0.00252913
1.98134e-05
0.00252359
1.67926e-05
0.00251885
1.43523e-05
0.00251475
1.23822e-05
0.00251117
1.07878e-05
0.00250801
9.48866e-06
0.0025052
8.41774e-06
0.00250267
7.52058e-06
0.0025004
6.75584e-06
0.00249834
6.09474e-06
0.00249647
5.51628e-06
0.00249477
4.99532e-06
0.00249323
4.4846e-06
0.00249188
3.89878e-06
0.00249078
3.11477e-06
0.00249003
2.00081e-06
0.00248977
4.7479e-07
0.00249012
-1.42778e-06
0.00249115
-3.51054e-06
0.00249279
-5.43157e-06
0.00249489
-6.78833e-06
0.00249714
-7.24866e-06
0.00249921
-6.67569e-06
0.00250081
-5.19089e-06
0.00250176
-3.14421e-06
0.00250201
-1.00258e-06
0.00250169
7.96148e-07
0.00250099
1.96449e-06
0.00250015
2.41982e-06
0.00249937
2.26348e-06
0.00249878
1.70793e-06
0.00249845
9.90173e-07
0.00249835
3.04464e-07
0.00249843
-2.30023e-07
0.00249863
-5.69226e-07
0.00249888
-7.24653e-07
0.00249914
-7.38293e-07
0.00249936
-6.61374e-07
0.00249955
-5.40562e-07
0.00249968
-4.11192e-07
0.00249978
-2.95533e-07
0.00249984
-2.04085e-07
0.00249989
-1.38477e-07
0.00249991
-9.49083e-08
0.00249994
-6.73513e-08
0.00249995
-4.99286e-08
0.00249996
-3.82075e-08
0.00249997
-2.95036e-08
0.00249998
-2.254e-08
0.00249999
-1.68699e-08
0.00249999
-1.23727e-08
0.00249999
-8.95807e-09
0.00249999
-6.46815e-09
0.0025
-4.69634e-09
0.0025
-3.43946e-09
0.0025
-2.53501e-09
0.0025
-1.87096e-09
0.0025
-1.37653e-09
0.0025
-1.00733e-09
0.0025
-7.33171e-10
0.0025
-5.31259e-10
0.0025
-3.83478e-10
0.0025
-2.75548e-10
0.0025
-1.9664e-10
0.0025
-1.3883e-10
0.0025
-9.64355e-11
0.0025
-6.53698e-11
0.0025
-4.26607e-11
0.0025
-2.61128e-11
0.0025
-1.41005e-11
0.0025
-5.41598e-12
0.0025
8.2669e-13
0.0025
5.28236e-12
0.0025
8.42605e-12
0.0025
1.06116e-11
0.0025
1.2093e-11
0.0025
1.30634e-11
0.0025
1.3658e-11
0.0025
1.39832e-11
0.0025
1.41097e-11
0.0025
1.40973e-11
0.0025
1.39816e-11
0.0025
1.37971e-11
0.0025
1.35606e-11
0.0025
1.3293e-11
0.0025
1.30008e-11
0.0025
1.26978e-11
0.0025
1.23846e-11
0.0025
1.20716e-11
0.0025
1.17558e-11
0.0025
1.14459e-11
0.0025
1.11372e-11
0.0025
1.08372e-11
0.0025
1.05402e-11
0.0025
1.02534e-11
0.0025
9.97018e-12
0.0025
9.69779e-12
0.0025
9.42902e-12
0.0025
9.17123e-12
0.0025
8.91681e-12
0.0025
8.67326e-12
0.0025
8.43268e-12
0.0025
8.20269e-12
0.0025
7.9752e-12
0.0025
7.75799e-12
0.0025
7.54276e-12
0.0025
7.3375e-12
0.0025
7.13371e-12
0.0025
6.93956e-12
0.0025
6.74641e-12
0.0025
6.56264e-12
0.0025
6.37932e-12
0.0025
6.20536e-12
0.0025
6.03104e-12
0.0025
5.86689e-12
0.0025
5.69994e-12
0.0025
5.54782e-12
0.0025
5.38263e-12
0.0025
5.2552e-12
0.0025
5.06564e-12
0.0025
5.02867e-12
0.0025
4.68896e-12
0.0025
5.04158e-12
4.11779e-12
0.00250272
-1.1251e-05
0.00251094
-3.39856e-05
0.00252512
-5.83154e-05
0.00254596
-8.48858e-05
0.00257425
-0.000113975
0.00261068
-0.000144897
0.00265559
-0.000176102
0.00270829
-0.000203993
0.00276698
-0.000224661
0.00282811
-0.000232966
0.0028872
-0.000225966
0.00294119
-0.000207256
0.00298769
-0.000179051
0.00302486
-0.000143307
0.00305127
-0.000101747
0.00306572
-5.5662e-05
0.00306737
-6.79451e-06
0.00305606
4.23332e-05
0.00303254
8.84055e-05
0.00299858
0.000127871
0.00295682
0.000157791
0.00291034
0.000176597
0.00286216
0.000184363
0.00281486
0.000182519
0.00277034
0.000173289
0.00272982
0.000159118
0.00269391
0.000142248
0.00266273
0.000124487
0.00263608
0.000107138
0.00261358
9.10395e-05
0.00259474
7.66454e-05
0.00257903
6.41288e-05
0.00256598
5.34736e-05
0.00255512
4.45501e-05
0.00254607
3.71699e-05
0.00253848
3.11246e-05
0.00253209
2.62079e-05
0.00252665
2.22295e-05
0.00252198
1.90198e-05
0.00251794
1.64318e-05
0.00251438
1.43397e-05
0.00251123
1.26372e-05
0.00250842
1.12352e-05
0.00250588
1.00619e-05
0.00250357
9.06256e-06
0.00250146
8.19885e-06
0.00249954
7.44301e-06
0.00249777
6.76241e-06
0.00249616
6.09625e-06
0.00249472
5.33461e-06
0.00249352
4.31809e-06
0.00249265
2.87477e-06
0.00249223
8.95494e-07
0.00249237
-1.5771e-06
0.00249316
-4.29079e-06
0.00249453
-6.80175e-06
0.00249632
-8.5841e-06
0.00249827
-9.20088e-06
0.00250007
-8.46893e-06
0.00250142
-6.54339e-06
0.00250216
-3.88049e-06
0.00250224
-1.09217e-06
0.0025018
1.24556e-06
0.00250101
2.75298e-06
0.00250011
3.31958e-06
0.00249929
3.07787e-06
0.00249869
2.30844e-06
0.00249836
1.32611e-06
0.00249827
3.90735e-07
0.00249838
-3.36799e-07
0.0024986
-7.96002e-07
0.00249888
-1.00199e-06
0.00249916
-1.01243e-06
0.00249939
-8.98699e-07
0.00249958
-7.2636e-07
0.00249971
-5.45091e-07
0.0024998
-3.85775e-07
0.00249986
-2.62266e-07
0.0024999
-1.75714e-07
0.00249992
-1.19765e-07
0.00249994
-8.53145e-08
0.00249995
-6.39045e-08
0.00249997
-4.94403e-08
0.00249997
-3.84434e-08
0.00249998
-2.94202e-08
0.00249999
-2.1966e-08
0.00249999
-1.60375e-08
0.00249999
-1.15602e-08
0.00249999
-8.32551e-09
0.0025
-6.04435e-09
0.0025
-4.43463e-09
0.0025
-3.27628e-09
0.0025
-2.42258e-09
0.0025
-1.7841e-09
0.0025
-1.30599e-09
0.0025
-9.50788e-10
0.0025
-6.89502e-10
0.0025
-4.98574e-10
0.0025
-3.59281e-10
0.0025
-2.57456e-10
0.0025
-1.82812e-10
0.0025
-1.28023e-10
0.0025
-8.78432e-11
0.0025
-5.8453e-11
0.0025
-3.70231e-11
0.0025
-2.14522e-11
0.0025
-1.01788e-11
0.0025
-2.05655e-12
0.0025
3.75928e-12
0.0025
7.88276e-12
0.0025
1.07691e-11
0.0025
1.27474e-11
0.0025
1.40652e-11
0.0025
1.48986e-11
0.0025
1.53832e-11
0.0025
1.56118e-11
0.0025
1.56597e-11
0.0025
1.55744e-11
0.0025
1.53988e-11
0.0025
1.51559e-11
0.0025
1.48712e-11
0.0025
1.45544e-11
0.0025
1.42218e-11
0.0025
1.38758e-11
0.0025
1.35277e-11
0.0025
1.3176e-11
0.0025
1.28295e-11
0.0025
1.24843e-11
0.0025
1.2148e-11
0.0025
1.18153e-11
0.0025
1.14934e-11
0.0025
1.1176e-11
0.0025
1.087e-11
0.0025
1.05688e-11
0.0025
1.02792e-11
0.0025
9.99408e-12
0.0025
9.72049e-12
0.0025
9.45091e-12
0.0025
9.19257e-12
0.0025
8.93771e-12
0.0025
8.69374e-12
0.0025
8.45269e-12
0.0025
8.22214e-12
0.0025
7.99397e-12
0.0025
7.77591e-12
0.0025
7.55969e-12
0.0025
7.35329e-12
0.0025
7.14813e-12
0.0025
6.95276e-12
0.0025
6.75768e-12
0.0025
6.57342e-12
0.0025
6.38655e-12
0.0025
6.21599e-12
0.0025
6.03102e-12
0.0025
5.88813e-12
0.0025
5.67691e-12
0.0025
5.62927e-12
0.0025
5.26525e-12
0.0025
5.59924e-12
4.65776e-12
0.0025026
-1.38485e-05
0.00251047
-4.18601e-05
0.00252416
-7.2003e-05
0.00254447
-0.000105199
0.00257243
-0.000141931
0.002609
-0.000181471
0.00265487
-0.000221967
0.00270955
-0.000258669
0.00277129
-0.000286403
0.00283591
-0.000297585
0.00289804
-0.000288103
0.00295452
-0.000263735
0.003003
-0.000227529
0.00304171
-0.000182018
0.00306926
-0.000129295
0.00308435
-7.07561e-05
0.003086
-8.44438e-06
0.00307387
5.44662e-05
0.00304867
0.000113608
0.00301232
0.000164213
0.0029678
0.000202318
0.00291854
0.000225856
0.00286789
0.000235007
0.00281864
0.000231775
0.00277275
0.000219176
0.00273141
0.000200456
0.00269514
0.000178527
0.00266393
0.000155695
0.00263748
0.000133586
0.0026153
0.000113215
0.00259684
9.51088e-05
0.00258153
7.94435e-05
0.00256884
6.61645e-05
0.0025583
5.50832e-05
0.00254953
4.59461e-05
0.00254217
3.84803e-05
0.00253596
3.24214e-05
0.00253066
2.75278e-05
0.00252609
2.35863e-05
0.00252211
2.04134e-05
0.0025186
1.78524e-05
0.00251546
1.57713e-05
0.00251264
1.40601e-05
0.00251007
1.26299e-05
0.00250772
1.14129e-05
0.00250556
1.03616e-05
0.00250356
9.44154e-06
0.00250171
8.61311e-06
0.0025
7.80346e-06
0.00249846
6.88092e-06
0.00249712
5.65358e-06
0.00249608
3.9129e-06
0.00249545
1.52403e-06
0.00249534
-1.46578e-06
0.00249581
-4.75521e-06
0.00249681
-7.80821e-06
0.00249821
-9.98531e-06
0.00249976
-1.07517e-05
0.00250118
-9.87963e-06
0.00250219
-7.55432e-06
0.00250264
-4.33054e-06
0.0025025
-9.56172e-07
0.00250188
1.86255e-06
0.00250098
3.65848e-06
0.0025
4.29461e-06
0.00249915
3.9336e-06
0.00249853
2.92234e-06
0.00249821
1.65247e-06
0.00249815
4.49792e-07
0.00249829
-4.81806e-07
0.00249856
-1.06437e-06
0.00249888
-1.3169e-06
0.00249918
-1.31466e-06
0.00249943
-1.15218e-06
0.00249962
-9.1704e-07
0.00249975
-6.75499e-07
0.00249984
-4.67955e-07
0.00249988
-3.11248e-07
0.00249991
-2.0492e-07
0.00249993
-1.3877e-07
0.00249995
-9.96025e-08
0.00249996
-7.5838e-08
0.00249997
-5.96024e-08
0.00249998
-4.67647e-08
0.00249998
-3.58376e-08
0.00249999
-2.66429e-08
0.00249999
-1.93182e-08
0.00249999
-1.38366e-08
0.0025
-9.93091e-09
0.0025
-7.21193e-09
0.0025
-5.30638e-09
0.0025
-3.93366e-09
0.0025
-2.91556e-09
0.0025
-2.14904e-09
0.0025
-1.57292e-09
0.0025
-1.14482e-09
0.0025
-8.30565e-10
0.0025
-6.01508e-10
0.0025
-4.34654e-10
0.0025
-3.12693e-10
0.0025
-2.23207e-10
0.0025
-1.57448e-10
0.0025
-1.0918e-10
0.0025
-7.38535e-11
0.0025
-4.80845e-11
0.0025
-2.93474e-11
0.0025
-1.57649e-11
0.0025
-5.95889e-12
0.0025
1.08335e-12
0.0025
6.09822e-12
0.0025
9.63013e-12
0.0025
1.20741e-11
0.0025
1.3726e-11
0.0025
1.47976e-11
0.0025
1.54504e-11
0.0025
1.57966e-11
0.0025
1.59251e-11
0.0025
1.58939e-11
0.0025
1.57531e-11
0.0025
1.55313e-11
0.0025
1.52578e-11
0.0025
1.49454e-11
0.0025
1.46121e-11
0.0025
1.42623e-11
0.0025
1.39079e-11
0.0025
1.35486e-11
0.0025
1.31934e-11
0.0025
1.2839e-11
0.0025
1.24932e-11
0.0025
1.2151e-11
0.0025
1.18194e-11
0.0025
1.14927e-11
0.0025
1.11775e-11
0.0025
1.08674e-11
0.0025
1.0569e-11
0.0025
1.02756e-11
0.0025
9.99365e-12
0.0025
9.71626e-12
0.0025
9.45012e-12
0.0025
9.18796e-12
0.0025
8.93666e-12
0.0025
8.68879e-12
0.0025
8.45137e-12
0.0025
8.21679e-12
0.0025
7.99226e-12
0.0025
7.77003e-12
0.0025
7.55754e-12
0.0025
7.34673e-12
0.0025
7.14565e-12
0.0025
6.94521e-12
0.0025
6.75567e-12
0.0025
6.56365e-12
0.0025
6.38837e-12
0.0025
6.19827e-12
0.0025
6.0511e-12
0.0025
5.83568e-12
0.0025
5.77847e-12
0.0025
5.42468e-12
0.0025
5.69753e-12
4.83638e-12
0.00250244
-1.62848e-05
0.00250984
-4.92656e-05
0.00252284
-8.49986e-05
0.0025424
-0.000124763
0.00256981
-0.00016934
0.00260643
-0.000218091
0.0026534
-0.00026894
0.00271058
-0.000315845
0.00277636
-0.000352184
0.0028456
-0.000366825
0.00291165
-0.000354154
0.00297126
-0.00032334
0.00302218
-0.000278452
0.0030628
-0.000222644
0.0030918
-0.000158292
0.00310775
-8.67075e-05
0.00310943
-1.01181e-05
0.00309626
6.76374e-05
0.00306889
0.000140971
0.00302947
0.000203638
0.00298135
0.000250432
0.00292851
0.000278697
0.00287472
0.000288801
0.002823
0.000283493
0.00277542
0.000266758
0.0027331
0.000242776
0.00269641
0.000215211
0.00266522
0.000186887
0.00263906
0.000159745
0.00261733
0.00013495
0.00259937
0.000113071
0.00258455
9.42557e-05
0.00257233
7.8389e-05
0.00256221
6.52055e-05
0.00255378
5.43743e-05
0.00254671
4.55512e-05
0.00254072
3.84092e-05
0.00253559
3.26538e-05
0.00253115
2.80277e-05
0.00252725
2.43107e-05
0.00252379
2.13162e-05
0.00252067
1.88873e-05
0.00251784
1.68938e-05
0.00251524
1.52302e-05
0.00251284
1.38165e-05
0.0025106
1.25961e-05
0.00250852
1.15282e-05
0.00250656
1.05667e-05
0.00250474
9.62832e-06
0.00250306
8.5629e-06
0.00250156
7.15065e-06
0.00250032
5.15093e-06
0.00249944
2.40538e-06
0.00249901
-1.03648e-06
0.00249909
-4.83205e-06
0.00249964
-8.36491e-06
0.00250055
-1.08947e-05
0.0025016
-1.17984e-05
0.00250253
-1.08069e-05
0.0025031
-8.1317e-06
0.00250319
-4.41673e-06
0.00250277
-5.34013e-07
0.00250194
2.69053e-06
0.00250089
4.70904e-06
0.00249982
5.3602e-06
0.00249892
4.83559e-06
0.0024983
3.54614e-06
0.00249799
1.95903e-06
0.00249797
4.66612e-07
0.00249818
-6.82459e-07
0.0024985
-1.39143e-06
0.00249887
-1.68368e-06
0.00249921
-1.65483e-06
0.00249948
-1.42679e-06
0.00249968
-1.11341e-06
0.00249981
-8.00474e-07
0.00249988
-5.38937e-07
0.00249991
-3.47945e-07
0.00249993
-2.23759e-07
0.00249994
-1.50516e-07
0.00249995
-1.09571e-07
0.00249996
-8.5547e-08
0.00249997
-6.87006e-08
0.00249998
-5.44931e-08
0.00249999
-4.17708e-08
0.00249999
-3.08347e-08
0.00249999
-2.21321e-08
0.00249999
-1.57126e-08
0.0025
-1.12298e-08
0.0025
-8.16452e-09
0.0025
-6.03427e-09
0.0025
-4.49452e-09
0.0025
-3.34088e-09
0.0025
-2.46398e-09
0.0025
-1.80185e-09
0.0025
-1.3101e-09
0.0025
-9.50377e-10
0.0025
-6.89153e-10
0.0025
-4.99259e-10
0.0025
-3.60447e-10
0.0025
-2.58455e-10
0.0025
-1.8339e-10
0.0025
-1.28237e-10
0.0025
-8.78582e-11
0.0025
-5.84006e-11
0.0025
-3.69739e-11
0.0025
-2.14275e-11
0.0025
-1.01845e-11
0.0025
-2.09032e-12
0.0025
3.69432e-12
0.0025
7.78862e-12
0.0025
1.06433e-11
0.0025
1.25949e-11
0.0025
1.38854e-11
0.0025
1.46983e-11
0.0025
1.51619e-11
0.0025
1.53766e-11
0.0025
1.54093e-11
0.0025
1.53159e-11
0.0025
1.51301e-11
0.0025
1.48838e-11
0.0025
1.45928e-11
0.0025
1.42764e-11
0.0025
1.39405e-11
0.0025
1.35977e-11
0.0025
1.32486e-11
0.0025
1.29022e-11
0.0025
1.25561e-11
0.0025
1.22177e-11
0.0025
1.18828e-11
0.0025
1.15579e-11
0.0025
1.12379e-11
0.0025
1.09289e-11
0.0025
1.06252e-11
0.0025
1.03327e-11
0.0025
1.00453e-11
0.0025
9.76903e-12
0.0025
9.49747e-12
0.0025
9.23673e-12
0.0025
8.98019e-12
0.0025
8.73408e-12
0.0025
8.49159e-12
0.0025
8.25913e-12
0.0025
8.02972e-12
0.0025
7.80995e-12
0.0025
7.59267e-12
0.0025
7.38473e-12
0.0025
7.17868e-12
0.0025
6.98198e-12
0.0025
6.7861e-12
0.0025
6.60078e-12
0.0025
6.41312e-12
0.0025
6.24186e-12
0.0025
6.05618e-12
0.0025
5.91168e-12
0.0025
5.70345e-12
0.0025
5.63785e-12
0.0025
5.31386e-12
0.0025
5.51098e-12
4.77377e-12
0.00250223
-1.85101e-05
0.00250901
-5.60552e-05
0.00252108
-9.70658e-05
0.0025396
-0.000143276
0.00256615
-0.000195894
0.00260261
-0.000254552
0.00265076
-0.000317093
0.00271098
-0.000376063
0.00278198
-0.000423182
0.00285718
-0.000442029
0.00292807
-0.000425046
0.00299142
-0.000386687
0.00304522
-0.000332249
0.00308812
-0.000265541
0.00311891
-0.000189087
0.00313602
-0.000103816
0.00313785
-1.19476e-05
0.00312346
8.20219e-05
0.0030934
0.000171032
0.00305005
0.000246987
0.00299738
0.00030311
0.00294002
0.000336058
0.0028823
0.000346513
0.00282759
0.000338208
0.00277801
0.000316341
0.00273458
0.000286201
0.0026975
0.000252288
0.00266642
0.000217971
0.00264068
0.000185481
0.00261954
0.000156097
0.00260222
0.000130386
0.00258804
0.000108435
0.0025764
9.00344e-05
0.00256678
7.48232e-05
0.00255877
6.23789e-05
0.00255205
5.22775e-05
0.00254633
4.41252e-05
0.00254141
3.75728e-05
0.00253712
3.23186e-05
0.00253333
2.81067e-05
0.00252992
2.4721e-05
0.00252683
2.19809e-05
0.00252399
1.97366e-05
0.00252135
1.78675e-05
0.00251888
1.62816e-05
0.00251657
1.49141e-05
0.00251438
1.37179e-05
0.0025123
1.2641e-05
0.00251034
1.15915e-05
0.0025085
1.04043e-05
0.00250681
8.83699e-06
0.00250534
6.62239e-06
0.00250416
3.58183e-06
0.00250336
-2.34903e-07
0.00250298
-4.45247e-06
0.002503
-8.38816e-06
0.00250333
-1.12165e-05
0.00250377
-1.22387e-05
0.00250411
-1.11498e-05
0.00250416
-8.18355e-06
0.00250381
-4.06179e-06
0.00250304
2.34069e-07
0.00250196
3.77189e-06
0.00250073
5.93178e-06
0.00249956
6.53086e-06
0.00249861
5.78807e-06
0.00249798
4.17544e-06
0.00249771
2.2342e-06
0.00249775
4.24273e-07
0.00249802
-9.58338e-07
0.00249843
-1.79621e-06
0.00249886
-2.11785e-06
0.00249925
-2.04308e-06
0.00249955
-1.72692e-06
0.00249975
-1.31512e-06
0.00249987
-9.16767e-07
0.00249993
-5.94482e-07
0.00249995
-3.68557e-07
0.00249995
-2.29594e-07
0.00249996
-1.53604e-07
0.00249996
-1.14745e-07
0.00249997
-9.30491e-08
0.00249998
-7.68964e-08
0.00249998
-6.17411e-08
0.00249999
-4.72297e-08
0.00249999
-3.44759e-08
0.00249999
-2.43875e-08
0.0025
-1.71078e-08
0.0025
-1.21677e-08
0.0025
-8.87153e-09
0.0025
-6.60294e-09
0.0025
-4.95052e-09
0.0025
-3.69231e-09
0.0025
-2.72312e-09
0.0025
-1.98741e-09
0.0025
-1.44206e-09
0.0025
-1.04536e-09
0.0025
-7.58837e-10
0.0025
-5.51095e-10
0.0025
-3.99159e-10
0.0025
-2.87279e-10
0.0025
-2.04762e-10
0.0025
-1.44071e-10
0.0025
-9.96368e-11
0.0025
-6.72325e-11
0.0025
-4.36644e-11
0.0025
-2.65544e-11
0.0025
-1.41642e-11
0.0025
-5.22649e-12
0.0025
1.17874e-12
0.0025
5.72925e-12
0.0025
8.91997e-12
0.0025
1.11195e-11
0.0025
1.25945e-11
0.0025
1.35451e-11
0.0025
1.41132e-11
0.0025
1.44076e-11
0.0025
1.45028e-11
0.0025
1.44586e-11
0.0025
1.43131e-11
0.0025
1.41002e-11
0.0025
1.3838e-11
0.0025
1.35465e-11
0.0025
1.32334e-11
0.0025
1.29111e-11
0.0025
1.25814e-11
0.0025
1.2253e-11
0.0025
1.19245e-11
0.0025
1.16026e-11
0.0025
1.1284e-11
0.0025
1.09746e-11
0.0025
1.067e-11
0.0025
1.03757e-11
0.0025
1.00866e-11
0.0025
9.80804e-12
0.0025
9.53459e-12
0.0025
9.27162e-12
0.0025
9.01337e-12
0.0025
8.76528e-12
0.0025
8.52142e-12
0.0025
8.28735e-12
0.0025
8.05695e-12
0.0025
7.83594e-12
0.0025
7.61807e-12
0.0025
7.40918e-12
0.0025
7.20291e-12
0.0025
7.00533e-12
0.0025
6.80976e-12
0.0025
6.62294e-12
0.0025
6.43707e-12
0.0025
6.26115e-12
0.0025
6.0831e-12
0.0025
5.92052e-12
0.0025
5.74458e-12
0.0025
5.60636e-12
0.0025
5.41155e-12
0.0025
5.33909e-12
0.0025
5.05256e-12
0.0025
5.17845e-12
4.5701e-12
0.00250196
-2.04664e-05
0.00250796
-6.20557e-05
0.00251881
-0.000107916
0.00253588
-0.000160353
0.00256115
-0.000221156
0.0025971
-0.000290505
0.00264638
-0.000366371
0.00271019
-0.000439872
0.00278785
-0.000500848
0.00287065
-0.000524826
0.00294737
-0.000501767
0.00301504
-0.000454354
0.00307209
-0.000389301
0.0031176
-0.000311052
0.00315054
-0.000222031
0.0031691
-0.000122372
0.0031712
-1.40442e-05
0.00315541
9.78044e-05
0.00312211
0.000204339
0.00307397
0.000295127
0.00301569
0.000361387
0.00295281
0.00039894
0.00289037
0.000408949
0.00283212
0.000396464
0.00278024
0.000368215
0.00273563
0.000330816
0.00269821
0.000289707
0.00266737
0.000248813
0.00264222
0.000210626
0.00262184
0.000176482
0.00260533
0.000146895
0.00259192
0.00012184
0.00258097
0.000100983
0.00257196
8.38401e-05
0.00256445
6.98832e-05
0.00255813
5.85992e-05
0.00255273
4.95232e-05
0.00254806
4.22499e-05
0.00254394
3.64338e-05
0.00254026
3.17837e-05
0.00253693
2.80557e-05
0.00253386
2.50461e-05
0.00253101
2.25872e-05
0.00252834
2.05442e-05
0.0025258
1.88143e-05
0.00252339
1.73248e-05
0.00252109
1.60229e-05
0.00251888
1.48513e-05
0.00251676
1.37112e-05
0.00251474
1.24263e-05
0.00251284
1.07374e-05
0.0025111
8.35725e-06
0.00250959
5.09134e-06
0.00250837
9.88404e-07
0.00250747
-3.55249e-06
0.00250688
-7.79836e-06
0.00250652
-1.08577e-05
0.00250625
-1.19721e-05
0.00250591
-1.0808e-05
0.00250535
-7.6182e-06
0.00250447
-3.18902e-06
0.0025033
1.40683e-06
0.00250192
5.14775e-06
0.0025005
7.35257e-06
0.00249921
7.82011e-06
0.00249821
6.79433e-06
0.00249758
4.80456e-06
0.00249735
2.46443e-06
0.00249747
3.03238e-07
0.00249784
-1.33188e-06
0.00249835
-2.30018e-06
0.00249887
-2.63638e-06
0.00249931
-2.48969e-06
0.00249964
-2.05594e-06
0.00249985
-1.52013e-06
0.00249995
-1.01932e-06
0.00249998
-6.28887e-07
0.00249998
-3.68406e-07
0.00249997
-2.19471e-07
0.00249997
-1.46713e-07
0.00249997
-1.14906e-07
0.00249997
-9.86312e-08
0.00249998
-8.45416e-08
0.00249999
-6.87145e-08
0.00249999
-5.22466e-08
0.00249999
-3.74891e-08
0.0025
-2.59755e-08
0.0025
-1.79319e-08
0.0025
-1.26895e-08
0.0025
-9.30749e-09
0.0025
-7.00341e-09
0.0025
-5.29826e-09
0.0025
-3.96661e-09
0.0025
-2.92217e-09
0.0025
-2.12496e-09
0.0025
-1.53664e-09
0.0025
-1.11245e-09
0.0025
-8.08411e-10
0.0025
-5.88654e-10
0.0025
-4.27697e-10
0.0025
-3.0876e-10
0.0025
-2.20782e-10
0.0025
-1.56006e-10
0.0025
-1.08603e-10
0.0025
-7.40685e-11
0.0025
-4.89659e-11
0.0025
-3.0737e-11
0.0025
-1.75225e-11
0.0025
-7.97512e-12
0.0025
-1.11892e-12
0.0025
3.76476e-12
0.0025
7.20256e-12
0.0025
9.58629e-12
0.0025
1.12003e-11
0.0025
1.22572e-11
0.0025
1.2908e-11
0.0025
1.3268e-11
0.0025
1.34164e-11
0.0025
1.34164e-11
0.0025
1.33089e-11
0.0025
1.3129e-11
0.0025
1.28967e-11
0.0025
1.26325e-11
0.0025
1.23449e-11
0.0025
1.20466e-11
0.0025
1.174e-11
0.0025
1.14337e-11
0.0025
1.11267e-11
0.0025
1.08255e-11
0.0025
1.05274e-11
0.0025
1.02376e-11
0.0025
9.95248e-12
0.0025
9.67681e-12
0.0025
9.40628e-12
0.0025
9.14551e-12
0.0025
8.88978e-12
0.0025
8.64374e-12
0.0025
8.40237e-12
0.0025
8.17039e-12
0.0025
7.94262e-12
0.0025
7.72385e-12
0.0025
7.50878e-12
0.0025
7.30232e-12
0.0025
7.09903e-12
0.0025
6.90398e-12
0.0025
6.7116e-12
0.0025
6.52718e-12
0.0025
6.34484e-12
0.0025
6.17051e-12
0.0025
5.99727e-12
0.0025
5.83318e-12
0.0025
5.66728e-12
0.0025
5.51555e-12
0.0025
5.35195e-12
0.0025
5.2217e-12
0.0025
5.04308e-12
0.0025
4.96575e-12
0.0025
4.71712e-12
0.0025
4.7852e-12
4.29109e-12
0.00250162
-2.20868e-05
0.00250663
-6.70651e-05
0.00251592
-0.000117202
0.00253107
-0.000175504
0.00255444
-0.000244525
0.00258933
-0.000325397
0.00263948
-0.000416523
0.00270743
-0.000507818
0.0027936
-0.000587026
0.00288604
-0.000617261
0.00296965
-0.000585379
0.00304213
-0.000526836
0.0031027
-0.000449863
0.0031511
-0.000359455
0.00318662
-0.000257556
0.00320714
-0.000142892
0.00320985
-1.67545e-05
0.00319255
0.000115113
0.00315528
0.000241609
0.00310117
0.000349232
0.00303595
0.000426603
0.00296634
0.000468555
0.00289828
0.000477011
0.00283594
0.0004588
0.00278156
0.000422599
0.00273576
0.00037661
0.00269815
0.000327316
0.00266777
0.000279197
0.00264345
0.000234945
0.00262405
0.000195884
0.00260854
0.000162401
0.00259607
0.000134307
0.00258596
0.000111101
0.00257764
9.21512e-05
0.00257072
7.68051e-05
0.00256487
6.44528e-05
0.00255984
5.45547e-05
0.00255544
4.66488e-05
0.00255153
4.03463e-05
0.00254799
3.53227e-05
0.00254474
3.13073e-05
0.00254171
2.80755e-05
0.00253885
2.54425e-05
0.00253613
2.32606e-05
0.00253353
2.14179e-05
0.00253102
1.98346e-05
0.00252859
1.84527e-05
0.00252623
1.72102e-05
0.00252394
1.6003e-05
0.00252172
1.46471e-05
0.00251958
1.28731e-05
0.00251756
1.03812e-05
0.00251568
6.96666e-06
0.002514
2.67708e-06
0.00251252
-2.07384e-06
0.00251124
-6.52077e-06
0.00251011
-9.72876e-06
0.00250904
-1.08996e-05
0.00250791
-9.68217e-06
0.00250664
-6.34468e-06
0.00250517
-1.72278e-06
0.00250354
3.0414e-06
0.00250183
6.85729e-06
0.00250019
8.99541e-06
0.00249877
9.23971e-06
0.0024977
7.85583e-06
0.00249708
5.42548e-06
0.00249691
2.63301e-06
0.00249714
8.01501e-08
0.00249764
-1.82939e-06
0.00249826
-2.92789e-06
0.00249888
-3.25775e-06
0.0024994
-3.00469e-06
0.00249976
-2.41555e-06
0.00249996
-1.72399e-06
0.00250004
-1.10071e-06
0.00250005
-6.34693e-07
0.00250002
-3.41863e-07
0.00249999
-1.90211e-07
0.00249998
-1.28754e-07
0.00249997
-1.10239e-07
0.00249998
-1.02942e-07