/*--------------------------------*- C++ -*----------------------------------*\
  =========                 |
  \\      /  F ield         | OpenFOAM: The Open Source CFD Toolbox
   \\    /   O peration     | Website:  https://openfoam.org
    \\  /    A nd           | Version:  11
     \\/     M anipulation  |
\*---------------------------------------------------------------------------*/
FoamFile
{
    format      ascii;
    class       volVectorField;
    location    "3.092775";
    object      U;
}
// * * * * * * * * * * * * * * * * * * * * * * * * * * * * * * * * * * * * * //

dimensions      [0 1 -1 0 0 0 0];

internalField   nonuniform List<vector> 
7132
(
(1.00014 -0.000288631 2.0172e-18)
(1.00223 -0.000870558 6.637e-18)
(1.00698 -0.00148754 7.1767e-18)
(1.01418 -0.002151 8.94308e-18)
(1.02415 -0.0028636 1.12355e-17)
(1.03707 -0.00360432 1.16767e-17)
(1.053 -0.00433224 1.10614e-17)
(1.07176 -0.00496714 1.01578e-17)
(1.09281 -0.00542174 9.42979e-18)
(1.11525 -0.00560123 9.01033e-18)
(1.13776 -0.00544676 8.67607e-18)
(1.159 -0.0050109 8.66902e-18)
(1.17797 -0.00433894 7.76237e-18)
(1.19382 -0.00347608 8.64434e-18)
(1.20587 -0.00246674 -1.4962e-18)
(1.21362 -0.0013496 -1.09106e-17)
(1.21672 -0.000172387 -2.27021e-17)
(1.21502 0.00100266 -2.01148e-17)
(1.20868 0.00209989 -2.70493e-17)
(1.19815 0.00304136 -3.83471e-17)
(1.18423 0.00376327 -3.86322e-17)
(1.1679 0.00423054 -3.68399e-17)
(1.15022 0.00444244 -3.55412e-17)
(1.1322 0.00442779 -3.58901e-17)
(1.11466 0.00423415 -2.94048e-17)
(1.09821 0.00391592 -2.92193e-17)
(1.08325 0.00352487 -2.98614e-17)
(1.06996 0.00310432 -3.07769e-17)
(1.05838 0.00268678 -3.14802e-17)
(1.04845 0.00229414 -2.90763e-17)
(1.04003 0.00193913 -2.64764e-17)
(1.03294 0.00162751 -2.44482e-17)
(1.02702 0.00136013 -2.43543e-17)
(1.02207 0.00113469 -2.20747e-17)
(1.01795 0.000947206 -1.959e-17)
(1.01451 0.000792906 -1.64959e-17)
(1.01162 0.000666916 -1.33582e-17)
(1.00918 0.000564617 -1.02562e-17)
(1.0071 0.00048183 -5.74004e-18)
(1.00533 0.000414885 -1.47611e-18)
(1.00379 0.000360616 2.73771e-18)
(1.00244 0.000316328 5.83465e-18)
(1.00126 0.00027976 8.29286e-18)
(1.0002 0.000249081 1.08845e-17)
(0.999261 0.000222907 1.20003e-17)
(0.998415 0.000200276 1.22738e-17)
(0.997654 0.000180477 1.13514e-17)
(0.996967 0.00016262 1.10965e-17)
(0.996347 0.000145014 1.35559e-17)
(0.9958 0.000124635 1.72686e-17)
(0.995342 9.71891e-05 2.08389e-17)
(0.995012 5.81874e-05 2.31339e-17)
(0.994862 4.98406e-06 2.15128e-17)
(0.994953 -6.09102e-05 1.46225e-17)
(0.995327 -0.000132452 7.11019e-18)
(0.995988 -0.000197729 5.35418e-18)
(0.996884 -0.000242985 1.60723e-17)
(0.997909 -0.000257113 4.00733e-17)
(0.998922 -0.000235837 7.00138e-17)
(0.999783 -0.000183712 9.75251e-17)
(1.00038 -0.000112941 1.15985e-16)
(1.00068 -3.94874e-05 1.26854e-16)
(1.0007 2.18993e-05 1.34691e-16)
(1.00051 6.17252e-05 1.41489e-16)
(1.0002 7.74742e-05 1.45934e-16)
(0.999882 7.2781e-05 1.37041e-16)
(0.999616 5.48937e-05 1.05077e-16)
(0.999439 3.17388e-05 4.82695e-17)
(0.999358 9.69783e-06 -2.42823e-17)
(0.999358 -7.40766e-06 -9.0926e-17)
(0.999416 -1.82401e-05 -1.3279e-16)
(0.999504 -2.32408e-05 -1.38456e-16)
(0.999603 -2.37795e-05 -1.10255e-16)
(0.999696 -2.147e-05 -6.36214e-17)
(0.999775 -1.7753e-05 -1.5227e-17)
(0.999838 -1.37106e-05 1.87895e-17)
(0.999885 -1.00316e-05 3.27304e-17)
(0.999919 -7.05739e-06 2.99039e-17)
(0.999942 -4.86476e-06 1.72535e-17)
(0.999957 -3.36248e-06 4.96478e-18)
(0.999968 -2.38199e-06 -3.32655e-18)
(0.999976 -1.74816e-06 -6.31818e-18)
(0.999982 -1.32138e-06 -5.21708e-18)
(0.999987 -1.0112e-06 -3.43327e-18)
(0.99999 -7.69883e-07 -7.77875e-19)
(0.999993 -5.77118e-07 5.42694e-19)
(0.999995 -4.2518e-07 7.27984e-19)
(0.999996 -3.09367e-07 5.55217e-19)
(0.999997 -2.24114e-07 -5.63964e-19)
(0.999998 -1.6282e-07 -3.74786e-19)
(0.999999 -1.19036e-07 -2.58644e-19)
(0.999999 -8.74861e-08 -3.17526e-19)
(0.999999 -6.43982e-08 4.83385e-19)
(1 -4.72914e-08 9.2642e-20)
(1 -3.45631e-08 2.42057e-20)
(1 -2.51221e-08 7.12676e-20)
(1 -1.81633e-08 -8.4153e-20)
(1 -1.3062e-08 6.21132e-19)
(1 -9.33185e-09 1.69518e-19)
(1 -6.60419e-09 7.89541e-20)
(1 -4.60726e-09 1.29633e-19)
(1 -3.1447e-09 -1.1098e-20)
(1 -2.07431e-09 7.10081e-19)
(1 -1.29305e-09 2.70179e-19)
(1 -7.24481e-10 1.84015e-19)
(1 -3.12823e-10 2.29779e-19)
(1 -1.59302e-11 7.42731e-20)
(1 1.96212e-10 7.7234e-19)
(1 3.46853e-10 3.04617e-19)
(1 4.51789e-10 1.90734e-19)
(1 5.23935e-10 2.1345e-19)
(1 5.71358e-10 4.25912e-20)
(1 6.01524e-10 7.33766e-19)
(1 6.18277e-10 2.66154e-19)
(1 6.26196e-10 1.565e-19)
(1 6.26788e-10 1.83732e-19)
(1 6.23126e-10 1.66058e-20)
(1 6.15394e-10 7.00938e-19)
(1 6.05898e-10 2.54858e-19)
(1 5.94059e-10 1.64206e-20)
(1 5.81825e-10 6.05374e-19)
(1 5.68153e-10 6.9041e-19)
(1 5.54843e-10 7.96404e-19)
(1 5.40554e-10 2.16729e-19)
(1 5.27051e-10 -4.87917e-20)
(1 5.12788e-10 5.38608e-19)
(1 4.9956e-10 6.27337e-19)
(1 4.8566e-10 7.36881e-19)
(1 4.7294e-10 1.59384e-19)
(1 4.59571e-10 -1.05139e-19)
(1 4.47469e-10 4.82716e-19)
(1 4.347e-10 5.71971e-19)
(1 4.23257e-10 6.82459e-19)
(1 4.1111e-10 1.06395e-19)
(1 4.00325e-10 -1.56299e-19)
(1 3.8879e-10 4.33668e-19)
(1 3.78644e-10 5.25285e-19)
(1 3.67699e-10 6.38403e-19)
(1 3.58161e-10 6.51309e-20)
(1 3.47773e-10 -1.95071e-19)
(1 3.38805e-10 3.96088e-19)
(1 3.28939e-10 4.86127e-19)
(1 3.20504e-10 5.93371e-19)
(1 3.11126e-10 9.08731e-21)
(1 3.03189e-10 -2.6666e-19)
(1 2.94266e-10 3.06863e-19)
(1 2.8679e-10 3.8116e-19)
(1 2.78288e-10 4.7899e-19)
(1 2.71244e-10 -1.04998e-19)
(1 2.63131e-10 -3.69732e-19)
(1 2.56523e-10 2.23639e-19)
(1 2.48744e-10 3.22383e-19)
(1 2.42649e-10 4.44131e-19)
(1 2.34944e-10 -1.20961e-19)
(1 2.29845e-10 -3.73723e-19)
(1 2.20966e-10 2.22486e-19)
(1 2.20063e-10 3.27185e-19)
(1 2.03683e-10 4.12284e-19)
(1 2.23146e-10 -3.58067e-21)
(1 1.76565e-10 -9.74233e-19)
(1.00014 -0.000863058 3.71944e-20)
(1.00221 -0.00260447 3.42834e-19)
(1.00692 -0.00445232 6.7262e-19)
(1.01408 -0.00644345 1.03384e-18)
(1.02402 -0.00858686 1.44665e-18)
(1.03694 -0.0108207 1.84809e-18)
(1.05292 -0.0130229 2.21488e-18)
(1.07183 -0.0149491 2.08571e-18)
(1.09312 -0.0163337 5.36872e-18)
(1.11588 -0.0168818 6.81199e-18)
(1.1387 -0.0164119 4.18438e-18)
(1.16021 -0.0150938 5.68641e-18)
(1.17941 -0.0130665 2.43397e-18)
(1.19544 -0.010467 1.11397e-17)
(1.20762 -0.00742852 3.1532e-17)
(1.21546 -0.00406493 5.10316e-17)
(1.21858 -0.000517252 5.50211e-17)
(1.21685 0.00302842 4.74921e-17)
(1.21038 0.00634272 3.2688e-17)
(1.19967 0.00918748 1.36268e-17)
(1.1855 0.0113669 -6.43647e-18)
(1.16891 0.0127731 -2.54895e-17)
(1.15098 0.0134042 -4.23787e-17)
(1.13275 0.0133491 -5.66166e-17)
(1.11505 0.0127537 -6.73818e-17)
(1.09849 0.0117841 -7.48849e-17)
(1.08347 0.0105978 -7.93099e-17)
(1.07016 0.00932551 -8.07952e-17)
(1.05859 0.00806519 -7.96252e-17)
(1.04868 0.0068821 -7.57647e-17)
(1.04029 0.00581403 -6.76994e-17)
(1.03324 0.00487768 -6.26667e-17)
(1.02735 0.00407506 -5.44989e-17)
(1.02244 0.00339898 -4.32631e-17)
(1.01834 0.0028371 -3.08258e-17)
(1.01492 0.00237497 -1.48414e-17)
(1.01205 0.00199782 -3.61732e-19)
(1.00963 0.00169172 1.42223e-17)
(1.00756 0.0014441 2.86593e-17)
(1.00579 0.00124395 4.13514e-17)
(1.00425 0.00108176 5.2363e-17)
(1.00291 0.000949455 5.76858e-17)
(1.00172 0.000840262 5.96415e-17)
(1.00067 0.000748693 5.80976e-17)
(0.999719 0.000670588 5.36178e-17)
(0.998867 0.00060306 4.80436e-17)
(0.998097 0.000543984 4.1314e-17)
(0.9974 0.00049075 3.99319e-17)
(0.99677 0.000438405 4.67181e-17)
(0.99621 0.000378048 5.89303e-17)
(0.995737 0.000296955 7.06244e-17)
(0.995388 0.000181686 6.88472e-17)
(0.995214 2.41208e-05 4.6873e-17)
(0.995273 -0.000171621 1.17069e-17)
(0.99561 -0.00038494 -1.6423e-17)
(0.996228 -0.000580563 -1.00889e-17)
(0.997081 -0.000717409 4.15301e-17)
(0.998064 -0.000761974 1.25465e-16)
(0.99904 -0.00070092 2.07805e-16)
(0.99987 -0.000547235 2.54315e-16)
(1.00045 -0.00033695 2.59032e-16)
(1.00073 -0.000117641 2.45115e-16)
(1.00073 6.63994e-05 2.51845e-16)
(1.00053 0.000186364 2.98372e-16)
(1.00022 0.000234262 3.66232e-16)
(0.999891 0.000220621 4.0126e-16)
(0.999618 0.000166984 3.41348e-16)
(0.999436 9.71356e-05 1.66404e-16)
(0.999353 3.03693e-05 -9.1482e-17)
(0.999353 -2.16447e-05 -3.50834e-16)
(0.999412 -5.4718e-05 -5.22786e-16)
(0.999502 -7.00778e-05 -5.56868e-16)
(0.999603 -7.18244e-05 -4.53121e-16)
(0.999697 -6.48532e-05 -2.67056e-16)
(0.999778 -5.3566e-05 -7.21128e-17)
(0.999841 -4.12834e-05 7.08287e-17)
(0.999888 -3.01211e-05 1.31776e-16)
(0.999921 -2.11228e-05 1.23816e-16)
(0.999943 -1.45164e-05 7.66302e-17)
(0.999958 -1.00133e-05 2.48788e-17)
(0.999969 -7.09082e-06 -9.50465e-18)
(0.999977 -5.21045e-06 -2.42714e-17)
(0.999982 -3.94631e-06 -2.15494e-17)
(0.999987 -3.02529e-06 -1.23381e-17)
(0.99999 -2.30553e-06 -2.92442e-18)
(0.999993 -1.72839e-06 3.59533e-18)
(0.999995 -1.27264e-06 3.64387e-18)
(0.999996 -9.2525e-07 2.35739e-18)
(0.999997 -6.69844e-07 5.9278e-20)
(0.999998 -4.86531e-07 -7.85423e-19)
(0.999999 -3.55773e-07 2.34555e-19)
(0.999999 -2.61607e-07 -1.62072e-19)
(0.999999 -1.92676e-07 5.26527e-19)
(1 -1.41564e-07 7.22499e-19)
(1 -1.03506e-07 6.82368e-19)
(1 -7.52676e-08 7.27345e-19)
(1 -5.44539e-08 -5.51147e-20)
(1 -3.91991e-08 3.76191e-19)
(1 -2.80468e-08 4.46848e-19)
(1 -1.98921e-08 4.05998e-19)
(1 -1.39214e-08 5.20705e-19)
(1 -9.5471e-09 -1.77498e-19)
(1 -6.34485e-09 3.21356e-19)
(1 -4.0065e-09 4.35325e-19)
(1 -2.30424e-09 4.17524e-19)
(1 -1.07072e-09 5.4063e-19)
(1 -1.80687e-10 -1.59992e-19)
(1 4.56558e-10 3.28388e-19)
(1 9.09432e-10 4.26994e-19)
(1 1.22625e-09 3.92852e-19)
(1 1.44445e-09 5.0246e-19)
(1 1.58941e-09 -2.06229e-19)
(1 1.68206e-09 2.80176e-19)
(1 1.73536e-09 3.81642e-19)
(1 1.76142e-09 3.52787e-19)
(1 1.76642e-09 4.66991e-19)
(1 1.75775e-09 -2.38375e-19)
(1 1.73785e-09 2.41831e-19)
(1 1.71161e-09 3.63239e-19)
(1 1.67939e-09 2.14437e-19)
(1 1.64484e-09 8.76392e-19)
(1 1.60708e-09 3.92251e-19)
(1 1.56916e-09 2.92974e-19)
(1 1.52949e-09 2.9183e-19)
(1 1.49084e-09 1.28407e-19)
(1 1.45119e-09 7.99111e-19)
(1 1.41319e-09 3.26263e-19)
(1 1.37455e-09 2.35853e-19)
(1 1.33792e-09 2.40508e-19)
(1 1.30078e-09 8.05175e-20)
(1 1.26585e-09 7.53289e-19)
(1 1.23043e-09 2.81996e-19)
(1 1.1973e-09 1.93123e-19)
(1 1.16366e-09 1.99461e-19)
(1 1.13237e-09 4.12743e-20)
(1 1.10048e-09 7.15912e-19)
(1 1.07096e-09 2.46577e-19)
(1 1.04077e-09 1.59849e-19)
(1 1.01294e-09 1.68518e-19)
(1 9.84342e-10 1.25198e-20)
(1 9.58098e-10 6.88341e-19)
(1 9.31e-10 2.17806e-19)
(1 9.0624e-10 1.25968e-19)
(1 8.8054e-10 1.24627e-19)
(1 8.57163e-10 -4.59629e-20)
(1 8.32764e-10 6.12772e-19)
(1 8.10674e-10 1.2632e-19)
(1 7.87478e-10 2.4009e-20)
(1 7.66598e-10 2.10891e-20)
(1 7.44504e-10 -1.40871e-19)
(1 7.24833e-10 5.35248e-19)
(1 7.03666e-10 7.1127e-20)
(1 6.85452e-10 -8.74946e-21)
(1 6.64512e-10 6.47185e-21)
(1 6.49248e-10 -1.43745e-19)
(1 6.25147e-10 5.35662e-19)
(1 6.21677e-10 7.66568e-20)
(1 5.77114e-10 -3.47202e-20)
(1 6.28749e-10 1.09458e-19)
(1 5.02601e-10 -6.79473e-19)
(1.00014 -0.00142961 9.23075e-22)
(1.00217 -0.00431613 4.87021e-21)
(1.0068 -0.00738581 1.69954e-21)
(1.01386 -0.010706 6.48761e-21)
(1.02373 -0.0142967 -1.5296e-19)
(1.03664 -0.0180591 2.25844e-19)
(1.05274 -0.0217919 -8.02382e-19)
(1.07195 -0.025076 -1.46657e-18)
(1.09372 -0.0274558 5.99778e-18)
(1.11712 -0.0284023 -1.19574e-18)
(1.14059 -0.0275965 -3.46953e-17)
(1.16264 -0.0253627 -2.68242e-17)
(1.18229 -0.0219444 8.64192e-17)
(1.19866 -0.0175744 2.57282e-16)
(1.21111 -0.0124733 3.57444e-16)
(1.21912 -0.006824 3.01096e-16)
(1.22231 -0.000858225 1.26799e-16)
(1.22049 0.00511153 -6.3975e-17)
(1.21378 0.0106948 -2.26312e-16)
(1.20267 0.0154835 -3.46267e-16)
(1.18801 0.0191416 -4.23829e-16)
(1.17087 0.0214858 -4.648e-16)
(1.15243 0.0225161 -4.76629e-16)
(1.13376 0.0223885 -4.66338e-16)
(1.11573 0.0213548 -4.397e-16)
(1.09896 0.0196992 -4.01051e-16)
(1.08381 0.0176883 -3.53673e-16)
(1.07046 0.0155426 -3.00163e-16)
(1.0589 0.0134249 -2.42634e-16)
(1.04904 0.0114431 -1.82704e-16)
(1.04072 0.0096586 -1.21011e-16)
(1.03375 0.00809754 -5.84737e-17)
(1.02793 0.00676192 4.79423e-18)
(1.02309 0.00563857 6.85104e-17)
(1.01905 0.0047062 1.31407e-16)
(1.01568 0.00394015 1.91707e-16)
(1.01285 0.00331554 2.46324e-16)
(1.01046 0.00280899 2.91844e-16)
(1.00842 0.0023995 3.2484e-16)
(1.00666 0.0020687 3.42233e-16)
(1.00514 0.00180081 3.42264e-16)
(1.0038 0.00158241 3.24521e-16)
(1.00261 0.00140226 2.90749e-16)
(1.00155 0.00125127 2.44548e-16)
(1.00059 0.00112252 1.91574e-16)
(0.999729 0.00101121 1.40729e-16)
(0.998945 0.000913813 1.0424e-16)
(0.998231 0.000826091 9.50142e-17)
(0.997582 0.00074001 1.17337e-16)
(0.997 0.000641092 1.55044e-16)
(0.996501 0.000508515 1.70616e-16)
(0.996119 0.000320098 1.20027e-16)
(0.995904 6.21659e-05 -9.85744e-18)
(0.995912 -0.000259016 -1.72464e-16)
(0.996185 -0.000610072 -2.77901e-16)
(0.996731 -0.000933235 -2.43471e-16)
(0.997503 -0.00116076 -6.44631e-17)
(0.998405 -0.00123697 1.60483e-16)
(0.999304 -0.00113917 2.81099e-16)
(1.00007 -0.000888117 2.00456e-16)
(1.00059 -0.000542826 -3.11827e-17)
(1.00082 -0.000181782 -2.2676e-16)
(1.00079 0.000121585 -1.78053e-16)
(1.00056 0.000319199 1.84508e-16)
(1.00023 0.000397372 7.16229e-16)
(0.999888 0.000373205 1.11503e-15)
(0.999606 0.000282295 1.0729e-15)
(0.99942 0.00016421 4.62995e-16)
(0.999336 5.1265e-05 -5.67581e-16)
(0.99934 -3.68247e-05 -1.65411e-15)
(0.999403 -9.28421e-05 -2.38802e-15)
(0.9995 -0.000118735 -2.51778e-15)
(0.999606 -0.00012141 -2.04761e-15)
(0.999704 -0.000109223 -1.21005e-15)
(0.999787 -8.97462e-05 -3.35188e-16)
(0.99985 -6.87096e-05 3.06438e-16)
(0.999895 -4.97457e-05 5.93181e-16)
(0.999927 -3.46077e-05 5.65363e-16)
(0.999947 -2.36244e-05 3.59931e-16)
(0.999961 -1.62378e-05 1.24474e-16)
(0.999971 -1.15075e-05 -4.04972e-17)
(0.999978 -8.49234e-06 -1.0735e-16)
(0.999983 -6.46598e-06 -9.80835e-17)
(0.999988 -4.97605e-06 -5.4595e-17)
(0.999991 -3.7977e-06 -1.31222e-17)
(0.999993 -2.84508e-06 1.155e-17)
(0.999995 -2.09083e-06 1.7239e-17)
(0.999997 -1.51688e-06 1.21239e-17)
(0.999997 -1.09663e-06 4.67426e-18)
(0.999998 -7.96326e-07 -1.08791e-18)
(0.999999 -5.82749e-07 -2.86203e-18)
(0.999999 -4.29028e-07 -2.37419e-18)
(0.999999 -3.16344e-07 -1.16131e-18)
(1 -2.32615e-07 -2.12363e-19)
(1 -1.70177e-07 2.00056e-19)
(1 -1.23825e-07 2.70222e-19)
(1 -8.9673e-08 1.30511e-19)
(1 -6.4659e-08 4.78379e-20)
(1 -4.63814e-08 4.74086e-20)
(1 -3.30176e-08 8.44328e-20)
(1 -2.32297e-08 1.61848e-19)
(1 -1.60551e-08 1.52998e-19)
(1 -1.07998e-08 1.69558e-19)
(1 -6.95986e-09 1.98134e-19)
(1 -4.16279e-09 2.16583e-19)
(1 -2.13366e-09 2.59644e-19)
(1 -6.67898e-10 2.18652e-19)
(1 3.84197e-10 2.09505e-19)
(1 1.13374e-09 2.17273e-19)
(1 1.66092e-09 2.18469e-19)
(1 2.02596e-09 2.48164e-19)
(1 2.27159e-09 1.98564e-19)
(1 2.43085e-09 1.85599e-19)
(1 2.52631e-09 1.93058e-19)
(1 2.57635e-09 1.95355e-19)
(1 2.59259e-09 2.25289e-19)
(1 2.58554e-09 1.74248e-19)
(1 2.56085e-09 1.55765e-19)
(1 2.52479e-09 1.62812e-19)
(1 2.47975e-09 1.44208e-19)
(1 2.42979e-09 2.03351e-19)
(1 2.37547e-09 2.2494e-19)
(1 2.31968e-09 2.24579e-19)
(1 2.26198e-09 2.25954e-19)
(1 2.20468e-09 1.96504e-19)
(1 2.14674e-09 2.45161e-19)
(1 2.09018e-09 2.57164e-19)
(1 2.03362e-09 2.47684e-19)
(1 1.97895e-09 2.40302e-19)
(1 1.92457e-09 2.02785e-19)
(1 1.87234e-09 2.44533e-19)
(1 1.8205e-09 2.51102e-19)
(1 1.7709e-09 2.37689e-19)
(1 1.72171e-09 2.27649e-19)
(1 1.67479e-09 1.88413e-19)
(1 1.62821e-09 2.29108e-19)
(1 1.58389e-09 2.35174e-19)
(1 1.53983e-09 2.21844e-19)
(1 1.49798e-09 2.12498e-19)
(1 1.4563e-09 1.74335e-19)
(1 1.4168e-09 2.15749e-19)
(1 1.37735e-09 2.20896e-19)
(1 1.34002e-09 2.03449e-19)
(1 1.30266e-09 1.85575e-19)
(1 1.26736e-09 1.34367e-19)
(1 1.23194e-09 1.59763e-19)
(1 1.19854e-09 1.49067e-19)
(1 1.16491e-09 1.19923e-19)
(1 1.13329e-09 9.7979e-20)
(1 1.10129e-09 5.20054e-20)
(1 1.07145e-09 9.10914e-20)
(1 1.0408e-09 9.93824e-20)
(1 1.01314e-09 9.01545e-20)
(1 9.82819e-10 8.49069e-20)
(1 9.59628e-10 5.00054e-20)
(1 9.24773e-10 9.32865e-20)
(1 9.18546e-10 1.03121e-19)
(1 8.55106e-10 8.36402e-20)
(1 9.24286e-10 9.88672e-20)
(1 7.48884e-10 -5.74803e-21)
(1.00014 -0.00198278 -2.20786e-20)
(1.00211 -0.00598896 -4.63805e-19)
(1.0066 -0.0102648 -8.26433e-19)
(1.01352 -0.0149151 -1.64343e-18)
(1.02326 -0.0199796 -1.81663e-18)
(1.03615 -0.0253297 -1.74333e-18)
(1.05241 -0.030689 -1.09807e-17)
(1.07205 -0.0354457 1.72415e-17)
(1.09456 -0.0389353 3.21598e-18)
(1.11896 -0.040331 -1.33482e-16)
(1.14343 -0.0391494 -2.43904e-17)
(1.1663 -0.0359405 6.02414e-16)
(1.18661 -0.03107 1.14773e-15)
(1.20351 -0.0248735 7.28288e-16)
(1.21636 -0.0176563 -8.24668e-16)
(1.22464 -0.00965784 -2.76482e-15)
(1.22792 -0.00119054 -3.90227e-15)
(1.22598 0.00730637 -4.32594e-15)
(1.21889 0.0152662 -4.2678e-15)
(1.20718 0.0220879 -3.91446e-15)
(1.19174 0.0272755 -3.40841e-15)
(1.17377 0.0305626 -2.84467e-15)
(1.15455 0.0319566 -2.27905e-15)
(1.13522 0.0316946 -1.74031e-15)
(1.11669 0.0301502 -1.24146e-15)
(1.09959 0.0277384 -7.8796e-16)
(1.08427 0.0248436 -3.80625e-16)
(1.07086 0.0217788 -1.78325e-17)
(1.05932 0.0187722 3.04189e-16)
(1.04954 0.0159724 5.9166e-16)
(1.04132 0.0134615 8.52751e-16)
(1.03446 0.0112726 1.08686e-15)
(1.02876 0.00940529 1.30186e-15)
(1.02402 0.00783861 1.49442e-15)
(1.02007 0.00654095 1.65545e-15)
(1.01678 0.00547665 1.77784e-15)
(1.01401 0.00461014 1.84631e-15)
(1.01166 0.00390833 1.85343e-15)
(1.00966 0.00334165 1.79219e-15)
(1.00793 0.00288438 1.65903e-15)
(1.00642 0.00251446 1.45838e-15)
(1.00509 0.00221319 1.19791e-15)
(1.0039 0.00196494 8.98027e-16)
(1.00283 0.00175705 5.82051e-16)
(1.00187 0.00157989 2.79571e-16)
(1.00099 0.00142675 2.77036e-17)
(1.00018 0.00129274 -1.35833e-16)
(0.999446 0.00117207 -1.81309e-16)
(0.99877 0.00105386 -1.27738e-16)
(0.998157 0.000918443 -6.92327e-17)
(0.997622 0.000737408 -1.57004e-16)
(0.997195 0.000480237 -5.247e-16)
(0.996922 0.000127753 -1.16199e-15)
(0.996858 -0.000312099 -1.85566e-15)
(0.997042 -0.00079415 -2.29855e-15)
(0.997482 -0.00123939 -2.31019e-15)
(0.998138 -0.00155457 -2.04587e-15)
(0.998919 -0.00166248 -1.98174e-15)
(0.9997 -0.00153108 -2.61624e-15)
(1.00035 -0.00118821 -4.04266e-15)
(1.00078 -0.000714828 -5.71124e-15)
(1.00094 -0.000219219 -6.63963e-15)
(1.00085 0.000196902 -5.99415e-15)
(1.00058 0.00046662 -3.7031e-15)
(1.00022 0.000570572 -6.26079e-16)
(0.999863 0.000532199 1.78167e-15)
(0.999571 0.000400887 2.17712e-15)
(0.999383 0.000231863 7.18606e-17)
(0.999302 7.05228e-05 -3.84937e-15)
(0.999314 -5.51837e-05 -8.01278e-15)
(0.999388 -0.000134848 -1.07248e-14)
(0.999495 -0.000171125 -1.09632e-14)
(0.99961 -0.000173906 -8.76994e-15)
(0.999714 -0.000155326 -5.12201e-15)
(0.9998 -0.000126477 -1.3765e-15)
(0.999863 -9.5766e-05 1.34963e-15)
(0.999907 -6.84662e-05 2.56669e-15)
(0.999935 -4.70252e-05 2.45098e-15)
(0.999953 -3.17655e-05 1.57511e-15)
(0.999965 -2.17248e-05 5.6636e-16)
(0.999973 -1.54325e-05 -1.54293e-16)
(0.999979 -1.14787e-05 -4.58085e-16)
(0.999984 -8.81671e-06 -4.29771e-16)
(0.999988 -6.82518e-06 -2.47659e-16)
(0.999992 -5.21815e-06 -6.33597e-17)
(0.999994 -3.90278e-06 4.7002e-17)
(0.999996 -2.85817e-06 7.43545e-17)
(0.999997 -2.06627e-06 5.41894e-17)
(0.999998 -1.49058e-06 2.11104e-17)
(0.999998 -1.08217e-06 -1.85273e-18)
(0.999999 -7.93002e-07 -9.19471e-18)
(0.999999 -5.84952e-07 -8.43193e-18)
(0.999999 -4.32021e-07 -3.35708e-18)
(1 -3.17985e-07 3.75665e-19)
(1 -2.32747e-07 1.81917e-18)
(1 -1.69436e-07 1.83126e-18)
(1 -1.22825e-07 4.52568e-19)
(1 -8.87279e-08 3.45694e-19)
(1 -6.38346e-08 1.79853e-19)
(1 -4.56357e-08 1.49744e-19)
(1 -3.23002e-08 3.64275e-19)
(1 -2.25175e-08 -2.66078e-19)
(1 -1.53466e-08 2.14708e-19)
(1 -1.01033e-08 2.92616e-19)
(1 -6.28127e-09 2.69564e-19)
(1 -3.50567e-09 4.12143e-19)
(1 -1.49764e-09 -2.76123e-19)
(1 -5.28236e-11 1.82461e-19)
(1 9.79949e-10 2.60585e-19)
(1 1.71011e-09 2.43584e-19)
(1 2.21936e-09 3.90325e-19)
(1 2.56617e-09 -2.96024e-19)
(1 2.79515e-09 1.64024e-19)
(1 2.93739e-09 2.43858e-19)
(1 3.01754e-09 2.28082e-19)
(1 3.05177e-09 3.74039e-19)
(1 3.05397e-09 -3.14441e-19)
(1 3.03222e-09 1.36234e-19)
(1 2.99464e-09 2.32014e-19)
(1 2.94487e-09 1.04858e-19)
(1 2.88799e-09 7.85183e-19)
(1 2.82521e-09 2.86451e-19)
(1 2.75998e-09 1.55495e-19)
(1 2.69219e-09 1.38742e-19)
(1 2.62445e-09 8.39583e-21)
(1 2.55588e-09 7.06683e-19)
(1 2.48867e-09 2.25755e-19)
(1 2.42151e-09 1.08031e-19)
(1 2.3564e-09 1.0002e-19)
(1 2.29173e-09 -2.47962e-20)
(1 2.22945e-09 6.77155e-19)
(1 2.16776e-09 1.99021e-19)
(1 2.10859e-09 8.37435e-20)
(1 2.05004e-09 7.79747e-20)
(1 1.99406e-09 -4.48488e-20)
(1 1.93862e-09 6.58801e-19)
(1 1.88574e-09 1.82168e-19)
(1 1.83331e-09 6.84377e-20)
(1 1.78338e-09 6.45134e-20)
(1 1.7338e-09 -5.61418e-20)
(1 1.68665e-09 6.49531e-19)
(1 1.63974e-09 1.73705e-19)
(1 1.59519e-09 5.8084e-20)
(1 1.55077e-09 4.82265e-20)
(1 1.50865e-09 -8.28659e-20)
(1 1.46653e-09 6.08888e-19)
(1 1.42667e-09 1.18276e-19)
(1 1.3867e-09 -9.39641e-21)
(1 1.34896e-09 -2.51444e-20)
(1 1.31094e-09 -1.53975e-19)
(1 1.27534e-09 5.47932e-19)
(1 1.23891e-09 7.28924e-20)
(1 1.20594e-09 -3.75678e-20)
(1 1.16987e-09 -3.83361e-20)
(1 1.14224e-09 -1.56631e-19)
(1 1.10092e-09 5.48866e-19)
(1 1.09247e-09 7.96009e-20)
(1 1.01987e-09 -6.01282e-20)
(1 1.09129e-09 6.35361e-20)
(1 8.99148e-10 -6.71936e-19)
(1.00013 -0.00251584 -2.01975e-18)
(1.00201 -0.00760376 -7.12583e-18)
(1.00633 -0.0130607 -5.9838e-18)
(1.01303 -0.0190398 -9.32867e-18)
(1.02258 -0.0256127 2.03198e-20)
(1.03538 -0.0326336 -2.94145e-17)
(1.05184 -0.0397583 2.07949e-17)
(1.07204 -0.0461586 8.05427e-17)
(1.09557 -0.0509339 -4.27631e-16)
(1.12138 -0.0528529 3.8356e-17)
(1.14723 -0.0512283 2.30632e-15)
(1.17119 -0.046954 2.36269e-15)
(1.19238 -0.0405433 -4.25969e-15)
(1.20998 -0.0324423 -1.62719e-14)
(1.22336 -0.0230352 -2.72903e-14)
(1.23202 -0.012599 -3.14177e-14)
(1.23545 -0.00151957 -2.69625e-14)
(1.23335 0.00963291 -1.95724e-14)
(1.22577 0.020099 -1.22023e-14)
(1.21321 0.0290601 -6.01261e-15)
(1.19671 0.0358373 -1.30231e-15)
(1.17759 0.0400706 2.08519e-15)
(1.15729 0.0417817 4.46031e-15)
(1.13706 0.0413062 6.12992e-15)
(1.11787 0.0391597 7.32554e-15)
(1.10034 0.0359045 8.18443e-15)
(1.08479 0.0320526 8.79834e-15)
(1.07131 0.028014 9.21454e-15)
(1.05982 0.0240821 9.47688e-15)
(1.05015 0.0204432 9.63011e-15)
(1.04208 0.0171969 9.7112e-15)
(1.03538 0.0143794 9.74381e-15)
(1.02983 0.0119848 9.72224e-15)
(1.02523 0.00998213 9.61311e-15)
(1.02141 0.00832771 9.37551e-15)
(1.01821 0.00697381 8.9668e-15)
(1.01552 0.00587359 8.35417e-15)
(1.01324 0.00498395 7.51809e-15)
(1.01128 0.00426667 6.4559e-15)
(1.00959 0.00368867 5.18991e-15)
(1.0081 0.0032217 3.76542e-15)
(1.00678 0.00284189 2.25272e-15)
(1.00559 0.00252932 7.39239e-16)
(1.00452 0.00226786 -6.7681e-16)
(1.00354 0.00204524 -1.88899e-15)
(1.00264 0.00185287 -2.79327e-15)
(1.00181 0.00168452 -3.31187e-15)
(1.00104 0.00153293 -3.46133e-15)
(1.00033 0.00138467 -3.43915e-15)
(0.999674 0.00121541 -3.6576e-15)
(0.999091 0.000989829 -4.62778e-15)
(0.998605 0.000669662 -6.66219e-15)
(0.99826 0.000230426 -9.53753e-15)
(0.998103 -0.000318767 -1.2462e-14)
(0.998171 -0.000922199 -1.46183e-14)
(0.998474 -0.00148134 -1.59304e-14)
(0.998976 -0.0018791 -1.74718e-14)
(0.999595 -0.00201788 -2.09724e-14)
(1.00022 -0.00185649 -2.74915e-14)
(1.00072 -0.00142913 -3.60994e-14)
(1.00103 -0.000837345 -4.36563e-14)
(1.00108 -0.000217626 -4.61844e-14)
(1.00092 0.000301345 -4.11855e-14)
(1.00059 0.000634593 -2.95056e-14)
(1.00019 0.000757274 -1.53964e-14)
(0.99981 0.000698959 -4.82036e-15)
(0.999508 0.000522494 -2.67512e-15)
(0.999319 0.000298585 -1.02419e-14)
(0.999247 8.57727e-05 -2.43262e-14)
(0.999272 -7.95352e-05 -3.86811e-14)
(0.999363 -0.000183552 -4.69978e-14)
(0.999486 -0.000229669 -4.57472e-14)
(0.999615 -0.000231064 -3.54778e-14)
(0.999728 -0.000204152 -2.01358e-14)
(0.999817 -0.000164065 -4.9514e-15)
(0.999881 -0.000122269 5.88655e-15)
(0.999922 -8.58423e-05 1.0636e-14)
(0.999946 -5.78802e-05 1.00748e-14)
(0.999961 -3.85194e-05 6.49774e-15)
(0.99997 -2.61807e-05 2.38502e-15)
(0.999976 -1.86928e-05 -5.8241e-16)
(0.999981 -1.40828e-05 -1.86111e-15)
(0.999986 -1.09591e-05 -1.78272e-15)
(0.999989 -8.55197e-06 -1.05105e-15)
(0.999992 -6.54977e-06 -2.91368e-16)
(0.999995 -4.88349e-06 1.73832e-16)
(0.999996 -3.55673e-06 3.05738e-16)
(0.999997 -2.55774e-06 2.31059e-16)
(0.999998 -1.83957e-06 9.76868e-17)
(0.999998 -1.33553e-06 -2.16366e-18)
(0.999999 -9.80819e-07 -4.16217e-17)
(0.999999 -7.25537e-07 -3.86204e-17)
(0.999999 -5.36994e-07 -1.9247e-17)
(1 -3.95641e-07 -2.91966e-18)
(1 -2.89639e-07 4.90727e-18)
(1 -2.10871e-07 5.34009e-18)
(1 -1.5297e-07 2.21639e-18)
(1 -1.10697e-07 -5.17499e-20)
(1 -7.9874e-08 -1.07172e-18)
(1 -5.73434e-08 -4.80704e-19)
(1 -4.08217e-08 1.14348e-19)
(1 -2.86894e-08 -1.94973e-19)
(1 -1.97887e-08 -1.31002e-19)
(1 -1.32763e-08 -2.11719e-19)
(1 -8.52639e-09 3.21635e-19)
(1 -5.07384e-09 5.30297e-19)
(1 -2.57252e-09 -8.32526e-20)
(1 -7.68633e-10 -1.42675e-19)
(1 5.24973e-10 -2.29394e-19)
(1 1.44404e-09 3.31613e-19)
(1 2.08942e-09 5.57595e-19)
(1 2.53376e-09 -5.54647e-20)
(1 2.83201e-09 -1.22546e-19)
(1 3.02296e-09 -2.17354e-19)
(1 3.13677e-09 3.37385e-19)
(1 3.19382e-09 5.57613e-19)
(1 3.21089e-09 -6.15643e-20)
(1 3.19835e-09 -1.37451e-19)
(1 3.16582e-09 -2.34382e-19)
(1 3.11824e-09 2.99328e-19)
(1 3.06139e-09 5.49803e-19)
(1 2.99725e-09 4.67277e-21)
(1 2.92959e-09 -5.2046e-20)
(1 2.85875e-09 -1.54439e-19)
(1 2.78744e-09 3.67699e-19)
(1 2.7151e-09 6.06219e-19)
(1 2.64388e-09 4.9661e-20)
(1 2.57272e-09 -1.80177e-20)
(1 2.50351e-09 -1.30728e-19)
(1 2.43486e-09 3.82191e-19)
(1 2.36856e-09 6.13056e-19)
(1 2.30303e-09 5.06309e-20)
(1 2.24002e-09 -2.12284e-20)
(1 2.17782e-09 -1.36779e-19)
(1 2.11818e-09 3.74216e-19)
(1 2.05929e-09 6.03744e-19)
(1 2.00296e-09 4.04557e-20)
(1 1.94728e-09 -3.16886e-20)
(1 1.8941e-09 -1.46748e-19)
(1 1.84146e-09 3.6556e-19)
(1 1.79124e-09 5.96842e-19)
(1 1.74145e-09 3.47781e-20)
(1 1.69401e-09 -3.81086e-20)
(1 1.64688e-09 -1.57314e-19)
(1 1.60202e-09 3.46706e-19)
(1 1.55735e-09 5.66131e-19)
(1 1.5149e-09 -9.26442e-21)
(1 1.47252e-09 -9.38036e-20)
(1 1.43234e-09 -2.19767e-19)
(1 1.39203e-09 2.84481e-19)
(1 1.35414e-09 5.11266e-19)
(1 1.31551e-09 -5.15314e-20)
(1 1.28046e-09 -1.21443e-19)
(1 1.24219e-09 -2.34237e-19)
(1 1.21278e-09 2.7969e-19)
(1 1.16922e-09 5.09835e-19)
(1 1.15876e-09 -4.63047e-20)
(1 1.08559e-09 -1.46352e-19)
(1 1.14757e-09 -1.31834e-19)
(1 9.64444e-10 -2.1998e-19)
(1.00012 -0.00302115 2.12207e-18)
(1.00189 -0.00913816 8.0841e-18)
(1.00596 -0.0157394 5.48804e-18)
(1.01234 -0.0230405 9.43826e-18)
(1.02161 -0.0311623 2.27401e-17)
(1.03426 -0.0399609 -9.60523e-17)
(1.05091 -0.0490375 4.57931e-16)
(1.0718 -0.057319 -9.65207e-16)
(1.09664 -0.0636346 -4.47858e-16)
(1.12434 -0.0661774 6.71097e-15)
(1.15199 -0.0640004 2.26572e-15)
(1.17733 -0.0585294 -2.90562e-14)
(1.19963 -0.0504589 -6.81914e-14)
(1.21808 -0.0403571 -7.87013e-14)
(1.23214 -0.0286749 -4.39038e-14)
(1.24127 -0.0156934 2.09105e-14)
(1.24491 -0.00184421 7.77602e-14)
(1.24263 0.0121713 1.15931e-13)
(1.2344 0.0253626 1.35818e-13)
(1.22077 0.0366397 1.41136e-13)
(1.20288 0.0450985 1.36608e-13)
(1.18228 0.0502738 1.26572e-13)
(1.16059 0.0522184 1.14364e-13)
(1.13922 0.0513988 1.02134e-13)
(1.1192 0.0485055 9.09901e-14)
(1.10114 0.044273 8.12651e-14)
(1.08533 0.0393546 7.28831e-14)
(1.07179 0.0342616 6.56139e-14)
(1.06038 0.029351 5.92471e-14)
(1.05086 0.0248423 5.36425e-14)
(1.04299 0.0208468 4.8683e-14)
(1.0365 0.0173985 4.42218e-14)
(1.03114 0.0144816 4.00546e-14)
(1.02672 0.0120519 3.59491e-14)
(1.02304 0.0100514 3.16862e-14)
(1.01998 0.00841893 2.71077e-14)
(1.01739 0.00709551 2.2128e-14)
(1.01519 0.00602762 1.67345e-14)
(1.01329 0.00516826 1.09884e-14)
(1.01163 0.00447701 5.02415e-15)
(1.01017 0.00391951 -9.4592e-16)
(1.00886 0.00346683 -6.65051e-15)
(1.00768 0.0030949 -1.17906e-14)
(1.00659 0.00278425 -1.60812e-14)
(1.0056 0.00252004 -1.92913e-14)
(1.00467 0.00229186 -2.1293e-14)
(1.00381 0.00209217 -2.21767e-14)
(1.003 0.00191237 -2.24357e-14)
(1.00225 0.00173676 -2.31231e-14)
(1.00154 0.00153699 -2.57457e-14)
(1.0009 0.00127163 -3.16901e-14)
(1.00035 0.000895516 -4.13258e-14)
(0.999911 0.000379195 -5.33966e-14)
(0.99964 -0.000267543 -6.55264e-14)
(0.999568 -0.000979889 -7.62369e-14)
(0.999702 -0.00164195 -8.70643e-14)
(1.00001 -0.00211503 -1.0256e-13)
(1.00043 -0.00228278 -1.27327e-13)
(1.00085 -0.00209535 -1.61414e-13)
(1.00117 -0.00159256 -1.97435e-13)
(1.00131 -0.000894836 -2.223e-13)
(1.00124 -0.000164808 -2.23419e-13)
(1.00097 0.000443707 -1.96117e-13)
(1.00058 0.000828827 -1.47762e-13)
(1.00013 0.000960594 -9.59281e-14)
(0.999725 0.0008745 -6.13984e-14)
(0.999412 0.000646457 -5.86572e-14)
(0.999226 0.000362415 -8.84618e-14)
(0.999167 9.41506e-05 -1.36673e-13)
(0.999213 -0.000113183 -1.80535e-13)
(0.999328 -0.000242195 -1.99284e-13)
(0.999474 -0.000297092 -1.83037e-13)
(0.999621 -0.0002948 -1.36152e-13)
(0.999746 -0.00025672 -7.40177e-14)
(0.999841 -0.00020275 -1.54652e-14)
(0.999904 -0.00014793 2.50832e-14)
(0.999941 -0.000101338 4.2195e-14)
(0.99996 -6.66177e-05 3.9354e-14)
(0.99997 -4.34477e-05 2.53212e-14)
(0.999975 -2.93265e-05 9.39049e-15)
(0.999979 -2.11476e-05 -2.15174e-15)
(0.999983 -1.6252e-05 -7.21533e-15)
(0.999987 -1.28815e-05 -7.01912e-15)
(0.999991 -1.01537e-05 -4.22483e-15)
(0.999993 -7.78506e-06 -1.24257e-15)
(0.999995 -5.77353e-06 6.25286e-16)
(0.999997 -4.17045e-06 1.19663e-15)
(0.999998 -2.97681e-06 9.32907e-16)
(0.999998 -2.13273e-06 4.10559e-16)
(0.999999 -1.54919e-06 8.90905e-18)
(0.999999 -1.14169e-06 -1.59525e-16)
(0.999999 -8.47897e-07 -1.52858e-16)
(0.999999 -6.2921e-07 -7.69917e-17)
(1 -4.63959e-07 -1.10064e-17)
(1 -3.39516e-07 1.95224e-17)
(1 -2.47046e-07 2.1247e-17)
(1 -1.79249e-07 1.09989e-17)
(1 -1.29901e-07 2.35967e-18)
(1 -9.39834e-08 -2.33259e-18)
(1 -6.77305e-08 -2.60665e-18)
(1 -4.84584e-08 -1.21458e-18)
(1 -3.42875e-08 -2.22768e-19)
(1 -2.38814e-08 9.00439e-19)
(1 -1.62638e-08 3.92271e-19)
(1 -1.07062e-08 1.32037e-19)
(1 -6.66413e-09 7.39349e-20)
(1 -3.73248e-09 -1.12067e-19)
(1 -1.61413e-09 5.60456e-19)
(1 -9.08146e-11 8.68269e-20)
(1 9.95917e-10 -1.91362e-21)
(1 1.76337e-09 5.81676e-20)
(1 2.29648e-09 -9.37521e-20)
(1 2.65906e-09 5.67268e-19)
(1 2.89661e-09 7.47539e-20)
(1 3.04402e-09 -2.46808e-20)