/*--------------------------------*- C++ -*----------------------------------*\
  =========                 |
  \\      /  F ield         | OpenFOAM: The Open Source CFD Toolbox
   \\    /   O peration     | Website:  https://openfoam.org
    \\  /    A nd           | Version:  11
     \\/     M anipulation  |
\*---------------------------------------------------------------------------*/
FoamFile
{
    format      ascii;
    class       volVectorField;
    location    "15.859926";
    object      vorticity;
}
// * * * * * * * * * * * * * * * * * * * * * * * * * * * * * * * * * * * * * //

dimensions      [0 0 -1 0 0 0 0];

internalField   nonuniform List<vector> 
7132
(
(-8.71387e-17 -1.92115e-15 -0.00906869)
(-2.71564e-16 -1.83129e-15 -0.00960635)
(-2.55714e-16 -4.21619e-17 -0.0101832)
(-3.33503e-16 -1.84186e-15 -0.010662)
(-4.46104e-16 -1.79424e-15 -0.0109562)
(-4.15045e-16 2.64253e-17 -0.0110274)
(-3.6112e-16 4.0275e-17 -0.01089)
(-2.9796e-16 2.85609e-17 -0.0106003)
(-3.1321e-16 1.57616e-17 -0.0102428)
(-2.98912e-16 6.46398e-18 -0.00990476)
(-2.69653e-16 2.8561e-18 -0.0096599)
(-2.44325e-16 3.72113e-18 -0.00957162)
(-2.3684e-16 1.01955e-17 -0.00966808)
(-2.11309e-16 3.17042e-17 -0.00991569)
(-1.46889e-16 -1.68798e-15 -0.0102528)
(-9.24268e-17 -1.70042e-15 -0.0105847)
(-6.65393e-17 -1.70713e-15 -0.0108039)
(-8.72868e-17 3.28759e-17 -0.0108164)
(-1.44267e-16 -3.45741e-15 -0.0105689)
(-2.03614e-16 -3.47623e-15 -0.0100939)
(5.40148e-17 -1.87652e-17 -0.00953183)
(7.57194e-16 -3.12607e-17 -0.00903072)
(1.32743e-15 -2.71846e-17 -0.0087254)
(1.19346e-15 2.61733e-17 -0.00874948)
(7.65133e-16 1.81059e-15 -0.009196)
(2.90889e-16 1.00234e-17 -0.00999223)
(6.57469e-16 -2.11949e-16 -0.0109151)
(1.99948e-15 4.0047e-16 -0.0117275)
(-5.64661e-15 3.20695e-15 -0.0122419)
(-2.69524e-14 -2.18651e-15 -0.0123279)
(4.94079e-14 -4.63884e-14 -0.0119164)
(4.46485e-13 -2.72325e-14 -0.0110342)
(1.39222e-13 5.71498e-13 -0.00988459)
(-6.6599e-12 2.2096e-12 -0.00883323)
(-2.64363e-11 3.58918e-12 -0.00813336)
(-5.05387e-11 2.36201e-12 -0.00780705)
(-5.69465e-11 -9.46244e-13 -0.00780514)
(-3.95652e-11 -3.11426e-12 -0.00821399)
(-1.66778e-11 -2.81695e-12 -0.0092113)
(-3.54407e-12 -1.49787e-12 -0.01072)
(9.30526e-13 -5.69847e-13 -0.0123205)
(1.39636e-12 -9.76832e-15 -0.0135587)
(8.49704e-14 1.2313e-12 -0.0141341)
(-2.08562e-12 3.11236e-12 -0.0139374)
(-1.68481e-12 -5.61828e-13 -0.0130514)
(6.04555e-12 -2.75887e-11 -0.0117647)
(2.26018e-11 -9.96303e-11 -0.010625)
(2.92635e-11 -2.03068e-10 -0.0102899)
(-2.14497e-11 -2.57185e-10 -0.010911)
(-1.0574e-10 -1.75307e-10 -0.011945)
(-1.38891e-10 1.80058e-11 -0.0126249)
(-1.22051e-10 1.88243e-10 -0.0126852)
(-8.98244e-11 2.35883e-10 -0.0126921)
(-2.70244e-11 1.8507e-10 -0.0132768)
(8.94096e-12 1.05993e-10 -0.0142373)
(8.78468e-12 3.39065e-11 -0.0150674)
(2.73448e-11 -1.54678e-11 -0.0153966)
(8.44276e-11 -1.53712e-12 -0.0150307)
(-9.2202e-12 1.6826e-10 -0.013761)
(-8.61732e-10 5.91576e-10 -0.0111017)
(-3.49225e-09 1.25377e-09 -0.00633843)
(-8.76421e-09 1.93187e-09 0.000913983)
(-1.62709e-08 2.22805e-09 0.0099448)
(-2.36778e-08 1.80616e-09 0.0184874)
(-2.77225e-08 6.88492e-10 0.0234704)
(-2.64514e-08 -7.05752e-10 0.022704)
(-2.06541e-08 -1.82916e-09 0.0161534)
(-1.30751e-08 -2.2957e-09 0.00598013)
(-6.37377e-09 -2.05511e-09 -0.00448663)
(-1.93605e-09 -1.37977e-09 -0.0123717)
(2.02887e-10 -6.01273e-10 -0.016359)
(6.9035e-10 1.67255e-10 -0.0165997)
(4.91372e-11 1.05384e-09 -0.0138635)
(-1.70928e-09 2.19061e-09 -0.00884158)
(-4.86972e-09 3.46963e-09 -0.00209805)
(-9.43755e-09 4.51087e-09 0.0056741)
(-1.4726e-08 4.83975e-09 0.0138295)
(-1.94932e-08 4.13766e-09 0.0219619)
(-2.24405e-08 2.41667e-09 0.0294242)
(-2.26911e-08 3.26097e-11 0.0345855)
(-2.01345e-08 -2.44581e-09 0.0350655)
(-1.55378e-08 -4.41583e-09 0.0293512)
(-1.01979e-08 -5.36907e-09 0.018333)
(-5.39307e-09 -5.05259e-09 0.00515196)
(-1.94407e-09 -3.65983e-09 -0.00626825)
(-6.83302e-11 -1.78077e-09 -0.013077)
(4.53803e-10 -6.00244e-11 -0.0146846)
(5.78636e-12 1.13518e-09 -0.0126224)
(-1.03869e-09 1.76905e-09 -0.0093335)
(-2.33909e-09 1.96798e-09 -0.00666412)
(-3.57031e-09 1.85545e-09 -0.00470757)
(-4.46834e-09 1.50521e-09 -0.00200302)
(-4.89274e-09 9.66994e-10 0.00293359)
(-4.82665e-09 2.93537e-10 0.00998216)
(-4.33371e-09 -4.5024e-10 0.0169835)
(-3.53148e-09 -1.17982e-09 0.0209332)
(-2.57481e-09 -1.76898e-09 0.0198893)
(-1.62974e-09 -2.06587e-09 0.0139089)
(-8.3402e-10 -1.99288e-09 0.00494844)
(-2.58888e-10 -1.63556e-09 -0.00423305)
(1.03843e-10 -1.20327e-09 -0.0116907)
(3.21678e-10 -8.85329e-10 -0.0172285)
(4.8052e-10 -7.43076e-10 -0.0219279)
(6.43848e-10 -7.22567e-10 -0.0266842)
(8.2889e-10 -7.36941e-10 -0.030876)
(1.00639e-09 -7.28089e-10 -0.0325835)
(1.12434e-09 -6.76198e-10 -0.0300839)
(1.14354e-09 -5.76269e-10 -0.0231923)
(1.06103e-09 -4.08422e-10 -0.0135412)
(9.0697e-10 -1.27427e-10 -0.0037616)
(7.231e-10 3.00611e-10 0.00377411)
(5.42457e-10 8.19391e-10 0.00749018)
(3.83227e-10 1.24036e-09 0.00678546)
(2.57256e-10 1.32908e-09 0.00197978)
(1.81095e-10 9.83145e-10 -0.00613111)
(1.76706e-10 3.29267e-10 -0.0167497)
(2.60072e-10 -3.66437e-10 -0.0291167)
(4.26636e-10 -8.78096e-10 -0.0420497)
(6.45542e-10 -1.12268e-09 -0.0534016)
(8.68106e-10 -1.13826e-09 -0.0605195)
(1.04368e-09 -1.0096e-09 -0.0615567)
(1.13403e-09 -8.12156e-10 -0.0564316)
(1.12261e-09 -5.8713e-10 -0.0467724)
(1.01793e-09 -3.31522e-10 -0.0350245)
(8.48597e-10 -4.9426e-12 -0.0232891)
(6.51257e-10 4.26881e-10 -0.0130095)
(4.58845e-10 9.22035e-10 -0.00533395)
(2.95149e-10 1.33069e-09 -0.00135824)
(1.75507e-10 1.46604e-09 -0.00214182)
(1.08218e-10 1.24158e-09 -0.00843987)
(9.35585e-11 7.45089e-10 -0.0202319)
(1.22698e-10 1.75422e-10 -0.0363005)
(1.793e-10 -2.88136e-10 -0.053969)
(2.43957e-10 -5.66176e-10 -0.0694732)
(2.99945e-10 -6.71489e-10 -0.0792945)
(3.36958e-10 -6.58597e-10 -0.0815652)
(3.51476e-10 -5.82022e-10 -0.0765985)
(3.44876e-10 -4.78995e-10 -0.0663934)
(3.21289e-10 -3.67315e-10 -0.0536198)
(2.8622e-10 -2.46813e-10 -0.0405561)
(2.45388e-10 -1.03319e-10 -0.0284631)
(2.03427e-10 8.00919e-11 -0.0178593)
(1.63353e-10 3.04311e-10 -0.00898261)
(1.27496e-10 5.38804e-10 -0.00224948)
(9.89337e-11 7.26155e-10 0.0014917)
(8.15241e-11 8.08761e-10 0.00111923)
(7.78806e-11 7.59113e-10 -0.00421569)
(8.69908e-11 5.91973e-10 -0.0144402)
(1.03515e-10 3.53124e-10 -0.0281869)
(1.19796e-10 9.69379e-11 -0.0430132)
(1.29412e-10 -1.31937e-10 -0.0561625)
(1.29838e-10 -3.05991e-10 -0.0653755)
(1.22751e-10 -4.13612e-10 -0.069502)
(1.12132e-10 -4.55015e-10 -0.0683319)
(1.01988e-10 -4.38677e-10 -0.0626299)
(9.47155e-11 -3.7981e-10 -0.0532913)
(9.10881e-11 -2.94942e-10 -0.0419556)
(8.94377e-11 -2.06072e-10 -0.0273915)
(9.05658e-11 -1.219e-10 -0.0215483)
(8.25523e-11 -3.97393e-11 0.00964267)
(-8.82206e-17 -7.71559e-18 -0.0271285)
(-2.84469e-16 -1.20645e-17 -0.0287542)
(-2.81118e-16 -1.24626e-17 -0.0305164)
(-3.69046e-16 -1.53278e-17 -0.0320053)
(-4.97146e-16 -1.70563e-17 -0.0329522)
(-4.87162e-16 -1.26784e-17 -0.0332224)
(-4.57478e-16 -1.82678e-17 -0.0328331)
(-4.23727e-16 4.60562e-18 -0.031927)
(-3.45991e-16 3.48568e-15 -0.0307375)
(-3.74557e-16 -1.53145e-17 -0.0295166)
(-4.84798e-16 -2.44375e-17 -0.0284825)
(-5.40202e-16 1.72204e-15 -0.0278396)
(-5.11029e-16 -6.31225e-18 -0.0276987)
(-3.91716e-16 -1.15771e-17 -0.0280529)
(-2.08763e-16 -1.26947e-17 -0.0288431)
(-6.69367e-17 -4.17428e-18 -0.0299302)
(-1.10003e-16 2.50251e-17 -0.0311236)
(-3.8705e-16 6.83517e-17 -0.0322147)
(-6.78976e-16 7.04092e-17 -0.0330136)
(-2.14444e-16 -1.05929e-16 -0.0334131)
(-4.97144e-16 -4.99381e-16 -0.0334239)
(-8.37086e-15 -6.67966e-16 -0.033031)
(-1.31705e-14 -2.45316e-16 -0.0322019)
(-5.61268e-15 3.07532e-16 -0.031037)
(6.60563e-16 5.27149e-16 -0.0298285)
(1.79186e-15 6.36433e-17 -0.0288648)
(5.00635e-15 -1.06625e-15 -0.0283016)
(7.83309e-16 3.55251e-15 -0.028159)
(-3.8981e-14 1.76795e-14 -0.0283507)
(3.3632e-14 -3.14519e-14 -0.028734)
(3.56737e-13 -2.83105e-13 -0.0292097)
(-9.83627e-13 -7.56058e-14 -0.0298353)
(-5.08954e-12 4.12296e-12 -0.0308634)
(1.50693e-11 1.54956e-11 -0.0325687)
(1.14333e-10 2.55251e-11 -0.0347477)
(2.43414e-10 1.76171e-11 -0.0364572)
(2.54972e-10 -6.43474e-12 -0.0366436)
(1.47926e-10 -2.32504e-11 -0.0352672)
(4.65093e-11 -2.08292e-11 -0.0332826)
(2.5495e-12 -1.03055e-11 -0.0315848)
(-3.84239e-12 -3.04006e-12 -0.0305207)
(-1.98059e-12 4.11278e-13 -0.029998)
(-4.87228e-12 2.97056e-12 -0.0297209)
(6.34597e-12 3.99551e-12 -0.0295034)
(7.15279e-11 -4.63088e-12 -0.0295721)
(6.54641e-11 -3.9732e-11 -0.0304628)
(-7.25097e-10 -1.11241e-10 -0.0322552)
(-3.72967e-09 -1.81044e-10 -0.0337414)
(-9.60783e-09 -1.89685e-10 -0.033324)
(-1.58674e-08 -1.16589e-10 -0.0317614)
(-1.81142e-08 2.61598e-11 -0.0316369)
(-1.48404e-08 1.63712e-10 -0.0335386)
(-8.82827e-09 1.88367e-10 -0.0355633)
(-3.59e-09 1.35688e-10 -0.0362049)
(-6.88406e-10 8.80864e-11 -0.0352228)
(2.74204e-10 2.47028e-11 -0.0334542)
(4.25764e-10 -5.32875e-11 -0.0319164)
(4.56582e-10 1.67436e-11 -0.0309272)
(-2.06766e-10 6.4134e-10 -0.0295266)
(-3.89921e-09 2.33309e-09 -0.0251087)
(-1.40889e-08 5.205e-09 -0.0140029)
(-3.28084e-08 8.32121e-09 0.00609785)
(-5.75093e-08 9.68486e-09 0.0333272)
(-8.07835e-08 7.53195e-09 0.0612837)
(-9.37351e-08 2.07528e-09 0.0810254)
(-9.07159e-08 -4.23996e-09 0.084429)
(-7.28854e-08 -8.51732e-09 0.0687974)
(-4.77963e-08 -9.43587e-09 0.0395565)
(-2.43119e-08 -7.62463e-09 0.00728319)
(-7.98117e-09 -4.66809e-09 -0.0181871)
(2.68344e-10 -1.91447e-09 -0.0321002)
(2.34334e-09 2.44132e-10 -0.0350031)
(2.18766e-10 2.25365e-09 -0.0300946)
(-5.44549e-09 4.65004e-09 -0.0208322)
(-1.46071e-08 7.33377e-09 -0.0100106)
(-2.62962e-08 9.43902e-09 0.000795514)
(-3.82092e-08 9.86759e-09 0.0125807)
(-4.78792e-08 7.99489e-09 0.028663)
(-5.36968e-08 4.01563e-09 0.0506675)
(-5.47038e-08 -1.12037e-09 0.0741488)
(-5.02692e-08 -6.02247e-09 0.0892186)
(-4.07663e-08 -9.38415e-09 0.0868705)
(-2.82607e-08 -1.04414e-08 0.0657344)
(-1.58525e-08 -9.17948e-09 0.0331642)
(-6.22659e-09 -6.3222e-09 0.000881322)
(-6.3875e-10 -2.9797e-09 -0.021654)
(1.08919e-09 -9.70809e-11 -0.032038)
(-4.87062e-11 1.88142e-09 -0.0348763)
(-2.81198e-09 2.9415e-09 -0.0371263)
(-5.99111e-09 3.23379e-09 -0.0421587)
(-8.60941e-09 2.92008e-09 -0.0466962)
(-1.01656e-08 2.16642e-09 -0.0434986)
(-1.06803e-08 1.14615e-09 -0.02749)
(-1.04211e-08 1.40259e-11 -0.000149856)
(-9.57234e-09 -1.09782e-09 0.030503)
(-8.1732e-09 -2.05927e-09 0.053741)
(-6.311e-09 -2.71984e-09 0.0616028)
(-4.23769e-09 -2.93626e-09 0.0522551)
(-2.30181e-09 -2.67831e-09 0.0302415)
(-7.81865e-10 -2.10449e-09 0.00321069)
(2.41826e-10 -1.49355e-09 -0.0231775)
(8.89441e-10 -1.07367e-09 -0.047985)
(1.37662e-09 -9.04161e-10 -0.0728375)
(1.88049e-09 -8.96751e-10 -0.097097)
(2.4487e-09 -9.1821e-10 -0.115397)
(2.99026e-09 -8.75813e-10 -0.120594)
(3.34664e-09 -7.44772e-10 -0.108876)
(3.39719e-09 -5.44614e-10 -0.0821825)
(3.13155e-09 -2.90134e-10 -0.047013)
(2.64461e-09 4.15409e-11 -0.0116557)
(2.06923e-09 4.82869e-10 0.0165145)
(1.51249e-09 9.89329e-10 0.0322721)
(1.03556e-09 1.38296e-09 0.03316)
(6.76906e-10 1.43015e-09 0.0193715)
(4.80354e-10 1.02342e-09 -0.0073863)
(4.91943e-10 2.8978e-10 -0.0448024)
(7.28183e-10 -4.914e-10 -0.089246)
(1.14895e-09 -1.07083e-09 -0.134119)
(1.66318e-09 -1.34341e-09 -0.169924)
(2.16253e-09 -1.33732e-09 -0.187888)
(2.55377e-09 -1.14256e-09 -0.18441)
(2.77204e-09 -8.51619e-10 -0.162328)
(2.78217e-09 -5.29081e-10 -0.128545)
(2.58245e-09 -1.94516e-10 -0.0905545)
(2.21081e-09 1.78398e-10 -0.0540498)
(1.73664e-09 6.21761e-10 -0.0228829)
(1.23948e-09 1.10009e-09 -0.000221177)
(7.93537e-10 1.47236e-09 0.010564)
(4.59578e-10 1.5595e-09 0.00586416)
(2.75023e-10 1.28255e-09 -0.017018)
(2.42103e-10 7.37851e-10 -0.0576987)
(3.26286e-10 1.32553e-10 -0.110641)
(4.71152e-10 -3.48765e-10 -0.164936)
(6.20813e-10 -6.26496e-10 -0.207491)
(7.36916e-10 -7.17988e-10 -0.228505)
(8.03543e-10 -6.84361e-10 -0.225346)
(8.22252e-10 -5.85979e-10 -0.202326)
(8.02881e-10 -4.63902e-10 -0.167386)
(7.55579e-10 -3.37985e-10 -0.128429)
(6.87892e-10 -2.08861e-10 -0.0910105)
(6.06128e-10 -6.19208e-11 -0.0578606)
(5.15176e-10 1.21111e-10 -0.0298491)
(4.19305e-10 3.42277e-10 -0.00732651)
(3.25573e-10 5.71015e-10 0.00854398)
(2.46905e-10 7.49143e-10 0.0151878)
(1.99691e-10 8.19289e-10 0.00938014)
(1.95138e-10 7.56382e-10 -0.0108142)
(2.30781e-10 5.79156e-10 -0.0440764)
(2.89241e-10 3.36723e-10 -0.0852305)
(3.46005e-10 8.39909e-11 -0.126604)
(3.80918e-10 -1.36957e-10 -0.160624)
(3.8601e-10 -3.02659e-10 -0.181924)
(3.66072e-10 -4.0476e-10 -0.188481)
(3.33114e-10 -4.44631e-10 -0.180718)
(2.99558e-10 -4.29967e-10 -0.161291)
(2.73154e-10 -3.74358e-10 -0.132905)
(2.56388e-10 -2.92301e-10 -0.0997038)
(2.43845e-10 -2.05811e-10 -0.0579209)
(2.39195e-10 -1.18456e-10 -0.0420532)
(1.93744e-10 -3.57291e-11 0.0469963)
(-2.97713e-18 -8.64761e-20 -0.0449747)
(-3.0883e-17 -1.1494e-19 -0.0477167)
(-5.51847e-17 1.26483e-19 -0.0507032)
(-9.13954e-17 8.79244e-19 -0.0532481)
(-1.17571e-16 -4.63209e-19 -0.0548929)
(-1.7416e-16 6.59137e-18 -0.055394)
(-2.77982e-16 8.55707e-18 -0.0547559)
(-5.2673e-17 -2.04066e-17 -0.053192)
(-7.667e-17 -8.82315e-18 -0.0510762)
(-9.09167e-16 6.90911e-17 -0.0488167)
(-1.22035e-15 9.24546e-17 -0.0467735)
(-4.58189e-16 1.68371e-17 -0.0453104)
(3.55075e-16 -7.08237e-17 -0.0446598)
(1.02244e-15 -1.19429e-16 -0.04489)
(1.32981e-15 -1.15643e-16 -0.0460248)
(8.86917e-16 -1.50734e-17 -0.0479718)
(-6.37198e-16 1.87652e-16 -0.0505372)
(-2.74317e-15 3.17362e-16 -0.053433)
(-1.90899e-15 -7.42695e-17 -0.0563019)
(2.6855e-15 -9.7704e-17 -0.0587606)
(-4.17421e-14 4.05945e-15 -0.0604063)
(-1.88932e-13 6.30544e-15 -0.0607514)
(-2.86587e-13 -1.40628e-15 -0.0593626)
(-1.98317e-13 -6.88938e-15 -0.0561618)
(-6.91223e-14 -3.62641e-15 -0.0516611)
(-4.03054e-15 -2.16287e-15 -0.0467376)
(1.50846e-14 2.92329e-16 -0.0423222)
(-1.03168e-13 2.23941e-14 -0.0392013)
(-1.6178e-14 -1.32174e-14 -0.0378933)
(1.72984e-12 -2.01787e-13 -0.0386203)
(-7.80164e-13 4.60513e-13 -0.041407)
(-3.07982e-11 2.69418e-12 -0.0461741)
(-2.42851e-11 -7.45497e-12 -0.0528144)
(4.55503e-10 -5.75034e-11 -0.0614221)
(1.9208e-09 -1.10585e-10 -0.0714342)
(3.71777e-09 -6.7959e-11 -0.0795158)
(4.19405e-09 4.6796e-11 -0.0808483)
(2.92708e-09 1.01117e-10 -0.0743759)
(1.24638e-09 6.98698e-11 -0.0637583)
(2.59913e-10 2.36762e-11 -0.052971)
(-5.4753e-11 1.69346e-12 -0.0440295)
(-7.98701e-11 5.03462e-13 -0.0377588)
(-4.66152e-11 -2.93198e-12 -0.0344797)
(1.1207e-10 -3.50895e-11 -0.0345401)
(4.87055e-10 -3.01226e-11 -0.0384521)
(-1.22873e-10 3.70722e-10 -0.0451537)
(-6.16396e-09 1.79794e-09 -0.048554)
(-2.42087e-08 4.2383e-09 -0.0383137)
(-5.50141e-08 5.81168e-09 -0.0107854)
(-8.62368e-08 4.07786e-09 0.0207386)
(-9.89506e-08 -4.95507e-10 0.034328)
(-8.47732e-08 -4.4547e-09 0.0205773)
(-5.40066e-08 -5.3893e-09 -0.00846175)
(-2.44863e-08 -3.88486e-09 -0.0332333)
(-6.24238e-09 -1.82611e-09 -0.0438651)
(9.86818e-10 -5.23179e-10 -0.0428023)
(2.28812e-09 -1.06653e-10 -0.0379815)
(1.65213e-09 3.14728e-10 -0.0350478)
(-1.20587e-09 2.34616e-09 -0.0335707)
(-1.07838e-08 7.53265e-09 -0.0279223)
(-3.19882e-08 1.57083e-08 -0.0117837)
(-6.42353e-08 2.36421e-08 0.0166404)
(-9.98401e-08 2.62156e-08 0.0547073)
(-1.29531e-07 1.99191e-08 0.0991134)
(-1.46916e-07 5.65468e-09 0.142808)
(-1.47178e-07 -1.11306e-08 0.169905)
(-1.27378e-07 -2.3289e-08 0.163398)
(-9.16674e-08 -2.65824e-08 0.121436)
(-5.18787e-08 -2.19627e-08 0.0614287)
(-2.00694e-08 -1.36699e-08 0.00694373)
(-1.82244e-09 -5.76353e-09 -0.0271101)
(3.87536e-09 1.92047e-10 -0.0392841)
(4.24896e-10 4.94825e-09 -0.0374604)
(-9.34526e-09 9.60355e-09 -0.0327598)
(-2.27352e-08 1.3895e-08 -0.0341106)
(-3.59654e-08 1.63119e-08 -0.0424064)
(-4.54049e-08 1.56313e-08 -0.0469792)
(-5.01424e-08 1.18815e-08 -0.0319714)
(-5.22039e-08 5.82899e-09 0.00966449)
(-5.36007e-08 -1.68123e-09 0.0678569)
(-5.34418e-08 -9.41456e-09 0.119761)
(-4.87287e-08 -1.542e-08 0.142791)
(-3.82096e-08 -1.7826e-08 0.128168)
(-2.42391e-08 -1.60697e-08 0.0849212)
(-1.11365e-08 -1.12667e-08 0.0329084)
(-2.38712e-09 -5.43866e-09 -0.0102168)
(8.90239e-10 -3.55043e-10 -0.0394584)
(-2.59584e-10 3.08576e-09 -0.0625956)
(-3.63911e-09 4.74026e-09 -0.0894808)
(-6.97064e-09 4.8667e-09 -0.119443)
(-8.80756e-09 3.94272e-09 -0.138868)
(-8.97856e-09 2.54063e-09 -0.132188)
(-8.28812e-09 1.09475e-09 -0.0946348)
(-7.69126e-09 -2.60425e-10 -0.0351062)
(-7.53337e-09 -1.57421e-09 0.0294868)
(-7.40618e-09 -2.81048e-09 0.081164)
(-6.70569e-09 -3.73673e-09 0.106726)
(-5.21373e-09 -4.07047e-09 0.101738)
(-3.23824e-09 -3.7208e-09 0.0714596)
(-1.31818e-09 -2.90737e-09 0.026336)
(1.80901e-10 -2.03892e-09 -0.0256352)
(1.24784e-09 -1.45272e-09 -0.08214)
(2.114e-09 -1.2386e-09 -0.141289)
(3.00465e-09 -1.25861e-09 -0.19401)
(3.96106e-09 -1.29182e-09 -0.2247)
(4.83633e-09 -1.17706e-09 -0.221493)
(5.40591e-09 -8.7966e-10 -0.184915)
(5.49322e-09 -4.68722e-10 -0.126484)
(5.0628e-09 -3.21302e-11 -0.060966)
(4.24319e-09 4.03733e-10 -0.000652262)
(3.25229e-09 8.66671e-10 0.0456568)
(2.29223e-09 1.33623e-09 0.0715795)
(1.49358e-09 1.65815e-09 0.0730408)
(9.32744e-10 1.60669e-09 0.0484802)
(6.65693e-10 1.07563e-09 -0.0014058)
(7.19559e-10 2.05352e-10 -0.0729064)
(1.05647e-09 -6.94938e-10 -0.156314)
(1.56692e-09 -1.3456e-09 -0.233985)
(2.11491e-09 -1.62947e-09 -0.28499)
(2.59631e-09 -1.58355e-09 -0.295743)
(2.96127e-09 -1.31435e-09 -0.267427)
(3.19243e-09 -9.26355e-10 -0.213552)
(3.26934e-09 -4.92339e-10 -0.150735)
(3.15744e-09 -4.58427e-11 -0.0908556)
(2.83635e-09 4.17965e-10 -0.0393109)
(2.33135e-09 9.12545e-10 0.0018275)
(1.71895e-09 1.39359e-09 0.0300255)
(1.11375e-09 1.72065e-09 0.0400871)
(6.37843e-10 1.72529e-09 0.0247809)
(3.75441e-10 1.35032e-09 -0.0214224)
(3.35387e-10 7.19458e-10 -0.0965564)
(4.53272e-10 6.08974e-11 -0.186827)
(6.32932e-10 -4.35399e-10 -0.268593)
(7.93421e-10 -6.99058e-10 -0.318257)
(8.9233e-10 -7.62852e-10 -0.323863)
(9.23949e-10 -7.01265e-10 -0.289662)
(9.05661e-10 -5.81691e-10 -0.231222)
(8.62112e-10 -4.45659e-10 -0.166112)
(8.11482e-10 -3.0982e-10 -0.106683)
(7.58761e-10 -1.72086e-10 -0.0579499)
(6.98497e-10 -1.69612e-11 -0.019843)
(6.21099e-10 1.73503e-10 0.00968374)
(5.21402e-10 3.99113e-10 0.0317906)
(4.07821e-10 6.25003e-10 0.0447379)
(3.05949e-10 7.89098e-10 0.0437685)
(2.49402e-10 8.34644e-10 0.0235775)
(2.60607e-10 7.43568e-10 -0.0175879)
(3.35456e-10 5.44922e-10 -0.0749025)
(4.437e-10 2.95511e-10 -0.137571)
(5.44537e-10 5.11007e-11 -0.192963)
(6.05741e-10 -1.51939e-10 -0.231427)
(6.15122e-10 -2.98568e-10 -0.248484)
(5.80612e-10 -3.87165e-10 -0.244555)
(5.2169e-10 -4.21758e-10 -0.222405)
(4.58882e-10 -4.08696e-10 -0.186291)
(4.05542e-10 -3.58224e-10 -0.139746)
(3.65473e-10 -2.80287e-10 -0.0871316)
(3.28604e-10 -1.97476e-10 -0.0216864)
(3.00168e-10 -9.68496e-11 0.00128417)
(1.77531e-10 -1.70102e-11 0.140643)
(-8.98564e-17 9.21449e-18 -0.0624496)
(-2.8224e-16 1.40393e-17 -0.0663443)
(-2.33462e-16 1.77936e-17 -0.0705847)
(-2.96192e-16 1.58653e-17 -0.0741979)
(-2.28137e-16 2.43258e-17 -0.076533)
(-6.83131e-16 6.75273e-17 -0.0772418)
(1.7397e-16 -7.90111e-17 -0.076327)
(6.00375e-16 -9.60505e-17 -0.074086)
(-3.59582e-15 2.17921e-15 -0.0710513)
(-3.02208e-15 5.56528e-16 -0.0677965)
(5.57846e-15 -3.71937e-15 -0.0648221)
(1.335e-14 2.66905e-15 -0.0626822)
(1.36291e-14 -7.46627e-16 -0.0616697)
(1.04018e-14 -4.98943e-16 -0.0618837)
(4.76815e-15 5.50664e-17 -0.0634132)
(-3.89352e-15 9.79327e-16 -0.0661703)
(-1.5278e-14 1.84007e-15 -0.0699121)
(-2.06972e-14 7.04248e-16 -0.0742408)
(-9.20071e-16 -2.64393e-15 -0.0786005)
(-5.94163e-14 1.98106e-14 -0.0823578)
(-1.24831e-13 9.53093e-14 -0.0849365)
(1.00942e-12 1.21754e-13 -0.0856782)
(1.97182e-12 4.44735e-15 -0.0838749)
(9.67419e-13 -1.08425e-13 -0.0792617)
(-2.44566e-14 -9.66162e-14 -0.0724765)
(-1.41285e-13 -4.20398e-14 -0.0647502)
(-1.67877e-13 4.85025e-14 -0.0574876)
(-6.72213e-13 1.91838e-14 -0.0520281)
(1.75808e-12 -8.98823e-13 -0.0494603)
(8.02925e-12 3.50541e-13 -0.050419)
(-2.51236e-11 1.59809e-11 -0.0550005)
(-1.2549e-10 1.16769e-11 -0.0629221)
(1.36598e-10 -2.39027e-10 -0.0742817)
(1.79754e-09 -9.57046e-10 -0.0901089)
(5.00312e-09 -1.60561e-09 -0.109334)
(8.41501e-09 -1.11901e-09 -0.125786)
(1.01594e-08 3.88909e-10 -0.130821)
(8.62076e-09 1.45058e-09 -0.120226)
(4.79718e-09 1.31275e-09 -0.0993841)
(1.58825e-09 6.40263e-10 -0.0776558)
(3.64739e-11 1.66852e-10 -0.0599123)
(-3.40911e-10 -3.6576e-12 -0.0476337)
(-1.82505e-10 -9.29997e-11 -0.0413953)
(5.4732e-10 -2.6284e-10 -0.0422281)
(1.35387e-09 1.12841e-10 -0.0500089)
(-2.90217e-09 3.28578e-09 -0.0571818)
(-2.44514e-08 1.19317e-08 -0.0441565)
(-7.39519e-08 2.4244e-08 0.00877328)
(-1.44495e-07 3.08244e-08 0.0976071)
(-2.10256e-07 2.18517e-08 0.189868)
(-2.4141e-07 -7.05675e-10 0.241686)
(-2.20546e-07 -2.23083e-08 0.222642)
(-1.56639e-07 -2.99551e-08 0.14176)
(-8.24016e-08 -2.37464e-08 0.0453958)
(-2.75841e-08 -1.26485e-08 -0.0225349)
(-7.78546e-10 -4.24055e-09 -0.049744)
(6.36657e-09 -3.85943e-10 -0.0507825)
(4.48782e-09 1.76374e-09 -0.0442169)
(-3.64826e-09 6.85929e-09 -0.0371539)
(-2.21293e-08 1.77242e-08 -0.0276083)
(-5.21588e-08 3.19308e-08 -0.0154941)
(-8.48482e-08 4.22472e-08 -0.00360982)
(-1.07986e-07 4.23327e-08 0.0159765)
(-1.19287e-07 3.10699e-08 0.0629186)
(-1.26898e-07 1.08986e-08 0.142668)
(-1.35345e-07 -1.40088e-08 0.226861)
(-1.3587e-07 -3.62724e-08 0.268677)
(-1.16363e-07 -4.71858e-08 0.240486)
(-7.86501e-08 -4.34236e-08 0.157459)
(-3.78373e-08 -2.96962e-08 0.0621865)
(-8.65468e-09 -1.38869e-08 -0.00810043)
(3.25157e-09 -8.79535e-10 -0.0415812)
(1.11803e-10 8.86396e-09 -0.0514981)
(-1.21871e-08 1.62301e-08 -0.0632039)
(-2.62758e-08 2.06438e-08 -0.094872)
(-3.51987e-08 2.07739e-08 -0.139138)
(-3.57161e-08 1.69561e-08 -0.162966)
(-3.01457e-08 1.13944e-08 -0.134478)
(-2.45083e-08 5.74474e-09 -0.0510372)
(-2.42278e-08 -5.01418e-10 0.0594207)
(-2.97756e-08 -8.45844e-09 0.157331)
(-3.57162e-08 -1.70003e-08 0.210029)
(-3.55193e-08 -2.26863e-08 0.204199)
(-2.744e-08 -2.2716e-08 0.15049)
(-1.54256e-08 -1.72482e-08 0.0760136)
(-5.27191e-09 -8.99309e-09 0.0059811)
(-4.51361e-10 -1.16085e-09 -0.0527096)
(-6.87343e-10 4.1461e-09 -0.110401)
(-3.19091e-09 6.29702e-09 -0.174727)
(-4.98301e-09 5.81801e-09 -0.231776)
(-4.67036e-09 3.92403e-09 -0.251671)
(-2.70904e-09 1.9067e-09 -0.214952)
(-5.38271e-10 5.02502e-10 -0.129933)
(4.55646e-10 -3.63352e-10 -0.024837)
(-2.83071e-10 -1.24037e-09 0.0713685)
(-2.14943e-09 -2.4731e-09 0.139411)
(-3.83214e-09 -3.81607e-09 0.169402)
(-4.28543e-09 -4.66999e-09 0.159496)
(-3.38283e-09 -4.62608e-09 0.115758)
(-1.74334e-09 -3.81406e-09 0.0482209)
(-5.99325e-11 -2.77655e-09 -0.0358365)
(1.38238e-09 -2.04022e-09 -0.132122)
(2.67035e-09 -1.78257e-09 -0.229555)
(3.93163e-09 -1.82028e-09 -0.303217)
(5.1323e-09 -1.83405e-09 -0.324824)
(6.1298e-09 -1.59824e-09 -0.283791)
(6.77486e-09 -1.07321e-09 -0.196165)
(6.93245e-09 -3.73057e-10 -0.0928623)
(6.5104e-09 3.3488e-10 -0.000390404)
(5.5496e-09 9.46795e-10 0.0687877)
(4.26216e-09 1.45835e-09 0.112277)
(2.93768e-09 1.86869e-09 0.129718)
(1.82132e-09 2.06271e-09 0.118636)
(1.06859e-09 1.84409e-09 0.0748407)
(7.50507e-10 1.13001e-09 -0.00421503)
(8.44536e-10 9.43894e-11 -0.113391)
(1.22635e-09 -9.15082e-10 -0.233076)
(1.71394e-09 -1.60005e-09 -0.329697)
(2.15237e-09 -1.85811e-09 -0.370165)
(2.47256e-09 -1.7605e-09 -0.341871)
(2.68618e-09 -1.44062e-09 -0.260293)
(2.83634e-09 -1.00565e-09 -0.15802)
(2.94032e-09 -5.11583e-10 -0.0653915)
(2.95755e-09 2.19766e-11 0.00265326)
(2.80963e-09 5.91443e-10 0.0464779)
(2.44178e-09 1.18046e-09 0.0727934)
(1.88091e-09 1.70889e-09 0.0850701)
(1.25038e-09 2.01292e-09 0.0783374)
(7.23181e-10 1.92866e-09 0.0411955)
(4.312e-10 1.43378e-09 -0.0352336)
(3.94615e-10 6.98935e-10 -0.145405)
(5.29225e-10 -1.62192e-11 -0.263067)
(7.14666e-10 -5.1884e-10 -0.34917)
(8.59061e-10 -7.56197e-10 -0.372332)
(9.22161e-10 -7.83252e-10 -0.326324)
(9.06056e-10 -6.91025e-10 -0.231327)
(8.3726e-10 -5.55059e-10 -0.120461)
(7.5122e-10 -4.16812e-10 -0.0230478)
(6.78319e-10 -2.86308e-10 0.0456595)
(6.30909e-10 -1.52368e-10 0.0851323)
(5.97994e-10 6.91158e-12 0.103374)
(5.54372e-10 2.0966e-10 0.110004)
(4.79646e-10 4.48916e-10 0.110442)
(3.78034e-10 6.78741e-10 0.103041)
(2.84327e-10 8.28353e-10 0.0805593)
(2.4614e-10 8.4196e-10 0.036073)
(2.92776e-10 7.13355e-10 -0.029818)
(4.15095e-10 4.8761e-10 -0.105883)
(5.70573e-10 2.32184e-10 -0.174617)
(7.06903e-10 2.9702e-12 -0.220974)
(7.85598e-10 -1.72249e-10 -0.238671)
(7.93617e-10 -2.90095e-10 -0.229953)
(7.41993e-10 -3.58044e-10 -0.201351)
(6.55732e-10 -3.83766e-10 -0.1589)
(5.61522e-10 -3.71893e-10 -0.10671)
(4.77271e-10 -3.27654e-10 -0.0468612)
(4.06068e-10 -2.53832e-10 0.0190208)
(3.32625e-10 -1.73158e-10 0.101251)
(2.54942e-10 -4.29188e-11 0.123218)
(3.30962e-11 2.55896e-11 0.300175)
(9.92684e-17 1.92069e-15 -0.0793532)
(3.34633e-16 1.80641e-15 -0.0844537)
(2.2144e-16 7.10223e-18 -0.090002)
(5.7591e-16 1.73294e-15 -0.0947262)
(2.61535e-16 1.92773e-15 -0.0977741)
(-2.10921e-16 1.54026e-15 -0.0986887)
(6.17738e-15 -6.33196e-16 -0.0974706)
(-9.74527e-15 1.89159e-15 -0.0945026)
(-1.75339e-14 1.8024e-15 -0.0904893)
(3.93977e-14 -6.29343e-15 -0.0861682)
(6.92829e-14 -8.08003e-15 -0.0821684)
(2.43406e-14 -3.99495e-15 -0.0792573)
(-1.90522e-14 1.38972e-15 -0.0778602)
(-5.43629e-14 4.31106e-15 -0.0780628)
(-8.56945e-14 7.03201e-15 -0.0800022)
(-1.15818e-13 1.34775e-14 -0.0835663)
(-1.33987e-13 1.03242e-14 -0.0884332)
(-6.73092e-14 -6.86161e-15 -0.0940882)
(-5.62682e-14 2.102e-14 -0.0998597)
(-6.33911e-13 6.35927e-14 -0.10498)
(3.8568e-12 -5.30361e-13 -0.108626)
(2.11956e-11 -1.04202e-12 -0.109823)
(3.472e-11 1.95961e-14 -0.107616)
(2.49236e-11 9.9125e-13 -0.101619)
(7.41721e-12 5.50726e-13 -0.0926912)
(-1.87097e-13 6.78124e-14 -0.0824717)
(-2.12122e-12 2.65756e-13 -0.0727389)
(-1.0505e-12 -9.40586e-13 -0.0652573)
(1.03901e-11 -4.36395e-12 -0.0616012)
(-4.82772e-12 1.3239e-11 -0.0626977)
(-1.05934e-10 6.72184e-11 -0.068733)
(1.04696e-10 -7.81681e-11 -0.0801214)
(9.71702e-10 -9.68972e-10 -0.0970246)
(-1.57501e-09 -2.49076e-09 -0.112677)
(-1.51192e-08 -3.41932e-09 -0.113517)
(-3.36651e-08 -2.6461e-09 -0.103512)
(-3.73024e-08 -5.60825e-11 -0.10444)
(-2.23043e-08 2.78222e-09 -0.116376)
(-5.84951e-09 3.58612e-09 -0.117931)
(1.26849e-09 2.40403e-09 -0.102363)
(1.46682e-09 9.66273e-10 -0.0792109)
(1.08583e-10 1.09991e-10 -0.0596527)
(-7.01241e-11 -4.47048e-10 -0.049919)
(1.5062e-09 -8.03278e-10 -0.0521618)
(1.31306e-09 1.69462e-09 -0.0613046)
(-1.35552e-08 1.32733e-08 -0.0573372)
(-5.99927e-08 3.73228e-08 -0.0127269)
(-1.36694e-07 6.42602e-08 0.079224)
(-2.17174e-07 7.39636e-08 0.198696)
(-2.78211e-07 5.25351e-08 0.327031)
(-3.14115e-07 4.64971e-09 0.438955)
(-3.14409e-07 -4.68402e-08 0.478359)
(-2.61955e-07 -7.44616e-08 0.399717)
(-1.67672e-07 -6.84122e-08 0.233851)
(-7.37613e-08 -4.26376e-08 0.0687496)
(-1.36379e-08 -1.74985e-08 -0.0318045)
(9.42692e-09 -2.73983e-09 -0.0645)
(8.5682e-09 5.32215e-09 -0.059405)
(-7.00967e-09 1.56547e-08 -0.0445723)
(-3.40762e-08 3.17879e-08 -0.0406282)
(-6.3763e-08 4.70678e-08 -0.0651909)
(-7.96888e-08 5.15556e-08 -0.112761)
(-7.31217e-08 4.34349e-08 -0.134209)
(-5.36465e-08 2.93749e-08 -0.0725088)
(-4.19286e-08 1.36841e-08 0.0756298)
(-5.26772e-08 -6.64441e-09 0.24971)
(-7.93652e-08 -3.27802e-08 0.368348)
(-9.66663e-08 -5.51924e-08 0.378718)
(-8.59987e-08 -6.12255e-08 0.286982)
(-5.33725e-08 -4.86676e-08 0.149829)
(-1.96393e-08 -2.6308e-08 0.0314235)
(-1.28249e-09 -4.19119e-09 -0.0385458)
(-1.60606e-09 1.26676e-08 -0.0772643)
(-1.31227e-08 2.27973e-08 -0.126462)
(-2.4316e-08 2.54008e-08 -0.207606)
(-2.68271e-08 2.10321e-08 -0.289064)
(-1.9573e-08 1.31048e-08 -0.305641)
(-7.28544e-09 6.27758e-09 -0.219156)
(3.47475e-09 2.87004e-09 -0.0536799)
(6.92367e-09 9.52391e-10 0.126945)
(4.54833e-10 -3.67034e-09 0.264002)
(-1.23254e-08 -1.25482e-08 0.326592)
(-2.26989e-08 -2.19641e-08 0.310375)
(-2.40277e-08 -2.61165e-08 0.233443)
(-1.7124e-08 -2.23507e-08 0.12834)
(-8.15407e-09 -1.29258e-08 0.0228968)
(-2.55944e-09 -2.64732e-09 -0.077585)
(-1.30146e-09 4.45554e-09 -0.18375)
(-1.80357e-09 6.88809e-09 -0.291306)
(-1.31097e-09 5.60642e-09 -0.362469)
(9.43517e-10 2.80573e-09 -0.350365)
(4.0708e-09 4.74588e-10 -0.242932)
(6.7727e-09 -4.87594e-10 -0.0770143)
(7.9609e-09 -3.88026e-10 0.0884191)
(6.976e-09 -2.71671e-10 0.209144)
(4.04463e-09 -1.03595e-09 0.270382)
(5.03344e-10 -2.66873e-09 0.27666)
(-2.00442e-09 -4.29512e-09 0.238399)
(-2.67206e-09 -4.99184e-09 0.165663)
(-1.82859e-09 -4.56882e-09 0.0653581)
(-2.82187e-10 -3.60178e-09 -0.0594357)
(1.40206e-09 -2.81786e-09 -0.201211)
(3.01557e-09 -2.51322e-09 -0.333081)
(4.43798e-09 -2.48958e-09 -0.408631)
(5.54305e-09 -2.39091e-09 -0.389319)
(6.30654e-09 -1.99834e-09 -0.275642)
(6.80468e-09 -1.28098e-09 -0.109873)
(7.04849e-09 -3.36489e-10 0.0506945)
(6.88881e-09 6.59293e-10 0.165568)
(6.15785e-09 1.52785e-09 0.224561)
(4.90149e-09 2.17264e-09 0.238337)
(3.4077e-09 2.55665e-09 0.220615)
(2.05027e-09 2.5927e-09 0.175778)
(1.12435e-09 2.14209e-09 0.097893)
(7.56416e-10 1.18766e-09 -0.0198515)
(8.79373e-10 -3.2569e-11 -0.169753)
(1.28043e-09 -1.12964e-09 -0.318058)
(1.71879e-09 -1.8086e-09 -0.412277)
(2.04134e-09 -2.00878e-09 -0.410541)
(2.21713e-09 -1.85046e-09 -0.31006)
(2.29508e-09 -1.49624e-09 -0.149398)
(2.34518e-09 -1.05342e-09 0.0147965)
(2.41241e-09 -5.52942e-10 0.137123)
(2.47965e-09 1.95031e-11 0.200571)
(2.45705e-09 6.75847e-10 0.214514)
(2.23554e-09 1.37691e-09 0.199832)
(1.78317e-09 1.98929e-09 0.171354)
(1.20443e-09 2.29951e-09 0.127437)
(6.97427e-10 2.13488e-09 0.0533177)
(4.26599e-10 1.5146e-09 -0.0622737)
(4.20585e-10 6.70447e-10 -0.206853)
(5.82708e-10 -9.91285e-11 -0.337484)
(7.78906e-10 -6.00317e-10 -0.39968)
(9.13904e-10 -8.02806e-10 -0.361008)
(9.52831e-10 -7.8635e-10 -0.230839)
(9.04768e-10 -6.58813e-10 -0.0525549)
(7.99646e-10 -5.04274e-10 0.120862)
(6.74344e-10 -3.66188e-10 0.249491)
(5.64553e-10 -2.49664e-10 0.317382)
(4.92161e-10 -1.31923e-10 0.330687)
(4.51998e-10 2.13087e-11 0.308148)
(4.14811e-10 2.32677e-10 0.269943)
(3.51194e-10 4.87282e-10 0.227923)
(2.62347e-10 7.22663e-10 0.181487)
(1.89491e-10 8.55045e-10 0.121742)
(1.8749e-10 8.30422e-10 0.0426267)
(2.83749e-10 6.59091e-10 -0.0485463)