/*--------------------------------*- C++ -*----------------------------------*\
  =========                 |
  \\      /  F ield         | OpenFOAM: The Open Source CFD Toolbox
   \\    /   O peration     | Website:  https://openfoam.org
    \\  /    A nd           | Version:  11
     \\/     M anipulation  |
\*---------------------------------------------------------------------------*/
FoamFile
{
    format      ascii;
    class       volScalarField;
    location    "5.069112";
    object      p;
}
// * * * * * * * * * * * * * * * * * * * * * * * * * * * * * * * * * * * * * //

dimensions      [0 2 -2 0 0 0 0];

internalField   nonuniform List<scalar> 
7132
(
0.0508077
0.0493533
0.0444463
0.0372568
0.0271734
0.0138565
-0.0028361
-0.0229923
-0.0462139
-0.0717006
-0.0982255
-0.1241
-0.148409
-0.170311
-0.18922
-0.204831
-0.216938
-0.225421
-0.230203
-0.231238
-0.228537
-0.22221
-0.212517
-0.199899
-0.184969
-0.168472
-0.151196
-0.133892
-0.117191
-0.10157
-0.087336
-0.0746455
-0.0635321
-0.0539409
-0.0457592
-0.0388433
-0.0330371
-0.028186
-0.0241449
-0.020783
-0.0179855
-0.015654
-0.0137054
-0.0120706
-0.0106926
-0.00952485
-0.00852934
-0.00767541
-0.00693819
-0.00629756
-0.00573722
-0.00524392
-0.00480687
-0.00441724
-0.00406781
-0.00375261
-0.00346675
-0.00320618
-0.00296756
-0.00274812
-0.00254556
-0.00235797
-0.00218377
-0.00202161
-0.00187038
-0.00172912
-0.00159701
-0.00147337
-0.00135756
-0.00124906
-0.0011474
-0.00105215
-0.000962936
-0.000879439
-0.000801363
-0.000728449
-0.000660467
-0.000597212
-0.0005385
-0.00048416
-0.000434023
-0.000387907
-0.000345583
-0.00030675
-0.000271018
-0.000237916
-0.00020695
-0.000177713
-0.000150016
-0.000123995
-0.000100102
-7.8945e-05
-6.1035e-05
-4.65529e-05
-3.52714e-05
-2.66683e-05
-2.01439e-05
-1.52017e-05
-1.14996e-05
-8.79692e-06
-6.87413e-06
-5.50285e-06
-4.47066e-06
-3.62249e-06
-2.87892e-06
-2.22133e-06
-1.65976e-06
-1.2052e-06
-8.56708e-07
-6.01313e-07
-4.20112e-07
-2.93916e-07
-2.06587e-07
-1.45818e-07
-1.02923e-07
-7.19827e-08
-4.9218e-08
-3.22023e-08
-1.94694e-08
-9.99597e-09
-3.10255e-09
1.81711e-09
5.2017e-09
7.48579e-09
8.94838e-09
9.86991e-09
1.03832e-08
1.06468e-08
1.06985e-08
1.06326e-08
1.04443e-08
1.02037e-08
9.88897e-09
9.5603e-09
9.18611e-09
8.8201e-09
8.42386e-09
8.04724e-09
7.64768e-09
7.27345e-09
6.87963e-09
6.51414e-09
6.13032e-09
5.77633e-09
5.40447e-09
5.06303e-09
4.7032e-09
4.37432e-09
4.02558e-09
3.70901e-09
3.36948e-09
3.06581e-09
2.73191e-09
2.44436e-09
2.10865e-09
1.84451e-09
1.50441e-09
1.2461e-09
9.64641e-10
5.33211e-10
0.0513877
0.0499457
0.0450825
0.0379401
0.027897
0.014587
-0.00215662
-0.0224588
-0.0459197
-0.0717329
-0.0985968
-0.124705
-0.149182
-0.171183
-0.190137
-0.205766
-0.217876
-0.226359
-0.23114
-0.232166
-0.229441
-0.223062
-0.213283
-0.200542
-0.185459
-0.168791
-0.151347
-0.13389
-0.117065
-0.101352
-0.0870599
-0.0743403
-0.0632212
-0.053641
-0.0454814
-0.0385936
-0.032818
-0.0279973
-0.0239848
-0.0206487
-0.0178738
-0.0155617
-0.0136295
-0.0120083
-0.0106415
-0.00948288
-0.00849482
-0.00764694
-0.00691462
-0.00627797
-0.00572087
-0.00523021
-0.00479532
-0.00440747
-0.0040595
-0.00374551
-0.00346065
-0.0032009
-0.00296297
-0.00274409
-0.002542
-0.00235481
-0.00218093
-0.00201905
-0.00186804
-0.00172698
-0.00159505
-0.00147154
-0.00135587
-0.00124748
-0.00114591
-0.00105075
-0.00096161
-0.000878178
-0.000800158
-0.000727293
-0.000659353
-0.000596134
-0.000537454
-0.000483144
-0.000433042
-0.000386965
-0.000344691
-0.000305921
-0.000270262
-0.000237239
-0.00020635
-0.000177176
-0.000149523
-0.000123525
-9.96382e-05
-7.8484e-05
-6.05862e-05
-4.61341e-05
-3.49005e-05
-2.63552e-05
-1.98873e-05
-1.4991e-05
-1.13213e-05
-8.63997e-06
-6.73356e-06
-5.37871e-06
-4.36551e-06
-3.53867e-06
-2.81701e-06
-2.1798e-06
-1.63536e-06
-1.19371e-06
-8.53659e-07
-6.02695e-07
-4.22873e-07
-2.96186e-07
-2.07597e-07
-1.45578e-07
-1.01852e-07
-7.05819e-08
-4.78829e-08
-3.11501e-08
-1.87602e-08
-9.58255e-09
-2.89619e-09
1.90788e-09
5.24187e-09
7.51438e-09
8.97824e-09
9.90325e-09
1.04141e-08
1.06729e-08
1.07164e-08
1.06446e-08
1.04504e-08
1.02075e-08
9.89031e-09
9.56165e-09
9.18619e-09
8.82069e-09
8.42329e-09
8.04726e-09
7.64663e-09
7.2731e-09
6.87832e-09
6.51352e-09
6.12895e-09
5.77583e-09
5.4031e-09
5.06257e-09
4.70186e-09
4.37391e-09
4.02428e-09
3.70867e-09
3.36818e-09
3.06558e-09
2.73045e-09
2.4445e-09
2.1063e-09
1.84616e-09
1.49733e-09
1.25544e-09
9.32832e-10
5.89975e-10
0.0525422
0.0511266
0.0463527
0.0393092
0.0293523
0.0160623
-0.000778026
-0.0213724
-0.0453182
-0.0718025
-0.0993615
-0.125939
-0.150747
-0.172942
-0.191981
-0.207641
-0.219757
-0.22824
-0.233019
-0.234035
-0.231266
-0.22479
-0.214839
-0.201848
-0.186454
-0.16944
-0.151651
-0.133884
-0.116807
-0.100911
-0.0865018
-0.0737247
-0.062595
-0.053038
-0.0449235
-0.0380929
-0.0323791
-0.0276196
-0.0236645
-0.0203801
-0.0176506
-0.0153774
-0.0134779
-0.0118839
-0.0105395
-0.00939915
-0.00842598
-0.00759016
-0.00686763
-0.00623893
-0.00568828
-0.0052029
-0.00477232
-0.00438801
-0.00404296
-0.00373137
-0.0034485
-0.0031904
-0.00295382
-0.00273608
-0.00253492
-0.00234851
-0.00217528
-0.00201395
-0.00186341
-0.00172274
-0.00159114
-0.00146793
-0.00135251
-0.00124434
-0.00114297
-0.00104798
-0.000958995
-0.000875695
-0.000797791
-0.000725026
-0.000657173
-0.00059403
-0.000535418
-0.000481175
-0.000431145
-0.000385158
-0.000342999
-0.000304376
-0.000268896
-0.000236071
-0.000205374
-0.000176362
-0.000148816
-0.000122856
-9.89485e-05
-7.77394e-05
-5.97886e-05
-4.53165e-05
-3.41114e-05
-2.56396e-05
-1.92736e-05
-1.44874e-05
-1.09208e-05
-8.32808e-06
-6.4943e-06
-5.19738e-06
-4.22893e-06
-3.43527e-06
-2.73749e-06
-2.11772e-06
-1.5869e-06
-1.15673e-06
-8.26579e-07
-5.83792e-07
-4.10176e-07
-2.8776e-07
-2.01849e-07
-1.41401e-07
-9.85873e-08
-6.79004e-08
-4.56541e-08
-2.93327e-08
-1.73352e-08
-8.51706e-09
-2.13687e-09
2.42858e-09
5.5912e-09
7.75031e-09
9.14254e-09
1.00234e-08
1.0505e-08
1.07429e-08
1.07694e-08
1.06842e-08
1.04789e-08
1.0228e-08
9.9046e-09
9.57206e-09
9.19356e-09
8.82635e-09
8.42733e-09
8.05051e-09
7.64887e-09
7.27501e-09
6.87956e-09
6.51474e-09
6.12966e-09
5.77663e-09
5.40353e-09
5.06318e-09
4.70214e-09
4.3744e-09
4.02445e-09
3.70911e-09
3.36817e-09
3.06607e-09
2.72996e-09
2.44548e-09
2.10386e-09
1.84973e-09
1.48592e-09
1.27309e-09
8.76559e-10
6.90856e-10
0.0542611
0.0528871
0.048254
0.0413692
0.0315556
0.0183113
0.00133897
-0.0196945
-0.0443848
-0.0719244
-0.10057
-0.127851
-0.153152
-0.175626
-0.194782
-0.21048
-0.222597
-0.231077
-0.235854
-0.236853
-0.234021
-0.227398
-0.21719
-0.203823
-0.187954
-0.170413
-0.152099
-0.133861
-0.116402
-0.100229
-0.0856469
-0.0727865
-0.0616442
-0.0521255
-0.0440816
-0.0373391
-0.0317197
-0.0270533
-0.0231851
-0.0199788
-0.0173175
-0.0151025
-0.013252
-0.0116987
-0.0103876
-0.00927455
-0.0083235
-0.00750562
-0.00679762
-0.00618071
-0.00563967
-0.00516212
-0.00473796
-0.00435893
-0.00401822
-0.00371023
-0.00343032
-0.00317468
-0.00294014
-0.00272408
-0.00252433
-0.00233908
-0.00216682
-0.0020063
-0.00185645
-0.00171636
-0.00158527
-0.00146249
-0.00134745
-0.00123962
-0.00113854
-0.00104381
-0.000955049
-0.000871947
-0.000794214
-0.000721597
-0.00065387
-0.000590837
-0.000532322
-0.000478173
-0.000428243
-0.000382377
-0.000340374
-0.000301951
-0.000266712
-0.000234153
-0.00020372
-0.000174929
-0.000147527
-0.000121622
-9.76887e-05
-7.64128e-05
-5.84041e-05
-4.39266e-05
-3.27898e-05
-2.44538e-05
-1.82658e-05
-1.36698e-05
-1.02818e-05
-7.84377e-06
-6.13665e-06
-4.93868e-06
-4.04348e-06
-3.30068e-06
-2.63636e-06
-2.03862e-06
-1.52365e-06
-1.10653e-06
-7.87839e-07
-5.54809e-07
-3.88878e-07
-2.72061e-07
-1.90042e-07
-1.32307e-07
-9.14838e-08
-6.23554e-08
-4.13856e-08
-2.61178e-08
-1.49747e-08
-6.82273e-09
-9.40743e-10
3.26941e-09
6.18575e-09
8.17825e-09
9.45547e-09
1.02559e-08
1.06776e-08
1.08712e-08
1.08629e-08
1.07523e-08
1.05274e-08
1.02631e-08
9.9294e-09
9.59043e-09
9.20641e-09
8.83616e-09
8.43395e-09
8.05575e-09
7.65211e-09
7.27777e-09
6.881e-09
6.51621e-09
6.13016e-09
5.77743e-09
5.40353e-09
5.06361e-09
4.70187e-09
4.37465e-09
4.02398e-09
3.70926e-09
3.36745e-09
3.06628e-09
2.72855e-09
2.44635e-09
2.09977e-09
1.85418e-09
1.47001e-09
1.29639e-09
8.03558e-10
8.20172e-10
0.0565278
0.0552133
0.0507804
0.0441267
0.0345308
0.0213784
0.00425675
-0.0173611
-0.0430763
-0.0721208
-0.102302
-0.130517
-0.156463
-0.179286
-0.198568
-0.214295
-0.226404
-0.234881
-0.239667
-0.240663
-0.237768
-0.230963
-0.220412
-0.206533
-0.190009
-0.171738
-0.152699
-0.133814
-0.115835
-0.0992881
-0.0844758
-0.0715086
-0.0603555
-0.0508936
-0.0429491
-0.0363283
-0.030838
-0.0262979
-0.0225469
-0.0194454
-0.0168753
-0.0147381
-0.0129528
-0.0114534
-0.0101867
-0.0091097
-0.00818794
-0.00739379
-0.00670501
-0.00610369
-0.00557534
-0.00510815
-0.00469248
-0.00432043
-0.00398547
-0.00368222
-0.00340624
-0.00315385
-0.002922
-0.00270817
-0.00251027
-0.00232656
-0.00215559
-0.00199614
-0.0018472
-0.00170789
-0.00157746
-0.00145526
-0.00134072
-0.00123334
-0.00113265
-0.00103826
-0.000949803
-0.000866964
-0.000789459
-0.000717037
-0.000649478
-0.000586588
-0.000528199
-0.000474167
-0.000424362
-0.000378644
-0.000336831
-0.000298652
-0.000263711
-0.000231486
-0.000201386
-0.00017288
-0.000145674
-0.000119854
-9.59091e-05
-7.45683e-05
-5.65042e-05
-4.20359e-05
-3.10002e-05
-2.28512e-05
-1.69061e-05
-1.25722e-05
-9.43428e-06
-7.21625e-06
-5.69003e-06
-4.63092e-06
-3.83353e-06
-3.15257e-06
-2.52322e-06
-1.94454e-06
-1.44213e-06
-1.03672e-06
-7.3057e-07
-5.10078e-07
-3.55304e-07
-2.47445e-07
-1.72128e-07
-1.19215e-07
-8.1824e-08
-5.51536e-08
-3.59779e-08
-2.20512e-08
-1.19339e-08
-4.5732e-09
7.01116e-10
4.4544e-09
7.03459e-09
8.78648e-09
9.8931e-09
1.05741e-08
1.09103e-08
1.10427e-08
1.09888e-08
1.0845e-08
1.05946e-08
1.03124e-08
9.96481e-09
9.61653e-09
9.22511e-09
8.85023e-09
8.44397e-09
8.06351e-09
7.65752e-09
7.28217e-09
6.88393e-09
6.5188e-09
6.13176e-09
5.77904e-09
5.40441e-09
5.0647e-09
4.70234e-09
4.37544e-09
4.02416e-09
3.70989e-09
3.36727e-09
3.06694e-09
2.72749e-09
2.44775e-09
2.09553e-09
1.8597e-09
1.45237e-09
1.32311e-09
7.25016e-10
9.59297e-10
0.0593189
0.0580849
0.053922
0.0475888
0.0383088
0.0253242
0.00806248
-0.0142808
-0.0413301
-0.0724303
-0.10468
-0.134048
-0.160778
-0.183999
-0.203399
-0.219134
-0.231211
-0.239673
-0.24447
-0.24547
-0.242507
-0.235488
-0.224515
-0.209985
-0.192623
-0.173409
-0.153433
-0.133715
-0.115071
-0.0980546
-0.0829588
-0.0698667
-0.0587104
-0.0493298
-0.0415184
-0.0350568
-0.029733
-0.0253543
-0.0217521
-0.0187829
-0.0163274
-0.0142874
-0.0125832
-0.0111508
-0.00993885
-0.00890637
-0.00802068
-0.00725571
-0.00659056
-0.00600842
-0.00549567
-0.00504124
-0.00463605
-0.00427263
-0.00394479
-0.00364744
-0.00337633
-0.00312798
-0.00289947
-0.0026884
-0.00249279
-0.00231098
-0.0021416
-0.00198348
-0.00183566
-0.00169731
-0.0015677
-0.00144622
-0.00133231
-0.00122547
-0.00112527
-0.00103131
-0.000943227
-0.000860714
-0.000783491
-0.00071131
-0.000643954
-0.000581235
-0.000522993
-0.000469094
-0.000419423
-0.000373861
-0.000332245
-0.000294319
-0.00025969
-0.000227818
-0.000198078
-0.000169892
-0.000142921
-0.000117229
-9.3318e-05
-7.19646e-05
-5.39061e-05
-3.95179e-05
-2.86634e-05
-2.07871e-05
-1.51719e-05
-1.11838e-05
-8.3738e-06
-6.44427e-06
-5.15505e-06
-4.27588e-06
-3.60159e-06
-2.99391e-06
-2.40175e-06
-1.84017e-06
-1.34812e-06
-9.53878e-07
-6.61341e-07
-4.5529e-07
-3.1363e-07
-2.16394e-07
-1.49125e-07
-1.0215e-07
-6.9132e-08
-4.57032e-08
-2.89485e-08
-1.68408e-08
-8.09632e-09
-1.7681e-09
2.73629e-09
5.92504e-09
8.09604e-09
9.55534e-09
1.0452e-08
1.09828e-08
1.12093e-08
1.12621e-08
1.11489e-08
1.0962e-08
1.06793e-08
1.03742e-08
1.00093e-08
9.64929e-09
9.24859e-09
8.86776e-09
8.45636e-09
8.07297e-09
7.66401e-09
7.28731e-09
6.88727e-09
6.52164e-09
6.13342e-09
5.78066e-09
5.40516e-09
5.06565e-09
4.70257e-09
4.37602e-09
4.02405e-09
3.71028e-09
3.36674e-09
3.06734e-09
2.72599e-09
2.44898e-09
2.09064e-09
1.86535e-09
1.43391e-09
1.35033e-09
6.49017e-10
1.09269e-09
0.0626026
0.061474
0.0576638
0.0517615
0.0429271
0.0302272
0.0128743
-0.010323
-0.0390524
-0.0729102
-0.107882
-0.138593
-0.166221
-0.189845
-0.209309
-0.225003
-0.237019
-0.245473
-0.250316
-0.25137
-0.248375
-0.241128
-0.229647
-0.214308
-0.195883
-0.175472
-0.15431
-0.133548
-0.114081
-0.096492
-0.0810609
-0.0678313
-0.0566866
-0.0474184
-0.0397795
-0.033519
-0.0284024
-0.0242223
-0.0208016
-0.0179928
-0.0156753
-0.0137519
-0.0121448
-0.0107922
-0.00964532
-0.00866564
-0.00782267
-0.00709221
-0.00645499
-0.00589551
-0.00540122
-0.00496189
-0.0045691
-0.00421589
-0.0038965
-0.00360613
-0.0033408
-0.00309722
-0.00287267
-0.00266487
-0.00247197
-0.00229241
-0.0021249
-0.00196836
-0.00182187
-0.00168464
-0.00155602
-0.00143538
-0.00132222
-0.00121604
-0.00111643
-0.00102298
-0.000935348
-0.000853228
-0.00077634
-0.000704443
-0.000637325
-0.000574802
-0.000516723
-0.000462965
-0.00041343
-0.000368019
-0.000326591
-0.000288907
-0.000254581
-0.00022306
-0.000193689
-0.00016585
-0.00013916
-0.00011366
-8.986e-05
-6.85808e-05
-5.06199e-05
-3.6405e-05
-2.58226e-05
-1.83059e-05
-1.31031e-05
-9.53908e-06
-7.1321e-06
-5.55982e-06
-4.56478e-06
-3.90589e-06
-3.37587e-06
-2.84579e-06
-2.28475e-06
-1.73092e-06
-1.24198e-06
-8.55812e-07
-5.77403e-07
-3.88202e-07
-2.62505e-07
-1.78427e-07
-1.21226e-07
-8.1714e-08
-5.41709e-08
-3.47322e-08
-2.08759e-08
-1.08807e-08
-3.69437e-09
1.47339e-09
5.10988e-09
7.65399e-09
9.35e-09
1.04639e-08
1.11105e-08
1.14617e-08
1.15582e-08
1.15174e-08
1.13352e-08
1.10986e-08
1.07787e-08
1.0447e-08
1.00621e-08
9.6881e-09
9.27663e-09
8.88863e-09
8.47137e-09
8.08436e-09
7.67211e-09
7.29366e-09
6.89167e-09
6.52529e-09
6.13583e-09
5.78284e-09
5.4065e-09
5.06704e-09
4.70329e-09
4.37697e-09
4.02434e-09
3.71097e-09
3.36655e-09
3.06802e-09
2.72476e-09
2.45047e-09
2.08603e-09
1.87119e-09
1.41649e-09
1.37645e-09
5.81732e-10
1.21034e-09
0.0663373
0.0653435
0.0619827
0.0566468
0.0484267
0.0361832
0.0188437
-0.00531081
-0.0361125
-0.0736567
-0.112169
-0.144347
-0.172953
-0.196958
-0.216406
-0.231981
-0.243869
-0.252283
-0.257178
-0.25832
-0.25533
-0.247861
-0.235813
-0.219515
-0.199801
-0.177921
-0.155304
-0.133267
-0.112811
-0.0945471
-0.0787351
-0.0653649
-0.0542564
-0.0451412
-0.0377222
-0.0317107
-0.0268463
-0.0229048
-0.0197001
-0.0170806
-0.0149249
-0.0131372
-0.0116424
-0.0103817
-0.00930957
-0.00839028
-0.00759601
-0.00690486
-0.00629942
-0.00576574
-0.0052925
-0.00487042
-0.00449184
-0.00415037
-0.0038407
-0.00355839
-0.00329974
-0.00306169
-0.0028417
-0.00263768
-0.00244789
-0.00227092
-0.00210555
-0.00195081
-0.00180584
-0.00166991
-0.0015424
-0.00142275
-0.00131045
-0.00120504
-0.0011061
-0.00101325
-0.000926147
-0.000844483
-0.000767984
-0.000696414
-0.000629564
-0.000567258
-0.000509351
-0.000455735
-0.000406324
-0.000361039
-0.000319762
-0.000282274
-0.000248199
-0.000216985
-0.000187958
-0.000160469
-0.000134103
-0.000108881
-8.53147e-05
-6.42553e-05
-4.6544e-05
-3.26454e-05
-2.24594e-05
-1.54065e-05
-1.07057e-05
-7.64622e-06
-5.72006e-06
-4.57787e-06
-3.93832e-06
-3.54205e-06
-3.17607e-06
-2.72367e-06
-2.18273e-06
-1.62336e-06
-1.12824e-06
-7.4657e-07
-4.82835e-07
-3.12682e-07
-2.05099e-07
-1.35738e-07
-8.96803e-08
-5.84551e-08
-3.70722e-08
-2.21872e-08
-1.16672e-08
-4.1098e-09
1.28314e-09
5.12312e-09
7.77489e-09
9.59382e-09
1.07591e-08
1.14879e-08
1.1855e-08
1.20045e-08
1.1954e-08
1.18066e-08
1.15462e-08
1.12527e-08
1.08908e-08
1.0529e-08
1.01215e-08
9.73176e-09
9.30821e-09
8.91204e-09
8.48821e-09
8.09703e-09
7.68111e-09
7.30061e-09
6.89648e-09
6.52918e-09
6.13839e-09
5.78509e-09
5.40784e-09
5.06839e-09
4.70393e-09
4.37781e-09
4.02452e-09
3.71152e-09
3.36622e-09
3.06854e-09
2.72339e-09
2.45177e-09
2.08148e-09
1.87661e-09
1.40061e-09
1.39986e-09
5.25577e-10
1.30758e-09
0.0704698
0.0696447
0.0668451
0.0622403
0.0548503
0.0433089
0.0261674
0.00100586
-0.0323158
-0.0748092
-0.11791
-0.151575
-0.181162
-0.205413
-0.224676
-0.24003
-0.251751
-0.260156
-0.265188
-0.266534
-0.263641
-0.255972
-0.243272
-0.225815
-0.204514
-0.180822
-0.15642
-0.13284
-0.111205
-0.0921612
-0.0759286
-0.0624253
-0.0513894
-0.0424783
-0.0353349
-0.0296264
-0.025063
-0.0214027
-0.0184497
-0.0160487
-0.0140785
-0.0124456
-0.0110782
-0.0099214
-0.00893328
-0.00808174
-0.00734202
-0.00669481
-0.00612489
-0.00562004
-0.00517034
-0.00476758
-0.00440493
-0.00407664
-0.00377789
-0.00350463
-0.00325348
-0.00302162
-0.00280675
-0.00260695
-0.00242066
-0.00224657
-0.00208361
-0.00193088
-0.00178761
-0.00165314
-0.00152689
-0.00140835
-0.00129702
-0.00119248
-0.00109432
-0.00100216
-0.000915665
-0.000834523
-0.000758468
-0.000687265
-0.000620711
-0.000558637
-0.000500908
-0.000447423
-0.000398114
-0.000352918
-0.000311737
-0.000274374
-0.000240474
-0.000209496
-0.000180765
-0.000153625
-0.000127644
-0.000102817
-7.96522e-05
-5.90064e-05
-4.17365e-05
-2.8321e-05
-1.86616e-05
-1.21675e-05
-8.04154e-06
-5.55422e-06
-4.1799e-06
-3.54067e-06
-3.3203e-06
-3.2287e-06
-3.04086e-06
-2.6561e-06
-2.11273e-06
-1.52511e-06
-1.00884e-06
-6.25845e-07
-3.77136e-07
-2.28691e-07
-1.41766e-07
-8.88598e-08
-5.5091e-08
-3.3002e-08
-1.84496e-08
-8.61493e-09
-1.7615e-09
3.15375e-09
6.62445e-09
9.04828e-09
1.06497e-08
1.16924e-08
1.22867e-08
1.25989e-08
1.26624e-08
1.25922e-08
1.23818e-08
1.2119e-08
1.17739e-08
1.14193e-08
1.10122e-08
1.06179e-08
1.01862e-08
9.77925e-09
9.34271e-09
8.93759e-09
8.50675e-09
8.11096e-09
7.69116e-09
7.30834e-09
6.90199e-09
6.53359e-09
6.14147e-09
5.7877e-09
5.40958e-09
5.07001e-09
4.7049e-09
4.37887e-09
4.02498e-09
3.71227e-09
3.36615e-09
3.06921e-09
2.7223e-09
2.45315e-09
2.0775e-09
1.88167e-09
1.38704e-09
1.42016e-09
4.81074e-10
1.38426e-09
0.0749337
0.0743154
0.072203
0.0685238
0.0622344
0.0517328
0.0350834
0.00895896
-0.0273994
-0.0766157
-0.125637
-0.160577
-0.191113
-0.215471
-0.234337
-0.249272
-0.260663
-0.268987
-0.274172
-0.275816
-0.273154
-0.265384
-0.25202
-0.233243
-0.210056
-0.184178
-0.157621
-0.132199
-0.109185
-0.0892557
-0.0725741
-0.0589607
-0.0480499
-0.039408
-0.0326069
-0.0272637
-0.023056
-0.0197229
-0.0170591
-0.0149068
-0.0131457
-0.0116859
-0.0104598
-0.00941748
-0.00852152
-0.00774396
-0.0070636
-0.00646414
-0.00593281
-0.00545933
-0.0050353
-0.00465368
-0.00430854
-0.0039948
-0.00370815
-0.00344495
-0.00320213
-0.00297717
-0.00276798
-0.00257286
-0.00239041
-0.00221949
-0.00205916
-0.00190863
-0.00176723
-0.00163435
-0.00150949
-0.00139217
-0.00128193
-0.00117837
-0.00108108
-0.000989702
-0.00090389
-0.000823341
-0.000747786
-0.000676993
-0.000610764
-0.000548936
-0.000491383
-0.000438014
-0.000388772
-0.00034361
-0.000302448
-0.000265114
-0.000231281
-0.000200439
-0.000171939
-0.00014514
-0.000119613
-9.53433e-05
-7.28095e-05
-5.28368e-05
-3.62554e-05
-2.35208e-05
-1.45199e-05
-8.66376e-06
-5.16125e-06
-3.29829e-06
-2.54138e-06
-2.48115e-06
-2.74953e-06
-3.00687e-06
-3.00691e-06
-2.67012e-06
-2.09082e-06
-1.44384e-06
-8.87328e-07
-4.96436e-07
-2.63659e-07
-1.39888e-07
-7.57362e-08
-4.01537e-08
-1.89406e-08
-6.19357e-09
1.25006e-09
5.74741e-09
8.7105e-09
1.08269e-08
1.2263e-08
1.3187e-08
1.36768e-08
1.39001e-08
1.3894e-08
1.37689e-08
1.35138e-08
1.32124e-08
1.28338e-08
1.24488e-08
1.20144e-08
1.1595e-08
1.11402e-08
1.07115e-08
1.02543e-08
9.82928e-09
9.3791e-09
8.96449e-09
8.52628e-09
8.12557e-09
7.70172e-09
7.3164e-09
6.90776e-09
6.53814e-09
6.14465e-09
5.79034e-09
5.41135e-09
5.07161e-09
4.70587e-09
4.37988e-09
4.02541e-09
3.71293e-09
3.36605e-09
3.06978e-09
2.72125e-09
2.45434e-09
2.07392e-09
1.88608e-09
1.37566e-09
1.43701e-09
4.46927e-10
1.44256e-09
0.079647
0.0792776
0.0779902
0.0754627
0.0706064
0.0616055
0.0458994
0.0190351
-0.0209556
-0.0794108
-0.136175
-0.171832
-0.202969
-0.227002
-0.245177
-0.259582
-0.270632
-0.278965
-0.284467
-0.286625
-0.284371
-0.276575
-0.26247
-0.242111
-0.216622
-0.188069
-0.158899
-0.131279
-0.106662
-0.0857425
-0.0685976
-0.0549161
-0.0442012
-0.0359086
-0.0295275
-0.024619
-0.0208257
-0.0178678
-0.0155317
-0.0136581
-0.0121295
-0.0108605
-0.00978951
-0.00887204
-0.00807615
-0.00737863
-0.00676233
-0.00621433
-0.00572456
-0.00528489
-0.00488857
-0.00452983
-0.00420366
-0.00390571
-0.00363221
-0.00337993
-0.00314618
-0.00292869
-0.00272565
-0.00253557
-0.00235727
-0.00218976
-0.00203227
-0.00188412
-0.00174473
-0.00161359
-0.00149025
-0.00137427
-0.00126523
-0.00116275
-0.00106645
-0.000975941
-0.0008909
-0.000811017
-0.000736021
-0.00066568
-0.000599802
-0.00053823
-0.000480847
-0.000427571
-0.000378355
-0.000333162
-0.00029193
-0.000254514
-0.000220628
-0.000189813
-0.000161481
-0.00013503
-0.00011007
-8.65721e-05
-6.49477e-05
-4.59534e-05
-3.03297e-05
-1.84658e-05
-1.023e-05
-5.04429e-06
-2.17084e-06
-9.51592e-07
-8.62563e-07
-1.4556e-06
-2.28492e-06
-2.93415e-06
-3.12271e-06
-2.79917e-06
-2.13466e-06
-1.38572e-06
-7.64418e-07
-3.58189e-07
-1.43269e-07
-4.79983e-08
-8.82331e-09
8.95685e-09
1.77616e-08
2.12357e-08
2.1426e-08
2.04056e-08
1.93632e-08
1.86279e-08
1.80026e-08
1.74056e-08
1.67652e-08
1.61544e-08
1.55366e-08
1.49652e-08
1.43846e-08
1.38465e-08
1.32955e-08
1.27857e-08
1.22601e-08
1.17745e-08
1.12711e-08
1.08073e-08
1.03242e-08
9.88061e-09
9.41655e-09
8.99217e-09
8.5465e-09
8.14069e-09
7.71276e-09
7.3248e-09
6.91389e-09
6.54295e-09
6.14813e-09
5.7932e-09
5.41337e-09
5.07338e-09
4.70706e-09
4.38104e-09
4.02604e-09
3.71372e-09
3.36614e-09
3.07044e-09
2.72046e-09
2.45551e-09
2.07098e-09
1.88996e-09
1.36655e-09
1.45075e-09
4.21485e-10
1.48585e-09
0.0845115
0.0844339
0.084116
0.0829886
0.0799623
0.0730574
0.0589542
0.0318558
-0.0124884
-0.083871
-0.150454
-0.185722
-0.217392
-0.240729
-0.257649
-0.271039
-0.281411
-0.289639
-0.29554
-0.298471
-0.296982
-0.28945
-0.274687
-0.252558
-0.22433
-0.192535
-0.160209
-0.129978
-0.103513
-0.0815051
-0.0639036
-0.050222
-0.0397981
-0.031955
-0.0260871
-0.0216937
-0.0183809
-0.0158505
-0.0138825
-0.012318
-0.0110443
-0.00998253
-0.00907822
-0.00829394
-0.00760406
-0.00699086
-0.00644182
-0.00594776
-0.0055016
-0.00509751
-0.0047305
-0.00439609
-0.00409024
-0.00380931
-0.00355005
-0.00330965
-0.00308574
-0.00287637
-0.00267997
-0.00249532
-0.00232145
-0.00215759
-0.0020031
-0.00185746
-0.0017202
-0.00159091
-0.00146918
-0.00135465
-0.00124692
-0.00114563
-0.0010504
-0.000960875
-0.000876702
-0.000797568
-0.000723198
-0.00065336
-0.000587863
-0.00052656
-0.000469342
-0.000416136
-0.000366901
-0.000321609
-0.000280213
-0.0002426
-0.000208539
-0.000177651
-0.000149441
-0.000123395
-9.91434e-05
-7.66691e-05
-5.63125e-05
-3.86433e-05
-2.4258e-05
-1.34395e-05
-6.00571e-06
-1.44975e-06
8.40146e-07
1.43206e-06
8.16736e-07
-5.04604e-07
-1.97185e-06
-3.05584e-06
-3.42545e-06
-3.06718e-06
-2.25456e-06
-1.35261e-06
-6.39623e-07
-2.12083e-07
-1.9083e-08
4.2934e-08
5.53772e-08
5.5936e-08
5.34541e-08
4.83501e-08
4.14907e-08
3.49795e-08
2.99512e-08
2.63968e-08
2.37325e-08
2.16199e-08
1.98477e-08
1.84019e-08
1.7174e-08
1.61583e-08
1.52535e-08
1.44796e-08
1.37567e-08
1.31221e-08
1.25055e-08
1.19538e-08
1.14019e-08
1.09031e-08
1.03941e-08
9.93189e-09
9.45402e-09
9.01985e-09
8.56674e-09
8.1558e-09
7.72382e-09
7.3332e-09
6.92004e-09
6.54774e-09
6.15162e-09
5.79602e-09
5.41539e-09
5.07511e-09
4.70825e-09
4.38216e-09
4.02668e-09
3.71446e-09
3.36626e-09
3.07103e-09
2.71979e-09
2.45652e-09
2.0685e-09
1.89319e-09
1.35933e-09
1.46162e-09
4.02809e-10
1.51743e-09
0.0894113
0.0896686
0.0904614
0.0910041
0.0902638
0.0862444
0.0746991
0.0484437
-0.00108938
-0.0909512
-0.170863
-0.202832
-0.233599
-0.255636
-0.271296
-0.283809
-0.293619
-0.301927
-0.30846
-0.312432
-0.311944
-0.304847
-0.289369
-0.265105
-0.233499
-0.197704
-0.161526
-0.128184
-0.0995917
-0.0764061
-0.0583832
-0.0448021
-0.0347933
-0.0275217
-0.0222744
-0.0184845
-0.0157223
-0.0136734
-0.012114
-0.0108888
-0.00989197
-0.00905342
-0.00832734
-0.00768454
-0.00710665
-0.00658217
-0.00610369
-0.00566617
-0.00526571
-0.00489899
-0.00456282
-0.00425412
-0.0039698
-0.00370693
-0.0034628
-0.003235
-0.00302152
-0.00282072
-0.00263132
-0.00245237
-0.00228314
-0.00212308
-0.00197173
-0.00182873
-0.00169373
-0.00156639
-0.0014464
-0.00133342
-0.00122712
-0.00112713
-0.0010331
-0.000944661
-0.000861453
-0.000783155
-0.000709481
-0.000640194
-0.000575109
-0.000514087
-0.000457029
-0.000403871
-0.000354577
-0.000309126
-0.000267486
-0.000229584
-0.000195261
-0.000164247
-0.000136172
-0.000110638
-8.73445e-05
-6.62045e-05
-4.74238e-05
-3.13997e-05
-1.84726e-05
-8.75587e-06
-2.07773e-06
1.94662e-06
3.76431e-06
3.78569e-06
2.44876e-06
3.30958e-07
-1.84727e-06
-3.4012e-06
-3.93246e-06
-3.47886e-06
-2.44461e-06
-1.33455e-06
-5.04768e-07
-5.42737e-08
1.08987e-07
1.31202e-07
1.14997e-07
9.94085e-08
8.72632e-08
7.44799e-08
6.08994e-08
4.90251e-08
4.01357e-08
3.38882e-08
2.92787e-08
2.57058e-08
2.28354e-08
2.05793e-08
1.87606e-08
1.73149e-08
1.60962e-08
1.50935e-08
1.4204e-08
1.34484e-08
1.27435e-08
1.21278e-08
1.15289e-08
1.09961e-08
1.04621e-08
9.98184e-09
9.4906e-09
9.0469e-09
8.58662e-09
8.17064e-09
7.73478e-09
7.34152e-09
6.92621e-09
6.55255e-09
6.15522e-09
5.79891e-09
5.41747e-09
5.07691e-09
4.70957e-09
4.38336e-09
4.02745e-09
3.71528e-09
3.36654e-09
3.07168e-09
2.71935e-09
2.45748e-09
2.0666e-09
1.89593e-09
1.35381e-09
1.47017e-09
3.89322e-10
1.54027e-09
0.0942134
0.0948407
0.0968722
0.0993359
0.101391
0.101158
0.0935144
0.0698245
0.0138888
-0.101318
-0.197753
-0.225117
-0.2552
-0.274293
-0.287074
-0.297648
-0.306291
-0.314553
-0.321945
-0.327439
-0.32858
-0.32251
-0.306569
-0.279958
-0.244321
-0.203645
-0.162786
-0.125742
-0.0947141
-0.0702742
-0.0519004
-0.0385611
-0.029128
-0.0225792
-0.0180815
-0.014999
-0.0128672
-0.011359
-0.0102509
-0.00939459
-0.0086948
-0.00809254
-0.00755292
-0.00705655
-0.00659358
-0.00615953
-0.00575271
-0.00537255
-0.00501862
-0.00469013
-0.00438582
-0.00410389
-0.00384221
-0.0035985
-0.00337049
-0.00315617
-0.00295384
-0.00276216
-0.00258016
-0.00240719
-0.00224279
-0.00208665
-0.00193854
-0.00179824
-0.00166555
-0.00154024
-0.00142205
-0.00131071
-0.00120592
-0.00110733
-0.0010146
-0.00092735
-0.000845211
-0.00076784
-0.000694938
-0.000626264
-0.000561633
-0.000500917
-0.00044403
-0.000390916
-0.000341547
-0.000295907
-0.000253986
-0.000215761
-0.000181163
-0.000150054
-0.000122214
-9.73692e-05
-7.52689e-05
-5.57728e-05
-3.88822e-05
-2.46916e-05
-1.32886e-05
-4.64203e-06
1.41522e-06
5.09953e-06
6.60106e-06
6.12688e-06
4.05785e-06
1.07958e-06
-1.87695e-06
-3.92931e-06
-4.59844e-06
-3.98955e-06
-2.66654e-06
-1.30431e-06
-3.44395e-07
1.21471e-07
2.41839e-07
2.15658e-07
1.68647e-07
1.38313e-07
1.18441e-07
9.90424e-08
7.91939e-08
6.22054e-08
4.96849e-08
4.09443e-08
3.45278e-08
2.95767e-08
2.56608e-08
2.26346e-08
2.02576e-08
1.84066e-08
1.68919e-08
1.56733e-08
1.46265e-08
1.37568e-08
1.29686e-08
1.22922e-08
1.16491e-08
1.10841e-08
1.05264e-08
1.00292e-08
9.52533e-09
9.07259e-09
8.60553e-09
8.18478e-09
7.74525e-09
7.34948e-09
6.93214e-09
6.55717e-09
6.15869e-09
5.80175e-09
5.41972e-09
5.07872e-09
4.71089e-09
4.38453e-09
4.02824e-09
3.71607e-09
3.36685e-09
3.07229e-09
2.71904e-09
2.45831e-09
2.06509e-09
1.89815e-09
1.34962e-09
1.47674e-09
3.79631e-10
1.55666e-09
0.0987695
0.0997947
0.103154
0.10778
0.11313
0.117897
0.115996
0.0988508
0.034556
-0.124203
-0.238551
-0.247964
-0.276349
-0.294116
-0.304863
-0.313343
-0.320292
-0.32806
-0.335976
-0.3429
-0.345806
-0.34111
-0.325022
-0.296123
-0.25614
-0.209973
-0.163757
-0.122497
-0.0887694
-0.0630365
-0.0444183
-0.0314923
-0.0228169
-0.0171539
-0.0135389
-0.0112656
-0.00983924
-0.0089256
-0.00830639
-0.00784485
-0.00745942
-0.00710488
-0.00675915
-0.00641397
-0.00606894
-0.0057273
-0.0053935
-0.00507176
-0.00476522
-0.00447579
-0.00420407
-0.00394961
-0.00371119
-0.00348713
-0.00327566
-0.00307511
-0.00288413
-0.00270171
-0.00252721
-0.00236029
-0.00220078
-0.00204863
-0.00190382
-0.00176631
-0.00163602
-0.00151281
-0.00139651
-0.00128689
-0.00118369
-0.00108659
-0.000995244
-0.000909264
-0.000828266
-0.000751886
-0.00067981
-0.000611791
-0.00054765
-0.00048727
-0.000430579
-0.000377534
-0.000328113
-0.000282315
-0.000240157
-0.000201678
-0.000166912
-0.00013586
-0.00010845
-8.45219e-05
-6.38463e-05
-4.61662e-05
-3.12494e-05
-1.88944e-05
-8.90947e-06
-1.12452e-06
4.55806e-06
8.11754e-06
9.44954e-06
8.54139e-06
5.72878e-06
1.84078e-06
-1.93986e-06
-4.505e-06
-5.28899e-06
-4.48134e-06
-2.83335e-06
-1.20635e-06
-1.27396e-07
3.31151e-07
3.87829e-07
3.01127e-07
2.19252e-07
1.74245e-07
1.47496e-07
1.22035e-07
9.61787e-08
7.43011e-08
5.841e-08
4.74108e-08
3.93545e-08
3.31342e-08
2.82497e-08
2.45135e-08
2.16251e-08
1.9404e-08
1.7619e-08
1.62031e-08
1.50127e-08
1.40386e-08
1.31744e-08
1.24428e-08
1.17592e-08
1.11648e-08
1.05856e-08
1.00727e-08
9.55736e-09
9.09633e-09
8.6231e-09
8.19796e-09
7.75508e-09
7.35698e-09
6.93779e-09
6.56159e-09
6.16206e-09
5.80449e-09
5.42176e-09
5.08057e-09
4.71225e-09
4.38573e-09
4.0291e-09
3.71692e-09
3.36729e-09
3.07294e-09
2.71893e-09
2.45911e-09
2.06403e-09
1.9e-09
1.34656e-09
1.48177e-09
3.72748e-10
1.56841e-09
0.102921
0.104346
0.109076
0.115969
0.12512
0.135748
0.142332
0.13477
0.0628411
-0.133922
-0.305449
-0.293317
-0.307743
-0.313972
-0.318139
-0.322523
-0.327144
-0.334495
-0.343261
-0.352338
-0.357743
-0.355085
-0.339748
-0.30963
-0.266207
-0.215105
-0.163759
-0.118332
-0.0819232
-0.0549652
-0.0362252
-0.023862
-0.0160934
-0.011446
-0.00881724
-0.00743034
-0.00676305
-0.00647862
-0.00636888
-0.00631281
-0.00624587
-0.00613912
-0.00598499
-0.00578766
-0.00555694
-0.00530427
-0.00504056
-0.00477487
-0.00451394
-0.00426228
-0.00402233
-0.00379485
-0.00357944
-0.00337497
-0.00318004
-0.00299331
-0.00281373
-0.00264062
-0.00247365
-0.00231279
-0.00215818
-0.00201003
-0.00186852
-0.00173378
-0.00160587
-0.00148475
-0.00137032
-0.00126241
-0.00116079
-0.00106518
-0.000975218
-0.000890517
-0.000810672
-0.0007353
-0.000664074
-0.000596743
-0.000533134
-0.000473143
-0.000416711
-0.000363811
-0.000314432
-0.000268595
-0.000226357
-0.000187823
-0.000153128
-0.000122393
-9.5661e-05
-7.28367e-05
-5.3667e-05
-3.77607e-05
-2.46447e-05
-1.38376e-05
-4.93517e-06
2.29695e-06
7.84182e-06
1.14211e-05
1.26381e-05
1.12855e-05
7.68829e-06
2.84905e-06
-1.78109e-06
-4.86712e-06
-5.76601e-06
-4.76635e-06