/*--------------------------------*- C++ -*----------------------------------*\
  =========                 |
  \\      /  F ield         | OpenFOAM: The Open Source CFD Toolbox
   \\    /   O peration     | Website:  https://openfoam.org
    \\  /    A nd           | Version:  11
     \\/     M anipulation  |
\*---------------------------------------------------------------------------*/
FoamFile
{
    format      ascii;
    class       volVectorField;
    location    "5.069112";
    object      U;
}
// * * * * * * * * * * * * * * * * * * * * * * * * * * * * * * * * * * * * * //

dimensions      [0 1 -1 0 0 0 0];

internalField   nonuniform List<vector> 
7132
(
(1.00014 -0.000289315 2.18487e-18)
(1.00224 -0.000872916 7.33304e-18)
(1.00699 -0.0014923 7.74043e-18)
(1.01422 -0.00215937 9.34489e-18)
(1.02424 -0.00287748 1.16442e-17)
(1.03723 -0.00362676 1.19592e-17)
(1.05326 -0.00436803 1.12149e-17)
(1.0722 -0.00502393 1.03537e-17)
(1.09352 -0.00551141 9.71337e-18)
(1.1164 -0.00574229 9.35193e-18)
(1.13959 -0.0056668 9.01604e-18)
(1.16189 -0.00535016 8.90985e-18)
(1.18249 -0.00485202 7.69602e-18)
(1.20078 -0.00423207 8.14483e-18)
(1.2164 -0.00354244 -2.31054e-18)
(1.22916 -0.00281497 -1.10822e-17)
(1.23894 -0.00206723 -2.0072e-17)
(1.24571 -0.00130597 -1.44003e-17)
(1.24941 -0.000533031 -2.02614e-17)
(1.24999 0.000248408 -3.221e-17)
(1.24743 0.00102834 -3.34592e-17)
(1.24175 0.00178661 -3.73619e-17)
(1.2331 0.00249312 -4.44134e-17)
(1.22175 0.0031118 -5.61646e-17)
(1.20812 0.0036075 -5.53493e-17)
(1.19278 0.00395384 -6.50496e-17)
(1.17638 0.00413889 -7.5986e-17)
(1.15956 0.00416718 -8.60779e-17)
(1.14293 0.00405751 -9.51898e-17)
(1.127 0.00383827 -9.54449e-17)
(1.11215 0.00354199 -9.324e-17)
(1.09862 0.00320052 -8.83061e-17)
(1.08652 0.00284171 -8.77602e-17)
(1.07587 0.00248763 -8.10161e-17)
(1.06661 0.00215403 -7.10297e-17)
(1.05864 0.00185083 -5.78609e-17)
(1.05181 0.00158302 -4.25355e-17)
(1.04598 0.00135179 -2.64598e-17)
(1.04101 0.00115567 -5.25549e-18)
(1.03675 0.000991519 1.84837e-17)
(1.03308 0.000855311 4.47023e-17)
(1.02991 0.000742767 7.22164e-17)
(1.02715 0.00064976 1.00163e-16)
(1.02472 0.000572584 1.30263e-16)
(1.02257 0.000508081 1.60261e-16)
(1.02066 0.000453684 1.90312e-16)
(1.01895 0.000407386 2.19283e-16)
(1.0174 0.00036767 2.46617e-16)
(1.01601 0.000333427 2.73511e-16)
(1.01473 0.000303852 2.97075e-16)
(1.01357 0.000278364 3.15916e-16)
(1.01251 0.00025652 3.31276e-16)
(1.01152 0.000237951 3.43492e-16)
(1.0106 0.000222322 3.50827e-16)
(1.00974 0.000209295 3.53624e-16)
(1.00893 0.000198525 3.5131e-16)
(1.00815 0.000189654 3.44513e-16)
(1.00741 0.000182326 3.33966e-16)
(1.00669 0.000176203 3.17872e-16)
(1.006 0.000170977 2.96227e-16)
(1.00532 0.000166388 2.68156e-16)
(1.00467 0.000162227 2.34664e-16)
(1.00402 0.000158341 1.96419e-16)
(1.0034 0.000154622 1.52639e-16)
(1.00279 0.000151006 1.05941e-16)
(1.00219 0.000147453 5.54375e-17)
(1.0016 0.000143946 8.44585e-19)
(1.00103 0.000140479 -5.77379e-17)
(1.00048 0.000137051 -1.22069e-16)
(0.999936 0.00013366 -1.90277e-16)
(0.999407 0.0001303 -2.63178e-16)
(0.998891 0.000126949 -3.39421e-16)
(0.998388 0.000123566 -4.15984e-16)
(0.9979 0.00012008 -4.90385e-16)
(0.997425 0.000116399 -5.56163e-16)
(0.996965 0.000112423 -6.10058e-16)
(0.996522 0.000108062 -6.4831e-16)
(0.996097 0.000103262 -6.69005e-16)
(0.995692 9.79815e-05 -6.75666e-16)
(0.995308 9.21212e-05 -6.74329e-16)
(0.99495 8.53731e-05 -6.80972e-16)
(0.99462 7.70295e-05 -7.15794e-16)
(0.994328 6.58335e-05 -8.01448e-16)
(0.994087 4.99969e-05 -9.60441e-16)
(0.993919 2.75049e-05 -1.20632e-15)
(0.993856 -3.25209e-06 -1.54808e-15)
(0.993932 -4.26272e-05 -1.98613e-15)
(0.994181 -8.89056e-05 -2.51617e-15)
(0.994624 -0.00013789 -3.13157e-15)
(0.995263 -0.000183195 -3.81472e-15)
(0.996068 -0.000217363 -4.53446e-15)
(0.996981 -0.000233618 -5.23203e-15)
(0.997918 -0.000227768 -5.82017e-15)
(0.998788 -0.000199631 -6.20205e-15)
(0.999504 -0.000153458 -6.29614e-15)
(1.00001 -9.71034e-05 -6.08177e-15)
(1.00028 -4.01824e-05 -5.62932e-15)
(1.00033 8.25105e-06 -5.10315e-15)
(1.00021 4.17595e-05 -4.73086e-15)
(0.999993 5.77215e-05 -4.7244e-15)
(0.999747 5.73988e-05 -5.19744e-15)
(0.999531 4.4998e-05 -6.09591e-15)
(0.999384 2.61486e-05 -7.18315e-15)
(0.99932 6.33247e-06 -8.10189e-15)
(0.999332 -1.02935e-05 -8.48221e-15)
(0.999401 -2.14537e-05 -8.07612e-15)
(0.999504 -2.6701e-05 -6.84656e-15)
(0.999616 -2.69388e-05 -4.98384e-15)
(0.99972 -2.3773e-05 -2.84944e-15)
(0.999807 -1.89147e-05 -8.54574e-16)
(0.999873 -1.37707e-05 6.59444e-16)
(0.999918 -9.25758e-06 1.51289e-15)
(0.999947 -5.80118e-06 1.71669e-15)
(0.999964 -3.44957e-06 1.43175e-15)
(0.999974 -2.02439e-06 8.98072e-16)
(0.99998 -1.25836e-06 3.44617e-16)
(0.999984 -8.92023e-07 -7.12113e-17)
(0.999987 -7.2505e-07 -2.85713e-16)
(0.99999 -6.30414e-07 -3.20351e-16)
(0.999992 -5.45083e-07 -2.40407e-16)
(0.999994 -4.50133e-07 -1.20499e-16)
(0.999996 -3.49988e-07 -1.81258e-17)
(0.999997 -2.56354e-07 4.10625e-17)
(0.999998 -1.78762e-07 5.65185e-17)
(0.999999 -1.21067e-07 4.43054e-17)
(0.999999 -8.19263e-08 2.29439e-17)
(0.999999 -5.70495e-08 4.11073e-18)
(1 -4.1534e-08 -6.1254e-18)
(1 -3.13786e-08 -8.93524e-18)
(1 -2.40316e-08 -6.68751e-18)
(1 -1.82165e-08 -2.35115e-18)
(1 -1.34694e-08 5.48796e-19)
(1 -9.67361e-09 1.89157e-18)
(1 -6.77564e-09 1.32735e-18)
(1 -4.66391e-09 5.33804e-19)
(1 -3.17745e-09 5.87291e-19)
(1 -2.1413e-09 3.77377e-19)
(1 -1.41208e-09 4.25546e-19)
(1 -8.84934e-10 -8.11669e-20)
(1 -4.97525e-10 -2.47648e-19)
(1 -2.09546e-10 4.08239e-19)
(1 1.00305e-12 5.24808e-19)
(1 1.53516e-10 6.35754e-19)
(1 2.60048e-10 5.09583e-20)
(1 3.34307e-10 -2.18647e-19)
(1 3.83397e-10 3.69401e-19)
(1 4.16317e-10 4.6268e-19)
(1 4.35842e-10 5.78531e-19)
(1 4.4758e-10 7.45485e-21)
(1 4.51754e-10 -2.51292e-19)
(1 4.52445e-10 3.4151e-19)
(1 4.48474e-10 4.34945e-19)
(1 4.43727e-10 5.48988e-19)
(1 4.35183e-10 -2.40966e-20)
(1 4.2905e-10 -2.83728e-19)
(1 4.15992e-10 3.0732e-19)
(1 4.15512e-10 4.0851e-19)
(1 3.88646e-10 4.91249e-19)
(1 4.19654e-10 7.39462e-20)
(1 3.43633e-10 -8.98877e-19)
(1.00014 -0.000865077 3.48692e-20)
(1.00222 -0.00261144 3.66905e-19)
(1.00693 -0.00446639 7.15081e-19)
(1.01412 -0.00646815 1.08439e-18)
(1.0241 -0.00862781 1.49879e-18)
(1.03708 -0.0108868 1.88607e-18)
(1.05317 -0.0131283 2.26318e-18)
(1.07225 -0.0151164 2.09149e-18)
(1.0938 -0.016598 5.57298e-18)
(1.11697 -0.0172979 7.07931e-18)
(1.14044 -0.017062 4.36322e-18)
(1.16297 -0.0160981 4.4335e-18)
(1.18373 -0.0145891 -3.14315e-20)
(1.20213 -0.0127172 1.29585e-17)
(1.21781 -0.0106404 4.90841e-17)
(1.2306 -0.00845404 9.53545e-17)
(1.24041 -0.00620959 1.27229e-16)
(1.24719 -0.00392533 1.24304e-16)
(1.2509 -0.00160465 7.97021e-17)
(1.25149 0.000744781 6.31611e-18)
(1.24891 0.00309368 -7.6278e-17)
(1.2432 0.00538087 -1.56323e-16)
(1.23448 0.00751403 -2.2585e-16)
(1.22301 0.00938234 -2.80369e-16)
(1.20924 0.010878 -3.16972e-16)
(1.19374 0.0119205 -3.3606e-16)
(1.17717 0.0124738 -3.39116e-16)
(1.16019 0.0125525 -3.27964e-16)
(1.14344 0.0122147 -3.04401e-16)
(1.12741 0.011547 -2.70551e-16)
(1.11249 0.0106485 -2.20553e-16)
(1.09892 0.00961561 -1.72601e-16)
(1.0868 0.00853234 -1.17242e-16)
(1.07616 0.00746494 -4.97572e-17)
(1.06692 0.00646059 2.18832e-17)
(1.05897 0.00554877 1.05192e-16)
(1.05218 0.00474415 1.89602e-16)
(1.04638 0.00405004 2.7484e-16)
(1.04143 0.00346179 3.63054e-16)
(1.0372 0.00296977 4.49076e-16)
(1.03356 0.00256178 5.35166e-16)
(1.03041 0.00222486 6.14299e-16)
(1.02766 0.00194656 6.86975e-16)
(1.02524 0.00171571 7.53919e-16)
(1.0231 0.0015228 8.12732e-16)
(1.02119 0.00136012 8.64884e-16)
(1.01948 0.00122164 9.04826e-16)
(1.01794 0.00110281 9.33288e-16)
(1.01655 0.00100031 9.49453e-16)
(1.01528 0.000911748 9.49842e-16)
(1.01412 0.00083539 9.35502e-16)
(1.01305 0.000769922 9.05329e-16)
(1.01206 0.000714258 8.59294e-16)
(1.01115 0.000667398 7.99552e-16)
(1.01028 0.000628345 7.26028e-16)
(1.00947 0.000596065 6.42276e-16)
(1.00869 0.000569489 5.47945e-16)
(1.00795 0.00054755 4.42924e-16)
(1.00723 0.00052923 3.27817e-16)
(1.00653 0.000513606 2.01372e-16)
(1.00586 0.000499893 6.63175e-17)
(1.0052 0.000487464 -7.71584e-17)
(1.00455 0.000475855 -2.26728e-16)
(1.00392 0.000464749 -3.807e-16)
(1.00331 0.000453945 -5.3646e-16)
(1.0027 0.000443332 -6.92358e-16)
(1.00212 0.000432858 -8.52911e-16)
(1.00154 0.000422504 -1.01578e-15)
(1.00098 0.00041227 -1.18236e-15)
(1.00044 0.000402153 -1.35023e-15)
(0.999902 0.000392135 -1.51486e-15)
(0.999382 0.000382156 -1.67395e-15)
(0.998874 0.000372092 -1.81565e-15)
(0.99838 0.000361738 -1.93095e-15)
(0.997899 0.000350819 -2.008e-15)
(0.997433 0.000339031 -2.03702e-15)
(0.996983 0.000326105 -2.01726e-15)
(0.99655 0.000311866 -1.94898e-15)
(0.996137 0.000296191 -1.849e-15)
(0.995745 0.000278788 -1.74614e-15)
(0.995377 0.000258763 -1.68477e-15)
(0.995037 0.000234052 -1.72402e-15)
(0.994733 0.000200963 -1.91791e-15)
(0.994479 0.000154211 -2.31722e-15)
(0.994296 8.7796e-05 -2.95491e-15)
(0.994214 -3.14315e-06 -3.84841e-15)
(0.994266 -0.000119797 -5.00641e-15)
(0.994487 -0.000257248 -6.42004e-15)
(0.994897 -0.000403181 -8.06832e-15)
(0.995498 -0.000538698 -9.89124e-15)
(0.996264 -0.000641584 -1.17687e-14)
(0.997137 -0.000691506 -1.35092e-14)
(0.998038 -0.000675709 -1.48601e-14)
(0.998876 -0.000593342 -1.55813e-14)
(0.999566 -0.000456789 -1.5535e-14)
(1.00005 -0.000289307 -1.47813e-14)
(1.0003 -0.000119551 -1.36262e-14)
(1.00034 2.53323e-05 -1.25792e-14)
(1.00022 0.000125896 -1.22294e-14)
(0.999993 0.000174049 -1.30431e-14)
(0.999743 0.000173345 -1.51609e-14)
(0.999525 0.000136235 -1.82649e-14)
(0.999376 7.95417e-05 -2.15869e-14)
(0.999311 1.97458e-05 -2.41045e-14)
(0.999324 -3.05794e-05 -2.48551e-14)
(0.999396 -6.44858e-05 -2.32731e-14)
(0.9995 -8.05349e-05 -1.93966e-14)
(0.999615 -8.13918e-05 -1.38666e-14)
(0.999721 -7.18819e-05 -7.73687e-15)
(0.999809 -5.71854e-05 -2.14642e-15)
(0.999875 -4.15843e-05 2.00709e-15)
(0.999921 -2.78831e-05 4.2871e-15)
(0.999949 -1.73947e-05 4.77328e-15)
(0.999966 -1.02748e-05 3.94117e-15)
(0.999975 -5.98188e-06 2.45339e-15)
(0.999981 -3.69759e-06 9.32076e-16)
(0.999985 -2.62571e-06 -2.0274e-16)
(0.999987 -2.15153e-06 -7.86392e-16)
(0.99999 -1.88664e-06 -8.77718e-16)
(0.999992 -1.64034e-06 -6.58855e-16)
(0.999994 -1.35779e-06 -3.32802e-16)
(0.999996 -1.05554e-06 -5.37223e-17)
(0.999997 -7.71595e-07 1.08641e-16)
(0.999998 -5.36336e-07 1.53891e-16)
(0.999999 -3.61953e-07 1.22213e-16)
(0.999999 -2.44285e-07 6.33519e-17)
(0.999999 -1.70009e-07 1.09838e-17)
(1 -1.23982e-07 -1.78798e-17)
(1 -9.39366e-08 -2.44539e-17)
(1 -7.21289e-08 -1.80157e-17)
(1 -5.47615e-08 -7.14194e-18)
(1 -4.05099e-08 1.56887e-19)
(1 -2.90886e-08 3.54862e-18)
(1 -2.03682e-08 3.65713e-18)
(1 -1.40261e-08 2.05991e-18)
(1 -9.57111e-09 1.24057e-18)
(1 -6.47338e-09 -9.33635e-20)
(1 -4.29348e-09 -3.92003e-19)
(1 -2.71787e-09 -2.23273e-19)
(1 -1.55656e-09 -1.34853e-19)
(1 -6.93282e-10 7.10282e-19)
(1 -5.99102e-11 3.03022e-19)
(1 3.97852e-10 2.06469e-19)
(1 7.19261e-10 1.81495e-19)
(1 9.42105e-10 -1.5335e-21)
(1 1.09122e-09 6.6322e-19)
(1 1.19021e-09 1.94776e-19)
(1 1.25085e-09 1.12585e-19)
(1 1.28644e-09 1.24729e-19)
(1 1.30114e-09 -3.00558e-20)
(1 1.30363e-09 6.45903e-19)
(1 1.29389e-09 1.76581e-19)
(1 1.28002e-09 8.91125e-20)
(1 1.25662e-09 9.65345e-20)
(1 1.23845e-09 -6.03164e-20)
(1 1.20191e-09 6.14162e-19)
(1 1.19973e-09 1.51864e-19)
(1 1.1241e-09 3.83454e-20)
(1 1.21004e-09 1.8128e-19)
(1 9.97421e-10 -6.09471e-19)
(1.00014 -0.00143287 7.38312e-22)
(1.00218 -0.00432739 5.36305e-21)
(1.00681 -0.00740854 4.97185e-21)
(1.0139 -0.0107459 1.70786e-20)
(1.0238 -0.0143627 -1.39201e-19)
(1.03677 -0.0181656 2.71471e-19)
(1.05297 -0.0219616 -8.19728e-19)
(1.07232 -0.0253451 -1.52692e-18)
(1.09432 -0.0278811 6.51558e-18)
(1.11809 -0.0290729 -1.2671e-18)
(1.14215 -0.0286469 -3.90426e-17)
(1.16512 -0.026992 -3.02252e-17)
(1.18621 -0.0244271 1.12166e-16)
(1.20482 -0.0212651 3.52175e-16)
(1.22062 -0.0177745 5.23164e-16)
(1.23348 -0.0141128 4.48612e-16)
(1.24333 -0.010363 6.75361e-17)
(1.25015 -0.00655145 -5.33197e-16)
(1.25388 -0.00267933 -1.15668e-15)
(1.25448 0.00124452 -1.62344e-15)
(1.25188 0.00517397 -1.91236e-15)
(1.24609 0.00900752 -2.0238e-15)
(1.23721 0.012589 -1.97903e-15)
(1.22552 0.0157289 -1.81165e-15)
(1.21146 0.0182422 -1.55858e-15)
(1.19562 0.0199898 -1.25311e-15)
(1.1787 0.0209102 -9.21142e-16)
(1.16141 0.0210287 -5.80201e-16)
(1.14438 0.0204449 -2.40336e-16)
(1.12815 0.0193078 9.35375e-17)
(1.11309 0.0177859 4.21257e-16)
(1.09944 0.0160426 7.42146e-16)
(1.08729 0.0142196 1.05645e-15)
(1.07666 0.0124279 1.36435e-15)
(1.06747 0.0107458 1.66336e-15)
(1.05958 0.00922193 1.95027e-15)
(1.05284 0.00787975 2.21959e-15)
(1.04711 0.00672397 2.46511e-15)
(1.04223 0.00574602 2.68115e-15)
(1.03805 0.00492921 2.86235e-15)
(1.03445 0.00425269 3.00523e-15)
(1.03133 0.00369451 3.1074e-15)
(1.02861 0.00323371 3.16821e-15)
(1.02622 0.00285153 3.18825e-15)
(1.0241 0.00253212 3.16789e-15)
(1.0222 0.00226261 3.10679e-15)
(1.0205 0.00203302 3.00268e-15)
(1.01897 0.00183585 2.85241e-15)
(1.01758 0.00166565 2.65321e-15)
(1.01631 0.00151849 2.40342e-15)
(1.01516 0.00139157 2.10492e-15)
(1.01409 0.00128273 1.7613e-15)
(1.01311 0.00119022 1.37769e-15)
(1.01219 0.00111239 9.6333e-16)
(1.01133 0.0010476 5.25182e-16)
(1.01052 0.000994112 6.99328e-17)
(1.00974 0.000950146 -3.99287e-16)
(1.00899 0.000913907 -8.81689e-16)
(1.00827 0.000883684 -1.37459e-15)
(1.00757 0.000857927 -1.8764e-15)
(1.00689 0.000835321 -2.38203e-15)
(1.00622 0.00081482 -2.88603e-15)
(1.00557 0.000795655 -3.38147e-15)
(1.00494 0.000777302 -3.86219e-15)
(1.00431 0.000759439 -4.32691e-15)
(1.00371 0.000741889 -4.77427e-15)
(1.00311 0.00072457 -5.20857e-15)
(1.00253 0.000707461 -5.63143e-15)
(1.00196 0.000690563 -6.0398e-15)
(1.00141 0.000673882 -6.42527e-15)
(1.00087 0.00065739 -6.76829e-15)
(1.00034 0.000640997 -7.04603e-15)
(0.99982 0.000624505 -7.22891e-15)
(0.999315 0.000607579 -7.28569e-15)
(0.998823 0.000589766 -7.18983e-15)
(0.998345 0.000570551 -6.92155e-15)
(0.997882 0.000549477 -6.48367e-15)
(0.997435 0.000526232 -5.90601e-15)
(0.997006 0.00050059 -5.25664e-15)
(0.996598 0.000472075 -4.6477e-15)
(0.996212 0.000439248 -4.22525e-15)
(0.995853 0.000398788 -4.15816e-15)
(0.995529 0.000344726 -4.60494e-15)
(0.995252 0.000268461 -5.69009e-15)
(0.995042 0.000160159 -7.49442e-15)
(0.994926 1.17555e-05 -1.0059e-14)
(0.994938 -0.000178905 -1.34042e-14)
(0.995109 -0.00040402 -1.75156e-14)
(0.995461 -0.000643632 -2.2306e-14)
(0.995995 -0.00086686 -2.75414e-14)
(0.996688 -0.00103719 -3.27675e-14)
(0.997487 -0.00112099 -3.73126e-14)
(0.998314 -0.00109696 -4.04107e-14)
(0.999082 -0.000963302 -4.14561e-14)
(0.999711 -0.000740102 -4.03111e-14)
(1.00014 -0.000465502 -3.75364e-14)
(1.00036 -0.000186739 -3.44133e-14)
(1.00037 5.12631e-05 -3.26903e-14)
(1.00022 0.000216175 -3.40856e-14)
(0.999982 0.000294403 -3.9691e-14)
(0.999724 0.000291663 -4.94291e-14)
(0.999502 0.00022851 -6.17662e-14)
(0.999354 0.000132869 -7.38828e-14)
(0.999292 3.22037e-05 -8.23632e-14)
(0.99931 -5.24554e-05 -8.42408e-14)
(0.999387 -0.000109431 -7.80191e-14)
(0.999498 -0.000136272 -6.42181e-14)
(0.999617 -0.000137442 -4.52602e-14)
(0.999727 -0.000121084 -2.47459e-14)
(0.999817 -9.598e-05 -6.38941e-15)
(0.999883 -6.94112e-05 7.00537e-15)
(0.999928 -4.61573e-05 1.41862e-14)
(0.999955 -2.84513e-05 1.55462e-14)
(0.99997 -1.65394e-05 1.27125e-14)
(0.999978 -9.46648e-06 7.84753e-15)
(0.999982 -5.8028e-06 2.93907e-15)
(0.999985 -4.16417e-06 -6.89934e-16)
(0.999988 -3.48999e-06 -2.54416e-15)
(0.99999 -3.11997e-06 -2.82279e-15)
(0.999993 -2.74077e-06 -2.11418e-15)
(0.999995 -2.27443e-06 -1.06998e-15)
(0.999996 -1.76293e-06 -1.74362e-16)
(0.999997 -1.28024e-06 3.46505e-16)
(0.999998 -8.82316e-07 4.92557e-16)
(0.999999 -5.90522e-07 3.92643e-16)
(0.999999 -3.96525e-07 2.02407e-16)
(0.999999 -2.76113e-07 3.5857e-17)
(1 -2.02508e-07 -5.70346e-17)
(1 -1.54564e-07 -7.87756e-17)
(1 -1.1934e-07 -5.80248e-17)
(1 -9.08237e-08 -2.53292e-17)
(1 -6.71651e-08 -2.72449e-19)
(1 -4.81439e-08 1.10443e-17)
(1 -3.3655e-08 1.14664e-17)
(1 -2.31777e-08 6.83043e-18)
(1 -1.58626e-08 2.04047e-18)
(1 -1.0799e-08 -7.82788e-19)
(1 -7.23685e-09 -1.52162e-18)
(1 -4.65602e-09 -1.0442e-18)
(1 -2.74456e-09 -3.10253e-19)
(1 -1.31975e-09 2.68137e-19)
(1 -2.71256e-10 4.67868e-19)
(1 4.85909e-10 4.19583e-19)
(1 1.01886e-09 3.00757e-19)
(1 1.38776e-09 1.75542e-19)
(1 1.63669e-09 1.80157e-19)
(1 1.80203e-09 1.86191e-19)
(1 1.90587e-09 1.85626e-19)
(1 1.96729e-09 1.86415e-19)
(1 1.99571e-09 1.51186e-19)
(1 2.00266e-09 1.90582e-19)
(1 1.99085e-09 1.93056e-19)
(1 1.97073e-09 1.7583e-19)
(1 1.93651e-09 1.62915e-19)
(1 1.90883e-09 1.21852e-19)
(1 1.85387e-09 1.60754e-19)
(1 1.84961e-09 1.6778e-19)
(1 1.7362e-09 1.46574e-19)
(1 1.86044e-09 1.60885e-19)
(1 1.54626e-09 5.4997e-20)
(1.00014 -0.00198714 -2.41198e-20)
(1.00211 -0.006004 -4.64359e-19)
(1.00662 -0.0102951 -8.02999e-19)
(1.01355 -0.0149683 -1.58788e-18)
(1.02333 -0.0200675 -1.66619e-18)
(1.03626 -0.0254712 -1.539e-18)
(1.0526 -0.0309141 -1.12495e-17)
(1.07236 -0.0358026 1.84927e-17)
(1.09506 -0.0394996 3.64681e-18)
(1.11977 -0.0412226 -1.4385e-16)
(1.14473 -0.0405515 -2.41522e-17)
(1.16838 -0.0381285 6.94666e-16)
(1.18995 -0.0344298 1.35287e-15)
(1.20886 -0.029914 7.50377e-16)
(1.22483 -0.024968 -1.78117e-15)
(1.23779 -0.0198085 -5.78057e-15)
(1.2477 -0.0145441 -9.9359e-15)
(1.25456 -0.00920041 -1.283e-14)
(1.25833 -0.00376788 -1.34864e-14)
(1.25894 0.0017509 -1.20298e-14)
(1.25631 0.00729606 -9.53748e-15)
(1.2504 0.0127237 -6.57719e-15)
(1.2413 0.0178067 -3.54285e-15)
(1.22926 0.0222672 -7.06115e-16)
(1.21476 0.0258327 1.77586e-15)
(1.19841 0.0282996 3.84381e-15)
(1.18097 0.0295789 5.51077e-15)
(1.16319 0.0297101 6.83164e-15)
(1.14575 0.0288412 7.87846e-15)
(1.1292 0.0271902 8.72133e-15)
(1.11393 0.0250014 9.4259e-15)
(1.10017 0.0225097 1.00152e-14)
(1.08799 0.0199165 1.05201e-14)
(1.07738 0.0173782 1.09485e-14)
(1.06825 0.0150038 1.12858e-14)
(1.06044 0.0128597 1.15267e-14)
(1.05381 0.0109769 1.16464e-14)
(1.04817 0.00936001 1.16319e-14)
(1.04338 0.00799529 1.14764e-14)
(1.03928 0.00685791 1.11717e-14)
(1.03575 0.00591761 1.07231e-14)
(1.03269 0.00514289 1.01328e-14)
(1.03001 0.00450391 9.41474e-15)
(1.02765 0.00397416 8.58272e-15)
(1.02556 0.00353132 7.64487e-15)
(1.02368 0.00315743 6.60763e-15)
(1.022 0.0028386 5.46576e-15)
(1.02047 0.00256449 4.2185e-15)
(1.01909 0.00232759 2.86606e-15)
(1.01784 0.00212259 1.41246e-15)
(1.01668 0.00194568 -1.25608e-16)
(1.01562 0.00179398 -1.72654e-15)
(1.01464 0.0016651 -3.36421e-15)
(1.01373 0.00155678 -5.01096e-15)
(1.01287 0.00146675 -6.64625e-15)
(1.01205 0.00139258 -8.25311e-15)
(1.01127 0.00133176 -9.82531e-15)
(1.01052 0.00128174 -1.13602e-14)
(1.0098 0.00124011 -1.28531e-14)
(1.00909 0.00120467 -1.42971e-14)
(1.00841 0.00117355 -1.56755e-14)
(1.00773 0.00114531 -1.69723e-14)
(1.00707 0.00111887 -1.81728e-14)
(1.00643 0.00109352 -1.92713e-14)
(1.0058 0.00106881 -2.02713e-14)
(1.00518 0.00104454 -2.11838e-14)
(1.00458 0.00102058 -2.20243e-14)
(1.00399 0.000996942 -2.27899e-14)
(1.00341 0.000973623 -2.34624e-14)
(1.00284 0.000950645 -2.39973e-14)
(1.00229 0.000927985 -2.43273e-14)
(1.00174 0.00090553 -2.43745e-14)
(1.00121 0.000883018 -2.40474e-14)
(1.00069 0.000859997 -2.3265e-14)
(1.00019 0.000835836 -2.19645e-14)
(0.999691 0.000809809 -2.0123e-14)
(0.999208 0.00078125 -1.77851e-14)
(0.998741 0.000749681 -1.50774e-14)
(0.99829 0.000714753 -1.22415e-14)
(0.997857 0.000675795 -9.62924e-15)
(0.997446 0.000630875 -7.67697e-15)
(0.99706 0.000575545 -6.84652e-15)
(0.996706 0.000501774 -7.53204e-15)
(0.996396 0.000397924 -1.00092e-14)
(0.996147 0.00025059 -1.44224e-14)
(0.995985 4.86358e-05 -2.0843e-14)
(0.99594 -0.000211144 -2.93172e-14)
(0.996042 -0.000518438 -3.97821e-14)
(0.99631 -0.000846282 -5.19117e-14)
(0.996749 -0.00115259 -6.48732e-14)
(0.997336 -0.00138733 -7.71722e-14)
(0.998023 -0.00150411 -8.67825e-14)
(0.998738 -0.00147328 -9.16748e-14)
(0.9994 -0.00129197 -9.06873e-14)
(0.999934 -0.000987441 -8.43875e-14)
(1.00029 -0.000612032 -7.55287e-14)
(1.00043 -0.000230834 -6.8773e-14)
(1.00039 9.40638e-05 -6.96017e-14)
(1.00021 0.000317853 -8.26601e-14)
(0.999954 0.000421617 -1.10078e-13)
(0.999685 0.00041323 -1.50108e-13)
(0.99946 0.000321254 -1.96587e-13)
(0.999314 0.00018461 -2.39756e-13)
(0.99926 4.16764e-05 -2.68607e-13)
(0.999287 -7.80816e-05 -2.74166e-13)
(0.999375 -0.000158278 -2.5255e-13)
(0.999495 -0.000195509 -2.06404e-13)
(0.999622 -0.000196172 -1.44239e-13)
(0.999738 -0.000171925 -7.79392e-14)
(0.99983 -0.000135365 -1.9337e-14)
(0.999897 -9.69643e-05 2.29221e-14)
(0.999939 -6.35924e-05 4.52291e-14)
(0.999964 -3.84276e-05 4.91371e-14)
(0.999976 -2.17542e-05 3.99594e-14)
(0.999981 -1.21048e-05 2.4555e-14)
(0.999984 -7.33208e-06 9.13654e-15)
(0.999986 -5.37881e-06 -2.20943e-15)
(0.999988 -4.69034e-06 -7.98272e-15)
(0.99999 -4.32248e-06 -8.83622e-15)
(0.999993 -3.85273e-06 -6.61564e-15)
(0.999995 -3.2046e-06 -3.35208e-15)
(0.999997 -2.46929e-06 -5.53921e-16)
(0.999998 -1.77303e-06 1.07632e-15)
(0.999998 -1.20477e-06 1.53714e-15)
(0.999999 -7.95616e-07 1.2287e-15)
(0.999999 -5.30188e-07 6.36437e-16)
(0.999999 -3.69957e-07 1.14952e-16)
(1 -2.74143e-07 -1.7706e-16)
(1 -2.11787e-07 -2.46588e-16)
(1 -1.64898e-07 -1.82646e-16)
(1 -1.25867e-07 -8.00323e-17)
(1 -9.29454e-08 -1.91286e-18)
(1 -6.63783e-08 3.37727e-17)
(1 -4.62452e-08 3.53666e-17)
(1 -3.18282e-08 2.09406e-17)
(1 -2.18656e-08 6.48832e-18)
(1 -1.50156e-08 -2.92383e-18)
(1 -1.01982e-08 -5.37562e-18)
(1 -6.69001e-09 -3.89089e-18)
(1 -4.0732e-09 -1.60358e-18)
(1 -2.11246e-09 7.851e-19)
(1 -6.65939e-10 9.18846e-19)
(1 3.78518e-10 6.98674e-19)
(1 1.11363e-09 3.54353e-19)
(1 1.62278e-09 -3.6205e-20)
(1 1.96811e-09 5.564e-19)
(1 2.19937e-09 8.23355e-20)
(1 2.34728e-09 1.19522e-20)
(1 2.43717e-09 4.37605e-20)
(1 2.48226e-09 -6.34771e-20)
(1 2.49764e-09 6.39146e-19)
(1 2.48763e-09 1.55001e-19)
(1 2.46569e-09 3.39487e-20)
(1 2.42514e-09 2.48223e-20)
(1 2.39193e-09 -9.9017e-20)
(1 2.3245e-09 6.03096e-19)
(1 2.31823e-09 1.3185e-19)
(1 2.18066e-09 -9.04016e-21)
(1 2.32266e-09 1.14046e-19)
(1 1.95023e-09 -6.2219e-19)
(1.00013 -0.00252109 -2.10289e-18)
(1.00202 -0.00762193 -6.99064e-18)
(1.00634 -0.0130973 -5.83143e-18)
(1.01305 -0.0191038 -9.09954e-18)
(1.02262 -0.0257183 6.83539e-19)
(1.03547 -0.0328031 -3.01609e-17)
(1.05198 -0.0400273 2.27686e-17)
(1.07227 -0.0465844 8.35724e-17)
(1.09594 -0.0516073 -4.50804e-16)
(1.12198 -0.0539195 4.86773e-17)
(1.14819 -0.052914 2.506e-15)
(1.17276 -0.0496062 2.54677e-15)
(1.19496 -0.0446593 -5.39566e-15)
(1.21426 -0.0386969 -2.11504e-14)
(1.23043 -0.0322331 -3.80771e-14)
(1.24349 -0.0255403 -4.77667e-14)
(1.25347 -0.0187464 -4.50773e-14)
(1.26039 -0.0118671 -3.01107e-14)
(1.26422 -0.00487175 -7.43464e-15)
(1.26487 0.00225325 1.62623e-14)
(1.26221 0.00944207 3.69983e-14)
(1.25616 0.0165107 5.31048e-14)
(1.24676 0.023156 6.41443e-14)
(1.23425 0.0289999 7.04809e-14)
(1.21913 0.0336681 7.2957e-14)
(1.20209 0.0368807 7.25817e-14)
(1.18393 0.0385165 7.03542e-14)
(1.16548 0.0386321 6.70762e-14)
(1.14749 0.0374316 6.3343e-14)
(1.13053 0.0352117 5.95469e-14)
(1.11498 0.0323012 5.5897e-14)
(1.10107 0.0290127 5.24687e-14)
(1.08885 0.0256108 4.92297e-14)
(1.07828 0.0222983 4.60765e-14)
(1.06924 0.0192143 4.29014e-14)
(1.06156 0.0164413 3.96066e-14)
(1.05505 0.0140159 3.612e-14)
(1.04955 0.0119405 3.23987e-14)
(1.04488 0.0101946 2.84232e-14)
(1.04088 0.00874365 2.42057e-14)
(1.03745 0.00754701 1.97771e-14)
(1.03446 0.00656286 1.51828e-14)
(1.03184 0.00575199 1.04707e-14)
(1.02953 0.00507991 5.67737e-15)
(1.02747 0.00451783 8.26669e-16)
(1.02562 0.00404273 -4.07665e-15)
(1.02395 0.00363699 -9.03668e-15)
(1.02244 0.00328756 -1.40552e-14)
(1.02107 0.00298512 -1.91186e-14)
(1.01983 0.0027231 -2.41875e-14)
(1.01868 0.00249685 -2.92013e-14)
(1.01763 0.00230286 -3.40902e-14)
(1.01665 0.00213819 -3.87847e-14)
(1.01574 0.00200003 -4.32259e-14)
(1.01488 0.00188546 -4.73837e-14)
(1.01407 0.00179138 -5.12477e-14)
(1.01329 0.00171449 -5.48279e-14)
(1.01253 0.00165147 -5.81358e-14)
(1.0118 0.00159915 -6.11661e-14)
(1.01109 0.00155467 -6.38985e-14)
(1.01039 0.0015156 -6.62943e-14)
(1.00971 0.00148009 -6.83228e-14)
(1.00904 0.00144675 -6.99733e-14)
(1.00839 0.00141472 -7.12676e-14)
(1.00775 0.00138347 -7.22586e-14)
(1.00712 0.00135273 -7.30003e-14)
(1.0065 0.00132243 -7.35282e-14)
(1.0059 0.00129254 -7.3817e-14)
(1.0053 0.00126313 -7.37702e-14)
(1.00472 0.00123421 -7.32226e-14)
(1.00415 0.0012058 -7.19533e-14)
(1.00359 0.00117777 -6.9726e-14)
(1.00304 0.0011498 -6.63094e-14)
(1.00251 0.00112135 -6.15156e-14)
(1.00198 0.0010916 -5.52361e-14)
(1.00146 0.00105961 -4.74778e-14)
(1.00095 0.00102449 -3.84303e-14)
(1.00046 0.000985556 -2.85124e-14)
(0.999977 0.000942297 -1.842e-14)
(0.999513 0.000893836 -9.11148e-15)
(0.999069 0.000837803 -1.70153e-15)
(0.998647 0.000768779 2.71499e-15)
(0.998255 0.000676954 3.29292e-15)
(0.997901 0.000548028 -4.29511e-16)
(0.997603 0.000365393 -8.57108e-15)
(0.997382 0.000115085 -2.11203e-14)
(0.997264 -0.000207205 -3.81091e-14)
(0.997277 -0.000589085 -5.9298e-14)
(0.997439 -0.000997399 -8.36008e-14)
(0.997753 -0.00137993 -1.08464e-13)
(0.998202 -0.00167419 -1.29631e-13)
(0.998741 -0.00182195 -1.41865e-13)
(0.999306 -0.00178564 -1.40812e-13)
(0.999825 -0.00156118 -1.25517e-13)
(1.00023 -0.00118247 -1.00519e-13)
(1.00047 -0.000715096 -7.64038e-14)
(1.00053 -0.000240978 -6.81434e-14)
(1.00042 0.000161573 -9.1341e-14)
(1.00019 0.000435956 -1.57325e-13)
(0.999905 0.00055829 -2.68855e-13)
(0.999622 0.000538705 -4.16876e-13)
(0.999395 0.000413686 -5.79659e-13)
(0.999255 0.000233015 -7.25856e-13)
(0.999212 4.58761e-05 -8.21792e-13)
(0.999254 -0.000109905 -8.41296e-13)
(0.999357 -0.000213307 -7.74497e-13)
(0.999492 -0.000260111 -6.31552e-13)
(0.999631 -0.000258876 -4.40067e-13)
(0.999753 -0.00022508 -2.37116e-13)
(0.999849 -0.000175464 -5.87857e-14)
(0.999915 -0.000123956 6.9102e-14)
(0.999955 -7.96669e-05 1.36221e-13)
(0.999976 -4.67379e-05 1.47764e-13)
(0.999984 -2.53969e-05 1.20037e-13)
(0.999986 -1.35086e-05 7.37524e-14)
(0.999986 -8.04603e-06 2.75198e-14)
(0.999987 -6.1553e-06 -6.4769e-15)
(0.999988 -5.72113e-06 -2.37977e-14)
(0.999991 -5.50331e-06 -2.64051e-14)
(0.999993 -4.99472e-06 -1.98101e-14)
(0.999995 -4.15948e-06 -1.00779e-14)
(0.999997 -3.17409e-06 -1.7099e-15)
(0.999998 -2.24065e-06 3.18241e-15)
(0.999999 -1.4909e-06 4.58247e-15)
(0.999999 -9.65357e-07 3.67804e-15)
(0.999999 -6.36604e-07 1.91273e-15)
(0.999999 -4.46371e-07 3.53765e-16)
(1 -3.36352e-07 -5.23604e-16)
(1 -2.64555e-07 -7.36239e-16)
(1 -2.08328e-07 -5.46927e-16)
(1 -1.59502e-07 -2.42669e-16)
(1 -1.17397e-07 -7.65798e-18)
(1 -8.33088e-08 1.00195e-16)
(1 -5.77046e-08 1.05483e-16)
(1 -3.96449e-08 6.34475e-17)
(1 -2.73553e-08 1.83052e-17)
(1 -1.89851e-08 -9.12431e-18)
(1 -1.30957e-08 -1.6308e-17)
(1 -8.77001e-09 -1.20266e-17)
(1 -5.5092e-09 -4.3188e-18)
(1 -3.04868e-09 9.60313e-19)
(1 -1.22875e-09 2.23404e-18)
(1 8.36604e-11 1.84988e-18)
(1 1.00601e-09 7.19465e-19)
(1 1.6446e-09 4.26834e-19)
(1 2.07997e-09 3.22883e-19)
(1 2.37413e-09 -2.32062e-19)
(1 2.56595e-09 -1.72067e-19)
(1 2.68569e-09 -1.7615e-19)
(1 2.75022e-09 3.81649e-19)
(1 2.77726e-09 6.09483e-19)
(1 2.77311e-09 2.65543e-20)
(1 2.75334e-09 -6.30327e-20)
(1 2.7114e-09 -1.87533e-19)
(1 2.67632e-09 3.21557e-19)
(1 2.60303e-09 5.50313e-19)
(1 2.59454e-09 -6.21295e-21)
(1 2.4472e-09 -1.06616e-19)
(1 2.58685e-09 -9.24315e-20)
(1 2.19986e-09 -1.81129e-19)
(1.00012 -0.00302708 2.11384e-18)
(1.00189 -0.0091587 8.17931e-18)
(1.00596 -0.0157807 5.5724e-18)
(1.01236 -0.0231125 1.01224e-17)
(1.02164 -0.0312806 2.29078e-17)
(1.03432 -0.0401501 -9.85493e-17)
(1.051 -0.0493366 4.73471e-16)
(1.07195 -0.057791 -1.01114e-15)
(1.09687 -0.0643805 -4.40209e-16)
(1.12469 -0.0673619 7.07122e-15)
(1.15256 -0.0658836 2.23315e-15)
(1.17828 -0.0615232 -3.22481e-14)
(1.20126 -0.0551709 -7.69897e-14)
(1.22101 -0.0476417 -8.8295e-14)
(1.23741 -0.0395887 -3.45363e-14)
(1.25057 -0.0313288 8.35929e-14)
(1.26061 -0.0229954 2.36929e-13)
(1.2676 -0.0145764 3.85215e-13)
(1.2715 -0.00600377 4.90222e-13)
(1.27221 0.00276588 5.3681e-13)
(1.26953 0.0116653 5.45311e-13)
(1.26331 0.0204652 5.26374e-13)
(1.25355 0.028773 4.89075e-13)
(1.24046 0.0360911 4.41544e-13)
(1.22456 0.0419251 3.90362e-13)
(1.20662 0.045906 3.40102e-13)
(1.18754 0.0478787 2.93469e-13)
(1.16825 0.0479239 2.51675e-13)
(1.14955 0.0463151 2.14949e-13)
(1.13207 0.0434417 1.82959e-13)
(1.11618 0.0397287 1.55059e-13)
(1.10209 0.0355739 1.30452e-13)
(1.08983 0.0313091 1.08295e-13)
(1.07933 0.0271838 8.78241e-14)
(1.07041 0.0233659 6.84214e-14)
(1.06289 0.0199516 4.96726e-14)
(1.05656 0.0169801 3.13471e-14)
(1.05123 0.014449 1.33545e-14)
(1.04671 0.0123286 -4.29177e-15)
(1.04285 0.0105729 -2.15223e-14)
(1.03953 0.00912932 -3.82335e-14)
(1.03663 0.00794479 -5.43255e-14)
(1.03409 0.00697016 -6.9732e-14)
(1.03183 0.00616267 -8.44394e-14)
(1.02981 0.00548693 -9.8491e-14)
(1.02799 0.00491496 -1.11954e-13)
(1.02635 0.00442553 -1.24881e-13)
(1.02486 0.00400312 -1.3727e-13)
(1.0235 0.00363679 -1.49046e-13)
(1.02227 0.00331894 -1.60071e-13)
(1.02113 0.00304426 -1.70174e-13)
(1.02009 0.00280876 -1.79192e-13)
(1.01912 0.00260907 -1.87018e-13)
(1.01821 0.00244188 -1.93626e-13)
(1.01735 0.00230367 -1.99072e-13)
(1.01654 0.00219061 -2.0347e-13)
(1.01575 0.00209862 -2.06941e-13)
(1.015 0.00202355 -2.09568e-13)
(1.01426 0.00196144 -2.11361e-13)
(1.01354 0.00190871 -2.12258e-13)
(1.01284 0.00186238 -2.12179e-13)
(1.01214 0.00182015 -2.11082e-13)
(1.01146 0.0017804 -2.09026e-13)
(1.01079 0.00174209 -2.06179e-13)
(1.01014 0.00170464 -2.02762e-13)
(1.00949 0.0016678 -1.9896e-13)
(1.00886 0.00163148 -1.94819e-13)
(1.00824 0.00159572 -1.90174e-13)
(1.00763 0.0015606 -1.84641e-13)
(1.00703 0.00152621 -1.77669e-13)
(1.00644 0.00149256 -1.68632e-13)
(1.00586 0.00145955 -1.56926e-13)
(1.00529 0.00142683 -1.42048e-13)
(1.00473 0.00139376 -1.23659e-13)
(1.00418 0.00135937 -1.01633e-13)
(1.00363 0.00132249 -7.61301e-14)
(1.0031 0.00128198 -4.7697e-14)
(1.00257 0.0012369 -1.73808e-14)
(1.00205 0.00118653 1.32003e-14)
(1.00155 0.00112978 4.1928e-14)
(1.00107 0.00106388 6.64507e-14)
(1.0006 0.000982626 8.46545e-14)