/*--------------------------------*- C++ -*----------------------------------*\
  =========                 |
  \\      /  F ield         | OpenFOAM: The Open Source CFD Toolbox
   \\    /   O peration     | Website:  https://openfoam.org
    \\  /    A nd           | Version:  11
     \\/     M anipulation  |
\*---------------------------------------------------------------------------*/
FoamFile
{
    format      ascii;
    class       volVectorField;
    location    "0.46792";
    object      vorticity;
}
// * * * * * * * * * * * * * * * * * * * * * * * * * * * * * * * * * * * * * //

dimensions      [0 0 -1 0 0 0 0];

internalField   nonuniform List<vector> 
7132
(
(-4.9134e-17 -1.85686e-15 -0.00915462)
(-1.86072e-16 -1.81324e-15 -0.00899045)
(-1.87233e-16 -2.83804e-17 -0.00874164)
(-2.2677e-16 -1.80096e-15 -0.00846031)
(-3.01136e-16 -1.79097e-15 -0.00847394)
(-3.04876e-16 -2.3549e-17 -0.00913588)
(-3.10152e-16 -2.52554e-17 -0.010185)
(-2.9698e-16 -2.54621e-17 -0.0105938)
(-2.82869e-16 -1.29136e-17 -0.00937726)
(-3.07682e-16 8.02764e-18 -0.00659903)
(-3.18347e-16 3.18368e-17 -0.00341313)
(-2.39328e-16 5.91977e-17 -0.00118978)
(-1.81393e-16 8.91276e-17 -0.000491842)
(-1.12201e-16 1.37658e-16 -0.000950366)
(3.44881e-18 -1.57888e-15 -0.0018044)
(7.72559e-17 -1.63062e-15 -0.00249925)
(9.62527e-17 -1.70817e-15 -0.00286528)
(6.07366e-17 -6.55781e-18 -0.00296247)
(7.24705e-17 -1.74515e-15 -0.00288302)
(6.94527e-17 -1.77566e-15 -0.00267809)
(3.4154e-17 -5.86317e-17 -0.00237837)
(7.11168e-18 -5.35013e-17 -0.00202164)
(-1.43958e-17 -4.60829e-17 -0.00165279)
(-4.0224e-17 -3.13016e-17 -0.00130971)
(-5.54329e-17 1.73473e-15 -0.0010142)
(-3.92646e-17 1.87674e-17 -0.000772716)
(-2.83039e-17 1.79592e-17 -0.000582037)
(-1.62945e-17 1.10631e-17 -0.000434737)
(-1.9029e-17 2.40606e-19 -0.000322556)
(-1.37471e-17 1.73404e-15 -0.000237946)
(-1.66933e-17 1.74436e-15 -0.000174572)
(-2.83207e-17 1.74694e-15 -0.000127345)
(-1.3274e-17 -2.05557e-18 -9.22845e-05)
(-2.25507e-17 1.72764e-15 -6.63302e-05)
(-1.46412e-17 1.73241e-15 -4.71606e-05)
(1.52384e-18 1.74123e-15 -3.30297e-05)
(-5.72543e-18 1.74696e-15 -2.26325e-05)
(-1.76358e-18 9.48245e-20 -1.49977e-05)
(-1.16402e-17 1.72905e-15 -9.40409e-06)
(-2.53343e-18 1.73139e-15 -5.31752e-06)
(1.30073e-17 1.7383e-15 -2.34276e-06)
(2.97686e-18 1.74369e-15 -1.8771e-07)
(2.8388e-18 -2.14983e-18 1.36335e-06)
(-1.09003e-17 1.72813e-15 2.46968e-06)
(-4.10872e-18 1.73125e-15 3.24883e-06)
(1.08663e-17 1.73827e-15 3.7875e-06)
(1.61984e-18 1.74372e-15 4.14967e-06)
(1.93455e-18 -2.93052e-18 4.38249e-06)
(-8.44021e-18 1.73079e-15 4.5207e-06)
(-1.59871e-17 1.74895e-15 4.58989e-06)
(1.86691e-17 1.54473e-17 4.60888e-06)
(2.75378e-17 -1.73677e-15 4.59153e-06)
(1.47689e-17 -6.88163e-18 4.54804e-06)
(1.33955e-17 -3.29592e-18 4.4859e-06)
(-3.60564e-18 2.19493e-18 4.41062e-06)
(1.62916e-17 4.26855e-18 4.32626e-06)
(2.1494e-17 -1.74297e-15 4.2358e-06)
(6.74703e-18 -1.19601e-17 4.14144e-06)
(3.37101e-18 -6.28136e-18 4.04478e-06)
(-1.52226e-17 2.5505e-18 3.94704e-06)
(5.09646e-18 6.62913e-18 3.84907e-06)
(9.61777e-18 -1.735e-15 3.75153e-06)
(9.43701e-18 5.04222e-18 3.65487e-06)
(9.90023e-18 -1.73277e-15 3.55944e-06)
(3.38916e-18 -1.74115e-15 3.46551e-06)
(2.83799e-17 -1.71582e-18 3.37324e-06)
(8.75219e-18 -1.73658e-15 3.28279e-06)
(3.5562e-18 4.51167e-18 3.19424e-06)
(3.09258e-18 -1.73404e-15 3.10765e-06)
(-4.11603e-18 -1.7433e-15 3.02305e-06)
(1.97554e-17 -3.48199e-18 2.94045e-06)
(-7.33506e-19 -1.73644e-15 2.85986e-06)
(-5.55704e-18 6.88586e-18 2.78128e-06)
(-4.09062e-18 -1.73068e-15 2.70469e-06)
(-8.45933e-18 -1.74062e-15 2.63006e-06)
(1.80492e-17 -2.30475e-18 2.55737e-06)
(-7.86775e-19 -1.73646e-15 2.4866e-06)
(-5.0188e-18 6.43879e-18 2.41769e-06)
(-3.61163e-18 -1.73103e-15 2.35062e-06)
(-8.23284e-18 -1.74077e-15 2.28535e-06)
(1.80724e-17 -2.36987e-18 2.22185e-06)
(-8.72408e-19 -1.73651e-15 2.16005e-06)
(-5.14748e-18 6.4041e-18 2.09994e-06)
(-3.74318e-18 -1.73101e-15 2.04146e-06)
(-8.33916e-18 -1.74071e-15 1.98459e-06)
(1.80077e-17 -2.30358e-18 1.92925e-06)
(-9.04681e-19 -1.73647e-15 1.87545e-06)
(-5.12594e-18 6.40846e-18 1.82309e-06)
(-3.83886e-18 -1.731e-15 1.77219e-06)
(-7.85745e-18 -1.74086e-15 1.72265e-06)
(1.59605e-17 -1.45808e-18 1.67449e-06)
(7.81948e-18 -1.74135e-15 1.62762e-06)
(1.90711e-18 -2.41566e-18 1.58206e-06)
(1.08546e-17 5.93091e-18 1.53771e-06)
(1.05042e-17 -1.73443e-15 1.49461e-06)
(1.09027e-17 2.51822e-19 1.45265e-06)
(-8.26647e-19 -1.74058e-15 1.41187e-06)
(-5.75126e-18 -1.23842e-18 1.37216e-06)
(4.90943e-18 8.319e-18 1.33359e-06)
(5.88789e-18 -1.73105e-15 1.29603e-06)
(6.94674e-18 3.19195e-18 1.25954e-06)
(-4.54373e-18 -1.73969e-15 1.22401e-06)
(-9.12705e-18 -2.82275e-18 1.1895e-06)
(2.31508e-18 5.31011e-18 1.15589e-06)
(4.38853e-18 -1.73388e-15 1.12327e-06)
(6.44029e-18 1.54113e-18 1.0915e-06)
(-4.47112e-18 -1.74015e-15 1.06066e-06)
(-8.89677e-18 -2.66026e-18 1.03063e-06)
(2.47568e-18 5.57658e-18 1.0015e-06)
(4.44361e-18 -1.73373e-15 9.73137e-07)
(6.4384e-18 1.5695e-18 9.45629e-07)
(-4.48419e-18 -1.74017e-15 9.1885e-07)
(-8.90405e-18 -2.67503e-18 8.92893e-07)
(2.47296e-18 5.56687e-18 8.67628e-07)
(4.44151e-18 -1.73374e-15 8.43151e-07)
(6.43846e-18 1.55878e-18 8.19332e-07)
(-4.48196e-18 -1.74011e-15 7.96272e-07)
(-8.88212e-18 -2.86503e-18 7.73835e-07)
(2.45526e-18 6.53882e-18 7.52129e-07)
(4.57238e-18 -1.7382e-15 7.31015e-07)
(6.24412e-18 -6.68987e-18 7.10606e-07)
(-5.34576e-18 -2.16806e-18 6.9076e-07)
(-9.81437e-18 4.25398e-18 6.71594e-07)
(1.69423e-18 8.09756e-18 6.52963e-07)
(4.00464e-18 -1.7379e-15 6.34987e-07)
(5.88117e-18 -6.17795e-18 6.17521e-07)
(-5.39808e-18 -7.96392e-19 6.00689e-07)
(-9.42381e-18 6.22653e-18 5.8434e-07)
(2.51333e-18 9.59963e-18 5.68604e-07)
(5.01557e-18 -1.73787e-15 5.5333e-07)
(6.75401e-18 -7.65523e-18 5.38647e-07)
(-4.87462e-18 -2.87987e-18 5.24404e-07)
(-9.24618e-18 4.57167e-18 5.10733e-07)
(2.48964e-18 8.82397e-18 4.97481e-07)
(4.94057e-18 -1.73795e-15 4.84785e-07)
(6.70527e-18 -7.47274e-18 4.72487e-07)
(-4.88736e-18 -2.72155e-18 4.60726e-07)
(-9.24087e-18 4.62937e-18 4.49346e-07)
(2.49718e-18 8.82017e-18 4.38489e-07)
(4.94435e-18 -1.73797e-15 4.27993e-07)
(6.70495e-18 -7.48557e-18 4.18005e-07)
(-4.89073e-18 -2.72962e-18 4.08363e-07)
(-9.24576e-18 4.62425e-18 3.99213e-07)
(2.49285e-18 8.81909e-18 3.90394e-07)
(4.94233e-18 -1.73796e-15 3.82054e-07)
(6.70538e-18 -7.47971e-18 3.74032e-07)
(-4.88951e-18 -2.72487e-18 3.66476e-07)
(-9.24576e-18 4.62662e-18 3.59224e-07)
(2.49074e-18 8.82038e-18 3.52428e-07)
(4.93905e-18 -1.73796e-15 3.45925e-07)
(6.70274e-18 -7.47736e-18 3.39868e-07)
(-4.89038e-18 -2.72366e-18 3.34095e-07)
(-9.24536e-18 4.62648e-18 3.28758e-07)
(2.49147e-18 8.81587e-18 3.23694e-07)
(4.93817e-18 -1.73795e-15 3.19056e-07)
(6.70742e-18 -7.53406e-18 3.14675e-07)
(-4.90788e-18 -2.46772e-18 3.10718e-07)
(-9.16686e-18 3.44766e-18 3.06951e-07)
(2.1904e-18 1.43443e-17 3.03878e-07)
(6.17609e-18 -1.72484e-15 2.99351e-07)
(-4.93641e-17 -5.17364e-18 -0.0274106)
(-1.94859e-16 -9.2593e-18 -0.0269219)
(-2.06014e-16 -9.30187e-18 -0.0261759)
(-2.52395e-16 -1.0983e-17 -0.0253095)
(-3.42658e-16 -1.55018e-17 -0.0252876)
(-3.36172e-16 -1.73469e-17 -0.027204)
(-4.5277e-16 -2.92032e-17 -0.0303623)
(-5.56207e-16 -3.91035e-17 -0.0317181)
(-2.99983e-17 1.72716e-15 -0.0282107)
(1.02937e-16 2.57666e-17 -0.0198269)
(-5.61106e-16 -2.34059e-18 -0.00986355)
(-8.75079e-16 1.72544e-15 -0.00243133)
(-6.83592e-16 2.55642e-17 0.000628808)
(-3.64958e-16 4.6931e-17 0.000198484)
(-7.13336e-17 6.28069e-17 -0.00158628)
(9.5612e-17 5.77009e-17 -0.00310858)
(1.52844e-16 3.31183e-17 -0.00386543)
(1.29425e-16 5.33331e-18 -0.00404625)
(1.32294e-16 -1.30916e-17 -0.00393478)
(1.15192e-16 -2.34676e-17 -0.00366507)
(6.32067e-17 -2.91552e-17 -0.0032737)
(1.48621e-17 -2.92264e-17 -0.00279648)
(-2.39089e-17 -2.24151e-17 -0.00229208)
(-5.99494e-17 -1.12066e-17 -0.00181767)
(-7.73029e-17 -4.76314e-19 -0.00140773)
(-5.92804e-17 5.6264e-18 -0.00107278)
(-4.35066e-17 6.47415e-18 -0.000808356)
(-2.70173e-17 6.42568e-18 -0.000603989)
(-2.372e-17 -1.13897e-18 -0.000448205)
(-2.69277e-17 -1.90524e-18 -0.000330608)
(-2.39441e-17 1.75165e-15 -0.000242465)
(-8.28775e-18 -1.72417e-15 -0.000176744)
(-2.38195e-18 -1.73958e-15 -0.000127929)
(-1.52652e-17 -6.43058e-18 -9.17771e-05)
(-1.81842e-17 -1.74908e-15 -6.50677e-05)
(-1.91162e-17 1.73678e-15 -4.53753e-05)
(-4.50908e-18 1.39052e-17 -3.08856e-05)
(4.2827e-18 -1.73166e-15 -2.02466e-05)
(-4.34245e-18 -5.29551e-18 -1.24542e-05)
(-4.56708e-18 -1.75038e-15 -6.76397e-06)
(-5.40084e-18 1.73555e-15 -2.62508e-06)
(6.21846e-18 1.40586e-17 3.69821e-07)
(1.04416e-17 -1.72993e-15 2.52164e-06)
(-2.3824e-18 -3.11784e-18 4.05261e-06)
(-5.34483e-18 -1.74908e-15 5.12678e-06)
(-7.04979e-18 1.7354e-15 5.86524e-06)
(4.86354e-18 1.34646e-17 6.35731e-06)
(9.89007e-18 -1.73262e-15 6.66885e-06)
(-2.94651e-18 5.02657e-18 6.84842e-06)
(-2.02997e-18 -1.73405e-15 6.93175e-06)
(3.25113e-17 -1.74104e-15 6.94517e-06)
(4.30637e-17 -9.57722e-20 6.90804e-06)
(1.91836e-17 -1.73453e-15 6.8346e-06)
(1.41726e-17 5.89135e-18 6.73534e-06)
(7.24115e-18 -1.73398e-15 6.61795e-06)
(2.76452e-17 -1.743e-15 6.48811e-06)
(3.35907e-17 -3.47186e-18 6.34998e-06)
(5.64891e-18 -1.73762e-15 6.20665e-06)
(-3.37287e-18 4.70347e-18 6.06035e-06)
(-1.27496e-17 -1.73304e-15 5.91276e-06)
(9.22486e-18 -1.74051e-15 5.7651e-06)
(1.47554e-17 -2.44196e-18 5.61827e-06)
(1.16261e-17 -1.72982e-15 5.47293e-06)
(2.59769e-17 4.98068e-18 5.32956e-06)
(8.75056e-19 -3.48512e-15 5.18851e-06)
(9.13501e-18 1.73033e-15 5.05004e-06)
(1.22891e-17 1.05523e-17 4.91434e-06)
(8.60554e-18 -1.72738e-15 4.78151e-06)
(2.18197e-17 4.51605e-18 4.65166e-06)
(-5.76978e-18 -3.48635e-15 4.52481e-06)
(-7.18859e-19 1.72955e-15 4.40099e-06)
(2.8756e-19 1.09398e-17 4.2802e-06)
(-2.94802e-18 -1.72616e-15 4.16243e-06)
(1.32585e-17 5.49748e-18 4.04766e-06)
(-1.03341e-17 -3.48641e-15 3.93584e-06)
(-2.02642e-18 1.72858e-15 3.82694e-06)
(6.85351e-19 9.79934e-18 3.72091e-06)
(-2.14959e-18 -1.72687e-15 3.61769e-06)
(1.38398e-17 5.30118e-18 3.51724e-06)
(-1.00612e-17 -3.48634e-15 3.41949e-06)
(-1.96423e-18 1.72867e-15 3.32438e-06)
(6.25876e-19 9.82195e-18 3.23184e-06)
(-2.27552e-18 -1.72688e-15 3.14184e-06)
(1.36945e-17 5.3049e-18 3.05427e-06)
(-1.01839e-17 -3.48631e-15 2.96911e-06)
(-2.03873e-18 1.7287e-15 2.88625e-06)
(5.70024e-19 9.81618e-18 2.80569e-06)
(-2.21139e-18 -1.72685e-15 2.72731e-06)
(1.33033e-17 5.09151e-18 2.65109e-06)
(-8.19627e-18 -3.48548e-15 2.57694e-06)
(-1.17728e-17 1.72543e-15 2.50484e-06)
(-8.19862e-18 3.99992e-19 2.43468e-06)
(-2.02631e-17 -3.93324e-18 2.36647e-06)
(-9.02934e-18 1.73636e-15 2.3001e-06)
(-5.57144e-18 2.7258e-19 2.23557e-06)
(-4.53447e-18 1.74064e-15 2.17277e-06)
(-9.6259e-19 2.46831e-18 2.11172e-06)
(-1.33267e-17 -4.10646e-18 2.05231e-06)
(-1.69229e-18 1.73722e-15 1.99456e-06)
(2.43314e-18 2.65379e-18 1.93836e-06)
(3.36944e-18 1.74313e-15 1.88374e-06)
(5.42218e-18 3.07434e-18 1.83058e-06)
(-9.50161e-18 -6.25215e-18 1.77892e-06)
(-3.71771e-19 1.73328e-15 1.72865e-06)
(2.2106e-18 -1.21771e-18 1.67981e-06)
(2.70453e-18 1.74069e-15 1.63228e-06)
(4.95657e-18 2.2392e-18 1.58613e-06)
(-9.65241e-18 -6.13366e-18 1.54121e-06)
(-3.49094e-19 1.73363e-15 1.4976e-06)
(2.2656e-18 -9.92388e-19 1.45518e-06)
(2.73918e-18 1.74076e-15 1.41401e-06)
(4.97544e-18 2.22736e-18 1.37395e-06)
(-9.63726e-18 -6.15361e-18 1.3351e-06)
(-3.37294e-19 1.73362e-15 1.29732e-06)
(2.26899e-18 -9.98332e-19 1.26068e-06)
(2.7412e-18 1.74074e-15 1.22506e-06)
(4.96584e-18 2.26902e-18 1.19054e-06)
(-9.54764e-18 -6.33364e-18 1.15699e-06)
(-6.56847e-19 1.73454e-15 1.1245e-06)
(4.08e-18 -5.37085e-18 1.09294e-06)
(-6.17574e-18 1.73299e-15 1.06239e-06)
(-7.6369e-18 1.74058e-15 1.03272e-06)
(-1.03072e-17 7.33984e-19 1.00403e-06)
(1.03893e-18 1.73591e-15 9.76175e-07)
(5.97101e-18 -5.2674e-18 9.49269e-07)
(-4.45696e-18 1.73325e-15 9.2316e-07)
(-5.75639e-18 1.74158e-15 8.97964e-07)
(-7.78066e-18 2.27083e-18 8.73529e-07)
(4.28654e-18 1.7371e-15 8.49974e-07)
(9.3811e-18 -5.26247e-18 8.27145e-07)
(-1.71391e-18 1.73201e-15 8.05165e-07)
(-4.18244e-18 1.73984e-15 7.8388e-07)
(-7.28091e-18 8.89542e-19 7.63415e-07)
(4.18685e-18 1.73645e-15 7.43613e-07)
(9.14369e-18 -5.33519e-18 7.24604e-07)
(-1.86e-18 1.73216e-15 7.0623e-07)
(-4.21594e-18 1.73997e-15 6.88623e-07)
(-7.26083e-18 9.37098e-19 6.71622e-07)
(4.21233e-18 1.73645e-15 6.55364e-07)
(9.15819e-18 -5.34888e-18 6.39687e-07)
(-1.85581e-18 1.73216e-15 6.24729e-07)
(-4.21894e-18 1.73997e-15 6.10329e-07)
(-7.26906e-18 9.32465e-19 5.96626e-07)
(4.20137e-18 1.73645e-15 5.83457e-07)
(9.14806e-18 -5.3477e-18 5.70965e-07)
(-1.86233e-18 1.73216e-15 5.58988e-07)
(-4.2217e-18 1.73997e-15 5.47668e-07)
(-7.27011e-18 9.36494e-19 5.36844e-07)
(4.20018e-18 1.73645e-15 5.26661e-07)
(9.14679e-18 -5.34557e-18 5.16956e-07)
(-1.86219e-18 1.73216e-15 5.07877e-07)
(-4.21946e-18 1.73997e-15 4.99263e-07)
(-7.26703e-18 9.35554e-19 4.91261e-07)
(4.20322e-18 1.73645e-15 4.83709e-07)
(9.14424e-18 -5.33727e-18 4.76753e-07)
(-1.84436e-18 1.73211e-15 4.70227e-07)
(-4.30456e-18 1.74019e-15 4.64297e-07)
(-6.84059e-18 -1.01475e-19 4.587e-07)
(2.09076e-18 1.7414e-15 4.54088e-07)
(1.98974e-17 7.89121e-18 4.47223e-07)
(-1.47898e-18 -2.96226e-20 -0.0455105)
(-2.25419e-17 -1.95554e-19 -0.0447027)
(-3.93671e-17 3.87738e-19 -0.0434652)
(-6.35205e-17 2.08153e-18 -0.0420132)
(-1.35504e-16 -1.43604e-17 -0.0419343)
(8.35915e-18 3.1507e-17 -0.0450653)
(-3.81709e-17 8.47619e-17 -0.0503069)
(-1.42956e-15 -2.30071e-16 -0.0526312)
(-9.54297e-16 -3.42486e-16 -0.0468821)
(2.72546e-15 2.66805e-16 -0.0328753)
(2.87497e-15 5.24233e-16 -0.0159168)
(2.49553e-16 1.20441e-16 -0.0028277)
(-1.39736e-15 -1.69321e-16 0.00321681)
(-1.51289e-15 -1.68471e-16 0.00347673)
(-8.08805e-16 -7.44435e-17 0.00136371)
(-1.27504e-16 -7.98614e-18 -0.000495004)
(2.02446e-16 9.64615e-18 -0.0012928)
(2.49835e-16 3.71732e-18 -0.00138086)
(1.83153e-16 -3.31124e-18 -0.00126017)
(1.03935e-16 -6.38806e-18 -0.0011447)
(4.36326e-17 -8.46659e-18 -0.00103649)
(4.66409e-18 -9.94356e-18 -0.000903187)
(-1.81791e-17 -8.67718e-18 -0.00074827)
(-2.9378e-17 -4.60462e-18 -0.000595084)
(-3.26399e-17 -3.31098e-19 -0.000461192)
(-3.02764e-17 1.86926e-18 -0.000352017)
(-2.45004e-17 1.82764e-18 -0.000265856)
(-1.75494e-17 1.1698e-18 -0.000198985)
(-1.08509e-17 1.95836e-19 -0.000147746)
(-5.86564e-18 -7.84138e-19 -0.000108926)
(-3.76932e-18 5.33002e-19 -7.97673e-05)
(-2.33393e-18 1.7481e-18 -5.79915e-05)
(-1.40134e-18 1.2214e-18 -4.17914e-05)
(-2.77168e-18 7.60489e-19 -2.97755e-05)
(-4.66267e-18 -4.41777e-19 -2.08872e-05)
(-6.21358e-18 -3.86239e-19 -1.43293e-05)
(-5.30147e-18 6.14998e-19 -9.50306e-06)
(-2.52399e-18 1.15056e-20 -5.96063e-06)
(-9.48946e-19 -1.26548e-18 -3.36848e-06)
(-3.31916e-19 -2.82229e-18 -1.47891e-06)
(-5.97406e-19 -1.82803e-18 -1.08272e-07)
(9.5359e-20 1.06968e-18 8.79353e-07)
(1.4321e-18 2.1506e-18 1.58453e-06)
(1.09711e-18 1.29995e-18 2.08161e-06)
(8.77036e-20 -1.14607e-18 2.42554e-06)
(-1.0826e-18 -1.5651e-18 2.65693e-06)
(-6.42517e-19 5.3298e-19 2.80575e-06)
(8.48206e-19 9.74502e-19 2.89412e-06)
(6.80124e-19 2.02514e-18 2.93837e-06)
(-3.06396e-19 -3.50281e-18 2.9505e-06)
(1.77409e-18 -7.10031e-18 2.93938e-06)
(5.63918e-18 1.73934e-15 2.91153e-06)
(8.12192e-18 7.56391e-18 2.87174e-06)
(9.73786e-18 2.67531e-18 2.82354e-06)
(9.26259e-18 -4.54125e-18 2.76952e-06)
(9.40381e-18 -8.90644e-18 2.7116e-06)
(9.55381e-18 1.73748e-15 2.65117e-06)
(7.19118e-18 6.52171e-18 2.58927e-06)
(4.00853e-18 2.91781e-18 2.52666e-06)
(1.0971e-19 -3.74834e-18 2.4639e-06)
(-8.06006e-19 -7.1234e-18 2.40141e-06)
(1.59143e-19 1.73325e-15 2.33949e-06)
(8.97693e-19 -5.68504e-19 2.27835e-06)
(2.21991e-18 1.74206e-15 2.21816e-06)
(1.91386e-18 1.99223e-18 2.15904e-06)
(2.85529e-18 -7.42287e-18 2.10106e-06)
(3.87126e-18 1.73313e-15 2.0443e-06)
(3.84161e-18 -2.53601e-19 1.98878e-06)
(3.93624e-18 1.74259e-15 1.93454e-06)
(1.90634e-18 2.69634e-18 1.88158e-06)
(8.08284e-19 -6.51066e-18 1.82991e-06)
(1.20831e-19 1.73412e-15 1.77952e-06)
(-5.54168e-19 4.00383e-19 1.7304e-06)
(1.44267e-19 1.74246e-15 1.68255e-06)
(-5.18906e-19 1.75013e-18 1.63594e-06)
(-2.3335e-19 -7.8145e-18 1.59056e-06)
(-1.06589e-20 1.73305e-15 1.54638e-06)
(-3.07861e-19 -1.38417e-19 1.50338e-06)
(4.36394e-19 1.74237e-15 1.46154e-06)
(-2.99366e-19 1.85378e-18 1.42083e-06)
(-9.47012e-20 -7.71343e-18 1.38123e-06)
(6.51704e-20 1.73309e-15 1.3427e-06)
(-2.75897e-19 -1.30212e-19 1.30523e-06)
(4.44917e-19 1.74239e-15 1.26878e-06)
(-2.97611e-19 1.87862e-18 1.23334e-06)
(-9.13752e-20 -7.68057e-18 1.19886e-06)
(5.77592e-20 1.73306e-15 1.16533e-06)
(-2.58324e-19 4.18109e-20 1.13272e-06)
(3.62299e-19 1.74144e-15 1.10101e-06)
(-9.2806e-21 6.40478e-18 1.07016e-06)
(-5.64728e-19 -1.4569e-18 1.04016e-06)
(-1.33242e-18 -2.38156e-18 1.01099e-06)
(-2.83098e-18 -2.0003e-18 9.82612e-07)
(-4.04457e-18 -1.41491e-18 9.55011e-07)
(-4.41502e-18 -1.95085e-18 9.28171e-07)
(-4.17408e-18 -2.05261e-18 9.02062e-07)
(-3.76573e-18 -1.46255e-18 8.76673e-07)
(-3.6314e-18 -8.73573e-19 8.51975e-07)
(-2.73698e-18 4.39098e-19 8.2796e-07)
(-9.53462e-19 1.14158e-18 8.04599e-07)
(6.94409e-19 1.69743e-18 7.81885e-07)
(1.15585e-18 1.47297e-18 7.59792e-07)
(8.17233e-20 7.42273e-20 7.38313e-07)
(-7.56467e-19 -5.45993e-19 7.17423e-07)
(-4.07135e-19 -6.93258e-19 6.97118e-07)
(4.98797e-19 1.68145e-19 6.77372e-07)
(8.07773e-19 7.49141e-19 6.58181e-07)
(-1.47789e-19 -7.43163e-21 6.39523e-07)
(-8.43923e-19 -3.82428e-19 6.21395e-07)
(-4.14471e-19 -5.55166e-19 6.03773e-07)
(5.23967e-19 2.14584e-19 5.86657e-07)
(8.46584e-19 7.44362e-19 5.70023e-07)
(-1.05694e-19 -1.86693e-20 5.53873e-07)
(-8.11194e-19 -3.86258e-19 5.38182e-07)
(-3.99538e-19 -5.54834e-19 5.22954e-07)
(5.26429e-19 2.10355e-19 5.08164e-07)
(8.46044e-19 7.53159e-19 4.93817e-07)
(-8.12322e-20 -5.36847e-20 4.79889e-07)
(-8.22679e-19 -2.75004e-19 4.66385e-07)
(-2.53781e-19 -7.16971e-19 4.53282e-07)
(3.40104e-19 -8.3142e-19 4.40584e-07)
(-5.57599e-20 -1.02319e-19 4.28271e-07)
(-1.10451e-18 -8.39369e-20 4.16346e-07)
(-1.71534e-18 -4.1562e-20 4.04789e-07)
(-9.80645e-19 -4.25983e-19 3.93604e-07)
(-1.91038e-19 -3.14255e-19 3.82773e-07)
(-2.44338e-19 8.65458e-19 3.72299e-07)
(-7.59417e-19 1.20507e-18 3.62163e-07)
(-8.15994e-19 1.01875e-18 3.52371e-07)
(2.07461e-19 -1.41898e-19 3.42903e-07)
(8.74849e-19 -8.73455e-19 3.33766e-07)
(4.11936e-19 -9.63748e-20 3.2494e-07)
(-5.33219e-19 3.87027e-19 3.16432e-07)
(-8.48457e-19 6.11676e-19 3.08222e-07)
(1.08413e-19 -2.0395e-19 3.00319e-07)
(8.13066e-19 -7.92919e-19 2.92703e-07)
(4.01672e-19 -2.11423e-20 2.85381e-07)
(-5.16487e-19 4.15227e-19 2.78336e-07)
(-8.27299e-19 6.10654e-19 2.71575e-07)
(1.24829e-19 -2.1092e-19 2.65079e-07)
(8.23845e-19 -7.97004e-19 2.58858e-07)
(4.07366e-19 -2.29961e-20 2.52893e-07)
(-5.1628e-19 4.14099e-19 2.47193e-07)
(-8.32879e-19 6.10534e-19 2.41739e-07)
(1.15283e-19 -2.09583e-19 2.36542e-07)
(8.14221e-19 -7.94835e-19 2.31583e-07)
(4.01445e-19 -2.09786e-20 2.26873e-07)
(-5.17345e-19 4.15679e-19 2.22393e-07)
(-8.30437e-19 6.11929e-19 2.18153e-07)
(1.19342e-19 -2.08385e-19 2.14138e-07)
(8.18822e-19 -7.94229e-19 2.10356e-07)
(4.05948e-19 -2.12375e-20 2.06793e-07)
(-5.13744e-19 4.15141e-19 2.03459e-07)
(-8.28442e-19 6.10236e-19 2.00337e-07)
(1.19245e-19 -2.05507e-19 1.97439e-07)
(8.19081e-19 -8.09665e-19 1.94745e-07)
(4.00621e-19 3.03903e-20 1.92276e-07)
(-4.97493e-19 2.50004e-19 1.89983e-07)
(-8.95107e-19 9.75286e-19 1.88031e-07)
(4.75986e-19 9.80736e-19 1.85057e-07)
(-5.92288e-17 6.83682e-18 -0.0633329)
(-1.91701e-16 9.68475e-18 -0.0622162)
(-1.91713e-16 1.11874e-17 -0.0605053)
(-1.4827e-16 3.70852e-17 -0.0585)
(5.10471e-18 -5.14417e-17 -0.058397)
(-3.04457e-15 -6.60132e-17 -0.0627262)
(6.97982e-15 6.89758e-16 -0.0699467)
(1.2248e-14 4.18959e-16 -0.0730971)
(-5.27263e-14 -3.5035e-16 -0.065069)
(-5.92227e-14 -1.88886e-15 -0.0456256)
(3.75814e-14 -4.99111e-16 -0.0220427)
(7.79321e-14 3.86161e-15 -0.00375864)
(4.72487e-14 9.06783e-16 0.00487822)
(9.82038e-15 -2.47347e-16 0.00552294)
(-6.08665e-15 -6.29884e-16 0.00285787)
(-5.45849e-15 -4.47925e-16 0.000516461)
(-1.03353e-15 -1.55552e-16 -0.000388156)
(1.09127e-15 1.49798e-17 -0.000369971)
(1.0445e-15 5.98583e-17 -0.000156027)
(4.00695e-16 4.62923e-17 -5.59769e-05)
(9.25618e-18 2.04804e-17 -5.68187e-05)
(-6.60039e-17 1.67945e-18 -7.76939e-05)
(-3.56279e-17 -5.39407e-18 -8.36821e-05)
(-1.15349e-17 -3.97619e-18 -7.70001e-05)
(-2.04672e-17 -2.71121e-20 -6.62516e-05)
(-3.09586e-17 1.5566e-18 -5.52527e-05)
(-1.90118e-17 1.1066e-19 -4.47887e-05)
(-1.24265e-17 -3.99031e-19 -3.52448e-05)
(-4.37918e-18 -6.98084e-18 -2.70614e-05)
(-7.86136e-18 -5.44605e-18 -2.04284e-05)
(-2.15509e-17 1.74989e-15 -1.52338e-05)
(-6.67919e-18 -1.72535e-15 -1.12287e-05)
(1.4524e-19 -1.73937e-15 -8.16506e-06)
(-9.80571e-18 -4.79992e-18 -5.8391e-06)
(-9.96448e-18 -1.74735e-15 -4.08799e-06)
(-1.25679e-17 1.7371e-15 -2.78e-06)
(-5.6162e-19 1.20604e-17 -1.80928e-06)
(4.78518e-18 -1.73384e-15 -1.09271e-06)
(-5.20309e-18 -6.39154e-18 -5.6639e-07)
(-5.75664e-18 -1.75056e-15 -1.81935e-07)
(-7.93502e-18 1.73533e-15 9.7047e-08)
(3.97429e-18 1.30438e-17 2.97797e-07)
(8.82071e-18 -1.73043e-15 4.40639e-07)
(-1.93608e-18 -2.44565e-18 5.40702e-07)
(-3.62117e-18 -1.74799e-15 6.09223e-07)
(-6.6873e-18 1.73577e-15 6.54535e-07)
(4.42775e-18 1.24992e-17 6.82808e-07)
(9.14909e-18 -1.73328e-15 6.98608e-07)
(-3.30474e-18 5.60387e-18 7.05305e-07)
(1.83922e-18 -1.7346e-15 7.0539e-07)
(2.45865e-17 -1.74401e-15 7.00695e-07)
(2.6128e-17 -3.26969e-18 6.92573e-07)
(2.35007e-17 -1.73658e-15 6.82017e-07)
(2.31531e-17 5.32101e-18 6.69761e-07)
(7.45236e-18 -1.73381e-15 6.56342e-07)
(1.37672e-17 -1.74315e-15 6.42159e-07)
(1.20137e-17 -2.36554e-18 6.275e-07)
(8.44081e-18 -1.73485e-15 6.12582e-07)
(7.70337e-18 8.24421e-18 5.97562e-07)
(-7.53745e-18 -1.73063e-15 5.82557e-07)
(3.97662e-19 -1.74054e-15 5.67652e-07)
(1.56186e-18 -3.29381e-18 5.52909e-07)
(1.51786e-18 -1.73085e-15 5.38374e-07)
(1.69946e-18 4.4726e-18 5.2408e-07)
(-1.00017e-18 -3.48543e-15 5.10053e-07)
(1.07515e-17 1.72935e-15 4.96307e-07)
(4.41727e-19 1.00591e-17 4.82856e-07)
(-1.68152e-18 -1.72741e-15 4.69706e-07)
(-1.25671e-18 5.48369e-18 4.56863e-07)
(-3.10902e-18 -3.48479e-15 4.44326e-07)
(9.45339e-18 1.73044e-15 4.32099e-07)
(-4.26854e-19 1.1621e-17 4.20177e-07)
(-2.51137e-18 -1.72617e-15 4.08561e-07)
(-2.17586e-18 5.47985e-18 3.97242e-07)
(-3.98294e-18 -3.48622e-15 3.86223e-07)
(8.81184e-18 1.72833e-15 3.75492e-07)
(-7.6798e-19 9.83659e-18 3.65049e-07)
(-2.61137e-18 -1.7271e-15 3.54884e-07)
(-2.13779e-18 5.29693e-18 3.44997e-07)
(-3.88881e-18 -3.48607e-15 3.35375e-07)
(8.91209e-18 1.72849e-15 3.26018e-07)
(-6.88349e-19 9.91255e-18 3.16913e-07)
(-2.5614e-18 -1.72707e-15 3.08062e-07)
(-2.11073e-18 5.31576e-18 2.99449e-07)
(-3.86909e-18 -3.48604e-15 2.91077e-07)
(8.94428e-18 1.72852e-15 2.8293e-07)
(-6.57604e-19 9.89965e-18 2.75013e-07)
(-2.43825e-18 -1.727e-15 2.67308e-07)
(-2.41733e-18 4.96699e-18 2.5982e-07)
(-2.04042e-18 -3.48502e-15 2.52532e-07)
(-2.09271e-19 1.72609e-15 2.4545e-07)
(-1.17389e-17 1.53312e-18 2.38556e-07)
(-1.26845e-17 -2.57717e-18 2.31858e-07)
(-1.44721e-17 1.73715e-15 2.25337e-07)
(-3.09203e-18 3.37335e-19 2.19002e-07)
(1.14996e-18 1.74032e-15 2.12833e-07)
(-9.50563e-18 2.19697e-18 2.06841e-07)
(-9.42494e-18 -4.62084e-18 2.01005e-07)
(-9.69809e-18 1.73588e-15 1.95338e-07)
(3.32924e-18 9.38097e-19 1.89818e-07)
(8.59063e-18 1.74208e-15 1.84459e-07)
(-2.32896e-18 3.38068e-18 1.79238e-07)
(-3.83547e-18 -5.296e-18 1.74171e-07)
(-6.36651e-18 1.73352e-15 1.69234e-07)
(4.6291e-18 -1.84535e-18 1.64444e-07)
(8.65494e-18 1.74009e-15 1.59777e-07)
(-2.68654e-18 2.56249e-18 1.55251e-07)
(-4.13845e-18 -5.30781e-18 1.50841e-07)
(-6.49259e-18 1.73376e-15 1.46565e-07)
(4.62043e-18 -1.67633e-18 1.424e-07)
(8.68283e-18 1.74013e-15 1.38363e-07)
(-2.66169e-18 2.54219e-18 1.34431e-07)
(-4.12358e-18 -5.32472e-18 1.30623e-07)
(-6.48584e-18 1.73376e-15 1.26914e-07)
(4.61966e-18 -1.66714e-18 1.23323e-07)
(8.67577e-18 1.74012e-15 1.19826e-07)
(-2.67066e-18 2.57285e-18 1.16444e-07)
(-4.12893e-18 -5.49928e-18 1.13151e-07)
(-6.48468e-18 1.73462e-15 1.09968e-07)
(4.62684e-18 -5.95224e-18 1.06869e-07)
(8.68545e-18 1.73289e-15 1.03876e-07)
(-2.66463e-18 1.74131e-15 1.00964e-07)
(-4.13241e-18 1.56377e-18 9.81537e-08)
(-6.501e-18 1.73585e-15 9.54197e-08)
(4.5982e-18 -6.02955e-18 9.27847e-08)
(8.65075e-18 1.73288e-15 9.02218e-08)
(-2.69318e-18 1.74186e-15 8.77547e-08)
(-4.14222e-18 2.55665e-18 8.5356e-08)
(-6.48796e-18 1.73662e-15 8.305e-08)
(4.62582e-18 -6.10789e-18 8.0809e-08)
(8.67797e-18 1.73191e-15 7.86576e-08)
(-2.6777e-18 1.74055e-15 7.65679e-08)
(-4.14044e-18 1.51974e-18 7.45651e-08)
(-6.49446e-18 1.73613e-15 7.2621e-08)
(4.61767e-18 -6.16595e-18 7.07612e-08)
(8.67187e-18 1.73202e-15 6.8957e-08)
(-2.68093e-18 1.74064e-15 6.72346e-08)
(-4.14112e-18 1.55158e-18 6.55653e-08)
(-6.49299e-18 1.73613e-15 6.39752e-08)
(4.62084e-18 -6.17445e-18 6.24356e-08)
(8.67625e-18 1.73201e-15 6.09729e-08)
(-2.67595e-18 1.74064e-15 5.95584e-08)
(-4.13659e-18 1.55259e-18 5.82188e-08)
(-6.49023e-18 1.73613e-15 5.6925e-08)
(4.62101e-18 -6.17125e-18 5.57041e-08)
(8.67428e-18 1.73202e-15 5.4527e-08)
(-2.67846e-18 1.74064e-15 5.34209e-08)
(-4.13796e-18 1.55243e-18 5.23568e-08)
(-6.48956e-18 1.73613e-15 5.1362e-08)
(4.62369e-18 -6.1702e-18 5.04075e-08)
(8.67822e-18 1.73202e-15 4.95209e-08)
(-2.67459e-18 1.74064e-15 4.86733e-08)
(-4.13559e-18 1.55275e-18 4.78925e-08)
(-6.49053e-18 1.73613e-15 4.71494e-08)
(4.62354e-18 -6.16103e-18 4.64713e-08)
(8.66035e-18 1.73197e-15 4.58264e-08)
(-2.60684e-18 1.74085e-15 4.52468e-08)
(-4.49047e-18 5.46389e-19 4.47007e-08)
(-4.72189e-18 1.74091e-15 4.42164e-08)
(-4.18766e-18 7.20566e-18 4.3385e-08)
(5.56371e-17 1.86016e-15 -0.0807126)
(3.03125e-16 1.80077e-15 -0.0793016)
(-1.1185e-16 -2.1328e-17 -0.077139)
(5.22683e-16 1.6384e-15 -0.0746114)
(4.73812e-15 3.16852e-15 -0.0744972)
(-2.14426e-14 -1.72113e-15 -0.0799666)
(1.6621e-14 -7.56152e-15 -0.0890223)
(1.3868e-13 2.96365e-14 -0.0928563)
(-1.42822e-13 3.53929e-14 -0.0825577)
(-4.78559e-13 -4.66489e-14 -0.0579071)
(-4.28308e-14 -6.80464e-14 -0.0279911)
(4.37483e-13 -4.69965e-15 -0.0047916)
(4.41676e-13 3.38798e-14 0.00626352)
(2.02766e-13 2.64992e-14 0.0071647)
(6.89116e-15 7.56499e-15 0.00383574)
(-5.15169e-14 -7.9982e-16 0.000900415)
(-3.15836e-14 -1.53051e-15 -0.000210343)
(-5.04002e-15 -1.0353e-15 -0.000156775)
(4.22319e-15 2.0767e-15 0.000122651)
(3.07599e-15 2.24596e-15 0.000230401)
(7.16686e-16 2.24883e-16 0.000190878)
(-1.3794e-16 1.24985e-17 0.000118822)
(-1.22162e-16 -3.59116e-17 6.76122e-05)
(-5.55743e-18 -1.2185e-17 3.86016e-05)
(2.54649e-17 9.38074e-18 2.15933e-05)
(1.84572e-17 -1.73358e-15 1.09847e-05)
(1.07659e-17 -7.43842e-18 4.75012e-06)
(8.30304e-18 -6.14653e-18 1.51975e-06)
(1.55009e-17 -2.08673e-18 1.55962e-08)
(1.14022e-17 6.95468e-18 -6.35358e-07)
(1.73028e-17 -1.73436e-15 -8.67082e-07)
(2.95751e-17 -1.74255e-15 -8.73193e-07)
(1.3277e-17 2.36115e-18 -7.61781e-07)
(2.27697e-17 -1.72923e-15 -6.06085e-07)
(1.46211e-17 -1.73389e-15 -4.50436e-07)
(-1.55831e-18 -1.73992e-15 -3.14874e-07)
(5.75312e-18 -1.74263e-15 -2.04526e-07)
(1.92489e-18 2.33224e-18 -1.17893e-07)
(1.20051e-17 -1.73074e-15 -5.14312e-08)
(2.7658e-18 -1.73621e-15 -1.36157e-09)
(-1.30473e-17 -1.74144e-15 3.57444e-08)
(-3.12009e-18 -1.74199e-15 6.28024e-08)
(-2.94994e-18 5.10579e-18 8.21867e-08)
(1.09326e-17 -1.72721e-15 9.5776e-08)
(4.17555e-18 -1.7335e-15 1.05022e-07)
(-1.0794e-17 -1.74032e-15 1.11037e-07)
(-1.5046e-18 -1.7421e-15 1.14658e-07)
(-1.73702e-18 4.84075e-18 1.16516e-07)
(8.69726e-18 -1.72905e-15 1.17083e-07)
(1.62038e-17 -1.75217e-15 1.1671e-07)
(-1.85286e-17 -1.92463e-17 1.15656e-07)
(-2.74031e-17 3.47461e-15 1.14115e-07)
(-1.45542e-17 9.05133e-18 1.1223e-07)
(-1.30823e-17 1.74542e-15 1.10106e-07)
(3.98929e-18 1.51914e-19 1.0782e-07)
(-1.58941e-17 -1.11875e-17 1.0543e-07)
(-2.11513e-17 3.47486e-15 1.02978e-07)
(-6.52069e-18 8.67689e-18 1.00495e-07)
(-3.27516e-18 1.74563e-15 9.80045e-08)
(1.52413e-17 -9.54293e-20 9.5523e-08)
(-5.08208e-18 -1.16731e-17 9.30624e-08)
(-9.57733e-18 3.46741e-15 9.06327e-08)
(-9.3949e-18 -6.37305e-19 8.82398e-08)
(-9.88326e-18 3.47804e-15 8.58889e-08)
(-3.38373e-18 -2.53382e-18 8.35833e-08)
(-2.83455e-17 1.72658e-15 8.13253e-08)
(-8.67107e-18 3.47407e-15 7.91171e-08)
(-3.47295e-18 5.95618e-19 7.69584e-08)
(-3.08044e-18 3.47803e-15 7.48516e-08)
(4.02971e-18 -2.65872e-18 7.27949e-08)
(-1.98859e-17 1.72687e-15 7.07902e-08)
(6.47757e-19 3.47483e-15 6.88349e-08)
(5.55147e-18 1.27489e-18 6.69314e-08)
(4.12677e-18 3.47792e-15 6.50756e-08)
(8.48453e-18 -3.74372e-18 6.32707e-08)
(-1.80348e-17 1.7253e-15 6.15114e-08)
(8.40278e-19 3.47349e-15 5.98016e-08)
(5.13999e-18 5.46486e-19 5.81352e-08)
(3.76407e-18 3.47774e-15 5.65169e-08)
(8.34284e-18 -3.67116e-18 5.49394e-08)
(-1.80465e-17 1.72541e-15 5.34083e-08)
(8.38811e-19 3.47355e-15 5.19156e-08)
(5.1039e-18 5.80981e-19 5.04676e-08)
(3.7125e-18 3.47776e-15 4.90552e-08)
(8.31089e-18 -3.6489e-18 4.76862e-08)
(-1.80399e-17 1.72544e-15 4.63501e-08)
(8.88697e-19 3.47347e-15 4.50557e-08)
(5.14514e-18 9.21673e-19 4.37916e-08)
(3.88105e-18 3.47597e-15 4.25678e-08)
(7.8904e-18 5.30075e-18 4.13719e-08)
(-1.59554e-17 1.73812e-15 4.02148e-08)
(-7.83283e-18 3.85603e-18 3.90833e-08)
(-1.92698e-18 -6.33669e-19 3.79894e-08)
(-1.08996e-17 -6.21112e-18 3.69185e-08)
(-1.06099e-17 -9.7619e-18 3.5884e-08)
(-1.10799e-17 1.73588e-15 3.48707e-08)
(6.13864e-19 3.8249e-18 3.38925e-08)
(5.56247e-18 -7.77344e-19 3.29334e-08)
(-5.0344e-18 -5.93799e-18 3.20085e-08)
(-5.94552e-18 -8.00279e-18 3.11008e-08)
(-6.95987e-18 1.73925e-15 3.02265e-08)
(4.54607e-18 7.68602e-18 2.93674e-08)
(9.12448e-18 2.093e-18 2.85411e-08)
(-2.32899e-18 -4.77828e-18 2.77283e-08)
(-4.40479e-18 -8.20398e-18 2.69475e-08)
(-6.44503e-18 1.73855e-15 2.61787e-08)
(4.484e-18 7.14584e-18 2.54411e-08)
(8.92125e-18 1.89559e-18 2.47141e-08)
(-2.45252e-18 -4.76187e-18 2.40178e-08)
(-4.42835e-18 -8.14288e-18 2.33308e-08)
(-6.4289e-18 1.73858e-15 2.26736e-08)
(4.49269e-18 7.14757e-18 2.20244e-08)
(8.91232e-18 1.8934e-18 2.14047e-08)
(-2.47097e-18 -4.75788e-18 2.07919e-08)
(-4.45126e-18 -8.13564e-18 2.02081e-08)
(-6.45978e-18 1.73858e-15 1.96298e-08)