/*--------------------------------*- C++ -*----------------------------------*\
  =========                 |
  \\      /  F ield         | OpenFOAM: The Open Source CFD Toolbox
   \\    /   O peration     | Website:  https://openfoam.org
    \\  /    A nd           | Version:  11
     \\/     M anipulation  |
\*---------------------------------------------------------------------------*/
FoamFile
{
    format      ascii;
    class       volVectorField;
    location    "17.136816";
    object      vorticity;
}
// * * * * * * * * * * * * * * * * * * * * * * * * * * * * * * * * * * * * * //

dimensions      [0 0 -1 0 0 0 0];

internalField   nonuniform List<vector> 
7132
(
(-5.89598e-17 -1.86781e-15 -0.0104901)
(-1.98441e-16 -1.82062e-15 -0.0100292)
(-2.08887e-16 -4.25011e-17 -0.00950595)
(-2.59744e-16 -1.81755e-15 -0.0090427)
(-3.46301e-16 -1.80875e-15 -0.00872765)
(-3.65376e-16 -3.05436e-17 -0.00861802)
(-3.65596e-16 -1.11625e-17 -0.00873783)
(-3.41424e-16 2.57567e-18 -0.00907256)
(-3.14347e-16 1.82016e-17 -0.00956848)
(-3.09478e-16 3.3015e-17 -0.0101416)
(-2.78369e-16 3.96496e-17 -0.0106797)
(-1.74417e-16 3.76882e-17 -0.0110948)
(-1.38395e-16 3.49111e-17 -0.0113028)
(-1.6381e-16 6.26414e-17 -0.0112717)
(-2.15536e-16 -1.65255e-15 -0.0110184)
(-2.88727e-16 -1.67533e-15 -0.0106143)
(-2.78631e-16 -1.71305e-15 -0.01018)
(-1.99811e-16 2.15603e-18 -0.00986758)
(-8.10739e-17 -1.74586e-15 -0.00979963)
(-1.54933e-17 -3.50434e-15 -0.0100039)
(-1.99839e-18 -3.55327e-17 -0.0104125)
(-1.26494e-17 -1.77292e-17 -0.010898)
(-6.90043e-17 -3.30067e-17 -0.0113139)
(1.0703e-16 -1.00462e-16 -0.0115198)
(5.97094e-16 1.99368e-15 -0.0113989)
(-2.68636e-15 1.98828e-15 -0.0108869)
(-1.22456e-14 -2.86669e-15 -0.0100446)
(4.47295e-14 -3.94085e-14 -0.00911872)
(3.55226e-13 -9.23447e-14 -0.00836948)
(8.76722e-13 -7.30537e-14 -0.00791822)
(1.12009e-12 2.35965e-14 -0.00779429)
(7.81039e-13 8.69276e-14 -0.00808721)
(2.86264e-13 6.97424e-14 -0.00893256)
(2.85486e-14 3.3999e-14 -0.0102445)
(-5.23342e-14 4.32771e-15 -0.0116578)
(4.87836e-14 -3.53652e-14 -0.0127911)
(3.82434e-13 5.4918e-15 -0.0133903)
(-2.1964e-13 4.13409e-13 -0.0133366)
(-5.08547e-12 7.91471e-13 -0.0126334)
(-1.05148e-11 -2.1844e-12 -0.0114386)
(2.88274e-11 -1.46644e-11 -0.0101864)
(2.30758e-10 -3.67297e-11 -0.00957582)
(6.70006e-10 -5.10387e-11 -0.00997222)
(1.15464e-09 -3.56182e-11 -0.010869)
(1.31126e-09 4.34451e-12 -0.0113412)
(1.02042e-09 3.82084e-11 -0.0111886)
(5.49365e-10 4.60505e-11 -0.0111683)
(1.9585e-10 3.35572e-11 -0.0118942)
(2.28469e-11 1.63884e-11 -0.0131209)
(-2.84672e-11 4.00238e-12 -0.0142499)
(-1.78927e-11 -3.60039e-12 -0.0148066)
(3.17011e-11 -5.54636e-12 -0.014607)
(6.61052e-11 1.57188e-11 -0.0136832)
(-1.87036e-10 8.97986e-11 -0.0120339)
(-1.37217e-09 2.24216e-10 -0.00946603)
(-4.29234e-09 3.77147e-10 -0.00574597)
(-9.02349e-09 4.59946e-10 -0.00105495)
(-1.39655e-08 3.88733e-10 0.00331619)
(-1.65006e-08 1.59245e-10 0.00537053)
(-1.52018e-08 -1.46402e-10 0.00393406)
(-1.10346e-08 -4.09574e-10 -0.000542263)
(-6.21277e-09 -5.07281e-10 -0.00646187)
(-2.48e-09 -4.16227e-10 -0.0118168)
(-4.01987e-10 -2.53791e-10 -0.0152501)
(3.84989e-10 -1.0184e-10 -0.0164998)
(4.43654e-10 1.52875e-10 -0.01591)
(-1.46297e-10 7.80552e-10 -0.013689)
(-2.0699e-09 1.97603e-09 -0.00956772)
(-6.44856e-09 3.60301e-09 -0.00312795)
(-1.3924e-08 5.11771e-09 0.00552019)
(-2.36409e-08 5.75033e-09 0.0154687)
(-3.30611e-08 4.90613e-09 0.0251889)
(-3.89759e-08 2.56843e-09 0.0327234)
(-3.91268e-08 -6.16224e-10 0.0358709)
(-3.34754e-08 -3.65129e-09 0.032897)
(-2.4229e-08 -5.64092e-09 0.0238027)
(-1.44343e-08 -6.09835e-09 0.0109487)
(-6.50716e-09 -5.07375e-09 -0.00189343)
(-1.5332e-09 -3.05652e-09 -0.0112878)
(5.63137e-10 -6.27909e-10 -0.0155109)
(3.00323e-10 1.84543e-09 -0.0148616)
(-1.94553e-09 4.19466e-09 -0.011005)
(-5.96573e-09 6.22208e-09 -0.00597793)
(-1.13217e-08 7.58038e-09 -0.00131779)
(-1.70754e-08 7.8801e-09 0.0026972)
(-2.2019e-08 6.88965e-09 0.00703571)
(-2.51156e-08 4.65077e-09 0.0127218)
(-2.57427e-08 1.46294e-09 0.0193397)
(-2.37677e-08 -2.19542e-09 0.024622)
(-1.96255e-08 -5.72206e-09 0.0257481)
(-1.42545e-08 -8.35549e-09 0.0213783)
(-8.80744e-09 -9.25965e-09 0.0125136)
(-4.2933e-09 -7.96842e-09 0.00199268)
(-1.33057e-09 -4.83606e-09 -0.00697048)
(-1.10358e-10 -9.51192e-10 -0.0124869)
(-4.88512e-10 2.47992e-09 -0.014773)
(-2.0795e-09 4.73086e-09 -0.0154975)
(-4.31824e-09 5.6874e-09 -0.0162383)
(-6.5664e-09 5.60198e-09 -0.0170685)
(-8.29705e-09 4.80572e-09 -0.0165731)
(-9.23305e-09 3.55258e-09 -0.013219)
(-9.3373e-09 1.97741e-09 -0.00679708)
(-8.71144e-09 1.15006e-10 0.00112563)
(-7.52076e-09 -2.01534e-09 0.00799849)
(-5.96877e-09 -4.2204e-09 0.011681)
(-4.2818e-09 -5.98326e-09 0.0111973)
(-2.68749e-09 -6.63234e-09 0.00694392)
(-1.38394e-09 -5.80756e-09 0.000361141)
(-5.02839e-10 -3.80921e-09 -0.00693776)
(-7.99328e-11 -1.44883e-09 -0.0139714)
(-4.97652e-11 4.72794e-10 -0.0205119)
(-2.73411e-10 1.573e-09 -0.0264565)
(-5.92065e-10 1.90715e-09 -0.0310134)
(-8.82363e-10 1.74078e-09 -0.0327853)
(-1.08097e-09 1.33268e-09 -0.0307045)
(-1.17233e-09 8.40389e-10 -0.024878)
(-1.16385e-09 3.19504e-10 -0.016692)
(-1.07167e-09 -2.35331e-10 -0.00815169)
(-9.17057e-10 -8.26274e-10 -0.00102874)
(-7.24238e-10 -1.39269e-09 0.00340074)
(-5.17259e-10 -1.80864e-09 0.00442611)
(-3.15007e-10 -1.95407e-09 0.00190297)
(-1.24597e-10 -1.80599e-09 -0.00387333)
(6.15259e-11 -1.46274e-09 -0.0122932)
(2.58583e-10 -1.07688e-09 -0.0224318)
(4.73369e-10 -7.63058e-10 -0.0328973)
(6.91186e-10 -5.57058e-10 -0.041729)
(8.76972e-10 -4.36286e-10 -0.0468956)
(9.90721e-10 -3.61025e-10 -0.0471717)
(1.00721e-09 -2.99367e-10 -0.0426893)
(9.27931e-10 -2.2783e-10 -0.0347948)
(7.78958e-10 -1.21467e-10 -0.0253309)
(5.97545e-10 4.5143e-11 -0.0159182)
(4.18855e-10 2.75598e-10 -0.00787696)
(2.67852e-10 5.24597e-10 -0.00233631)
(1.58247e-10 7.01252e-10 -0.000286308)
(9.58176e-11 7.18078e-10 -0.0024754)
(8.13823e-11 5.50852e-10 -0.00913197)
(1.11128e-10 2.55426e-10 -0.0196558)
(1.75393e-10 -7.08381e-11 -0.0324176)
(2.58329e-10 -3.44218e-10 -0.0448725)
(3.40686e-10 -5.24355e-10 -0.0542944)
(4.0478e-10 -6.10484e-10 -0.0587715)
(4.39013e-10 -6.21459e-10 -0.0578326)
(4.40123e-10 -5.75918e-10 -0.0523854)
(4.12569e-10 -4.79138e-10 -0.0440623)
(3.65071e-10 -3.20998e-10 -0.0344004)
(3.06745e-10 -8.94869e-11 -0.0246062)
(2.4472e-10 2.04172e-10 -0.0156785)
(1.84291e-10 5.07775e-10 -0.00861379)
(1.30675e-10 7.40276e-10 -0.00452621)
(8.98133e-11 8.32792e-10 -0.00451138)
(6.69015e-11 7.67412e-10 -0.00926991)
(6.40215e-11 5.82707e-10 -0.0185935)
(7.84009e-11 3.45642e-10 -0.0309872)
(1.02912e-10 1.18286e-10 -0.0440023)
(1.28874e-10 -7.03556e-11 -0.0546491)
(1.47658e-10 -1.79881e-10 -0.0622351)
(1.58415e-10 -3.56354e-10 -0.0591256)
(1.46749e-10 -2.53659e-10 -0.0572792)
(-5.91829e-17 -5.44645e-18 -0.0314335)
(-2.06806e-16 -1.07258e-17 -0.030043)
(-2.30886e-16 -1.26964e-17 -0.0284431)
(-2.91812e-16 -1.58155e-17 -0.0269936)
(-3.9773e-16 -1.95207e-17 -0.025962)
(-4.44075e-16 -1.92017e-17 -0.025534)
(-4.58332e-16 -2.31382e-17 -0.0258072)
(-4.64922e-16 -2.30492e-17 -0.0267704)
(-4.8481e-16 1.73695e-15 -0.0282988)
(-4.8112e-16 1.50261e-17 -0.0301736)
(-3.04261e-16 -2.78808e-17 -0.032076)
(-1.41845e-16 1.70242e-15 -0.0337483)
(-3.75462e-16 2.96073e-17 -0.0349108)
(-1.01548e-15 1.00788e-16 -0.035411)
(-1.56724e-15 1.43785e-16 -0.0351954)
(-1.53379e-15 9.09428e-17 -0.0343298)
(-8.00075e-16 -2.19423e-17 -0.0329849)
(5.77008e-17 -9.53519e-17 -0.0314146)
(5.08651e-16 -9.99048e-17 -0.0299114)
(5.28523e-16 -7.5273e-17 -0.0287205)
(3.522e-16 -4.03428e-17 -0.0279983)
(-9.89172e-18 1.57737e-17 -0.0277971)
(3.60923e-16 -9.28465e-17 -0.0280663)
(1.38777e-15 -4.36899e-16 -0.0286703)
(-1.41277e-14 1.65565e-15 -0.0294345)
(2.70485e-17 8.41301e-15 -0.030223)
(3.41563e-13 -2.65746e-14 -0.0310333)
(-2.45343e-13 -2.23144e-13 -0.0319868)
(-7.79495e-12 -5.08334e-13 -0.0330023)
(-2.1242e-11 -4.57219e-13 -0.0336533)
(-2.47313e-11 7.14314e-14 -0.0334788)
(-1.47795e-11 5.0037e-13 -0.0324651)
(-4.54952e-12 4.44252e-13 -0.031119)
(-3.71568e-13 2.0156e-13 -0.0299819)
(2.68599e-13 -9.26175e-15 -0.0292928)
(6.67937e-13 -2.52749e-13 -0.0290251)
(1.61981e-12 1.37972e-13 -0.0289991)
(-2.96881e-12 3.14563e-12 -0.0290292)
(-2.23531e-11 5.93731e-12 -0.0291299)
(-2.43349e-11 -1.91443e-11 -0.0297315)
(1.56307e-10 -1.35301e-10 -0.0317818)
(7.85947e-10 -3.57321e-10 -0.0362886)
(1.8661e-09 -5.12982e-10 -0.0428254)
(2.96017e-09 -3.5625e-10 -0.0488319)
(3.43757e-09 7.14535e-11 -0.0510701)
(2.91764e-09 4.19158e-10 -0.0482994)
(1.76021e-09 4.58331e-10 -0.0425468)
(7.41823e-10 2.96814e-10 -0.0370103)
(1.45237e-10 1.28545e-10 -0.0332141)
(-8.64374e-11 2.43687e-11 -0.0311759)
(-5.9932e-11 -3.36863e-11 -0.0302931)
(1.70002e-10 -4.75435e-11 -0.0300509)
(2.76672e-10 1.25086e-10 -0.0300632)
(-1.22227e-09 8.08937e-10 -0.0291041)
(-7.56295e-09 2.27687e-09 -0.0241262)
(-2.2236e-08 4.20281e-09 -0.0114854)
(-4.47253e-08 5.29653e-09 0.00891302)
(-6.74673e-08 4.12726e-09 0.0305265)
(-7.92634e-08 7.77384e-10 0.043062)
(-7.3649e-08 -2.8794e-09 0.0397735)
(-5.41933e-08 -4.90409e-09 0.0225277)
(-3.10301e-08 -4.78455e-09 -0.000162314)
(-1.27246e-08 -3.32162e-09 -0.0194965)
(-2.32608e-09 -1.68629e-09 -0.0309161)
(1.65193e-09 -5.24663e-10 -0.0347226)
(1.9198e-09 4.1852e-10 -0.0334503)
(-5.64929e-10 2.03733e-09 -0.0288005)
(-7.47952e-09 5.12716e-09 -0.0206334)
(-2.14449e-08 9.53007e-09 -0.00814579)
(-4.28641e-08 1.37139e-08 0.0085246)
(-6.80787e-08 1.53189e-08 0.0284451)
(-9.08442e-08 1.25736e-08 0.0508904)
(-1.05103e-07 5.60127e-09 0.0738223)
(-1.06619e-07 -3.36646e-09 0.0912514)
(-9.42305e-08 -1.11002e-08 0.0947172)
(-7.12406e-08 -1.51614e-08 0.0794824)
(-4.45505e-08 -1.49593e-08 0.0492236)
(-2.12945e-08 -1.15243e-08 0.0143215)
(-5.78039e-09 -6.59167e-09 -0.01404)
(1.16459e-09 -1.54467e-09 -0.0294642)
(6.61291e-10 3.09977e-09 -0.0324629)
(-5.83853e-09 7.32769e-09 -0.0287005)
(-1.67779e-08 1.09102e-08 -0.0248704)
(-2.98638e-08 1.31352e-08 -0.0243182)
(-4.21978e-08 1.32287e-08 -0.0244701)
(-5.15004e-08 1.09098e-08 -0.018657)
(-5.68874e-08 6.51262e-09 -0.00185798)
(-5.82567e-08 7.89013e-10 0.024304)
(-5.53381e-08 -5.25402e-09 0.0512276)
(-4.78674e-08 -1.04787e-08 0.067847)
(-3.66558e-08 -1.37645e-08 0.0671407)
(-2.38966e-08 -1.42402e-08 0.0496921)
(-1.23599e-08 -1.17069e-08 0.0228181)
(-4.30181e-09 -6.92753e-09 -0.00401243)
(-7.93415e-10 -1.37222e-09 -0.0248937)
(-1.62124e-09 3.46449e-09 -0.0400808)
(-5.53432e-09 6.64573e-09 -0.053392)
(-1.07016e-08 7.93084e-09 -0.0668266)
(-1.53774e-08 7.59138e-09 -0.0772321)
(-1.85297e-08 6.13906e-09 -0.0783556)
(-2.00007e-08 4.07271e-09 -0.0659334)
(-2.01229e-08 1.7166e-09 -0.0410544)
(-1.91925e-08 -7.9326e-10 -0.00993684)
(-1.72711e-08 -3.38668e-09 0.0187866)
(-1.44039e-08 -5.83988e-09 0.0376387)
(-1.08467e-08 -7.6239e-09 0.0425512)
(-7.1095e-09 -8.08127e-09 0.0337409)
(-3.82222e-09 -6.89988e-09 0.0147937)
(-1.49374e-09 -4.46121e-09 -0.00989275)
(-3.10703e-10 -1.67537e-09 -0.0372427)
(-9.57013e-11 5.69535e-10 -0.0652595)
(-4.44455e-10 1.84416e-09 -0.0909642)
(-9.53538e-10 2.21162e-09 -0.109249)
(-1.38895e-09 1.98523e-09 -0.114796)
(-1.70198e-09 1.47766e-09 -0.105284)
(-1.92774e-09 8.81831e-10 -0.0828227)
(-2.07797e-09 2.69177e-10 -0.0529114)
(-2.11315e-09 -3.58728e-10 -0.0221815)
(-1.99071e-09 -9.99985e-10 0.00360701)
(-1.70373e-09 -1.59259e-09 0.0202093)
(-1.28991e-09 -2.01325e-09 0.0250844)
(-8.10313e-10 -2.1504e-09 0.0173488)
(-3.10149e-10 -1.99426e-09 -0.00247585)
(2.06155e-10 -1.65433e-09 -0.0324488)
(7.60333e-10 -1.2828e-09 -0.0686585)
(1.35596e-09 -9.79358e-10 -0.104782)
(1.94601e-09 -7.58858e-10 -0.133006)
(2.4406e-09 -5.86054e-10 -0.146804)
(2.74475e-09 -4.2614e-10 -0.14366)
(2.79854e-09 -2.67969e-10 -0.125676)
(2.60076e-09 -1.13703e-10 -0.0980107)
(2.20805e-09 4.37275e-11 -0.0665441)
(1.71133e-09 2.25194e-10 -0.0362523)
(1.20539e-09 4.40447e-10 -0.0111314)
(7.65599e-10 6.54903e-10 0.00537414)
(4.40504e-10 7.87271e-10 0.0101247)
(2.55178e-10 7.56512e-10 0.000700052)
(2.14526e-10 5.43197e-10 -0.0233965)
(3.02693e-10 2.08422e-10 -0.0593162)
(4.83236e-10 -1.44435e-10 -0.100346)
(7.05386e-10 -4.26862e-10 -0.137352)
(9.16714e-10 -5.97579e-10 -0.162067)
(1.07605e-09 -6.59648e-10 -0.170168)
(1.1606e-09 -6.39129e-10 -0.162166)
(1.166e-09 -5.62694e-10 -0.142049)
(1.10199e-09 -4.4161e-10 -0.114963)
(9.86102e-10 -2.68084e-10 -0.0853494)
(8.36772e-10 -2.93114e-11 -0.0565563)
(6.6947e-10 2.65401e-10 -0.0313316)
(4.98858e-10 5.64799e-10 -0.0125824)
(3.43388e-10 7.87517e-10 -0.00374063)
(2.25104e-10 8.64681e-10 -0.00810789)
(1.6222e-10 7.80308e-10 -0.027217)
(1.60249e-10 5.76959e-10 -0.0589993)
(2.08367e-10 3.26198e-10 -0.0971866)
(2.83554e-10 9.30508e-11 -0.133303)
(3.60105e-10 -9.27273e-11 -0.158722)
(4.1425e-10 -1.94651e-10 -0.173261)
(4.44535e-10 -3.55896e-10 -0.15577)
(4.1199e-10 -2.47824e-10 -0.144129)
(-1.4256e-18 -9.33784e-20 -0.052264)
(-2.25942e-17 -4.93549e-20 -0.0499178)
(-4.7887e-17 1.74864e-21 -0.0471965)
(-7.67784e-17 5.93409e-19 -0.0446996)
(-1.26984e-16 2.10105e-18 -0.0428813)
(-1.59118e-16 -2.4238e-19 -0.0420677)
(-1.99013e-16 -7.39032e-19 -0.0424469)
(-2.88265e-16 2.25911e-17 -0.0440271)
(-4.42774e-16 2.63003e-17 -0.04663)
(-1.35903e-16 -6.40362e-17 -0.0499131)
(6.28221e-16 -1.266e-16 -0.0533519)
(-3.96867e-17 7.32888e-17 -0.0565357)
(-2.95205e-15 4.68342e-16 -0.0589673)
(-4.0764e-15 6.58531e-16 -0.0603471)
(2.07214e-15 3.41326e-16 -0.0604815)
(1.44838e-14 -3.24188e-16 -0.0593318)
(2.35215e-14 -7.74075e-16 -0.0570128)
(2.27061e-14 -6.52207e-16 -0.053776)
(1.60285e-14 -2.46545e-16 -0.0500294)
(8.59475e-15 4.33373e-17 -0.0462931)
(2.73621e-15 2.33675e-16 -0.0431309)
(-8.50165e-16 -2.20905e-17 -0.0410532)
(8.97038e-15 -7.31838e-16 -0.0404259)
(-7.66858e-15 7.14385e-15 -0.0414054)
(-1.89594e-13 9.39315e-16 -0.0439397)
(3.9797e-13 -1.75857e-13 -0.047828)
(3.41955e-12 1.19818e-13 -0.0527437)
(-7.41128e-12 4.02885e-12 -0.0581129)
(-7.59956e-11 1.0406e-11 -0.0628839)
(-1.88645e-10 8.39341e-12 -0.0657022)
(-2.35286e-10 -3.20941e-12 -0.0654997)
(-1.63808e-10 -1.00057e-11 -0.0620885)
(-6.24111e-11 -7.13422e-12 -0.0562315)
(-9.2721e-12 -2.37679e-12 -0.0492768)
(4.44625e-12 -5.17173e-13 -0.0427557)
(5.23375e-12 -7.12714e-13 -0.0378995)
(1.6674e-13 1.82216e-12 -0.0353944)
(-1.72233e-11 1.23999e-11 -0.035489)
(2.02878e-12 1.14728e-11 -0.0384549)
(1.56633e-10 -9.15161e-11 -0.0448428)
(4.33136e-11 -4.19807e-10 -0.0544588)
(-2.20692e-09 -8.91628e-10 -0.0643508)
(-8.49526e-09 -1.13815e-09 -0.0699638)
(-1.6016e-08 -8.21357e-10 -0.0712799)
(-1.82109e-08 2.56096e-11 -0.072489)
(-1.32894e-08 8.7689e-10 -0.0735902)
(-6.17368e-09 1.13396e-09 -0.0701851)
(-1.39888e-09 8.41042e-10 -0.0611582)
(2.78289e-10 4.30517e-10 -0.0495603)
(3.06195e-10 1.06585e-10 -0.0395779)
(2.04951e-10 -1.3182e-10 -0.0339885)
(6.07939e-10 -1.73845e-10 -0.0334984)
(3.37329e-10 7.11857e-10 -0.0363416)
(-5.24976e-09 4.00961e-09 -0.0367201)
(-2.3916e-08 1.07311e-08 -0.0249136)
(-6.06487e-08 1.89583e-08 0.00661068)
(-1.09893e-07 2.30756e-08 0.0551038)
(-1.55962e-07 1.76578e-08 0.107415)
(-1.81107e-07 3.25009e-09 0.144999)
(-1.73855e-07 -1.26815e-08 0.15038)
(-1.36125e-07 -2.1719e-08 0.118503)
(-8.43824e-08 -2.12416e-08 0.0639245)
(-3.84638e-08 -1.47682e-08 0.0106623)
(-9.39995e-09 -7.44206e-09 -0.0244373)
(3.10646e-09 -2.22478e-09 -0.0388635)
(4.6314e-09 1.26131e-09 -0.0393802)
(-1.31844e-09 5.48022e-09 -0.0333693)
(-1.54211e-08 1.2416e-08 -0.0253117)
(-3.85518e-08 2.12953e-08 -0.0180362)
(-6.69017e-08 2.84346e-08 -0.0124699)
(-9.29975e-08 2.97404e-08 -0.00352003)
(-1.11823e-07 2.34183e-08 0.0194558)
(-1.23284e-07 1.04561e-08 0.0615714)
(-1.27716e-07 -6.05253e-09 0.112066)
(-1.21788e-07 -2.13407e-08 0.147841)
(-1.01954e-07 -3.04809e-08 0.149272)
(-7.11104e-08 -3.10714e-08 0.114781)
(-3.83879e-08 -2.44588e-08 0.0607857)
(-1.31322e-08 -1.4286e-08 0.00962384)
(-2.4771e-10 -3.84875e-09 -0.0240485)
(9.49699e-11 5.34699e-09 -0.0401026)
(-9.2976e-09 1.29143e-08 -0.0499733)
(-2.37756e-08 1.82347e-08 -0.0659549)
(-3.77931e-08 2.02904e-08 -0.0894315)
(-4.70836e-08 1.86984e-08 -0.107369)
(-5.08577e-08 1.42344e-08 -0.102167)
(-5.15752e-08 8.02893e-09 -0.0661317)
(-5.21279e-08 6.88257e-10 -0.00726769)
(-5.28191e-08 -7.39007e-09 0.0556003)
(-5.10045e-08 -1.50632e-08 0.101756)
(-4.4051e-08 -2.03409e-08 0.117427)
(-3.22034e-08 -2.14076e-08 0.10106)
(-1.87317e-08 -1.77658e-08 0.0627646)
(-7.89118e-09 -1.06193e-08 0.0171266)
(-2.55444e-09 -2.29147e-09 -0.0265045)
(-2.9921e-09 4.85037e-09 -0.0679136)
(-7.143e-09 9.27103e-09 -0.109997)
(-1.20027e-08 1.06089e-08 -0.149087)
(-1.53169e-08 9.51602e-09 -0.172857)
(-1.65082e-08 7.1174e-09 -0.169113)
(-1.63897e-08 4.34922e-09 -0.135559)
(-1.61309e-08 1.57331e-09 -0.0809621)
(-1.62576e-08 -1.31089e-09 -0.0194505)
(-1.63112e-08 -4.40964e-09 0.0350885)
(-1.53979e-08 -7.4326e-09 0.0719736)
(-1.29914e-08 -9.63049e-09 0.085068)
(-9.38778e-09 -1.01446e-08 0.0737466)
(-5.55047e-09 -8.61543e-09 0.0419762)
(-2.49702e-09 -5.56497e-09 -0.00469944)
(-7.15976e-10 -2.14785e-09 -0.0610974)
(-2.04913e-11 5.3967e-10 -0.120605)
(1.36255e-10 2.00192e-09 -0.172313)
(2.0882e-10 2.37939e-09 -0.202777)
(3.27976e-10 2.115e-09 -0.20307)
(3.66152e-10 1.60208e-09 -0.174177)
(1.49296e-10 1.02839e-09 -0.125584)
(-3.54147e-10 4.1221e-10 -0.0695384)
(-9.81391e-10 -2.78963e-10 -0.0164917)
(-1.48495e-09 -1.03098e-09 0.0260561)
(-1.67405e-09 -1.74309e-09 0.052649)
(-1.49989e-09 -2.25534e-09 0.0592937)
(-1.03853e-09 -2.44395e-09 0.0435325)
(-4.00857e-10 -2.31423e-09 0.00511453)
(3.42584e-10 -1.99798e-09 -0.0524277)
(1.16023e-09 -1.65178e-09 -0.119815)
(2.00721e-09 -1.3559e-09 -0.182142)
(2.79832e-09 -1.09938e-09 -0.223516)
(3.43159e-09 -8.35658e-10 -0.234308)
(3.82307e-09 -5.39995e-10 -0.215193)
(3.92112e-09 -2.27369e-10 -0.174925)
(3.71217e-09 6.74167e-11 -0.124642)
(3.23171e-09 3.23249e-10 -0.0734176)
(2.56832e-09 5.46472e-10 -0.027333)
(1.84285e-09 7.48464e-10 0.00901055)
(1.17624e-09 9.07043e-10 0.0308368)
(6.6551e-10 9.56462e-10 0.0327405)
(3.70621e-10 8.31067e-10 0.0102481)
(3.06045e-10 5.27095e-10 -0.0368299)
(4.38103e-10 1.21071e-10 -0.101162)
(6.95376e-10 -2.72181e-10 -0.167882)
(9.92413e-10 -5.60957e-10 -0.219695)
(1.25613e-09 -7.09689e-10 -0.244586)
(1.44194e-09 -7.32427e-10 -0.240528)
(1.53493e-09 -6.66433e-10 -0.214085)
(1.54017e-09 -5.46611e-10 -0.175097)
(1.47066e-09 -3.89189e-10 -0.131835)
(1.34007e-09 -1.88389e-10 -0.0893264)
(1.15934e-09 6.88292e-11 -0.0504342)
(9.38842e-10 3.73129e-10 -0.0178447)
(6.96977e-10 6.70818e-10 0.00421128)
(4.67072e-10 8.77154e-10 0.00974451)
(2.91737e-10 9.23376e-10 -0.00678003)
(2.04697e-10 7.99839e-10 -0.0464125)
(2.13915e-10 5.59633e-10 -0.102299)
(2.98441e-10 2.83991e-10 -0.160265)
(4.19339e-10 4.24171e-11 -0.204786)
(5.36579e-10 -1.35704e-10 -0.223953)
(6.16014e-10 -2.22096e-10 -0.223858)
(6.57717e-10 -3.55224e-10 -0.172579)
(6.04288e-10 -2.37385e-10 -0.14406)
(-5.35537e-17 6.56343e-18 -0.072886)
(-1.94593e-16 1.25049e-17 -0.069548)
(-1.78392e-16 1.43957e-17 -0.0656612)
(-2.3941e-16 2.37332e-17 -0.0620775)
(-2.60251e-16 2.16492e-17 -0.0594478)
(-2.34327e-16 1.68125e-17 -0.0582436)
(-3.86766e-16 4.14353e-17 -0.0587394)
(-6.25744e-16 9.88312e-17 -0.0609504)
(-1.36264e-16 1.66077e-15 -0.0646283)
(2.93258e-15 -5.20471e-16 -0.0692844)
(3.70804e-15 -1.81071e-15 -0.0741569)
(-2.0565e-15 3.49256e-15 -0.0787062)
(-5.46281e-15 2.04796e-15 -0.0822064)
(1.57225e-14 -2.41131e-15 -0.0842467)
(7.8981e-14 -9.13632e-15 -0.0845418)
(1.65161e-13 -1.06337e-14 -0.0830241)
(2.08772e-13 -4.1331e-15 -0.0798066)
(1.72021e-13 3.65112e-15 -0.0751516)
(1.05937e-13 6.95578e-15 -0.0696015)
(4.79458e-14 6.57089e-15 -0.0639177)
(5.78462e-15 4.68211e-15 -0.0589409)
(-1.67117e-15 -3.10131e-15 -0.0554885)
(3.88147e-14 3.31636e-15 -0.0542398)
(-2.2257e-13 9.88455e-14 -0.0555881)
(-2.40518e-13 -2.01164e-13 -0.0595579)
(2.95517e-12 -1.79616e-12 -0.065816)
(-3.16171e-12 3.87805e-12 -0.0736664)
(-2.50505e-11 3.94844e-11 -0.0821159)
(9.23038e-11 9.01084e-11 -0.0900042)
(3.69449e-10 7.9188e-11 -0.0953704)
(3.86557e-10 -1.23454e-11 -0.0955064)
(1.18726e-10 -8.59371e-11 -0.0898183)
(-4.32663e-11 -7.68253e-11 -0.0802456)
(-4.30053e-11 -3.32271e-11 -0.0689378)
(-3.62131e-12 -7.26218e-12 -0.0578925)
(9.3087e-12 1.88874e-12 -0.0490885)
(-2.62309e-11 1.13665e-11 -0.044117)
(-1.74251e-11 2.21461e-12 -0.0440938)
(4.14006e-10 -8.0991e-11 -0.0501736)
(8.45635e-10 -3.97867e-11 -0.0621147)
(-3.69212e-09 1.04648e-09 -0.0720068)
(-2.41438e-08 3.91196e-09 -0.0614784)
(-6.55796e-08 6.39157e-09 -0.0198775)
(-1.10812e-07 4.50158e-09 0.0312704)
(-1.28655e-07 -1.29185e-09 0.0512291)
(-1.05607e-07 -5.59946e-09 0.0242153)
(-6.06747e-08 -5.48694e-09 -0.0235756)
(-2.24934e-08 -2.92917e-09 -0.0567037)
(-2.9437e-09 -7.23993e-10 -0.0633609)
(2.34907e-09 6.10376e-11 -0.053675)
(2.26545e-09 -1.84558e-10 -0.0431094)
(1.86343e-09 -1.13732e-10 -0.0400697)
(-1.03144e-09 3.05394e-09 -0.0417677)
(-1.579e-08 1.29356e-08 -0.0363243)
(-5.19611e-08 2.99763e-08 -0.0119166)
(-1.06713e-07 4.71914e-08 0.0324345)
(-1.63233e-07 5.29533e-08 0.0904645)
(-2.06683e-07 3.97342e-08 0.160372)
(-2.32712e-07 9.72363e-09 0.234902)
(-2.36491e-07 -2.53706e-08 0.284557)
(-2.08159e-07 -4.96403e-08 0.273488)
(-1.49096e-07 -5.3615e-08 0.197707)
(-8.06167e-08 -4.08128e-08 0.0944042)
(-2.70981e-08 -2.24714e-08 0.00897803)
(1.13703e-09 -7.54034e-09 -0.0367918)
(7.26891e-09 2.63097e-09 -0.0480764)
(-2.53304e-09 1.20636e-08 -0.0428515)
(-2.40776e-08 2.37438e-08 -0.0406263)
(-5.12534e-08 3.52704e-08 -0.0556191)
(-7.35583e-08 4.09367e-08 -0.0855765)
(-8.27134e-08 3.77795e-08 -0.104212)
(-8.05882e-08 2.7717e-08 -0.0783135)
(-7.76452e-08 1.3548e-08 0.0010351)
(-8.2639e-08 -4.1145e-09 0.107602)
(-9.28074e-08 -2.39812e-08 0.196749)
(-9.52071e-08 -4.05003e-08 0.231195)
(-8.03788e-08 -4.67425e-08 0.201419)
(-5.20374e-08 -4.05134e-08 0.128668)
(-2.2959e-08 -2.56617e-08 0.0486244)
(-4.87904e-09 -8.15825e-09 -0.0124984)
(-2.22762e-09 7.62471e-09 -0.0530525)
(-1.16862e-08 1.9263e-08 -0.0912577)
(-2.51041e-08 2.51579e-08 -0.142668)
(-3.41899e-08 2.47892e-08 -0.198066)
(-3.50824e-08 1.9761e-08 -0.225366)
(-2.97081e-08 1.31556e-08 -0.19742)
(-2.34798e-08 7.14774e-09 -0.115891)
(-2.16331e-08 1.41097e-09 -0.00816116)
(-2.58484e-08 -5.81574e-09 0.0923993)
(-3.26672e-08 -1.48627e-08 0.160689)
(-3.59104e-08 -2.3165e-08 0.183887)
(-3.1783e-08 -2.68999e-08 0.162421)
(-2.1848e-08 -2.3863e-08 0.10888)
(-1.13872e-08 -1.50162e-08 0.0401564)
(-5.18801e-09 -3.82176e-09 -0.0336363)
(-4.44883e-09 5.75877e-09 -0.111592)
(-6.83382e-09 1.1151e-08 -0.190622)
(-8.97655e-09 1.20178e-08 -0.2535)
(-9.0038e-09 9.84414e-09 -0.274534)
(-7.1949e-09 6.67542e-09 -0.240075)
(-5.07452e-09 3.88404e-09 -0.160744)
(-4.22721e-09 1.65059e-09 -0.0632782)
(-5.40063e-09 -7.03121e-10 0.0267172)
(-8.00552e-09 -3.81653e-09 0.0942025)
(-1.03959e-08 -7.49978e-09 0.132858)
(-1.09778e-08 -1.0629e-08 0.140565)
(-9.32188e-09 -1.18017e-08 0.117828)
(-6.32294e-09 -1.03453e-08 0.0673389)
(-3.34665e-09 -6.87846e-09 -0.00676356)
(-1.21454e-09 -2.91363e-09 -0.097411)
(1.03727e-10 1.43419e-10 -0.189801)
(1.04899e-09 1.7295e-09 -0.260033)
(1.92575e-09 2.11576e-09 -0.284756)
(2.72472e-09 1.90657e-09 -0.256137)
(3.23649e-09 1.567e-09 -0.187135)
(3.22064e-09 1.24198e-09 -0.102114)
(2.56715e-09 8.3452e-10 -0.022536)
(1.42252e-09 2.06672e-10 0.0403379)
(1.70074e-10 -6.53657e-10 0.0830401)
(-7.68486e-10 -1.58512e-09 0.104157)
(-1.14996e-09 -2.33101e-09 0.100776)
(-9.74215e-10 -2.69991e-09 0.0686584)
(-3.86434e-10 -2.68481e-09 0.0057236)
(4.49381e-10 -2.43487e-09 -0.0824474)
(1.39186e-09 -2.11511e-09 -0.178419)
(2.3049e-09 -1.7984e-09 -0.255638)
(3.0704e-09 -1.47105e-09 -0.290321)
(3.62722e-09 -1.09843e-09 -0.274685)
(3.97101e-09 -6.70905e-10 -0.220059)
(4.10501e-09 -2.12522e-10 -0.147915)
(4.00269e-09 2.31005e-10 -0.0773096)
(3.63156e-09 6.15655e-10 -0.0181412)
(3.01179e-09 9.19621e-10 0.0271311)
(2.23893e-09 1.13649e-09 0.0579492)
(1.46093e-09 1.24357e-09 0.0709434)
(8.30752e-10 1.19008e-09 0.0590776)
(4.57939e-10 9.36245e-10 0.0157298)
(3.7474e-10 5.09456e-10 -0.057969)
(5.3137e-10 1.37566e-11 -0.147515)
(8.24361e-10 -4.2159e-10 -0.227309)
(1.14191e-09 -7.07239e-10 -0.272389)
(1.40128e-09 -8.22342e-10 -0.271793)
(1.56356e-09 -7.99049e-10 -0.232973)
(1.62799e-09 -6.88243e-10 -0.174725)
(1.6147e-09 -5.30557e-10 -0.115455)
(1.54489e-09 -3.41559e-10 -0.0653465)
(1.42761e-09 -1.12424e-10 -0.0261018)
(1.25883e-09 1.71302e-10 0.00455597)
(1.03371e-09 4.96581e-10 0.0274832)
(7.66477e-10 8.00684e-10 0.0385914)
(5.01573e-10 9.90137e-10 0.0293748)
(3.00707e-10 9.95868e-10 -0.00763835)
(2.11509e-10 8.19219e-10 -0.0709443)
(2.42997e-10 5.30086e-10 -0.145297)
(3.64175e-10 2.23487e-10 -0.206073)
(5.22439e-10 -2.60181e-11 -0.232127)
(6.67179e-10 -1.91065e-10 -0.213844)
(7.58657e-10 -2.5522e-10 -0.171802)
(8.01094e-10 -3.50035e-10 -0.0652032)
(7.22567e-10 -2.2111e-10 -0.0189841)
(6.76409e-17 1.8587e-15 -0.0931565)
(2.20232e-16 1.79709e-15 -0.0887755)
(2.72294e-16 2.241e-17 -0.0836497)
(1.42282e-16 1.77625e-15 -0.0788964)
(8.75763e-16 1.73428e-15 -0.0753781)
(-1.33057e-16 1.79774e-15 -0.0737252)
(1.2811e-15 1.94969e-16 -0.0743071)
(-4.6105e-15 -8.9107e-17 -0.0771446)
(8.78767e-15 -1.75286e-15 -0.0819164)
(3.44622e-14 -3.76157e-15 -0.0879718)
(-5.22735e-15 2.3815e-15 -0.0942732)
(-7.0125e-14 4.68582e-15 -0.100198)
(-6.08455e-14 -8.43469e-15 -0.104758)
(-1.10448e-14 -4.15634e-14 -0.107464)
(-6.36843e-14 -7.4378e-14 -0.107926)
(-2.82116e-13 -6.34848e-14 -0.106032)
(-4.78762e-13 -2.4691e-15 -0.101923)
(-4.5123e-13 5.07653e-14 -0.0959137)
(-2.88929e-13 6.35256e-14 -0.0886893)
(-1.38208e-13 5.1854e-14 -0.0812363)
(-6.99551e-14 2.50422e-14 -0.0746491)
(5.34982e-14 -1.65371e-14 -0.0699926)
(-2.51377e-13 1.09718e-13 -0.0681939)
(-8.00847e-13 1.4681e-13 -0.0698382)
(6.74375e-12 -1.58793e-12 -0.0750319)
(-7.66133e-12 1.28301e-12 -0.0832974)
(-1.33633e-10 1.41227e-11 -0.0935341)
(2.45086e-10 -4.37039e-11 -0.105595)
(2.96196e-09 -1.86844e-10 -0.121328)
(7.52662e-09 -1.38733e-10 -0.137284)
(9.39434e-09 1.2215e-10 -0.141666)
(6.48145e-09 2.04902e-10 -0.129355)
(2.40349e-09 7.37314e-11 -0.108969)
(2.94707e-10 -2.22027e-11 -0.0894391)
(-1.67226e-10 -2.66759e-11 -0.0731786)
(-1.24263e-10 1.05903e-11 -0.0608376)
(-1.36889e-10 1.51874e-11 -0.0537295)
(2.51292e-10 -2.07718e-10 -0.0542502)
(1.84777e-09 -4.20059e-10 -0.0647938)
(4.24113e-10 1.96155e-09 -0.0789604)
(-2.10848e-08 1.20749e-08 -0.0679371)
(-8.41629e-08 3.00521e-08 0.00720112)
(-1.84934e-07 4.21961e-08 0.1477)
(-2.84075e-07 3.07162e-08 0.297747)
(-3.31408e-07 -2.57711e-09 0.377443)
(-2.97202e-07 -3.31131e-08 0.334944)
(-1.98799e-07 -4.04228e-08 0.195192)
(-9.2776e-08 -2.80245e-08 0.0459278)
(-2.33992e-08 -1.19907e-08 -0.0440893)
(4.07765e-09 -2.49799e-09 -0.068747)
(8.13419e-09 1.11001e-10 -0.0613857)
(4.89299e-09 1.4746e-09 -0.051497)
(-5.41655e-09 9.53857e-09 -0.0441898)
(-3.33935e-08 2.94744e-08 -0.0315839)
(-8.07697e-08 5.61926e-08 -0.0163134)
(-1.27588e-07 7.45944e-08 -0.00917363)
(-1.50444e-07 7.30606e-08 0.0056126)
(-1.51248e-07 5.23972e-08 0.0717818)
(-1.54481e-07 1.81542e-08 0.203247)
(-1.74359e-07 -2.4958e-08 0.347234)
(-1.91667e-07 -6.54167e-08 0.418708)
(-1.74197e-07 -8.50128e-08 0.3703)
(-1.18843e-07 -7.57671e-08 0.233048)
(-5.40116e-08 -4.83189e-08 0.0843324)
(-8.74292e-09 -1.94083e-08 -0.0154057)
(6.34266e-09 3.09634e-09 -0.0546613)
(-4.46943e-09 2.11535e-08 -0.0627807)
(-2.96812e-08 3.67762e-08 -0.0847126)
(-5.34688e-08 4.60357e-08 -0.147915)
(-6.14881e-08 4.41646e-08 -0.230233)
(-5.02256e-08 3.32553e-08 -0.26496)
(-2.8773e-08 2.08843e-08 -0.198385)
(-1.19046e-08 1.14815e-08 -0.0404567)
(-1.20004e-08 1.52857e-09 0.145455)
(-3.10085e-08 -1.50567e-08 0.28955)
(-5.56142e-08 -3.66952e-08 0.348573)
(-6.62175e-08 -5.26562e-08 0.315408)
(-5.48737e-08 -5.31687e-08 0.217742)
(-3.11879e-08 -3.78652e-08 0.102051)
(-1.1726e-08 -1.42144e-08 0.00361038)
(-6.37269e-09 8.75055e-09 -0.07604)
(-1.29602e-08 2.43525e-08 -0.160214)
(-2.16593e-08 2.94866e-08 -0.25867)
(-2.38319e-08 2.52795e-08 -0.338751)
(-1.76899e-08 1.64576e-08 -0.345143)
(-7.13275e-09 8.43319e-09 -0.251587)
(2.39972e-09 3.9914e-09 -0.0868003)
(6.30958e-09 1.87253e-09 0.0882181)
(2.0376e-09 -1.873e-09 0.22126)
(-8.83025e-09 -1.00322e-08 0.289549)
(-1.99172e-08 -2.0783e-08 0.293521)
(-2.44345e-08 -2.84388e-08 0.245384)
(-2.08387e-08 -2.79637e-08 0.162712)
(-1.34458e-08 -1.89493e-08 0.0612534)
(-7.75519e-09 -5.76065e-09 -0.0523098)
(-5.75268e-09 5.67328e-09 -0.175715)
(-5.56066e-09 1.15349e-08 -0.292783)
(-4.54699e-09 1.16939e-08 -0.364994)
(-1.85705e-09 8.6252e-09 -0.35351)
(1.644e-09 5.15276e-09 -0.252695)
(4.59809e-09 2.86537e-09 -0.0984451)
(5.82938e-09 1.73636e-09 0.0555821)
(4.56519e-09 5.78261e-10 0.169465)
(9.46411e-10 -1.912e-09 0.230574)
(-3.52463e-09 -5.94644e-09 0.245012)
(-6.72281e-09 -1.01675e-08 0.223084)
(-7.40633e-09 -1.2472e-08 0.170823)
(-5.9587e-09 -1.1603e-08 0.0892392)
(-3.68294e-09 -8.11918e-09 -0.0209967)
(-1.57725e-09 -3.87304e-09 -0.150286)
(1.25193e-10 -5.92093e-10 -0.271159)
(1.5628e-09 1.09091e-09 -0.342733)
(2.82027e-09 1.54153e-09 -0.333835)
(3.86709e-09 1.45963e-09 -0.245976)
(4.61809e-09 1.35412e-09 -0.113564)
(4.91421e-09 1.36306e-09 0.0179271)
(4.54752e-09 1.31127e-09 0.116373)
(3.45805e-09 9.19575e-10 0.172582)
(1.92937e-09 6.45199e-11 0.192901)
(4.83312e-10 -1.08307e-09 0.186135)
(-4.2378e-10 -2.15248e-09 0.154281)
(-6.19409e-10 -2.82571e-09 0.092166)
(-2.03117e-10 -3.02603e-09 -0.00429757)
(5.89954e-10 -2.88713e-09 -0.125979)
(1.49538e-09 -2.57953e-09 -0.24382)
(2.28356e-09 -2.19516e-09 -0.317558)
(2.83069e-09 -1.76054e-09 -0.318603)
(3.15168e-09 -1.28597e-09 -0.248595)
(3.3448e-09 -7.78894e-10 -0.137501)
(3.48289e-09 -2.43206e-10 -0.0244204)
(3.53774e-09 3.04146e-10 0.0627839)
(3.40285e-09 8.18697e-10 0.115765)
(2.99432e-09 1.24278e-09 0.14018)
(2.33646e-09 1.5239e-09 0.144382)
(1.57386e-09 1.61113e-09 0.129762)
(9.08662e-10 1.45796e-09 0.0890188)
(5.06349e-10 1.05907e-09 0.0141644)
(4.24592e-10 4.90379e-10 -0.0902068)
(6.04055e-10 -1.0374e-10 -0.198922)
(9.17092e-10 -5.77452e-10 -0.273818)
(1.23464e-09 -8.49414e-10 -0.28529)
(1.47111e-09 -9.20512e-10 -0.230637)
(1.59466e-09 -8.45784e-10 -0.134375)
(1.61549e-09 -6.92005e-10 -0.0322824)