/*--------------------------------*- C++ -*----------------------------------*\
  =========                 |
  \\      /  F ield         | OpenFOAM: The Open Source CFD Toolbox
   \\    /   O peration     | Website:  https://openfoam.org
    \\  /    A nd           | Version:  11
     \\/     M anipulation  |
\*---------------------------------------------------------------------------*/
FoamFile
{
    format      ascii;
    class       surfaceScalarField;
    location    "9.122062";
    object      phi_0;
}
// * * * * * * * * * * * * * * * * * * * * * * * * * * * * * * * * * * * * * //

dimensions      [0 3 -1 0 0 0 0];

internalField   nonuniform List<scalar> 
14638
(
0.00250277
-2.77469e-06
0.00251112
-8.34519e-06
0.00252531
-1.41871e-05
0.00254569
-2.03818e-05
0.00257261
-2.69214e-05
0.00260617
-3.35629e-05
0.00264604
-3.98624e-05
0.00269102
-4.49865e-05
0.00273906
-4.80405e-05
0.00278717
-4.81119e-05
0.00283189
-4.47196e-05
0.00287061
-3.87185e-05
0.00290162
-3.10117e-05
0.00292428
-2.26534e-05
0.00293909
-1.48135e-05
0.00294758
-8.48546e-06
0.00295185
-4.27059e-06
0.00295393
-2.08155e-06
0.00295495
-1.01833e-06
0.00295448
4.71088e-07
0.00295034
4.13232e-06
0.00293915
1.11932e-05
0.00291757
2.1584e-05
0.00288394
3.36253e-05
0.00283929
4.46471e-05
0.00278726
5.20392e-05
0.00273328
5.39774e-05
0.00268366
4.96198e-05
0.00264471
3.89483e-05
0.00262211
2.25985e-05
0.00262025
1.86183e-06
0.00264137
-2.11168e-05
0.00268429
-4.2929e-05
0.00274306
-5.87634e-05
0.00280642
-6.33634e-05
0.00285986
-5.34347e-05
0.0028901
-3.02411e-05
0.00288993
1.6391e-07
0.0028601
2.98387e-05
0.00280753
5.25631e-05
0.00274206
6.54697e-05
0.00267371
6.83565e-05
0.00261153
6.21799e-05
0.00256364
4.78832e-05
0.00253774
2.59051e-05
0.00254137
-3.63195e-06
0.00258146
-4.0087e-05
0.00266213
-8.0672e-05
0.00278085
-0.000118726
0.00292438
-0.000143522
0.00306791
-0.000143532
0.00318078
-0.000112875
0.00323782
-5.70368e-05
0.00322994
7.88185e-06
0.00316667
6.32672e-05
0.00306934
9.73287e-05
0.0029608
0.000108545
0.00285854
0.000102256
0.00277307
8.54664e-05
0.0027094
6.36796e-05
0.00266916
4.02321e-05
0.00265214
1.7026e-05
0.00265655
-4.41793e-06
0.00267879
-2.2239e-05
0.00271302
-3.42304e-05
0.00275151
-3.84901e-05
0.00278586
-3.43492e-05
0.00280887
-2.30038e-05
0.00281623
-7.36228e-06
0.00280731
8.9213e-06
0.00278463
2.26764e-05
0.00275258
3.20532e-05
0.00271595
3.66316e-05
0.00267893
3.70133e-05
0.00264466
3.42762e-05
0.00261511
2.95524e-05
0.0025913
2.3805e-05
0.00257354
1.77648e-05
0.00256158
1.19515e-05
0.00255486
6.72242e-06
0.00255254
2.3208e-06
0.00255363
-1.09171e-06
0.00255705
-3.42172e-06
0.0025617
-4.64863e-06
0.00256654
-4.83585e-06
0.00257067
-4.13563e-06
0.00257345
-2.77764e-06
0.00257449
-1.03942e-06
0.0025737
7.94802e-07
0.00257122
2.47568e-06
0.0025674
3.81998e-06
0.00256268
4.72446e-06
0.00255751
5.16316e-06
0.00255234
5.17282e-06
0.00254751
4.83258e-06
0.00254326
4.24343e-06
0.00253975
3.51061e-06
0.00253702
2.73079e-06
0.00253504
1.98406e-06
0.00253371
1.33007e-06
0.0025329
8.07405e-07
0.00253247
4.35005e-07
0.00253225
2.14855e-07
0.00253212
1.35285e-07
0.00253194
1.74535e-07
0.00253164
3.04363e-07
0.00253114
4.93594e-07
0.00253043
7.11409e-07
0.0025295
9.30134e-07
0.00252838
1.12731e-06
0.00252709
1.28696e-06
0.00252569
1.39991e-06
0.00252422
1.46347e-06
0.00252274
1.4804e-06
0.00252129
1.45751e-06
0.00251988
1.40422e-06
0.00251855
1.33098e-06
0.0025173
1.2481e-06
0.00251614
1.16469e-06
0.00251505
1.08805e-06
0.00251403
1.02336e-06
0.00251305
9.73587e-07
0.00251211
9.39716e-07
0.00251119
9.21047e-07
0.00251028
9.15621e-07
0.00250936
9.20654e-07
0.00250842
9.32967e-07
0.00250747
9.49351e-07
0.00250651
9.66868e-07
0.00250552
9.83063e-07
0.00250453
9.9609e-07
0.00250352
1.00476e-06
0.00250252
1.0085e-06
0.00250151
1.0073e-06
0.00250051
1.00155e-06
0.00249951
9.91923e-07
0.00249854
9.79197e-07
0.00249757
9.6415e-07
0.00249662
9.47431e-07
0.00249569
9.29485e-07
0.00249478
9.10512e-07
0.00249389
8.90466e-07
0.00249302
8.69074e-07
0.00249218
8.45895e-07
0.00249136
8.20332e-07
0.00249057
7.91689e-07
0.00248981
7.58972e-07
0.00248909
7.20947e-07
0.00248841
6.75291e-07
0.00248779
6.19379e-07
0.00248724
5.47475e-07
0.00248679
4.56009e-07
0.00248646
3.32706e-07
0.00248627
1.81437e-07
0.0024863
-2.56464e-08
0.00248654
-2.43049e-07
0.0024871
-5.60336e-07
0.00248788
-7.76835e-07
0.0024891
-1.21802e-06
-1.33538e-06
0.00250275
-5.52748e-06
0.00251104
-1.66309e-05
0.00252515
-2.8294e-05
0.00254546
-4.06999e-05
0.00257239
-5.38459e-05
0.00260608
-6.72579e-05
0.00264627
-8.00521e-05
0.00269181
-9.05207e-05
0.00274059
-9.68286e-05
0.00278951
-9.70308e-05
0.0028349
-9.0102e-05
0.00287405
-7.78751e-05
0.00290523
-6.21924e-05
0.00292778
-4.51952e-05
0.00294224
-2.92759e-05
0.00295023
-1.64824e-05
0.00295404
-8.07808e-06
0.00295587
-3.91144e-06
0.002957
-2.1424e-06
0.00295702
4.42926e-07
0.00295366
7.49964e-06
0.00294321
2.16445e-05
0.002922
4.27904e-05
0.00288816
6.74612e-05
0.0028427
9.01104e-05
0.00278938
0.000105355
0.00273388
0.000109484
0.00268267
0.000100825
0.00264226
7.93642e-05
0.00261849
4.63602e-05
0.00261603
4.33079e-06
0.00263742
-4.25101e-05
0.0026818
-8.7312e-05
0.00274321
-0.000120175
0.00280992
-0.000130067
0.00286641
-0.00010993
0.00289847
-6.22936e-05
0.00289844
1.91092e-07
0.00286732
6.09588e-05
0.00281268
0.000107203
0.0027449
0.000133249
0.00267429
0.00013897
0.00260994
0.000126522
0.00255993
9.7899e-05
0.00253192
5.39102e-05
0.00253375
-5.46093e-06
0.00257303
-7.93693e-05
0.00265496
-0.000162595
0.0027778
-0.000241569
0.00292795
-0.000293674
0.00307873
-0.000294305
0.00319686
-0.000231006
0.00325541
-0.00011559
0.00324527
1.80206e-05
0.00317739
0.00013115
0.00307501
0.000199707
0.00296236
0.000221194
0.00285738
0.000207232
0.00277037
0.000172482
0.00270591
0.000128133
0.00266541
8.07346e-05
0.00264856
3.38794e-05
0.00265367
-9.53297e-06
0.0026772
-4.5767e-05
0.00271322
-7.02474e-05
0.00275369
-7.89622e-05
0.00278979
-7.04476e-05
0.00281392
-4.71395e-05
0.00282162
-1.50565e-05
0.0028123
1.82401e-05
0.00278875
4.62266e-05
0.00275565
6.51561e-05
0.00271803
7.42529e-05
0.00268021
7.48263e-05
0.00264536
6.91238e-05
0.00261545
5.94638e-05
0.00259146
4.7794e-05
0.00257365
3.55772e-05
0.00256176
2.38461e-05
0.00255517
1.33084e-05
0.00255305
4.44534e-06
0.00255438
-2.42103e-06
0.00255806
-7.10183e-06
0.00256296
-9.55279e-06
0.00256802
-9.89968e-06
0.00257234
-8.44999e-06
0.00257523
-5.67021e-06
0.00257632
-2.12524e-06
0.00257551
1.60642e-06
0.00257296
5.01816e-06
0.00256904
7.73905e-06
0.00256421
9.56199e-06
0.00255893
1.04374e-05
0.00255366
1.04427e-05
0.00254875
9.74096e-06
0.00254446
8.53824e-06
0.00254092
7.0485e-06
0.00253818
5.4675e-06
0.00253621
3.95684e-06
0.00253491
2.63649e-06
0.00253413
1.58368e-06
0.00253373
8.3591e-07
0.00253355
3.96512e-07
0.00253344
2.4135e-07
0.00253329
3.26012e-07
0.002533
5.93091e-07
0.00253251
9.79344e-07
0.0025318
1.42235e-06
0.00253087
1.86612e-06
0.00252973
2.26533e-06
0.00252843
2.58779e-06
0.00252701
2.8152e-06
0.00252553
2.94234e-06
0.00252404
2.97501e-06
0.00252257
2.92724e-06
0.00252116
2.8182e-06
0.00251982
2.66917e-06
0.00251856
2.50103e-06
0.0025174
2.33223e-06
0.00251631
2.17749e-06
0.00251528
2.04719e-06
0.00251431
1.94729e-06
0.00251337
1.87967e-06
0.00251245
1.84285e-06
0.00251153
1.83279e-06
0.00251061
1.84382e-06
0.00250967
1.86947e-06
0.00250872
1.90324e-06
0.00250775
1.93919e-06
0.00250676
1.97237e-06
0.00250575
1.99906e-06
0.00250474
2.01688e-06
0.00250372
2.02473e-06
0.00250271
2.0226e-06
0.0025017
2.01131e-06
0.0025007
1.99224e-06
0.00249971
1.96701e-06
0.00249874
1.93719e-06
0.00249778
1.90412e-06
0.00249684
1.86869e-06
0.00249592
1.83133e-06
0.00249502
1.79194e-06
0.00249414
1.74997e-06
0.00249328
1.70454e-06
0.00249245
1.65442e-06
0.00249164
1.59821e-06
0.00249087
1.53393e-06
0.00249013
1.4591e-06
0.00248943
1.36919e-06
0.00248879
1.25901e-06
0.00248822
1.11741e-06
0.00248774
9.37307e-07
0.00248738
6.94853e-07
0.00248716
3.97179e-07
0.00248715
-9.64693e-09
0.00248734
-4.37979e-07
0.00248784
-1.06122e-06
0.00248856
-1.49003e-06
0.0024897
-2.35596e-06
-2.59481e-06
0.00250271
-8.23578e-06
0.00251087
-2.47897e-05
0.00252481
-4.22321e-05
0.00254498
-6.08767e-05
0.0025719
-8.07597e-05
0.00260584
-0.000101202
0.00264668
-0.000120889
0.00269331
-0.000137159
0.00274363
-0.000147145
0.00279421
-0.000147606
0.00284095
-0.000136843
0.002881
-0.000117932
0.00291254
-9.37298e-05
0.00293487
-6.75258e-05
0.00294864
-4.30414e-05
0.00295566
-2.35045e-05
0.00295855
-1.09662e-05
0.00295989
-5.25722e-06
0.00296126
-3.51223e-06
0.00296233
-6.26332e-07
0.00296052
9.30723e-06
0.00295154
3.06282e-05
0.002931
6.333e-05
0.00289659
0.000101873
0.00284932
0.000137385
0.0027933
0.000161368
0.00273468
0.000168109
0.00268035
0.000155149
0.00263717
0.000122549
0.00261135
7.21831e-05
0.00260799
7.69091e-06
0.00263027
-6.4793e-05
0.00267789
-0.00013493
0.00274489
-0.000187178
0.00281846
-0.000203642
0.00288105
-0.000172513
0.00291636
-9.76037e-05
0.00291594
6.06828e-07
0.00288149
9.54125e-05
0.00282204
0.000166653
0.00274923
0.000206055
0.002674
0.000214205
0.0026055
0.000195019
0.00255163
0.000151774
0.00252001
8.55237e-05
0.002519
-4.4456e-06
0.00255752
-0.000117894
0.00264243
-0.000247507
0.00277314
-0.000372275
0.00293589
-0.000456425
0.00310144
-0.000459857
0.00323118
-0.000360749
0.00329314
-0.000177549
0.00327741
3.37553e-05
0.00319846
0.000210099
0.00308441
0.000313762
0.00296273
0.00034287
0.00285221
0.000317757
0.00276242
0.000262268
0.00269695
0.000193603
0.00265651
0.00012117
0.00264063
4.97649e-05
0.00264773
-1.66359e-05
0.00267435
-7.23896e-05
0.00271434
-0.00011023
0.00275899
-0.000123619
0.0027986
-0.000110055
0.00282479
-7.33285e-05
0.00283276
-2.30236e-05
0.00282217
2.88304e-05
0.00279642
7.19752e-05
0.00276087
0.0001007
0.00272108
0.00011405
0.00268161
0.000114294
0.00264568
0.000105058
0.00261518
8.99615e-05
0.002591
7.19767e-05
0.00257328
5.32939e-05
0.00256169
3.54389e-05
0.00255555
1.94495e-05
0.00255396
6.03075e-06
0.00255588
-4.34031e-06
0.00256016
-1.1378e-05
0.00256561
-1.50111e-05
0.00257114
-1.54284e-05
0.00257579
-1.31011e-05
0.00257887
-8.74905e-06
0.00257999
-3.24603e-06
0.00257908
2.51439e-06
0.00257635
7.75298e-06
0.00257218
1.19043e-05
0.00256709
1.46587e-05
0.00256157
1.59506e-05
0.00255611
1.59085e-05
0.00255106
1.479e-05
0.00254668
1.29158e-05
0.00254312
1.06156e-05
0.00254039
8.18884e-06
0.00253847
5.88092e-06
0.00253723
3.87274e-06
0.00253654
2.27947e-06
0.00253622
1.15574e-06
0.00253611
5.04336e-07
0.00253607
2.86557e-07
0.00253596
4.33194e-07
0.0025357
8.55593e-07
0.00253522
1.45655e-06
0.0025345
2.14047e-06
0.00253354
2.82191e-06
0.00253238
3.43201e-06
0.00253104
3.92221e-06
0.00252959
4.26535e-06
0.00252808
4.45426e-06
0.00252656
4.4986e-06
0.00252506
4.42047e-06
0.00252363
4.24967e-06
0.00252228
4.01904e-06
0.00252102
3.76058e-06
0.00251985
3.50243e-06
0.00251876
3.26693e-06
0.00251774
3.06969e-06
0.00251677
2.91952e-06
0.00251583
2.81902e-06
0.00251491
2.76564e-06
0.00251399
2.75303e-06
0.00251306
2.77235e-06
0.00251211
2.81364e-06
0.00251115
2.86692e-06
0.00251017
2.92314e-06
0.00250916
2.97478e-06
0.00250815
3.01626e-06
0.00250712
3.04403e-06
0.00250609
3.05651e-06
0.00250506
3.05377e-06
0.00250403
3.03718e-06
0.00250301
3.00891e-06
0.00250201
2.97148e-06
0.00250102
2.92736e-06
0.00250005
2.87857e-06
0.00249909
2.82654e-06
0.00249815
2.77189e-06
0.00249722
2.71449e-06
0.00249632
2.6535e-06
0.00249544
2.58755e-06
0.00249458
2.51477e-06
0.00249374
2.433e-06
0.00249294
2.33924e-06
0.00249217
2.22979e-06
0.00249144
2.09801e-06
0.00249076
1.9363e-06
0.00249015
1.72858e-06
0.00248962
1.4644e-06
0.00248921
1.10953e-06
0.00248893
6.73577e-07
0.00248884
7.94336e-08
0.00248895
-5.48028e-07
0.00248935
-1.45724e-06
0.00248995
-2.08796e-06
0.00249094
-3.35072e-06
-3.7089e-06
0.00250264
-1.0873e-05
0.00251059
-3.27452e-05
0.00252425
-5.58937e-05
0.00254419
-8.08086e-05
0.00257104
-0.000107618
0.00260532
-0.000135481
0.00264711
-0.000162679
0.00269543
-0.000185476
0.00274812
-0.000199833
0.00280128
-0.000200764
0.00285011
-0.000185679
0.00289155
-0.000159371
0.00292363
-0.00012581
0.00294563
-8.95196e-05
0.00295829
-5.57057e-05
0.00296376
-2.89728e-05
0.00296516
-1.23666e-05
0.00296569
-5.78749e-06
0.0029674
-5.22396e-06
0.0029701
-3.32452e-06
0.00297079
8.61943e-06
0.00296419
3.72276e-05
0.00294477
8.27491e-05
0.0029095
0.000137142
0.00285942
0.000187468
0.00279922
0.000221562
0.00273579
0.00023154
0.00267669
0.000214253
0.00262927
0.00016997
0.00260026
0.00010119
0.00259545
1.24966e-05
0.00261899
-8.8332e-05
0.00267153
-0.000187465
0.00274723
-0.000262883
0.00283166
-0.000288064
0.0029039
-0.000244754
0.0029443
-0.00013801
0.00294309
1.82354e-06
0.00290314
0.000135358
0.00283597
0.000233826
0.00275529
0.000286736
0.002673
0.000296496
0.0025983
0.000269713
0.00253872
0.000211353
0.00250184
0.000122404
0.00249674
6.58776e-07
0.00253325
-0.000154402
0.00261829
-0.000332553
0.00275206
-0.000506037
0.00292434
-0.000628711
0.00310877
-0.000644287
0.00326174
-0.000513718
0.00333911
-0.000254919
0.00332277
5.00911e-05
0.00323003
0.000302848
0.00309811
0.000445677
0.00296194
0.000479042
0.00284269
0.000437007
0.00274889
0.000356064
0.00268224
0.000260254
0.00264222
0.000161192
0.00262803
6.39569e-05
0.00263834
-2.69502e-05
0.0026699
-0.000103951
0.00271621
-0.000156537
0.00276751
-0.000174922
0.00281261
-0.000155151
0.00284189
-0.000102606
0.00285008
-3.12112e-05
0.00283727
4.16369e-05
0.00280789
0.000101355
0.0027684
0.000140184
0.00272516
0.000157289
0.00268314
0.000156323
0.00264557
0.00014262
0.00261425
0.000121286
0.00258986
9.63704e-05
0.00257237
7.07787e-05
0.00256132
4.64929e-05
0.00255592
2.48448e-05
0.00255521
6.7395e-06
0.00255807
-7.20141e-06
0.00256329
-1.65936e-05
0.00256961
-2.13335e-05
0.00257586
-2.16735e-05
0.00258102
-1.82616e-05
0.00258437
-1.20977e-05
0.00258552
-4.39815e-06
0.00258444
3.59544e-06
0.00258138
1.08074e-05
0.00257682
1.64676e-05
0.00257131
2.01674e-05
0.00256542
2.18374e-05
0.00255966
2.1675e-05
0.0025544
2.00495e-05
0.0025499
1.74112e-05
0.0025463
1.42164e-05
0.00254362
1.0875e-05
0.00254178
7.71948e-06
0.00254066
4.99213e-06
0.00254009
2.8447e-06
0.0025399
1.3464e-06
0.00253991
4.96316e-07
0.00253996
2.37794e-07
0.00253992
4.73423e-07
0.00253969
1.08005e-06
0.00253923
1.92357e-06
0.00253849
2.8728e-06
0.00253751
3.81116e-06
0.00253629
4.64531e-06
0.0025349
5.31017e-06
0.0025334
5.77019e-06
0.00253184
6.0173e-06
0.00253027
6.06633e-06
0.00252874
5.94888e-06
0.00252728
5.70668e-06
0.00252592
5.38528e-06
0.00252465
5.02864e-06
0.00252348
4.67515e-06
0.00252239
4.355e-06
0.00252137
4.08901e-06
0.0025204
3.88862e-06
0.00251946
3.7568e-06
0.00251854
3.68956e-06
0.00251761
3.67774e-06
0.00251668
3.709e-06
0.00251572
3.7695e-06
0.00251474
3.84557e-06
0.00251374
3.92484e-06
0.00251272
3.99714e-06
0.00251168
4.05501e-06
0.00251063
4.09382e-06
0.00250957
4.11158e-06
0.00250852
4.10863e-06
0.00250747
4.08698e-06
0.00250643
4.04976e-06
0.0025054
4.00053e-06
0.00250438
3.9427e-06
0.00250338
3.87912e-06
0.0025024
3.81173e-06
0.00250143
3.74139e-06
0.00250048
3.66793e-06
0.00249954
3.59018e-06
0.00249862
3.50624e-06
0.00249772
3.41356e-06
0.00249685
3.30914e-06
0.002496
3.18893e-06
0.00249518
3.048e-06
0.0024944
2.87774e-06
0.00249367
2.66831e-06
0.002493
2.39937e-06
0.0024924
2.05728e-06
0.00249191
1.59919e-06
0.00249155
1.03605e-06
0.00249136
2.71972e-07
0.00249135
-5.38123e-07
0.00249159
-1.70421e-06
0.00249203
-2.5218e-06
0.00249282
-4.13926e-06
-4.61209e-06
0.00250253
-1.34074e-05
0.00251019
-4.04054e-05
0.00252344
-6.91438e-05
0.00254299
-0.000100352
0.00256969
-0.000134324
0.00260435
-0.000170134
0.00264737
-0.000205702
0.00269796
-0.000236071
0.00275397
-0.000255843
0.00281077
-0.000257556
0.00286251
-0.00023742
0.00290584
-0.0002027
0.00293863
-0.00015861
0.00296011
-0.000110997
0.00297117
-6.67659e-05
0.00297438
-3.21799e-05
0.0029736
-1.15891e-05
0.00297292
-5.10191e-06
0.00297509
-7.4006e-06
0.00298015
-8.3862e-06
0.00298451
4.25916e-06
0.00298146
4.02825e-05
0.00296375
0.000100459
0.00292732
0.000173575
0.00287329
0.000241498
0.00280725
0.000287601
0.00273716
0.000301629
0.00267147
0.000279943
0.00261819
0.000223253
0.00258467
0.000134708
0.00257761
1.95605e-05
0.00260254
-0.000113265
0.00266167
-0.000246594
0.00274958
-0.000350799
0.00284954
-0.000388022
0.0029357
-0.000330912
0.00298337
-0.000185682
0.00298081
4.38249e-06
0.00293282
0.000183353
0.00285463
0.000312011
0.00276303
0.00037834
0.00267121
0.000388315
0.00258826
0.00035266
0.00252116
0.000278455
0.0024775
0.000166067
0.00246624
1.19154e-05
0.00249492
-0.000183085
0.00256797
-0.000405595
0.00268908
-0.000627152
0.00285824
-0.000797867
0.00305831
-0.000844363
0.003245
-0.000700401
0.00335893
-0.000368854
0.00336213
4.68905e-05
0.00326524
0.000399738
0.00311512
0.000595797
0.00296017
0.000633996
0.0028287
0.000568475
0.00272941
0.00045535
0.00266143
0.000328241
0.0026222
0.000200416
0.0026104
7.57558e-05
0.00262518
-4.17274e-05
0.00266376
-0.000142527
0.00271918
-0.000211967
0.00278005
-0.000235783
0.00283285
-0.000207959
0.0028662
-0.000135953
0.0028743
-3.93092e-05
0.00285802
5.79203e-05
0.0028233
0.000136072
0.0027782
0.000185287
0.00273016
0.000205325
0.00268465
0.000201837
0.00264493
0.000182336
0.00261257
0.000153651
0.00258796
0.000120971
0.00257086
8.78824e-05
0.00256059
5.67646e-05
0.00255624
2.91913e-05
0.00255675
6.23171e-06
0.00256091
-1.13614e-05
0.00256742
-2.31011e-05
0.00257493
-2.88419e-05
0.00258215
-2.88987e-05
0.002588
-2.41141e-05
0.00259171
-1.58044e-05
0.00259289
-5.57665e-06
0.00259155
4.93257e-06
0.00258804
1.43178e-05
0.00258292
2.15909e-05
0.00257684
2.62494e-05
0.00257043
2.82395e-05
0.00256426
2.78516e-05
0.00255872
2.55917e-05
0.00255407
2.20601e-05
0.00255043
1.78546e-05
0.0025478
1.35047e-05
0.00254608
9.43394e-06
0.00254513
5.94627e-06
0.00254475
3.22779e-06
0.00254473
1.35855e-06
0.0025449
3.29485e-07
0.00254508
6.12988e-08
0.00254513
4.23703e-07
0.00254495
1.25458e-06
0.0025445
2.37896e-06
0.00254374
3.62682e-06
0.00254271
4.84812e-06
0.00254143
5.92386e-06
0.00253997
6.77226e-06
0.00253839
7.35018e-06
0.00253675
7.65008e-06
0.00253513
7.69381e-06
0.00253355
7.52444e-06
0.00253206
7.19748e-06
0.00253067
6.77272e-06
0.00252939
6.30726e-06
0.00252822
5.85039e-06
0.00252713
5.44047e-06
0.00252612
5.10346e-06
0.00252515
4.85312e-06
0.00252422
4.69231e-06
0.00252329
4.61497e-06
0.00252236
4.60861e-06
0.00252141
4.65678e-06
0.00252044
4.74136e-06
0.00251944
4.84458e-06
0.00251842
4.95056e-06
0.00251737
5.0464e-06
0.0025163
5.12273e-06
0.00251522
5.1739e-06
0.00251413
5.19773e-06
0.00251305
5.19495e-06
0.00251197
5.16848e-06
0.00251089
5.12255e-06
0.00250983
5.06193e-06
0.00250878
4.99115e-06
0.00250775
4.91391e-06
0.00250673
4.83273e-06
0.00250572
4.74875e-06
0.00250473
4.66172e-06
0.00250375
4.57012e-06
0.00250278
4.47147e-06
0.00250183
4.36246e-06
0.0025009
4.23917e-06
0.0025
4.09647e-06
0.00249912
3.92814e-06
0.00249827
3.7238e-06
0.00249747
3.47153e-06
0.00249672
3.14754e-06
0.00249604
2.73526e-06
0.00249545
2.18538e-06
0.00249498
1.50884e-06
0.00249466
5.96727e-07
0.00249449
-3.75245e-07
0.00249455
-1.76032e-06
0.00249477
-2.74588e-06
0.00249529
-4.66051e-06
-5.24268e-06
0.00250239
-1.58005e-05
0.00250965
-4.76578e-05
0.00252231
-8.18099e-05
0.00254127
-0.000119307
0.00256765
-0.000160709
0.00260264
-0.000205127
0.00264714
-0.000250195
0.00270064
-0.000289571
0.00276107
-0.000316278
0.00282273
-0.000319215
0.00287828
-0.000292968
0.00292406
-0.00024848
0.00295778
-0.000192331
0.00297855
-0.000131764
0.00298741
-7.5631e-05
0.00298747
-3.22398e-05
0.00298359
-7.70475e-06
0.00298106
-2.57729e-06
0.00298372
-1.00583e-05
0.00299197
-1.66377e-05
0.00300148
-5.24579e-06
0.00300351
3.82482e-05
0.00298838
0.00011559
0.00295055
0.000211406
0.00289132
0.000300732
0.00281756
0.000361355
0.00273875
0.00038044
0.00266448
0.000354216
0.00260351
0.000284223
0.00256389
0.000174326
0.00255339
3.00623e-05
0.00257954
-0.000139416
0.00264728
-0.000314337
0.0027523
-0.000455818
0.00287414
-0.00050986
0.00297922
-0.000435996
0.00303598
-0.000242442
0.00303067
9.69411e-06
0.00297117
0.000242851
0.00287804
0.000405138
0.00277218
0.000484204
0.00266831
0.000492181
0.00257515
0.000445821
0.00249905
0.000354555
0.00244701
0.000218113
0.00242452
3.4405e-05
0.00243359
-0.000192156
0.00248065
-0.000452653
0.00258172
-0.000728222
0.00274671
-0.00096286
0.00295951
-0.00105717
0.00317508
-0.000915965
0.00332994
-0.000523714
0.00336975
7.07702e-06
0.00328735
0.000482142
0.00312886
0.000754286
0.00295621
0.000806645
0.0028103
0.000714384
0.00270384
0.000561812
0.0026341
0.000397977
0.00259597
0.000238549
0.00258725
8.44738e-05
0.00260773
-6.22043e-05
0.00265525
-0.000190046
0.00272231
-0.000279029
0.00279555
-0.000309021
0.00285864
-0.000271054
0.00289761
-0.000174922
0.00290568
-4.73747e-05
0.00288467
7.89279e-05
0.0028427
0.000178041
0.00279007
0.000237911
0.00273577
0.000259632
0.00268583
0.000251773
0.00264348
0.000224684
0.00260992
0.00018721
0.00258517
0.000145722
0.00256864
0.000104418
0.00255941
6.5988e-05
0.00255643
3.21719e-05
0.00255851
4.15687e-06
0.00256434
-1.7189e-05
0.0025725
-3.12673e-05
0.00258153
-3.78735e-05
0.00259002
-3.73809e-05
0.00259675
-3.08475e-05
0.0026009
-1.99554e-05
0.00260209
-6.76728e-06
0.0026004
6.62319e-06
0.00259628
1.84369e-05
0.00259042
2.74508e-05
0.00258359
3.30778e-05
0.00257653
3.53054e-05
0.00256983
3.45504e-05
0.00256393
3.14881e-05
0.0025591
2.68953e-05
0.00255542
2.15302e-05
0.00255287
1.60528e-05
0.00255133
1.09823e-05
0.00255059
6.68427e-06
0.00255044
3.37566e-06
0.00255066
1.14233e-06
0.00255102
-3.87843e-08
0.00255136
-2.75712e-07
0.00255152
2.62441e-07
0.00255141
1.36898e-06
0.00255096
2.82303e-06
0.00255018
4.41167e-06
0.00254908
5.94858e-06
0.00254771
7.2876e-06
0.00254616
8.33017e-06
0.00254448
9.02661e-06
0.00254276
9.37183e-06
0.00254106
9.39711e-06
0.00253942
9.15951e-06
0.00253789
8.73071e-06
0.00253647
8.18665e-06
0.00253518
7.59896e-06
0.002534
7.02875e-06
0.00253292
6.52282e-06
0.00253191
6.11218e-06
0.00253095
5.81248e-06
0.00253002
5.62576e-06
0.00252909
5.54321e-06
0.00252815
5.54821e-06
0.00252719
5.61954e-06
0.0025262
5.73421e-06
0.00252517
5.86995e-06
0.00252411
6.00711e-06
0.00252303
6.12989e-06
0.00252193
6.22708e-06
0.00252081
6.29213e-06
0.00251968
6.32284e-06
0.00251856
6.32059e-06
0.00251744
6.28943e-06
0.00251632
6.23498e-06
0.00251522
6.1634e-06
0.00251413
6.08045e-06
0.00251306
5.99085e-06
0.00251199
5.89773e-06
0.00251094
5.80251e-06
0.00250989
5.70485e-06
0.00250886
5.60286e-06
0.00250784
5.49341e-06
0.00250683
5.37235e-06
0.00250583
5.23476e-06
0.00250486
5.07437e-06
0.0025039
4.88364e-06
0.00250297
4.65061e-06
0.00250208
4.36144e-06
0.00250124
3.98981e-06
0.00250046
3.51646e-06
0.00249976
2.88822e-06
0.00249915
2.11443e-06
0.00249867
1.08018e-06
0.00249832
-2.92156e-08
0.00249815
-1.58727e-06
0.00249812
-2.71892e-06
0.00249832
-4.85737e-06
-5.54546e-06
0.00250221
-1.80057e-05
0.00250891
-5.4365e-05
0.00252078
-9.3673e-05
0.00253887
-0.000137402
0.00256467
-0.000186506
0.00259986
-0.000240318
0.00264598
-0.000296318
0.00270305
-0.000346637
0.00276923
-0.000382461
0.00283725
-0.000387234
0.00289763
-0.000353346
0.00294645
-0.000297301
0.00298126
-0.00022714
0.00300102
-0.00015152
0.00300692
-8.15339e-05
0.00300273
-2.80497e-05
0.00299461
4.15236e-07
0.00298951
2.52161e-06
0.00299271
-1.3262e-05
0.00300525
-2.91768e-05
0.00302185
-2.18401e-05
0.00303098
2.91114e-05
0.00301954
0.000127036
0.00297997
0.000250975
0.00291395
0.000366754
0.00283024
0.000445059
0.00274036
0.000470319
0.00265531
0.000439268
0.00258464
0.000354891
0.00253701
0.000221953
0.00252138
4.56956e-05
0.00254841
-0.000166445
0.00262785
-0.000393778
0.0027573
-0.000585263
0.00291024
-0.000662808
0.00304081
-0.000566557
0.00310759
-0.000309225
0.00309583
2.14531e-05
0.00301926
0.000319417
0.00290603
0.000518372
0.00278215
0.000608088
0.00266374
0.000610586
0.00255879
0.000550775
0.00247269
0.000440651
0.00240932
0.00028149
0.00236695
7.67746e-05
0.00234675
-0.000171965
0.00237081
-0.000476705
0.0024705
-0.000827911
0.00265003
-0.00114239
0.00287703
-0.00128417
0.00310281
-0.00114175
0.00327462
-0.000695523
0.00334162
-5.99158e-05
0.00328196
0.000541803
0.00312821
0.000908033
0.0029455
0.000989354
0.00278671
0.000873175
0.00267227
0.000676246
0.00260013
0.000470121
0.00256309
0.000275587
0.00255783
8.97381e-05
0.00258396
-8.83407e-05
0.00263903
-0.000245109
0.00271546
-0.000355457
0.00280042
-0.000393984
0.00287669
-0.000347321
0.00292652
-0.000224756
0.00293908
-5.99341e-05
0.00291524
0.000102764
0.00286553
0.000227758
0.00280379
0.000299643
0.00274167
0.000321753
0.00268631
0.000307138
0.00264087
0.000270122
0.00260604
0.000222043
0.00258127
0.000170488
0.00256555
0.000120141
0.00255768
7.38582e-05
0.0025564
3.34459e-05
0.00256041
1.48296e-07
0.00256829
-2.50672e-05
0.0025785
-4.14733e-05
0.0025894
-4.87789e-05
0.00259943
-4.74049e-05
0.00260723
-3.86516e-05
0.0026119
-2.46295e-05
0.00261308
-7.94124e-06
0.00261092
8.78271e-06
0.00260602
2.3335e-05
0.00259923
3.42389e-05
0.00259147
4.08355e-05
0.00258359
4.31883e-05
0.00257626
4.18838e-05
0.00256994
3.78071e-05
0.00256489
3.19446e-05
0.00256118
2.52375e-05
0.00255875
1.84893e-05
0.00255741
1.23197e-05
0.00255694
7.15427e-06
0.00255708
3.23634e-06
0.00255757
6.50732e-07
0.00255818
-6.47104e-07
0.0025587
-8.0137e-07
0.00255899
-2.72191e-08
0.00255894
1.41738e-06
0.00255851
3.25976e-06
0.00255768
5.23937e-06
0.0025565
7.13035e-06
0.00255503
8.75778e-06
0.00255335
1.00063e-05
0.00255156
1.08211e-05
0.00254973
1.1202e-05
0.00254793
1.11925e-05
0.00254622
1.08669e-05
0.00254464
1.03157e-05
0.00254319
9.63334e-06
0.00254188
8.9077e-06
0.0025407
8.21259e-06
0.00253962
7.6036e-06
0.00253862
7.11658e-06
0.00253766
6.76845e-06
0.00253673
6.55968e-06
0.00253579
6.47774e-06
0.00253484
6.50103e-06
0.00253386
6.60274e-06
0.00253283
6.75437e-06
0.00253178
6.9287e-06
0.00253068
7.10197e-06
0.00252956
7.25542e-06
0.00252841
7.376e-06
0.00252724
7.45644e-06
0.00252607
7.49474e-06
0.0025249
7.49324e-06
0.00252373
7.45741e-06
0.00252257
7.3945e-06
0.00252142
7.31229e-06
0.00252028
7.21797e-06
0.00251916
7.11735e-06
0.00251804
7.01426e-06
0.00251693
6.9104e-06
0.00251583
6.80533e-06
0.00251474
6.69676e-06
0.00251365
6.58085e-06
0.00251257
6.45253e-06
0.0025115
6.30582e-06
0.00251044
6.13323e-06
0.0025094
5.92589e-06
0.00250838
5.67044e-06
0.00250739
5.3513e-06
0.00250644
4.9406e-06
0.00250554
4.41665e-06
0.0025047
3.72521e-06
0.00250394
2.87239e-06
0.00250328
1.74518e-06
0.00250272
5.25903e-07
0.00250229
-1.15204e-06
0.00250198
-2.40603e-06
0.0025018
-4.67907e-06
-5.47467e-06
0.00250196
-1.99674e-05
0.00250796
-6.03613e-05
0.00251874
-0.000104459
0.00253562
-0.000154276
0.00256043
-0.000211318
0.00259553
-0.000275419
0.00264333
-0.000344113
0.00270465
-0.000407959
0.00277822
-0.000456032
0.00285445
-0.00046346
0.00292082
-0.000419723
0.00297337
-0.000349846
0.00300952
-0.000263293
0.00302799
-0.000169991
0.00303002
-8.3564e-05
0.00302011
-1.81374e-05
0.0030061
1.44243e-05
0.00299718
1.14403e-05
0.00300073
-1.68148e-05
0.00301882
-4.72665e-05
0.00304505
-4.80715e-05
0.00306411
1.00539e-05
0.00305803
0.000133122
0.0030165
0.000292506
0.00294184
0.000441408
0.00284556
0.000541342
0.00274192
0.00057396
0.00264364
0.000537544
0.00256101
0.000437527
0.00250301
0.000279955
0.00248022
6.8479e-05
0.00250776
-0.00019398
0.00259946
-0.000485479
0.00275406
-0.000739869
0.00294357
-0.000852318
0.00311133
-0.000734312
0.0031974
-0.000395297
0.0031791
3.97544e-05
0.00307894
0.000419581
0.00293857
0.000658738
0.00279203
0.000754626
0.00265671
0.000745911
0.00253909
0.000668393
0.00244196
0.000537776
0.00236227
0.000361182
0.00229287
0.000146173
0.00224798
-0.000127076
0.00227264
-0.000501356
0.00239744
-0.000952719
0.00260219
-0.00134713
0.00283708
-0.00151907
0.00305527
-0.00135994
0.00321858
-0.000858827
0.00329034
-0.000131683
0.00324653
0.000585613
0.0031046
0.00104997
0.00292169
0.00117226
0.00275559
0.00103927
0.00263454
0.000797304
0.00255972
0.000544938
0.00252343
0.000311875
0.00252035
9.28183e-05
0.00254697
-0.000114959
0.00259864
-0.000296778
0.00267096
-0.00042778
0.00275902
-0.000482045
0.00285049
-0.000438794
0.00292315
-0.000297412
0.00295537
-9.21543e-05
0.00294029
0.000117845
0.00288841
0.000279635
0.00281861
0.000369451
0.00274774
0.000392619
0.00268586
0.000369014
0.00263676
0.000319224
0.00260057
0.000258235
0.00257598
0.000195074
0.00256139
0.000134734
0.00255523
8.00191e-05
0.00255603
3.26448e-05
0.00256235
-6.17011e-06
0.00257266
-3.53769e-05
0.00258528
-5.40906e-05
0.00259839
-6.18933e-05
0.00261022
-5.92376e-05
0.00261927
-4.76973e-05
0.00262453
-2.98899e-05
0.00262565
-9.05977e-06
0.0026229
1.15304e-05
0.00261705
2.9182e-05
0.00260915
4.21424e-05
0.00260029
4.96987e-05
0.00259144
5.20332e-05
0.00258337
4.99544e-05
0.00257657
4.46072e-05
0.00257129
3.72272e-05
0.00256756
2.89652e-05
0.00256527
2.07824e-05
0.00256418
1.34032e-05
0.00256403
7.31092e-06
0.0025645
2.76799e-06
0.0025653
-1.50711e-07
0.00256617
-1.52044e-06
0.0025669
-1.53056e-06
0.00256732
-4.50577e-07
0.00256734
1.40291e-06
0.0025669
3.6992e-06
0.00256601
6.12519e-06
0.00256473
8.41215e-06
0.00256313
1.03549e-05
0.00256132
1.18213e-05
0.00255939
1.27532e-05
0.00255743
1.3158e-05
0.00255553
1.3095e-05
0.00255374
1.26589e-05
0.00255209
1.19624e-05
0.0025506
1.11209e-05
0.00254927
1.02403e-05
0.00254807
9.40798e-06
0.00254699
8.68861e-06
0.00254598
8.12254e-06
0.00254502
7.72726e-06
0.00254408
7.50072e-06
0.00254313
7.42567e-06
0.00254216
7.47454e-06
0.00254115
7.6141e-06
0.00254009
7.80967e-06
0.00253899
8.0286e-06
0.00253785
8.2428e-06
0.00253668
8.43044e-06
0.00253548
8.57671e-06
0.00253426
8.67378e-06
0.00253304
8.72014e-06
0.00253181
8.71938e-06
0.00253059
8.67868e-06
0.00252938
8.60719e-06
0.00252817
8.51455e-06
0.00252698
8.40953e-06
0.0025258
8.29913e-06
0.00252463
8.18795e-06
0.00252346
8.07799e-06
0.00252229
7.96873e-06
0.00252113
7.85739e-06
0.00251998
7.73942e-06
0.00251882
7.6088e-06
0.00251767
7.4584e-06
0.00251652
7.27952e-06
0.00251538
7.06191e-06
0.00251426
6.79101e-06
0.00251317
6.44971e-06
0.0025121
6.00952e-06
0.00251107
5.44667e-06