/*--------------------------------*- C++ -*----------------------------------*\
  =========                 |
  \\      /  F ield         | OpenFOAM: The Open Source CFD Toolbox
   \\    /   O peration     | Website:  https://openfoam.org
    \\  /    A nd           | Version:  11
     \\/     M anipulation  |
\*---------------------------------------------------------------------------*/
FoamFile
{
    format      ascii;
    class       surfaceScalarField;
    location    "17.562183";
    object      phi;
}
// * * * * * * * * * * * * * * * * * * * * * * * * * * * * * * * * * * * * * //

dimensions      [0 3 -1 0 0 0 0];

internalField   nonuniform List<scalar> 
14638
(
0.00250205
-2.05171e-06
0.0025084
-6.34825e-06
0.00251958
-1.11793e-05
0.00253623
-1.6651e-05
0.00255894
-2.27103e-05
0.00258793
-2.89855e-05
0.00262278
-3.48567e-05
0.00266203
-3.9243e-05
0.00270305
-4.10256e-05
0.00274205
-3.9001e-05
0.00277458
-3.25283e-05
0.00279683
-2.22489e-05
0.00280599
-9.15894e-06
0.00280051
5.47553e-06
0.00278069
1.98248e-05
0.00274922
3.1467e-05
0.00271114
3.80811e-05
0.00267284
3.83011e-05
0.00264093
3.19078e-05
0.00262107
1.98626e-05
0.00261683
4.23438e-06
0.00262871
-1.18791e-05
0.00265318
-2.44706e-05
0.00268266
-2.94798e-05
0.00270727
-2.46015e-05
0.00271819
-1.09264e-05
0.00271082
7.37465e-06
0.00268562
2.51929e-05
0.00264702
3.86055e-05
0.00260146
4.55585e-05
0.00255605
4.5407e-05
0.00251784
3.82106e-05
0.00249347
2.43678e-05
0.00248867
4.80221e-06
0.00250703
-1.83604e-05
0.00254794
-4.09102e-05
0.00260465
-5.6702e-05
0.00266449
-5.98496e-05
0.00271255
-4.80593e-05
0.00273704
-2.44881e-05
0.00273332
3.7203e-06
0.00270429
2.90292e-05
0.00265777
4.65178e-05
0.00260324
5.45349e-05
0.00254974
5.35007e-05
0.00250535
4.43887e-05
0.0024774
2.79514e-05
0.00247234
5.06031e-06
0.00249439
-2.20493e-05
0.00254288
-4.84946e-05
0.00260996
-6.70788e-05
0.00268096
-7.1002e-05
0.00273856
-5.75937e-05
0.00276888
-3.0319e-05
0.00276622
2.65657e-06
0.00273391
3.23125e-05
0.00268148
5.24311e-05
0.00262054
6.09393e-05
0.00256175
5.87891e-05
0.00251384
4.79073e-05
0.00248403
2.98077e-05
0.00247833
5.69837e-06
0.00250046
-2.21295e-05
0.00254941
-4.89501e-05
0.00261739
-6.79715e-05
0.00269019
-7.28069e-05
0.00275089
-6.06938e-05
0.0027852
-3.43157e-05
0.00278616
-9.55066e-07
0.00275569
3.04669e-05
0.0027029
5.27933e-05
0.00264018
6.27116e-05
0.00257957
6.06177e-05
0.00253072
4.88492e-05
0.00250089
2.98254e-05
0.00249534
5.55272e-06
0.00251665
-2.13082e-05
0.00256291
-4.62661e-05
0.00262634
-6.3425e-05
0.00269398
-6.76439e-05
0.00275098
-5.69965e-05
0.00278485
-3.38685e-05
0.00278897
-4.12581e-06
0.00276401
2.49599e-05
0.002717
4.70145e-05
0.00265879
5.82118e-05
0.00260106
5.77238e-05
0.00255409
4.69768e-05
0.00252569
2.83928e-05
0.00252096
4.72989e-06
0.0025415
-2.05389e-05
0.00258428
-4.2774e-05
0.00264115
-5.68736e-05
0.00270024
-5.90873e-05
0.00274895
-4.87087e-05
0.0027774
-2.84531e-05
0.00278078
-3.3816e-06
0.00275995
2.08298e-05
0.00272053
3.94258e-05
0.00267111
4.94141e-05
0.00262141
4.97008e-05
0.00258063
4.07848e-05
0.00255628
2.43461e-05
0.0025532
3.08133e-06
0.00257241
-1.92143e-05
0.00261032
-3.7911e-05
0.00265894
-4.8617e-05
0.00270765
-4.87117e-05
0.00274606
-3.84059e-05
0.00276669
-2.06308e-05
0.00276656
1.28875e-07
0.00274722
1.93412e-05
0.00271366
3.35642e-05
0.00267282
4.08365e-05
0.00263233
4.04851e-05
0.00259953
3.28e-05
0.00258059
1.89404e-05
0.00257948
1.11756e-06
0.00259677
-1.72945e-05
0.002629
-3.22288e-05
0.00266906
-4.0065e-05
0.00270799
-3.89259e-05
0.00273738
-2.93883e-05
0.00275157
-1.41954e-05
0.00274876
2.81358e-06
0.00273079
1.797e-05
0.00270212
2.86687e-05
0.00266853
3.35907e-05
0.00263611
3.2419e-05
0.00261062
2.54895e-05
0.00259688
1.37455e-05
0.00259788
-1.00535e-06
0.00261383
-1.59514e-05
0.00264155
-2.77144e-05
0.00267491
-3.33625e-05
0.00270641
-3.14982e-05
0.00272921
-2.27988e-05
0.00273893
-9.7202e-06
0.0027345
4.42825e-06
0.00271794
1.65591e-05
0.00269338
2.45617e-05
0.0026659
2.74793e-05
0.00264067
2.52301e-05
0.00262242
1.82506e-05
0.002615
7.41543e-06
0.00262073
-5.73028e-06
0.00263955
-1.88121e-05
0.00266849
-2.8945e-05
0.00270208
-3.35937e-05
0.00273357
-3.14866e-05
0.00275676
-2.31934e-05
0.00276761
-1.08419e-05
0.00276514
2.46159e-06
0.00275129
1.38516e-05
0.0027302
2.10892e-05
0.0027069
2.32999e-05
0.00268617
2.07306e-05
0.00267345
1.27238e-05
0.0026681
5.35308e-06
-1.82011e-05
0.00250203
-4.08191e-06
0.00250832
-1.26387e-05
0.00251943
-2.22842e-05
0.00253602
-3.32502e-05
0.00255876
-4.54459e-05
0.00258792
-5.81414e-05
0.00262316
-7.01022e-05
0.00266305
-7.91268e-05
0.00270495
-8.2932e-05
0.00274494
-7.89842e-05
0.00277834
-6.5933e-05
0.00280124
-4.5154e-05
0.00281075
-1.86596e-05
0.00280517
1.10485e-05
0.00278471
4.02915e-05
0.00275208
6.40908e-05
0.00271252
7.76462e-05
0.00267266
7.81531e-05
0.00263942
6.51576e-05
0.00261869
4.0588e-05
0.00261433
8.59395e-06
0.00262702
-2.45657e-05
0.0026532
-5.06489e-05
0.00268487
-6.11596e-05
0.00271147
-5.11959e-05
0.00272355
-2.30033e-05
0.00271624
1.46844e-05
0.00269019
5.12353e-05
0.00265018
7.86203e-05
0.00260296
9.27792e-05
0.00255582
9.25451e-05
0.00251593
7.81014e-05
0.00249011
5.01876e-05
0.00248443
1.04861e-05
0.00250296
-3.68948e-05
0.00254546
-8.34142e-05
0.00260504
-0.000116274
0.00266824
-0.000123048
0.002719
-9.88269e-05
0.00274473
-5.02177e-05
0.00274064
7.81084e-06
0.00271008
5.9595e-05
0.00266149
9.51075e-05
0.0026048
0.000111225
0.00254924
0.000109061
0.00250292
9.07021e-05
0.00247332
5.7558e-05
0.00246727
1.11083e-05
0.00248959
-4.43708e-05
0.00254003
-9.89351e-05
0.00261053
-0.000137575
0.00268547
-0.000145947
0.00274624
-0.000118359
0.00277798
-6.20663e-05
0.00277481
5.82854e-06
0.00274055
6.65773e-05
0.00268554
0.000107442
0.00262204
0.000124437
0.00256098
0.000119849
0.00251105
9.78319e-05
0.00247943
6.14339e-05
0.0024723
1.28298e-05
0.00249385
-4.36794e-05
0.00254356
-9.86634e-05
0.00261376
-0.000138176
0.00268981
-0.000148857
0.00275384
-0.000124716
0.00279058
-7.10573e-05
0.00279244
-2.81333e-06
0.00276131
6.15967e-05
0.00270673
0.000107371
0.00264172
0.000127714
0.00257877
0.000123568
0.00252776
9.98639e-05
0.00249606
6.15256e-05
0.0024892
1.24076e-05
0.00251023
-4.23299e-05
0.00255751
-9.35462e-05
0.00262305
-0.000128968
0.00269326
-0.000137852
0.0027525
-0.00011624
0.00278779
-6.91607e-05
0.00279238
-8.70888e-06
0.00276702
5.03172e-05
0.00271898
9.50572e-05
0.00265933
0.000117853
0.00259998
0.000117082
0.00255137
9.55869e-05
0.00252165
5.81058e-05
0.00251636
1.00223e-05
0.00253749
-4.16689e-05
0.00258204
-8.73205e-05
0.00264137
-0.000116205
0.00270278
-0.000120499
0.00275296
-9.8886e-05
0.00278173
-5.72226e-05
0.00278443
-6.08459e-06
0.00276233
4.29326e-05
0.00272144
8.03172e-05
0.00267062
0.00010023
0.0026197
0.000100624
0.00257796
8.25166e-05
0.00255316
4.91554e-05
0.0025504
5.83365e-06
0.00257094
-3.97556e-05
0.00261103
-7.79963e-05
0.00266211
-9.96952e-05
0.00271282
-9.94281e-05
0.0027522
-7.77798e-05
0.00277258
-4.10118e-05
0.0027712
1.50751e-06
0.00275005
4.0489e-05
0.00271459
6.90298e-05
0.00267209
8.33311e-05
0.00263038
8.21925e-05
0.00259693
6.62592e-05
0.00257804
3.78281e-05
0.00257783
1.32073e-06
0.00259691
-3.6368e-05
0.00263149
-6.68091e-05
0.00267391
-8.24861e-05
0.00271456
-7.95789e-05
0.00274461
-5.94354e-05
0.0027583
-2.78888e-05
0.00275406
7.06074e-06
0.00273413
3.78947e-05
0.00270342
5.93787e-05
0.00266805
6.89583e-05
0.00263437
6.61055e-05
0.0026083
5.15527e-05
0.00259484
2.72126e-05
0.00259706
-3.22836e-06
0.00261507
-3.39563e-05
0.00264529
-5.79422e-05
0.00268105
-6.91151e-05
0.00271422
-6.46728e-05
0.0027376
-4.61787e-05
0.00274674
-1.88641e-05
0.0027408
1.0368e-05
0.00272218
3.51812e-05
0.00269542
5.13235e-05
0.00266596
5.69398e-05
0.00263925
5.19447e-05
0.00262024
3.72595e-05
0.00261298
1.46674e-05
0.0026199
-1.26491e-05
0.00264083
-3.97356e-05
0.00267243
-6.05495e-05
0.00270865
-6.98142e-05
0.00274213
-6.49668e-05
0.00276626
-4.73239e-05
0.00277686
-2.14383e-05
0.00277312
6.20291e-06
0.00275728
2.96865e-05
0.0027339
4.44696e-05
0.00270833
4.88687e-05
0.00268572
4.33478e-05
0.00267154
2.68968e-05
0.00266562
1.12742e-05
-3.69413e-05
0.00250199
-6.06844e-06
0.00250816
-1.88088e-05
0.00251911
-3.32364e-05
0.0025356
-4.97401e-05
0.00255838
-6.82261e-05
0.00258787
-8.76333e-05
0.00262389
-0.000106126
0.00266507
-0.000120301
0.00270876
-0.000126621
0.00275072
-0.000120947
0.00278587
-0.000101078
0.00281004
-6.93293e-05
0.00282016
-2.87841e-05
0.00281433
1.68802e-05
0.00279252
6.21034e-05
0.00275754
9.90764e-05
0.00271499
0.000120194
0.00267207
0.000121069
0.00263624
0.000100988
0.00261396
6.28682e-05
0.00260957
1.29813e-05
0.00262412
-3.91102e-05
0.00265393
-8.04637e-05
0.00269014
-9.73653e-05
0.00272066
-8.17162e-05
0.00273475
-3.70916e-05
0.00272711
2.23218e-05
0.00269888
7.94627e-05
0.00265567
0.000121835
0.00260493
0.000143522
0.00255433
0.000143138
0.00251128
0.000121156
0.00248291
7.85585e-05
0.00247593
1.74679e-05
0.00249535
-5.63212e-05
0.00254163
-0.000129688
0.00260744
-0.000182086
0.00267755
-0.000193159
0.00273352
-0.000154803
0.00276112
-7.78137e-05
0.00275544
1.34902e-05
0.00272097
9.40624e-05
0.00266764
0.000148441
0.00260637
0.000172498
0.00254674
0.000168689
0.0024969
0.000140544
0.00246444
9.0016e-05
0.00245676
1.8785e-05
0.00247957
-6.71768e-05
0.0025334
-0.000152772
0.00261022
-0.000214388
0.00269302
-0.000228745
0.00276059
-0.000185934
0.00279567
-9.71425e-05
0.0027915
9.99865e-06
0.00275293
0.000105144
0.00269224
0.000168128
0.00262331
0.000193369
0.00255771
0.000185447
0.00250402
0.000151528
0.00246912
9.63357e-05
0.00245945
2.24991e-05
0.0024801
-6.43351e-05
0.00253154
-0.000150104
0.00260624
-0.000212869
0.00268847
-0.000231091
0.00275858
-0.000194829
0.0027996
-0.000112079
0.00280289
-6.103e-06
0.00277029
9.41969e-05
0.00271217
0.000165495
0.00264272
0.00019716
0.00257537
0.000190924
0.00252047
0.000154761
0.00248578
9.62219e-05
0.00247747
2.07103e-05
0.00249942
-6.42737e-05
0.00255023
-0.000144357
0.00262101
-0.000199754
0.00269647
-0.000213303
0.00275936
-0.000179131
0.00279597
-0.000105775
0.00279975
-1.2483e-05
0.00277213
7.79334e-05
0.00272109
0.000146091
0.00265825
0.000180702
0.00259579
0.000179541
0.00254452
0.000146853
0.00251319
8.94406e-05
0.00250812
1.50906e-05
0.00253187
-6.54268e-05
0.00258114
-0.00013659
0.00264599
-0.000181052
0.00271197
-0.000186475
0.0027644
-0.000151322
0.00279271
-8.55278e-05
0.00279276
-6.13476e-06
0.00276687
6.88253e-05
0.00272208
0.000125107
0.00266791
0.000154393
0.00261448
0.000154057
0.00257127
0.000125723
0.00254638
7.40462e-05
0.0025454
6.81978e-06
0.00256967
-6.40311e-05
0.00261484
-0.000123167
0.00267106
-0.000155914
0.00272552
-0.000153885
0.00276623
-0.00011849
0.00278534
-6.01201e-05
0.00278064
6.20729e-06
0.00275512
6.60059e-05
0.00271527
0.000108884
0.00266912
0.000129473
0.00262495
0.000126364
0.00259049
0.000100718
0.00257234
5.5985e-05
0.00257476
-1.09935e-06
0.00259812
-5.97272e-05
0.00263783
-0.000106523
0.002685
-0.000129651
0.00272879
-0.000123376
0.00275965
-9.02903e-05
0.00277176
-3.99992e-05
0.00276409
1.47311e-05
0.00273979
6.21924e-05
0.00270468
9.4489e-05
0.00266563
0.000108013
0.00262948
0.000102247
0.00260258
7.84592e-05
0.00259016
3.96308e-05
0.00259538
-8.44749e-06
0.00261794
-5.65149e-05
0.00265337
-9.33724e-05
0.00269376
-0.000109511
0.00272992
-0.000100832
0.002754
-7.02579e-05
0.00276154
-2.64069e-05
0.00275221
1.96996e-05
0.00272921
5.81809e-05
0.00269794
8.26e-05
0.00266455
9.03299e-05
0.00263505
8.14405e-05
0.00261487
5.74449e-05
0.00260839
2.11436e-05
0.00261813
-2.23899e-05
0.00264356
-6.51635e-05
0.00268048
-9.74668e-05
0.00272164
-0.000110983
0.00275861
-0.000101937
0.00278409
-7.27996e-05
0.00279375
-3.10982e-05
0.00278715
1.27988e-05
0.00276721
4.96332e-05
0.00273927
7.24054e-05
0.0027093
7.88412e-05
0.00268323
6.94141e-05
0.00266649
4.36367e-05
0.00266015
1.76159e-05
-5.70649e-05
0.00250192
-7.98566e-06
0.00250789
-2.47863e-05
0.0025186
-4.39384e-05
0.00253489
-6.60353e-05
0.0025577
-9.10349e-05
0.00258766
-0.000117593
0.00262483
-0.000143298
0.00266796
-0.000163432
0.00271441
-0.000173066
0.00275945
-0.000165986
0.00279729
-0.000138917
0.00282345
-9.54921e-05
0.0028346
-3.99332e-05
0.00282842
2.30549e-05
0.00280454
8.59921e-05
0.00276585
0.000137762
0.00271864
0.000167406
0.00267095
0.000168752
0.00263112
0.000140825
0.0026064
8.7583e-05
0.00260193
1.7455e-05
0.00261935
-5.65309e-05
0.0026549
-0.000116011
0.00269829
-0.000140755
0.00273502
-0.000118445
0.0027522
-5.42713e-05
0.00274388
3.06361e-05
0.00271206
0.000111286
0.00266375
0.000170146
0.00260753
0.000199739
0.00255167
0.000199
0.00250383
0.000168994
0.00247158
0.000110811
0.00246261
2.6434e-05
0.00248355
-7.72565e-05
0.00253604
-0.000182184
0.00261207
-0.000258114
0.00269327
-0.000274358
0.00275724
-0.000218773
0.00278724
-0.000107818
0.00277847
2.22654e-05
0.00273741
0.00013512
0.00267641
0.000209436
0.00260801
0.000240907
0.00254227
0.000234426
0.0024872
0.000195615
0.00245021
0.000127002
0.00243898
3.00189e-05
0.00246028
-8.84784e-05
0.0025164
-0.000208889
0.00260046
-0.000298449
0.0026945
-0.000322788
0.00277381
-0.000265247
0.00281669
-0.000140019
0.00281371
1.29779e-05
0.00277031
0.000148547
0.00270164
0.000236797
0.00262452
0.000270487
0.00255198
0.00025799
0.0024925
0.000211012
0.00245256
0.000136274
0.00243919
3.58705e-05
0.00245918
-8.43284e-05
0.00251435
-0.000205272
0.00259657
-0.000295089
0.00268772
-0.000322248
0.00276549
-0.000272594
0.0028112
-0.000157794
0.00281563
-1.0524e-05
0.00278079
0.000129033
0.00271794
0.000228346
0.00264254
0.000272556
0.00256916
0.000264309
0.00250896
0.000214959
0.00247056
0.000134621
0.00246143
2.98388e-05
0.00248653
-8.9369e-05
0.0025442
-0.000202035
0.00262357
-0.000279122
0.00270653
-0.000296259
0.00277368
-0.000246278
0.0028106
-0.0001427
0.00281145
-1.33347e-05
0.00277908
0.000110305
0.00272276
0.00020241
0.0026549
0.000248565
0.00258809
0.00024635
0.00253356
0.000201381
0.0025009
0.000122107
0.00249749
1.84929e-05
0.00252635
-9.4288e-05
0.00258323
-0.000193463
0.00265606
-0.000253884
0.00272807
-0.000258482
0.00278298
-0.000206236
0.00280983
-0.00011238
0.00280529
-1.591e-06
0.00277317
0.000100945
0.00272208
0.000176195
0.00266264
0.000213837
0.00260549
0.000211203
0.0025605
0.000170714
0.00253625
9.82937e-05
0.00253879
4.28324e-06
0.00256925
-9.44941e-05
0.00262202
-0.000175934
0.0026853
-0.000219195
0.00274445
-0.000213031
0.00278639
-0.000160431
0.00280318
-7.69076e-05
0.00279339
1.59945e-05
0.00276135
9.80398e-05
0.00271498
0.000155254
0.00266346
0.000181
0.00261576
0.000174057
0.00258014
0.000136338
0.00256357
7.25603e-05
0.00257039
-7.92085e-06
0.00260035
-8.96888e-05
0.00264745
-0.000153624
0.002701
-0.000183198
0.00274866
-0.000171037
0.00278009
-0.000121718
0.00278956
-4.94738e-05
0.00277683
2.74659e-05
0.00274622
9.27946e-05
0.00270482
0.00013589
0.00266055
0.000152289
0.00262105
0.000141749
0.00259323
0.000106273
0.00258274
5.01202e-05
0.00259267
-1.83721e-05
0.00262193
-8.57772e-05
0.0026646
-0.000136046
0.00271109
-0.000155997
0.00275083
-0.000140578
0.00277535
-9.47743e-05
0.0027803
-3.13564e-05
0.00276606
3.39357e-05
0.00273691
8.73331e-05
0.00269936
0.000120148
0.00266058
0.000129113
0.00262739
0.00011463
0.00260589
7.89484e-05
0.00260094
2.60979e-05
0.00261504
-3.6491e-05
0.00264694
-9.70666e-05
0.00269106
-0.000141588
0.00273854
-0.000158464
0.00277961
-0.000143004
0.00280627
-9.94643e-05
0.0028142
-3.90258e-05
0.00280348
2.35147e-05
0.00277788
7.52376e-05
0.00274378
0.000106504
0.00270792
0.000114701
0.00267735
9.99879e-05
0.00265741
6.35753e-05
0.0026511
2.39247e-05
-7.94765e-05
0.00250182
-9.80329e-06
0.00250752
-3.04854e-05
0.00251785
-5.42669e-05
0.00253382
-8.20115e-05
0.00255659
-0.000113806
0.0025871
-0.000148102
0.00262576
-0.000181961
0.00267154
-0.000209205
0.00272181
-0.000223338
0.00277114
-0.00021532
0.0028127
-0.000180472
0.00284159
-0.00012438
0.00285417
-5.25189e-05
0.00284761
2.96208e-05
0.00282094
0.000112662
0.00277718
0.000181518
0.00272351
0.000221077
0.00266918
0.000223084
0.00262369
0.000186311
0.00259545
0.000115821
0.00259071
2.22012e-05
0.00261208
-7.79067e-05
0.00265579
-0.000159713
0.00270953
-0.000194503
0.00275522
-0.000164126
0.00277674
-7.57974e-05
0.00276727
4.0106e-05
0.00273017
0.000148387
0.00267462
0.000225694
0.00261082
0.000263537
0.00254777
0.000262056
0.00249336
0.0002234
0.00245564
0.000148534
0.00244368
3.83979e-05
0.00246632
-9.99036e-05
0.00252705
-0.000242907
0.00261728
-0.000348347
0.00271466
-0.000371735
0.00279069
-0.000294807
0.00282433
-0.000141454
0.00281078
3.58084e-05
0.0027599
0.000186002
0.00268789
0.000281448
0.00260963
0.000319162
0.00253575
0.000308312
0.00247356
0.000257801
0.00242955
0.000171019
0.00241135
4.82107e-05
0.00242786
-0.000104986
0.00248476
-0.000265784
0.00257695
-0.000390646
0.00268487
-0.000430701
0.00277964
-0.000360021
0.00283464
-0.000195022
0.00283658
1.10445e-05
0.00279006
0.000195069
0.00271285
0.000314002
0.00262561
0.000357722
0.00254383
0.000339774
0.00247643
0.000278415
0.00242997
0.000182733
0.002413
5.28431e-05
0.00243473
-0.000106059
0.00249767
-0.000268215
0.0025913
-0.000388717
0.00269348
-0.000424431
0.00277873
-0.000357839
0.00282729
-0.000206358
0.0028305
-1.37299e-05
0.00279148
0.000168051
0.00272254
0.000297283
0.00264014
0.000354956
0.00255974
0.000344714
0.0024935
0.000281197
0.00245153
0.000176585
0.00244314
3.82326e-05
0.00247413
-0.000120361
0.00254156
-0.000269463
0.00263151
-0.000369077
0.00272277
-0.000387512
0.00279391
-0.000317416
0.00283
-0.000178793
0.00282607
-9.40584e-06
0.00278673
0.000149646
0.00272305
0.000266091
0.0026486
0.000323017
0.00257652
0.000318422
0.00251863
0.00025928
0.00248551
0.000155227
0.00248559
1.84081e-05
0.00252177
-0.00013047
0.00258804
-0.000259734
0.00266972
-0.000335559
0.00274774
-0.000336506
0.00280461
-0.000263102
0.00282918
-0.000136955
0.00281891
8.68615e-06
0.00277911
0.000140741
0.00272016
0.000235141
0.00265409
0.000279908
0.00259244
0.000272858
0.0025457
0.00021745
0.00252311
0.000120887
0.00253095
-3.55602e-06
0.00256955
-0.000133093
0.00263132
-0.000237712
0.00270218
-0.000290054
0.00276575
-0.000276597
0.00280821
-0.000202893
0.00282178
-9.04713e-05
0.00280587
3.19049e-05
0.00276615
0.00013775
0.00271208
0.000209329
0.00265416
0.000238916
0.00260241
0.000225812
0.00256582
0.00017293
0.00255185
8.65242e-05
0.00256473
-2.07977e-05
0.00260303
-0.000127986
0.00265874
-0.000209335
0.00271908
-0.000243541
0.0027703
-0.000222256
0.00280156
-0.00015298
0.00280746
-5.53757e-05
0.00278864
4.62927e-05
0.00275066
0.000130766
0.00270196
0.000184593
0.00265167
0.000202579
0.00260846
0.000184962
0.00258005
0.000134686
0.00257252
5.76478e-05
0.00258868
-3.45323e-05
0.00262618
-0.000123278
0.00267713
-0.000186997
0.00273
-0.000208866
0.00277297
-0.000183546
0.00279716
-0.000118962
0.00279857
-3.27702e-05
0.00277843
5.40733e-05
0.00274214
0.000123627
0.00269741
0.000164875
0.00265254
0.000173984
0.00261536
0.000151805
0.00259285
0.000101466
0.00259037
2.85728e-05
0.00261023
-5.63452e-05
0.00264997
-0.000136808
0.00270215
-0.00019377
0.00275607
-0.000212384
0.00280073
-0.000187666
0.00282773
-0.000126467
0.00283298
-4.42749e-05
0.00281724
3.92589e-05
0.00278514
0.000107334
0.00274413
0.000147512
0.00270177
0.000157066
0.00266637
0.000135389
0.00264328
8.66675e-05
0.00263794
2.9256e-05
-0.000105082
0.00250168
-1.14852e-05
0.002507
-3.58014e-05
0.00251679
-6.40638e-05
0.00253227
-9.74913e-05
0.00255487
-0.000136401
0.00258594
-0.000179167
0.00262638
-0.00022241
0.00267552
-0.000258335
0.00273085
-0.00027867
0.0027859
-0.000270377
0.00283236
-0.000226931
0.00286491
-0.00015693
0.0028796
-6.72044e-05
0.00287272
3.65036e-05
0.00284239
0.000142984
0.0027918
0.000232108
0.00272946
0.000283419
0.00266626
0.000286281
0.00261323
0.000239347
0.00258015
0.000148902
0.00257478
2.75718e-05
0.00260126
-0.000104389
0.002656
-0.000214459
0.00272405
-0.000262545
0.00278211
-0.000222185
0.00280949
-0.000103177
0.00279818
5.14153e-05
0.00275371
0.000192855
0.00268843
0.00029097
0.00261474
0.000337224
0.00254245
0.00033435
0.00247957
0.000286277
0.00243454
0.000193569
0.00241758
5.53571e-05
0.00243927
-0.0001216
0.00250544
-0.000309071
0.00260978
-0.000452691
0.00272846
-0.000490408
0.00282504
-0.000391387
0.00286892
-0.000185338
0.00285215
5.25787e-05
0.00278895
0.000249197
0.00270223
0.000368172
0.00261112
0.000410276
0.00252695
0.000392478
0.00245546
0.000329288
0.00240139
0.000225097
0.00237331
7.62872e-05
0.00238467
-0.000116345
0.00244548
-0.000326599
0.00255005
-0.000495208
0.00267394
-0.000554591
0.00278359
-0.000469678
0.00284965
-0.000261084
0.00285688
3.82008e-06
0.00280862
0.000243332
0.00272367
0.000398952
0.00262576
0.000455628
0.00253318
0.00043235
0.00245625
0.000355346
0.00240291
0.00023608
0.00238428
7.1467e-05
0.00241161
-0.000133389
0.00248612
-0.000342723
0.00259314
-0.00049574
0.00270635
-0.00053764
0.00279777
-0.000449263
0.0028471
-0.000255679
0.0028466
-1.32327e-05
0.00280116
0.00021349
0.00272464
0.000373804
0.00263443
0.000445166
0.00254663
0.000432515
0.00247449
0.000353339
0.00243002
0.000221054
0.00242436
4.38943e-05
0.00246329
-0.000159293
0.0025414
-0.000347575
0.00264143
-0.000469105
0.00273971
-0.000485793
0.00281375
-0.000391453
0.00284842
-0.000213463
0.00283927
-2.61446e-07
0.00279229
0.000196628
0.00272035
0.00033803
0.0026385
0.000404869
0.00256081
0.000396113
0.00249994
0.000320148
0.0024676
0.00018756
0.00247285
1.31628e-05
0.0025176
-0.00017522
0.00259337
-0.000335504
0.00268284
-0.000425029
0.00276535
-0.000419019
0.00282295
-0.000320696
0.00284469
-0.000158698
0.00282862
2.47592e-05
0.00278115
0.000188203
0.00271417
0.000302127
0.00264118
0.000352896
0.00257494
0.000339097
0.00252696
0.000265433
0.00250718
0.000140666
0.00252175
-1.81253e-05
0.00256944
-0.000180782
0.00264016
-0.000308435
0.00271756
-0.000367456
0.00278411
-0.000343139
0.00282587
-0.000244657
0.00283554
-0.000100145
0.00281333
5.41167e-05
0.00276598
0.0001851
0.00270423
0.000271077
0.00263995
0.000303201
0.00258435
0.000281414
0.00254745
0.000209827
0.00253725
9.672e-05
0.00255747
-4.1013e-05
0.0026049
-0.000175414
0.0026691
-0.000273536
0.00273528
-0.000309724
0.00278875
-0.000275719
0.00281869
-0.000182922
0.0028203
-5.69874e-05
0.00279508
7.15094e-05
0.00274969
0.000176156
0.00269373
0.000240551
0.00263757
0.000258745
0.00259102
0.00023151
0.00256279
0.000162911
0.00255939
6.10501e-05
0.00258297
-5.8109e-05
0.00262937
-0.000169678
0.0026884
-0.000246026
0.00274668
-0.000267154
0.00279158
-0.000228436
0.00281426
-0.000141646
0.00281134
-2.98558e-05
0.00278491
8.05053e-05
0.00274136
0.000167177
0.0026895
0.00021674
0.00263872
0.00022476
0.002598
0.000192526
0.0025753
0.000124171
0.00257645
2.74189e-05
0.00260316
-8.30563e-05
0.00265127
-0.000184918
0.00271115
-0.000253647
0.00277035
-0.000271587
0.0028171
-0.000234413
0.00284305
-0.000152423
0.00284467
-4.58868e-05
0.00282342
6.05053e-05
0.00278474
0.000146014
0.00273695
0.000195302
0.00268837
0.000205646
0.00264861
0.000175144
0.00262317
0.00011211
0.0026202
3.22254e-05
-0.000134619
0.0025015
-1.2988e-05
0.00250631
-4.06075e-05
0.00251537
-7.31279e-05
0.00253011
-0.000112228
0.00255229
-0.000158586
0.00258382
-0.000210691
0.00262627
-0.000264858
0.00267949
-0.000311558
0.00274132
-0.000340496
0.00280376
-0.000332819
0.00285638
-0.000279557
0.00289348
-0.000194027
0.00291088
-8.46061e-05
0.00290388
4.35077e-05
0.00286923
0.000177629
0.00281011
0.000291227
0.00273673
0.000356799
0.00266212
0.000360894
0.00259921
0.000302258
0.00255953
0.000188577
0.00255286
3.42472e-05
0.00258562
-0.000137149
0.0026549
-0.000283741
0.00274222
-0.000349865
0.00281703
-0.000296995
0.00285209
-0.000138233
0.00283788
6.5621e-05
0.00278329
0.000247445
0.00270526
0.000368997
0.00261911
0.000423377
0.00253547
0.000417986
0.00246225
0.000359504
0.00240755
0.000248265
0.00238087
8.2035e-05
0.00239298
-0.000133706
0.00245438
-0.000370466
0.00256672
-0.000565034
0.00270932
-0.000633009
0.00283798
-0.000520051
0.00290673
-0.000254084
0.00289663
6.26757e-05
0.00282348
0.000322347
0.0027197
0.00047195
0.00261256
0.000517419
0.00251561
0.000489431
0.00243243
0.000412467
0.00236618
0.000291347
0.0023288
0.000113659
0.00234012
-0.000127663
0.00241212
-0.000398596
0.00253392
-0.000617003
0.00267394
-0.000694621
0.00279466
-0.000590391
0.00286639
-0.000332818
0.00287488
-4.66628e-06
0.00282362
0.000294587
0.00273146
0.000491119
0.00262337
0.000563714
0.00251969
0.000536031
0.00243289
0.000442147
0.00237374
0.000295233
0.00235631
8.88892e-05
0.00239216
-0.000169232
0.002479
-0.000429571
0.00259766
-0.000614397
0.00271915
-0.000659133
0.00281478
-0.000544889
0.00286409
-0.000304984
0.00285959
-8.73648e-06
0.0028073
0.000265776
0.00272274
0.000458373
0.00262451
0.00054339
0.00252956
0.00052747
0.0024524
0.000430495
0.00240702
0.000266436
0.00240576
4.51563e-05
0.00245319
-0.000206727
0.00254073
-0.000435119
0.00264821
-0.000576585
0.00275075
-0.000588326
0.00282593
-0.000466631
0.00285893
-0.000246464
0.00284543
1.32374e-05
0.00279191
0.000250145
0.00271247
0.000417475
0.00262361
0.00049373
0.00254073
0.000478992
0.00247776
0.000383114
0.00244751
0.000217815
0.00245898
1.69063e-06
0.00251227
-0.000228509
0.00259607
-0.000419302
0.0026909
-0.000519863
0.00277544
-0.000503564
0.00283214
-0.000377395
0.00285067
-0.000177228
0.0028295
4.59356e-05
0.00277557
0.000242135
0.00270168
0.000376013
0.00262264
0.000431936
0.00255259
0.000409142
0.00250434
0.000313683
0.00248853
0.000156483
0.00251061
-4.02047e-05
0.00256713
-0.000237304
0.00264531
-0.000386613
0.00272701
-0.000449159
0.00279435
-0.000410475
0.00283398
-0.000284289
0.00283937
-0.000105537
0.00281138
8.21101e-05
0.00275741
0.000239062
0.00268911
0.000339379
0.00261948
0.000372837
0.00256103
0.00033986
0.00252496
0.000245894
0.00251969
0.000101994
0.00254792
-6.92422e-05
0.00260413
-0.000231624
0.00267536
-0.00034477
0.0027453
-0.000379664
0.00279903
-0.00032945
0.00282637
-0.000210253
0.0028233
-5.39189e-05
0.00279208
0.000102729
0.00274011
0.000228119
0.0026779
0.000302764
0.00261688
0.000319771
0.00256808
0.000280304
0.00254126
0.000189732
0.00254315
5.91646e-05
0.00257475
-8.97155e-05
0.00262965
-0.000224571
0.0026953
-0.000311678
0.00275698
-0.000328838
0.00280188
-0.000273334
0.00282177
-0.000161535
0.00281405
-2.21343e-05
0.00278156
0.000112998
0.00273144
0.000217293
0.00267333
0.000274845
0.00261765
0.000280446
0.00257451
0.000235667
0.00255288
0.000145794
0.00255885
2.14542e-05
0.00259299
-0.000117196
0.00264896
-0.000240891
0.00271493
-0.00031962
0.00277721
-0.000333864
0.0028239
-0.000281103
0.00284727
-0.000175791
0.00284453
-4.31443e-05
0.00281783
8.72059e-05
0.00277316
0.000190675
0.00271948
0.000248984
0.00266576
0.000259372
0.00262281
0.00021809
0.00259651
0.000138413
0.00259744
3.12931e-05
-0.000168381
0.00250127
-1.42605e-05
0.00250542
-4.47515e-05
0.0025135
-8.1207e-05
0.00252716
-0.000125889
0.00254857
-0.000179998
0.0025803
-0.000242424
0.00262484
-0.000309397
0.00268291
-0.00036963
0.00275299
-0.000410569
0.00282488
-0.00040471
0.00288522
-0.000339895
0.00292816
-0.000236975
0.00294949
-0.000105932
0.00294278
5.02216e-05
0.00290261
0.000217791
0.00283234
0.000361503
0.00274476
0.000444383
0.0026557
0.000449948
0.00258029
0.00037767
0.00253191
0.000236955
0.00252289
4.32705e-05
0.0025634
-0.000177657
0.00265223
-0.000372572
0.00276572
-0.000463359
0.00286262
-0.000393897
0.00290697
-0.000182583
0.00288797
8.46227e-05
0.00281957
0.000315846
0.00272511
0.000463456
0.00262365
0.00052484
0.00252667
0.000514967
0.00244132
0.00044485
0.00237332
0.000316266
0.00232885
0.000126508
0.00232095
-0.000125806
0.00237105
-0.000420566
0.00249009
-0.000684081
0.00265699
-0.000799902
0.00282064
-0.000683708
0.00292345
-0.00035689
0.00293257
5.35576e-05
0.00285801
0.000396905
0.00273914
0.000590817
0.00261412
0.000642441
0.00250175
0.0006018
0.00240486
0.000509363
0.00232678
0.000369428
0.00228471
0.000155726
0.00230305
-0.000146007
0.00239066
-0.000486203
0.0025289
-0.000755246
0.00268114
-0.000846855
0.00280871
-0.000717968
0.00288249
-0.000406597
0.00288922
-1.13976e-05
0.00283338
0.000350429
0.00273416
0.000590339
0.00261686
0.000681012
0.00250295
0.000649941
0.00240741
0.000537694
0.00234455
0.000358092
0.00233069
0.000102746
0.00237563
-0.00021417
0.00247248
-0.000526424
0.00259846
-0.000740374
0.00272394
-0.000784612
0.00282122
-0.000642174
0.00287037
-0.000354134
0.00286342
-1.78033e-06
0.00280614
0.000323053
0.00271489
0.000549622
0.0026096
0.000648682
0.00250849
0.000628582
0.00242774
0.000511245
0.00238307
0.000311105
0.00238707
4.11578e-05
0.00244212
-0.000261775
0.00253641
-0.000529416
0.00264779
-0.000687965
0.00275133
-0.000691866
0.00282564
-0.00054094
0.00285668
-0.0002775
0.0028401
2.98111e-05
0.00278215
0.000308101
0.00269723
0.000502392
0.00260294
0.000588026
0.00251615
0.000565778
0.00245237
0.000446896
0.00242531
0.000244871
0.00244327
-1.62683e-05
0.00250389
-0.000289126
0.00259317
-0.000508584
0.00269029
-0.000616987
0.0027742
-0.000587466
0.00282838
-0.000431583
0.00284344
-0.000192288
0.00281817
7.1208e-05
0.00275957
0.000300734
0.00268077
0.000454818
0.00259744
0.000515265
0.0025251
0.000481478
0.00247794
0.000360846
0.00246705
0.000167374
0.00249662
-6.97759e-05
0.00256056
-0.000301242
0.00264364
-0.000469694
0.00272676
-0.000532284
0.00279253
-0.000476245
0.00282873
-0.000320487
0.00282976
-0.000106564
0.00279696
0.00011491
0.00273802
0.000297999
0.00266501
0.000412391
0.00259179
0.00044606
0.00253212
0.000399525
0.00249834
0.000279678
0.00249894
0.000101394
0.00253506
-0.000105365
0.00259856
-0.000295121
0.0026743
-0.000420515
0.00274527
-0.00045063
0.00279712
-0.0003813
0.00282073
-0.000233869
0.002813
-4.61862e-05
0.00277671
0.00013902
0.00271966
0.000285166
0.00265288
0.000369545
0.00258868
0.000383969
0.00253928
0.000329709
0.00251534
0.000213668
0.00252344
5.10629e-05
0.0025629
-0.000129171
0.00262476
-0.000286428
0.00269455
-0.000381469
0.00275698
-0.000391271
0.00279982
-0.000316178
0.00281585
-0.000177562
0.00280329
-9.57838e-06
0.00276555
0.000150744
0.00271019
0.000272654
0.00264739
0.000337645
0.00258841
0.000339428
0.00254449
0.000279587