/*--------------------------------*- C++ -*----------------------------------*\
  =========                 |
  \\      /  F ield         | OpenFOAM: The Open Source CFD Toolbox
   \\    /   O peration     | Website:  https://openfoam.org
    \\  /    A nd           | Version:  11
     \\/     M anipulation  |
\*---------------------------------------------------------------------------*/
FoamFile
{
    format      ascii;
    class       volVectorField;
    location    "17.562183";
    object      U_0;
}
// * * * * * * * * * * * * * * * * * * * * * * * * * * * * * * * * * * * * * //

dimensions      [0 1 -1 0 0 0 0];

internalField   nonuniform List<vector> 
7132
(
(1.0001 -0.000205942 3.91566e-18)
(1.0016 -0.000637501 1.25736e-17)
(1.0051 -0.00112237 1.22435e-17)
(1.01061 -0.00167029 1.56563e-17)
(1.01845 -0.00227515 2.16887e-17)
(1.0288 -0.00289906 2.13867e-17)
(1.04167 -0.00347944 1.89794e-17)
(1.05669 -0.00390893 1.66094e-17)
(1.07305 -0.00407666 1.47763e-17)
(1.08946 -0.0038654 1.36693e-17)
(1.10416 -0.00321335 1.32137e-17)
(1.11538 -0.0021834 1.32699e-17)
(1.1218 -0.00087529 1.36074e-17)
(1.12252 0.000582751 1.40294e-17)
(1.11723 0.00200463 1.2118e-17)
(1.10651 0.0031478 1.00516e-17)
(1.092 0.00378408 8.60289e-18)
(1.07611 0.00378201 8.26082e-18)
(1.06158 0.00312532 6.4553e-18)
(1.05097 0.00191614 5.77735e-18)
(1.04619 0.000366066 5.01573e-18)
(1.0481 -0.00121266 5.19818e-18)
(1.05612 -0.00242205 8.80041e-18)
(1.06787 -0.0028686 1.46817e-17)
(1.07954 -0.00234152 1.38781e-17)
(1.08706 -0.00096504 1.03115e-17)
(1.0876 0.000843647 5.39946e-18)
(1.08046 0.00258521 1.06819e-17)
(1.06687 0.00388066 4.07757e-17)
(1.04922 0.00453216 -4.82526e-17)
(1.03032 0.00447736 -4.45783e-16)
(1.01304 0.00372282 2.52716e-16)
(1.00016 0.00231177 6.02528e-15)
(0.994184 0.000345111 8.9885e-15)
(0.997126 -0.00195225 -5.50155e-14)
(1.00974 -0.00415162 -2.97602e-13)
(1.03056 -0.0056466 -6.70827e-13)
(1.0554 -0.00587501 -8.71397e-13)
(1.07818 -0.00463961 -7.14681e-13)
(1.0931 -0.00227452 -3.82008e-13)
(1.09677 0.000510279 -1.2658e-13)
(1.08914 0.00298136 -6.70384e-15)
(1.07278 0.00466843 3.20823e-14)
(1.05148 0.00541729 2.49096e-14)
(1.02905 0.00527024 -7.01852e-14)
(1.00889 0.00432142 -2.78024e-13)
(0.994024 0.00264758 -2.31049e-13)
(0.987269 0.000346505 1.49027e-12)
(0.990936 -0.00234181 7.63834e-12)
(1.00595 -0.0049206 1.99325e-11)
(1.03059 -0.00668199 3.48312e-11)
(1.06 -0.00697684 4.37445e-11)
(1.08714 -0.00557203 4.06905e-11)
(1.10525 -0.00283347 2.85657e-11)
(1.11024 0.000424547 1.54322e-11)
(1.10196 0.0033201 5.953e-12)
(1.08349 0.00525816 7.52538e-13)
(1.0595 0.00604826 -5.03599e-13)
(1.03464 0.00578773 1.13659e-12)
(1.01272 0.00466328 1.15179e-12)
(0.996852 0.00282345 -1.24699e-11)
(0.98967 0.000397217 -5.86063e-11)
(0.993287 -0.00236966 -1.53289e-10)
(1.00844 -0.00499319 -2.94918e-10)
(1.03333 -0.00680035 -4.52813e-10)
(1.06325 -0.00717824 -5.74264e-10)
(1.0914 -0.00588491 -6.12081e-10)
(1.11104 -0.00321451 -5.51556e-10)
(1.11771 9.779e-05 -4.15742e-10)
(1.11059 0.00317241 -2.52157e-10)
(1.09234 0.00531996 -1.09608e-10)
(1.06776 0.00623416 -1.62209e-11)
(1.04203 0.00596636 2.15108e-11)
(1.01952 0.00474877 4.62812e-13)
(1.00352 0.0028191 -9.56208e-11)
(0.996477 0.000382029 -2.912e-10)
(1.00006 -0.00228448 -5.9614e-10)
(1.01452 -0.00472439 -9.8469e-10)
(1.03788 -0.00635635 -1.39148e-09)
(1.06566 -0.00668801 -1.72804e-09)
(1.09185 -0.00555127 -1.91154e-09)
(1.11061 -0.00320175 -1.89191e-09)
(1.11795 -0.00023224 -1.66659e-09)
(1.11281 0.00263399 -1.28088e-09)
(1.09703 0.00477268 -8.20801e-10)
(1.07457 0.00581827 -3.96502e-10)
(1.05024 0.00570268 -1.07747e-10)
(1.02858 0.00457735 -1.11154e-11)
(1.0132 0.00268944 -1.10386e-10)
(1.00667 0.000320278 -3.70394e-10)
(1.01036 -0.00217751 -7.37321e-10)
(1.02401 -0.00434291 -1.15189e-09)
(1.04527 -0.00568028 -1.55586e-09)
(1.06982 -0.00583492 -1.89628e-09)
(1.09238 -0.00475221 -2.12877e-09)
(1.1082 -0.00270978 -2.21871e-09)
(1.1143 -0.000212038 -2.1416e-09)
(1.11 0.00217876 -1.88723e-09)
(1.09684 0.00399443 -1.47584e-09)
(1.07791 0.00494297 -9.79295e-10)
(1.05709 0.00492182 -5.14576e-10)
(1.03829 0.00398824 -1.98483e-10)
(1.02492 0.0023188 -9.25488e-11)
(1.01952 0.000191925 -1.8224e-10)
(1.02329 -0.0020086 -4.01512e-10)
(1.03568 -0.00382621 -6.74116e-10)
(1.05418 -0.00483764 -9.4116e-10)
(1.07478 -0.0047987 -1.1675e-09)
(1.09296 -0.00374196 -1.33551e-09)
(1.10498 -0.00196243 -1.43549e-09)
(1.10876 9.61862e-05 -1.45721e-09)
(1.10414 0.00198803 -1.38643e-09)
(1.09266 0.00337627 -1.21238e-09)
(1.07688 0.00406948 -9.45846e-10)
(1.05984 0.00400293 -6.31624e-10)
(1.04461 0.00320887 -3.38545e-10)
(1.03398 0.00180904 -1.28437e-10)
(1.03005 3.16096e-05 -2.77857e-11)
(1.03377 -0.00178295 -2.34953e-11)
(1.04453 -0.00323404 -8.03882e-11)
(1.06 -0.00397284 -1.62344e-10)
(1.07671 -0.00382539 -2.43875e-10)
(1.09095 -0.0028574 -3.11294e-10)
(1.09977 -0.00134357 -3.58724e-10)
(1.10172 0.000336996 -3.8345e-10)
(1.09693 0.00182449 -3.82805e-10)
(1.08686 0.00286539 -3.5403e-10)
(1.07369 0.00333203 -2.97018e-10)
(1.05989 0.00319452 -2.17534e-10)
(1.04788 0.00248802 -1.27471e-10)
(1.03983 0.00131026 -4.08071e-11)
(1.03737 -0.000153756 3.20537e-11)
(1.04119 -0.00162189 8.73384e-11)
(1.05064 -0.00276232 1.26865e-10)
(1.0637 -0.00329275 1.54849e-10)
(1.07742 -0.00308387 1.75233e-10)
(1.08872 -0.00220882 1.90613e-10)
(1.09526 -0.00091244 2.02269e-10)
(1.096 0.000479071 2.10354e-10)
(1.09124 0.00166363 2.13802e-10)
(1.08237 0.00243664 2.10385e-10)
(1.07137 0.00270654 1.97682e-10)
(1.06036 0.00246688 1.75037e-10)
(1.05133 0.00176236 1.45297e-10)
(1.04606 0.000682563 1.14621e-10)
(1.04583 -0.000615342 9.00949e-11)
(1.05113 -0.00189435 7.68043e-11)
(1.06132 -0.00287194 7.63288e-11)
(1.07456 -0.00330445 8.71724e-11)
(1.08827 -0.00307392 1.0623e-10)
(1.09953 -0.00224222 1.30161e-10)
(1.1065 -0.00102112 1.56097e-10)
(1.10765 0.000282769 1.81643e-10)
(1.10425 0.00138994 2.04369e-10)
(1.0959 0.00208195 2.21253e-10)
(1.08776 0.00227808 2.28726e-10)
(1.07623 0.00200311 2.23864e-10)
(1.07311 0.00119464 2.0521e-10)
(1.06333 0.000456258 1.7969e-10)
(1.07417 -0.00187724 1.28199e-10)
(1.0001 -0.000615537 7.14543e-20)
(1.00158 -0.00190666 6.20984e-19)
(1.00506 -0.0033593 1.1196e-18)
(1.01053 -0.00500505 1.66841e-18)
(1.01836 -0.00682709 2.41907e-18)
(1.02875 -0.00871311 3.11357e-18)
(1.04172 -0.0104761 3.39561e-18)
(1.05695 -0.0117901 4.36164e-18)
(1.07362 -0.0123181 2.89553e-18)
(1.09042 -0.0116963 2.91494e-18)
(1.10551 -0.0097335 3.8814e-18)
(1.11705 -0.00662777 5.46868e-18)
(1.12367 -0.00268379 5.62466e-18)
(1.12445 0.00171395 6.4082e-18)
(1.11901 0.00601031 7.37366e-18)
(1.10791 0.00947367 8.34782e-18)
(1.09285 0.0114103 9.12244e-18)
(1.07633 0.011418 8.98752e-18)
(1.0612 0.00944035 6.50668e-18)
(1.05012 0.00577758 1.89295e-18)
(1.04513 0.00106362 2.21632e-18)
(1.04718 -0.00375667 2.95221e-18)
(1.05573 -0.00746849 -7.00795e-17)
(1.06833 -0.00885702 -1.55891e-16)
(1.08092 -0.00726171 -9.69189e-17)
(1.0891 -0.00305769 -3.74712e-18)
(1.08986 0.00247056 2.22858e-17)
(1.08252 0.00778972 6.24077e-17)
(1.06843 0.0117447 1.22705e-16)
(1.05013 0.013743 -3.49878e-16)
(1.03054 0.0136061 -1.30148e-15)
(1.01257 0.0113578 2.3966e-15)
(0.999039 0.00712012 1.71941e-14)
(0.992567 0.00117641 8.03612e-15)
(0.995335 -0.00581716 -2.0093e-13)
(1.00831 -0.0125641 -8.28025e-13)
(1.0301 -0.0171938 -1.73544e-12)
(1.05629 -0.0179528 -2.32287e-12)
(1.08039 -0.0142147 -2.02002e-12)
(1.09612 -0.00700448 -1.10066e-12)
(1.09991 0.00149227 -3.60825e-13)
(1.09181 0.00902486 -1.74777e-14)
(1.07466 0.01416 8.23955e-14)
(1.05249 0.0164434 3.35646e-14)
(1.02921 0.0160217 -1.10287e-13)
(1.00825 0.0131882 -1.17451e-13)
(0.992652 0.00816213 2.49593e-13)
(0.985324 0.00120616 3.63316e-13)
(0.98881 -0.00698602 -1.94189e-12)
(1.00428 -0.0149052 -1.09356e-11)
(1.03009 -0.0203572 -2.56428e-11)
(1.06111 -0.021316 -3.57818e-11)
(1.08979 -0.0170522 -3.4513e-11)
(1.10883 -0.0086972 -2.53251e-11)
(1.11395 0.00124427 -1.26385e-11)
(1.10507 0.0100716 -2.74996e-12)
(1.0856 0.0159691 7.10765e-13)
(1.06054 0.0183704 2.21697e-12)
(1.03471 0.0175945 6.57992e-12)
(1.01196 0.0142248 4.93049e-12)
(0.995319 0.0087052 -4.23494e-11)
(0.987458 0.00139413 -2.09632e-10)
(0.990632 -0.0070019 -5.73458e-10)
(1.0058 -0.0150275 -1.13938e-09)
(1.03135 -0.020618 -1.77509e-09)
(1.06246 -0.0218699 -2.24034e-09)
(1.09203 -0.0180118 -2.3282e-09)
(1.11289 -0.0099252 -2.00602e-09)
(1.12023 0.000150171 -1.42691e-09)
(1.1131 0.00952865 -8.12697e-10)
(1.09428 0.0160966 -3.31566e-10)
(1.06881 0.0189132 -4.64683e-11)
(1.04212 0.0181413 6.12383e-11)
(1.01871 0.014499 2.22666e-11)
(1.00189 0.00870655 -1.74624e-10)
(0.994179 0.00135944 -5.76413e-10)
(0.997413 -0.00673052 -1.2072e-09)
(1.01204 -0.0141866 -2.00736e-09)
(1.03609 -0.0192215 -2.82475e-09)
(1.0649 -0.0203094 -3.46385e-09)
(1.09212 -0.0169226 -3.75555e-09)
(1.11162 -0.00983636 -3.61553e-09)
(1.11933 -0.000851703 -3.07613e-09)
(1.11416 0.00784113 -2.27397e-09)
(1.09806 0.0143507 -1.40136e-09)
(1.07507 0.017567 -6.51456e-10)
(1.05012 0.0172794 -1.63916e-10)
(1.02778 0.0139372 1.42037e-12)
(1.01177 0.00827143 -1.44299e-10)
(1.00482 0.00111051 -5.43825e-10)
(1.00851 -0.00648997 -1.11216e-09)
(1.02269 -0.013116 -1.74626e-09)
(1.04488 -0.0172286 -2.34054e-09)
(1.07046 -0.017725 -2.80668e-09)
(1.09382 -0.0144408 -3.08354e-09)
(1.10999 -0.0082405 -3.13468e-09)
(1.11596 -0.000671578 -2.94518e-09)
(1.11122 0.00656156 -2.52572e-09)
(1.09747 0.0120508 -1.92625e-09)
(1.07795 0.0149256 -1.25101e-09)
(1.0566 0.0148834 -6.44718e-10)
(1.03736 0.0120922 -2.42176e-10)
(1.02369 0.00706713 -1.10737e-10)
(1.01824 0.000628295 -2.29203e-10)
(1.02235 -0.00606975 -5.13937e-10)
(1.0355 -0.0116235 -8.64696e-10)
(1.05501 -0.0147177 -1.2e-09)
(1.07656 -0.0145932 -1.47033e-09)
(1.09536 -0.0113564 -1.65359e-09)
(1.1075 -0.00592599 -1.74245e-09)
(1.11092 0.000333386 -1.73245e-09)
(1.10563 0.00606586 -1.61619e-09)
(1.09337 0.0102566 -1.38975e-09)
(1.07685 0.0123381 -1.07032e-09)
(1.05923 0.0121251 -7.0851e-10)
(1.04363 0.00971724 -3.77925e-10)
(1.03287 0.00547381 -1.43071e-10)
(1.02913 7.3202e-05 -3.02572e-11)
(1.03343 -0.00545516 -2.36288e-11)
(1.04506 -0.00988062 -8.4049e-11)
(1.06154 -0.012124 -1.71907e-10)
(1.07912 -0.0116495 -2.59587e-10)
(1.09384 -0.00866746 -3.32384e-10)
(1.10266 -0.00403208 -3.83803e-10)
(1.10417 0.00109171 -4.10587e-10)
(1.09865 0.00560881 -4.0974e-10)
(1.08773 0.00875372 -3.78543e-10)
(1.07378 0.0101475 -3.17291e-10)
(1.05936 0.00970732 -2.32336e-10)
(1.04698 0.00754228 -1.36037e-10)
(1.03887 0.00394513 -4.2438e-11)
(1.03672 -0.000527325 3.83327e-11)
(1.04124 -0.00501505 1.02644e-10)
(1.05167 -0.00849537 1.51769e-10)
(1.06577 -0.010096 1.8858e-10)
(1.08033 -0.00942233 2.15326e-10)
(1.09209 -0.00670977 2.33293e-10)
(1.0986 -0.00272143 2.43412e-10)
(1.09887 0.00153919 2.46541e-10)
(1.09334 0.0051512 2.42963e-10)
(1.08358 0.00749559 2.31934e-10)
(1.07172 0.00830002 2.12241e-10)
(1.05999 0.00755005 1.84023e-10)
(1.05052 0.00538282 1.50553e-10)
(1.04512 0.00206801 1.18156e-10)
(1.04518 -0.00191843 9.3853e-11)
(1.05118 -0.005849 8.24094e-11)
(1.06239 -0.00884869 8.48138e-11)
(1.07675 -0.0101617 9.87986e-11)
(1.09142 -0.00942683 1.205e-10)
(1.10329 -0.00684343 1.46035e-10)
(1.11036 -0.00307487 1.72339e-10)
(1.11116 0.000934863 1.97158e-10)
(1.10706 0.004329 2.184e-10)
(1.0978 0.00644744 2.33405e-10)
(1.08873 0.00704581 2.38864e-10)
(1.07632 0.00620342 2.31985e-10)
(1.07262 0.00374264 2.11449e-10)
(1.06221 0.00146996 1.84258e-10)
(1.0734 -0.00564813 1.31504e-10)
(1.00009 -0.00101869 4.70577e-22)
(1.00155 -0.0031584 5.92467e-21)
(1.00496 -0.00557431 1.0157e-20)
(1.01038 -0.00832499 -3.19605e-21)
(1.01818 -0.0113878 -7.02918e-20)
(1.02863 -0.0145798 7.63597e-20)
(1.04181 -0.0175911 -4.92394e-19)
(1.05745 -0.0198648 -1.16075e-18)
(1.07474 -0.0208241 1.31375e-18)
(1.09235 -0.0198195 2.33473e-18)
(1.10822 -0.0165088 -3.33888e-18)
(1.12038 -0.0112524 -8.88775e-18)
(1.12739 -0.0045617 -8.75739e-18)
(1.12826 0.00293467 -4.59397e-18)
(1.1225 0.0102974 1.14138e-18)
(1.11063 0.0162522 7.29452e-18)
(1.09443 0.0195864 1.12518e-17)
(1.07665 0.019609 7.27397e-18)
(1.06034 0.0162267 -9.99522e-18)
(1.0484 0.00994745 -1.90398e-17)
(1.04306 0.00183338 4.25991e-17)
(1.04549 -0.00651932 -2.39362e-16)
(1.05522 -0.013006 -2.08908e-15)
(1.06959 -0.0154737 -4.12368e-15)
(1.08402 -0.0127285 -3.36231e-15)
(1.09344 -0.0054271 -1.22498e-15)
(1.09449 0.00415134 -8.38686e-17)
(1.08652 0.0133124 3.41958e-16)
(1.07126 0.0200753 -3.73266e-16)
(1.05156 0.0234735 -1.97587e-15)
(1.03056 0.0232522 8.78779e-15)
(1.01125 0.019472 2.11291e-14)
(0.996539 0.0123163 -1.60269e-13)
(0.989235 0.00220341 -5.19114e-13)
(0.991861 -0.0098152 1.81429e-12)
(1.00579 -0.0215305 1.36557e-11)
(1.02974 -0.0296506 3.35643e-11)
(1.05882 -0.0310376 4.39934e-11)
(1.08553 -0.0245532 3.44679e-11)
(1.10271 -0.0120177 1.66438e-11)
(1.10642 0.00268815 4.4538e-12)
(1.09702 0.015617 -8.97974e-14)
(1.078 0.0243292 -7.34102e-13)
(1.0539 0.0281379 -6.0586e-13)
(1.0289 0.0273831 1.5244e-13)
(1.00643 0.022597 3.9364e-12)
(0.989536 0.0141106 5.92968e-12)
(0.981256 0.00227559 -3.10643e-11)
(0.984456 -0.0118075 -1.9286e-10)
(1.0007 -0.025556 -5.52758e-10)
(1.02858 -0.0351074 -1.01715e-09)
(1.06268 -0.0368426 -1.30817e-09)
(1.09456 -0.0294368 -1.22222e-09)
(1.11576 -0.0148966 -8.44471e-10)
(1.12123 0.00233346 -4.23116e-10)
(1.11104 0.0175118 -1.33323e-10)
(1.08934 0.0275211 -3.43901e-12)
(1.06195 0.031485 3.05472e-11)
(1.03413 0.0300719 3.60046e-11)
(1.00977 0.0243538 1.30472e-11)
(0.991748 0.0150742 -1.50975e-10)
(0.982673 0.00275017 -6.6699e-10)
(0.985072 -0.0115305 -1.71607e-09)
(1.00038 -0.0253466 -3.24407e-09)
(1.02727 -0.0351363 -4.87057e-09)
(1.06071 -0.0375349 -6.03328e-09)
(1.09293 -0.0311056 -6.267e-09)
(1.11599 -0.0173013 -5.46061e-09)
(1.12448 1.48317e-05 -3.94408e-09)
(1.11723 0.0161651 -2.2854e-09)
(1.09725 0.0274659 -9.58954e-10)
(1.07005 0.0323025 -1.63448e-10)
(1.04152 0.031005 1.44159e-10)
(1.01643 0.0248581 7.13599e-11)
(0.998209 0.0150867 -3.52117e-10)
(0.989546 0.00262937 -1.16289e-09)
(0.992642 -0.0112072 -2.33712e-09)
(1.00824 -0.024064 -3.69986e-09)
(1.03423 -0.0327954 -4.97885e-09)
(1.06532 -0.0347106 -5.9222e-09)
(1.09441 -0.0289113 -6.34878e-09)
(1.11489 -0.0167913 -6.14404e-09)
(1.1226 -0.00148168 -5.2985e-09)
(1.11672 0.0132818 -3.97304e-09)
(1.09949 0.0243168 -2.48139e-09)
(1.07523 0.0297811 -1.17484e-09)
(1.04898 0.0293409 -3.13167e-10)
(1.02546 0.0237432 -4.8274e-12)
(1.00854 0.0141688 -2.23741e-10)
(1.00125 0.00195777 -8.51657e-10)
(1.00553 -0.0111044 -1.71176e-09)
(1.0213 -0.0225289 -2.60648e-09)
(1.04573 -0.0295767 -3.37325e-09)
(1.07349 -0.030313 -3.92285e-09)
(1.09826 -0.0245114 -4.22497e-09)
(1.11473 -0.0137649 -4.26175e-09)
(1.11994 -0.000809126 -4.00472e-09)
(1.11377 0.0114348 -3.44266e-09)
(1.0984 0.020626 -2.63042e-09)
(1.0774 0.0253692 -1.71077e-09)
(1.05488 0.0252121 -8.85278e-10)
(1.03484 0.0204412 -3.38325e-10)
(1.02083 0.0118788 -1.59208e-10)
(1.01571 0.000863793 -3.14229e-10)
(1.02098 -0.0106355 -6.81633e-10)
(1.03602 -0.0201563 -1.11817e-09)
(1.05773 -0.025375 -1.51492e-09)
(1.08117 -0.0249768 -1.81736e-09)
(1.101 -0.0192047 -2.012e-09)
(1.11308 -0.00972923 -2.0996e-09)
(1.11545 0.00104013 -2.0755e-09)
(1.1085 0.0107698 -1.92762e-09)
(1.09439 0.0177672 -1.6504e-09)
(1.07622 0.021133 -1.26586e-09)
(1.05737 0.0206103 -8.35706e-10)
(1.04108 0.016387 -4.46215e-10)
(1.03027 0.00905638 -1.70212e-10)
(1.02723 -0.000245387 -3.46196e-11)
(1.03299 -0.00974609 -1.80906e-11)
(1.04664 -0.0172942 -7.48076e-11)
(1.06522 -0.0210052 -1.61481e-10)
(1.08445 -0.0199738 -2.50504e-10)
(1.09996 -0.0146237 -3.28577e-10)
(1.10855 -0.00649835 -3.8922e-10)
(1.10894 0.00235242 -4.26759e-10)
(1.10175 0.0100446 -4.34755e-10)
(1.089 0.0152983 -4.07826e-10)
(1.07338 0.0175144 -3.45326e-10)
(1.05771 0.0165917 -2.54326e-10)
(1.04466 0.0127333 -1.48571e-10)
(1.03661 0.00643747 -4.30956e-11)
(1.03532 -0.00133856 5.16217e-11)
(1.04144 -0.00909226 1.31533e-10)
(1.05395 -0.0150279 1.96651e-10)
(1.07013 -0.0176286 2.47733e-10)
(1.08629 -0.0162424 2.84725e-10)
(1.09877 -0.0113378 3.07204e-10)
(1.10503 -0.00429596 3.15482e-10)
(1.10419 0.00311548 3.11065e-10)
(1.097 0.00930934 2.95958e-10)
(1.08538 0.0132473 2.71672e-10)
(1.07178 0.0144983 2.39184e-10)
(1.05868 0.0130659 2.00366e-10)
(1.0484 0.00919523 1.59665e-10)
(1.04294 0.00334931 1.23968e-10)
(1.04376 -0.00364298 1.00176e-10)
(1.05132 -0.010496 9.22405e-11)
(1.06462 -0.0156607 9.982e-11)
(1.08115 -0.017814 1.19172e-10)
(1.09758 -0.0163551 1.45208e-10)
(1.11041 -0.0116809 1.73325e-10)
(1.11751 -0.00499784 2.00272e-10)
(1.11746 0.00202819 2.24031e-10)
(1.11186 0.00791138 2.42968e-10)
(1.10078 0.0115293 2.54893e-10)
(1.08989 0.0125063 2.56818e-10)
(1.07578 0.0109543 2.46148e-10)
(1.07108 0.0067022 2.21906e-10)
(1.05959 0.00258571 1.91356e-10)
(1.07177 -0.00962515 1.36298e-10)
(1.00009 -0.00141083 -7.84969e-20)
(1.00149 -0.00437958 -7.53756e-19)
(1.00481 -0.00775047 -1.28405e-18)
(1.01012 -0.0116167 -2.22925e-18)
(1.01788 -0.0159586 -2.65194e-18)
(1.0284 -0.0205297 -3.90508e-18)
(1.04189 -0.024901 -8.75244e-18)
(1.05814 -0.0282646 1.49994e-18)
(1.07639 -0.0297813 7.40892e-18)
(1.09523 -0.0284447 -2.99475e-17)
(1.11233 -0.0237274 -6.95471e-17)
(1.12544 -0.0162084 -3.9111e-17)
(1.13308 -0.00662714 1.77025e-17)
(1.13412 0.00415501 5.20689e-17)
(1.12788 0.0148207 6.86037e-17)
(1.11479 0.0235 7.10319e-17)
(1.09683 0.0283844 4.71506e-17)
(1.07706 0.0284511 -3.03217e-17)
(1.05892 0.0235536 -1.32079e-16)
(1.04564 0.014406 1.07658e-17)
(1.03977 0.00251147 -3.49591e-16)
(1.04276 -0.00983847 -2.43922e-15)
(1.05432 -0.0195286 7.63519e-15)
(1.07151 -0.0232708 2.38275e-14)
(1.08885 -0.0191909 1.64936e-14)
(1.10023 -0.00828228 2.66461e-15)
(1.10166 0.00594761 -8.02793e-16)
(1.09266 0.0194147 -4.27412e-16)
(1.07549 0.0292285 -8.01648e-15)
(1.05359 0.0340935 1.58535e-15)
(1.03041 0.0337593 1.16391e-13)
(1.00908 0.0283649 -2.34397e-14)
(0.992593 0.0181296 -1.8253e-12)
(0.984011 0.00352359 -2.44774e-12)
(0.986427 -0.0140837 2.11104e-11)
(1.00193 -0.031501 1.04092e-10)
(1.02945 -0.0437215 2.29399e-10)
(1.06322 -0.0458672 3.04397e-10)
(1.09405 -0.036159 2.60422e-10)
(1.11332 -0.0174266 1.43726e-10)
(1.11665 0.00435986 4.78892e-11)
(1.105 0.0232474 3.80751e-12)
(1.08289 0.0357211 -6.70886e-12)
(1.05575 0.0409892 -5.42589e-12)
(1.02812 0.039752 2.95204e-12)
(1.00343 0.0328663 2.43404e-11)
(0.984603 0.0207509 1.36985e-11)
(0.974664 0.00375746 -2.3693e-10)
(0.976737 -0.0166932 -1.09869e-09)
(0.993028 -0.0369578 -2.75966e-09)
(1.02287 -0.0513578 -4.74582e-09)
(1.06099 -0.0543323 -6.0171e-09)
(1.09794 -0.0435988 -5.78002e-09)
(1.12338 -0.0220147 -4.21661e-09)
(1.13063 0.00362771 -2.28332e-09)
(1.11935 0.0260285 -8.25761e-10)
(1.09469 0.0405099 -8.94175e-11)
(1.06382 0.0459676 1.34757e-10)
(1.03295 0.0436773 1.41616e-10)
(1.00614 0.0354142 2.10591e-11)
(0.985973 0.0222586 -4.4227e-10)
(0.975034 0.00474353 -1.62269e-09)
(0.976408 -0.0158441 -3.68731e-09)
(0.992352 -0.0361241 -6.30713e-09)
(1.02174 -0.0507936 -8.80783e-09)
(1.05879 -0.0547171 -1.05425e-08)
(1.09454 -0.0456522 -1.10396e-08)
(1.12012 -0.0256806 -1.00397e-08)
(1.12973 -0.000450576 -7.72135e-09)
(1.12215 0.0231574 -4.81402e-09)
(1.10061 0.0396899 -2.22233e-09)
(1.07111 0.0467674 -5.17197e-10)
(1.04009 0.0449377 2.14681e-10)
(1.01268 0.0361505 1.31221e-10)
(0.992576 0.0221534 -6.33344e-10)
(0.982909 0.00415202 -1.98053e-09)
(0.986475 -0.0160679 -3.69137e-09)
(1.00427 -0.034979 -5.39844e-09)
(1.03366 -0.0477734 -6.77596e-09)
(1.06822 -0.0504134 -7.69604e-09)
(1.09976 -0.0417053 -8.15147e-09)
(1.12106 -0.023916 -8.06779e-09)
(1.12806 -0.00174831 -7.28384e-09)
(1.12047 0.019409 -5.77178e-09)
(1.10112 0.0350983 -3.81995e-09)
(1.07475 0.0428147 -1.93828e-09)
(1.04662 0.0421553 -6.06952e-10)
(1.02153 0.0341552 -8.34633e-11)
(1.00361 0.0203759 -3.59318e-10)
(0.996343 0.00262003 -1.21525e-09)
(1.00206 -0.0165102 -2.31868e-09)
(1.02059 -0.0332185 -3.35066e-09)
(1.0484 -0.0433294 -4.12272e-09)
(1.07913 -0.0439983 -4.60765e-09)
(1.10564 -0.0350567 -4.86571e-09)
(1.12221 -0.0190661 -4.92974e-09)
(1.12603 -0.000179777 -4.74383e-09)
(1.1175 0.0173416 -4.21513e-09)
(1.09948 0.030235 -3.33233e-09)
(1.07611 0.0366773 -2.2397e-09)
(1.05179 0.0361609 -1.2054e-09)
(1.03064 0.0291148 -4.96876e-10)
(1.01639 0.0166316 -2.49633e-10)
(1.01212 0.000558774 -4.18149e-10)
(1.01946 -0.0162216 -8.31197e-10)
(1.03746 -0.0300013 -1.29922e-09)
(1.0623 -0.0372989 -1.69751e-09)
(1.0882 -0.0362322 -1.98497e-09)
(1.10921 -0.0273073 -2.1721e-09)
(1.12096 -0.0131415 -2.2744e-09)
(1.12169 0.00263292 -2.28192e-09)
(1.11224 0.0166034 -2.16164e-09)
(1.09539 0.0263947 -1.88632e-09)
(1.07477 0.030842 -1.46999e-09)
(1.05412 0.0296941 -9.84331e-10)
(1.03689 0.0232664 -5.35158e-10)
(1.02618 0.0123958 -2.10859e-10)
(1.02441 -0.00128648 -4.22855e-11)
(1.03252 -0.0151567 -3.14687e-12)
(1.04916 -0.0259988 -4.17336e-11)
(1.07066 -0.0310354 -1.13095e-10)
(1.09201 -0.029019 -1.92205e-10)
(1.10838 -0.0207132 -2.69732e-10)
(1.11645 -0.00851494 -3.41152e-10)
(1.11514 0.00450153 -3.98423e-10)
(1.10552 0.0155864 -4.2893e-10)
(1.09013 0.0229401 -4.20261e-10)
(1.07214 0.0257867 -3.67159e-10)
(1.05472 0.0240606 -2.75817e-10)
(1.04082 0.0180927 -1.61742e-10)
(1.03299 0.0086168 -4.23862e-11)
(1.03312 -0.0029443 6.96791e-11)
(1.04168 -0.0143287 1.68346e-10)
(1.05716 -0.0228435 2.51314e-10)
(1.07616 -0.0262686 3.17231e-10)
(1.09431 -0.0237382 3.64657e-10)
(1.10755 -0.0160759 3.92384e-10)
(1.11328 -0.00542669 4.0017e-10)
(1.1108 0.00555795 3.89322e-10)
(1.10127 0.0145584 3.62578e-10)
(1.08705 0.0201084 3.23298e-10)
(1.07104 0.0216483 2.75039e-10)
(1.05608 0.0192368 2.22361e-10)
(1.04478 0.0132537 1.71891e-10)
(1.03938 0.00438679 1.31694e-10)
(1.04147 -0.00611106 1.08549e-10)
(1.05135 -0.0162774 1.0509e-10)
(1.06756 -0.0237681 1.18992e-10)
(1.08693 -0.0266346 1.44552e-10)
(1.10551 -0.0240712 1.75289e-10)
(1.11938 -0.0167796 2.05975e-10)
(1.12628 -0.00663842 2.3339e-10)
(1.12494 0.00385163 2.55917e-10)
(1.11726 0.0125114 2.72399e-10)
(1.1037 0.0177208 2.80992e-10)
(1.09035 0.0190274 2.7886e-10)
(1.07401 0.0165181 2.63521e-10)
(1.06802 0.0102526 2.34484e-10)
(1.05524 0.00373335 1.99479e-10)
(1.06908 -0.0139793 1.41636e-10)
(1.00009 -0.00178629 -4.42081e-18)
(1.00142 -0.00555451 -1.22615e-17)
(1.00459 -0.00986591 -1.02956e-17)
(1.00974 -0.0148596 -1.31777e-17)
(1.0174 -0.0205319 -9.29807e-18)
(1.028 -0.0265852 -2.85157e-17)
(1.04186 -0.0324777 -9.45686e-18)
(1.05893 -0.0371243 7.9494e-17)
(1.07849 -0.0393912 -1.29475e-16)
(1.09907 -0.0377973 -4.03401e-16)
(1.11787 -0.0315737 -1.67221e-16)
(1.13228 -0.0216117 3.06536e-16)
(1.14077 -0.00888034 5.78378e-16)
(1.14208 0.00557398 5.3193e-16)
(1.13522 0.0200163 3.44193e-16)
(1.12048 0.0318299 1.07369e-16)
(1.10007 0.0384745 -2.30778e-16)
(1.07756 0.0385695 -7.56224e-16)
(1.05686 0.0319385 -6.57334e-16)
(1.04167 0.0195257 -2.04192e-17)
(1.03497 0.00327626 -1.12108e-14)
(1.03869 -0.0137982 1.74318e-14)
(1.05283 -0.0273923 2.86814e-13)
(1.07407 -0.0327573 6.24893e-13)
(1.09563 -0.027094 5.49728e-13)
(1.10981 -0.0118175 2.12025e-13)
(1.11173 0.00796153 2.43244e-14)
(1.10115 0.0264112 -2.42704e-14)
(1.08124 0.0396084 -4.55145e-14)
(1.05627 0.0460104 9.80316e-14)
(1.03011 0.045504 3.97824e-13)
(1.00602 0.0383797 -1.17258e-12)
(0.987066 0.0248536 -5.39418e-12)
(0.976636 0.00529523 5.06504e-12)
(0.978636 -0.0187623 6.03916e-11)
(0.996153 -0.0430385 1.31198e-10)
(1.02851 -0.0603064 1.68052e-10)
(1.06897 -0.063355 2.18016e-10)
(1.10598 -0.0496004 2.76815e-10)
(1.12843 -0.0232912 2.42836e-10)
(1.13114 0.00687866 1.34359e-10)
(1.11605 0.0325122 3.75955e-11)
(1.08943 0.0489519 -1.00958e-11)
(1.05801 0.055518 -1.61954e-11)
(1.02684 0.0535375 1.61211e-11)
(0.999223 0.0443521 7.36075e-11)
(0.977654 0.0284963 -5.30522e-11)
(0.964831 0.00622232 -9.71172e-10)
(0.964256 -0.0209703 -3.40439e-09)
(0.979505 -0.0486107 -7.31817e-09)
(1.01125 -0.0691001 -1.15026e-08)
(1.05423 -0.0744036 -1.42172e-08)
(1.09757 -0.0606404 -1.41407e-08)
(1.12897 -0.0312209 -1.11845e-08)
(1.13977 0.00437252 -6.78956e-09)
(1.12857 0.0354937 -2.90556e-09)
(1.10106 0.0552826 -5.8833e-10)
(1.06607 0.0623397 2.94724e-10)
(1.03122 0.0589062 3.83813e-10)
(1.00104 0.0478411 2.24214e-11)
(0.977951 0.0306275 -1.00944e-09)
(0.964781 0.00754328 -3.0801e-09)
(0.965649 -0.0201776 -6.04203e-09)
(0.983701 -0.0480128 -9.12335e-09)
(1.01738 -0.0683713 -1.15733e-08)
(1.05932 -0.0739501 -1.31549e-08)
(1.09892 -0.061767 -1.38495e-08)
(1.12647 -0.0348753 -1.33443e-08)
(1.13624 -0.000976259 -1.12328e-08)
(1.12743 0.0307421 -7.78493e-09)
(1.1037 0.0529848 -4.08287e-09)
(1.07147 0.0625486 -1.26011e-09)
(1.03756 0.0602081 1.39775e-10)
(1.00744 0.0486111 1.38484e-10)
(0.985263 0.0299757 -9.95517e-10)
(0.974929 0.00568859 -2.8638e-09)
(0.979931 -0.0218788 -4.91531e-09)
(1.00118 -0.0476547 -6.60302e-09)
(1.035 -0.0647842 -7.67077e-09)
(1.07357 -0.067774 -8.23253e-09)
(1.10761 -0.0553292 -8.54204e-09)
(1.12943 -0.0309315 -8.65127e-09)
(1.13509 -0.00116837 -8.27299e-09)
(1.12491 0.0267672 -7.06082e-09)
(1.10253 0.0471759 -5.05905e-09)
(1.07332 0.0570237 -2.81142e-09)
(1.0428 0.0559426 -1.04897e-09)
(1.01594 0.0452414 -2.76789e-10)
(0.997174 0.0267623 -5.59442e-10)
(0.990514 0.00274028 -1.56395e-09)
(0.998562 -0.0232231 -2.78002e-09)
(1.02073 -0.0457005 -3.78751e-09)
(1.05244 -0.0588559 -4.41777e-09)
(1.08628 -0.0589457 -4.73358e-09)
(1.11438 -0.046049 -4.89186e-09)
(1.13077 -0.0239455 -4.9877e-09)
(1.1328 0.00156101 -4.95768e-09)
(1.12137 0.0247166 -4.6192e-09)
(1.10007 0.0413156 -3.84255e-09)
(1.07372 0.0492061 -2.71585e-09)
(1.04715 0.0479429 -1.55007e-09)
(1.02473 0.038139 -7.05919e-10)
(1.01046 0.0211377 -3.81818e-10)
(1.00767 -0.000666786 -5.27825e-10)
(1.01789 -0.0233009 -9.29709e-10)
(1.03958 -0.0415802 -1.36612e-09)
(1.06793 -0.0507521 -1.7124e-09)
(1.09629 -0.0484358 -1.94827e-09)
(1.11824 -0.0355831 -2.10892e-09)
(1.12933 -0.0159591 -2.22698e-09)
(1.12802 0.0054111 -2.29188e-09)
(1.11563 0.0239241 -2.24718e-09)
(1.09555 0.0364983 -2.03041e-09)
(1.07203 0.0417611 -1.63139e-09)
(1.04924 0.0395482 -1.1226e-09)
(1.03099 0.0303538 -6.29391e-10)
(1.02065 0.0152938 -2.60102e-10)
(1.02074 -0.00341303 -5.40654e-11)
(1.03194 -0.0221164 1.58369e-11)
(1.0522 -0.0363642 3.8074e-12)
(1.07693 -0.0424347 -4.48068e-11)
(1.10039 -0.038833 -1.06649e-10)
(1.11736 -0.0268379 -1.75728e-10)
(1.12456 -0.00987551 -2.51459e-10)
(1.12117 0.00782022 -3.27129e-10)
(1.1087 0.0225531 -3.85621e-10)
(1.09024 0.0319887 -4.05478e-10)
(1.06949 0.0352134 -3.72728e-10)
(1.05008 0.0322489 -2.89184e-10)
(1.0353 0.0235973 -1.70829e-10)
(1.028 0.0102845 -3.84244e-11)
(1.03011 -0.00568324 9.12559e-11)
(1.04178 -0.0211112 2.07924e-10)
(1.06078 -0.0322666 3.06027e-10)
(1.08284 -0.0362016 3.82844e-10)
(1.10293 -0.0319386 4.37414e-10)
(1.11669 -0.0208209 4.69498e-10)
(1.12152 -0.00591489 4.78798e-10)
(1.11701 0.00912771 4.65363e-10)
(1.10472 0.0211885 4.3078e-10)
(1.08751 0.02836 3.78727e-10)
(1.06876 0.0299787 3.14946e-10)
(1.05173 0.0261918 2.47387e-10)
(1.03941 0.0175443 1.86e-10)
(1.03434 0.00500521 1.40829e-10)
(1.03821 -0.00962724 1.18653e-10)
(1.05102 -0.0235416 1.20396e-10)
(1.07062 -0.0334596 1.41223e-10)
(1.09302 -0.0367815 1.73147e-10)
(1.11363 -0.0325892 2.08249e-10)
(1.12823 -0.0220382 2.4085e-10)
(1.13455 -0.0078196 2.68035e-10)
(1.13156 0.00662824 2.88841e-10)
(1.12144 0.018375 3.02676e-10)
(1.10509 0.0252682 3.07909e-10)
(1.08899 0.0268292 3.01606e-10)
(1.07023 0.0230439 2.81209e-10)
(1.06289 0.0144565 2.46803e-10)
(1.04892 0.0047783 2.06725e-10)
(1.06512 -0.0189031 1.46272e-10)
(1.00008 -0.00213855 4.29547e-18)
(1.00131 -0.00666448 1.35273e-17)
(1.00429 -0.0118932 8.67439e-18)
(1.00921 -0.0180247 2.00826e-17)
(1.01671 -0.0250893 1.647e-17)
(1.02733 -0.0327575 -4.3771e-17)
(1.04162 -0.0403877 2.36451e-16)
(1.05969 -0.0465862 -1.87365e-17)
(1.08095 -0.0498853 -1.43391e-15)
(1.10386 -0.0481458 -3.15625e-16)
(1.12491 -0.0402858 3.47719e-15)
(1.14104 -0.0276704 3.64732e-15)
(1.15072 -0.0115486 5.18456e-16)
(1.15247 0.00689946 -2.02178e-15)
(1.14485 0.025587 -3.44966e-15)
(1.12789 0.0410433 -4.25803e-15)
(1.10419 0.0498053 -5.229e-15)
(1.078 0.0500309 -5.47168e-15)
(1.05389 0.0414851 -8.07788e-16)
(1.03612 0.025344 -1.54463e-14)
(1.02823 0.00399802 -3.91202e-16)
(1.03282 -0.0187718 3.10053e-13)
(1.05038 -0.0372286 -4.71673e-14)
(1.07717 -0.044693 -9.52512e-13)
(1.1046 -0.0370666 -4.04951e-13)
(1.12262 -0.0163082 2.53883e-13)
(1.12511 0.010309 1.68281e-13)
(1.11226 0.0346736 -7.0922e-14)
(1.08861 0.0516693 -6.10586e-14)
(1.05958 0.0596569 4.76387e-13)
(1.02959 0.0588777 -5.32004e-13)
(1.00197 0.0498849 -4.67178e-12)
(0.979802 0.0328252 1.05326e-11)
(0.9668 0.00775041 5.13931e-11)
(0.967509 -0.0238216 -1.47199e-10)
(0.985795 -0.0564231 -1.15332e-09)
(1.02209 -0.080141 -2.84142e-09)
(1.07027 -0.0846322 -3.84007e-09)
(1.11673 -0.0658988 -3.15463e-09)
(1.14588 -0.0299821 -1.56368e-09)
(1.14953 0.0105838 -3.71253e-10)
(1.13044 0.0441211 6.24885e-11)
(1.09775 0.0647393 7.10713e-11)
(1.06064 0.0722738 1.62888e-11)
(1.02499 0.0691385 6.26974e-11)
(0.993704 0.0574588 1.20458e-10)
(0.968355 0.0379518 -4.10574e-10)
(0.951226 0.0104707 -2.61761e-09)
(0.947114 -0.0240127 -7.0688e-09)
(0.962028 -0.0604529 -1.27647e-08)
(0.997569 -0.088737 -1.78838e-08)
(1.04685 -0.0975149 -2.11668e-08)
(1.0967 -0.0809696 -2.17929e-08)
(1.13343 -0.0430807 -1.90037e-08)
(1.14762 0.00386218 -1.32397e-08)
(1.13706 0.0453972 -6.78654e-09)
(1.10728 0.0717546 -2.03485e-09)
(1.06818 0.0808709 2.59478e-10)
(1.02884 0.0761836 7.1981e-10)
(0.994528 0.0620472 9.23703e-12)
(0.968 0.0403878 -1.81975e-09)
(0.952893 0.0109051 -4.75735e-09)
(0.95461 -0.0252927 -8.10966e-09)
(0.976547 -0.0619905 -1.08145e-08)
(1.01574 -0.0886195 -1.23887e-08)
(1.06286 -0.0955062 -1.31995e-08)
(1.10595 -0.0792367 -1.38009e-08)
(1.13477 -0.0443284 -1.40612e-08)
(1.14371 -0.000904925 -1.30627e-08)
(1.13265 0.0394443 -1.01849e-08)
(1.10598 0.067667 -6.10745e-09)
(1.07061 0.0798255 -2.36273e-09)
(1.03359 0.0769437 -1.9397e-10)
(1.00068 0.0622926 9.67692e-12)
(0.976646 0.0384092 -1.40724e-09)
(0.966321 0.00682874 -3.65231e-09)
(0.973704 -0.0291845 -5.80627e-09)
(0.999081 -0.0625143 -7.23352e-09)
(1.03735 -0.0839833 -7.83968e-09)