/*--------------------------------*- C++ -*----------------------------------*\
  =========                 |
  \\      /  F ield         | OpenFOAM: The Open Source CFD Toolbox
   \\    /   O peration     | Website:  https://openfoam.org
    \\  /    A nd           | Version:  11
     \\/     M anipulation  |
\*---------------------------------------------------------------------------*/
FoamFile
{
    format      ascii;
    class       volVectorField;
    location    "7.382373";
    object      U_0;
}
// * * * * * * * * * * * * * * * * * * * * * * * * * * * * * * * * * * * * * //

dimensions      [0 1 -1 0 0 0 0];

internalField   nonuniform List<vector> 
7132
(
(1.00014 -0.000286999 1.78144e-18)
(1.00222 -0.000865962 7.60649e-18)
(1.00694 -0.00148023 8.13553e-18)
(1.01411 -0.00214129 9.41235e-18)
(1.02404 -0.00285202 1.1797e-17)
(1.03691 -0.0035919 1.22461e-17)
(1.05278 -0.00432104 1.14409e-17)
(1.07151 -0.00496127 1.04633e-17)
(1.09255 -0.0054287 9.83122e-18)
(1.11505 -0.00563467 9.53597e-18)
(1.13775 -0.0055294 9.20663e-18)
(1.15944 -0.00517958 9.00404e-18)
(1.17929 -0.00464839 7.71826e-18)
(1.1967 -0.00400243 7.95767e-18)
(1.21135 -0.0033065 -1.58335e-18)
(1.22317 -0.00261283 -1.19454e-17)
(1.23225 -0.00196747 -2.2011e-17)
(1.23888 -0.00140949 -1.32864e-17)
(1.24349 -0.000966437 -1.72662e-17)
(1.24657 -0.000645399 -2.67822e-17)
(1.24861 -0.000423302 -2.8052e-17)
(1.24994 -0.000243247 -3.37442e-17)
(1.25056 -2.28506e-05 -4.47933e-17)
(1.25015 0.000325977 -6.26794e-17)
(1.24801 0.000864814 -6.84796e-17)
(1.2433 0.0015977 -8.33098e-17)
(1.23528 0.00245398 -9.82097e-17)
(1.22366 0.00330101 -1.09907e-16)
(1.20879 0.0039851 -1.20056e-16)
(1.19164 0.00437958 -1.17042e-16)
(1.17357 0.00441781 -1.10925e-16)
(1.1561 0.00410334 -1.01654e-16)
(1.14057 0.00350163 -9.78416e-17)
(1.12795 0.00272196 -8.28882e-17)
(1.11871 0.00189614 -5.78455e-17)
(1.11277 0.00115548 -2.30096e-17)
(1.10951 0.000608751 2.40452e-17)
(1.10799 0.000322477 7.55876e-17)
(1.10705 0.000308222 1.37647e-16)
(1.10563 0.000523146 2.01664e-16)
(1.10295 0.00088532 2.63116e-16)
(1.0986 0.00129804 3.1939e-16)
(1.09259 0.00167371 3.66419e-16)
(1.0852 0.0019494 4.10625e-16)
(1.07696 0.00209199 4.49707e-16)
(1.06842 0.0020954 4.86491e-16)
(1.06014 0.00197367 5.23833e-16)
(1.05258 0.00175335 5.63542e-16)
(1.04607 0.00146693 6.10401e-16)
(1.04081 0.00114811 6.61347e-16)
(1.03686 0.000828432 7.12414e-16)
(1.03417 0.000535088 7.6055e-16)
(1.03258 0.000289239 8.02272e-16)
(1.03186 0.000104932 8.29879e-16)
(1.03176 -1.15178e-05 8.39485e-16)
(1.03198 -6.15263e-05 8.28894e-16)
(1.03227 -5.34234e-05 7.99043e-16)
(1.03243 -7.6173e-07 7.55486e-16)
(1.0323 8.0002e-05 7.01572e-16)
(1.0318 0.000172061 6.42029e-16)
(1.03093 0.000260543 5.79271e-16)
(1.02972 0.000334102 5.14606e-16)
(1.02825 0.000385652 4.48047e-16)
(1.02663 0.00041231 3.74677e-16)
(1.02495 0.000414771 2.92249e-16)
(1.0233 0.000396383 1.95571e-16)
(1.02177 0.000362145 7.90953e-17)
(1.02039 0.00031778 -5.97118e-17)
(1.01922 0.000268978 -2.24953e-16)
(1.01824 0.000220827 -4.14949e-16)
(1.01745 0.000177432 -6.28895e-16)
(1.01682 0.000141707 -8.63877e-16)
(1.01631 0.00011532 -1.11394e-15)
(1.0159 9.87496e-05 -1.37467e-15)
(1.01553 9.14493e-05 -1.63781e-15)
(1.01517 9.20755e-05 -1.89852e-15)
(1.01479 9.87575e-05 -2.15237e-15)
(1.01438 0.000109376 -2.39503e-15)
(1.01392 0.000121825 -2.62571e-15)
(1.01341 0.000134221 -2.84157e-15)
(1.01285 0.000145063 -3.0442e-15)
(1.01225 0.000153314 -3.23541e-15)
(1.01162 0.000158414 -3.41661e-15)
(1.01098 0.000160252 -3.59144e-15)
(1.01033 0.000159077 -3.75991e-15)
(1.0097 0.000155406 -3.92451e-15)
(1.00909 0.000149911 -4.08554e-15)
(1.0085 0.00014332 -4.24104e-15)
(1.00794 0.000136332 -4.38951e-15)
(1.00741 0.00012955 -4.52493e-15)
(1.0069 0.000123447 -4.64406e-15)
(1.00642 0.00011834 -4.74298e-15)
(1.00596 0.000114395 -4.81762e-15)
(1.0055 0.000111636 -4.86906e-15)
(1.00506 0.000109973 -4.89663e-15)
(1.00462 0.000109234 -4.90256e-15)
(1.00419 0.00010919 -4.89007e-15)
(1.00375 0.000109595 -4.86029e-15)
(1.00331 0.000110208 -4.81641e-15)
(1.00287 0.000110819 -4.75683e-15)
(1.00242 0.000111258 -4.68043e-15)
(1.00198 0.000111411 -4.58637e-15)
(1.00153 0.000111213 -4.47285e-15)
(1.00108 0.000110648 -4.34243e-15)
(1.00064 0.000109735 -4.19496e-15)
(1.0002 0.000108518 -4.03154e-15)
(0.999772 0.000107052 -3.85174e-15)
(0.999346 0.000105395 -3.65019e-15)
(0.998927 0.000103591 -3.42026e-15)
(0.998516 0.000101672 -3.14733e-15)
(0.998112 9.96453e-05 -2.81478e-15)
(0.997716 9.74981e-05 -2.40441e-15)
(0.997329 9.51957e-05 -1.89704e-15)
(0.996952 9.26877e-05 -1.2798e-15)
(0.996585 8.99142e-05 -5.4219e-16)
(0.99623 8.68115e-05 3.1605e-16)
(0.995887 8.33096e-05 1.2843e-15)
(0.99556 7.93137e-05 2.34163e-15)
(0.995249 7.46632e-05 3.45291e-15)
(0.994958 6.9069e-05 4.57802e-15)
(0.994692 6.20431e-05 5.67233e-15)
(0.994457 5.28517e-05 6.6904e-15)
(0.994263 4.05336e-05 7.59423e-15)
(0.994126 2.40244e-05 8.35362e-15)
(0.994063 2.4076e-06 8.95401e-15)
(0.994096 -2.47295e-05 9.40446e-15)
(0.994248 -5.6908e-05 9.75081e-15)
(0.994537 -9.2453e-05 1.00885e-14)
(0.994971 -0.000128407 1.05556e-14)
(0.995545 -0.000160768 1.13101e-14)
(0.996238 -0.000185074 1.24742e-14)
(0.997007 -0.000197259 1.4056e-14)
(0.997798 -0.000194602 1.58673e-14)
(0.998549 -0.000176499 1.74524e-14)
(0.999198 -0.000144842 1.80718e-14)
(0.999699 -0.000103837 1.67578e-14)
(1.00002 -5.92644e-05 1.24654e-14)
(1.00017 -1.73529e-05 4.31545e-15)
(1.00016 1.64632e-05 -8.11678e-15)
(1.00004 3.85738e-05 -2.45249e-14)
(0.99985 4.77623e-05 -4.37093e-14)
(0.999653 4.5199e-05 -6.35958e-14)
(0.999488 3.39075e-05 -8.14821e-14)
(0.999381 1.78914e-05 -9.45188e-14)
(0.999343 1.17555e-06 -1.00326e-13)
(0.999371 -1.29965e-05 -9.75956e-14)
(0.999447 -2.26433e-05 -8.64945e-14)
(0.999552 -2.71514e-05 -6.87025e-14)
(0.999665 -2.7058e-05 -4.70814e-14)
(0.99977 -2.36353e-05 -2.50362e-14)
(0.999856 -1.84209e-05 -5.76024e-15)
(0.999918 -1.28206e-05 8.4308e-15)
(0.999959 -7.85749e-06 1.6502e-14)
(0.999981 -4.08355e-06 1.87423e-14)
(0.999991 -1.62556e-06 1.64857e-14)
(0.999994 -3.15213e-07 1.16183e-14)
(0.999993 1.7759e-07 6.03035e-15)
(0.999993 1.71839e-07 1.24055e-15)
(0.999992 1.07786e-08 -2.06661e-15)
(0.999993 -2.99424e-07 -3.33856e-15)
(1.00014 -0.000858181 2.29559e-20)
(1.0022 -0.00259072 3.63418e-19)
(1.00688 -0.00443042 7.46418e-19)
(1.01401 -0.00641429 1.13461e-18)
(1.0239 -0.00855193 1.55721e-18)
(1.03677 -0.010783 1.93894e-18)
(1.0527 -0.0129883 2.28872e-18)
(1.07157 -0.0149295 2.09833e-18)
(1.09284 -0.016351 5.56887e-18)
(1.11564 -0.016976 7.05407e-18)
(1.13863 -0.0166503 4.42716e-18)
(1.16054 -0.0155858 5.05055e-18)
(1.18055 -0.0139757 2.97082e-19)
(1.19806 -0.0120224 1.05352e-17)
(1.21274 -0.00992159 4.14871e-17)
(1.22453 -0.00782992 8.31783e-17)
(1.23355 -0.00588547 1.16166e-16)
(1.24009 -0.00420603 1.23085e-16)
(1.24457 -0.00287563 9.32421e-17)
(1.24754 -0.00191717 2.47158e-17)
(1.24951 -0.00126198 -7.72429e-17)
(1.25083 -0.000737833 -2.00423e-16)
(1.25154 -9.25369e-05 -3.21237e-16)
(1.25129 0.000943354 -4.18975e-16)
(1.24935 0.00256151 -4.79926e-16)
(1.24479 0.00477729 -5.00966e-16)
(1.23683 0.00737592 -4.87148e-16)
(1.22513 0.00995133 -4.47887e-16)
(1.21004 0.0120329 -3.92522e-16)
(1.19257 0.0132335 -3.28477e-16)
(1.17414 0.0133503 -2.44737e-16)
(1.15633 0.0123951 -1.64023e-16)
(1.14055 0.0105674 -6.42722e-17)
(1.1278 0.00819913 7.3554e-17)
(1.11856 0.00569049 2.43672e-16)
(1.11273 0.00344022 4.64032e-16)
(1.10969 0.00177921 7.08967e-16)
(1.10842 0.000910531 9.55316e-16)
(1.10773 0.000869784 1.18688e-15)
(1.10651 0.00152635 1.37571e-15)
(1.10394 0.0026302 1.52265e-15)
(1.09962 0.00388653 1.61846e-15)
(1.09355 0.00502904 1.67206e-15)
(1.08606 0.00586705 1.70151e-15)
(1.07769 0.00630092 1.71447e-15)
(1.06902 0.00631305 1.72808e-15)
(1.06062 0.00594657 1.74321e-15)
(1.05297 0.00528204 1.76446e-15)
(1.0464 0.00441779 1.7924e-15)
(1.04111 0.00345553 1.81433e-15)
(1.03716 0.00249049 1.81637e-15)
(1.03449 0.00160473 1.77786e-15)
(1.03295 0.000862188 1.67696e-15)
(1.03229 0.000305418 1.50271e-15)
(1.03224 -4.63162e-05 1.25295e-15)
(1.03253 -0.000197102 9.42273e-16)
(1.03287 -0.000171988 5.90862e-16)
(1.03307 -1.19232e-05 2.25737e-16)
(1.03296 0.000233271 -1.23764e-16)
(1.03247 0.000512656 -4.43346e-16)
(1.03159 0.000781143 -7.25835e-16)
(1.03036 0.00100435 -9.7695e-16)
(1.02887 0.00116082 -1.21037e-15)
(1.02722 0.00124186 -1.4434e-15)
(1.02552 0.0012496 -1.69528e-15)
(1.02385 0.0011942 -1.9801e-15)
(1.0223 0.00109082 -2.31627e-15)
(1.02092 0.000956787 -2.70895e-15)
(1.01973 0.000809314 -3.16002e-15)
(1.01875 0.000663792 -3.66407e-15)
(1.01796 0.000532636 -4.20741e-15)
(1.01734 0.000424668 -4.77885e-15)
(1.01684 0.00034493 -5.35657e-15)
(1.01644 0.00029488 -5.92222e-15)
(1.01607 0.000272872 -6.45846e-15)
(1.01572 0.00027485 -6.94987e-15)
(1.01535 0.000295156 -7.39187e-15)
(1.01494 0.000327379 -7.77701e-15)
(1.01448 0.000365138 -8.10617e-15)
(1.01396 0.000402736 -8.38193e-15)
(1.0134 0.000435625 -8.60865e-15)
(1.0128 0.00046066 -8.79787e-15)
(1.01216 0.000476158 -8.95394e-15)
(1.01152 0.000481774 -9.08467e-15)
(1.01087 0.000478274 -9.19434e-15)
(1.01023 0.000467219 -9.28412e-15)
(1.00962 0.000450644 -9.35725e-15)
(1.00903 0.000430751 -9.40642e-15)
(1.00846 0.000409655 -9.4256e-15)
(1.00793 0.000389185 -9.40487e-15)
(1.00742 0.000370769 -9.33458e-15)
(1.00694 0.000355367 -9.21157e-15)
(1.00648 0.000343478 -9.03027e-15)
(1.00602 0.000335179 -8.79392e-15)
(1.00558 0.0003302 -8.50872e-15)
(1.00514 0.000328013 -8.1831e-15)
(1.0047 0.000327933 -7.8272e-15)
(1.00426 0.000329211 -7.44561e-15)
(1.00382 0.000331121 -7.04275e-15)
(1.00338 0.000333023 -6.61751e-15)
(1.00293 0.000334408 -6.16582e-15)
(1.00248 0.000334928 -5.68483e-15)
(1.00203 0.000334388 -5.17049e-15)
(1.00158 0.000332739 -4.62534e-15)
(1.00114 0.00033004 -4.05282e-15)
(1.0007 0.000326427 -3.45637e-15)
(1.00026 0.000322069 -2.83788e-15)
(0.999831 0.000317138 -2.19015e-15)
(0.999408 0.000311774 -1.50173e-15)
(0.998992 0.000306071 -7.51724e-16)
(0.998584 0.000300056 8.68603e-17)
(0.998184 0.000293692 1.04253e-15)
(0.997793 0.000286876 2.14639e-15)
(0.99741 0.000279456 3.4224e-15)
(0.997038 0.000271253 4.8902e-15)
(0.996676 0.000262073 6.56155e-15)
(0.996327 0.000251705 8.43748e-15)
(0.995993 0.000239865 1.05123e-14)
(0.995674 0.00022608 1.27686e-14)
(0.995376 0.000209502 1.51859e-14)
(0.9951 0.000188699 1.77458e-14)
(0.994856 0.000161511 2.04326e-14)
(0.994651 0.0001251 2.32432e-14)
(0.9945 7.63056e-05 2.61804e-14)
(0.994422 1.23796e-05 2.9255e-14)
(0.994436 -6.79603e-05 3.24978e-14)
(0.994566 -0.000163372 3.5981e-14)
(0.994828 -0.000268971 3.98315e-14)
(0.995231 -0.000376052 4.42047e-14)
(0.995772 -0.000472759 4.92259e-14)
(0.996429 -0.000545812 5.48852e-14)
(0.997163 -0.000583043 6.08957e-14)
(0.997919 -0.000576217 6.65666e-14)
(0.998638 -0.000523373 7.07162e-14)
(0.99926 -0.000429984 7.16951e-14)
(0.999738 -0.000308451 6.75481e-14)
(1.00004 -0.000175944 5.63232e-14)
(1.00018 -5.1046e-05 3.65228e-14)
(1.00016 4.99481e-05 7.6177e-15)
(1.00003 0.000116134 -2.94744e-14)
(0.999842 0.000143736 -7.21201e-14)
(0.999643 0.000136133 -1.16017e-13)
(0.999477 0.000102289 -1.55648e-13)
(0.999371 5.41593e-05 -1.85192e-13)
(0.999335 3.82011e-06 -1.99744e-13)
(0.999364 -3.89532e-05 -1.96541e-13)
(0.999443 -6.81506e-05 -1.75818e-13)
(0.99955 -8.18702e-05 -1.40928e-13)
(0.999665 -8.16866e-05 -9.76921e-14)
(0.999771 -7.14095e-05 -5.31015e-14)
(0.999858 -5.56733e-05 -1.37606e-14)
(0.999921 -3.87329e-05 1.54906e-14)
(0.999961 -2.3698e-05 3.24172e-14)
(0.999983 -1.22566e-05 3.74941e-14)
(0.999993 -4.80618e-06 3.33455e-14)
(0.999995 -8.4408e-07 2.37563e-14)
(0.999994 6.30147e-07 1.25563e-14)
(0.999993 5.8663e-07 2.85036e-15)
(0.999991 7.5047e-08 -3.91947e-15)
(0.999993 -8.93307e-07 -6.65348e-15)
(1.00014 -0.00142154 2.31839e-22)
(1.00216 -0.00429336 4.44042e-21)
(1.00676 -0.00734947 5.66162e-21)
(1.01379 -0.0106575 1.60918e-20)
(1.02362 -0.0142381 -1.45387e-19)
(1.03648 -0.0179949 2.32301e-19)
(1.05252 -0.0217312 -8.29861e-19)
(1.07167 -0.0250372 -1.52117e-18)
(1.0934 -0.0274734 6.16198e-18)
(1.11681 -0.0285402 -8.84628e-19)
(1.1404 -0.027963 -3.65018e-17)
(1.16276 -0.0261372 -3.10597e-17)
(1.18309 -0.0233974 9.54544e-17)
(1.20078 -0.0200885 3.14148e-16)
(1.21552 -0.0165405 4.82876e-16)
(1.22728 -0.0130132 4.50037e-16)
(1.23617 -0.009738 1.48772e-16)
(1.2425 -0.00691552 -3.86451e-16)
(1.24675 -0.00469323 -1.06087e-15)
(1.2495 -0.00311631 -1.76358e-15)
(1.25133 -0.00207215 -2.38936e-15)
(1.25264 -0.00126631 -2.81996e-15)
(1.25353 -0.000261519 -2.91092e-15)
(1.2536 0.00141609 -2.6681e-15)
(1.25204 0.00411033 -2.17326e-15)
(1.24781 0.00785852 -1.53918e-15)
(1.23996 0.0122925 -8.8058e-16)
(1.22806 0.0167053 -2.77226e-16)
(1.21249 0.0202766 2.4192e-16)
(1.19433 0.0223348 6.91633e-16)
(1.17516 0.0225321 1.11684e-15)
(1.15668 0.0208926 1.57141e-15)
(1.14041 0.0177621 2.10882e-15)
(1.12743 0.0137109 2.76768e-15)
(1.11823 0.00942446 3.5477e-15)
(1.11269 0.0055857 4.39457e-15)
(1.11011 0.00276195 5.20023e-15)
(1.10939 0.00130152 5.84188e-15)
(1.10921 0.0012636 6.23796e-15)
(1.10836 0.0024194 6.37785e-15)
(1.10598 0.00433417 6.31375e-15)
(1.10166 0.00649827 6.12252e-15)
(1.09543 0.00845514 5.87319e-15)
(1.08768 0.00988192 5.61279e-15)
(1.07901 0.0106137 5.3655e-15)
(1.07006 0.010626 5.13959e-15)
(1.06142 0.00999641 4.92917e-15)
(1.05359 0.00886424 4.71363e-15)
(1.04692 0.00739729 4.45433e-15)
(1.04159 0.00576784 4.09173e-15)
(1.03767 0.00413662 3.55197e-15)
(1.03507 0.0026419 2.7621e-15)
(1.03364 0.0013914 1.67112e-15)
(1.03312 0.000456774 2.82672e-16)
(1.03321 -0.000129723 -1.33213e-15)
(1.03362 -0.000375453 -3.06313e-15)
(1.03407 -0.000323455 -4.78258e-15)
(1.03434 -4.38199e-05 -6.35941e-15)
(1.03427 0.000378375 -7.69102e-15)
(1.03378 0.000856349 -8.74665e-15)
(1.03288 0.00131358 -9.55034e-15)
(1.03161 0.00169206 -1.01655e-14)
(1.03006 0.00195595 -1.06762e-14)
(1.02836 0.00209112 -1.11678e-14)
(1.0266 0.00210181 -1.17188e-14)
(1.02489 0.00200575 -1.23849e-14)
(1.02331 0.00182891 -1.3202e-14)
(1.02191 0.00160081 -1.41798e-14)
(1.02072 0.00135067 -1.53017e-14)
(1.01974 0.00110449 -1.65318e-14)
(1.01897 0.000883176 -1.78138e-14)
(1.01836 0.000701534 -1.90865e-14)
(1.01788 0.000567953 -2.02878e-14)
(1.01749 0.000484759 -2.13623e-14)
(1.01714 0.000449031 -2.22713e-14)
(1.0168 0.00045379 -2.29887e-14)
(1.01644 0.000489371 -2.35089e-14)
(1.01603 0.000544864 -2.38393e-14)
(1.01557 0.000609444 -2.39957e-14)
(1.01505 0.000673472 -2.40021e-14)
(1.01448 0.000729282 -2.38804e-14)
(1.01387 0.000771603 -2.36557e-14)
(1.01322 0.000797644 -2.33481e-14)
(1.01257 0.00080689 -2.29724e-14)
(1.01191 0.000800691 -2.25387e-14)
(1.01127 0.000781742 -2.20459e-14)
(1.01065 0.000753522 -2.14888e-14)
(1.01005 0.00071978 -2.08532e-14)
(1.00948 0.000684099 -2.01192e-14)
(1.00895 0.000649574 -1.92671e-14)
(1.00844 0.000618602 -1.8278e-14)
(1.00796 0.000592794 -1.71438e-14)
(1.00749 0.000572971 -1.58678e-14)
(1.00704 0.000559244 -1.44664e-14)
(1.00659 0.000551135 -1.29661e-14)
(1.00615 0.000547737 -1.13975e-14)
(1.00571 0.000547882 -9.78867e-15)
(1.00527 0.000550295 -8.15754e-15)
(1.00482 0.000553745 -6.50909e-15)
(1.00437 0.000557151 -4.83583e-15)
(1.00392 0.000559659 -3.12259e-15)
(1.00346 0.000560684 -1.35395e-15)
(1.00301 0.00055991 4.79235e-16)
(1.00256 0.00055726 2.37576e-15)
(1.0021 0.000552848 4.32505e-15)
(1.00166 0.000546908 6.31251e-15)
(1.00121 0.000539738 8.32713e-15)
(1.00078 0.000531629 1.03691e-14)
(1.00035 0.000522826 1.24537e-14)
(0.999923 0.000513488 1.46113e-14)
(0.999507 0.000503668 1.68843e-14)
(0.999099 0.000493303 1.93212e-14)
(0.998698 0.000482225 2.1974e-14)
(0.998306 0.000470181 2.4896e-14)
(0.997923 0.000456865 2.81438e-14)
(0.99755 0.000441948 3.17806e-14)
(0.997189 0.000425068 3.58788e-14)
(0.996841 0.00040575 4.05232e-14)
(0.996508 0.000383217 4.58125e-14)
(0.996194 0.000356091 5.1861e-14)
(0.995902 0.000322059 5.88014e-14)
(0.99564 0.000277627 6.67835e-14)
(0.995415 0.00021819 7.59673e-14)
(0.995241 0.000138596 8.65055e-14)
(0.995136 3.43312e-05 9.85224e-14)
(0.995118 -9.67703e-05 1.12113e-13)
(0.995208 -0.000252622 1.27389e-13)
(0.995423 -0.000425359 1.44468e-13)
(0.995772 -0.000600843 1.63389e-13)
(0.996252 -0.000759723 1.83946e-13)
(0.996842 -0.000880223 2.05443e-13)
(0.997505 -0.000942306 2.26425e-13)
(0.998192 -0.000932305 2.44469e-13)
(0.998845 -0.000846824 2.56142e-13)
(0.999406 -0.000694681 2.572e-13)
(0.999832 -0.000496142 2.43052e-13)
(1.0001 -0.000279398 2.09493e-13)
(1.0002 -7.50522e-05 1.53648e-13)
(1.00016 8.99855e-05 7.50296e-14)
(1.00001 0.00019765 -2.34952e-14)
(0.999815 0.000241638 -1.35178e-13)
(0.999614 0.000227483 -2.49469e-13)
(0.999449 0.000170007 -3.53004e-13)
(0.999347 8.90353e-05 -4.31645e-13)
(0.999317 4.63404e-06 -4.73345e-13)
(0.999352 -6.69247e-05 -4.71148e-13)
(0.999437 -0.000115626 -4.2534e-13)
(0.99955 -0.000138309 -3.43877e-13)
(0.999669 -0.000137634 -2.40857e-13)
(0.999778 -0.000120017 -1.33385e-13)
(0.999866 -9.32686e-05 -3.77487e-14)
(0.999928 -6.45675e-05 3.4e-14)
(0.999968 -3.91627e-05 7.61285e-14)
(0.999989 -1.98992e-05 8.95311e-14)
(0.999996 -7.43549e-06 8.03882e-14)
(0.999997 -8.98864e-07 5.7775e-14)
(0.999995 1.42426e-06 3.09618e-14)
(0.999993 1.20392e-06 7.51261e-15)
(0.999991 2.24323e-07 -8.97572e-15)
(0.999993 -1.4967e-06 -1.58673e-14)
(1.00014 -0.00197161 -2.21645e-20)
(1.0021 -0.00595739 -4.60571e-19)
(1.00657 -0.0102142 -8.19431e-19)
(1.01345 -0.0148472 -1.62984e-18)
(1.02315 -0.0198968 -1.80007e-18)
(1.03598 -0.0252373 -1.80964e-18)
(1.05218 -0.030598 -1.13252e-17)
(1.07175 -0.0353793 1.74149e-17)
(1.0942 -0.0389373 3.71302e-18)
(1.11856 -0.040485 -1.37734e-16)
(1.14306 -0.0395995 -3.24107e-17)
(1.16612 -0.0369306 6.36078e-16)
(1.18692 -0.0329743 1.28469e-15)
(1.20487 -0.0282302 8.53674e-16)
(1.2197 -0.0231679 -1.25031e-15)
(1.23139 -0.0181481 -4.686e-15)
(1.24008 -0.0134947 -8.48746e-15)
(1.24611 -0.00949599 -1.1652e-14)
(1.24999 -0.00637273 -1.35065e-14)
(1.25238 -0.00420336 -1.37376e-14)
(1.25397 -0.00283526 -1.22346e-14)
(1.25528 -0.00184213 -8.95484e-15)
(1.25642 -0.000575802 -4.078e-15)
(1.25701 0.00167922 1.53211e-15)
(1.25608 0.00545544 6.85484e-15)
(1.25237 0.0108294 1.11327e-14)
(1.2447 0.0172625 1.3999e-14)
(1.23252 0.0236984 1.55166e-14)
(1.21619 0.0289109 1.60616e-14)
(1.19696 0.0319041 1.61271e-14)
(1.17663 0.0321725 1.61763e-14)
(1.15711 0.0297623 1.65043e-14)
(1.1401 0.0251882 1.72852e-14)
(1.12676 0.0192862 1.84876e-14)
(1.11763 0.0130563 1.98122e-14)
(1.11255 0.00749332 2.07639e-14)
(1.11071 0.00342557 2.07749e-14)
(1.11084 0.00136135 1.95598e-14)
(1.11146 0.00138174 1.73181e-14)
(1.11119 0.00314029 1.46159e-14)
(1.1091 0.00598742 1.20982e-14)
(1.10475 0.00916924 1.01567e-14)
(1.09825 0.0120195 8.87098e-15)
(1.09009 0.0140763 8.091e-15)
(1.08095 0.0151128 7.56909e-15)
(1.07155 0.015106 7.07898e-15)
(1.06254 0.0141776 6.42118e-15)
(1.05444 0.0125344 5.42267e-15)
(1.04761 0.0104197 3.89625e-15)
(1.04223 0.00808111 1.61955e-15)
(1.03835 0.0057478 -1.62438e-15)
(1.03589 0.00361649 -5.98173e-15)
(1.03464 0.00184009 -1.14392e-14)
(1.03433 0.000520008 -1.77462e-14)
(1.03464 -0.000298669 -2.44178e-14)
(1.03525 -0.000627768 -3.08946e-14)
(1.03587 -0.000530593 -3.66377e-14)
(1.03624 -0.000109447 -4.12317e-14)
(1.03622 0.000511985 -4.4487e-14)
(1.03574 0.00120813 -4.64829e-14)
(1.03479 0.00186896 -4.74767e-14)
(1.03345 0.00241187 -4.78164e-14)
(1.03181 0.0027867 -4.78616e-14)
(1.03002 0.00297475 -4.79251e-14)
(1.02818 0.0029836 -4.82426e-14)
(1.0264 0.00283986 -4.89525e-14)
(1.02478 0.00258162 -5.01068e-14)
(1.02335 0.00225163 -5.16618e-14)
(1.02216 0.00189187 -5.35031e-14)
(1.02119 0.00153947 -5.54635e-14)
(1.02043 0.00122414 -5.73466e-14)
(1.01985 0.000966712 -5.89675e-14)
(1.01941 0.00077882 -6.01654e-14)
(1.01905 0.000663418 -6.08354e-14)
(1.01873 0.000615987 -6.09337e-14)
(1.01841 0.000626239 -6.04713e-14)
(1.01806 0.000680117 -5.95088e-14)
(1.01765 0.000761849 -5.81235e-14)
(1.01719 0.000855869 -5.64015e-14)
(1.01666 0.000948388 -5.44193e-14)
(1.01608 0.00102851 -5.2236e-14)
(1.01545 0.00108883 -4.98979e-14)
(1.01479 0.0011255 -4.74253e-14)
(1.01412 0.00113797 -4.4826e-14)
(1.01345 0.00112831 -4.20917e-14)
(1.01279 0.0011005 -3.91999e-14)
(1.01216 0.00105963 -3.61221e-14)
(1.01156 0.00101108 -3.28138e-14)
(1.01099 0.000960021 -2.92319e-14)
(1.01045 0.000910847 -2.53376e-14)
(1.00994 0.000866959 -2.11087e-14)
(1.00946 0.000830611 -1.65537e-14)
(1.00899 0.000802925 -1.1707e-14)
(1.00854 0.000784006 -6.63648e-15)
(1.00809 0.000773126 -1.42854e-15)
(1.00765 0.00076895 3.82886e-15)
(1.0072 0.000769778 9.06381e-15)
(1.00675 0.000773775 1.42413e-14)
(1.0063 0.000779171 1.93639e-14)
(1.00584 0.000784427 2.44717e-14)
(1.00538 0.000788334 2.96254e-14)
(1.00492 0.000790076 3.48827e-14)
(1.00446 0.000789224 4.02829e-14)
(1.00399 0.000785691 4.58279e-14)
(1.00353 0.000779663 5.14875e-14)
(1.00307 0.000771495 5.72096e-14)
(1.00262 0.000761626 6.2937e-14)
(1.00217 0.000750487 6.86294e-14)
(1.00173 0.000738433 7.42687e-14)
(1.0013 0.000725697 7.98665e-14)
(1.00087 0.000712359 8.54591e-14)
(1.00045 0.000698339 9.11031e-14)
(1.00004 0.0006834 9.68821e-14)
(0.99963 0.000667186 1.02914e-13)
(0.999232 0.000649259 1.09376e-13)
(0.998842 0.000629141 1.16529e-13)
(0.998463 0.000606306 1.24737e-13)
(0.998096 0.000580079 1.34478e-13)
(0.997742 0.000549385 1.46331e-13)
(0.997406 0.000512356 1.6097e-13)
(0.997091 0.000465879 1.79132e-13)
(0.996802 0.000405259 2.01579e-13)
(0.996549 0.000324291 2.29055e-13)
(0.996342 0.000216009 2.62212e-13)
(0.996198 7.42618e-05 3.01524e-13)
(0.996134 -0.000103964 3.47219e-13)
(0.996169 -0.000315957 3.99329e-13)
(0.996317 -0.000551162 4.5763e-13)
(0.996589 -0.000790453 5.21368e-13)
(0.99698 -0.00100752 5.88823e-13)
(0.997472 -0.00117265 6.56783e-13)
(0.998033 -0.00125837 7.20071e-13)
(0.998615 -0.00124585 7.71358e-13)
(0.999166 -0.00113027 8.01398e-13)
(0.999634 -0.000923554 7.99783e-13)
(0.999978 -0.000653412 7.56159e-13)
(1.00018 -0.0003585 6.61811e-13)
(1.00022 -8.08788e-05 5.11544e-13)
(1.00015 0.000142418 3.05764e-13)
(0.999978 0.000286518 5.24012e-14)
(0.999769 0.000342781 -2.31983e-13)
(0.999564 0.000318948 -5.22221e-13)
(0.999403 0.000235649 -7.86521e-13)
(0.999309 0.000120472 -9.90995e-13)
(0.999289 1.35217e-06 -1.10632e-12)
(0.999335 -9.9062e-05 -1.11496e-12)
(0.99943 -0.000166871 -1.01666e-12)
(0.999552 -0.000197782 -8.29733e-13)
(0.999677 -0.000195682 -5.87703e-13)
(0.99979 -0.000169741 -3.31832e-13)
(0.999879 -0.000131086 -1.01836e-13)
(0.999941 -8.99269e-05 7.24939e-14)
(0.999979 -5.37135e-05 1.76508e-13)
(0.999997 -2.64539e-05 2.11589e-13)
(1 -9.02705e-06 1.92033e-13)
(1 -1.12829e-07 1.3935e-13)
(0.999996 2.79107e-06 7.5765e-14)
(0.999993 2.1412e-06 1.9581e-14)
(0.999991 4.85276e-07 -2.0277e-14)
(0.999993 -2.12961e-06 -3.75278e-14)
(1.00013 -0.0025017 -1.84951e-18)
(1.002 -0.00756376 -6.7042e-18)
(1.0063 -0.0129964 -5.78252e-18)
(1.01296 -0.0189528 -9.10535e-18)
(1.02247 -0.0255054 2.07753e-19)
(1.03522 -0.0325111 -3.02239e-17)
(1.05161 -0.039632 2.06468e-17)
(1.07172 -0.0460536 8.19336e-17)
(1.09515 -0.0508994 -4.34115e-16)
(1.12087 -0.0529859 2.17537e-17)
(1.14664 -0.0517006 2.37024e-15)
(1.17062 -0.0480661 2.58427e-15)
(1.19206 -0.0427669 -4.45536e-15)
(1.21036 -0.0364722 -1.86514e-14)
(1.22529 -0.0297962 -3.42473e-14)
(1.23688 -0.0231955 -4.41528e-14)
(1.24529 -0.0170888 -4.40264e-14)
(1.25089 -0.0118615 -3.32904e-14)
(1.25424 -0.00782558 -1.37308e-14)
(1.25613 -0.00511008 1.21913e-14)
(1.25738 -0.00352779 4.23186e-14)
(1.25865 -0.00250495 7.43409e-14)
(1.26017 -0.00114347 1.03218e-13)
(1.26148 0.00157162 1.24058e-13)
(1.26147 0.00642196 1.35147e-13)
(1.25852 0.0135534 1.36544e-13)
(1.25114 0.0222314 1.30252e-13)
(1.23856 0.030975 1.19267e-13)
(1.22117 0.038064 1.06573e-13)
(1.20045 0.0421172 9.44744e-14)
(1.1785 0.0424517 8.43311e-14)
(1.15754 0.0391512 7.6567e-14)
(1.13949 0.0329327 7.06931e-14)
(1.12567 0.0249387 6.5262e-14)
(1.11665 0.0165255 5.79897e-14)
(1.11221 0.00904149 4.63902e-14)
(1.11142 0.00361146 2.92011e-14)
(1.11276 0.000926259 7.76697e-15)
(1.11449 0.00108731 -1.4056e-14)
(1.11504 0.00360233 -3.1714e-14)
(1.11332 0.00756257 -4.22382e-14)
(1.10892 0.0119257 -4.5319e-14)
(1.10203 0.0157863 -4.2809e-14)
(1.09328 0.0185335 -3.7446e-14)
(1.08348 0.0198836 -3.17166e-14)
(1.07347 0.0198283 -2.73635e-14)
(1.06395 0.0185485 -2.54176e-14)
(1.05549 0.0163305 -2.648e-14)
(1.04844 0.0135029 -3.0998e-14)
(1.043 0.0103942 -3.93589e-14)
(1.0392 0.00730691 -5.17856e-14)
(1.03691 0.00449901 -6.80723e-14)
(1.03592 0.00217081 -8.73358e-14)
(1.0359 0.000454551 -1.07961e-13)
(1.03652 -0.00059199 -1.27893e-13)
(1.03741 -0.000986947 -1.45084e-13)
(1.03824 -0.000817336 -1.57932e-13)
(1.03876 -0.000222297 -1.65775e-13)
(1.03881 0.000630977 -1.68968e-13)
(1.03832 0.00157375 -1.68453e-13)
(1.03731 0.00245951 -1.65422e-13)
(1.03587 0.00317973 -1.61088e-13)
(1.03411 0.00367014 -1.56497e-13)
(1.03219 0.00390875 -1.52418e-13)
(1.03024 0.00390834 -1.49312e-13)
(1.02838 0.00370642 -1.47332e-13)
(1.02669 0.00335501 -1.46368e-13)
(1.02523 0.00291162 -1.4609e-13)
(1.02403 0.00243209 -1.46008e-13)
(1.02308 0.00196544 -1.45568e-13)
(1.02235 0.00155054 -1.4423e-13)
(1.02181 0.00121435 -1.4158e-13)
(1.02141 0.000971599 -1.37385e-13)
(1.02109 0.0008255 -1.31628e-13)
(1.0208 0.000769434 -1.24496e-13)
(1.02051 0.000789238 -1.16305e-13)
(1.02018 0.000865876 -1.07436e-13)
(1.01978 0.000978193 -9.82386e-14)
(1.01931 0.00110546 -8.89765e-14)
(1.01877 0.00122944 -7.9803e-14)
(1.01817 0.00133587 -7.07543e-14)
(1.01752 0.00141518 -6.1785e-14)
(1.01684 0.00146257 -5.27866e-14)
(1.01615 0.00147761 -4.36225e-14)
(1.01546 0.00146334 -3.41526e-14)
(1.01479 0.00142524 -2.42386e-14)
(1.01415 0.00137018 -1.37644e-14)
(1.01354 0.00130542 -2.63068e-15)
(1.01296 0.00123779 9.23141e-15)
(1.01242 0.0011731 2.18468e-14)
(1.01191 0.00111577 3.51871e-14)
(1.01143 0.00106871 4.91531e-14)
(1.01096 0.00103328 6.35804e-14)
(1.0105 0.00100953 7.82494e-14)
(1.01006 0.000996423 9.29209e-14)
(1.00961 0.000992113 1.07378e-13)
(1.00916 0.000994303 1.21475e-13)
(1.0087 0.00100054 1.35172e-13)
(1.00824 0.00100847 1.48541e-13)
(1.00778 0.00101607 1.61751e-13)
(1.0073 0.00102177 1.75015e-13)
(1.00683 0.00102452 1.88533e-13)
(1.00635 0.0010238 2.02439e-13)
(1.00588 0.00101953 2.16754e-13)
(1.00541 0.00101201 2.31393e-13)
(1.00494 0.00100173 2.46174e-13)
(1.00447 0.000989315 2.60871e-13)
(1.00401 0.000975338 2.75251e-13)
(1.00356 0.000960286 2.89112e-13)
(1.00311 0.000944475 3.02298e-13)
(1.00266 0.000928019 3.1471e-13)
(1.00223 0.000910818 3.26327e-13)
(1.0018 0.000892572 3.37245e-13)
(1.00137 0.000872816 3.47744e-13)
(1.00095 0.000850971 3.58377e-13)
(1.00054 0.000826396 3.7006e-13)
(1.00014 0.000798383 3.84141e-13)
(0.999745 0.00076604 4.02417e-13)
(0.999365 0.000727999 4.27082e-13)
(0.999 0.000681948 4.60636e-13)
(0.998653 0.000624073 5.05727e-13)
(0.998331 0.000548649 5.64983e-13)
(0.99804 0.000448099 6.40831e-13)
(0.997791 0.000313885 7.35266e-13)
(0.997598 0.000138427 8.49601e-13)
(0.997475 -8.20558e-05 9.84181e-13)
(0.997439 -0.000344334 1.13832e-12)
(0.997503 -0.000635507 1.31013e-12)
(0.997674 -0.000932039 1.4958e-12)
(0.99795 -0.00120141 1.68858e-12)
(0.998315 -0.00140674 1.87777e-12)
(0.998739 -0.00151382 2.04809e-12)
(0.999182 -0.00149911 2.17987e-12)
(0.999598 -0.00135649 2.25035e-12)
(0.999939 -0.00110074 2.23578e-12)
(1.00017 -0.000766466 2.1143e-12)
(1.00028 -0.000402016 1.86902e-12)
(1.00025 -6.00828e-05 1.49145e-12)
(1.00012 0.00021293 9.85306e-13)
(0.999925 0.00038592 3.70201e-13)
(0.9997 0.000448257 -3.15934e-13)
(0.999493 0.000410026 -1.01626e-12)
(0.999338 0.000297624 -1.65869e-12)
(0.999256 0.000146268 -2.16538e-12)
(0.999251 -8.42859e-06 -2.46759e-12)
(0.999313 -0.000137643 -2.52254e-12)
(0.999423 -0.000223801 -2.32659e-12)
(0.999556 -0.000261699 -1.91939e-12)
(0.99969 -0.000256682 -1.37676e-12)
(0.999808 -0.000220904 -7.93832e-13)
(0.999898 -0.000169011 -2.63509e-13)
(0.999959 -0.000114395 1.43367e-13)
(0.999993 -6.67811e-05 3.90578e-13)
(1.00001 -3.13299e-05 4.79123e-13)
(1.00001 -9.0678e-06 4.40388e-13)
(1 1.89489e-06 3.23148e-13)
(0.999997 4.96386e-06 1.78548e-13)
(0.999993 3.50746e-06 4.92005e-14)
(0.99999 8.71306e-07 -4.35149e-14)
(0.999992 -2.82322e-06 -8.51805e-14)
(1.00012 -0.00300424 2.23624e-18)
(1.00188 -0.00909022 8.15785e-18)
(1.00592 -0.0156621 5.79415e-18)
(1.01228 -0.022935 1.02883e-17)
(1.0215 -0.0310303 2.26634e-17)
(1.03411 -0.0398065 -9.66464e-17)
(1.05068 -0.0488705 4.6315e-16)
(1.07147 -0.0571632 -9.76248e-16)
(1.09618 -0.0635391 -4.78115e-16)
(1.12371 -0.0662449 6.80516e-15)
(1.15117 -0.0644189 2.64059e-15)
(1.17632 -0.0596449 -2.96251e-14)
(1.19854 -0.0528321 -7.27447e-14)
(1.21725 -0.0448401 -8.76568e-14)
(1.2323 -0.0364324 -4.69061e-14)
(1.24375 -0.0281485 4.89175e-14)
(1.25179 -0.0204963 1.78257e-13)
(1.25681 -0.0139667 3.15191e-13)
(1.25945 -0.00898684 4.41386e-13)
(1.26064 -0.00576515 5.4828e-13)
(1.26139 -0.00409466 6.32248e-13)
(1.2626 -0.00323855 6.87656e-13)
(1.26459 -0.00199793 6.97066e-13)
(1.26691 0.00102334 6.4968e-13)
(1.26816 0.00693796 5.67411e-13)
(1.26632 0.0160062 4.72878e-13)
(1.25938 0.0272646 3.84775e-13)
(1.2463 0.0387009 3.12486e-13)
(1.22752 0.0479783 2.5635e-13)
(1.2048 0.053247 2.1218e-13)
(1.1807 0.0536253 1.75126e-13)
(1.15783 0.0492595 1.40617e-13)
(1.13842 0.0411169 1.03235e-13)
(1.12398 0.0306997 5.55739e-14)
(1.11512 0.0197763 -1.09589e-14)
(1.11156 0.0101026 -1.01633e-13)
(1.11216 0.00315006 -2.1193e-13)
(1.11512 -0.000175781 -3.24815e-13)
(1.11834 0.000244038 -4.17208e-13)
(1.11995 0.00373168 -4.70285e-13)
(1.11871 0.00905315 -4.78473e-13)
(1.11422 0.0148165 -4.4922e-13)
(1.1068 0.0198393 -3.97467e-13)
(1.09726 0.0233506 -3.38905e-13)
(1.08659 0.0250196 -2.85538e-13)
(1.07577 0.0248721 -2.44416e-13)
(1.0656 0.0231677 -2.18593e-13)
(1.05667 0.020289 -2.08806e-13)
(1.04936 0.0166613 -2.1479e-13)
(1.04386 0.0127025 -2.35741e-13)
(1.04015 0.00879326 -2.69933e-13)
(1.0381 0.00525699 -3.13948e-13)
(1.03744 0.00234375 -3.62391e-13)
(1.03781 0.00021787 -4.08927e-13)
(1.03882 -0.00105038 -4.47462e-13)
(1.04007 -0.00148763 -4.72661e-13)
(1.04118 -0.00120903 -4.82012e-13)
(1.0419 -0.000396661 -4.77107e-13)
(1.04203 0.000732066 -4.62667e-13)