/*--------------------------------*- C++ -*----------------------------------*\
  =========                 |
  \\      /  F ield         | OpenFOAM: The Open Source CFD Toolbox
   \\    /   O peration     | Website:  https://openfoam.org
    \\  /    A nd           | Version:  11
     \\/     M anipulation  |
\*---------------------------------------------------------------------------*/
FoamFile
{
    format      ascii;
    class       volVectorField;
    location    "7.382373";
    object      vorticity;
}
// * * * * * * * * * * * * * * * * * * * * * * * * * * * * * * * * * * * * * //

dimensions      [0 0 -1 0 0 0 0];

internalField   nonuniform List<vector> 
7132
(
(-3.34135e-17 -1.82721e-15 -0.0115092)
(-1.45974e-16 -1.79932e-15 -0.0115352)
(-1.47712e-16 -1.83495e-17 -0.0115879)
(-1.72329e-16 -1.77139e-15 -0.011671)
(-2.11574e-16 -1.76307e-15 -0.0117873)
(-2.06108e-16 3.42531e-18 -0.0119381)
(-1.83268e-16 1.77574e-17 -0.0121234)
(-1.67462e-16 1.62641e-17 -0.0123381)
(-8.58941e-17 9.40238e-18 -0.0125755)
(-4.95208e-17 6.21889e-18 -0.0128231)
(-9.56592e-17 5.18937e-18 -0.0130631)
(-7.89832e-17 1.47733e-17 -0.0132961)
(-1.48031e-16 1.04849e-17 -0.0135076)
(5.16006e-17 9.209e-17 -0.0136903)
(8.51603e-16 -1.53958e-15 -0.0138395)
(1.88852e-15 -1.52774e-15 -0.0139517)
(2.75879e-15 -1.71629e-15 -0.0140258)
(2.72379e-15 -5.31048e-17 -0.0140624)
(2.19572e-15 -1.60017e-15 -0.0140646)
(1.02883e-15 -1.62256e-15 -0.0140383)
(-9.77593e-16 6.85013e-17 -0.0139938)
(-3.32532e-15 1.66505e-16 -0.0139449)
(-5.525e-15 2.89439e-16 -0.0139078)
(-7.12986e-15 2.35802e-16 -0.0139004)
(-8.24607e-15 3.67751e-15 -0.0139344)
(-8.36789e-15 3.00814e-16 -0.0140098)
(-7.79311e-15 2.66912e-16 -0.0141113)
(-6.76934e-15 2.18837e-16 -0.0142091)
(-5.45367e-15 7.20795e-17 -0.0142647)
(-4.23307e-15 1.64028e-15 -0.0142407)
(-2.68801e-15 1.57859e-15 -0.0141097)
(-1.26e-15 1.60563e-15 -0.0138615)
(6.53894e-16 -1.87427e-16 -0.0135068)
(3.09404e-15 1.33636e-15 -0.0130781)
(5.98224e-15 1.13919e-15 -0.0126267)
(9.68417e-15 9.18307e-16 -0.0122138)
(1.36443e-14 7.48393e-16 -0.0118996)
(1.75549e-14 -1.13854e-15 -0.0117287)
(2.09684e-14 4.68715e-16 -0.01172)
(2.34881e-14 4.72375e-16 -0.011862)
(2.52197e-14 5.49667e-16 -0.0121161)
(2.60238e-14 6.95536e-16 -0.012427)
(2.61648e-14 -9.16585e-16 -0.0127358)
(2.58642e-14 8.98878e-16 -0.0129909)
(2.53339e-14 9.75647e-16 -0.0131553)
(2.48595e-14 9.9634e-16 -0.01321)
(2.44027e-14 9.69624e-16 -0.0131532)
(2.40246e-14 -8.58946e-16 -0.0129975)
(2.36357e-14 7.63244e-16 -0.0127663)
(2.30557e-14 7.19502e-16 -0.0124895)
(2.20863e-14 -9.8951e-16 -0.0121985)
(2.03705e-14 -2.63364e-15 -0.0119226)
(1.75384e-14 -6.96084e-16 -0.0116858)
(1.35182e-14 -3.75844e-16 -0.011504)
(8.33715e-15 6.91815e-18 -0.0113849)
(2.3273e-15 4.03963e-16 -0.0113274)
(-4.12931e-15 -9.97149e-16 -0.0113234)
(-1.06038e-14 9.8212e-16 -0.0113594)
(-1.65656e-14 1.14441e-15 -0.0114193)
(-2.18128e-14 1.23351e-15 -0.0114869)
(-2.62438e-14 1.28363e-15 -0.0115475)
(-2.99948e-14 -4.15705e-16 -0.0115901)
(-3.33395e-14 1.40237e-15 -0.0116082)
(-3.65233e-14 -1.7788e-16 -0.0115994)
(-3.98914e-14 5.1119e-17 -0.0115654)
(-4.36256e-14 2.12304e-15 -0.0115105)
(-4.79847e-14 8.07417e-16 -0.011441)
(-5.30291e-14 3.02896e-15 -0.0113636)
(-5.87154e-14 1.80695e-15 -0.0112848)
(-6.49743e-14 2.29643e-15 -0.0112101)
(-7.15495e-14 4.48468e-15 -0.0111435)
(-7.82757e-14 3.11551e-15 -0.0110875)
(-8.48367e-14 5.11234e-15 -0.0110428)
(-9.09504e-14 3.51276e-15 -0.011009)
(-9.64332e-14 3.51598e-15 -0.0109843)
(-1.01071e-13 5.16015e-15 -0.0109666)
(-1.04857e-13 3.24602e-15 -0.0109532)
(-1.07728e-13 4.74877e-15 -0.0109414)
(-1.09713e-13 2.74459e-15 -0.0109289)
(-1.10923e-13 2.46167e-15 -0.0109139)
(-1.1141e-13 3.94683e-15 -0.0108951)
(-1.1137e-13 1.99448e-15 -0.010872)
(-1.10864e-13 3.56212e-15 -0.0108444)
(-1.09973e-13 1.69717e-15 -0.0108128)
(-1.08787e-13 1.59266e-15 -0.0107779)
(-1.0728e-13 3.25197e-15 -0.0107406)
(-1.05512e-13 1.42674e-15 -0.0107019)
(-1.03379e-13 3.03739e-15 -0.0106624)
(-1.0079e-13 1.10419e-15 -0.010623)
(-9.76686e-14 8.13679e-16 -0.010584)
(-9.3884e-14 2.18583e-15 -0.0105457)
(-8.94498e-14 7.2739e-18 -0.010508)
(-8.43342e-14 1.26689e-15 -0.0104706)
(-7.8577e-14 7.94425e-16 -0.0104334)
(-7.23142e-14 -1.39849e-15 -0.0103959)
(-6.56708e-14 -6.7512e-17 -0.0103575)
(-5.87849e-14 -2.16191e-15 -0.010318)
(-5.17295e-14 -7.42601e-16 -0.0102768)
(-4.45312e-14 -1.04054e-15 -0.0102337)
(-3.72018e-14 -3.09954e-15 -0.0101884)
(-2.96834e-14 -1.70877e-15 -0.0101406)
(-2.19345e-14 -3.81442e-15 -0.0100901)
(-1.39087e-14 -2.44407e-15 -0.0100369)
(-5.60312e-15 -2.78514e-15 -0.00998085)
(2.91174e-15 -4.85099e-15 -0.00992177)
(1.15883e-14 -3.43891e-15 -0.00985954)
(2.03788e-14 -5.55112e-15 -0.009794)
(2.93153e-14 -4.3097e-15 -0.00972494)
(3.8491e-14 -5.01122e-15 -0.00965211)
(4.8028e-14 -7.75659e-15 -0.00957521)
(5.81309e-14 -7.37909e-15 -0.00949389)
(6.90059e-14 -1.08455e-14 -0.00940767)
(8.08905e-14 -1.11663e-14 -0.00931595)
(9.40077e-14 -1.34614e-14 -0.00921801)
(1.08542e-13 -1.76076e-14 -0.00911302)
(1.24722e-13 -1.81918e-14 -0.00900031)
(1.42783e-13 -2.19422e-14 -0.00887958)
(1.63031e-13 -2.16748e-14 -0.0087513)
(1.85821e-13 -2.23998e-14 -0.00861691)
(2.11548e-13 -2.4018e-14 -0.00847857)
(2.40737e-13 -2.12681e-14 -0.00833829)
(2.73987e-13 -1.94161e-14 -0.00819614)
(3.11994e-13 -1.68759e-14 -0.00804784)
(3.5543e-13 -1.38768e-14 -0.00788229)
(4.04811e-13 -1.25359e-14 -0.00768003)
(4.60576e-13 -8.23977e-15 -0.00741376)
(5.23242e-13 -7.04677e-15 -0.00705161)
(5.93434e-13 -8.14649e-15 -0.00656344)
(6.71515e-13 -1.21848e-14 -0.00592904)
(7.5688e-13 -2.07835e-14 -0.00514646)
(8.46988e-13 -2.73056e-14 -0.00423798)
(9.36091e-13 -3.39247e-14 -0.00325126)
(1.01432e-12 -3.43275e-14 -0.0022545)
(1.06733e-12 -2.30147e-14 -0.0013258)
(1.07704e-12 3.45269e-15 -0.000538847)
(1.02371e-12 5.34722e-14 5.1593e-05)
(8.89015e-13 1.21172e-13 0.000420536)
(6.60232e-13 2.02344e-13 0.000576917)
(3.34684e-13 2.85372e-13 0.000559873)
(-7.61354e-14 3.52413e-13 0.000428266)
(-5.44328e-13 3.90956e-13 0.000246597)
(-1.02599e-12 3.80516e-13 7.13424e-05)
(-1.46519e-12 3.14613e-13 -5.88523e-05)
(-1.80234e-12 1.95882e-13 -0.000127138)
(-1.98615e-12 3.74647e-14 -0.000136506)
(-1.98616e-12 -1.30323e-13 -0.00010352)
(-1.80212e-12 -2.82824e-13 -5.02589e-05)
(-1.46604e-12 -3.90984e-13 2.9524e-06)
(-1.03612e-12 -4.36919e-13 4.22892e-05)
(-5.83923e-13 -4.18311e-13 6.20305e-05)
(-1.78285e-13 -3.4021e-13 6.34777e-05)
(1.29102e-13 -2.29038e-13 5.22821e-05)
(3.12789e-13 -1.09091e-13 3.54355e-05)
(3.75187e-13 -4.35814e-15 1.88923e-05)
(3.41225e-13 6.69511e-14 6.32111e-06)
(2.48572e-13 1.03941e-13 -1.065e-06)
(1.36256e-13 1.04659e-13 -3.85605e-06)
(3.65854e-14 8.26405e-14 -3.61504e-06)
(-3.44861e-14 4.78783e-14 -2.37929e-06)
(-6.60887e-14 1.21381e-14 -4.25418e-07)
(-3.34388e-17 -3.85503e-18 -0.0344214)
(-1.51448e-16 -7.23053e-18 -0.0345006)
(-1.62515e-16 -7.71341e-18 -0.0346582)
(-1.87915e-16 -8.12011e-18 -0.0349042)
(-2.38854e-16 -8.07338e-18 -0.0352471)
(-2.40281e-16 -7.33962e-18 -0.0356912)
(-2.45689e-16 -1.56522e-18 -0.0362381)
(-2.39861e-16 -3.24226e-17 -0.0368737)
(-4.62814e-17 1.68516e-15 -0.0375809)
(-2.08279e-16 1.11014e-17 -0.0383238)
(-9.13867e-16 1.99206e-17 -0.0390469)
(-7.74119e-16 1.77568e-15 -0.0397531)
(1.75301e-15 -5.4807e-17 -0.0403973)
(6.11848e-15 -4.11115e-16 -0.0409591)
(9.67758e-15 -7.25006e-16 -0.041429)
(9.22192e-15 -7.44914e-16 -0.041801)
(3.42036e-15 -3.97506e-16 -0.0420781)
(-7.43042e-15 2.29274e-16 -0.042269)
(-2.08023e-14 9.81184e-16 -0.0423864)
(-3.46052e-14 1.69967e-15 -0.0424456)
(-4.70637e-14 2.24643e-15 -0.0424622)
(-5.55949e-14 2.44021e-15 -0.0424489)
(-5.7288e-14 2.19171e-15 -0.0424116)
(-5.21296e-14 1.59549e-15 -0.0423509)
(-4.21306e-14 8.27071e-16 -0.0422562)
(-2.91123e-14 7.51812e-17 -0.0421075)
(-1.55826e-14 -5.32362e-16 -0.0418824)
(-3.2279e-15 -9.50886e-16 -0.0415649)
(7.38183e-15 -1.19944e-15 -0.0411515)
(1.63031e-14 -1.48066e-15 -0.0406519)
(2.45965e-14 9.20577e-17 -0.0400876)
(3.34731e-14 -3.53138e-15 -0.0394882)
(4.40353e-14 -5.8322e-15 -0.038889)
(5.67738e-14 -3.06423e-15 -0.03833)
(7.17985e-14 -5.62448e-15 -0.037851)
(8.80135e-14 -2.91144e-15 -0.0374835)
(1.03239e-13 -4.92087e-15 -0.0372411)
(1.15146e-13 -8.27003e-15 -0.0371144)
(1.21935e-13 -4.23301e-15 -0.0370732)
(1.23528e-13 -5.12316e-15 -0.0370767)
(1.21036e-13 -7.18614e-16 -0.0370835)
(1.1608e-13 -1.51092e-15 -0.0370597)
(1.10142e-13 -2.57235e-15 -0.0369819)
(1.04011e-13 -4.22085e-16 -0.0368375)
(9.8276e-14 -1.99147e-15 -0.0366234)
(9.29808e-14 1.46198e-15 -0.036345)
(8.80343e-14 -3.45932e-16 -0.0360156)
(8.29534e-14 -2.21017e-15 -0.0356556)
(7.68534e-14 -4.87881e-16 -0.0352907)
(6.86618e-14 -1.97356e-15 -0.0349479)
(5.69524e-14 -1.38034e-15 -0.0346513)
(4.03244e-14 1.37499e-15 -0.0344177)
(1.78002e-14 9.94917e-16 -0.034254)
(-1.04461e-14 4.22481e-15 -0.0341567)
(-4.2947e-14 3.86763e-15 -0.0341138)
(-7.74622e-14 4.90242e-15 -0.0341075)
(-1.11453e-13 7.20311e-15 -0.0341179)
(-1.42393e-13 5.4656e-15 -0.0341268)
(-1.68235e-13 6.74894e-15 -0.0341194)
(-1.884e-13 4.33786e-15 -0.0340858)
(-2.03389e-13 3.64032e-15 -0.0340211)
(-2.14481e-13 4.86686e-15 -0.0339253)
(-2.23359e-13 2.93187e-15 -0.0338026)
(-2.31647e-13 4.83325e-15 -0.0336599)
(-2.40885e-13 1.86715e-15 -0.0335059)
(-2.52119e-13 7.9044e-15 -0.0333498)
(-2.65959e-13 7.24389e-15 -0.0331999)
(-2.82578e-13 6.6594e-15 -0.0330629)
(-3.01581e-13 9.51445e-15 -0.0329432)
(-3.22291e-13 6.97854e-15 -0.0328426)
(-3.43612e-13 1.287e-14 -0.0327605)
(-3.64366e-13 1.14938e-14 -0.0326943)
(-3.8343e-13 9.71497e-15 -0.0326397)
(-3.99774e-13 1.10458e-14 -0.0325919)
(-4.1277e-13 6.84146e-15 -0.0325458)
(-4.21988e-13 1.11068e-14 -0.0324972)
(-4.27389e-13 8.30904e-15 -0.0324424)
(-4.29199e-13 5.44214e-15 -0.0323792)
(-4.27753e-13 6.07686e-15 -0.0323065)
(-4.23582e-13 1.57529e-15 -0.0322244)
(-4.17099e-13 5.90549e-15 -0.0321339)
(-4.08765e-13 3.45596e-15 -0.0320366)
(-3.98962e-13 1.12883e-15 -0.0319347)
(-3.87918e-13 2.39365e-15 -0.0318302)
(-3.75835e-13 -1.4888e-15 -0.0317249)
(-3.62653e-13 3.34945e-15 -0.0316204)
(-3.48261e-13 1.21109e-15 -0.0315175)
(-3.32421e-13 -1.05833e-15 -0.0314168)
(-3.1477e-13 -1.62836e-17 -0.031318)
(-2.95027e-13 -4.37436e-15 -0.0312206)
(-2.72882e-13 -1.88887e-16 -0.0311236)
(-2.48235e-13 -3.0329e-15 -0.0310258)
(-2.21228e-13 -4.16958e-15 -0.0309261)
(-1.92157e-13 -3.48074e-15 -0.0308232)
(-1.6156e-13 -6.11689e-15 -0.030716)
(-1.3001e-13 -5.09757e-15 -0.0306036)
(-9.80034e-14 -7.39782e-15 -0.0304854)
(-6.58933e-14 -7.86942e-15 -0.0303608)
(-3.37257e-14 -6.56959e-15 -0.0302297)
(-1.3886e-15 -8.78874e-15 -0.0300918)
(3.13933e-14 -7.60767e-15 -0.029947)
(6.49186e-14 -9.96707e-15 -0.0297952)
(9.93411e-14 -1.06099e-14 -0.0296363)
(1.34698e-13 -9.46051e-15 -0.02947)
(1.70783e-13 -1.1712e-14 -0.0292958)
(2.07324e-13 -1.04377e-14 -0.0291132)
(2.44091e-13 -1.26799e-14 -0.0289216)
(2.80964e-13 -1.33659e-14 -0.0287201)
(3.18104e-13 -1.26328e-14 -0.0285079)
(3.55816e-13 -1.58418e-14 -0.0282839)
(3.946e-13 -1.61333e-14 -0.028047)
(4.35065e-13 -2.04905e-14 -0.027796)
(4.77857e-13 -2.36673e-14 -0.027529)
(5.23781e-13 -2.55522e-14 -0.0272441)
(5.73753e-13 -3.12298e-14 -0.0269392)
(6.29018e-13 -3.35778e-14 -0.0266122)
(6.9123e-13 -3.9362e-14 -0.0262625)
(7.62493e-13 -4.31936e-14 -0.0258917)
(8.45474e-13 -4.49236e-14 -0.0255044)
(9.43266e-13 -4.97416e-14 -0.025108)
(1.05942e-12 -5.07527e-14 -0.0247099)
(1.19784e-12 -5.33099e-14 -0.0243129)
(1.36252e-12 -5.75976e-14 -0.0239079)
(1.55716e-12 -5.85506e-14 -0.0234659)
(1.7846e-12 -6.33741e-14 -0.022933)
(2.04662e-12 -6.57203e-14 -0.0222296)
(2.34451e-12 -7.17409e-14 -0.0212596)
(2.67878e-12 -8.22828e-14 -0.019927)
(3.04757e-12 -9.21735e-14 -0.0181608)
(3.44387e-12 -1.06785e-13 -0.0159404)
(3.85177e-12 -1.15176e-13 -0.0133153)
(4.24254e-12 -1.15856e-13 -0.0104127)
(4.57215e-12 -9.99461e-14 -0.0074258)
(4.78163e-12 -5.26406e-14 -0.00458545)
(4.80114e-12 2.69987e-14 -0.00211851)
(4.55808e-12 1.4922e-13 -0.000203942)
(3.98853e-12 3.04643e-13 0.00106221)
(3.05113e-12 4.79509e-13 0.0016834)
(1.74248e-12 6.5529e-13 0.00175611)
(1.1113e-13 7.93654e-13 0.00144257)
(-1.7348e-12 8.6762e-13 0.000930979)
(-3.62832e-12 8.42681e-13 0.000394668)
(-5.35755e-12 7.02786e-13 -3.93211e-05)
(-6.69622e-12 4.58097e-13 -0.000305431)
(-7.44811e-12 1.3111e-13 -0.000397403)
(-7.49518e-12 -2.20602e-13 -0.000352575)
(-6.83365e-12 -5.41153e-13 -0.000229652)
(-5.58336e-12 -7.73986e-13 -8.73192e-05)
(-3.96525e-12 -8.7624e-13 3.08229e-05)
(-2.25256e-12 -8.45492e-13 0.000102693)
(-7.09404e-13 -6.94988e-13 0.000126297)
(4.64925e-13 -4.72841e-13 0.000113243)
(1.17095e-12 -2.32133e-13 8.06644e-05)
(1.41576e-12 -1.68411e-14 4.44135e-05)
(1.2929e-12 1.31993e-13 1.51054e-05)
(9.44931e-13 2.0816e-13 -2.87485e-06)
(5.20298e-13 2.12388e-13 -1.00347e-05)
(1.42109e-13 1.68012e-13 -9.7112e-06)
(-1.28348e-13 1.0095e-13 -7.05108e-06)
(-2.49695e-13 2.96742e-14 -2.21346e-06)
(-8.90087e-19 -4.67142e-20 -0.0570267)
(-1.64391e-17 -5.34156e-20 -0.0571547)
(-3.12756e-17 -1.16258e-19 -0.0574106)
(-5.52745e-17 1.50674e-18 -0.0578107)
(-6.712e-17 -2.16779e-18 -0.0583699)
(-7.49988e-17 6.84266e-18 -0.0590952)
(-2.7231e-16 1.75472e-17 -0.0599903)
(3.06095e-16 -6.98871e-17 -0.0610313)
(-3.63696e-17 -6.38855e-18 -0.0621916)
(-2.89499e-15 4.26459e-16 -0.0634095)
(-7.40901e-16 3.01662e-16 -0.0645886)
(1.26127e-14 -1.31866e-15 -0.065747)
(2.56729e-14 -3.44937e-15 -0.0668037)
(1.68559e-14 -3.8702e-15 -0.0677281)
(-2.57934e-14 -1.35657e-15 -0.0685088)
(-9.52249e-14 3.33559e-15 -0.0691402)
(-1.71721e-13 8.34461e-15 -0.0696347)
(-2.34911e-13 1.20582e-14 -0.0700128)
(-2.71201e-13 1.37219e-14 -0.0702994)
(-2.74397e-13 1.32429e-14 -0.070517)
(-2.42475e-13 1.05633e-14 -0.0706773)
(-1.74812e-13 5.27864e-15 -0.0707748)
(-7.52103e-14 -1.44318e-15 -0.0707796)
(3.9075e-14 -7.34288e-15 -0.0706441)
(1.47237e-13 -1.13006e-14 -0.0703115)
(2.33831e-13 -1.29732e-14 -0.0697302)
(2.91378e-13 -1.26753e-14 -0.0688812)
(3.21146e-13 -1.12634e-14 -0.0677981)
(3.308e-13 -9.69339e-15 -0.0665701)
(3.30411e-13 -8.71535e-15 -0.065326)
(3.29139e-13 -8.72762e-15 -0.0642052)
(3.33434e-13 -9.82138e-15 -0.0633263)
(3.46464e-13 -1.18513e-14 -0.0627627)
(3.67345e-13 -1.42901e-14 -0.0625304)
(3.90334e-13 -1.62154e-14 -0.0625862)
(4.05207e-13 -1.654e-14 -0.0628325)
(4.00972e-13 -1.4552e-14 -0.0631323)
(3.72065e-13 -1.04865e-14 -0.0633333)
(3.22529e-13 -5.45606e-15 -0.0633018)
(2.64216e-13 -8.14557e-16 -0.0629543)
(2.10228e-13 2.5376e-15 -0.0622748)
(1.68876e-13 4.41604e-15 -0.0613128)
(1.41762e-13 5.11754e-15 -0.0601653)
(1.25563e-13 5.09733e-15 -0.0589512)
(1.15095e-13 4.74939e-15 -0.0577862)
(1.05393e-13 4.37574e-15 -0.0567648)
(9.23828e-14 4.26217e-15 -0.0559517)
(7.2494e-14 4.73148e-15 -0.0553809)
(4.1983e-14 6.17093e-15 -0.0550589)
(-3.3289e-15 8.93698e-15 -0.0549688)
(-6.75336e-14 1.31758e-14 -0.0550738)
(-1.53234e-13 2.0411e-14 -0.0553217)
(-2.59869e-13 2.46892e-14 -0.0556501)
(-3.82384e-13 2.99969e-14 -0.0559933)
(-5.1112e-13 3.35147e-14 -0.0562907)
(-6.35151e-13 3.46572e-14 -0.0564929)
(-7.43996e-13 3.49378e-14 -0.0565683)
(-8.29719e-13 2.9373e-14 -0.0565056)
(-8.88891e-13 2.41485e-14 -0.0563128)
(-9.23216e-13 1.88106e-14 -0.056013)
(-9.37905e-13 1.43235e-14 -0.0556393)
(-9.39805e-13 1.30396e-14 -0.0552286)
(-9.35871e-13 9.98555e-15 -0.0548167)
(-9.32105e-13 1.20553e-14 -0.0544337)
(-9.32901e-13 1.20207e-14 -0.0541022)
(-9.40841e-13 1.46582e-14 -0.0538357)
(-9.56668e-13 1.95081e-14 -0.053639)
(-9.79455e-13 2.08403e-14 -0.0535093)
(-1.00693e-12 2.51333e-14 -0.0534374)
(-1.03586e-12 2.50459e-14 -0.0534097)
(-1.06261e-12 2.55211e-14 -0.0534101)
(-1.08367e-12 2.64946e-14 -0.0534219)
(-1.09621e-12 2.28165e-14 -0.0534297)
(-1.09848e-12 2.16526e-14 -0.0534207)
(-1.08987e-12 1.63571e-14 -0.0533854)
(-1.07091e-12 1.24689e-14 -0.0533186)
(-1.04288e-12 1.03216e-14 -0.053219)
(-1.00747e-12 4.93122e-15 -0.0530886)
(-9.66398e-13 3.4056e-15 -0.0529323)
(-9.21161e-13 -1.13103e-15 -0.0527568)
(-8.72871e-13 -3.46186e-15 -0.0525692)
(-8.22235e-13 -3.60377e-15 -0.0523769)
(-7.69576e-13 -6.86143e-15 -0.052186)
(-7.14906e-13 -6.39676e-15 -0.0520014)
(-6.57969e-13 -9.30537e-15 -0.051826)
(-5.98304e-13 -1.05358e-14 -0.0516613)
(-5.35277e-13 -1.02193e-14 -0.051507)
(-4.68144e-13 -1.37078e-14 -0.0513613)
(-3.96166e-13 -1.41227e-14 -0.0512218)
(-3.18752e-13 -1.83959e-14 -0.051085)
(-2.35638e-13 -2.12113e-14 -0.0509476)
(-1.47035e-13 -2.4085e-14 -0.0508061)
(-5.37163e-14 -2.67724e-14 -0.0506578)
(4.30375e-14 -2.90398e-14 -0.0505)
(1.41631e-13 -3.07376e-14 -0.0503312)
(2.40465e-13 -3.18456e-14 -0.0501503)
(3.38277e-13 -3.24849e-14 -0.049957)
(4.34427e-13 -3.28818e-14 -0.0497512)
(5.29021e-13 -3.32929e-14 -0.0495335)
(6.22817e-13 -3.39244e-14 -0.0493044)
(7.16941e-13 -3.48624e-14 -0.0490643)
(8.12508e-13 -3.60532e-14 -0.0488137)
(9.10248e-13 -3.73339e-14 -0.0485525)
(1.01029e-12 -3.85059e-14 -0.0482803)
(1.11211e-12 -3.94297e-14 -0.0479966)
(1.21477e-12 -4.00931e-14 -0.0477002)
(1.31714e-12 -4.06359e-14 -0.0473899)
(1.41826e-12 -4.13164e-14 -0.0470642)
(1.5175e-12 -4.2437e-14 -0.0467213)
(1.61465e-12 -4.42699e-14 -0.0463596)
(1.70988e-12 -4.70035e-14 -0.0459771)
(1.80371e-12 -5.07388e-14 -0.0455716)
(1.89716e-12 -5.55247e-14 -0.0451406)
(1.99207e-12 -6.14097e-14 -0.044681)
(2.09152e-12 -6.84914e-14 -0.0441894)
(2.20044e-12 -7.69301e-14 -0.0436628)
(2.32597e-12 -8.69446e-14 -0.0431003)
(2.47771e-12 -9.87973e-14 -0.0425045)
(2.66756e-12 -1.12787e-13 -0.0418835)
(2.90936e-12 -1.29254e-13 -0.0412499)
(3.21823e-12 -1.48555e-13 -0.0406183)
(3.60979e-12 -1.70969e-13 -0.0399966)
(4.09909e-12 -1.96538e-13 -0.0393747)
(4.69928e-12 -2.24918e-13 -0.0387112)
(5.41987e-12 -2.55528e-13 -0.0379224)
(6.26508e-12 -2.88194e-13 -0.0368806)
(7.23428e-12 -3.23126e-13 -0.0354254)
(8.3208e-12 -3.59674e-13 -0.0333904)
(9.50701e-12 -3.94734e-13 -0.0306429)
(1.07569e-11 -4.21148e-13 -0.0271278)
(1.20077e-11 -4.26638e-13 -0.0229041)
(1.3163e-11 -3.94119e-13 -0.0181608)
(1.40915e-11 -3.03875e-13 -0.013204)
(1.46327e-11 -1.3751e-13 -0.00841274)
(1.46116e-11 1.16964e-13 -0.00417255)
(1.38593e-11 4.5978e-13 -0.000801111)
(1.22385e-11 8.74647e-13 0.00151352)
(9.67167e-12 1.32537e-12 0.00274605)
(6.17253e-12 1.75537e-12 0.00302931)
(1.87514e-12 2.09279e-12 0.00261429)
(-2.94871e-12 2.26068e-12 0.00180714)
(-7.88784e-12 2.19189e-12 0.000901237)
(-1.24205e-11 1.84856e-12 0.000122461)
(-1.59846e-11 1.24116e-12 -0.00040051)
(-1.80848e-11 4.38679e-13 -0.000637358)
(-1.84139e-11 -4.37552e-13 -0.00063408)
(-1.69461e-11 -1.23874e-12 -0.000478482)
(-1.39664e-11 -1.82518e-12 -0.000265179)
(-1.00188e-11 -2.10232e-12 -6.94406e-05)
(-5.78615e-12 -2.0445e-12 6.56222e-05)
(-1.93591e-12 -1.69895e-12 0.000129043)
(1.02182e-12 -1.16921e-12 0.000133205)
(2.82494e-12 -5.84508e-13 0.000101647)
(3.47892e-12 -6.53315e-14 5.81604e-05)
(3.20848e-12 3.041e-13 1.99242e-05)
(2.36483e-12 4.9024e-13 -4.79258e-06)
(1.31764e-12 5.0607e-13 -1.51993e-05)
(3.76239e-13 4.06964e-13 -1.51374e-05)
(-3.02196e-13 2.4378e-13 -1.20241e-05)
(-6.14819e-13 7.45462e-14 -5.08715e-06)
(-3.79129e-17 4.80954e-18 -0.0791062)
(-1.31791e-16 7.96224e-18 -0.0792759)
(-1.15475e-16 1.17043e-17 -0.0796178)
(-1.83684e-16 9.80206e-18 -0.0801551)
(7.62803e-18 1.78879e-18 -0.0809092)
(-6.09221e-16 9.52552e-17 -0.0818907)
(4.2928e-16 -1.92112e-16 -0.0831057)
(1.66932e-15 -1.50393e-16 -0.08452)
(-8.74933e-15 3.2857e-15 -0.0860995)
(4.48692e-16 3.63367e-16 -0.0877507)
(4.80073e-14 -9.46866e-15 -0.0893293)
(5.23472e-14 -1.14312e-14 -0.0908916)
(-9.09553e-14 -2.17641e-15 -0.0923086)
(-3.79048e-13 2.5322e-14 -0.0935417)
(-6.93997e-13 5.53154e-14 -0.0945779)
(-8.91052e-13 7.22189e-14 -0.0954093)
(-8.8232e-13 6.94458e-14 -0.096055)
(-6.57259e-13 4.99693e-14 -0.0965456)
(-2.53827e-13 2.0724e-14 -0.0969182)
(2.76623e-13 -1.26635e-14 -0.0972057)
(8.89346e-13 -4.75463e-14 -0.097425)
(1.53745e-12 -8.1192e-14 -0.097567)
(2.11952e-12 -1.04752e-13 -0.0975887)
(2.53547e-12 -1.09628e-13 -0.097418)
(2.75137e-12 -9.6551e-14 -0.096969)
(2.76961e-12 -7.19951e-14 -0.0961623)
(2.63195e-12 -4.419e-14 -0.094964)
(2.39991e-12 -2.06621e-14 -0.093417)
(2.13415e-12 -5.83158e-15 -0.0916479)
(1.88095e-12 -6.49819e-16 -0.0898484)
(1.66714e-12 -1.41961e-15 -0.0882359)
(1.50085e-12 -1.21944e-14 -0.0870021)
(1.37149e-12 -2.10529e-14 -0.0862678)
(1.24985e-12 -2.49992e-14 -0.0860574)
(1.09058e-12 -2.45555e-14 -0.0862956)
(8.44218e-13 -8.23021e-15 -0.0868203)
(4.86111e-13 1.16503e-14 -0.0874114)
(4.36453e-14 3.09516e-14 -0.087831)
(-4.05104e-13 4.96913e-14 -0.087873)
(-7.67601e-13 5.10271e-14 -0.0874065)
(-9.83242e-13 4.69514e-14 -0.0863995)
(-1.04533e-12 3.27219e-14 -0.0849187)
(-9.91531e-13 1.90842e-14 -0.0831086)
(-8.77974e-13 1.29118e-14 -0.0811595)
(-7.55675e-13 8.09358e-15 -0.0792689)
(-6.60679e-13 1.28179e-14 -0.0776091)
(-6.13892e-13 1.61035e-14 -0.0763048)
(-6.27222e-13 2.29897e-14 -0.0754247)
(-7.0892e-13 3.74235e-14 -0.0749825)
(-8.65471e-13 5.27847e-14 -0.0749435)
(-1.1001e-12 7.35708e-14 -0.0752353)
(-1.40762e-12 9.75428e-14 -0.0757584)
(-1.76983e-12 1.15571e-13 -0.0763999)
(-2.15489e-12 1.2985e-13 -0.0770463)
(-2.52315e-12 1.30251e-13 -0.0775972)
(-2.83554e-12 1.21341e-13 -0.0779741)
(-3.0619e-12 1.04487e-13 -0.078129)
(-3.19069e-12 7.7913e-14 -0.0780474)
(-3.23054e-12 5.34975e-14 -0.0777462)
(-3.20079e-12 2.88445e-14 -0.0772665)
(-3.12478e-12 1.19333e-14 -0.0766655)
(-3.02564e-12 3.85013e-15 -0.0760066)
(-2.92281e-12 -9.18334e-16 -0.0753511)
(-2.83018e-12 3.34803e-15 -0.0747507)
(-2.75565e-12 6.23714e-15 -0.0742433)
(-2.7014e-12 1.97865e-14 -0.0738507)
(-2.66465e-12 2.65505e-14 -0.0735794)
(-2.6387e-12 3.17909e-14 -0.0734222)
(-2.61421e-12 3.77191e-14 -0.0733612)
(-2.58075e-12 3.48207e-14 -0.0733716)
(-2.52862e-12 3.67726e-14 -0.0734249)
(-2.45056e-12 2.82951e-14 -0.0734926)
(-2.34302e-12 1.71184e-14 -0.073549)
(-2.20663e-12 7.87571e-15 -0.0735733)
(-2.04579e-12 -6.9403e-15 -0.073551)
(-1.86734e-12 -1.23907e-14 -0.0734746)
(-1.67903e-12 -2.3413e-14 -0.073343)
(-1.48781e-12 -3.27991e-14 -0.073161)
(-1.29874e-12 -3.70768e-14 -0.0729374)
(-1.1145e-12 -4.51875e-14 -0.072684)
(-9.35476e-13 -4.35583e-14 -0.072413)
(-7.60266e-13 -4.81918e-14 -0.0721366)
(-5.86308e-13 -5.25357e-14 -0.0718649)
(-4.10559e-13 -5.34095e-14 -0.0716056)
(-2.29971e-13 -5.97889e-14 -0.0713633)
(-4.17803e-14 -5.79976e-14 -0.0711398)
(1.56278e-13 -6.3869e-14 -0.0709341)
(3.65929e-13 -7.06134e-14 -0.0707431)
(5.88177e-13 -7.4712e-14 -0.0705623)
(8.23169e-13 -8.46381e-14 -0.0703861)
(1.06999e-12 -8.60477e-14 -0.0702089)
(1.32654e-12 -9.39936e-14 -0.0700253)
(1.58964e-12 -9.92056e-14 -0.0698307)
(1.85524e-12 -1.01155e-13 -0.0696214)
(2.11908e-12 -1.0483e-13 -0.069395)
(2.3774e-12 -1.0342e-13 -0.0691503)
(2.62774e-12 -1.04379e-13 -0.0688869)
(2.86959e-12 -1.03242e-13 -0.0686053)
(3.10442e-12 -1.00764e-13 -0.0683065)
(3.33537e-12 -1.02749e-13 -0.0679917)
(3.56641e-12 -1.02453e-13 -0.0676618)
(3.8013e-12 -1.0662e-13 -0.0673175)
(4.04258e-12 -1.09499e-13 -0.0669591)
(4.29085e-12 -1.10392e-13 -0.0665862)
(4.54467e-12 -1.13953e-13 -0.0661978)
(4.8008e-12 -1.12951e-13 -0.0657924)
(5.05491e-12 -1.14425e-13 -0.0653683)
(5.30236e-12 -1.13547e-13 -0.0649232)
(5.53873e-12 -1.1083e-13 -0.0644548)
(5.76022e-12 -1.1203e-13 -0.0639607)
(5.96394e-12 -1.10661e-13 -0.0634381)
(6.14839e-12 -1.14134e-13 -0.0628842)
(6.31433e-12 -1.17848e-13 -0.0622955)
(6.46607e-12 -1.22733e-13 -0.0616679)
(6.61326e-12 -1.35416e-13 -0.0609968)
(6.77264e-12 -1.50801e-13 -0.0602783)
(6.96937e-12 -1.77994e-13 -0.0595109)
(7.23734e-12 -2.13986e-13 -0.0586978)
(7.61829e-12 -2.6075e-13 -0.0578496)
(8.15979e-12 -3.2508e-13 -0.0569839)
(8.91222e-12 -4.00968e-13 -0.056121)
(9.92543e-12 -4.93737e-13 -0.0552742)
(1.12451e-11 -6.02345e-13 -0.0544333)
(1.29087e-11 -7.1894e-13 -0.0535459)
(1.49407e-11 -8.46271e-13 -0.0525019)
(1.73472e-11 -9.72926e-13 -0.0511287)
(2.01131e-11 -1.0996e-12 -0.0492046)
(2.31996e-11 -1.21865e-12 -0.0464945)
(2.65315e-11 -1.31022e-12 -0.0428038)
(2.99806e-11 -1.35712e-12 -0.0380403)
(3.33497e-11 -1.31823e-12 -0.0322684)
(3.63655e-11 -1.15775e-12 -0.0257342)
(3.86857e-11 -8.34777e-13 -0.0188525)
(3.99242e-11 -3.12689e-13 -0.012148)
(3.96902e-11 4.13692e-13 -0.0061635)
(3.76352e-11 1.33577e-12 -0.00135591)
(3.35003e-11 2.39846e-12 0.00199337)
(2.71653e-11 3.51248e-12 0.00382858)
(1.87042e-11 4.55355e-12 0.00431732)
(8.43878e-12 5.35427e-12 0.00379799)
(-3.02177e-12 5.74911e-12 0.00269365)
(-1.47657e-11 5.57858e-12 0.00141713)
(-2.56279e-11 4.75114e-12 0.000292792)
(-3.43338e-11 3.29025e-12 -0.000487628)
(-3.97358e-11 1.34579e-12 -0.000869695)
(-4.10907e-11 -7.89941e-13 -0.00090799)
(-3.82849e-11 -2.76491e-12 -0.000719426)
(-3.19181e-11 -4.23765e-12 -0.000434682)
(-2.32006e-11 -4.96637e-12 -0.000160938)
(-1.36852e-11 -4.88694e-12 3.73927e-05)
(-4.91448e-12 -4.09897e-12 0.000140168)
(1.91103e-12 -2.85327e-12 0.000160489)
(6.15044e-12 -1.46068e-12 0.000128416)
(7.77647e-12 -2.08609e-13 7.59154e-05)
(7.27254e-12 6.89037e-13 2.70263e-05)
(5.42416e-12 1.15358e-12 -5.85281e-06)
(3.07211e-12 1.20668e-12 -2.04726e-05)
(9.28988e-13 9.77932e-13 -2.11647e-05)
(-6.325e-13 5.96479e-13 -1.78797e-05)
(-1.37874e-12 1.85986e-13 -8.43071e-06)
(5.20344e-17 1.81953e-15 -0.100396)
(1.86272e-16 1.77345e-15 -0.100598)
(1.32071e-16 2.58302e-17 -0.10101)
(2.64295e-16 1.67468e-15 -0.10166)
(4.90585e-16 1.94532e-15 -0.102578)
(-1.84266e-15 1.53074e-15 -0.103778)
(9.48877e-15 -1.12172e-15 -0.10527)
(-1.98651e-14 4.54652e-15 -0.107008)
(-9.6483e-15 6.03924e-16 -0.108953)
(1.38697e-13 -2.97679e-14 -0.110971)
(5.34983e-14 -2.56205e-14 -0.112859)
(-6.04853e-13 6.82168e-14 -0.114754)
(-1.4798e-12 2.12221e-13 -0.116454)
(-1.7693e-12 2.97651e-13 -0.117916)
(-9.12933e-13 2.54645e-13 -0.11913)
(1.06973e-12 1.00967e-13 -0.12009)
(3.72696e-12 -1.05082e-13 -0.120824)
(6.51959e-12 -3.02188e-13 -0.121375)
(9.06854e-12 -4.51484e-13 -0.121791)
(1.11995e-11 -5.54874e-13 -0.122114)
(1.28425e-11 -6.1985e-13 -0.122367)
(1.38906e-11 -6.0981e-13 -0.122538)
(1.40055e-11 -5.00451e-13 -0.122573)
(1.29649e-11 -3.23264e-13 -0.12237)
(1.12198e-11 -1.28373e-13 -0.121824)
(9.24024e-12 4.49978e-14 -0.120836)
(7.41398e-12 1.72173e-13 -0.119363)
(5.93316e-12 2.3764e-13 -0.117459)
(4.7988e-12 2.49788e-13 -0.115276)
(3.91629e-12 2.24763e-13 -0.113048)
(3.1781e-12 1.77879e-13 -0.111044)
(2.48687e-12 1.36324e-13 -0.10951)
(1.73201e-12 1.13623e-13 -0.108605)
(7.6741e-13 1.24416e-13 -0.108367)
(-5.74049e-13 1.8486e-13 -0.108702)
(-2.39369e-12 2.83945e-13 -0.109404)
(-4.59878e-12 3.84008e-13 -0.110194)
(-6.84835e-12 4.35121e-13 -0.110767)
(-8.68377e-12 3.98434e-13 -0.110863)
(-9.72902e-12 2.86513e-13 -0.110315)
(-9.87387e-12 1.37929e-13 -0.109083)
(-9.26811e-12 6.84637e-15 -0.107244)
(-8.21079e-12 -7.85602e-14 -0.104969)
(-7.01583e-12 -1.14566e-13 -0.102493)
(-5.92333e-12 -1.05646e-13 -0.100067)
(-5.07396e-12 -6.82639e-14 -0.0979178)
(-4.52739e-12 -1.59086e-14 -0.0962175)
(-4.29604e-12 5.22457e-14 -0.095066)
(-4.37104e-12 1.23554e-13 -0.0944896)
(-4.73226e-12 2.02798e-13 -0.0944472)
(-5.34164e-12 2.84244e-13 -0.0948435)
(-6.12914e-12 3.57003e-13 -0.0955462)
(-6.98805e-12 3.98325e-13 -0.0964043)
(-7.79648e-12 4.08391e-13 -0.0972676)
(-8.44174e-12 3.73839e-13 -0.0980039)
(-8.82662e-12 3.04033e-13 -0.0985104)
(-8.9085e-12 2.14245e-13 -0.0987252)
(-8.72448e-12 1.13694e-13 -0.0986297)
(-8.37248e-12 3.09338e-14 -0.0982455)
(-7.9405e-12 -3.40678e-14 -0.0976257)
(-7.48824e-12 -7.325e-14 -0.0968444)
(-7.05443e-12 -8.62125e-14 -0.0959847)
(-6.66067e-12 -8.77425e-14 -0.0951274)
(-6.31434e-12 -6.97832e-14 -0.0943418)
(-6.01096e-12 -5.23751e-14 -0.093679)
(-5.73701e-12 -2.91157e-14 -0.0931693)
(-5.47167e-12 -1.01004e-14 -0.0928217)
(-5.18946e-12 -4.37726e-15 -0.0926271)
(-4.8635e-12 -2.10695e-15 -0.0925616)
(-4.4696e-12 -1.77529e-14 -0.0925917)
(-3.99143e-12 -3.78425e-14 -0.0926794)
(-3.42425e-12 -6.45676e-14 -0.0927862)
(-2.77723e-12 -9.91485e-14 -0.0928777)
(-2.07223e-12 -1.25229e-13 -0.0929263)
(-1.33967e-12 -1.53289e-13 -0.0929125)
(-6.12631e-13 -1.69175e-13 -0.0928266)
(7.9796e-14 -1.75974e-13 -0.0926672)
(7.17228e-13 -1.85216e-13 -0.0924407)
(1.29064e-12 -1.8151e-13 -0.092159)
(1.8022e-12 -1.82761e-13 -0.0918377)
(2.2628e-12 -1.78848e-13 -0.0914935)
(2.68891e-12 -1.76452e-13 -0.0911422)
(3.09882e-12 -1.81715e-13 -0.0907974)
(3.50983e-12 -1.8283e-13 -0.0904694)
(3.93648e-12 -1.93696e-13 -0.0901643)
(4.38929e-12 -2.01927e-13 -0.0898844)
(4.87483e-12 -2.12337e-13 -0.0896284)
(5.39555e-12 -2.29658e-13 -0.0893921)
(5.95038e-12 -2.41007e-13 -0.0891694)
(6.53514e-12 -2.59301e-13 -0.0889528)
(7.14281e-12 -2.71163e-13 -0.0887347)
(7.76424e-12 -2.83911e-13 -0.0885081)
(8.38869e-12 -2.91124e-13 -0.0882667)
(9.00502e-12 -2.93762e-13 -0.0880058)
(9.60326e-12 -2.91816e-13 -0.0877224)
(1.01761e-11 -2.8444e-13 -0.0874149)
(1.07206e-11 -2.78581e-13 -0.0870831)
(1.12387e-11 -2.71218e-13 -0.0867279)
(1.17375e-11 -2.66181e-13 -0.0863506)
(1.22278e-11 -2.64923e-13 -0.0859528)
(1.27221e-11 -2.66093e-13 -0.0855361)
(1.32315e-11 -2.74137e-13 -0.0851014)
(1.37634e-11 -2.82112e-13 -0.0846489)
(1.43197e-11 -2.89553e-13 -0.0841781)
(1.4896e-11 -2.94401e-13 -0.0836879)
(1.54818e-11 -2.93476e-13 -0.0831764)
(1.60626e-11 -2.91419e-13 -0.0826414)
(1.66212e-11 -2.83226e-13 -0.0820802)
(1.71395e-11 -2.71363e-13 -0.0814898)
(1.76004e-11 -2.56876e-13 -0.0808671)
(1.79893e-11 -2.39357e-13 -0.0802088)
(1.82967e-11 -2.25936e-13 -0.0795114)
(1.85208e-11 -2.14361e-13 -0.0787705)
(1.86728e-11 -2.10872e-13 -0.0779811)
(1.87811e-11 -2.21781e-13 -0.0771377)
(1.88967e-11 -2.5325e-13 -0.0762352)
(1.90964e-11 -3.1929e-13 -0.0752714)
(1.94821e-11 -4.23257e-13 -0.0742497)
(2.01782e-11 -5.74011e-13 -0.0731821)
(2.13233e-11 -7.76221e-13 -0.0720896)
(2.30606e-11 -1.02964e-12 -0.0709979)
(2.55261e-11 -1.3374e-12 -0.0699245)
(2.88374e-11 -1.68815e-12 -0.0688598)
(3.30835e-11 -2.07272e-12 -0.067743)
(3.83135e-11 -2.47479e-12 -0.0664415)
(4.45223e-11 -2.87264e-12 -0.0647423)
(5.16373e-11 -3.24933e-12 -0.0623678)
(5.95138e-11 -3.5689e-12 -0.0590171)
(6.79094e-11 -3.78523e-12 -0.0544346)
(7.64525e-11 -3.83024e-12 -0.0484894)
(8.46185e-11 -3.61737e-12 -0.0412456)
(9.17305e-11 -3.06214e-12 -0.0330005)
(9.6994e-11 -2.08322e-12 -0.0242708)
(9.9567e-11 -6.39766e-13 -0.0157216)