/*--------------------------------*- C++ -*----------------------------------*\
  =========                 |
  \\      /  F ield         | OpenFOAM: The Open Source CFD Toolbox
   \\    /   O peration     | Website:  https://openfoam.org
    \\  /    A nd           | Version:  11
     \\/     M anipulation  |
\*---------------------------------------------------------------------------*/
FoamFile
{
    format      ascii;
    class       volVectorField;
    location    "18.517649";
    object      U_0;
}
// * * * * * * * * * * * * * * * * * * * * * * * * * * * * * * * * * * * * * //

dimensions      [0 1 -1 0 0 0 0];

internalField   nonuniform List<vector> 
7132
(
(1.00011 -0.000209294 3.92615e-18)
(1.00161 -0.000622414 1.3495e-17)
(1.00499 -0.00106148 1.36422e-17)
(1.01014 -0.00154531 1.71115e-17)
(1.01733 -0.00208352 2.20656e-17)
(1.02679 -0.00265818 2.21178e-17)
(1.03861 -0.00322725 2.03209e-17)
(1.05265 -0.00370433 1.81678e-17)
(1.06833 -0.0039929 1.58677e-17)
(1.08472 -0.00398994 1.36894e-17)
(1.1004 -0.00362867 1.19713e-17)
(1.11394 -0.00296451 1.09114e-17)
(1.12426 -0.00204211 1.03322e-17)
(1.13043 -0.000906782 1.0061e-17)
(1.13167 0.000397795 7.72695e-18)
(1.12741 0.00179549 5.8091e-18)
(1.11748 0.00310607 4.56061e-18)
(1.10268 0.00409722 5.28394e-18)
(1.08474 0.0045778 4.25856e-18)
(1.066 0.00444304 4.38215e-18)
(1.04906 0.00367981 4.73516e-18)
(1.03639 0.00236253 4.18817e-18)
(1.03002 0.000654963 5.49047e-18)
(1.03111 -0.00117727 2.5899e-18)
(1.03956 -0.00275101 -6.38409e-17)
(1.05343 -0.00362139 -1.84169e-16)
(1.06898 -0.00345544 -2.02911e-16)
(1.08157 -0.00224138 -1.06854e-16)
(1.08733 -0.000340339 -2.42133e-17)
(1.08454 0.00169502 2.15544e-17)
(1.0738 0.00337747 5.13889e-17)
(1.05736 0.00442251 -1.07467e-16)
(1.03814 0.00472885 -4.95228e-16)
(1.01918 0.00429536 3.38661e-16)
(1.00339 0.00315755 5.18304e-15)
(0.993515 0.0013827 9.57473e-15)
(0.991976 -0.000876203 -2.94755e-14)
(1.00034 -0.00328607 -2.29259e-13)
(1.01834 -0.00528721 -6.49801e-13)
(1.04302 -0.00622775 -1.057e-12)
(1.06877 -0.00567802 -1.08352e-12)
(1.08909 -0.00371477 -7.2066e-13)
(1.09901 -0.000926264 -3.11193e-13)
(1.09677 0.00188505 -7.55111e-14)
(1.0839 0.00406787 2.25843e-14)
(1.06397 0.00530956 3.86913e-14)
(1.04105 0.00558379 -2.57507e-14)
(1.01887 0.00499112 -1.64764e-13)
(1.00067 0.00363224 -2.21642e-13)
(0.98936 0.00158838 3.48176e-13)
(0.987569 -0.000988301 2.97462e-12)
(0.997061 -0.00373422 9.53183e-12)
(1.01755 -0.00602336 1.95414e-11)
(1.04571 -0.00713064 2.8251e-11)
(1.07529 -0.00657312 2.96793e-11)
(1.09903 -0.00440884 2.28628e-11)
(1.11114 -0.00126182 1.32798e-11)
(1.10941 0.00196224 6.35449e-12)
(1.0954 0.00447423 2.19928e-12)
(1.0733 0.00586485 4.34588e-13)
(1.04803 0.00610472 1.46753e-12)
(1.02398 0.00536822 2.75763e-12)
(1.0046 0.00384653 -7.14834e-12)
(0.992724 0.00167973 -5.06068e-11)
(0.990716 -0.000959413 -1.52229e-10)
(1.00007 -0.00371489 -3.2156e-10)
(1.02035 -0.0059985 -5.35933e-10)
(1.04828 -0.00714415 -7.37845e-10)
(1.078 -0.00670387 -8.57948e-10)
(1.10258 -0.00469621 -8.51584e-10)
(1.11624 -0.00164223 -7.21068e-10)
(1.11622 0.00163331 -5.11059e-10)
(1.10339 0.00432 -2.8714e-10)
(1.08157 0.00589731 -1.06785e-10)
(1.05588 0.00623031 -3.96035e-13)
(1.03127 0.00547207 2.33562e-11)
(1.01161 0.00387497 -4.30734e-11)
(0.999763 0.00166688 -2.16378e-10)
(0.997816 -0.000916166 -5.0956e-10)
(1.00678 -0.0035089 -9.09208e-10)
(1.02581 -0.00558319 -1.36312e-09)
(1.05162 -0.00658886 -1.78796e-09)
(1.07891 -0.00619103 -2.09256e-09)
(1.10164 -0.00443969 -2.20489e-09)
(1.11491 -0.00176721 -2.09183e-09)
(1.11616 0.00116659 -1.76737e-09)
(1.10579 0.00369038 -1.29217e-09)
(1.08667 0.00531026 -7.71008e-10)
(1.06317 0.00580456 -3.30446e-10)
(1.03996 0.00520806 -7.61775e-11)
(1.02113 0.00371461 -5.68603e-11)
(1.00984 0.00158344 -2.58052e-10)
(1.00814 -0.00087166 -6.2304e-10)
(1.01666 -0.00323888 -1.07909e-09)
(1.03412 -0.00502691 -1.5543e-09)
(1.05717 -0.00579739 -1.98525e-09)
(1.08092 -0.00534153 -2.31984e-09)
(1.1003 -0.00377743 -2.51711e-09)
(1.11143 -0.00150599 -2.54515e-09)
(1.11249 0.000934898 -2.38093e-09)
(1.10395 0.00303437 -2.01983e-09)
(1.0881 0.0044228 -1.50255e-09)
(1.06838 0.00491003 -9.33848e-10)
(1.04859 0.00447124 -4.58946e-10)
(1.03236 0.00321178 -2.00036e-10)
(1.02267 0.00134321 -1.99266e-10)
(1.02147 -0.000815333 -4.12773e-10)
(1.0292 -0.00284468 -7.508e-10)
(1.04443 -0.00429593 -1.12431e-09)
(1.06393 -0.00482292 -1.46978e-09)
(1.08342 -0.00431157 -1.75094e-09)
(1.09876 -0.00292456 -1.94896e-09)
(1.10699 -0.00103441 -2.05012e-09)
(1.10703 0.000911186 -2.03658e-09)
(1.09955 0.00252288 -1.88692e-09)
(1.0866 0.00354515 -1.5946e-09)
(1.07091 0.00386064 -1.1937e-09)
(1.05545 0.00345983 -7.66467e-10)
(1.04301 0.00241823 -4.15336e-10)
(1.03597 0.000901648 -2.15216e-10)
(1.03579 -0.000817946 -1.82869e-10)
(1.04265 -0.0023822 -2.83182e-10)
(1.05514 -0.00342762 -4.58651e-10)
(1.07046 -0.00370264 -6.56615e-10)
(1.08514 -0.00316007 -8.41303e-10)
(1.09601 -0.00197149 -9.92744e-10)
(1.10101 -0.000457809 -1.09959e-09)
(1.09959 0.00102376 -1.1514e-09)
(1.0926 0.00218332 -1.13505e-09)
(1.08183 0.00284879 -1.03949e-09)
(1.06949 0.00295899 -8.67078e-10)
(1.05786 0.00253117 -6.42497e-10)
(1.04903 0.00164091 -4.09045e-10)
(1.04464 0.000429666 -2.11855e-10)
(1.04563 -0.000881795 -7.97541e-11)
(1.05189 -0.00201432 -1.80469e-11)
(1.06207 -0.00269958 -1.39951e-11)
(1.07387 -0.00277057 -4.759e-11)
(1.08459 -0.00222456 -1.00007e-10)
(1.0919 -0.00122283 -1.57071e-10)
(1.09444 -2.92542e-05 -2.08963e-10)
(1.09204 0.00107928 -2.48433e-10)
(1.08557 0.00189012 -2.69414e-10)
(1.07661 0.00228816 -2.67196e-10)
(1.06694 0.00224594 -2.40096e-10)
(1.05835 0.00179622 -1.9119e-10)
(1.05236 0.00101563 -1.28247e-10)
(1.05014 3.05394e-05 -6.12786e-11)
(1.05217 -0.000976371 8.93459e-13)
(1.05818 -0.0017869 5.29437e-11)
(1.06679 -0.00220501 9.32772e-11)
(1.07625 -0.00212566 1.22822e-10)
(1.08408 -0.00157479 1.43554e-10)
(1.08917 -0.000712722 1.57487e-10)
(1.08969 0.000252235 1.66152e-10)
(1.08731 0.00105413 1.70335e-10)
(1.08062 0.00162625 1.70122e-10)
(1.07455 0.00167327 1.64299e-10)
(1.06613 0.00169704 1.55684e-10)
(1.06162 0.000445998 1.28157e-10)
(1.00011 -0.000625844 7.0065e-20)
(1.0016 -0.00186183 6.74729e-19)
(1.00495 -0.00317679 1.27218e-18)
(1.01006 -0.0046294 1.8816e-18)
(1.01724 -0.00624972 2.62611e-18)
(1.02671 -0.0079853 3.3352e-18)
(1.03861 -0.00971069 3.68487e-18)
(1.05282 -0.0111632 4.77079e-18)
(1.06876 -0.0120493 2.7226e-18)
(1.08548 -0.0120498 2.0701e-18)
(1.10148 -0.01096 3.58686e-18)
(1.11529 -0.00896097 5.72986e-18)
(1.12583 -0.00619211 4.49375e-18)
(1.13216 -0.00279349 3.45575e-18)
(1.13353 0.00110972 3.66441e-18)
(1.12927 0.00530618 4.69839e-18)
(1.11914 0.00926157 5.85253e-18)
(1.10394 0.0122737 6.97288e-18)
(1.08545 0.0137587 7.80665e-18)
(1.0661 0.0133903 7.35745e-18)
(1.04857 0.0111177 4.56973e-18)
(1.03542 0.00715486 5.06636e-18)
(1.02876 0.00198624 7.11691e-18)
(1.02988 -0.00359113 -6.40755e-17)
(1.03877 -0.00841171 -2.74243e-16)
(1.05349 -0.0111033 -5.33884e-16)
(1.07008 -0.0106258 -6.7602e-16)
(1.08355 -0.0069308 -4.31147e-16)
(1.08976 -0.00112734 -9.19615e-17)
(1.08691 0.00508579 8.90788e-17)
(1.07573 0.010217 -6.8545e-17)
(1.05865 0.0134062 -5.38703e-16)
(1.03872 0.0143582 1.62164e-15)
(1.01903 0.0130786 5.99099e-15)
(1.00253 0.00967274 -2.31518e-14)
(0.992047 0.00432649 -1.1702e-13)
(0.990129 -0.00252544 8.62174e-14)
(0.998574 -0.0098915 1.88703e-12)
(1.0173 -0.016058 6.16428e-12)
(1.04325 -0.0190006 1.02925e-11)
(1.07046 -0.017372 1.03658e-11)
(1.09192 -0.0113974 6.78304e-12)
(1.1023 -0.00288941 2.92292e-12)
(1.09983 0.00568624 6.65275e-13)
(1.08626 0.0123346 -1.04922e-13)
(1.06543 0.0161122 -2.10046e-13)
(1.04161 0.0169586 -1.29781e-13)
(1.0186 0.0151944 4.0953e-13)
(0.999624 0.0111237 1.27177e-12)
(0.987635 0.00496757 -1.93336e-12)
(0.985418 -0.0028512 -2.12768e-11)
(0.994982 -0.0112499 -7.32429e-11)
(1.01623 -0.0183038 -1.58818e-10)
(1.04576 -0.0217561 -2.41075e-10)
(1.07699 -0.0200985 -2.68481e-10)
(1.10207 -0.013507 -2.27089e-10)
(1.11482 -0.0039052 -1.47209e-10)
(1.11289 0.00593016 -6.84847e-11)
(1.09807 0.0135849 -1.80731e-11)
(1.0749 0.0178148 3.51606e-12)
(1.04857 0.018549 1.13726e-11)
(1.0236 0.0163409 1.23212e-11)
(1.00342 0.0117793 -1.9394e-11)
(0.990792 0.00526952 -1.53452e-10)
(0.988176 -0.00270437 -4.80795e-10)
(0.997271 -0.0110929 -1.0483e-09)
(1.01784 -0.0181084 -1.77894e-09)
(1.04666 -0.0216965 -2.45492e-09)
(1.07767 -0.0204561 -2.8144e-09)
(1.10356 -0.0144172 -2.70751e-09)
(1.11818 -0.00515777 -2.18829e-09)
(1.11853 0.00481085 -1.46737e-09)
(1.10548 0.0130127 -7.77515e-10)
(1.08299 0.0178505 -2.72922e-10)
(1.05643 0.0189093 1.30567e-12)
(1.03091 0.016661 6.69879e-11)
(1.01039 0.0118767 -5.76135e-11)
(0.997804 0.00523352 -3.91611e-10)
(0.995364 -0.00258204 -9.61482e-10)
(1.00428 -0.0104797 -1.7391e-09)
(1.02381 -0.0168438 -2.60778e-09)
(1.05056 -0.0199727 -3.38833e-09)
(1.07889 -0.0188266 -3.89937e-09)
(1.10247 -0.0135547 -4.01321e-09)
(1.1162 -0.00547671 -3.69415e-09)
(1.11753 0.0034053 -3.01243e-09)
(1.10692 0.0110614 -2.12188e-09)
(1.08736 0.0159986 -1.22143e-09)
(1.0633 0.0175454 -5.03224e-10)
(1.03946 0.0158014 -1.00587e-10)
(1.02003 0.0113389 -6.19115e-11)
(1.00825 0.00491949 -3.57584e-10)
(1.00637 -0.00252737 -9.04245e-10)
(1.01519 -0.00975159 -1.5878e-09)
(1.03344 -0.0152333 -2.28467e-09)
(1.05753 -0.017608 -2.88553e-09)
(1.08223 -0.0162295 -3.3112e-09)
(1.10217 -0.0114717 -3.51269e-09)
(1.11336 -0.00457523 -3.46307e-09)
(1.11407 0.0028182 -3.15494e-09)
(1.10494 0.00916567 -2.60907e-09)
(1.08845 0.0133603 -1.89765e-09)
(1.06815 0.0148397 -1.15695e-09)
(1.04787 0.0135327 -5.5797e-10)
(1.03128 0.00974766 -2.38679e-10)
(1.02143 0.00410386 -2.4413e-10)
(1.02041 -0.00244954 -5.19118e-10)
(1.02872 -0.00863743 -9.50173e-10)
(1.04487 -0.0130718 -1.4194e-09)
(1.06539 -0.0146765 -1.83943e-09)
(1.08568 -0.0131002 -2.16145e-09)
(1.10138 -0.008854 -2.36481e-09)
(1.10948 -0.00309131 -2.44055e-09)
(1.10897 0.00281828 -2.37851e-09)
(1.10073 0.00769532 -2.16585e-09)
(1.08697 0.010774 -1.80446e-09)
(1.0706 0.0117106 -1.33669e-09)
(1.05464 0.0104837 -8.52828e-10)
(1.04195 0.00731974 -4.62082e-10)
(1.03495 0.00271126 -2.42911e-10)
(1.03517 -0.00252496 -2.10962e-10)
(1.04278 -0.0072954 -3.25631e-10)
(1.05623 -0.0104788 -5.21739e-10)
(1.07249 -0.0112977 -7.39654e-10)
(1.08784 -0.00961134 -9.39066e-10)
(1.09894 -0.0059572 -1.09799e-09)
(1.10371 -0.00132734 -1.20488e-09)
(1.10169 0.0031858 -1.25023e-09)
(1.0939 0.00670254 -1.2224e-09)
(1.0823 0.0087062 -1.11203e-09)
(1.06925 0.00901873 -9.2319e-10)
(1.05711 0.00769759 -6.82347e-10)
(1.04805 0.00497197 -4.34346e-10)
(1.04376 0.00126785 -2.25177e-10)
(1.04521 -0.00274463 -8.36675e-11)
(1.05225 -0.00620845 -1.4669e-11)
(1.06336 -0.00829462 -5.12339e-12)
(1.07603 -0.00848842 -3.5166e-11)
(1.08734 -0.00678733 -8.63817e-11)
(1.09483 -0.00369645 -1.4477e-10)
(1.09712 -3.19806e-05 -2.00103e-10)
(1.09415 0.00335794 -2.44184e-10)
(1.08693 0.0058264 -2.69782e-10)
(1.07717 0.00702702 -2.71165e-10)
(1.06682 0.00688107 -2.46026e-10)
(1.05773 0.00549072 -1.97254e-10)
(1.05153 0.00308888 -1.32723e-10)
(1.04942 5.90381e-05 -6.2638e-11)
(1.05192 -0.00303948 3.9554e-12)
(1.05869 -0.00553244 6.13559e-11)
(1.06819 -0.00681089 1.07325e-10)
(1.07848 -0.0065504 1.41914e-10)
(1.08687 -0.00483492 1.66228e-10)
(1.09215 -0.00216564 1.81703e-10)
(1.09244 0.000812238 1.8978e-10)
(1.08955 0.00328297 1.91607e-10)
(1.08211 0.00504035 1.87879e-10)
(1.07532 0.00518832 1.78078e-10)
(1.06612 0.00526724 1.65735e-10)
(1.06107 0.00141765 1.33855e-10)
(1.00011 -0.00103653 1.28699e-21)
(1.00157 -0.00308415 9.79362e-21)
(1.00486 -0.00526867 1.1024e-20)
(1.0099 -0.00769382 6.44255e-21)
(1.01703 -0.010415 -7.73556e-20)
(1.02654 -0.0133491 -1.99904e-20)
(1.0386 -0.0162888 1.0633e-20)
(1.05314 -0.0187834 -1.95792e-18)
(1.06961 -0.0203297 -1.05766e-18)
(1.08701 -0.0203579 8.64979e-18)
(1.10367 -0.0185088 8.24625e-18)
(1.11801 -0.0151306 -1.49765e-17)
(1.12897 -0.0104678 -3.51172e-17)
(1.13562 -0.00474742 -3.0183e-17)
(1.1372 0.00185479 -1.34742e-17)
(1.13291 0.00900979 -5.7522e-19)
(1.12237 0.0157877 6.62986e-18)
(1.10633 0.0209545 1.09882e-17)
(1.08672 0.0235014 1.25268e-17)
(1.06614 0.0228818 1.83448e-18)
(1.04746 0.0190186 5.23771e-19)
(1.03339 0.012268 6.05346e-17)
(1.02624 0.00342548 -5.19148e-16)
(1.02754 -0.00618385 -9.17171e-16)
(1.03745 -0.0145607 1.4423e-14)
(1.05397 -0.0192868 4.70431e-14)
(1.07268 -0.0184941 5.33774e-14)
(1.08788 -0.0120769 2.7683e-14)
(1.09484 -0.00200401 6.5565e-15)
(1.09166 0.00872242 -1.52187e-16)
(1.07939 0.0175118 -3.01494e-15)
(1.06085 0.02293 -1.99943e-15)
(1.0394 0.0245366 2.99861e-14)
(1.01827 0.0223837 3.8317e-14)
(1.00047 0.0166469 -3.98001e-13)
(0.988907 0.00758877 -1.28186e-12)
(0.98644 -0.00413069 2.55369e-12)
(0.995309 -0.016865 2.59726e-11)
(1.01576 -0.0276302 7.63503e-11)
(1.04452 -0.0328232 1.25469e-10)
(1.07474 -0.0300231 1.30264e-10)
(1.09835 -0.0196257 8.87189e-11)
(1.10936 -0.00485783 3.92082e-11)
(1.10602 0.00992713 9.43925e-12)
(1.09067 0.0212724 -1.38411e-12)
(1.06779 0.0276267 -2.90217e-12)
(1.04208 0.02899 -1.07411e-12)
(1.01744 0.0259805 4.7552e-12)
(0.99705 0.0191142 1.07286e-11)
(0.983887 0.00869617 -2.4091e-11)
(0.980911 -0.0046505 -2.0906e-10)
(0.990487 -0.0191312 -6.77835e-10)
(1.0129 -0.0314181 -1.40937e-09)
(1.04485 -0.0375276 -2.09063e-09)
(1.07929 -0.0347394 -2.30757e-09)
(1.1073 -0.0233139 -1.93291e-09)
(1.12162 -0.00664547 -1.23083e-09)
(1.11945 0.0103585 -5.72003e-10)
(1.10296 0.0234768 -1.57208e-10)
(1.07748 0.0306077 1.91334e-11)
(1.04895 0.0317423 6.25926e-11)
(1.02215 0.0279406 4.88202e-11)
(1.00046 0.0202501 -6.53879e-11)
(0.986507 0.00930537 -4.5649e-10)
(0.982874 -0.00418775 -1.33626e-09)
(0.991677 -0.0185372 -2.75714e-09)
(1.01308 -0.0306977 -4.46823e-09)
(1.04384 -0.037075 -5.97999e-09)
(1.07733 -0.0351629 -6.78054e-09)
(1.10552 -0.0249428 -6.56106e-09)
(1.12166 -0.00910728 -5.38161e-09)
(1.12245 0.00800391 -3.67043e-09)
(1.10877 0.0220982 -1.98252e-09)
(1.08491 0.0304144 -7.24409e-10)
(1.05665 0.0322601 -3.13491e-11)
(1.02944 0.0284857 1.52557e-10)
(1.00741 0.0204245 -9.44319e-11)
(0.993673 0.00918424 -7.55802e-10)
(0.990752 -0.00414456 -1.81505e-09)
(1.00021 -0.0177255 -3.14651e-09)
(1.02137 -0.0287273 -4.50654e-09)
(1.05038 -0.0341405 -5.63628e-09)
(1.08083 -0.0321546 -6.34358e-09)
(1.10576 -0.0230861 -6.49967e-09)
(1.11979 -0.00927641 -6.0315e-09)
(1.12056 0.00582278 -4.97864e-09)
(1.10887 0.0187814 -3.54635e-09)
(1.08803 0.0271186 -2.06366e-09)
(1.06268 0.0297433 -8.66311e-10)
(1.03767 0.0268341 -1.85216e-10)
(1.01724 0.0193194 -9.96247e-11)
(1.0049 0.00841823 -5.49944e-10)
(1.00321 -0.00433552 -1.37457e-09)
(1.01321 -0.0167752 -2.35614e-09)
(1.03348 -0.0262024 -3.285e-09)
(1.05985 -0.0301989 -4.01983e-09)
(1.08638 -0.0276652 -4.50088e-09)
(1.10716 -0.0193338 -4.70984e-09)
(1.11805 -0.0074389 -4.62382e-09)
(1.11756 0.00515808 -4.21315e-09)
(1.1068 0.0158471 -3.48577e-09)
(1.08867 0.0228181 -2.53395e-09)
(1.06699 0.0251956 -1.54443e-09)
(1.04572 0.022898 -7.48427e-10)
(1.02857 0.0164273 -3.27933e-10)
(1.01874 0.00678043 -3.37601e-10)
(1.0185 -0.00445677 -6.94813e-10)
(1.02839 -0.0150752 -1.23722e-09)
(1.04664 -0.0226295 -1.80289e-09)
(1.06925 -0.0252328 -2.2842e-09)
(1.09103 -0.0223089 -2.63553e-09)
(1.10722 -0.0148156 -2.84769e-09)
(1.11475 -0.00481698 -2.91664e-09)
(1.11284 0.00529758 -2.82761e-09)
(1.10279 0.0135234 -2.5625e-09)
(1.08723 0.0186061 -2.12462e-09)
(1.06937 0.0200233 -1.56737e-09)
(1.05241 0.0177788 -9.99036e-10)
(1.03934 0.0122613 -5.46206e-10)
(1.03267 0.00429339 -2.95901e-10)
(1.03399 -0.00473162 -2.60311e-10)
(1.04337 -0.0129117 -3.87294e-10)
(1.05889 -0.0182849 -5.9991e-10)
(1.07704 -0.0195083 -8.32216e-10)
(1.0936 -0.0163811 -1.04324e-09)
(1.10496 -0.00989775 -1.21222e-09)
(1.10904 -0.00182594 -1.32711e-09)
(1.10562 0.00593189 -1.37562e-09)
(1.09606 0.0118801 -1.34329e-09)
(1.0827 0.0151724 -1.21956e-09)
(1.06819 0.0155469 -1.01005e-09)
(1.05508 0.0131292 -7.45101e-10)
(1.04567 0.00831839 -4.73975e-10)
(1.04178 0.00184517 -2.45433e-10)
(1.04439 -0.00512548 -8.86043e-11)
(1.05315 -0.0110894 -7.1961e-12)
(1.06621 -0.0145939 1.27119e-11)
(1.08058 -0.0147579 -9.39338e-12)
(1.09294 -0.0116194 -5.6395e-11)
(1.10062 -0.00610932 -1.1541e-10)
(1.10225 0.000317095 -1.76125e-10)
(1.09797 0.00618016 -2.28827e-10)
(1.08913 0.0103773 -2.63888e-10)
(1.07775 0.0123409 -2.73175e-10)
(1.06602 0.0119642 -2.52746e-10)
(1.05602 0.00943926 -2.04938e-10)
(1.0495 0.00517164 -1.37893e-10)
(1.0478 -0.000171531 -6.24367e-11)
(1.0514 -0.0056048 1.16633e-11)
(1.0598 -0.00993281 7.78483e-11)
(1.07112 -0.0120812 1.32784e-10)
(1.08299 -0.0114945 1.75273e-10)
(1.09237 -0.00835472 2.05257e-10)
(1.09785 -0.00357375 2.23378e-10)
(1.09754 0.00168654 2.30814e-10)
(1.09351 0.00601741 2.29059e-10)
(1.0845 0.00903693 2.19581e-10)
(1.07627 0.0092693 2.02919e-10)
(1.06553 0.00933955 1.83864e-10)
(1.05961 0.00255901 1.43924e-10)
(1.0001 -0.00143713 -5.68633e-20)
(1.00152 -0.00427639 -6.81434e-19)
(1.00471 -0.00731925 -1.32183e-18)
(1.00964 -0.0107222 -2.29002e-18)
(1.0167 -0.0145749 -3.58111e-18)
(1.02623 -0.0187707 -2.61243e-18)
(1.03852 -0.0230236 -9.90733e-18)
(1.05357 -0.0266761 -1.29831e-17)
(1.07085 -0.0289939 3.59521e-17)
(1.08931 -0.0290922 3.41401e-17)
(1.107 -0.0264299 -1.45842e-16)
(1.12214 -0.021605 -3.82165e-16)
(1.13372 -0.0149933 -4.2924e-16)
(1.14089 -0.00691596 -2.30916e-16)
(1.14282 0.00244558 -2.24874e-17)
(1.13852 0.0127138 6.72005e-17)
(1.12731 0.0225417 7.81453e-17)
(1.10995 0.0300829 6.39725e-17)
(1.08858 0.0338388 2.37114e-17)
(1.06611 0.0330123 -7.18935e-17)
(1.04564 0.0274891 1.14786e-16)
(1.03017 0.0177583 -1.74549e-17)
(1.02227 0.00491198 -5.24768e-15)
(1.02382 -0.0091911 5.21805e-15)
(1.0353 -0.0216301 1.07266e-13)
(1.05466 -0.0287353 2.84158e-13)
(1.07676 -0.0275932 3.60107e-13)
(1.09468 -0.0180037 2.33704e-13)
(1.10278 -0.00300009 7.30105e-14)
(1.09899 0.0128295 8.37177e-16)
(1.0849 0.0256281 -2.28356e-14)
(1.06405 0.0333961 8.90397e-15)
(1.04026 0.0356424 1.64262e-13)
(1.01694 0.0325447 -6.70533e-14)
(0.997162 0.0243567 -2.08463e-12)
(0.983977 0.0113453 -2.95765e-12)
(0.980674 -0.00571499 1.64291e-11)
(0.990226 -0.0245435 8.30473e-11)
(1.01343 -0.0406675 1.89202e-10)
(1.04668 -0.0485094 2.87758e-10)
(1.08176 -0.0443013 3.19749e-10)
(1.10877 -0.0286938 2.5362e-10)
(1.12061 -0.00669896 1.36957e-10)
(1.11568 0.0150541 4.62005e-11)
(1.09731 0.0314561 1.22679e-12)
(1.07112 0.0404018 -1.0739e-11)
(1.04245 0.0421302 -3.50961e-12)
(1.01537 0.0377052 2.19953e-11)
(0.992916 0.0278981 3.16812e-11)
(0.977864 0.0130443 -1.59282e-10)
(0.973244 -0.00613605 -9.40152e-10)
(0.981931 -0.0272301 -2.64657e-09)
(1.00506 -0.0454894 -5.04898e-09)
(1.03987 -0.0549691 -7.19986e-09)
(1.07882 -0.05134 -7.98179e-09)
(1.11163 -0.034672 -6.94368e-09)
(1.12928 -0.00995948 -4.689e-09)
(1.12784 0.0152836 -2.36197e-09)
(1.1096 0.0345746 -7.55199e-10)
(1.08101 0.0448108 4.40247e-12)
(1.04923 0.0462044 2.10405e-10)
(1.01965 0.0405831 1.48188e-10)
(0.995647 0.0296025 -1.90447e-10)
(0.97971 0.0140683 -1.09362e-09)
(0.974729 -0.00527641 -2.81922e-09)
(0.983587 -0.0261872 -5.22861e-09)
(1.00692 -0.0441931 -7.7699e-09)
(1.04102 -0.0538385 -9.82895e-09)
(1.07811 -0.0513098 -1.09657e-08)
(1.10905 -0.0365734 -1.08662e-08)
(1.1266 -0.0135984 -9.3906e-09)
(1.12743 0.011277 -6.84107e-09)
(1.11262 0.0317884 -3.98368e-09)
(1.08683 0.0439028 -1.62709e-09)
(1.05627 0.0466358 -2.10529e-10)
(1.02676 0.041276 2.30774e-10)
(1.00271 0.0297564 -1.71313e-10)
(0.98761 0.0135684 -1.27709e-09)
(0.984547 -0.00584125 -2.88427e-09)
(0.995536 -0.0257825 -4.65032e-09)
(1.0197 -0.0419322 -6.20064e-09)
(1.05228 -0.0497187 -7.32196e-09)
(1.08571 -0.0465239 -7.99173e-09)
(1.11216 -0.0330248 -8.21172e-09)
(1.12605 -0.0128593 -7.86592e-09)
(1.12537 0.00888387 -6.80904e-09)
(1.11154 0.0273347 -5.10981e-09)
(1.08846 0.0390872 -3.13979e-09)
(1.0611 0.0427161 -1.42053e-09)
(1.03441 0.038514 -3.82602e-10)
(1.01278 0.0277213 -2.08691e-10)
(1.00002 0.0119412 -8.07911e-10)
(0.999149 -0.00667736 -1.88477e-09)
(1.01136 -0.0248844 -3.06955e-09)
(1.03479 -0.0385572 -4.07123e-09)
(1.06438 -0.0440662 -4.7695e-09)
(1.09327 -0.0398872 -5.1893e-09)
(1.11493 -0.027298 -5.39081e-09)
(1.12511 -0.00976426 -5.36536e-09)
(1.12267 0.00845265 -5.02249e-09)
(1.10931 0.023615 -4.28611e-09)
(1.08859 0.0332635 -3.20916e-09)
(1.06477 0.0363124 -2.01443e-09)
(1.04202 0.0327377 -1.01859e-09)
(1.0242 0.0232315 -4.80237e-10)
(1.0147 0.00914143 -4.75299e-10)
(1.01596 -0.0072688 -8.83362e-10)
(1.02842 -0.0227091 -1.48189e-09)
(1.04978 -0.033504 -2.07043e-09)
(1.07522 -0.0368758 -2.54168e-09)
(1.09883 -0.0320861 -2.87612e-09)
(1.11543 -0.020704 -3.09153e-09)
(1.12195 -0.0058903 -3.19112e-09)
(1.11794 0.00880636 -3.14236e-09)
(1.10523 0.0205014 -2.89762e-09)
(1.08704 0.0274802 -2.43927e-09)
(1.067 0.0291138 -1.82253e-09)
(1.04865 0.0254918 -1.17854e-09)
(1.03514 0.0171909 -6.61473e-10)
(1.02915 0.00538836 -3.73128e-10)
(1.0323 -0.00787109 -3.22231e-10)
(1.04439 -0.0197471 -4.43433e-10)
(1.06291 -0.0273195 -6.49347e-10)
(1.08358 -0.0286532 -8.72573e-10)
(1.10162 -0.0235693 -1.07779e-09)
(1.11311 -0.0136689 -1.25091e-09)
(1.11605 -0.00164669 -1.38146e-09)
(1.11054 0.00967976 -1.45161e-09)
(1.09844 0.0181608 -1.43712e-09)
(1.08258 0.0226414 -1.319e-09)
(1.066 0.0228259 -1.10037e-09)
(1.05157 0.0189517 -8.15643e-10)
(1.04181 0.0116195 -5.21104e-10)
(1.03868 0.00191106 -2.70903e-10)
(1.04312 -0.00842531 -9.58522e-11)
(1.05446 -0.0171216 1.12967e-12)
(1.07029 -0.0220151 3.49189e-11)
(1.08693 -0.0218538 2.47423e-11)
(1.10057 -0.0168005 -1.38501e-11)
(1.10829 -0.00834378 -7.00355e-11)
(1.10884 0.00129437 -1.34713e-10)
(1.10265 0.00991744 -1.9737e-10)
(1.09149 0.0159372 -2.45488e-10)
(1.07781 0.0185801 -2.67121e-10)
(1.06418 0.0177462 -2.55178e-10)
(1.05296 0.0137501 -2.10491e-10)
(1.04613 0.00720177 -1.41324e-10)
(1.04517 -0.00089463 -5.96061e-11)
(1.05052 -0.0090377 2.34025e-11)
(1.06133 -0.0154056 9.9558e-11)
(1.07519 -0.0183885 1.6407e-10)
(1.08915 -0.0172024 2.14619e-10)
(1.0997 -0.0122062 2.50417e-10)
(1.10526 -0.00483261 2.71617e-10)
(1.10397 0.00311897 2.79059e-10)
(1.09825 0.00959415 2.74182e-10)
(1.08699 0.0139699 2.58812e-10)
(1.07676 0.0142498 2.34386e-10)
(1.06387 0.0141621 2.07175e-10)
(1.05692 0.00392877 1.57029e-10)
(1.0001 -0.0018223 -4.29966e-18)
(1.00144 -0.00542307 -1.1503e-17)
(1.00449 -0.00930581 -9.9423e-18)
(1.00925 -0.0136912 -1.43161e-17)
(1.01618 -0.0187163 -1.38148e-17)
(1.02572 -0.0242629 -1.338e-17)
(1.0383 -0.0299727 -6.49784e-17)
(1.05402 -0.0349555 1.06874e-16)
(1.07241 -0.0382152 1.91958e-16)
(1.09237 -0.0384435 -7.9387e-16)
(1.11147 -0.0348745 -1.562e-15)
(1.12767 -0.0284871 -3.78207e-16)
(1.14008 -0.0198217 1.39926e-15)
(1.14791 -0.00927625 1.90757e-15)
(1.15037 0.0030572 1.36991e-15)
(1.14611 0.0168127 6.63763e-16)
(1.13406 0.0301155 1.78248e-16)
(1.11492 0.0403429 -9.23436e-17)
(1.09114 0.0454335 -4.3642e-16)
(1.06604 0.0443538 -3.36646e-16)
(1.0431 0.0369848 4.79525e-18)
(1.02564 0.0239522 -9.6123e-15)
(1.0166 0.00660647 2.58939e-14)
(1.0184 -0.0126929 1.15193e-13)
(1.03203 -0.0299885 -9.44074e-13)
(1.05544 -0.040034 -3.41088e-12)
(1.08242 -0.0385175 -3.87308e-12)
(1.10428 -0.0250775 -1.87307e-12)
(1.11395 -0.00413544 -3.36229e-13)
(1.10919 0.0176797 3.74622e-14)
(1.09245 0.0349879 3.75258e-15)
(1.06831 0.0452494 1.46921e-13)
(1.04129 0.048085 2.23974e-13)
(1.01501 0.0439295 -1.48873e-12)
(0.992536 0.0331302 -2.09631e-12)
(0.977081 0.0158377 1.2829e-11)
(0.972439 -0.0072414 1.90587e-11)
(0.982374 -0.0332286 -1.54263e-10)
(1.00841 -0.0558605 -6.60225e-10)
(1.04717 -0.0670094 -1.18858e-09)
(1.08924 -0.0610783 -1.19862e-09)
(1.122 -0.0390325 -7.09258e-10)
(1.1359 -0.00828376 -2.14216e-10)
(1.12906 0.0216002 1.61375e-11)
(1.10639 0.0435589 4.01546e-11)
(1.07545 0.0550478 6.61392e-12)
(1.0427 0.0568525 8.14941e-12)
(1.01239 0.0507449 6.37374e-11)
(0.987104 0.0378695 1.83331e-11)
(0.969128 0.0185404 -6.48214e-10)
(0.96156 -0.00666692 -2.6849e-09)
(0.968435 -0.0350268 -6.32638e-09)
(0.992395 -0.0603896 -1.07171e-08)
(1.03099 -0.074427 -1.43691e-08)
(1.07552 -0.0706353 -1.5936e-08)
(1.11402 -0.0485333 -1.46526e-08)
(1.13599 -0.0147243 -1.08672e-08)
(1.13629 0.0202205 -6.1882e-09)
(1.11687 0.0468923 -2.39747e-09)
(1.08503 0.0607848 -2.81608e-10)
(1.04932 0.0624112 4.39487e-10)
(1.01613 0.0547237 3.34745e-10)
(0.989005 0.0402212 -4.3237e-10)
(0.970578 0.0197711 -2.09287e-09)
(0.964483 -0.0061146 -4.68623e-09)
(0.974587 -0.0346255 -7.65826e-09)
(1.00158 -0.0594192 -1.02207e-08)
(1.0405 -0.0726849 -1.19848e-08)
(1.0819 -0.0691926 -1.30051e-08)
(1.11546 -0.0491818 -1.32462e-08)
(1.13361 -0.0182691 -1.22901e-08)
(1.13341 0.0150171 -9.83291e-09)
(1.11657 0.0424034 -6.36328e-09)
(1.0882 0.0585819 -2.98451e-09)
(1.05489 0.0622861 -6.65767e-10)
(1.0227 0.0552589 1.95458e-10)
(0.996401 0.0399949 -3.21769e-10)
(0.980064 0.0182718 -1.87193e-09)
(0.977556 -0.00809826 -3.91701e-09)
(0.991192 -0.0352971 -5.83955e-09)
(1.01944 -0.0571051 -7.21113e-09)
(1.05625 -0.0671584 -7.98068e-09)
(1.09285 -0.0621024 -8.37505e-09)
(1.12069 -0.0432504 -8.59417e-09)
(1.13403 -0.0158633 -8.54357e-09)
(1.13122 0.0130933 -7.86917e-09)
(1.11442 0.0372396 -6.34219e-09)
(1.08829 0.052335 -4.20033e-09)
(1.05828 0.056761 -2.09371e-09)
(1.02955 0.0509872 -7.11969e-10)
(1.00668 0.0365091 -4.16688e-10)
(0.993893 0.0152361 -1.10303e-09)
(0.9946 -0.00999689 -2.31969e-09)
(1.00991 -0.0345916 -3.54641e-09)
(1.03717 -0.0527203 -4.45269e-09)
(1.07026 -0.0594487 -4.98157e-09)
(1.10143 -0.0529443 -5.25765e-09)
(1.12373 -0.0352502 -5.4246e-09)
(1.13289 -0.0112951 -5.50453e-09)
(1.12806 0.0130711 -5.3565e-09)
(1.11157 0.0328895 -4.7889e-09)
(1.08767 0.0450851 -3.7553e-09)
(1.06119 0.0484736 -2.4708e-09)
(1.03666 0.0431752 -1.33188e-09)
(1.01819 0.0300847 -6.88489e-10)
(1.00943 0.0109048 -6.47214e-10)
(1.01292 -0.0113146 -1.05272e-09)
(1.02875 -0.031988 -1.63321e-09)
(1.05376 -0.0460318 -2.16985e-09)
(1.0822 -0.0497625 -2.57177e-09)
(1.10748 -0.0424165 -2.85102e-09)
(1.12418 -0.0263701 -3.05431e-09)
(1.12932 -0.00606181 -3.19773e-09)
(1.1228 0.013665 -3.23438e-09)
(1.10698 0.0289775 -3.07693e-09)
(1.08569 0.0377158 -2.66679e-09)
(1.06311 0.0392122 -2.04426e-09)
(1.04315 0.0337077 -1.35788e-09)
(1.0293 0.0220093 -7.92338e-10)
(1.02443 0.00571194 -4.6816e-10)
(1.03012 -0.0123491 -3.93325e-10)
(1.04563 -0.0282125 -4.9274e-10)
(1.06764 -0.0378846 -6.72855e-10)
(1.091 -0.0388654 -8.67856e-10)
(1.11036 -0.0311428 -1.04974e-09)
(1.12166 -0.0171066 -1.21368e-09)
(1.12304 -0.000534261 -1.35528e-09)
(1.11501 0.0147372 -1.45416e-09)
(1.09993 0.0258614 -1.47409e-09)
(1.08115 0.0313916 -1.38144e-09)
(1.0622 0.0310456 -1.17072e-09)
(1.04633 0.0252199 -8.77549e-10)
(1.03636 0.0147634 -5.65798e-10)
(1.03444 0.00119281 -2.96965e-10)
(1.04136 -0.0130168 -1.05381e-10)
(1.05596 -0.0246761 5.74003e-12)
(1.075 -0.0308296 5.21914e-11)
(1.09406 -0.0298955 5.38813e-11)
(1.10884 -0.0222962 2.59018e-11)
(1.11631 -0.0102416 -2.29669e-11)
(1.11536 0.00314329 -8.64335e-11)
(1.10681 0.0148576 -1.55375e-10)
(1.0929 0.0227958 -2.15623e-10)
(1.07654 0.0259926 -2.5106e-10)
(1.06074 0.0243896 -2.50013e-10)
(1.04821 0.0184598 -2.10397e-10)
(1.04126 0.00906454 -1.39976e-10)
(1.04148 -0.00236636 -5.20539e-11)
(1.04917 -0.0136777 3.98027e-11)
(1.063 -0.0222834 1.25092e-10)
(1.07981 -0.0259738 1.9735e-10)
(1.09599 -0.0237771 2.53638e-10)
(1.10758 -0.0163526 2.93349e-10)
(1.11292 -0.00579072 3.16919e-10)
(1.11023 0.00533847 3.25002e-10)
(1.10239 0.014285 3.18468e-10)
(1.08844 0.0201069 2.98682e-10)
(1.0759 0.0203701 2.67355e-10)
(1.06045 0.0198921 2.32045e-10)
(1.05265 0.00551792 1.71324e-10)
(1.0001 -0.00218582 3.93786e-18)
(1.00134 -0.00650568 1.30003e-17)
(1.00419 -0.0112004 1.19672e-17)
(1.00871 -0.0165699 9.97353e-18)
(1.01544 -0.0228164 5.14154e-17)
(1.02494 -0.0298292 -9.36233e-17)
(1.03783 -0.0371897 1.04578e-16)
(1.05437 -0.0437438 8.81275e-16)
(1.07423 -0.0481942 -2.11649e-15)
(1.09619 -0.0486367 -4.99996e-15)
(1.11715 -0.0440179 4.13439e-15)
(1.13469 -0.0359179 2.62963e-14)
(1.14814 -0.0251074 4.33269e-14)
(1.15686 -0.0120804 3.66301e-14)
(1.16012 0.00328663 1.75701e-14)
(1.15604 0.0208381 3.86248e-15)
(1.14287 0.0381181 -2.23711e-15)
(1.12131 0.0515173 -4.172e-15)
(1.09431 0.0582569 -4.57033e-15)
(1.06575 0.0570185 8.56019e-16)
(1.03957 0.0476819 -1.94862e-14)
(1.01946 0.0310028 -4.09689e-14)
(1.00883 0.008537 4.89759e-13)
(1.01079 -0.0168973 -6.67031e-14)
(1.02719 -0.0401549 -9.30002e-12)
(1.05609 -0.0539476 -2.63298e-11)
(1.08982 -0.0520278 -3.3752e-11)
(1.11711 -0.0337558 -2.22836e-11)
(1.12887 -0.00542779 -7.24898e-12)
(1.12266 0.0236036 -5.42055e-13)
(1.1022 0.0460734 7.7145e-13)
(1.07366 0.0589715 7.66063e-13)
(1.04245 0.0622899 -1.68639e-12)
(1.01239 0.0569194 -4.17378e-12)
(0.986508 0.0433217 2.61299e-11)
(0.968019 0.0214014 7.5069e-11)
(0.960838 -0.00834087 -2.63739e-10)
(0.969053 -0.0425083 -1.89751e-09)
(0.995471 -0.073063 -5.0891e-09)
(1.03867 -0.0889476 -8.20865e-09)
(1.0895 -0.081743 -8.8617e-09)
(1.13215 -0.0520217 -6.54327e-09)
(1.15219 -0.0102073 -3.19961e-09)
(1.14531 0.0298293 -8.60253e-10)
(1.11797 0.0582654 5.71004e-11)
(1.0809 0.0722379 1.65216e-10)
(1.04283 0.0736512 1.1644e-10)
(1.00839 0.0655011 1.35691e-10)
(0.979399 0.0495287 -1.6902e-10)
(0.957372 0.0258249 -1.7748e-09)
(0.946118 -0.00577376 -5.45181e-09)
(0.951889 -0.0426378 -1.0621e-08)
(0.978768 -0.0767769 -1.56213e-08)
(1.0232 -0.0965583 -1.925e-08)
(1.07401 -0.0928719 -2.11301e-08)
(1.11747 -0.0648857 -2.06952e-08)
(1.14255 -0.0210534 -1.72158e-08)
(1.14399 0.0248734 -1.13386e-08)
(1.12349 0.0602077 -5.3411e-09)
(1.0886 0.0785701 -1.22931e-09)
(1.04884 0.0806404 5.50625e-10)
(1.01152 0.0707347 5.51996e-10)
(0.980731 0.052376 -7.81696e-10)
(0.959793 0.0263355 -3.29088e-09)
(0.953498 -0.00726832 -6.48703e-09)
(0.966398 -0.0447259 -9.39996e-09)
(0.998334 -0.0771578 -1.12847e-08)
(1.04254 -0.0940221 -1.21914e-08)
(1.08804 -0.0888047 -1.27036e-08)
(1.12369 -0.062422 -1.31671e-08)
(1.14179 -0.0225576 -1.31134e-08)
(1.13976 0.0198154 -1.16104e-08)
(1.12005 0.0543991 -8.42295e-09)
(1.08852 0.074733 -4.53181e-09)
(1.05211 0.0793739 -1.40917e-09)
(1.0171 0.0705126 -4.44812e-11)
(0.988633 0.0510726 -5.8077e-10)