/*--------------------------------*- C++ -*----------------------------------*\
  =========                 |
  \\      /  F ield         | OpenFOAM: The Open Source CFD Toolbox
   \\    /   O peration     | Website:  https://openfoam.org
    \\  /    A nd           | Version:  11
     \\/     M anipulation  |
\*---------------------------------------------------------------------------*/
FoamFile
{
    format      ascii;
    class       volVectorField;
    location    "9.344919";
    object      U;
}
// * * * * * * * * * * * * * * * * * * * * * * * * * * * * * * * * * * * * * //

dimensions      [0 1 -1 0 0 0 0];

internalField   nonuniform List<vector> 
7132
(
(1.00013 -0.000271642 1.97317e-18)
(1.00211 -0.000824443 7.60988e-18)
(1.0066 -0.00141312 7.96071e-18)
(1.01346 -0.00204396 9.64983e-18)
(1.02293 -0.00271352 1.21699e-17)
(1.03515 -0.00339431 1.23978e-17)
(1.0501 -0.00403901 1.18216e-17)
(1.06751 -0.00456155 1.11478e-17)
(1.08669 -0.00486942 1.05792e-17)
(1.1066 -0.00486578 1.01831e-17)
(1.12577 -0.00449281 9.80439e-18)
(1.14273 -0.00381302 9.79417e-18)
(1.1564 -0.00289118 9.37027e-18)
(1.16596 -0.00180606 9.86713e-18)
(1.17091 -0.000657738 1.79339e-18)
(1.17123 0.000432438 -6.74662e-18)
(1.16741 0.00131449 -1.53535e-17)
(1.16062 0.00183887 -1.40885e-17)
(1.15256 0.00190949 -1.81604e-17)
(1.14521 0.00152608 -2.13339e-17)
(1.14027 0.000804317 -1.97922e-17)
(1.13877 -3.56629e-05 -1.95839e-17)
(1.14067 -0.000707337 -2.19709e-17)
(1.14467 -0.00092058 -2.70652e-17)
(1.14836 -0.000481173 -3.0032e-17)
(1.14886 0.000600698 -3.43709e-17)
(1.14383 0.00208311 -3.71693e-17)
(1.13233 0.00359482 -3.88472e-17)
(1.11504 0.00478848 -3.92502e-17)
(1.09384 0.00543348 -3.9895e-17)
(1.07128 0.0054244 -4.54186e-17)
(1.05009 0.00474383 -4.72983e-17)
(1.03295 0.00342282 -1.51881e-17)
(1.02233 0.00152646 -8.88631e-17)
(1.02039 -0.000827153 -7.2537e-16)
(1.02871 -0.00341186 -7.25219e-16)
(1.04767 -0.00581968 6.71883e-15)
(1.07555 -0.00745198 2.6348e-14)
(1.10785 -0.00768463 4.45193e-14)
(1.13775 -0.00619763 4.35943e-14)
(1.15815 -0.00325946 2.76582e-14)
(1.16436 0.000327175 1.19642e-14)
(1.15574 0.00362558 3.15725e-15)
(1.13523 0.00598563 2.3912e-16)
(1.1075 0.00718269 4.36912e-16)
(1.07732 0.00728597 -1.71792e-15)
(1.04873 0.00645901 -9.65894e-15)
(1.02514 0.0048253 4.54462e-15)
(1.00959 0.00242759 1.02044e-13)
(1.00514 -0.000734025 1.8286e-13)
(1.01494 -0.00459246 -5.09479e-13)
(1.0416 -0.00883567 -3.53329e-12)
(1.08583 -0.0127562 -9.91356e-12)
(1.14447 -0.015275 -1.82835e-11)
(1.20932 -0.0152595 -2.47789e-11)
(1.26795 -0.0120993 -2.53826e-11)
(1.30728 -0.00625613 -1.97527e-11)
(1.31869 0.000698658 -1.21711e-11)
(1.30175 0.00677954 -6.05649e-12)
(1.26388 0.0105837 -2.08265e-12)
(1.21613 0.0118105 -1.14071e-13)
(1.16847 0.0110147 4.4526e-13)
(1.12734 0.00902601 3.46915e-13)
(1.09583 0.00652319 1.31963e-13)
(1.07489 0.00391249 9.64655e-15)
(1.06437 0.00140599 -2.12097e-14)
(1.06357 -0.00084457 -1.55231e-14)
(1.07116 -0.00265591 -7.83799e-15)
(1.08499 -0.00380787 -8.06815e-15)
(1.10194 -0.00411396 -1.6025e-14)
(1.11829 -0.0035236 -2.8098e-14)
(1.13051 -0.0021893 -3.76996e-14)
(1.13611 -0.000444627 -3.90559e-14)
(1.13423 0.00130752 -3.2282e-14)
(1.12566 0.00273222 -2.23086e-14)
(1.11227 0.00364952 -1.33243e-14)
(1.09629 0.00403792 -7.07689e-15)
(1.07978 0.00398273 -3.49544e-15)
(1.06426 0.00361306 -1.77998e-15)
(1.05074 0.0030559 -1.13344e-15)
(1.03971 0.00241407 -1.05068e-15)
(1.03135 0.00176193 -1.30518e-15)
(1.02557 0.00114986 -1.83109e-15)
(1.02213 0.000610919 -2.61389e-15)
(1.02068 0.000166546 -3.61533e-15)
(1.02081 -0.000169726 -4.75524e-15)
(1.02207 -0.000390987 -5.91218e-15)
(1.02398 -0.000497502 -6.94176e-15)
(1.02609 -0.000497928 -7.71258e-15)
(1.02801 -0.000409787 -8.14073e-15)
(1.02941 -0.000258158 -8.228e-15)
(1.0301 -7.24533e-05 -8.0623e-15)
(1.03001 0.000117936 -7.77911e-15)
(1.02917 0.00028793 -7.50455e-15)
(1.0277 0.000419783 -7.31398e-15)
(1.0258 0.00050425 -7.23079e-15)
(1.02365 0.000540035 -7.24064e-15)
(1.02146 0.000532094 -7.30779e-15)
(1.01938 0.000489438 -7.39718e-15)
(1.01752 0.000422985 -7.47494e-15)
(1.01598 0.000343779 -7.51289e-15)
(1.01476 0.000261716 -7.48573e-15)
(1.01388 0.000184794 -7.36634e-15)
(1.01328 0.000118779 -7.13354e-15)
(1.01293 6.72136e-05 -6.77033e-15)
(1.01275 3.16152e-05 -6.27384e-15)
(1.01268 1.18023e-05 -5.65848e-15)
(1.01266 6.26285e-06 -4.9527e-15)
(1.01264 1.25356e-05 -4.19972e-15)
(1.01256 2.75841e-05 -3.4432e-15)
(1.01242 4.81553e-05 -2.7233e-15)
(1.01218 7.11031e-05 -2.069e-15)
(1.01185 9.3658e-05 -1.49146e-15)
(1.01143 0.000113621 -9.88756e-16)
(1.01094 0.000129471 -5.4155e-16)
(1.0104 0.00014039 -1.22481e-16)
(1.00982 0.000146211 2.99094e-16)
(1.00922 0.000147303 7.54542e-16)
(1.00864 0.000144429 1.26727e-15)
(1.00807 0.000138589 1.85714e-15)
(1.00752 0.00013087 2.53629e-15)
(1.00702 0.00012232 3.3077e-15)
(1.00654 0.000113852 4.17005e-15)
(1.0061 0.000106184 5.11565e-15)
(1.00569 9.98102e-05 6.13416e-15)
(1.00531 9.50009e-05 7.21167e-15)
(1.00493 9.18253e-05 8.32996e-15)
(1.00457 9.01867e-05 9.47191e-15)
(1.00421 8.98666e-05 1.06203e-14)
(1.00385 9.05694e-05 1.17628e-14)
(1.00349 9.19663e-05 1.28923e-14)
(1.00312 9.37308e-05 1.40066e-14)
(1.00274 9.5569e-05 1.51125e-14)
(1.00235 9.72386e-05 1.62221e-14)
(1.00196 9.8561e-05 1.73524e-14)
(1.00156 9.94246e-05 1.85199e-14)
(1.00116 9.97803e-05 1.97353e-14)
(1.00076 9.96325e-05 2.10037e-14)
(1.00036 9.90265e-05 2.23202e-14)
(0.999967 9.80326e-05 2.36731e-14)
(0.999576 9.6732e-05 2.50435e-14)
(0.999191 9.5203e-05 2.64074e-14)
(0.998813 9.35099e-05 2.77437e-14)
(0.998441 9.16968e-05 2.9035e-14)
(0.998077 8.9781e-05 3.02755e-14)
(0.997721 8.77592e-05 3.14724e-14)
(0.997373 8.55978e-05 3.26488e-14)
(0.997034 8.32632e-05 3.38522e-14)
(0.996704 8.06723e-05 3.51553e-14)
(0.996386 7.77983e-05 3.66633e-14)
(0.996079 7.44428e-05 3.85133e-14)
(0.995787 7.06601e-05 4.08731e-14)
(0.995509 6.58174e-05 4.3941e-14)
(0.995257 6.04069e-05 4.79373e-14)
(0.99502 5.2277e-05 5.3088e-14)
(0.994836 4.41489e-05 5.96533e-14)
(0.994656 2.88172e-05 6.76861e-14)
(0.994608 1.76076e-05 7.80701e-14)
(0.994488 -9.36725e-06 8.76672e-14)
(0.994709 -3.32621e-05 1.10689e-13)
(1.00013 -0.000812404 2.25205e-20)
(1.00209 -0.00246702 3.62477e-19)
(1.00655 -0.00423071 7.27316e-19)
(1.01337 -0.00612486 1.09358e-18)
(1.02282 -0.00814028 1.50591e-18)
(1.03506 -0.0101957 1.93621e-18)
(1.0501 -0.0121497 2.33279e-18)
(1.06768 -0.0137401 2.5101e-18)
(1.08713 -0.0146853 5.07598e-18)
(1.10739 -0.0146838 5.91397e-18)
(1.12691 -0.0135562 4.56811e-18)
(1.14415 -0.0115015 8.50525e-18)
(1.15804 -0.00871635 6.39677e-18)
(1.16772 -0.00543768 7.02102e-18)
(1.17268 -0.00196624 1.10558e-17)
(1.17286 0.00133223 1.64678e-17)
(1.16876 0.00400273 2.21724e-17)
(1.16155 0.00558898 2.74275e-17)
(1.15303 0.00579552 2.9201e-17)
(1.14526 0.00461754 2.23152e-17)
(1.14007 0.00240279 1.14023e-18)
(1.13858 -0.000180562 -3.69885e-17)
(1.14078 -0.00225815 -8.76521e-17)
(1.14533 -0.00293926 -1.34165e-16)
(1.14968 -0.00162143 -1.55572e-16)
(1.15073 0.0016712 -1.53925e-16)
(1.14595 0.00619731 -1.42028e-16)
(1.13435 0.010816 -1.27636e-16)
(1.11665 0.0144646 -1.15007e-16)
(1.09487 0.0164449 -1.10475e-16)
(1.07165 0.0164446 -1.27426e-16)
(1.04979 0.0144179 -8.69823e-17)
(1.03199 0.0104594 1.55274e-16)
(1.02079 0.00475585 -5.71363e-16)
(1.01843 -0.00235728 -5.12199e-15)
(1.02666 -0.0102183 3.53921e-15)
(1.04606 -0.0175972 9.44901e-14)
(1.07501 -0.0226545 3.01891e-13)
(1.10888 -0.0234476 4.79699e-13)
(1.14041 -0.0189644 4.44271e-13)
(1.16191 -0.0100188 2.50239e-13)
(1.16839 0.000917635 8.60867e-14)
(1.15927 0.0109654 1.2949e-14)
(1.13781 0.018137 -4.56853e-15)
(1.10902 0.0217658 -3.59225e-15)
(1.07784 0.0220884 -1.23013e-14)
(1.04836 0.0196211 -1.57991e-14)
(1.0239 0.0147449 1.02937e-13)
(1.00747 0.00757599 2.70455e-13)
(1.00219 -0.00192413 -6.73963e-13)
(1.01144 -0.0136103 -4.45947e-12)
(1.03819 -0.0265818 -7.55185e-12)
(1.08344 -0.038676 1.88524e-12)
(1.14415 -0.0465154 2.82786e-11)
(1.21193 -0.0465441 5.22865e-11)
(1.27361 -0.0368881 5.10585e-11)
(1.3149 -0.0190321 2.94172e-11)
(1.32641 0.0021804 7.41408e-12)
(1.30787 0.0206934 -3.99553e-12)
(1.26754 0.0322169 -5.1181e-12)
(1.21749 0.0358555 -2.24525e-12)
(1.1682 0.0333548 1.42593e-16)
(1.12616 0.0272804 6.2755e-13)
(1.09425 0.0196993 4.1497e-13)
(1.07317 0.0118217 1.17658e-13)
(1.06269 0.00425996 -1.95478e-14)
(1.06211 -0.0025501 -5.24945e-14)
(1.07018 -0.00805816 -9.15245e-14)
(1.08473 -0.0115839 -1.93173e-13)
(1.10255 -0.0125422 -3.25003e-13)
(1.11975 -0.0107654 -4.03023e-13)
(1.1326 -0.0067136 -3.79021e-13)
(1.13847 -0.0014059 -2.80378e-13)
(1.1365 0.00392504 -1.68609e-13)
(1.12757 0.00825461 -8.30865e-14)
(1.11369 0.011035 -3.28677e-14)
(1.09725 0.0122053 -9.92359e-15)
(1.08035 0.0120303 -2.41338e-15)
(1.06455 0.0109056 -1.44177e-15)
(1.05085 0.00921771 -2.32554e-15)
(1.03974 0.00727734 -3.39351e-15)
(1.03135 0.0053081 -4.45175e-15)
(1.02559 0.00346089 -5.71954e-15)
(1.0222 0.00183443 -7.34554e-15)
(1.02083 0.000492785 -9.26758e-15)
(1.02106 -0.000523337 -1.12456e-14)
(1.02242 -0.00119266 -1.2939e-14)
(1.02444 -0.00151533 -1.39836e-14)
(1.02666 -0.00151691 -1.41245e-14)
(1.02866 -0.00125004 -1.33275e-14)
(1.03012 -0.000790501 -1.18373e-14)
(1.03084 -0.000227424 -1.01352e-14)
(1.03075 0.000350018 -8.73778e-15)
(1.02989 0.000865656 -7.94998e-15)
(1.02838 0.0012656 -7.81216e-15)
(1.02643 0.00152179 -8.17297e-15)
(1.02423 0.00163036 -8.79719e-15)
(1.02199 0.0016064 -9.44908e-15)
(1.01988 0.00147729 -9.94897e-15)
(1.018 0.00127615 -1.0179e-14)
(1.01644 0.00103646 -1.00688e-14)
(1.01522 0.000788196 -9.57821e-15)
(1.01434 0.000555534 -8.67958e-15)
(1.01375 0.000355915 -7.36566e-15)
(1.01341 0.000200027 -5.65452e-15)
(1.01325 9.24475e-05 -3.60086e-15)
(1.01319 3.26174e-05 -1.30205e-15)
(1.01318 1.59613e-05 1.11454e-15)
(1.01317 3.50363e-05 3.50278e-15)
(1.01311 8.06592e-05 5.72635e-15)
(1.01297 0.000142988 7.68088e-15)
(1.01273 0.000212502 9.30764e-15)
(1.0124 0.000280819 1.06042e-14)
(1.01198 0.00034128 1.16129e-14)
(1.01148 0.000389283 1.24131e-14)
(1.01093 0.000422353 1.31039e-14)
(1.01034 0.000439981 1.37847e-14)
(1.00974 0.000443289 1.45474e-14)
(1.00915 0.000434593 1.54598e-14)
(1.00857 0.000416921 1.65673e-14)
(1.00803 0.000393567 1.78921e-14)
(1.00752 0.000367704 1.94316e-14)
(1.00705 0.000342097 2.11694e-14)
(1.00661 0.000318918 2.30746e-14)
(1.00619 0.000299662 2.51076e-14)
(1.00581 0.000285146 2.72262e-14)
(1.00543 0.000275578 2.93844e-14)
(1.00507 0.000270664 3.15432e-14)
(1.00471 0.00026974 3.36696e-14)
(1.00435 0.000271911 3.57416e-14)
(1.00399 0.000276181 3.7753e-14)
(1.00361 0.000281563 3.97099e-14)
(1.00323 0.000287167 4.1637e-14)
(1.00284 0.00029226 4.35686e-14)
(1.00245 0.000296303 4.55439e-14)
(1.00205 0.000298958 4.76007e-14)
(1.00164 0.000300079 4.97637e-14)
(1.00124 0.000299679 5.20433e-14)
(1.00084 0.000297897 5.44278e-14)
(1.00044 0.000294948 5.68844e-14)
(1.00005 0.000291078 5.93641e-14)
(0.999658 0.000286526 6.18045e-14)
(0.999276 0.000281489 6.41445e-14)
(0.9989 0.0002761 6.63291e-14)
(0.998532 0.000270414 6.83218e-14)
(0.998172 0.000264422 7.01168e-14)
(0.997819 0.000258024 7.17467e-14)
(0.997475 0.000251118 7.33009e-14)
(0.99714 0.000243455 7.49314e-14)
(0.996816 0.00023495 7.68643e-14)
(0.996503 0.000225019 7.94053e-14)
(0.996204 0.00021381 8.29333e-14)
(0.99592 0.000199476 8.78977e-14)
(0.995659 0.000183434 9.47959e-14)
(0.995415 0.000159408 1.04136e-13)
(0.99522 0.0001353 1.16488e-13)
(0.995031 9.00809e-05 1.32008e-13)
(0.994966 5.66852e-05 1.52482e-13)
(0.994839 -2.26022e-05 1.71611e-13)
(0.995026 -9.4249e-05 2.17997e-13)
(1.00013 -0.00134621 1.46452e-22)
(1.00205 -0.00409025 5.33101e-21)
(1.00645 -0.00702227 5.62834e-21)
(1.01319 -0.010184 4.5163e-21)
(1.02259 -0.013565 -1.20369e-19)
(1.03486 -0.0170344 1.33625e-19)
(1.05006 -0.020358 -6.5696e-19)
(1.06799 -0.0230865 -1.08721e-18)
(1.08799 -0.0247363 3.68935e-18)
(1.10896 -0.0247656 1.09934e-19)
(1.12919 -0.0228557 -1.85242e-17)
(1.14701 -0.0193774 -2.09532e-17)
(1.16133 -0.0146656 1.64653e-17)
(1.17125 -0.00911342 7.57977e-17)
(1.17623 -0.00321719 1.19303e-16)
(1.17615 0.00241176 1.34367e-16)
(1.17148 0.0069898 1.25966e-16)
(1.16345 0.00971595 8.3916e-17)
(1.154 0.0100629 -1.17127e-17)
(1.14542 0.00800716 -1.81823e-16)
(1.13976 0.00413719 -4.21344e-16)
(1.13832 -0.000402251 -7.11014e-16)
(1.14116 -0.00409809 -1.00604e-15)
(1.14686 -0.00538553 -1.11367e-15)
(1.15254 -0.00318552 -9.09412e-16)
(1.15466 0.00247554 -6.10002e-16)
(1.15029 0.0102926 -4.04324e-16)
(1.13836 0.018259 -2.94928e-16)
(1.11974 0.0245318 -2.45361e-16)
(1.0967 0.0279327 -2.52511e-16)
(1.07211 0.0279628 -2.47049e-16)
(1.04891 0.0245713 1.43163e-16)
(1.02989 0.0179238 -1.87854e-16)
(1.01765 0.0083101 -4.91792e-15)
(1.01463 -0.00375699 7.56314e-15)
(1.02286 -0.0172169 1.0618e-13)
(1.0433 -0.0299953 1.77339e-13)
(1.07456 -0.0388828 -7.76093e-14)
(1.11169 -0.0404092 -4.0397e-13)
(1.14648 -0.0327185 -3.5059e-13)
(1.17009 -0.017223 -1.3684e-13)
(1.17683 0.0016904 -2.67516e-14)
(1.16631 0.0189438 -5.19841e-16)
(1.14258 0.0311131 -1.43885e-15)
(1.11143 0.0371568 -1.45524e-14)
(1.07817 0.037605 -4.7201e-14)
(1.04694 0.03342 1.02637e-13)
(1.02091 0.025266 5.31649e-13)
(1.00299 0.0132873 -8.48638e-13)
(0.996425 -0.00269891 -7.51557e-12)
(1.00487 -0.022566 -7.04906e-12)
(1.03141 -0.0448137 5.28042e-11)
(1.07702 -0.0657391 2.32858e-10)
(1.13921 -0.0795734 5.10977e-10)
(1.21069 -0.0800661 7.44467e-10)
(1.27831 -0.0636088 7.71496e-10)
(1.3255 -0.0325905 5.7442e-10)
(1.33964 0.00432345 3.01158e-10)
(1.31925 0.0362823 9.79777e-11)
(1.27423 0.0557646 4.43855e-12)
(1.21925 0.0614411 -1.54943e-11)
(1.16646 0.0566465 -9.13442e-12)
(1.12262 0.0459892 -1.85113e-12)
(1.09008 0.0330186 8.06352e-13)
(1.06901 0.0196954 8.12398e-13)
(1.05889 0.00693978 2.96555e-13)
(1.05905 -0.0045871 -1.11447e-13)
(1.06831 -0.0139641 -6.84782e-13)
(1.0845 -0.0199965 -1.66945e-12)
(1.10421 -0.0216324 -2.67737e-12)
(1.12316 -0.0185498 -2.99573e-12)
(1.13719 -0.0115391 -2.42826e-12)
(1.14344 -0.00238252 -1.47633e-12)
(1.14106 0.00676722 -7.01321e-13)
(1.13119 0.0141379 -2.47509e-13)
(1.11618 0.0188083 -4.61155e-14)
(1.09868 0.0207096 1.3951e-14)
(1.08096 0.0203279 1.60002e-14)
(1.06463 0.0183581 3.98358e-15)
(1.05063 0.0154628 -5.99775e-15)
(1.03941 0.0121652 -1.15784e-14)
(1.03105 0.00883649 -1.47555e-14)
(1.02541 0.00572424 -1.75198e-14)
(1.02221 0.00298948 -2.06149e-14)
(1.02107 0.000736796 -2.3705e-14)
(1.02155 -0.000966623 -2.59004e-14)
(1.02317 -0.00208474 -2.61414e-14)
(1.02544 -0.00261694 -2.35935e-14)
(1.02786 -0.0026058 -1.80613e-14)
(1.03003 -0.00214041 -1.02566e-14)
(1.03159 -0.00134992 -1.76338e-15)
(1.03234 -0.000386484 5.36555e-15)
(1.03222 0.000597759 9.42005e-15)
(1.03128 0.0014733 9.93348e-15)
(1.02968 0.00214914 7.54722e-15)
(1.02761 0.00257873 3.46762e-15)
(1.02531 0.00275678 -1.03519e-15)
(1.02298 0.00271012 -4.94546e-15)
(1.0208 0.00248613 -7.61201e-15)
(1.01888 0.00214154 -8.70697e-15)
(1.0173 0.00173331 -8.11905e-15)
(1.01608 0.00131215 -5.85419e-15)
(1.01522 0.000918783 -1.98158e-15)
(1.01466 0.000582388 3.36958e-15)
(1.01435 0.000320691 9.98448e-15)
(1.01422 0.000141097 1.75385e-14)
(1.0142 4.23789e-05 2.55987e-14)
(1.01422 1.65785e-05 3.36627e-14)
(1.01423 5.09496e-05 4.12255e-14)
(1.01418 0.000129854 4.78584e-14)
(1.01405 0.000236581 5.3275e-14)
(1.01381 0.000355007 5.73689e-14)
(1.01347 0.000470966 6.02146e-14)
(1.01304 0.000573245 6.20355e-14)
(1.01253 0.000654137 6.31514e-14)
(1.01196 0.000709547 6.39193e-14)
(1.01136 0.000738716 6.46796e-14)
(1.01075 0.000743637 6.57164e-14)
(1.01014 0.000728306 6.72348e-14)
(1.00956 0.000697909 6.93532e-14)
(1.00901 0.000658053 7.21092e-14)
(1.0085 0.000614121 7.54715e-14)
(1.00802 0.000570784 7.93572e-14)
(1.00758 0.000531696 8.36492e-14)
(1.00717 0.000499354 8.82129e-14)
(1.00679 0.000475108 9.29112e-14)
(1.00641 0.000459272 9.76171e-14)
(1.00605 0.000451317 1.02225e-13)
(1.00569 0.000450096 1.06662e-13)
(1.00533 0.000454077 1.10889e-13)
(1.00496 0.000461564 1.14911e-13)
(1.00458 0.000470883 1.18775e-13)
(1.0042 0.000480529 1.22559e-13)
(1.0038 0.000489271 1.26368e-13)
(1.0034 0.000496207 1.30311e-13)
(1.003 0.000500777 1.34487e-13)
(1.00259 0.000502745 1.38962e-13)
(1.00218 0.000502149 1.43755e-13)
(1.00177 0.000499233 1.4883e-13)
(1.00136 0.00049437 1.54092e-13)
(1.00096 0.000487984 1.59397e-13)
(1.00057 0.000480484 1.6457e-13)
(1.00018 0.000472206 1.69421e-13)
(0.999797 0.000463379 1.73779e-13)
(0.999421 0.000454096 1.77515e-13)
(0.999053 0.000444343 1.80576e-13)
(0.998691 0.000433951 1.83021e-13)
(0.998338 0.000422741 1.85051e-13)
(0.997993 0.000410302 1.87042e-13)
(0.997657 0.000396472 1.89567e-13)
(0.997333 0.000380301 1.9341e-13)
(0.997022 0.000361993 1.9955e-13)
(0.996724 0.000338595 2.09137e-13)
(0.996448 0.000312314 2.23441e-13)
(0.996189 0.000273143 2.43751e-13)
(0.995974 0.000233593 2.71474e-13)
(0.995771 0.000160118 3.07051e-13)
(0.995674 0.000105102 3.54659e-13)
(0.995536 -2.31693e-05 3.99525e-13)
(0.995662 -0.00014158 5.08826e-13)
(1.00013 -0.00186816 -3.35455e-20)
(1.00199 -0.00567944 -4.88107e-19)
(1.00628 -0.00976793 -8.36933e-19)
(1.01289 -0.0142028 -1.62184e-18)
(1.02221 -0.0189816 -1.86223e-18)
(1.0345 -0.0239303 -2.22202e-18)
(1.04993 -0.0287263 -9.04265e-18)
(1.06838 -0.0327141 1.07681e-17)
(1.08922 -0.0351871 3.21616e-18)
(1.1113 -0.0352968 -8.30955e-17)
(1.13262 -0.0325544 -4.95858e-17)
(1.15132 -0.02757 2.49717e-16)
(1.16629 -0.0208297 5.70555e-16)
(1.1766 -0.0128819 6.20972e-16)
(1.18163 -0.00441417 3.62265e-16)
(1.18117 0.00371459 -5.4104e-17)
(1.17563 0.0103616 -5.73662e-16)
(1.16632 0.014328 -1.22567e-15)
(1.15541 0.0148057 -2.04872e-15)
(1.14554 0.0117287 -2.98945e-15)
(1.13913 0.0059365 -3.73237e-15)
(1.13775 -0.000901896 -4.01011e-15)
(1.1416 -0.00655011 -3.58586e-15)
(1.14911 -0.00864862 -1.81027e-15)
(1.15691 -0.00552746 8.96286e-16)
(1.16071 0.002805 2.72548e-15)
(1.157 0.0143655 3.02844e-15)
(1.14451 0.0261096 2.46196e-15)
(1.12441 0.0352989 1.64563e-15)
(1.0994 0.0402553 9.06924e-16)
(1.07271 0.0403333 1.39635e-15)
(1.04749 0.0355259 2.00844e-15)
(1.02662 0.0260892 -1.22679e-14)
(1.01282 0.0123909 -1.29481e-15)
(1.00874 -0.00494795 2.85841e-13)
(1.01689 -0.024541 3.60944e-13)
(1.0389 -0.0434473 -3.21639e-12)
(1.07381 -0.0568714 -1.30815e-11)
(1.11617 -0.0594426 -2.25903e-11)
(1.15614 -0.0481752 -2.19141e-11)
(1.18299 -0.0251586 -1.28574e-11)
(1.19 0.00285655 -4.62187e-12)
(1.17713 0.0281166 -7.50752e-13)
(1.14972 0.0455797 2.37492e-13)
(1.11481 0.0539616 1.43148e-13)
(1.07835 0.0543246 4.45134e-14)
(1.04449 0.0482484 8.05921e-13)
(1.01617 0.0367187 3.77706e-13)
(0.996191 0.019822 -9.30553e-12)
(0.98781 -0.00284686 -1.90208e-11)
(0.994285 -0.0310707 5.6192e-11)
(1.01792 -0.0626218 3.66774e-10)
(1.06007 -0.092578 9.69252e-10)
(1.12036 -0.113406 1.70923e-09)
(1.19384 -0.116186 2.30084e-09)
(1.26845 -0.0943699 2.46006e-09)
(1.3261 -0.0496846 2.05504e-09)
(1.34914 0.00537857 1.28716e-09)
(1.33139 0.0534399 5.60266e-10)
(1.28272 0.0821929 1.23221e-10)
(1.22147 0.0896922 -3.33899e-11)
(1.16342 0.0816378 -4.38469e-11)
(1.11669 0.0654612 -1.86457e-11)
(1.08321 0.0465059 -1.98124e-12)
(1.06226 0.027418 2.60265e-12)
(1.05284 0.00924388 1.92356e-12)
(1.05421 -0.00725294 9.56612e-14)
(1.0654 -0.0207838 -2.38883e-12)
(1.08425 -0.0295415 -5.56917e-12)
(1.10701 -0.0318803 -8.12352e-12)
(1.12872 -0.0272578 -8.31936e-12)
(1.14455 -0.0168438 -6.03018e-12)
(1.15126 -0.00332643 -3.05625e-12)
(1.14811 0.0100611 -1.09066e-12)
(1.13666 0.0206993 -1.77588e-13)
(1.11979 0.0272872 1.10729e-13)
(1.10062 0.0298098 1.26513e-13)
(1.08163 0.0290527 6.57391e-14)
(1.06449 0.0260687 9.81017e-15)
(1.05007 0.0218261 -2.21745e-14)
(1.03872 0.0170678 -3.60231e-14)
(1.03045 0.0123074 -4.1789e-14)
(1.02503 0.00788172 -4.55399e-14)
(1.02214 0.00400721 -4.82254e-14)
(1.02137 0.000824678 -4.75575e-14)
(1.02225 -0.00157386 -4.03286e-14)
(1.02428 -0.00313731 -2.37947e-14)
(1.02693 -0.00386347 2.84266e-15)
(1.02969 -0.0038122 3.73695e-14)
(1.03209 -0.00311159 7.45122e-14)
(1.0338 -0.00194874 1.07077e-13)
(1.0346 -0.000544689 1.28021e-13)
(1.03443 0.000880017 1.33212e-13)
(1.03336 0.00213876 1.23778e-13)
(1.03159 0.0031021 1.0448e-13)
(1.02935 0.00370583 8.11497e-14)
(1.02688 0.0039456 5.88423e-14)
(1.02441 0.00386299 4.09906e-14)
(1.02212 0.00352833 2.93734e-14)
(1.02015 0.00302445 2.45404e-14)
(1.01854 0.00243354 2.63265e-14)
(1.01734 0.00182815 3.42334e-14)
(1.01651 0.00126601 4.76121e-14)
(1.016 0.000788054 6.56589e-14)
(1.01575 0.000418737 8.73406e-14)
(1.01567 0.000167814 1.11336e-13)
(1.0157 3.28195e-05 1.36072e-13)
(1.01577 1.82234e-06 1.59873e-13)
(1.01581 5.61944e-05 1.81176e-13)
(1.01578 0.0001733 1.98764e-13)
(1.01565 0.000329084 2.11949e-13)
(1.01541 0.000500435 2.20637e-13)
(1.01506 0.000667145 2.25294e-13)
(1.01461 0.000813311 2.26794e-13)
(1.01407 0.000928111 2.26248e-13)
(1.01348 0.00100594 2.24811e-13)
(1.01286 0.00104595 2.2352e-13)
(1.01223 0.00105125 2.23201e-13)
(1.01161 0.00102774 2.24407e-13)
(1.01102 0.000982986 2.27419e-13)
(1.01046 0.0009251 2.32274e-13)
(1.00994 0.000861807 2.38811e-13)
(1.00946 0.000799771 2.46732e-13)
(1.00902 0.000744159 2.55654e-13)
(1.00862 0.000698466 2.65167e-13)
(1.00823 0.000664531 2.74875e-13)
(1.00786 0.000642717 2.84436e-13)
(1.0075 0.000632189 2.93589e-13)
(1.00714 0.000631244 3.02177e-13)
(1.00677 0.000637648 3.1015e-13)
(1.0064 0.000648948 3.17574e-13)
(1.00602 0.000662742 3.24609e-13)
(1.00562 0.000676885 3.31502e-13)
(1.00522 0.000689634 3.38539e-13)
(1.00481 0.000699723 3.4601e-13)
(1.0044 0.000706382 3.54163e-13)
(1.00398 0.000709305 3.63155e-13)
(1.00356 0.000708574 3.73022e-13)
(1.00314 0.000704565 3.83651e-13)
(1.00273 0.000697832 3.94782e-13)
(1.00232 0.000688998 4.0603e-13)
(1.00191 0.000678658 4.16915e-13)
(1.00151 0.000667297 4.26925e-13)
(1.00112 0.000655247 4.3558e-13)
(1.00073 0.000642641 4.42509e-13)
(1.00035 0.000629455 4.47535e-13)
(0.999977 0.000615452 4.50758e-13)
(0.99961 0.000600364 4.52651e-13)
(0.99925 0.000583613 4.54125e-13)
(0.998899 0.000564936 4.56588e-13)
(0.998557 0.000543045 4.61964e-13)
(0.998228 0.000518138 4.72654e-13)
(0.997911 0.000486313 4.91459e-13)
(0.997613 0.000450354 5.21439e-13)
(0.997333 0.000397128 5.6568e-13)
(0.99709 0.000342879 6.27465e-13)
(0.996864 0.000243498 7.07863e-13)
(0.996723 0.000167737 8.16265e-13)
(0.99657 -4.96754e-06 9.19051e-13)
(0.99661 -0.000167942 1.16904e-12)
(1.00012 -0.0023721 -2.37017e-18)
(1.00191 -0.00721728 -7.68734e-18)
(1.00603 -0.0124426 -6.28822e-18)
(1.01246 -0.0181557 -9.52673e-18)
(1.02164 -0.0243747 -2.34366e-18)
(1.03393 -0.0308949 -2.62289e-17)
(1.04963 -0.0373122 1.52053e-17)
(1.06877 -0.0427396 5.82625e-17)
(1.09075 -0.0462181 -3.03957e-16)
(1.1144 -0.046482 -5.34129e-17)
(1.13723 -0.0428259 1.31353e-15)
(1.15712 -0.0362133 1.71783e-15)
(1.17298 -0.0272961 -6.21589e-16)
(1.18382 -0.0167679 -4.71183e-15)
(1.18893 -0.00548646 -8.02566e-15)
(1.18797 0.00544269 -1.00319e-14)
(1.18124 0.0144539 -1.14974e-14)
(1.17013 0.0198509 -1.25459e-14)
(1.15718 0.0204634 -1.27954e-14)
(1.14548 0.0161516 -1.11547e-14)
(1.13797 0.00802711 -5.6516e-15)
(1.13664 -0.0016497 6.15611e-15)
(1.1419 -0.00979501 2.66979e-14)
(1.152 -0.0130612 4.97423e-14)
(1.16287 -0.00899526 5.93974e-14)
(1.16912 0.00244913 5.32796e-14)
(1.16632 0.0184249 4.16266e-14)
(1.15302 0.0345756 2.98086e-14)
(1.13081 0.0470933 1.97505e-14)
(1.10305 0.0537804 1.33309e-14)
(1.07346 0.0539166 1.48192e-14)
(1.04547 0.0476164 6.61217e-16)
(1.02209 0.0352596 -5.33122e-14)
(1.0061 0.0172543 2.36737e-13)
(1.00044 -0.00578114 1.11096e-12)
(1.0083 -0.0322828 -2.2714e-12)
(1.03251 -0.0584517 -2.00112e-11)
(1.07299 -0.0775343 -5.18619e-11)
(1.1233 -0.0816048 -8.0398e-11)
(1.17077 -0.0661369 -8.3392e-11)
(1.20183 -0.0341052 -5.7167e-11)
(1.20866 0.00468463 -2.55989e-11)
(1.19206 0.0391171 -6.49918e-12)
(1.15927 0.0622712 4.32786e-13)
(1.1191 0.0728263 1.11369e-12)
(1.07831 0.0727525 1.09868e-12)
(1.04098 0.0645034 2.23286e-12)
(1.00975 0.0494154 -5.41248e-12)
(0.987206 0.0274744 -2.9421e-11)
(0.975894 -0.00172344 8.38719e-12)
(0.977502 -0.0375873 3.23746e-10)
(0.994316 -0.0776719 1.07169e-09)
(1.03094 -0.116956 2.08877e-09)
(1.09012 -0.146508 3.03211e-09)
(1.16653 -0.154186 3.70796e-09)
(1.24668 -0.129758 4.02778e-09)
(1.31289 -0.0728524 3.77097e-09)
(1.34669 0.00178442 2.81284e-09)
(1.33672 0.0695255 1.53477e-09)
(1.2888 0.110675 5.19831e-10)
(1.22282 0.121022 1.76383e-11)
(1.15901 0.108996 -1.00321e-10)
(1.1085 0.0860839 -6.51401e-11)
(1.07363 0.060233 -1.79327e-11)
(1.05283 0.0348838 3.11847e-12)
(1.04436 0.0109705 5.59827e-12)
(1.04744 -0.0108623 2.38742e-12)
(1.06131 -0.0289834 1.66836e-12)
(1.08387 -0.0408068 7.4291e-12)
(1.11088 -0.0438725 1.69597e-11)
(1.13646 -0.0373186 2.29726e-11)
(1.15481 -0.0227998 2.19101e-11)
(1.16214 -0.0041495 1.59106e-11)
(1.15783 0.0140844 8.72746e-12)
(1.14406 0.0283026 3.57445e-12)
(1.12454 0.0368246 1.00103e-12)
(1.10301 0.039786 8.50555e-14)
(1.08228 0.0383911 -1.21882e-13)
(1.06405 0.0341379 -1.26823e-13)
(1.0491 0.0283426 -1.06084e-13)
(1.03763 0.0219746 -9.59822e-14)
(1.02951 0.0156815 -9.5216e-14)
(1.02442 0.00987611 -9.55188e-14)
(1.02198 0.00481984 -8.57611e-14)
(1.02172 0.000682835 -5.35818e-14)
(1.02315 -0.00242055 1.11772e-14)
(1.02574 -0.00442337 1.13266e-13)
(1.02891 -0.00532023 2.47299e-13)
(1.03212 -0.00518841 3.9616e-13)
(1.03486 -0.00419842 5.34281e-13)
(1.03677 -0.00260225 6.34899e-13)
(1.03762 -0.000698469 6.78285e-13)
(1.03736 0.00121582 6.59149e-13)
(1.03612 0.00289135 5.90412e-13)
(1.03412 0.00415828 4.94477e-13)
(1.03162 0.00493619 3.93653e-13)
(1.02892 0.00522533 3.0462e-13)
(1.02626 0.00508659 2.36934e-13)
(1.02384 0.00461768 1.94161e-13)
(1.02178 0.00393111 1.76023e-13)
(1.02015 0.00313692 1.80352e-13)
(1.01896 0.00233098 2.04324e-13)
(1.01818 0.00158864 2.44926e-13)
(1.01774 0.000962517 2.98873e-13)
(1.01757 0.000483319 3.62349e-13)
(1.01757 0.000162397 4.30859e-13)
(1.01767 -4.80245e-06 4.99407e-13)
(1.0178 -3.50522e-05 5.63047e-13)
(1.01788 4.62952e-05 6.17406e-13)
(1.01787 0.000208825 6.59327e-13)
(1.01776 0.000420451 6.8738e-13)
(1.01751 0.000650531 7.01918e-13)
(1.01714 0.000872438 7.04831e-13)
(1.01666 0.0010654 6.9906e-13)
(1.0161 0.00121548 6.88028e-13)
(1.01548 0.00131571 6.75102e-13)
(1.01483 0.00136546 6.63178e-13)
(1.01417 0.00136924 6.54439e-13)
(1.01353 0.00133525 6.5025e-13)
(1.01292 0.00127375 6.51201e-13)
(1.01235 0.00119561 6.57209e-13)
(1.01183 0.00111109 6.6768e-13)
(1.01135 0.00102898 6.81682e-13)
(1.01091 0.000955986 6.98104e-13)
(1.0105 0.000896595 7.15807e-13)
(1.01012 0.00085307 7.33746e-13)
(1.00975 0.000825731 7.51066e-13)
(1.00939 0.000813332 7.67167e-13)
(1.00903 0.000813509 7.81738e-13)
(1.00866 0.000823228 7.94769e-13)
(1.00828 0.000839201 8.06524e-13)
(1.00789 0.00085824 8.17498e-13)
(1.00749 0.000877522 8.28353e-13)
(1.00708 0.000894773 8.39824e-13)
(1.00665 0.000908368 8.52619e-13)
(1.00623 0.000917343 8.67316e-13)
(1.0058 0.000921349 8.84261e-13)
(1.00537 0.00092055 9.03494e-13)
(1.00493 0.000915487 9.247e-13)
(1.00451 0.00090693 9.47211e-13)
(1.00408 0.000895728 9.7005e-13)
(1.00367 0.000882684 9.92019e-13)
(1.00325 0.00086845 1.01184e-12)
(1.00285 0.000853464 1.0283e-12)
(1.00244 0.000837907 1.04046e-12)
(1.00205 0.000821739 1.04785e-12)
(1.00166 0.000804649 1.05065e-12)
(1.00127 0.000786265 1.04996e-12)
(1.00089 0.000765839 1.04787e-12)
(1.00052 0.000742973 1.04768e-12)
(1.00016 0.000716077 1.05382e-12)
(0.999803 0.000685255 1.07181e-12)
(0.999461 0.000645871 1.10804e-12)
(0.999135 0.000600982 1.1694e-12)
(0.998827 0.000535154 1.26273e-12)
(0.998548 0.000467142 1.39515e-12)
(0.998294 0.000345022 1.56896e-12)
(0.998095 0.000249522 1.8039e-12)
(0.997923 3.86467e-05 2.02767e-12)
(0.997852 -0.00016614 2.5681e-12)
(1.00012 -0.00285098 2.33091e-18)
(1.0018 -0.00868316 8.56918e-18)
(1.0057 -0.0150152 6.06076e-18)
(1.01186 -0.022008 1.13249e-17)
(1.02081 -0.0297176 1.83683e-17)
(1.03303 -0.0379281 -7.10854e-17)
(1.04905 -0.0461666 3.66354e-16)
(1.06901 -0.0532846 -7.23224e-16)
(1.09249 -0.0580332 -4.98658e-16)
(1.11822 -0.0585543 4.45914e-15)
(1.14305 -0.0538605 3.07405e-15)
(1.16446 -0.0454534 -1.31479e-14)
(1.18147 -0.0341757 -3.50596e-14)
(1.19302 -0.0208566 -4.76587e-14)
(1.1983 -0.00649903 -4.5317e-14)
(1.19674 0.00756202 -3.51189e-14)
(1.18845 0.0192835 -2.2234e-14)
(1.17495 0.0263519 -5.76109e-15)
(1.15921 0.0271204 1.88276e-14)
(1.145 0.0213156 5.75486e-14)
(1.13594 0.0103343 1.13224e-13)
(1.1346 -0.00288665 2.01039e-13)
(1.14171 -0.014253 3.40354e-13)
(1.15535 -0.0191623 4.59036e-13)
(1.17048 -0.0141005 4.25393e-13)
(1.18013 0.00109354 2.89563e-13)
(1.17859 0.0224438 1.89276e-13)
(1.16415 0.0438843 1.30202e-13)
(1.13907 0.0602898 9.1038e-14)
(1.10765 0.0689257 7.00235e-14)
(1.07431 0.0691123 5.79099e-14)
(1.04279 0.0612091 -3.27709e-14)
(1.01617 0.0457764 1.05334e-13)
(0.997287 0.0232217 1.22737e-12)
(0.989327 -0.00602759 -1.32523e-12)
(0.996604 -0.0405583 -1.73138e-11)
(1.02372 -0.0757845 -2.35002e-11)
(1.07152 -0.102281 2.65716e-11)
(1.13269 -0.108364 9.14054e-11)
(1.19102 -0.0874433 8.06406e-11)
(1.22811 -0.0440441 1.89916e-11)
(1.23418 0.00782223 -1.76632e-11)
(1.21175 0.0528572 -1.76758e-11)
(1.17129 0.0820558 -5.91831e-12)
(1.1241 0.0944265 8.04111e-13)
(1.07782 0.0933741 3.86331e-12)
(1.03629 0.0825226 2.1998e-12)
(1.00173 0.0636064 -2.34893e-11)
(0.975957 0.0367591 -4.09326e-11)
(0.959495 0.00203021 1.64886e-10)
(0.952992 -0.0402486 8.68034e-10)
(0.962845 -0.0893173 1.96955e-09)
(0.999432 -0.140499 2.97463e-09)
(1.065 -0.181269 3.56846e-09)
(1.14828 -0.194548 3.90722e-09)
(1.23154 -0.167572 4.25726e-09)
(1.29857 -0.0995677 4.46742e-09)
(1.33569 -0.00634358 3.98623e-09)
(1.33184 0.0824871 2.68512e-09)
(1.2877 0.139097 1.2136e-09)
(1.22036 0.154499 2.36153e-10)
(1.15228 0.138745 -1.2782e-10)
(1.09802 0.108136 -1.3767e-10)
(1.06145 0.0743435 -5.77214e-11)
(1.04067 0.0420564 -5.3987e-12)
(1.03332 0.011946 9.48899e-12)
(1.0384 -0.0157192 1.75184e-11)
(1.0552 -0.0389982 5.59469e-11)
(1.08149 -0.0543314 1.38234e-10)
(1.11295 -0.0581885 2.28546e-10)
(1.14329 -0.0492311 2.67455e-10)
(1.1656 -0.0296768 2.32221e-10)
(1.17476 -0.00482057 1.54092e-10)
(1.1697 0.0191187 7.82455e-11)
(1.15326 0.0373498 2.8623e-11)