/*--------------------------------*- C++ -*----------------------------------*\
  =========                 |
  \\      /  F ield         | OpenFOAM: The Open Source CFD Toolbox
   \\    /   O peration     | Website:  https://openfoam.org
    \\  /    A nd           | Version:  11
     \\/     M anipulation  |
\*---------------------------------------------------------------------------*/
FoamFile
{
    format      ascii;
    class       volScalarField;
    location    "19.420742";
    object      p;
}
// * * * * * * * * * * * * * * * * * * * * * * * * * * * * * * * * * * * * * //

dimensions      [0 2 -2 0 0 0 0];

internalField   nonuniform List<scalar> 
7132
(
0.0755959
0.07441
0.0704401
0.0647033
0.0567936
0.0466209
0.0343296
0.0202247
0.00509624
-0.00983158
-0.0231315
-0.0330895
-0.0392947
-0.0417759
-0.0411317
-0.0381798
-0.0334014
-0.0269827
-0.019235
-0.0107285
-0.00212356
0.00604211
0.0134659
0.0200257
0.0256444
0.0301443
0.0331631
0.0343686
0.0338823
0.0325364
0.0314398
0.0312689
0.0319823
0.0331334
0.0342956
0.0352702
0.036108
0.0369711
0.0379644
0.0388693
0.0390349
0.0377641
0.0350636
0.0319719
0.0298441
0.0293288
0.030076
0.0312551
0.0322013
0.0326705
0.0327881
0.0328566
0.0331209
0.0334398
0.0331648
0.0315579
0.0286066
0.0253886
0.0233529
0.0231953
0.0244767
0.0261623
0.0274156
0.0279422
0.0279035
0.0276717
0.0275464
0.0274375
0.0267986
0.025032
0.0221837
0.0192238
0.0174465
0.0175128
0.019043
0.0210157
0.0225201
0.0231864
0.0231519
0.0227969
0.0224211
0.0219582
0.02098
0.0190894
0.016452
0.0139237
0.0125346
0.0127794
0.0143279
0.0163097
0.017889
0.0186594
0.0186842
0.0182861
0.0177314
0.0169849
0.0157543
0.0138387
0.0115032
0.00948308
0.00854059
0.00897092
0.010447
0.0122602
0.0137318
0.0144975
0.0145571
0.0141333
0.0134303
0.012455
0.01107
0.00925124
0.0073131
0.00584091
0.00534449
0.00594321
0.00731005
0.00887942
0.0101354
0.0107934
0.0108256
0.0103647
0.00955025
0.00843388
0.00702563
0.00544259
0.0040009
0.00311476
0.00306275
0.00382119
0.00507622
0.00639222
0.00740005
0.00789995
0.00786369
0.00736817
0.00651259
0.00538488
0.00409631
0.0028424
0.00190165
0.00153222
0.00183254
0.0026847
0.00379587
0.00484488
0.00556438
0.0058436
0.00563016
0.00502558
0.00402484
0.00284423
0.00146929
0.000286842
-0.000622452
-0.00119587
-0.000638227
-0.00161718
0.00200382
-0.00454024
0.0760654
0.0748855
0.0709384
0.0652176
0.0573051
0.0470835
0.0346747
0.0203541
0.00492419
-0.0103582
-0.0239719
-0.034049
-0.0402256
-0.0425599
-0.0417408
-0.038672
-0.0338413
-0.0273763
-0.0195472
-0.0109277
-0.00219997
0.00608083
0.0136044
0.0202469
0.0259286
0.0304676
0.0334816
0.0346125
0.0339795
0.0324623
0.0312403
0.0310228
0.0317515
0.0329446
0.0341538
0.0351726
0.0360515
0.0369518
0.0379803
0.0389145
0.0390797
0.0377464
0.0349197
0.0316899
0.0294823
0.0289713
0.0297843
0.0310446
0.0320603
0.0325803
0.0327322
0.0328212
0.0330975
0.033417
0.0331148
0.031433
0.0283629
0.025025
0.0229274
0.0227902
0.0241575
0.0259485
0.027292
0.0278803
0.027876
0.0276576
0.0275317
0.0274039
0.0267144
0.0248574
0.0218952
0.0188382
0.0170208
0.0171158
0.0187309
0.0208112
0.0224142
0.0231513
0.0231555
0.022813
0.0224311
0.0219387
0.0208969
0.0189088
0.0161643
0.0135589
0.0121515
0.0124376
0.0140692
0.0161485
0.0178173
0.0186551
0.018719
0.0183326
0.0177661
0.01698
0.0156781
0.0136673
0.0112387
0.00916157
0.0082182
0.00869958
0.0102587
0.0121612
0.0137103
0.0145327
0.0146242
0.0142069
0.0134844
0.0124608
0.011001
0.00909458
0.007081
0.00557143
0.00508782
0.00574253
0.00718931
0.00883955
0.0101618
0.0108646
0.010918
0.0104541
0.00961165
0.00844186
0.00696149
0.00530361
0.00380612
0.0029013
0.00287286
0.00368793
0.00501513
0.00640004
0.00746091
0.00799251
0.00796558
0.0074571
0.00656672
0.00538517
0.00403282
0.00272049
0.00174356
0.00137116
0.00170185
0.00260782
0.00378086
0.00488537
0.00564476
0.00594453
0.00573181
0.00510915
0.00407224
0.00284338
0.00141429
0.000191052
-0.000744374
-0.00130472
-0.000721717
-0.00165581
0.00206501
-0.00463503
0.0770016
0.0758352
0.0719358
0.0662519
0.0583391
0.0480254
0.0353856
0.0206305
0.00458645
-0.0114288
-0.0256921
-0.036005
-0.0421109
-0.0441249
-0.0429298
-0.0396157
-0.0346873
-0.0281435
-0.0201629
-0.0113247
-0.00235598
0.00615162
0.0138723
0.0206798
0.0264901
0.0311124
0.0341213
0.0351015
0.0341649
0.0322908
0.0308092
0.0304993
0.0312653
0.0325478
0.0338525
0.0349585
0.0359171
0.0368903
0.03799
0.0389863
0.039153
0.037691
0.0346014
0.0310825
0.0287096
0.028213
0.029169
0.0306007
0.0317587
0.0323793
0.0325962
0.0327242
0.0330245
0.0333467
0.0329887
0.0311491
0.0278296
0.0242418
0.0220172
0.021929
0.0234802
0.0254932
0.0270229
0.0277346
0.0277949
0.0275996
0.0274724
0.0273101
0.0265219
0.0244831
0.0212897
0.0180352
0.0161373
0.0162922
0.0180815
0.0203809
0.0221827
0.0230597
0.0231376
0.0228177
0.0224245
0.021876
0.0207089
0.0185259
0.0155667
0.0128071
0.0113647
0.0117373
0.0135393
0.0158154
0.0176625
0.0186322
0.0187714
0.0184081
0.017819
0.016955
0.0155089
0.0133039
0.0106856
0.00849264
0.00754922
0.00813821
0.00986933
0.0119544
0.0136599
0.0145948
0.0147497
0.014346
0.0135855
0.0124646
0.0108511
0.00876304
0.0065928
0.00500598
0.00454975
0.00532201
0.00693449
0.00875116
0.0102087
0.0110021
0.0110989
0.0106305
0.00973261
0.00845416
0.00682462
0.0050105
0.00339596
0.00245159
0.002472
0.00340528
0.00488188
0.00640867
0.00757828
0.00817494
0.008168
0.00763491
0.00667491
0.00538352
0.00389921
0.00246476
0.00141143
0.00103184
0.001425
0.00244227
0.00374285
0.0049614
0.00580255
0.00614482
0.00593469
0.0052767
0.00416711
0.00283981
0.00129893
-9.6915e-06
-0.00100006
-0.00153461
-0.000900244
-0.00173812
0.00217386
-0.00479598
0.0783993
0.0772554
0.073435
0.0678172
0.0599178
0.0494805
0.0365036
0.0210885
0.00409342
-0.0130848
-0.0283823
-0.0390489
-0.0450296
-0.0465249
-0.0447412
-0.041069
-0.0360247
-0.0293805
-0.0211638
-0.0119754
-0.00262586
0.00623303
0.0142545
0.0213126
0.0273203
0.0320753
0.0350808
0.0358229
0.0343979
0.0319496
0.0300618
0.0296255
0.0304722
0.0319081
0.0333647
0.0346019
0.0356766
0.0367553
0.0379589
0.0390466
0.0392083
0.0375319
0.0340104
0.0300228
0.0273969
0.026951
0.0281623
0.0298816
0.0312667
0.0320385
0.0323463
0.0325236
0.0328502
0.0331689
0.0327196
0.0306291
0.0269126
0.0229269
0.0205039
0.0205056
0.0223669
0.0247456
0.0265733
0.0274726
0.027622
0.0274512
0.0273165
0.0271013
0.0261625
0.0238437
0.0202934
0.0167359
0.0147174
0.0149765
0.0170463
0.0196894
0.0217962
0.0228823
0.0230668
0.0227787
0.02237
0.0217368
0.0203725
0.0178796
0.0145797
0.0115804
0.0100939
0.0106188
0.0126997
0.0152868
0.0174064
0.0185725
0.018823
0.0184959
0.0178754
0.0168894
0.0152111
0.0126917
0.00976857
0.00739444
0.00646009
0.00723211
0.00924413
0.01162
0.0135681
0.014674
0.0149248
0.0145442
0.0137271
0.0124522
0.0105899
0.0082064
0.00578338
0.00407562
0.00366996
0.00463761
0.00651829
0.00859962
0.0102685
0.0112016
0.0113656
0.0108923
0.00990894
0.00845792
0.00658765
0.00452026
0.0027171
0.00171163
0.00181484
0.00294175
0.00465854
0.0064101
0.0077497
0.0084472
0.00847169
0.00790145
0.00683274
0.00536686
0.00367064
0.00203937
0.000863589
0.000474376
0.000970441
0.0021678
0.00367201
0.00507035
0.00603896
0.00644697
0.00624096
0.00552814
0.00430441
0.00282047
0.0011011
-0.000344913
-0.00142209
-0.00191309
-0.0011994
-0.00186516
0.00229515
-0.00495601
0.0802492
0.0791396
0.0754382
0.0699291
0.0620747
0.051502
0.038096
0.0217887
0.00347052
-0.015384
-0.032176
-0.0433026
-0.0490546
-0.0497387
-0.0470685
-0.0428998
-0.0377627
-0.0310512
-0.0225463
-0.0128888
-0.00302304
0.00630819
0.01473
0.022123
0.0284004
0.0333461
0.0363558
0.0367574
0.0346149
0.0313213
0.028855
0.0282727
0.0292793
0.0309616
0.0326402
0.0340546
0.0352772
0.0364877
0.0378226
0.0390266
0.0391646
0.0371545
0.0329795
0.0282934
0.0253179
0.0250007
0.0266385
0.0288084
0.0305283
0.0315046
0.0319163
0.0321291
0.0324603
0.0327591
0.0321888
0.0297717
0.0255238
0.0209856
0.018272
0.0183908
0.0207042
0.0236205
0.0258794
0.0270352
0.027289
0.0271339
0.0269854
0.0267035
0.0255572
0.0228388
0.0187789
0.0148002
0.0126355
0.0130706
0.0155528
0.0186809
0.0212065
0.0225713
0.0228937
0.0226492
0.0222268
0.0214787
0.0198281
0.0168794
0.0130833
0.00974449
0.008214
0.00898414
0.0114831
0.0145184
0.017016
0.0184463
0.0188463
0.0185741
0.0179161
0.0167564
0.0147357
0.0117529
0.00838661
0.00575665
0.00484779
0.00589858
0.0083246
0.0111204
0.0134106
0.0147524
0.0151365
0.014793
0.0139003
0.0124038
0.0101758
0.00735822
0.0045682
0.00269079
0.00236644
0.0036243
0.00589492
0.00835579
0.0103237
0.011453
0.0117131
0.0112373
0.0101352
0.0084357
0.00621366
0.00377589
0.00169957
0.000609943
0.000838581
0.00224908
0.00431237
0.00638451
0.0079644
0.0088045
0.00887558
0.00825643
0.00703511
0.00531848
0.00331434
0.00139661
4.40789e-05
-0.000356213
0.000291793
0.00175031
0.00354637
0.00519981
0.00634808
0.00684916
0.00665095
0.00586302
0.00447843
0.00276942
0.000792537
-0.000853264
-0.00205403
-0.00247939
-0.00165649
-0.00204666
0.00237633
-0.00502835
0.0825377
0.0814777
0.0779468
0.072607
0.0648539
0.0541622
0.0402573
0.0228182
0.00275437
-0.0184207
-0.0372882
-0.0489763
-0.054369
-0.0538902
-0.0500033
-0.0452287
-0.0400808
-0.0333605
-0.0244838
-0.0141835
-0.00362212
0.0063252
0.0152546
0.0230681
0.02969
0.0348948
0.0379229
0.0378556
0.0346958
0.0302053
0.0269599
0.0262472
0.0275533
0.0296197
0.0316099
0.0332487
0.0346408
0.0359903
0.037453
0.0387702
0.0388563
0.036385
0.0312985
0.0256239
0.0221677
0.0220941
0.0244136
0.0272695
0.0294673
0.0307012
0.0312034
0.0313987
0.0316857
0.0319439
0.0312277
0.0284047
0.0234837
0.0182457
0.0151702
0.0154567
0.0183792
0.0220235
0.024861
0.0263431
0.0267091
0.0265599
0.0264014
0.026042
0.0246092
0.0213244
0.0165541
0.0120171
0.00970258
0.0104356
0.0135072
0.0172902
0.0203578
0.022071
0.0225645
0.0223842
0.0219555
0.0210519
0.0189967
0.0154115
0.0109379
0.00715169
0.00558679
0.00672024
0.00980869
0.0134557
0.0164504
0.0182176
0.0188102
0.0186185
0.0179175
0.0165174
0.0140172
0.0103958
0.00643294
0.00347165
0.0026139
0.00405622
0.00705024
0.0104134
0.0131567
0.0148062
0.0153659
0.0150778
0.0140859
0.0122842
0.00954998
0.00613915
0.00285876
0.000766169
0.000565111
0.00222276
0.00502109
0.00798964
0.0103534
0.0117409
0.0121298
0.0116548
0.0103936
0.00835298
0.00564746
0.0027062
0.000266976
-0.000924236
-0.000515159
0.00128346
0.00381319
0.00631205
0.00820944
0.00923828
0.00937331
0.00869165
0.00726472
0.00520522
0.00277972
0.000473798
-0.00111218
-0.00151821
-0.0006569
0.00115714
0.0033448
0.00533683
0.00672213
0.00734657
0.0071606
0.00627384
0.00467255
0.00265622
0.000329298
-0.00158723
-0.00294843
-0.00327742
-0.00230997
-0.00229118
0.00236005
-0.00491498
0.0852448
0.0842542
0.0809597
0.075873
0.0683106
0.0575579
0.0431199
0.0243093
0.00201508
-0.022314
-0.0440046
-0.056312
-0.0610916
-0.0588699
-0.0532615
-0.0477696
-0.0428467
-0.036318
-0.0270369
-0.0159177
-0.00447203
0.00623365
0.0157665
0.0240743
0.031112
0.0366542
0.0397217
0.0390201
0.0344434
0.0282863
0.0240179
0.0232484
0.0250951
0.0277557
0.0301764
0.0320868
0.0336476
0.0350837
0.0365756
0.0379366
0.0379677
0.0350339
0.0288989
0.0219245
0.0177291
0.0179353
0.0212437
0.0251051
0.0279733
0.029518
0.0300631
0.0301583
0.0303592
0.0305784
0.0296824
0.0263068
0.0204898
0.0143865
0.0109393
0.0115331
0.0152703
0.0198528
0.0234217
0.0252981
0.0257843
0.0256434
0.025493
0.0250397
0.0232104
0.019156
0.0134534
0.00821567
0.00575811
0.00693392
0.0108088
0.0154429
0.0191848
0.0213171
0.0220203
0.021935
0.02151
0.0203958
0.0177958
0.0133808
0.00805156
0.00371905
0.00213382
0.00375235
0.00761102
0.0120441
0.0156622
0.0178429
0.0186761
0.0185962
0.0178426
0.0161217
0.0129898
0.00854933
0.00384425
0.000488025
-0.000286427
0.00166132
0.00537907
0.00945991
0.0127711
0.0148033
0.0155851
0.0153724
0.0142511
0.0120463
0.00865268
0.00448714
0.000601609
-0.00173936
-0.00176733
0.000402316
0.00386695
0.00747226
0.0103306
0.0120418
0.0125954
0.0121236
0.0106539
0.00816494
0.00483205
0.00125193
-0.00163228
-0.0029312
-0.00227764
1.84676e-05
0.00313689
0.00617007
0.00846419
0.00973077
0.00994925
0.00918902
0.00749374
0.00498506
0.0020133
-0.00078547
-0.00265617
-0.00305297
-0.00190747
0.000362813
0.00304558
0.00546212
0.00714418
0.00792486
0.00775708
0.00674417
0.00486127
0.00244309
-0.000335308
-0.00259583
-0.00414871
-0.00434124
-0.00318907
-0.00260704
0.00219174
-0.00452986
0.088343
0.0874465
0.0844705
0.0797482
0.0725077
0.0618075
0.0468542
0.0264427
0.0013527
-0.0272491
-0.0527585
-0.0657154
-0.0696038
-0.0649502
-0.0570189
-0.0507002
-0.0463253
-0.0402508
-0.030489
-0.0182845
-0.00569821
0.00593329
0.016161
0.0250189
0.0325295
0.0384981
0.0416154
0.0400401
0.0334743
0.0249945
0.019446
0.0188372
0.0216335
0.0252037
0.0282143
0.0304403
0.0321199
0.0334719
0.034754
0.0360233
0.0360136
0.0327242
0.0255625
0.0170966
0.0119026
0.0123334
0.0169016
0.0221296
0.0259039
0.0278145
0.0283336
0.02825
0.028361
0.028559
0.0274098
0.0232629
0.0162749
0.00912865
0.00533325
0.00643657
0.0112565
0.0170126
0.0214646
0.0237991
0.0244219
0.0243095
0.0241916
0.0236127
0.0212592
0.0162393
0.0094144
0.00336056
0.00076262
0.00251136
0.00739759
0.0130793
0.0176257
0.020246
0.0212017
0.0212483
0.0208326
0.0194431
0.0161582
0.0107429
0.00441703
-0.000531174
-0.00211934
8.80021e-05
0.00487418
0.0102501
0.0146076
0.0172745
0.0183972
0.0184606
0.0176378
0.0155095
0.0116005
0.00618684
0.000629101
-0.00315968
-0.00381409
-0.00126238
0.00331129
0.00823929
0.0122196
0.0147042
0.0157531
0.0156326
0.0143443
0.0116335
0.00743581
0.00237921
-0.0021946
-0.00479556
-0.00459668
-0.00181524
0.00243448
0.00678722
0.0102268
0.0123218
0.0130742
0.0126038
0.0108679
0.00781764
0.00372036
-0.000612876
-0.00399812
-0.00539303
-0.00442784
-0.00153436
0.00228016
0.00594152
0.00870285
0.0102526
0.0105727
0.00971281
0.00767796
0.00460781
0.000969257
-0.00241175
-0.00459905
-0.00495999
-0.00345599
-0.000634325
0.00263762
0.00555591
0.00758941
0.00855758
0.00841346
0.00724201
0.0050053
0.00208563
-0.00124212
-0.0039091
-0.00566967
-0.00567647
-0.00429627
-0.00299293
0.00183697
-0.00381712
0.0917948
0.0910228
0.0884651
0.0842519
0.0775168
0.0670611
0.0516916
0.0294902
0.00094891
-0.0334552
-0.0641221
-0.0776
-0.0799787
-0.0716703
-0.0605476
-0.0534847
-0.0504807
-0.0454222
-0.0351153
-0.0214695
-0.00742605
0.00530388
0.0162838
0.0256972
0.0337149
0.0401755
0.0432946
0.0404243
0.0310405
0.0193496
0.012267
0.0123162
0.016768
0.0217451
0.0255704
0.0281452
0.0298071
0.0307757
0.0315599
0.0326558
0.0326636
0.0289996
0.0206523
0.0105638
0.00435262
0.00513008
0.0112263
0.0181732
0.0230985
0.0254328
0.0258642
0.0255581
0.0256084
0.0257956
0.0242876
0.0191601
0.0107871
0.00246343
-0.00167237
0.000105902
0.00627056
0.0134318
0.0189049
0.0217538
0.0225384
0.0224871
0.0224225
0.0216795
0.0186927
0.0125712
0.00451378
-0.00241597
-0.00515146
-0.00274749
0.00329781
0.0101782
0.0156325
0.0187972
0.0200447
0.0202573
0.0198505
0.0181261
0.0140501
0.00752613
0.000131738
-0.0054554
-0.00702474
-0.00416252
0.00165138
0.00807478
0.0132531
0.0164607
0.0179127
0.0181436
0.0172313
0.0146206
0.009828
0.00334702
-0.00311342
-0.00733607
-0.00783379
-0.00461264
0.000899188
0.00675589
0.0114723
0.0144594
0.0158109
0.015792
0.0142968
0.0109912
0.00588324
-0.000144804
-0.00543804
-0.00828312
-0.00780855
-0.00434672
0.000763107
0.00593261
0.0100105
0.0125329
0.0135103
0.0130332
0.0109725
0.00726201
0.0022985
-0.00285405
-0.00675438
-0.00821505
-0.00687965
-0.00331784
0.0012635
0.00561404
0.00889064
0.0107575
0.0111924
0.0102068
0.00776137
0.00403046
-0.000366197
-0.00438109
-0.00688674
-0.00717365
-0.00524924
-0.00180511
0.00212208
0.00559569
0.00802018
0.00920008
0.00908198
0.00771748
0.00505668
0.00154779
-0.00240266
-0.00551099
-0.00747248
-0.00724123
-0.00559389
-0.00343396
0.00129136
-0.00277064
0.0955506
0.0949386
0.0929171
0.0893919
0.0834071
0.0734856
0.0579114
0.0338124
0.00104928
-0.041303
-0.0789479
-0.0927822
-0.0931826
-0.0797981
-0.0642053
-0.0562405
-0.0555277
-0.0522826
-0.04137
-0.0257883
-0.009863
0.00415762
0.0159032
0.0258001
0.0342468
0.0410488
0.0440665
0.0396339
0.0265917
0.0105324
0.00134862
0.00273215
0.00995867
0.0171107
0.0220696
0.025002
0.0264154
0.0266569
0.0267797
0.0277523
0.0278242
0.023564
0.0136784
0.00181516
-0.00528296
-0.00384101
0.00412126
0.013116
0.0194112
0.0222257
0.0225378
0.0220067
0.0220374
0.0222137
0.0202607
0.014038
0.00420418
-0.00533722
-0.0098215
-0.00729734
0.000372047
0.00910111
0.0156919
0.0190928
0.0200633
0.0201038
0.0201058
0.0191717
0.0155003
0.00824174
-0.00105117
-0.00884429
-0.0117104
-0.00862407
-0.00136731
0.0067759
0.0131846
0.0169191
0.0184813
0.018882
0.01848
0.0163872
0.0114799
0.00383189
-0.00461408
-0.0108087
-0.0123335
-0.00879763
-0.00193468
0.00556101
0.0115814
0.0153475
0.0171478
0.0175571
0.0165382
0.013404
0.00769011
0.000135386
-0.00720095
-0.0118176
-0.0121265
-0.00821635
-0.00175426
0.00504133
0.0105049
0.014009
0.0156783
0.0157607
0.0140271
0.010076
0.00402067
-0.00297843
-0.00895702
-0.0120006
-0.0112149
-0.0070519
-0.00107115
0.00492199
0.00964712
0.0126103
0.013823
0.0133254
0.0108939
0.00646459
0.000598431
-0.0053685
-0.0097464
-0.0112274
-0.00948389
-0.00522946
0.000132391
0.00518097
0.00898294
0.0111786
0.011732
0.0105928
0.00768149
0.0032299
-0.00195819
-0.0066011
-0.00939148
-0.00956248
-0.00718012
-0.00308543
0.00151565
0.0055578
0.00838554
0.00978688
0.0096912
0.00810247
0.00496517
0.000815151
-0.00378238
-0.00732392
-0.00945285
-0.00893792
-0.00699752
-0.00389791
0.000588103
-0.00144336
0.0995471
0.0991361
0.0977843
0.0951654
0.0902478
0.0812891
0.0658945
0.0399701
0.00211044
-0.0512633
-0.0984147
-0.111772
-0.108604
-0.0875774
-0.0662306
-0.0582716
-0.0620777
-0.0619023
-0.0500393
-0.0316593
-0.0132476
0.00226541
0.0147078
0.0248743
0.0332123
0.0395863
0.0423214
0.037022
0.0211588
3.1978e-05
-0.0130206
-0.0106868
0.000512953
0.0109455
0.0175141
0.0208032
0.0216912
0.0209341
0.020382
0.0213328
0.0214529
0.0163933
0.00478721
-0.00890303
-0.016808
-0.0144932
-0.0043723
0.00692947
0.014751
0.0180886
0.0182797
0.0175461
0.0175932
0.0177665
0.0153581
0.0080736
-0.00313298
-0.0138182
-0.0186489
-0.0154072
-0.00622928
0.00410003
0.011826
0.015778
0.0169399
0.0170874
0.0171639
0.0160462
0.0117275
0.00341985
-0.00699279
-0.0155582
-0.0185272
-0.0147966
-0.00638604
0.00297008
0.0102944
0.0145722
0.0164398
0.0170317
0.0166348
0.0141876
0.0085
-0.000175972
-0.00955882
-0.0162728
-0.0177247
-0.0135477
-0.0057044
0.00278988
0.00959257
0.01388
0.0160136
0.0165963
0.015469
0.0118266
0.00524663
-0.00328487
-0.0113876
-0.016318
-0.0164145
-0.0118495
-0.00450744
0.00314935
0.00929745
0.0132824
0.0152552
0.0154293
0.0134499
0.00886582
0.00191868
-0.00595656
-0.0125182
-0.0156914
-0.014579
-0.00975062
-0.00296592
0.00377915
0.00909682
0.0124717
0.0139078
0.013375
0.0105589
0.00541938
-0.00129702
-0.00799065
-0.0127571
-0.0142049
-0.0120461
-0.00713464
-0.00105099
0.00463676
0.00892281
0.0114277
0.0120895
0.0107771
0.00738223
0.00221698
-0.003716
-0.00891391
-0.01192
-0.0119377
-0.00909906
-0.00438488
0.000845315
0.00541445
0.00861916
0.0102305
0.0101478
0.00831796
0.00469117
-9.07433e-05
-0.00529145
-0.00920761
-0.011446
-0.0106201
-0.008383
-0.00433933
-0.000205852
5.12071e-05
0.103704
0.103537
0.103001
0.101535
0.0980791
0.0906576
0.0760557
0.0486684
0.00465902
-0.0640927
-0.124204
-0.136725
-0.129568
-0.0975945
-0.0672204
-0.0588736
-0.069744
-0.0749181
-0.0620123
-0.0396856
-0.0179408
-0.000696523
0.0123183
0.0222155
0.0290567
0.0335221
0.0353756
0.0302267
0.0139451
-0.0111743
-0.0292687
-0.0274318
-0.0118656
0.00291255
0.0116839
0.0153644
0.0154865
0.0135915
0.0124365
0.0134745
0.0136394
0.00777494
-0.00540964
-0.02077
-0.0294551
-0.0262984
-0.0139688
-0.000275724
0.00912023
0.0129876
0.0130638
0.0121499
0.0122403
0.0124511
0.00968708
0.0015378
-0.0107944
-0.0224366
-0.0275806
-0.0237274
-0.0131973
-0.00139725
0.00736953
0.011809
0.0131295
0.0133742
0.0135352
0.0122942
0.0074698
-0.00167044
-0.0129715
-0.0221435
-0.0251738
-0.0208856
-0.0114851
-0.00108907
0.00700924
0.0117331
0.0138516
0.0146149
0.0142382
0.0115137
0.00520067
-0.00429203
-0.0144027
-0.0214945
-0.0228431
-0.0181084
-0.00944374
-0.000129166
0.007303
0.012006
0.0144151
0.0151515
0.0139404
0.00987798
0.00259178
-0.00671421
-0.0153957
-0.0205238
-0.0203958
-0.0152648
-0.00719796
0.00114775
0.00783395
0.0122015
0.0144278
0.0146805
0.0124868
0.00736369
-0.000316666
-0.00887888
-0.0158593
-0.0190732
-0.0176426
-0.0122459
-0.00480704
0.00253205
0.00831437
0.0120211
0.0136441
0.0130695
0.0099052
0.0041505
-0.00326553
-0.0105173
-0.015539
-0.0168983
-0.0143532
-0.00888554
-0.00221814
0.00397356
0.00864222
0.0113988
0.0121448
0.0106624
0.00682458
0.00103845
-0.00550483
-0.0111199
-0.0142472
-0.0140865
-0.0108369
-0.0055999
0.000142413
0.00513296
0.00864199
0.0104266
0.0103451
0.00828553
0.00421563
-0.0011112
-0.00679624
-0.0109808
-0.0132524
-0.0121151
-0.00960437
-0.00470726
-0.00100139
0.00155108
0.107925
0.108048
0.108474
0.108442
0.106916
0.10184
0.0889848
0.0611273
0.00986107
-0.0811696
-0.158884
-0.166761
-0.151591
-0.103973
-0.0636846
-0.0582881
-0.0816823
-0.0945347
-0.0790747
-0.0506078
-0.0242843
-0.00501118
0.00833977
0.0168647
0.0201883
0.021622
0.0225256
0.0185037
0.00257642
-0.0253833
-0.0477752
-0.0467176
-0.0269052
-0.00709129
0.00441838
0.00856583
0.00777748
0.00471434
0.00306428
0.00431562
0.00463271
-0.00178389
-0.0161174
-0.0327801
-0.0421945
-0.0384025
-0.0241282
-0.00822193
0.00263903
0.00697475
0.00691653
0.00582317
0.0059788
0.00631978
0.00342097
-0.00524385
-0.018316
-0.0306287
-0.0360144
-0.031707
-0.0201166
-0.00713723
0.00244731
0.00722712
0.00861973
0.00892321
0.00918838
0.00794673
0.00286337
-0.0067747
-0.0186316
-0.0281805
-0.0312158
-0.0264972
-0.0163624
-0.00521572
0.00340784
0.00839943
0.0106608
0.0115533
0.0112361
0.00838212
0.00170087
-0.00829206
-0.018839
-0.026124
-0.0273391
-0.0221739
-0.012928
-0.00307092
0.0047433
0.00968194
0.012262
0.013122
0.011888
0.00757348
-0.000157285
-0.00994059
-0.0189467
-0.024129
-0.0237766
-0.018219
-0.00966172
-0.000890673
0.00610236
0.0106896
0.0130832
0.013404
0.0110779
0.00559735
-0.00255858
-0.0115358
-0.018721
-0.0218747
-0.0201591
-0.0143479
-0.00648336
0.00120703
0.00725174
0.0111581
0.0129099
0.0123052
0.00889167
0.00270869
-0.00516426
-0.0127377
-0.0178488
-0.0190651
-0.0162009
-0.0103415
-0.00330589
0.00317825
0.00806681
0.0109798
0.0117786
0.0101631
0.0059944
-0.000230226
-0.00716889
-0.0130114
-0.0161468
-0.0157981
-0.0122285
-0.00663088
-0.000565704
0.00467538
0.0083682
0.0102647
0.0101779
0.00794091
0.00354501
-0.00215985
-0.00814293
-0.0124529
-0.0146715
-0.0132516
-0.010517
-0.00495531
-0.00170513
0.00286863
0.112095
0.112546
0.114075
0.115742
0.11669
0.114887
0.105184
0.078544
0.0184702
-0.102813
-0.206355
-0.210601
-0.187284
-0.114292
-0.0550246
-0.0524135
-0.0957415
-0.12265
-0.103702
-0.065795
-0.0328896
-0.0110326
0.0022627
0.00779212
0.00614506
0.00480276
0.00577439
0.00338098
-0.0126304
-0.0426804
-0.0681544
-0.0675151
-0.0438409
-0.0188346
-0.00428865
0.000397748
-0.00134375
-0.00554735
-0.00757555
-0.00593907
-0.00520071
-0.0116814
-0.0265266
-0.0439595
-0.0539601
-0.0498383
-0.034146
-0.0164816
-0.00445256
0.000190588
-7.7725e-05
-0.00138373
-0.00113726
-0.000511725
-0.00321491
-0.0119244
-0.0252457
-0.0378663
-0.0433865
-0.0388078
-0.0265468
-0.0128164
-0.00276311
0.00211749
0.00343449
0.00373112
0.00413682
0.00307888
-0.00192604
-0.0116329
-0.0236361
-0.0332843
-0.0362558
-0.0312631
-0.0207199
-0.00920829
-0.000405846
0.00459523
0.00683882
0.00780083
0.00760976
0.00484089
-0.00186351
-0.0119563
-0.0225863
-0.0298472
-0.0308996
-0.0254672
-0.0159456
-0.00590717
0.00195753
0.00688235
0.00948631
0.0104347
0.00927766
0.00495312
-0.00287427
-0.0127633
-0.0217913
-0.0268656
-0.0263013
-0.0204979
-0.0117501
-0.00289522
0.00409816
0.00868305
0.0111273
0.0115154
0.00919113
0.00361485
-0.00467705
-0.0137347
-0.020876
-0.0238638
-0.0219186
-0.0158943
-0.00789957
-0.000173875
0.00586513
0.0097926
0.0115994
0.0110029
0.00750351
0.00116138
-0.00685221
-0.0144619
-0.0194763
-0.0205022
-0.0174184
-0.0113859
-0.00426473
0.00223383
0.00712567
0.0100685
0.01089
0.0092192
0.00490255
-0.00150051
-0.00855784
-0.0144026
-0.0174253
-0.0168956
-0.0131355
-0.00739556
-0.00126031
0.00400263
0.00771664
0.00964511
0.00955958
0.00724395
0.00270763
-0.00314092
-0.00918549
-0.0134543
-0.0155297
-0.0138836
-0.0109988
-0.00504952
-0.00223761
0.00382328
0.116082
0.116894
0.119631
0.123274
0.12724
0.130038
0.125455
0.104246
0.0334373
-0.139303
-0.268642
-0.256002
-0.217959
-0.114464
-0.0397875
-0.0505741
-0.127818
-0.167278
-0.139606
-0.0864408
-0.0440101
-0.0188696
-0.00631862
-0.00546739
-0.0125146
-0.0158478
-0.0132645
-0.0135487
-0.0292752
-0.0602565
-0.0877413
-0.0877718
-0.0612352
-0.0316305
-0.0141731
-0.00897512
-0.011671
-0.0169804
-0.0192683
-0.017007
-0.0154161
-0.0213009
-0.0358988
-0.0534686
-0.0638234
-0.0596937
-0.043271
-0.0245299
-0.0118141
-0.00714222
-0.00777117
-0.00935886
-0.00898518
-0.00786238
-0.00995705
-0.0181624
-0.03118
-0.0437002
-0.0492198
-0.0445594
-0.0320727
-0.018116
-0.00804674
-0.00339093
-0.00235448
-0.00215162
-0.00155044
-0.0021898
-0.00671424
-0.0160007
-0.0276948
-0.0371373
-0.0399689
-0.0348747
-0.0242926
-0.0128686
-0.00430866
0.000377473
0.00239919
0.00336053
0.00338724
0.000970462
-0.0053504
-0.0150886
-0.0254113
-0.0324148
-0.0332783
-0.0277651
-0.0183166
-0.00851678
-0.000996109
0.00361138
0.00605998
0.00706143
0.00611575
0.0020801
-0.00543598
-0.0150117
-0.0237309
-0.0285273
-0.0277743
-0.0219358
-0.0133431
-0.0048014
0.00183046
0.00614694
0.00850467
0.0089722
0.00682855
0.00147898
-0.00655356
-0.0153187
-0.0221496
-0.0248665
-0.0227657
-0.0167655
-0.00898421
-0.00159199
0.00412541
0.00786246
0.00964237
0.00912151
0.00575352
-0.000418059
-0.00820825
-0.0155415
-0.0202651
-0.0210624
-0.0178846
-0.0119382
-0.00506278
0.00112452
0.00576497
0.00859117
0.00941386
0.00780445
0.00358044
-0.00268621
-0.00954806
-0.015152
-0.0179405
-0.0172514
-0.0134607
-0.007839
-0.0019328
0.00308183
0.00662534
0.00849634
0.00843614
0.00618328
0.00174569
-0.00396648
-0.00980658
-0.0138569
-0.0157007
-0.0139077
-0.0109664
-0.00497231
-0.00254794
0.00427618
0.119741
0.120924
0.124935
0.130686
0.138254
0.146596
0.150156
0.137866
0.0566987
-0.16482
-0.37578
-0.340466
-0.281624
-0.114033
-0.000878398
-0.019815
-0.148108
-0.224124
-0.190965
-0.11575
-0.0587099
-0.0287915
-0.0176379
-0.0227297
-0.0349869
-0.0392434
-0.0333642
-0.0306736
-0.0449411
-0.0753582
-0.103854
-0.105045
-0.0772595
-0.0444191
-0.0246789
-0.0191846
-0.0228816
-0.0292947
-0.031721
-0.0285182
-0.0255178
-0.0300612
-0.0436203
-0.0606692
-0.0711063
-0.0672391
-0.0508129
-0.0318149
-0.019041
-0.0147327
-0.0159483
-0.0179159
-0.0173638
-0.0154878
-0.0165177
-0.023644
-0.0357931
-0.0477944
-0.0531643
-0.048601
-0.0363464
-0.0227346
-0.0131687
-0.00912703
-0.00861847
-0.00860703
-0.00774082
-0.00769663
-0.0113091
-0.0196665
-0.0305864
-0.0395139
-0.0421282
-0.0371082
-0.0268711
-0.0160176
-0.00816378
-0.00415831
-0.0025892
-0.00170251
-0.00134879
-0.00311756
-0.00862075
-0.0175318
-0.0271486
-0.0336603
-0.0343135
-0.0289157
-0.0199073
-0.0107928
-0.00404322
-8.64877e-05
0.00201072
0.0030334
0.00245543
-0.000961768
-0.00773203
-0.0165595
-0.0246341
-0.0289858
-0.0280764
-0.0224282
-0.0143574
-0.00655178
-0.000670465
0.00308959
0.00521532
0.005786
0.00402976
-0.000738427
-0.00809229
-0.0161807
-0.0224348
-0.0247831
-0.0226142
-0.016894
-0.00969308
-0.00302752
0.00203009
0.00535034
0.00702152
0.00666568
0.00368031
-0.00195972
-0.00914378
-0.0158825
-0.0201259
-0.0206678
-0.0175385
-0.0119596
-0.00568479
-0.000155592
0.00396252
0.00651927
0.00733276
0.00592965
0.00207336
-0.00371576
-0.0100552
-0.015174
-0.0176128
-0.0167989
-0.0131566
-0.00793674
-0.002581
0.00189679
0.00506628
0.00678995
0.00679539
0.00477585
0.000706398
-0.00456904
-0.00993029
-0.0135862
-0.0151164
-0.0132721
-0.0103839
-0.00472211
-0.0026202
0.00415776
0.122921
0.124469
0.129715
0.137679
0.149138
0.164702
0.180153
0.192227
0.100317
-0.152058
-0.438221
-0.407394
-0.340112
-0.137863
0.00479984
-0.0128972
-0.142312
-0.253593
-0.237548
-0.148356
-0.0760561
-0.0406171
-0.0315195
-0.0433267
-0.0605431
-0.0642914
-0.053305
-0.0463116
-0.0576755
-0.0860303
-0.114507
-0.117271
-0.090103
-0.0559452
-0.0350138
-0.0296755
-0.0345352
-0.0420995
-0.0445319
-0.040005
-0.0349784
-0.0374473
-0.0492397
-0.0651553
-0.0753761
-0.0719744
-0.0562319
-0.0378308
-0.0257088
-0.0222399
-0.0243255
-0.0267878
-0.0259914
-0.0230871
-0.0225984
-0.0281006
-0.0388556
-0.0499464
-0.0550175
-0.0507069
-0.0391163
-0.026415
-0.0178912
-0.0148819
-0.0151679
-0.0154503
-0.0142376
-0.0132403
-0.0155197
-0.0224639
-0.0321722
-0.0402951
-0.0426191
-0.0378395
-0.028316
-0.0185072
-0.0118255
-0.00887502
-0.00799436
-0.00725382
-0.00645832
-0.00728306
-0.0115455
-0.0191766
-0.0277103
-0.033512
-0.0339391
-0.0288489
-0.0206374
-0.0126465
-0.00709125
-0.00411873
-0.00256821
-0.00155173
-0.00160085
-0.00407099
-0.00967129
-0.0173327
-0.0244457
-0.0282005
-0.0271734
-0.0219392
-0.0147497
-0.00809447
-0.00334623
-0.000426891
0.00132522
0.00202891
0.000872344
-0.00296068
-0.00922666
-0.0162707
-0.0216993
-0.0235952
-0.0214524
-0.0162681
-0.0100083
-0.00445353
-0.000386232
0.00229595
0.00378251
0.00368985
0.00134561
-0.00340306
-0.00960931
-0.0154523
-0.0190431
-0.0193153
-0.0163839
-0.0114536
-0.00612723
-0.0015931
0.00173973
0.00388065
0.0046831
0.00364187
0.000434902
-0.00453883
-0.0100409
-0.0144457
-0.016434
-0.0155396
-0.0122293
-0.00769358
-0.00320283
0.000458024
0.00305647
0.004549
0.00466988
0.00306396
-0.000364236
-0.00490772
-0.00952769
-0.0126262
-0.0137731
-0.0119817
-0.00926595
-0.00430973
-0.00247074
0.00347912
0.125474
0.127337
0.133707
0.143618
0.15915
0.181287
0.214635
0.218724
0.193844
-0.172226
-0.586048
-0.484112
-0.446855
-0.222604
-0.0923401
-0.0693818
-0.140485
-0.256739
-0.266648
-0.176299
-0.0931713
-0.0534004
-0.0472816
-0.066226
-0.0881537
-0.0896243
-0.0716081
-0.0589388
-0.0662007
-0.0913072
-0.118767
-0.123275
-0.0983982
-0.0650117
-0.044276
-0.0397633
-0.0460816
-0.0548871
-0.0571741