/*--------------------------------*- C++ -*----------------------------------*\
  =========                 |
  \\      /  F ield         | OpenFOAM: The Open Source CFD Toolbox
   \\    /   O peration     | Website:  https://openfoam.org
    \\  /    A nd           | Version:  11
     \\/     M anipulation  |
\*---------------------------------------------------------------------------*/
FoamFile
{
    format      ascii;
    class       volVectorField;
    location    "19.420742";
    object      U;
}
// * * * * * * * * * * * * * * * * * * * * * * * * * * * * * * * * * * * * * //

dimensions      [0 1 -1 0 0 0 0];

internalField   nonuniform List<vector> 
7132
(
(1.00012 -0.000229523 2.91669e-18)
(1.00177 -0.000670064 1.16215e-17)
(1.00538 -0.00111395 1.29581e-17)
(1.01072 -0.00157558 1.59965e-17)
(1.01797 -0.00206405 2.1304e-17)
(1.02723 -0.00256605 2.24241e-17)
(1.03851 -0.0030479 2.15079e-17)
(1.05165 -0.00343784 1.96574e-17)
(1.06609 -0.00365666 1.72823e-17)
(1.08102 -0.00362834 1.48508e-17)
(1.09524 -0.00331436 1.28271e-17)
(1.10768 -0.00280543 1.14888e-17)
(1.11777 -0.00216752 1.05678e-17)
(1.12511 -0.00143482 9.69169e-18)
(1.12935 -0.00058663 6.23546e-18)
(1.12994 0.000442037 3.70395e-18)
(1.12602 0.00165304 2.19634e-18)
(1.11695 0.00290394 3.05698e-18)
(1.10298 0.00396143 2.21977e-18)
(1.08535 0.00460606 2.62171e-18)
(1.06611 0.00469514 3.94365e-18)
(1.04768 0.00417358 4.22221e-18)
(1.03255 0.00306468 4.05285e-18)
(1.02297 0.00146956 4.13974e-18)
(1.02065 -0.00041806 -4.86395e-18)
(1.0263 -0.00228115 -2.37045e-17)
(1.03908 -0.00367813 -6.50458e-17)
(1.0561 -0.00415775 -1.17376e-16)
(1.07284 -0.00348509 -9.86365e-17)
(1.08448 -0.0018209 -3.00363e-17)
(1.08777 0.00033392 1.60199e-17)
(1.08197 0.00239246 3.35841e-17)
(1.06857 0.00392362 -8.28274e-17)
(1.05035 0.00472371 -2.13895e-16)
(1.03046 0.00475115 5.29211e-16)
(1.01197 0.00403367 1.18028e-15)
(0.997781 0.00261956 -3.79973e-15)
(0.990607 0.000597884 -9.64455e-15)
(0.992686 -0.0018223 1.06565e-14)
(1.00508 -0.00421306 7.5255e-14)
(1.02659 -0.00593722 1.54616e-13)
(1.05307 -0.00636857 2.03048e-13)
(1.0782 -0.0052352 2.26845e-13)
(1.09559 -0.00282658 2.16189e-13)
(1.10125 0.000129367 1.3305e-13)
(1.09471 0.00282766 4.39115e-14)
(1.07851 0.00471827 8.70259e-15)
(1.05665 0.00560555 -1.64289e-14)
(1.03325 0.0055365 -6.16203e-14)
(1.01191 0.00463272 -6.71861e-14)
(0.995733 0.0029912 -3.35046e-14)
(0.987537 0.00070655 -8.59866e-14)
(0.989734 -0.00200662 1.66598e-13)
(1.00348 -0.00468463 1.28641e-12)
(1.02744 -0.00663466 2.73983e-12)
(1.05711 -0.00717775 2.6262e-12)
(1.08559 -0.00600202 -3.18805e-13)
(1.10583 -0.00338077 -4.14025e-12)
(1.11314 -8.01245e-05 -4.88484e-12)
(1.10666 0.00298853 -2.56523e-12)
(1.08909 0.00514458 -3.67839e-13)
(1.06512 0.00611718 1.51497e-12)
(1.03967 0.00597312 3.89426e-12)
(1.01685 0.00491778 1.21912e-12)
(0.999844 0.00313384 -2.50098e-11)
(0.991295 0.000764602 -1.0345e-10)
(0.993302 -0.00196389 -2.57384e-10)
(1.00674 -0.00460994 -4.84171e-10)
(1.03018 -0.00653785 -7.41294e-10)
(1.05935 -0.00713681 -9.54555e-10)
(1.08783 -0.00611571 -1.05108e-09)
(1.10894 -0.00367981 -9.96193e-10)
(1.11789 -0.000476161 -8.08226e-10)
(1.11318 0.00265436 -5.46865e-10)
(1.09679 0.00498705 -2.87328e-10)
(1.07313 0.00613136 -9.04964e-11)
(1.04738 0.00606112 1.26707e-11)
(1.02417 0.00497907 1.20608e-11)
(1.00704 0.00313813 -1.00968e-10)
(0.998577 0.000766488 -3.38164e-10)
(1.00051 -0.00185834 -6.98778e-10)
(1.01322 -0.00430645 -1.15083e-09)
(1.03499 -0.00602573 -1.62672e-09)
(1.0617 -0.00653064 -2.03743e-09)
(1.08767 -0.00562565 -2.29672e-09)
(1.10719 -0.00351073 -2.34407e-09)
(1.11618 -0.000712881 -2.15895e-09)
(1.11319 0.00209735 -1.76621e-09)
(1.09954 0.00431251 -1.23845e-09)
(1.07865 0.00553868 -6.94363e-10)
(1.05504 0.00564747 -2.69149e-10)
(1.03317 0.0047306 -6.56453e-11)
(1.01683 0.00300248 -1.18637e-10)
(1.00879 0.000736597 -3.95307e-10)
(1.01067 -0.00171861 -8.23157e-10)
(1.02248 -0.00391304 -1.3197e-09)
(1.04215 -0.00535883 -1.80979e-09)
(1.06571 -0.00568977 -2.23187e-09)
(1.0881 -0.00481687 -2.53821e-09)
(1.10461 -0.0029722 -2.69194e-09)
(1.1121 -0.000618851 -2.66336e-09)
(1.10962 0.00170872 -2.43111e-09)
(1.09836 0.00355386 -1.99866e-09)
(1.08103 0.00461974 -1.4263e-09)
(1.06119 0.00478126 -8.41808e-10)
(1.04254 0.00405894 -4.01058e-10)
(1.02847 0.00258789 -2.1548e-10)
(1.02164 0.000608121 -3.02654e-10)
(1.02353 -0.00152859 -5.96125e-10)
(1.03397 -0.00338517 -9.94702e-10)
(1.05089 -0.00453591 -1.40797e-09)
(1.07065 -0.00470646 -1.77556e-09)
(1.08893 -0.00387922 -2.06439e-09)
(1.10196 -0.00229769 -2.25631e-09)
(1.10742 -0.000370304 -2.33487e-09)
(1.10485 0.00146919 -2.27726e-09)
(1.09546 0.00287873 -2.06095e-09)
(1.08155 0.00365697 -1.68986e-09)
(1.06592 0.00373019 -1.22089e-09)
(1.05145 0.00311942 -7.61087e-10)
(1.04077 0.00192572 -4.251e-10)
(1.03595 0.000342983 -2.81531e-10)
(1.03808 -0.00133197 -3.29279e-10)
(1.04681 -0.00273753 -5.15123e-10)
(1.06031 -0.00354268 -7.69707e-10)
(1.07555 -0.0035601 -1.03492e-09)
(1.08914 -0.00281525 -1.2731e-09)
(1.09828 -0.00153182 -1.46293e-09)
(1.10143 -4.54393e-05 -1.58996e-09)
(1.09851 0.00130849 -1.63787e-09)
(1.0907 0.0022827 -1.58736e-09)
(1.07993 0.00274876 -1.42658e-09)
(1.0684 0.00267952 -1.16773e-09)
(1.05823 0.00211782 -8.5549e-10)
(1.05128 0.00116305 -5.55624e-10)
(1.04887 -2.02993e-05 -3.28614e-10)
(1.05153 -0.00120062 -2.06806e-10)
(1.05872 -0.00211579 -1.89083e-10)
(1.06881 -0.00254686 -2.51504e-10)
(1.07947 -0.00239525 -3.62582e-10)
(1.08828 -0.00172009 -4.93945e-10)
(1.0934 -0.000714618 -6.23866e-10)
(1.094 0.000363734 -7.35708e-10)
(1.09034 0.00127578 -8.14618e-10)
(1.08353 0.00185894 -8.46112e-10)
(1.07516 0.00204283 -8.18841e-10)
(1.06688 0.0018323 -7.30636e-10)
(1.06024 0.00128351 -5.93307e-10)
(1.05643 0.000493985 -4.3127e-10)
(1.05625 -0.000395255 -2.73553e-10)
(1.05969 -0.00120452 -1.43978e-10)
(1.06613 -0.00175235 -5.52267e-11)
(1.07402 -0.00190191 -8.7662e-12)
(1.0817 -0.00162755 1.45588e-12)
(1.08732 -0.000995015 -1.52611e-11)
(1.08978 -0.000202298 -4.90336e-11)
(1.08906 0.000604108 -9.10074e-11)
(1.0845 0.00116493 -1.3115e-10)
(1.08025 0.00153571 -1.66413e-10)
(1.07046 0.00135764 -1.77798e-10)
(1.00012 -0.000686984 4.31672e-20)
(1.00176 -0.00200616 6.03092e-19)
(1.00535 -0.00333643 1.24608e-18)
(1.01066 -0.00472313 1.91395e-18)
(1.0179 -0.00619453 2.7497e-18)
(1.02718 -0.00771162 3.57812e-18)
(1.03856 -0.0091736 4.02932e-18)
(1.05186 -0.0103611 5.1293e-18)
(1.06654 -0.0110319 4.10637e-18)
(1.08175 -0.0109482 2.70857e-18)
(1.09623 -0.00999058 4.13554e-18)
(1.10883 -0.00844942 7.46269e-18)
(1.11902 -0.00653293 5.14229e-18)
(1.12644 -0.0043511 1.26264e-18)
(1.13081 -0.00183955 -6.39436e-19)
(1.13157 0.00121615 2.78754e-19)
(1.12775 0.00484388 2.34083e-18)
(1.11861 0.00862106 4.32386e-18)
(1.10435 0.0118382 5.82381e-18)
(1.08626 0.0138239 6.95931e-18)
(1.06645 0.0141382 6.19029e-18)
(1.04743 0.0126062 5.54359e-18)
(1.03175 0.00928893 2.09996e-17)
(1.02175 0.00448065 -4.45702e-17)
(1.01926 -0.00124478 -3.90931e-16)
(1.02512 -0.00693269 1.37294e-15)
(1.03855 -0.0112303 9.89373e-15)
(1.0566 -0.0127362 1.7881e-14)
(1.07441 -0.0107097 1.45379e-14)
(1.08682 -0.00563729 6.04807e-15)
(1.09036 0.000939845 1.18131e-15)
(1.0843 0.00721907 -3.83079e-16)
(1.07034 0.0118853 -1.10006e-15)
(1.05141 0.0143296 2.02014e-15)
(1.03077 0.0144389 1.19673e-14)
(1.01154 0.0123034 -1.78629e-14)
(0.996653 0.0080609 -1.93879e-13)
(0.988913 0.00195648 -2.06889e-13)
(0.990753 -0.00540592 1.95429e-12)
(1.00347 -0.0127356 9.77577e-12)
(1.02597 -0.0180683 2.22753e-11)
(1.0539 -0.0194524 3.03122e-11)
(1.08045 -0.0160301 2.68009e-11)
(1.09877 -0.0086877 1.59673e-11)
(1.10462 0.00033296 6.27056e-12)
(1.09761 0.00856025 1.13021e-12)
(1.08057 0.0143148 -5.21282e-13)
(1.05778 0.0170151 -6.12628e-13)
(1.03349 0.0168248 9.28181e-14)
(1.01134 0.0141242 1.72854e-12)
(0.994405 0.00919798 1.11257e-12)
(0.985591 0.00230074 -1.53778e-11)
(0.987488 -0.0059537 -7.29822e-11)
(1.00149 -0.0141643 -1.92324e-10)
(1.0264 -0.0201902 -3.50038e-10)
(1.05756 -0.0219156 -4.67537e-10)
(1.08764 -0.0183639 -4.73726e-10)
(1.10905 -0.0103761 -3.72077e-10)
(1.11675 -0.000307001 -2.24907e-10)
(1.10988 0.00905338 -9.70694e-11)
(1.09139 0.0156228 -2.11134e-11)
(1.06634 0.0185827 1.04229e-11)
(1.03987 0.0181579 1.95951e-11)
(1.01616 0.0149933 8.41408e-12)
(0.998359 0.00964344 -6.70274e-11)
(0.989091 0.00251457 -2.94002e-10)
(0.990583 -0.00574854 -7.56912e-10)
(1.00394 -0.0138259 -1.45744e-09)
(1.02789 -0.0197739 -2.25334e-09)
(1.0581 -0.0217014 -2.88836e-09)
(1.08788 -0.0186881 -3.11895e-09)
(1.11016 -0.0113393 -2.85505e-09)
(1.11985 -0.00161889 -2.20911e-09)
(1.11531 0.00791302 -1.4162e-09)
(1.09856 0.0150411 -7.03826e-10)
(1.07419 0.0185662 -2.09437e-10)
(1.04758 0.0184067 3.41426e-11)
(1.0235 0.0151834 4.73161e-11)
(1.00556 0.00966076 -1.59559e-10)
(0.996437 0.00250983 -6.01788e-10)
(0.998047 -0.00545448 -1.27935e-09)
(1.01096 -0.012932 -2.12397e-09)
(1.03344 -0.0182227 -2.99015e-09)
(1.06118 -0.0198214 -3.69772e-09)
(1.08814 -0.017121 -4.08812e-09)
(1.10832 -0.0107353 -4.06675e-09)
(1.11757 -0.00227209 -3.6293e-09)
(1.11448 0.00623759 -2.86603e-09)
(1.10047 0.0129593 -1.9394e-09)
(1.07909 0.0167048 -1.05108e-09)
(1.05491 0.0170853 -3.8961e-10)
(1.03244 0.0143701 -7.81712e-11)
(1.01555 0.00918927 -1.48862e-10)
(1.00715 0.00234594 -5.5148e-10)
(1.00905 -0.00511907 -1.18145e-09)
(1.02138 -0.0118274 -1.90866e-09)
(1.04198 -0.016264 -2.60546e-09)
(1.06659 -0.0172892 -3.17025e-09)
(1.0898 -0.014632 -3.53619e-09)
(1.10667 -0.00901883 -3.66447e-09)
(1.11403 -0.00187663 -3.53467e-09)
(1.11107 0.00516975 -3.14432e-09)
(1.09916 0.0107447 -2.52378e-09)
(1.08118 0.0139633 -1.76418e-09)
(1.06077 0.0144584 -1.02281e-09)
(1.04168 0.0122924 -4.78834e-10)
(1.02733 0.00786028 -2.56729e-10)
(1.02047 0.0018678 -3.73483e-10)
(1.02269 -0.00463042 -7.47059e-10)
(1.03386 -0.0102958 -1.24898e-09)
(1.05177 -0.0138089 -1.75923e-09)
(1.0725 -0.0143181 -2.1958e-09)
(1.09145 -0.0117741 -2.51623e-09)
(1.10466 -0.00693743 -2.70302e-09)
(1.10981 -0.00106732 -2.74584e-09)
(1.1066 0.00451413 -2.63036e-09)
(1.09641 0.00877375 -2.34309e-09)
(1.08171 0.0111113 -1.89698e-09)
(1.06545 0.0113142 -1.35818e-09)
(1.05055 0.00945082 -8.42932e-10)
(1.03971 0.0058227 -4.73232e-10)
(1.03506 0.00100799 -3.20637e-10)
(1.0377 -0.00409661 -3.81031e-10)
(1.04728 -0.00838252 -5.93088e-10)
(1.06175 -0.0108272 -8.77504e-10)
(1.07786 -0.0108536 -1.16797e-09)
(1.09198 -0.00854725 -1.42217e-09)
(1.10119 -0.00460575 -1.61738e-09)
(1.10397 -6.32158e-05 -1.7399e-09)
(1.10037 0.0040573 -1.77535e-09)
(1.09174 0.00700734 -1.70663e-09)
(1.08017 0.00840335 -1.52413e-09)
(1.06798 0.00816973 -1.2425e-09)
(1.05739 0.00643985 -9.09166e-10)
(1.05031 0.00351446 -5.92422e-10)
(1.04813 -0.000109034 -3.54179e-10)
(1.05135 -0.00372403 -2.26616e-10)
(1.05936 -0.00652291 -2.07215e-10)
(1.07035 -0.00782861 -2.70301e-10)
(1.08178 -0.00733886 -3.83123e-10)
(1.09103 -0.00524243 -5.16696e-10)
(1.09618 -0.00214163 -6.49039e-10)
(1.09643 0.00116967 -7.63248e-10)
(1.09215 0.00395972 -8.44002e-10)
(1.08459 0.00573474 -8.76199e-10)
(1.07546 0.00628418 -8.47958e-10)
(1.06657 0.00562647 -7.56959e-10)
(1.05952 0.00393392 -6.15366e-10)
(1.0556 0.00150282 -4.48251e-10)
(1.05561 -0.00123691 -2.85224e-10)
(1.05957 -0.00373245 -1.5039e-10)
(1.06674 -0.00542088 -5.65053e-11)
(1.07543 -0.00587679 -5.16238e-12)
(1.08377 -0.0050204 9.30964e-12)
(1.08978 -0.00305943 -4.36833e-12)
(1.09228 -0.000606895 -3.68156e-11)
(1.09127 0.00188287 -7.93626e-11)
(1.08616 0.00360957 -1.21706e-10)
(1.08133 0.00476607 -1.59957e-10)
(1.07064 0.00418769 -1.75937e-10)
(1.00012 -0.00113994 5.86583e-22)
(1.00173 -0.00332877 7.85084e-21)
(1.00527 -0.00554081 6.40073e-21)
(1.01053 -0.00785736 1.52986e-20)
(1.01775 -0.0103305 -6.98888e-20)
(1.02708 -0.0128987 -9.5787e-20)
(1.03862 -0.0153946 2.93006e-19)
(1.05225 -0.0174383 -1.64941e-18)
(1.06743 -0.01861 -3.18458e-18)
(1.08325 -0.0184758 6.37179e-18)
(1.09825 -0.0168214 1.66099e-17)
(1.11118 -0.0141905 -3.36335e-18)
(1.12156 -0.0109584 -5.66366e-17)
(1.12914 -0.00732418 -9.4875e-17)
(1.13374 -0.00315479 -7.95037e-17)
(1.13482 0.00197222 -3.8602e-17)
(1.13118 0.00814318 -7.2085e-18)
(1.12186 0.0146189 7.94884e-18)
(1.10697 0.0201459 1.35238e-17)
(1.08791 0.0235576 1.37484e-17)
(1.06693 0.0241116 -1.34781e-18)
(1.04672 0.0215243 1.856e-17)
(1.03 0.0158998 1.48483e-16)
(1.01926 0.00771425 -7.59853e-16)
(1.01654 -0.00209713 -2.85057e-15)
(1.02294 -0.0119284 1.74579e-14)
(1.03783 -0.0194264 9.21491e-14)
(1.05802 -0.0220976 1.68168e-13)
(1.078 -0.0185989 1.51579e-13)
(1.09186 -0.00978412 7.07145e-14)
(1.09569 0.00160994 1.50727e-14)
(1.08889 0.0124142 -4.4752e-15)
(1.07356 0.0203735 -7.72787e-15)
(1.05306 0.0245054 2.19991e-14)
(1.03088 0.0246827 7.34954e-14)
(1.01022 0.0210881 -2.08419e-13)
(0.994072 0.0139308 -1.33928e-12)
(0.98539 0.00355432 -5.78825e-13)
(0.986992 -0.00909313 1.52918e-11)
(1.00065 -0.0218182 6.44782e-11)
(1.02543 -0.0311588 1.38355e-10)
(1.05646 -0.0336234 1.88192e-10)
(1.08589 -0.0276728 1.72228e-10)
(1.10585 -0.0148936 1.07052e-10)
(1.1117 0.00073138 4.40778e-11)
(1.10335 0.0148658 8.99051e-12)
(1.08428 0.0246362 -3.27924e-12)
(1.05941 0.0291372 -4.18358e-12)
(1.0333 0.0287496 9.84103e-13)
(1.00959 0.0241725 1.11828e-11)
(0.991322 0.0158644 3.44164e-12)
(0.981419 0.0041729 -1.11513e-10)
(0.982704 -0.00994615 -4.93688e-10)
(0.996966 -0.0241338 -1.24909e-09)
(1.02335 -0.034674 -2.20946e-09)
(1.05718 -0.0378144 -2.91138e-09)
(1.09047 -0.0317553 -2.93831e-09)
(1.11451 -0.0179233 -2.29588e-09)
(1.12332 -0.000469012 -1.37794e-09)
(1.11579 0.0156862 -5.98052e-10)
(1.09544 0.0269153 -1.37072e-10)
(1.0681 0.0318704 4.82341e-11)
(1.03954 0.0310544 8.43381e-11)
(1.01411 0.0256679 3.17428e-11)
(0.994859 0.016668 -1.96021e-10)
(0.984356 0.00466056 -8.00339e-10)
(0.98509 -0.0093775 -1.94214e-09)
(0.998621 -0.0232588 -3.54769e-09)
(1.02391 -0.0336256 -5.25729e-09)
(1.05634 -0.0371439 -6.5718e-09)
(1.08853 -0.0321523 -7.05866e-09)
(1.11274 -0.0196546 -6.52427e-09)
(1.12344 -0.00302562 -5.13104e-09)
(1.11887 0.0133167 -3.34687e-09)
(1.10121 0.0255488 -1.6983e-09)
(1.07538 0.0316133 -5.34755e-10)
(1.04712 0.0313953 4.93093e-11)
(1.02145 0.0259834 1.10767e-10)
(1.00215 0.0166687 -2.8862e-10)
(0.992137 0.00452818 -1.12128e-09)
(0.993687 -0.00910936 -2.31543e-09)
(1.00764 -0.0220024 -3.68342e-09)
(1.03212 -0.031147 -4.96708e-09)
(1.06216 -0.0338874 -5.94272e-09)
(1.09097 -0.0291976 -6.46195e-09)
(1.11205 -0.0182163 -6.42478e-09)
(1.12115 -0.00377106 -5.78506e-09)
(1.11717 0.0106623 -4.61701e-09)
(1.10191 0.0220083 -3.15275e-09)
(1.07921 0.028314 -1.72508e-09)
(1.05379 0.0289632 -6.52344e-10)
(1.03024 0.0244054 -1.37992e-10)
(1.01254 0.01565 -2.30026e-10)
(1.00388 0.0039886 -8.34205e-10)
(1.00639 -0.00882696 -1.75617e-09)
(1.02027 -0.0203785 -2.76275e-09)
(1.04307 -0.0279724 -3.6562e-09)
(1.06986 -0.0296051 -4.32326e-09)
(1.09455 -0.0248558 -4.72526e-09)
(1.11182 -0.015076 -4.84746e-09)
(1.11849 -0.0028035 -4.66276e-09)
(1.11409 0.00915726 -4.14601e-09)
(1.10047 0.0185036 -3.32451e-09)
(1.08089 0.0238102 -2.31955e-09)
(1.05921 0.0245243 -1.34378e-09)
(1.03928 0.0207725 -6.34149e-10)
(1.02458 0.0131907 -3.50399e-10)
(1.01803 0.00292982 -5.07173e-10)
(1.02135 -0.00822122 -9.84926e-10)
(1.03434 -0.0179255 -1.60354e-09)
(1.05441 -0.02386 -2.20445e-09)
(1.07706 -0.0245478 -2.69403e-09)
(1.09715 -0.0199544 -3.03826e-09)
(1.11047 -0.0114717 -3.23041e-09)
(1.11473 -0.00133124 -3.26096e-09)
(1.10994 0.00817997 -3.10856e-09)
(1.0979 0.0153238 -2.75557e-09)
(1.08148 0.0191338 -2.21989e-09)
(1.06387 0.0193049 -1.5835e-09)
(1.04817 0.0159813 -9.84356e-10)
(1.03718 0.00967192 -5.624e-10)
(1.03311 0.00135022 -3.94673e-10)
(1.0371 -0.00744021 -4.6852e-10)
(1.04857 -0.0147637 -7.06755e-10)
(1.0651 -0.0188349 -1.0166e-09)
(1.08289 -0.0186725 -1.32612e-09)
(1.09791 -0.0144776 -1.59374e-09)
(1.10706 -0.00752049 -1.79872e-09)
(1.10889 0.000370101 -1.9266e-09)
(1.10375 0.00742506 -1.95981e-09)
(1.09334 0.0123831 -1.87846e-09)
(1.08009 0.0146277 -1.67255e-09)
(1.06658 0.0140671 -1.36017e-09)
(1.05522 0.0109493 -9.95231e-10)
(1.04804 0.00579385 -6.5262e-10)
(1.04649 -0.000540051 -3.97645e-10)
(1.05105 -0.00681694 -2.6158e-10)
(1.06084 -0.0116164 -2.38416e-10)
(1.07369 -0.013756 -2.99294e-10)
(1.08658 -0.0127323 -4.10383e-10)
(1.09657 -0.00891907 -5.43497e-10)
(1.10162 -0.00341086 -6.77783e-10)
(1.101 0.00238574 -7.9634e-10)
(1.09533 0.00720126 -8.8243e-10)
(1.08617 0.0102012 -9.18674e-10)
(1.07553 0.0110498 -8.91127e-10)
(1.06543 0.00980127 -7.96677e-10)
(1.05767 0.00676325 -6.48301e-10)
(1.05365 0.00245066 -4.72826e-10)
(1.05423 -0.00238428 -3.01397e-10)
(1.05937 -0.00676396 -1.58739e-10)
(1.0681 -0.00968797 -5.74587e-11)
(1.07838 -0.0104092 1.05205e-12)
(1.08798 -0.00880085 2.21515e-11)
(1.09462 -0.00526161 1.36716e-11)
(1.09706 -0.000887129 -1.60344e-11)
(1.09532 0.00350716 -5.89279e-11)
(1.08903 0.00651149 -1.04509e-10)
(1.08296 0.00855565 -1.47603e-10)
(1.07053 0.00736954 -1.71178e-10)
(1.00012 -0.00158501 -3.73065e-20)
(1.00169 -0.00462712 -7.03934e-19)
(1.00515 -0.00771255 -1.43047e-18)
(1.01032 -0.0109659 -2.24971e-18)
(1.01749 -0.0144716 -4.00696e-18)
(1.02687 -0.0181519 -2.53396e-18)
(1.03866 -0.0217746 -7.25756e-18)
(1.0528 -0.0247774 -2.08255e-17)
(1.06874 -0.0265382 2.55561e-17)
(1.08551 -0.0263626 6.74597e-17)
(1.10132 -0.0239164 -9.27949e-17)
(1.11474 -0.0200976 -3.68395e-16)
(1.1254 -0.0154992 -4.94267e-16)
(1.13319 -0.0104439 -3.70426e-16)
(1.13817 -0.0046996 -1.08598e-16)
(1.13976 0.00247394 8.71954e-17)
(1.13645 0.0113115 1.41073e-16)
(1.12685 0.0207247 1.14722e-16)
(1.11096 0.0288142 7.53425e-17)
(1.09034 0.0338387 1.5301e-17)
(1.06756 0.0347223 -3.00389e-17)
(1.04554 0.0310689 2.14121e-16)
(1.02722 0.0230206 -1.1594e-15)
(1.01533 0.011214 -1.35572e-15)
(1.01224 -0.0030796 3.09231e-14)
(1.01946 -0.0175786 -6.43472e-14)
(1.03663 -0.0287778 -7.19088e-13)
(1.06021 -0.0328377 -1.34026e-12)
(1.08365 -0.0276371 -1.00642e-12)
(1.09978 -0.0144712 -3.32072e-13)
(1.104 0.00244379 -2.3153e-14)
(1.09592 0.0182991 8.47184e-15)
(1.07836 0.0298027 1.41795e-15)
(1.05539 0.0356646 1.17592e-13)
(1.03085 0.0358542 9.13155e-14)
(1.00804 0.0307076 -1.1504e-12)
(0.989984 0.0204789 -2.59807e-12)
(0.979879 0.00550477 5.22461e-12)
(0.9811 -0.0130239 3.35146e-11)
(0.99613 -0.0319467 6.2287e-11)
(1.02433 -0.0459838 6.5704e-11)
(1.06024 -0.0497044 7.58418e-11)
(1.09435 -0.0407306 1.09734e-10)
(1.11704 -0.0215745 1.15823e-10)
(1.12285 0.00161233 7.91949e-11)
(1.1122 0.0222871 3.26652e-11)
(1.08978 0.0362853 5.48748e-13)
(1.06158 0.0425024 -8.71365e-12)
(1.03266 0.0417293 7.25469e-12)
(1.00666 0.0351085 3.77922e-11)
(0.98638 0.0232849 -2.44012e-11)
(0.974579 0.00662066 -4.93288e-10)
(0.974311 -0.0137112 -1.80416e-09)
(0.988113 -0.034479 -4.08206e-09)
(1.01595 -0.0503071 -6.7406e-09)
(1.05328 -0.0554954 -8.66333e-09)
(1.09121 -0.0470386 -8.88276e-09)
(1.11957 -0.0267876 -7.26235e-09)
(1.13088 -0.000926138 -4.64549e-09)
(1.12333 0.0230085 -2.19882e-09)
(1.10083 0.039469 -6.10931e-10)
(1.07037 0.0465208 9.58013e-11)
(1.03874 0.0451435 2.49635e-10)
(1.01071 0.0373309 8.52405e-11)
(0.989261 0.0245237 -4.84103e-10)
(0.97701 0.00740917 -1.73702e-09)
(0.976991 -0.0128688 -3.76964e-09)
(0.991471 -0.0332334 -6.24378e-09)
(1.01947 -0.0486441 -8.56754e-09)
(1.0555 -0.0540254 -1.02491e-08)
(1.09095 -0.0468914 -1.09729e-08)
(1.11723 -0.0287781 -1.04899e-08)
(1.12856 -0.00466023 -8.73312e-09)
(1.12338 0.0190417 -6.09095e-09)
(1.1042 0.0367852 -3.33869e-09)
(1.07629 0.0456018 -1.20325e-09)
(1.04579 0.0453612 -3.55449e-11)
(1.01798 0.0376644 1.57528e-10)
(0.996933 0.0243204 -4.94951e-10)
(0.986039 0.00674953 -1.81582e-09)
(0.988147 -0.013197 -3.52069e-09)
(1.00432 -0.0321443 -5.22218e-09)
(1.03215 -0.0454933 -6.59537e-09)
(1.06564 -0.0492606 -7.51927e-09)
(1.09688 -0.0420651 -8.01701e-09)
(1.11879 -0.0258148 -8.06932e-09)
(1.12713 -0.00481589 -7.53522e-09)
(1.12129 0.0158732 -6.30564e-09)
(1.10373 0.0319418 -4.52473e-09)
(1.0788 0.0407584 -2.61064e-09)
(1.05149 0.041561 -1.07474e-09)
(1.02646 0.0349897 -2.95e-10)
(1.00788 0.0223701 -3.83526e-10)
(0.999298 0.00542783 -1.17968e-09)
(1.0032 -0.0133076 -2.3424e-09)
(1.01974 -0.0301705 -3.50526e-09)
(1.04581 -0.041065 -4.42596e-09)
(1.07554 -0.043037 -5.04003e-09)
(1.10206 -0.035611 -5.39658e-09)
(1.11959 -0.0209756 -5.53955e-09)
(1.12503 -0.00300079 -5.42788e-09)
(1.11836 0.0141901 -4.96162e-09)
(1.10206 0.0273485 -4.09459e-09)
(1.08 0.034585 -2.93385e-09)
(1.0564 0.0352584 -1.74904e-09)
(1.03526 0.0296045 -8.65798e-10)
(1.02025 0.0184849 -5.05353e-10)
(1.01445 0.00348757 -6.81425e-10)
(1.01971 -0.012783 -1.22249e-09)
(1.03553 -0.0268271 -1.89015e-09)
(1.05868 -0.0351737 -2.50017e-09)
(1.08384 -0.0356948 -2.97198e-09)
(1.10526 -0.0284762 -3.30305e-09)
(1.11847 -0.0157172 -3.51015e-09)
(1.12132 -0.000792212 -3.58167e-09)
(1.11419 0.0129378 -3.47003e-09)
(1.09946 0.0230047 -3.12598e-09)
(1.08054 0.0281219 -2.55216e-09)
(1.061 0.0279619 -1.8423e-09)
(1.0442 0.022793 -1.16487e-09)
(1.03314 0.013353 -6.88105e-10)
(1.03014 0.00105045 -4.97872e-10)
(1.03628 -0.0118278 -5.70268e-10)
(1.0506 -0.0223867 -8.10339e-10)
(1.07 -0.0279885 -1.11515e-09)
(1.08998 -0.02726 -1.41468e-09)
(1.10602 -0.0206276 -1.67668e-09)
(1.11486 -0.010088 -1.88852e-09)
(1.11521 0.00159947 -2.03587e-09)
(1.10781 0.011838 -2.09253e-09)
(1.09486 0.0188366 -2.02625e-09)
(1.07924 0.0217778 -1.81845e-09)
(1.06391 0.0206016 -1.48748e-09)
(1.05154 0.0157106 -1.09561e-09)
(1.04436 0.0078786 -7.28082e-10)
(1.04393 -0.00161323 -4.55958e-10)
(1.05057 -0.0109011 -3.09713e-10)
(1.06301 -0.017844 -2.78948e-10)
(1.07844 -0.0206962 -3.31238e-10)
(1.09324 -0.018781 -4.32514e-10)
(1.10408 -0.0127594 -5.57372e-10)
(1.10877 -0.00434916 -6.88519e-10)
(1.10678 0.00431935 -8.10755e-10)
(1.09907 0.0113754 -9.05762e-10)
(1.08763 0.0156315 -9.51944e-10)
(1.07487 0.0166503 -9.30765e-10)
(1.06312 0.0145564 -8.36594e-10)
(1.05445 0.00982436 -6.82944e-10)
(1.05044 0.00322576 -4.99186e-10)
(1.05203 -0.00410101 -3.18994e-10)
(1.05901 -0.0106633 -1.68282e-10)
(1.07005 -0.0149352 -5.95366e-11)
(1.08255 -0.0158096 6.39269e-12)
(1.0938 -0.0131407 3.49491e-11)
(1.10114 -0.00760812 3.32044e-11)
(1.10331 -0.000895685 8.13824e-12)
(1.10038 0.00573931 -3.35255e-11)
(1.09237 0.0101802 -8.16657e-11)
(1.08445 0.0132508 -1.29911e-10)
(1.06964 0.0110965 -1.62564e-10)
(1.00012 -0.00201765 -3.07978e-18)
(1.00163 -0.00588782 -1.11704e-17)
(1.00497 -0.00983218 -1.04497e-17)
(1.01 -0.0140297 -1.41635e-17)
(1.01708 -0.0186096 -1.49727e-17)
(1.0265 -0.0234889 -6.84362e-18)
(1.0386 -0.0283742 -6.31855e-17)
(1.05342 -0.0324915 3.2932e-17)
(1.07043 -0.03498 2.50759e-16)
(1.08856 -0.0347751 -2.987e-16)
(1.1055 -0.0313818 -1.48044e-15)
(1.11955 -0.0262151 -9.81125e-16)
(1.1305 -0.0201549 2.73241e-15)
(1.13851 -0.0136953 6.97226e-15)
(1.14398 -0.00644247 7.63952e-15)
(1.14636 0.00283411 5.24511e-15)
(1.1436 0.014624 2.55e-15)
(1.13369 0.0273952 7.77743e-16)
(1.11645 0.0384167 -6.02297e-17)
(1.0937 0.0452607 -5.34136e-16)
(1.06843 0.0465108 4.03955e-16)
(1.0439 0.0416937 -8.57118e-16)
(1.02334 0.031005 -2.08746e-14)
(1.00979 0.0152087 6.46094e-14)
(1.00607 -0.0041555 3.30552e-13)
(1.01434 -0.0241222 -1.63864e-12)
(1.03468 -0.0398086 -9.16762e-12)
(1.06312 -0.0456264 -1.68952e-11)
(1.09156 -0.0383878 -1.54186e-11)
(1.11094 -0.019942 -7.34227e-12)
(1.11565 0.00356258 -1.60626e-12)
(1.10564 0.0252471 1.67662e-13)
(1.08487 0.0406396 3.62077e-13)
(1.05842 0.0482587 2.91961e-13)
(1.03066 0.0483546 -1.04928e-12)
(1.00494 0.0415193 -1.63183e-12)
(0.984294 0.0280114 1.27509e-11)
(0.972131 0.00800568 2.48843e-11)
(0.972326 -0.0172024 -1.56809e-10)
(0.988051 -0.0434247 -8.80244e-10)
(1.01945 -0.0632204 -2.07295e-09)
(1.06126 -0.0686549 -2.88896e-09)
(1.10252 -0.0560814 -2.59449e-09)
(1.13053 -0.0291215 -1.52195e-09)
(1.13759 0.00317941 -5.36185e-10)
(1.12429 0.0314162 -4.77896e-11)
(1.09723 0.049946 5.66843e-11)
(1.06432 0.0576914 3.3622e-11)
(1.03156 0.0562013 4.51525e-11)
(1.0025 0.0473087 7.54863e-11)
(0.979355 0.0319077 -2.06339e-10)
(0.964534 0.0102193 -1.48916e-09)
(0.961686 -0.0166963 -4.34998e-09)
(0.974854 -0.0449474 -8.48055e-09)
(1.00503 -0.0672661 -1.26763e-08)
(1.04708 -0.0754636 -1.5616e-08)
(1.09052 -0.0649066 -1.63132e-08)
(1.12368 -0.0377365 -1.42903e-08)
(1.13803 -0.00232238 -1.0118e-08)
(1.13103 0.0307256 -5.45206e-09)
(1.10663 0.053392 -1.9007e-09)
(1.07277 0.0629036 -3.40382e-11)
(1.0374 0.0608744 4.99232e-10)
(1.00598 0.050403 1.6872e-10)
(0.981657 0.0335194 -9.6468e-10)
(0.96747 0.0108045 -3.0333e-09)
(0.967382 -0.0165973 -5.80052e-09)
(0.984294 -0.0444957 -8.55883e-09)
(1.01665 -0.0656514 -1.0674e-08)
(1.05743 -0.0729011 -1.2017e-08)
(1.09649 -0.0630191 -1.27301e-08)
(1.12442 -0.0384425 -1.26845e-08)
(1.13548 -0.00607988 -1.14133e-08)
(1.12863 0.0255165 -8.74854e-09)
(1.10703 0.0490938 -5.33042e-09)
(1.07645 0.0608073 -2.24576e-09)
(1.04326 0.060542 -3.37567e-10)
(1.013 0.0504045 1.01538e-10)
(0.99012 0.0326389 -7.80329e-10)
(0.978712 0.00892861 -2.54998e-09)
(0.982264 -0.0182395 -4.59247e-09)
(1.00176 -0.044004 -6.31896e-09)
(1.03383 -0.0618171 -7.43619e-09)
(1.07116 -0.0662657 -8.02146e-09)
(1.10488 -0.0557777 -8.32815e-09)
(1.12738 -0.0333291 -8.47832e-09)
(1.13449 -0.00500196 -8.2807e-09)
(1.12609 0.0223779 -7.38309e-09)
(1.10542 0.0432505 -5.67525e-09)
(1.07754 0.0544258 -3.52381e-09)
(1.04778 0.0551251 -1.61679e-09)
(1.02103 0.0462045 -5.72649e-10)
(1.00168 0.029232 -6.20408e-10)
(0.993711 0.00633235 -1.53091e-09)
(0.999842 -0.0190397 -2.80033e-09)
(1.01985 -0.0416829 -3.94938e-09)
(1.0497 -0.0558849 -4.7388e-09)
(1.08249 -0.057738 -5.1856e-09)
(1.11065 -0.0468776 -5.43444e-09)
(1.12817 -0.0265535 -5.59552e-09)
(1.13204 -0.00217913 -5.6309e-09)
(1.12266 0.020648 -5.36342e-09)
(1.10316 0.0376828 -4.62891e-09)
(1.07807 0.0466365 -3.46333e-09)
(1.0521 0.046888 -2.16383e-09)
(1.02956 0.0388437 -1.14884e-09)
(1.01439 0.0235944 -7.14134e-10)
(1.00989 0.00320274 -8.7649e-10)
(1.01784 -0.0187576 -1.41589e-09)
(1.03721 -0.0374105 -2.05131e-09)
(1.06383 -0.0480163 -2.59452e-09)
(1.09152 -0.0478454 -2.9914e-09)
(1.11405 -0.0372705 -3.27471e-09)
(1.12681 -0.0194895 -3.48846e-09)
(1.12785 0.000819605 -3.626e-09)
(1.11798 0.0191116 -3.6132e-09)
(1.10013 0.0321492 -3.35331e-09)
(1.07828 0.0383608 -2.81177e-09)
(1.0565 0.0374651 -2.07989e-09)
(1.03851 0.0299091 -1.35471e-09)
(1.02758 0.016704 -8.36325e-10)
(1.02619 -0.000219967 -6.21844e-10)
(1.03521 -0.0176711 -6.77994e-10)
(1.05303 -0.0316263 -8.96395e-10)
(1.07567 -0.0385271 -1.16962e-09)
(1.09787 -0.0366829 -1.43373e-09)
(1.11469 -0.0269105 -1.66857e-09)
(1.12283 -0.0121077 -1.87374e-09)
(1.12128 0.0038992 -2.04018e-09)
(1.11118 0.0176047 -2.13453e-09)
(1.09525 0.0266673 -2.10726e-09)
(1.07691 0.0300972 -1.923e-09)
(1.05952 0.027914 -1.59416e-09)
(1.04612 0.0207192 -1.18968e-09)
(1.03922 0.00959775 -8.06396e-10)
(1.04044 -0.00364282 -5.22589e-10)
(1.04985 -0.016358 -3.68575e-10)
(1.06556 -0.0255507 -3.29795e-10)
(1.08393 -0.0288718 -3.70393e-10)
(1.1007 -0.0255488 -4.56115e-10)
(1.11216 -0.0166792 -5.64853e-10)
(1.11614 -0.00475936 -6.84641e-10)
(1.11233 0.00723809 -8.04671e-10)
(1.10212 0.0167762 -9.06915e-10)
(1.08796 0.022303 -9.65359e-10)
(1.07272 0.0233039 -9.54963e-10)
(1.05912 0.0200096 -8.65436e-10)
(1.04955 0.0131006 -7.09742e-10)
(1.04583 0.00366392 -5.199e-10)
(1.04894 -0.00667316 -3.32757e-10)
(1.0584 -0.0157699 -1.75995e-10)
(1.07231 -0.0214673 -6.21756e-11)
(1.08737 -0.0222756 8.70922e-12)
(1.10033 -0.0180973 4.29372e-11)
(1.10819 -0.0100231 4.75808e-11)
(1.10975 -0.000452268 2.84358e-11)
(1.1052 0.00882258 -9.67669e-12)
(1.09503 0.0148779 -5.7988e-11)
(1.08483 0.0191169 -1.09787e-10)
(1.06734 0.0154957 -1.50433e-10)
(1.00011 -0.00243229 2.90916e-18)
(1.00155 -0.00709421 1.06757e-17)
(1.00471 -0.0118746 1.25699e-17)
(1.00954 -0.0170216 2.94449e-18)
(1.01646 -0.0227267 6.07766e-17)
(1.02589 -0.0289189 -8.16119e-17)
(1.03835 -0.0352528 -3.19285e-18)
(1.05401 -0.0407055 8.54948e-16)
(1.07244 -0.0441298 -1.10423e-15)
(1.09241 -0.0439137 -3.92549e-15)
(1.11087 -0.0393382 1.05905e-15)
(1.12568 -0.0325924 1.51994e-14)
(1.13691 -0.0249587 3.48274e-14)
(1.14512 -0.0171967 5.18556e-14)
(1.15124 -0.00867232 5.01817e-14)
(1.1548 0.00261489 3.16179e-14)
(1.15291 0.0176327 1.35369e-14)
(1.14264 0.0343041 2.30656e-15)
(1.12357 0.0488037 -3.08204e-15)
(1.09798 0.0578403 -3.7493e-15)
(1.0694 0.059617 2.80026e-15)
(1.0416 0.0536082 -2.88762e-14)
(1.0181 0.0400739 -2.4556e-14)
(1.0023 0.0198531 4.1218e-13)
(0.997577 -0.0053453 -4.98126e-13)
(1.00708 -0.0318782 -2.88828e-12)
(1.03169 -0.0531751 5.01814e-12)
(1.06687 -0.0613018 1.21081e-11)
(1.10222 -0.0515557 -2.91695e-13)
(1.12598 -0.0264936 -1.00916e-11)
(1.13118 0.00512614 -6.71822e-12)
(1.11837 0.0337089 -1.20458e-12)
(1.09318 0.0534116 1.23324e-12)
(1.06214 0.0627668 -3.94309e-13)
(1.03023 0.0625935 -5.14642e-12)
(1.00086 0.0538877 1.40622e-11)
(0.97692 0.0368847 8.47674e-11)
(0.961676 0.0115023 -5.36865e-11)
(0.958915 -0.0209592 -1.30229e-09)
(0.97255 -0.0554878 -4.55792e-09)
(1.00483 -0.0825964 -9.07979e-09)
(1.05229 -0.09127 -1.22787e-08)
(1.10311 -0.0753889 -1.18615e-08)
(1.14074 -0.0391047 -8.16024e-09)
(1.15294 0.00475652 -3.80643e-09)
(1.13869 0.042483 -9.57674e-10)
(1.1066 0.0662662 1.21333e-10)
(1.06774 0.0753293 2.50924e-10)
(1.03 0.0726343 1.9766e-10)
(0.996982 0.0612073 8.53848e-11)
(0.970015 0.042269 -7.42465e-10)
(0.951292 0.0154667 -3.26661e-09)
(0.945981 -0.0188566 -7.64904e-09)
(0.96019 -0.0561495 -1.26448e-08)
(0.995059 -0.0864377 -1.67365e-08)
(1.04339 -0.0982653 -1.93822e-08)
(1.09238 -0.0853427 -2.05216e-08)
(1.12919 -0.0505129 -1.94966e-08)
(1.14524 -0.00456696 -1.56194e-08)
(1.13812 0.0387258 -9.77919e-09)
(1.11176 0.068599 -4.22597e-09)
(1.07453 0.0811236 -6.602e-10)
(1.03521 0.0785263 6.64627e-10)
(0.999923 0.0651976 2.32487e-10)
(0.972416 0.0437776 -1.58167e-09)
(0.956664 0.014556 -4.42701e-09)
(0.957708 -0.0212692 -7.53897e-09)
(0.978468 -0.057865 -9.97529e-09)
(1.01601 -0.0852243 -1.13226e-08)
(1.06156 -0.0939685 -1.19106e-08)
(1.10384 -0.0804009 -1.23266e-08)
(1.13293 -0.0482594 -1.26964e-08)
(1.14311 -0.00674272 -1.23589e-08)
(1.13388 0.0332787 -1.04851e-08)
(1.10916 0.062879 -7.14673e-09)