/*--------------------------------*- C++ -*----------------------------------*\
  =========                 |
  \\      /  F ield         | OpenFOAM: The Open Source CFD Toolbox
   \\    /   O peration     | Website:  https://openfoam.org
    \\  /    A nd           | Version:  11
     \\/     M anipulation  |
\*---------------------------------------------------------------------------*/
FoamFile
{
    format      ascii;
    class       surfaceScalarField;
    location    "19.156933";
    object      phi_0;
}
// * * * * * * * * * * * * * * * * * * * * * * * * * * * * * * * * * * * * * //

dimensions      [0 3 -1 0 0 0 0];

internalField   nonuniform List<scalar> 
14638
(
0.00250209
-2.09243e-06
0.0025086
-6.512e-06
0.00252009
-1.1486e-05
0.00253717
-1.70834e-05
0.00256038
-2.3206e-05
0.00258982
-2.94396e-05
0.00262495
-3.51275e-05
0.00266412
-3.91711e-05
0.00270457
-4.0452e-05
0.00274237
-3.77983e-05
0.00277301
-3.06427e-05
0.00279274
-1.97309e-05
0.00279899
-6.25262e-06
0.00279065
8.34616e-06
0.00276867
2.19833e-05
0.00273655
3.21181e-05
0.00269991
3.66409e-05
0.00266535
3.45575e-05
0.00263925
2.61027e-05
0.00262649
1.27564e-05
0.00262939
-2.90429e-06
0.0026467
-1.73086e-05
0.00267301
-2.63086e-05
0.00269952
-2.65056e-05
0.00271667
-1.71535e-05
0.00271764
-9.68431e-07
0.00270041
1.72243e-05
0.00266759
3.28234e-05
0.00262471
4.28844e-05
0.00257857
4.61358e-05
0.00253624
4.23324e-05
0.00250454
3.16991e-05
0.00248969
1.48499e-05
0.00249647
-6.78077e-06
0.00252656
-3.00917e-05
0.00257635
-4.97866e-05
0.00263588
-5.95268e-05
0.00269081
-5.49389e-05
0.00272732
-3.6509e-05
0.00273711
-9.78263e-06
0.0027196
1.75046e-05
0.00268061
3.89923e-05
0.00262906
5.15499e-05
0.00257427
5.4784e-05
0.00252475
4.95218e-05
0.00248813
3.66188e-05
0.00247137
1.67671e-05
0.00248002
-8.64883e-06
0.00251614
-3.61251e-05
0.00257554
-5.93957e-05
0.00264655
-7.10168e-05
0.00271247
-6.59156e-05
0.00275704
-4.45664e-05
0.00277029
-1.32591e-05
0.0027514
1.88935e-05
0.00270738
4.40232e-05
0.00264926
5.81179e-05
0.00258834
6.09229e-05
0.00253422
5.41138e-05
0.00249478
3.94474e-05
0.00247665
1.81296e-05
0.00248496
-8.30939e-06
0.00252137
-3.64171e-05
0.00258157
-6.01931e-05
0.00265417
-7.26075e-05
0.00272291
-6.87399e-05
0.00277147
-4.85567e-05
0.00278889
-1.74173e-05
0.00277282
1.60684e-05
0.00272933
4.34917e-05
0.00266974
5.95826e-05
0.00260661
6.31306e-05
0.0025508
5.58175e-05
0.00251063
4.01679e-05
0.00249235
1.82777e-05
0.00250012
-7.76597e-06
0.00253459
-3.44738e-05
0.00259103
-5.64363e-05
0.00265876
-6.77322e-05
0.00272327
-6.45071e-05
0.00277022
-4.69493e-05
0.00278964
-1.94219e-05
0.0027785
1.11374e-05
0.00274094
3.7562e-05
0.00268636
5.45821e-05
0.00262644
5.992e-05
0.00257236
5.40736e-05
0.00253323
3.91295e-05
0.00251559
1.76451e-05
0.00252303
-7.43845e-06
0.00255516
-3.21287e-05
0.00260651
-5.13558e-05
0.00266683
-6.03198e-05
0.00272331
-5.64781e-05
0.00276406
-4.07543e-05
0.00278125
-1.71912e-05
0.00277269
8.56486e-06
0.00274167
3.10165e-05
0.00269557
4.61025e-05
0.00264386
5.17128e-05
0.00259628
4.75743e-05
0.00256148
3.48062e-05
0.00254593
1.55466e-05
0.00255298
-7.05261e-06
0.00258174
-2.87562e-05
0.00262656
-4.48193e-05
0.00267792
-5.13633e-05
0.00272478
-4.68616e-05
0.00275755
-3.27656e-05
0.00277043
-1.28853e-05
0.0027624
8.03162e-06
0.00273666
2.57381e-05
0.00269931
3.7352e-05
0.00265784
4.1477e-05
0.00261993
3.79085e-05
0.00259257
2.73621e-05
0.00258108
1.14814e-05
0.00258807
-6.98306e-06
0.00261235
-2.42796e-05
0.00264878
-3.64345e-05
0.0026893
-4.05163e-05
0.00272502
-3.57267e-05
0.0027487
-2.36717e-05
0.00275638
-7.67998e-06
0.00274797
8.40535e-06
0.00272661
2.1365e-05
0.00269739
2.92119e-05
0.00266622
3.11757e-05
0.00263885
2.73688e-05
0.00262031
1.85403e-05
0.00261419
6.117e-06
0.00262184
-7.64951e-06
0.00264169
-1.98506e-05
0.0026693
-2.76102e-05
0.00269835
-2.90451e-05
0.00272232
-2.39753e-05
0.00273629
-1.39702e-05
0.00273802
-1.7304e-06
0.00272817
9.84793e-06
0.00270968
1.84926e-05
0.00268674
2.29388e-05
0.00266388
2.28591e-05
0.0026453
1.85845e-05
0.00263438
1.09166e-05
0.00263324
1.14578e-06
0.00264213
-8.89431e-06
0.00265917
-1.70353e-05
0.00268049
-2.13262e-05
0.00270121
-2.07156e-05
0.00271667
-1.54595e-05
0.00272373
-7.0589e-06
0.00272142
2.31204e-06
0.00271095
1.04636e-05
0.00269511
1.5844e-05
0.00267741
1.76929e-05
0.00266153
1.58878e-05
0.00265025
1.12792e-05
0.00264684
3.40341e-06
0.0026496
-2.76086e-06
-1.68346e-05
0.00250207
-4.16391e-06
0.00250853
-1.29688e-05
0.00251995
-2.2903e-05
0.00253699
-3.41243e-05
0.00256023
-4.64514e-05
0.00258986
-5.90684e-05
0.0026254
-7.06672e-05
0.00266524
-7.90081e-05
0.00270659
-8.18066e-05
0.00274538
-7.65887e-05
0.00277689
-6.21481e-05
0.00279722
-4.00661e-05
0.00280372
-1.27473e-05
0.00279512
1.69408e-05
0.00277233
4.47782e-05
0.00273892
6.55241e-05
0.00270075
7.48156e-05
0.00266469
7.06098e-05
0.00263743
5.337e-05
0.00262411
2.60728e-05
0.0026273
-6.09083e-06
0.00264583
-3.58433e-05
0.0026741
-5.45803e-05
0.00270274
-5.51411e-05
0.00272148
-3.5899e-05
0.00272305
-2.53394e-06
0.0027054
3.48701e-05
0.00267143
6.68e-05
0.002627
8.73131e-05
0.00257917
9.39659e-05
0.00253513
8.63687e-05
0.00250186
6.49756e-05
0.00248581
3.08975e-05
0.0024922
-1.31701e-05
0.00252317
-6.10618e-05
0.00257525
-0.000101864
0.00263799
-0.000122272
0.00269605
-0.000113001
0.00273456
-7.50153e-05
0.00274473
-1.99478e-05
0.00272618
3.60458e-05
0.00268533
7.98498e-05
0.00263164
0.000105233
0.00257476
0.00011167
0.00252325
0.000101033
0.00248481
7.50514e-05
0.00246667
3.49078e-05
0.00247492
-1.68976e-05
0.00251218
-7.33859e-05
0.00257438
-0.000121594
0.00264925
-0.000145885
0.00271885
-0.000135516
0.00276573
-9.14454e-05
0.00277935
-2.68828e-05
0.00275909
3.91547e-05
0.00271269
9.04194e-05
0.00265196
0.000118848
0.00258864
0.00012425
0.0025324
0.000110346
0.00249104
8.08081e-05
0.00247126
3.79159e-05
0.00247852
-1.55693e-05
0.00251502
-7.29197e-05
0.00257678
-0.000121956
0.00265228
-0.000148101
0.00272447
-0.000140935
0.00277602
-0.000100105
0.00279511
-3.6507e-05
0.00277907
3.21104e-05
0.00273421
8.83477e-05
0.00267247
0.000121323
0.00260697
0.000128635
0.00254888
0.000113903
0.00250667
8.23813e-05
0.00248674
3.82076e-05
0.00249363
-1.46586e-05
0.00252843
-6.92775e-05
0.00258649
-0.000114488
0.00265667
-0.00013792
0.00272371
-0.000131546
0.00277259
-9.58291e-05
0.00279301
-3.98356e-05
0.00278191
2.22353e-05
0.00274361
7.58602e-05
0.00268776
0.000110435
0.00262625
0.000121424
0.00257048
0.000109847
0.00252978
7.98265e-05
0.00251109
3.63408e-05
0.00251845
-1.48053e-05
0.00255175
-6.5428e-05
0.0026053
-0.000104905
0.00266814
-0.00012316
0.00272664
-0.000114974
0.00276836
-8.24764e-05
0.0027854
-3.42293e-05
0.00277586
1.81055e-05
0.00274346
6.34119e-05
0.00269591
9.36508e-05
0.00264286
0.000104762
0.00259415
9.62895e-05
0.00255854
7.04161e-05
0.0025428
3.12826e-05
0.00255059
-1.48389e-05
0.00258108
-5.92487e-05
0.0026283
-9.20337e-05
0.00268203
-0.000105093
0.00273051
-9.5342e-05
0.00276372
-6.5978e-05
0.00277588
-2.50517e-05
0.00276631
1.76049e-05
0.00273868
5.33664e-05
0.00269951
7.65234e-05
0.00265656
8.44325e-05
0.00261766
7.68037e-05
0.00258993
5.50904e-05
0.00257886
2.2552e-05
0.00258714
-1.52569e-05
0.00261347
-5.06133e-05
0.0026523
-7.52617e-05
0.00269492
-8.31429e-05
0.00273191
-7.27137e-05
0.0027557
-4.74641e-05
0.00276243
-1.4403e-05
0.00275231
1.852e-05
0.00272892
4.47586e-05
0.00269776
6.03685e-05
0.00266503
6.3911e-05
0.00263669
5.57054e-05
0.00261793
3.73006e-05
0.00261245
1.15988e-05
0.00262157
-1.67776e-05
0.00264352
-4.17959e-05
0.00267339
-5.74779e-05
0.0027043
-5.99584e-05
0.0027293
-4.89761e-05
0.00274326
-2.79236e-05
0.00274401
-2.48783e-06
0.00273253
2.13336e-05
0.00271211
3.89123e-05
0.00268731
4.77379e-05
0.00266294
4.72255e-05
0.00264342
3.81057e-05
0.0026323
2.20346e-05
0.00263178
1.66775e-06
0.00264207
-1.91873e-05
0.00266103
-3.59955e-05
0.00268439
-4.46797e-05
0.00270675
-4.30816e-05
0.00272311
-3.18175e-05
0.00273016
-1.41045e-05
0.00272699
5.4755e-06
0.00271508
2.23757e-05
0.00269751
3.34183e-05
0.00267812
3.70809e-05
0.00266082
3.31913e-05
0.00264868
2.34126e-05
0.002645
7.08746e-06
0.00264845
-6.21185e-06
-3.49128e-05
0.00250203
-6.19293e-06
0.00250837
-1.93103e-05
0.00251965
-3.41783e-05
0.0025366
-5.10743e-05
0.00255991
-6.97684e-05
0.00258991
-8.90693e-05
0.00262627
-0.000107028
0.00266745
-0.000120182
0.00271063
-0.000124984
0.00275141
-0.000117376
0.00278463
-9.53657e-05
0.00280614
-6.15697e-05
0.00281306
-1.96733e-05
0.00280391
2.60886e-05
0.00277944
6.92507e-05
0.00274342
0.000101542
0.00270219
0.000116053
0.00266321
0.00010959
0.00263374
8.28387e-05
0.00261949
4.03208e-05
0.00262347
-1.00675e-05
0.00264468
-5.70582e-05
0.00267705
-8.69539e-05
0.00270999
-8.80762e-05
0.00273175
-5.76579e-05
0.00273413
-4.91742e-06
0.00271517
5.38337e-05
0.00267845
0.000103516
0.00263065
0.000135116
0.00257934
0.000145277
0.002532
0.000133708
0.00249584
0.00010113
0.00247781
4.89326e-05
0.00248391
-1.92731e-05
0.00251719
-9.43389e-05
0.00257438
-0.000159059
0.00264393
-0.000191814
0.00270825
-0.000177322
0.00275033
-0.000117104
0.00276052
-3.01358e-05
0.00273906
5.75109e-05
0.00269375
0.000125156
0.00263537
0.000163615
0.00257418
0.000172859
0.00251889
0.000156324
0.00247725
0.000116697
0.00245681
5.534e-05
0.00246447
-2.45553e-05
0.00250376
-0.000112679
0.00257107
-0.000188901
0.00265339
-0.000228206
0.00273063
-0.000212757
0.00278263
-0.000143442
0.00279717
-4.1423e-05
0.00277387
6.24499e-05
0.00272218
0.000142115
0.00265576
0.000185265
0.00258747
0.000192542
0.00252716
0.000170655
0.00248231
0.000125661
0.00245955
6.06776e-05
0.00246495
-2.09786e-05
0.00250179
-0.000109758
0.00256675
-0.000186912
0.00264784
-0.000229187
0.00272649
-0.000219592
0.00278349
-0.000157098
0.00280552
-5.85421e-05
0.00278935
4.82828e-05
0.00274175
0.000135946
0.00267579
0.000187285
0.00260572
0.000198699
0.00254343
0.000176195
0.0024977
0.000128112
0.00247541
6.05037e-05
0.00248189
-2.11445e-05
0.0025189
-0.000106289
0.0025815
-0.000177081
0.00265718
-0.000213599
0.00272888
-0.00020325
0.00278037
-0.000147319
0.00280108
-6.05441e-05
0.00278843
3.48815e-05
0.00274747
0.000116825
0.00268846
0.000169446
0.00262372
0.000186161
0.00256495
0.000168618
0.00252194
0.00012284
0.00250234
5.59357e-05
0.00251101
-2.34723e-05
0.00254802
-0.000102438
0.00260688
-0.000163766
0.00267502
-0.000191302
0.00273715
-0.000177104
0.00277989
-0.000125212
0.00279538
-4.97231e-05
0.00278257
3.09111e-05
0.00274628
9.97051e-05
0.00269507
0.000144866
0.00263903
0.000160795
0.00258822
0.000147107
0.00255164
0.000106989
0.00253654
4.63879e-05
0.00254694
-2.52388e-05
0.00258186
-9.41701e-05
0.00263436
-0.000144534
0.00269278
-0.000163517
0.00274404
-0.000146601
0.00277744
-9.93791e-05
0.00278736
-3.49711e-05
0.00277391
3.10629e-05
0.00274181
8.54611e-05
0.00269852
0.00011981
0.00265242
0.000130539
0.00261168
0.00011754
0.00258369
8.30855e-05
0.00257416
3.20772e-05
0.00258581
-2.69089e-05
0.00261687
-8.16744e-05
0.00266074
-0.000119131
0.00270746
-0.000129855
0.00274654
-0.000111802
0.00277002
-7.09428e-05
0.00277426
-1.86372e-05
0.00276021
3.25669e-05
0.00273237
7.26006e-05
0.0026971
9.564e-05
0.00266121
9.97957e-05
0.00263113
8.57929e-05
0.00261232
5.61087e-05
0.00260864
1.52729e-05
0.00262127
-2.94076e-05
0.00264779
-6.83148e-05
0.00268228
-9.19709e-05
0.00271676
-9.44377e-05
0.00274345
-7.56618e-05
0.00275692
-4.13949e-05
0.0027553
-8.62918e-07
0.00274018
3.64505e-05
0.00271567
6.34172e-05
0.00268707
7.63407e-05
0.00265976
7.45328e-05
0.0026386
5.92696e-05
0.00262744
3.319e-05
0.00262861
5.05514e-07
0.0026421
-3.26757e-05
0.00266515
-5.90471e-05
0.00269257
-7.21032e-05
0.00271804
-6.85477e-05
0.00273585
-4.96286e-05
0.00274248
-2.07327e-05
0.00273725
1.06991e-05
0.00272218
3.74459e-05
0.00270101
5.45947e-05
0.00267823
5.98549e-05
0.00265822
5.32079e-05
0.00264465
3.69759e-05
0.0026407
1.10378e-05
0.00264603
-1.15446e-05
-5.56198e-05
0.00250196
-8.15441e-06
0.00250812
-2.54669e-05
0.00251916
-4.52196e-05
0.00253594
-6.78566e-05
0.00255933
-9.3154e-05
0.00258985
-0.000119592
0.00262743
-0.000144605
0.00267063
-0.000163385
0.00271663
-0.000170982
0.00276052
-0.000161273
0.0027964
-0.000131243
0.00281974
-8.49137e-05
0.0028274
-2.73285e-05
0.00281744
3.6044e-05
0.00279037
9.63229e-05
0.00275027
0.000141645
0.00270425
0.000162075
0.00266071
0.000153129
0.0026278
0.000115743
0.00261207
5.60562e-05
0.00261723
-1.52331e-05
0.00264264
-8.24668e-05
0.00268151
-0.000125825
0.00272127
-0.000127837
0.00274776
-8.41462e-05
0.00275131
-8.46964e-06
0.00273011
7.50348e-05
0.00268897
0.000144655
0.00263587
0.000188224
0.0025792
0.00020194
0.00252685
0.000186057
0.00248634
0.000141648
0.00246526
7.00144e-05
0.00247096
-2.49738e-05
0.00250804
-0.000131427
0.00257366
-0.00022467
0.00265422
-0.000272383
0.00272838
-0.000251481
0.00277571
-0.000164435
0.00278536
-3.97857e-05
0.00275878
8.40922e-05
0.00270617
0.000177772
0.00264035
0.000229435
0.00257258
0.000240622
0.00251168
0.000217223
0.0024652
0.000163184
0.00244073
7.98054e-05
0.00244584
-2.96647e-05
0.00248554
-0.000152378
0.00255782
-0.000261183
0.00264989
-0.000320275
0.00273924
-0.00030211
0.00280135
-0.000205553
0.00282018
-6.02493e-05
0.00279443
8.81982e-05
0.00273568
0.000200865
0.00266083
0.000260121
0.00258494
0.000268429
0.00251838
0.000237211
0.00246815
0.000175897
0.00244082
8.80049e-05
0.00244373
-2.38864e-05
0.00248193
-0.000147964
0.00255267
-0.000257654
0.00264237
-0.000318881
0.00272972
-0.000306943
0.0027932
-0.000220577
0.00281832
-8.36664e-05
0.00280159
6.5013e-05
0.00275033
0.000187208
0.00267878
0.000258835
0.00260253
0.000274951
0.00253443
0.000244299
0.002484
0.000178533
0.0024592
8.53117e-05
0.00246668
-2.86315e-05
0.00250879
-0.000148392
0.00257941
-0.000247707
0.0026635
-0.00029769
0.00274135
-0.000281099
0.00279522
-0.000201189
0.0028146
-7.9922e-05
0.00279805
5.14336e-05
0.002752
0.00016287
0.0026878
0.000233654
0.0026183
0.000255654
0.00255557
0.000231353
0.00251
0.000168403
0.00249031
7.5627e-05
0.00250225
-3.54047e-05
0.00254572
-0.000145912
0.00261266
-0.000230702
0.00268813
-0.000266774
0.00275477
-0.000243746
0.00279816
-0.000168603
0.00281065
-6.2215e-05
0.00279237
4.91896e-05
0.00274973
0.000142346
0.00269266
0.000201942
0.00263204
0.00022141
0.00257831
0.000200835
0.00254092
0.000144388
0.00252763
5.96785e-05
0.00254274
-4.03496e-05
0.0025846
-0.000136038
0.00264465
-0.00020458
0.00270923
-0.000228099
0.00276372
-0.000201085
0.00279676
-0.000132427
0.00280307
-4.12731e-05
0.00278379
5.03428e-05
0.00274508
0.000124165
0.00269572
0.00016917
0.00264502
0.000181237
0.00260178
0.000160782
0.00257381
0.000111059
0.00256711
3.87709e-05
0.00258421
-4.40062e-05
0.00262234
-0.000119804
0.00267325
-0.000170044
0.00272526
-0.000181857
0.00276668
-0.000153228
0.00278918
-9.34418e-05
0.00278955
-1.90101e-05
0.00276976
5.23558e-05
0.00273554
0.000106822
0.00269443
0.000136757
0.00265415
0.000140072
0.0026218
0.000118147
0.00260331
7.45902e-05
0.00260272
1.58627e-05
0.0026208
-4.74843e-05
0.00265404
-0.000101549
0.00269495
-0.000132889
0.00273406
-0.00013354
0.00276259
-0.000104193
0.0027749
-5.37105e-05
0.00276959
4.45446e-06
0.00274916
5.68767e-05
0.00271882
9.37582e-05
0.00268487
0.000110288
0.00265354
0.000105862
0.00263032
8.24893e-05
0.00261952
4.3993e-05
0.00262354
-3.52037e-06
0.00264197
-5.11003e-05
0.002671
-8.80767e-05
0.00270406
-0.000105168
0.00273354
-9.80298e-05
0.00275293
-6.90173e-05
0.00275853
-2.63284e-05
0.00275007
1.91609e-05
0.00273034
5.71713e-05
0.00270401
8.09311e-05
0.00267648
8.73761e-05
0.00265279
7.69038e-05
0.00263748
5.22853e-05
0.00263354
1.49769e-05
0.00264203
-2.00348e-05
-8.02634e-05
0.00250186
-1.00186e-05
0.00250775
-3.13547e-05
0.00251844
-5.5908e-05
0.00253494
-8.43549e-05
0.00255834
-0.000116554
0.00258948
-0.000150735
0.00262864
-0.000183762
0.00267459
-0.000209332
0.0027245
-0.000220901
0.00277275
-0.000209519
0.00281231
-0.000170803
0.00283819
-0.000110796
0.0028469
-3.60331e-05
0.00283591
4.70336e-05
0.0028053
0.000126932
0.00275955
0.000187396
0.00270687
0.000214758
0.00265693
0.000203062
0.00261915
0.000153529
0.0026012
7.40007e-05
0.00260792
-2.19513e-05
0.00263923
-0.000113778
0.00268743
-0.000174025
0.00273706
-0.000177462
0.00277032
-0.000117406
0.0027754
-1.35545e-05
0.00275082
9.96129e-05
0.00270331
0.000192165
0.00264278
0.00024876
0.00257877
0.000265951
0.00251957
0.000245252
0.00247299
0.000188228
0.00244751
9.54974e-05
0.00245239
-2.986e-05
0.00249455
-0.000173582
0.00257189
-0.000302008
0.00266836
-0.000368852
0.00275706
-0.000340181
0.00281206
-0.000219439
0.00282058
-4.8304e-05
0.00278615
0.000118521
0.00272282
0.000241104
0.00264653
0.000305719
0.00256989
0.000317269
0.00250152
0.000285592
0.0024481
0.000216604
0.00241661
0.000111296
0.00241552
-2.85781e-05
0.00245283
-0.000189687
0.00252956
-0.000337916
0.00263317
-0.000423881
0.00273807
-0.000407008
0.0028148
-0.000282284
0.00284243
-8.78819e-05
0.00281713
0.000113503
0.00275172
0.000266272
0.00266689
0.000344947
0.00258113
0.000354194
0.00250605
0.000312293
0.00244851
0.000233438
0.00241573
0.000120786
0.00241729
-2.54456e-05
0.00246022
-0.000190898
0.00254095
-0.00033839
0.0026424
-0.000420327
0.00273939
-0.000403937
0.00280823
-0.000289408
0.00283425
-0.000109691
0.00281485
8.44159e-05
0.00275839
0.000243669
0.00268014
0.000337083
0.00259668
0.000358408
0.00252181
0.000319171
0.00246627
0.000234075
0.00243974
0.000111841
0.00245047
-3.93652e-05
0.00250065
-0.000198575
0.00258187
-0.000328927
0.00267579
-0.000391608
0.00276002
-0.000365332
0.00281555
-0.000256714
0.00283206
-9.64322e-05
0.00280951
7.3987e-05
0.00275619
0.000216184
0.00268495
0.000304896
0.00260945
0.000331151
0.00254222
0.00029859
0.00249444
0.000216177
0.002476
9.40682e-05
0.00249328
-5.26839e-05
0.00254529
-0.000197922
0.00262163
-0.000307046
0.00270481
-0.000349951
0.00277566
-0.000314596
0.00281905
-0.000211992
0.00282761
-7.07766e-05
0.00280261
7.41937e-05
0.00275212
0.000192831
0.00268771
0.000266354
0.0026214
0.000287719
0.00256433
0.000257906
0.00252658
0.000182139
0.00251649
6.97728e-05
0.0025382
-6.20659e-05
0.00258873
-0.000186564
0.00265727
-0.000273118
0.00272807
-0.000298899
0.00278522
-0.000258242
0.0028171
-0.0001643
0.00281885
-4.30264e-05
0.00279271
7.64838e-05
0.00274627
0.000170606
0.00268976
0.000225684
0.00263368
0.000237316
0.00258772
0.000206743
0.00256035
0.000138429
0.00255785
4.12702e-05
0.00258216
-6.83158e-05
0.00262891
-0.00016656
0.00268771
-0.000228846
0.00274502
-0.000239163
0.00278818
-0.000196384
0.00280877
-0.000114034
0.00280423
-1.44724e-05
0.00277762
7.89705e-05
0.00273597
0.000148472
0.0026881
0.000184619
0.00264287
0.000185304
0.00260824
0.000152776
0.0025908
9.20343e-05
0.00259467
1.19918e-05
0.00261988
-7.26968e-05
0.0026613
-0.000142971
0.00270947
-0.000181058
0.00275326
-0.000177324
0.00278307
-0.000134007
0.0027933
-6.39353e-05
0.00278318
1.45692e-05
0.00275631
8.37474e-05
0.00271908
0.000130987
0.00267895
0.000150421
0.00264313
0.000141678
0.00261795
0.000107676
0.00260824
5.36961e-05
0.00261645
-1.173e-05
0.00264138
-7.60238e-05
0.00267773
-0.000124433
0.00271722
-0.000144649
0.0027508
-0.000131612
0.00277126
-8.94814e-05
0.00277494
-3.00044e-05
0.00276216
3.19396e-05
0.00273666
8.26679e-05
0.00270414
0.00011345
0.00267108
0.000120439
0.00264328
0.000104701
0.00262636
6.92102e-05
0.00262309
1.82476e-05
0.00263614
-3.30858e-05
-0.000109939
0.00250173
-1.17497e-05
0.00250725
-3.68709e-05
0.00251743
-6.60895e-05
0.00253347
-0.000100399
0.00255676
-0.000139843
0.00258855
-0.000182525
0.00262961
-0.000224819
0.00267905
-0.000258769
0.00273416
-0.000276011
0.00278822
-0.000263578
0.00283267
-0.000215254
0.00286201
-0.000140136
0.00287231
-4.63362e-05
0.00286011
5.923e-05
0.00282481
0.000162238
0.00277145
0.000240755
0.00270982
0.000276383
0.00265133
0.000261553
0.00260695
0.000197914
0.00258584
9.51037e-05
0.0025944
-3.05043e-05
0.00263357
-0.000152951
0.00269457
-0.000235022
0.00275786
-0.000240751
0.00280042
-0.000159968
0.00280741
-2.05421e-05
0.00277798
0.000129036
0.00272176
0.000248383
0.0026514
0.000319121
0.0025779
0.000339455
0.0025099
0.000313249
0.00245539
0.000242745
0.0024237
0.000127182
0.00242581
-3.19667e-05
0.00247075
-0.000218527
0.00255876
-0.000390011
0.00267412
-0.000484214
0.00278464
-0.000450708
0.00285478
-0.000289571
0.00286542
-5.89458e-05
0.00282173
0.00016221
0.00274406
0.000318774
0.00265386
0.000395917
0.00256589
0.000405238
0.00248808
0.000363406
0.00242512
0.000279565
0.00238321
0.0001532
0.00237366
-1.90287e-05
0.00240968
-0.000225702
0.00249469
-0.000422924
0.00261315
-0.000542348
0.00273431
-0.000528163
0.00282487
-0.000372841
0.0028614
-0.000124412
0.00283802
0.000136878
0.00276735
0.000336937
0.00267262
0.000439677
0.00257572
0.000451093
0.00249031
0.000397706
0.00242425
0.000299502
0.0023867
0.00015833
0.00239002
-2.87597e-05
0.00244188
-0.000242755
0.00253573
-0.000432242
0.00264993
-0.000534526
0.00275582
-0.000509834
0.00282819
-0.000361778
0.00285267
-0.000134172
0.00282811
0.000108977
0.00276458
0.000307198
0.00267857
0.0004231
0.00258736
0.000449619
0.00250554
0.000400988
0.0024454
0.000294215
0.00241872
0.000138515
0.0024349
-5.55371e-05
0.00249478
-0.000258462
0.00258679
-0.000420935
0.00268953
-0.000494342
0.00277887
-0.000454679
0.00283522
-0.000313064
0.00284841
-0.000109621
0.00281932
0.000103075
0.00275793
0.000277582
0.00267875
0.000384069
0.00259663
0.000413273
0.00252488
0.000370344
0.00247571
0.000265345
0.00246003
0.000109743
0.00248421
-7.68608e-05
0.00254547
-0.000259178
0.00263068
-0.000392261
0.00272016
-0.000439429
0.00279375
-0.000388191
0.00283625
-0.000254491
0.00284065
-7.51766e-05
0.00280899
0.000105858
0.00275063
0.000251192
0.00267864
0.000338336
0.00260641
0.000359948
0.00254616
0.000318166
0.00250885
0.00021944
0.00250328
7.53471e-05
0.00253285
-9.16374e-05
0.0025925
-0.00024621
0.00266892
-0.000349537
0.00274458
-0.000374561
0.00280296
-0.000316625
0.00283266
-0.000193995
0.00282945
-3.98178e-05
0.00279643
0.000109497
0.00274236
0.00022468
0.00267876
0.000289282
0.00261742
0.000298652
0.00256917
0.000254995
0.00254334
0.000164265
0.00254633
3.82755e-05
0.00257901
-0.000100991
0.0026348
-0.000222353
0.00270094
-0.000294985
0.00276231
-0.000300533
0.00280581
-0.000239889
0.00282342
-0.000131644
0.00281336
-4.41403e-06
0.0027797
0.000112638
0.00273061
0.000197562
0.00267611
0.000239114
0.00262622
0.000235199
0.00258996
0.000189031
0.00257465
0.00010734
0.00258437
2.28056e-06
0.00261789
-0.000106224
0.00266798
-0.000193053
0.00272298
-0.000236067
0.00277039
-0.000224729
0.00280023
-0.000163846
0.00280727
-7.09814e-05
0.00279161
3.02341e-05
0.00275786
0.000117493
0.00271356
0.000175291
0.00266727
0.000196713
0.00262727
0.000181674
0.00260083
0.000134119
0.00259337
6.11509e-05
0.00260714
-2.54976e-05
0.00263972
-0.000108605
0.00268392
-0.00016863
0.00272954
-0.000190269
0.00276634
-0.000168414
0.00278676
-0.000109897
0.00278746
-3.07027e-05
0.00276953
4.98658e-05
0.00273769
0.000114505
0.00269867
0.000152476
0.00265999
0.000159119
0.00262835
0.000136342
0.00261048
8.70761e-05
0.00260896
1.97685e-05
0.00262797
-5.21008e-05
-0.000145338
0.00250155
-1.33046e-05
0.00250657
-4.18899e-05
0.00251605
-7.55658e-05
0.0025314
-0.000115748
0.00255435
-0.000162796
0.0025867
-0.000214878
0.0026299
-0.000268018
0.0026836
-0.000312467
0.00274538
-0.000337793
0.00280697
-0.000325162
0.0028576
-0.000265889
0.00289127
-0.000173802
0.00290372
-5.87844e-05
0.00289028
7.26647e-05
0.00284925
0.000203273
0.00278626
0.000303738
0.00271317
0.000349481
0.00264358
0.000331144
0.00259045
0.000251037
0.00256486
0.000120692
0.00257537
-4.1007e-05
0.00262465
-0.000202239
0.00270275
-0.00031312
0.00278456
-0.000322563
0.00283963
-0.000215038
0.00284884
-2.97523e-05
0.00281254
0.000165343
0.00274465
0.00031627
0.00266168
0.000402091
0.00257638
0.000424756
0.00249761
0.000392023
0.00243319
0.000307157
0.00239227
0.000168111
0.00238534
-2.50379e-05
0.00242335
-0.000256545
0.00251315
-0.00047981
0.00264557
-0.000616632
0.00278608
-0.000591217
0.00288585
-0.000389337
0.00291113
-8.42345e-05
0.00286325
0.000210096
0.00277002
0.000412006
0.00266257
0.000503369
0.00256047
0.000507333
0.00247091
0.000452963
0.00239591
0.000354573
0.0023422
0.000206908
0.00232678
-3.60798e-06
0.00236819
-0.000267117
0.00246822
-0.000522953
0.00260429
-0.000678422
0.0027396
-0.000663473
0.00283888
-0.000472112
0.00287932
-0.000164858
0.00285549
0.000160709
0.0027797
0.000412732
0.00267584
0.000543531
0.00256782
0.00055911
0.00247148
0.000494053
0.00239704
0.000373938
0.00235681
0.000198559
0.00236518
-3.71223e-05
0.00242812
-0.0003057
0.00253458
-0.000538699
0.00265906
-0.000659008
0.00277135
-0.000622125
0.0028459
-0.000436328
0.00286834
-0.000156608
0.00283819
0.000139122
0.00276706
0.000378333
0.0026729
0.000517257
0.00257394
0.000548577
0.00248572
0.00048921
0.00242225
0.00035769
0.00239719
0.00016357
0.00242007
-7.842e-05
0.00248935
-0.000327737
0.00259008
-0.000521669
0.00269876
-0.000603017
0.00279083
-0.000546757
0.00284702
-0.000369244
0.0028573
-0.000119904
0.00282277
0.000137603
0.00275425
0.0003461
0.00266768
0.000470639
0.00257928
0.000501674
0.00250362
0.000446002
0.00245418
0.000314794
0.00244254
0.000121375
0.00247422
-0.000108538
0.00254396
-0.000328921
0.002636
-0.000484302
0.00272922
-0.000532645
0.00280343
-0.000462399
0.00284401
-0.000295072
0.00284445
-7.56212e-05
0.00280717
0.000143143
0.00274218
0.000316183
0.00266365
0.000416867
0.00258629
0.000437309
0.00252367
0.000380782
0.00248788
0.000255228
0.00248786
7.53731e-05
0.00252562
-0.000129397
0.00259352
-0.000314111
0.00267588
-0.000431899
0.00275407
-0.000452753
0.00281175
-0.000374305
0.00283826
-0.000220509
0.00283012
-3.16757e-05
0.00279103
0.000148588
0.00273045
0.000285263
0.00266087
0.000358854
0.00259531
0.000364219
0.00254585
0.000304452
0.00252276
0.000187356
0.00253229
2.87411e-05
0.00257362
-0.000142321
0.00263759
-0.000286318
0.00270921
-0.000366607
0.00277245
-0.000363776
0.00281449
-0.000281926
0.00282812
-0.00014527
0.00281242
1.12806e-05
0.00277226
0.000152798
0.00271665
0.000253177
0.00265655
0.000299208
0.00260311
0.00028864
0.0025665
0.000225639
0.00255474
0.000119105
0.00257146
-1.44421e-05
0.00261368
-0.000148447
0.00267169
-0.000251055
0.00273187
-0.000296251
0.00278091
-0.000273772
0.0028091
-0.000192034
0.00281198
-7.38615e-05
0.00279052
5.16979e-05
0.00275022
0.000157789
0.00269952
0.000225998
0.00264794
0.000248294
0.00260482
0.000224787
0.00257843
0.000160516
0.00257466
6.4916e-05
0.00259518
-4.60212e-05
0.00263587
-0.000149288
0.00268733
-0.000220093
0.00273768
-0.000240622
0.00277599
-0.00020672
0.00279485
-0.000128765
0.0027916
-2.74528e-05
0.00276815
7.33211e-05
0.00273007
0.000152586
0.00268497
0.000197578
0.00264134
0.000202745
0.00260681
0.000170873
0.00258919
0.000104694
0.00259083
1.8134e-05
0.00261691
-7.81844e-05
-0.000186502
0.00250133
-1.46325e-05
0.0025057
-4.62601e-05
0.00251422
-8.40864e-05
0.00252854
-0.000130072
0.00255081
-0.000185058
0.00258349
-0.000247562
0.00262895
-0.000313474
0.0026877
-0.000371227
0.00275797
-0.00040806
0.00282921
-0.000396405
0.00288765
-0.000324329
0.00292701
-0.000213156
0.00294269
-7.44626e-05
0.00292801
8.73437e-05
0.00287956
0.000251721
0.00280404
0.000379262
0.00271622
0.0004373
0.00263253
0.000414835
0.00256816
0.0003154
0.00253636
0.000152492
0.00254874
-5.33803e-05
0.00261107
-0.000264573
0.00271218
-0.000414229
0.00281887
-0.000429254
0.00289022
-0.000286385
0.00290162
-4.11596e-05
0.00285557
0.000211393
0.00277227
0.00039957
0.00267344
0.000500922
0.00257394
0.000524259
0.00248261
0.000483355
0.00240605
0.000383715
0.00235035
0.00022381
0.0023241
1.2081e-06
0.00234456
-0.000277001
0.00243058
-0.000565833
0.00257896
-0.000765006
0.00275162
-0.000763883
0.00288935
-0.000527061
0.00294298
-0.000137863
0.00290256
0.000250508
0.00279831
0.000516258
0.00267264
0.000629041
0.00255376
0.000626214
0.00244998
0.000556743
0.00236169
0.000442863
0.00229844
0.000270161
0.00228361
1.12148e-05
0.00233717
-0.000320677
0.00245447
-0.000640246
0.00260562
-0.000829577
0.00275075
-0.000808603
0.00285453
-0.000575894
0.00289513
-0.000205458
0.00286824
0.000187607
0.0027867
0.000494272
0.00267454
0.000655687
0.00255638
0.000677274
0.00244992
0.000600505
0.00236867
0.000455196
0.00232825
0.000238976
0.00234348
-5.23502e-05
0.00241669
-0.000378914
0.0025322
-0.000654204
0.00266236
-0.000789173
0.00277745
-0.000737211
0.00285286
-0.000511741
0.00287413
-0.000177874
0.00284022
0.000173024
0.00276309
0.000455471
0.00266187
0.000618475
0.00255607
0.00065438
0.00246263
0.000582643
0.00239744
0.000422883
0.00237541
0.0001856
0.00240507
-0.000108085
0.00248188
-0.000404542
0.00258807
-0.000627857
0.00269914
-0.00071409
0.00279122
-0.00063884
0.00284605
-0.000424076
0.00285399
-0.000127845
0.00281585
0.000175752
0.00274237
0.000419576
0.00265021
0.000562794
0.00255691
0.000594977
0.0024786
0.00052431
0.00243013
0.00036327
0.00242333
0.000128171
0.00246209
-0.000147295
0.0025384
-0.000405236
0.00263438
-0.000580272
0.00272837
-0.00062664
0.00280098
-0.000535011
0.00283867
-0.000332756
0.00283553
-7.24886e-05
0.00279409
0.000184589
0.00272443
0.000385843
0.00264125
0.000500042
0.00256038
0.000518179
0.00249683
0.000444337
0.00246375
0.000288302
0.00246984
6.92844e-05
0.00251514
-0.000174698
0.00258931
-0.000388275
0.00267483
-0.00051742
0.00275284
-0.000530762
0.00280788
-0.000429347
0.00283042
-0.000243048
0.00281771
-1.89706e-05
0.00277382
0.000192483
0.00270847
0.000350609
0.00263475
0.000432579
0.00256666
0.000432304
0.00251759
0.000353523
0.00249857
0.00020638
0.00251521
1.20951e-05
0.00256449
-0.000191592
0.00263458
-0.000356409
0.00270891
-0.000440943
0.00277141
-0.000426268
0.00281018
-0.000320697
0.00281913
-0.000154228
0.00279818
3.2234e-05
0.00275269
0.000198294
0.00269212
0.00031374
0.00262815
0.000363183
0.0025729
0.000343883
0.00253767
0.000260868
0.00253092
0.000125863
0.00255531
-3.88347e-05
0.00260556
-0.000198702
0.00266952
-0.000315012
0.00273224
-0.000358972
0.00278046
-0.000321987
0.00280534
-0.000216918
0.00280345
-7.1966e-05
0.00277653
7.86167e-05
0.0027307
0.000203616
0.00267498
0.000281718
0.00261968