/*--------------------------------*- C++ -*----------------------------------*\
  =========                 |
  \\      /  F ield         | OpenFOAM: The Open Source CFD Toolbox
   \\    /   O peration     | Website:  https://openfoam.org
    \\  /    A nd           | Version:  11
     \\/     M anipulation  |
\*---------------------------------------------------------------------------*/
FoamFile
{
    format      ascii;
    class       volVectorField;
    location    "4.222161";
    object      U_0;
}
// * * * * * * * * * * * * * * * * * * * * * * * * * * * * * * * * * * * * * //

dimensions      [0 1 -1 0 0 0 0];

internalField   nonuniform List<vector> 
7132
(
(1.00015 -0.000289634 2.1363e-18)
(1.00224 -0.000873878 7.74475e-18)
(1.007 -0.00149395 7.83267e-18)
(1.01424 -0.00216175 8.59519e-18)
(1.02426 -0.00288061 1.06823e-17)
(1.03727 -0.00363054 1.10949e-17)
(1.05332 -0.00437217 1.06655e-17)
(1.07227 -0.00502762 1.00063e-17)
(1.09361 -0.00551302 9.43368e-18)
(1.11649 -0.00573861 9.11355e-18)
(1.13965 -0.00565216 8.86191e-18)
(1.16186 -0.00531496 8.85507e-18)
(1.18228 -0.00478125 7.72275e-18)
(1.2002 -0.00410397 8.41582e-18)
(1.21517 -0.00332783 -2.01633e-18)
(1.22687 -0.00247896 -1.16426e-17)
(1.23505 -0.00157404 -2.0996e-17)
(1.2395 -0.000627823 -1.6378e-17)
(1.24009 0.000338612 -2.44292e-17)
(1.2368 0.00129239 -3.85645e-17)
(1.22973 0.00218872 -4.00865e-17)
(1.21923 0.00297702 -4.11343e-17)
(1.20583 0.00361047 -4.33503e-17)
(1.19023 0.00405627 -4.88423e-17)
(1.17324 0.00430243 -4.45609e-17)
(1.15567 0.00435871 -4.88934e-17)
(1.13824 0.00425222 -5.43961e-17)
(1.12154 0.00402022 -5.98895e-17)
(1.10599 0.00370286 -6.57484e-17)
(1.09185 0.00333744 -6.581e-17)
(1.07925 0.00295497 -6.50802e-17)
(1.06819 0.00257888 -6.282e-17)
(1.05861 0.00222513 -6.31131e-17)
(1.05039 0.00190331 -5.88862e-17)
(1.04339 0.00161797 -5.31728e-17)
(1.03746 0.00137011 -4.59924e-17)
(1.03244 0.0011583 -3.75439e-17)
(1.0282 0.000979709 -2.85448e-17)
(1.02461 0.00083078 -1.63571e-17)
(1.02156 0.000707698 -3.58747e-18)
(1.01896 0.000606707 1.03596e-17)
(1.01672 0.00052429 2.47237e-17)
(1.01477 0.000457269 3.93649e-17)
(1.01306 0.000402851 5.56711e-17)
(1.01155 0.00035864 7.17706e-17)
(1.01019 0.00032262 8.75664e-17)
(1.00897 0.00029313 1.01862e-16)
(1.00785 0.000268819 1.14656e-16)
(1.00682 0.000248606 1.26918e-16)
(1.00586 0.000231632 1.36472e-16)
(1.00496 0.000217221 1.42892e-16)
(1.00412 0.00020484 1.47985e-16)
(1.00332 0.000194075 1.51992e-16)
(1.00256 0.000184605 1.52925e-16)
(1.00184 0.000176181 1.50458e-16)
(1.00115 0.000168607 1.43142e-16)
(1.00049 0.000161725 1.31097e-16)
(0.999856 0.000155387 1.14563e-16)
(0.999245 0.000149441 9.21704e-17)
(0.998658 0.000143719 6.48942e-17)
(0.998092 0.000138035 3.32341e-17)
(0.99755 0.000132211 2.96602e-20)
(0.997031 0.000126113 -3.23232e-17)
(0.996537 0.000119678 -6.23891e-17)
(0.996069 0.000112891 -8.5705e-17)
(0.995629 0.000105659 -1.02512e-16)
(0.995218 9.75635e-05 -1.14448e-16)
(0.994842 8.75632e-05 -1.26427e-16)
(0.994511 7.37965e-05 -1.48072e-16)
(0.994244 5.37086e-05 -1.86462e-16)
(0.994072 2.46668e-05 -2.48633e-16)
(0.994034 -1.49531e-05 -3.33403e-16)
(0.994176 -6.44983e-05 -4.32953e-16)
(0.994531 -0.000120104 -5.39216e-16)
(0.995115 -0.000174651 -6.4573e-16)
(0.995905 -0.000218939 -7.57797e-16)
(0.996844 -0.000243929 -8.84065e-16)
(0.997837 -0.000243418 -1.0273e-15)
(0.998775 -0.000216197 -1.17415e-15)
(0.999555 -0.000166828 -1.28647e-15)
(1.0001 -0.000104668 -1.3182e-15)
(1.00039 -4.14063e-05 -1.23418e-15)
(1.00043 1.20324e-05 -1.03812e-15)
(1.00029 4.81485e-05 -7.87816e-16)
(1.00004 6.42757e-05 -5.78159e-16)
(0.999774 6.24327e-05 -5.10245e-16)
(0.999542 4.7911e-05 -6.40042e-16)
(0.999388 2.72709e-05 -9.46636e-16)
(0.999321 6.47686e-06 -1.33247e-15)
(0.999334 -1.03143e-05 -1.65341e-15)
(0.999403 -2.11445e-05 -1.78113e-15)
(0.999503 -2.59643e-05 -1.64947e-15)
(0.999612 -2.59682e-05 -1.27916e-15)
(0.999712 -2.28668e-05 -7.70391e-16)
(0.999796 -1.8315e-05 -2.55346e-16)
(0.99986 -1.35822e-05 1.46697e-16)
(0.999905 -9.44779e-06 3.69145e-16)
(0.999935 -6.25166e-06 4.12061e-16)
(0.999955 -4.01741e-06 3.24022e-16)
(0.999967 -2.58847e-06 1.79493e-16)
(0.999975 -1.74082e-06 4.35734e-17)
(0.999981 -1.25908e-06 -4.53378e-17)
(0.999985 -9.76355e-07 -7.77907e-17)
(0.999989 -7.85363e-07 -6.93967e-17)
(0.999992 -6.3083e-07 -4.08758e-17)
(0.999994 -4.93164e-07 -1.18461e-17)
(0.999996 -3.71304e-07 6.67137e-18)
(0.999997 -2.6969e-07 1.38849e-17)
(0.999998 -1.91052e-07 1.14313e-17)
(0.999998 -1.34263e-07 5.97907e-18)
(0.999999 -9.52611e-08 1.18999e-18)
(0.999999 -6.89845e-08 -1.59581e-18)
(0.999999 -5.09548e-08 -1.43205e-18)
(1 -3.80088e-08 -1.26507e-18)
(1 -2.82777e-08 -4.96868e-19)
(1 -2.07973e-08 1.33665e-19)
(1 -1.50707e-08 1.88549e-19)
(1 -1.07752e-08 8.39104e-19)
(1 -7.62548e-09 2.74523e-19)
(1 -5.35285e-09 -5.51238e-20)
(1 -3.7195e-09 5.04163e-19)
(1 -2.54041e-09 6.05993e-19)
(1 -1.6808e-09 7.46394e-19)
(1 -1.05134e-09 1.97742e-19)
(1 -5.89515e-10 -4.80466e-20)
(1 -2.5376e-10 5.48835e-19)
(1 -1.0896e-11 6.40891e-19)
(1 1.61783e-10 7.51055e-19)
(1 2.84265e-10 1.73291e-19)
(1 3.68827e-10 -9.17091e-20)
(1 4.27189e-10 4.95709e-19)
(1 4.65085e-10 5.84753e-19)
(1 4.895e-10 6.95369e-19)
(1 5.02632e-10 1.19694e-19)
(1 5.09057e-10 -1.42674e-19)
(1 5.0913e-10 4.47072e-19)
(1 5.06189e-10 5.3746e-19)
(1 4.99563e-10 6.4812e-19)
(1 4.91928e-10 7.13998e-20)
(1 4.82032e-10 -1.92408e-19)
(1 4.72212e-10 3.96406e-19)
(1 4.60879e-10 4.87134e-19)
(1 4.50211e-10 5.99748e-19)
(1 4.38421e-10 2.64207e-20)
(1 4.27617e-10 -2.33149e-19)
(1 4.15886e-10 3.59967e-19)
(1 4.05318e-10 4.54369e-19)
(1 3.93908e-10 5.69616e-19)
(1 3.83768e-10 -2.18167e-21)
(1 3.72799e-10 -2.61099e-19)
(1 3.63217e-10 3.32174e-19)
(1 3.52697e-10 4.26613e-19)
(1 3.43877e-10 5.42077e-19)
(1 3.33505e-10 -2.92847e-20)
(1 3.26243e-10 -2.87038e-19)
(1 3.14368e-10 3.05845e-19)
(1 3.12875e-10 4.08703e-19)
(1 2.91209e-10 4.92503e-19)
(1 3.15781e-10 7.63016e-20)
(1 2.55137e-10 -8.98355e-19)
(1.00014 -0.000866028 3.34593e-20)
(1.00222 -0.00261431 3.75319e-19)
(1.00694 -0.00447132 7.01631e-19)
(1.01414 -0.00647528 9.94529e-19)
(1.02412 -0.00863721 1.35137e-18)
(1.03712 -0.0108983 1.74673e-18)
(1.05323 -0.013141 2.13846e-18)
(1.07232 -0.0151279 2.04537e-18)
(1.09389 -0.0166037 5.22727e-18)
(1.11706 -0.0172884 6.71763e-18)
(1.14052 -0.0170206 3.92645e-18)
(1.16297 -0.0159963 4.22553e-18)
(1.18356 -0.0143823 2.11986e-19)
(1.20162 -0.01234 1.30382e-17)
(1.21669 -0.0100048 4.65952e-17)
(1.22845 -0.00745406 8.64614e-17)
(1.23668 -0.00473562 1.09143e-16)
(1.24117 -0.00189115 9.88242e-17)
(1.24176 0.00101816 5.98434e-17)
(1.23843 0.00389408 7.50807e-18)
(1.23128 0.00660047 -4.80808e-17)
(1.22065 0.00898219 -1.00205e-16)
(1.20706 0.0108951 -1.44701e-16)
(1.19126 0.0122385 -1.79781e-16)
(1.17407 0.0129758 -2.04067e-16)
(1.15632 0.0131375 -2.1817e-16)
(1.13874 0.0128073 -2.23169e-16)
(1.12192 0.0120992 -2.20364e-16)
(1.1063 0.0111354 -2.10864e-16)
(1.09213 0.0100291 -1.9528e-16)
(1.07951 0.00887374 -1.69245e-16)
(1.06846 0.00773971 -1.44599e-16)
(1.0589 0.00667463 -1.13983e-16)
(1.05071 0.00570684 -7.53657e-17)
(1.04374 0.00484967 -3.37624e-17)
(1.03783 0.00410568 1.55867e-17)
(1.03285 0.00347035 6.43237e-17)
(1.02863 0.00293497 1.13146e-16)
(1.02507 0.00248872 1.63567e-16)
(1.02204 0.00212005 2.12753e-16)
(1.01945 0.00181765 2.62718e-16)
(1.01722 0.00157094 3.08175e-16)
(1.01528 0.00137037 3.50703e-16)
(1.01358 0.00120756 3.90117e-16)
(1.01207 0.0010753 4.24458e-16)
(1.01072 0.000967574 4.53595e-16)
(1.00949 0.000879384 4.72963e-16)
(1.00838 0.00080669 4.84367e-16)
(1.00734 0.000746253 4.88124e-16)
(1.00638 0.000695504 4.83032e-16)
(1.00549 0.000652417 4.7163e-16)
(1.00464 0.0006154 4.53047e-16)
(1.00384 0.000583216 4.26564e-16)
(1.00308 0.000554901 3.91699e-16)
(1.00235 0.000529714 3.4569e-16)
(1.00166 0.000507077 2.89142e-16)
(1.00099 0.000486512 2.19977e-16)
(1.00035 0.000467587 1.38512e-16)
(0.999737 0.000449852 4.69929e-17)
(0.999144 0.000432805 -5.23681e-17)
(0.998572 0.000415895 -1.5271e-16)
(0.998023 0.000398584 -2.49516e-16)
(0.997496 0.000380461 -3.36055e-16)
(0.996994 0.000361331 -4.07339e-16)
(0.996517 0.000341144 -4.59026e-16)
(0.996067 0.000319633 -4.92958e-16)
(0.995647 0.000295591 -5.23989e-16)
(0.99526 0.000265979 -5.69059e-16)
(0.994916 0.000225319 -6.559e-16)
(0.994635 0.000166042 -8.07739e-16)
(0.994444 8.02696e-05 -1.03682e-15)
(0.994384 -3.69729e-05 -1.34223e-15)
(0.994498 -0.000183968 -1.7035e-15)
(0.99482 -0.000349461 -2.10648e-15)
(0.995366 -0.000512443 -2.5489e-15)
(0.996116 -0.000645552 -3.04488e-15)
(0.997013 -0.000721711 -3.60954e-15)
(0.997968 -0.000722115 -4.21592e-15)
(0.998872 -0.000642752 -4.78213e-15)
(0.999624 -0.000496855 -5.16964e-15)
(1.00015 -0.0003121 -5.23426e-15)
(1.00042 -0.000123328 -4.90382e-15)
(1.00045 3.66792e-05 -4.23334e-15)
(1.0003 0.000145228 -3.43504e-15)
(1.00005 0.000194021 -2.81268e-15)
(0.999775 0.000188829 -2.64712e-15)
(0.999539 0.000145342 -3.07011e-15)
(0.999381 8.31942e-05 -3.973e-15)
(0.999314 2.03532e-05 -5.03351e-15)
(0.999327 -3.05678e-05 -5.82302e-15)
(0.999398 -6.3547e-05 -5.9786e-15)
(0.9995 -7.83347e-05 -5.34611e-15)
(0.999611 -7.848e-05 -4.0281e-15)
(0.999713 -6.91418e-05 -2.3462e-15)
(0.999798 -5.53477e-05 -7.08574e-16)
(0.999863 -4.09759e-05 5.35982e-16)
(0.999908 -2.84199e-05 1.20391e-15)
(0.999938 -1.87281e-05 1.31134e-15)
(0.999957 -1.19762e-05 1.02194e-15)
(0.999968 -7.68282e-06 5.63372e-16)
(0.999976 -5.15759e-06 1.36224e-16)
(0.999981 -3.73767e-06 -1.4281e-16)
(0.999986 -2.91144e-06 -2.46913e-16)
(0.999989 -2.35243e-06 -2.2e-16)
(0.999992 -1.89499e-06 -1.30729e-16)
(0.999994 -1.48286e-06 -3.92606e-17)
(0.999996 -1.11574e-06 1.96717e-17)
(0.999997 -8.0905e-07 4.1712e-17)
(0.999998 -5.71972e-07 3.62797e-17)
(0.999998 -4.01286e-07 1.96466e-17)
(0.999999 -2.84527e-07 4.41881e-18)
(0.999999 -2.06149e-07 -4.85408e-18)
(0.999999 -1.52466e-07 -6.2925e-18)
(1 -1.13888e-07 -4.30591e-18)
(1 -8.48182e-08 -1.55832e-18)
(1 -6.24142e-08 5.20146e-19)
(1 -4.52385e-08 5.67418e-19)
(1 -3.23523e-08 9.55216e-19)
(1 -2.29107e-08 6.79869e-19)
(1 -1.61048e-08 1.98871e-19)
(1 -1.12182e-08 7.16929e-19)
(1 -7.69051e-09 2.3898e-19)
(1 -5.11847e-09 2.0832e-19)
(1 -3.23276e-09 2.7222e-19)
(1 -1.8491e-09 1.4494e-19)
(1 -8.41547e-10 8.26068e-19)
(1 -1.1334e-10 3.50761e-19)
(1 4.05876e-10 2.55316e-19)
(1 7.73535e-10 2.56786e-19)
(1 1.02891e-09 9.57639e-20)
(1 1.20461e-09 7.68561e-19)
(1 1.32038e-09 2.97497e-19)
(1 1.39446e-09 2.08771e-19)
(1 1.43613e-09 2.15127e-19)
(1 1.45631e-09 5.67004e-20)
(1 1.45889e-09 7.30528e-19)
(1 1.45097e-09 2.59447e-19)
(1 1.43348e-09 1.69843e-19)
(1 1.41145e-09 1.74702e-19)
(1 1.38413e-09 1.46998e-20)
(1 1.35549e-09 6.87611e-19)
(1 1.32384e-09 2.16917e-19)
(1 1.29257e-09 1.29265e-19)
(1 1.2595e-09 1.37411e-19)
(1 1.22774e-09 -1.85866e-20)
(1 1.1948e-09 6.58276e-19)
(1 1.16366e-09 1.9082e-19)
(1 1.13163e-09 1.05325e-19)
(1 1.10169e-09 1.14529e-19)
(1 1.07092e-09 -4.12481e-20)
(1 1.04257e-09 6.35393e-19)
(1 1.01307e-09 1.67651e-19)
(1 9.86901e-10 8.2091e-20)
(1 9.57816e-10 9.14897e-20)
(1 9.36175e-10 -6.34201e-20)
(1 9.02881e-10 6.12862e-19)
(1 8.97728e-10 1.52177e-19)
(1 8.37098e-10 3.97171e-20)
(1 9.0431e-10 1.83744e-19)
(1 7.36501e-10 -6.08458e-19)
(1.00014 -0.00143444 8.82773e-22)
(1.00218 -0.00433213 5.86139e-21)
(1.00682 -0.0074167 1.27781e-21)
(1.01392 -0.0107578 -3.71484e-22)
(1.02383 -0.0143785 -1.76811e-19)
(1.03681 -0.018185 2.1717e-19)
(1.05303 -0.0219833 -8.85028e-19)
(1.0724 -0.0253657 -1.57185e-18)
(1.09442 -0.0278933 6.46551e-18)
(1.11821 -0.029062 -1.45452e-18)
(1.14226 -0.0285861 -3.88484e-17)
(1.16518 -0.0268351 -2.89988e-17)
(1.18613 -0.0241005 1.11594e-16)
(1.20445 -0.0206602 3.41424e-16)
(1.2197 -0.0167431 4.94976e-16)
(1.23161 -0.012474 4.16669e-16)
(1.23994 -0.00792713 7.96131e-17)
(1.24449 -0.00316625 -3.84553e-16)
(1.2451 0.00170991 -8.00583e-16)
(1.2417 0.00653744 -1.10917e-15)
(1.23437 0.0110855 -1.29401e-15)
(1.22346 0.0150891 -1.36395e-15)
(1.20951 0.0183013 -1.34028e-15)
(1.1933 0.0205492 -1.24758e-15)
(1.17569 0.0217714 -1.10818e-15)
(1.15755 0.0220214 -9.39663e-16)
(1.13966 0.0214434 -7.54774e-16)
(1.12261 0.0202329 -5.61969e-16)
(1.10684 0.0185982 -3.66025e-16)
(1.09258 0.0167303 -1.69138e-16)
(1.07994 0.0147864 2.89061e-17)
(1.06891 0.0128838 2.27123e-16)
(1.05939 0.011101 4.24523e-16)
(1.05125 0.00948439 6.19724e-16)
(1.04435 0.00805498 8.09728e-16)
(1.03851 0.00681614 9.91533e-16)
(1.03358 0.00575958 1.16112e-15)
(1.02943 0.0048702 1.31493e-15)
(1.02591 0.00412958 1.45074e-15)
(1.02292 0.00351824 1.56724e-15)
(1.02036 0.00301715 1.66421e-15)
(1.01816 0.00260859 1.74078e-15)
(1.01624 0.00227663 1.7952e-15)
(1.01456 0.00200727 1.82463e-15)
(1.01306 0.00178854 1.8256e-15)
(1.01172 0.00161039 1.79557e-15)
(1.0105 0.00146457 1.73352e-15)
(1.00939 0.00134435 1.64109e-15)
(1.00835 0.00124439 1.522e-15)
(1.00739 0.00116044 1.38023e-15)
(1.00649 0.00108915 1.21979e-15)
(1.00564 0.00102789 1.04098e-15)
(1.00484 0.00097463 8.41448e-16)
(1.00407 0.000927774 6.19652e-16)
(1.00334 0.000886104 3.7195e-16)
(1.00264 0.000848671 9.77644e-17)
(1.00196 0.000814699 -2.01821e-16)
(1.00132 0.000783481 -5.21411e-16)
(1.00069 0.000754283 -8.48979e-16)
(1.00009 0.000726279 -1.17041e-15)
(0.999502 0.000698554 -1.46725e-15)
(0.99894 0.00067021 -1.72213e-15)
(0.9984 0.000640544 -1.91896e-15)
(0.997882 0.000609203 -2.04911e-15)
(0.997389 0.000576086 -2.11982e-15)
(0.996921 0.000540763 -2.15736e-15)
(0.996482 0.000501303 -2.21917e-15)
(0.996074 0.000452809 -2.38487e-15)
(0.995708 0.000386402 -2.74281e-15)
(0.995401 0.000289718 -3.36593e-15)
(0.99518 0.000149778 -4.28287e-15)
(0.995082 -4.17837e-05 -5.47836e-15)
(0.995148 -0.000282467 -6.91156e-15)
(0.995413 -0.000554143 -8.5605e-15)
(0.995893 -0.000822548 -1.04453e-14)
(0.996569 -0.00104275 -1.25965e-14)
(0.997389 -0.00117 -1.49806e-14)
(0.998266 -0.00117294 -1.7399e-14)
(0.999099 -0.00104447 -1.94562e-14)
(0.999787 -0.000805959 -2.06455e-14)
(1.00026 -0.000502795 -2.0547e-14)
(1.00049 -0.000192439 -1.90734e-14)
(1.00049 7.08106e-05 -1.66186e-14)
(1.00031 0.00024916 -1.40288e-14)
(1.00005 0.000328584 -1.23467e-14)
(0.999761 0.000318413 -1.24007e-14)
(0.99952 0.000244559 -1.4418e-14)
(0.999361 0.000139646 -1.78213e-14)
(0.999296 3.36675e-05 -2.13601e-14)
(0.999313 -5.22094e-05 -2.35535e-14)
(0.999389 -0.000107799 -2.32642e-14)
(0.999497 -0.000132612 -2.0137e-14)
(0.999613 -0.000132599 -1.47225e-14)
(0.999719 -0.000116494 -8.25709e-15)
(0.999806 -9.28598e-05 -2.20092e-15)
(0.999871 -6.83277e-05 2.26314e-15)
(0.999915 -4.6997e-05 4.57003e-15)
(0.999943 -3.06496e-05 4.84467e-15)
(0.99996 -1.93825e-05 3.72141e-15)
(0.999971 -1.23282e-05 2.02678e-15)
(0.999977 -8.26591e-06 4.72336e-16)
(0.999982 -6.037e-06 -5.31846e-16)
(0.999986 -4.76013e-06 -9.05692e-16)
(0.999989 -3.88571e-06 -8.05548e-16)
(0.999992 -3.1467e-06 -4.80237e-16)
(0.999994 -2.4635e-06 -1.47315e-16)
(0.999996 -1.848e-06 7.10413e-17)
(0.999997 -1.33342e-06 1.51226e-16)
(0.999998 -9.3787e-07 1.32354e-16)
(0.999999 -6.55687e-07 7.22406e-17)
(0.999999 -4.64602e-07 1.5975e-17)
(0.999999 -3.37335e-07 -1.59886e-17)
(0.999999 -2.50363e-07 -2.35803e-17)
(1 -1.87602e-07 -1.69376e-17)
(1 -1.39969e-07 -6.77513e-18)
(1 -1.03044e-07 5.70776e-19)
(1 -7.46691e-08 3.39552e-18)
(1 -5.3395e-08 3.0875e-18)
(1 -3.78476e-08 1.61864e-18)
(1 -2.66708e-08 3.20652e-19)
(1 -1.86601e-08 -2.17283e-19)
(1 -1.28767e-08 -2.32495e-19)
(1 -8.65535e-09 -2.66109e-20)
(1 -5.55423e-09 1.79382e-19)
(1 -3.27608e-09 2.56611e-19)
(1 -1.61474e-09 3.24097e-19)
(1 -4.13901e-10 3.13892e-19)
(1 4.44002e-10 2.78766e-19)
(1 1.05178e-09 2.57521e-19)
(1 1.47618e-09 2.17183e-19)
(1 1.76883e-09 2.61097e-19)
(1 1.96419e-09 2.70093e-19)
(1 2.09006e-09 2.57607e-19)
(1 2.16377e-09 2.47113e-19)
(1 2.20107e-09 2.06592e-19)
(1 2.21053e-09 2.454e-19)
(1 2.20158e-09 2.48854e-19)
(1 2.17799e-09 2.32012e-19)
(1 2.14572e-09 2.18349e-19)
(1 2.1059e-09 1.75635e-19)
(1 2.06261e-09 2.13348e-19)
(1 2.01553e-09 2.17115e-19)
(1 1.96775e-09 2.02099e-19)
(1 1.91818e-09 1.91478e-19)
(1 1.8694e-09 1.52368e-19)
(1 1.81987e-09 1.93483e-19)
(1 1.77192e-09 1.99828e-19)
(1 1.7237e-09 1.8627e-19)
(1 1.67752e-09 1.76039e-19)
(1 1.6312e-09 1.3656e-19)
(1 1.58741e-09 1.76966e-19)
(1 1.543e-09 1.82631e-19)
(1 1.50254e-09 1.68675e-19)
(1 1.45873e-09 1.58377e-19)
(1 1.42521e-09 1.19336e-19)
(1 1.37515e-09 1.59879e-19)
(1 1.36617e-09 1.68333e-19)
(1 1.27633e-09 1.48127e-19)
(1 1.37107e-09 1.63493e-19)
(1 1.1278e-09 5.67367e-20)
(1.00014 -0.0019893 -2.39779e-20)
(1.00211 -0.00601055 -4.75201e-19)
(1.00662 -0.0103064 -8.54579e-19)
(1.01357 -0.0149848 -1.69694e-18)
(1.02335 -0.0200895 -1.85912e-18)
(1.0363 -0.0254987 -1.85277e-18)
(1.05266 -0.0309458 -1.15901e-17)
(1.07244 -0.0358343 1.83877e-17)
(1.09517 -0.0395223 2.88345e-18)
(1.1199 -0.0412172 -1.44525e-16)
(1.14488 -0.0404831 -2.09731e-17)
(1.16852 -0.0379348 6.9568e-16)
(1.19 -0.0340103 1.33205e-15)
(1.2087 -0.0291171 7.2021e-16)
(1.22422 -0.0235828 -1.69045e-15)
(1.23633 -0.0175726 -5.25977e-15)
(1.24482 -0.0111765 -8.59454e-15)
(1.24948 -0.00446835 -1.02916e-14)
(1.2501 0.00242323 -1.01108e-14)
(1.24659 0.0092682 -8.94168e-15)
(1.23901 0.0157318 -7.25468e-15)
(1.22766 0.0214247 -5.37769e-15)
(1.21316 0.0259829 -3.53535e-15)
(1.19631 0.0291529 -1.85797e-15)
(1.17807 0.0308471 -3.99128e-16)
(1.15936 0.0311487 8.38676e-16)
(1.14099 0.0302723 1.88129e-15)
(1.12359 0.0285048 2.76451e-15)
(1.10759 0.0261478 3.52359e-15)
(1.09321 0.0234752 4.18725e-15)
(1.08054 0.0207097 4.77941e-15)
(1.06953 0.0180151 5.29864e-15)
(1.06008 0.0155 5.75638e-15)
(1.05203 0.0132265 6.15045e-15)
(1.04523 0.0112219 6.46982e-15)
(1.03948 0.00948858 6.71255e-15)
(1.03465 0.00801325 6.86525e-15)
(1.03058 0.0067735 6.92609e-15)
(1.02713 0.00574265 6.89821e-15)
(1.0242 0.00489286 6.7855e-15)
(1.0217 0.00419715 6.59705e-15)
(1.01954 0.00363052 6.33249e-15)
(1.01765 0.00317053 5.9926e-15)
(1.01599 0.00279757 5.57186e-15)
(1.01452 0.0024949 5.06374e-15)
(1.01319 0.00224848 4.46938e-15)
(1.01198 0.00204681 3.79431e-15)
(1.01087 0.00188056 3.05801e-15)
(1.00984 0.00174231 2.28081e-15)
(1.00887 0.00162618 1.47794e-15)
(1.00797 0.00152754 6.60072e-16)
(1.00712 0.00144278 -1.75104e-16)
(1.0063 0.00136908 -1.0355e-15)
(1.00553 0.00130424 -1.92865e-15)
(1.00479 0.0012466 -2.85851e-15)
(1.00408 0.00119486 -3.81523e-15)
(1.00339 0.00114796 -4.77971e-15)
(1.00273 0.00110496 -5.71902e-15)
(1.00209 0.00106485 -6.58867e-15)
(1.00147 0.0010265 -7.33894e-15)
(1.00087 0.000988641 -7.91574e-15)
(1.00029 0.000949999 -8.27662e-15)
(0.99973 0.000909565 -8.39887e-15)
(0.99919 0.000866796 -8.29986e-15)
(0.998673 0.00082151 -8.05507e-15)
(0.99818 0.000773112 -7.81719e-15)
(0.997713 0.000719025 -7.82133e-15)
(0.997276 0.000652681 -8.34477e-15)
(0.996877 0.000562091 -9.65831e-15)
(0.996533 0.000430442 -1.19461e-14)
(0.996268 0.000239929 -1.5262e-14)
(0.996117 -2.1153e-05 -1.95538e-14)
(0.996117 -0.000349811 -2.47404e-14)
(0.996302 -0.000721685 -3.08236e-14)
(0.996686 -0.00109015 -3.78755e-14)
(0.997256 -0.00139365 -4.58713e-14)
(0.997961 -0.00157048 -5.44082e-14)
(0.998723 -0.00157707 -6.24813e-14)
(0.999445 -0.00140305 -6.85765e-14)
(1.00003 -0.00107738 -7.11357e-14)
(1.00042 -0.000662345 -6.92825e-14)
(1.00058 -0.000237176 -6.34653e-14)
(1.00053 0.000122978 -5.56484e-14)
(1.00032 0.00036563 -4.89046e-14)
(1.00003 0.000471152 -4.64287e-14)
(0.999727 0.000452358 -5.02707e-14)
(0.999481 0.000345233 -6.02507e-14)
(0.999323 0.000195275 -7.35877e-14)
(0.999263 4.44821e-05 -8.56098e-14)
(0.999289 -7.7385e-05 -9.13728e-14)
(0.999376 -0.000155934 -8.75572e-14)
(0.999494 -0.000190466 -7.37153e-14)
(0.999618 -0.000189479 -5.24223e-14)
(0.99973 -0.000165519 -2.83354e-14)
(0.999819 -0.000130945 -6.55023e-15)
(0.999884 -9.53625e-05 9.04114e-15)
(0.999926 -6.47004e-05 1.67806e-14)
(0.999952 -4.14872e-05 1.73672e-14)
(0.999966 -2.57679e-05 1.31597e-14)
(0.999974 -1.61743e-05 7.0814e-15)
(0.999979 -1.08422e-05 1.59017e-15)
(0.999983 -8.03684e-06 -1.92659e-15)
(0.999987 -6.46964e-06 -3.22079e-15)
(0.99999 -5.36633e-06 -2.85577e-15)
(0.999992 -4.37789e-06 -1.70458e-15)
(0.999995 -3.42629e-06 -5.27764e-16)
(0.999996 -2.55573e-06 2.46037e-16)
(0.999997 -1.82862e-06 5.34125e-16)
(0.999998 -1.27547e-06 4.70792e-16)
(0.999999 -8.86908e-07 2.59274e-16)
(0.999999 -6.28133e-07 5.93231e-17)
(0.999999 -4.57899e-07 -5.61048e-17)
(0.999999 -3.41837e-07 -8.3982e-17)
(1 -2.57387e-07 -6.1086e-17)
(1 -1.92497e-07 -2.50582e-17)
(1 -1.41733e-07 1.40071e-18)
(1 -1.02599e-07 1.12688e-17)
(1 -7.33131e-08 1.08631e-17)
(1 -5.20083e-08 5.71247e-18)
(1 -3.67631e-08 9.44102e-19)
(1 -2.58652e-08 -6.02786e-19)
(1 -1.79956e-08 -1.30612e-18)
(1 -1.22387e-08 -7.42577e-19)
(1 -7.99761e-09 -4.92123e-20)
(1 -4.87553e-09 1.90138e-19)
(1 -2.59595e-09 9.47113e-19)
(1 -9.47371e-10 3.79889e-19)
(1 2.31686e-10 1.66208e-19)
(1 1.06856e-09 1.07514e-19)
(1 1.6554e-09 -2.60321e-20)
(1 2.06246e-09 6.8608e-19)
(1 2.33713e-09 2.18853e-19)
(1 2.51682e-09 1.08395e-19)
(1 2.6255e-09 1.02088e-19)
(1 2.6842e-09 -2.37675e-20)
(1 2.70505e-09 6.76286e-19)
(1 2.70046e-09 1.95976e-19)
(1 2.67605e-09 7.82248e-20)
(1 2.63946e-09 6.97194e-20)
(1 2.59269e-09 -5.58097e-20)
(1 2.54082e-09 6.45532e-19)
(1 2.48389e-09 1.6719e-19)
(1 2.42563e-09 5.22473e-20)
(1 2.36504e-09 4.73051e-20)
(1 2.30512e-09 -7.44017e-20)
(1 2.24426e-09 6.30337e-19)
(1 2.18516e-09 1.54411e-19)
(1 2.12579e-09 4.0681e-20)
(1 2.06879e-09 3.58706e-20)
(1 2.01171e-09 -8.64177e-20)
(1 1.95763e-09 6.17462e-19)
(1 1.90286e-09 1.40763e-19)
(1 1.85292e-09 2.65755e-20)
(1 1.79888e-09 2.16084e-20)
(1 1.75747e-09 -1.00194e-19)
(1 1.69596e-09 6.03004e-19)
(1 1.68353e-09 1.32679e-19)
(1 1.57623e-09 -7.41255e-21)
(1 1.68059e-09 1.16661e-19)
(1 1.3994e-09 -6.19782e-19)
(1.00013 -0.00252381 -2.19337e-18)
(1.00202 -0.00763019 -6.88249e-18)
(1.00635 -0.0131116 -6.12719e-18)
(1.01307 -0.0191248 -9.32175e-18)
(1.02265 -0.0257467 5.39046e-19)
(1.03551 -0.0328392 -3.07835e-17)
(1.05204 -0.04007 2.21265e-17)
(1.07236 -0.0466296 8.27605e-17)
(1.09606 -0.0516454 -4.52065e-16)
(1.12214 -0.053929 5.51846e-17)
(1.14839 -0.0528542 2.50773e-15)
(1.17299 -0.0494015 2.49406e-15)
(1.19518 -0.0441849 -5.43415e-15)
(1.21436 -0.0377594 -2.07959e-14)
(1.23022 -0.0305565 -3.66843e-14)
(1.2426 -0.0227719 -4.4941e-14)
(1.2513 -0.014498 -4.13875e-14)
(1.25611 -0.00580583 -2.76846e-14)
(1.25678 0.00315475 -1.00181e-14)
(1.25314 0.0120889 6.43114e-15)
(1.2452 0.0205504 1.96475e-14)
(1.23329 0.0280113 2.91152e-14)
(1.21801 0.0339731 3.51136e-14)
(1.2003 0.0380893 3.83151e-14)
(1.18118 0.0402431 3.95004e-14)
(1.16168 0.0405536 3.93698e-14)
(1.14267 0.0393177 3.85054e-14)
(1.12481 0.036926 3.72995e-14)
(1.10851 0.0337837 3.59964e-14)
(1.09398 0.0302538 3.47138e-14)
(1.08127 0.0266268 3.34722e-14)
(1.07031 0.0231131 3.22418e-14)
(1.06095 0.0198493 3.09701e-14)
(1.05303 0.0169113 2.95937e-14)
(1.04636 0.0143298 2.80677e-14)
(1.04075 0.0121044 2.63589e-14)
(1.03604 0.0102151 2.44521e-14)
(1.03207 0.00863101 2.23501e-14)
(1.02873 0.00731641 2.00711e-14)
(1.02588 0.00623459 1.76489e-14)
(1.02345 0.00535029 1.5113e-14)
(1.02134 0.00463105 1.24796e-14)
(1.0195 0.00404787 9.74529e-15)
(1.01787 0.00357549 6.8965e-15)
(1.01642 0.00319239 3.93106e-15)
(1.01511 0.00288064 8.70182e-16)
(1.01391 0.00262552 -2.23492e-15)
(1.0128 0.00241521 -5.31661e-15)
(1.01178 0.00224027 -8.31307e-15)
(1.01081 0.00209328 -1.1187e-14)
(1.0099 0.00196841 -1.39384e-14)
(1.00904 0.00186107 -1.6599e-14)
(1.00822 0.00176772 -1.92061e-14)
(1.00744 0.00168561 -2.1776e-14)
(1.00669 0.00161266 -2.42926e-14)
(1.00596 0.00154724 -2.66911e-14)
(1.00526 0.00148807 -2.88714e-14)
(1.00458 0.00143397 -3.07024e-14)
(1.00393 0.00138371 -3.20346e-14)
(1.00329 0.00133585 -3.27238e-14)
(1.00267 0.00128879 -3.26463e-14)
(1.00206 0.00124087 -3.17407e-14)
(1.00148 0.00119075 -3.00444e-14)
(1.00091 0.00113765 -2.77512e-14)
(1.00036 0.00108127 -2.52652e-14)
(0.999832 0.00102083 -2.32174e-14)
(0.999329 0.000953213 -2.24331e-14)
(0.998854 0.000870395 -2.3784e-14)
(0.998414 0.000757664 -2.79891e-14)
(0.998022 0.000594234 -3.54271e-14)
(0.997701 0.00035788 -4.60918e-14)
(0.997481 3.37071e-05 -5.97852e-14)
(0.997397 -0.000375096 -7.63949e-14)
(0.997479 -0.000838739 -9.60342e-14)
(0.99774 -0.00129944 -1.18797e-13)
(0.99817 -0.0016803 -1.44052e-13)
(0.998724 -0.00190383 -1.69654e-13)
(0.999331 -0.0019148 -1.91698e-13)
(0.999904 -0.00169958 -2.05398e-13)
(1.00036 -0.00129405 -2.07003e-13)
(1.00063 -0.000776288 -1.9597e-13)
(1.00069 -0.000246137 -1.76274e-13)
(1.00057 0.000201465 -1.55971e-13)
(1.00031 0.000500034 -1.45006e-13)
(0.999985 0.000624645 -1.51972e-13)
(0.999669 0.000591598 -1.80498e-13)
(0.999417 0.000446794 -2.26587e-13)
(0.999263 0.000248457 -2.7843e-13)
(0.999213 5.05268e-05 -3.19474e-13)
(0.999254 -0.000108618 -3.34038e-13)
(0.999356 -0.000210369 -3.1319e-13)
(0.99949 -0.000253913 -2.58042e-13)
(0.999626 -0.000250544 -1.79389e-13)
(0.999745 -0.00021698 -9.39685e-14)
(0.999838 -0.000169772 -1.89018e-14)
(0.999902 -0.000121814 3.34725e-14)
(0.999942 -8.10236e-05 5.85544e-14)
(0.999964 -5.06769e-05 5.94708e-14)
(0.999974 -3.06414e-05 4.45681e-14)
(0.999979 -1.88664e-05 2.37519e-14)
(0.999982 -1.2674e-05 5.17747e-15)
(0.999984 -9.6367e-06 -6.63117e-15)
(0.999987 -8.00806e-06 -1.09422e-14)
(0.99999 -6.79241e-06 -9.68181e-15)
(0.999993 -5.59158e-06 -5.78619e-15)
(0.999995 -4.36817e-06 -1.80676e-15)
(0.999997 -3.22877e-06 8.19408e-16)
(0.999998 -2.28093e-06 1.80435e-15)
(0.999998 -1.57148e-06 1.5996e-15)
(0.999999 -1.08457e-06 8.87971e-16)
(0.999999 -7.68212e-07 2.08617e-16)
(0.999999 -5.6377e-07 -1.8528e-16)
(0.999999 -4.24612e-07 -2.85417e-16)
(1 -3.21868e-07 -2.10122e-16)
(1 -2.41393e-07 -8.73584e-17)
(1 -1.77621e-07 3.05069e-18)
(1 -1.28283e-07 3.9192e-17)
(1 -9.14972e-08 3.67013e-17)
(1 -6.49304e-08 1.88385e-17)
(1 -4.60517e-08 3.42814e-18)
(1 -3.26052e-08 -4.09013e-18)
(1 -2.28885e-08 -5.45363e-18)
(1 -1.5755e-08 -3.18931e-18)
(1 -1.04783e-08 -8.71529e-19)
(1 -6.58367e-09 9.2299e-19)
(1 -3.73677e-09 1.3688e-18)
(1 -1.67782e-09 5.18066e-19)
(1 -2.0432e-10 1.20439e-19)
(1 8.43252e-10 -1.66644e-19)
(1 1.58106e-09 3.17385e-19)
(1 2.096e-09 5.85396e-19)
(1 2.44733e-09 6.30162e-20)
(1 2.68058e-09 1.01872e-20)
(1 2.826e-09 -1.04623e-19)
(1 2.90899e-09 3.99343e-19)
(1 2.94526e-09 6.21514e-19)
(1 2.94953e-09 5.28201e-20)
(1 2.92944e-09 -2.34933e-20)
(1 2.89378e-09 -1.42689e-19)
(1 2.8457e-09 3.65082e-19)
(1 2.79079e-09 5.91933e-19)
(1 2.7298e-09 2.6685e-20)
(1 2.66663e-09 -4.68205e-20)
(1 2.60073e-09 -1.6302e-19)
(1 2.53512e-09 3.48002e-19)
(1 2.46852e-09 5.77833e-19)
(1 2.40351e-09 1.47141e-20)
(1 2.33835e-09 -5.77793e-20)
(1 2.27555e-09 -1.73964e-19)
(1 2.21282e-09 3.36445e-19)
(1 2.1532e-09 5.65467e-19)
(1 2.09297e-09 1.67762e-21)
(1 2.03793e-09 -7.11522e-20)
(1 1.97851e-09 -1.87399e-19)
(1 1.93276e-09 3.23592e-19)
(1 1.86555e-09 5.51827e-19)
(1 1.84982e-09 -5.12452e-21)
(1 1.73677e-09 -1.0528e-19)
(1 1.83462e-09 -9.02021e-20)
(1 1.55081e-09 -1.7842e-19)
(1.00012 -0.0030303 2.04471e-18)
(1.00189 -0.00916852 8.22462e-18)
(1.00597 -0.0157978 5.75553e-18)
(1.01237 -0.0231379 1.01504e-17)
(1.02166 -0.0313153 2.25228e-17)
(1.03436 -0.0401949 -9.86442e-17)
(1.05106 -0.0493912 4.73852e-16)
(1.07203 -0.0578524 -1.01688e-15)
(1.097 -0.0644398 -4.2967e-16)
(1.12488 -0.0673973 7.10042e-15)
(1.15281 -0.0658518 2.11955e-15)
(1.17862 -0.0613397 -3.24394e-14)
(1.20168 -0.05469 -7.64588e-14)
(1.22144 -0.0466308 -8.64659e-14)
(1.23769 -0.0377032 -3.35078e-14)
(1.25038 -0.0281142 7.59014e-14)
(1.25935 -0.0179336 2.06963e-13)
(1.26436 -0.00720348 3.12951e-13)
(1.2651 0.00392039 3.70069e-13)
(1.26131 0.0150747 3.92466e-13)
(1.25295 0.0256796 3.88802e-13)
(1.24029 0.0350379 3.67364e-13)
(1.22404 0.0424886 3.35749e-13)
(1.20521 0.0475761 2.99965e-13)
(1.18497 0.0501562 2.64125e-13)
(1.16446 0.0503981 2.30623e-13)
(1.14465 0.0487016 2.00652e-13)
(1.1262 0.0455805 1.74581e-13)
(1.10954 0.0415576 1.52237e-13)
(1.09484 0.0370924 1.33111e-13)
(1.0821 0.032546 1.16504e-13)
(1.0712 0.0281742 1.01704e-13)
(1.06198 0.0241383 8.80937e-14)
(1.05422 0.0205243 7.52123e-14)
(1.04772 0.0173629 6.27407e-14)
(1.04229 0.014648 5.04966e-14)
(1.03773 0.0123506 3.84046e-14)
(1.03391 0.0104297 2.64723e-14)
(1.03068 0.00883952 1.47593e-14)
(1.02794 0.00753375 3.33171e-15)
(1.02559 0.00646848 -7.76701e-15)
(1.02355 0.00560356 -1.85387e-14)
(1.02177 0.00490333 -2.9018e-14)
(1.02018 0.00433685 -3.92346e-14)
(1.01876 0.00387788 -4.91696e-14)
(1.01747 0.00350458 -5.87245e-14)
(1.01628 0.00319916 -6.77403e-14)
(1.01518 0.00294735 -7.60515e-14)
(1.01416 0.00273785 -8.35569e-14)
(1.01319 0.00256175 -9.02688e-14)
(1.01228 0.00241209 -9.63014e-14)
(1.01141 0.00228341 -1.01811e-13)
(1.01058 0.00217148 -1.06914e-13)
(1.00979 0.00207303 -1.11612e-13)
(1.00902 0.00198561 -1.15753e-13)
(1.00828 0.00190732 -1.19044e-13)
(1.00756 0.00183668 -1.2109e-13)
(1.00686 0.00177235 -1.21459e-13)
(1.00618 0.00171287 -1.19734e-13)
(1.00552 0.00165656 -1.15568e-13)
(1.00487 0.00160146 -1.08764e-13)
(1.00424 0.00154555 -9.93622e-14)
(1.00362 0.0014871 -8.77796e-14)
(1.00302 0.00142507 -7.49522e-14)
(1.00243 0.00135896 -6.24385e-14)
(1.00187 0.00128782 -5.24051e-14)
(1.00132 0.00120806 -4.73758e-14)
(1.0008 0.00111046 -4.97313e-14)
(1.00031 0.000978055 -6.10894e-14)
(0.999857 0.000786656 -8.18798e-14)
(0.999468 0.000510176 -1.11504e-13)
(0.999166 0.00013079 -1.49151e-13)
(0.99898 -0.000348376 -1.94691e-13)
(0.998935 -0.000892998 -2.48498e-13)
(0.999047 -0.00143558 -3.10105e-13)
(0.999304 -0.00188564 -3.75964e-13)
(0.999671 -0.00215137 -4.3772e-13)
(1.00008 -0.0021669 -4.82967e-13)
(1.00047 -0.00191543 -4.99419e-13)
(1.00075 -0.00143904 -4.81248e-13)
(1.00087 -0.000830329 -4.34507e-13)
(1.00082 -0.000208121 -3.78487e-13)
(1.0006 0.000314279 -3.41446e-13)
(1.00028 0.000657419 -3.52119e-13)
(0.999917 0.000791586 -4.30268e-13)
(0.999581 0.000736631 -5.77217e-13)
(0.999325 0.000548209 -7.70138e-13)
(0.999178 0.000297083 -9.64203e-13)
(0.999144 4.90565e-05 -1.10417e-12)
(0.999205 -0.00014887 -1.14259e-12)
(0.99933 -0.000273883 -1.0571e-12)
(0.999484 -0.000325224 -8.58607e-13)
(0.999636 -0.000317344 -5.87745e-13)
(0.999766 -0.000271659 -3.01431e-13)