/*--------------------------------*- C++ -*----------------------------------*\
  =========                 |
  \\      /  F ield         | OpenFOAM: The Open Source CFD Toolbox
   \\    /   O peration     | Website:  https://openfoam.org
    \\  /    A nd           | Version:  11
     \\/     M anipulation  |
\*---------------------------------------------------------------------------*/
FoamFile
{
    format      ascii;
    class       volVectorField;
    location    "2.69772";
    object      vorticity;
}
// * * * * * * * * * * * * * * * * * * * * * * * * * * * * * * * * * * * * * //

dimensions      [0 0 -1 0 0 0 0];

internalField   nonuniform List<vector> 
7132
(
(-3.56787e-17 -1.81796e-15 -0.0115167)
(-1.25902e-16 -1.78517e-15 -0.0115302)
(-1.24136e-16 -1.77521e-17 -0.0115677)
(-1.49657e-16 -1.77625e-15 -0.0116334)
(-1.94521e-16 -1.76808e-15 -0.0117305)
(-1.95264e-16 -2.24663e-18 -0.0118602)
(-1.78942e-16 1.15185e-17 -0.0120229)
(-1.65516e-16 1.37997e-17 -0.0122134)
(-9.24665e-17 1.0733e-17 -0.0124251)
(-5.74568e-17 7.75122e-18 -0.0126452)
(-9.724e-17 4.03169e-18 -0.0128557)
(-5.57617e-17 8.41619e-18 -0.013056)
(-9.90375e-17 1.32881e-18 -0.0132306)
(1.01239e-17 8.32651e-17 -0.0133703)
(4.68892e-16 -1.54885e-15 -0.0134693)
(8.92011e-16 -3.2596e-15 -0.013524)
(1.1698e-15 -3.37637e-15 -0.0135343)
(1.04542e-15 5.91813e-17 -0.0135004)
(1.03473e-15 -1.55707e-15 -0.0134262)
(1.00383e-15 -1.63825e-15 -0.0133172)
(7.55178e-16 -2.07864e-17 -0.0131802)
(4.95512e-16 -4.40565e-17 -0.0130222)
(2.56223e-16 -3.74397e-17 -0.0128494)
(6.82622e-17 -7.67905e-17 -0.0126668)
(-1.92595e-16 1.65992e-15 -0.0124785)
(-3.00943e-16 -1.58848e-17 -0.0122871)
(-3.69475e-16 -8.66446e-18 -0.0120946)
(-3.98381e-16 -1.0785e-17 -0.0119023)
(-3.97831e-16 -3.86125e-17 -0.011711)
(-4.01965e-16 1.67501e-15 -0.0115208)
(-3.35984e-16 1.68724e-15 -0.0113321)
(-2.91566e-16 1.70622e-15 -0.0111444)
(-1.73589e-16 -3.56111e-17 -0.0109574)
(-6.15667e-17 1.68399e-15 -0.0107704)
(4.58532e-17 1.68493e-15 -0.0105825)
(1.70351e-16 1.69198e-15 -0.0103921)
(2.45639e-16 1.7041e-15 -0.0101966)
(3.06192e-16 -3.47983e-17 -0.00999137)
(3.1783e-16 1.702e-15 -0.00977163)
(3.09359e-16 1.71844e-15 -0.00953685)
(3.04061e-16 1.73477e-15 -0.00929675)
(3.07422e-16 1.7361e-15 -0.00907393)
(4.04905e-16 -3.3724e-17 -0.00889595)
(5.66888e-16 1.66394e-15 -0.00877416)
(7.31581e-16 1.65399e-15 -0.00867676)
(7.46246e-16 1.68731e-15 -0.00851313)
(4.94704e-16 1.75494e-15 -0.0081478)
(1.14572e-16 6.83263e-17 -0.00744858)
(-1.30746e-16 1.80951e-15 -0.0063521)
(7.7543e-17 1.75719e-15 -0.00491438)
(8.89904e-16 -1.04267e-16 -0.00331553)
(2.03341e-15 -1.98451e-15 -0.00180866)
(3.09768e-15 -3.25453e-16 -0.00063248)
(3.76304e-15 -3.13593e-16 7.25549e-05)
(3.93878e-15 -2.38231e-16 0.000305933)
(3.89444e-15 -1.33835e-16 0.000190372)
(3.84146e-15 -1.75975e-15 -9.02024e-05)
(3.82791e-15 1.15639e-16 -0.000364546)
(3.65851e-15 2.87103e-16 -0.000526375)
(2.96572e-15 4.5228e-16 -0.000548558)
(1.64138e-15 5.45413e-16 -0.000463746)
(-1.58283e-16 -1.22851e-15 -0.000329567)
(-1.89374e-15 3.48074e-16 -0.0001977)
(-2.98585e-15 -1.63458e-15 -9.78381e-05)
(-3.13338e-15 -1.88123e-15 -3.69604e-05)
(-2.39437e-15 -2.89797e-16 -7.58013e-06)
(-1.25711e-15 -2.04607e-15 2.52329e-06)
(-1.58118e-16 -2.22341e-16 3.75913e-06)
(5.45421e-16 -1.83332e-15 2.38798e-06)
(7.51108e-16 -1.73137e-15 1.06172e-06)
(6.22889e-16 6.7591e-17 3.72898e-07)
(3.02662e-16 -1.66014e-15 1.61493e-07)
(3.45369e-17 5.60196e-17 1.86116e-07)
(-1.04084e-16 -1.71469e-15 3.06029e-07)
(-1.30506e-16 -1.74686e-15 4.55762e-07)
(-6.05864e-17 -1.63484e-17 5.96978e-07)
(-2.44749e-17 -1.74864e-15 7.03272e-07)
(7.23845e-18 -2.94133e-19 7.63716e-07)
(2.0034e-17 -1.73254e-15 7.84031e-07)
(1.09152e-17 -1.73903e-15 7.79294e-07)
(2.80355e-17 3.17249e-20 7.64447e-07)
(2.33537e-18 -1.73549e-15 7.48561e-07)
(-4.42318e-18 5.69782e-18 7.34574e-07)
(-2.7008e-18 -1.73221e-15 7.21859e-07)
(-6.30938e-18 -1.74111e-15 7.0901e-07)
(2.05468e-17 -1.98011e-18 6.9521e-07)
(1.65991e-18 -1.73647e-15 6.80438e-07)
(-2.64883e-18 5.60909e-18 6.6506e-07)
(-1.45786e-18 -1.73188e-15 6.49467e-07)
(-5.70647e-18 -1.74096e-15 6.33902e-07)
(1.77604e-17 -1.00563e-18 6.1847e-07)
(9.38016e-18 -1.7414e-15 6.03211e-07)
(3.48057e-18 -3.42809e-18 5.88135e-07)
(1.25151e-17 4.67301e-18 5.73265e-07)
(1.20361e-17 -1.73497e-15 5.58612e-07)
(1.20452e-17 3.7734e-19 5.44203e-07)
(-1.15668e-19 -1.7409e-15 5.30041e-07)
(-5.33405e-18 -3.01053e-18 5.16146e-07)
(5.16549e-18 5.22986e-18 5.02512e-07)
(6.10439e-18 -1.73423e-15 4.89158e-07)
(7.33556e-18 1.25395e-18 4.76072e-07)
(-3.7999e-18 -1.73999e-15 4.63274e-07)
(-8.16994e-18 -2.1981e-18 4.50746e-07)
(3.01556e-18 5.85023e-18 4.3851e-07)
(4.48869e-18 -1.73384e-15 4.26545e-07)
(6.11478e-18 1.40567e-18 4.14873e-07)
(-4.74646e-18 -1.74001e-15 4.03471e-07)
(-8.93733e-18 -2.29344e-18 3.92359e-07)
(2.36243e-18 5.76534e-18 3.81512e-07)
(3.91517e-18 -1.73385e-15 3.70951e-07)
(5.61144e-18 1.49657e-18 3.60647e-07)
(-5.17276e-18 -1.73984e-15 3.50624e-07)
(-9.27389e-18 -2.09576e-18 3.4085e-07)
(2.12483e-18 5.92664e-18 3.31348e-07)
(3.77602e-18 -1.73377e-15 3.22085e-07)
(5.56016e-18 1.46492e-18 3.13085e-07)
(-5.1598e-18 -1.7399e-15 3.04314e-07)
(-9.20487e-18 -2.44751e-18 2.95796e-07)
(2.17059e-18 6.74391e-18 2.87495e-07)
(3.9767e-18 -1.73834e-15 2.79437e-07)
(5.43991e-18 -6.82949e-18 2.71584e-07)
(-5.94713e-18 -1.96681e-18 2.63963e-07)
(-1.00589e-17 4.71577e-18 2.56537e-07)
(1.50556e-18 8.45883e-18 2.49331e-07)
(3.5433e-18 -1.73792e-15 2.42308e-07)
(5.20754e-18 -6.73581e-18 2.35495e-07)
(-6.02393e-18 -1.96274e-18 2.28854e-07)
(-1.0022e-17 4.6897e-18 2.22413e-07)
(1.62195e-18 8.41894e-18 2.16132e-07)
(3.71273e-18 -1.73797e-15 2.10042e-07)
(5.4106e-18 -6.79601e-18 2.04101e-07)
(-5.80003e-18 -2.02905e-18 1.98342e-07)
(-9.78328e-18 4.6322e-18 1.92723e-07)
(1.87589e-18 8.40029e-18 1.87277e-07)
(3.98771e-18 -1.73791e-15 1.81963e-07)
(5.71461e-18 -6.61542e-18 1.76812e-07)
(-5.46136e-18 -1.71565e-18 1.71785e-07)
(-9.41156e-18 5.04765e-18 1.66915e-07)
(2.26873e-18 8.83687e-18 1.62159e-07)
(4.37993e-18 -1.73756e-15 1.57553e-07)
(6.07928e-18 -6.4761e-18 1.53055e-07)
(-5.14912e-18 -1.84588e-18 1.48701e-07)
(-9.16743e-18 4.65669e-18 1.44448e-07)
(2.44241e-18 8.26852e-18 1.40332e-07)
(4.49378e-18 -1.73818e-15 1.3631e-07)
(6.15221e-18 -7.01314e-18 1.32421e-07)
(-5.09651e-18 -2.21631e-18 1.2862e-07)
(-9.11871e-18 4.47684e-18 1.24946e-07)
(2.49637e-18 8.24617e-18 1.21356e-07)
(4.55492e-18 -1.73811e-15 1.17886e-07)
(6.21766e-18 -6.91717e-18 1.14495e-07)
(-5.03125e-18 -2.14105e-18 1.1122e-07)
(-9.05741e-18 4.51381e-18 1.08019e-07)
(2.55218e-18 8.24527e-18 1.0493e-07)
(4.60381e-18 -1.73812e-15 1.01914e-07)
(6.26696e-18 -6.99615e-18 9.90064e-08)
(-5.00854e-18 -1.9031e-18 9.6183e-08)
(-8.93921e-18 3.29077e-18 9.33933e-08)
(2.26042e-18 1.38481e-17 9.10045e-08)
(5.89501e-18 -1.72502e-15 8.66712e-08)
(-3.58496e-17 -3.50042e-18 -0.0344451)
(-1.30532e-16 -6.00432e-18 -0.034487)
(-1.3681e-16 -6.72176e-18 -0.0345986)
(-1.66084e-16 -8.02891e-18 -0.0347916)
(-2.22778e-16 -8.85455e-18 -0.0350751)
(-2.285e-16 -8.34246e-18 -0.0354528)
(-2.39196e-16 -3.35589e-18 -0.0359265)
(-2.38196e-16 -2.94378e-17 -0.0364813)
(-5.79493e-17 1.69143e-15 -0.0370994)
(-2.00609e-16 1.0138e-17 -0.0377429)
(-8.07384e-16 3.18418e-18 -0.0383533)
(-6.90053e-16 1.74404e-15 -0.0389274)
(1.1526e-15 -3.1614e-17 -0.0394132)
(3.87614e-15 -2.02394e-16 -0.0397792)
(5.56489e-15 -2.55492e-16 -0.040005)
(4.91062e-15 -1.38491e-16 -0.0400748)
(2.916e-15 1.67981e-17 -0.0399846)
(5.14734e-16 1.2799e-16 -0.0397369)
(-1.31599e-15 2.01839e-16 -0.0393467)
(-2.57407e-15 2.34551e-16 -0.0388379)
(-3.50307e-15 2.29984e-16 -0.0382411)
(-4.03499e-15 2.05421e-16 -0.0375889)
(-4.26042e-15 1.76185e-16 -0.0369114)
(-4.24814e-15 1.4423e-16 -0.0362333)
(-4.18856e-15 1.09802e-16 -0.0355716)
(-3.9018e-15 7.59436e-17 -0.0349364)
(-3.48844e-15 4.00547e-17 -0.0343322)
(-2.96016e-15 3.39275e-18 -0.0337591)
(-2.33339e-15 -3.8515e-17 -0.0332143)
(-1.66527e-15 -9.23351e-17 -0.0326937)
(-9.26519e-16 1.63288e-15 -0.032192)
(-1.23411e-16 -1.84273e-15 -0.0317039)
(6.64462e-16 -1.88449e-15 -0.031224)
(1.33282e-15 -1.60879e-16 -0.0307471)
(1.883e-15 -1.90132e-15 -0.0302681)
(2.26013e-15 1.59208e-15 -0.0297812)
(2.48876e-15 -9.76959e-17 -0.0292772)
(2.54709e-15 -1.80541e-15 -0.0287421)
(2.41479e-15 -3.45155e-17 -0.0281611)
(2.18471e-15 -1.74412e-15 -0.0275309)
(2.00239e-15 1.73574e-15 -0.026879)
(2.14287e-15 -4.88311e-17 -0.0262739)
(2.75608e-15 -1.89807e-15 -0.0258046)
(3.6506e-15 -2.34231e-16 -0.0255203)
(4.2345e-15 -1.90509e-15 -0.0253474)
(3.74801e-15 1.80587e-15 -0.0250339)
(2.0269e-15 3.36104e-16 -0.0241784)
(-5.12758e-17 -1.35358e-15 -0.0223633)
(-7.84263e-16 9.33057e-17 -0.0193508)
(1.31496e-15 -2.22269e-15 -0.0152474)
(6.2581e-15 -2.81714e-15 -0.0105395)
(1.21739e-14 -1.35368e-15 -0.00596183)
(1.64969e-14 -2.92478e-15 -0.00224623)
(1.77786e-14 -7.34145e-16 0.000133931)
(1.66255e-14 -2.03865e-15 0.00110738)
(1.52395e-14 -1.81979e-15 0.000978411)
(1.54411e-14 8.23155e-18 0.000260046)
(1.72166e-14 -1.52772e-15 -0.000540388)
(1.85508e-14 7.182e-16 -0.00108397)
(1.66289e-14 -2.73877e-16 -0.00125599)
(9.98703e-15 3.72704e-16 -0.00112123)
(-3.05586e-16 2.27378e-15 -0.000828128)
(-1.08786e-14 2.71078e-17 -0.000518688)
(-1.79062e-14 7.19944e-16 -0.000278526)
(-1.92369e-14 -3.91168e-15 -0.000131168)
(-1.51614e-14 5.06777e-16 -5.94848e-05)
(-8.16621e-15 -1.42947e-15 -3.27093e-05)
(-1.3242e-15 -2.85832e-15 -2.49306e-05)
(3.16719e-15 -5.53226e-16 -2.15951e-05)
(4.59923e-15 -3.50482e-15 -1.76936e-05)
(3.7632e-15 2.02655e-15 -1.31262e-05)
(1.94442e-15 3.68762e-16 -8.98043e-06)
(2.94207e-16 -1.47533e-15 -5.85804e-06)
(-5.96191e-16 1.02557e-16 -3.70826e-06)
(-7.9017e-16 -3.50333e-15 -2.21296e-06)
(-5.28256e-16 1.66536e-15 -1.10431e-06)
(-1.84068e-16 -4.7831e-17 -2.52511e-07)
(4.43308e-17 -1.75727e-15 3.85774e-07)
(1.39753e-16 3.46979e-19 8.36045e-07)
(9.4295e-17 -3.47775e-15 1.1354e-06)
(4.87807e-17 1.73905e-15 1.32827e-06)
(9.86089e-18 1.54646e-17 1.45286e-06)
(-1.00239e-17 -1.72651e-15 1.53426e-06)
(6.63269e-18 3.46e-18 1.58591e-06)
(-1.03087e-17 -3.48746e-15 1.61482e-06)
(3.39348e-18 1.72876e-15 1.62559e-06)
(7.91478e-18 9.84935e-18 1.62235e-06)
(4.51639e-18 -1.72756e-15 1.60884e-06)
(1.87625e-17 4.37305e-18 1.58815e-06)
(-3.58923e-18 -3.48529e-15 1.56259e-06)
(-7.55436e-18 1.72617e-15 1.53373e-06)
(-4.26137e-18 4.6832e-19 1.50263e-06)
(-1.66511e-17 -4.99556e-18 1.47005e-06)
(-5.67548e-18 1.73512e-15 1.43657e-06)
(-2.36119e-18 -7.83107e-21 1.4026e-06)
(-1.58909e-18 1.74118e-15 1.36846e-06)
(1.20687e-18 2.51291e-18 1.33439e-06)
(-1.2658e-17 -5.65111e-18 1.30056e-06)
(-3.0063e-18 1.73423e-15 1.26709e-06)
(-6.25842e-19 -5.86639e-19 1.23409e-06)
(-4.1534e-19 1.74093e-15 1.20161e-06)
(2.10435e-18 2.48179e-18 1.16971e-06)
(-1.18524e-17 -5.60582e-18 1.13842e-06)
(-2.2053e-18 1.73424e-15 1.10779e-06)
(1.76615e-19 -6.70778e-19 1.0778e-06)
(3.40342e-19 1.74075e-15 1.0485e-06)
(2.74387e-18 2.23892e-18 1.01986e-06)
(-1.13876e-17 -5.84789e-18 9.91914e-07)
(-1.94018e-18 1.73406e-15 9.64637e-07)
(2.60249e-19 -7.54738e-19 9.3805e-07)
(2.98849e-19 1.74076e-15 9.12121e-07)
(2.65568e-18 2.32616e-18 8.86869e-07)
(-1.14431e-17 -5.74455e-18 8.62258e-07)
(-1.90204e-18 1.73413e-15 8.38306e-07)
(4.20744e-19 -7.67946e-19 8.14974e-07)
(5.82166e-19 1.74066e-15 7.92278e-07)
(3.01195e-18 2.20604e-18 7.70177e-07)
(-1.0954e-17 -6.1127e-18 7.48688e-07)
(-1.82958e-18 1.73488e-15 7.27767e-07)
(2.59872e-18 -5.24787e-18 7.07431e-07)
(-7.99087e-18 1.73286e-15 6.87635e-07)
(-9.26936e-18 1.74051e-15 6.68397e-07)
(-1.14127e-17 9.89428e-19 6.49671e-07)
(1.92829e-19 1.73638e-15 6.31476e-07)
(4.90383e-18 -5.04748e-18 6.13764e-07)
(-5.87522e-18 1.73277e-15 5.96556e-07)
(-7.40913e-18 1.74038e-15 5.79804e-07)
(-9.78673e-18 8.66762e-19 5.6353e-07)
(1.61807e-18 1.73628e-15 5.47686e-07)
(6.15861e-18 -5.14096e-18 5.32294e-07)
(-4.76467e-18 1.73268e-15 5.17308e-07)
(-6.41763e-18 1.74029e-15 5.0275e-07)
(-8.88613e-18 7.94238e-19 4.88574e-07)
(2.46167e-18 1.73624e-15 4.74805e-07)
(6.98435e-18 -5.10433e-18 4.61395e-07)
(-3.91772e-18 1.73283e-15 4.48371e-07)
(-5.52025e-18 1.74057e-15 4.35686e-07)
(-7.92984e-18 1.18261e-18 4.23367e-07)
(3.45744e-18 1.73666e-15 4.11369e-07)
(7.97329e-18 -4.7468e-18 3.99719e-07)
(-2.99785e-18 1.73301e-15 3.88371e-07)
(-4.72998e-18 1.7405e-15 3.77355e-07)
(-7.3098e-18 8.60925e-19 3.66625e-07)
(3.89799e-18 1.73616e-15 3.56211e-07)
(8.25712e-18 -5.3134e-18 3.46068e-07)
(-2.82587e-18 1.73251e-15 3.36227e-07)
(-4.6184e-18 1.74014e-15 3.26642e-07)
(-7.2153e-18 6.80397e-19 3.17345e-07)
(4.00185e-18 1.73613e-15 3.08292e-07)
(8.37884e-18 -5.249e-18 2.99514e-07)
(-2.69072e-18 1.7326e-15 2.90966e-07)
(-4.47985e-18 1.74022e-15 2.82683e-07)
(-7.08295e-18 7.22096e-19 2.74618e-07)
(4.12365e-18 1.73614e-15 2.66806e-07)
(8.48408e-18 -5.252e-18 2.59206e-07)
(-2.57553e-18 1.73253e-15 2.51845e-07)
(-4.47579e-18 1.74042e-15 2.44723e-07)
(-6.57014e-18 -3.43714e-19 2.37657e-07)
(2.04873e-18 1.74115e-15 2.31617e-07)
(1.93693e-17 7.88361e-18 2.20672e-07)
(-9.99697e-19 -4.14308e-20 -0.0570694)
(-1.60355e-17 3.57387e-20 -0.0571362)
(-3.0042e-17 2.42158e-20 -0.057316)
(-5.28933e-17 1.45621e-18 -0.0576283)
(-6.53633e-17 -2.14438e-18 -0.058088)
(-7.17329e-17 5.9622e-18 -0.0587016)
(-2.58943e-16 1.63665e-17 -0.0594722)
(2.75183e-16 -6.32709e-17 -0.0603744)
(-1.54842e-17 -8.06048e-18 -0.0613795)
(-2.60615e-15 3.68916e-16 -0.0624214)
(-7.47535e-16 2.62306e-16 -0.0633973)
(1.03326e-14 -9.71575e-16 -0.0643129)
(2.03645e-14 -2.29532e-15 -0.0650722)
(1.50941e-14 -2.12288e-15 -0.0656202)
(-6.92269e-15 -3.31367e-16 -0.0659205)
(-3.09047e-14 1.53429e-15 -0.0659411)
(-4.58204e-14 2.29102e-15 -0.065671)
(-5.25318e-14 2.17517e-15 -0.0651165)
(-5.2839e-14 1.72206e-15 -0.0643047)
(-4.89931e-14 1.19001e-15 -0.0632808)
(-4.30083e-14 7.09675e-16 -0.0621025)
(-3.62929e-14 3.34621e-16 -0.0608334)
(-2.96649e-14 6.9135e-17 -0.0595339)
(-2.34996e-14 -1.12723e-16 -0.0582536)
(-1.78951e-14 -2.47969e-16 -0.0570277)
(-1.27848e-14 -3.65942e-16 -0.0558768)
(-8.04668e-15 -4.79489e-16 -0.0548092)
(-3.59328e-15 -5.88312e-16 -0.0538235)
(5.96168e-16 -6.86053e-16 -0.0529125)
(4.47104e-15 -7.66541e-16 -0.052065)
(7.93135e-15 -8.15032e-16 -0.0512684)
(1.08559e-14 -8.17218e-16 -0.0505094)
(1.30977e-14 -7.67113e-16 -0.0497752)
(1.45204e-14 -6.61695e-16 -0.0490538)
(1.50651e-14 -5.1514e-16 -0.0483345)
(1.47525e-14 -3.47323e-16 -0.0476055)
(1.37038e-14 -1.71564e-16 -0.0468508)
(1.20974e-14 2.18561e-18 -0.0460464)
(1.01767e-14 1.48472e-16 -0.0451662)
(8.38612e-15 1.89072e-16 -0.0442023)
(7.47124e-15 2.01162e-17 -0.0431972)
(8.2432e-15 -3.74198e-16 -0.042264)
(1.08273e-14 -7.87588e-16 -0.0415581)
(1.3834e-14 -8.09993e-16 -0.04118)
(1.44687e-14 -1.29652e-16 -0.0410347)
(1.03003e-14 1.05596e-15 -0.0407297)
(1.97496e-15 1.91986e-15 -0.0396045)
(-5.59414e-15 1.47391e-15 -0.0369384)
(-5.62129e-15 -6.08962e-16 -0.0322755)
(5.61122e-15 -3.49914e-15 -0.0257138)
(2.46166e-14 -5.53291e-15 -0.0179939)
(4.15024e-14 -3.63448e-15 -0.0103065)
(4.64443e-14 -3.1278e-15 -0.00388978)
(3.74368e-14 -3.77545e-16 0.000402948)
(2.27907e-14 1.03146e-15 0.00236453)
(1.55567e-14 4.58438e-16 0.00241971)
(2.37784e-14 7.21233e-16 0.00137173)
(4.43314e-14 -1.43921e-15 5.48945e-05)
(6.36887e-14 5.80939e-16 -0.000942665)
(6.5708e-14 4.73428e-15 -0.0013878)
(4.18885e-14 9.01247e-15 -0.00134469)
(-2.57332e-15 1.26736e-14 -0.00102689)
(-5.10262e-14 9.1484e-15 -0.00065138)
(-8.44768e-14 6.0139e-15 -0.000354082)
(-9.14958e-14 -1.51889e-15 -0.000176216)
(-7.30423e-14 -5.82502e-15 -9.57835e-05)
(-4.0268e-14 -5.49531e-15 -6.94732e-05)
(-7.62151e-15 -5.88904e-15 -6.16257e-05)
(1.41927e-14 -1.32559e-15 -5.41347e-05)
(2.17727e-14 -2.94643e-16 -4.30539e-05)
(1.82428e-14 1.39505e-15 -3.08735e-05)
(9.74985e-15 3.54378e-15 -2.05961e-05)
(1.80528e-15 1.32632e-15 -1.34023e-05)
(-2.74386e-15 2.29695e-15 -8.86565e-06)
(-3.76775e-15 -4.61015e-17 -5.99013e-06)
(-2.66671e-15 -3.19389e-16 -3.96833e-06)
(-1.04085e-15 1.4345e-15 -2.39493e-06)
(1.16204e-16 -1.62204e-16 -1.14599e-06)
(5.54086e-16 1.71193e-15 -1.96664e-07)
(4.83377e-16 4.11791e-17 4.83614e-07)
(2.33899e-16 4.22513e-17 9.50753e-07)
(2.85506e-17 1.76336e-15 1.26703e-06)
(-6.13059e-17 7.31192e-18 1.48238e-06)
(-6.13898e-17 1.73738e-15 1.62921e-06)
(-2.88635e-17 -4.76699e-18 1.72662e-06)
(4.22917e-19 -1.10912e-17 1.78659e-06)
(1.30971e-17 1.73241e-15 1.81802e-06)
(1.27446e-17 1.85246e-19 1.8282e-06)
(8.83458e-18 1.74162e-15 1.82303e-06)
(4.69714e-18 6.92661e-18 1.80697e-06)
(2.5337e-18 -6.69458e-19 1.78325e-06)
(1.58953e-18 -2.12325e-18 1.75416e-06)
(3.22902e-19 -2.72103e-18 1.72133e-06)
(-7.82083e-19 -2.47196e-18 1.68595e-06)
(-1.27537e-18 -2.28599e-18 1.64892e-06)
(-1.40962e-18 -1.40669e-18 1.6109e-06)
(-1.75764e-18 -6.42249e-19 1.57237e-06)
(-2.92559e-18 -9.03948e-19 1.53369e-06)
(-3.82126e-18 -7.86222e-19 1.49512e-06)
(-3.84838e-18 -7.97085e-19 1.45687e-06)
(-3.34908e-18 -1.11148e-19 1.41907e-06)
(-3.02262e-18 4.47573e-19 1.38182e-06)
(-3.56456e-18 -4.32732e-20 1.3452e-06)
(-3.93703e-18 -1.64276e-19 1.30928e-06)
(-3.57823e-18 -3.93986e-19 1.27407e-06)
(-2.84783e-18 1.2204e-19 1.23963e-06)
(-2.44027e-18 5.76848e-19 1.20595e-06)
(-3.02132e-18 4.85793e-20 1.17305e-06)
(-3.50406e-18 -5.85866e-20 1.14094e-06)
(-3.27082e-18 -2.49746e-19 1.10961e-06)
(-2.63312e-18 2.98855e-19 1.07907e-06)
(-2.25583e-18 7.54466e-19 1.0493e-06)
(-2.79882e-18 1.83105e-19 1.02029e-06)
(-3.19075e-18 -5.27289e-21 9.92041e-07)
(-2.8433e-18 -2.92385e-19 9.64532e-07)
(-2.09847e-18 1.69318e-19 9.37753e-07)
(-1.65074e-18 5.91626e-19 9.11689e-07)
(-2.15041e-18 -2.67468e-20 8.86326e-07)
(-2.60204e-18 -3.24686e-20 8.61647e-07)
(-2.13987e-18 -5.32561e-19 8.37639e-07)
(-1.76911e-18 -8.95451e-19 8.14282e-07)
(-2.07361e-18 -2.55886e-19 7.91564e-07)
(-2.72577e-18 -1.53223e-20 7.69465e-07)
(-3.05458e-18 3.00552e-19 7.47973e-07)
(-2.40342e-18 -1.62467e-19 7.27067e-07)
(-1.85507e-18 -5.79327e-19 7.06736e-07)
(-2.01477e-18 -6.98161e-21 6.8696e-07)
(-2.55703e-18 1.76098e-19 6.67728e-07)
(-2.80725e-18 4.46273e-19 6.49021e-07)
(-2.10348e-18 -5.52668e-20 6.30828e-07)
(-1.52184e-18 -5.07892e-19 6.13131e-07)
(-1.65874e-18 3.16822e-20 5.9592e-07)
(-2.17705e-18 1.92548e-19 5.79179e-07)
(-2.38869e-18 4.65045e-19 5.62897e-07)
(-1.61978e-18 4.72594e-21 5.47059e-07)
(-9.41289e-19 -3.63113e-19 5.31657e-07)
(-9.56311e-19 2.90405e-19 5.16674e-07)
(-1.34824e-18 5.58807e-19 5.02104e-07)
(-1.4596e-18 8.85305e-19 4.87932e-07)
(-6.48032e-19 3.86123e-19 4.7415e-07)
(-5.50997e-21 -1.2446e-19 4.60747e-07)
(-1.36535e-19 3.10103e-19 4.47714e-07)
(-7.04148e-19 3.42704e-19 4.35041e-07)
(-1.01499e-18 4.85054e-19 4.22719e-07)
(-3.87261e-19 -9.65716e-20 4.10739e-07)
(1.17344e-19 -5.75377e-19 3.99095e-07)
(-9.26539e-20 -2.15882e-20 3.87775e-07)
(-6.85346e-19 1.66711e-19 3.76774e-07)
(-9.84808e-19 4.49097e-19 3.66084e-07)
(-3.30386e-19 -4.20661e-20 3.55698e-07)
(1.9917e-19 -4.87825e-19 3.45607e-07)
(3.30631e-21 5.50665e-20 3.35807e-07)
(-5.87314e-19 2.1206e-19 3.26289e-07)
(-8.92942e-19 4.61753e-19 3.17048e-07)
(-2.48233e-19 -4.50248e-20 3.08079e-07)
(2.73904e-19 -5.16217e-19 2.99365e-07)
(6.59015e-20 9.42131e-20 2.90953e-07)
(-5.04322e-19 2.85056e-20 2.82591e-07)
(-9.18036e-19 8.78375e-19 2.75427e-07)
(1.50255e-19 1.04063e-18 2.62413e-07)
(-3.88016e-17 5.01719e-18 -0.0791724)
(-1.46652e-16 8.51683e-18 -0.0792582)
(-1.27265e-16 1.17071e-17 -0.079496)
(-1.8054e-16 9.63176e-18 -0.0799136)
(1.48833e-18 5.65225e-19 -0.0805321)
(-5.72987e-16 8.84473e-17 -0.0813621)
(3.80215e-16 -1.76814e-16 -0.0824089)
(1.6286e-15 -1.51167e-16 -0.0836365)
(-8.11372e-15 3.13209e-15 -0.0850087)
(1.00822e-16 3.76164e-16 -0.0864265)
(4.28904e-14 -8.2009e-15 -0.0877365)
(4.73066e-14 -7.07724e-15 -0.0889793)
(-6.47722e-14 -2.41237e-15 -0.0900054)
(-2.62313e-13 1.34412e-14 -0.0907411)
(-4.30896e-13 2.27439e-14 -0.0911384)
(-4.70509e-13 1.93104e-14 -0.091149)
(-4.05963e-13 1.08303e-14 -0.0907594)
(-3.11866e-13 3.63727e-15 -0.0899762)
(-2.18858e-13 -1.5675e-15 -0.0888353)
(-1.40158e-13 -4.68082e-15 -0.0873963)
(-7.93591e-14 -6.12012e-15 -0.0857366)
(-3.44842e-14 -6.46624e-15 -0.0839432)
(-1.71572e-15 -6.22046e-15 -0.0821006)
(2.27321e-14 -5.74068e-15 -0.0802794)
(4.17055e-14 -5.24762e-15 -0.0785309)
(5.68738e-14 -4.84827e-15 -0.0768865)
(6.93598e-14 -4.55568e-15 -0.0753598)
(7.95303e-14 -4.31803e-15 -0.0739511)
(8.74662e-14 -4.07068e-15 -0.0726515)
(9.29796e-14 -3.75993e-15 -0.0714462)
(9.56901e-14 -1.55956e-15 -0.0703179)
(9.53708e-14 -4.4259e-15 -0.069248)
(9.17397e-14 -3.71673e-15 -0.0682185)
(8.47779e-14 -1.14461e-15 -0.0672125)
(7.4877e-14 -2.01735e-15 -0.0662147)
(6.26535e-14 2.27275e-15 -0.0652086)
(4.91126e-14 1.22984e-15 -0.0641718)
(3.53761e-14 -4.18338e-17 -0.0630712)
(2.28474e-14 1.82112e-15 -0.0618696)
(1.35514e-14 -3.91405e-16 -0.0605535)
(9.81009e-15 1.8072e-15 -0.0591781)
(1.30998e-14 -1.72686e-15 -0.057897)
(2.13463e-14 -4.69348e-15 -0.0569275)
(2.74013e-14 -2.05492e-15 -0.0564188)
(2.13492e-14 -1.38208e-16 -0.0562571)
(-2.26299e-15 8.05273e-15 -0.0559159)
(-3.61003e-14 8.2833e-15 -0.0544854)
(-5.99168e-14 2.44455e-15 -0.05095)
(-5.38055e-14 -5.50937e-15 -0.0446391)
(-1.61444e-14 -1.73416e-14 -0.0356403)
(2.77084e-14 -2.07619e-14 -0.0249415)
(3.80506e-14 -1.22675e-14 -0.014182)
(-9.48059e-15 -8.92872e-16 -0.00509923)
(-9.92662e-14 1.10927e-14 0.00107741)
(-1.78261e-13 8.90141e-15 0.00400577)
(-1.88644e-13 -2.31408e-15 0.00422916)
(-1.07853e-13 -1.43791e-14 0.00283719)
(3.35433e-14 -2.14824e-14 0.000986719)
(1.63416e-13 -9.97006e-15 -0.000488313)
(2.0602e-13 1.06262e-14 -0.00123748)
(1.25594e-13 3.45133e-14 -0.00132304)
(-5.13442e-14 4.87311e-14 -0.00102045)
(-2.49324e-13 4.09789e-14 -0.000618052)
(-3.849e-13 2.09547e-14 -0.000299055)
(-4.08524e-13 -9.62895e-15 -0.000120694)
(-3.24104e-13 -2.51071e-14 -5.57492e-05)
(-1.79132e-13 -3.41399e-14 -4.88987e-05)
(-3.52098e-14 -3.00886e-14 -5.56384e-05)
(6.16786e-14 -1.52503e-14 -5.52087e-05)
(9.65007e-14 -5.52992e-15 -4.54639e-05)
(8.22333e-14 8.038e-15 -3.20551e-05)
(4.52225e-14 8.58752e-15 -2.03556e-05)
(9.6881e-15 4.77151e-15 -1.25106e-05)
(-1.13818e-14 2.88907e-15 -8.04742e-06)
(-1.68071e-14 -3.54192e-15 -5.56227e-06)
(-1.23897e-14 3.01916e-16 -3.91343e-06)
(-5.2086e-15 -1.43929e-15 -2.56441e-06)
(1.65271e-16 -2.55474e-15 -1.40677e-06)
(2.36985e-15 -1.83239e-16 -4.79502e-07)
(2.20775e-15 -3.31766e-15 1.97714e-07)
(1.13566e-15 1.96646e-15 6.59616e-07)
(1.68135e-16 1.63067e-16 9.66761e-07)
(-2.83728e-16 -1.68154e-15 1.17352e-06)
(-3.15095e-16 -1.27612e-17 1.31543e-06)
(-1.72161e-16 -3.51836e-15 1.41199e-06)
(-2.08257e-17 1.70778e-15 1.47412e-06)
(3.52347e-17 3.68849e-18 1.50948e-06)
(3.88456e-17 -1.72542e-15 1.52455e-06)
(2.00467e-17 8.39679e-18 1.52483e-06)
(3.12338e-18 -3.48214e-15 1.51463e-06)
(-2.56985e-18 1.72773e-15 1.49707e-06)
(-1.42751e-17 1.57372e-18 1.47434e-06)
(-1.29066e-17 -3.80975e-18 1.44799e-06)
(-1.29204e-17 1.73592e-15 1.41915e-06)
(-1.02528e-18 3.05937e-19 1.38865e-06)
(2.88055e-18 1.74142e-15 1.35713e-06)
(-8.56365e-18 3.2709e-18 1.32503e-06)
(-9.69424e-18 -4.6193e-18 1.29271e-06)
(-1.16235e-17 1.7347e-15 1.26041e-06)
(-3.5157e-19 -8.22727e-19 1.22831e-06)
(3.72767e-18 1.74052e-15 1.19656e-06)
(-7.34537e-18 2.58953e-18 1.16525e-06)
(-8.20845e-18 -5.14862e-18 1.13445e-06)
(-1.00253e-17 1.73425e-15 1.10421e-06)
(1.24514e-18 -1.21538e-18 1.07457e-06)
(5.24795e-18 1.74018e-15 1.04556e-06)
(-5.95656e-18 2.32567e-18 1.0172e-06)
(-6.99074e-18 -5.31599e-18 9.89484e-07)
(-8.99575e-18 1.73419e-15 9.62429e-07)
(2.09778e-18 -1.19021e-18 9.36035e-07)
(5.95996e-18 1.74026e-15 9.10295e-07)
(-5.33509e-18 2.40902e-18 8.85208e-07)
(-6.4106e-18 -5.2771e-18 8.60763e-07)
(-8.42097e-18 1.73415e-15 8.36955e-07)
(2.68357e-18 -1.31408e-18 8.1377e-07)
(6.55406e-18 1.74006e-15 7.91201e-07)
(-4.74826e-18 2.23201e-18 7.69232e-07)
(-5.85081e-18 -5.63705e-18 7.47855e-07)
(-7.90481e-18 1.73487e-15 7.27052e-07)
(3.14793e-18 -5.66434e-18 7.06815e-07)
(6.96711e-18 1.73282e-15 6.87125e-07)
(-4.38139e-18 1.74098e-15 6.67974e-07)
(-5.52287e-18 1.47991e-18 6.49343e-07)
(-7.60837e-18 1.73622e-15 6.31224e-07)
(3.41908e-18 -5.64723e-18 6.13598e-07)
(7.21722e-18 1.73258e-15 5.96457e-07)
(-4.14999e-18 1.74073e-15 5.79782e-07)
(-5.30952e-18 1.263e-18 5.63567e-07)
(-7.41354e-18 1.73605e-15 5.47792e-07)
(3.59458e-18 -5.78367e-18 5.32451e-07)
(7.37361e-18 1.73246e-15 5.17527e-07)
(-4.00892e-18 1.74062e-15 5.03014e-07)
(-5.17334e-18 1.15921e-18 4.88895e-07)
(-7.26247e-18 1.73596e-15 4.75165e-07)
(3.78978e-18 -5.82803e-18 4.61806e-07)
(7.64735e-18 1.7325e-15 4.48817e-07)
(-3.6262e-18 1.74077e-15 4.36179e-07)
(-4.66717e-18 1.43425e-18 4.23891e-07)
(-6.64466e-18 1.73631e-15 4.11936e-07)
(4.47752e-18 -5.47384e-18 4.00313e-07)
(8.33964e-18 1.73276e-15 3.89006e-07)
(-3.0029e-18 1.74085e-15 3.78013e-07)
(-4.17503e-18 1.30015e-18 3.67322e-07)
(-6.31789e-18 1.736e-15 3.56929e-07)
(4.63987e-18 -5.87957e-18 3.46822e-07)
(8.36944e-18 1.73236e-15 3.37e-07)
(-3.05616e-18 1.74054e-15 3.27449e-07)
(-4.26068e-18 1.12647e-18 3.18171e-07)
(-6.39737e-18 1.73596e-15 3.09151e-07)
(4.58688e-18 -5.84099e-18 3.0039e-07)
(8.34627e-18 1.73243e-15 2.91876e-07)
(-3.05704e-18 1.74061e-15 2.8361e-07)
(-4.25017e-18 1.17022e-18 2.75579e-07)
(-6.38533e-18 1.73597e-15 2.67784e-07)
(4.59973e-18 -5.83543e-18 2.60216e-07)
(8.33916e-18 1.73238e-15 2.52867e-07)
(-2.98207e-18 1.74081e-15 2.45768e-07)
(-4.5962e-18 1.48255e-19 2.38725e-07)
(-4.61352e-18 1.74083e-15 2.32635e-07)
(-4.28521e-18 7.34946e-18 2.21489e-07)
(4.75493e-17 1.82741e-15 -0.100492)
(1.80181e-16 1.77899e-15 -0.100589)
(1.29264e-16 1.69683e-17 -0.10087)
(2.47955e-16 1.6718e-15 -0.101372)
(4.91903e-16 1.9288e-15 -0.102122)
(-1.81836e-15 1.55132e-15 -0.103136)
(9.09696e-15 -1.08443e-15 -0.104422)
(-1.85762e-14 4.2108e-15 -0.105934)
(-9.8913e-15 7.5583e-16 -0.10763)
(1.28934e-13 -2.86568e-14 -0.109371)
(5.26679e-14 -2.33135e-14 -0.110944)
(-5.2578e-13 5.28868e-14 -0.112468)
(-1.25229e-12 1.52487e-13 -0.113716)
(-1.49772e-12 1.80939e-13 -0.114603)
(-1.01174e-12 1.03767e-13 -0.115076)
(-1.45479e-13 -9.19755e-15 -0.115074)
(6.29147e-13 -7.3561e-14 -0.11458)
(1.15334e-12 -9.13773e-14 -0.113603)
(1.41697e-12 -8.23975e-14 -0.11219)
(1.4787e-12 -6.68246e-14 -0.110411)
(1.41504e-12 -5.2127e-14 -0.108357)
(1.29131e-12 -3.84871e-14 -0.106134)
(1.15316e-12 -2.8539e-14 -0.103844)
(1.02612e-12 -2.18233e-14 -0.101576)
(9.19882e-13 -1.73188e-14 -0.0993929)
(8.3359e-13 -1.59278e-14 -0.0973346)
(7.61912e-13 -1.18077e-14 -0.0954187)
(6.99117e-13 -9.64153e-15 -0.0936464)
(6.40191e-13 -7.41072e-15 -0.0920071)
(5.81214e-13 -4.88525e-15 -0.0904835)
(5.1908e-13 -3.73855e-15 -0.0890545)
(4.51784e-13 -5.63212e-16 -0.0876974)
(3.78614e-13 4.52254e-15 -0.0863902)
(3.005e-13 6.03155e-15 -0.0851121)
(2.19634e-13 8.80895e-15 -0.0838444)
(1.39368e-13 1.07968e-14 -0.082567)
(6.38628e-14 1.17392e-14 -0.0812523)
(-2.48474e-15 1.31348e-14 -0.0798593)
(-5.47343e-14 9.3261e-15 -0.0783408)
(-8.76208e-14 4.9696e-15 -0.0766774)
(-9.72811e-14 -1.49223e-15 -0.0749344)
(-8.64522e-14 -7.87278e-15 -0.073301)
(-7.0711e-14 -7.93831e-15 -0.0720502)
(-7.82231e-14 -2.54618e-15 -0.0713777)
(-1.36604e-13 1.29673e-14 -0.0711547)
(-2.48968e-13 2.80452e-14 -0.0707321)
(-3.76967e-13 2.9012e-14 -0.0689662)
(-4.55811e-13 1.03265e-14 -0.0645597)
(-4.49233e-13 -2.42312e-14 -0.056632)
(-3.99585e-13 -4.59925e-14 -0.0452545)
(-4.23887e-13 -3.26287e-14 -0.0316489)
(-6.37813e-13 1.66947e-14 -0.0178874)
(-1.05123e-12 6.55306e-14 -0.0061944)
(-1.51844e-12 8.5749e-14 0.00183093)
(-1.79724e-12 4.57207e-14 0.00571129)
(-1.69291e-12 -3.47456e-14 0.00610367)
(-1.18566e-12 -1.08637e-13 0.0043767)
(-4.62857e-13 -1.37074e-13 0.00200251)
(1.57212e-13 -8.39233e-14 5.53774e-05)
(3.82426e-13 2.36459e-14 -0.000999417)
(1.02523e-13 1.37694e-13 -0.00122161)
(-5.47665e-13 2.01867e-13 -0.00094606)
(-1.25938e-12 1.75926e-13 -0.000529433)
(-1.71276e-12 8.7348e-14 -0.000200032)
(-1.72933e-12 -3.19165e-14 -3.0198e-05)
(-1.33678e-12 -1.18786e-13 1.23462e-05)
(-7.24931e-13 -1.48208e-13 -5.71876e-06)
(-1.33156e-13 -1.26294e-13 -3.16472e-05)
(2.62165e-13 -6.54461e-14 -4.23311e-05)
(4.04774e-13 -1.05719e-14 -3.74555e-05)
(3.47107e-13 2.8769e-14 -2.57441e-05)
(1.94864e-13 4.1551e-14 -1.48823e-05)
(4.61313e-14 2.96285e-14 -8.01527e-06)
(-4.46105e-14 1.72793e-14 -4.74079e-06)
(-7.04315e-14 4.57881e-16 -3.39519e-06)
(-5.39363e-14 -4.38389e-15 -2.63403e-06)
(-2.4018e-14 -3.10829e-15 -1.88177e-06)
(-6.10767e-16 -3.95143e-15 -1.09803e-06)
(9.67897e-15 2.42541e-15 -4.11193e-07)
(9.64113e-15 6.58277e-16 9.63147e-08)
(5.17716e-15 2.79679e-15 4.29488e-07)
(9.9111e-16 4.20777e-15 6.38808e-07)
(-1.11973e-15 2.48927e-16 7.74733e-07)
(-1.38263e-15 3.41632e-15 8.68586e-07)
(-7.8993e-16 -1.51901e-16 9.34595e-07)
(-1.991e-16 1.61994e-15 9.78607e-07)
(1.33943e-16 3.4373e-15 1.0044e-06)
(1.79404e-16 7.77924e-18 1.01587e-06)
(1.00164e-16 3.49421e-15 1.01684e-06)
(2.60237e-17 1.8235e-17 1.01048e-06)
(-3.37612e-17 1.74275e-15 9.99077e-07)
(-2.77278e-17 3.045e-18 9.84157e-07)
(-1.16778e-17 -3.39835e-18 9.66765e-07)
(-1.22512e-17 -8.4126e-18 9.47656e-07)
(-8.74753e-18 -1.01865e-17 9.27394e-07)
(-9.30799e-18 1.73709e-15 9.06409e-07)
(1.36522e-18 5.64513e-18 8.85019e-07)
(5.53618e-18 6.26002e-19 8.63464e-07)
(-5.38831e-18 -5.45755e-18 8.41912e-07)
(-6.41795e-18 -8.4727e-18 8.20492e-07)
(-7.66654e-18 1.73811e-15 7.99292e-07)
(3.4249e-18 6.41563e-18 7.78383e-07)
(7.72569e-18 1.2967e-18 7.57812e-07)
(-3.53548e-18 -4.89107e-18 7.37619e-07)
(-5.08515e-18 -8.03062e-18 7.17823e-07)
(-6.79531e-18 1.73845e-15 6.98447e-07)
(3.96978e-18 6.6962e-18 6.79499e-07)
(8.05707e-18 1.56818e-18 6.6099e-07)
(-3.34495e-18 -4.60285e-18 6.42918e-07)
(-4.9869e-18 -7.72761e-18 6.25289e-07)
(-6.75082e-18 1.73874e-15 6.08095e-07)
(3.99144e-18 6.93975e-18 5.9134e-07)
(8.07557e-18 1.72604e-18 5.75011e-07)
(-3.3236e-18 -4.55236e-18 5.5911e-07)
(-4.96811e-18 -7.7799e-18 5.43624e-07)
(-6.74672e-18 1.73861e-15 5.2855e-07)
(3.97445e-18 6.79407e-18 5.13876e-07)
(8.01843e-18 1.55153e-18 4.99599e-07)
(-3.35972e-18 -4.53184e-18 4.85704e-07)
(-5.16757e-18 -7.96852e-18 4.72188e-07)
(-6.63065e-18 1.73759e-15 4.59037e-07)
(4.75809e-18 5.98911e-18 4.46246e-07)