/*--------------------------------*- C++ -*----------------------------------*\
  =========                 |
  \\      /  F ield         | OpenFOAM: The Open Source CFD Toolbox
   \\    /   O peration     | Website:  https://openfoam.org
    \\  /    A nd           | Version:  11
     \\/     M anipulation  |
\*---------------------------------------------------------------------------*/
FoamFile
{
    format      ascii;
    class       volScalarField;
    location    "3.036323";
    object      p;
}
// * * * * * * * * * * * * * * * * * * * * * * * * * * * * * * * * * * * * * //

dimensions      [0 2 -2 0 0 0 0];

internalField   nonuniform List<scalar> 
7132
(
0.0508026
0.049352
0.0444584
0.0372907
0.027243
0.0139836
-0.00261596
-0.0226213
-0.0455952
-0.0706774
-0.096541
-0.121353
-0.143982
-0.163299
-0.178364
-0.188512
-0.193267
-0.19248
-0.186399
-0.175711
-0.161477
-0.14497
-0.127464
-0.110062
-0.093592
-0.0785896
-0.0653297
-0.053886
-0.0441939
-0.0361062
-0.0294345
-0.0239789
-0.0195464
-0.015961
-0.0130685
-0.0107373
-0.00885779
-0.00733974
-0.00610999
-0.00510975
-0.00429215
-0.00362
-0.00306398
-0.00260102
-0.00221302
-0.00188583
-0.00160834
-0.00137183
-0.00116934
-0.000995191
-0.000844581
-0.000713405
-0.000598236
-0.000496509
-0.0004067
-0.000328261
-0.000261171
-0.000205278
-0.000159834
-0.000123503
-9.47425e-05
-7.21777e-05
-5.47193e-05
-4.14615e-05
-3.15531e-05
-2.41802e-05
-1.86345e-05
-1.43777e-05
-1.10503e-05
-8.43053e-06
-6.37798e-06
-4.79029e-06
-3.58067e-06
-2.6716e-06
-1.99544e-06
-1.4959e-06
-1.12806e-06
-8.57365e-07
-6.57775e-07
-5.10159e-07
-4.00564e-07
-3.18941e-07
-2.57962e-07
-2.123e-07
-1.7797e-07
-1.5204e-07
-1.32285e-07
-1.1709e-07
-1.05233e-07
-9.58523e-08
-8.82901e-08
-8.20942e-08
-7.69074e-08
-7.24909e-08
-6.86473e-08
-6.525e-08
-6.21896e-08
-5.93989e-08
-5.68179e-08
-5.44098e-08
-5.21428e-08
-4.99947e-08
-4.79504e-08
-4.5994e-08
-4.41209e-08
-4.23171e-08
-4.05852e-08
-3.89104e-08
-3.73012e-08
-3.57408e-08
-3.42422e-08
-3.27859e-08
-3.13891e-08
-3.00293e-08
-2.87274e-08
-2.7458e-08
-2.62452e-08
-2.50606e-08
-2.39317e-08
-2.2827e-08
-2.17772e-08
-2.07477e-08
-1.97724e-08
-1.88137e-08
-1.79085e-08
-1.70163e-08
-1.61768e-08
-1.53468e-08
-1.45688e-08
-1.37971e-08
-1.30765e-08
-1.2359e-08
-1.16918e-08
-1.10245e-08
-1.04067e-08
-9.78577e-09
-9.21349e-09
-8.63523e-09
-8.10467e-09
-7.56533e-09
-7.07275e-09
-6.5687e-09
-6.11042e-09
-5.63806e-09
-5.21053e-09
-4.76627e-09
-4.36612e-09
-3.94624e-09
-3.57057e-09
-3.17068e-09
-2.8177e-09
-2.43111e-09
-2.10256e-09
-1.71582e-09
-1.42628e-09
-1.00174e-09
-8.05521e-10
-2.55225e-10
-2.64519e-10
5.99795e-10
0.0513811
0.0499427
0.0450922
0.0379706
0.0279616
0.0147061
-0.00194924
-0.0221084
-0.0453342
-0.070763
-0.0969965
-0.122089
-0.144945
-0.164437
-0.179626
-0.189853
-0.194627
-0.193782
-0.18756
-0.176656
-0.162157
-0.145372
-0.127613
-0.110004
-0.0933846
-0.0782887
-0.0649829
-0.0535294
-0.0438521
-0.035794
-0.0291591
-0.0237423
-0.0193472
-0.0157959
-0.0129333
-0.0106277
-0.00876951
-0.00726898
-0.00605345
-0.00506464
-0.00425614
-0.00359121
-0.00304089
-0.0025824
-0.00219791
-0.00187347
-0.00159815
-0.00136336
-0.00116225
-0.000989225
-0.000839544
-0.000709131
-0.000594575
-0.000493322
-0.000403869
-0.000325702
-0.000258842
-0.000203175
-0.000157971
-0.00012189
-9.33716e-05
-7.10264e-05
-5.37584e-05
-4.06655e-05
-3.09033e-05
-2.36622e-05
-1.82328e-05
-1.40745e-05
-1.08261e-05
-8.26708e-06
-6.25995e-06
-4.70557e-06
-3.51996e-06
-2.62786e-06
-1.96348e-06
-1.47208e-06
-1.10997e-06
-8.43447e-07
-6.47056e-07
-5.0198e-07
-3.9442e-07
-3.14407e-07
-2.54662e-07
-2.09915e-07
-1.76244e-07
-1.50783e-07
-1.31362e-07
-1.16408e-07
-1.04729e-07
-9.54802e-08
-8.8016e-08
-8.18931e-08
-7.67595e-08
-7.2382e-08
-6.85666e-08
-6.519e-08
-6.21446e-08
-5.9365e-08
-5.67922e-08
-5.43901e-08
-5.21275e-08
-4.99826e-08
-4.79408e-08
-4.5986e-08
-4.41144e-08
-4.23112e-08
-4.05803e-08
-3.89058e-08
-3.72974e-08
-3.5737e-08
-3.4239e-08
-3.27825e-08
-3.13863e-08
-3.00262e-08
-2.87249e-08
-2.7455e-08
-2.62429e-08
-2.50578e-08
-2.39296e-08
-2.28243e-08
-2.17753e-08
-2.07452e-08
-1.97707e-08
-1.88113e-08
-1.79069e-08
-1.7014e-08
-1.61754e-08
-1.53447e-08
-1.45676e-08
-1.3795e-08
-1.30755e-08
-1.2357e-08
-1.16908e-08
-1.10226e-08
-1.04059e-08
-9.78405e-09
-9.21288e-09
-8.63362e-09
-8.1042e-09
-7.56385e-09
-7.07243e-09
-6.56732e-09
-6.11025e-09
-5.6368e-09
-5.2105e-09
-4.76513e-09
-4.36623e-09
-3.94522e-09
-3.57083e-09
-3.1698e-09
-2.81814e-09
-2.43035e-09
-2.10322e-09
-1.715e-09
-1.42745e-09
-1.00032e-09
-8.09395e-10
-2.4994e-10
-2.84111e-10
6.34878e-10
0.0525325
0.0511202
0.0463579
0.0393332
0.029407
0.0161659
-0.000595391
-0.0210621
-0.0447975
-0.0709371
-0.097927
-0.123579
-0.146893
-0.166733
-0.182171
-0.192558
-0.197374
-0.19642
-0.189917
-0.178576
-0.163537
-0.146188
-0.127911
-0.109883
-0.0929616
-0.0776784
-0.0642818
-0.0528102
-0.0431643
-0.0351668
-0.0286068
-0.0232686
-0.0189489
-0.0154662
-0.0126636
-0.0104091
-0.00859349
-0.00712796
-0.00594081
-0.0049748
-0.00418448
-0.00353394
-0.00299497
-0.0025454
-0.00216791
-0.00184894
-0.00157793
-0.00134657
-0.00114823
-0.000977492
-0.000829717
-0.000700886
-0.000587604
-0.00048732
-0.000398555
-0.000320859
-0.000254352
-0.000199016
-0.000154188
-0.000118544
-9.05012e-05
-6.86306e-05
-5.18058e-05
-3.91088e-05
-2.96894e-05
-2.27354e-05
-1.75363e-05
-1.35535e-05
-1.04335e-05
-7.96728e-06
-6.02877e-06
-4.52737e-06
-3.38388e-06
-2.52532e-06
-1.88712e-06
-1.41562e-06
-1.06831e-06
-8.1264e-07
-6.24182e-07
-4.84945e-07
-3.81734e-07
-3.0499e-07
-2.47708e-07
-2.04809e-07
-1.72508e-07
-1.48054e-07
-1.29366e-07
-1.14947e-07
-1.03656e-07
-9.46924e-08
-8.74374e-08
-8.14683e-08
-7.64476e-08
-7.2153e-08
-6.83982e-08
-6.5066e-08
-6.20531e-08
-5.92972e-08
-5.67418e-08
-5.43524e-08
-5.20992e-08
-4.99611e-08
-4.79244e-08
-4.59731e-08
-4.41043e-08
-4.23031e-08
-4.05737e-08
-3.89002e-08
-3.72927e-08
-3.57328e-08
-3.42354e-08
-3.27792e-08
-3.13834e-08
-3.00233e-08
-2.87224e-08
-2.74525e-08
-2.62407e-08
-2.50555e-08
-2.39276e-08
-2.28222e-08
-2.17735e-08
-2.07432e-08
-1.9769e-08
-1.88095e-08
-1.79054e-08
-1.70122e-08
-1.6174e-08
-1.5343e-08
-1.45663e-08
-1.37935e-08
-1.30743e-08
-1.23556e-08
-1.16898e-08
-1.10213e-08
-1.0405e-08
-9.78286e-09
-9.21205e-09
-8.63253e-09
-8.10347e-09
-7.56285e-09
-7.0718e-09
-6.56642e-09
-6.10971e-09
-5.63599e-09
-5.21006e-09
-4.7644e-09
-4.36588e-09
-3.94457e-09
-3.57058e-09
-3.16923e-09
-2.81803e-09
-2.42982e-09
-2.10338e-09
-1.71431e-09
-1.42863e-09
-9.98483e-10
-8.15423e-10
-2.40816e-10
-3.16606e-10
6.93264e-10
0.0542469
0.0528758
0.0482527
0.0413839
0.0315962
0.0183928
0.00148626
-0.0194415
-0.0439574
-0.0712107
-0.0993784
-0.125872
-0.149868
-0.17023
-0.186042
-0.196677
-0.20156
-0.200441
-0.193504
-0.181486
-0.165614
-0.147397
-0.128331
-0.109667
-0.0922932
-0.0767335
-0.063207
-0.0517151
-0.0421221
-0.0342204
-0.0277762
-0.0225579
-0.0183527
-0.0149736
-0.0122613
-0.0100834
-0.00833161
-0.00691834
-0.0057735
-0.00484141
-0.00407809
-0.00344892
-0.00292678
-0.00249043
-0.00212329
-0.00181244
-0.00154781
-0.00132151
-0.00112725
-0.000959864
-0.00081488
-0.000688362
-0.000576944
-0.000478081
-0.000390334
-0.00031335
-0.00024739
-0.00019258
-0.000148348
-0.000113394
-8.60956e-05
-6.49682e-05
-4.88378e-05
-3.67605e-05
-2.78752e-05
-2.13646e-05
-1.65165e-05
-1.27969e-05
-9.86603e-06
-7.53401e-06
-5.69349e-06
-4.2672e-06
-3.18328e-06
-2.3722e-06
-1.77131e-06
-1.32863e-06
-1.00324e-06
-7.64108e-07
-5.88061e-07
-4.58125e-07
-3.6188e-07
-2.90344e-07
-2.36939e-07
-1.96909e-07
-1.66721e-07
-1.43815e-07
-1.26259e-07
-1.12668e-07
-1.01985e-07
-9.34672e-08
-8.65395e-08
-8.08109e-08
-7.59665e-08
-7.1801e-08
-6.81406e-08
-6.48775e-08
-6.19151e-08
-5.91962e-08
-5.66679e-08
-5.42983e-08
-5.20597e-08
-4.9932e-08
-4.79032e-08
-4.59575e-08
-4.4093e-08
-4.22946e-08
-4.05676e-08
-3.88955e-08
-3.72894e-08
-3.57301e-08
-3.42336e-08
-3.27775e-08
-3.13824e-08
-3.00223e-08
-2.87219e-08
-2.74517e-08
-2.62404e-08
-2.50548e-08
-2.39275e-08
-2.28217e-08
-2.17734e-08
-2.07427e-08
-1.97691e-08
-1.8809e-08
-1.79055e-08
-1.70118e-08
-1.61741e-08
-1.53427e-08
-1.45665e-08
-1.37932e-08
-1.30746e-08
-1.23553e-08
-1.16901e-08
-1.1021e-08
-1.04053e-08
-9.78258e-09
-9.21245e-09
-8.63228e-09
-8.10392e-09
-7.56262e-09
-7.07229e-09
-6.56622e-09
-6.11025e-09
-5.63582e-09
-5.21064e-09
-4.76426e-09
-4.36651e-09
-3.94447e-09
-3.57128e-09
-3.16916e-09
-2.81885e-09
-2.42974e-09
-2.10451e-09
-1.71392e-09
-1.43098e-09
-9.96438e-10
-8.23718e-10
-2.29439e-10
-3.55648e-10
7.61945e-10
0.056508
0.0551958
0.0507708
0.0441297
0.0345539
0.0214325
0.0043602
-0.0171796
-0.0427659
-0.0715993
-0.101422
-0.129035
-0.153939
-0.174989
-0.1913
-0.202281
-0.20728
-0.205957
-0.198438
-0.185489
-0.168459
-0.149032
-0.128873
-0.109337
-0.0913516
-0.0754253
-0.0617341
-0.0502254
-0.0407128
-0.032947
-0.0266631
-0.021609
-0.017559
-0.0143193
-0.011728
-0.00965249
-0.00798557
-0.00664165
-0.00555284
-0.0046656
-0.00393794
-0.00333696
-0.00283701
-0.00241806
-0.00206454
-0.00176436
-0.0015081
-0.00128843
-0.00109951
-0.000936497
-0.000795151
-0.00067165
-0.000562669
-0.000465676
-0.000379284
-0.000303263
-0.000238054
-0.000183965
-0.000140546
-0.000106523
-8.023e-05
-6.01087e-05
-4.49229e-05
-3.36914e-05
-2.5533e-05
-1.9619e-05
-1.52332e-05
-1.18502e-05
-9.15298e-06
-6.98251e-06
-5.25941e-06
-3.92506e-06
-2.91648e-06
-2.16727e-06
-1.6161e-06
-1.21233e-06
-9.16723e-07
-7.00007e-07
-5.4066e-07
-4.23099e-07
-3.36014e-07
-2.71265e-07
-2.22892e-07
-1.86586e-07
-1.59147e-07
-1.38264e-07
-1.22192e-07
-1.09689e-07
-9.98012e-08
-9.18672e-08
-8.53672e-08
-7.99522e-08
-7.53376e-08
-7.13405e-08
-6.78035e-08
-6.46307e-08
-6.17344e-08
-5.90638e-08
-5.6571e-08
-5.42272e-08
-5.20076e-08
-4.98937e-08
-4.78751e-08
-4.59367e-08
-4.40777e-08
-4.22831e-08
-4.05592e-08
-3.88891e-08
-3.72848e-08
-3.57264e-08
-3.42309e-08
-3.27752e-08
-3.13808e-08
-3.00207e-08
-2.87209e-08
-2.74506e-08
-2.62397e-08
-2.5054e-08
-2.3927e-08
-2.2821e-08
-2.17731e-08
-2.07421e-08
-1.97689e-08
-1.88085e-08
-1.79054e-08
-1.70114e-08
-1.61741e-08
-1.53422e-08
-1.45666e-08
-1.37928e-08
-1.30746e-08
-1.2355e-08
-1.16902e-08
-1.10207e-08
-1.04055e-08
-9.7823e-09
-9.21267e-09
-8.63202e-09
-8.10418e-09
-7.5624e-09
-7.07259e-09
-6.56602e-09
-6.11059e-09
-5.63565e-09
-5.21102e-09
-4.76412e-09
-4.36693e-09
-3.94435e-09
-3.57174e-09
-3.16906e-09
-2.81943e-09
-2.42959e-09
-2.10545e-09
-1.71341e-09
-1.43333e-09
-9.94088e-10
-8.32377e-10
-2.17195e-10
-3.93584e-10
8.28479e-10
0.0592926
0.0580602
0.0539031
0.0475785
0.038312
0.0253472
0.00811624
-0.0141807
-0.0411543
-0.0721332
-0.104172
-0.133169
-0.159194
-0.181094
-0.198034
-0.20947
-0.214628
-0.213051
-0.204776
-0.190606
-0.172055
-0.15105
-0.129476
-0.108828
-0.0900756
-0.0737036
-0.0598253
-0.0483155
-0.0389209
-0.0313386
-0.0252652
-0.0204229
-0.0165709
-0.0135075
-0.0110682
-0.00912054
-0.00755918
-0.00630122
-0.00528164
-0.0044497
-0.0037659
-0.00319954
-0.00272679
-0.00232916
-0.00199231
-0.00170515
-0.00145911
-0.00124752
-0.00106507
-0.000907338
-0.000770364
-0.000650485
-0.000544437
-0.000449725
-0.00036503
-0.000290266
-0.00022608
-0.000172988
-0.000130668
-9.78728e-05
-7.28786e-05
-5.4043e-05
-4.00602e-05
-2.99053e-05
-2.26706e-05
-1.75095e-05
-1.36992e-05
-1.07259e-05
-8.30589e-06
-6.32309e-06
-4.73608e-06
-3.50985e-06
-2.59141e-06
-1.91698e-06
-1.42613e-06
-1.06965e-06
-8.10343e-07
-6.21075e-07
-4.82265e-07
-3.79975e-07
-3.0421e-07
-2.47844e-07
-2.05669e-07
-1.73939e-07
-1.49869e-07
-1.31462e-07
-1.17206e-07
-1.06035e-07
-9.71242e-08
-8.99062e-08
-8.3931e-08
-7.89009e-08
-7.45683e-08
-7.07778e-08
-6.7392e-08
-6.43299e-08
-6.15147e-08
-5.89034e-08
-5.6454e-08
-5.41418e-08
-5.19456e-08
-4.98486e-08
-4.78424e-08
-4.5913e-08
-4.40608e-08
-4.22709e-08
-4.05507e-08
-3.88829e-08
-3.72806e-08
-3.57234e-08
-3.42292e-08
-3.27739e-08
-3.13803e-08
-3.00203e-08
-2.8721e-08
-2.74506e-08
-2.62402e-08
-2.50543e-08
-2.39277e-08
-2.28213e-08
-2.17739e-08
-2.07425e-08
-1.97697e-08
-1.88089e-08
-1.79063e-08
-1.70118e-08
-1.6175e-08
-1.53427e-08
-1.45675e-08
-1.37932e-08
-1.30756e-08
-1.23554e-08
-1.16912e-08
-1.10211e-08
-1.04064e-08
-9.78268e-09
-9.2136e-09
-8.6324e-09
-8.10512e-09
-7.56275e-09
-7.07353e-09
-6.56637e-09
-6.11153e-09
-5.63599e-09
-5.21197e-09
-4.76445e-09
-4.36788e-09
-3.94467e-09
-3.57272e-09
-3.16936e-09
-2.82051e-09
-2.42981e-09
-2.10687e-09
-1.71321e-09
-1.43613e-09
-9.91918e-10
-8.41099e-10
-2.05566e-10
-4.26795e-10
8.85616e-10
0.0625691
0.0614415
0.0576346
0.0517369
0.0429092
0.0302175
0.0128757
-0.0103092
-0.0390209
-0.0728584
-0.10779
-0.13841
-0.165753
-0.188642
-0.206334
-0.218368
-0.223804
-0.221979
-0.212783
-0.197057
-0.176544
-0.153508
-0.130135
-0.108097
-0.0884098
-0.0715149
-0.0574369
-0.0459536
-0.0367258
-0.0293838
-0.0235772
-0.0189985
-0.0153896
-0.0125409
-0.0102851
-0.00849075
-0.00705544
-0.00589972
-0.00496222
-0.00419567
-0.00356362
-0.00303802
-0.00259726
-0.00222465
-0.00190735
-0.00163545
-0.00140134
-0.00119915
-0.00102421
-0.000872577
-0.000740627
-0.0006249
-0.000522235
-0.000430194
-0.000347542
-0.000274355
-0.000211503
-0.000159714
-0.000118803
-8.7538e-05
-6.41351e-05
-4.68594e-05
-3.43357e-05
-2.54891e-05
-1.93756e-05
-1.51204e-05
-1.1988e-05
-9.48105e-06
-7.36298e-06
-5.57789e-06
-4.13467e-06
-3.02692e-06
-2.21104e-06
-1.62369e-06
-1.20377e-06
-9.03053e-07
-6.86529e-07
-5.29537e-07
-4.14778e-07
-3.30274e-07
-2.67623e-07
-2.20924e-07
-1.85878e-07
-1.59405e-07
-1.39205e-07
-1.23644e-07
-1.11478e-07
-1.01839e-07
-9.40502e-08
-8.7655e-08
-8.22826e-08
-7.76943e-08
-7.36853e-08
-7.0132e-08
-6.69198e-08
-6.39848e-08
-6.12626e-08
-5.87194e-08
-5.63198e-08
-5.4044e-08
-5.18745e-08
-4.97969e-08
-4.78051e-08
-4.58859e-08
-4.40414e-08
-4.22569e-08
-4.05409e-08
-3.88759e-08
-3.7276e-08
-3.57201e-08
-3.42272e-08
-3.27726e-08
-3.13797e-08
-3.002e-08
-2.87213e-08
-2.74508e-08
-2.62409e-08
-2.50547e-08
-2.39286e-08
-2.28219e-08
-2.17749e-08
-2.07432e-08
-1.97707e-08
-1.88096e-08
-1.79073e-08
-1.70125e-08
-1.6176e-08
-1.53433e-08
-1.45685e-08
-1.37939e-08
-1.30766e-08
-1.2356e-08
-1.16922e-08
-1.10217e-08
-1.04075e-08
-9.78327e-09
-9.21463e-09
-8.63295e-09
-8.10613e-09
-7.56329e-09
-7.07453e-09
-6.56688e-09
-6.11252e-09
-5.63647e-09
-5.21293e-09
-4.7649e-09
-4.36883e-09
-3.94509e-09
-3.57366e-09
-3.16973e-09
-2.82153e-09
-2.43008e-09
-2.10821e-09
-1.71303e-09
-1.43877e-09
-9.89847e-10
-8.48934e-10
-1.95147e-10
-4.53495e-10
9.31037e-10
0.0662963
0.0653027
0.0619429
0.0566078
0.0483875
0.0361411
0.0187933
-0.00538244
-0.0362258
-0.0738574
-0.112517
-0.144929
-0.173756
-0.197764
-0.216338
-0.229122
-0.234912
-0.232807
-0.22249
-0.204839
-0.181882
-0.156325
-0.130746
-0.107037
-0.0862579
-0.0687821
-0.0545134
-0.043104
-0.0341075
-0.0270739
-0.0215985
-0.0173399
-0.0140219
-0.0114268
-0.00938596
-0.00777002
-0.00648044
-0.00544233
-0.00459888
-0.00390699
-0.00333387
-0.00285459
-0.0024501
-0.00210583
-0.00181063
-0.00155595
-0.00133529
-0.00114366
-0.000977107
-0.000832233
-0.000705824
-0.000594672
-0.000495758
-0.000406743
-0.000326495
-0.00025526
-0.000194127
-0.00014403
-0.000104897
-7.55064e-05
-5.4007e-05
-3.85756e-05
-2.77746e-05
-2.04775e-05
-1.56928e-05
-1.25022e-05
-1.01482e-05
-8.15511e-06
-6.35206e-06
-4.7646e-06
-3.46672e-06
-2.48503e-06
-1.78299e-06
-1.29398e-06
-9.54295e-07
-7.1643e-07
-5.47983e-07
-4.27205e-07
-3.39405e-07
-2.74817e-07
-2.26834e-07
-1.90938e-07
-1.63849e-07
-1.43235e-07
-1.27346e-07
-1.14951e-07
-1.05108e-07
-9.71725e-08
-9.06328e-08
-8.51528e-08
-8.0451e-08
-7.63542e-08
-7.27051e-08
-6.94154e-08
-6.63962e-08
-6.36025e-08
-6.09838e-08
-5.85162e-08
-5.6172e-08
-5.39367e-08
-5.17968e-08
-4.97408e-08
-4.77648e-08
-4.58571e-08
-4.40212e-08
-4.22427e-08
-4.05313e-08
-3.88694e-08
-3.7272e-08
-3.57176e-08
-3.42262e-08
-3.27722e-08
-3.13802e-08
-3.00207e-08
-2.87225e-08
-2.74521e-08
-2.62425e-08
-2.50562e-08
-2.39304e-08
-2.28235e-08
-2.17768e-08
-2.07448e-08
-1.97726e-08
-1.88112e-08
-1.79092e-08
-1.7014e-08
-1.61779e-08
-1.53448e-08
-1.45704e-08
-1.37953e-08
-1.30784e-08
-1.23574e-08
-1.1694e-08
-1.1023e-08
-1.04091e-08
-9.78449e-09
-9.21626e-09
-8.6341e-09
-8.1077e-09
-7.56437e-09
-7.07604e-09
-6.56789e-09
-6.11397e-09
-5.63742e-09
-5.21433e-09
-4.76578e-09
-4.37018e-09
-3.9459e-09
-3.57498e-09
-3.17047e-09
-2.82288e-09
-2.43068e-09
-2.10984e-09
-1.71315e-09
-1.44149e-09
-9.88171e-10
-8.55899e-10
-1.86443e-10
-4.74101e-10
9.65287e-10
0.0704212
0.0695957
0.0667949
0.0621873
0.0547912
0.0432366
0.0260695
0.000855549
-0.0325645
-0.075254
-0.118704
-0.152965
-0.183371
-0.208552
-0.228138
-0.241926
-0.248349
-0.246074
-0.234446
-0.214379
-0.188316
-0.159583
-0.13128
-0.105563
-0.0835229
-0.0654196
-0.0509896
-0.0397223
-0.0310394
-0.0243956
-0.0193242
-0.0154476
-0.012471
-0.0101701
-0.00837605
-0.00696332
-0.00583866
-0.00493298
-0.00419498
-0.00358649
-0.00307902
-0.0026512
-0.00228693
-0.00197402
-0.00170323
-0.00146754
-0.00126167
-0.00108161
-0.000924179
-0.000786611
-0.000666146
-0.000559896
-0.000465039
-0.000379377
-0.000301908
-0.000233042
-0.000174067
-0.000126088
-8.91252e-05
-6.19485e-05
-4.2645e-05
-2.93234e-05
-2.04971e-05
-1.4989e-05
-1.17427e-05
-9.77154e-06
-8.28171e-06
-6.82505e-06
-5.32271e-06
-3.9105e-06
-2.74588e-06
-1.89172e-06
-1.31279e-06
-9.32731e-07
-6.82032e-07
-5.1349e-07
-3.97811e-07
-3.16636e-07
-2.58202e-07
-2.15205e-07
-1.83058e-07
-1.58786e-07
-1.40244e-07
-1.25916e-07
-1.14646e-07
-1.05644e-07
-9.82901e-08
-9.21798e-08
-8.69771e-08
-8.24769e-08
-7.84926e-08
-7.49215e-08
-7.16573e-08
-6.86496e-08
-6.58369e-08
-6.31943e-08
-6.06861e-08
-5.82994e-08
-5.60144e-08
-5.38224e-08
-5.17141e-08
-4.96812e-08
-4.77222e-08
-4.58268e-08
-4.39999e-08
-4.22278e-08
-4.05213e-08
-3.88628e-08
-3.7268e-08
-3.57153e-08
-3.42254e-08
-3.27722e-08
-3.1381e-08
-3.00218e-08
-2.87242e-08
-2.74538e-08
-2.62446e-08
-2.50581e-08
-2.39326e-08
-2.28255e-08
-2.17791e-08
-2.07468e-08
-1.97749e-08
-1.88132e-08
-1.79115e-08
-1.7016e-08
-1.61801e-08
-1.53467e-08
-1.45725e-08
-1.37971e-08
-1.30805e-08
-1.23591e-08
-1.1696e-08
-1.10246e-08
-1.04111e-08
-9.78603e-09
-9.21812e-09
-8.63556e-09
-8.10948e-09
-7.56574e-09
-7.07775e-09
-6.56917e-09
-6.11559e-09
-5.63861e-09
-5.21587e-09
-4.76688e-09
-4.37163e-09
-3.9469e-09
-3.57637e-09
-3.17135e-09
-2.82427e-09
-2.4314e-09
-2.11143e-09
-1.71339e-09
-1.44397e-09
-9.86791e-10
-8.61718e-10
-1.79362e-10
-4.89452e-10
9.90423e-10
0.0748775
0.0742583
0.072143
0.0684579
0.0621575
0.0516345
0.0349456
0.00874293
-0.027763
-0.0772771
-0.126848
-0.16277
-0.194804
-0.221222
-0.241925
-0.256924
-0.264141
-0.261746
-0.248597
-0.225625
-0.195766
-0.163157
-0.131579
-0.103517
-0.0800673
-0.0613227
-0.0467949
-0.0357675
-0.0275025
-0.0213449
-0.0167598
-0.0133319
-0.0107495
-0.0087833
-0.00726705
-0.00608095
-0.00513889
-0.00437892
-0.00375637
-0.00323884
-0.00280272
-0.00243069
-0.00210992
-0.00183087
-0.00158639
-0.00137113
-0.00118113
-0.00101342
-0.000865685
-0.000735808
-0.000621556
-0.000520424
-0.000429863
-0.000347861
-0.000273577
-0.00020757
-0.000151277
-0.000105919
-7.1558e-05
-4.69427e-05
-3.01126e-05
-1.91541e-05
-1.2555e-05
-9.09016e-06
-7.61115e-06
-7.02561e-06
-6.47986e-06
-5.56139e-06
-4.31987e-06
-3.03985e-06
-1.98518e-06
-1.25635e-06
-8.09166e-07
-5.48039e-07
-3.93707e-07
-2.99306e-07
-2.39655e-07
-2.00407e-07
-1.72985e-07
-1.52724e-07
-1.37209e-07
-1.25133e-07
-1.1555e-07
-1.07807e-07
-1.01373e-07
-9.59197e-08
-9.11683e-08
-8.69653e-08
-8.31599e-08
-7.96832e-08
-7.64486e-08
-7.34266e-08
-7.05646e-08
-6.78514e-08
-6.52542e-08
-6.27693e-08
-6.03766e-08
-5.80744e-08
-5.58512e-08
-5.37043e-08
-5.16291e-08
-4.96202e-08
-4.76789e-08
-4.57962e-08
-4.39788e-08
-4.22134e-08
-4.0512e-08
-3.88569e-08
-3.72649e-08
-3.5714e-08
-3.42255e-08
-3.27731e-08
-3.13828e-08
-3.00239e-08
-2.87268e-08
-2.74564e-08
-2.62475e-08
-2.5061e-08
-2.39357e-08
-2.28284e-08
-2.17822e-08
-2.07497e-08
-1.9778e-08
-1.8816e-08
-1.79145e-08
-1.70187e-08
-1.6183e-08
-1.53493e-08
-1.45753e-08
-1.37996e-08
-1.30832e-08
-1.23614e-08
-1.16985e-08
-1.10269e-08
-1.04136e-08
-9.78812e-09
-9.22046e-09
-8.63751e-09
-8.1117e-09
-7.56755e-09
-7.07984e-09
-6.57087e-09
-6.11756e-09
-5.64018e-09
-5.21773e-09
-4.76833e-09
-4.37338e-09
-3.94821e-09
-3.57802e-09
-3.17253e-09
-2.82588e-09
-2.43238e-09
-2.11318e-09
-1.7139e-09
-1.44639e-09
-9.85836e-10
-8.66613e-10
-1.73883e-10
-5.00794e-10
1.0085e-09
0.0795837
0.079213
0.0779211
0.0753855
0.0705147
0.061487
0.0457321
0.0187718
-0.0214032
-0.0802432
-0.137746
-0.17478
-0.208185
-0.235674
-0.257704
-0.274488
-0.283133
-0.280902
-0.265969
-0.239309
-0.204601
-0.167123
-0.13155
-0.100739
-0.0757327
-0.0563648
-0.0418412
-0.0311854
-0.0234681
-0.01791
-0.0139038
-0.0109973
-0.00886428
-0.00727431
-0.00606664
-0.00512993
-0.00438726
-0.00378545
-0.00328755
-0.0028678
-0.00250811
-0.00219563
-0.0019212
-0.00167812
-0.00146154
-0.00126791
-0.00109464
-0.000939911
-0.000802267
-0.000680322
-0.000572425
-0.000476533
-0.000390449
-0.00031241
-0.000241756
-0.00017916
-0.000126131
-8.3918e-05
-5.25704e-05
-3.08087e-05
-1.66631e-05
-8.26419e-06
-4.11689e-06
-2.94762e-06
-3.4732e-06
-4.43773e-06
-4.89275e-06
-4.473e-06
-3.4073e-06
-2.18257e-06
-1.19729e-06
-5.86573e-07
-2.79689e-07
-1.47429e-07
-9.57749e-08
-7.89058e-08
-7.73261e-08
-8.14351e-08
-8.59947e-08
-8.90687e-08
-9.05542e-08
-9.09138e-08
-9.04572e-08
-8.94152e-08
-8.78991e-08
-8.60523e-08
-8.39439e-08
-8.16773e-08
-7.92899e-08
-7.68517e-08
-7.43774e-08
-7.19123e-08
-6.94579e-08
-6.70432e-08
-6.46644e-08
-6.23395e-08
-6.00638e-08
-5.78471e-08
-5.56865e-08
-5.35853e-08
-5.15436e-08
-4.95591e-08
-4.76357e-08
-4.57659e-08
-4.3958e-08
-4.21995e-08
-4.05031e-08
-3.88516e-08
-3.72623e-08
-3.57131e-08
-3.42262e-08
-3.27746e-08
-3.13851e-08
-3.00266e-08
-2.87299e-08
-2.74596e-08
-2.6251e-08
-2.50644e-08
-2.39393e-08
-2.28319e-08
-2.17858e-08
-2.07531e-08
-1.97815e-08
-1.88193e-08
-1.79179e-08
-1.70218e-08
-1.61863e-08
-1.53523e-08
-1.45785e-08
-1.38025e-08
-1.30862e-08
-1.23642e-08
-1.17015e-08
-1.10295e-08
-1.04163e-08
-9.79059e-09
-9.22311e-09
-8.63984e-09
-8.1142e-09
-7.56973e-09
-7.0822e-09
-6.57289e-09
-6.11978e-09
-5.64205e-09
-5.21979e-09
-4.77003e-09
-4.37529e-09
-3.94976e-09
-3.57979e-09
-3.1739e-09
-2.82757e-09
-2.43352e-09
-2.11492e-09
-1.71456e-09
-1.4486e-09
-9.85213e-10
-8.70595e-10
-1.69698e-10
-5.09058e-10
1.02143e-09
0.0844415
0.0843624
0.0840391
0.0829023
0.0798596
0.0729253
0.0587697
0.0315683
-0.0129787
-0.0848057
-0.152273
-0.189268
-0.223992
-0.252404
-0.275663
-0.29444
-0.304855
-0.303216
-0.286428
-0.255404
-0.214761
-0.171326
-0.130971
-0.0970037
-0.0703323
-0.0504147
-0.0360501
-0.0259387
-0.0189273
-0.0140997
-0.0107742
-0.00846508
-0.00683691
-0.00566289
-0.004792
-0.00412465
-0.00359553
-0.00316191
-0.00279585
-0.00247906
-0.00219953
-0.00194936
-0.00172326
-0.00151765
-0.00133009
-0.00115889
-0.00100295
-0.000861581
-0.000734247
-0.000620323
-0.0005188
-0.000428186
-0.000346729
-0.000272983
-0.000206478
-0.000147958
-9.88745e-05
-6.03862e-05
-3.24477e-05
-1.37529e-05
-2.42883e-06
3.26621e-06
4.74642e-06
3.34062e-06
5.34425e-07
-2.16649e-06
-3.66787e-06
-3.66845e-06
-2.64706e-06
-1.3664e-06
-3.94864e-07
1.06904e-07
2.63481e-07
2.57329e-07
2.02413e-07
1.41148e-07
8.46977e-08
3.71722e-08
5.79575e-10
-2.57837e-08
-4.41846e-08
-5.69111e-08
-6.55343e-08
-7.11587e-08
-7.45306e-08
-7.62656e-08
-7.67809e-08
-7.64355e-08
-7.54547e-08
-7.40464e-08
-7.23261e-08
-7.0413e-08
-6.83627e-08
-6.62439e-08
-6.40816e-08
-6.19151e-08
-5.97553e-08
-5.76234e-08
-5.55248e-08
-5.34689e-08
-5.14602e-08
-4.94998e-08
-4.75941e-08
-4.57371e-08
-4.39386e-08
-4.21868e-08
-4.04954e-08
-3.88474e-08
-3.72608e-08
-3.57138e-08
-3.42279e-08
-3.27771e-08
-3.13884e-08
-3.00301e-08
-2.87339e-08
-2.74636e-08
-2.62553e-08
-2.50686e-08
-2.39437e-08
-2.28361e-08
-2.17901e-08
-2.07572e-08
-1.97857e-08
-1.88232e-08
-1.7922e-08
-1.70256e-08
-1.61902e-08
-1.5356e-08
-1.45822e-08
-1.38059e-08
-1.30898e-08
-1.23675e-08
-1.17049e-08
-1.10326e-08
-1.04195e-08
-9.7935e-09
-9.22613e-09
-8.64255e-09
-8.11703e-09
-7.57225e-09
-7.08484e-09
-6.57522e-09
-6.12224e-09
-5.6442e-09
-5.22209e-09
-4.77201e-09
-4.37741e-09
-3.95155e-09
-3.58175e-09
-3.17549e-09
-2.82941e-09
-2.43486e-09
-2.11674e-09
-1.71544e-09
-1.45071e-09
-9.84956e-10
-8.73893e-10
-1.66657e-10
-5.15121e-10
1.0306e-09
0.0893354
0.089591
0.0903779
0.0909107
0.0901537
0.0861058
0.0745104
0.0481572
-0.00157667
-0.0919073
-0.172796
-0.206786
-0.241449
-0.270577
-0.295947
-0.318169
-0.331716
-0.331059
-0.311871
-0.275123
-0.226766
-0.175787
-0.129613
-0.0920183
-0.0636113
-0.0432894
-0.0293068
-0.0199649
-0.0138523
-0.00990655
-0.00737459
-0.0057442
-0.00467812
-0.00395981
-0.00345311
-0.00307396
-0.00277134
-0.00251486
-0.00228682
-0.00207727
-0.00188089
-0.00169508
-0.00151878
-0.00135168
-0.00119387
-0.00104563
-0.000907364
-0.000779531
-0.000662547
-0.000556578
-0.000461331
-0.000375962
-0.000299271
-0.000230214
-0.000168485
-0.000114782
-7.03782e-05
-3.61457e-05
-1.18746e-05
3.68767e-06
1.22118e-05
1.51704e-05
1.38158e-05
9.55216e-06
4.16927e-06
-4.54362e-07
-3.00923e-06
-3.28408e-06
-2.10653e-06
-6.13175e-07
4.1667e-07
8.17564e-07
8.09519e-07
6.54712e-07
4.91723e-07
3.54517e-07
2.42078e-07
1.52281e-07
8.44012e-08
3.54131e-08
6.4871e-10
-2.40404e-08
-4.14558e-08
-5.35338e-08
-6.16323e-08
-6.68273e-08
-6.98753e-08
-7.13839e-08
-7.17598e-08
-7.13445e-08
-7.0351e-08
-6.897e-08
-6.73091e-08
-6.54753e-08
-6.35216e-08
-6.15077e-08
-5.94595e-08
-5.74092e-08
-5.53702e-08
-5.33579e-08
-5.13811e-08
-4.94439e-08
-4.75551e-08
-4.57104e-08
-4.39209e-08
-4.21756e-08
-4.0489e-08
-3.88443e-08
-3.72602e-08
-3.57148e-08
-3.42303e-08
-3.27803e-08
-3.13923e-08
-3.00344e-08
-2.87385e-08
-2.74683e-08
-2.62601e-08
-2.50734e-08
-2.39486e-08
-2.28408e-08
-2.17949e-08
-2.07618e-08
-1.97904e-08
-1.88277e-08
-1.79265e-08
-1.703e-08
-1.61946e-08
-1.53601e-08
-1.45864e-08
-1.38099e-08
-1.30938e-08
-1.23712e-08
-1.17086e-08
-1.10361e-08
-1.04231e-08
-9.79684e-09
-9.22952e-09
-8.64568e-09
-8.12022e-09
-7.57517e-09
-7.08782e-09
-6.57793e-09
-6.12501e-09
-5.64669e-09
-5.22464e-09
-4.77428e-09
-4.37975e-09
-3.95359e-09
-3.58388e-09
-3.17729e-09
-2.83136e-09
-2.43638e-09
-2.1186e-09
-1.71648e-09
-1.45268e-09
-9.84987e-10
-8.76594e-10
-1.64488e-10
-5.19549e-10
1.03711e-09
0.0941322
0.0947578
0.0967833
0.0992373
0.101277
0.10102
0.0933342
0.0695646
0.0134593
-0.10218
-0.199525
-0.228979
-0.263627
-0.292052
-0.318728
-0.344814
-0.36231
-0.363961
-0.342628
-0.298978
-0.240869
-0.180409
-0.127167
-0.0854399
-0.0552927
-0.0348076
-0.0215151
-0.0132291
-0.00824616
-0.00535416
-0.00373711
-0.002868
-0.00241873
-0.00219167
-0.00207194
-0.00199546
-0.0019285
-0.00185494
-0.00176856
-0.00166854
-0.00155674
-0.00143622
-0.00131029
-0.00118208
-0.00105428
-0.000929168
-0.000808639
-0.000694316
-0.000587556
-0.000489357
-0.000400218
-0.000320058
-0.000248347
-0.000184488
-0.00012832
-8.03338e-05
-4.13518e-05
-1.18305e-05
8.64578e-06
2.12093e-05
2.7122e-05
2.74016e-05
2.30542e-05
1.56038e-05
7.28986e-06
5.28623e-07
-3.06885e-06
-3.41982e-06
-1.82763e-06
6.81578e-08
1.23331e-06
1.53336e-06
1.34054e-06
1.02793e-06
7.60185e-07
5.53683e-07
3.901e-07
2.6063e-07
1.63178e-07
9.29237e-08
4.28329e-08
6.90644e-09
-1.8797e-08
-3.6961e-08
-4.95108e-08
-5.79607e-08
-6.33902e-08
-6.66414e-08
-6.82921e-08
-6.88097e-08
-6.84989e-08
-6.76175e-08
-6.63223e-08
-6.4756e-08
-6.2998e-08
-6.11273e-08
-5.91838e-08
-5.721e-08
-5.5227e-08
-5.32554e-08
-5.13085e-08
-4.9393e-08
-4.75201e-08
-4.56869e-08
-4.39058e-08
-4.21665e-08
-4.04843e-08
-3.88428e-08
-3.72609e-08
-3.57167e-08
-3.42336e-08
-3.27846e-08
-3.13971e-08
-3.00395e-08
-2.87439e-08
-2.74738e-08
-2.62657e-08
-2.50789e-08
-2.39541e-08
-2.28463e-08
-2.18004e-08
-2.07671e-08
-1.97957e-08
-1.88328e-08
-1.79316e-08
-1.70348e-08
-1.61995e-08
-1.53647e-08
-1.4591e-08
-1.38143e-08
-1.30982e-08
-1.23754e-08
-1.17128e-08
-1.104e-08
-1.04271e-08
-9.8005e-09
-9.23319e-09
-8.64909e-09
-8.12362e-09
-7.57831e-09
-7.09097e-09
-6.58083e-09
-6.12794e-09
-5.64937e-09
-5.22735e-09
-4.77673e-09
-4.38223e-09
-3.9558e-09
-3.58613e-09
-3.17924e-09
-2.83341e-09
-2.43803e-09
-2.1205e-09
-1.71768e-09
-1.45457e-09
-9.85297e-10
-8.7887e-10
-1.63052e-10
-5.22833e-10
1.04167e-09
0.0986838
0.0997073
0.103061
0.107678
0.113016
0.117764
0.115833
0.098636
0.0342148
-0.1249
-0.240085
-0.251507
-0.285222
-0.31527
-0.345684
-0.377723
-0.400287
-0.403665
-0.379597
-0.327425
-0.257123
-0.184898
-0.123157
-0.0767806
-0.0449866
-0.0247065
-0.0125186
-0.00564945
-0.00207312
-0.000432531
0.000134991
0.000154145
-7.03269e-05
-0.000370356
-0.000659748
-0.000899421
-0.00107617
-0.0011902
-0.00124808
-0.00125888
-0.00123221
-0.00117707
-0.00110142
-0.00101191
-0.000913934
-0.000811743
-0.000708729
-0.000607652
-0.000510811
-0.000420086
-0.00033686
-0.000261929
-0.000195516
-0.000137492
-8.77168e-05
-4.62662e-05
-1.32963e-05
1.13341e-05
2.82373e-05
3.8237e-05
4.19487e-05
3.97393e-05
3.22971e-05
2.13426e-05
9.74859e-06
6.64651e-07
-3.91159e-06
-4.08434e-06
-1.77324e-06
7.22654e-07
2.08141e-06
2.25781e-06
1.84736e-06
1.36601e-06
9.99666e-07
7.33537e-07
5.24997e-07
3.59345e-07
2.34769e-07
1.45204e-07
8.12562e-08
3.51148e-08
1.83872e-09
-2.18854e-08
-3.84926e-08
-4.99048e-08
-5.75005e-08
-6.2336e-08
-6.51453e-08
-6.65104e-08
-6.68197e-08
-6.63921e-08
-6.54288e-08
-6.41054e-08
-6.2525e-08
-6.07842e-08
-5.89356e-08
-5.70312e-08
-5.50989e-08
-5.31643e-08
-5.12444e-08
-4.93486e-08
-4.74899e-08
-4.56672e-08
-4.38936e-08
-4.21598e-08
-4.04815e-08
-3.88427e-08
-3.72628e-08
-3.57198e-08
-3.4238e-08
-3.27897e-08
-3.14027e-08
-3.00454e-08
-2.875e-08
-2.74799e-08
-2.6272e-08
-2.50851e-08
-2.39603e-08
-2.28523e-08
-2.18064e-08
-2.0773e-08
-1.98015e-08
-1.88385e-08
-1.79371e-08
-1.70402e-08
-1.62048e-08
-1.53699e-08
-1.45961e-08
-1.38192e-08
-1.3103e-08
-1.238e-08
-1.17174e-08
-1.10444e-08
-1.04314e-08
-9.80464e-09
-9.23728e-09
-8.65297e-09
-8.12746e-09
-7.58193e-09
-7.09455e-09
-6.58418e-09
-6.13125e-09
-5.65245e-09
-5.23038e-09
-4.77952e-09
-4.38498e-09
-3.95829e-09
-3.58859e-09
-3.18142e-09
-2.8356e-09
-2.43987e-09
-2.12247e-09
-1.71903e-09
-1.45639e-09
-9.85838e-10
-8.80802e-10
-1.62166e-10
-5.25269e-10
1.04487e-09
0.102831