/*--------------------------------*- C++ -*----------------------------------*\
  =========                 |
  \\      /  F ield         | OpenFOAM: The Open Source CFD Toolbox
   \\    /   O peration     | Website:  https://openfoam.org
    \\  /    A nd           | Version:  11
     \\/     M anipulation  |
\*---------------------------------------------------------------------------*/
FoamFile
{
    format      ascii;
    class       volScalarField;
    location    "4.052743";
    object      p;
}
// * * * * * * * * * * * * * * * * * * * * * * * * * * * * * * * * * * * * * //

dimensions      [0 2 -2 0 0 0 0];

internalField   nonuniform List<scalar> 
7132
(
0.0506659
0.0492098
0.0442973
0.0370994
0.0270042
0.0136717
-0.00303995
-0.0232171
-0.0464567
-0.0719484
-0.0984436
-0.124217
-0.148289
-0.169718
-0.18778
-0.20199
-0.211944
-0.217348
-0.218042
-0.214057
-0.205684
-0.193511
-0.178384
-0.161314
-0.143342
-0.125408
-0.108262
-0.0924269
-0.0782069
-0.0657249
-0.0549679
-0.045833
-0.0381652
-0.0317865
-0.0265159
-0.0221812
-0.0186268
-0.015716
-0.0133319
-0.011376
-0.00976703
-0.00843807
-0.00733488
-0.00641367
-0.00563927
-0.00498357
-0.00442414
-0.00394312
-0.00352629
-0.00316233
-0.00284223
-0.00255877
-0.00230618
-0.00207983
-0.00187596
-0.00169156
-0.00152417
-0.00137179
-0.00123278
-0.00110579
-0.000989719
-0.000883635
-0.000786766
-0.000698449
-0.000618082
-0.000545063
-0.000478736
-0.000418351
-0.000363077
-0.000312099
-0.000264802
-0.00022096
-0.000180832
-0.000145045
-0.000114256
-8.8779e-05
-6.83833e-05
-5.2387e-05
-3.99462e-05
-3.03227e-05
-2.29721e-05
-1.74798e-05
-1.34598e-05
-1.05231e-05
-8.31716e-06
-6.57937e-06
-5.15525e-06
-3.9749e-06
-3.0116e-06
-2.24857e-06
-1.66325e-06
-1.22619e-06
-9.05875e-07
-6.73546e-07
-5.0559e-07
-3.83895e-07
-2.95145e-07
-2.29847e-07
-1.81361e-07
-1.45098e-07
-1.17862e-07
-9.73805e-08
-8.19822e-08
-7.0397e-08
-6.16525e-08
-5.49945e-08
-4.98641e-08
-4.58386e-08
-4.26267e-08
-4.00058e-08
-3.7834e-08
-3.59892e-08
-3.4403e-08
-3.30002e-08
-3.17507e-08
-3.06038e-08
-2.95521e-08
-2.85578e-08
-2.76273e-08
-2.67287e-08
-2.58769e-08
-2.5042e-08
-2.42442e-08
-2.34541e-08
-2.26956e-08
-2.19383e-08
-2.12096e-08
-2.04778e-08
-1.97726e-08
-1.90609e-08
-1.83746e-08
-1.76792e-08
-1.70086e-08
-1.63265e-08
-1.56687e-08
-1.49976e-08
-1.43505e-08
-1.36883e-08
-1.30502e-08
-1.23954e-08
-1.17645e-08
-1.11157e-08
-1.04909e-08
-9.84693e-09
-9.2271e-09
-8.58686e-09
-7.97121e-09
-7.33365e-09
-6.72187e-09
-6.08547e-09
-5.47824e-09
-4.83972e-09
-4.24045e-09
-3.59159e-09
-3.01147e-09
-2.33161e-09
-1.79932e-09
-1.04287e-09
-6.00841e-10
2.52865e-10
0.0512466
0.0498029
0.0449342
0.0377835
0.0277286
0.0144028
-0.00236039
-0.0226848
-0.0461662
-0.0719892
-0.0988321
-0.124854
-0.149115
-0.170674
-0.188821
-0.203093
-0.213091
-0.218516
-0.219197
-0.21515
-0.20666
-0.194316
-0.178978
-0.161683
-0.143496
-0.125379
-0.108092
-0.0921611
-0.0778865
-0.0653836
-0.0546307
-0.0455164
-0.0378788
-0.0315346
-0.0262991
-0.0219978
-0.0184737
-0.0155896
-0.0132283
-0.0112917
-0.00969862
-0.00838275
-0.00729019
-0.00637757
-0.00561007
-0.00495989
-0.00440486
-0.00392735
-0.00351332
-0.0031516
-0.00283329
-0.00255125
-0.00229981
-0.00207438
-0.00187125
-0.00168745
-0.00152055
-0.00136857
-0.00122988
-0.00110316
-0.000987307
-0.000881403
-0.000784687
-0.000696506
-0.000616268
-0.000543381
-0.000477194
-0.000416953
-0.000361822
-0.000310974
-0.000263778
-0.000220004
-0.000179915
-0.000144151
-0.000113392
-8.79666e-05
-6.76487e-05
-5.17477e-05
-3.94049e-05
-2.98686e-05
-2.2589e-05
-1.71538e-05
-1.31833e-05
-1.02932e-05
-8.13254e-06
-6.4374e-06
-5.05108e-06
-3.90212e-06
-2.96327e-06
-2.21806e-06
-1.64476e-06
-1.21505e-06
-8.98709e-07
-6.68239e-07
-5.01073e-07
-3.79806e-07
-2.91488e-07
-2.26736e-07
-1.78877e-07
-1.43235e-07
-1.16542e-07
-9.6481e-08
-8.13791e-08
-6.9986e-08
-6.13607e-08
-5.4777e-08
-4.96975e-08
-4.57102e-08
-4.25297e-08
-3.99339e-08
-3.77822e-08
-3.59518e-08
-3.43763e-08
-3.29804e-08
-3.17364e-08
-3.05927e-08
-2.95441e-08
-2.85514e-08
-2.76229e-08
-2.6725e-08
-2.58745e-08
-2.50398e-08
-2.4243e-08
-2.34526e-08
-2.26949e-08
-2.19373e-08
-2.12094e-08
-2.04771e-08
-1.97726e-08
-1.90603e-08
-1.83749e-08
-1.76788e-08
-1.70089e-08
-1.63261e-08
-1.56692e-08
-1.49973e-08
-1.4351e-08
-1.36881e-08
-1.30507e-08
-1.23951e-08
-1.17651e-08
-1.11155e-08
-1.04916e-08
-9.84672e-09
-9.22778e-09
-8.58667e-09
-7.97192e-09
-7.33346e-09
-6.72261e-09
-6.0853e-09
-5.47906e-09
-4.83955e-09
-4.24144e-09
-3.59123e-09
-3.01314e-09
-2.33026e-09
-1.80447e-09
-1.03602e-09
-6.25143e-10
2.96534e-10
0.0524024
0.0509852
0.0462059
0.0391541
0.0291855
0.0158793
-0.000981455
-0.0216005
-0.0455716
-0.0720754
-0.0996303
-0.12615
-0.150786
-0.172602
-0.190916
-0.20531
-0.215395
-0.220867
-0.221528
-0.217365
-0.208642
-0.195952
-0.180187
-0.162432
-0.143808
-0.125318
-0.107746
-0.091622
-0.0772387
-0.0646952
-0.0539518
-0.0448801
-0.0373041
-0.0310299
-0.0258652
-0.0216311
-0.0181679
-0.0153371
-0.0130215
-0.0111234
-0.00956221
-0.00827245
-0.00720112
-0.00630563
-0.00555189
-0.00491271
-0.00436647
-0.00389597
-0.00348752
-0.00313025
-0.00281548
-0.0025363
-0.00228714
-0.00206355
-0.00186191
-0.00167931
-0.00151338
-0.0013622
-0.00122416
-0.00109797
-0.000982551
-0.000877008
-0.0007806
-0.000692696
-0.000612726
-0.00054012
-0.00047424
-0.000414331
-0.000359536
-0.000308992
-0.000262032
-0.000218399
-0.000178357
-0.000142577
-0.000111787
-8.63693e-05
-6.61246e-05
-5.03634e-05
-3.82045e-05
-2.88671e-05
-2.1778e-05
-1.65126e-05
-1.2687e-05
-9.9166e-06
-7.85072e-06
-6.22687e-06
-4.89182e-06
-3.7794e-06
-2.86765e-06
-2.14393e-06
-1.5884e-06
-1.17323e-06
-8.68291e-07
-6.46316e-07
-4.85208e-07
-3.68154e-07
-2.82766e-07
-2.20103e-07
-1.73802e-07
-1.39373e-07
-1.13643e-07
-9.43443e-08
-7.98306e-08
-6.88754e-08
-6.05657e-08
-5.42041e-08
-4.92802e-08
-4.54029e-08
-4.23025e-08
-3.97657e-08
-3.76585e-08
-3.58609e-08
-3.431e-08
-3.29318e-08
-3.17008e-08
-3.05663e-08
-2.95246e-08
-2.85367e-08
-2.7612e-08
-2.67167e-08
-2.58683e-08
-2.50348e-08
-2.42393e-08
-2.34495e-08
-2.26926e-08
-2.19352e-08
-2.12078e-08
-2.04755e-08
-1.97715e-08
-1.90591e-08
-1.8374e-08
-1.76778e-08
-1.70083e-08
-1.63253e-08
-1.56686e-08
-1.49965e-08
-1.43506e-08
-1.36874e-08
-1.30503e-08
-1.23945e-08
-1.17648e-08
-1.11149e-08
-1.04913e-08
-9.84618e-09
-9.22752e-09
-8.58617e-09
-7.9717e-09
-7.33301e-09
-6.72246e-09
-6.08487e-09
-5.47903e-09
-4.8391e-09
-4.24175e-09
-3.59047e-09
-3.01483e-09
-2.32774e-09
-1.81268e-09
-1.02341e-09
-6.67384e-10
3.72325e-10
0.0541233
0.0527477
0.0481094
0.0412166
0.0313913
0.0181305
0.00113648
-0.0199248
-0.0446473
-0.0722201
-0.100886
-0.128151
-0.153347
-0.175538
-0.194092
-0.208666
-0.218885
-0.22443
-0.225065
-0.220725
-0.211646
-0.198426
-0.182006
-0.163549
-0.144259
-0.125203
-0.1072
-0.0907886
-0.076246
-0.0636465
-0.0529222
-0.0439184
-0.0364381
-0.0302711
-0.0252144
-0.0210821
-0.0177107
-0.0149603
-0.0127133
-0.0108727
-0.00935915
-0.00810837
-0.00706867
-0.00619868
-0.00546539
-0.00484258
-0.00430938
-0.00384927
-0.0034491
-0.00309844
-0.00278895
-0.00251399
-0.00226823
-0.00204736
-0.00184793
-0.00166712
-0.00150265
-0.00135264
-0.00121557
-0.00109016
-0.000975389
-0.00087038
-0.000774424
-0.000686922
-0.000607338
-0.000535132
-0.000469685
-0.000410242
-0.000355916
-0.0003058
-0.000259172
-0.000215741
-0.000175771
-0.00013998
-0.000109169
-8.37901e-05
-6.36851e-05
-4.81626e-05
-3.63079e-05
-2.72969e-05
-2.05202e-05
-1.55333e-05
-1.19442e-05
-9.36613e-06
-7.44866e-06
-5.93258e-06
-4.67176e-06
-3.60982e-06
-2.73412e-06
-2.03852e-06
-1.50625e-06
-1.11034e-06
-8.20796e-07
-6.10656e-07
-4.58428e-07
-3.47997e-07
-2.6758e-07
-2.0869e-07
-1.65273e-07
-1.33051e-07
-1.09e-07
-9.09604e-08
-7.73757e-08
-6.70952e-08
-5.92711e-08
-5.32581e-08
-4.85865e-08
-4.48929e-08
-4.19281e-08
-3.94912e-08
-3.74581e-08
-3.57147e-08
-3.42036e-08
-3.2854e-08
-3.16442e-08
-3.05247e-08
-2.94945e-08
-2.85144e-08
-2.7596e-08
-2.67047e-08
-2.58599e-08
-2.50284e-08
-2.42349e-08
-2.3446e-08
-2.26904e-08
-2.19333e-08
-2.12068e-08
-2.04745e-08
-1.97711e-08
-1.90585e-08
-1.8374e-08
-1.76774e-08
-1.70084e-08
-1.6325e-08
-1.56689e-08
-1.49963e-08
-1.43509e-08
-1.36873e-08
-1.30507e-08
-1.23944e-08
-1.17652e-08
-1.11148e-08
-1.04917e-08
-9.84611e-09
-9.22801e-09
-8.58611e-09
-7.97222e-09
-7.33296e-09
-6.72304e-09
-6.08483e-09
-5.47974e-09
-4.839e-09
-4.24292e-09
-3.58993e-09
-3.01783e-09
-2.32477e-09
-1.82405e-09
-1.00714e-09
-7.20527e-10
4.66391e-10
0.0563925
0.0550766
0.0506387
0.0439773
0.0343699
0.0212009
0.00405628
-0.017593
-0.0433487
-0.0724433
-0.102676
-0.130931
-0.156859
-0.179529
-0.198384
-0.21319
-0.223593
-0.229257
-0.229881
-0.225325
-0.215771
-0.201826
-0.184499
-0.165066
-0.144854
-0.12502
-0.106433
-0.089636
-0.0748855
-0.0622189
-0.051528
-0.0426223
-0.0352753
-0.0292558
-0.024346
-0.0203513
-0.0171034
-0.0144604
-0.012305
-0.010541
-0.00909072
-0.00789161
-0.00689377
-0.0060575
-0.00535124
-0.00475001
-0.00423403
-0.00378763
-0.00339839
-0.00305643
-0.0027539
-0.00248451
-0.00224322
-0.00202595
-0.00182943
-0.00165098
-0.00148842
-0.00133997
-0.00120417
-0.00107981
-0.000965882
-0.000861573
-0.000766207
-0.000679226
-0.000600137
-0.00052844
-0.000463542
-0.000404686
-0.000350959
-0.000301393
-0.000255202
-0.000212047
-0.000172195
-0.000136416
-0.000105604
-8.02993e-05
-6.03964e-05
-4.52032e-05
-3.37645e-05
-2.52008e-05
-1.88561e-05
-1.42575e-05
-1.09978e-05
-8.68339e-06
-6.96248e-06
-5.58136e-06
-4.40681e-06
-3.3993e-06
-2.56143e-06
-1.89684e-06
-1.39258e-06
-1.02178e-06
-7.53528e-07
-5.60426e-07
-4.21259e-07
-3.2058e-07
-2.47344e-07
-1.93719e-07
-1.54175e-07
-1.24825e-07
-1.02919e-07
-8.6487e-08
-7.4101e-08
-6.4707e-08
-5.75325e-08
-5.19916e-08
-4.76622e-08
-4.42168e-08
-4.14329e-08
-3.91282e-08
-3.71924e-08
-3.55202e-08
-3.40617e-08
-3.27501e-08
-3.15684e-08
-3.04691e-08
-2.94539e-08
-2.84845e-08
-2.75742e-08
-2.66884e-08
-2.58481e-08
-2.50195e-08
-2.42286e-08
-2.3441e-08
-2.26869e-08
-2.19305e-08
-2.1205e-08
-2.04728e-08
-1.97701e-08
-1.90574e-08
-1.83734e-08
-1.76767e-08
-1.70081e-08
-1.63244e-08
-1.56688e-08
-1.49959e-08
-1.43509e-08
-1.36868e-08
-1.30507e-08
-1.2394e-08
-1.17653e-08
-1.11145e-08
-1.04918e-08
-9.84579e-09
-9.22812e-09
-8.58581e-09
-7.97237e-09
-7.33269e-09
-6.72325e-09
-6.08458e-09
-5.48013e-09
-4.83869e-09
-4.24386e-09
-3.58908e-09
-3.02091e-09
-2.32114e-09
-1.83635e-09
-9.88944e-10
-7.75477e-10
5.6343e-10
0.0591868
0.0579515
0.0537841
0.0474436
0.0381526
0.0251514
0.00786568
-0.0145127
-0.0416112
-0.0727806
-0.105119
-0.134593
-0.161415
-0.184649
-0.203849
-0.218935
-0.229572
-0.235398
-0.236022
-0.2312
-0.221043
-0.206162
-0.187657
-0.166959
-0.145553
-0.124723
-0.105396
-0.0881216
-0.0731226
-0.0603863
-0.0497516
-0.0409809
-0.0338105
-0.0279823
-0.0232608
-0.0194409
-0.0163489
-0.013841
-0.0118
-0.0101314
-0.00875965
-0.00762452
-0.00667842
-0.00588373
-0.00521075
-0.00463608
-0.00414125
-0.00371169
-0.00333585
-0.00300458
-0.00271059
-0.00244804
-0.00221225
-0.00199941
-0.00180648
-0.00163093
-0.00147073
-0.0013242
-0.00118997
-0.00106688
-0.000953994
-0.00085054
-0.000755889
-0.000669528
-0.000591017
-0.000519902
-0.000455621
-0.000397425
-0.000344369
-0.00029543
-0.000249752
-0.000206948
-0.000167285
-0.000131595
-0.000100868
-7.5741e-05
-5.6162e-05
-4.14325e-05
-3.05483e-05
-2.25677e-05
-1.67821e-05
-1.26851e-05
-9.85003e-06
-7.87221e-06
-6.39703e-06
-5.17854e-06
-4.10262e-06
-3.15399e-06
-2.35637e-06
-1.72609e-06
-1.2543e-06
-9.13372e-07
-6.7069e-07
-4.98134e-07
-3.74823e-07
-2.8612e-07
-2.21836e-07
-1.7486e-07
-1.40248e-07
-1.14557e-07
-9.53706e-08
-8.09538e-08
-7.00557e-08
-6.17536e-08
-5.53768e-08
-5.04168e-08
-4.65107e-08
-4.3374e-08
-4.08163e-08
-3.8677e-08
-3.68628e-08
-3.52793e-08
-3.3886e-08
-3.26217e-08
-3.1475e-08
-3.04007e-08
-2.94042e-08
-2.8448e-08
-2.75479e-08
-2.66691e-08
-2.58344e-08
-2.50092e-08
-2.42215e-08
-2.34357e-08
-2.26834e-08
-2.19277e-08
-2.12033e-08
-2.04714e-08
-1.97695e-08
-1.90568e-08
-1.83734e-08
-1.76764e-08
-1.70084e-08
-1.63244e-08
-1.56691e-08
-1.49959e-08
-1.43513e-08
-1.36869e-08
-1.30512e-08
-1.23941e-08
-1.17658e-08
-1.11146e-08
-1.04923e-08
-9.84587e-09
-9.22866e-09
-8.58589e-09
-7.97294e-09
-7.33277e-09
-6.72387e-09
-6.08465e-09
-5.48092e-09
-4.83867e-09
-4.24523e-09
-3.58848e-09
-3.02449e-09
-2.31759e-09
-1.84901e-09
-9.70958e-10
-8.26439e-10
6.52297e-10
0.0624742
0.0613445
0.0575303
0.0516214
0.0427768
0.0300608
0.0126835
-0.0105519
-0.0393387
-0.0732855
-0.108386
-0.13928
-0.16713
-0.190971
-0.210526
-0.22593
-0.236875
-0.242957
-0.243651
-0.238554
-0.227668
-0.211609
-0.191599
-0.169282
-0.146362
-0.124284
-0.104046
-0.086199
-0.0709162
-0.0581169
-0.0475706
-0.0389799
-0.0320355
-0.0264471
-0.0219586
-0.0183526
-0.0154497
-0.0131047
-0.011201
-0.00964646
-0.00836817
-0.00730902
-0.00642422
-0.0056787
-0.00504503
-0.00450168
-0.00403179
-0.00362205
-0.003262
-0.00294331
-0.00265937
-0.00240487
-0.00217556
-0.00196795
-0.00177924
-0.00160712
-0.0014497
-0.00130544
-0.00117304
-0.00105146
-0.000939793
-0.000837336
-0.00074351
-0.000657856
-0.000579987
-0.000509503
-0.000445879
-0.000388382
-0.000336042
-0.000287787
-0.000242694
-0.000200328
-0.000160956
-0.000125469
-9.49536e-05
-7.01403e-05
-5.10258e-05
-3.69013e-05
-2.67101e-05
-1.94444e-05
-1.43435e-05
-1.0863e-05
-8.54962e-06
-6.98053e-06
-5.79452e-06
-4.75625e-06
-3.77966e-06
-2.88405e-06
-2.12205e-06
-1.5258e-06
-1.08991e-06
-7.83917e-07
-5.71833e-07
-4.24053e-07
-3.19895e-07
-2.45642e-07
-1.92096e-07
-1.53018e-07
-1.24187e-07
-1.02737e-07
-8.66735e-08
-7.45657e-08
-6.53745e-08
-5.833e-08
-5.28763e-08
-4.8591e-08
-4.51774e-08
-4.23995e-08
-4.01039e-08
-3.81559e-08
-3.64819e-08
-3.50008e-08
-3.36827e-08
-3.24731e-08
-3.13667e-08
-3.03215e-08
-2.93466e-08
-2.84058e-08
-2.75173e-08
-2.66466e-08
-2.58182e-08
-2.49973e-08
-2.42131e-08
-2.34294e-08
-2.26792e-08
-2.19244e-08
-2.12013e-08
-2.04697e-08
-1.97686e-08
-1.90559e-08
-1.83731e-08
-1.7676e-08
-1.70084e-08
-1.63242e-08
-1.56694e-08
-1.49958e-08
-1.43516e-08
-1.36869e-08
-1.30516e-08
-1.23941e-08
-1.17662e-08
-1.11146e-08
-1.04927e-08
-9.84588e-09
-9.22905e-09
-8.5859e-09
-7.97335e-09
-7.33278e-09
-6.72434e-09
-6.08465e-09
-5.48156e-09
-4.83858e-09
-4.24646e-09
-3.58778e-09
-3.02786e-09
-2.31401e-09
-1.86066e-09
-9.54194e-10
-8.69658e-10
7.27156e-10
0.0662131
0.0652183
0.0618542
0.0565128
0.0482835
0.0360252
0.0186617
-0.00553241
-0.0363981
-0.07405
-0.112731
-0.145175
-0.174151
-0.198615
-0.218512
-0.234257
-0.245563
-0.251973
-0.25279
-0.247401
-0.23566
-0.218173
-0.196312
-0.171996
-0.147218
-0.123626
-0.102308
-0.0838013
-0.0682135
-0.0553726
-0.0449601
-0.0366055
-0.0299447
-0.0246501
-0.0204422
-0.017091
-0.0144115
-0.0122573
-0.0105135
-0.00909103
-0.00792061
-0.00694879
-0.00613423
-0.00544492
-0.00485608
-0.00434841
-0.00390687
-0.00351968
-0.00317755
-0.00287315
-0.00260063
-0.0023553
-0.00213335
-0.0019317
-0.00174781
-0.0015796
-0.00142538
-0.0012837
-0.00115342
-0.00103354
-0.000923266
-0.000821936
-0.00072903
-0.000644148
-0.000566959
-0.000497118
-0.000434147
-0.000377333
-0.000325703
-0.000278145
-0.00023369
-0.000191861
-0.000152925
-0.000117819
-8.77129e-05
-6.34139e-05
-4.49527e-05
-3.16026e-05
-2.22558e-05
-1.58422e-05
-1.15561e-05
-8.81278e-06
-7.12425e-06
-6.03916e-06
-5.18409e-06
-4.33772e-06
-3.45385e-06
-2.59932e-06
-1.86488e-06
-1.30117e-06
-9.04306e-07
-6.37923e-07
-4.60629e-07
-3.40784e-07
-2.58095e-07
-2.00042e-07
-1.5858e-07
-1.28419e-07
-1.06124e-07
-8.94653e-08
-7.69274e-08
-6.74185e-08
-6.01417e-08
-5.45036e-08
-5.00802e-08
-4.6548e-08
-4.36846e-08
-4.13082e-08
-3.93062e-08
-3.75728e-08
-3.60561e-08
-3.46897e-08
-3.34558e-08
-3.23075e-08
-3.1246e-08
-3.02334e-08
-2.92827e-08
-2.83592e-08
-2.74837e-08
-2.66221e-08
-2.58007e-08
-2.49846e-08
-2.42042e-08
-2.34229e-08
-2.26749e-08
-2.19213e-08
-2.11994e-08
-2.04683e-08
-1.97681e-08
-1.90555e-08
-1.83732e-08
-1.7676e-08
-1.70089e-08
-1.63244e-08
-1.567e-08
-1.49961e-08
-1.43523e-08
-1.36872e-08
-1.30523e-08
-1.23945e-08
-1.17669e-08
-1.11149e-08
-1.04934e-08
-9.84621e-09
-9.22974e-09
-8.58622e-09
-7.97403e-09
-7.33307e-09
-6.72505e-09
-6.08492e-09
-5.48244e-09
-4.83872e-09
-4.24789e-09
-3.58732e-09
-3.03123e-09
-2.31085e-09
-1.87113e-09
-9.39624e-10
-9.04391e-10
7.86441e-10
0.0703503
0.0695244
0.0667223
0.0621132
0.0547156
0.0431613
0.0259977
0.000796996
-0.0325923
-0.0752085
-0.118516
-0.152534
-0.182652
-0.207645
-0.227797
-0.243915
-0.255718
-0.262662
-0.26378
-0.25815
-0.24541
-0.226158
-0.201982
-0.175175
-0.14811
-0.122691
-0.100102
-0.0808535
-0.0649524
-0.0521077
-0.0418899
-0.0338399
-0.0275294
-0.0225886
-0.0187131
-0.0156597
-0.0132386
-0.0113033
-0.00974178
-0.00846898
-0.00742026
-0.00654661
-0.00581076
-0.00518429
-0.00464547
-0.00417754
-0.00376755
-0.00340541
-0.00308321
-0.00279469
-0.00253487
-0.00229972
-0.00208597
-0.00189095
-0.00171245
-0.00154862
-0.00139794
-0.00125917
-0.00113123
-0.00101325
-0.000904516
-0.000804423
-0.000712517
-0.000628453
-0.000551959
-0.000482746
-0.000420386
-0.000364204
-0.000313241
-0.000266372
-0.000222605
-0.000181435
-0.000143123
-0.000108633
-7.91904e-05
-5.56451e-05
-3.80429e-05
-2.56335e-05
-1.72675e-05
-1.18301e-05
-8.48181e-06
-6.59738e-06
-5.64046e-06
-5.1144e-06
-4.62408e-06
-3.96662e-06
-3.15221e-06
-2.31307e-06
-1.58973e-06
-1.0536e-06
-6.98301e-07
-4.76479e-07
-3.38396e-07
-2.49662e-07
-1.90671e-07
-1.50452e-07
-1.22276e-07
-1.01878e-07
-8.66896e-08
-7.52064e-08
-6.64593e-08
-5.97396e-08
-5.45169e-08
-5.03886e-08
-4.70727e-08
-4.43509e-08
-4.20798e-08
-4.01358e-08
-3.84497e-08
-3.69468e-08
-3.55989e-08
-3.43557e-08
-3.32122e-08
-3.21296e-08
-3.11165e-08
-3.01389e-08
-2.92141e-08
-2.83092e-08
-2.74476e-08
-2.65958e-08
-2.5782e-08
-2.4971e-08
-2.41947e-08
-2.34161e-08
-2.26703e-08
-2.1918e-08
-2.11974e-08
-2.04669e-08
-1.97674e-08
-1.9055e-08
-1.83733e-08
-1.76761e-08
-1.70093e-08
-1.63247e-08
-1.56706e-08
-1.49965e-08
-1.4353e-08
-1.36877e-08
-1.3053e-08
-1.23949e-08
-1.17675e-08
-1.11153e-08
-1.04941e-08
-9.84657e-09
-9.23038e-09
-8.58655e-09
-7.97466e-09
-7.33337e-09
-6.72571e-09
-6.08518e-09
-5.48324e-09
-4.83887e-09
-4.24919e-09
-3.58689e-09
-3.03423e-09
-2.308e-09
-1.87994e-09
-9.27334e-10
-9.31049e-10
8.31544e-10
0.0748189
0.0742002
0.0720863
0.0684043
0.0621096
0.0515979
0.0349298
0.00876935
-0.0276559
-0.0770037
-0.12626
-0.161637
-0.192869
-0.218282
-0.23856
-0.254998
-0.267332
-0.274936
-0.276503
-0.270715
-0.25689
-0.235573
-0.208605
-0.178771
-0.148947
-0.121366
-0.0973189
-0.0772609
-0.0610614
-0.048274
-0.0383318
-0.0306698
-0.0247868
-0.0202665
-0.0167787
-0.0140678
-0.0119404
-0.0102517
-0.008894
-0.0077875
-0.00687327
-0.0061076
-0.00545801
-0.00490019
-0.00441587
-0.00399116
-0.00361545
-0.0032805
-0.0029799
-0.00270861
-0.00246256
-0.00223848
-0.00203367
-0.0018459
-0.00167328
-0.00151424
-0.00136747
-0.00123187
-0.00110651
-0.000990621
-0.000883557
-0.000784802
-0.00069396
-0.000610744
-0.000534935
-0.000466302
-0.000404474
-0.000348828
-0.000298448
-0.000252235
-0.000209202
-0.000168844
-0.000131408
-9.78514e-05
-6.93986e-05
-4.69006e-05
-3.03836e-05
-1.9075e-05
-1.18044e-05
-7.45143e-06
-5.15974e-06
-4.26249e-06
-4.15448e-06
-4.26776e-06
-4.17102e-06
-3.68567e-06
-2.90094e-06
-2.03839e-06
-1.30287e-06
-7.87566e-07
-4.7664e-07
-3.04475e-07
-2.09362e-07
-1.53813e-07
-1.19709e-07
-9.82045e-08
-8.40369e-08
-7.39492e-08
-6.62548e-08
-6.02204e-08
-5.54633e-08
-5.16794e-08
-4.86168e-08
-4.6074e-08
-4.39195e-08
-4.20471e-08
-4.03969e-08
-3.89063e-08
-3.75515e-08
-3.62907e-08
-3.51198e-08
-3.4006e-08
-3.29571e-08
-3.19436e-08
-3.09811e-08
-3.00403e-08
-2.91425e-08
-2.82572e-08
-2.74101e-08
-2.65687e-08
-2.57627e-08
-2.49571e-08
-2.41851e-08
-2.34093e-08
-2.26658e-08
-2.19149e-08
-2.11957e-08
-2.04658e-08
-1.97671e-08
-1.90549e-08
-1.83737e-08
-1.76765e-08
-1.70101e-08
-1.63253e-08
-1.56715e-08
-1.49972e-08
-1.43539e-08
-1.36884e-08
-1.30539e-08
-1.23956e-08
-1.17685e-08
-1.1116e-08
-1.0495e-08
-9.84718e-09
-9.23123e-09
-8.58711e-09
-7.97548e-09
-7.33389e-09
-6.72653e-09
-6.08565e-09
-5.48417e-09
-4.8392e-09
-4.25056e-09
-3.58669e-09
-3.03701e-09
-2.30567e-09
-1.8873e-09
-9.17422e-10
-9.51046e-10
8.6486e-10
0.0795374
0.0791678
0.07788
0.0753514
0.0704924
0.0614852
0.0457656
0.0188717
-0.0211794
-0.0797651
-0.136781
-0.172948
-0.204947
-0.230383
-0.250596
-0.267452
-0.280615
-0.289305
-0.291694
-0.285881
-0.27078
-0.246901
-0.216445
-0.182861
-0.149681
-0.11954
-0.0938314
-0.0729114
-0.0564546
-0.0438131
-0.0342503
-0.0270773
-0.0217104
-0.0176846
-0.0146437
-0.0123218
-0.0105241
-0.00910945
-0.00797632
-0.00705192
-0.00628411
-0.00563547
-0.005079
-0.00459508
-0.0041693
-0.00379093
-0.0034519
-0.00314604
-0.00286856
-0.00261568
-0.00238437
-0.00217215
-0.00197692
-0.00179693
-0.00163065
-0.00147679
-0.00133424
-0.00120207
-0.00107948
-0.000965829
-0.000860553
-0.000763216
-0.000673485
-0.000591127
-0.000515975
-0.00044785
-0.000386445
-0.000331209
-0.000281307
-0.000235712
-0.000193485
-0.000154141
-0.000117901
-8.56653e-05
-5.85893e-05
-3.7447e-05
-2.22231e-05
-1.21289e-05
-6.01469e-06
-2.81335e-06
-1.67793e-06
-1.89627e-06
-2.76135e-06
-3.59473e-06
-3.90755e-06
-3.55399e-06
-2.7333e-06
-1.78902e-06
-1.00826e-06
-5.04777e-07
-2.41906e-07
-1.25282e-07
-7.67045e-08
-5.56956e-08
-4.69953e-08
-4.46406e-08
-4.49091e-08
-4.54513e-08
-4.54369e-08
-4.49595e-08
-4.4266e-08
-4.34731e-08
-4.26111e-08
-4.16826e-08
-4.07104e-08
-3.97028e-08
-3.86848e-08
-3.76559e-08
-3.66384e-08
-3.56237e-08
-3.46329e-08
-3.36505e-08
-3.26979e-08
-3.17545e-08
-3.08435e-08
-2.99402e-08
-2.90699e-08
-2.82045e-08
-2.73721e-08
-2.65413e-08
-2.57432e-08
-2.49432e-08
-2.41755e-08
-2.34025e-08
-2.26614e-08
-2.1912e-08
-2.1194e-08
-2.04648e-08
-1.97669e-08
-1.9055e-08
-1.83742e-08
-1.7677e-08
-1.70109e-08
-1.63261e-08
-1.56725e-08
-1.49981e-08
-1.4355e-08
-1.36892e-08
-1.30549e-08
-1.23964e-08
-1.17694e-08
-1.11167e-08
-1.04959e-08
-9.84786e-09
-9.23208e-09
-8.58773e-09
-7.97629e-09
-7.33445e-09
-6.72733e-09
-6.08615e-09
-5.48506e-09
-4.83957e-09
-4.25181e-09
-3.58656e-09
-3.03941e-09
-2.30374e-09
-1.89318e-09
-9.09545e-10
-9.6572e-10
8.89102e-10
0.0844069
0.0843296
0.0840125
0.082886
0.07986
0.0729534
0.0588435
0.0317257
-0.0126654
-0.0841644
-0.15099
-0.186812
-0.219477
-0.244563
-0.264226
-0.281212
-0.295194
-0.305245
-0.308882
-0.303407
-0.287067
-0.260238
-0.225566
-0.187408
-0.150185
-0.117045
-0.089478
-0.0676748
-0.0510412
-0.0386701
-0.0296186
-0.0230547
-0.018305
-0.0148543
-0.0123226
-0.0104368
-0.00900398
-0.00788942
-0.00700006
-0.00627182
-0.00566076
-0.00513674
-0.00467901
-0.00427315
-0.00390902
-0.00357935
-0.00327883
-0.00300347
-0.00275021
-0.00251665
-0.00230082
-0.00210107
-0.00191597
-0.00174422
-0.00158469
-0.00143635
-0.00129832
-0.00116982
-0.0010502
-0.000938934
-0.000835556
-0.000739711
-0.000651131
-0.000569632
-0.000495093
-0.000427385
-0.000366272
-0.000311303
-0.000261765
-0.000216763
-0.000175451
-0.000137382
-0.000102756
-7.23271e-05
-4.70616e-05
-2.76041e-05
-1.38359e-05
-4.98336e-06
-1.95884e-08
2.01178e-06
1.90693e-06
4.3562e-07
-1.54314e-06
-3.18454e-06
-3.91292e-06
-3.62733e-06
-2.67893e-06
-1.5762e-06
-7.0976e-07
-2.0924e-07
-2.07497e-10
5.43238e-08
5.39084e-08
4.07622e-08
2.49649e-08
8.64692e-09
-5.9681e-09
-1.71197e-08
-2.47372e-08
-2.9769e-08
-3.31141e-08
-3.53032e-08
-3.66361e-08
-3.73159e-08
-3.75199e-08
-3.73724e-08
-3.69829e-08
-3.6413e-08
-3.57308e-08
-3.4961e-08
-3.41492e-08
-3.32976e-08
-3.24407e-08
-3.15671e-08
-3.07072e-08
-2.98411e-08
-2.89982e-08
-2.81525e-08
-2.73348e-08
-2.65145e-08
-2.57242e-08
-2.49298e-08
-2.41663e-08
-2.33962e-08
-2.26574e-08
-2.19094e-08
-2.11927e-08
-2.04642e-08
-1.9767e-08
-1.90553e-08
-1.8375e-08
-1.76778e-08
-1.7012e-08
-1.63271e-08
-1.56737e-08
-1.49992e-08
-1.43562e-08
-1.36903e-08
-1.30561e-08
-1.23974e-08
-1.17706e-08
-1.11177e-08
-1.04969e-08
-9.84873e-09
-9.23308e-09
-8.58852e-09
-7.97723e-09
-7.33517e-09
-6.72824e-09
-6.08679e-09
-5.48603e-09
-4.84008e-09
-4.25305e-09
-3.58662e-09
-3.04154e-09
-2.30228e-09
-1.89789e-09
-9.03488e-10
-9.76427e-10
9.0653e-10
0.0893117
0.0895697
0.0903645
0.0909102
0.0901734
0.0861577
0.0746137
0.0483526
-0.00120709
-0.0911511
-0.171272
-0.203817
-0.235683
-0.259827
-0.279074
-0.296684
-0.312168
-0.324366
-0.329822
-0.324864
-0.306982
-0.276402
-0.236382
-0.192503
-0.150344
-0.113679
-0.0840491
-0.0613785
-0.0446977
-0.0327666
-0.024393
-0.0185822
-0.0145655
-0.0117789
-0.00982303
-0.00842209
-0.00738933
-0.0066002
-0.00597271
-0.00545356
-0.00500849
-0.00461572
-0.00426151
-0.00393722
-0.00363735
-0.00335834
-0.00309782
-0.00285412
-0.00262601
-0.0024125
-0.00221275
-0.00202599
-0.00185145
-0.00168834
-0.0015359
-0.00139339
-0.00126012
-0.0011355
-0.00101901
-0.000910244
-0.000808847
-0.000714548
-0.000627143
-0.000546493
-0.000472515
-0.000405127
-0.000344175
-0.000289339
-0.000240081
-0.000195699
-0.000155507
-0.000119094
-8.65435e-05
-5.84304e-05
-3.54371e-05
-1.79005e-05
-5.62269e-06
2.05807e-06
5.98133e-06
6.894e-06
5.49489e-06
2.63549e-06
-6.0322e-07
-3.13637e-06
-4.26614e-06
-3.95426e-06
-2.75626e-06
-1.40034e-06
-4.03308e-07
9.97381e-08
2.44861e-07
2.29064e-07
1.77896e-07
1.32409e-07
9.41762e-08
6.02363e-08
3.17051e-08
1.02301e-08
-4.75236e-09
-1.50778e-08
-2.23184e-08
-2.73968e-08
-3.08582e-08
-3.3095e-08
-3.44364e-08
-3.51203e-08
-3.53385e-08
-3.52124e-08
-3.48543e-08
-3.43212e-08
-3.36823e-08
-3.2957e-08
-3.21925e-08
-3.13863e-08
-3.05758e-08
-2.97456e-08
-2.89291e-08
-2.81026e-08
-2.7299e-08
-2.64889e-08
-2.57062e-08
-2.49171e-08
-2.41576e-08
-2.33903e-08
-2.26537e-08
-2.19072e-08
-2.11917e-08
-2.04638e-08
-1.97673e-08
-1.90559e-08
-1.83759e-08
-1.76788e-08
-1.70133e-08
-1.63283e-08
-1.5675e-08
-1.50004e-08
-1.43575e-08
-1.36915e-08
-1.30574e-08
-1.23985e-08
-1.17718e-08
-1.11187e-08
-1.04981e-08
-9.84969e-09
-9.23412e-09
-8.58939e-09
-7.97819e-09
-7.33596e-09
-6.72916e-09
-6.08749e-09
-5.48698e-09
-4.84063e-09
-4.25421e-09
-3.58678e-09
-3.04336e-09
-2.30117e-09
-1.90156e-09
-8.98869e-10
-9.84155e-10
9.19016e-10
0.0941184
0.0947469
0.0967817
0.0992504
0.101312
0.101089
0.0934553
0.0697764
0.013844
-0.101388
-0.197932
-0.22582
-0.257001
-0.278493
-0.295766
-0.313247
-0.330272
-0.345294
-0.353481
-0.349867
-0.330697
-0.295771
-0.249158
-0.198166
-0.149983
-0.109182
-0.0772963
-0.0538302
-0.0372974
-0.0260319
-0.0185434
-0.0136558
-0.0105028
-0.00847655
-0.00716533
-0.00629763
-0.00569853
-0.00525789
-0.00490802
-0.00460865
-0.00433678
-0.00408012
-0.0038327
-0.00359218
-0.00335809
-0.00313083
-0.0029111
-0.00269966
-0.00249715
-0.00230408
-0.00212077
-0.00194732
-0.00178365
-0.0016295
-0.00148445
-0.00134804
-0.00121979
-0.00109924
-0.000986047
-0.000879902
-0.000780575
-0.000687882
-0.000601682
-0.000521879
-0.000448421
-0.000381278
-0.000320393
-0.000265615
-0.000216638
-0.000173007
-0.000134216
-9.99039e-05
-6.99946e-05
-4.46882e-05
-2.42567e-05
-8.7576e-06
2.09903e-06
8.824e-06
1.19189e-05
1.18145e-05
9.07983e-06
4.68949e-06
3.4741e-08
-3.4733e-06
-4.97894e-06
-4.53172e-06
-2.94906e-06
-1.24355e-06
-7.84627e-08
4.2307e-07
4.88104e-07
3.92303e-07
2.8996e-07
2.15809e-07
1.5851e-07
1.08648e-07
6.70507e-08
3.58515e-08
1.40069e-08
-1.23854e-09
-1.21319e-08
-1.99409e-08
-2.54158e-08
-2.91215e-08
-3.1534e-08
-3.30006e-08
-3.37911e-08
-3.40827e-08
-3.40296e-08
-3.37193e-08
-3.32433e-08
-3.26369e-08
-3.19594e-08
-3.12167e-08
-3.04526e-08
-2.96563e-08
-2.88646e-08
-2.80562e-08
-2.72658e-08
-2.64653e-08
-2.56896e-08
-2.49056e-08
-2.41499e-08
-2.33853e-08
-2.26507e-08
-2.19055e-08
-2.11911e-08
-2.04639e-08
-1.97679e-08
-1.90568e-08
-1.83772e-08
-1.76802e-08
-1.70148e-08
-1.63298e-08
-1.56766e-08
-1.50019e-08
-1.43591e-08
-1.36929e-08
-1.30589e-08
-1.23998e-08
-1.17731e-08
-1.11199e-08
-1.04993e-08
-9.8508e-09
-9.23528e-09
-8.5904e-09
-7.97926e-09
-7.33687e-09
-6.73016e-09
-6.08829e-09
-5.48797e-09
-4.84128e-09
-4.25534e-09
-3.58707e-09
-3.04496e-09
-2.30042e-09
-1.90445e-09
-8.95453e-10
-9.89745e-10
9.27901e-10
0.0986789
0.0997055
0.103069
0.107702
0.113063
0.117844
0.115962
0.0988437
0.0345844
-0.124113
-0.238481
-0.24832
-0.277707
-0.298082
-0.314357
-0.331998
-0.350726
-0.368816
-0.379867
-0.377785
-0.35739
-0.31769
-0.263459
-0.204083
-0.148812
-0.103276
-0.0689766
-0.0448475
-0.0287212
-0.0183998
-0.0120413
-0.00827089
-0.00612567
-0.00496255
-0.00436721
-0.00408106
-0.00394783
-0.00387681
-0.00381819
-0.00374724
-0.00365397
-0.00353671
-0.00339809
-0.00324257
-0.00307502
-0.00289999
-0.00272138
-0.00254242
-0.0023657
-0.00219322
-0.00202647
-0.00186649
-0.00171387
-0.00156884
-0.00143136
-0.00130121
-0.00117811
-0.00106175
-0.000951931
-0.000848474
-0.000751267
-0.00066022
-0.000575253
-0.000496308
-0.000423366
-0.000356457
-0.000295649
-0.000240993
-0.000192451
-0.000149839
-0.000112833
-8.10552e-05
-5.41764e-05
-3.19653e-05
-1.4206e-05
-6.13769e-07
9.12875e-06
1.52435e-05
1.7783e-05
1.67888e-05
1.26913e-05
6.64462e-06
4.4171e-07
-4.10051e-06
-5.94214e-06
-5.25176e-06
-3.16704e-06
-1.04348e-06
2.99649e-07
7.75863e-07
7.34123e-07
5.44692e-07
3.89801e-07
2.90499e-07
2.1713e-07
1.52997e-07
9.92742e-08
5.9117e-08
3.10727e-08
1.14007e-08
-2.81731e-09
-1.31331e-08
-2.0455e-08
-2.55026e-08
-2.88912e-08
-3.10708e-08
-3.23825e-08
-3.30547e-08
-3.32794e-08
-3.31719e-08
-3.28441e-08
-3.2346e-08
-3.17476e-08
-3.10628e-08
-3.0341e-08
-2.95755e-08
-2.88063e-08
-2.80143e-08
-2.7236e-08
-2.64442e-08
-2.5675e-08
-2.48956e-08
-2.41433e-08
-2.33811e-08
-2.26483e-08
-2.19044e-08
-2.1191e-08
-2.04643e-08
-1.97688e-08
-1.9058e-08
-1.83786e-08
-1.76817e-08
-1.70164e-08
-1.63314e-08
-1.56783e-08
-1.50035e-08
-1.43607e-08
-1.36944e-08
-1.30604e-08
-1.24012e-08
-1.17746e-08
-1.11212e-08
-1.05006e-08
-9.852e-09
-9.23649e-09
-8.59148e-09
-7.98037e-09
-7.33784e-09
-6.73118e-09
-6.08914e-09
-5.48896e-09
-4.84199e-09
-4.25641e-09
-3.58745e-09
-3.04633e-09
-2.29994e-09
-1.90669e-09
-8.92959e-10
-9.93756e-10
9.34206e-10
0.102834
0.104261
0.108996
0.115898
0.125062
0.135709
0.142319
0.134802
0.062958
-0.133596
-0.304823
-0.292875
-0.307755
-0.31634
-0.326359
-0.34138
-0.360701
-0.382414
-0.398125
-0.399602
-0.37983
-0.337027
-0.276204
-0.208754
-0.14632
-0.0959503
-0.0592798
-0.0346749